A-SYNC WITH FASUDIL in water
35354
  121NASP     N    1   1.410   2.710   1.055  0.2399  0.5905  0.2744
  121NASP    H1    2   1.403   2.792   0.997  2.1805  0.4363 -0.2451
  121NASP    H2    3   1.358   2.720   1.141  0.2824 -0.6088  0.4665
  121NASP    H3    4   1.377   2.629   1.004  2.7491  0.7996 -1.9176
  121NASP    CA    5   1.551   2.681   1.079 -0.3390  0.2091 -0.5418
  121NASP    HA    6   1.558   2.590   1.138 -0.4312  1.6656  1.9111
  121NASP    CB    7   1.633   2.667   0.954  0.7185  0.1840 -0.2797
  121NASP   HB1    8   1.588   2.583   0.901  0.4065  1.3769 -2.0161
  121NASP   HB2    9   1.738   2.650   0.977  0.3062  1.1409  2.6179
  121NASP    CG   10   1.628   2.795   0.872 -0.3936 -0.4445  0.0729
  121NASP   OD1   11   1.699   2.817   0.773 -0.8034  0.2351  0.4100
  121NASP   OD2   12   1.538   2.875   0.890 -0.4857 -0.6542 -0.4622
  121NASP     C   13   1.610   2.784   1.180  0.2059 -0.3247  0.1900
  121NASP     O   14   1.558   2.894   1.191  0.5996  0.5850 -0.4173
  122ASN      N   15   1.713   2.740   1.248 -0.0400  0.0436  0.1133
  122ASN      H   16   1.750   2.647   1.235 -1.6447 -0.5476 -0.4293
  122ASN     CA   17   1.761   2.805   1.371  0.0229  0.3765  0.5779
  122ASN     HA   18   1.756   2.913   1.355  2.4748  0.2047 -2.2534
  122ASN     CB   19   1.669   2.766   1.488 -0.3587  0.0072  0.0183
  122ASN    HB1   20   1.690   2.666   1.525  1.4054  0.1647 -0.4791
  122ASN    HB2   21   1.564   2.771   1.460 -0.5590 -0.6028  0.6145
  122ASN     CG   22   1.676   2.870   1.604 -0.0514  0.8930 -0.1862
  122ASN    OD1   23   1.754   2.961   1.606 -0.2844 -0.2966 -0.2248
  122ASN    ND2   24   1.591   2.859   1.705 -0.2701 -0.2014 -0.1530
  122ASN   HD21   25   1.607   2.929   1.776 -0.0224  1.3186 -1.6353
  122ASN   HD22   26   1.521   2.786   1.710 -1.1518  0.5154 -1.2609
  122ASN      C   27   1.906   2.761   1.397  0.2866 -0.4637  0.3063
  122ASN      O   28   1.950   2.657   1.354 -0.5930 -0.3077 -0.1136
  123GLU      N   29   1.985   2.851   1.453 -0.0165 -0.1826  0.0507
  123GLU      H   30   1.939   2.930   1.494 -0.2443  0.0064 -0.5651
  123GLU     CA   31   2.140   2.846   1.452 -0.7376  0.3619 -0.2840
  123GLU     HA   32   2.183   2.748   1.471 -1.1434  0.4883  1.4773
  123GLU     CB   33   2.188   2.884   1.313 -0.0693 -0.2659 -0.0777
  123GLU    HB1   34   2.242   2.979   1.314  0.0337 -0.2960 -1.3569
  123GLU    HB2   35   2.105   2.904   1.246 -0.9406 -0.1154  1.0244
  123GLU     CG   36   2.283   2.791   1.235  0.8589 -0.5219 -0.9237
  123GLU    HG1   37   2.297   2.844   1.141  0.0548  0.4969 -0.4824
  123GLU    HG2   38   2.232   2.696   1.221 -0.5459  0.0595  0.0579
  123GLU     CD   39   2.420   2.778   1.298  0.1399 -0.4274  0.4092
  123GLU    OE1   40   2.437   2.682   1.378 -0.3152 -0.4158 -0.1893
  123GLU    OE2   41   2.506   2.863   1.271  0.2081 -0.0021  0.4446
  123GLU      C   42   2.212   2.939   1.551  1.5238  0.6178  0.5053
  123GLU      O   43   2.154   3.023   1.619  0.5952  0.4447  0.0587
  124ALA      N   44   2.340   2.927   1.562  0.0156  0.1794  0.4522
  124ALA      H   45   2.380   2.851   1.509  0.7718  1.4317 -0.8661
  124ALA     CA   46   2.426   3.021   1.623 -0.0847  0.4816  0.2152
  124ALA     HA   47   2.387   3.061   1.717  0.4219 -0.8651  1.0421
  124ALA     CB   48   2.553   2.938   1.666 -0.0867 -0.1398 -0.0135
  124ALA    HB1   49   2.620   3.000   1.726  1.4210 -2.1952  0.5593
  124ALA    HB2   50   2.605   2.896   1.579 -1.6143  0.7414 -1.4063
  124ALA    HB3   51   2.515   2.860   1.732  0.7582  0.9842  1.8651
  124ALA      C   52   2.445   3.144   1.532  0.1550 -0.0100 -0.3980
  124ALA      O   53   2.558   3.181   1.513  0.2040 -0.2895  0.7354
  125TYR      N   54   2.338   3.213   1.489  0.4636  0.0370 -0.5970
  125TYR      H   55   2.246   3.181   1.514  0.3948 -0.4596 -1.4482
  125TYR     CA   56   2.345   3.342   1.416 -0.5298  0.1095  0.2385
  125TYR     HA   57   2.409   3.326   1.329  1.3426  1.1498  1.3803
  125TYR     CB   58   2.204   3.381   1.365 -0.7971  0.2520 -0.4658
  125TYR    HB1   59   2.212   3.462   1.292 -1.7991  0.8584  0.0897
  125TYR    HB2   60   2.150   3.407   1.456 -1.1676 -0.3082 -0.5157
  125TYR     CG   61   2.124   3.269   1.301 -0.2031 -0.0691 -0.2740
  125TYR    CD1   62   2.001   3.227   1.360  0.2234 -0.4079 -0.4351
  125TYR    HD1   63   1.977   3.259   1.461 -1.2051  0.2017 -0.9432
  125TYR    CE1   64   1.917   3.143   1.293 -0.9131 -0.0823 -0.1962
  125TYR    HE1   65   1.822   3.116   1.336 -0.3597 -0.0893  1.0578
  125TYR     CZ   66   1.949   3.090   1.167  0.2176 -0.2701 -0.4689
  125TYR     OH   67   1.857   3.002   1.118  0.1199 -0.4353 -0.4654
  125TYR     HH   68   1.870   2.976   1.027 -0.0078 -1.4330 -0.2058
  125TYR    CE2   69   2.068   3.132   1.103 -0.0982 -0.1457 -0.0906
  125TYR    HE2   70   2.092   3.084   1.009  0.7064  0.6937 -0.3199
  125TYR    CD2   71   2.145   3.231   1.164  0.2947  0.8966  0.4270
  125TYR    HD2   72   2.224   3.269   1.101  0.4549 -0.5407 -0.2812
  125TYR      C   73   2.411   3.451   1.505  0.1969 -0.4900  0.6305
  125TYR      O   74   2.386   3.457   1.626 -0.0946 -0.1013 -0.1724
  126GLU      N   75   2.479   3.549   1.437  0.3016 -0.8725  0.5292
  126GLU      H   76   2.488   3.536   1.338 -0.2059 -0.6115  0.4403
  126GLU     CA   77   2.554   3.662   1.503 -0.4725  0.5719  0.1933
  126GLU     HA   78   2.636   3.627   1.566 -1.1828 -1.6115 -0.0309
  126GLU     CB   79   2.624   3.736   1.383  0.0380 -0.8123  0.2566
  126GLU    HB1   80   2.550   3.794   1.327 -0.4229 -0.3105  1.3480
  126GLU    HB2   81   2.676   3.657   1.329  0.3584 -0.1198 -0.4665
  126GLU     CG   82   2.732   3.836   1.422  0.0124 -0.1614  0.1905
  126GLU    HG1   83   2.791   3.778   1.493 -1.3937 -0.9008  0.8156
  126GLU    HG2   84   2.678   3.914   1.477 -1.5173  0.8911 -2.6208
  126GLU     CD   85   2.808   3.898   1.300  0.0919  0.1215  0.9432
  126GLU    OE1   86   2.833   4.022   1.304 -0.2547  0.0791 -0.4459
  126GLU    OE2   87   2.852   3.830   1.203 -0.5178  0.1605 -0.0042
  126GLU      C   88   2.469   3.751   1.583 -0.2775  0.2647  0.0927
  126GLU      O   89   2.348   3.766   1.546 -0.0727 -0.3873 -0.2291
  127MET      N   90   2.525   3.806   1.686 -0.5814  0.1425 -0.5066
  127MET      H   91   2.620   3.794   1.716 -1.3043 -1.8426  1.2101
  127MET     CA   92   2.453   3.897   1.773  0.2421  0.3778 -0.6928
  127MET     HA   93   2.366   3.930   1.716 -2.2761 -3.2229  0.6585
  127MET     CB   94   2.404   3.833   1.901  0.0378  0.2313 -0.3212
  127MET    HB1   95   2.368   3.914   1.964  0.4348 -0.6288  1.0768
  127MET    HB2   96   2.486   3.789   1.958 -0.4409  0.4074  0.5141
  127MET     CG   97   2.296   3.723   1.887  0.0860  0.0857 -0.4527
  127MET    HG1   98   2.337   3.642   1.828 -0.5361 -2.1182  1.9483
  127MET    HG2   99   2.215   3.756   1.822  0.4582  0.8953 -0.5326
  127MET     SD  100   2.230   3.654   2.045  0.2081  0.2331  0.1597
  127MET     CE  101   2.113   3.776   2.099 -0.2183 -0.5377  0.4921
  127MET    HE1  102   2.057   3.825   2.019 -0.3752 -0.7646  0.4618
  127MET    HE2  103   2.165   3.848   2.161  0.8026 -0.0666 -0.8728
  127MET    HE3  104   2.029   3.730   2.152 -0.2561 -0.6017  0.3778
  127MET      C  105   2.535   4.020   1.823  0.2638 -0.2322  0.2310
  127MET      O  106   2.655   4.004   1.821  0.3669 -0.5031 -0.1219
  128PRO      N  107   2.474   4.139   1.850 -0.0332  0.0995  0.2841
  128PRO     CD  108   2.332   4.173   1.824 -0.3916  0.0243 -0.3612
  128PRO    HD1  109   2.272   4.169   1.915  0.4764  2.2299  0.3819
  128PRO    HD2  110   2.290   4.117   1.741 -0.8393  0.9523 -0.7773
  128PRO     CG  111   2.339   4.315   1.780  0.4364  0.2361 -0.1512
  128PRO    HG1  112   2.249   4.370   1.806 -0.2120 -0.8287 -0.0829
  128PRO    HG2  113   2.368   4.328   1.675  2.0289  1.6585  0.4132
  128PRO     CB  114   2.442   4.369   1.875 -0.5228  0.7235 -0.7105
  128PRO    HB1  115   2.478   4.469   1.853  0.9054  0.8135  1.6863
  128PRO    HB2  116   2.389   4.376   1.970 -1.6812 -0.2567 -1.2539
  128PRO     CA  117   2.547   4.259   1.889  0.2496 -0.6468  0.9914
  128PRO     HA  118   2.619   4.276   1.809  0.7236 -0.4700  1.4552
  128PRO      C  119   2.615   4.259   2.031  0.7853 -0.3017 -0.8703
  128PRO      O  120   2.653   4.365   2.083 -0.0044 -0.3994  0.0505
  129SER      N  121   2.602   4.144   2.100 -0.1156  0.0068 -0.3213
  129SER      H  122   2.554   4.068   2.055 -0.1274  0.3607 -0.9289
  129SER     CA  123   2.621   4.126   2.247 -0.0936  0.9242  0.8516
  129SER     HA  124   2.620   4.226   2.291  0.8485  1.7441 -0.9054
  129SER     CB  125   2.505   4.042   2.311  0.4654 -1.0895 -0.0187
  129SER    HB1  126   2.418   4.095   2.273  1.4569 -1.4006 -2.9934
  129SER    HB2  127   2.518   4.040   2.419  3.1060  0.0603 -0.2291
  129SER     OG  128   2.498   3.909   2.263  0.2667 -0.1005 -0.1011
  129SER    HG1  129   2.417   3.871   2.297 -0.5332  1.6909  0.0739
  129SER      C  130   2.759   4.066   2.282  0.3278 -0.1038  0.5845
  129SER      O  131   2.830   4.017   2.192  0.2862 -0.0067  0.0291
  130GLU      N  132   2.801   4.064   2.407  0.0097  0.1764  0.0907
  130GLU      H  133   2.743   4.103   2.480 -0.0271 -0.4478  0.4011
  130GLU     CA  134   2.918   3.991   2.450 -0.3587 -1.3597  0.2149
  130GLU     HA  135   2.992   4.054   2.402 -2.6622  1.4956  0.1361
  130GLU     CB  136   2.934   4.003   2.605  0.4289 -0.0704 -0.1735
  130GLU    HB1  137   3.028   3.957   2.634  1.2002  1.1151 -0.6926
  130GLU    HB2  138   2.850   3.951   2.650  0.4834 -0.1365 -0.1483
  130GLU     CG  139   2.943   4.154   2.657 -0.6819 -0.7149  0.8872
  130GLU    HG1  140   2.858   4.219   2.636  0.6864  1.1251  0.8713
  130GLU    HG2  141   3.023   4.206   2.604 -1.8295  0.2163 -0.0008
  130GLU     CD  142   2.969   4.151   2.811  1.2440  0.1683  0.3029
  130GLU    OE1  143   3.005   4.254   2.869  0.1296  0.2490 -0.1840
  130GLU    OE2  144   2.943   4.047   2.872  0.1849  0.1822 -0.4738
  130GLU      C  145   2.924   3.853   2.409 -0.2778 -0.5563 -0.3470
  130GLU      O  146   3.035   3.800   2.392  0.6546  0.2195 -0.5640
  131GLU      N  147   2.807   3.792   2.385 -0.0187  0.0359 -0.6391
  131GLU      H  148   2.725   3.848   2.405  0.4505  0.0981  1.3212
  131GLU     CA  149   2.789   3.649   2.346  0.2605  0.0118  0.2278
  131GLU     HA  150   2.869   3.590   2.389  1.0906 -0.1048 -1.4053
  131GLU     CB  151   2.661   3.594   2.397  0.4550 -0.2454  0.0775
  131GLU    HB1  152   2.666   3.489   2.368  1.1668 -0.5210  1.1411
  131GLU    HB2  153   2.577   3.649   2.353  0.6499 -1.0529 -1.3651
  131GLU     CG  154   2.653   3.579   2.551 -0.3738  0.1127 -0.1667
  131GLU    HG1  155   2.745   3.536   2.590 -0.4768 -1.0239 -1.1004
  131GLU    HG2  156   2.577   3.502   2.561  1.5148 -2.0147 -1.2496
  131GLU     CD  157   2.624   3.700   2.630  0.6454 -0.6880  0.1105
  131GLU    OE1  158   2.640   3.700   2.755  0.0162  0.0606 -0.5916
  131GLU    OE2  159   2.563   3.790   2.574  0.0065 -0.0116  0.1036
  131GLU      C  160   2.814   3.618   2.197  0.1333  0.0808 -0.5199
  131GLU      O  161   2.816   3.493   2.173  0.0405 -0.1825  0.3260
  132GLY      N  162   2.820   3.718   2.108  0.2464  0.1353  0.0947
  132GLY      H  163   2.815   3.808   2.154  2.5071  0.0324  0.6817
  132GLY     CA  164   2.881   3.719   1.973  0.3822 -0.0210  0.3411
  132GLY    HA1  165   2.965   3.649   1.981  0.0640 -0.4994 -0.3509
  132GLY    HA2  166   2.916   3.816   1.939  2.1327 -0.4627  0.7749
  132GLY      C  167   2.785   3.650   1.873 -0.6264 -0.4180 -0.1167
  132GLY      O  168   2.774   3.690   1.756 -0.2228 -0.0373 -0.7397
  133TYR      N  169   2.716   3.542   1.915  0.2038  0.7772  1.0659
  133TYR      H  170   2.733   3.517   2.011  0.5403 -2.8058  0.2218
  133TYR     CA  171   2.623   3.454   1.839  0.4670  0.6866  0.1642
  133TYR     HA  172   2.576   3.497   1.750 -1.1408 -3.7369 -1.3645
  133TYR     CB  173   2.701   3.333   1.783 -0.2566  0.3301 -0.2252
  133TYR    HB1  174   2.626   3.268   1.737  0.1384 -0.6185  0.4352
  133TYR    HB2  175   2.751   3.289   1.869  2.2536  1.4841 -0.9812
  133TYR     CG  176   2.807   3.378   1.677  0.5712 -0.0617  0.0189
  133TYR    CD1  177   2.941   3.391   1.721 -0.7613 -0.4315  0.5086
  133TYR    HD1  178   2.963   3.379   1.826 -1.6400  0.2489  0.7735
  133TYR    CE1  179   3.047   3.416   1.630 -0.0823 -0.0470  0.2341
  133TYR    HE1  180   3.148   3.415   1.668 -0.4448  1.5857  1.3220
  133TYR     CZ  181   3.015   3.441   1.495  0.4468 -0.5528  0.4608
  133TYR     OH  182   3.109   3.475   1.406 -0.0341  0.7277  0.3220
  133TYR     HH  183   3.198   3.479   1.443  0.1071  0.7152 -0.0170
  133TYR    CE2  184   2.881   3.436   1.451  0.1057 -0.4018  0.6536
  133TYR    HE2  185   2.865   3.457   1.346  0.4512 -1.8680  0.2776
  133TYR    CD2  186   2.781   3.397   1.541  0.2140  0.4044  0.0941
  133TYR    HD2  187   2.681   3.377   1.506  0.9453 -1.0012 -1.3094
  133TYR      C  188   2.502   3.411   1.927 -0.4735 -0.5146  0.2593
  133TYR      O  189   2.498   3.442   2.044  0.1054 -0.3371 -0.1247
  134GLN      N  190   2.400   3.348   1.878  0.5089  0.3780  0.0144
  134GLN      H  191   2.392   3.331   1.779 -1.2462 -1.9584  0.4708
  134GLN     CA  192   2.290   3.285   1.954  0.0405  0.2350  0.6052
  134GLN     HA  193   2.251   3.353   2.030  1.2709  1.6650  0.0109
  134GLN     CB  194   2.172   3.263   1.857  0.3211 -0.1164  0.1147
  134GLN    HB1  195   2.088   3.204   1.893 -0.7007 -0.2469 -2.3090
  134GLN    HB2  196   2.212   3.210   1.770  1.1796 -1.1468  1.0866
  134GLN     CG  197   2.103   3.399   1.818  0.3223  0.2203  0.0811
  134GLN    HG1  198   2.053   3.382   1.722 -1.9236  1.8293  0.8880
  134GLN    HG2  199   2.183   3.472   1.803 -0.1715  0.8444  0.4469
  134GLN     CD  200   2.002   3.454   1.916  0.3117  0.1259 -0.0330
  134GLN    OE1  201   1.978   3.402   2.028 -0.1036 -0.3220  0.0436
  134GLN    NE2  202   1.928   3.561   1.890 -0.1250 -0.2197 -0.0708
  134GLN   HE21  203   1.854   3.592   1.951 -0.7302  0.4380 -1.1002
  134GLN   HE22  204   1.937   3.600   1.797  0.9189 -0.9832 -0.3034
  134GLN      C  205   2.330   3.158   2.025  0.0043  0.3978  0.0682
  134GLN      O  206   2.409   3.078   1.974 -0.2379 -0.0556  0.2298
  135ASP      N  207   2.278   3.134   2.146  0.0404  0.1765 -0.0416
  135ASP      H  208   2.212   3.200   2.186  0.5465  0.0558  1.0143
  135ASP     CA  209   2.318   3.016   2.226  0.1037  0.1433  0.2501
  135ASP     HA  210   2.423   2.993   2.212  0.2080  1.5054 -1.4675
  135ASP     CB  211   2.296   3.050   2.376 -0.0529  0.3585  0.4166
  135ASP    HB1  212   2.354   3.137   2.407  0.4185  0.8496 -1.6840
  135ASP    HB2  213   2.334   2.972   2.441 -1.2633 -2.1292 -1.6297
  135ASP     CG  214   2.154   3.083   2.414 -0.4417  0.1732 -0.1663
  135ASP    OD1  215   2.132   3.119   2.528  0.4157 -0.7004 -0.3475
  135ASP    OD2  216   2.061   3.084   2.329 -0.2738  0.6040 -0.2586
  135ASP      C  217   2.244   2.891   2.183  0.6847  0.3491 -0.4965
  135ASP      O  218   2.196   2.812   2.269  0.1378 -0.3688 -0.2772
  136TYR      N  219   2.231   2.872   2.055  0.2696  0.3805 -0.4494
  136TYR      H  220   2.271   2.941   1.992  0.1307  0.7139 -0.1747
  136TYR     CA  221   2.144   2.769   1.989 -0.0437 -0.0103 -0.0634
  136TYR     HA  222   2.046   2.770   2.038 -0.3848 -0.0491 -0.7356
  136TYR     CB  223   2.118   2.800   1.841  0.2461 -0.3682  0.2229
  136TYR    HB1  224   2.211   2.795   1.784  0.3308  0.8349  0.2284
  136TYR    HB2  225   2.067   2.896   1.836 -1.6036 -1.3340 -0.2925
  136TYR     CG  226   2.034   2.692   1.775  0.6617 -0.0384 -0.3879
  136TYR    CD1  227   1.896   2.676   1.806  0.3200  0.5156 -0.0266
  136TYR    HD1  228   1.853   2.734   1.887  1.7468 -1.1398  2.0109
  136TYR    CE1  229   1.817   2.572   1.747  0.0983 -0.0333  0.1650
  136TYR    HE1  230   1.717   2.562   1.785 -0.0182 -1.0500 -0.3526
  136TYR     CZ  231   1.882   2.484   1.657 -0.2175 -0.1744 -0.4943
  136TYR     OH  232   1.811   2.377   1.617 -0.5187 -0.4975  0.4113
  136TYR     HH  233   1.721   2.368   1.649 -1.7835 -1.1136 -2.9263
  136TYR    CE2  234   2.020   2.499   1.628 -0.0707  0.5551 -0.5637
  136TYR    HE2  235   2.074   2.428   1.567 -1.6957 -0.1143 -1.2857
  136TYR    CD2  236   2.090   2.601   1.689  0.2689 -0.5504  1.0339
  136TYR    HD2  237   2.194   2.621   1.668  0.6557 -0.5956  2.7542
  136TYR      C  238   2.195   2.625   2.014 -0.9229 -0.2643 -0.4288
  136TYR      O  239   2.318   2.596   2.011 -0.2180 -0.1574 -0.0893
  137GLU      N  240   2.103   2.528   2.027  0.3942  0.0643 -0.4178
  137GLU      H  241   2.007   2.557   2.016  0.5607  2.1377  2.4025
  137GLU     CA  242   2.135   2.385   2.044  0.2642 -0.2351  0.2403
  137GLU     HA  243   2.230   2.365   1.994 -0.1886  0.4267 -0.9073
  137GLU     CB  244   2.137   2.357   2.196 -0.3600  0.4049  0.8006
  137GLU    HB1  245   2.033   2.372   2.225 -0.8216 -0.1564 -0.4595
  137GLU    HB2  246   2.204   2.429   2.242 -0.3206  1.6015 -1.0420
  137GLU     CG  247   2.179   2.214   2.231 -0.6587 -0.1961 -0.3246
  137GLU    HG1  248   2.274   2.198   2.180 -1.3389 -1.6509 -1.2151
  137GLU    HG2  249   2.120   2.137   2.180  0.3277  0.5895 -2.8233
  137GLU     CD  250   2.199   2.180   2.378  1.0010  0.0176  0.1362
  137GLU    OE1  251   2.239   2.064   2.406  0.0433 -0.2090  0.2184
  137GLU    OE2  252   2.175   2.261   2.472 -1.0203  0.0076 -0.0769
  137GLU      C  253   2.024   2.302   1.979 -0.0334  0.2558 -0.6256
  137GLU      O  254   1.911   2.317   2.025 -0.7826 -0.2292 -0.1115
  138PRO      N  255   2.055   2.208   1.887  0.3872 -0.4956  0.4517
  138PRO     CD  256   2.168   2.217   1.792 -0.9628  0.1713  0.1420
  138PRO    HD1  257   2.248   2.165   1.845 -1.3776  0.5928  1.2259
  138PRO    HD2  258   2.200   2.316   1.758  0.6030 -0.0033  1.0223
  138PRO     CG  259   2.129   2.140   1.672  0.2407  0.0581 -0.6231
  138PRO    HG1  260   2.219   2.085   1.643 -0.3069 -0.4045 -1.4986
  138PRO    HG2  261   2.089   2.204   1.594  1.7321  1.1536 -0.5374
  138PRO     CB  262   2.022   2.049   1.719  0.6645 -0.2713 -0.3785
  138PRO    HB1  263   1.949   2.018   1.644 -0.8023 -1.1835  1.3384
  138PRO    HB2  264   2.066   1.957   1.759 -1.3127 -1.1308 -0.0292
  138PRO     CA  265   1.954   2.123   1.834  0.3092  0.2021  0.0124
  138PRO     HA  266   1.882   2.192   1.790 -0.9955 -1.7970 -1.1768
  138PRO      C  267   1.885   2.038   1.940  0.0805  0.1766  1.1518
  138PRO      O  268   1.948   1.984   2.029  0.2522  0.0230 -0.5012
  139GLU      N  269   1.750   2.028   1.922 -0.4563  0.1584 -0.2224
  139GLU      H  270   1.710   2.063   1.836 -4.0301  1.5294  1.7748
  139GLU     CA  271   1.651   1.938   1.994  0.2456  0.6731  0.7327
  139GLU     HA  272   1.562   1.964   1.937  0.5814  2.0934  0.8016
  139GLU     CB  273   1.685   1.788   1.985 -0.0855  0.1156 -0.6688
  139GLU    HB1  274   1.598   1.726   2.009 -0.2575  0.0464 -1.4579
  139GLU    HB2  275   1.767   1.769   2.055  0.3075 -0.5974 -1.3069
  139GLU     CG  276   1.723   1.740   1.843  0.2082 -0.7538  0.0286
  139GLU    HG1  277   1.813   1.792   1.809  1.3955 -2.7048  0.0897
  139GLU    HG2  278   1.637   1.770   1.782  1.3029  0.8730 -0.7919
  139GLU     CD  279   1.751   1.596   1.834 -0.0567 -0.0676  0.2483
  139GLU    OE1  280   1.810   1.531   1.927  0.2572 -0.3662  0.5275
  139GLU    OE2  281   1.719   1.537   1.727  1.0757 -0.0565  0.0494
  139GLU      C  282   1.621   1.977   2.142 -0.0309  0.1218 -0.1675
  139GLU      O  283   1.543   1.906   2.212  0.3098  0.2356 -0.4078
  140CALA     N  284   1.672   2.089   2.184 -0.5784 -0.3511  0.0257
  140CALA     H  285   1.725   2.140   2.114 -1.2786  1.7781  0.9636
  140CALA    CA  286   1.649   2.166   2.311 -0.1719 -0.1833  0.1792
  140CALA    HA  287   1.627   2.102   2.396  0.2151 -3.1131 -1.7584
  140CALA    CB  288   1.780   2.233   2.359  0.1488 -0.1562  0.3220
  140CALA   HB1  289   1.859   2.158   2.366  1.3079  0.9302 -0.8021
  140CALA   HB2  290   1.773   2.259   2.465  2.0617 -0.3553  0.5250
  140CALA   HB3  291   1.804   2.318   2.296  1.7586 -0.6733  0.1980
  140CALA     C  292   1.520   2.244   2.300 -0.3067 -0.8079 -0.1897
  140CALA   OC1  293   1.455   2.258   2.408 -0.5111 -0.4893  0.1514
  140CALA   OC2  294   1.491   2.293   2.188  0.2208 -0.3201  0.0175
  141SOL     OW  295   3.427   1.335   6.378  0.4053  0.1772  0.3442
  141SOL    HW2  296   3.466   1.296   6.456 -0.6074  0.7783  1.1875
  141SOL    HW3  297   3.432   1.267   6.311 -2.2959 -1.8844  2.0574
  141SOL    MW4  298   3.433   1.321   6.379  0.0763 -0.2447 -0.3405
  142SOL     OW  299   2.565   1.432   4.533  0.7740 -0.4976 -0.0283
  142SOL    HW2  300   2.584   1.499   4.467 -0.8034 -1.2101 -1.2722
  142SOL    HW3  301   2.637   1.370   4.525  0.2353 -0.9687 -1.6507
  142SOL    MW4  302   2.577   1.433   4.523  0.6114 -0.0686 -0.0597
  143SOL     OW  303   0.529   3.780   3.111 -0.1003  0.2901  0.2157
  143SOL    HW2  304   0.505   3.716   3.044 -0.9541 -2.2319  2.7263
  143SOL    HW3  305   0.583   3.844   3.065 -0.4231 -1.4061 -2.7845
  143SOL    MW4  306   0.533   3.780   3.096  0.2892  0.0799  0.0497
  144SOL     OW  307   3.945   3.472   0.568  0.2099 -0.0732 -0.3584
  144SOL    HW2  308   3.979   3.519   0.492 -0.4378  0.9113 -0.0548
  144SOL    HW3  309   4.020   3.424   0.602  0.6288 -0.1073 -1.3079
  144SOL    MW4  310   3.959   3.472   0.563 -0.2643  0.0737  0.0166
  145SOL     OW  311   2.641   2.636   2.492 -0.6850  0.2519 -0.0147
  145SOL    HW2  312   2.662   2.728   2.501 -2.2499  0.6521 -0.1292
  145SOL    HW3  313   2.683   2.594   2.567 -1.2571  1.3064  0.9260
  145SOL    MW4  314   2.649   2.642   2.504 -0.2434  0.3653  0.0576
  146SOL     OW  315   4.249   1.113   0.600 -0.0454  0.1507 -0.1673
  146SOL    HW2  316   4.244   1.043   0.535 -0.8844 -0.3959  0.4636
  146SOL    HW3  317   4.304   1.076   0.670 -1.3370 -0.3049  0.6431
  146SOL    MW4  318   4.256   1.099   0.600  0.0941  0.2350 -0.3431
  147SOL     OW  319   1.056   5.784   2.826 -0.5678  0.2485  0.5281
  147SOL    HW2  320   1.116   5.763   2.898 -0.4797 -1.3223  0.0345
  147SOL    HW3  321   1.075   5.876   2.806  2.4104 -0.4237 -0.2356
  147SOL    MW4  322   1.067   5.794   2.833  0.5873 -0.5286 -0.2948
  148SOL     OW  323   4.618   4.305   0.513 -0.8952 -0.1562 -0.3528
  148SOL    HW2  324   4.574   4.259   0.584 -1.1045  1.6354  0.7250
  148SOL    HW3  325   4.707   4.320   0.545 -1.1951  1.2784 -0.1660
  148SOL    MW4  326   4.624   4.301   0.526 -0.3141  0.1622  0.1091
  149SOL     OW  327   4.699   4.613   5.487 -0.9290 -0.0723 -0.0692
  149SOL    HW2  328   4.739   4.686   5.533 -0.0740  0.4068 -1.4848
  149SOL    HW3  329   4.619   4.649   5.449 -0.1375  0.3841 -1.3844
  149SOL    MW4  330   4.694   4.627   5.488  0.0780 -0.6251 -0.1946
  150SOL     OW  331   1.181   1.283   3.461 -0.2725 -0.7852 -0.3352
  150SOL    HW2  332   1.133   1.358   3.496  0.6875 -0.3527  0.1060
  150SOL    HW3  333   1.143   1.207   3.505  1.4167 -0.2018  2.3515
  150SOL    MW4  334   1.170   1.283   3.472  0.1999  0.1380  0.3024
  151SOL     OW  335   2.006   4.191   1.476  0.2648 -0.0084  0.9947
  151SOL    HW2  336   2.068   4.249   1.431 -1.1386  0.1021 -0.8913
  151SOL    HW3  337   2.053   4.108   1.485  2.1545  1.1806  3.3709
  151SOL    MW4  338   2.021   4.188   1.472  0.4923 -0.0686 -0.0529
  152SOL     OW  339   3.178   0.602   0.688  0.3182 -0.5091 -0.4593
  152SOL    HW2  340   3.226   0.628   0.610  0.6133 -0.7619 -0.3628
  152SOL    HW3  341   3.104   0.663   0.693  0.5544 -0.2092 -0.6799
  152SOL    MW4  342   3.174   0.613   0.679 -0.5807  0.2097  0.3573
  153SOL     OW  343   2.592   5.926   4.820 -0.1550 -0.4442 -0.0003
  153SOL    HW2  344   2.560   5.855   4.765  1.1831 -1.2841  0.2687
  153SOL    HW3  345   2.513   5.958   4.865 -1.1984 -0.0566 -1.9753
  153SOL    MW4  346   2.577   5.921   4.819 -0.4362  0.1168  0.5142
  154SOL     OW  347   1.759   3.847   0.134  0.3014 -0.3690  0.1928
  154SOL    HW2  348   1.687   3.840   0.071  0.8945 -1.4783 -0.4028
  154SOL    HW3  349   1.777   3.756   0.160 -0.1850  0.0938  2.2899
  154SOL    MW4  350   1.752   3.834   0.129 -0.4245 -0.2386 -0.2929
  155SOL     OW  351   3.945   3.253   2.985 -0.0861  0.0755  0.3325
  155SOL    HW2  352   4.021   3.203   2.954  0.6651  2.0336 -1.2402
  155SOL    HW3  353   3.967   3.276   3.075  0.8179 -0.0946  0.1711
  155SOL    MW4  354   3.958   3.249   2.993 -0.0806 -0.1372 -0.0356
  156SOL     OW  355   1.121   1.238   6.072 -0.2332  0.0780  0.1392
  156SOL    HW2  356   1.212   1.236   6.042  0.3772  0.2929  1.8286
  156SOL    HW3  357   1.069   1.219   5.994  1.2426  0.2074 -0.9176
  156SOL    MW4  358   1.126   1.235   6.058  0.2174 -0.2287 -0.5485
  157SOL     OW  359   0.572   0.396   4.353 -0.2951 -0.3686 -0.2577
  157SOL    HW2  360   0.664   0.369   4.346 -0.1459  0.5941 -3.4309
  157SOL    HW3  361   0.536   0.383   4.265 -2.6179  1.2917  0.3520
  157SOL    MW4  362   0.579   0.390   4.341 -0.4458  0.1273  0.5661
  158SOL     OW  363   3.949   3.883   2.611 -0.0644  0.1566  0.2998
  158SOL    HW2  364   3.980   3.920   2.529  0.2232 -1.2517 -0.2559
  158SOL    HW3  365   3.918   3.958   2.662  0.6028  1.1409 -0.7209
  158SOL    MW4  366   3.949   3.898   2.607  0.2630 -0.1721  0.2183
  159SOL     OW  367   0.029   5.936   3.319  0.1810  0.2892  0.3857
  159SOL    HW2  368   0.083   5.900   3.389 -0.1947 -0.5303  0.2796
  159SOL    HW3  369  -0.006   6.018   3.354 -1.4860 -0.9819  1.9064
  159SOL    MW4  370   0.031   5.942   3.333  0.5342  0.0992 -0.2551
  160SOL     OW  371   2.683   0.272   1.207  0.2683 -0.6153 -0.0809
  160SOL    HW2  372   2.681   0.285   1.112 -0.2418  1.6854  0.1704
  160SOL    HW3  373   2.626   0.342   1.241 -0.2000 -1.8799  1.8828
  160SOL    MW4  374   2.675   0.283   1.199 -0.4092 -0.3737 -0.4385
  161SOL     OW  375   5.941   5.308   3.389  0.2633  0.0543 -0.2818
  161SOL    HW2  376   5.966   5.226   3.346  2.4545  0.3515  0.3108
  161SOL    HW3  377   6.019   5.363   3.385 -0.2931  1.1072  1.7083
  161SOL    MW4  378   5.954   5.304   3.383 -0.4754 -0.2357  0.2628
  162SOL     OW  379   1.396   0.429   3.523 -0.0181  0.7258 -0.8199
  162SOL    HW2  380   1.379   0.520   3.496 -1.5237  1.5283  2.3937
  162SOL    HW3  381   1.439   0.437   3.608  1.6772 -1.6396 -1.3580
  162SOL    MW4  382   1.400   0.442   3.530 -0.1016  0.0211 -0.3259
  163SOL     OW  383   3.824   2.366   2.852  0.0409  0.6672  0.2080
  163SOL    HW2  384   3.908   2.328   2.876 -0.1743  0.2943  0.3783
  163SOL    HW3  385   3.799   2.418   2.928 -0.1921  0.2490  0.4196
  163SOL    MW4  386   3.832   2.368   2.865  0.1025  0.3014  0.0216
  164SOL     OW  387   4.697   4.357   3.339  0.6557  0.7237 -0.6929
  164SOL    HW2  388   4.625   4.357   3.402  2.1733 -0.1975  1.1560
  164SOL    HW3  389   4.654   4.357   3.253 -1.7202 -3.5948  0.2046
  164SOL    MW4  390   4.682   4.357   3.336 -0.4770  0.3698  0.4459
  165SOL     OW  391   5.978   4.255   2.274 -0.0942 -0.3378  0.4896
  165SOL    HW2  392   5.908   4.307   2.233 -1.4563 -0.9278  1.9474
  165SOL    HW3  393   6.005   4.195   2.205 -0.9436 -0.0106 -0.1612
  165SOL    MW4  394   5.972   4.254   2.259  0.1489  0.3608  0.5694
  166SOL     OW  395   0.805   2.015   0.967 -0.2867  0.3487  0.0585
  166SOL    HW2  396   0.750   1.954   0.917  1.2363  0.2095 -1.5359
  166SOL    HW3  397   0.849   2.068   0.901  0.2033  1.6220  1.3536
  166SOL    MW4  398   0.803   2.014   0.952  0.9289  0.1563  0.3868
  167SOL     OW  399   2.792   1.277   4.548  0.3637  0.0721 -0.2110
  167SOL    HW2  400   2.789   1.302   4.640 -1.5029  0.1735 -0.2630
  167SOL    HW3  401   2.868   1.324   4.514  0.7079  0.5456  1.1332
  167SOL    MW4  402   2.801   1.287   4.556 -0.1964  0.1579  0.1151
  168SOL     OW  403   6.097   0.852   5.777  0.5963 -0.4604  0.3662
  168SOL    HW2  404   6.104   0.937   5.735 -0.8183  0.3509  1.6767
  168SOL    HW3  405   6.030   0.806   5.728  0.5699 -0.3919  0.3384
  168SOL    MW4  406   6.089   0.857   5.765  0.4802  0.0086 -0.3704
  169SOL     OW  407   4.914   6.270   2.211  0.0207  0.0984  0.1322
  169SOL    HW2  408   4.839   6.225   2.250 -0.2045  1.2321  1.0707
  169SOL    HW3  409   4.990   6.239   2.260  0.2992 -1.5615 -1.2582
  169SOL    MW4  410   4.914   6.260   2.222  0.3200  0.3060  0.4011
  170SOL     OW  411   1.785   4.470   4.230 -0.6109 -0.5364  0.8712
  170SOL    HW2  412   1.727   4.423   4.170 -0.5277 -0.7790  0.9841
  170SOL    HW3  413   1.734   4.481   4.310 -1.0788  0.6260  0.4425
  170SOL    MW4  414   1.771   4.466   4.232  0.0399 -0.3214 -0.0379
  171SOL     OW  415   0.550   2.160   2.904 -0.6209  0.3922  0.1980
  171SOL    HW2  416   0.618   2.181   2.968 -0.7686 -1.4823  1.0265
  171SOL    HW3  417   0.469   2.188   2.945 -0.6854 -0.5382  0.7205
  171SOL    MW4  418   0.548   2.166   2.918 -0.5780  0.5394  0.0658
  172SOL     OW  419   3.511   4.548   0.320  0.7620  0.1192  0.2263
  172SOL    HW2  420   3.537   4.580   0.407  0.8356 -0.7927  0.5612
  172SOL    HW3  421   3.416   4.547   0.322  0.7452  0.9460 -0.0324
  172SOL    MW4  422   3.502   4.552   0.332  0.4365  0.1775  0.0404
  173SOL     OW  423   4.064   6.133   2.374 -0.6517 -0.1354  0.3949
  173SOL    HW2  424   3.989   6.091   2.332 -0.4412 -0.1562  0.0350
  173SOL    HW3  425   4.028   6.212   2.414 -0.9998 -0.5104  0.8382
  173SOL    MW4  426   4.049   6.138   2.373 -0.3250 -0.2441 -0.6592
  174SOL     OW  427   6.300   1.485   5.943 -0.0271 -0.3411  0.1317
  174SOL    HW2  428   6.332   1.545   6.009 -0.3668 -2.4863  2.4058
  174SOL    HW3  429   6.373   1.474   5.882  1.0715  0.1280  1.3250
  174SOL    MW4  430   6.313   1.491   5.943  0.1863  0.3210 -0.0689
  175SOL     OW  431   3.701   1.186   4.485  0.0765  0.2162  0.2262
  175SOL    HW2  432   3.657   1.154   4.564  0.6393  0.1062  0.5020
  175SOL    HW3  433   3.785   1.220   4.517  0.3420  0.0952 -0.3391
  175SOL    MW4  434   3.707   1.187   4.499 -0.2267  0.4624  0.1263
  176SOL     OW  435   0.436   1.727   3.926  0.2574  0.0843 -0.3825
  176SOL    HW2  436   0.476   1.761   3.846  0.3813 -0.0159 -0.3631
  176SOL    HW3  437   0.374   1.795   3.953  0.0983  0.0467 -0.6537
  176SOL    MW4  438   0.433   1.740   3.919  0.3142  0.2075  0.1691
  177SOL     OW  439   3.687   5.531   6.107 -0.3285  0.1738 -0.0788
  177SOL    HW2  440   3.626   5.463   6.079  0.9335 -1.5419  1.0692
  177SOL    HW3  441   3.772   5.505   6.071  0.3070  0.7725  0.8937
  177SOL    MW4  442   3.690   5.519   6.099 -0.2506  0.0682  0.3603
  178SOL     OW  443   4.246   6.136   1.597 -0.5676  0.0634 -0.6556
  178SOL    HW2  444   4.178   6.195   1.628  0.3180 -0.3817  2.5402
  178SOL    HW3  445   4.296   6.187   1.533 -1.6811  1.6485 -0.3011
  178SOL    MW4  446   4.244   6.151   1.593  0.0507 -0.2404 -0.5607
  179SOL     OW  447   0.940   2.051   4.462 -0.2861  0.0319  0.1049
  179SOL    HW2  448   0.980   2.138   4.453 -0.7492  0.0881 -1.8821
  179SOL    HW3  449   1.002   2.002   4.516  0.8381  1.1049 -0.1618
  179SOL    MW4  450   0.954   2.056   4.468 -0.5805 -0.4504 -0.0863
  180SOL     OW  451   1.462   5.869   2.631 -0.0267 -0.1420  0.5309
  180SOL    HW2  452   1.476   5.924   2.708  3.0714  1.7996 -1.2107
  180SOL    HW3  453   1.516   5.792   2.646 -0.5279 -0.4335  0.8692
  180SOL    MW4  454   1.471   5.866   2.643  0.0619 -0.4586  0.2053
  181SOL     OW  455   4.001   2.961   3.547  0.5016  0.0011  0.1539
  181SOL    HW2  456   4.081   2.998   3.511  0.8255 -0.6861  0.1441
  181SOL    HW3  457   4.011   2.866   3.534 -0.2617 -0.0992  0.2507
  181SOL    MW4  458   4.013   2.953   3.540 -0.3381  0.1105 -0.1502
  182SOL     OW  459   1.050   6.379   4.131 -0.6739  0.1675 -0.0522
  182SOL    HW2  460   1.058   6.475   4.137  1.7298  0.0260 -0.0257
  182SOL    HW3  461   1.086   6.347   4.213 -3.5413 -0.7899  0.9677
  182SOL    MW4  462   1.056   6.388   4.142 -0.0985 -0.2381 -0.2484
  183SOL     OW  463   1.008   2.434   0.185  0.5896 -0.4069 -0.1091
  183SOL    HW2  464   0.929   2.487   0.195  0.4853 -0.6742  0.5163
  183SOL    HW3  465   1.067   2.466   0.254  0.0133 -2.0096  1.1877
  183SOL    MW4  466   1.005   2.445   0.195  0.1182  0.1071  0.3055
  184SOL     OW  467   4.798   3.871   4.412  1.2803  0.1285  0.1802
  184SOL    HW2  468   4.777   3.906   4.325 -0.4347 -0.2156  0.4111
  184SOL    HW3  469   4.845   3.790   4.394 -1.1746 -1.2376 -0.5515
  184SOL    MW4  470   4.801   3.865   4.398 -0.1251 -0.5774 -0.0789
  185SOL     OW  471   4.578   0.276   2.362  0.5580  0.1040 -0.4923
  185SOL    HW2  472   4.495   0.309   2.329  0.6998 -0.1650 -1.1186
  185SOL    HW3  473   4.643   0.338   2.329  0.3345  2.6357  3.0982
  185SOL    MW4  474   4.576   0.289   2.353 -0.5244  0.6699  0.0274
  186SOL     OW  475   0.943   0.828   2.283 -0.2226 -0.1703  0.0483
  186SOL    HW2  476   0.889   0.750   2.289  0.1059 -0.3992  0.0161
  186SOL    HW3  477   0.970   0.846   2.373 -0.7990  0.2606  0.1395
  186SOL    MW4  478   0.939   0.820   2.296 -0.3131 -0.5729  0.4039
  187SOL     OW  479   5.447   2.068   5.987 -0.3458 -0.3569 -0.2575
  187SOL    HW2  480   5.436   2.112   5.903  1.9605  0.6585 -0.0785
  187SOL    HW3  481   5.468   2.138   6.049 -0.1054 -1.3031  0.7717
  187SOL    MW4  482   5.448   2.083   5.984  0.0020  0.7776  0.6093
  188SOL     OW  483   5.853   4.771   4.400 -0.5444  0.6222 -0.8175
  188SOL    HW2  484   5.817   4.746   4.314  0.5048 -0.1211 -1.0523
  188SOL    HW3  485   5.801   4.720   4.463 -1.5746  1.4521 -0.9591
  188SOL    MW4  486   5.841   4.761   4.397  0.8754 -0.0012 -0.0618
  189SOL     OW  487   5.716   3.816   5.785  0.6031  0.1563 -0.0095
  189SOL    HW2  488   5.786   3.764   5.824  0.2742  0.4073  0.9429
  189SOL    HW3  489   5.757   3.860   5.711  0.7576 -1.8741 -1.1789
  189SOL    MW4  490   5.731   3.815   5.781  0.0130 -0.3437 -0.4155
  190SOL     OW  491   3.530   2.563   1.423  0.2157 -0.0688  0.2318
  190SOL    HW2  492   3.476   2.610   1.487  0.1100 -1.4180  1.1817
  190SOL    HW3  493   3.582   2.502   1.476  0.1825 -1.1801 -0.9646
  190SOL    MW4  494   3.530   2.561   1.439  0.0672  0.1038  0.8318
  191SOL     OW  495   1.335   2.007   6.209 -0.4238 -0.1418 -0.1092
  191SOL    HW2  496   1.334   1.918   6.173  1.2133  0.3727 -1.5697
  191SOL    HW3  497   1.284   2.058   6.146 -1.2466 -0.0090  0.6540
  191SOL    MW4  498   1.328   2.002   6.196  0.6696 -0.1611  0.2360
  192SOL     OW  499   4.661   4.279   2.130  0.2249  0.3510 -0.3585
  192SOL    HW2  500   4.629   4.319   2.211  3.6289  0.9003  0.8701
  192SOL    HW3  501   4.689   4.191   2.156 -0.3780 -0.1693 -1.4085
  192SOL    MW4  502   4.660   4.273   2.144 -0.0968 -0.2524 -0.1181
  193SOL     OW  503   4.257   4.170   3.386  0.3724  0.4225 -0.1005
  193SOL    HW2  504   4.230   4.124   3.306 -0.7456  0.0931  0.4437
  193SOL    HW3  505   4.272   4.260   3.358  0.7797  0.1388 -0.8267
  193SOL    MW4  506   4.255   4.176   3.372  0.1708 -0.0310  0.5612
  194SOL     OW  507   0.377   1.479   1.028  0.1588 -0.1574  0.8733
  194SOL    HW2  508   0.282   1.467   1.019 -0.0724  1.8738  0.1117
  194SOL    HW3  509   0.392   1.478   1.123 -0.6867 -0.1310  1.0186
  194SOL    MW4  510   0.366   1.477   1.040  0.3129  0.1214  0.2009
  195SOL     OW  511   5.941   3.876   3.873  0.4984  0.0586 -0.1458
  195SOL    HW2  512   5.866   3.887   3.814  0.9502  0.0455 -0.7292
  195SOL    HW3  513   5.903   3.834   3.951  0.2366 -1.9081 -1.2606
  195SOL    MW4  514   5.926   3.872   3.876  0.2007  0.0749  0.3245
  196SOL     OW  515   6.035   1.675   6.050  0.8417  0.3802 -0.4250
  196SOL    HW2  516   5.989   1.601   6.008  1.2991 -0.3421  0.3123
  196SOL    HW3  517   6.127   1.661   6.028  1.1849 -0.3949  1.3251
  196SOL    MW4  518   6.041   1.663   6.042 -0.3054  0.3387  0.4572
  197SOL     OW  519   2.045   4.767   1.408  0.0455 -0.1231  0.3956
  197SOL    HW2  520   2.131   4.726   1.414 -0.0479 -0.3253  0.3797
  197SOL    HW3  521   2.059   4.857   1.437  0.5781  0.3103 -1.1393
  197SOL    MW4  522   2.058   4.773   1.413 -0.1460  0.2661  0.2366
  198SOL     OW  523   1.544   3.234   5.051  0.4555 -0.4482  0.4607
  198SOL    HW2  524   1.503   3.312   5.013  0.4094 -1.5323 -1.9361
  198SOL    HW3  525   1.481   3.201   5.114 -1.4701 -0.8238 -1.5304
  198SOL    MW4  526   1.530   3.240   5.054 -0.9469 -0.0463  0.1723
  199SOL     OW  527   5.878   4.809   0.392  0.5217  0.2817 -0.1118
  199SOL    HW2  528   5.813   4.755   0.348  0.7410  0.2648 -0.4198
  199SOL    HW3  529   5.889   4.769   0.478  0.6912 -0.1716 -0.3409
  199SOL    MW4  530   5.871   4.797   0.397  0.1119 -0.1744 -0.1989
  200SOL     OW  531   3.017   6.407   1.241 -0.5501 -0.1163  0.1072
  200SOL    HW2  532   2.980   6.362   1.165 -4.0184  0.3645  1.3658
  200SOL    HW3  533   3.032   6.497   1.211 -0.9583 -0.1775 -0.2880
  200SOL    MW4  534   3.014   6.413   1.227  0.0989 -0.2615  0.1312
  201SOL     OW  535   0.658   1.714   1.140  0.9698  0.0273 -0.5317
  201SOL    HW2  536   0.753   1.719   1.154  0.6897  1.0056  1.2585
  201SOL    HW3  537   0.633   1.804   1.118  0.2846  0.0622  0.3552
  201SOL    MW4  538   0.668   1.727   1.139  0.0428  0.2748  0.2807
  202SOL     OW  539   3.682   3.066   2.459 -0.2252  0.1514 -0.8444
  202SOL    HW2  540   3.728   3.122   2.397 -0.3855  1.9093  0.5330
  202SOL    HW3  541   3.751   3.030   2.515 -0.1360 -0.9464 -1.6379
  202SOL    MW4  542   3.697   3.068   2.458  0.2024  0.3795  0.2203
  203SOL     OW  543   4.175   5.768   5.137 -0.0700 -0.0412  0.0719
  203SOL    HW2  544   4.162   5.857   5.104 -0.1596  0.0882  0.4443
  203SOL    HW3  545   4.132   5.712   5.073  1.4660  0.0430 -1.0800
  203SOL    MW4  546   4.168   5.773   5.124  0.1922  0.1306  0.2778
  204SOL     OW  547   3.279   3.608   3.909 -1.0526  0.1334 -0.1201
  204SOL    HW2  548   3.194   3.649   3.894 -0.4336  1.2885 -0.5946
  204SOL    HW3  549   3.341   3.664   3.863  0.2331  0.5364  2.0018
  204SOL    MW4  550   3.276   3.620   3.901  0.2742  0.3509 -0.1954
  205SOL     OW  551   3.127   1.634   1.615 -0.6140 -0.1632 -0.3579
  205SOL    HW2  552   3.141   1.560   1.556  1.0984 -0.8731  0.8601
  205SOL    HW3  553   3.161   1.709   1.566 -0.3172 -0.5426 -0.7492
  205SOL    MW4  554   3.133   1.634   1.601  0.9026  0.1378  0.3632
  206SOL     OW  555   2.859   3.426   4.843  0.4835  0.6720  0.0911
  206SOL    HW2  556   2.831   3.381   4.922 -3.7713  1.9743 -0.4476
  206SOL    HW3  557   2.893   3.510   4.875  1.1331  0.2288  0.6115
  206SOL    MW4  558   2.860   3.431   4.858  0.5570  0.1189  0.2697
  207SOL     OW  559   2.377   4.909   0.771  0.1809  0.3798  0.2373
  207SOL    HW2  560   2.420   4.964   0.837 -1.7579 -0.3001  2.1868
  207SOL    HW3  561   2.317   4.969   0.726 -0.5469  0.3047  1.0675
  207SOL    MW4  562   2.375   4.924   0.774 -0.9298 -0.6666  0.0003
  208SOL     OW  563   0.295   5.164   3.717 -0.9388  0.5343  0.0932
  208SOL    HW2  564   0.372   5.184   3.770 -0.6836  1.2830 -0.5335
  208SOL    HW3  565   0.298   5.069   3.705 -0.1384  0.5513  0.1165
  208SOL    MW4  566   0.305   5.154   3.722  0.5425 -0.0583 -0.9798
  209SOL     OW  567   4.497   3.264   3.046 -0.1244  0.6282 -0.0612
  209SOL    HW2  568   4.497   3.331   2.978  0.9532  1.1645  0.4418
  209SOL    HW3  569   4.493   3.181   2.998 -3.9030  0.9893 -0.6542
  209SOL    MW4  570   4.497   3.262   3.031  0.0712 -0.4537 -0.4133
  210SOL     OW  571   2.682   2.795   3.224 -0.2132 -0.1271 -0.7402
  210SOL    HW2  572   2.720   2.746   3.151  1.2707 -0.1032 -0.0265
  210SOL    HW3  573   2.754   2.803   3.287  0.5084  5.0588 -1.7964
  210SOL    MW4  574   2.696   2.790   3.223  0.6944  0.2304  0.1044
  211SOL     OW  575   2.195   2.208   5.304  0.1819  0.3187  0.7722
  211SOL    HW2  576   2.107   2.238   5.282 -0.0109  0.6016  1.8920
  211SOL    HW3  577   2.252   2.279   5.274  0.0843 -0.0194 -0.2803
  211SOL    MW4  578   2.191   2.221   5.297 -0.0959  0.7260  0.0347
  212SOL     OW  579   6.058   1.819   0.372  0.1079 -0.0635 -0.0062
  212SOL    HW2  580   5.983   1.875   0.392 -0.8169 -0.9478 -0.8689
  212SOL    HW3  581   6.090   1.852   0.287 -0.4307 -0.8134 -0.5088
  212SOL    MW4  582   6.053   1.831   0.363 -0.7926  0.4471  0.3134
  213SOL     OW  583   1.701   4.382   0.939  0.2522 -0.1020  0.5856
  213SOL    HW2  584   1.611   4.377   0.905  0.3282 -1.3633  0.5152
  213SOL    HW3  585   1.736   4.294   0.925  1.9645  0.7238 -0.6396
  213SOL    MW4  586   1.694   4.370   0.933  0.2125  0.3452  0.2033
  214SOL     OW  587   4.888   3.496   0.963 -0.3419 -0.0706  0.2418
  214SOL    HW2  588   4.886   3.433   1.036  1.3742  1.6178  1.8534
  214SOL    HW3  589   4.799   3.532   0.961 -1.6786 -3.0340 -1.3350
  214SOL    MW4  590   4.876   3.492   0.973 -0.2823 -0.5813 -0.0106
  215SOL     OW  591   2.187   4.627   0.710 -0.1969  0.2654  0.1936
  215SOL    HW2  592   2.278   4.645   0.735 -0.0151 -1.0029  0.4915
  215SOL    HW3  593   2.137   4.698   0.751  0.6667  1.1199 -0.1726
  215SOL    MW4  594   2.192   4.639   0.718 -0.2054  0.0092  0.1286
  216SOL     OW  595   3.715   3.020   1.172 -0.0252 -0.4867  1.0197
  216SOL    HW2  596   3.807   2.995   1.180  0.0927  0.2091  2.0642
  216SOL    HW3  597   3.667   2.939   1.186  0.4241 -1.3716 -1.9161
  216SOL    MW4  598   3.721   3.006   1.175 -0.1677  0.4516 -0.3995
  217SOL     OW  599   2.315   5.712   3.529 -0.2635  0.9252  0.2544
  217SOL    HW2  600   2.383   5.772   3.500  1.3122 -0.5639  0.6605
  217SOL    HW3  601   2.291   5.662   3.451  0.5351  0.1391  0.4997
  217SOL    MW4  602   2.320   5.713   3.515 -0.2875  0.1619  0.3279
  218SOL     OW  603   4.114   3.229   5.030 -0.0668 -0.1855  0.2985
  218SOL    HW2  604   4.033   3.246   4.982 -1.6174 -2.7899  1.7514
  218SOL    HW3  605   4.181   3.220   4.962 -1.7360 -1.5289 -1.2634
  218SOL    MW4  606   4.112   3.230   5.014  0.4552  0.9414 -0.0625
  219SOL     OW  607   0.488   0.912   3.081 -0.0202  0.0335  0.1101
  219SOL    HW2  608   0.562   0.853   3.065  0.6877  0.8838  0.1624
  219SOL    HW3  609   0.417   0.855   3.111  0.0410 -1.0401 -1.6403
  219SOL    MW4  610   0.488   0.897   3.083 -0.6715  0.5935  0.0818
  220SOL     OW  611   5.383   6.035   0.818  0.2505  0.0951 -0.1907
  220SOL    HW2  612   5.331   6.107   0.783 -3.9859 -2.5987 -0.2140
  220SOL    HW3  613   5.362   6.033   0.911  1.3373 -0.3929  0.0657
  220SOL    MW4  614   5.373   6.044   0.825 -0.4227 -0.0180 -0.0734
  221SOL     OW  615   6.075   1.301   3.218  0.3661 -0.1677 -0.0079
  221SOL    HW2  616   6.067   1.394   3.240  0.9617 -0.0761 -0.1790
  221SOL    HW3  617   5.998   1.283   3.164  0.4316  0.3093 -0.2656
  221SOL    MW4  618   6.064   1.311   3.214  0.2346 -0.4540 -0.1306
  222SOL     OW  619   4.445   0.876   1.119  0.6066  0.1370 -0.5128
  222SOL    HW2  620   4.485   0.945   1.171  0.4740 -0.1449 -0.0327
  222SOL    HW3  621   4.435   0.802   1.179  0.4167 -0.1822 -0.9238
  222SOL    MW4  622   4.449   0.875   1.133 -0.2776  0.2651  0.1648
  223SOL     OW  623   6.005   5.634   3.702 -0.2184 -0.1098 -0.2647
  223SOL    HW2  624   6.096   5.664   3.702 -0.6950  1.4313  0.8960
  223SOL    HW3  625   5.965   5.678   3.627 -0.4028  0.5017  0.1910
  223SOL    MW4  626   6.012   5.643   3.692  0.4026 -0.3364  0.3448
  224SOL     OW  627   5.843   1.595   1.481  0.2076 -0.1611  0.0668
  224SOL    HW2  628   5.778   1.623   1.416  1.3402  0.6116 -0.7722
  224SOL    HW3  629   5.793   1.541   1.542 -1.5562  1.6427  0.3265
  224SOL    MW4  630   5.828   1.591   1.480  0.1445  1.0343  0.1344
  225SOL     OW  631   2.803   0.921   4.807 -0.1681  0.4293 -0.1891
  225SOL    HW2  632   2.731   0.925   4.744 -0.3476  2.1135  0.0819
  225SOL    HW3  633   2.796   0.834   4.846 -1.3902  0.1736 -0.9305
  225SOL    MW4  634   2.792   0.910   4.804  0.2453 -0.5313 -0.3284
  226SOL     OW  635   5.476   5.901   3.277 -0.1499  0.2663  0.3950
  226SOL    HW2  636   5.517   5.879   3.193 -0.3347 -0.3312  0.4535
  226SOL    HW3  637   5.506   5.832   3.337 -1.8905 -0.7007  0.2358
  226SOL    MW4  638   5.485   5.889   3.274 -0.1318 -0.1098  0.2161
  227SOL     OW  639   4.521   5.415   4.125 -0.0368 -0.0489  0.0677
  227SOL    HW2  640   4.461   5.452   4.060  1.0628  0.8101 -0.4913
  227SOL    HW3  641   4.496   5.456   4.207 -0.3288  0.1658 -0.1271
  227SOL    MW4  642   4.510   5.425   4.127  0.3258  0.4711  0.6254
  228SOL     OW  643   3.254   4.262   6.294 -0.3624  0.0353  0.3654
  228SOL    HW2  644   3.248   4.257   6.199  0.0236  1.1480  0.2583
  228SOL    HW3  645   3.346   4.284   6.311 -0.4151 -0.1957  0.9934
  228SOL    MW4  646   3.266   4.264   6.284 -0.1515  0.0738 -0.1544
  229SOL     OW  647   2.608   0.113   1.719  0.4749  0.1620 -0.6199
  229SOL    HW2  648   2.535   0.110   1.782  1.3806  2.0207  0.5819
  229SOL    HW3  649   2.566   0.097   1.634 -0.7690 -2.5787  0.3799
  229SOL    MW4  650   2.593   0.110   1.716 -0.4379 -0.4973 -0.0519
  230SOL     OW  651   1.433   1.875   2.509  0.0277  0.1086  0.3591
  230SOL    HW2  652   1.349   1.829   2.501  0.6902 -1.3129  1.2624
  230SOL    HW3  653   1.474   1.864   2.423 -0.5058  0.4184  0.0579
  230SOL    MW4  654   1.427   1.867   2.496 -0.0151 -0.1396 -0.2217
  231SOL     OW  655   0.597   2.442   1.980  0.1539 -0.1575  0.1189
  231SOL    HW2  656   0.688   2.472   1.970  0.0735 -0.2130 -0.9260
  231SOL    HW3  657   0.603   2.366   2.038  1.0374 -1.3320 -1.4353
  231SOL    MW4  658   0.610   2.436   1.986  0.4563  0.4602  0.0053
  232SOL     OW  659   4.757   3.523   5.391 -0.6745  0.1939 -0.2708
  232SOL    HW2  660   4.678   3.511   5.338 -1.1838  0.1147  0.4875
  232SOL    HW3  661   4.732   3.492   5.478 -0.1700  1.2533  0.2722
  232SOL    MW4  662   4.743   3.517   5.395  0.3787  0.2500 -0.5885
  233SOL     OW  663   6.235   6.298   1.336  0.0029  0.7004 -0.3870
  233SOL    HW2  664   6.204   6.308   1.426  1.4056  0.7238  0.1188
  233SOL    HW3  665   6.209   6.380   1.293  0.2232  1.1217  0.2721
  233SOL    MW4  666   6.227   6.311   1.342 -0.3469  0.6672 -0.0308
  234SOL     OW  667   2.151   3.976   1.106  0.1656  0.0755 -0.2637
  234SOL    HW2  668   2.187   3.984   1.017 -0.6578 -0.5692 -0.6625
  234SOL    HW3  669   2.228   3.973   1.163  0.7034  2.4036 -0.7620
  234SOL    MW4  670   2.166   3.977   1.102  0.3696  0.0232  0.1603
  235SOL     OW  671   3.242   0.516   2.894 -0.4766  0.1106  0.2349
  235SOL    HW2  672   3.322   0.517   2.840  0.7038  0.0352  1.8880
  235SOL    HW3  673   3.219   0.608   2.905 -1.4077  0.0922 -1.2993
  235SOL    MW4  674   3.250   0.528   2.889  0.0050  0.1836  0.0394
  236SOL     OW  675   3.861   3.037   4.903  0.2819  0.2373  0.3526
  236SOL    HW2  676   3.836   2.960   4.955  0.2958  0.7712  1.1669
  236SOL    HW3  677   3.945   3.013   4.863  0.8055  0.2091  1.4400
  236SOL    MW4  678   3.869   3.024   4.904  0.0034  0.8988  0.6495
  237SOL     OW  679   3.796   6.333   3.349 -0.5629  0.2958 -0.3529
  237SOL    HW2  680   3.870   6.273   3.359 -0.3511  0.3635 -1.4465
  237SOL    HW3  681   3.810   6.376   3.265 -1.3084  1.0681 -0.1020
  237SOL    MW4  682   3.808   6.331   3.339  0.0447 -0.2199 -0.1451
  238SOL     OW  683   6.211   5.031   4.960  0.2563  0.8967 -0.0341
  238SOL    HW2  684   6.170   5.103   5.007 -0.4441 -0.3380  1.3641
  238SOL    HW3  685   6.299   5.025   4.997  0.2113  0.8596  0.0684
  238SOL    MW4  686   6.217   5.039   4.972  0.0961  0.3031 -0.3136
  239SOL     OW  687   0.581   6.105   3.704 -0.1160 -0.1676  0.4083
  239SOL    HW2  688   0.599   6.028   3.650 -0.8885 -0.2038  0.1858
  239SOL    HW3  689   0.487   6.121   3.692 -0.2057  0.0919  1.3946
  239SOL    MW4  690   0.571   6.097   3.695  0.7345 -0.0211 -0.9694
  240SOL     OW  691   4.171   6.246   4.335  0.0804  0.0566 -0.5169
  240SOL    HW2  692   4.161   6.167   4.388  0.8531  1.2917  1.5998
  240SOL    HW3  693   4.082   6.266   4.306 -0.3370 -0.7812  0.1382
  240SOL    MW4  694   4.158   6.238   4.338  0.3879 -0.5358 -0.1009
  241SOL     OW  695   2.780   5.804   4.973 -0.1771  0.4629 -0.0404
  241SOL    HW2  696   2.715   5.736   4.993  0.3904 -0.0573  0.0722
  241SOL    HW3  697   2.738   5.859   4.907  0.3056 -1.5324 -2.1329
  241SOL    MW4  698   2.766   5.802   4.967 -0.1560  0.3391  0.1988
  242SOL     OW  699   3.008   3.810   2.923 -0.0926  0.6596 -0.4310
  242SOL    HW2  700   2.984   3.899   2.900  1.5544  1.4228  0.6143
  242SOL    HW3  701   2.991   3.803   3.017 -0.9825 -0.4162 -0.6454
  242SOL    MW4  702   3.003   3.821   2.933 -0.7399 -0.6457  0.3430
  243SOL     OW  703   0.809   3.471   3.963 -0.5188 -0.2774 -0.3110
  243SOL    HW2  704   0.735   3.411   3.964 -2.0245  1.5098 -0.2255
  243SOL    HW3  705   0.791   3.530   3.890  0.1816  0.9349  0.4576
  243SOL    MW4  706   0.797   3.471   3.953 -0.5199  0.4950 -0.0014
  244SOL     OW  707   1.743   5.500   0.339 -0.4507 -0.1366  0.3417
  244SOL    HW2  708   1.788   5.429   0.293  0.2749  0.9074 -0.6181
  244SOL    HW3  709   1.687   5.456   0.403  0.1545 -1.5552 -0.0711
  244SOL    MW4  710   1.742   5.485   0.341  0.3856  0.5184  0.2808
  245SOL     OW  711   1.629   1.990   0.447 -0.4262 -0.5185 -0.5858
  245SOL    HW2  712   1.550   2.042   0.433 -1.0461 -1.3133 -0.1453
  245SOL    HW3  713   1.690   2.048   0.492 -0.8114  0.0572 -0.8056
  245SOL    MW4  714   1.627   2.004   0.451  0.1236  0.1762  0.3171
  246SOL     OW  715   6.414   1.677   0.956 -0.8842 -0.0563  0.3703
  246SOL    HW2  716   6.504   1.680   0.923 -0.6038  1.9476  1.1577
  246SOL    HW3  717   6.380   1.593   0.926  1.5104 -1.2428  0.7185
  246SOL    MW4  718   6.422   1.666   0.948  0.7563  0.4340  0.3851
  247SOL     OW  719   5.558   2.199   1.504 -0.9132 -0.4922 -0.2045
  247SOL    HW2  720   5.581   2.281   1.549 -0.5077 -0.0521 -1.1935
  247SOL    HW3  721   5.480   2.221   1.453 -1.1668 -0.8954  0.0021
  247SOL    MW4  722   5.551   2.213   1.503  0.4178 -0.7084  0.1005
  248SOL     OW  723   3.064   3.359   6.367  0.0769  0.0131  0.7712
  248SOL    HW2  724   3.000   3.363   6.297 -0.6781  0.4455  1.4743
  248SOL    HW3  725   3.056   3.270   6.402 -0.8956  0.3913  1.5434
  248SOL    MW4  726   3.055   3.348   6.363 -0.9164 -0.4127  0.4087
  249SOL     OW  727   2.443   0.794   6.174  0.9024  0.0614 -0.2329
  249SOL    HW2  728   2.438   0.735   6.250 -2.6689 -0.4758 -0.7457
  249SOL    HW3  729   2.353   0.820   6.157  1.6886  1.0205 -3.6996
  249SOL    MW4  730   2.431   0.790   6.182 -0.7322 -0.6033  0.1173
  250SOL     OW  731   1.706   5.324   4.633 -0.1726  0.1705  0.1973
  250SOL    HW2  732   1.796   5.322   4.601  0.0506  1.4597  0.6516
  250SOL    HW3  733   1.656   5.364   4.562  0.1077  1.8877  0.9030
  250SOL    MW4  734   1.712   5.329   4.620  0.2006  0.5395  1.0901
  251SOL     OW  735   1.770   6.257   3.662 -0.5249 -0.0714  0.4311
  251SOL    HW2  736   1.761   6.166   3.636  1.8938 -0.4384  0.6297
  251SOL    HW3  737   1.809   6.300   3.585  0.8437  0.1893  1.2411
  251SOL    MW4  738   1.774   6.251   3.648 -0.0517  0.3045  0.0069
  252SOL     OW  739   5.937   5.599   1.538 -0.6960  0.2841 -0.0553
  252SOL    HW2  740   6.001   5.573   1.471  0.6591 -1.4301  1.7753
  252SOL    HW3  741   5.870   5.530   1.534 -1.1720  0.7557 -0.3299
  252SOL    MW4  742   5.936   5.586   1.529  0.2788  0.3350 -0.2319
  253SOL     OW  743   1.758   4.665   0.294  0.4772 -0.0747 -0.1273
  253SOL    HW2  744   1.773   4.742   0.238 -0.2387  1.0379  1.1446
  253SOL    HW3  745   1.824   4.674   0.363  0.9932 -1.1368 -0.4574
  253SOL    MW4  746   1.769   4.677   0.295  0.2503  0.6756  0.3657
  254SOL     OW  747   5.422   1.814   5.671  0.2357 -0.0204 -0.3967
  254SOL    HW2  748   5.473   1.754   5.617 -0.0889  0.9618 -1.8552
  254SOL    HW3  749   5.464   1.810   5.757  0.0490 -2.5075 -0.3653
  254SOL    MW4  750   5.435   1.806   5.675 -0.4727 -0.2101 -0.6950
  255SOL     OW  751   5.654   4.217   2.479  0.4075 -0.0051 -0.1162
  255SOL    HW2  752   5.659   4.156   2.553  0.5687 -0.3136 -0.3809
  255SOL    HW3  753   5.743   4.222   2.445  0.5593  0.9775  0.3758
  255SOL    MW4  754   5.666   4.210   2.484  0.0799 -0.6770 -0.3472
  256SOL     OW  755   5.954   0.406   2.659  0.5056 -0.4084 -0.1765
  256SOL    HW2  756   6.040   0.391   2.621  0.4922 -0.7275 -0.0872
  256SOL    HW3  757   5.894   0.358   2.602  0.3949 -0.2297 -0.2084
  256SOL    MW4  758   5.957   0.397   2.647  0.2931  0.1864  0.4258
  257SOL     OW  759   2.838   3.785   4.264 -0.0096 -0.4629  0.3441
  257SOL    HW2  760   2.747   3.758   4.251 -0.3477 -0.2060  1.9503
  257SOL    HW3  761   2.881   3.709   4.302  0.6321 -0.7892 -0.9640
  257SOL    MW4  762   2.832   3.771   4.267 -0.3798  0.1305 -0.0110
  258SOL     OW  763   1.514   6.267   2.087  0.3911 -0.3592  0.1914
  258SOL    HW2  764   1.528   6.176   2.063  1.7542  0.0117 -0.4884
  258SOL    HW3  765   1.420   6.272   2.109  0.0818 -1.6858 -0.7417
  258SOL    MW4  766   1.503   6.256   2.087 -0.2205 -0.4943 -0.4274
  259SOL     OW  767   2.639   3.751   4.625 -0.0348 -0.1182 -0.3184
  259SOL    HW2  768   2.712   3.806   4.654 -0.5944  1.1839 -1.2377
  259SOL    HW3  769   2.676   3.696   4.556  0.2894 -0.1341 -0.1327
  259SOL    MW4  770   2.653   3.751   4.620 -0.4263  0.0050  0.2624
  260SOL     OW  771   5.845   6.045   5.008  0.1467  0.0443 -0.2453
  260SOL    HW2  772   5.934   6.050   4.973  0.3607 -0.0023  0.2966
  260SOL    HW3  773   5.802   5.979   4.954  0.3930  0.1668 -0.6004
  260SOL    MW4  774   5.851   6.037   4.996 -0.1680  0.1334  0.2194
  261SOL     OW  775   4.362   1.945   5.722  0.2592  0.1082  0.0338
  261SOL    HW2  776   4.438   1.943   5.663  0.3618  1.8861  0.0574
  261SOL    HW3  777   4.308   2.016   5.688 -0.9130 -0.4794  0.6314
  261SOL    MW4  778   4.365   1.954   5.710  0.1305  0.5454 -0.2177
  262SOL     OW  779   3.499   6.323   4.630 -0.3530  0.7373 -0.0994
  262SOL    HW2  780   3.529   6.260   4.695 -2.2134 -1.2376 -1.0451
  262SOL    HW3  781   3.489   6.405   4.679  2.5534  0.5026  1.0703
  262SOL    MW4  782   3.502   6.325   4.645 -0.0394 -0.3755  0.7770
  263SOL     OW  783   2.328   3.388   5.697  0.2438 -0.7858  0.3395
  263SOL    HW2  784   2.273   3.464   5.719  0.8546 -0.0053 -0.7229
  263SOL    HW3  785   2.348   3.348   5.781  0.5158  0.6740  1.0050
  263SOL    MW4  786   2.323   3.393   5.711 -0.2231 -0.0074  0.1474
  264SOL     OW  787   5.609   4.689   1.921  0.0889 -0.4317  0.2077
  264SOL    HW2  788   5.631   4.716   2.009 -1.2663 -0.3459  0.5478
  264SOL    HW3  789   5.558   4.609   1.932 -0.3617 -0.2541 -0.4667
  264SOL    MW4  790   5.605   4.682   1.934  0.3463 -0.4268  0.4037
  265SOL     OW  791   4.144   2.072   2.687  0.1278  0.0447 -0.0224
  265SOL    HW2  792   4.175   2.012   2.755  1.8676 -0.3875 -1.1166
  265SOL    HW3  793   4.049   2.061   2.687  0.2063 -0.9224  1.4336
  265SOL    MW4  794   4.135   2.062   2.696 -0.1520 -0.2229  0.1350
  266SOL     OW  795   0.166   2.385   2.739  0.0483  0.1005  0.6835
  266SOL    HW2  796   0.212   2.434   2.671  2.3122 -1.5652  0.9356
  266SOL    HW3  797   0.107   2.327   2.690  0.2537  0.2552  0.2434
  266SOL    MW4  798   0.164   2.384   2.723  0.6267 -0.0765 -0.4703
  267SOL     OW  799   3.002   5.723   0.091 -0.2492  0.0202  0.5034
  267SOL    HW2  800   3.091   5.720   0.125  0.2428  1.7059 -0.5058
  267SOL    HW3  801   2.965   5.804   0.127 -1.1776 -0.3483  0.4245
  267SOL    MW4  802   3.009   5.733   0.100  0.4276  0.3715 -0.2070
  268SOL     OW  803   1.118   4.331   3.056  0.4871 -0.1676  0.5218
  268SOL    HW2  804   1.085   4.419   3.076  0.7026 -0.3905  1.9344
  268SOL    HW3  805   1.206   4.330   3.095  0.3424 -1.1251  0.8355
  268SOL    MW4  806   1.125   4.343   3.064  0.5635  0.1594 -0.5009
  269SOL     OW  807   4.572   4.996   5.945 -0.1028  0.5491  0.5679
  269SOL    HW2  808   4.611   5.083   5.930  0.4342  0.1455 -0.4504
  269SOL    HW3  809   4.489   4.999   5.898  0.8684 -0.1759 -1.3119
  269SOL    MW4  810   4.566   5.008   5.936  0.1697 -0.6029  0.6981
  270SOL     OW  811   3.513   4.106   5.232 -0.1759 -0.2854 -0.0558
  270SOL    HW2  812   3.561   4.044   5.177  2.0070  1.1404  0.1192
  270SOL    HW3  813   3.453   4.150   5.172  0.2990 -0.5806 -0.7603
  270SOL    MW4  814   3.511   4.103   5.217 -0.5456 -0.7517 -0.1341
  271SOL     OW  815   3.694   3.285   1.202 -0.6710 -0.0596  0.1738
  271SOL    HW2  816   3.617   3.317   1.248 -0.2478 -0.8212  1.4703
  271SOL    HW3  817   3.681   3.191   1.193 -0.6892  0.0519 -1.2033
  271SOL    MW4  818   3.682   3.277   1.207  0.1811  0.6689  0.7870
  272SOL     OW  819   0.520   1.222   0.976 -0.3047  0.0822 -0.0269
  272SOL    HW2  820   0.517   1.224   1.072 -0.0147  0.7797 -0.0260
  272SOL    HW3  821   0.492   1.309   0.950 -0.6913 -0.2068 -0.5928
  272SOL    MW4  822   0.516   1.233   0.986  0.2379 -0.9620 -0.3253
  273SOL     OW  823   1.224   3.217   2.344  0.4114  0.4670  0.2702
  273SOL    HW2  824   1.208   3.251   2.432 -0.6184  0.4823  0.0884
  273SOL    HW3  825   1.137   3.195   2.311  0.9797 -2.8447  0.5592
  273SOL    MW4  826   1.211   3.218   2.352  0.0948  0.0144 -0.1868
  274SOL     OW  827   3.159   5.155   4.187  0.5211 -0.2637  0.0496
  274SOL    HW2  828   3.184   5.068   4.155 -2.2348 -1.1409  0.0188
  274SOL    HW3  829   3.195   5.159   4.275 -0.0708 -1.8818  0.4143
  274SOL    MW4  830   3.167   5.144   4.195 -0.6825  0.5923  0.0256
  275SOL     OW  831   4.881   0.691   3.636 -0.1432 -0.2804 -0.3378
  275SOL    HW2  832   4.927   0.632   3.695 -1.2852 -0.8200  0.0347
  275SOL    HW3  833   4.823   0.743   3.692  0.6896  1.0814 -0.6831
  275SOL    MW4  834   4.879   0.690   3.651 -0.6434 -0.0337  0.6663
  276SOL     OW  835   1.589   5.438   4.169 -0.0237 -0.7422  0.1776
  276SOL    HW2  836   1.665   5.485   4.204 -0.5029  0.4242 -0.3087
  276SOL    HW3  837   1.627   5.363   4.123  0.8105 -0.3825  0.2496
  276SOL    MW4  838   1.604   5.434   4.168  0.3961  0.1929 -0.2137
  277SOL     OW  839   4.836   0.691   2.741 -0.4948 -0.8614  0.0695
  277SOL    HW2  840   4.823   0.731   2.827  1.0694 -1.0610  0.4376
  277SOL    HW3  841   4.924   0.654   2.745  0.5579  1.0396 -2.3388
  277SOL    MW4  842   4.846   0.692   2.753 -1.0841  0.1988 -0.5217
  278SOL     OW  843   2.565   4.759   0.216  0.0162  0.4078 -0.0540
  278SOL    HW2  844   2.526   4.818   0.151 -0.6085  0.1878  0.1144
  278SOL    HW3  845   2.613   4.695   0.164  1.4122  1.5432 -0.2147
  278SOL    MW4  846   2.566   4.759   0.200 -0.0033 -0.4007  0.4407
  279SOL     OW  847   1.658   1.331   3.136 -0.1740 -0.4603 -0.5545
  279SOL    HW2  848   1.742   1.286   3.133  0.3060  0.2450  1.1903
  279SOL    HW3  849   1.597   1.265   3.169 -0.2619 -0.8603 -1.4660
  279SOL    MW4  850   1.661   1.316   3.140  0.4491  0.2041 -0.3701
  280SOL     OW  851   1.375   1.649   1.897  0.4215  0.3662  0.3890
  280SOL    HW2  852   1.387   1.554   1.887  1.4105  0.1182  3.1416
  280SOL    HW3  853   1.324   1.658   1.977 -2.7246  2.1547 -1.5969
  280SOL    MW4  854   1.370   1.637   1.906  0.4483 -0.6985 -0.2238
  281SOL     OW  855   3.768   2.524   3.082  0.1508 -0.3541 -0.4440
  281SOL    HW2  856   3.677   2.539   3.055  0.6345  1.1135 -1.3377
  281SOL    HW3  857   3.761   2.497   3.173 -1.2011 -0.6993 -0.6147
  281SOL    MW4  858   3.755   2.522   3.090  0.4367 -0.5374  0.4451
  282SOL     OW  859   0.977   4.736   6.253 -1.2753  0.2837 -0.0951
  282SOL    HW2  860   0.984   4.756   6.346 -0.1809 -0.9688  0.1127
  282SOL    HW3  861   0.983   4.640   6.248 -0.0570  0.3960 -1.5412
  282SOL    MW4  862   0.978   4.726   6.264 -0.1367  0.0150 -0.4269
  283SOL     OW  863   0.386   3.940   6.369  0.4754 -0.3077 -0.7545
  283SOL    HW2  864   0.308   3.954   6.424  1.3285 -3.6056  1.6459
  283SOL    HW3  865   0.352   3.896   6.291 -0.2086 -0.7874 -0.2026
  283SOL    MW4  866   0.371   3.936   6.366 -0.1098 -0.0119  0.0550
  284SOL     OW  867   3.926   5.945   6.021 -0.0874  0.3251  0.2420
  284SOL    HW2  868   3.859   5.878   6.006  1.0302 -0.7084 -0.3359
  284SOL    HW3  869   3.914   6.007   5.949 -1.1231  0.7486  0.7721
  284SOL    MW4  870   3.916   5.945   6.009  0.2380 -0.1436 -0.6782
  285SOL     OW  871   4.587   0.783   4.711 -0.2284  0.3588 -0.0973
  285SOL    HW2  872   4.557   0.713   4.769 -2.1439 -0.2714 -1.7194
  285SOL    HW3  873   4.681   0.770   4.705 -0.5351 -2.3439 -0.5584
  285SOL    MW4  874   4.595   0.772   4.718  0.0646  0.4057  0.3468
  286SOL     OW  875   5.431   2.689   1.646  0.4366  0.3025  0.0854
  286SOL    HW2  876   5.395   2.774   1.620  2.3566  1.4202  0.8645
  286SOL    HW3  877   5.476   2.706   1.729 -0.7209 -1.9131  1.2800
  286SOL    MW4  878   5.432   2.702   1.654  0.3904 -0.2496 -0.1103
  287SOL     OW  879   3.506   0.779   4.970  0.8318  0.0490 -0.2152
  287SOL    HW2  880   3.585   0.775   4.916  1.3508  1.3425  0.4195
  287SOL    HW3  881   3.512   0.863   5.016 -1.8071  1.1064 -1.5449
  287SOL    MW4  882   3.517   0.790   4.969  0.2627  0.6076  0.5036
  288SOL     OW  883   2.228   1.559   0.142  0.1084 -0.5243  0.4817
  288SOL    HW2  884   2.215   1.602   0.226 -1.1436  1.2081 -0.5313
  288SOL    HW3  885   2.308   1.507   0.154  1.0648  1.1950  2.1574
  288SOL    MW4  886   2.237   1.558   0.154 -0.0845 -0.3086  0.7926
  289SOL     OW  887   3.534   0.782   1.769  0.3500  0.1765 -0.1698
  289SOL    HW2  888   3.543   0.739   1.854  0.7227  2.2216  0.9077
  289SOL    HW3  889   3.613   0.836   1.761  1.0604 -1.0442 -2.5332
  289SOL    MW4  890   3.546   0.784   1.779  0.0036  0.3260 -0.2118
  290SOL     OW  891   2.921   0.128   0.969 -0.6643 -0.1994 -0.5433
  290SOL    HW2  892   2.990   0.094   0.912  2.6670  1.7574  1.9131
  290SOL    HW3  893   2.968   0.178   1.035 -4.3321 -0.8530  2.9350
  290SOL    MW4  894   2.936   0.130   0.970 -0.1246 -0.4072 -0.3011
  291SOL     OW  895   5.330   4.466   5.627 -0.5396 -0.2366 -0.1119
  291SOL    HW2  896   5.299   4.404   5.692  1.0758 -2.2486 -1.1110
  291SOL    HW3  897   5.253   4.516   5.602 -1.7189 -1.1879  1.4460
  291SOL    MW4  898   5.316   4.464   5.632  0.4401 -0.1194  0.5243
  292SOL     OW  899   6.061   4.259   4.844  0.3980  0.3674 -0.0626
  292SOL    HW2  900   6.127   4.223   4.904  0.7330 -0.8144 -1.1195
  292SOL    HW3  901   6.104   4.335   4.804  0.5800  0.4685  0.3138
  292SOL    MW4  902   6.075   4.264   4.847  0.4835 -0.1158  0.0472
  293SOL     OW  903   1.390   2.031   5.118 -0.5568  0.2590  0.1262
  293SOL    HW2  904   1.373   2.078   5.036  1.2249  1.1583  0.2143
  293SOL    HW3  905   1.435   1.951   5.091  1.1905  1.1553  0.2464
  293SOL    MW4  906   1.394   2.027   5.104 -0.1318  0.0112 -0.4044
  294SOL     OW  907   3.722   2.357   3.966  0.1767 -0.0333 -0.4479
  294SOL    HW2  908   3.683   2.292   3.908  1.4388 -1.8714  0.6599
  294SOL    HW3  909   3.711   2.440   3.920 -2.1717 -0.8776 -1.5828
  294SOL    MW4  910   3.715   2.360   3.952 -0.7110 -0.6635 -0.3458
  295SOL     OW  911   1.281   0.325   3.223 -0.4442  0.5529 -0.7503
  295SOL    HW2  912   1.290   0.280   3.307 -0.7510 -1.4861 -1.7512
  295SOL    HW3  913   1.361   0.377   3.216 -0.5904  1.0934  0.9448
  295SOL    MW4  914   1.293   0.326   3.233  0.4402 -0.3337 -0.0381
  296SOL     OW  915   5.502   4.575   2.203 -0.0945 -0.1052  0.5399
  296SOL    HW2  916   5.419   4.603   2.241  0.1303 -0.0328  0.9897
  296SOL    HW3  917   5.479   4.540   2.117 -0.4997  0.5402  0.3840
  296SOL    MW4  918   5.488   4.574   2.197  0.3919 -0.3389 -0.2141
  297SOL     OW  919   0.474   1.951   5.974  0.0512 -0.9710  0.2447
  297SOL    HW2  920   0.481   2.021   5.910  0.9854 -1.3798 -0.1175
  297SOL    HW3  921   0.465   1.996   6.058 -0.4893 -0.4308 -0.0988
  297SOL    MW4  922   0.474   1.966   5.977 -0.8191  0.2859 -0.4153
  298SOL     OW  923   1.575   6.135   0.215  0.6958 -0.2085 -0.2855
  298SOL    HW2  924   1.612   6.046   0.206  2.8409  0.5390  0.4810
  298SOL    HW3  925   1.634   6.179   0.276 -0.6115  1.6263 -0.2769
  298SOL    MW4  926   1.588   6.129   0.222 -0.3998  0.1989  0.2319
  299SOL     OW  927   2.213   0.585   3.208 -0.6190  0.1140 -0.1547
  299SOL    HW2  928   2.251   0.672   3.218 -0.2015  0.1666 -1.8207
  299SOL    HW3  929   2.261   0.530   3.269  2.0528  0.2413 -1.9900
  299SOL    MW4  930   2.224   0.589   3.217  0.4287 -0.5502 -0.0912
  300SOL     OW  931   3.991   3.501   2.529  0.1590 -0.5275  0.0126
  300SOL    HW2  932   3.902   3.498   2.564 -0.1464 -2.5930 -0.7532
  300SOL    HW3  933   4.046   3.524   2.604 -0.9437  0.0328  0.6720
  300SOL    MW4  934   3.987   3.503   2.544 -0.3028 -0.0718 -0.5692
  301SOL     OW  935   4.993   1.769   4.100 -0.0001 -0.2172 -0.5313
  301SOL    HW2  936   5.035   1.708   4.040  0.4631 -0.4287 -0.0031
  301SOL    HW3  937   5.060   1.789   4.165 -1.5298 -2.9064  2.1178
  301SOL    MW4  938   5.007   1.764   4.101  0.1801 -0.0691 -0.3512
  302SOL     OW  939   2.317   3.273   0.865  0.0784 -0.5080  0.1417
  302SOL    HW2  940   2.396   3.261   0.916 -0.0480  0.0244  0.4696
  302SOL    HW3  941   2.294   3.185   0.834 -0.2495 -0.9460  1.5931
  302SOL    MW4  942   2.324   3.260   0.867  0.4999  0.2633 -0.2988
  303SOL     OW  943   2.010   3.584   3.182 -0.2480  0.8555  0.4666
  303SOL    HW2  944   2.018   3.642   3.107  0.9057 -0.7124 -0.6961
  303SOL    HW3  945   2.096   3.541   3.188 -1.6445 -2.2588 -0.0510
  303SOL    MW4  946   2.023   3.586   3.173  0.0721  0.2280  0.2644
  304SOL     OW  947   4.391   0.708   2.236  0.2467  0.3867  0.4510
  304SOL    HW2  948   4.466   0.724   2.179 -0.2938 -0.8628 -0.6473
  304SOL    HW3  949   4.429   0.701   2.324  1.8722 -2.9924 -0.3632
  304SOL    MW4  950   4.406   0.709   2.240 -0.4082 -0.1676 -0.5073
  305SOL     OW  951   5.847   2.819   0.828  0.3772  0.0069 -0.2940
  305SOL    HW2  952   5.822   2.883   0.761 -0.5779  0.0439  0.0918
  305SOL    HW3  953   5.899   2.754   0.780 -2.4353 -1.3891 -1.6808
  305SOL    MW4  954   5.850   2.819   0.813 -0.1465  0.1471 -0.1551
  306SOL     OW  955   4.373   0.919   4.825  0.3109  0.2214  0.0446
  306SOL    HW2  956   4.344   0.853   4.889 -0.4918  0.3413 -0.1958
  306SOL    HW3  957   4.454   0.882   4.789 -0.1716 -0.6701 -0.1414
  306SOL    MW4  958   4.380   0.905   4.829  0.1798  0.0481  0.4542
  307SOL     OW  959   0.956   4.494   2.438  0.6342 -0.4790  0.2239
  307SOL    HW2  960   1.051   4.489   2.424  0.6412  1.5085 -0.9309
  307SOL    HW3  961   0.942   4.581   2.475 -0.7956 -0.3729 -0.4741
  307SOL    MW4  962   0.967   4.505   2.441  0.7453  0.7763  0.2297
  308SOL     OW  963   0.371   5.713   0.714  0.2847 -0.2673 -0.0568
  308SOL    HW2  964   0.392   5.630   0.672  1.5335 -0.4583  0.8843
  308SOL    HW3  965   0.441   5.772   0.687  1.2887 -0.4713  1.9081
  308SOL    MW4  966   0.383   5.710   0.705 -0.1908 -0.3069 -0.6889
  309SOL     OW  967   5.175   2.813   5.709 -0.3858 -0.2660 -0.1681
  309SOL    HW2  968   5.213   2.871   5.775  0.5183 -0.4465 -0.5194
  309SOL    HW3  969   5.238   2.811   5.638 -0.7257 -1.1249 -0.4709
  309SOL    MW4  970   5.188   2.820   5.708  0.2523  0.2044  0.6277
  310SOL     OW  971   5.537   5.297   3.351  0.0782 -0.2527 -0.0453
  310SOL    HW2  972   5.535   5.383   3.309  0.0026 -0.6551 -0.8916
  310SOL    HW3  973   5.605   5.305   3.418  0.1758  0.4188 -0.2123
  310SOL    MW4  974   5.546   5.310   3.354 -0.2441 -0.1885  0.0580
  311SOL     OW  975   0.591   6.277   1.722 -0.0782 -0.4826  0.6223
  311SOL    HW2  976   0.577   6.183   1.715 -2.0479 -0.2603  0.9741
  311SOL    HW3  977   0.563   6.313   1.638 -0.0423 -0.1524  0.7468
  311SOL    MW4  978   0.586   6.269   1.710  0.0236 -0.4430  0.4887
  312SOL     OW  979   0.399   4.425   4.242 -0.0693  0.2474  0.2361
  312SOL    HW2  980   0.432   4.482   4.311  0.8806  1.1830 -0.9531
  312SOL    HW3  981   0.397   4.480   4.164  0.7187 -1.2675 -0.9138
  312SOL    MW4  982   0.403   4.439   4.241 -0.2216 -0.1572  0.0580
  313SOL     OW  983   0.164   4.293   3.223  0.0404  0.5964 -0.0253
  313SOL    HW2  984   0.139   4.372   3.175  1.0926  1.0066  0.0668
  313SOL    HW3  985   0.171   4.322   3.314 -2.2102 -0.2380  0.4754
  313SOL    MW4  986   0.161   4.307   3.228  0.3716  0.0973 -0.6717
  314SOL     OW  987   0.324   5.237   2.327  0.4095  0.0609  0.0939
  314SOL    HW2  988   0.399   5.294   2.344  0.7824  0.0121 -1.2690
  314SOL    HW3  989   0.253   5.297   2.304  0.9821  0.0087 -2.0116
  314SOL    MW4  990   0.325   5.252   2.326 -0.0031 -0.1629  0.1542
  315SOL     OW  991   5.738   0.326   5.938 -0.1767  0.0954 -0.3386
  315SOL    HW2  992   5.778   0.405   5.973  0.0943  0.2438 -0.9633
  315SOL    HW3  993   5.644   0.346   5.934 -0.1703  0.1877  0.0062
  315SOL    MW4  994   5.731   0.339   5.942 -0.4306  0.2032  0.0066
  316SOL     OW  995   4.136   5.797   2.070 -0.2140 -0.0190 -0.4938
  316SOL    HW2  996   4.168   5.721   2.021 -1.4827 -0.3416 -0.8415
  316SOL    HW3  997   4.076   5.761   2.135  1.6138  0.3798  1.5242
  316SOL    MW4  998   4.133   5.783   2.072 -0.4095  0.2154  0.6084
  317SOL     OW  999   0.128   3.214   4.522 -0.2798 -0.0409 -0.1270
  317SOL    HW2 1000   0.163   3.132   4.487  0.6148  0.7615 -1.1859
  317SOL    HW3 1001   0.200   3.251   4.573 -1.3758 -0.9067  2.1610
  317SOL    MW4 1002   0.142   3.208   4.524 -0.6759 -0.2862 -0.2495
  318SOL     OW 1003   1.288   1.973   2.136 -0.2920 -0.3372  0.7825
  318SOL    HW2 1004   1.365   1.932   2.175  2.5134  1.5224 -2.2617
  318SOL    HW3 1005   1.252   2.028   2.205  1.4563 -0.8010  2.1481
  318SOL    MW4 1006   1.293   1.975   2.150 -0.1477  0.3840 -0.2716
  319SOL     OW 1007   4.333   0.758   3.575  0.4272  0.3504 -0.1384
  319SOL    HW2 1008   4.283   0.818   3.520  0.8087  0.3322 -0.5103
  319SOL    HW3 1009   4.287   0.758   3.659 -0.4402 -0.0001 -0.6113
  319SOL    MW4 1010   4.321   0.766   3.579 -0.4205  0.1437  0.0147
  320SOL     OW 1011   3.920   1.230   1.827  0.8475 -0.7458  0.2152
  320SOL    HW2 1012   4.011   1.236   1.857  0.4721  0.6171  1.1959
  320SOL    HW3 1013   3.916   1.288   1.752  0.1590  1.6408  1.9728
  320SOL    MW4 1014   3.932   1.238   1.821 -0.0535  0.2302  0.0628
  321SOL     OW 1015   4.445   0.976   4.372 -0.5340 -0.1366  0.4689
  321SOL    HW2 1016   4.452   0.999   4.280 -2.2183  1.2600  0.6284
  321SOL    HW3 1017   4.396   1.049   4.412  1.4040  0.0413  2.7768
  321SOL    MW4 1018   4.439   0.989   4.365 -0.0344 -0.2167  0.0464
  322SOL     OW 1019   5.592   3.049   5.652  0.0468 -0.9469 -1.0342
  322SOL    HW2 1020   5.573   3.115   5.585 -2.5778 -0.5958 -0.0625
  322SOL    HW3 1021   5.643   3.097   5.718 -0.2696 -0.3770 -1.1924
  322SOL    MW4 1022   5.597   3.064   5.652 -0.3112  0.5271  0.2283
  323SOL     OW 1023   5.054   5.091   2.346 -0.2492 -0.5435  0.1279
  323SOL    HW2 1024   5.138   5.084   2.390  0.1744 -0.7845 -0.6881
  323SOL    HW3 1025   5.009   5.009   2.366  0.5006 -1.2569 -0.9761
  323SOL    MW4 1026   5.059   5.079   2.354 -0.4457  0.0586 -0.3354
  324SOL     OW 1027   5.769   2.693   4.316  0.6455 -0.0136 -0.8385
  324SOL    HW2 1028   5.860   2.681   4.288  1.1482 -1.1215  1.1285
  324SOL    HW3 1029   5.721   2.621   4.275  1.0364 -0.5992 -0.2696
  324SOL    MW4 1030   5.774   2.682   4.307  0.4009  0.4582 -0.2172
  325SOL     OW 1031   1.453   2.776   2.313 -0.0341 -0.1555 -0.1511
  325SOL    HW2 1032   1.539   2.737   2.332  0.5309  0.6868 -0.8874
  325SOL    HW3 1033   1.413   2.718   2.249 -0.8784 -1.6269  1.6095
  325SOL    MW4 1034   1.459   2.764   2.307 -0.3809 -0.4095 -0.3709
  326SOL     OW 1035   3.792   4.145   2.423 -0.0183  0.5565  0.1842
  326SOL    HW2 1036   3.887   4.130   2.424  0.1724  1.6456  0.4791
  326SOL    HW3 1037   3.772   4.172   2.513 -0.5897  0.4572  0.0859
  326SOL    MW4 1038   3.802   4.147   2.435  0.4857 -0.1462 -0.0724
  327SOL     OW 1039   4.486   3.985   2.305 -0.0021  0.4619  0.5939
  327SOL    HW2 1040   4.576   4.003   2.279  1.3437 -3.2370  2.0018
  327SOL    HW3 1041   4.472   4.038   2.383  0.7381  1.5010  0.0438
  327SOL    MW4 1042   4.496   3.994   2.312  0.1932 -0.3316 -0.1485
  328SOL     OW 1043   4.204   0.155   0.895 -0.1770  0.4597  0.0126
  328SOL    HW2 1044   4.171   0.194   0.814 -0.9533  3.7560  1.7332
  328SOL    HW3 1045   4.299   0.152   0.884 -0.3239  0.2365 -1.2595
  328SOL    MW4 1046   4.212   0.160   0.883 -0.0764 -0.0604 -0.3106
  329SOL     OW 1047   3.412   2.261   2.758 -0.4305  0.3711  0.3439
  329SOL    HW2 1048   3.358   2.289   2.684 -2.2375 -0.5911  1.2260
  329SOL    HW3 1049   3.369   2.181   2.790 -0.2476  1.2341  2.9884
  329SOL    MW4 1050   3.399   2.254   2.752  0.3877  0.1030 -1.1474
  330SOL     OW 1051   3.831   3.186   2.253 -0.4877  0.0388  0.0848
  330SOL    HW2 1052   3.903   3.124   2.267 -1.6824 -1.4983 -0.2510
  330SOL    HW3 1053   3.866   3.270   2.279  1.9761 -0.3688 -1.5939
  330SOL    MW4 1054   3.845   3.189   2.258 -0.3207  0.3334  0.8280
  331SOL     OW 1055   4.652   2.645   4.266 -0.6366  0.1690  0.0103
  331SOL    HW2 1056   4.620   2.579   4.205 -0.4273 -0.7837  0.8952
  331SOL    HW3 1057   4.579   2.706   4.276 -0.6960  0.2953 -1.1163
  331SOL    MW4 1058   4.638   2.644   4.259 -0.4681  0.5541 -0.1172
  332SOL     OW 1059   5.617   2.266   2.857 -0.5533  0.0233  0.7864
  332SOL    HW2 1060   5.537   2.318   2.854  1.0286  2.6177 -0.3529
  332SOL    HW3 1061   5.687   2.331   2.854  1.6414 -2.2190 -2.1382
  332SOL    MW4 1062   5.616   2.281   2.856 -0.3254  0.1759 -0.0884
  333SOL     OW 1063   3.037   3.896   4.104 -0.6098  0.3885 -0.0744
  333SOL    HW2 1064   2.992   3.848   4.173 -0.0792  1.1022  0.7897
  333SOL    HW3 1065   3.128   3.899   4.132 -0.5109  1.2819 -0.4502
  333SOL    MW4 1066   3.043   3.890   4.116  0.1790 -0.4327  0.3065
  334SOL     OW 1067   3.048   1.871   5.529 -0.2453 -0.1673 -0.2647
  334SOL    HW2 1068   3.023   1.808   5.596  1.2414  0.7912  1.2575
  334SOL    HW3 1069   3.129   1.835   5.492 -0.5683 -0.2289 -0.9191
  334SOL    MW4 1070   3.055   1.858   5.533 -0.3811  0.2153  0.4817
  335SOL     OW 1071   4.366   6.377   6.138 -0.0846  0.3957 -0.4037
  335SOL    HW2 1072   4.365   6.348   6.229 -1.2569  1.8539  0.0883
  335SOL    HW3 1073   4.276   6.405   6.121 -0.3319 -1.3808 -2.5550
  335SOL    MW4 1074   4.354   6.377   6.147 -0.0333  0.3996 -0.2632
  336SOL     OW 1075   5.388   0.519   2.619  0.0533  0.4823 -0.0790
  336SOL    HW2 1076   5.421   0.455   2.682 -0.5091  0.5152  0.2619
  336SOL    HW3 1077   5.424   0.491   2.535  0.4522  0.1784  0.1867
  336SOL    MW4 1078   5.397   0.507   2.616 -0.5246 -0.0879  0.1277
  337SOL     OW 1079   2.105   4.099   4.408 -0.4076  0.3619  0.1622
  337SOL    HW2 1080   2.114   4.009   4.376  2.6460  1.1526 -1.5821
  337SOL    HW3 1081   2.086   4.150   4.329  0.7605  1.5626  0.6289
  337SOL    MW4 1082   2.103   4.094   4.393  1.2078 -0.3128  0.5929
  338SOL     OW 1083   3.173   3.779   0.258  0.1146  0.2199 -0.1435
  338SOL    HW2 1084   3.153   3.736   0.174 -3.1387  1.2091 -0.0138
  338SOL    HW3 1085   3.168   3.709   0.322 -1.6777  0.1032 -0.3487
  338SOL    MW4 1086   3.170   3.764   0.255 -0.3396 -0.3571  0.7120
  339SOL     OW 1087   1.202   0.748   5.059 -0.4848  0.2524 -0.2246
  339SOL    HW2 1088   1.276   0.785   5.106 -1.1958  3.1696 -1.1993
  339SOL    HW3 1089   1.168   0.680   5.117  1.4393  0.5320  1.3138
  339SOL    MW4 1090   1.207   0.744   5.073 -0.4222  0.2725 -0.0907
  340SOL     OW 1091   4.366   0.730   0.584  0.2476 -0.2056  0.1136
  340SOL    HW2 1092   4.313   0.788   0.530  1.9853  1.2907 -0.0765
  340SOL    HW3 1093   4.337   0.746   0.674  0.3570  0.5795  0.0090
  340SOL    MW4 1094   4.355   0.739   0.589  0.4080  0.4388  0.0622
  341SOL     OW 1095   5.101   6.187   0.518 -0.2024  0.0290  0.0190
  341SOL    HW2 1096   5.018   6.229   0.493 -0.4485 -0.7230 -0.4695
  341SOL    HW3 1097   5.129   6.141   0.438  0.2412 -0.4369  0.4367
  341SOL    MW4 1098   5.094   6.186   0.504 -0.5012  0.5448 -0.4071
  342SOL     OW 1099   4.586   1.914   1.959  0.1184 -0.2346 -0.0166
  342SOL    HW2 1100   4.514   1.927   1.896 -1.3809 -0.1252  1.6409
  342SOL    HW3 1101   4.635   1.996   1.956  0.3744 -0.4051 -1.3657
  342SOL    MW4 1102   4.583   1.927   1.950 -0.2666 -0.2310  0.3093
  343SOL     OW 1103   4.506   6.154   2.479  0.0970  0.5058  0.4194
  343SOL    HW2 1104   4.422   6.129   2.441  0.5340  1.2939 -1.1933
  343SOL    HW3 1105   4.512   6.248   2.464 -0.5880  1.3283  4.4222
  343SOL    MW4 1106   4.496   6.163   2.472  0.0027 -0.0876 -0.2365
  344SOL     OW 1107   5.217   0.796   5.061 -0.4975 -0.1872 -0.1282
  344SOL    HW2 1108   5.299   0.751   5.078 -0.6918  0.1134  1.8251
  344SOL    HW3 1109   5.234   0.887   5.085 -1.2562 -0.0260 -0.1810
  344SOL    MW4 1110   5.230   0.802   5.066 -0.2891 -0.2403  0.1244
  345SOL     OW 1111   1.827   1.923   0.277 -0.0692  0.0289  0.2461
  345SOL    HW2 1112   1.754   1.943   0.335 -0.1717  0.6750 -0.0919
  345SOL    HW3 1113   1.905   1.947   0.326 -0.0543 -0.9447  0.7228
  345SOL    MW4 1114   1.828   1.929   0.291  0.6166  0.5547 -0.1884
  346SOL     OW 1115   6.178   0.044   6.332 -0.1885 -0.4417 -0.2732
  346SOL    HW2 1116   6.124   0.002   6.265 -0.7129  0.6655 -0.5512
  346SOL    HW3 1117   6.226   0.112   6.285 -0.4307  0.2317  0.4520
  346SOL    MW4 1118   6.177   0.047   6.317 -0.2716 -0.5593  0.1325
  347SOL     OW 1119   6.335   2.708   1.549  0.3621  0.1173 -0.1471
  347SOL    HW2 1120   6.373   2.639   1.603 -0.7109 -0.8906 -0.6451
  347SOL    HW3 1121   6.292   2.662   1.476  0.6162  1.3664 -1.1295
  347SOL    MW4 1122   6.334   2.693   1.546  0.2303 -0.4188  0.0866
  348SOL     OW 1123   2.213   0.831   4.518  0.3770 -0.6990  0.6804
  348SOL    HW2 1124   2.277   0.789   4.460 -0.7490 -1.7477  0.1425
  348SOL    HW3 1125   2.203   0.919   4.483  1.5486 -0.4950  0.8098
  348SOL    MW4 1126   2.220   0.837   4.506  0.3975 -0.1964 -0.0758
  349SOL     OW 1127   3.777   3.535   2.706 -0.3939 -0.0877  0.1882
  349SOL    HW2 1128   3.713   3.469   2.731  0.5693 -0.6012  1.4265
  349SOL    HW3 1129   3.834   3.544   2.783 -0.0310  1.6248 -0.2335
  349SOL    MW4 1130   3.776   3.528   2.720 -0.5904 -0.0441 -0.8309
  350SOL     OW 1131   0.155   1.231   5.778  0.1089  0.5760 -0.2551
  350SOL    HW2 1132   0.070   1.242   5.736 -0.6572  0.6957  1.2827
  350SOL    HW3 1133   0.164   1.137   5.790 -0.2049  0.6188  0.3532
  350SOL    MW4 1134   0.145   1.220   5.774  0.0571  0.0228  0.6184
  351SOL     OW 1135   0.485   0.247   5.152 -0.2566  0.3584  0.4737
  351SOL    HW2 1136   0.549   0.184   5.120  1.1863  0.8271  2.2683
  351SOL    HW3 1137   0.418   0.195   5.194  0.9493 -0.0419  1.9908
  351SOL    MW4 1138   0.485   0.232   5.153 -0.8112 -0.5874  0.5558
  352SOL     OW 1139   4.193   3.155   3.405 -0.1168 -0.0344  0.2705
  352SOL    HW2 1140   4.268   3.178   3.459 -1.9003  2.2610  2.0018
  352SOL    HW3 1141   4.208   3.198   3.321  2.1963 -2.7738 -0.8772
  352SOL    MW4 1142   4.205   3.163   3.401 -0.5608  0.3146 -0.4173
  353SOL     OW 1143   4.449   0.215   5.296  0.0911  0.0328 -0.7405
  353SOL    HW2 1144   4.397   0.284   5.256 -1.4068 -0.2529  0.6235
  353SOL    HW3 1145   4.515   0.194   5.230 -1.7140  0.1776 -2.7018
  353SOL    MW4 1146   4.451   0.221   5.282  0.4380 -0.5178  0.0970
  354SOL     OW 1147   0.979   5.562   4.209 -0.3434  0.9881 -0.1524
  354SOL    HW2 1148   1.038   5.602   4.273  0.9341 -1.4152  0.2733
  354SOL    HW3 1149   1.030   5.558   4.128  0.4167 -1.6650  0.3777
  354SOL    MW4 1150   0.993   5.567   4.207 -0.0476 -0.0724 -0.4842
  355SOL     OW 1151   4.028   0.654   6.090  0.4799  0.8857  0.1034
  355SOL    HW2 1152   4.116   0.635   6.125  1.0346 -0.2123 -1.7168
  355SOL    HW3 1153   4.041   0.660   5.996 -1.7072 -1.4401 -0.4692
  355SOL    MW4 1154   4.042   0.652   6.082 -0.2597  0.1978  0.9024
  356SOL     OW 1155   3.969   6.395   2.709  0.0231 -0.2821 -0.6441
  356SOL    HW2 1156   4.036   6.328   2.696 -1.2478 -2.0165  1.1182
  356SOL    HW3 1157   3.922   6.399   2.626  1.4597  0.0129 -1.4679
  356SOL    MW4 1158   3.972   6.387   2.696 -0.0989 -0.5498  0.9429
  357SOL     OW 1159   4.071   1.435   2.862  0.4178 -0.2528  0.2406
  357SOL    HW2 1160   4.075   1.383   2.942 -0.0961 -0.5087  0.1047
  357SOL    HW3 1161   4.041   1.374   2.795 -1.0574  0.4050  0.2530
  357SOL    MW4 1162   4.067   1.420   2.864  0.5436  0.5108 -0.1757
  358SOL     OW 1163   2.009   3.842   3.748  0.5772 -0.1165  0.2515
  358SOL    HW2 1164   1.950   3.795   3.689  0.8120  0.0572 -0.1238
  358SOL    HW3 1165   2.035   3.920   3.699  0.5675  0.1651  0.6863
  358SOL    MW4 1166   2.004   3.846   3.734 -0.3396 -0.3197 -0.3178
  359SOL     OW 1167   1.582   1.056   5.909 -0.5487  0.2942  0.5470
  359SOL    HW2 1168   1.666   1.016   5.932 -0.5792  0.5740  1.1722
  359SOL    HW3 1169   1.602   1.114   5.836 -0.4985 -0.8229 -0.3468
  359SOL    MW4 1170   1.595   1.058   5.903  0.2260  0.0771  0.4380
  360SOL     OW 1171   1.474   5.190   2.226  0.0454 -0.1353 -0.2050
  360SOL    HW2 1172   1.501   5.103   2.195  0.1832 -0.5939  1.1178
  360SOL    HW3 1173   1.493   5.249   2.153  0.1984 -1.1752 -1.0330
  360SOL    MW4 1174   1.480   5.186   2.212 -0.4715 -0.0913 -0.0810
  361SOL     OW 1175   3.291   2.752   3.727  0.2131  0.0712 -0.0903
  361SOL    HW2 1176   3.359   2.807   3.767  0.5824 -1.1890  1.0719
  361SOL    HW3 1177   3.329   2.721   3.645  0.3810  0.7057 -0.2606
  361SOL    MW4 1178   3.305   2.755   3.722 -0.1704 -0.7347 -0.0722
  362SOL     OW 1179   1.486   4.821   3.067 -0.0512 -0.0248  0.1273
  362SOL    HW2 1180   1.578   4.820   3.094  0.5468  3.3487 -1.1998
  362SOL    HW3 1181   1.489   4.830   2.971 -1.6885  0.9524  0.1209
  362SOL    MW4 1182   1.499   4.822   3.058  0.3652 -0.4270 -0.4659
  363SOL     OW 1183   1.589   0.160   3.871 -0.2721  0.2495  0.3276
  363SOL    HW2 1184   1.585   0.082   3.926  0.5616 -0.7759 -1.0168
  363SOL    HW3 1185   1.517   0.150   3.809  0.0707  0.3433 -0.0924
  363SOL    MW4 1186   1.579   0.148   3.870  0.0112 -0.6615 -0.0253
  364SOL     OW 1187   2.300   2.227   4.282 -0.6312 -0.8572 -0.0252
  364SOL    HW2 1188   2.280   2.133   4.282 -1.8282 -0.6544  1.7793
  364SOL    HW3 1189   2.315   2.248   4.374 -1.6563  0.9720 -0.2345
  364SOL    MW4 1190   2.300   2.217   4.294 -0.5169 -0.4268  0.0211
  365SOL     OW 1191   3.270   2.404   4.932 -0.1597  0.1300  0.1713
  365SOL    HW2 1192   3.327   2.409   4.856 -0.2401  1.7900  0.2025
  365SOL    HW3 1193   3.210   2.477   4.922 -0.9057 -0.3138  1.2554
  365SOL    MW4 1194   3.270   2.414   4.921  0.2970  0.1592  0.1957
  366SOL     OW 1195   2.633   3.748   3.028 -0.1785  0.4141  0.1768
  366SOL    HW2 1196   2.653   3.737   2.935  1.1147  1.9019  0.2546
  366SOL    HW3 1197   2.539   3.766   3.030 -0.1334  0.8318 -0.8844
  366SOL    MW4 1198   2.623   3.749   3.016  0.7014 -0.2238  0.1725
  367SOL     OW 1199   1.008   5.094   6.409  0.3954 -0.3648  0.4600
  367SOL    HW2 1200   1.058   5.143   6.475  0.8889 -0.3312  0.0678
  367SOL    HW3 1201   1.013   5.003   6.439 -1.3707 -0.0890  1.7351
  367SOL    MW4 1202   1.015   5.088   6.422  0.6428 -0.6727  0.8197
  368SOL     OW 1203   3.756   0.426   0.498 -0.6250  0.1393  0.1420
  368SOL    HW2 1204   3.768   0.503   0.443  1.1451 -0.0943  0.1364
  368SOL    HW3 1205   3.691   0.453   0.563 -1.7174  0.8638 -1.1987
  368SOL    MW4 1206   3.749   0.440   0.500  0.2550 -0.0677 -0.3754
  369SOL     OW 1207   4.992   5.011   3.093  0.3034 -0.5858 -0.2476
  369SOL    HW2 1208   5.008   4.998   2.999  2.6041 -1.3382  0.1865
  369SOL    HW3 1209   4.920   4.951   3.113 -0.5121 -0.1025 -1.5938
  369SOL    MW4 1210   4.985   5.002   3.083  0.5276 -1.3627  0.0065
  370SOL     OW 1211   2.762   0.957   1.271 -0.0234  0.4893 -0.1091
  370SOL    HW2 1212   2.848   0.915   1.275 -1.0036 -1.8792 -1.5205
  370SOL    HW3 1213   2.761   1.001   1.186 -0.7417 -0.8345 -0.8025
  370SOL    MW4 1214   2.773   0.957   1.260  0.0298 -0.6567 -0.0659
  371SOL     OW 1215   2.970   6.220   5.499 -0.0975  0.2384  0.3394
  371SOL    HW2 1216   2.932   6.259   5.420  0.6519  1.1948  0.4372
  371SOL    HW3 1217   3.062   6.208   5.478  0.1975  0.8896  1.1929
  371SOL    MW4 1218   2.977   6.224   5.486 -0.2372 -0.1454 -0.1919
  372SOL     OW 1219   0.420   2.179   4.050 -0.2697  0.2671 -0.4777
  372SOL    HW2 1220   0.496   2.168   4.108  1.2778  2.6034 -1.9064
  372SOL    HW3 1221   0.458   2.186   3.962 -2.2847  0.1619 -1.4148
  372SOL    MW4 1222   0.435   2.178   4.046  0.4080 -0.2204  0.1127
  373SOL     OW 1223   4.645   4.151   5.933 -0.2611 -0.1811 -0.3272
  373SOL    HW2 1224   4.554   4.178   5.927 -0.4326 -0.7539 -0.2952
  373SOL    HW3 1225   4.657   4.124   6.024  0.5689  2.1203  0.3117
  373SOL    MW4 1226   4.635   4.151   5.944  0.0187 -0.1233 -0.3028
  374SOL     OW 1227   1.596   5.640   0.163 -0.0594 -0.3194 -1.0421
  374SOL    HW2 1228   1.654   5.589   0.219  1.0821  0.8786 -1.0693
  374SOL    HW3 1229   1.508   5.610   0.184  0.4777 -1.1530  0.0789
  374SOL    MW4 1230   1.592   5.629   0.173  0.5611  0.5197 -0.3974
  375SOL     OW 1231   3.140   5.553   2.261 -0.0769  0.1656  0.5357
  375SOL    HW2 1232   3.169   5.473   2.305  2.1071  0.3303 -0.5066
  375SOL    HW3 1233   3.084   5.522   2.190 -0.6239 -0.3055  1.1531
  375SOL    MW4 1234   3.136   5.538   2.257  0.0375 -0.1634 -0.0097
  376SOL     OW 1235   2.927   4.540   1.973 -0.5691 -0.2190 -1.0664
  376SOL    HW2 1236   2.964   4.588   2.047 -0.0562  0.0088 -1.4699
  376SOL    HW3 1237   2.988   4.468   1.957 -1.3911 -1.0951 -0.3900
  376SOL    MW4 1238   2.940   4.536   1.980 -0.4838 -0.4118  0.1426
  377SOL     OW 1239   4.507   4.619   3.005 -0.0415  0.2317  0.0610
  377SOL    HW2 1240   4.445   4.599   2.934 -0.8159 -1.1250  1.0553
  377SOL    HW3 1241   4.452   4.648   3.077  0.6531  0.6788  0.4206
  377SOL    MW4 1242   4.492   4.620   3.005 -0.0460  0.1603  0.5793
  378SOL     OW 1243   2.741   5.866   3.585 -0.0867  0.2468 -0.0691
  378SOL    HW2 1244   2.809   5.805   3.555 -1.3035  0.2217 -3.0681
  378SOL    HW3 1245   2.732   5.846   3.678  2.0681 -1.6476 -0.1656
  378SOL    MW4 1246   2.749   5.855   3.593  0.3797 -0.1318 -0.2244
  379SOL     OW 1247   3.952   1.301   4.530  0.0166  0.3976  0.2585
  379SOL    HW2 1248   3.972   1.333   4.442 -0.1761 -0.0474  0.0461
  379SOL    HW3 1249   4.021   1.337   4.585  1.0485 -0.5940 -0.3389
  379SOL    MW4 1250   3.963   1.310   4.525 -0.1919  0.1270 -0.3523
  380SOL     OW 1251   2.559   1.826   0.891  0.8276  0.0537  0.0584
  380SOL    HW2 1252   2.589   1.800   0.979  1.0605 -0.4817 -0.1760
  380SOL    HW3 1253   2.473   1.865   0.906  1.2032  0.7022  0.6208
  380SOL    MW4 1254   2.552   1.828   0.905  0.1067  0.0145  0.1243
  381SOL     OW 1255   1.439   3.501   3.698  0.3595 -0.2814 -0.2271
  381SOL    HW2 1256   1.457   3.498   3.792 -0.2719  0.6838 -0.0550
  381SOL    HW3 1257   1.525   3.490   3.657  0.9468  1.2742  0.5117
  381SOL    MW4 1258   1.453   3.499   3.705  0.3622 -0.0943  0.3615
  382SOL     OW 1259   3.201   5.384   5.812  0.1366  0.0906 -0.0977
  382SOL    HW2 1260   3.137   5.438   5.766 -0.2008  0.3386  0.6608
  382SOL    HW3 1261   3.149   5.331   5.873  0.5732 -0.2904 -0.0463
  382SOL    MW4 1262   3.186   5.384   5.814  0.4048  0.8285 -0.4672
  383SOL     OW 1263   1.666   4.265   5.146 -0.3521  0.0097  0.4117
  383SOL    HW2 1264   1.684   4.174   5.168 -2.4246 -0.0568  2.1491
  383SOL    HW3 1265   1.748   4.311   5.167 -0.5300 -0.8627  3.6941
  383SOL    MW4 1266   1.680   4.259   5.152  0.6853  0.0053  0.3831
  384SOL     OW 1267   2.992   5.698   5.266  0.0231  0.4670 -0.1268
  384SOL    HW2 1268   3.010   5.648   5.187  1.5099 -1.4949  1.3546
  384SOL    HW3 1269   2.915   5.656   5.304  0.5233  0.0859  0.4818
  384SOL    MW4 1270   2.984   5.686   5.261 -0.2527 -0.4382  0.2221
  385SOL     OW 1271   5.684   1.360   1.594  0.6883  0.0868 -0.3239
  385SOL    HW2 1272   5.755   1.298   1.576  0.4572  0.2485 -1.9327
  385SOL    HW3 1273   5.608   1.323   1.550  0.0727  0.5506  0.3285
  385SOL    MW4 1274   5.684   1.347   1.586  0.5026  0.0349 -0.1889
  386SOL     OW 1275   4.215   2.644   1.775  0.0977  0.0731 -0.3245
  386SOL    HW2 1276   4.248   2.671   1.861  0.3395 -1.1334 -0.0176
  386SOL    HW3 1277   4.146   2.707   1.755 -0.8349 -0.3621  1.3320
  386SOL    MW4 1278   4.210   2.656   1.784 -0.2536  0.0719 -0.4108
  387SOL     OW 1279   6.262   0.429   0.891  0.3468 -0.1309  0.0342
  387SOL    HW2 1280   6.287   0.367   0.959  0.6611 -1.2830 -1.0784
  387SOL    HW3 1281   6.170   0.408   0.873  0.5692 -0.6004 -0.6335
  387SOL    MW4 1282   6.253   0.418   0.897  0.1168 -0.5572 -0.4781
  388SOL     OW 1283   2.863   4.107   1.554 -0.1562  0.0524 -0.1578
  388SOL    HW2 1284   2.868   4.076   1.463 -0.3751  0.3149 -0.2593
  388SOL    HW3 1285   2.800   4.179   1.551 -1.1335 -0.7469  0.4205
  388SOL    MW4 1286   2.855   4.112   1.541  0.0940 -0.3724 -0.1599
  389SOL     OW 1287   0.826   4.099   2.723 -0.3703 -0.2148  0.2947
  389SOL    HW2 1288   0.809   4.186   2.686  0.5538  0.4677  1.4171
  389SOL    HW3 1289   0.855   4.047   2.648 -0.3798  0.6111 -0.2997
  389SOL    MW4 1290   0.828   4.104   2.708 -0.4618 -0.0126 -0.3013
  390SOL     OW 1291   5.383   4.517   3.759  0.4140  0.0807 -1.0927
  390SOL    HW2 1292   5.397   4.462   3.836  0.0010 -0.0042 -1.0759
  390SOL    HW3 1293   5.287   4.526   3.753  0.3928 -0.6194 -2.0890
  390SOL    MW4 1294   5.372   4.511   3.769  0.0700 -0.0355 -0.2928
  391SOL     OW 1295   1.269   4.966   1.861 -0.3272  0.0045  0.8190
  391SOL    HW2 1296   1.316   4.927   1.934  1.4307 -1.0872 -0.8110
  391SOL    HW3 1297   1.288   4.910   1.786 -1.6714  1.3272 -0.6099
  391SOL    MW4 1298   1.278   4.954   1.861 -0.2979  0.8038 -0.3163
  392SOL     OW 1299   3.212   0.455   4.705 -0.5277 -0.7915  0.3722
  392SOL    HW2 1300   3.187   0.546   4.723 -0.4908 -0.7082  0.0032
  392SOL    HW3 1301   3.185   0.407   4.784  0.2161 -0.3248  0.9200
  392SOL    MW4 1302   3.205   0.461   4.718  0.1171 -0.5478 -0.0119
  393SOL     OW 1303   4.938   2.286   3.318 -0.1555  0.2070  0.9185
  393SOL    HW2 1304   4.873   2.234   3.270 -0.3442  1.6329 -0.4744
  393SOL    HW3 1305   5.019   2.234   3.312 -0.8327 -0.9745  1.5514
  393SOL    MW4 1306   4.940   2.272   3.311  0.0556 -0.2080 -0.5424
  394SOL     OW 1307   0.296   3.316   2.611  0.1160 -0.2824 -0.1440
  394SOL    HW2 1308   0.289   3.402   2.569 -1.7164 -0.9648 -1.3567
  394SOL    HW3 1309   0.206   3.290   2.628  0.7137 -1.1716  1.9818
  394SOL    MW4 1310   0.283   3.324   2.607 -0.3881 -0.0044  0.4132
  395SOL     OW 1311   0.757   2.299   3.683  0.1725 -0.2585 -0.4494
  395SOL    HW2 1312   0.671   2.268   3.710  1.1116 -2.2386  0.4606
  395SOL    HW3 1313   0.796   2.337   3.762  0.6005 -0.5175 -0.5296
  395SOL    MW4 1314   0.751   2.300   3.697  0.0947  0.1181 -0.8736
  396SOL     OW 1315   5.423   5.072   3.651 -0.4339 -0.0984  0.6593
  396SOL    HW2 1316   5.409   5.166   3.657  0.1616 -0.0307  1.0553
  396SOL    HW3 1317   5.516   5.060   3.669 -0.4223 -0.7267  0.2154
  396SOL    MW4 1318   5.434   5.083   3.654  0.2721 -0.2793 -0.0790
  397SOL     OW 1319   1.766   3.636   2.170 -0.1907 -0.3084 -0.4691
  397SOL    HW2 1320   1.821   3.585   2.230  1.6543  0.6017 -1.2820
  397SOL    HW3 1321   1.764   3.723   2.209 -2.3424 -0.6531  0.3017
  397SOL    MW4 1322   1.773   3.641   2.183  0.9995  0.0787  0.4445
  398SOL     OW 1323   4.364   3.904   5.669 -0.7058  0.5852  0.3093
  398SOL    HW2 1324   4.387   3.854   5.591 -0.6502 -0.7203  1.1476
  398SOL    HW3 1325   4.376   3.996   5.642 -0.1476  0.1476 -1.0343
  398SOL    MW4 1326   4.368   3.910   5.655  0.0076  0.2463 -0.4978
  399SOL     OW 1327   4.631   1.410   0.769  0.2235 -0.2047 -0.6274
  399SOL    HW2 1328   4.595   1.355   0.838 -3.0044  2.3151 -0.0325
  399SOL    HW3 1329   4.562   1.413   0.702  2.2974 -0.7064 -2.9373
  399SOL    MW4 1330   4.617   1.403   0.769 -0.1656 -0.3276  0.3786
  400SOL     OW 1331   2.914   4.994   4.243 -0.0016 -0.8074 -0.2298
  400SOL    HW2 1332   2.987   5.055   4.235 -1.5079  0.9325 -1.6841
  400SOL    HW3 1333   2.931   4.927   4.177  1.4124 -1.7595  1.0393
  400SOL    MW4 1334   2.926   4.993   4.233  0.4944 -0.4502  0.2882
  401SOL     OW 1335   2.265   3.180   3.834 -0.0917  0.2148 -0.2960
  401SOL    HW2 1336   2.313   3.098   3.846  0.2004  0.3209 -0.7255
  401SOL    HW3 1337   2.333   3.248   3.831 -0.2301  0.3204 -1.3466
  401SOL    MW4 1338   2.281   3.179   3.835 -0.3840  0.0510 -0.5859
  402SOL     OW 1339   4.580   1.179   2.433 -0.5215 -0.1732  0.1366
  402SOL    HW2 1340   4.593   1.102   2.489 -0.7625  0.5319  1.1984
  402SOL    HW3 1341   4.562   1.143   2.346  0.7026 -1.2808  0.3124
  402SOL    MW4 1342   4.579   1.164   2.429 -0.5486  0.1463 -0.0607
  403SOL     OW 1343   0.859   2.538   4.409  0.6208  0.4337  0.0384
  403SOL    HW2 1344   0.925   2.468   4.404  1.4836  1.0978  1.4354
  403SOL    HW3 1345   0.775   2.492   4.405  1.1550 -0.8589  2.0925
  403SOL    MW4 1346   0.857   2.522   4.408  0.4540  0.3131  0.2013
  404SOL     OW 1347   1.340   3.231   3.319 -0.3252 -0.0566 -0.2193
  404SOL    HW2 1348   1.269   3.174   3.291 -0.6881  1.0592 -1.7233
  404SOL    HW3 1349   1.299   3.315   3.336  0.4873  0.3431 -0.1568
  404SOL    MW4 1350   1.326   3.234   3.317  0.2781 -0.5792  0.4503
  405SOL     OW 1351   0.603   4.808   3.861 -0.0607 -0.4765  0.1331
  405SOL    HW2 1352   0.693   4.791   3.832 -0.0836 -0.4393  0.0385
  405SOL    HW3 1353   0.613   4.859   3.942  0.0140 -1.6650  0.8983
  405SOL    MW4 1354   0.616   4.813   3.868  0.2916 -0.1021  0.0039
  406SOL     OW 1355   1.409   3.157   0.665  0.1994  0.0798  0.2865
  406SOL    HW2 1356   1.498   3.187   0.685 -0.4453  2.8016 -0.4039
  406SOL    HW3 1357   1.359   3.178   0.744 -0.1186  0.1002  0.0820
  406SOL    MW4 1358   1.414   3.164   0.678  0.2269 -0.0120 -0.1776
  407SOL     OW 1359   6.407   3.693   5.672  0.2451  0.0471  0.2410
  407SOL    HW2 1360   6.463   3.695   5.594  0.2678 -1.4777  0.1881
  407SOL    HW3 1361   6.443   3.761   5.729  1.3245 -0.0031 -0.3501
  407SOL    MW4 1362   6.419   3.703   5.669  0.0862 -0.3916  0.3227
  408SOL     OW 1363   2.536   1.973   2.618 -0.2876  0.0309 -0.1907
  408SOL    HW2 1364   2.461   1.917   2.595 -1.2382 -0.3365  3.3058
  408SOL    HW3 1365   2.608   1.911   2.628 -0.9334 -0.4408  1.9854
  408SOL    MW4 1366   2.535   1.957   2.616 -0.1468 -0.7692  0.0140
  409SOL     OW 1367   0.595   2.979   4.869  0.2152  0.6086  0.5220
  409SOL    HW2 1368   0.544   2.971   4.950 -1.5945  1.0428 -0.5001
  409SOL    HW3 1369   0.529   2.979   4.800  1.8476 -3.8888 -1.3586
  409SOL    MW4 1370   0.579   2.978   4.871  0.2095  0.1202  0.2753
  410SOL     OW 1371   4.797   4.914   1.835 -0.0452 -0.9011  0.0023
  410SOL    HW2 1372   4.708   4.917   1.800 -0.6576  0.6875  1.5247
  410SOL    HW3 1373   4.786   4.907   1.930  1.3957  0.0720  0.2870
  410SOL    MW4 1374   4.784   4.914   1.843 -0.0985 -0.4663 -0.4423
  411SOL     OW 1375   3.961   2.787   3.957  0.0141  0.1672  0.2509
  411SOL    HW2 1376   4.037   2.741   3.921 -0.9791 -1.5004  0.1768
  411SOL    HW3 1377   3.959   2.870   3.910  1.1890 -0.2063 -0.4960
  411SOL    MW4 1378   3.971   2.792   3.946  0.1297 -0.2908  0.2623
  412SOL     OW 1379   0.637   1.840   0.784 -0.5227  0.2821 -0.3800
  412SOL    HW2 1380   0.552   1.884   0.787 -0.9021 -0.3729 -1.0003
  412SOL    HW3 1381   0.620   1.761   0.733  0.2408 -0.3526  0.3331
  412SOL    MW4 1382   0.623   1.835   0.778  0.0323  0.8483  0.0626
  413SOL     OW 1383   5.262   4.754   3.503  0.1551  0.2408  0.2555
  413SOL    HW2 1384   5.300   4.816   3.441  1.3663  0.7550  1.4749
  413SOL    HW3 1385   5.338   4.715   3.548 -0.6958  1.6841  3.1438
  413SOL    MW4 1386   5.277   4.757   3.501 -0.1644 -0.5986 -0.4450
  414SOL     OW 1387   5.837   1.604   4.796  0.3071 -0.0563 -1.1261
  414SOL    HW2 1388   5.811   1.546   4.867  0.2125  1.7868  0.4091
  414SOL    HW3 1389   5.783   1.577   4.722  0.0752 -1.7135 -0.3868
  414SOL    MW4 1390   5.827   1.593   4.795 -0.2475  0.6893 -0.5049
  415SOL     OW 1391   4.213   1.051   6.311  0.4450  0.3178  0.1666
  415SOL    HW2 1392   4.213   1.041   6.406  0.2582 -0.5723  0.0838
  415SOL    HW3 1393   4.143   0.994   6.281 -0.6202  1.8641 -0.4071
  415SOL    MW4 1394   4.204   1.042   6.320  0.5822  0.3618 -0.3437
  416SOL     OW 1395   4.746   3.625   2.299 -0.6043 -0.1030  0.2686
  416SOL    HW2 1396   4.712   3.653   2.384 -0.2128 -0.8824  0.6932
  416SOL    HW3 1397   4.717   3.534   2.291 -0.6126 -0.0430 -0.4262
  416SOL    MW4 1398   4.738   3.616   2.309  0.3646  0.5423  0.2594
  417SOL     OW 1399   1.857   4.520   5.179 -0.5401  0.2327  0.1159
  417SOL    HW2 1400   1.892   4.599   5.221 -0.8728  0.1506  0.5509
  417SOL    HW3 1401   1.787   4.552   5.123 -0.5386  0.2706  0.1352
  417SOL    MW4 1402   1.852   4.535   5.177 -0.2235  0.5655  0.4853
  418SOL     OW 1403   0.272   0.722   4.793 -0.0525  0.3453 -0.1348
  418SOL    HW2 1404   0.290   0.781   4.867 -1.2997 -0.1755  0.6331
  418SOL    HW3 1405   0.221   0.651   4.832  0.1180 -0.4581 -1.3311
  418SOL    MW4 1406   0.268   0.721   4.808  0.4385  0.1395  0.6300
  419SOL     OW 1407   4.730   4.048   4.916 -0.5697  0.5871 -0.5023
  419SOL    HW2 1408   4.814   4.046   4.870 -1.4030 -2.4495 -2.1734
  419SOL    HW3 1409   4.749   4.011   5.002 -0.1582 -0.1434 -0.8925
  419SOL    MW4 1410   4.744   4.042   4.921 -0.1253 -0.0771 -0.6034
  420SOL     OW 1411   5.366   1.546   5.843 -0.3772 -0.2478  0.1584
  420SOL    HW2 1412   5.348   1.526   5.751 -1.2315  0.9179  0.0518
  420SOL    HW3 1413   5.421   1.624   5.840  1.0928 -1.2329  0.6158
  420SOL    MW4 1414   5.371   1.554   5.830  0.0074 -0.0310 -0.2539
  421SOL     OW 1415   4.169   5.644   0.554 -0.2401  0.2505  0.5513
  421SOL    HW2 1416   4.160   5.730   0.594 -0.0986  1.3294 -1.6403
  421SOL    HW3 1417   4.262   5.624   0.558 -0.3764 -0.2360  1.8422
  421SOL    MW4 1418   4.180   5.653   0.560  0.5049 -0.0227 -0.1718
  422SOL     OW 1419   2.764   0.104   2.894 -0.0733 -0.0005  0.1679
  422SOL    HW2 1420   2.746   0.143   2.808  0.3504 -0.6003 -0.1993
  422SOL    HW3 1421   2.829   0.162   2.933 -1.0478  0.8792  0.5441
  422SOL    MW4 1422   2.770   0.117   2.888 -0.2073 -0.2553 -0.5342
  423SOL     OW 1423   4.525   6.163   5.083  0.0122  0.5876 -0.2298
  423SOL    HW2 1424   4.452   6.113   5.047  0.4849  0.3470 -0.8518
  423SOL    HW3 1425   4.563   6.106   5.150  1.8992 -0.8632 -2.3791
  423SOL    MW4 1426   4.520   6.149   5.087  0.4378 -0.3149 -0.2719
  424SOL     OW 1427   0.554   4.595   5.821  0.4140  0.0286  0.1244
  424SOL    HW2 1428   0.493   4.526   5.793 -1.7798  0.6034  3.0344
  424SOL    HW3 1429   0.617   4.551   5.877 -1.2388  0.3033  2.3321
  424SOL    MW4 1430   0.554   4.580   5.824 -0.4981  0.3730  0.6473
  425SOL     OW 1431   3.036   2.525   2.607  0.0459  0.2180  0.5376
  425SOL    HW2 1432   3.090   2.479   2.543  0.3248 -1.9694  2.2392
  425SOL    HW3 1433   3.074   2.613   2.612 -0.1306  0.5521 -2.3855
  425SOL    MW4 1434   3.048   2.531   2.599 -0.1241  0.3247  0.0531
  426SOL     OW 1435   5.457   1.049   0.596  0.4997 -0.2979  0.2016
  426SOL    HW2 1436   5.410   1.089   0.668 -1.4030 -0.6201 -0.7822
  426SOL    HW3 1437   5.486   1.122   0.542  0.4523 -0.1177  0.4211
  426SOL    MW4 1438   5.454   1.064   0.598 -0.3566 -1.0678 -0.4363
  427SOL     OW 1439   3.262   3.828   0.852  0.0347  0.2723  0.2610
  427SOL    HW2 1440   3.335   3.802   0.796 -0.3720  1.8913 -1.0752
  427SOL    HW3 1441   3.282   3.788   0.937  1.8380 -0.3247 -0.4005
  427SOL    MW4 1442   3.274   3.819   0.856 -0.0638 -0.3901  0.3188
  428SOL     OW 1443   3.329   0.107   1.622 -0.0277  0.2166  0.2558
  428SOL    HW2 1444   3.290   0.193   1.604  0.9874  0.6166 -0.0970
  428SOL    HW3 1445   3.419   0.115   1.593 -0.4800 -1.6820 -1.9359
  428SOL    MW4 1446   3.335   0.120   1.616  0.2580  0.1483 -0.4408
  429SOL     OW 1447   6.283   1.925   0.997 -0.2528 -0.1117 -0.6068
  429SOL    HW2 1448   6.292   1.946   0.904  1.7323 -1.3095 -0.7420
  429SOL    HW3 1449   6.337   1.847   1.009  1.3050  1.2107  1.9363
  429SOL    MW4 1450   6.292   1.918   0.986 -0.3303 -0.1902  0.2768
  430SOL     OW 1451   3.849   5.513   1.430 -0.4478  0.0168  0.3365
  430SOL    HW2 1452   3.901   5.581   1.473  0.5902 -1.0403  0.7985
  430SOL    HW3 1453   3.818   5.457   1.501 -0.2080 -0.7238 -0.1257
  430SOL    MW4 1454   3.852   5.515   1.445  0.2440  0.4143 -0.3918
  431SOL     OW 1455   1.070   5.132   5.242  0.1020 -0.2466 -0.1514
  431SOL    HW2 1456   0.994   5.076   5.227 -0.2131  0.2176 -0.3353
  431SOL    HW3 1457   1.106   5.104   5.326 -0.0227 -0.7482 -0.2640
  431SOL    MW4 1458   1.065   5.121   5.251 -0.1495  0.1783 -0.3068
  432SOL     OW 1459   5.390   5.341   3.747 -0.0842 -0.2265  0.2282
  432SOL    HW2 1460   5.393   5.333   3.843  0.8844 -1.9535  0.0872
  432SOL    HW3 1461   5.298   5.359   3.728 -0.3995 -0.4042  1.4480
  432SOL    MW4 1462   5.378   5.343   3.757  0.8195  0.1503  0.8137
  433SOL     OW 1463   5.203   5.996   4.507 -0.2015 -0.4504 -0.6702
  433SOL    HW2 1464   5.297   5.983   4.499 -0.2345 -0.2079 -1.4844
  433SOL    HW3 1465   5.165   5.955   4.429 -0.5789  1.3801 -1.5163
  433SOL    MW4 1466   5.210   5.989   4.496  0.1113 -0.2982 -0.4716
  434SOL     OW 1467   2.263   0.757   1.443  0.0723 -0.0498  0.2717
  434SOL    HW2 1468   2.355   0.731   1.449 -0.3502 -1.3287  2.1977
  434SOL    HW3 1469   2.263   0.851   1.459  1.3999  0.9417 -4.2244
  434SOL    MW4 1470   2.275   0.766   1.446  0.1964  0.2732 -0.0587
  435SOL     OW 1471   4.779   2.350   1.165 -0.3125 -0.0098  0.1159
  435SOL    HW2 1472   4.836   2.278   1.192  1.4038  1.6637  1.2184
  435SOL    HW3 1473   4.799   2.363   1.072  1.3699  0.7204  0.5449
  435SOL    MW4 1474   4.790   2.342   1.156 -0.2562 -0.0863 -0.2391
  436SOL     OW 1475   0.130   5.992   5.808  0.2856  0.1709 -0.3524
  436SOL    HW2 1476   0.084   6.074   5.825 -0.9107 -0.2884 -1.1907
  436SOL    HW3 1477   0.148   5.956   5.895 -0.1080  0.8328  0.0093
  436SOL    MW4 1478   0.126   5.998   5.821  0.3071 -0.0655  0.7698
  437SOL     OW 1479   0.831   0.470   1.306  0.3624 -0.4648 -0.0363
  437SOL    HW2 1480   0.829   0.559   1.269  1.2867 -0.5279 -0.2630
  437SOL    HW3 1481   0.811   0.482   1.399  0.3138 -0.0372 -0.0984
  437SOL    MW4 1482   0.828   0.484   1.313 -0.0271 -0.6623 -0.6066
  438SOL     OW 1483   1.855   0.424   1.421 -0.0925  0.1332  0.0008
  438SOL    HW2 1484   1.790   0.494   1.431 -2.1670 -1.9606  2.2071
  438SOL    HW3 1485   1.873   0.394   1.510  0.2575 -2.5159 -0.8742
  438SOL    MW4 1486   1.849   0.430   1.434  0.1345  1.3530 -0.3190
  439SOL     OW 1487   3.551   4.906   2.017 -0.0448  0.0913  0.2771
  439SOL    HW2 1488   3.532   4.939   1.929 -0.3879 -0.7669  0.0172
  439SOL    HW3 1489   3.646   4.912   2.026  0.1025 -0.7421 -0.5497
  439SOL    MW4 1490   3.561   4.911   2.007 -0.4190  0.6560 -0.2640
  440SOL     OW 1491   5.157   2.972   2.795  0.0811 -0.1500 -0.2721
  440SOL    HW2 1492   5.156   3.023   2.715  1.3714 -1.1181 -0.9377
  440SOL    HW3 1493   5.120   3.030   2.862 -1.3503  0.5419 -1.6108
  440SOL    MW4 1494   5.152   2.986   2.794 -0.1728  0.5199 -0.0414
  441SOL     OW 1495   3.657   4.727   4.844  0.0534 -0.1069 -0.8302
  441SOL    HW2 1496   3.581   4.671   4.828 -0.2593  0.1151 -0.1933
  441SOL    HW3 1497   3.645   4.758   4.934  1.6981 -1.2933 -0.1388
  441SOL    MW4 1498   3.645   4.724   4.854 -0.0714  0.5028 -0.0340
  442SOL     OW 1499   5.668   3.597   3.037 -0.0652 -0.5118  0.8678
  442SOL    HW2 1500   5.674   3.502   3.032  1.7281 -0.4757  1.5419
  442SOL    HW3 1501   5.674   3.627   2.946 -0.2359 -1.0202  0.6873
  442SOL    MW4 1502   5.670   3.589   3.025  0.1307 -0.1617  0.6071
  443SOL     OW 1503   3.908   3.054   0.818 -0.2239 -0.0067 -0.4132
  443SOL    HW2 1504   3.994   3.015   0.834 -0.7341 -0.9439  0.1814
  443SOL    HW3 1505   3.901   3.124   0.883  0.6326  1.0219 -1.3785
  443SOL    MW4 1506   3.918   3.058   0.829 -0.0900 -0.0643 -0.0865
  444SOL     OW 1507   3.938   4.927   2.591 -0.1585  0.5162 -0.0418
  444SOL    HW2 1508   3.878   4.878   2.535 -0.1924  1.8927 -1.2772
  444SOL    HW3 1509   4.008   4.954   2.533  1.8322 -1.2038  1.4063
  444SOL    MW4 1510   3.939   4.924   2.576  0.3757  0.2019 -0.4409
  445SOL     OW 1511   5.890   5.690   5.763 -0.1742 -0.3812  0.6367
  445SOL    HW2 1512   5.850   5.728   5.842 -3.9934 -0.0869 -1.1858
  445SOL    HW3 1513   5.914   5.766   5.710 -0.1464 -0.5632  0.3875
  445SOL    MW4 1514   5.888   5.705   5.766  0.0108 -0.1958  0.1234
  446SOL     OW 1515   5.178   4.659   0.184  0.8851 -0.9235 -0.6094
  446SOL    HW2 1516   5.133   4.688   0.263 -0.0117  0.1357 -1.4662
  446SOL    HW3 1517   5.252   4.608   0.216 -0.0816 -1.4563  0.8754
  446SOL    MW4 1518   5.182   4.656   0.199  0.1956  0.6223 -0.5975
  447SOL     OW 1519   3.594   2.727   0.204 -0.2723  0.0869 -0.6961
  447SOL    HW2 1520   3.676   2.680   0.188 -0.3158  0.1754 -1.1729
  447SOL    HW3 1521   3.608   2.769   0.289 -0.6758 -1.7309  0.3174
  447SOL    MW4 1522   3.607   2.726   0.213  0.1008 -0.6328  0.0448
  448SOL     OW 1523   3.202   1.544   5.613  0.1514  0.0731 -0.6746
  448SOL    HW2 1524   3.181   1.454   5.587  1.3308 -0.2339 -0.6259
  448SOL    HW3 1525   3.277   1.535   5.671 -1.1605  0.9155  1.2556
  448SOL    MW4 1526   3.209   1.531   5.617  0.1300  0.0607  0.0183
  449SOL     OW 1527   6.430   1.897   2.641 -0.9322 -0.0061 -0.2908
  449SOL    HW2 1528   6.497   1.846   2.687 -1.4210 -0.5024 -0.1093
  449SOL    HW3 1529   6.388   1.833   2.583 -1.4396  0.2360 -0.1905
  449SOL    MW4 1530   6.434   1.881   2.639  0.2736  0.0759 -0.7198
  450SOL     OW 1531   2.785   2.450   5.801 -0.1293 -0.0375 -0.0644
  450SOL    HW2 1532   2.870   2.477   5.768 -0.1548 -0.0255 -0.1200
  450SOL    HW3 1533   2.772   2.361   5.766 -1.0174  0.6877 -1.7227
  450SOL    MW4 1534   2.794   2.442   5.792 -0.0421  0.4482 -0.3207
  451SOL     OW 1535   1.286   2.786   6.154 -0.1230  0.0663  0.1199
  451SOL    HW2 1536   1.280   2.691   6.165  1.4180 -0.3394 -1.9189
  451SOL    HW3 1537   1.260   2.801   6.064 -2.1279  1.8663  0.9110
  451SOL    MW4 1538   1.282   2.775   6.144  0.0914  0.3414 -0.0501
  452SOL     OW 1539   2.848   5.287   4.060 -0.0381 -0.7571 -0.4984
  452SOL    HW2 1540   2.803   5.203   4.067 -1.1745 -0.1046  0.3480
  452SOL    HW3 1541   2.939   5.267   4.085 -0.3913 -1.6541  0.1304
  452SOL    MW4 1542   2.854   5.273   4.065  0.4492  0.0843  0.3054
  453SOL     OW 1543   2.766   1.764   2.608 -0.3091  0.4127 -0.1247
  453SOL    HW2 1544   2.771   1.715   2.690  0.2978 -0.1738 -0.5038
  453SOL    HW3 1545   2.709   1.711   2.552  1.0500 -0.3456 -0.8418
  453SOL    MW4 1546   2.759   1.750   2.611 -0.5023 -0.3634  0.2133
  454SOL     OW 1547   4.625   5.347   0.541 -0.3078  0.3782 -0.2720
  454SOL    HW2 1548   4.551   5.313   0.592 -1.1473  0.1914 -1.5691
  454SOL    HW3 1549   4.682   5.389   0.606 -1.9024  1.1618  0.6788
  454SOL    MW4 1550   4.623   5.348   0.556  0.3350  0.3283  0.2283
  455SOL     OW 1551   0.368   0.251   2.235 -0.1586 -0.1988 -0.3790
  455SOL    HW2 1552   0.297   0.262   2.299  0.0797  0.4069 -0.2227
  455SOL    HW3 1553   0.326   0.266   2.150 -0.0293  1.1037 -0.2321
  455SOL    MW4 1554   0.353   0.254   2.232  0.2594 -0.1140  0.2903
  456SOL     OW 1555   0.195   5.693   5.503  0.4677  0.2004  0.0403
  456SOL    HW2 1556   0.184   5.693   5.598 -0.8481 -0.8040 -0.0919
  456SOL    HW3 1557   0.167   5.780   5.475  1.9973  0.9345  0.6564
  456SOL    MW4 1558   0.190   5.704   5.512  0.1094  0.7922  0.1453
  457SOL     OW 1559   6.366   3.414   2.822 -0.0920 -0.1288 -0.2436
  457SOL    HW2 1560   6.277   3.406   2.787  0.0524 -0.5806 -0.5274
  457SOL    HW3 1561   6.399   3.496   2.785 -0.1900 -0.2509 -0.6132
  457SOL    MW4 1562   6.359   3.424   2.812  0.1917 -0.5693 -0.4255
  458SOL     OW 1563   4.487   0.157   0.854  0.2064 -0.1543 -0.0142
  458SOL    HW2 1564   4.470   0.085   0.793  0.1639  0.2279 -0.4608
  458SOL    HW3 1565   4.547   0.120   0.918  0.5148 -0.4728 -0.4757
  458SOL    MW4 1566   4.493   0.143   0.854 -0.4470 -0.0536  0.2901
  459SOL     OW 1567   3.050   2.507   4.220 -0.3655 -0.1829 -0.0521
  459SOL    HW2 1568   3.044   2.520   4.315  0.3550  1.2612 -0.1778
  459SOL    HW3 1569   3.127   2.450   4.210 -1.9713 -2.5903  0.3389
  459SOL    MW4 1570   3.060   2.501   4.231 -0.3227 -0.1316  0.2869
  460SOL     OW 1571   1.592   4.610   5.078 -0.3343  0.0030  0.3193
  460SOL    HW2 1572   1.516   4.581   5.129  0.9538  0.4567  2.6802
  460SOL    HW3 1573   1.565   4.602   4.987 -2.8311 -0.8187  1.0513
  460SOL    MW4 1574   1.579   4.605   5.073  0.2782  0.0269 -0.4060
  461SOL     OW 1575   0.853   0.817   0.131  0.4444  0.0209 -0.3008
  461SOL    HW2 1576   0.910   0.750   0.169 -0.1521 -0.1279  0.3473
  461SOL    HW3 1577   0.913   0.874   0.083  1.1061 -0.2884  0.1314
  461SOL    MW4 1578   0.869   0.815   0.129  0.0103  0.2318  0.1439
  462SOL     OW 1579   4.910   0.589   1.739 -0.1899  0.3172 -0.2521
  462SOL    HW2 1580   4.890   0.497   1.724  0.8406  0.1566 -0.7355
  462SOL    HW3 1581   4.965   0.615   1.665  0.1004  1.1284  0.2242
  462SOL    MW4 1582   4.915   0.580   1.728  0.0346  0.4853 -0.5138
  463SOL     OW 1583   5.155   5.087   6.274 -0.5481 -0.1737  0.5028
  463SOL    HW2 1584   5.194   5.043   6.199  1.3171  0.5734  0.9691
  463SOL    HW3 1585   5.099   5.021   6.316  1.3243 -1.7745  0.5922
  463SOL    MW4 1586   5.153   5.073   6.270 -0.0517  0.3527 -0.2244
  464SOL     OW 1587   1.702   0.943   3.450 -0.3947 -0.7248  0.0203
  464SOL    HW2 1588   1.780   0.993   3.425 -1.3689  1.3463  0.8875
  464SOL    HW3 1589   1.715   0.922   3.542 -0.0891 -1.9825 -0.2827
  464SOL    MW4 1590   1.714   0.947   3.459 -0.1942  0.0334 -0.5159
  465SOL     OW 1591   3.025   4.501   0.823 -0.1905 -0.0705 -0.5943
  465SOL    HW2 1592   3.033   4.474   0.732 -2.5238 -0.2263 -0.8046
  465SOL    HW3 1593   3.018   4.419   0.872  0.1828  0.0356 -0.3511
  465SOL    MW4 1594   3.025   4.487   0.818  0.3915  0.0116  0.7280
  466SOL     OW 1595   4.185   0.821   4.198  0.6618 -0.1248  0.5655
  466SOL    HW2 1596   4.117   0.889   4.194  1.6297  0.8472 -2.4514
  466SOL    HW3 1597   4.144   0.744   4.158  1.4224  0.7061 -2.0445
  466SOL    MW4 1598   4.171   0.820   4.192  0.0337  0.7785 -0.4201
  467SOL     OW 1599   6.189   1.857   3.966  0.4656 -0.1492 -0.3149
  467SOL    HW2 1600   6.109   1.848   3.913  1.1826 -1.6784 -1.2023
  467SOL    HW3 1601   6.185   1.782   4.026  1.4537 -0.5010 -0.6801
  467SOL    MW4 1602   6.178   1.846   3.967 -0.1528 -0.3296  0.0274
  468SOL     OW 1603   1.108   0.125   5.451  0.0731 -0.2000 -0.1550
  468SOL    HW2 1604   1.104   0.036   5.417 -0.3204  0.5459 -2.2879
  468SOL    HW3 1605   1.175   0.168   5.397  1.7506  0.3058  2.2037
  468SOL    MW4 1606   1.116   0.119   5.439 -0.1993  0.1325 -0.0830
  469SOL     OW 1607   1.118   4.764   1.140 -0.6708 -0.7729 -0.4106
  469SOL    HW2 1608   1.187   4.726   1.193 -0.0180 -1.4161 -1.6612
  469SOL    HW3 1609   1.152   4.762   1.051 -1.3761  1.0905 -0.7635
  469SOL    MW4 1610   1.131   4.759   1.135 -0.0568 -0.8933  0.1246
  470SOL     OW 1611   6.291   3.184   0.482  0.3173 -0.0886 -0.4315
  470SOL    HW2 1612   6.253   3.117   0.426 -0.8171  1.8048 -2.0196
  470SOL    HW3 1613   6.239   3.262   0.466  1.4116  1.1456  1.5704
  470SOL    MW4 1614   6.279   3.185   0.473 -0.1277 -0.4307 -0.1071
  471SOL     OW 1615   2.983   2.721   6.097  0.0876 -0.2528 -0.5015
  471SOL    HW2 1616   2.894   2.727   6.062 -0.2359 -2.3474 -0.2051
  471SOL    HW3 1617   2.971   2.726   6.192  0.3375 -0.0487 -0.4819
  471SOL    MW4 1618   2.969   2.723   6.105 -0.3805 -0.1162  0.2630
  472SOL     OW 1619   3.085   5.296   1.549 -0.2782  0.1650 -0.1252
  472SOL    HW2 1620   3.032   5.346   1.612 -0.5944  1.7534 -1.5704
  472SOL    HW3 1621   3.174   5.299   1.586 -0.2154  2.1418 -0.2994
  472SOL    MW4 1622   3.090   5.303   1.562  0.2136  0.3991 -0.1148
  473SOL     OW 1623   3.601   5.344   5.721  0.0960 -0.4271 -0.1188
  473SOL    HW2 1624   3.535   5.279   5.697  1.2393 -1.4567 -0.6109
  473SOL    HW3 1625   3.630   5.318   5.808 -1.5507  1.2329  0.9856
  473SOL    MW4 1626   3.596   5.332   5.729  0.0829  0.1846 -0.1058
  474SOL     OW 1627   1.631   0.337   3.410  0.1021 -0.3820 -0.0650
  474SOL    HW2 1628   1.588   0.280   3.346  0.0119 -0.5306  0.1303
  474SOL    HW3 1629   1.560   0.378   3.459  0.1099  0.8493 -1.0109
  474SOL    MW4 1630   1.616   0.335   3.408  0.0605 -0.0189 -0.6862
  475SOL     OW 1631   1.313   5.512   2.469 -0.0667 -0.1101 -0.5990
  475SOL    HW2 1632   1.290   5.533   2.559  0.0202  0.1853 -0.6461
  475SOL    HW3 1633   1.330   5.596   2.428 -0.0175 -0.2498 -0.8683
  475SOL    MW4 1634   1.313   5.526   2.475 -0.2178 -0.4501 -0.2714
  476SOL     OW 1635   3.972   6.138   0.868  0.4867  0.0415  0.4019
  476SOL    HW2 1636   4.001   6.213   0.920 -0.5546 -0.8600  2.4118
  476SOL    HW3 1637   4.010   6.062   0.913  2.6202 -0.6501 -2.3321
  476SOL    MW4 1638   3.981   6.138   0.881  0.1475 -0.9777  0.4949
  477SOL     OW 1639   1.549   2.380   1.732  0.2230  0.3461 -0.5645
  477SOL    HW2 1640   1.522   2.290   1.713 -0.2786  0.5631 -0.8995
  477SOL    HW3 1641   1.579   2.377   1.823  0.5295 -0.2292 -0.6784
  477SOL    MW4 1642   1.549   2.367   1.742 -0.0032 -0.4731  0.1539
  478SOL     OW 1643   1.207   3.154   5.874  0.3661 -0.1180 -0.0925
  478SOL    HW2 1644   1.182   3.075   5.922  1.1819 -0.6176 -0.4641
  478SOL    HW3 1645   1.174   3.140   5.785 -1.1581  0.8131  0.2919
  478SOL    MW4 1646   1.199   3.142   5.869 -0.0515  0.0996 -0.0323
  479SOL     OW 1647   6.200   5.227   1.898 -0.2857 -0.0285  0.0275
  479SOL    HW2 1648   6.229   5.293   1.962 -0.5344 -0.0856  0.1991
  479SOL    HW3 1649   6.126   5.184   1.940 -1.0959  0.6129 -0.7119
  479SOL    MW4 1650   6.194   5.230   1.912 -0.4979 -0.2814 -0.2830
  480SOL     OW 1651   2.591   6.221   1.294 -0.2310  0.9611  0.6270
  480SOL    HW2 1652   2.667   6.171   1.263 -0.4136 -1.5459  3.7076
  480SOL    HW3 1653   2.627   6.304   1.323  0.4716  1.8580 -2.4244
  480SOL    MW4 1654   2.606   6.225   1.294 -0.1071  0.2231 -0.2930
  481SOL     OW 1655   0.300   6.209   1.416 -0.1977 -0.3916  0.2944
  481SOL    HW2 1656   0.263   6.133   1.460 -1.9314 -0.3197 -0.9268
  481SOL    HW3 1657   0.225   6.264   1.395  0.3902 -0.6717 -3.1584
  481SOL    MW4 1658   0.285   6.207   1.419  0.2563 -1.2328  0.3617
  482SOL     OW 1659   2.382   1.727   2.997 -0.3216 -0.3502 -0.5399
  482SOL    HW2 1660   2.365   1.701   3.088  0.6126 -1.2292 -0.6132
  482SOL    HW3 1661   2.407   1.819   3.004  1.2210 -0.8042  0.2784
  482SOL    MW4 1662   2.383   1.736   3.010 -0.2769 -0.4024  0.3723
  483SOL     OW 1663   6.218   5.403   2.131 -0.1214 -0.0162  0.2066
  483SOL    HW2 1664   6.287   5.389   2.195  0.0196  0.2082  0.1066
  483SOL    HW3 1665   6.247   5.480   2.082 -1.1006  0.9154  1.0520
  483SOL    MW4 1666   6.231   5.411   2.133 -0.6963  0.6242 -0.1232
  484SOL     OW 1667   3.680   0.168   3.166  0.2668  0.0969 -0.6119
  484SOL    HW2 1668   3.750   0.196   3.225  0.3291 -2.1440  0.4640
  484SOL    HW3 1669   3.722   0.105   3.107 -0.6277 -0.5531 -0.5716
  484SOL    MW4 1670   3.694   0.163   3.166 -0.1522  0.0637 -0.1433
  485SOL     OW 1671   1.149   5.806   2.113 -0.4419 -0.0518  0.1800
  485SOL    HW2 1672   1.232   5.781   2.072 -0.3820  0.7067 -0.1721
  485SOL    HW3 1673   1.083   5.784   2.047 -0.5110 -0.4686  0.3821
  485SOL    MW4 1674   1.151   5.799   2.099  0.2478 -0.1265  0.0960
  486SOL     OW 1675   1.918   4.617   1.856  0.7673 -0.5248 -0.4468
  486SOL    HW2 1676   1.846   4.595   1.798  0.2903  0.1655 -0.1392
  486SOL    HW3 1677   1.927   4.712   1.848  0.1673 -0.2870  1.1545
  486SOL    MW4 1678   1.909   4.627   1.848  0.2506 -0.2914 -0.3765
  487SOL     OW 1679   5.623   5.431   0.894  0.1147  0.2859 -0.0207
  487SOL    HW2 1680   5.535   5.423   0.857 -0.2184 -0.4059  0.9131
  487SOL    HW3 1681   5.632   5.358   0.954  0.5083  1.5796  1.5744
  487SOL    MW4 1682   5.613   5.420   0.897 -0.1078 -0.1764  0.0761
  488SOL     OW 1683   5.062   5.760   0.962  0.1727  0.4693 -0.5537
  488SOL    HW2 1684   5.154   5.734   0.957  0.1989  0.5063 -0.2775
  488SOL    HW3 1685   5.053   5.802   1.047 -0.1338  0.3371 -0.5190
  488SOL    MW4 1686   5.073   5.762   0.972  0.0246 -0.5037 -0.0613
  489SOL     OW 1687   2.736   6.398   0.702 -0.0782  0.5058  0.0894
  489SOL    HW2 1688   2.694   6.324   0.744  0.1519  0.1737 -0.2623
  489SOL    HW3 1689   2.727   6.381   0.608  0.0812  0.8616  0.0066
  489SOL    MW4 1690   2.729   6.386   0.695 -0.2091 -0.8809  0.0981
  490SOL     OW 1691   0.056   5.719   2.282 -0.3684 -0.5356  0.0677
  490SOL    HW2 1692   0.093   5.807   2.284 -0.6546 -0.4082 -0.2240
  490SOL    HW3 1693  -0.016   5.724   2.220 -0.8265 -0.8041  0.5638
  490SOL    MW4 1694   0.052   5.731   2.274  0.6673 -0.2963 -0.6658
  491SOL     OW 1695   5.029   1.422   4.151  0.4243  0.4015  0.6922
  491SOL    HW2 1696   5.083   1.352   4.114  0.0524  0.1271  0.6633
  491SOL    HW3 1697   5.067   1.503   4.116  0.0398  0.1490 -0.3388
  491SOL    MW4 1698   5.041   1.424   4.142  0.0887 -0.1940 -0.1829
  492SOL     OW 1699   1.824   4.431   6.016  0.3386  0.4698 -0.0057
  492SOL    HW2 1700   1.796   4.492   6.085  0.1814 -0.6433  0.9331
  492SOL    HW3 1701   1.853   4.353   6.063  1.0348  0.0027 -1.1714
  492SOL    MW4 1702   1.824   4.429   6.031 -0.0957  0.1985  0.1711
  493SOL     OW 1703   2.052   3.014   0.624 -0.0422  0.5686 -0.5088
  493SOL    HW2 1704   2.141   3.018   0.658  0.6653 -1.1552 -2.0349
  493SOL    HW3 1705   2.005   2.960   0.688  0.1811  0.8911 -0.0667
  493SOL    MW4 1706   2.057   3.007   0.637  0.1220  0.0435  0.0697
  494SOL     OW 1707   0.421   1.231   2.631  0.2954  0.0551 -0.3050
  494SOL    HW2 1708   0.328   1.248   2.617  0.2702 -0.4675 -0.7933
  494SOL    HW3 1709   0.428   1.208   2.724  0.0233  0.6345 -0.1374
  494SOL    MW4 1710   0.410   1.230   2.642 -0.0762  0.0962  0.0304
  495SOL     OW 1711   1.730   5.550   1.696  0.4502  0.8408  0.1637
  495SOL    HW2 1712   1.782   5.630   1.687 -0.1882  1.3114  0.6651
  495SOL    HW3 1713   1.642   5.575   1.669  0.4600  0.0488 -0.6601
  495SOL    MW4 1714   1.726   5.564   1.691  0.7021 -0.4054 -0.2941
  496SOL     OW 1715   5.699   5.706   5.534  0.0700 -0.1802 -0.2028
  496SOL    HW2 1716   5.707   5.619   5.494 -0.4831 -0.4496  0.2603
  496SOL    HW3 1717   5.605   5.723   5.536  0.1923  0.6156 -0.6686
  496SOL    MW4 1718   5.687   5.697   5.529  0.0193 -0.1592 -0.0143
  497SOL     OW 1719   2.527   0.703   2.406  0.5273  0.3763  0.5029
  497SOL    HW2 1720   2.488   0.662   2.329  1.2520  1.7442 -0.6172
  497SOL    HW3 1721   2.507   0.642   2.478 -0.7228 -0.5947 -0.6278
  497SOL    MW4 1722   2.520   0.689   2.405  0.5764  0.2464  0.3486
  498SOL     OW 1723   3.695   0.107   5.895 -0.2490  0.9507  0.7123
  498SOL    HW2 1724   3.611   0.115   5.941 -0.6868  1.3417 -0.1401
  498SOL    HW3 1725   3.760   0.104   5.966 -1.0827 -1.2625  1.4764
  498SOL    MW4 1726   3.692   0.107   5.911 -0.1905 -0.0513  0.5417
  499SOL     OW 1727   5.910   0.266   1.679  0.0028  0.3014  0.2646
  499SOL    HW2 1728   5.889   0.304   1.594 -0.0044  0.5629  0.3839
  499SOL    HW3 1729   5.828   0.270   1.729 -0.0513 -0.0563  0.2067
  499SOL    MW4 1730   5.896   0.271   1.674 -0.2082  0.3787  0.1592
  500SOL     OW 1731   4.219   5.193   2.317 -0.5900  0.1602 -0.4433
  500SOL    HW2 1732   4.190   5.280   2.346 -0.3215  0.7074 -1.7363
  500SOL    HW3 1733   4.282   5.166   2.384 -0.6133  0.9999 -0.0618
  500SOL    MW4 1734   4.224   5.201   2.330  0.7473  0.2231  0.1166
  501SOL     OW 1735   0.344   0.464   5.518  0.3765  0.1037  0.1273
  501SOL    HW2 1736   0.345   0.559   5.527  0.9305  0.2008 -0.8522
  501SOL    HW3 1737   0.318   0.432   5.605 -1.8766  1.2009 -0.0675
  501SOL    MW4 1738   0.341   0.472   5.531 -0.0779 -0.3884  0.7425
  502SOL     OW 1739   2.334   1.276   6.230  0.1431 -0.3602 -0.3433
  502SOL    HW2 1740   2.400   1.209   6.209  0.5743 -0.3711  0.9897
  502SOL    HW3 1741   2.278   1.235   6.296 -1.1920 -0.3263 -1.4107
  502SOL    MW4 1742   2.336   1.262   6.236 -0.2065  0.4794  0.4487
  503SOL     OW 1743   1.530   2.606   0.554  0.4876  0.0298  0.3250
  503SOL    HW2 1744   1.509   2.697   0.575  2.2283  0.6281 -0.3343
  503SOL    HW3 1745   1.574   2.610   0.469 -1.2465 -1.6879 -0.7384
  503SOL    MW4 1746   1.533   2.619   0.546  0.3980  0.6210  0.1159
  504SOL     OW 1747   5.878   3.638   4.996  0.2148  0.4367  0.0280
  504SOL    HW2 1748   5.925   3.714   4.963  0.4026  0.1349 -0.4117
  504SOL    HW3 1749   5.904   3.566   4.938 -0.4640  0.1751  0.0309
  504SOL    MW4 1750   5.887   3.638   4.984  0.7738 -0.0960  0.0837
  505SOL     OW 1751   1.718   5.992   1.115 -0.4252  0.5046 -0.1911
  505SOL    HW2 1752   1.711   6.062   1.050  0.7835  0.4331 -0.4251
  505SOL    HW3 1753   1.647   6.010   1.178  0.6201  2.6858  0.4577
  505SOL    MW4 1754   1.708   6.003   1.115  0.1021  0.0301 -0.0892
  506SOL     OW 1755   1.705   3.876   2.887 -0.3445 -0.0850 -0.5201
  506SOL    HW2 1756   1.667   3.882   2.799 -2.0634  1.3988  0.2535
  506SOL    HW3 1757   1.792   3.915   2.879  0.2189 -1.5251 -1.8898
  506SOL    MW4 1758   1.711   3.882   2.874 -0.3690  0.5032 -0.1439
  507SOL     OW 1759   4.058   5.763   4.503  0.6426 -0.4712 -0.1122
  507SOL    HW2 1760   4.068   5.668   4.498 -2.4688 -0.8640 -1.0132
  507SOL    HW3 1761   4.013   5.786   4.422  0.0942  1.5593  0.7221
  507SOL    MW4 1762   4.053   5.753   4.492 -0.1366  0.8267  0.1701
  508SOL     OW 1763   2.515   5.164   0.542  0.4225  0.0016 -0.2905
  508SOL    HW2 1764   2.589   5.116   0.577  0.5624 -1.1139 -2.0031
  508SOL    HW3 1765   2.552   5.218   0.472 -0.1302  0.7289 -0.0395
  508SOL    MW4 1766   2.529   5.165   0.537 -0.2907 -0.3340 -0.1093
  509SOL     OW 1767   3.917   6.430   5.319 -0.6770  0.5801 -0.1641
  509SOL    HW2 1768   4.009   6.448   5.303 -0.7770  0.0515 -1.4414
  509SOL    HW3 1769   3.910   6.420   5.414  0.7382 -0.2021 -0.1252
  509SOL    MW4 1770   3.928   6.431   5.329 -0.0564  0.0646  0.3248
  510SOL     OW 1771   0.044   4.629   5.688 -0.1517  0.5677  0.7475
  510SOL    HW2 1772  -0.034   4.663   5.732 -1.0872  0.2108 -0.6028
  510SOL    HW3 1773   0.084   4.705   5.647 -1.3286  0.3477 -0.8724
  510SOL    MW4 1774   0.039   4.643   5.689 -0.6714  0.3838  0.6701
  511SOL     OW 1775   1.010   5.153   3.065 -0.2474  0.2265 -0.5698
  511SOL    HW2 1776   0.984   5.136   2.974 -0.3407 -0.7478 -0.3722
  511SOL    HW3 1777   1.094   5.109   3.075  0.8483  2.1319 -0.7721
  511SOL    MW4 1778   1.017   5.145   3.054 -0.2445 -0.4605 -0.0521
  512SOL     OW 1779   3.029   2.531   5.696  0.4817  0.6065 -0.5836
  512SOL    HW2 1780   3.084   2.453   5.708  0.2455  0.8001  2.4591
  512SOL    HW3 1781   3.090   2.604   5.695  0.4975  0.5958 -0.3983
  512SOL    MW4 1782   3.044   2.530   5.698 -0.0655  0.1364 -0.4949
  513SOL     OW 1783   4.296   1.130   3.444 -0.0380 -0.1333 -1.0905
  513SOL    HW2 1784   4.299   1.220   3.411  1.2702 -0.0131 -0.7277
  513SOL    HW3 1785   4.356   1.131   3.519 -0.8615 -1.0489 -0.3927
  513SOL    MW4 1786   4.305   1.142   3.450  0.1628 -0.1982 -0.3394
  514SOL     OW 1787   2.675   1.015   1.816  0.0858  0.0068 -0.2203
  514SOL    HW2 1788   2.665   1.038   1.724  0.7425  1.4989  0.0464
  514SOL    HW3 1789   2.765   0.984   1.823  0.0341 -0.1128 -0.0814
  514SOL    MW4 1790   2.686   1.014   1.805 -0.5222  0.7485 -0.0164
  515SOL     OW 1791   4.716   1.833   5.329 -0.0393  0.2658 -0.1509
  515SOL    HW2 1792   4.730   1.781   5.409 -2.1119 -0.7164 -0.3747
  515SOL    HW3 1793   4.719   1.769   5.259  1.0859  1.0363 -0.8497
  515SOL    MW4 1794   4.718   1.818   5.331 -0.3782  0.4426 -0.6365
  516SOL     OW 1795   5.210   3.789   1.781 -0.1105  0.3059  0.4371
  516SOL    HW2 1796   5.127   3.827   1.755  0.0954  0.0588 -0.6672
  516SOL    HW3 1797   5.256   3.859   1.827 -0.2497  0.9944 -0.4444
  516SOL    MW4 1798   5.205   3.803   1.784  0.5100 -0.3014 -0.0328
  517SOL     OW 1799   2.214   4.251   2.327  0.2861 -0.6097 -0.4418
  517SOL    HW2 1800   2.262   4.262   2.409  0.0012  1.6641 -0.5218
  517SOL    HW3 1801   2.176   4.163   2.333 -0.7936 -0.0372  2.4547
  517SOL    MW4 1802   2.215   4.241   2.339 -0.1223  0.1531  0.0066
  518SOL     OW 1803   3.893   5.931   3.624  0.1950 -0.0363  0.2221
  518SOL    HW2 1804   3.893   5.842   3.589 -1.0680  0.1986 -0.4292
  518SOL    HW3 1805   3.827   5.978   3.572 -2.7526  0.0024  3.6148
  518SOL    MW4 1806   3.884   5.926   3.613 -0.3926  0.1986 -0.4526
  519SOL     OW 1807   1.355   5.544   3.134  0.1756  0.5015 -0.0945
  519SOL    HW2 1808   1.286   5.480   3.114 -1.6654  2.1303  0.7117
  519SOL    HW3 1809   1.323   5.626   3.096  1.7071  1.2979  0.2702
  519SOL    MW4 1810   1.341   5.546   3.126  0.1134 -0.1477 -0.4162
  520SOL     OW 1811   1.153   2.190   1.573 -0.3918 -0.2092  0.3786
  520SOL    HW2 1812   1.231   2.176   1.626 -0.5933 -0.3161  0.6510
  520SOL    HW3 1813   1.155   2.121   1.508 -0.7228 -0.7536  0.9371
  520SOL    MW4 1814   1.163   2.179   1.572 -0.1298 -0.1561  0.2139
  521SOL     OW 1815   0.365   4.896   2.787  0.7471 -0.5725  0.8447
  521SOL    HW2 1816   0.300   4.922   2.852 -0.2118 -1.0467  0.0971
  521SOL    HW3 1817   0.408   4.978   2.763  1.0617 -0.3743  1.9996
  521SOL    MW4 1818   0.362   4.910   2.792  0.6695 -0.1549  0.0843
  522SOL     OW 1819   0.514   6.022   1.685 -0.6935  0.6303 -0.3005
  522SOL    HW2 1820   0.580   5.995   1.749  1.1512  0.4210 -2.2231
  522SOL    HW3 1821   0.445   5.955   1.693  0.9767 -1.2164 -0.6995
  522SOL    MW4 1822   0.513   6.009   1.695 -0.4606 -0.6202  0.2227
  523SOL     OW 1823   0.376   3.081   0.083  0.1345  0.1488  0.1125
  523SOL    HW2 1824   0.334   3.016   0.028  2.3884  0.4726 -2.1964
  523SOL    HW3 1825   0.307   3.145   0.101 -1.0622 -0.7140 -1.1613
  523SOL    MW4 1826   0.362   3.081   0.078 -0.3336 -0.5309  0.0286
  524SOL     OW 1827   3.858   5.999   0.649  0.4191 -0.6270  0.1232
  524SOL    HW2 1828   3.896   6.064   0.707  4.2914 -3.7605  1.5254
  524SOL    HW3 1829   3.911   6.003   0.569  0.6507 -1.8963  0.1900
  524SOL    MW4 1830   3.870   6.008   0.646 -0.1415 -0.1886  0.1321
  525SOL     OW 1831   2.032   0.844   3.807  0.2398  0.3911 -0.4596
  525SOL    HW2 1832   2.072   0.783   3.868  3.1343  3.6590  1.2580
  525SOL    HW3 1833   1.959   0.882   3.856  0.8414  1.0219 -0.0352
  525SOL    MW4 1834   2.027   0.841   3.821 -1.1305  0.5964  0.3541
  526SOL     OW 1835   3.448   1.833   1.794  0.1038  0.3440 -0.1152
  526SOL    HW2 1836   3.416   1.918   1.765 -2.5121 -0.9079 -1.3248
  526SOL    HW3 1837   3.527   1.818   1.743 -1.7455  0.3173 -3.2625
  526SOL    MW4 1838   3.454   1.842   1.783  0.9111 -0.3302  0.0908
  527SOL     OW 1839   3.474   2.033   4.984  0.3316 -0.0829  0.1661
  527SOL    HW2 1840   3.505   2.055   4.896 -2.0189  0.9956 -0.4953
  527SOL    HW3 1841   3.473   2.116   5.030 -0.9224 -0.1602  0.3229
  527SOL    MW4 1842   3.478   2.047   4.978  0.4025 -0.7177 -0.4995
  528SOL     OW 1843   3.994   4.904   5.884 -0.0031 -0.3717 -0.1282
  528SOL    HW2 1844   4.034   4.860   5.809  1.1961  1.3447 -0.5680
  528SOL    HW3 1845   4.044   4.874   5.960 -0.3722 -1.1169 -0.1754
  528SOL    MW4 1846   4.006   4.894   5.884  0.7309 -0.4997 -0.2914
  529SOL     OW 1847   3.273   3.593   1.038  0.1143  0.4877 -0.3220
  529SOL    HW2 1848   3.190   3.612   1.082 -0.3333  0.1009 -0.9769
  529SOL    HW3 1849   3.249   3.536   0.965  1.2516 -1.7490  0.9280
  529SOL    MW4 1850   3.259   3.588   1.034 -0.0970 -0.2674  0.8667
  530SOL     OW 1851   6.070   3.192   4.319  0.2604  0.4109  0.0934
  530SOL    HW2 1852   6.061   3.098   4.333 -0.2411  0.3476 -0.5982
  530SOL    HW3 1853   6.163   3.209   4.333  0.2582 -0.0888  0.7755
  530SOL    MW4 1854   6.081   3.182   4.322 -0.0465 -0.2961  0.6853
  531SOL     OW 1855   5.719   4.404   3.028  0.2484  0.2962 -0.2719
  531SOL    HW2 1856   5.747   4.464   3.097 -0.7756  0.5277 -0.0297
  531SOL    HW3 1857   5.641   4.361   3.064  0.4993 -0.5825 -0.7593
  531SOL    MW4 1858   5.712   4.406   3.042  0.1537  0.0733 -0.2466
  532SOL     OW 1859   0.390   3.825   4.344  0.1458  0.2047 -0.1685
  532SOL    HW2 1860   0.427   3.779   4.419 -0.0481  2.0142  1.1178
  532SOL    HW3 1861   0.303   3.785   4.332  0.4217 -0.5098  0.1689
  532SOL    MW4 1862   0.383   3.814   4.352 -0.4023 -0.0520 -0.2913
  533SOL     OW 1863   4.424   4.888   3.323 -0.1465 -0.1222  0.3501
  533SOL    HW2 1864   4.519   4.897   3.321 -0.1199 -0.4593 -1.0269
  533SOL    HW3 1865   4.398   4.919   3.410  1.2207 -0.0846  0.7589
  533SOL    MW4 1866   4.433   4.893   3.335 -0.1754  0.1914 -0.4700
  534SOL     OW 1867   1.418   2.592   2.094 -0.4139  0.1598 -0.2120
  534SOL    HW2 1868   1.344   2.538   2.121 -1.0330  1.4032  0.6746
  534SOL    HW3 1869   1.491   2.530   2.086 -0.8671 -0.7044  1.7132
  534SOL    MW4 1870   1.418   2.577   2.097 -0.1289  0.3200  0.0510
  535SOL     OW 1871   2.303   6.303   1.616 -0.6235  0.0245 -0.3032
  535SOL    HW2 1872   2.369   6.372   1.607  0.2240 -0.9554 -2.0039
  535SOL    HW3 1873   2.264   6.295   1.529 -0.6336 -1.7114 -0.1644
  535SOL    MW4 1874   2.306   6.311   1.603  0.0419 -0.1739 -0.3824
  536SOL     OW 1875   0.498   1.878   2.139 -0.3581 -0.0613  0.5455
  536SOL    HW2 1876   0.591   1.900   2.141 -0.6037  1.2214 -0.6999
  536SOL    HW3 1877   0.495   1.784   2.157  1.1600 -0.1093  0.6743
  536SOL    MW4 1878   0.510   1.868   2.142  0.3132  0.6722  0.0230
  537SOL     OW 1879   3.858   1.885   4.142  0.1957 -0.8268  0.4709
  537SOL    HW2 1880   3.782   1.935   4.172 -0.8154 -1.4331 -0.9857
  537SOL    HW3 1881   3.826   1.796   4.128  0.2260 -0.4156 -3.3620
  537SOL    MW4 1882   3.844   1.880   4.144 -0.4097  0.3005 -0.1178
  538SOL     OW 1883   2.980   4.327   5.992  0.1858  0.0792 -0.4116
  538SOL    HW2 1884   3.075   4.330   5.985  0.2530 -0.9349 -0.0414
  538SOL    HW3 1885   2.958   4.399   6.051  0.7758 -0.0290 -0.0524
  538SOL    MW4 1886   2.990   4.337   5.999  0.4418  0.1850  0.2923
  539SOL     OW 1887   2.298   6.010   2.934 -0.1186  0.4735 -0.1986
  539SOL    HW2 1888   2.222   6.053   2.972  0.2528  0.5909  0.4183
  539SOL    HW3 1889   2.371   6.032   2.992  0.0293 -1.2196  0.3283
  539SOL    MW4 1890   2.298   6.018   2.947  0.0219  0.4734 -0.0255
  540SOL     OW 1891   2.364   3.045   3.516 -0.0553 -0.2642  0.0586
  540SOL    HW2 1892   2.281   3.094   3.518  1.1616  1.9328  0.8517
  540SOL    HW3 1893   2.427   3.105   3.555  1.7067 -2.3185  0.5139
  540SOL    MW4 1894   2.361   3.060   3.521  0.0377  0.0687 -0.5542
  541SOL     OW 1895   2.817   0.044   0.218  0.8707  0.2559  0.1783
  541SOL    HW2 1896   2.805   0.139   0.218  3.8317  0.7212 -0.6013
  541SOL    HW3 1897   2.826   0.020   0.126 -1.3190 -1.1021  0.2293
  541SOL    MW4 1898   2.816   0.053   0.206  0.0719 -0.6285  0.2603
  542SOL     OW 1899   5.125   1.175   5.314 -0.6639  0.1332 -0.3441
  542SOL    HW2 1900   5.190   1.207   5.377  0.1786 -0.8008 -0.7086
  542SOL    HW3 1901   5.124   1.242   5.245 -1.3675  1.0062  0.4812
  542SOL    MW4 1902   5.133   1.188   5.313  0.6861  0.4870  0.2611
  543SOL     OW 1903   5.838   2.193   1.815  0.0565  0.1281  0.2473
  543SOL    HW2 1904   5.889   2.240   1.748  0.0834 -1.6202 -1.0468
  543SOL    HW3 1905   5.868   2.229   1.898  0.3485  2.0825 -0.6464
  543SOL    MW4 1906   5.849   2.204   1.817 -0.3346  0.0623 -0.2543
  544SOL     OW 1907   0.555   0.345   0.368  0.0882 -0.0150 -0.9625
  544SOL    HW2 1908   0.581   0.260   0.333  0.4070 -0.3336  0.0304
  544SOL    HW3 1909   0.486   0.375   0.309  0.3544 -0.7041 -1.6414
  544SOL    MW4 1910   0.549   0.338   0.355  0.2776 -0.1331 -0.1204
  545SOL     OW 1911   5.449   0.930   4.838 -0.6427 -0.4268  0.7787
  545SOL    HW2 1912   5.365   0.896   4.807  0.3054 -1.0868 -1.2277
  545SOL    HW3 1913   5.513   0.864   4.811  1.1223  2.1727 -2.0250
  545SOL    MW4 1914   5.447   0.917   4.830  0.7700 -0.0295 -0.2083
  546SOL     OW 1915   0.919   1.479   3.651  0.2727  0.6910 -0.2156
  546SOL    HW2 1916   0.974   1.406   3.677  0.0627  1.1863  1.7526
  546SOL    HW3 1917   0.980   1.548   3.624  0.5895  0.7914  0.7315
  546SOL    MW4 1918   0.934   1.479   3.651  0.0710  0.1037 -0.1700
  547SOL     OW 1919   4.935   5.014   5.948 -0.5601 -0.2790 -0.3377
  547SOL    HW2 1920   4.911   5.025   6.040  0.1250  0.3657 -0.2224
  547SOL    HW3 1921   4.908   4.925   5.926  2.4361 -1.8328  1.5016
  547SOL    MW4 1922   4.928   5.004   5.957  0.0147  0.2538  0.0270
  548SOL     OW 1923   1.516   2.522   5.605  0.0906 -0.0195 -0.4046
  548SOL    HW2 1924   1.539   2.439   5.647 -0.3828 -0.3125 -0.7172
  548SOL    HW3 1925   1.420   2.525   5.608  0.0019 -0.3060 -1.9404
  548SOL    MW4 1926   1.506   2.511   5.611 -0.3230  0.0321  0.1484
  549SOL     OW 1927   3.293   5.070   6.354  0.2389 -0.1968  0.0844
  549SOL    HW2 1928   3.384   5.047   6.340  0.5505 -0.7271  2.4794
  549SOL    HW3 1929   3.291   5.106   6.443 -1.7866  0.3590 -0.1307
  549SOL    MW4 1930   3.305   5.072   6.364  0.5410  0.4151 -0.5387
  550SOL     OW 1931   0.143   6.399   3.871  0.5611  0.0827  0.0122
  550SOL    HW2 1932   0.120   6.369   3.959 -2.6570  2.0638 -0.0031
  550SOL    HW3 1933   0.181   6.486   3.885 -1.0810  0.9286 -0.5414
  550SOL    MW4 1934   0.145   6.406   3.885 -0.0287  0.3147 -0.2541
  551SOL     OW 1935   3.603   1.536   2.334 -0.3761  0.7896 -0.2663
  551SOL    HW2 1936   3.621   1.442   2.334  0.4696  0.9368  0.3821
  551SOL    HW3 1937   3.641   1.568   2.252 -0.1340  0.6545 -0.2072
  551SOL    MW4 1938   3.611   1.528   2.323 -0.1035 -0.1298  0.2600
  552SOL     OW 1939   2.477   6.046   2.650  1.0707 -0.6381 -0.0037
  552SOL    HW2 1940   2.516   5.975   2.700 -0.1004 -1.5871 -0.3936
  552SOL    HW3 1941   2.413   6.003   2.593 -0.8045  0.8766  0.8647
  552SOL    MW4 1942   2.474   6.031   2.649  0.3711 -0.1946 -0.1348
  553SOL     OW 1943   0.979   2.159   2.999 -0.3096 -0.0063 -0.0587
  553SOL    HW2 1944   0.917   2.219   2.956 -1.1212 -0.6380  0.2052
  553SOL    HW3 1945   0.931   2.076   3.006  1.4384 -1.2602 -2.0685
  553SOL    MW4 1946   0.964   2.156   2.995 -0.3487  0.2138  0.7353
  554SOL     OW 1947   2.579   0.917   0.774 -0.0092 -0.2427 -0.0466
  554SOL    HW2 1948   2.636   0.962   0.712 -0.2209 -0.4530 -0.3996
  554SOL    HW3 1949   2.520   0.985   0.807 -0.3808 -0.2730 -0.6377
  554SOL    MW4 1950   2.579   0.932   0.771 -0.1088 -0.2068  0.3417
  555SOL     OW 1951   3.474   2.258   0.933  0.3591 -0.0082 -0.6829
  555SOL    HW2 1952   3.543   2.277   0.996 -0.5888 -0.3338  0.4881
  555SOL    HW3 1953   3.510   2.190   0.876  0.3893 -1.4877  1.0393
  555SOL    MW4 1954   3.488   2.252   0.934  0.1004 -0.2008  0.3963
  556SOL     OW 1955   5.120   1.517   4.485 -0.2463  0.4766 -0.5855
  556SOL    HW2 1956   5.173   1.471   4.420 -2.4297 -2.3774 -0.5061
  556SOL    HW3 1957   5.174   1.517   4.564  1.4361  1.8196 -1.6446
  556SOL    MW4 1958   5.134   1.511   4.486 -0.1232 -0.3935  0.0952
  557SOL     OW 1959   0.313   5.158   4.196  0.5879 -0.0221 -0.2980
  557SOL    HW2 1960   0.282   5.249   4.200 -0.4778 -0.4028  0.4657
  557SOL    HW3 1961   0.235   5.107   4.174  0.8040 -0.9233  0.9550
  557SOL    MW4 1962   0.299   5.164   4.194  0.2567 -0.5278 -0.0294
  558SOL     OW 1963   5.557   0.055   4.386 -0.1602  0.1756 -0.1296
  558SOL    HW2 1964   5.516  -0.009   4.443 -0.8979  0.7092 -0.0559
  558SOL    HW3 1965   5.518   0.039   4.300 -1.2479  1.2950  0.1312
  558SOL    MW4 1966   5.546   0.045   4.382  0.5596 -0.3734 -0.7253
  559SOL     OW 1967   5.747   1.466   0.598  0.1106 -0.1714 -0.0186
  559SOL    HW2 1968   5.785   1.496   0.515 -0.2985 -1.6083 -0.7599
  559SOL    HW3 1969   5.775   1.531   0.662 -0.4907  1.6228 -1.4736
  559SOL    MW4 1970   5.756   1.479   0.595 -0.1491  0.3908 -0.5249
  560SOL     OW 1971   4.993   2.680   1.667  0.4958 -0.2676  0.1256
  560SOL    HW2 1972   4.904   2.645   1.660  0.8281 -1.1461  0.1652
  560SOL    HW3 1973   4.982   2.764   1.712 -0.3877 -0.0130 -0.5325
  560SOL    MW4 1974   4.980   2.687   1.672  0.1305 -0.3060 -0.2339
  561SOL     OW 1975   3.588   2.941   4.209  0.1867 -0.3537  0.2154
  561SOL    HW2 1976   3.563   2.857   4.171 -1.6170  0.5039 -0.6373
  561SOL    HW3 1977   3.517   2.961   4.271  0.5009  0.5898  0.2865
  561SOL    MW4 1978   3.575   2.933   4.212 -0.4044  0.0966 -0.3169
  562SOL     OW 1979   4.216   2.850   1.091 -0.7438  0.0818 -0.6417
  562SOL    HW2 1980   4.131   2.862   1.133 -0.1916 -1.1178  0.9309
  562SOL    HW3 1981   4.196   2.821   1.002 -1.9766 -0.0910 -0.3214
  562SOL    MW4 1982   4.202   2.848   1.085 -0.0118  0.5040  0.2534
  563SOL     OW 1983   5.104   5.941   1.655 -0.3707  0.1199  0.1877
  563SOL    HW2 1984   5.109   5.919   1.562  2.6888 -1.4597  0.5904
  563SOL    HW3 1985   5.019   5.984   1.665 -1.0092 -0.0611 -3.2166
  563SOL    MW4 1986   5.093   5.944   1.644 -0.1113  0.2068  0.5537
  564SOL     OW 1987   0.463   2.763   5.477  0.4918 -0.1289  0.1929
  564SOL    HW2 1988   0.513   2.732   5.402  0.7739  0.3742  0.1713
  564SOL    HW3 1989   0.395   2.696   5.490 -0.7437  0.6893 -1.6693
  564SOL    MW4 1990   0.461   2.750   5.469 -0.0372 -0.0586 -0.1370
  565SOL     OW 1991   5.782   2.857   5.602  0.0788  0.2776  0.3621
  565SOL    HW2 1992   5.845   2.909   5.553  0.0344  0.4982  0.5398
  565SOL    HW3 1993   5.719   2.921   5.637  0.0188  0.1059  0.5703
  565SOL    MW4 1994   5.782   2.872   5.600  0.0741 -0.2698  0.2073
  566SOL     OW 1995   1.323   5.351   1.018  0.4665 -0.2123  0.6186
  566SOL    HW2 1996   1.264   5.310   0.954  0.0288  0.6140  0.4722
  566SOL    HW3 1997   1.409   5.314   0.999  0.6444  1.1165 -1.4570
  566SOL    MW4 1998   1.326   5.341   1.007 -0.1610 -0.1156  0.1613
  567SOL     OW 1999   2.767   3.505   4.589  0.1328  0.2129  0.3884
  567SOL    HW2 2000   2.672   3.492   4.584  0.3931 -1.6986 -0.4244
  567SOL    HW3 2001   2.793   3.462   4.670  0.4493 -0.3780 -0.0191
  567SOL    MW4 2002   2.758   3.498   4.599 -0.8949  0.7579 -0.2460
  568SOL     OW 2003   4.835   4.726   3.574  0.1482 -0.1469 -0.4831
  568SOL    HW2 2004   4.852   4.703   3.482 -1.2216 -0.0399 -0.7977
  568SOL    HW3 2005   4.913   4.773   3.602  1.0717 -1.1602 -1.2418
  568SOL    MW4 2006   4.847   4.729   3.565  0.1329  0.4445 -0.3711
  569SOL     OW 2007   3.243   3.377   5.069 -0.5163  0.3505  0.4033
  569SOL    HW2 2008   3.192   3.437   5.123 -0.6582  0.5096  0.0922
  569SOL    HW3 2009   3.178   3.315   5.035 -0.5090  0.5709 -0.0171
  569SOL    MW4 2010   3.228   3.377   5.072  0.5900 -0.2384  0.4682
  570SOL     OW 2011   1.992   5.593   0.060  0.7997 -0.0111  0.4281
  570SOL    HW2 2012   1.946   5.598  -0.024  0.4199  1.5099  0.6871
  570SOL    HW3 2013   1.955   5.665   0.111 -0.5920 -2.2030  2.7521
  570SOL    MW4 2014   1.981   5.603   0.056  0.7385  0.1104  0.3269
  571SOL     OW 2015   3.009   5.673   0.425 -0.1721 -0.3861  0.3337
  571SOL    HW2 2016   2.952   5.641   0.494  0.0981 -1.2642  0.1618
  571SOL    HW3 2017   3.073   5.729   0.470 -0.3984 -0.4195  0.6953
  571SOL    MW4 2018   3.010   5.676   0.440 -0.1000 -0.3333 -0.1030
  572SOL     OW 2019   0.877   3.337   3.168  0.7559  0.0286 -0.4766
  572SOL    HW2 2020   0.960   3.327   3.214 -0.0454  0.0741  1.0659
  572SOL    HW3 2021   0.876   3.427   3.137  1.4790 -0.1165 -0.9293
  572SOL    MW4 2022   0.888   3.347   3.170  0.0138  0.0873  0.0143
  573SOL     OW 2023   5.055   5.881   1.211  0.0412 -0.0581  0.6796
  573SOL    HW2 2024   5.085   5.963   1.173 -2.2398  1.0743  1.1422
  573SOL    HW3 2025   5.129   5.850   1.264  1.7532  0.4527 -1.2889
  573SOL    MW4 2026   5.069   5.887   1.213  0.4390 -0.4577 -0.0210
  574SOL     OW 2027   0.536   4.849   5.723  0.5318 -0.5392  0.5024
  574SOL    HW2 2028   0.580   4.848   5.638 -0.5326  0.9356 -0.1053
  574SOL    HW3 2029   0.555   4.763   5.760 -0.1879 -1.8101 -1.8532
  574SOL    MW4 2030   0.544   4.838   5.716 -0.8977 -0.1251  0.5142
  575SOL     OW 2031   1.616   6.383   5.104 -0.0313 -0.0196 -0.2909
  575SOL    HW2 2032   1.571   6.327   5.041  1.4870 -2.9114  0.9796
  575SOL    HW3 2033   1.677   6.435   5.052 -1.7651  0.8515 -1.5485
  575SOL    MW4 2034   1.618   6.383   5.089  0.4610  0.5704  0.0812
  576SOL     OW 2035   3.054   0.389   3.048  0.3759 -0.3332  0.4553
  576SOL    HW2 2036   3.137   0.429   3.021 -1.6365  3.3419 -1.0838
  576SOL    HW3 2037   3.028   0.439   3.125 -1.2499 -0.0342 -0.2357
  576SOL    MW4 2038   3.061   0.401   3.054  0.2282 -0.1434 -0.3297
  577SOL     OW 2039   0.788   0.707   5.190  0.2961  0.0104 -0.2271
  577SOL    HW2 2040   0.718   0.765   5.158  0.4937  0.3097 -0.1198
  577SOL    HW3 2041   0.867   0.760   5.184  0.4620 -0.2153 -0.0282
  577SOL    MW4 2042   0.789   0.721   5.185 -0.2147 -0.1463  0.3126
  578SOL     OW 2043   1.185   2.646   1.448 -0.0913 -0.5727 -0.4180
  578SOL    HW2 2044   1.182   2.670   1.540 -1.1977 -0.8766 -0.3641
  578SOL    HW3 2045   1.095   2.626   1.425  0.0834  0.0255 -1.7121
  578SOL    MW4 2046   1.173   2.646   1.457 -0.5453 -0.5169 -0.2799
  579SOL     OW 2047   3.558   1.244   1.698 -0.0141 -0.6172  0.3812
  579SOL    HW2 2048   3.644   1.234   1.657  0.6033  2.0410  0.8398
  579SOL    HW3 2049   3.497   1.209   1.634  1.2676 -0.7531 -0.8153
  579SOL    MW4 2050   3.561   1.238   1.684  0.5056 -0.1833  0.0415
  580SOL     OW 2051   0.967   4.790   4.272 -0.3629  0.0156  0.2870
  580SOL    HW2 2052   0.973   4.882   4.247  1.4294 -0.4685 -1.2699
  580SOL    HW3 2053   1.046   4.750   4.236 -0.2580 -1.8305  2.3392
  580SOL    MW4 2054   0.978   4.797   4.264 -0.0567  0.1636 -0.2924
  581SOL     OW 2055   2.301   1.360   5.843 -0.0230  0.1771 -0.5305
  581SOL    HW2 2056   2.366   1.430   5.848 -0.0595  0.2801 -1.3072
  581SOL    HW3 2057   2.217   1.405   5.832 -0.3681  0.0737  1.4135
  581SOL    MW4 2058   2.299   1.375   5.842  0.1007  0.2510  0.3791
  582SOL     OW 2059   1.932   0.275   1.190  0.0197  0.1554  0.4089
  582SOL    HW2 2060   1.902   0.316   1.271 -0.8647 -0.9353  0.6561
  582SOL    HW3 2061   2.010   0.226   1.216 -1.1210 -1.4359  0.9656
  582SOL    MW4 2062   1.938   0.274   1.204  0.1979 -0.4063 -0.3609
  583SOL     OW 2063   2.967   5.025   4.820  0.2863  0.0784  0.4549
  583SOL    HW2 2064   2.992   5.082   4.748  0.6777  0.3371  0.7908
  583SOL    HW3 2065   3.048   4.981   4.846 -0.3632 -2.2728 -1.1736
  583SOL    MW4 2066   2.981   5.027   4.814  0.0076  0.2842  0.0102
  584SOL     OW 2067   3.343   2.703   6.247 -0.2584 -0.9780  0.2561
  584SOL    HW2 2068   3.316   2.744   6.329 -1.6609 -0.4714 -0.4364
  584SOL    HW3 2069   3.304   2.616   6.251 -2.1855 -0.2237 -0.7718
  584SOL    MW4 2070   3.334   2.697   6.259  0.3801  0.4701  0.0193
  585SOL     OW 2071   5.833   3.801   1.903  0.4156  0.5911 -0.3447
  585SOL    HW2 2072   5.796   3.742   1.838  0.1857  1.2206 -0.7911
  585SOL    HW3 2073   5.923   3.771   1.914  0.3431  0.2469 -0.6686
  585SOL    MW4 2074   5.840   3.789   1.896  0.3055  0.0876 -0.1611
  586SOL     OW 2075   2.892   0.647   2.794 -0.2610  0.5009  0.3315
  586SOL    HW2 2076   2.850   0.664   2.710  0.5897 -0.4467 -0.2970
  586SOL    HW3 2077   2.908   0.553   2.795 -0.9684  0.3631  1.8989
  586SOL    MW4 2078   2.888   0.637   2.783  0.0942  0.0119  0.4776
  587SOL     OW 2079   4.390   5.851   2.165  0.1449 -0.4922  0.4338
  587SOL    HW2 2080   4.378   5.905   2.243  0.0418  0.5802 -0.3151
  587SOL    HW3 2081   4.301   5.826   2.139 -0.0101  1.0762 -0.6595
  587SOL    MW4 2082   4.377   5.855   2.172  0.6927 -0.0722  0.5841
  588SOL     OW 2083   4.567   5.818   3.733  0.4551  0.2669  0.9327
  588SOL    HW2 2084   4.563   5.809   3.828 -2.6752 -1.4838  0.7538
  588SOL    HW3 2085   4.643   5.766   3.707  0.1412 -0.9499  2.3348
  588SOL    MW4 2086   4.576   5.810   3.742 -0.2424 -0.3862  0.2238
  589SOL     OW 2087   5.616   3.000   3.349  0.1397  0.2199 -0.1056
  589SOL    HW2 2088   5.554   2.928   3.363 -2.3160  2.1108 -0.6245
  589SOL    HW3 2089   5.561   3.077   3.338  2.6457  2.0864 -0.3451
  589SOL    MW4 2090   5.600   3.000   3.349 -0.3796  0.0351  0.1301
  590SOL     OW 2091   2.241   3.921   3.974 -0.1818  0.9614 -0.2621
  590SOL    HW2 2092   2.250   3.838   3.925  0.3934 -0.3159  1.8787
  590SOL    HW3 2093   2.311   3.918   4.038 -2.3799  1.3231  2.3205
  590SOL    MW4 2094   2.251   3.909   3.976  0.0157 -0.4831  1.0514
  591SOL     OW 2095   0.764   1.575   2.659  0.5642  0.1525  0.2000
  591SOL    HW2 2096   0.744   1.669   2.660 -0.4475  0.0301  3.2003
  591SOL    HW3 2097   0.858   1.570   2.675  0.8346  0.6229 -1.1160
  591SOL    MW4 2098   0.774   1.587   2.661 -0.5309 -0.6705 -0.8866
  592SOL     OW 2099   5.075   0.465   0.712 -0.1695 -0.0356  0.0033
  592SOL    HW2 2100   5.138   0.520   0.666 -0.8420  1.1339  0.4122
  592SOL    HW3 2101   5.114   0.450   0.797 -1.1023  2.1174  0.8961
  592SOL    MW4 2102   5.088   0.470   0.717 -0.3551  0.0256  0.1179
  593SOL     OW 2103   0.013   1.142   0.526  0.0309 -1.5225  0.2335
  593SOL    HW2 2104  -0.056   1.082   0.555 -1.7143  0.4502  0.3895
  593SOL    HW3 2105   0.010   1.137   0.430 -2.1796  0.3728  0.1064
  593SOL    MW4 2106   0.003   1.133   0.517  0.8450  0.7106 -0.2075
  594SOL     OW 2107   4.703   2.637   3.645  0.2309 -0.1510 -0.4996
  594SOL    HW2 2108   4.672   2.682   3.724 -1.1731 -0.0327 -1.0891
  594SOL    HW3 2109   4.708   2.706   3.579  1.6587 -0.1984 -0.4690
  594SOL    MW4 2110   4.700   2.652   3.647  0.1582 -0.1772 -0.4956
  595SOL     OW 2111   0.644   0.674   3.024 -0.1852  0.5120  0.2438
  595SOL    HW2 2112   0.716   0.681   3.086 -1.4277  1.0384  1.7036
  595SOL    HW3 2113   0.618   0.582   3.028  0.7661  0.1855 -0.7430
  595SOL    MW4 2114   0.650   0.663   3.033  0.2326  0.3993 -0.1719
  596SOL     OW 2115   5.087   1.620   5.084  0.2665 -0.1349  0.4348
  596SOL    HW2 2116   5.069   1.671   5.163 -0.5546  0.2181  0.0378
  596SOL    HW3 2117   5.122   1.685   5.022 -0.1839 -0.1745  0.1355
  596SOL    MW4 2118   5.089   1.636   5.086  0.6443 -0.9639  0.7397
  597SOL     OW 2119   0.200   5.544   1.994 -0.5127  0.6848 -0.1529
  597SOL    HW2 2120   0.249   5.469   1.961 -0.0954  0.6714  0.4782
  597SOL    HW3 2121   0.267   5.603   2.027 -0.9505  0.1702  1.7752
  597SOL    MW4 2122   0.216   5.542   1.994 -0.3322 -0.1487  0.4659
  598SOL     OW 2123   4.183   2.103   2.292 -0.0669  0.6531  0.1049
  598SOL    HW2 2124   4.183   2.023   2.344 -1.7782  0.6680  0.1818
  598SOL    HW3 2125   4.266   2.146   2.314 -0.2947  0.1781  2.0669
  598SOL    MW4 2126   4.194   2.098   2.301 -0.1153  1.0259  0.6801
  599SOL     OW 2127   1.962   2.092   1.123 -0.1802 -0.2551 -0.2518
  599SOL    HW2 2128   1.981   2.025   1.189  2.1090  1.4665  0.9733
  599SOL    HW3 2129   2.040   2.092   1.067 -0.5019  0.8454 -0.7132
  599SOL    MW4 2130   1.975   2.083   1.124  0.0214 -0.0320  0.0803
  600SOL     OW 2131   1.712   4.428   5.428  0.0322  0.1780 -0.8437
  600SOL    HW2 2132   1.746   4.514   5.451  1.6273 -0.1571 -1.8171
  600SOL    HW3 2133   1.697   4.432   5.334 -1.3123 -0.1464 -0.6551
  600SOL    MW4 2134   1.715   4.440   5.419  0.4121  0.2252  0.4436
  601SOL     OW 2135   6.174   4.164   1.068 -0.2984  0.7934  0.0515
  601SOL    HW2 2136   6.246   4.108   1.040  0.1135  0.1793  2.2019
  601SOL    HW3 2137   6.198   4.251   1.035 -0.2342  0.0293 -2.0561
  601SOL    MW4 2138   6.187   4.168   1.060 -0.1968 -0.6197 -0.0214
  602SOL     OW 2139   2.256   0.064   5.786  0.1234 -0.2049 -0.1160
  602SOL    HW2 2140   2.341   0.072   5.741  0.5892 -1.0136  0.5786
  602SOL    HW3 2141   2.271  -0.003   5.853 -0.8421  0.2386  0.5638
  602SOL    MW4 2142   2.269   0.056   5.789  0.3864  0.0847  0.3214
  603SOL     OW 2143   0.352   2.797   4.316  0.4631  0.9275  0.0266
  603SOL    HW2 2144   0.426   2.824   4.261  1.8600 -0.0229  1.3472
  603SOL    HW3 2145   0.393   2.750   4.389 -1.5026 -0.0697  0.5467
  603SOL    MW4 2146   0.367   2.794   4.318  0.2343  0.4697  0.0349
  604SOL     OW 2147   2.257   2.478   4.173 -0.2814 -0.2649 -0.2990
  604SOL    HW2 2148   2.279   2.388   4.198 -1.8225 -0.5472  0.1818
  604SOL    HW3 2149   2.267   2.480   4.078  0.3144 -0.7853 -0.2489
  604SOL    MW4 2150   2.261   2.466   4.164  0.1271  0.1912  0.2056
  605SOL     OW 2151   1.668   1.575   4.256 -0.2565  0.6117  0.2310
  605SOL    HW2 2152   1.596   1.613   4.306 -1.8586 -1.1097 -0.6133
  605SOL    HW3 2153   1.633   1.568   4.167  0.0909 -2.2413  0.2302
  605SOL    MW4 2154   1.654   1.579   4.251  0.0099 -0.7389  0.2076
  606SOL     OW 2155   0.273   4.292   5.475  0.7802  0.3830  0.0985
  606SOL    HW2 2156   0.307   4.217   5.425  0.4272  0.9108 -0.9816
  606SOL    HW3 2157   0.285   4.366   5.416 -0.9727  0.8051  0.2087
  606SOL    MW4 2158   0.279   4.292   5.460 -0.5434 -0.5949  0.2673
  607SOL     OW 2159   2.934   3.256   2.217 -0.6693  0.4124 -0.2240
  607SOL    HW2 2160   2.998   3.241   2.147 -2.1548  0.5655 -1.6745
  607SOL    HW3 2161   2.893   3.340   2.195 -2.9374 -0.7291 -0.6308
  607SOL    MW4 2162   2.937   3.266   2.205  0.4601 -0.4212 -0.3194
  608SOL     OW 2163   5.301   5.932   6.067  0.0105  1.0158  0.0996
  608SOL    HW2 2164   5.305   5.905   6.159  2.0046 -1.2115 -0.5429
  608SOL    HW3 2165   5.390   5.921   6.035 -0.8491  0.6313 -2.3733
  608SOL    MW4 2166   5.313   5.927   6.075  0.3818  0.2494  0.5642
  609SOL     OW 2167   1.610   2.429   4.937 -0.0509 -0.2250 -0.1963
  609SOL    HW2 2168   1.702   2.427   4.910 -0.5129  0.2024 -1.9114
  609SOL    HW3 2169   1.576   2.344   4.910 -1.0934  1.0513 -3.3037
  609SOL    MW4 2170   1.618   2.418   4.930  0.7892  0.5497  0.5314
  610SOL     OW 2171   2.755   0.865   2.294  0.0452 -0.2601 -0.1585
  610SOL    HW2 2172   2.707   0.794   2.336  1.5077 -0.8506  0.5932
  610SOL    HW3 2173   2.766   0.931   2.362 -0.2643  0.1554 -0.5089
  610SOL    MW4 2174   2.750   0.864   2.308 -0.4337 -0.5917  0.7471
  611SOL     OW 2175   5.891   4.247   5.693  0.1726  0.0847  0.3132
  611SOL    HW2 2176   5.876   4.316   5.628  0.1026  0.0739  0.3178
  611SOL    HW3 2177   5.870   4.166   5.647  0.4347  0.0503  0.2511
  611SOL    MW4 2178   5.886   4.246   5.678  0.4428  0.0389 -0.3508
  612SOL     OW 2179   5.917   2.474   4.489 -0.0090 -0.4222  0.0743
  612SOL    HW2 2180   5.843   2.533   4.509  0.9251  1.6055 -2.0018
  612SOL    HW3 2181   5.938   2.434   4.573 -2.3020  0.2960  1.0986
  612SOL    MW4 2182   5.910   2.476   4.503 -0.3599 -0.1624 -0.2433
  613SOL     OW 2183   1.411   4.258   3.930 -0.2083  0.2332 -0.4285
  613SOL    HW2 2184   1.400   4.352   3.944 -0.5300  0.1238  0.0592
  613SOL    HW3 2185   1.431   4.250   3.837  0.7137  0.8624 -0.2966
  613SOL    MW4 2186   1.412   4.269   3.919  0.3532 -0.3028  0.4239
  614SOL     OW 2187   0.890   4.614   3.314 -0.0788 -0.0704 -0.3585
  614SOL    HW2 2188   0.914   4.618   3.407  0.9671  0.8245 -0.6372
  614SOL    HW3 2189   0.974   4.603   3.269 -0.3871  1.1420 -1.2770
  614SOL    MW4 2190   0.904   4.613   3.320  0.1191  0.3816 -0.5410
  615SOL     OW 2191   4.929   2.361   1.996 -0.6006  0.1852  0.1267
  615SOL    HW2 2192   4.863   2.405   1.942  0.2661 -0.9282 -1.9585
  615SOL    HW3 2193   5.008   2.412   1.984 -0.3523 -0.1746  0.2060
  615SOL    MW4 2194   4.930   2.373   1.988  0.5801  0.0144 -0.3402
  616SOL     OW 2195   2.873   5.873   4.035 -0.3377 -0.2477  0.5367
  616SOL    HW2 2196   2.945   5.917   4.080 -1.7537  3.2910 -0.2827
  616SOL    HW3 2197   2.824   5.830   4.105  0.5742  0.3963  1.6121
  616SOL    MW4 2198   2.876   5.873   4.050 -0.8794  0.2222  0.3873
  617SOL     OW 2199   0.377   4.375   5.099  0.3668 -0.1025 -0.4392
  617SOL    HW2 2200   0.335   4.291   5.082 -0.5633  0.8273 -3.3202
  617SOL    HW3 2201   0.430   4.391   5.021  0.7278  1.8758  0.1555
  617SOL    MW4 2202   0.379   4.366   5.086  0.1087  0.3618  0.0610
  618SOL     OW 2203   6.114   1.497   1.545 -0.1263  0.4897 -0.0769
  618SOL    HW2 2204   6.025   1.523   1.569  0.1955  0.0972  1.7198
  618SOL    HW3 2205   6.139   1.556   1.474 -2.0466  0.1604 -1.0837
  618SOL    MW4 2206   6.106   1.508   1.539 -0.5372  0.3280  0.3890
  619SOL     OW 2207   5.748   3.173   0.002  0.3918 -0.3579  0.3743
  619SOL    HW2 2208   5.827   3.133  -0.033  0.2353  1.3818 -2.3211
  619SOL    HW3 2209   5.779   3.235   0.068  1.1332 -0.7955  0.4448
  619SOL    MW4 2210   5.762   3.176   0.006 -0.0821 -0.1120  0.1863
  620SOL     OW 2211   3.985   4.533   1.644  0.0211 -0.4263 -0.1651
  620SOL    HW2 2212   4.022   4.619   1.664 -1.0357  0.0866 -0.3918
  620SOL    HW3 2213   4.061   4.474   1.648  0.5426  0.2883  1.3076
  620SOL    MW4 2214   4.000   4.536   1.647  0.0006  1.0339  0.7097
  621SOL     OW 2215   1.876   1.542   1.534 -0.3770  0.0077 -0.5125
  621SOL    HW2 2216   1.874   1.457   1.490 -0.9600  0.2453 -0.9565
  621SOL    HW3 2217   1.809   1.536   1.602  0.2775 -0.2338  0.1232
  621SOL    MW4 2218   1.867   1.530   1.537  0.5912 -0.2399  0.1038
  622SOL     OW 2219   6.205   1.282   6.273 -0.0979 -0.3274  0.7121
  622SOL    HW2 2220   6.197   1.244   6.360 -2.3727  0.5217  0.9299
  622SOL    HW3 2221   6.250   1.365   6.287 -0.6540 -0.0918  1.1175
  622SOL    MW4 2222   6.210   1.288   6.286  0.2009 -0.2516  0.1492
  623SOL     OW 2223   2.186   2.255   2.855 -0.0606  0.6536 -0.3078
  623SOL    HW2 2224   2.100   2.245   2.895 -1.0738  1.4047 -2.1743
  623SOL    HW3 2225   2.188   2.347   2.826 -0.0962 -0.2010 -3.3648
  623SOL    MW4 2226   2.175   2.266   2.856  0.0889  0.2024 -0.6435
  624SOL     OW 2227   5.129   0.885   2.721  0.4629  0.3148 -0.4950
  624SOL    HW2 2228   5.218   0.855   2.704  0.5576  0.6480 -0.5849
  624SOL    HW3 2229   5.081   0.861   2.641  0.3932 -0.1684 -0.3111
  624SOL    MW4 2230   5.134   0.878   2.708  0.2157 -0.5871  0.3644
  625SOL     OW 2231   1.784   1.782   3.918  0.2872  0.1918  0.6340
  625SOL    HW2 2232   1.787   1.800   3.824  2.3654 -1.6754  0.2662
  625SOL    HW3 2233   1.875   1.760   3.941  0.6859  4.0745  3.8701
  625SOL    MW4 2234   1.797   1.782   3.908 -0.6165  0.0838  0.1202
  626SOL     OW 2235   1.311   5.809   6.195  0.2523  0.1313 -0.1269
  626SOL    HW2 2236   1.372   5.782   6.127 -0.5557 -1.4889 -0.2391
  626SOL    HW3 2237   1.233   5.837   6.148 -0.0219 -0.2449  0.0997
  626SOL    MW4 2238   1.309   5.809   6.180 -0.7320 -0.3118  0.0308
  627SOL     OW 2239   6.053   5.354   1.708  0.9508 -0.5855  0.0257
  627SOL    HW2 2240   6.101   5.304   1.773 -0.7613 -0.7401  1.2546
  627SOL    HW3 2241   6.089   5.443   1.714  2.2131 -1.0589 -0.3075
  627SOL    MW4 2242   6.064   5.359   1.718 -0.0479  0.0090 -0.0295
  628SOL     OW 2243   4.557   3.369   4.702  0.3755 -0.5763  0.0191
  628SOL    HW2 2244   4.585   3.379   4.794 -2.9222 -0.9996  1.1848
  628SOL    HW3 2245   4.563   3.275   4.686  0.5601 -0.5506 -0.0612
  628SOL    MW4 2246   4.562   3.358   4.712 -0.2179 -0.0147  0.9032
  629SOL     OW 2247   4.803   0.748   0.636  0.2789 -0.1622 -0.8494
  629SOL    HW2 2248   4.869   0.742   0.567  1.7697 -2.2433  0.6447
  629SOL    HW3 2249   4.728   0.699   0.603  0.3639  0.1874 -1.5885
  629SOL    MW4 2250   4.802   0.741   0.623 -0.5020 -0.2589  0.2107
  630SOL     OW 2251   3.719   4.061   0.436  0.3572 -0.1740  0.0945
  630SOL    HW2 2252   3.675   4.139   0.404  0.7874  0.3366  0.7072
  630SOL    HW3 2253   3.649   4.006   0.472  0.2079  0.7110  1.2388
  630SOL    MW4 2254   3.704   4.064   0.437 -0.2701 -0.3499  0.1164
  631SOL     OW 2255   2.690   2.953   6.110 -0.2662  0.1558  0.4513
  631SOL    HW2 2256   2.619   2.987   6.056 -0.7841  0.2226  1.1591
  631SOL    HW3 2257   2.769   2.994   6.075 -0.5273 -0.1828 -0.5600
  631SOL    MW4 2258   2.691   2.963   6.099  0.3083 -0.3314 -0.1197
  632SOL     OW 2259   6.274   1.997   5.407  0.0041  0.2479  0.1373
  632SOL    HW2 2260   6.248   1.920   5.356  0.1045  2.2239 -3.2075
  632SOL    HW3 2261   6.229   1.986   5.491  0.3672 -3.5983  0.0217
  632SOL    MW4 2262   6.265   1.985   5.411  0.0582  0.4525  0.0512
  633SOL     OW 2263   3.267   3.233   3.251 -0.5080  0.0734  0.1936
  633SOL    HW2 2264   3.172   3.232   3.262 -0.4866 -0.2120  0.3742
  633SOL    HW3 2265   3.281   3.218   3.158 -0.6647  1.2648 -0.0424
  633SOL    MW4 2266   3.256   3.231   3.240 -0.3819 -0.2853 -0.4066
  634SOL     OW 2267   4.146   3.809   3.424 -0.3257 -0.3163 -0.1700
  634SOL    HW2 2268   4.233   3.846   3.409 -0.7592  0.4115 -0.9837
  634SOL    HW3 2269   4.160   3.742   3.491  0.9936 -0.7507 -0.8344
  634SOL    MW4 2270   4.160   3.805   3.431  0.3139  0.1126 -0.2268
  635SOL     OW 2271   2.866   5.029   5.767  0.6773  0.3232  0.2293
  635SOL    HW2 2272   2.907   4.968   5.706  0.8829  0.4833  0.2056
  635SOL    HW3 2273   2.784   4.986   5.793 -0.0127  0.7928 -1.0883
  635SOL    MW4 2274   2.860   5.015   5.762 -0.5405  0.0478  0.0102
  636SOL     OW 2275   3.307   2.238   2.149  0.0397 -0.4354 -0.1138
  636SOL    HW2 2276   3.266   2.323   2.133 -0.0694 -0.5150 -0.2534
  636SOL    HW3 2277   3.253   2.199   2.218  1.6000  0.7009  1.8735
  636SOL    MW4 2278   3.294   2.244   2.156 -0.6846  0.6951 -0.2492
  637SOL     OW 2279   4.364   1.189   4.900 -0.0248 -0.7486 -0.9287
  637SOL    HW2 2280   4.431   1.222   4.839 -0.3866 -2.3843 -2.2962
  637SOL    HW3 2281   4.371   1.094   4.894 -0.5357 -0.9759  1.1393
  637SOL    MW4 2282   4.374   1.181   4.891 -0.2318 -0.1420 -0.0866
  638SOL     OW 2283   4.180   4.343   1.647  0.2385 -0.3685 -0.3589
  638SOL    HW2 2284   4.133   4.274   1.694  1.1953 -0.8870 -0.1303
  638SOL    HW3 2285   4.166   4.323   1.554 -0.7700  0.0384 -0.3033
  638SOL    MW4 2286   4.172   4.331   1.641 -0.2772  0.2563 -0.2661
  639SOL     OW 2287   2.519   5.033   2.221  0.7474  0.2954  0.2432
  639SOL    HW2 2288   2.504   5.092   2.147 -0.8517 -1.5602 -1.0243
  639SOL    HW3 2289   2.435   5.033   2.268  0.0460 -2.2858 -0.8534
  639SOL    MW4 2290   2.506   5.041   2.217  0.4317 -0.3857  0.2698
  640SOL     OW 2291   4.541   3.695   4.998 -0.4794 -0.0015  0.2691
  640SOL    HW2 2292   4.578   3.677   4.912 -1.1941 -0.7233  0.1038
  640SOL    HW3 2293   4.463   3.748   4.980 -0.2536  0.4248  0.5241
  640SOL    MW4 2294   4.535   3.700   4.984 -0.1354 -0.1099  0.2204
  641SOL     OW 2295   1.115   0.232   1.307  0.8551  0.8148 -0.0299
  641SOL    HW2 2296   1.141   0.282   1.384  0.4938  3.4236 -1.4908
  641SOL    HW3 2297   1.049   0.286   1.264  1.4791 -0.2349 -2.4949
  641SOL    MW4 2298   1.110   0.246   1.311 -0.7986  0.2386 -0.4005
  642SOL     OW 2299   4.486   1.907   2.620  0.3767  0.2806  0.0170
  642SOL    HW2 2300   4.529   1.953   2.693 -0.4541  0.8662  0.1553
  642SOL    HW3 2301   4.438   1.836   2.662 -0.2283  0.7112  0.0772
  642SOL    MW4 2302   4.485   1.904   2.635 -0.2526  0.4052 -0.4686
  643SOL     OW 2303   2.071   0.763   3.426  0.2019  0.5054  0.4262
  643SOL    HW2 2304   2.053   0.712   3.348 -0.8985 -0.8589  1.5124
  643SOL    HW3 2305   1.997   0.745   3.484  1.3984  0.7806  2.1075
  643SOL    MW4 2306   2.059   0.754   3.424  0.0330  0.0023  0.0073
  644SOL     OW 2307   5.621   4.224   4.203 -0.2757 -0.1199  0.4800
  644SOL    HW2 2308   5.575   4.148   4.238  0.3440 -0.2494  1.0487
  644SOL    HW3 2309   5.627   4.285   4.277  0.1594  0.0367  0.3189
  644SOL    MW4 2310   5.616   4.222   4.217  0.0051  0.2900 -0.1845
  645SOL     OW 2311   6.036   4.008   3.280  0.5295  0.7873  0.7239
  645SOL    HW2 2312   6.014   4.002   3.373  0.1954 -1.6859  0.5465
  645SOL    HW3 2313   6.089   3.930   3.263 -1.4496 -0.1498 -1.6611
  645SOL    MW4 2314   6.040   3.997   3.290 -0.0050  0.5246  0.6584
  646SOL     OW 2315   1.922   4.816   3.482  0.1481 -0.5345  0.4097
  646SOL    HW2 2316   1.844   4.771   3.514 -0.8986  1.0390  0.1916
  646SOL    HW3 2317   1.976   4.747   3.443 -2.4208 -1.3816 -1.9977
  646SOL    MW4 2318   1.919   4.801   3.481 -0.4493  0.1246  0.0466
  647SOL     OW 2319   4.316   1.617   5.357 -0.4196 -0.1365 -0.1013
  647SOL    HW2 2320   4.262   1.592   5.282 -0.0976 -0.9345 -0.0707
  647SOL    HW3 2321   4.352   1.535   5.390  0.4669  0.3339  0.1472
  647SOL    MW4 2322   4.314   1.603   5.351  0.8225  0.0720 -0.2811
  648SOL     OW 2323   1.559   4.818   5.786 -0.3493 -0.5468 -0.1625
  648SOL    HW2 2324   1.490   4.883   5.774 -1.6930 -1.8457  0.2123
  648SOL    HW3 2325   1.545   4.783   5.874  1.0091 -0.6046  0.0530
  648SOL    MW4 2326   1.548   4.822   5.796  0.4856  0.1721 -0.2454
  649SOL     OW 2327   3.364   0.503   1.844 -0.4388  0.2977 -0.7613
  649SOL    HW2 2328   3.305   0.459   1.905  0.2314  1.6924  0.9560
  649SOL    HW3 2329   3.330   0.592   1.837  0.7838  0.7887 -0.6536
  649SOL    MW4 2330   3.352   0.509   1.851 -0.0989  0.2699 -0.3815
  650SOL     OW 2331   1.782   3.042   5.742 -0.0708 -0.7802  0.1100
  650SOL    HW2 2332   1.835   2.963   5.731  0.6858 -0.1609 -0.8214
  650SOL    HW3 2333   1.841   3.105   5.783  0.0395  0.0065 -1.1875
  650SOL    MW4 2334   1.797   3.040   5.746  0.2465  0.6705 -0.2533
  651SOL     OW 2335   3.718   5.759   5.394 -0.4841  0.0174  0.5986
  651SOL    HW2 2336   3.810   5.740   5.376 -0.0887  1.1241  1.3547
  651SOL    HW3 2337   3.677   5.672   5.402  0.0434 -0.5262 -1.7558
  651SOL    MW4 2338   3.725   5.745   5.393  0.3734  0.4011 -0.0512
  652SOL     OW 2339   3.215   0.074   5.795 -0.1525 -0.0095 -0.6770
  652SOL    HW2 2340   3.122   0.097   5.793  0.1238  1.1636 -0.6158
  652SOL    HW3 2341   3.216  -0.017   5.824 -1.2396  0.1910  0.0516
  652SOL    MW4 2342   3.203   0.065   5.798  0.2262  0.0737 -0.6873
  653SOL     OW 2343   3.755   1.021   3.057  0.5097  0.6414 -0.4527
  653SOL    HW2 2344   3.750   0.939   3.106  1.3081  0.9122  0.0939
  653SOL    HW3 2345   3.804   0.999   2.978 -0.0407  0.4041 -0.7403
  653SOL    MW4 2346   3.761   1.007   3.053 -0.2451  0.2799 -0.0269
  654SOL     OW 2347   4.273   6.317   2.720 -0.0794 -0.2565  0.7876
  654SOL    HW2 2348   4.276   6.223   2.704  0.8209 -0.2157  0.6228
  654SOL    HW3 2349   4.339   6.332   2.788  1.8144  0.5720 -1.0908
  654SOL    MW4 2350   4.282   6.306   2.727  0.1143 -0.6085 -0.1663
  655SOL     OW 2351   4.814   5.191   2.724 -0.3831 -0.2816 -0.7509
  655SOL    HW2 2352   4.817   5.202   2.629 -2.1534  0.6760 -0.7360
  655SOL    HW3 2353   4.782   5.275   2.757  0.5272 -0.4835  0.7303
  655SOL    MW4 2354   4.810   5.204   2.716 -0.2784 -0.7188  0.6055
  656SOL     OW 2355   0.510   2.274   1.790  0.0804 -0.2743 -0.1825
  656SOL    HW2 2356   0.489   2.190   1.830 -1.1851  0.3813  0.5972
  656SOL    HW3 2357   0.547   2.326   1.862 -0.5868  0.3291 -0.2598
  656SOL    MW4 2358   0.512   2.270   1.805  0.2314  0.7985  0.2295
  657SOL     OW 2359   2.830   0.838   0.958 -0.0309  0.0671 -0.0232
  657SOL    HW2 2360   2.757   0.871   0.906  0.3448 -1.2296 -1.4340
  657SOL    HW3 2361   2.790   0.772   1.016  0.1055 -1.2819 -1.4073
  657SOL    MW4 2362   2.815   0.834   0.959  0.1183 -0.3143  0.2544
  658SOL     OW 2363   1.374   6.425   5.615 -0.6417  0.1833  0.3401
  658SOL    HW2 2364   1.428   6.495   5.577 -0.0751 -1.2064 -1.5624
  658SOL    HW3 2365   1.302   6.414   5.552  1.4159 -3.5914 -1.7252
  658SOL    MW4 2366   1.371   6.433   5.602  0.1329 -1.1846 -0.0738
  659SOL     OW 2367   4.514   1.926   2.219 -0.1259 -0.1941 -0.2022
  659SOL    HW2 2368   4.546   1.947   2.131  0.2400  1.8745  0.3767
  659SOL    HW3 2369   4.593   1.904   2.269  0.0285  1.3936  0.3008
  659SOL    MW4 2370   4.529   1.925   2.214  0.4447 -0.2505  0.3121
  660SOL     OW 2371   0.616   2.257   1.535  0.4135  0.0682  0.0703
  660SOL    HW2 2372   0.561   2.315   1.482  0.2245 -0.2959 -0.1360
  660SOL    HW3 2373   0.581   2.263   1.623 -0.0130 -0.2283 -0.0771
  660SOL    MW4 2374   0.604   2.266   1.539  0.4681 -0.2053 -0.4705
  661SOL     OW 2375   5.143   5.655   5.331  0.1002 -0.0390 -0.0090
  661SOL    HW2 2376   5.148   5.656   5.427  0.6224  3.0419  0.0451
  661SOL    HW3 2377   5.053   5.630   5.311  0.0234 -0.8484  1.2565
  661SOL    MW4 2378   5.132   5.652   5.341  0.3750  0.7457 -0.2387
  662SOL     OW 2379   2.838   5.301   5.656  0.1302 -0.1496  0.0168
  662SOL    HW2 2380   2.863   5.298   5.564 -1.2105  0.1375 -0.3705
  662SOL    HW3 2381   2.839   5.210   5.684  0.3970 -0.2510 -0.3135
  662SOL    MW4 2382   2.842   5.289   5.648  0.2044  0.1556 -0.0279
  663SOL     OW 2383   5.384   0.642   3.449 -0.0033  0.3491 -0.4943
  663SOL    HW2 2384   5.424   0.603   3.371 -0.0616 -0.3200 -0.1949
  663SOL    HW3 2385   5.396   0.736   3.437  1.4486  0.1922 -0.5504
  663SOL    MW4 2386   5.391   0.649   3.437  0.2568 -0.4366  0.4558
  664SOL     OW 2387   1.103   5.215   0.218  0.1038  0.3094 -0.0011
  664SOL    HW2 2388   1.070   5.304   0.202 -0.9490 -0.1761 -0.6712
  664SOL    HW3 2389   1.196   5.227   0.237 -0.0228  1.5568 -0.0633
  664SOL    MW4 2390   1.111   5.228   0.218 -0.3625  0.0531 -0.1454
  665SOL     OW 2391   2.926   1.901   3.885 -0.1933  0.0003 -0.4568
  665SOL    HW2 2392   2.870   1.824   3.874 -1.7705  0.5944  2.5267
  665SOL    HW3 2393   3.014   1.865   3.896 -0.5961 -1.2247 -1.0162
  665SOL    MW4 2394   2.930   1.886   3.885  0.3178  0.3721 -0.1749
  666SOL     OW 2395   6.131   0.242   4.736 -0.0872 -0.2069  0.4607
  666SOL    HW2 2396   6.204   0.301   4.757 -1.4145  1.0911  1.5778
  666SOL    HW3 2397   6.145   0.166   4.792 -0.3981  0.7114  1.8339
  666SOL    MW4 2398   6.143   0.240   4.746  0.0732  0.3505  0.0039
  667SOL     OW 2399   0.220   1.345   3.478  0.0173 -0.1411 -0.2842
  667SOL    HW2 2400   0.216   1.255   3.512 -0.0288 -0.3786 -0.9032
  667SOL    HW3 2401   0.287   1.342   3.410 -0.5240  0.1109 -0.8425
  667SOL    MW4 2402   0.228   1.333   3.474 -0.0611 -0.0010  0.0357
  668SOL     OW 2403   3.201   2.150   4.082 -0.3180 -0.0326 -0.4560
  668SOL    HW2 2404   3.251   2.230   4.098  2.3089 -1.6119 -0.0364
  668SOL    HW3 2405   3.226   2.123   3.994 -2.5337  0.4495 -1.2845
  668SOL    MW4 2406   3.211   2.157   4.073  0.5754 -0.0906 -0.1228
  669SOL     OW 2407   0.665   0.444   2.743 -0.5679  0.7574  0.4036
  669SOL    HW2 2408   0.757   0.420   2.747 -0.4527  1.2799  1.1905
  669SOL    HW3 2409   0.620   0.365   2.716 -0.0142  0.1386  1.2327
  669SOL    MW4 2410   0.671   0.431   2.740  0.3125 -0.5297 -0.0229
  670SOL     OW 2411   1.656   1.286   3.870  0.1435  0.4693 -0.1350
  670SOL    HW2 2412   1.741   1.254   3.838 -0.2940 -1.6186  0.6149
  670SOL    HW3 2413   1.600   1.286   3.792  0.3996  0.2954 -0.3226
  670SOL    MW4 2414   1.660   1.282   3.855  0.2375 -0.1517  0.1220
  671SOL     OW 2415   3.774   3.904   3.491 -0.2959  0.2092 -0.3242
  671SOL    HW2 2416   3.740   3.972   3.549 -1.1661 -1.3129  1.0090
  671SOL    HW3 2417   3.810   3.837   3.550  0.2851 -0.6353 -1.5868
  671SOL    MW4 2418   3.774   3.904   3.506  0.6126  1.0617 -0.3148
  672SOL     OW 2419   5.075   3.461   2.911 -0.5683 -0.0535 -0.1113
  672SOL    HW2 2420   5.076   3.368   2.934 -2.1455 -0.3176 -0.9375
  672SOL    HW3 2421   5.061   3.506   2.995 -0.7316 -0.6250  0.1775
  672SOL    MW4 2422   5.073   3.454   2.925  0.2387  0.2411  0.1054
  673SOL     OW 2423   1.863   3.269   4.681 -0.4085 -0.2119 -0.4126
  673SOL    HW2 2424   1.878   3.322   4.759 -0.5103 -1.3598  0.4258
  673SOL    HW3 2425   1.946   3.272   4.634 -0.0543 -0.2103  0.1974
  673SOL    MW4 2426   1.876   3.276   4.685 -0.0951  0.2199 -0.1132
  674SOL     OW 2427   5.831   0.478   5.244  0.0863 -0.2486 -0.4649
  674SOL    HW2 2428   5.842   0.573   5.236 -1.0547 -0.0540  0.0521
  674SOL    HW3 2429   5.877   0.442   5.168  0.4972  0.7121 -0.6920
  674SOL    MW4 2430   5.839   0.486   5.233 -0.3886 -0.3798  0.0903
  675SOL     OW 2431   3.443   1.649   5.075 -0.5257  0.3646  0.4499
  675SOL    HW2 2432   3.499   1.711   5.123  0.2089 -0.2377  0.3878
  675SOL    HW3 2433   3.452   1.676   4.984 -0.0431  0.0475  0.4003
  675SOL    MW4 2434   3.452   1.661   5.070 -0.0444 -0.2515 -0.2576
  676SOL     OW 2435   2.880   1.989   3.466  0.2647 -0.3418  0.5204
  676SOL    HW2 2436   2.933   2.069   3.468  0.3202 -0.3722  0.3229
  676SOL    HW3 2437   2.810   2.009   3.403 -1.4583  0.6389  2.6351
  676SOL    MW4 2438   2.878   2.002   3.458  0.3275  0.3869 -0.6303
  677SOL     OW 2439   4.254   2.432   5.812  0.2315 -0.2774  0.4336
  677SOL    HW2 2440   4.209   2.461   5.891  1.2292 -0.2558  1.0167
  677SOL    HW3 2441   4.347   2.447   5.831  0.4213  0.9630 -1.2414
  677SOL    MW4 2442   4.260   2.438   5.825  0.3829  0.6473  0.0709
  678SOL     OW 2443   0.357   4.428   3.614 -0.0849  0.2269 -0.3370
  678SOL    HW2 2444   0.434   4.390   3.570 -0.1266  0.1298 -0.3266
  678SOL    HW3 2445   0.357   4.520   3.586  0.0769  0.2452 -0.2791
  678SOL    MW4 2446   0.367   4.435   3.604  0.3413  0.0212 -0.3940
  679SOL     OW 2447   4.250   3.137   5.831  0.2772  0.2165  0.1664
  679SOL    HW2 2448   4.184   3.090   5.780 -0.7185  0.3897  1.2470
  679SOL    HW3 2449   4.332   3.125   5.782 -0.6700  0.5827 -1.5759
  679SOL    MW4 2450   4.252   3.129   5.818  0.2684 -0.3464 -0.3044
  680SOL     OW 2451   1.293   0.889   2.902 -0.4108  0.2833 -0.2942
  680SOL    HW2 2452   1.360   0.921   2.963 -0.1334  1.2707 -1.0805
  680SOL    HW3 2453   1.295   0.794   2.913 -0.0961  0.4049  0.9396
  680SOL    MW4 2454   1.302   0.881   2.912 -0.5584 -0.0390  0.1148
  681SOL     OW 2455   1.201   0.975   6.208 -0.6222 -0.1596 -0.6774
  681SOL    HW2 2456   1.193   1.069   6.192 -1.1519 -0.0105  0.3742
  681SOL    HW3 2457   1.165   0.934   6.129 -1.7034  0.5270 -0.5602
  681SOL    MW4 2458   1.195   0.982   6.195  0.1201  0.0063  0.5550
  682SOL     OW 2459   2.184   0.443   1.730 -0.3716  0.4369 -0.6746
  682SOL    HW2 2460   2.096   0.407   1.727 -1.7745  3.5473 -1.1774
  682SOL    HW3 2461   2.173   0.531   1.767  2.1130  1.8653 -2.9591
  682SOL    MW4 2462   2.171   0.450   1.734 -0.0336 -0.2839 -0.8926
  683SOL     OW 2463   1.385   4.024   4.070 -0.3189 -0.3755 -0.1922
  683SOL    HW2 2464   1.388   4.105   4.019 -0.1884  0.9501  1.7945
  683SOL    HW3 2465   1.361   3.956   4.007  1.2322  0.8930 -2.2745
  683SOL    MW4 2466   1.382   4.026   4.055 -0.2671 -0.0295 -0.0358
  684SOL     OW 2467   3.089   2.226   5.073  0.0158 -0.6331 -0.4398
  684SOL    HW2 2468   3.159   2.275   5.029  0.0706 -0.3079  0.0041
  684SOL    HW3 2469   3.107   2.134   5.052  0.1378 -0.4977 -0.9549
  684SOL    MW4 2470   3.100   2.220   5.064  0.6601 -0.1029  0.7941
  685SOL     OW 2471   5.534   1.338   5.652 -0.3754 -0.1944  0.0214
  685SOL    HW2 2472   5.566   1.260   5.606 -0.6336  0.2401 -0.9206
  685SOL    HW3 2473   5.461   1.368   5.599  0.2481  1.1785 -0.1101
  685SOL    MW4 2474   5.529   1.332   5.639  0.1373 -0.1179  0.0989
  686SOL     OW 2475   5.431   3.688   5.219 -0.3959 -0.0166 -0.4062
  686SOL    HW2 2476   5.422   3.728   5.133 -0.4882  1.4692  0.2639
  686SOL    HW3 2477   5.518   3.648   5.218  0.0100  0.8396 -0.8677
  686SOL    MW4 2478   5.441   3.688   5.208  0.0155  0.2068 -0.2693
  687SOL     OW 2479   2.972   4.711   2.210  0.0039 -0.2491 -0.1947
  687SOL    HW2 2480   2.891   4.698   2.259  1.4593 -1.5399  2.0824
  687SOL    HW3 2481   2.997   4.802   2.228  1.6454 -1.2599  3.5931
  687SOL    MW4 2482   2.965   4.721   2.219 -0.0046  0.0257 -0.1392
  688SOL     OW 2483   3.972   2.053   3.985 -0.2546  0.3974 -0.0596
  688SOL    HW2 2484   3.956   2.133   4.035 -1.8246  1.1787 -1.6876
  688SOL    HW3 2485   3.928   1.985   4.035 -0.4296  0.8685  0.4453
  688SOL    MW4 2486   3.964   2.055   3.998  0.1553 -0.1551  0.2696
  689SOL     OW 2487   1.284   5.716   0.560  0.1739 -0.1326 -0.1645
  689SOL    HW2 2488   1.265   5.623   0.543 -1.6676  0.4035 -1.3783
  689SOL    HW3 2489   1.337   5.716   0.639  0.0591 -2.2158 -0.0331
  689SOL    MW4 2490   1.288   5.703   0.568  0.2280 -0.0867 -0.1976
  690SOL     OW 2491   2.777   3.781   0.786  0.0951  0.3586 -0.6709
  690SOL    HW2 2492   2.774   3.873   0.812  0.1835 -0.0454  0.8590
  690SOL    HW3 2493   2.869   3.758   0.790  0.1704  0.3973 -1.8468
  690SOL    MW4 2494   2.788   3.790   0.790 -0.0235 -0.1298  0.2000
  691SOL     OW 2495   2.164   4.426   2.069 -0.2326  0.2206 -0.2670
  691SOL    HW2 2496   2.177   4.399   2.160 -0.2599  0.3506 -0.2242
  691SOL    HW3 2497   2.230   4.495   2.055 -1.2462  1.3058  0.1328
  691SOL    MW4 2498   2.175   4.432   2.079 -0.3228 -0.1336 -0.5780
  692SOL     OW 2499   5.501   0.135   5.856  0.3391 -0.1817  0.4246
  692SOL    HW2 2500   5.575   0.107   5.909 -1.0442 -0.1383  2.4926
  692SOL    HW3 2501   5.482   0.224   5.885 -1.7162 -0.8856  1.4095
  692SOL    MW4 2502   5.508   0.143   5.867 -0.0388  0.6777 -0.3726
  693SOL     OW 2503   5.571   5.862   3.014  0.2460  0.9238 -0.0820
  693SOL    HW2 2504   5.616   5.806   2.950 -0.6249  1.6283 -1.3497
  693SOL    HW3 2505   5.544   5.939   2.964 -3.3364  0.0731  0.2775
  693SOL    MW4 2506   5.574   5.865   2.999  0.3406  0.1025  0.5722
  694SOL     OW 2507   2.313   4.817   3.557 -0.7839  0.4133  0.8215
  694SOL    HW2 2508   2.282   4.904   3.531 -0.2364  0.9615  1.9136
  694SOL    HW3 2509   2.408   4.828   3.567 -0.4695 -0.7154 -0.5004
  694SOL    MW4 2510   2.321   4.830   3.555  0.8118 -0.1935  0.4292
  695SOL     OW 2511   3.484   0.348   1.332  0.4722  0.0828  0.1881
  695SOL    HW2 2512   3.495   0.279   1.397 -1.3481 -1.5422 -1.1035
  695SOL    HW3 2513   3.452   0.302   1.254  1.6347  2.0741 -1.5621
  695SOL    MW4 2514   3.481   0.333   1.330  0.5593 -0.1960  0.0581
  696SOL     OW 2515   2.385   0.786   4.101 -0.6383  0.3570 -0.2806
  696SOL    HW2 2516   2.408   0.830   4.019 -1.8342  0.1105 -0.7824
  696SOL    HW3 2517   2.427   0.837   4.169 -0.1974  0.9834 -1.0087
  696SOL    MW4 2518   2.393   0.798   4.099  0.1309 -0.3974 -0.5496
  697SOL     OW 2519   6.269   0.391   3.814  0.4316 -0.0918 -0.3357
  697SOL    HW2 2520   6.213   0.399   3.737 -0.2359 -0.6253  0.0743
  697SOL    HW3 2521   6.233   0.453   3.877  0.9461  0.3098 -0.4330
  697SOL    MW4 2522   6.257   0.400   3.812  0.4697 -0.1037  0.2610
  698SOL     OW 2523   5.937   3.417   2.117  0.5971 -0.1171 -0.1508
  698SOL    HW2 2524   5.918   3.464   2.198 -1.0097  0.6695 -0.9197
  698SOL    HW3 2525   5.974   3.334   2.145 -1.8190 -0.7436  1.5125
  698SOL    MW4 2526   5.939   3.412   2.131 -0.3721  0.3828  0.3949
  699SOL     OW 2527   1.865   2.654   4.340 -0.3017 -0.3052  0.0453
  699SOL    HW2 2528   1.793   2.683   4.284  0.4474 -0.8346 -1.2174
  699SOL    HW3 2529   1.895   2.733   4.385 -0.0541  0.3754 -1.2971
  699SOL    MW4 2530   1.859   2.668   4.339  0.5250  0.1812 -0.4827
  700SOL     OW 2531   5.166   5.707   3.828  0.2856  0.2795  0.0455
  700SOL    HW2 2532   5.117   5.778   3.786  0.8244  0.6687  0.0699
  700SOL    HW3 2533   5.114   5.685   3.906  0.1651  0.7117  0.0895
  700SOL    MW4 2534   5.153   5.713   3.833  0.1609  0.0064 -0.3832
  701SOL     OW 2535   3.684   1.338   3.638 -0.1102  0.2476  0.3381
  701SOL    HW2 2536   3.644   1.254   3.613  0.0964 -0.2426  1.5941
  701SOL    HW3 2537   3.612   1.387   3.679  0.0279  0.2532  0.5761
  701SOL    MW4 2538   3.669   1.333   3.640  0.4748 -0.5582  0.6343
  702SOL     OW 2539   2.475   5.092   4.511  0.2704 -0.4394  0.1983
  702SOL    HW2 2540   2.509   5.045   4.587  0.6993 -0.7674 -0.1816
  702SOL    HW3 2541   2.382   5.070   4.508  0.1343  0.0251  0.9427
  702SOL    MW4 2542   2.467   5.083   4.520 -0.3288 -0.0448  1.0243
  703SOL     OW 2543   3.610   4.063   3.923  0.0697  0.0244  0.4689
  703SOL    HW2 2544   3.660   3.991   3.963  3.8618  1.7314 -0.7438
  703SOL    HW3 2545   3.586   4.031   3.836  2.1918  0.2638 -0.2666
  703SOL    MW4 2546   3.613   4.049   3.917  0.2374  0.4939  0.1470
  704SOL     OW 2547   4.860   6.101   1.658  0.0861 -0.2861 -0.0332
  704SOL    HW2 2548   4.825   6.136   1.576 -0.6706  0.4517  0.5881
  704SOL    HW3 2549   4.931   6.161   1.681  0.4481 -0.6234 -0.2536
  704SOL    MW4 2550   4.865   6.114   1.650 -0.2213 -0.2402  0.8017
  705SOL     OW 2551   1.592   4.778   1.949 -0.2695  0.3421 -0.3692
  705SOL    HW2 2552   1.596   4.699   1.897 -0.5747  0.3510 -0.4089
  705SOL    HW3 2553   1.599   4.850   1.886 -0.8167  0.3557 -0.4207
  705SOL    MW4 2554   1.594   4.777   1.934  0.2838  0.3514  0.4092
  706SOL     OW 2555   2.029   1.618   6.342  0.1991 -0.2966  0.0939
  706SOL    HW2 2556   2.038   1.673   6.264  0.6458  0.5671  0.7425
  706SOL    HW3 2557   2.108   1.636   6.393 -0.1029 -0.8292  0.7651
  706SOL    MW4 2558   2.041   1.628   6.338  0.6821  0.5977 -0.9337
  707SOL     OW 2559   1.516   0.223   5.528 -0.4837  0.1252  0.2490
  707SOL    HW2 2560   1.503   0.205   5.435  0.0273 -0.8431  0.3540
  707SOL    HW3 2561   1.481   0.311   5.541 -1.5043 -0.1245 -0.6525
  707SOL    MW4 2562   1.509   0.232   5.518 -0.3620 -0.6125 -0.5699
  708SOL     OW 2563   4.893   2.999   5.299 -0.1282 -0.2922 -0.1096
  708SOL    HW2 2564   4.859   3.008   5.210 -0.1466 -0.3749 -0.1112
  708SOL    HW3 2565   4.898   3.089   5.332  0.9947 -0.1501 -0.6039
  708SOL    MW4 2566   4.889   3.012   5.292 -0.5487  0.4075  0.1429
  709SOL     OW 2567   2.580   1.609   5.615 -0.6887  0.4885  0.2918
  709SOL    HW2 2568   2.636   1.532   5.605 -2.5693 -1.0331  1.0224
  709SOL    HW3 2569   2.624   1.677   5.563  2.5834 -0.1471  1.9428
  709SOL    MW4 2570   2.593   1.608   5.607 -0.0268  0.2633 -0.0421
  710SOL     OW 2571   0.324   2.642   1.264 -0.1283  0.0865  0.1367
  710SOL    HW2 2572   0.406   2.690   1.279 -0.2117 -0.1805  1.5826
  710SOL    HW3 2573   0.313   2.643   1.169  1.2054  0.7025 -0.0377
  710SOL    MW4 2574   0.333   2.649   1.254 -0.0253  0.0759  0.4474
  711SOL     OW 2575   5.760   5.768   5.982  0.1439  0.0484 -0.4464
  711SOL    HW2 2576   5.701   5.695   5.997  0.4533 -0.3290 -1.0318
  711SOL    HW3 2577   5.824   5.763   6.053 -1.2447  1.2252  0.9453
  711SOL    MW4 2578   5.761   5.758   5.993  0.0063  0.0949 -0.0867
  712SOL     OW 2579   3.472   5.482   1.083 -0.1167  0.2231  0.2298
  712SOL    HW2 2580   3.490   5.519   0.997  1.0408  1.3394  0.9149
  712SOL    HW3 2581   3.409   5.542   1.123 -1.1046 -0.6098 -0.0316
  712SOL    MW4 2582   3.466   5.495   1.077 -0.1718 -0.2649  0.0409
  713SOL     OW 2583   1.486   5.576   2.881  0.5829  0.0668  0.2362
  713SOL    HW2 2584   1.458   5.526   2.957  1.9236  0.3781  0.9649
  713SOL    HW3 2585   1.533   5.652   2.917  2.2203 -0.3486 -0.8723
  713SOL    MW4 2586   1.489   5.580   2.895 -0.8186  0.9506  0.0272
  714SOL     OW 2587   5.679   3.082   3.611  0.2615  0.0374 -0.4084
  714SOL    HW2 2588   5.769   3.066   3.640  0.2992 -0.0256 -0.5618
  714SOL    HW3 2589   5.677   3.051   3.521  0.2817  0.7146 -0.6443
  714SOL    MW4 2590   5.690   3.076   3.603  0.7686  0.0990  0.3529
  715SOL     OW 2591   1.673   4.363   3.598 -0.0133 -0.0008 -0.0794
  715SOL    HW2 2592   1.687   4.410   3.680 -0.2123  0.4776 -0.3111
  715SOL    HW3 2593   1.596   4.406   3.559  0.9879  0.8164 -1.2382
  715SOL    MW4 2594   1.664   4.375   3.604 -0.0897  0.0677  0.1313
  716SOL     OW 2595   5.449   2.626   4.618 -0.0689 -0.4594 -0.0186
  716SOL    HW2 2596   5.434   2.661   4.706  0.5650 -0.3340  0.0397
  716SOL    HW3 2597   5.425   2.534   4.625  0.9303 -0.6870  0.5455
  716SOL    MW4 2598   5.444   2.619   4.630 -0.4295  0.5212 -0.5332
  717SOL     OW 2599   6.421   0.908   3.484 -0.1044  0.4796 -0.2596
  717SOL    HW2 2600   6.449   0.974   3.547 -0.2044  1.2626 -1.0208
  717SOL    HW3 2601   6.333   0.934   3.458 -1.5418 -1.7988  1.9018
  717SOL    MW4 2602   6.413   0.920   3.489  0.2682  0.4892  0.6380
  718SOL     OW 2603   4.729   6.263   1.937  0.3688  0.2531 -0.0019
  718SOL    HW2 2604   4.635   6.277   1.947  0.0383 -1.5352 -0.2520
  718SOL    HW3 2605   4.737   6.171   1.911  2.1054  0.7352 -1.3469
  718SOL    MW4 2606   4.718   6.253   1.935 -0.2280 -0.2473  0.6857
  719SOL     OW 2607   6.125   0.895   2.274  0.2368  0.0434  0.6127
  719SOL    HW2 2608   6.118   0.823   2.337 -0.1769 -0.5634 -0.1227
  719SOL    HW3 2609   6.035   0.911   2.246  0.3011  0.9579  0.8761
  719SOL    MW4 2610   6.112   0.888   2.279  0.4721 -0.4371 -0.0374
  720SOL     OW 2611   3.128   3.075   3.649  0.4976  0.5007  0.5790
  720SOL    HW2 2612   3.183   3.109   3.719  0.1597 -1.7011  2.0098
  720SOL    HW3 2613   3.071   3.011   3.691 -0.1840 -0.4433 -1.6014
  720SOL    MW4 2614   3.127   3.071   3.663  0.4353 -0.4322  0.2752
  721SOL     OW 2615   1.531   6.036   3.421 -0.2026  0.8548  0.2019
  721SOL    HW2 2616   1.594   6.071   3.359  0.0845  1.1078  0.6341
  721SOL    HW3 2617   1.498   6.112   3.469  0.4787  0.5572  1.1938
  721SOL    MW4 2618   1.535   6.050   3.419 -0.0039 -0.3873  0.3694
  722SOL     OW 2619   2.860   1.271   3.873 -0.2483  0.4040  0.0578
  722SOL    HW2 2620   2.834   1.320   3.951 -0.7210  2.1562 -1.1412
  722SOL    HW3 2621   2.796   1.200   3.867  1.2784 -1.3885  2.6209
  722SOL    MW4 2622   2.848   1.268   3.883  0.0889 -0.1927  0.1491
  723SOL     OW 2623   1.379   2.350   3.140  0.2100 -0.1439 -0.4791
  723SOL    HW2 2624   1.348   2.415   3.077  0.8172  2.0622  1.4021
  723SOL    HW3 2625   1.304   2.292   3.153 -1.4832  2.0895  0.1857
  723SOL    MW4 2626   1.365   2.351   3.133 -0.5269  0.2420 -0.1233
  724SOL     OW 2627   2.497   1.703   2.756 -0.1088 -0.1415 -0.1228
  724SOL    HW2 2628   2.437   1.731   2.687  1.1776  2.3587 -0.3410
  724SOL    HW3 2629   2.446   1.709   2.836 -1.3220 -2.1272 -0.6658
  724SOL    MW4 2630   2.482   1.707   2.757 -0.3416 -0.0397  0.7772
  725SOL     OW 2631   3.959   3.847   1.692  0.9097 -0.1257 -0.2838
  725SOL    HW2 2632   3.951   3.807   1.778 -0.4429 -0.1727 -0.4134
  725SOL    HW3 2633   4.025   3.794   1.647  1.2146 -0.4434  0.5173
  725SOL    MW4 2634   3.967   3.834   1.697 -0.3363  0.4619 -0.8487
  726SOL     OW 2635   0.765   0.237   1.752  0.3453 -0.3455 -0.4089
  726SOL    HW2 2636   0.695   0.204   1.808  2.1716 -2.2447  0.9400
  726SOL    HW3 2637   0.787   0.163   1.695  1.3152  0.1669 -0.7243
  726SOL    MW4 2638   0.759   0.223   1.752  0.3508  0.0515  0.0678
  727SOL     OW 2639   3.285   6.149   4.539 -0.0093 -0.5070  0.2442
  727SOL    HW2 2640   3.259   6.111   4.624 -3.6401  0.7564 -0.1146
  727SOL    HW3 2641   3.349   6.216   4.562 -0.0377 -0.9752  1.8493
  727SOL    MW4 2642   3.290   6.153   4.554  0.3365  0.5557  0.0347
  728SOL     OW 2643   3.932   1.108   0.111  0.2501  0.5848 -0.0636
  728SOL    HW2 2644   3.894   1.164   0.179  0.3337 -0.1012  0.5597
  728SOL    HW3 2645   3.857   1.081   0.058 -0.3092 -1.3828  1.6165
  728SOL    MW4 2646   3.917   1.112   0.113  0.2560 -0.3007  0.2941
  729SOL     OW 2647   5.971   3.744   4.144  0.9063  0.0683 -0.7462
  729SOL    HW2 2648   6.039   3.785   4.198  0.9221 -0.1938 -0.5594
  729SOL    HW3 2649   6.014   3.666   4.108  0.8207  0.1110 -0.9375
  729SOL    MW4 2650   5.986   3.739   4.147  0.5777  0.0827 -0.2353
  730SOL     OW 2651   0.568   1.013   1.536  0.0141  0.2954 -0.3098
  730SOL    HW2 2652   0.613   1.007   1.452  0.3041 -0.0803 -0.1341
  730SOL    HW3 2653   0.604   0.940   1.587 -1.6669 -0.7804 -0.5785
  730SOL    MW4 2654   0.579   1.002   1.532  0.1384 -0.0610 -0.6037
  731SOL     OW 2655   4.021   5.066   4.134  0.2831 -0.4751 -0.6952
  731SOL    HW2 2656   4.029   5.045   4.041 -0.1505  2.4595 -1.5059
  731SOL    HW3 2657   3.928   5.056   4.154  0.1628  0.0745 -0.9473
  731SOL    MW4 2658   4.010   5.062   4.125 -0.2977 -0.1692 -0.1950
  732SOL     OW 2659   2.319   1.784   2.567  0.2881 -0.2422 -0.1750
  732SOL    HW2 2660   2.262   1.855   2.597 -0.8179 -0.6199 -1.2951
  732SOL    HW3 2661   2.282   1.757   2.483  1.9200 -0.7615 -0.7721
  732SOL    MW4 2662   2.307   1.790   2.560  0.3146 -1.0877 -0.3273
  733SOL     OW 2663   5.453   3.233   3.691  0.5677 -0.5643 -0.2564
  733SOL    HW2 2664   5.446   3.327   3.670  0.1888 -0.1386  1.5764
  733SOL    HW3 2665   5.540   3.208   3.662  1.1553  0.6860  0.3684
  733SOL    MW4 2666   5.463   3.242   3.684 -0.2779 -0.1944 -0.4079
  734SOL     OW 2667   1.200   0.357   4.480 -0.1043  0.8037 -0.7192
  734SOL    HW2 2668   1.173   0.285   4.536 -1.6597  0.8250 -1.3877
  734SOL    HW3 2669   1.253   0.413   4.536  0.4467 -0.4270  0.0265
  734SOL    MW4 2670   1.204   0.355   4.495  0.1472 -0.3980  0.2364
  735SOL     OW 2671   5.640   4.394   4.697  0.4376  0.7867  0.7343
  735SOL    HW2 2672   5.695   4.321   4.725  0.1218  0.3517  0.2421
  735SOL    HW3 2673   5.607   4.432   4.779 -2.1613 -1.7463  1.0147
  735SOL    MW4 2674   5.643   4.390   4.712 -0.6045 -0.2592 -0.2526
  736SOL     OW 2675   5.519   2.512   5.541 -0.5127 -0.3519  0.6670
  736SOL    HW2 2676   5.559   2.543   5.622  0.6464  1.0682 -0.4045
  736SOL    HW3 2677   5.588   2.462   5.498 -0.4044  0.6888 -0.4106
  736SOL    MW4 2678   5.534   2.509   5.546  0.9050  0.1135 -0.1789
  737SOL     OW 2679   0.355   5.258   0.145  0.0990 -0.5477  0.0106
  737SOL    HW2 2680   0.376   5.165   0.138 -1.8848 -0.9115 -3.0114
  737SOL    HW3 2681   0.413   5.301   0.082  0.1046  0.0984  0.4415
  737SOL    MW4 2682   0.365   5.251   0.136 -0.1263 -0.3350 -0.2983
  738SOL     OW 2683   1.859   0.602   5.794  0.1375  0.2632  0.0144
  738SOL    HW2 2684   1.825   0.685   5.763  1.0048  0.2471 -1.0460
  738SOL    HW3 2685   1.782   0.553   5.822 -0.4390  1.1893  0.0694
  738SOL    MW4 2686   1.844   0.606   5.793 -0.6217 -0.2574  0.2087
  739SOL     OW 2687   5.311   2.632   2.043 -0.2532 -0.2903  0.1437
  739SOL    HW2 2688   5.235   2.617   1.988 -1.1924  0.1559  1.2747
  739SOL    HW3 2689   5.327   2.547   2.085  0.2139 -0.5242 -0.4956
  739SOL    MW4 2690   5.303   2.619   2.041  0.3182  0.7069 -0.6293
  740SOL     OW 2691   3.587   3.865   5.771 -0.6959 -0.1761  0.1490
  740SOL    HW2 2692   3.563   3.776   5.747 -2.5432  0.5245 -0.8535
  740SOL    HW3 2693   3.676   3.876   5.737 -0.8752 -1.2667 -0.7330
  740SOL    MW4 2694   3.596   3.855   5.763 -0.6279 -0.0133 -0.4724
  741SOL     OW 2695   5.831   0.714   3.077  0.0577  0.3553  0.2581
  741SOL    HW2 2696   5.919   0.702   3.044  0.0251  0.6294  0.0609
  741SOL    HW3 2697   5.774   0.700   3.000 -0.0541  0.3847  0.3348
  741SOL    MW4 2698   5.835   0.711   3.062 -0.1289  0.9557 -0.2888
  742SOL     OW 2699   5.017   3.285   2.370 -0.4334  0.1183  0.5888
  742SOL    HW2 2700   4.929   3.299   2.334  0.2022 -0.2968 -1.2469
  742SOL    HW3 2701   5.074   3.285   2.294  1.1368  0.0450  1.7188
  742SOL    MW4 2702   5.013   3.287   2.355 -0.6490 -0.0514 -0.0419
  743SOL     OW 2703   1.907   5.223   3.179  0.8542 -0.6799  0.1405
  743SOL    HW2 2704   1.969   5.296   3.189  1.4760 -1.2287  0.4359
  743SOL    HW3 2705   1.943   5.154   3.236 -1.4795 -0.1192  2.4479
  743SOL    MW4 2706   1.920   5.223   3.188  0.5970  0.6250 -0.2506
  744SOL     OW 2707   5.941   2.924   1.090 -0.4790  0.1128  0.2007
  744SOL    HW2 2708   5.868   2.902   1.148 -1.3633  2.5917  0.1376
  744SOL    HW3 2709   5.914   2.892   1.004  0.4460 -2.7605  0.8417
  744SOL    MW4 2710   5.928   2.917   1.086  0.2514  0.3773  0.1031
  745SOL     OW 2711   3.855   3.679   1.893  0.6168 -0.2505  0.0142
  745SOL    HW2 2712   3.874   3.665   1.985  0.8553 -1.6358 -0.2303
  745SOL    HW3 2713   3.762   3.662   1.884  0.6310 -0.3043 -0.0325
  745SOL    MW4 2714   3.845   3.675   1.904  0.4670  0.2331  0.3114
  746SOL     OW 2715   6.226   2.174   0.207  0.0205 -0.4289  0.0778
  746SOL    HW2 2716   6.180   2.244   0.162 -0.9167 -0.7119  0.5812
  746SOL    HW3 2717   6.319   2.189   0.187 -0.3389 -0.3355 -1.6333
  746SOL    MW4 2718   6.232   2.185   0.199  0.4948 -0.4027 -0.3278
  747SOL     OW 2719   3.528   5.107   4.273  0.0800  0.0102  0.3854
  747SOL    HW2 2720   3.493   5.187   4.311  0.6996  0.1781  0.6112
  747SOL    HW3 2721   3.517   5.040   4.341  0.3076  0.0907  0.5019
  747SOL    MW4 2722   3.522   5.109   4.287 -0.2377 -0.2641  0.1612
  748SOL     OW 2723   4.034   5.723   3.031  0.2744 -0.3254  0.1967
  748SOL    HW2 2724   3.957   5.777   3.048  1.3804  0.8549  1.6821
  748SOL    HW3 2725   4.082   5.771   2.964  0.8282  0.1144  0.8978
  748SOL    MW4 2726   4.030   5.736   3.024  0.1087  0.1998 -0.0243
  749SOL     OW 2727   6.397   3.918   5.057  0.3043  0.0545 -0.3022
  749SOL    HW2 2728   6.348   3.999   5.042 -0.4025 -0.3922 -0.4405
  749SOL    HW3 2729   6.453   3.909   4.980 -0.5903 -0.2744 -0.9333
  749SOL    MW4 2730   6.398   3.927   5.045 -0.7246  1.0494  0.2415
  750SOL     OW 2731   1.335   3.793   6.073 -0.2121 -0.2546 -0.1434
  750SOL    HW2 2732   1.381   3.713   6.100  0.6448 -0.9735 -3.3146
  750SOL    HW3 2733   1.388   3.864   6.108  1.2253 -1.1000 -0.5153
  750SOL    MW4 2734   1.348   3.792   6.081  0.3006  0.2821  0.0963
  751SOL     OW 2735   4.363   2.375   2.831  0.2582 -0.3578  0.2404
  751SOL    HW2 2736   4.308   2.417   2.765 -0.4198  0.5269  1.3323
  751SOL    HW3 2737   4.386   2.291   2.793 -0.9049 -0.2633 -0.7201
  751SOL    MW4 2738   4.359   2.370   2.818  0.2605 -0.5003 -0.2479
  752SOL     OW 2739   2.358   2.110   3.002 -0.2058 -0.3564 -0.5060
  752SOL    HW2 2740   2.284   2.149   2.955  0.5797 -0.8054 -2.1901
  752SOL    HW3 2741   2.403   2.185   3.041  0.6468  0.3611 -2.7604
  752SOL    MW4 2742   2.354   2.125   3.001  0.4678 -0.3699  0.3436
  753SOL     OW 2743   3.367   5.188   5.691 -0.2352  0.1449  0.3508
  753SOL    HW2 2744   3.302   5.126   5.658  0.3267 -0.0126 -0.4927
  753SOL    HW3 2745   3.317   5.268   5.709 -0.4111  0.6778 -2.1479
  753SOL    MW4 2746   3.352   5.191   5.689  0.0929  0.1689  0.7296
  754SOL     OW 2747   0.426   0.457   4.575 -0.2770  0.2681 -0.4949
  754SOL    HW2 2748   0.483   0.422   4.507 -2.2425 -1.2117 -1.5155
  754SOL    HW3 2749   0.396   0.541   4.540 -0.4409  0.0048 -1.0115
  754SOL    MW4 2750   0.429   0.463   4.561 -0.4252  0.7983  0.3167
  755SOL     OW 2751   2.461   5.081   4.240 -0.0640 -0.1222  0.0967
  755SOL    HW2 2752   2.391   5.019   4.221  1.2343 -1.6063 -0.0079
  755SOL    HW3 2753   2.468   5.080   4.335  0.6023 -0.9051  0.0495
  755SOL    MW4 2754   2.453   5.073   4.250  0.1797 -0.2014 -0.7443
  756SOL     OW 2755   6.341   4.249   0.376 -0.4985  0.3584  0.0196
  756SOL    HW2 2756   6.318   4.207   0.294  0.7000 -2.5761  1.0353
  756SOL    HW3 2757   6.261   4.244   0.429  0.1252 -3.1715  0.9634
  756SOL    MW4 2758   6.327   4.243   0.372  0.1793  0.4895  0.1036
  757SOL     OW 2759   3.919   3.118   0.542  0.3172 -0.2415 -0.2370
  757SOL    HW2 2760   3.919   3.103   0.637  2.0610  3.5078  0.5496
  757SOL    HW3 2761   3.848   3.180   0.529  0.4866 -0.2686 -1.3126
  757SOL    MW4 2762   3.909   3.124   0.553 -0.3716  0.3307 -0.2914
  758SOL     OW 2763   4.466   2.196   2.253 -0.1782  0.0222 -0.4117
  758SOL    HW2 2764   4.546   2.235   2.287 -0.1478  0.5662 -1.0961
  758SOL    HW3 2765   4.486   2.103   2.245  0.5807  0.2323 -1.1036
  758SOL    MW4 2766   4.479   2.189   2.257 -0.2867  0.2995  0.3664
  759SOL     OW 2767   1.397   2.392   5.996  0.4884  0.4156 -0.2164
  759SOL    HW2 2768   1.458   2.433   6.057  1.1535 -0.9419  0.0588
  759SOL    HW3 2769   1.452   2.361   5.924 -0.0784  0.5320 -0.7089
  759SOL    MW4 2770   1.412   2.393   5.994 -0.2606  0.0249  0.0905
  760SOL     OW 2771   0.789   1.274   1.147  0.3207  0.1368  0.3009
  760SOL    HW2 2772   0.806   1.304   1.236  1.3548 -0.4053  0.3080
  760SOL    HW3 2773   0.766   1.181   1.157  1.4502 -0.1994 -0.0606
  760SOL    MW4 2774   0.789   1.265   1.160  0.3539 -0.6706 -0.0390
  761SOL     OW 2775   4.284   0.680   4.420 -0.1213 -0.2832 -0.8460
  761SOL    HW2 2776   4.239   0.704   4.339 -0.9746  1.2099  0.0123
  761SOL    HW3 2777   4.262   0.751   4.481  1.1774 -0.9399  0.4405
  761SOL    MW4 2778   4.275   0.693   4.418  0.1810  0.1445  0.1036
  762SOL     OW 2779   0.725   3.710   2.558  0.6667  0.4197  0.4437
  762SOL    HW2 2780   0.793   3.690   2.623 -0.5196  1.1344  1.9707
  762SOL    HW3 2781   0.673   3.779   2.598  0.0559  1.1173 -1.4311
  762SOL    MW4 2782   0.727   3.717   2.572 -0.1968  0.4684 -0.1340
  763SOL     OW 2783   5.514   1.463   6.356  0.0627 -0.0536 -0.0099
  763SOL    HW2 2784   5.427   1.428   6.338  0.5030 -0.5036 -1.4933
  763SOL    HW3 2785   5.505   1.558   6.346 -0.0860 -0.1661 -1.1052
  763SOL    MW4 2786   5.501   1.471   6.352  0.1376  0.2155  0.1145
  764SOL     OW 2787   0.809   1.754   4.596 -0.0842  0.1022  0.0774
  764SOL    HW2 2788   0.761   1.823   4.549  0.1677  0.6196  0.5642
  764SOL    HW3 2789   0.745   1.684   4.608 -0.0930 -0.1249 -1.2162
  764SOL    MW4 2790   0.794   1.754   4.591  0.5309 -0.2553 -0.4316
  765SOL     OW 2791   1.883   3.246   0.691 -0.2395  0.1032 -0.7297
  765SOL    HW2 2792   1.910   3.170   0.640 -3.1175 -0.5241 -1.4702
  765SOL    HW3 2793   1.823   3.212   0.757 -1.9113  1.7192 -1.3242
  765SOL    MW4 2794   1.879   3.232   0.693 -0.2375 -0.2456 -0.1313
  766SOL     OW 2795   2.344   5.736   2.914 -0.2508 -0.3640 -0.2290
  766SOL    HW2 2796   2.400   5.721   2.838  0.6022 -2.8653  0.7782
  766SOL    HW3 2797   2.330   5.831   2.916  3.1952  0.3016 -1.0755
  766SOL    MW4 2798   2.349   5.747   2.904 -0.3935  0.3743 -0.0414
  767SOL     OW 2799   2.027   0.686   2.319 -0.2095 -0.1710  0.1495
  767SOL    HW2 2800   2.011   0.680   2.225  2.1749  0.6323 -0.3825
  767SOL    HW3 2801   2.058   0.776   2.332  0.5648 -0.6107  1.5224
  767SOL    MW4 2802   2.029   0.697   2.309  0.4093  0.0729  0.2114
  768SOL     OW 2803   3.001   6.164   3.021  0.1982 -0.7731  0.3737
  768SOL    HW2 2804   3.030   6.180   3.111  0.6452  2.2810 -0.2104
  768SOL    HW3 2805   3.082   6.153   2.971  0.0230 -0.6685  0.0637
  768SOL    MW4 2806   3.015   6.164   3.026  0.4849  0.0318 -0.3242
  769SOL     OW 2807   3.047   2.785   1.131 -0.4087  0.0126 -0.1239
  769SOL    HW2 2808   3.042   2.868   1.085  1.1323  1.0859  1.4943
  769SOL    HW3 2809   3.072   2.722   1.064 -5.0565 -0.0363 -2.1947
  769SOL    MW4 2810   3.050   2.788   1.116 -0.0111 -0.0623  0.0099
  770SOL     OW 2811   5.897   4.258   0.990 -0.3085  0.3272 -0.0214
  770SOL    HW2 2812   5.940   4.335   0.954  0.7062  0.3994  1.2581
  770SOL    HW3 2813   5.969   4.197   1.008 -0.9098 -0.2239  0.5726
  770SOL    MW4 2814   5.913   4.260   0.988 -0.0716 -1.0370  0.1200
  771SOL     OW 2815   5.136   0.707   0.972 -0.4998 -0.0229 -0.0425
  771SOL    HW2 2816   5.197   0.641   1.006  0.9713  0.2594 -1.9747
  771SOL    HW3 2817   5.059   0.657   0.945 -0.5576 -0.5730  1.0797
  771SOL    MW4 2818   5.134   0.691   0.973  0.7033 -0.0662 -0.2540
  772SOL     OW 2819   3.499   2.891   1.856  0.1979 -0.5501  0.0300
  772SOL    HW2 2820   3.414   2.869   1.894 -0.7480  1.6613 -0.6392
  772SOL    HW3 2821   3.548   2.930   1.928 -0.0160 -0.2230  0.0001
  772SOL    MW4 2822   3.494   2.893   1.870  0.4697 -0.2891  1.0111
  773SOL     OW 2823   4.553   2.638   2.506 -0.5816  0.1580  0.6107
  773SOL    HW2 2824   4.550   2.543   2.494  0.5316  0.0497  1.0647
  773SOL    HW3 2825   4.607   2.670   2.434 -1.4285  0.5214  0.1244
  773SOL    MW4 2826   4.560   2.630   2.495 -0.5391  0.3747  0.3419
  774SOL     OW 2827   1.553   6.156   4.342  0.1259  0.5215 -0.2176
  774SOL    HW2 2828   1.576   6.089   4.277 -2.3888 -1.2653  0.5619
  774SOL    HW3 2829   1.569   6.114   4.426  0.5697  1.7298  0.3115
  774SOL    MW4 2830   1.558   6.142   4.344 -0.0450 -0.3377 -0.0978
  775SOL     OW 2831   4.665   1.137   0.145 -0.0838  0.0776 -0.1463
  775SOL    HW2 2832   4.624   1.215   0.108 -0.8279  0.2790  1.0412
  775SOL    HW3 2833   4.616   1.120   0.225  0.7123 -1.0302  0.1300
  775SOL    MW4 2834   4.653   1.145   0.151 -0.5274  0.0161  0.3819
  776SOL     OW 2835   0.569   2.864   6.177  0.2030  0.2967 -0.2433
  776SOL    HW2 2836   0.538   2.898   6.093  2.6037 -0.0702 -1.3701
  776SOL    HW3 2837   0.615   2.783   6.154 -1.5542 -1.4115  1.8144
  776SOL    MW4 2838   0.571   2.857   6.163  0.0809  0.5540 -0.0765
  777SOL     OW 2839   5.417   2.171   0.807 -0.1021 -0.4270 -0.1135
  777SOL    HW2 2840   5.348   2.115   0.844  0.0070 -0.7254 -0.3517
  777SOL    HW3 2841   5.473   2.193   0.881 -0.6084  0.0521  0.1366
  777SOL    MW4 2842   5.415   2.166   0.821 -0.0721  0.3775 -0.8988
  778SOL     OW 2843   6.025   2.674   4.177  0.0890  0.1026 -0.0430
  778SOL    HW2 2844   6.015   2.751   4.121 -1.1345  0.2665  0.3690
  778SOL    HW3 2845   6.103   2.692   4.230 -0.2055  1.0838  0.0779
  778SOL    MW4 2846   6.034   2.686   4.177 -0.0064  0.1331  0.2804
  779SOL     OW 2847   3.788   3.622   2.151 -0.5068 -0.2585  0.4769
  779SOL    HW2 2848   3.866   3.615   2.205 -0.1928 -0.0891  0.0523
  779SOL    HW3 2849   3.732   3.549   2.179  0.0900 -0.7836  0.3244
  779SOL    MW4 2850   3.791   3.611   2.162  0.2596 -0.4345  0.6188
  780SOL     OW 2851   4.137   0.593   5.803 -0.2269  0.3732 -0.5680
  780SOL    HW2 2852   4.203   0.651   5.765  0.5372 -0.7569 -1.0153
  780SOL    HW3 2853   4.172   0.505   5.790 -1.5651 -0.2218 -0.2944
  780SOL    MW4 2854   4.151   0.589   5.796 -0.1748  0.1617 -0.5641
  781SOL     OW 2855   6.379   3.046   5.407  0.0463 -0.1516 -0.4806
  781SOL    HW2 2856   6.457   3.071   5.357  1.8250 -1.8267  1.2615
  781SOL    HW3 2857   6.413   3.018   5.491 -1.8575 -5.1952 -1.0539
  781SOL    MW4 2858   6.394   3.046   5.411 -0.2546  1.0315  0.8518
  782SOL     OW 2859   6.334   4.756   6.227  0.1622 -0.4038  0.0742
  782SOL    HW2 2860   6.333   4.705   6.145 -0.5495 -0.4193  0.0880
  782SOL    HW3 2861   6.425   4.749   6.257  1.1436  1.7616 -2.0362
  782SOL    MW4 2862   6.346   4.748   6.220  0.1761 -0.2694 -0.4771
  783SOL     OW 2863   2.492   5.894   3.426 -0.0414  0.1662 -0.1477
  783SOL    HW2 2864   2.576   5.894   3.472 -0.0577  1.2649 -0.0808
  783SOL    HW3 2865   2.515   5.877   3.335  0.4551  1.9453 -0.3968
  783SOL    MW4 2866   2.506   5.892   3.420 -0.6265 -0.0044  0.2417
  784SOL     OW 2867   0.130   3.916   4.784 -0.3313 -0.7033  0.1957
  784SOL    HW2 2868   0.165   3.995   4.745 -1.3499 -1.1798 -1.8024
  784SOL    HW3 2869   0.197   3.849   4.771  0.6379 -0.1693  2.1110
  784SOL    MW4 2870   0.143   3.917   4.777 -0.2219 -0.2521 -0.1643
  785SOL     OW 2871   3.886   0.261   5.683  0.0029 -0.4310 -0.2819
  785SOL    HW2 2872   3.846   0.334   5.636  0.3606 -0.6057 -0.8610
  785SOL    HW3 2873   3.825   0.243   5.755 -0.9196 -0.6262 -1.0884
  785SOL    MW4 2874   3.873   0.268   5.687 -0.7626 -0.1715 -0.3277
  786SOL     OW 2875   2.305   6.355   4.568 -0.6353 -0.3766 -0.5394
  786SOL    HW2 2876   2.256   6.273   4.572  0.7328 -1.2215 -0.7446
  786SOL    HW3 2877   2.394   6.329   4.544 -0.9231  1.4593 -4.2624
  786SOL    MW4 2878   2.310   6.341   4.566  0.1457 -0.0233 -0.4067
  787SOL     OW 2879   0.177   1.231   1.281  0.4099  0.2111 -0.2984
  787SOL    HW2 2880   0.142   1.142   1.281  0.5856  0.1339 -1.5186
  787SOL    HW3 2881   0.148   1.268   1.198  2.2047  0.5460 -0.8132
  787SOL    MW4 2882   0.169   1.224   1.270 -0.0193 -0.3336  0.4333
  788SOL     OW 2883   4.313   3.044   1.980  0.1406  0.2302  0.9630
  788SOL    HW2 2884   4.326   2.950   1.992 -1.9645 -0.1971  0.2894
  788SOL    HW3 2885   4.277   3.073   2.064  0.5170  0.3840  1.0721
  788SOL    MW4 2886   4.310   3.035   1.993 -0.2594  0.1186 -0.1075
  789SOL     OW 2887   5.743   5.925   1.382 -0.5194  0.2501  0.4062
  789SOL    HW2 2888   5.654   5.894   1.398 -0.4956 -0.4802 -0.7735
  789SOL    HW3 2889   5.783   5.857   1.328  0.2928  1.2444 -0.2943
  789SOL    MW4 2890   5.737   5.912   1.377 -0.3010  0.2450 -0.1232
  790SOL     OW 2891   6.326   0.652   3.476 -0.1578 -0.2052  0.6266
  790SOL    HW2 2892   6.370   0.733   3.503 -2.0644  1.0569  0.1472
  790SOL    HW3 2893   6.249   0.647   3.533 -1.4785 -0.2421 -1.0954
  790SOL    MW4 2894   6.322   0.662   3.487  0.0792 -0.6179 -0.0402
  791SOL     OW 2895   1.669   3.586   5.907  0.5631  0.5191  0.1996
  791SOL    HW2 2896   1.696   3.514   5.964 -4.2112 -3.4143 -1.7982
  791SOL    HW3 2897   1.724   3.578   5.829 -1.2099 -2.6869 -0.8962
  791SOL    MW4 2898   1.680   3.575   5.904 -0.4413  0.2639 -0.1730
  792SOL     OW 2899   5.205   5.377   5.900 -0.4125 -0.3052 -0.2374
  792SOL    HW2 2900   5.294   5.343   5.888 -1.0751 -1.7907 -1.2229
  792SOL    HW3 2901   5.172   5.333   5.978 -0.4645 -0.1316 -0.1605
  792SOL    MW4 2902   5.213   5.367   5.908 -0.2510  0.4363 -0.2224
  793SOL     OW 2903   2.954   2.561   4.478 -0.5310  0.3777  0.4745
  793SOL    HW2 2904   2.928   2.641   4.433  0.2735 -0.8325 -2.3467
  793SOL    HW3 2905   2.872   2.516   4.496 -0.8499  0.3630 -0.9088
  793SOL    MW4 2906   2.940   2.566   4.474 -0.1931 -0.2848  0.2337
  794SOL     OW 2907   3.042   1.235   5.846 -0.3280 -0.1682 -0.0426
  794SOL    HW2 2908   3.056   1.252   5.753 -0.7825 -0.4569 -0.1645
  794SOL    HW3 2909   3.011   1.144   5.850  1.1556 -0.6896  0.5117
  794SOL    MW4 2910   3.040   1.225   5.834 -0.7973 -0.0673 -0.1808
  795SOL     OW 2911   5.301   5.858   6.324  0.1579  0.5588  0.5797
  795SOL    HW2 2912   5.387   5.900   6.335  0.3498  0.6934 -1.1823
  795SOL    HW3 2913   5.317   5.766   6.344  1.5226 -0.0580 -2.7327
  795SOL    MW4 2914   5.315   5.852   6.328  0.2177 -0.3064 -0.6246
  796SOL     OW 2915   3.509   0.519   3.113  0.2526 -0.2293 -0.1109
  796SOL    HW2 2916   3.441   0.579   3.144 -0.0530 -0.8732  0.4973
  796SOL    HW3 2917   3.470   0.475   3.038  0.4704  0.3018 -0.5467
  796SOL    MW4 2918   3.495   0.521   3.107  0.5119  0.3757 -0.3081
  797SOL     OW 2919   3.950   4.690   2.081  0.4545  0.0801 -0.4723
  797SOL    HW2 2920   3.903   4.766   2.115 -0.2931 -0.0385 -1.2004
  797SOL    HW3 2921   4.037   4.695   2.122  0.0224  0.6517  0.4097
  797SOL    MW4 2922   3.955   4.701   2.091 -0.0218 -0.7590  0.2088
  798SOL     OW 2923   2.596   0.621   2.833 -0.1767  0.2764  0.2923
  798SOL    HW2 2924   2.552   0.589   2.754  1.5989  2.1480 -1.5750
  798SOL    HW3 2925   2.689   0.611   2.815  0.2942  0.7764  2.1892
  798SOL    MW4 2926   2.602   0.615   2.820 -0.1892  0.6261 -0.0231
  799SOL     OW 2927   2.709   1.324   2.474 -0.2669  0.1711  0.3568
  799SOL    HW2 2928   2.714   1.229   2.477 -1.7570  0.0618  0.0998
  799SOL    HW3 2929   2.703   1.345   2.381 -0.3938  0.4846  0.4335
  799SOL    MW4 2930   2.709   1.314   2.462  0.3800  0.2421 -0.1875
  800SOL     OW 2931   2.179   1.628   1.993 -0.1199 -0.0049 -0.1071
  800SOL    HW2 2932   2.214   1.711   2.023 -0.7033  0.3409 -0.3460
  800SOL    HW3 2933   2.153   1.582   2.072 -0.1800  0.2232  0.0063
  800SOL    MW4 2934   2.180   1.633   2.007  0.1638  0.5156 -0.4638
  801SOL     OW 2935   4.112   4.865   3.619  0.7327  0.0357  0.0623
  801SOL    HW2 2936   4.137   4.782   3.578  2.3131  1.5100 -2.2372
  801SOL    HW3 2937   4.044   4.901   3.562  0.5162  0.6025  0.6589
  801SOL    MW4 2938   4.107   4.859   3.606 -0.5527 -0.4920  0.0151
  802SOL     OW 2939   2.797   2.916   5.762 -0.1983  0.3378  0.4220
  802SOL    HW2 2940   2.775   2.829   5.795 -0.7123  0.9812  1.8610
  802SOL    HW3 2941   2.847   2.957   5.833  1.9331  0.4903 -1.0665
  802SOL    MW4 2942   2.801   2.910   5.776  0.5401  0.4423  0.1248
  803SOL     OW 2943   4.128   1.313   1.202  0.4919  0.8076  0.8967
  803SOL    HW2 2944   4.094   1.397   1.172  0.4749  0.1543 -1.0897
  803SOL    HW3 2945   4.200   1.294   1.142  0.8236 -0.3634  1.6273
  803SOL    MW4 2946   4.133   1.321   1.190 -0.3882 -0.2253  0.1279
  804SOL     OW 2947   1.088   5.202   0.788 -0.2085 -0.0927 -0.1267
  804SOL    HW2 2948   1.162   5.210   0.728 -0.6778  0.4370 -0.6425
  804SOL    HW3 2949   1.028   5.272   0.763 -1.4305 -1.2189 -0.5005
  804SOL    MW4 2950   1.090   5.212   0.777 -0.0298 -0.5555 -0.0873
  805SOL     OW 2951   5.667   1.682   2.617  0.7544  0.5251 -0.2422
  805SOL    HW2 2952   5.623   1.622   2.556 -0.1680  2.0837 -1.1689
  805SOL    HW3 2953   5.695   1.755   2.563  2.1731  0.8034  0.8113
  805SOL    MW4 2954   5.665   1.684   2.602  0.3358 -0.2357  0.2651
  806SOL     OW 2955   5.441   0.959   1.029 -0.8760 -1.0871 -0.0885
  806SOL    HW2 2956   5.508   1.025   1.014 -2.5017  0.5461 -0.4749
  806SOL    HW3 2957   5.491   0.880   1.051  1.1647 -0.0352 -0.6173
  806SOL    MW4 2958   5.457   0.957   1.030  0.0421  0.1314  0.3109
  807SOL     OW 2959   4.736   2.632   1.544 -0.1954 -0.5523  0.5529
  807SOL    HW2 2960   4.666   2.568   1.532 -0.3931 -0.2235 -0.0849
  807SOL    HW3 2961   4.698   2.715   1.516  0.2724 -0.2704  0.7384
  807SOL    MW4 2962   4.722   2.634   1.539  0.6118  0.6459  0.3935
  808SOL     OW 2963   5.219   5.068   4.418 -0.3500 -0.4654 -0.0984
  808SOL    HW2 2964   5.197   5.128   4.489 -0.8137 -2.9348  1.9929
  808SOL    HW3 2965   5.265   4.996   4.460 -2.4091 -3.0446 -1.8866
  808SOL    MW4 2966   5.222   5.067   4.433  0.3461  0.5393  0.4988
  809SOL     OW 2967   0.153   0.307   1.468 -0.3598  0.1066 -0.0903
  809SOL    HW2 2968   0.074   0.298   1.522 -2.9079  0.0234 -3.4590
  809SOL    HW3 2969   0.145   0.394   1.430  1.7676  0.4715  0.2041
  809SOL    MW4 2970   0.141   0.317   1.470  0.1728 -0.0246 -0.1407
  810SOL     OW 2971   5.404   3.233   6.209  0.4467 -0.3447 -0.2663
  810SOL    HW2 2972   5.460   3.171   6.256  1.0603  0.1310 -0.3648
  810SOL    HW3 2973   5.422   3.317   6.250 -1.5502 -0.4279  0.9564
  810SOL    MW4 2974   5.414   3.236   6.221 -0.3135  0.1418 -0.5912
  811SOL     OW 2975   0.415   5.260   6.182 -0.0919 -0.5337 -0.4430
  811SOL    HW2 2976   0.469   5.194   6.138  0.6838  0.0172 -0.3516
  811SOL    HW3 2977   0.473   5.298   6.248  0.5101  2.2430 -2.3620
  811SOL    MW4 2978   0.430   5.256   6.185 -0.2824  0.1884  0.1283
  812SOL     OW 2979   2.672   1.942   0.270 -0.1015 -0.6565  0.0667
  812SOL    HW2 2980   2.702   1.991   0.193 -0.1441 -1.1375 -0.2589
  812SOL    HW3 2981   2.726   1.863   0.270 -1.6725 -1.7896 -0.8201
  812SOL    MW4 2982   2.683   1.938   0.260  0.9910  0.1271 -0.3622
  813SOL     OW 2983   2.663   0.183   5.887  0.2089  0.0116  0.0431
  813SOL    HW2 2984   2.755   0.207   5.881  0.2117  0.0014  0.0453
  813SOL    HW3 2985   2.618   0.242   5.827  0.3119 -0.5217 -0.5687
  813SOL    MW4 2986   2.669   0.194   5.878  0.3613  0.6504 -0.9570
  814SOL     OW 2987   3.240   5.723   2.787 -0.3750  0.2619 -0.7163
  814SOL    HW2 2988   3.144   5.716   2.782 -0.4595 -0.1060  0.8745
  814SOL    HW3 2989   3.269   5.635   2.813  0.1389  0.9981  1.4187
  814SOL    MW4 2990   3.231   5.711   2.790 -0.0516 -0.4508  0.3181
  815SOL     OW 2991   2.407   4.645   0.432 -0.4575  0.4187  0.7542
  815SOL    HW2 2992   2.472   4.676   0.495  1.4179 -0.6734 -0.5412
  815SOL    HW3 2993   2.448   4.659   0.346 -1.8086 -0.5847 -0.1037
  815SOL    MW4 2994   2.421   4.651   0.429 -0.8648 -0.5622  0.2710
  816SOL     OW 2995   5.082   6.257   4.240 -0.0428 -0.2867 -0.0138
  816SOL    HW2 2996   5.133   6.197   4.185 -0.8929  0.6783 -1.9369
  816SOL    HW3 2997   5.097   6.344   4.202  1.4028  0.8947  2.8596
  816SOL    MW4 2998   5.091   6.261   4.228  0.1800  0.3260  0.4775
  817SOL     OW 2999   6.201   5.896   4.680  0.2857  0.0158  0.1812
  817SOL    HW2 3000   6.146   5.822   4.653  1.1225 -0.6439  0.2504
  817SOL    HW3 3001   6.171   5.969   4.626 -0.4962 -0.3864  0.0490
  817SOL    MW4 3002   6.190   5.896   4.669 -0.5306  0.1609  0.4233
  818SOL     OW 3003   4.655   0.963   2.883  0.7073 -0.2669 -0.3196
  818SOL    HW2 3004   4.674   1.057   2.882  1.3324 -0.3841  0.0995
  818SOL    HW3 3005   4.726   0.925   2.934  0.7094 -1.0232 -0.8742
  818SOL    MW4 3006   4.667   0.971   2.889  0.0259 -0.0172 -0.7971
  819SOL     OW 3007   5.159   2.753   3.833 -0.7542 -0.0314 -0.2245
  819SOL    HW2 3008   5.233   2.707   3.872  0.5080  1.3009 -0.9300
  819SOL    HW3 3009   5.135   2.819   3.898 -1.4785 -0.5995  0.0923
  819SOL    MW4 3010   5.166   2.756   3.847 -0.1597  0.5827 -0.9722
  820SOL     OW 3011   5.142   3.188   3.268  0.4085  0.2101  0.0674
  820SOL    HW2 3012   5.193   3.269   3.274  0.0478  0.3423  1.8094
  820SOL    HW3 3013   5.205   3.122   3.241  1.4574  0.4563  1.7776
  820SOL    MW4 3014   5.157   3.190   3.265  0.3007 -0.4296 -0.0408
  821SOL     OW 3015   3.964   5.589   3.783 -0.1744  0.4160 -0.0563
  821SOL    HW2 3016   3.897   5.632   3.730  0.0695 -0.0926 -0.7945
  821SOL    HW3 3017   4.023   5.659   3.810  0.0839  0.5969 -1.0409
  821SOL    MW4 3018   3.963   5.604   3.779 -0.2653 -0.3414  0.5079
  822SOL     OW 3019   2.867   0.469   0.479 -0.4973  0.3287 -0.6853
  822SOL    HW2 3020   2.838   0.389   0.523  3.6978 -0.8409  0.4488
  822SOL    HW3 3021   2.868   0.536   0.548 -1.4468  0.6678 -0.9875
  822SOL    MW4 3022   2.863   0.467   0.494  0.4992  0.6736 -0.3978
  823SOL     OW 3023   1.182   1.798   0.795 -0.0742 -0.3932 -0.4736
  823SOL    HW2 3024   1.227   1.881   0.808  0.4485 -0.5068 -1.4767
  823SOL    HW3 3025   1.100   1.807   0.843  0.8388 -0.0521  1.1063
  823SOL    MW4 3026   1.177   1.810   0.803  0.5881  0.4194  0.7047
  824SOL     OW 3027   4.951   3.214   1.860 -0.3317 -0.3424 -0.2734
  824SOL    HW2 3028   4.886   3.264   1.909  0.2451 -0.3963  0.5623
  824SOL    HW3 3029   4.917   3.213   1.770 -0.8124  0.7620 -0.1269
  824SOL    MW4 3030   4.938   3.220   1.855  0.1021 -0.0889 -0.2394
  825SOL     OW 3031   0.625   4.765   2.907  0.0590 -0.2585 -0.3901
  825SOL    HW2 3032   0.534   4.791   2.894  0.5681  0.9670 -1.7756
  825SOL    HW3 3033   0.674   4.847   2.904  1.2298 -0.9134  0.2268
  825SOL    MW4 3034   0.619   4.779   2.905 -0.0336  0.1098  0.0275
  826SOL     OW 3035   1.605   1.269   5.013 -0.2199  0.2097 -1.0055
  826SOL    HW2 3036   1.574   1.345   4.965  2.3584  1.6420 -0.5912
  826SOL    HW3 3037   1.647   1.214   4.947  0.2945  0.4981 -0.9263
  826SOL    MW4 3038   1.606   1.271   4.998 -0.0986  0.1212  0.3294
  827SOL     OW 3039   5.796   3.407   4.601  0.0476 -0.5306  0.5166
  827SOL    HW2 3040   5.871   3.423   4.658  0.0839 -2.9906  1.2795
  827SOL    HW3 3041   5.791   3.485   4.546  1.8447  0.6311  1.8586
  827SOL    MW4 3042   5.805   3.419   4.601  0.7223  0.8700 -0.1314
  828SOL     OW 3043   4.282   0.584   3.835 -0.7984  0.2649  0.2647
  828SOL    HW2 3044   4.238   0.511   3.880  1.6694  0.1426  2.7950
  828SOL    HW3 3045   4.337   0.624   3.903  0.9839  1.9750 -2.0191
  828SOL    MW4 3046   4.284   0.579   3.850  0.6788  0.4057  0.4096
  829SOL     OW 3047   1.874   4.765   1.186 -0.1630  0.1603 -0.4419
  829SOL    HW2 3048   1.922   4.767   1.269  2.9149 -0.8988 -2.0248
  829SOL    HW3 3049   1.837   4.677   1.182  0.8579 -0.2821 -0.7116
  829SOL    MW4 3050   1.876   4.754   1.196 -0.3574 -0.0477 -0.3117
  830SOL     OW 3051   2.723   0.630   0.055  0.7558 -0.1972  0.5399
  830SOL    HW2 3052   2.674   0.608  -0.025 -0.3729  0.5899  0.9803
  830SOL    HW3 3053   2.810   0.594   0.040  0.6367  0.1127 -1.1457
  830SOL    MW4 3054   2.728   0.622   0.042  0.0716 -0.1445 -0.0736
  831SOL     OW 3055   5.283   4.446   0.915  0.6021 -0.4859 -0.0064
  831SOL    HW2 3056   5.356   4.391   0.888  2.1000  0.8147  1.1611
  831SOL    HW3 3057   5.256   4.411   1.000  0.8203 -0.1239  0.2177
  831SOL    MW4 3058   5.289   4.434   0.923  0.9289 -0.0945 -0.1260
  832SOL     OW 3059   4.685   5.568   2.633  0.0157  0.3399 -0.1540
  832SOL    HW2 3060   4.763   5.539   2.585  0.0658  1.4163 -0.7484
  832SOL    HW3 3061   4.621   5.497   2.619  0.5779 -0.1207 -0.4392
  832SOL    MW4 3062   4.687   5.555   2.625 -0.3289  0.4398  0.1675
  833SOL     OW 3063   4.828   2.865   1.225 -0.0463 -0.7761 -0.5361
  833SOL    HW2 3064   4.733   2.855   1.226 -0.3081  1.2539 -1.0185
  833SOL    HW3 3065   4.861   2.780   1.255 -2.0198 -1.2866  0.3823
  833SOL    MW4 3066   4.820   2.852   1.229 -0.1068 -0.1475  0.0597
  834SOL     OW 3067   2.137   4.522   4.928  0.5323  0.3675  0.4625
  834SOL    HW2 3068   2.134   4.603   4.979  3.1572  0.4451  0.6689
  834SOL    HW3 3069   2.182   4.460   4.986 -0.7673 -1.0336  0.0229
  834SOL    MW4 3070   2.143   4.524   4.943 -0.1019 -0.9170  0.1265
  835SOL     OW 3071   3.035   2.754   5.296  0.1127  0.2789  0.0891
  835SOL    HW2 3072   2.983   2.718   5.369 -0.7569  0.2725 -0.5170
  835SOL    HW3 3073   3.087   2.680   5.266  1.3098  0.5484  1.3900
  835SOL    MW4 3074   3.035   2.739   5.302 -0.0640  0.2851  0.1526
  836SOL     OW 3075   2.599   4.990   6.411 -0.4455 -0.2936  0.2367
  836SOL    HW2 3076   2.576   4.986   6.318  0.3205 -1.8056  0.0931
  836SOL    HW3 3077   2.687   4.952   6.416 -0.1809  0.4205  1.4944
  836SOL    MW4 3078   2.608   4.985   6.399  0.4726  0.1517 -0.0710
  837SOL     OW 3079   3.971   1.598   5.632 -0.2670  0.0021 -0.2228
  837SOL    HW2 3080   4.027   1.522   5.615 -0.5094 -0.2710  0.1851
  837SOL    HW3 3081   4.026   1.674   5.610  0.5284 -0.2332  0.8731
  837SOL    MW4 3082   3.986   1.598   5.627  0.3000 -0.0823 -0.2977
  838SOL     OW 3083   2.542   1.387   1.346 -0.1437 -0.5535 -0.0008
  838SOL    HW2 3084   2.505   1.298   1.347  0.9211 -1.0182  0.2358
  838SOL    HW3 3085   2.468   1.444   1.326 -0.7346 -1.5527 -0.7632
  838SOL    MW4 3086   2.528   1.383   1.344  0.8843 -0.1442 -0.7573
  839SOL     OW 3087   4.503   2.153   4.955  0.3354 -0.4811 -0.5857
  839SOL    HW2 3088   4.584   2.104   4.966  0.8215  0.4344  0.0976
  839SOL    HW3 3089   4.472   2.168   5.045 -1.2095 -1.7889 -0.8548
  839SOL    MW4 3090   4.509   2.149   4.968 -0.2865  0.3230  0.0910
  840SOL     OW 3091   3.790   4.266   3.982 -0.1912  0.3795  0.2204
  840SOL    HW2 3092   3.870   4.215   3.993  0.1730  1.0088  0.5559
  840SOL    HW3 3093   3.723   4.201   3.960 -0.6966 -0.8909  4.6338
  840SOL    MW4 3094   3.792   4.251   3.980 -0.1582 -0.5707 -0.8032
  841SOL     OW 3095   5.730   1.201   1.277  0.7912 -0.2367 -0.2723
  841SOL    HW2 3096   5.704   1.179   1.188  1.9730  0.5536 -0.8366
  841SOL    HW3 3097   5.648   1.211   1.324  0.0990  0.7318 -1.6204
  841SOL    MW4 3098   5.716   1.199   1.272 -0.1115  0.1369  0.1257
  842SOL     OW 3099   1.170   3.570   4.831 -0.1416  0.1869 -0.5529
  842SOL    HW2 3100   1.194   3.549   4.741 -0.8899 -0.9269 -0.5128
  842SOL    HW3 3101   1.200   3.495   4.882  0.5797  0.9652  0.1865
  842SOL    MW4 3102   1.177   3.557   4.826 -0.0859  0.1572  0.2024
  843SOL     OW 3103   4.132   6.398   3.883 -0.2536 -0.4403  0.7088
  843SOL    HW2 3104   4.105   6.485   3.853 -0.0945 -1.5323 -3.1979
  843SOL    HW3 3105   4.207   6.414   3.940  0.7894  1.9881 -1.1718
  843SOL    MW4 3106   4.138   6.411   3.887 -0.1341 -0.0494  0.3927
  844SOL     OW 3107   0.781   3.268   6.035  0.1853  0.2800 -0.0845
  844SOL    HW2 3108   0.823   3.340   6.083 -1.3594  1.4357 -0.3930
  844SOL    HW3 3109   0.687   3.282   6.048 -0.1566 -1.6745 -0.2133
  844SOL    MW4 3110   0.774   3.279   6.043 -0.4183 -0.1167 -0.1954
  845SOL     OW 3111   3.762   1.607   3.223  0.0981  0.2194 -0.3909
  845SOL    HW2 3112   3.785   1.656   3.144 -1.0216 -0.1668 -0.9867
  845SOL    HW3 3113   3.727   1.524   3.189 -0.1567 -0.0523  0.5231
  845SOL    MW4 3114   3.761   1.602   3.208  0.5362  0.6814 -0.4918
  846SOL     OW 3115   2.009   4.572   6.294  0.3079 -0.1707 -0.3065
  846SOL    HW2 3116   2.056   4.610   6.368  0.1071 -0.0464 -0.2401
  846SOL    HW3 3117   2.074   4.520   6.248 -0.0418 -2.0028  1.1580
  846SOL    MW4 3118   2.024   4.570   6.298  0.4097  0.0227 -0.1588
  847SOL     OW 3119   5.994   4.989   3.716 -0.4065  0.0616  0.6484
  847SOL    HW2 3120   5.923   5.049   3.694 -0.8563 -0.6219  0.2047
  847SOL    HW3 3121   6.063   5.010   3.654 -1.0979 -0.8186 -0.4607
  847SOL    MW4 3122   5.994   4.999   3.705  0.0966 -0.2631  0.1688
  848SOL     OW 3123   6.323   2.818   4.164 -0.1708  0.0036  0.2297
  848SOL    HW2 3124   6.367   2.772   4.235 -0.9105  0.4234  0.9773
  848SOL    HW3 3125   6.317   2.754   4.093  1.6506 -0.0620  0.0723
  848SOL    MW4 3126   6.328   2.804   4.164  0.0342  0.6818 -0.4307
  849SOL     OW 3127   2.351   3.670   0.113 -0.1867 -0.3570 -0.0218
  849SOL    HW2 3128   2.421   3.632   0.060  0.8150  0.8178  0.4011
  849SOL    HW3 3129   2.349   3.762   0.088 -0.4080 -0.0076  1.1925
  849SOL    MW4 3130   2.360   3.677   0.103 -0.4629 -0.2764  0.0321
  850SOL     OW 3131   0.346   1.253   2.308 -0.7381 -0.0532 -0.4261
  850SOL    HW2 3132   0.382   1.227   2.223 -3.5351 -0.9233 -1.4787
  850SOL    HW3 3133   0.421   1.284   2.358  1.1487 -0.3053 -2.9119
  850SOL    MW4 3134   0.360   1.254   2.303 -0.1462  0.1786 -0.9762
  851SOL     OW 3135   2.720   1.058   2.486 -0.6904  0.0449  0.1036
  851SOL    HW2 3136   2.630   1.026   2.491 -0.9686  0.6198 -0.9838
  851SOL    HW3 3137   2.751   1.059   2.576 -1.9124  0.2280  0.5276
  851SOL    MW4 3138   2.713   1.054   2.498  0.2508 -0.3800 -0.4088
  852SOL     OW 3139   3.559   2.454   5.765 -0.6617 -0.1869  0.1724
  852SOL    HW2 3140   3.487   2.435   5.704 -0.3750  0.4730 -0.3918
  852SOL    HW3 3141   3.630   2.398   5.736 -0.4423  0.3107 -0.2775
  852SOL    MW4 3142   3.559   2.444   5.753 -0.7016 -0.0958  0.8979
  853SOL     OW 3143   5.415   5.009   5.165 -0.6189  0.3966  0.5893
  853SOL    HW2 3144   5.396   4.979   5.254 -1.0647 -0.4954  0.2075
  853SOL    HW3 3145   5.432   4.929   5.116  1.8352  0.9860  0.3502
  853SOL    MW4 3146   5.415   4.995   5.170 -0.0575  0.3882 -0.2892
  854SOL     OW 3147   5.258   0.635   1.736 -0.9138 -0.0060 -0.1687
  854SOL    HW2 3148   5.230   0.721   1.703  1.4556  1.4821  1.3539
  854SOL    HW3 3149   5.207   0.622   1.816 -0.0188  0.8802  0.5657
  854SOL    MW4 3150   5.247   0.645   1.742 -0.0215 -0.0979  0.2155
  855SOL     OW 3151   3.129   5.428   5.378  0.6299 -0.2425 -0.3177
  855SOL    HW2 3152   3.135   5.460   5.469 -0.3351 -1.3445  0.1545
  855SOL    HW3 3153   3.070   5.490   5.335  0.1685 -0.3690  0.1222
  855SOL    MW4 3154   3.122   5.440   5.385 -0.1512  0.3830 -0.4006
  856SOL     OW 3155   3.662   3.175   3.281  0.2206 -0.6730  0.1908
  856SOL    HW2 3156   3.740   3.120   3.271  0.4793 -0.4298  0.8219
  856SOL    HW3 3157   3.628   3.184   3.192  0.0259 -2.0585  0.1006
  856SOL    MW4 3158   3.668   3.168   3.268 -0.6311 -0.6585 -0.5328
  857SOL     OW 3159   4.049   5.522   4.060 -0.1378 -0.6547 -0.3735
  857SOL    HW2 3160   4.038   5.559   3.972  0.9915 -1.3564 -0.8305
  857SOL    HW3 3161   4.052   5.599   4.118 -0.8578 -0.1869 -0.9398
  857SOL    MW4 3162   4.048   5.537   4.056  0.2179 -0.4360  0.2754
  858SOL     OW 3163   3.764   2.886   6.271  0.1501 -0.6558 -0.4789
  858SOL    HW2 3164   3.774   2.911   6.362 -0.1384 -0.0176 -0.6151
  858SOL    HW3 3165   3.697   2.817   6.272 -1.6617  1.0342 -0.4341
  858SOL    MW4 3166   3.756   2.880   6.283 -0.4415  0.5040  0.2498
  859SOL     OW 3167   4.801   5.651   1.326  0.2697 -0.1027 -0.1888
  859SOL    HW2 3168   4.842   5.610   1.251  1.0011 -0.2503  0.2778
  859SOL    HW3 3169   4.717   5.607   1.336  0.3715 -0.3948 -0.6407
  859SOL    MW4 3170   4.796   5.640   1.318  0.2060  0.6707  0.2659
  860SOL     OW 3171   5.610   1.281   2.577  0.2129  0.7041 -0.3586
  860SOL    HW2 3172   5.653   1.307   2.659  0.1463 -0.9261  0.2311
  860SOL    HW3 3173   5.581   1.363   2.538 -0.0207  1.5086  1.4041
  860SOL    MW4 3174   5.612   1.295   2.583 -0.4195 -0.9349  0.5571
  861SOL     OW 3175   6.378   6.306   5.397  0.0199  0.1684  0.0367
  861SOL    HW2 3176   6.356   6.225   5.443  1.5396  1.3005  3.0305
  861SOL    HW3 3177   6.306   6.366   5.420  0.5215  0.5878  0.5326
  861SOL    MW4 3178   6.365   6.303   5.406 -0.0084  0.4397  0.0098
  862SOL     OW 3179   4.425   4.868   2.142  0.0100 -0.1112  0.2067
  862SOL    HW2 3180   4.382   4.806   2.083 -0.9642 -0.1843  0.9718
  862SOL    HW3 3181   4.392   4.954   2.115 -0.3501 -0.1342  0.5731
  862SOL    MW4 3182   4.415   4.871   2.131 -0.0828 -0.1398  0.0670
  863SOL     OW 3183   3.144   5.891   1.543  0.1451 -0.2186  0.2349
  863SOL    HW2 3184   3.139   5.944   1.622  1.5857 -0.1404  0.3084
  863SOL    HW3 3185   3.072   5.922   1.488  0.1467  0.8717  0.8275
  863SOL    MW4 3186   3.134   5.902   1.546 -0.4622 -0.0036 -0.0402
  864SOL     OW 3187   0.170   5.056   2.510  0.1625  0.0117 -0.3503
  864SOL    HW2 3188   0.206   5.136   2.471 -1.5451  0.9792 -0.0144
  864SOL    HW3 3189   0.148   5.001   2.435 -1.0145  0.9328 -0.7139
  864SOL    MW4 3190   0.172   5.059   2.495  0.4815 -0.0524 -0.4766
  865SOL     OW 3191   1.981   5.735   5.655 -0.1450 -0.5110  0.4276
  865SOL    HW2 3192   2.025   5.775   5.730 -0.7891 -1.5333  1.3683
  865SOL    HW3 3193   2.050   5.683   5.612 -0.2234 -1.4559  1.4232
  865SOL    MW4 3194   1.996   5.733   5.659  0.4452 -0.5556  0.6248
  866SOL     OW 3195   2.543   4.170   5.505 -0.0935  0.1878  0.2273
  866SOL    HW2 3196   2.491   4.230   5.453  1.0028  0.2337 -0.8835
  866SOL    HW3 3197   2.545   4.089   5.454  0.3984 -0.0100  0.5426
  866SOL    MW4 3198   2.537   4.167   5.492  0.1346  0.1823 -1.6060
  867SOL     OW 3199   4.143   2.784   0.839 -0.8262 -0.2826 -0.2485
  867SOL    HW2 3200   4.119   2.691   0.840  0.6911 -0.7083 -0.1055
  867SOL    HW3 3201   4.231   2.785   0.801 -0.2794  0.9361  0.9590
  867SOL    MW4 3202   4.152   2.772   0.834  0.3568  0.1649  0.6152
  868SOL     OW 3203   1.347   2.418   0.954  0.0333 -0.5165 -0.4526
  868SOL    HW2 3204   1.376   2.396   0.866 -1.5762 -1.6532 -0.7467
  868SOL    HW3 3205   1.251   2.421   0.948 -0.0431  1.9870  0.6858
  868SOL    MW4 3206   1.338   2.416   0.942  0.1993 -0.1650  0.3097
  869SOL     OW 3207   6.072   0.197   3.144  0.2955 -0.1964  0.4708
  869SOL    HW2 3208   6.038   0.277   3.106  0.1441 -0.2874  0.4141
  869SOL    HW3 3209   6.050   0.128   3.081 -0.4354 -0.4326  0.9614
  869SOL    MW4 3210   6.065   0.198   3.131 -0.3867 -0.1809  0.5611
  870SOL     OW 3211   2.584   1.059   4.538  0.5075  0.0571 -0.4465
  870SOL    HW2 3212   2.531   1.045   4.460 -0.9909  1.4015  0.2794
  870SOL    HW3 3213   2.592   0.973   4.578 -0.3847 -0.3125 -1.0401
  870SOL    MW4 3214   2.578   1.046   4.533 -0.1372  0.2739 -0.4866
  871SOL     OW 3215   4.485   3.215   2.296 -0.5613 -0.3181  0.8470
  871SOL    HW2 3216   4.428   3.239   2.223 -0.2044 -2.6035 -0.2734
  871SOL    HW3 3217   4.464   3.123   2.313 -1.0472  0.2535  4.0716
  871SOL    MW4 3218   4.474   3.206   2.289  0.6433  0.1594  0.1979
  872SOL     OW 3219   3.155   1.463  -0.001  0.4373 -0.0265  0.8426
  872SOL    HW2 3220   3.091   1.402  -0.037  1.9873 -2.3728  1.8450
  872SOL    HW3 3221   3.240   1.423  -0.019  1.7557  3.0975 -0.6815
  872SOL    MW4 3222   3.158   1.450  -0.008  0.0248 -0.2045 -0.3563
  873SOL     OW 3223   0.247   1.024   3.897 -0.2081 -0.4739 -0.2969
  873SOL    HW2 3224   0.169   0.984   3.935  1.3076 -1.2454  2.2130
  873SOL    HW3 3225   0.262   1.104   3.949  0.4947 -0.1512 -0.9597
  873SOL    MW4 3226   0.239   1.030   3.909 -0.9850 -0.2092  0.0920
  874SOL     OW 3227   4.996   3.546   5.225 -0.4637 -0.0853 -0.4366
  874SOL    HW2 3228   4.950   3.595   5.157 -1.4707 -0.2332  0.1108
  874SOL    HW3 3229   4.928   3.526   5.290 -0.0887 -2.1380 -0.5992
  874SOL    MW4 3230   4.981   3.550   5.225  0.0959 -0.7196 -0.7362
  875SOL     OW 3231   0.534   1.140   4.740  0.3933 -0.0444  0.6890
  875SOL    HW2 3232   0.619   1.181   4.754  0.3240  0.1081  0.6683
  875SOL    HW3 3233   0.553   1.058   4.695  0.4063  0.7683 -0.8471
  875SOL    MW4 3234   0.547   1.134   4.736 -0.1259 -0.3791  0.3301
  876SOL     OW 3235   5.414   2.653   4.913 -0.2945  0.1471 -0.3895
  876SOL    HW2 3236   5.492   2.600   4.933 -1.0590 -1.5589 -1.7000
  876SOL    HW3 3237   5.449   2.739   4.889  1.1094 -0.2755  0.0356
  876SOL    MW4 3238   5.429   2.657   4.912  1.0131 -0.3506  0.0333
  877SOL     OW 3239   2.881   1.355   2.937  0.0396  0.3211  0.0374
  877SOL    HW2 3240   2.832   1.432   2.907 -1.6390 -0.8181 -0.2505
  877SOL    HW3 3241   2.910   1.378   3.025 -0.1367  1.4156 -0.1747
  877SOL    MW4 3242   2.879   1.368   2.945 -0.4950 -0.3038 -0.5151
  878SOL     OW 3243   5.061   1.055   1.152 -0.6947  0.1676 -0.0351
  878SOL    HW2 3244   5.056   0.990   1.082 -0.7383 -1.2430  1.2444
  878SOL    HW3 3245   5.099   1.009   1.227  2.5274  2.4420 -0.0119
  878SOL    MW4 3246   5.065   1.041   1.153 -0.4347 -0.0978 -0.2845
  879SOL     OW 3247   1.513   3.062   3.161 -0.1449 -0.0051  0.0389
  879SOL    HW2 3248   1.608   3.077   3.152 -0.2515  0.4686 -0.3459
  879SOL    HW3 3249   1.484   3.126   3.225 -0.1226 -0.5030  0.5567
  879SOL    MW4 3250   1.522   3.072   3.168  0.3876 -0.5721 -0.1352
  880SOL     OW 3251   1.526   5.775   4.795  0.2169 -0.3397 -0.1382
  880SOL    HW2 3252   1.545   5.743   4.884  0.1802  1.0250  0.3717
  880SOL    HW3 3253   1.435   5.802   4.797  0.2274 -0.2536 -0.5845
  880SOL    MW4 3254   1.517   5.774   4.807  0.4121 -0.2972 -0.0933
  881SOL     OW 3255   0.883   0.348   0.694 -0.4114 -0.8097 -0.0764
  881SOL    HW2 3256   0.868   0.254   0.685  0.7568 -0.7812 -3.4348
  881SOL    HW3 3257   0.804   0.389   0.658 -0.4171 -0.4927  0.2867
  881SOL    MW4 3258   0.871   0.341   0.688  0.5777 -0.3379  0.2199
  882SOL     OW 3259   3.957   0.273   5.221  0.2107 -0.0701 -0.2215
  882SOL    HW2 3260   3.891   0.210   5.250  0.7218 -1.0329 -1.0780
  882SOL    HW3 3261   4.040   0.226   5.229  0.6760  0.7219 -0.2581
  882SOL    MW4 3262   3.959   0.259   5.226  0.8313 -0.3282  0.5669
  883SOL     OW 3263   5.042   5.985   0.001 -0.3489  0.1169 -0.4335
  883SOL    HW2 3264   5.017   6.052  -0.062 -3.7157 -2.4831 -2.2093
  883SOL    HW3 3265   5.122   5.947  -0.034  0.1467  1.4337 -0.7842
  883SOL    MW4 3266   5.049   5.989  -0.012  0.4098 -0.1134 -0.2071
  884SOL     OW 3267   3.175   3.538   5.817  0.4192  0.0134 -0.3636
  884SOL    HW2 3268   3.216   3.463   5.775 -0.5802  0.2989 -1.9125
  884SOL    HW3 3269   3.238   3.565   5.884  0.8937 -2.0629  0.1194
  884SOL    MW4 3270   3.188   3.531   5.820 -0.1041 -0.0995  0.3212
  885SOL     OW 3271   4.478   4.796   5.624  0.1291 -0.1368  0.1603
  885SOL    HW2 3272   4.437   4.849   5.693 -0.0375  0.5539 -0.4501
  885SOL    HW3 3273   4.433   4.822   5.544  0.1989 -1.0600 -0.1898
  885SOL    MW4 3274   4.467   4.807   5.622 -0.2955 -0.7016  0.5360
  886SOL     OW 3275   0.260   2.290   1.520  0.2609  0.2614  0.2110
  886SOL    HW2 3276   0.167   2.291   1.545 -0.0645 -0.3534 -0.9108
  886SOL    HW3 3277   0.289   2.202   1.540  0.3839  0.2122 -0.1715
  886SOL    MW4 3278   0.251   2.279   1.526 -0.5062 -0.3234 -0.1592
  887SOL     OW 3279   4.086   0.983   1.510 -0.3985  0.2174 -0.3682
  887SOL    HW2 3280   4.118   0.961   1.423  2.4353 -0.1054  0.6194
  887SOL    HW3 3281   4.093   0.901   1.559 -0.0838  0.8116  0.6142
  887SOL    MW4 3282   4.091   0.970   1.505 -0.1142  0.1099  0.2953
  888SOL     OW 3283   4.440   4.981   0.141  0.2634 -0.0382  0.6523
  888SOL    HW2 3284   4.366   4.946   0.091  0.6805 -1.2252  0.8283
  888SOL    HW3 3285   4.413   4.973   0.233  0.9197 -1.2778  0.7584
  888SOL    MW4 3286   4.426   4.976   0.147 -0.7459  0.1404 -0.8204
  889SOL     OW 3287   1.555   6.156   0.702 -0.1501 -0.0487 -0.0796
  889SOL    HW2 3288   1.489   6.187   0.639  1.1193  0.2775 -1.2958
  889SOL    HW3 3289   1.615   6.103   0.649  0.2374 -0.8487  1.1259
  889SOL    MW4 3290   1.554   6.153   0.687 -0.2944  0.2522 -0.0513
  890SOL     OW 3291   0.033   1.149   0.233  0.5561 -0.1173  0.2159
  890SOL    HW2 3292   0.078   1.208   0.173  0.1186  0.0340  0.0381
  890SOL    HW3 3293   0.088   1.071   0.235  0.7715  0.0252 -0.0838
  890SOL    MW4 3294   0.046   1.146   0.225  0.1760 -0.0250 -0.0899
  891SOL     OW 3295   0.276   5.318   0.749  0.0951 -0.2177  0.1913
  891SOL    HW2 3296   0.221   5.273   0.685  0.4723  0.1781 -0.4203
  891SOL    HW3 3297   0.339   5.367   0.697 -0.6555  1.4871  0.8068
  891SOL    MW4 3298   0.277   5.319   0.734  0.2829 -0.0131  0.0554
  892SOL     OW 3299   5.521   1.910   1.450  0.1153 -0.2509  0.2408
  892SOL    HW2 3300   5.511   2.002   1.475  0.4879 -0.3019  0.5996
  892SOL    HW3 3301   5.523   1.863   1.533 -1.0805 -0.7037  0.0308
  892SOL    MW4 3302   5.520   1.916   1.464  0.2862 -0.2376  0.1780
  893SOL     OW 3303   0.626   1.666   4.364 -0.3549 -0.3499 -0.0583
  893SOL    HW2 3304   0.535   1.690   4.348 -0.0686  0.0867 -1.1330
  893SOL    HW3 3305   0.668   1.747   4.392 -0.3392 -0.5967  0.6371
  893SOL    MW4 3306   0.619   1.680   4.365  0.3015 -0.4711 -0.1752
  894SOL     OW 3307   4.916   6.426   1.117 -0.5012  0.0476  0.3871
  894SOL    HW2 3308   4.908   6.508   1.165 -1.7250 -1.1610  2.4363
  894SOL    HW3 3309   4.992   6.383   1.156 -0.7970 -0.4386  0.4443
  894SOL    MW4 3310   4.925   6.431   1.129 -0.2174  0.0446  0.4508
  895SOL     OW 3311   5.368   1.005   3.785  0.1177 -0.1886  0.0083
  895SOL    HW2 3312   5.279   0.969   3.779  0.5427 -1.2264 -0.4218
  895SOL    HW3 3313   5.421   0.931   3.816  1.2847 -0.3922 -2.2754
  895SOL    MW4 3314   5.363   0.990   3.788 -0.0674 -0.1183  0.2390
  896SOL     OW 3315   3.573   6.064   0.978 -0.0345 -0.3396 -0.0427
  896SOL    HW2 3316   3.617   5.981   0.958  0.8751 -0.2305  1.3932
  896SOL    HW3 3317   3.627   6.104   1.046 -1.1141  0.8908  0.1262
  896SOL    MW4 3318   3.586   6.058   0.984 -0.4431 -0.0678  0.2447
  897SOL     OW 3319   4.035   0.523   0.725 -0.6602  1.0386 -0.3445
  897SOL    HW2 3320   4.043   0.538   0.631  0.4533  0.6551 -0.3360
  897SOL    HW3 3321   4.004   0.432   0.732  0.2307  0.7236 -0.3480
  897SOL    MW4 3322   4.032   0.513   0.713 -0.3742  0.5803  0.5506
  898SOL     OW 3323   5.468   4.345   3.117  0.1590 -0.9286 -0.4524
  898SOL    HW2 3324   5.387   4.333   3.066 -0.8784 -0.8237  1.1032
  898SOL    HW3 3325   5.469   4.438   3.140  0.1702 -1.1336  0.4047
  898SOL    MW4 3326   5.457   4.355   3.113 -0.3961 -0.1838 -0.3411
  899SOL     OW 3327   2.394   4.348   5.363  0.2061 -0.2181 -0.1909
  899SOL    HW2 3328   2.312   4.335   5.411  0.7665 -1.5410  0.4569
  899SOL    HW3 3329   2.424   4.435   5.391 -0.7684  0.1290 -0.1617
  899SOL    MW4 3330   2.387   4.358   5.373 -0.1011  0.3315 -0.6784
  900SOL     OW 3331   3.684   4.433   4.185 -0.3545 -0.9794  0.0051
  900SOL    HW2 3332   3.728   4.362   4.138  1.5268  0.0751  0.0743
  900SOL    HW3 3333   3.633   4.389   4.253 -4.4707 -2.7411 -3.7274
  900SOL    MW4 3334   3.683   4.417   4.188 -0.2590 -0.3934  0.0802
  901SOL     OW 3335   4.189   3.365   1.748 -0.4411 -0.1832  0.5395
  901SOL    HW2 3336   4.094   3.376   1.760 -0.2215 -0.1500  2.4993
  901SOL    HW3 3337   4.204   3.271   1.756 -0.1767 -0.0726  1.4089
  901SOL    MW4 3338   4.178   3.354   1.750  0.1164 -0.0004  0.5667
  902SOL     OW 3339   6.359   4.774   3.026  0.1808 -0.6807  0.5003
  902SOL    HW2 3340   6.378   4.796   2.934  0.8863 -0.6152  0.6506
  902SOL    HW3 3341   6.265   4.789   3.036 -0.0245 -1.3385 -0.3858
  902SOL    MW4 3342   6.349   4.779   3.015  0.2150  0.2520  0.5711
  903SOL     OW 3343   1.980   5.264   1.621  0.1180 -0.1192 -0.1524
  903SOL    HW2 3344   1.908   5.302   1.570 -0.1648  0.8244  0.9169
  903SOL    HW3 3345   1.973   5.305   1.707  0.4151 -1.8982  0.7660
  903SOL    MW4 3346   1.970   5.275   1.625 -0.0935  0.0436  0.0396
  904SOL     OW 3347   2.218   1.224   4.716  0.0493  0.1464  0.3101
  904SOL    HW2 3348   2.196   1.189   4.630  2.3771  0.3348 -0.4182
  904SOL    HW3 3349   2.254   1.311   4.699 -0.1687  0.5165  1.5671
  904SOL    MW4 3350   2.220   1.231   4.703  0.1839 -0.9492 -0.4009
  905SOL     OW 3351   0.976   1.269   2.894 -0.3848  0.3716  0.4540
  905SOL    HW2 3352   0.926   1.188   2.893  0.9676 -0.5645 -2.2312
  905SOL    HW3 3353   1.067   1.242   2.907  0.4268  1.0634 -2.8429
  905SOL    MW4 3354   0.981   1.255   2.895 -0.8579 -0.5256 -0.4855
  906SOL     OW 3355   5.132   5.375   4.487 -0.1596  0.7159  0.1647
  906SOL    HW2 3356   5.052   5.334   4.456 -0.3452  0.4176  1.0104
  906SOL    HW3 3357   5.118   5.387   4.581  0.8130  0.5906  0.3345
  906SOL    MW4 3358   5.120   5.371   4.496 -0.0847  0.7487 -0.3874
  907SOL     OW 3359   0.750   5.950   2.801  0.4552 -0.2162 -0.0876
  907SOL    HW2 3360   0.827   5.979   2.751  0.3801  1.8596  0.8896
  907SOL    HW3 3361   0.675   5.981   2.749  0.3332 -0.2462  0.0691
  907SOL    MW4 3362   0.750   5.958   2.787  0.0345 -0.1105 -0.2579
  908SOL     OW 3363   6.090   0.606   3.645 -0.3924  0.0024 -0.5679
  908SOL    HW2 3364   6.072   0.673   3.711 -1.3192 -1.1149  0.3573
  908SOL    HW3 3365   6.016   0.546   3.651 -1.4783  0.8349 -3.9325
  908SOL    MW4 3366   6.078   0.607   3.655  0.2482 -0.4328  1.0705
  909SOL     OW 3367   1.014   1.047   2.116 -0.1006  0.3764  0.5014
  909SOL    HW2 3368   0.977   0.985   2.179  1.3477 -1.4400 -0.3474
  909SOL    HW3 3369   1.108   1.038   2.126  0.2099 -0.8224 -2.6695
  909SOL    MW4 3370   1.021   1.038   2.126  0.0391 -0.4042 -0.1525
  910SOL     OW 3371   0.448   5.566   5.483  0.3079  0.1100  0.0425
  910SOL    HW2 3372   0.475   5.522   5.564 -1.1626 -0.8577  0.0496
  910SOL    HW3 3373   0.357   5.593   5.500 -0.5582 -1.4617 -1.7910
  910SOL    MW4 3374   0.439   5.564   5.496  0.2062  0.1028  0.0923
  911SOL     OW 3375   1.756   3.890   4.335  0.4061 -0.0714 -0.0382
  911SOL    HW2 3376   1.839   3.884   4.288  0.4465  0.8121 -0.1106
  911SOL    HW3 3377   1.779   3.884   4.427  0.3474 -1.6248 -0.1068
  911SOL    MW4 3378   1.770   3.889   4.341  0.2511  0.1762  0.2345
  912SOL     OW 3379   2.286   4.641   1.500 -0.0964  0.0684  0.2110
  912SOL    HW2 3380   2.300   4.556   1.458 -1.0667  0.7623 -1.6468
  912SOL    HW3 3381   2.351   4.698   1.461  0.0609  0.3627  0.8934
  912SOL    MW4 3382   2.296   4.637   1.490  0.2916 -0.0592  0.0767
  913SOL     OW 3383   6.122   4.223   2.813 -0.0163  0.3382  0.1695
  913SOL    HW2 3384   6.049   4.285   2.816 -1.3913 -1.2293  1.0573
  913SOL    HW3 3385   6.133   4.196   2.904 -0.1927 -1.5095 -0.3269
  913SOL    MW4 3386   6.114   4.228   2.826  0.1305  0.1400 -0.3875
  914SOL     OW 3387   1.683   1.542   0.357  0.5614  0.1065  0.0585
  914SOL    HW2 3388   1.730   1.610   0.308  0.3649  1.0451  1.1367
  914SOL    HW3 3389   1.595   1.542   0.319  0.6008  0.3663 -0.0380
  914SOL    MW4 3390   1.678   1.551   0.346 -0.1892  0.5208 -0.0027
  915SOL     OW 3391   0.030   4.211   0.893  0.5285 -0.3853 -0.0995
  915SOL    HW2 3392  -0.003   4.301   0.884  0.3484 -0.4512 -0.0911
  915SOL    HW3 3393   0.125   4.221   0.891  0.5309 -0.4279 -2.3946
  915SOL    MW4 3394   0.038   4.224   0.892 -0.2292 -0.5511  0.5640
  916SOL     OW 3395   1.223   5.513   4.944 -0.2294 -0.4127 -0.1144
  916SOL    HW2 3396   1.298   5.561   4.980  0.2532 -0.5493 -0.9139
  916SOL    HW3 3397   1.226   5.429   4.989  0.8090 -0.8590 -0.9616
  916SOL    MW4 3398   1.234   5.508   4.955  0.2173  0.6283  0.3864
  917SOL     OW 3399   0.385   5.946   5.672 -0.2368  0.0518  0.2812
  917SOL    HW2 3400   0.316   5.996   5.715 -0.4709  0.0809 -0.1224
  917SOL    HW3 3401   0.390   5.865   5.722 -1.4080 -0.4742 -0.4106
  917SOL    MW4 3402   0.376   5.942   5.684  0.2647  0.5474  0.0045
  918SOL     OW 3403   4.927   0.669   4.955  0.1827 -0.3597  0.0384
  918SOL    HW2 3404   5.022   0.664   4.948  0.1942  1.1455 -1.5921
  918SOL    HW3 3405   4.897   0.578   4.942  1.3606 -0.8078  0.3395
  918SOL    MW4 3406   4.936   0.656   4.952 -0.2923  0.0861 -0.2302
  919SOL     OW 3407   2.299   4.082   5.074  0.1145 -0.0568 -0.5120
  919SOL    HW2 3408   2.391   4.101   5.055  0.2945 -0.0214  0.3721
  919SOL    HW3 3409   2.255   4.090   4.989  0.9728 -0.3720 -0.9958
  919SOL    MW4 3410   2.305   4.086   5.060  0.1588 -0.1105  0.6633
  920SOL     OW 3411   5.907   1.819   3.202 -0.2524 -0.3542  0.3277
  920SOL    HW2 3412   5.853   1.750   3.163 -1.6781  1.3180 -0.7727
  920SOL    HW3 3413   5.868   1.833   3.289 -1.4643  0.6268 -0.3401
  920SOL    MW4 3414   5.895   1.812   3.209 -0.1898  0.3930 -0.1924
  921SOL     OW 3415   6.056   5.281   3.699  0.3533 -0.2425 -0.5491
  921SOL    HW2 3416   6.108   5.201   3.699  0.2463 -0.3160 -1.3801
  921SOL    HW3 3417   6.037   5.298   3.607  0.6374  0.9105 -0.4098
  921SOL    MW4 3418   6.060   5.273   3.687 -0.0484  0.5706 -0.9477
  922SOL     OW 3419   3.608   2.001   2.327 -0.2440 -0.1351 -0.3193
  922SOL    HW2 3420   3.596   2.093   2.304 -3.0416  0.2536  2.0734
  922SOL    HW3 3421   3.607   1.955   2.243  0.1982  1.9019 -1.5075
  922SOL    MW4 3422   3.607   2.007   2.313 -0.3117  0.0230  0.3852
  923SOL     OW 3423   3.109   1.633   3.010  0.2750 -0.6477  0.4084
  923SOL    HW2 3424   3.201   1.655   3.020  0.3054 -0.8010  0.4562
  923SOL    HW3 3425   3.063   1.717   3.021  0.5194 -0.2494 -1.3115
  923SOL    MW4 3426   3.115   1.647   3.013 -0.6848  0.2538 -0.2758
  924SOL     OW 3427   6.181   5.295   0.894 -0.2943  0.4231 -0.3418
  924SOL    HW2 3428   6.147   5.372   0.849 -1.8189 -0.6644 -1.1231
  924SOL    HW3 3429   6.231   5.249   0.826  1.6034  1.2627  0.4194
  924SOL    MW4 3430   6.183   5.299   0.879 -0.0043  0.5249  0.2540
  925SOL     OW 3431   3.977   4.106   5.357 -0.0036  0.1565  0.4078
  925SOL    HW2 3432   3.886   4.135   5.355 -0.2510 -0.3863  1.9061
  925SOL    HW3 3433   3.975   4.027   5.412  1.3410  0.0180  0.2912
  925SOL    MW4 3434   3.964   4.099   5.364  0.1111 -0.1077 -0.0848
  926SOL     OW 3435   1.361   3.602   2.740  0.0759  0.3439 -0.1547
  926SOL    HW2 3436   1.360   3.610   2.836 -0.1033 -0.2931 -0.0955
  926SOL    HW3 3437   1.296   3.534   2.721 -0.9467  1.4747 -0.8434
  926SOL    MW4 3438   1.353   3.594   2.750 -0.1283 -0.2847 -0.2746
  927SOL     OW 3439   3.301   0.864   1.207  0.1908 -0.2810 -0.0605
  927SOL    HW2 3440   3.371   0.803   1.229  1.0920  0.2661 -1.2408
  927SOL    HW3 3441   3.297   0.861   1.111 -1.4198 -0.2898 -0.0244
  927SOL    MW4 3442   3.310   0.855   1.197 -0.1719  0.1382 -0.6067
  928SOL     OW 3443   5.610   5.496   0.400  0.3534  0.0809  0.0661
  928SOL    HW2 3444   5.613   5.549   0.479 -0.6683 -1.2937  1.0869
  928SOL    HW3 3445   5.688   5.441   0.405 -0.0447 -0.4558  0.4665
  928SOL    MW4 3446   5.620   5.495   0.411  0.3110  0.4444  0.4673
  929SOL     OW 3447   4.264   5.894   0.096 -0.1531  0.4378 -0.2707
  929SOL    HW2 3448   4.286   5.801   0.091  1.6956  0.8661 -1.2921
  929SOL    HW3 3449   4.178   5.901   0.055 -0.2892 -0.8189 -0.2211
  929SOL    MW4 3450   4.256   5.883   0.090  0.1603 -0.3311 -0.4173
  930SOL     OW 3451   5.159   0.764   5.506  0.1656  0.0192 -0.3345
  930SOL    HW2 3452   5.109   0.824   5.451  0.3664  0.4852 -0.0205
  930SOL    HW3 3453   5.101   0.690   5.521  0.3705 -0.4567 -1.7767
  930SOL    MW4 3454   5.145   0.762   5.501 -0.3343  0.0957  0.3752
  931SOL     OW 3455   3.391   2.819   5.512  0.0268  0.4278  0.2321
  931SOL    HW2 3456   3.356   2.861   5.434  0.8986 -1.1397 -1.0678
  931SOL    HW3 3457   3.465   2.873   5.537  0.0120  0.7008 -0.3045
  931SOL    MW4 3458   3.396   2.832   5.505 -0.1709  0.3334  0.3846
  932SOL     OW 3459   2.194   5.999   2.653 -0.1251  0.2305 -0.0127
  932SOL    HW2 3460   2.197   5.909   2.621 -2.4474  0.1344 -0.1136
  932SOL    HW3 3461   2.216   5.992   2.746 -1.3429 -0.6196  0.2336
  932SOL    MW4 3462   2.197   5.986   2.661  0.1075 -0.3891 -0.3902
  933SOL     OW 3463   4.274   0.730   5.602  0.2707 -0.3752  0.1485
  933SOL    HW2 3464   4.312   0.735   5.514  0.1315  0.3060  0.1274
  933SOL    HW3 3465   4.341   0.768   5.659  0.2198 -0.5131  0.3001
  933SOL    MW4 3466   4.288   0.736   5.598  0.0124  0.3023 -0.2286
  934SOL     OW 3467   0.703   3.334   3.378  0.8423  0.3072  0.1408
  934SOL    HW2 3468   0.619   3.329   3.331  0.5252  1.3880  0.5424
  934SOL    HW3 3469   0.768   3.344   3.309  0.6205 -0.3598 -0.1692
  934SOL    MW4 3470   0.700   3.335   3.363  0.2636  0.0964  0.2336
  935SOL     OW 3471   1.541   5.492   5.266  0.0414 -0.4863  0.1288
  935SOL    HW2 3472   1.592   5.437   5.325  0.4720  0.1772  0.3794
  935SOL    HW3 3473   1.457   5.503   5.310  1.1884  2.1048  1.9025
  935SOL    MW4 3474   1.537   5.486   5.279  0.0322  0.1567  0.1984
  936SOL     OW 3475   1.595   5.014   1.763  0.8942 -0.3934 -0.0126
  936SOL    HW2 3476   1.570   5.092   1.814 -1.7200 -0.8159 -0.5106
  936SOL    HW3 3477   1.534   5.013   1.689  2.2662 -1.7772 -1.1827
  936SOL    MW4 3478   1.583   5.025   1.760 -0.2585  0.3552 -0.0665
  937SOL     OW 3479   1.095   3.279   4.600 -0.5559  0.7664  0.3057
  937SOL    HW2 3480   1.146   3.334   4.659  0.1628  0.4392 -0.0017
  937SOL    HW3 3481   1.036   3.230   4.657  0.9160 -0.3981  0.9045
  937SOL    MW4 3482   1.094   3.279   4.615 -0.3034 -0.2342  0.2448
  938SOL     OW 3483   3.664   3.664   3.403  0.1873 -0.3957  0.3684
  938SOL    HW2 3484   3.709   3.748   3.409  0.3056 -0.2584 -1.8462
  938SOL    HW3 3485   3.584   3.677   3.454  0.6323  0.7396  0.8172
  938SOL    MW4 3486   3.659   3.677   3.410 -0.1264  0.2389  0.4133
  939SOL     OW 3487   5.090   6.383   0.888  0.2399 -0.4075 -0.3041
  939SOL    HW2 3488   5.025   6.388   0.958  2.0362 -0.7326  1.4752
  939SOL    HW3 3489   5.115   6.290   0.885  3.4964  0.1928  1.9750
  939SOL    MW4 3490   5.085   6.371   0.897 -0.3038 -0.8752  0.1989
  940SOL     OW 3491   4.934   1.526   2.650  0.2937 -0.2574  0.1562
  940SOL    HW2 3492   4.958   1.613   2.682 -0.4670 -0.6708  1.9799
  940SOL    HW3 3493   5.004   1.469   2.680  0.2387 -0.4541 -0.0840
  940SOL    MW4 3494   4.946   1.530   2.658  0.8575 -0.1513  0.0909
  941SOL     OW 3495   6.390   3.010   3.760  0.4996  0.0636  0.4434
  941SOL    HW2 3496   6.321   3.013   3.693  1.1122  1.2232 -0.1680
  941SOL    HW3 3497   6.390   2.919   3.790 -0.5712 -0.2100 -0.3014
  941SOL    MW4 3498   6.381   2.998   3.756  0.2921  0.1653 -0.2857
  942SOL     OW 3499   1.659   2.632   2.400 -0.0625  0.0244  0.1404
  942SOL    HW2 3500   1.726   2.601   2.340  1.3779 -0.2292  1.7892
  942SOL    HW3 3501   1.708   2.669   2.474 -1.7330  2.2957  0.2240
  942SOL    MW4 3502   1.674   2.633   2.402  0.2106 -0.2128 -0.5538
  943SOL     OW 3503   6.125   5.237   5.113 -0.3975  0.0022 -0.0345
  943SOL    HW2 3504   6.197   5.277   5.162  0.1556 -1.5865  0.5054
  943SOL    HW3 3505   6.119   5.289   5.033  1.4390  0.1016 -0.1507
  943SOL    MW4 3506   6.134   5.249   5.109 -0.0757  0.0766  0.2755
  944SOL     OW 3507   2.665   5.825   0.596  0.2035  0.6058  0.8243
  944SOL    HW2 3508   2.707   5.861   0.518  0.6524  1.2260  1.3419
  944SOL    HW3 3509   2.652   5.733   0.575 -1.0635  1.0617 -0.5679
  944SOL    MW4 3510   2.669   5.818   0.583  0.2302  0.3006  1.1406
  945SOL     OW 3511   3.007   2.821   1.912 -0.2152 -0.4068  0.0236
  945SOL    HW2 3512   2.981   2.907   1.880 -0.6193 -0.5621 -0.0641
  945SOL    HW3 3513   2.925   2.773   1.924 -0.1926 -0.0180  2.3082
  945SOL    MW4 3514   2.993   2.826   1.910  0.3078  0.1163  0.0332
  946SOL     OW 3515   0.217   2.371   4.016 -0.4270 -0.1204 -0.7076
  946SOL    HW2 3516   0.230   2.447   4.073 -2.3886 -0.4805  0.3065
  946SOL    HW3 3517   0.295   2.317   4.028  1.2569  1.9082 -1.8267
  946SOL    MW4 3518   0.229   2.374   4.025  0.5460 -0.1947 -0.6088
  947SOL     OW 3519   2.035   3.971   1.769  0.0644  0.0677  0.4123
  947SOL    HW2 3520   2.087   3.988   1.690  1.6687 -0.4604  1.2965
  947SOL    HW3 3521   2.057   4.044   1.828  0.1484 -0.3904  0.9560
  947SOL    MW4 3522   2.045   3.983   1.767 -0.0081  0.4905 -1.0835
  948SOL     OW 3523   2.234   1.591   3.628  0.5515  0.5567  0.3618
  948SOL    HW2 3524   2.250   1.684   3.648 -0.5016  0.9893 -0.6983
  948SOL    HW3 3525   2.321   1.552   3.626  1.0467  1.6075  0.4262
  948SOL    MW4 3526   2.248   1.598   3.631  0.9062 -0.5423  0.8153
  949SOL     OW 3527   3.639   2.945   5.571 -0.0104  0.2739 -0.2146
  949SOL    HW2 3528   3.680   2.883   5.631 -0.2168  0.1772 -0.1731
  949SOL    HW3 3529   3.583   2.999   5.627  0.4166  0.7132 -0.1995
  949SOL    MW4 3530   3.637   2.944   5.586  0.3618 -0.6434 -0.6572
  950SOL     OW 3531   4.193   0.025   1.882 -0.5013  0.1365  0.3265
  950SOL    HW2 3532   4.256   0.076   1.934 -1.1969 -1.0656  2.4902
  950SOL    HW3 3533   4.155  -0.036   1.945 -2.7181 -0.2247 -1.2536
  950SOL    MW4 3534   4.196   0.024   1.897 -0.2342  0.5006  0.0720
  951SOL     OW 3535   5.505   1.989   2.463 -0.7077  0.9819  0.0646
  951SOL    HW2 3536   5.440   1.970   2.531  0.0192  1.9087  1.0439
  951SOL    HW3 3537   5.581   2.021   2.510 -0.6476  2.9635 -1.2286
  951SOL    MW4 3538   5.506   1.991   2.478 -0.1780  0.0479 -0.0179
  952SOL     OW 3539   2.094   6.363   6.313  0.0680  0.0073 -0.2357
  952SOL    HW2 3540   2.142   6.346   6.394 -1.4935 -1.2575  0.4947
  952SOL    HW3 3541   2.002   6.366   6.340 -0.3823  1.1760 -1.7466
  952SOL    MW4 3542   2.088   6.361   6.328 -0.2872  0.4167 -0.0423
  953SOL     OW 3543   0.259   5.974   4.445 -0.0286 -0.4130  0.0445
  953SOL    HW2 3544   0.350   5.944   4.448 -0.1282 -0.7778 -0.4149
  953SOL    HW3 3545   0.218   5.936   4.522  0.0522 -0.7657 -0.0862
  953SOL    MW4 3546   0.266   5.965   4.455  0.1247 -0.0722 -0.4972
  954SOL     OW 3547   5.691   0.217   2.910 -0.0253  0.3489  0.0014
  954SOL    HW2 3548   5.673   0.178   2.996 -1.4469 -0.6129 -0.6807
  954SOL    HW3 3549   5.729   0.145   2.860 -1.4719  0.1443 -0.8784
  954SOL    MW4 3550   5.693   0.202   2.915 -0.4305 -0.0954 -0.3226
  955SOL     OW 3551   5.118   2.750   0.578  0.5832  0.4512  0.6082
  955SOL    HW2 3552   5.098   2.661   0.549 -1.9330  0.8260  0.9768
  955SOL    HW3 3553   5.106   2.748   0.673  1.3803  0.9959  0.7279
  955SOL    MW4 3554   5.113   2.738   0.587 -0.0318  0.4520  0.0497
  956SOL     OW 3555   3.964   6.066   2.680 -0.1401 -0.0135  0.3186
  956SOL    HW2 3556   3.878   6.081   2.640  0.8051 -0.0920 -1.8628
  956SOL    HW3 3557   3.971   5.971   2.686  0.4321 -0.0863 -1.0878
  956SOL    MW4 3558   3.954   6.056   2.675  0.1776  0.0200 -0.2779
  957SOL     OW 3559   1.574   5.685   6.061  0.0435 -0.4763  0.3481
  957SOL    HW2 3560   1.569   5.615   6.127  0.2782 -0.3211  0.5347
  957SOL    HW3 3561   1.645   5.741   6.092 -0.8135  0.4169  0.7553
  957SOL    MW4 3562   1.583   5.683   6.074 -0.4183 -0.1181 -0.6618
  958SOL     OW 3563   1.066   2.848   4.304 -0.2230 -0.3207  0.3116
  958SOL    HW2 3564   1.002   2.829   4.235  0.2024 -0.4319 -0.0521
  958SOL    HW3 3565   1.012   2.868   4.381 -0.7169  1.2070 -0.4059
  958SOL    MW4 3566   1.050   2.848   4.305  0.6728 -0.0528 -0.0390
  959SOL     OW 3567   1.290   3.858   3.868  0.1393  0.8481 -0.2504
  959SOL    HW2 3568   1.274   3.768   3.897  0.2690  0.0024 -2.5921
  959SOL    HW3 3569   1.204   3.900   3.871 -0.4250 -0.1546 -1.6056
  959SOL    MW4 3570   1.276   3.851   3.872 -0.1464  0.4924 -0.1287
  960SOL     OW 3571   4.550   1.345   1.434  0.2009  0.4244 -0.1213
  960SOL    HW2 3572   4.504   1.427   1.450  0.5285  0.3850  1.1543
  960SOL    HW3 3573   4.493   1.296   1.376 -1.3530  0.4263  1.3259
  960SOL    MW4 3574   4.536   1.349   1.429  0.1295  0.2904 -0.0738
  961SOL     OW 3575   1.247   2.085   0.074  0.4113 -0.1721 -0.3916
  961SOL    HW2 3576   1.231   2.039  -0.008 -0.6727 -1.6977  0.6063
  961SOL    HW3 3577   1.225   2.176   0.056  2.5971  0.0432 -2.4359
  961SOL    MW4 3578   1.242   2.091   0.061 -0.2007  0.2619 -0.3907
  962SOL     OW 3579   5.962   0.751   0.722  0.4675  0.1107 -0.1772
  962SOL    HW2 3580   5.931   0.808   0.652  1.3870 -1.2943 -1.7874
  962SOL    HW3 3581   6.056   0.764   0.724  0.5900 -0.7592 -0.0058
  962SOL    MW4 3582   5.970   0.761   0.713  0.1121 -0.2500  0.1279
  963SOL     OW 3583   5.722   6.337   6.308 -0.4257 -0.2035  0.4439
  963SOL    HW2 3584   5.627   6.333   6.295 -0.3231  2.1437 -1.9816
  963SOL    HW3 3585   5.734   6.331   6.403 -2.9541 -0.6830  0.8033
  963SOL    MW4 3586   5.711   6.335   6.319 -0.0618  0.3494  0.0376
  964SOL     OW 3587   3.686   3.843   0.923 -0.1834  0.2169 -0.3297
  964SOL    HW2 3588   3.727   3.929   0.921  0.3279 -0.0280 -0.9206
  964SOL    HW3 3589   3.752   3.784   0.885 -1.1730 -0.1330 -1.6013
  964SOL    MW4 3590   3.700   3.847   0.918  0.5197  0.2967  0.4404
  965SOL     OW 3591   6.227   0.596   5.816 -0.5904 -0.3262 -0.5838
  965SOL    HW2 3592   6.206   0.689   5.824 -0.0699 -0.2682  0.1004
  965SOL    HW3 3593   6.196   0.557   5.897 -0.5559 -0.7098 -0.7523
  965SOL    MW4 3594   6.220   0.603   5.827  0.5034  0.5438  0.1291
  966SOL     OW 3595   5.259   1.199   1.652  0.5670  0.1182 -0.6967
  966SOL    HW2 3596   5.312   1.143   1.708 -0.2420 -0.5962 -0.6235
  966SOL    HW3 3597   5.193   1.236   1.710  0.7177  0.6702 -0.8675
  966SOL    MW4 3598   5.257   1.197   1.667  0.1271  0.0912  0.1968
  967SOL     OW 3599   5.680   5.742   1.655  0.1333 -0.0471 -0.1621
  967SOL    HW2 3600   5.751   5.716   1.596  1.7640  0.1112  1.6131
  967SOL    HW3 3601   5.716   5.729   1.742 -1.3693  1.8344  0.8204
  967SOL    MW4 3602   5.694   5.737   1.659  0.2699  1.1587 -0.1475
  968SOL     OW 3603   3.605   2.660   6.279 -0.2702  0.0947 -0.3083
  968SOL    HW2 3604   3.510   2.671   6.270 -0.3671 -0.0678  0.4543
  968SOL    HW3 3605   3.634   2.629   6.193 -0.7397  1.2263 -0.8991
  968SOL    MW4 3606   3.596   2.657   6.266 -0.0804 -0.3839  0.6839
  969SOL     OW 3607   3.831   3.670   6.395 -0.0425  0.5975  0.3776
  969SOL    HW2 3608   3.800   3.657   6.485 -1.7321 -1.2805 -0.4045
  969SOL    HW3 3609   3.841   3.765   6.387 -2.1000  1.0025  1.8647
  969SOL    MW4 3610   3.828   3.681   6.406  0.0746  0.2219  0.4924
  970SOL     OW 3611   3.164   0.474   4.203  0.0871  0.3089 -0.3866
  970SOL    HW2 3612   3.099   0.452   4.269  0.1221 -0.9114 -0.7309
  970SOL    HW3 3613   3.244   0.490   4.252 -0.2587  1.0125 -0.0266
  970SOL    MW4 3614   3.166   0.473   4.218  0.1264  0.0479  0.5303
  971SOL     OW 3615   4.415   5.142   2.094 -0.2626  0.4207  0.2594
  971SOL    HW2 3616   4.491   5.180   2.139 -0.0227  0.0855  0.1418
  971SOL    HW3 3617   4.339   5.184   2.135 -0.0584 -0.0130  1.1007
  971SOL    MW4 3618   4.415   5.152   2.106  0.4365  0.3214  0.5581
  972SOL     OW 3619   3.220   3.987   0.442  0.0977 -0.6593  0.2584
  972SOL    HW2 3620   3.135   3.984   0.486 -1.0776 -0.7873 -1.9017
  972SOL    HW3 3621   3.224   3.905   0.393  0.0378  0.6851 -2.1346
  972SOL    MW4 3622   3.209   3.976   0.441  0.5922 -0.0845  0.7270
  973SOL     OW 3623   6.307   3.670   0.956 -0.3879  0.2623 -0.4348
  973SOL    HW2 3624   6.392   3.709   0.979 -0.2397  0.4804 -1.3221
  973SOL    HW3 3625   6.316   3.646   0.864 -0.3612 -2.1774  0.1398
  973SOL    MW4 3626   6.319   3.672   0.947 -0.0105 -0.1314  0.7318
  974SOL     OW 3627   5.648   4.858   3.879  0.1179  0.0763 -0.0523
  974SOL    HW2 3628   5.702   4.931   3.910  0.4401  0.4951 -1.5402
  974SOL    HW3 3629   5.571   4.861   3.935  0.5189  1.0185  0.4815
  974SOL    MW4 3630   5.645   4.868   3.891 -0.0414 -0.0465 -0.4592
  975SOL     OW 3631   2.496   5.412   6.271  0.0498 -0.5254 -0.3968
  975SOL    HW2 3632   2.568   5.381   6.327 -0.0374  0.4942  0.2994
  975SOL    HW3 3633   2.455   5.483   6.321 -0.3473  0.0733 -1.5312
  975SOL    MW4 3634   2.500   5.417   6.285  0.2817 -0.1488  0.0421
  976SOL     OW 3635   0.871   0.821   4.746  0.2602  0.2648  0.5717
  976SOL    HW2 3636   0.851   0.738   4.702  0.2158 -0.8937  2.6507
  976SOL    HW3 3637   0.960   0.808   4.780  0.4756  1.3188  0.4386
  976SOL    MW4 3638   0.880   0.808   4.745  0.5288  0.5096  0.1649
  977SOL     OW 3639   5.811   3.205   5.189  0.9140  0.5840 -0.1028
  977SOL    HW2 3640   5.730   3.251   5.164  1.3216  0.9418 -0.7840
  977SOL    HW3 3641   5.830   3.238   5.277 -0.6860 -0.8973  0.8588
  977SOL    MW4 3642   5.803   3.216   5.197 -0.2363 -0.0661  0.1258
  978SOL     OW 3643   4.572   5.159   3.409 -0.2350 -0.0333 -0.3991
  978SOL    HW2 3644   4.649   5.149   3.465  0.4175  0.3058 -1.2036
  978SOL    HW3 3645   4.502   5.113   3.455  0.2770  0.2478  0.6885
  978SOL    MW4 3646   4.573   5.152   3.422  0.0145  0.3411 -0.4588
  979SOL     OW 3647   4.739   6.260   0.738 -0.0122 -0.4939 -0.1688
  979SOL    HW2 3648   4.765   6.351   0.754 -0.7148 -0.2910 -0.1400
  979SOL    HW3 3649   4.646   6.258   0.759 -0.0579 -1.1619 -0.4218
  979SOL    MW4 3650   4.730   6.272   0.743 -0.0671  0.4800 -0.2117
  980SOL     OW 3651   2.042   1.429   1.834  0.2050  0.1723  0.4270
  980SOL    HW2 3652   1.952   1.464   1.836 -0.0275 -0.4440  1.0638
  980SOL    HW3 3653   2.095   1.497   1.876 -0.2425 -0.2096  1.6450
  980SOL    MW4 3654   2.037   1.443   1.840  0.0541  0.0572 -0.3034
  981SOL     OW 3655   4.729   5.763   5.748  0.1309 -0.3880  0.3903
  981SOL    HW2 3656   4.698   5.760   5.839  1.2592 -2.3025  0.7849
  981SOL    HW3 3657   4.766   5.850   5.738  2.1639 -0.8753  2.6176
  981SOL    MW4 3658   4.730   5.774   5.759  0.5128  0.2014 -0.7421
  982SOL     OW 3659   4.138   0.818   2.528 -0.2664 -0.4682  0.3869
  982SOL    HW2 3660   4.150   0.731   2.489 -0.6116  0.0782 -1.0081
  982SOL    HW3 3661   4.175   0.878   2.463  0.2377  0.4262  1.4646
  982SOL    MW4 3662   4.145   0.814   2.514  0.1582  0.3207  1.1905
  983SOL     OW 3663   6.275   3.719   0.081  0.5078  0.0572 -0.2110
  983SOL    HW2 3664   6.320   3.728  -0.004 -1.1688 -2.2391 -1.4530
  983SOL    HW3 3665   6.182   3.722   0.059  0.0313 -1.7233  1.3836
  983SOL    MW4 3666   6.269   3.721   0.067  0.6675  0.6651 -0.2645
  984SOL     OW 3667   4.044   1.657   0.016 -0.0951  0.5553 -0.3212
  984SOL    HW2 3668   4.132   1.620   0.017 -1.2292 -2.3985  1.8174
  984SOL    HW3 3669   4.010   1.635  -0.071  0.6650  0.0910 -0.5070
  984SOL    MW4 3670   4.051   1.649   0.004 -0.0054 -0.6495 -0.2771
  985SOL     OW 3671   2.567   4.249   2.550 -0.3166 -0.6907 -0.0753
  985SOL    HW2 3672   2.568   4.180   2.616 -1.0619 -0.7362 -0.0942
  985SOL    HW3 3673   2.607   4.325   2.593  1.9834 -1.5534 -0.5742
  985SOL    MW4 3674   2.572   4.250   2.564  0.6301 -0.8840  0.0510
  986SOL     OW 3675   0.945   5.447   0.128 -0.1061 -0.0533  0.0903
  986SOL    HW2 3676   0.910   5.435   0.040  2.4353 -1.3084 -0.8501
  986SOL    HW3 3677   0.990   5.532   0.124  2.1822 -1.1986 -0.7373
  986SOL    MW4 3678   0.947   5.457   0.116  0.1839 -0.3640 -0.0634
  987SOL     OW 3679   5.821   1.795   3.479  0.3787  0.1512 -0.4723
  987SOL    HW2 3680   5.726   1.804   3.475  0.1067 -1.8420  0.1606
  987SOL    HW3 3681   5.836   1.700   3.485  2.4570  0.3521 -1.4554
  987SOL    MW4 3682   5.810   1.784   3.479 -0.2315 -0.3403  0.1219
  988SOL     OW 3683   5.855   0.073   2.718  0.5389 -0.4053  0.3626
  988SOL    HW2 3684   5.827   0.134   2.650 -0.7573  1.3593  2.3590
  988SOL    HW3 3685   5.815  -0.011   2.693 -0.3608  0.3354 -0.7602
  988SOL    MW4 3686   5.846   0.070   2.706  0.4190  0.4516 -0.1054
  989SOL     OW 3687   2.045   3.804   2.989  0.5462 -0.3248  0.4290
  989SOL    HW2 3688   2.085   3.889   3.009  0.4564 -0.2771  0.4112
  989SOL    HW3 3689   1.984   3.823   2.918  1.7327 -0.7201 -0.7259
  989SOL    MW4 3690   2.042   3.818   2.982  0.2934 -0.0688 -0.0511
  990SOL     OW 3691   0.488   2.592   5.035 -0.0973 -0.1479 -0.2089
  990SOL    HW2 3692   0.548   2.573   4.963  0.2445 -1.0649  0.2895
  990SOL    HW3 3693   0.446   2.674   5.011  1.1305  0.3562 -0.7200
  990SOL    MW4 3694   0.491   2.600   5.022  0.2179  0.0532  0.4931
  991SOL     OW 3695   2.009   0.064   4.735 -0.1516 -0.2406  0.2450
  991SOL    HW2 3696   2.024  -0.021   4.776 -0.1930  0.5185  1.9344
  991SOL    HW3 3697   2.070   0.124   4.779  0.8999  0.3841 -1.8852
  991SOL    MW4 3698   2.019   0.061   4.746 -0.0923 -0.4537  0.2036
  992SOL     OW 3699   2.655   4.305   4.759  0.1157  0.6712 -0.4477
  992SOL    HW2 3700   2.716   4.260   4.817 -0.2302 -0.8852 -1.2449
  992SOL    HW3 3701   2.569   4.290   4.798 -0.3211 -1.8735 -2.1817
  992SOL    MW4 3702   2.652   4.297   4.771  0.1882  0.1963 -0.0133
  993SOL     OW 3703   2.516   2.074   3.941 -0.8134  0.0031 -0.0742
  993SOL    HW2 3704   2.436   2.034   3.977 -1.5424 -0.0957 -1.6746
  993SOL    HW3 3705   2.565   2.000   3.906 -0.3440  0.1346  0.3081
  993SOL    MW4 3706   2.512   2.059   3.941 -0.4966 -0.0863 -0.1892
  994SOL     OW 3707   2.364   0.476   2.963  0.6880 -0.2931 -0.2608
  994SOL    HW2 3708   2.456   0.494   2.942  0.4631 -1.4556 -2.5367
  994SOL    HW3 3709   2.339   0.547   3.022  1.7408  2.8389 -3.2483
  994SOL    MW4 3710   2.373   0.487   2.968  0.7527  0.2209  0.3798
  995SOL     OW 3711   4.443   1.025   5.222 -0.3433  0.2166 -0.1791
  995SOL    HW2 3712   4.513   0.983   5.273  1.2219 -0.0074 -2.3707
  995SOL    HW3 3713   4.484   1.046   5.138 -2.5251  1.5013 -1.0026
  995SOL    MW4 3714   4.458   1.022   5.218  0.3288  0.4599 -0.2109
  996SOL     OW 3715   1.293   0.326   2.582  0.1378 -0.1112 -0.2578
  996SOL    HW2 3716   1.248   0.404   2.549  0.2737 -0.6852 -1.9405
  996SOL    HW3 3717   1.232   0.254   2.564  0.8500 -0.6363 -0.6491
  996SOL    MW4 3718   1.279   0.327   2.575 -0.8367  0.8267 -0.0804
  997SOL     OW 3719   2.205   1.910   1.983  0.2275  0.2379 -0.6071
  997SOL    HW2 3720   2.116   1.935   2.006  0.0307 -0.3604 -0.6852
  997SOL    HW3 3721   2.196   1.866   1.898  0.5900  0.1327 -0.5932
  997SOL    MW4 3722   2.192   1.907   1.974 -0.3102 -0.5829 -0.0134
  998SOL     OW 3723   5.393   6.296   5.785 -0.0732  0.5240  0.3237
  998SOL    HW2 3724   5.436   6.365   5.836 -0.7013 -0.0639  1.7174
  998SOL    HW3 3725   5.464   6.249   5.742  0.2972  3.5545 -2.8420
  998SOL    MW4 3726   5.408   6.299   5.786 -0.0777 -0.2715  0.7200
  999SOL     OW 3727   2.392   0.081   0.494  0.4053 -0.0781 -0.5632
  999SOL    HW2 3728   2.473   0.045   0.459  0.0837 -1.8337  0.4083
  999SOL    HW3 3729   2.418   0.164   0.534  1.8640 -0.9187  0.3170
  999SOL    MW4 3730   2.406   0.087   0.494  0.0874  0.2243  0.1973
 1000SOL     OW 3731   0.766   4.523   5.984 -0.2414  0.0343 -0.1326
 1000SOL    HW2 3732   0.855   4.533   6.019 -0.5417  0.6532  0.4832
 1000SOL    HW3 3733   0.738   4.436   6.011  0.0815 -0.0645 -0.1167
 1000SOL    MW4 3734   0.774   4.513   5.992 -0.2061  0.4717 -0.2783
 1001SOL     OW 3735   1.350   5.541   3.439  0.1817 -0.2090  0.1937
 1001SOL    HW2 3736   1.381   5.630   3.459  1.6897 -0.7926  0.5997
 1001SOL    HW3 3737   1.359   5.533   3.344 -1.1072  0.4685  0.0014
 1001SOL    MW4 3738   1.355   5.552   3.429  0.2251  0.7511 -0.0954
 1002SOL     OW 3739   5.987   5.428   4.662 -0.4036  0.8685  0.3027
 1002SOL    HW2 3740   5.978   5.381   4.579  0.5905  0.7255  0.2552
 1002SOL    HW3 3741   5.931   5.380   4.723 -0.6661  0.6074 -0.1404
 1002SOL    MW4 3742   5.979   5.415   4.659  0.2010  0.0540  0.9378
 1003SOL     OW 3743   4.938   4.206   0.053 -0.4411  0.3055 -0.0804
 1003SOL    HW2 3744   4.927   4.260  -0.025 -1.0925 -0.8903 -0.8531
 1003SOL    HW3 3745   4.994   4.258   0.111  2.8067 -0.0349 -2.5940
 1003SOL    MW4 3746   4.944   4.220   0.050 -0.3583  0.0670  0.2320
 1004SOL     OW 3747   4.882   6.052   4.162  0.3882  0.1301  0.3469
 1004SOL    HW2 3748   4.829   6.097   4.097  2.6933  0.6191 -1.3352
 1004SOL    HW3 3749   4.964   6.103   4.165  1.3913 -1.4646  1.6202
 1004SOL    MW4 3750   4.886   6.065   4.154 -0.3555  0.1846  0.6022
 1005SOL     OW 3751   0.449   2.021   0.036  0.5691  0.3820 -0.5240
 1005SOL    HW2 3752   0.398   1.944   0.059  0.3055  0.9285  0.7852
 1005SOL    HW3 3753   0.536   1.988   0.017 -0.1597 -0.5466 -2.5802
 1005SOL    MW4 3754   0.454   2.007   0.036 -0.2454  0.1855 -0.1613
 1006SOL     OW 3755   5.736   2.541   0.372 -0.1304  0.3857  0.0809
 1006SOL    HW2 3756   5.732   2.565   0.279 -2.3627  2.6803  0.6734
 1006SOL    HW3 3757   5.798   2.603   0.410  0.0169  0.1028  0.3087
 1006SOL    MW4 3758   5.744   2.552   0.365 -0.7755 -0.4624 -0.0625
 1007SOL     OW 3759   1.738   1.635   4.959 -0.1102  0.2886 -0.4046
 1007SOL    HW2 3760   1.741   1.730   4.975  1.4900  0.0454  1.0112
 1007SOL    HW3 3761   1.753   1.626   4.865  0.3935  1.4132 -0.4487
 1007SOL    MW4 3762   1.740   1.647   4.949  0.1392 -0.5209 -0.4581
 1008SOL     OW 3763   4.406   0.817   6.261 -0.1024 -0.6049 -0.0879
 1008SOL    HW2 3764   4.367   0.901   6.287 -1.2182 -0.9860 -0.4506
 1008SOL    HW3 3765   4.485   0.841   6.212  0.5412  0.1806  1.2629
 1008SOL    MW4 3766   4.411   0.831   6.258  0.5043  0.6334 -0.1210
 1009SOL     OW 3767   1.693   3.095   5.469  0.0008  0.0282 -0.3582
 1009SOL    HW2 3768   1.746   3.084   5.549  2.6728  1.4745 -1.7809
 1009SOL    HW3 3769   1.670   3.188   5.469  3.2466  1.0588 -2.9030
 1009SOL    MW4 3770   1.697   3.106   5.480 -0.0751  0.6315  0.1413
 1010SOL     OW 3771   5.944   5.451   2.129  0.4204  0.4224  0.0492
 1010SOL    HW2 3772   5.955   5.539   2.165 -0.6573  0.2384  0.8758
 1010SOL    HW3 3773   6.031   5.411   2.136  0.9544  1.4474 -0.4512
 1010SOL    MW4 3774   5.957   5.458   2.134 -0.4795 -0.4850 -0.2443
 1011SOL     OW 3775   0.188   4.189   4.712 -0.0962 -0.1274  0.1537
 1011SOL    HW2 3776   0.205   4.205   4.805 -3.4566 -1.4464  1.1497
 1011SOL    HW3 3777   0.157   4.273   4.678  0.1347  0.0977  0.4932
 1011SOL    MW4 3778   0.186   4.202   4.720  0.2376 -1.1249 -0.0088
 1012SOL     OW 3779   2.188   2.025   2.653 -0.1196 -0.3734  0.4531
 1012SOL    HW2 3780   2.193   2.101   2.712 -0.6564 -0.0955  0.1484
 1012SOL    HW3 3781   2.195   2.063   2.565  0.7441 -0.7909  0.3353
 1012SOL    MW4 3782   2.190   2.040   2.649  0.0707  0.1255  0.4835
 1013SOL     OW 3783   6.302   2.048   0.620  0.0217  0.4582  0.4246
 1013SOL    HW2 3784   6.253   2.108   0.564 -0.1313 -0.3877 -0.3728
 1013SOL    HW3 3785   6.348   1.991   0.559  0.7861  0.2533  1.1685
 1013SOL    MW4 3786   6.302   2.049   0.605 -0.2824 -0.7454 -0.1740
 1014SOL     OW 3787   5.111   1.029   0.154 -0.0604  0.3221 -0.1992
 1014SOL    HW2 3788   5.202   1.053   0.170  0.6405 -1.3565 -1.4851
 1014SOL    HW3 3789   5.099   1.040   0.060 -1.0680  0.0989 -0.1108
 1014SOL    MW4 3790   5.121   1.034   0.144 -0.1585  0.8901 -0.3732
 1015SOL     OW 3791   4.901   4.316   6.208 -0.1533 -0.0512 -0.3554
 1015SOL    HW2 3792   4.809   4.342   6.213 -0.0132  0.3374  0.4245
 1015SOL    HW3 3793   4.942   4.382   6.152  0.4550  2.3096  2.6114
 1015SOL    MW4 3794   4.895   4.328   6.201  0.6812  0.1302 -0.4009
 1016SOL     OW 3795   5.338   2.398   2.888  0.6653  0.2889 -0.1085
 1016SOL    HW2 3796   5.281   2.333   2.847 -1.4506  1.2862  1.0901
 1016SOL    HW3 3797   5.342   2.470   2.825  0.0363  0.4945  0.0835
 1016SOL    MW4 3798   5.331   2.399   2.875 -0.3657 -0.1508 -0.4402
 1017SOL     OW 3799   2.914   0.228   2.390  0.5356  0.1978  0.1292
 1017SOL    HW2 3800   2.822   0.254   2.391 -0.0165 -1.6506  0.4409
 1017SOL    HW3 3801   2.962   0.311   2.394 -1.0966  1.2048 -0.1165
 1017SOL    MW4 3802   2.908   0.242   2.390 -0.0530 -0.0833  0.2008
 1018SOL     OW 3803   2.725   6.042   1.634 -0.6774 -0.2055  0.1813
 1018SOL    HW2 3804   2.729   6.128   1.675 -2.5677  0.9093 -1.8009
 1018SOL    HW3 3805   2.794   6.044   1.567  0.0639 -0.7131  0.9085
 1018SOL    MW4 3806   2.735   6.054   1.631 -0.7727 -0.5952  0.0064
 1019SOL     OW 3807   5.957   6.338   0.353 -0.1832  0.1920  0.4766
 1019SOL    HW2 3808   5.893   6.362   0.286  0.4805  3.2041  0.7946
 1019SOL    HW3 3809   5.975   6.419   0.401  3.4512 -0.5677  0.7566
 1019SOL    MW4 3810   5.951   6.351   0.350  0.3669  0.2004  0.3165
 1020SOL     OW 3811   1.767   6.182   0.894 -0.2095  0.1897 -0.6206
 1020SOL    HW2 3812   1.707   6.207   0.824 -0.6335  1.4550  0.1690
 1020SOL    HW3 3813   1.846   6.153   0.848 -1.3973 -1.5449 -1.6716
 1020SOL    MW4 3814   1.770   6.181   0.879 -0.0097  0.0656  0.3643
 1021SOL     OW 3815   2.770   1.612   1.912  0.2805  0.3067 -0.4201
 1021SOL    HW2 3816   2.830   1.639   1.843  0.8420 -0.1693 -0.1237
 1021SOL    HW3 3817   2.820   1.622   1.993 -0.0770  0.0159 -0.1598
 1021SOL    MW4 3818   2.784   1.617   1.913  0.2661  0.5278 -0.2282
 1022SOL     OW 3819   4.157   4.914   1.501  0.5372 -0.7280 -0.5617
 1022SOL    HW2 3820   4.071   4.954   1.494  1.8254  2.0486 -2.8516
 1022SOL    HW3 3821   4.172   4.874   1.415  0.9296 -2.6712  0.3636
 1022SOL    MW4 3822   4.148   4.914   1.489 -0.3645 -0.3741 -0.2578
 1023SOL     OW 3823   1.886   1.945   0.876 -0.2702 -0.0274  0.2530
 1023SOL    HW2 3824   1.824   1.930   0.948 -0.4619 -0.6747 -0.0414
 1023SOL    HW3 3825   1.884   1.864   0.826 -1.2287  0.9163 -1.3275
 1023SOL    MW4 3826   1.878   1.933   0.879 -0.0738  0.1788 -0.1153
 1024SOL     OW 3827   5.474   4.325   2.750  0.4389  0.4133  0.0308
 1024SOL    HW2 3828   5.551   4.274   2.775  0.0866 -0.1133  0.0611
 1024SOL    HW3 3829   5.483   4.338   2.656  0.2665 -0.1559 -0.0661
 1024SOL    MW4 3830   5.485   4.320   2.741 -0.0562  0.0568 -0.2147
 1025SOL     OW 3831   1.432   2.637   6.396 -0.0497 -0.4904  0.0380
 1025SOL    HW2 3832   1.484   2.580   6.338 -0.2828 -1.1307  0.4500
 1025SOL    HW3 3833   1.458   2.726   6.371  0.8225 -0.7862 -0.1534
 1025SOL    MW4 3834   1.442   2.641   6.385 -0.1913  0.0832  0.2506
 1026SOL     OW 3835   0.166   1.307   2.551 -0.2151  0.0474  0.2907
 1026SOL    HW2 3836   0.141   1.283   2.461 -2.1256 -0.8970  1.0114
 1026SOL    HW3 3837   0.176   1.402   2.548  0.8051 -0.0755 -1.1410
 1026SOL    MW4 3838   0.164   1.317   2.538  0.1958  0.1031 -0.3121
 1027SOL     OW 3839   1.803   6.058   6.004 -0.1428  0.4317 -0.1432
 1027SOL    HW2 3840   1.709   6.039   5.997  0.2655 -1.1162 -2.4022
 1027SOL    HW3 3841   1.816   6.135   5.949  0.0755 -0.1283 -0.8963
 1027SOL    MW4 3842   1.792   6.066   5.996 -0.3012  0.1103  0.2119
 1028SOL     OW 3843   6.306   3.238   2.132  0.2147 -0.0028 -0.1556
 1028SOL    HW2 3844   6.367   3.174   2.096  0.2709 -0.2419  0.3485
 1028SOL    HW3 3845   6.339   3.322   2.101  0.6835 -0.1452 -0.0591
 1028SOL    MW4 3846   6.318   3.240   2.123 -0.2389  0.0917 -0.2978
 1029SOL     OW 3847   5.609   4.310   1.364 -0.8434 -0.2851  0.2706
 1029SOL    HW2 3848   5.663   4.325   1.442  1.1126  0.8010 -1.2076
 1029SOL    HW3 3849   5.617   4.216   1.348 -0.0433 -0.2824  0.5670
 1029SOL    MW4 3850   5.617   4.299   1.372 -1.0176  0.5385  0.3884
 1030SOL     OW 3851   0.198   0.040   5.979 -0.6334 -0.0942  0.1933
 1030SOL    HW2 3852   0.154  -0.016   6.042 -1.0113  0.6891  0.6409
 1030SOL    HW3 3853   0.251   0.099   6.032 -0.6516  0.3239 -0.2447
 1030SOL    MW4 3854   0.200   0.041   5.994  0.0236  0.3321  0.6635
 1031SOL     OW 3855   1.556   0.859   0.123  0.3371  0.4566  0.0595
 1031SOL    HW2 3856   1.472   0.822   0.149 -0.6258  2.1170 -0.5131
 1031SOL    HW3 3857   1.553   0.950   0.154 -0.4682  2.2913 -4.5496
 1031SOL    MW4 3858   1.544   0.866   0.130  0.0094  0.2551  0.5867
 1032SOL     OW 3859   0.590   5.139   5.696 -0.3497 -0.3945  0.3050
 1032SOL    HW2 3860   0.682   5.137   5.671 -0.5659 -1.7504 -0.4642
 1032SOL    HW3 3861   0.559   5.049   5.684 -1.9484  0.1704 -0.1294
 1032SOL    MW4 3862   0.598   5.127   5.691  0.0083  0.3658 -0.0138
 1033SOL     OW 3863   4.789   1.607   3.816 -0.0576 -0.3856 -0.6668
 1033SOL    HW2 3864   4.740   1.579   3.739  2.0816  0.3093 -2.4070
 1033SOL    HW3 3865   4.751   1.691   3.840 -0.9694 -0.7735 -0.7165
 1033SOL    MW4 3866   4.778   1.614   3.809  0.0801 -0.3591 -0.1148
 1034SOL     OW 3867   5.421   2.440   1.009 -0.1747 -0.1897  0.8094
 1034SOL    HW2 3868   5.474   2.464   0.934 -0.4830  0.7618  0.8784
 1034SOL    HW3 3869   5.459   2.358   1.041 -0.2554 -0.7973 -0.5787
 1034SOL    MW4 3870   5.433   2.432   1.004  0.1230 -0.0432 -0.0200
 1035SOL     OW 3871   0.331   6.118   4.125 -0.6629 -0.3658 -0.2592
 1035SOL    HW2 3872   0.376   6.160   4.198  0.6895 -0.9162 -0.7367
 1035SOL    HW3 3873   0.369   6.030   4.121 -2.4708 -1.1894 -0.1204
 1035SOL    MW4 3874   0.342   6.112   4.134 -0.0069  0.2983  0.1773
 1036SOL     OW 3875   1.006   0.976   5.704 -0.4810  0.0399  0.0883
 1036SOL    HW2 3876   1.007   1.065   5.669 -0.2191  0.4767  1.1924
 1036SOL    HW3 3877   0.939   0.931   5.651  0.5222  0.4132 -1.5815
 1036SOL    MW4 3878   0.997   0.982   5.692 -0.0575  0.1071 -0.3678
 1037SOL     OW 3879   5.102   0.751   0.138  0.3720 -0.0230 -0.0547
 1037SOL    HW2 3880   5.101   0.843   0.166  0.1690 -0.8315  3.0094
 1037SOL    HW3 3881   5.029   0.745   0.076 -1.8972  1.2844  2.2406
 1037SOL    MW4 3882   5.092   0.763   0.134  0.0106 -0.0790 -0.3393
 1038SOL     OW 3883   4.646   1.300   3.536  0.0765 -0.1877 -0.0070
 1038SOL    HW2 3884   4.693   1.223   3.505  0.4899 -0.1925  0.6119
 1038SOL    HW3 3885   4.587   1.267   3.604 -0.2308 -0.0565 -0.2066
 1038SOL    MW4 3886   4.644   1.286   3.541 -0.2672  0.1431 -0.4577
 1039SOL     OW 3887   5.518   0.533   3.220 -0.0014 -0.0256 -0.0557
 1039SOL    HW2 3888   5.468   0.451   3.219 -0.8918  0.5012 -1.2604
 1039SOL    HW3 3889   5.503   0.572   3.134  1.2881  0.8933  0.1036
 1039SOL    MW4 3890   5.509   0.528   3.208 -0.1821 -0.4898  0.1361
 1040SOL     OW 3891   3.878   0.657   0.918  0.3315  0.1522  0.6436
 1040SOL    HW2 3892   3.937   0.621   0.852 -1.0814  0.4931 -0.8598
 1040SOL    HW3 3893   3.883   0.596   0.991  0.0916 -1.6092 -0.7575
 1040SOL    MW4 3894   3.886   0.644   0.919  0.1346 -1.0828  0.4865
 1041SOL     OW 3895   3.993   5.300   4.999 -0.3456 -0.1868  0.0252
 1041SOL    HW2 3896   3.954   5.242   5.064 -0.6932 -1.2646 -1.0885
 1041SOL    HW3 3897   4.034   5.241   4.936  0.1812  0.8256 -0.6070
 1041SOL    MW4 3898   3.993   5.285   4.999  0.1112 -0.1551  0.1291
 1042SOL     OW 3899   4.204   1.939   3.715  0.3008 -0.0326  0.1447
 1042SOL    HW2 3900   4.140   2.003   3.745 -0.2310 -0.7915  0.6543
 1042SOL    HW3 3901   4.230   1.970   3.628  0.2282  0.9926  0.4725
 1042SOL    MW4 3902   4.199   1.952   3.707  0.1698  0.2307 -0.3458
 1043SOL     OW 3903   5.661   1.130   1.000  0.6462  0.4835  0.1099
 1043SOL    HW2 3904   5.642   1.188   0.926  1.1536  0.6852  0.1296
 1043SOL    HW3 3905   5.756   1.137   1.011  0.4558  1.3634  1.4995
 1043SOL    MW4 3906   5.671   1.139   0.992  0.6931 -0.4990  0.3039
 1044SOL     OW 3907   3.883   6.410   2.450 -0.7852  0.6413  0.1803
 1044SOL    HW2 3908   3.935   6.476   2.404  1.6066 -1.8663 -1.0143
 1044SOL    HW3 3909   3.809   6.393   2.392 -0.4619  1.0088 -0.3457
 1044SOL    MW4 3910   3.880   6.416   2.436 -0.1106 -0.2788 -0.2577
 1045SOL     OW 3911   0.640   1.832   6.337 -0.1683 -0.3130  0.2723
 1045SOL    HW2 3912   0.571   1.768   6.322 -0.3586  0.1706 -1.0784
 1045SOL    HW3 3913   0.721   1.781   6.342 -0.3414 -0.7008 -0.5984
 1045SOL    MW4 3914   0.642   1.817   6.335 -0.2403  0.4910 -0.4726
 1046SOL     OW 3915   1.611   5.910   4.169  0.2140  0.0023  0.4660
 1046SOL    HW2 3916   1.581   5.934   4.081  0.6422  2.5788  0.9378
 1046SOL    HW3 3917   1.695   5.865   4.154 -0.6082 -1.2816 -0.4917
 1046SOL    MW4 3918   1.618   5.907   4.155  0.7302  0.6129 -0.5325
 1047SOL     OW 3919   5.887   3.876   2.246 -0.0502 -0.1437 -0.6461
 1047SOL    HW2 3920   5.863   3.789   2.214 -2.3908  0.5677 -1.0936
 1047SOL    HW3 3921   5.810   3.930   2.226  0.6606  1.6523  1.1061
 1047SOL    MW4 3922   5.874   3.872   2.239 -0.0392  0.2066 -0.5063
 1048SOL     OW 3923   2.856   2.966   0.819  0.7539 -0.3637  0.2351
 1048SOL    HW2 3924   2.823   3.056   0.821  1.0740 -0.2525  2.1589
 1048SOL    HW3 3925   2.935   2.968   0.872  0.2582 -1.9556  1.1284
 1048SOL    MW4 3926   2.862   2.978   0.826 -0.1599 -0.1368  0.4252
 1049SOL     OW 3927   6.168   5.472   3.350 -0.4130 -0.0812  0.1174
 1049SOL    HW2 3928   6.178   5.567   3.348  0.4231 -0.1566  0.4164
 1049SOL    HW3 3929   6.206   5.445   3.433 -3.3023 -0.4130  1.4840
 1049SOL    MW4 3930   6.174   5.481   3.360 -0.4443  0.1469 -0.1292
 1050SOL     OW 3931   2.431   3.723   4.985 -0.4512  0.0121 -0.4328
 1050SOL    HW2 3932   2.356   3.730   5.044 -2.1307 -0.6931 -2.3878
 1050SOL    HW3 3933   2.401   3.763   4.904  1.4044 -0.0482 -1.1802
 1050SOL    MW4 3934   2.417   3.729   4.982  0.3375  0.4053 -0.2194
 1051SOL     OW 3935   6.226   0.549   0.550  0.6725  0.2856 -0.0942
 1051SOL    HW2 3936   6.139   0.512   0.539  0.6183  0.4304 -0.1507
 1051SOL    HW3 3937   6.278   0.512   0.479  1.1436 -1.2639  0.9952
 1051SOL    MW4 3938   6.222   0.539   0.539  0.1606  0.1496 -0.2007
 1052SOL     OW 3939   5.117   0.238   0.394  0.2410  0.3669  0.1297
 1052SOL    HW2 3940   5.186   0.304   0.402 -0.0817  0.6856  0.2759
 1052SOL    HW3 3941   5.116   0.195   0.480  0.7970 -0.1828 -0.1221
 1052SOL    MW4 3942   5.126   0.241   0.407 -0.5475  0.3473 -0.6403
 1053SOL     OW 3943   2.710   4.964   3.035  0.5595  0.8222  0.3987
 1053SOL    HW2 3944   2.771   4.947   2.964  0.3982  2.6632 -0.2468
 1053SOL    HW3 3945   2.760   5.018   3.097  0.8052 -1.0179  1.8898
 1053SOL    MW4 3946   2.725   4.969   3.034 -0.0937  0.2739  0.4592
 1054SOL     OW 3947   0.852   5.297   5.409  0.3723 -0.2846  0.0136
 1054SOL    HW2 3948   0.763   5.310   5.378  0.7420  1.8352 -0.2672
 1054SOL    HW3 3949   0.907   5.302   5.330  0.9037  0.5798  0.4166
 1054SOL    MW4 3950   0.848   5.299   5.395 -0.1750 -0.5993 -0.1525
 1055SOL     OW 3951   3.528   5.887   5.775  0.4435  0.2047  0.2870
 1055SOL    HW2 3952   3.531   5.924   5.864  0.7077  0.1778  0.2907
 1055SOL    HW3 3953   3.446   5.838   5.772 -0.4704  1.6963 -0.0825
 1055SOL    MW4 3954   3.517   5.885   5.786 -0.3319 -0.1620 -0.7183
 1056SOL     OW 3955   0.052   1.511   4.869  0.2752 -0.0893  0.1190
 1056SOL    HW2 3956   0.032   1.587   4.814 -1.1384 -0.4771  0.0723
 1056SOL    HW3 3957   0.092   1.549   4.947  0.9833  0.5728 -0.5335
 1056SOL    MW4 3958   0.055   1.526   4.872  0.4554  0.0665  0.3440
 1057SOL     OW 3959   0.807   4.991   5.168 -0.0354 -0.0158  0.0420
 1057SOL    HW2 3960   0.826   4.902   5.136  0.4904  0.0009  0.2915
 1057SOL    HW3 3961   0.720   4.985   5.206  0.2694 -0.6061  0.6856
 1057SOL    MW4 3962   0.798   4.978   5.169 -0.1591  0.2392  0.5152
 1058SOL     OW 3963   0.756   4.603   2.149 -0.0007  0.5777 -0.2065
 1058SOL    HW2 3964   0.832   4.661   2.136 -0.3832  0.7562 -1.8360
 1058SOL    HW3 3965   0.720   4.591   2.062 -0.0295 -2.0448  0.0833
 1058SOL    MW4 3966   0.761   4.609   2.136  0.1249  1.0099  0.9698
 1059SOL     OW 3967   1.094   0.652   4.358 -0.3356 -0.2147  0.1036
 1059SOL    HW2 3968   1.162   0.713   4.388 -1.7600  1.0983  0.8041
 1059SOL    HW3 3969   1.127   0.565   4.383  2.5086 -0.0367 -2.3490
 1059SOL    MW4 3970   1.107   0.648   4.365 -0.1339  0.0150 -0.7519
 1060SOL     OW 3971   0.891   0.082   0.976 -0.2181 -0.1968 -0.1101
 1060SOL    HW2 3972   0.940   0.014   1.023  1.6729  0.0726 -1.6034
 1060SOL    HW3 3973   0.912   0.163   1.022 -2.1717 -0.4784  1.4330
 1060SOL    MW4 3974   0.900   0.083   0.988 -0.4349 -0.4027 -0.3322
 1061SOL     OW 3975   0.486   0.391   4.099  0.3254  0.5023  0.3598
 1061SOL    HW2 3976   0.511   0.319   4.041 -0.8783 -0.3871  0.8938
 1061SOL    HW3 3977   0.394   0.408   4.076  0.2840  1.1323  0.9886
 1061SOL    MW4 3978   0.477   0.384   4.088 -0.2901  0.3000  0.1289
 1062SOL     OW 3979   3.369   0.180   0.525 -0.0147 -0.3606  0.1772
 1062SOL    HW2 3980   3.312   0.120   0.572 -0.0303  0.7947  1.6974
 1062SOL    HW3 3981   3.322   0.263   0.524  0.8977  0.1747 -0.0346
 1062SOL    MW4 3982   3.356   0.183   0.531 -0.1336  0.0175  0.0566
 1063SOL     OW 3983   0.754   4.589   0.583  0.2537 -0.5250 -0.2756
 1063SOL    HW2 3984   0.746   4.505   0.628 -0.5263 -1.3150 -1.8291
 1063SOL    HW3 3985   0.845   4.593   0.555 -0.2003 -1.8587 -2.0451
 1063SOL    MW4 3986   0.765   4.579   0.586  0.3704 -0.4697  0.2517
 1064SOL     OW 3987   1.992   2.687   1.074 -0.5144  0.4626 -0.3473
 1064SOL    HW2 3988   1.994   2.664   1.167 -0.1147  1.1852 -0.1689
 1064SOL    HW3 3989   1.983   2.603   1.029  2.7139 -0.2874  0.1892
 1064SOL    MW4 3990   1.991   2.673   1.080  0.4497  0.0292  0.5456
 1065SOL     OW 3991   5.681   5.138   0.190 -0.4509  0.1809  0.7153
 1065SOL    HW2 3992   5.740   5.091   0.131 -2.2106 -0.0080 -1.0145
 1065SOL    HW3 3993   5.642   5.069   0.244 -1.4571 -0.1235 -0.3674
 1065SOL    MW4 3994   5.684   5.123   0.189 -0.9162 -0.2380 -0.0312
 1066SOL     OW 3995   3.615   3.647   6.221  0.2905  0.5402 -0.1755
 1066SOL    HW2 3996   3.578   3.561   6.241 -2.8430  2.3554  2.9235
 1066SOL    HW3 3997   3.683   3.660   6.286  0.2703  0.7042 -0.1868
 1066SOL    MW4 3998   3.619   3.637   6.232 -0.6405 -0.0022 -0.5363
 1067SOL     OW 3999   0.137   3.961   0.128 -0.1751 -0.0405 -0.2867
 1067SOL    HW2 4000   0.059   4.004   0.092 -0.2609  0.6943  0.7374
 1067SOL    HW3 4001   0.150   4.001   0.213  1.0737 -0.4774 -0.2428
 1067SOL    MW4 4002   0.128   3.972   0.134 -0.2964 -0.2234  0.0614
 1068SOL     OW 4003   1.821   4.039   2.029 -0.2407  0.4854 -0.1366
 1068SOL    HW2 4004   1.848   3.988   2.106 -2.7970 -1.2095 -0.2163
 1068SOL    HW3 4005   1.900   4.084   2.001  1.3106 -0.5914  2.1627
 1068SOL    MW4 4006   1.835   4.038   2.035  0.3759  0.2627 -0.2398
 1069SOL     OW 4007   2.429   5.020   3.031 -0.0845 -0.4497 -0.0689
 1069SOL    HW2 4008   2.524   5.011   3.033 -0.1922 -1.5389  0.7880
 1069SOL    HW3 4009   2.399   4.946   2.978 -0.5851 -1.5430  1.6695
 1069SOL    MW4 4010   2.438   5.009   3.024  0.0393  0.1637  0.2753
 1070SOL     OW 4011   5.564   0.276   0.500  0.1528  0.1611  0.2752
 1070SOL    HW2 4012   5.541   0.248   0.412  1.2365  0.3119 -0.0744
 1070SOL    HW3 4013   5.524   0.211   0.558  2.0270 -1.7419 -0.4795
 1070SOL    MW4 4014   5.556   0.264   0.496 -0.2240  0.4175 -0.0094
 1071SOL     OW 4015   5.701   0.166   3.578 -0.2915  0.1514 -0.0160
 1071SOL    HW2 4016   5.771   0.163   3.644 -0.5855 -0.6707  0.2746
 1071SOL    HW3 4017   5.734   0.113   3.506 -0.3091  0.3775 -0.1908
 1071SOL    MW4 4018   5.714   0.158   3.577  0.3606 -0.4677  0.1889
 1072SOL     OW 4019   1.775   5.129   3.566  0.0160 -0.3604  0.4911
 1072SOL    HW2 4020   1.781   5.221   3.542  0.6535 -0.6178 -0.4187
 1072SOL    HW3 4021   1.757   5.084   3.483  1.2747 -1.1972  0.6403
 1072SOL    MW4 4022   1.773   5.135   3.552  0.4897 -0.3282  0.0610
 1073SOL     OW 4023   4.607   0.300   3.339  0.1763 -0.5941  0.0753
 1073SOL    HW2 4024   4.604   0.206   3.359  1.3937 -0.7353 -0.3054
 1073SOL    HW3 4025   4.652   0.339   3.414 -2.4530  0.1023  1.4444
 1073SOL    MW4 4026   4.612   0.293   3.352  0.1760 -0.0929  0.1421
 1074SOL     OW 4027   3.409   5.498   0.337 -0.0910 -0.1393 -0.3668
 1074SOL    HW2 4028   3.340   5.442   0.373 -1.1632 -0.1553 -2.3145
 1074SOL    HW3 4029   3.414   5.572   0.398 -1.6428 -0.2816 -0.0168
 1074SOL    MW4 4030   3.400   5.500   0.350 -0.4771 -0.0115  0.4111
 1075SOL     OW 4031   0.228   1.743   6.273 -0.1594 -0.0060  1.0035
 1075SOL    HW2 4032   0.209   1.662   6.319  0.7280 -1.6212 -1.3130
 1075SOL    HW3 4033   0.238   1.717   6.181 -0.5772  2.8383  0.0517
 1075SOL    MW4 4034   0.227   1.729   6.267 -0.0892 -0.1492 -0.0228
 1076SOL     OW 4035   2.611   4.128   3.439  0.2223  0.0254  0.1333
 1076SOL    HW2 4036   2.629   4.140   3.346  1.4721  1.2367  0.4904
 1076SOL    HW3 4037   2.588   4.035   3.447  1.6797 -0.4922 -1.1591
 1076SOL    MW4 4038   2.611   4.117   3.428  0.4808  0.6664 -0.0970
 1077SOL     OW 4039   2.218   1.111   5.835 -0.2827  0.2210 -0.2821
 1077SOL    HW2 4040   2.268   1.193   5.838  0.4888 -0.1947 -1.1066
 1077SOL    HW3 4041   2.284   1.043   5.851 -0.7495 -0.2863 -0.4979
 1077SOL    MW4 4042   2.234   1.113   5.837 -0.0371 -0.3732 -0.4777
 1078SOL     OW 4043   0.296   0.138   4.250  0.0327 -0.2088  0.6324
 1078SOL    HW2 4044   0.250   0.105   4.327 -0.0336 -0.9055  0.3019
 1078SOL    HW3 4045   0.269   0.230   4.243  0.4605  0.0225  1.7453
 1078SOL    MW4 4046   0.286   0.146   4.260  0.2939  0.0941  0.5606
 1079SOL     OW 4047   5.165   4.340   5.088  0.5427 -0.4051 -0.1803
 1079SOL    HW2 4048   5.192   4.420   5.134  1.3229  0.0498 -1.3962
 1079SOL    HW3 4049   5.100   4.370   5.025  0.0796 -0.9018  0.0521
 1079SOL    MW4 4050   5.160   4.355   5.086  0.0672 -0.1026  0.6065
 1080SOL     OW 4051   2.312   1.594   3.246  0.4108 -0.4678  0.2266
 1080SOL    HW2 4052   2.362   1.517   3.220  0.2637 -0.6728  0.5446
 1080SOL    HW3 4053   2.241   1.559   3.300  0.4543 -0.0917  0.5276
 1080SOL    MW4 4054   2.309   1.579   3.249  0.5057 -0.1306  0.1069
 1081SOL     OW 4055   2.600   3.747   6.049 -0.6157  0.0013  0.0160
 1081SOL    HW2 4056   2.610   3.821   5.990  1.9434 -1.2370 -1.2467
 1081SOL    HW3 4057   2.585   3.786   6.135  0.4945  1.9885 -0.6388
 1081SOL    MW4 4058   2.599   3.762   6.053 -0.4022 -0.0088 -0.4882
 1082SOL     OW 4059   3.921   0.820   4.624  0.4555  0.0646  0.1332
 1082SOL    HW2 4060   3.868   0.845   4.549 -1.2795  0.0990  1.3283
 1082SOL    HW3 4061   4.010   0.814   4.589 -0.0962  1.3449 -1.6271
 1082SOL    MW4 4062   3.926   0.823   4.609  0.6538  0.6133  0.5602
 1083SOL     OW 4063   6.138   1.531   5.029  0.0618 -0.3684  0.0097
 1083SOL    HW2 4064   6.071   1.477   5.072  0.4251 -0.4570  0.4677
 1083SOL    HW3 4065   6.100   1.619   5.027  0.0764 -0.3422  0.6030
 1083SOL    MW4 4066   6.124   1.535   5.034 -0.4184 -0.3791  0.0389
 1084SOL     OW 4067   0.563   4.284   2.916 -0.6125 -0.1329  0.3550
 1084SOL    HW2 4068   0.649   4.319   2.893 -1.6952  3.3399  0.9076
 1084SOL    HW3 4069   0.507   4.307   2.842 -1.6978  0.7235  1.3862
 1084SOL    MW4 4070   0.567   4.292   2.904 -0.0013 -0.3399  0.2159
 1085SOL     OW 4071   5.458   4.259   3.702 -0.0178 -0.0712  0.0672
 1085SOL    HW2 4072   5.546   4.264   3.664 -0.0754 -1.6425 -0.3718
 1085SOL    HW3 4073   5.424   4.348   3.697  0.7119  0.1482 -1.8252
 1085SOL    MW4 4074   5.466   4.271   3.697  0.2727 -0.8245 -0.1513
 1086SOL     OW 4075   0.742   3.702   0.630 -0.2474  0.3370  0.6743
 1086SOL    HW2 4076   0.833   3.728   0.643 -0.6683  1.2229  1.9955
 1086SOL    HW3 4077   0.693   3.750   0.696 -1.6773 -0.2056  0.0582
 1086SOL    MW4 4078   0.748   3.712   0.640  0.5963  0.2416 -0.1256
 1087SOL     OW 4079   2.444   1.786   0.385 -0.3935 -0.0480  0.2990
 1087SOL    HW2 4080   2.486   1.706   0.415  0.3969  0.5783  0.9010
 1087SOL    HW3 4081   2.516   1.844   0.362 -0.9256  0.8465  0.8252
 1087SOL    MW4 4082   2.459   1.783   0.386 -0.1199 -0.2557  0.0502
 1088SOL     OW 4083   1.219   5.966   2.534 -0.0956 -0.0602  0.2440
 1088SOL    HW2 4084   1.256   6.024   2.468 -0.5973 -0.7985 -0.7236
 1088SOL    HW3 4085   1.294   5.915   2.566 -0.2346 -1.7422 -1.9039
 1088SOL    MW4 4086   1.234   5.967   2.530  0.0616 -0.2478  0.4234
 1089SOL     OW 4087   4.581   0.434   4.672  0.1654 -0.2052  0.1866
 1089SOL    HW2 4088   4.548   0.352   4.636 -0.4148 -0.3552  1.0338
 1089SOL    HW3 4089   4.545   0.501   4.613 -2.6655 -0.2684  1.6711
 1089SOL    MW4 4090   4.572   0.432   4.659 -0.5490  0.3065 -0.1030
 1090SOL     OW 4091   3.870   3.293   1.412 -0.4151  0.0138 -0.6914
 1090SOL    HW2 4092   3.912   3.379   1.405  0.3982 -0.4487 -1.7110
 1090SOL    HW3 4093   3.815   3.287   1.335 -1.4908  0.1362  0.0506
 1090SOL    MW4 4094   3.869   3.304   1.401 -0.0959 -0.5628  0.6945
 1091SOL     OW 4095   4.223   4.697   1.651 -0.1592  0.4575  0.2306
 1091SOL    HW2 4096   4.280   4.643   1.596 -0.3064 -0.0218  0.5492
 1091SOL    HW3 4097   4.207   4.775   1.598 -2.4212 -1.0911 -1.5621
 1091SOL    MW4 4098   4.229   4.700   1.637 -0.2613 -0.3917 -0.8741
 1092SOL     OW 4099   6.294   5.368   0.519 -0.1929  0.3784 -0.5672
 1092SOL    HW2 4100   6.224   5.370   0.453 -1.4254  0.5769  0.6812
 1092SOL    HW3 4101   6.264   5.303   0.583  0.1579  1.3250  0.6082
 1092SOL    MW4 4102   6.281   5.360   0.519  0.0055  0.1121  0.1358
 1093SOL     OW 4103   4.069   1.600   6.135 -0.3428  0.6727  0.5283
 1093SOL    HW2 4104   4.110   1.517   6.111 -0.0062  1.0358 -0.1558
 1093SOL    HW3 4105   4.003   1.615   6.067  0.0642  1.3034  0.2709
 1093SOL    MW4 4106   4.066   1.591   6.123 -0.7527 -0.2412  0.1720
 1094SOL     OW 4107   4.394   0.158   6.351 -0.7610 -0.0472  0.4164
 1094SOL    HW2 4108   4.462   0.137   6.414  0.2053  0.5603 -0.3923
 1094SOL    HW3 4109   4.410   0.099   6.277  0.0819  1.3512 -0.5705
 1094SOL    MW4 4110   4.405   0.148   6.349  0.1389  0.1071 -0.3805
 1095SOL     OW 4111   5.727   3.860   3.694 -0.3352 -0.1020  0.1203
 1095SOL    HW2 4112   5.714   3.912   3.615  0.8139  0.5911  0.3593
 1095SOL    HW3 4113   5.652   3.882   3.750 -1.3207 -0.8327 -0.8655
 1095SOL    MW4 4114   5.715   3.870   3.691  0.1937 -0.0312 -0.0691
 1096SOL     OW 4115   3.449   3.081   0.138  0.4770  0.7995  0.5125
 1096SOL    HW2 4116   3.468   3.049   0.226  0.8781  0.6191  0.3621
 1096SOL    HW3 4117   3.527   3.130   0.113 -0.2604  2.2160  0.8720
 1096SOL    MW4 4118   3.462   3.083   0.147  0.1994  0.1677 -0.4314
 1097SOL     OW 4119   5.982   2.085   3.969  0.0023 -0.1816 -0.1166
 1097SOL    HW2 4120   6.029   2.003   3.984  1.8701  0.9514  0.6499
 1097SOL    HW3 4121   5.958   2.082   3.876  0.1223 -1.5273 -0.1280
 1097SOL    MW4 4122   5.985   2.074   3.959 -0.6689 -0.9149  0.2524
 1098SOL     OW 4123   5.166   2.124   3.333  0.0510  0.4439 -0.7578
 1098SOL    HW2 4124   5.108   2.052   3.307 -1.4124  1.5774 -0.7910
 1098SOL    HW3 4125   5.235   2.125   3.267 -1.4446  0.7834 -2.3910
 1098SOL    MW4 4126   5.167   2.115   3.321  0.1675 -0.5732  0.3461
 1099SOL     OW 4127   2.093   6.257   2.784 -0.3007  0.2912  0.5417
 1099SOL    HW2 4128   2.188   6.256   2.791 -0.3786 -0.9269  2.0357
 1099SOL    HW3 4129   2.063   6.250   2.875 -1.8326  1.2112  0.1477
 1099SOL    MW4 4130   2.101   6.256   2.797  0.3880  0.3585  0.4273
 1100SOL     OW 4131   0.641   0.837   4.984  0.2938 -0.4651 -0.5988
 1100SOL    HW2 4132   0.650   0.781   4.906  0.7336  0.7881 -1.4888
 1100SOL    HW3 4133   0.697   0.912   4.965  2.9623 -1.5261  2.3283
 1100SOL    MW4 4134   0.650   0.839   4.971 -0.0350 -0.3648  0.0012
 1101SOL     OW 4135   3.891   0.992   3.845  0.2522 -0.5640  0.7894
 1101SOL    HW2 4136   3.887   0.906   3.887 -1.4555 -0.5986  0.6265
 1101SOL    HW3 4137   3.963   0.985   3.783  1.4722 -1.1860  2.2009
 1101SOL    MW4 4138   3.900   0.980   3.843  0.8540 -0.2608 -0.5736
 1102SOL     OW 4139   2.131   1.985   3.105  0.6314  0.2536  0.5650
 1102SOL    HW2 4140   2.096   1.942   3.027  0.5669 -0.2507  0.8625
 1102SOL    HW3 4141   2.217   2.018   3.078  0.9794 -0.6683  0.5088
 1102SOL    MW4 4142   2.138   1.983   3.091  0.3239  0.1449 -0.0307
 1103SOL     OW 4143   4.728   2.193   3.178  0.2159 -0.2798 -0.2585
 1103SOL    HW2 4144   4.693   2.279   3.203 -0.8691 -0.9482  0.6666
 1103SOL    HW3 4145   4.739   2.197   3.083 -0.7577  0.5628 -0.3460
 1103SOL    MW4 4146   4.725   2.205   3.169 -0.7056  0.2199  0.0679
 1104SOL     OW 4147   0.725   0.891   6.036 -0.1415 -0.5854  0.0296
 1104SOL    HW2 4148   0.714   0.797   6.053  3.0322 -0.6056  3.2816
 1104SOL    HW3 4149   0.820   0.902   6.023 -0.0141  2.4042  2.4056
 1104SOL    MW4 4150   0.736   0.880   6.036  0.4403  0.0980  0.3721
 1105SOL     OW 4151   4.007   4.678   5.258  0.1132 -0.1959  0.2852
 1105SOL    HW2 4152   3.949   4.622   5.206  0.8179 -0.7184  0.0477
 1105SOL    HW3 4153   4.085   4.625   5.272  0.8529  0.7883 -0.0640
 1105SOL    MW4 4154   4.009   4.664   5.253  0.5232  0.5626 -0.9516
 1106SOL     OW 4155   5.778   0.691   3.626  0.2138 -0.2013  0.0617
 1106SOL    HW2 4156   5.804   0.609   3.584  1.1984  0.4701 -0.6928
 1106SOL    HW3 4157   5.749   0.747   3.554  1.3185  0.7462  0.3080
 1106SOL    MW4 4158   5.778   0.688   3.611 -0.4428  0.4479  0.3564
 1107SOL     OW 4159   3.372   5.313   3.150 -0.3004 -0.3365 -0.4844
 1107SOL    HW2 4160   3.279   5.313   3.174 -0.3234  0.7631 -0.5112
 1107SOL    HW3 4161   3.390   5.224   3.122 -1.1720 -0.7463  0.2198
 1107SOL    MW4 4162   3.362   5.301   3.150 -0.2493 -0.3973  0.7737
 1108SOL     OW 4163   3.960   5.160   5.240 -0.5378 -0.1401 -0.6872
 1108SOL    HW2 4164   3.884   5.186   5.291  1.3200  1.5075  1.4197
 1108SOL    HW3 4165   3.980   5.071   5.270 -0.8611 -0.0863 -0.3072
 1108SOL    MW4 4166   3.953   5.151   5.250  0.0810  0.4738 -0.6730
 1109SOL     OW 4167   4.441   4.661   3.501  0.0936 -0.2558 -0.0938
 1109SOL    HW2 4168   4.477   4.726   3.441 -0.3841  0.7054  0.6440
 1109SOL    HW3 4169   4.460   4.696   3.588 -0.5392 -0.9027  0.3118
 1109SOL    MW4 4170   4.448   4.674   3.505  0.0887 -0.5362  0.2070
 1110SOL     OW 4171   3.852   0.329   2.995 -0.2708  0.0573  0.0787
 1110SOL    HW2 4172   3.836   0.401   3.056 -1.9834  1.3021 -1.7250
 1110SOL    HW3 4173   3.776   0.272   3.005 -1.5627  1.2648 -2.1381
 1110SOL    MW4 4174   3.840   0.331   3.004 -0.3754 -0.5619  1.1083
 1111SOL     OW 4175   4.294   2.034   4.564  0.4095  0.4452 -0.2008
 1111SOL    HW2 4176   4.218   1.982   4.539  0.0576  1.1341 -0.5756
 1111SOL    HW3 4177   4.366   2.000   4.511  0.2028  0.2767 -0.3694
 1111SOL    MW4 4178   4.294   2.023   4.554 -0.3520  0.1599 -0.3429
 1112SOL     OW 4179   3.548   2.197   1.397  0.0848  0.0003 -0.1531
 1112SOL    HW2 4180   3.625   2.193   1.453 -0.1334  0.6604  0.2093
 1112SOL    HW3 4181   3.488   2.256   1.443 -1.4510 -2.0134  0.5474
 1112SOL    MW4 4182   3.550   2.204   1.410  0.1092 -0.0965 -0.3523
 1113SOL     OW 4183   4.532   5.186   1.857 -0.3763 -0.2841  0.6179
 1113SOL    HW2 4184   4.497   5.161   1.942 -2.7108  0.8473  0.0534
 1113SOL    HW3 4185   4.472   5.252   1.824  0.8215 -0.2265 -1.6497
 1113SOL    MW4 4186   4.520   5.191   1.864 -0.6150  0.1708 -0.3495
 1114SOL     OW 4187   3.566   6.374   0.114  0.4753 -0.1281 -0.3811
 1114SOL    HW2 4188   3.516   6.294   0.094 -1.5615  0.9749  0.0116
 1114SOL    HW3 4189   3.655   6.343   0.128 -0.2171 -2.3249 -0.3920
 1114SOL    MW4 4190   3.571   6.359   0.113  0.1158  0.4613 -0.0258
 1115SOL     OW 4191   5.104   4.348   3.278  0.1037 -0.1177 -0.4254
 1115SOL    HW2 4192   5.180   4.397   3.309 -2.0892  2.0338  2.1824
 1115SOL    HW3 4193   5.067   4.310   3.358 -0.7853 -2.3504 -1.8248
 1115SOL    MW4 4194   5.109   4.350   3.293  0.6590  0.1801 -0.2274
 1116SOL     OW 4195   2.975   1.397   2.518 -0.3337 -0.7289  0.0952
 1116SOL    HW2 4196   2.885   1.380   2.492 -0.8580  0.3562  1.0974
 1116SOL    HW3 4197   3.020   1.421   2.437 -0.7879 -1.8560 -0.5029
 1116SOL    MW4 4198   2.969   1.398   2.504  0.4450  0.0926 -0.5121
 1117SOL     OW 4199   0.331   2.604   0.715 -0.1132  0.4464  0.2794
 1117SOL    HW2 4200   0.358   2.569   0.800 -0.4950 -4.1209 -1.2247
 1117SOL    HW3 4201   0.406   2.657   0.687  0.7215  0.6761  2.6880
 1117SOL    MW4 4202   0.344   2.607   0.723  0.1397 -0.4612  0.3018
 1118SOL     OW 4203   4.334   4.441   0.839 -0.1848  0.4374  0.7803
 1118SOL    HW2 4204   4.254   4.392   0.855 -0.1808 -0.4360 -1.5066
 1118SOL    HW3 4205   4.401   4.394   0.888 -0.2377 -1.7544 -1.1191
 1118SOL    MW4 4206   4.332   4.428   0.848 -0.5375  0.2633  0.4400
 1119SOL     OW 4207   6.390   3.303   3.078 -0.0904  0.4188  0.7379
 1119SOL    HW2 4208   6.444   3.224   3.077 -1.3465 -0.4839 -0.3918
 1119SOL    HW3 4209   6.371   3.319   2.985  2.0585  3.4606  0.6972
 1119SOL    MW4 4210   6.395   3.294   3.065  0.4230 -0.3905  0.0887
 1120SOL     OW 4211   3.893   2.666   1.169  0.4313 -0.4191 -0.0724
 1120SOL    HW2 4212   3.847   2.629   1.244 -0.4293 -0.0816 -0.4241
 1120SOL    HW3 4213   3.831   2.659   1.097  1.5141 -1.4413 -0.9548
 1120SOL    MW4 4214   3.879   2.660   1.169  0.0270  0.7952 -0.0071
 1121SOL     OW 4215   0.127   5.980   1.493 -0.3256 -0.9418 -0.3244
 1121SOL    HW2 4216   0.086   5.952   1.411  0.9251  0.2672 -1.4172
 1121SOL    HW3 4217   0.070   6.048   1.527  0.4139  0.3527 -1.5579
 1121SOL    MW4 4218   0.114   5.985   1.487 -0.0386  0.0847  0.1916
 1122SOL     OW 4219   0.198   2.523   5.124  0.2944 -0.6436  0.2053
 1122SOL    HW2 4220   0.224   2.458   5.060  0.0165 -0.0319 -0.5415
 1122SOL    HW3 4221   0.275   2.579   5.135 -0.3962  0.6980 -1.4215
 1122SOL    MW4 4222   0.212   2.522   5.117  0.0070  0.3661  0.3173
 1123SOL     OW 4223   0.349   1.255   5.581  0.5581 -0.4128 -0.0584
 1123SOL    HW2 4224   0.303   1.268   5.497  0.5598 -0.5070 -0.0746
 1123SOL    HW3 4225   0.285   1.208   5.636  0.2859  0.3104  0.2475
 1123SOL    MW4 4226   0.335   1.250   5.577  0.5460 -0.2151 -0.4431
 1124SOL     OW 4227   6.040   4.047   4.621  0.3754 -0.5569 -0.9649
 1124SOL    HW2 4228   6.134   4.057   4.605  0.4188 -0.1223 -0.4746
 1124SOL    HW3 4229   6.018   4.120   4.679  0.1223 -1.7636  0.5125
 1124SOL    MW4 4230   6.050   4.058   4.626  0.3013 -0.1391 -0.2919
 1125SOL     OW 4231   5.519   3.712   1.466 -0.6345 -0.0221  0.5752
 1125SOL    HW2 4232   5.433   3.684   1.498 -0.3573  0.4183  1.7902
 1125SOL    HW3 4233   5.572   3.633   1.466 -0.7346 -0.0933  0.9342
 1125SOL    MW4 4234   5.514   3.698   1.470 -0.6843  0.2770 -0.0292
 1126SOL     OW 4235   4.043   6.346   6.300  0.5286 -0.1805  0.0161
 1126SOL    HW2 4236   4.012   6.271   6.248  0.7832 -1.3227  1.4357
 1126SOL    HW3 4237   4.061   6.414   6.235 -1.0532 -0.8580 -1.2050
 1126SOL    MW4 4238   4.041   6.345   6.285 -0.1475 -0.1403  0.3171
 1127SOL     OW 4239   4.426   6.249   0.421  0.7908 -0.4136  0.5322
 1127SOL    HW2 4240   4.385   6.164   0.405  0.4999 -0.2358  0.3052
 1127SOL    HW3 4241   4.492   6.257   0.352  1.4315 -0.8430  1.0981
 1127SOL    MW4 4242   4.429   6.239   0.409  0.0602  0.4489  0.2153
 1128SOL     OW 4243   6.380   6.021   2.455 -0.4291 -0.0503  0.2122
 1128SOL    HW2 4244   6.417   6.071   2.527 -0.5267  0.2364  0.0649
 1128SOL    HW3 4245   6.352   5.939   2.494  1.4063 -0.7531  0.1301
 1128SOL    MW4 4246   6.381   6.017   2.469  0.3167  0.0994  0.0971
 1129SOL     OW 4247   0.817   6.255   4.121 -0.3251  0.2591  0.4345
 1129SOL    HW2 4248   0.909   6.278   4.104 -0.4563  0.3123 -0.2506
 1129SOL    HW3 4249   0.775   6.260   4.035 -0.4221 -2.3081  0.2702
 1129SOL    MW4 4250   0.824   6.259   4.107 -0.7001 -0.2660  0.0150
 1130SOL     OW 4251   1.687   3.800   1.844 -0.5082  0.1411  0.0380
 1130SOL    HW2 4252   1.718   3.842   1.924 -0.0051 -0.0784 -0.0388
 1130SOL    HW3 4253   1.631   3.729   1.875 -0.8868  0.4961  0.1780
 1130SOL    MW4 4254   1.683   3.796   1.859  0.4468 -0.1583 -0.2246
 1131SOL     OW 4255   1.020   6.061   2.689  0.3669 -0.1322 -0.2624
 1131SOL    HW2 4256   1.033   6.155   2.701 -1.2274  0.1064 -0.1654
 1131SOL    HW3 4257   1.086   6.036   2.624  1.6389  0.7911  0.6251
 1131SOL    MW4 4258   1.030   6.070   2.682  0.3560  0.2465 -0.1013
 1132SOL     OW 4259   4.197   4.344   2.992  0.2199 -0.1536 -0.1732
 1132SOL    HW2 4260   4.120   4.321   2.940 -0.1197 -0.9195  0.6318
 1132SOL    HW3 4261   4.271   4.308   2.943 -0.1327 -1.2637  0.0636
 1132SOL    MW4 4262   4.196   4.336   2.979 -0.0450 -0.3469 -0.1676
 1133SOL     OW 4263   4.616   5.791   2.279 -0.3640 -0.8713 -0.6580
 1133SOL    HW2 4264   4.624   5.700   2.308 -2.7764 -0.5748  1.3187
 1133SOL    HW3 4265   4.539   5.792   2.223  0.8385 -0.3489 -2.3771
 1133SOL    MW4 4266   4.607   5.780   2.276 -0.0389  0.9039 -0.1416
 1134SOL     OW 4267   2.027   2.897   5.649  0.4272 -0.0184 -0.3557
 1134SOL    HW2 4268   2.031   2.950   5.570 -0.2703  2.7611  1.3409
 1134SOL    HW3 4269   2.092   2.935   5.708 -0.5719 -0.5555  1.1867
 1134SOL    MW4 4270   2.036   2.909   5.647  0.2928 -0.3145  0.0436
 1135SOL     OW 4271   3.488   5.015   5.880 -0.3497 -0.4844 -0.2683
 1135SOL    HW2 4272   3.457   5.064   5.804 -0.9606 -0.1164  0.2165
 1135SOL    HW3 4273   3.536   5.080   5.932  0.0115 -0.7212 -0.3003
 1135SOL    MW4 4274   3.490   5.030   5.877  0.4836 -0.1424  0.1541
 1136SOL     OW 4275   1.758   3.911   0.703 -0.0956 -0.2113  0.3471
 1136SOL    HW2 4276   1.764   3.815   0.696 -2.3401 -0.3827 -0.1122
 1136SOL    HW3 4277   1.773   3.942   0.614  0.6711 -0.1078  0.5035
 1136SOL    MW4 4278   1.761   3.902   0.691 -0.0296 -0.8843  0.1936
 1137SOL     OW 4279   3.445   1.539   5.778  0.4344  0.1208  0.4472
 1137SOL    HW2 4280   3.501   1.484   5.722 -0.8752 -0.7293 -0.0769
 1137SOL    HW3 4281   3.453   1.500   5.865  1.2210  0.4560  0.5313
 1137SOL    MW4 4282   3.453   1.526   5.782 -0.5579  0.6569  0.1521
 1138SOL     OW 4283   5.718   1.476   5.826 -0.2873  0.2260 -0.4339
 1138SOL    HW2 4284   5.683   1.398   5.783  0.7598  0.2726 -1.4263
 1138SOL    HW3 4285   5.671   1.482   5.909 -0.2235 -1.5774 -0.2476
 1138SOL    MW4 4286   5.707   1.467   5.831  0.7863 -0.5911  0.4888
 1139SOL     OW 4287   4.161   4.752   6.042 -0.0397  0.6825 -0.0819
 1139SOL    HW2 4288   4.253   4.768   6.065  0.2864 -0.7054 -0.3131
 1139SOL    HW3 4289   4.122   4.716   6.122 -0.1851  0.5794 -0.1990
 1139SOL    MW4 4290   4.168   4.749   6.056  0.7366  0.1915 -0.0854
 1140SOL     OW 4291   3.415   6.324   5.402 -0.2853  0.1756 -0.3016
 1140SOL    HW2 4292   3.436   6.367   5.319 -1.6937 -0.3845 -0.9862
 1140SOL    HW3 4293   3.382   6.394   5.458 -0.0707  0.4245 -0.4843
 1140SOL    MW4 4294   3.413   6.339   5.398  0.1344 -0.1152 -0.1151
 1141SOL     OW 4295   4.716   1.149   3.832  0.0033 -0.0059  0.2262
 1141SOL    HW2 4296   4.624   1.162   3.810  0.0105 -0.3179  0.0074
 1141SOL    HW3 4297   4.736   1.219   3.895 -0.6853 -0.6161  1.1443
 1141SOL    MW4 4298   4.707   1.160   3.838 -0.9474 -0.3214 -0.1528
 1142SOL     OW 4299   5.126   4.436   1.545  0.5895  0.6976  0.2772
 1142SOL    HW2 4300   5.112   4.529   1.526  0.1648  0.2810 -1.5779
 1142SOL    HW3 4301   5.221   4.425   1.543  0.6427  1.0778  0.5311
 1142SOL    MW4 4302   5.136   4.447   1.542  0.2236 -0.4343 -0.2984
 1143SOL     OW 4303   4.807   4.492   2.048 -0.2716  0.4327  0.8133
 1143SOL    HW2 4304   4.756   4.516   1.971  2.5650 -4.3959 -3.1398
 1143SOL    HW3 4305   4.761   4.416   2.084  1.4941 -1.0491  0.0632
 1143SOL    MW4 4306   4.794   4.485   2.043  0.3778  0.1046 -0.4160
 1144SOL     OW 4307   0.360   2.884   2.604 -0.6333  0.3944 -0.4004
 1144SOL    HW2 4308   0.271   2.891   2.639 -0.1149  0.9448  0.8950
 1144SOL    HW3 4309   0.402   2.967   2.629  0.9908 -0.8548  1.3111
 1144SOL    MW4 4310   0.354   2.896   2.612 -0.0728  0.0480  0.2362
 1145SOL     OW 4311   1.028   1.460   0.683 -0.0095 -0.2001  0.2533
 1145SOL    HW2 4312   0.965   1.506   0.628 -0.7969 -1.8522 -0.3254
 1145SOL    HW3 4313   1.018   1.368   0.657  0.3030 -0.9095  2.4830
 1145SOL    MW4 4314   1.018   1.454   0.672  0.2618  0.3272 -0.1616
 1146SOL     OW 4315   0.108   0.880   4.203  0.3597 -0.1613 -0.5795
 1146SOL    HW2 4316   0.133   0.790   4.185  1.6186  0.7096 -3.9832
 1146SOL    HW3 4317   0.177   0.914   4.260  1.4434 -0.6213 -1.5819
 1146SOL    MW4 4318   0.120   0.873   4.209 -0.1826 -0.1001  0.7468
 1147SOL     OW 4319   4.900   5.065   4.781 -0.7773  0.1703  0.0417
 1147SOL    HW2 4320   4.969   5.050   4.845 -0.2579  1.1442 -0.2730
 1147SOL    HW3 4321   4.858   5.146   4.809 -1.3594 -0.0639 -0.1473
 1147SOL    MW4 4322   4.904   5.074   4.793 -0.0310  0.1618 -0.3679
 1148SOL     OW 4323   1.873   2.926   6.402 -0.4758  0.3159 -0.5266
 1148SOL    HW2 4324   1.894   2.951   6.312  1.0968 -0.9573 -0.5683
 1148SOL    HW3 4325   1.806   2.988   6.429 -2.0120 -0.1018 -3.0303
 1148SOL    MW4 4326   1.867   2.938   6.393  0.1345 -0.0920 -0.4139
 1149SOL     OW 4327   1.468   2.933   5.566  0.0446  0.4549  0.1739
 1149SOL    HW2 4328   1.478   3.028   5.579  0.5781  0.2495  1.3868
 1149SOL    HW3 4329   1.378   2.915   5.591 -0.2285  0.7085 -0.5819
 1149SOL    MW4 4330   1.457   2.943   5.571  0.0422 -0.2846 -0.1412
 1150SOL     OW 4331   2.341   6.252   3.874 -0.0008 -0.4795 -0.2474
 1150SOL    HW2 4332   2.370   6.237   3.965  1.5109 -0.1377 -0.6417
 1150SOL    HW3 4333   2.402   6.200   3.821 -0.1920  0.1749 -1.1239
 1150SOL    MW4 4334   2.353   6.243   3.879  0.1938  0.2262 -0.0660
 1151SOL     OW 4335   6.315   2.615   5.070 -0.3099  0.4477  0.2390
 1151SOL    HW2 4336   6.247   2.639   5.007  0.4910 -1.0225 -1.2764
 1151SOL    HW3 4337   6.306   2.678   5.141 -2.6769  0.8283 -0.3201
 1151SOL    MW4 4338   6.305   2.626   5.071  0.2574 -0.0557  0.3448
 1152SOL     OW 4339   3.724   0.485   1.367 -0.3285  0.2189 -0.0822
 1152SOL    HW2 4340   3.653   0.423   1.347  0.3081 -0.6762  0.3740
 1152SOL    HW3 4341   3.786   0.474   1.296  0.7876 -1.2256  1.0517
 1152SOL    MW4 4342   3.723   0.476   1.355  0.3911 -0.1857  0.9332
 1153SOL     OW 4343   2.884   1.020   2.041  0.6434  0.8809  0.2112
 1153SOL    HW2 4344   2.935   0.994   2.118 -0.3156 -1.3362  0.2058
 1153SOL    HW3 4345   2.822   1.085   2.075  0.2748 -0.0104  1.3717
 1153SOL    MW4 4346   2.882   1.025   2.056  0.4369 -0.1354 -0.7293
 1154SOL     OW 4347   4.450   3.530   0.675  0.1576  0.3612 -0.4273
 1154SOL    HW2 4348   4.492   3.511   0.592 -0.3436 -0.4135 -0.5075
 1154SOL    HW3 4349   4.485   3.465   0.736  0.3153  0.7512 -0.0966
 1154SOL    MW4 4350   4.460   3.519   0.672 -0.1780  0.5451 -0.2139
 1155SOL     OW 4351   5.591   2.638   2.925  0.5919  0.9733  0.3790
 1155SOL    HW2 4352   5.529   2.639   2.852  1.1264  0.1971 -0.0921
 1155SOL    HW3 4353   5.599   2.730   2.950  0.7038  1.2979 -0.7923
 1155SOL    MW4 4354   5.584   2.651   2.919 -0.0777 -0.0048 -0.8911
 1156SOL     OW 4355   1.136   4.828   4.856  0.2244  0.1015  0.3833
 1156SOL    HW2 4356   1.142   4.924   4.856  1.4046  0.0330  0.1423
 1156SOL    HW3 4357   1.192   4.800   4.928 -0.7077 -0.3965  0.9392
 1156SOL    MW4 4358   1.144   4.837   4.866  1.0339 -0.2176  0.3763
 1157SOL     OW 4359   1.131   3.265   4.884  0.0189 -0.0926 -0.4593
 1157SOL    HW2 4360   1.206   3.206   4.887  0.2049  0.1595  2.4497
 1157SOL    HW3 4361   1.056   3.208   4.869  0.1732 -1.2331  2.4365
 1157SOL    MW4 4362   1.131   3.250   4.882 -0.1625 -0.3369  0.6131
 1158SOL     OW 4363   5.078   4.773   3.697  0.5415  0.4355  0.0785
 1158SOL    HW2 4364   5.127   4.766   3.616 -0.7456  0.7141 -0.7451
 1158SOL    HW3 4365   5.113   4.851   3.740  0.6575  0.7664 -0.6023
 1158SOL    MW4 4366   5.089   4.782   3.692 -0.2042  0.8245  0.6519
 1159SOL     OW 4367   2.814   6.298   1.766 -0.2942  0.5976 -0.0881
 1159SOL    HW2 4368   2.829   6.324   1.857 -1.3581  2.0804 -0.2963
 1159SOL    HW3 4369   2.850   6.370   1.714  0.6631 -0.4223 -0.8707
 1159SOL    MW4 4370   2.821   6.311   1.771  0.0958 -0.3828  0.3499
 1160SOL     OW 4371   4.314   5.091   0.389 -0.0180  0.0215  0.0041
 1160SOL    HW2 4372   4.241   5.142   0.423  0.7086  1.0113  0.1446
 1160SOL    HW3 4373   4.378   5.157   0.360  0.2780 -0.8035 -1.3156
 1160SOL    MW4 4374   4.313   5.106   0.389  0.2231  0.3797  0.3238
 1161SOL     OW 4375   5.766   6.085   2.420  0.3288 -0.6214 -0.3293
 1161SOL    HW2 4376   5.837   6.099   2.357  1.0577 -0.1977  0.5618
 1161SOL    HW3 4377   5.686   6.105   2.371  0.9444  0.6431 -0.8565
 1161SOL    MW4 4378   5.765   6.089   2.405  0.2198  0.0962  0.5964
 1162SOL     OW 4379   1.667   1.823   1.016 -0.2774  0.1024 -0.5865
 1162SOL    HW2 4380   1.621   1.879   0.954  0.5955  0.9800 -0.4616
 1162SOL    HW3 4381   1.643   1.734   0.990 -1.3240  0.5140 -1.0678
 1162SOL    MW4 4382   1.658   1.819   1.005  0.1037 -0.7625  0.5579
 1163SOL     OW 4383   5.480   4.713   1.499 -0.3789  0.3617 -0.3537
 1163SOL    HW2 4384   5.566   4.702   1.540 -0.3654  0.2069 -0.4255
 1163SOL    HW3 4385   5.418   4.705   1.571 -0.2798  1.6018 -0.1075
 1163SOL    MW4 4386   5.483   4.710   1.514 -0.2571 -0.1711  0.0005
 1164SOL     OW 4387   2.239   5.211   0.176  0.1053  0.4311 -0.7544
 1164SOL    HW2 4388   2.228   5.239   0.085  0.2521 -1.4953 -1.4139
 1164SOL    HW3 4389   2.333   5.217   0.193 -0.0523  1.9588 -0.2953
 1164SOL    MW4 4390   2.250   5.216   0.166  0.1815 -0.5306  0.3756
 1165SOL     OW 4391   0.666   2.825   2.080  0.4063 -0.3270  0.2508
 1165SOL    HW2 4392   0.714   2.908   2.075 -0.5025  0.2154  0.2722
 1165SOL    HW3 4393   0.576   2.848   2.056  0.4675 -1.6244 -1.4031
 1165SOL    MW4 4394   0.661   2.839   2.076 -0.0692 -0.5067  0.2484
 1166SOL     OW 4395   2.751   2.266   5.219 -0.5073 -0.5721  0.1119
 1166SOL    HW2 4396   2.798   2.321   5.282 -2.2250 -0.3576  1.2777
 1166SOL    HW3 4397   2.766   2.308   5.135 -0.1157  0.5338  0.7143
 1166SOL    MW4 4398   2.759   2.279   5.217  0.3498 -0.7798  0.0862
 1167SOL     OW 4399   3.265   3.172   0.551 -0.3605  0.0676 -0.0459
 1167SOL    HW2 4400   3.340   3.157   0.608 -0.0015 -1.3650 -0.8235
 1167SOL    HW3 4401   3.189   3.175   0.609  0.1718  0.2844  0.6402
 1167SOL    MW4 4402   3.265   3.170   0.566  0.4563  0.2580  0.0864
 1168SOL     OW 4403   1.397   6.035   2.863  0.4221  0.1198  0.0331
 1168SOL    HW2 4404   1.349   6.085   2.929  0.9573 -1.1689  1.4426
 1168SOL    HW3 4405   1.489   6.051   2.883  0.5910 -0.9825  0.1612
 1168SOL    MW4 4406   1.403   6.044   2.874  0.0168 -0.1436  0.3038
 1169SOL     OW 4407   0.629   4.566   6.408  0.5800 -0.1110 -0.0495
 1169SOL    HW2 4408   0.690   4.580   6.336  0.2088  2.0944  0.0080
 1169SOL    HW3 4409   0.684   4.563   6.486  0.6640  2.8579  0.1174
 1169SOL    MW4 4410   0.644   4.567   6.409  0.3886  0.1760  0.1102
 1170SOL     OW 4411   3.032   5.499   4.418  0.0055 -0.6294  0.4308
 1170SOL    HW2 4412   2.946   5.495   4.375  0.4265  0.1640 -0.5328
 1170SOL    HW3 4413   3.025   5.438   4.491 -1.2576 -0.8565  0.1484
 1170SOL    MW4 4414   3.019   5.490   4.422  0.7054  0.3926 -0.0112
 1171SOL     OW 4415   1.000   2.624   5.711 -0.3215 -0.0441 -0.6329
 1171SOL    HW2 4416   1.085   2.582   5.723 -0.2760  0.3314  0.3782
 1171SOL    HW3 4417   0.943   2.552   5.683  0.0232 -0.5602 -0.0373
 1171SOL    MW4 4418   1.004   2.609   5.709 -0.8877 -0.1986 -0.2076
 1172SOL     OW 4419   1.330   3.891   4.704  0.6462  0.4269 -0.0788
 1172SOL    HW2 4420   1.291   3.880   4.791 -1.6838 -0.3860 -1.1304
 1172SOL    HW3 4421   1.329   3.986   4.689  1.3758  0.6005  0.8740
 1172SOL    MW4 4422   1.325   3.902   4.713 -0.0260 -0.2835  0.3345
 1173SOL     OW 4423   3.991   3.305   3.913 -0.1121 -0.2570 -0.3672
 1173SOL    HW2 4424   4.009   3.217   3.945 -0.6328 -0.5077 -0.7587
 1173SOL    HW3 4425   3.963   3.293   3.822  1.0600  0.4147 -0.8491
 1173SOL    MW4 4426   3.990   3.292   3.905 -0.3224 -0.4848 -0.5980
 1174SOL     OW 4427   1.707   1.809   2.898 -0.1956 -0.3389 -0.2131
 1174SOL    HW2 4428   1.773   1.759   2.850  0.4056  0.7024 -0.5024
 1174SOL    HW3 4429   1.744   1.819   2.986 -0.7476 -1.2116  0.1218
 1174SOL    MW4 4430   1.721   1.804   2.903  0.4412  0.2846  0.2970
 1175SOL     OW 4431   5.220   4.433   1.821  0.0636 -0.2700 -0.1146
 1175SOL    HW2 4432   5.148   4.382   1.858 -0.3451  0.3692 -0.0050
 1175SOL    HW3 4433   5.183   4.472   1.741  0.5226 -0.5531 -0.4666
 1175SOL    MW4 4434   5.206   4.432   1.815  0.1236  0.0784  0.6069
 1176SOL     OW 4435   6.086   5.868   4.331 -0.0681  0.1150 -0.0017
 1176SOL    HW2 4436   6.029   5.802   4.291 -0.8876  1.0847 -0.4829
 1176SOL    HW3 4437   6.166   5.820   4.353 -1.0720 -1.2980  0.7446
 1176SOL    MW4 4438   6.089   5.853   4.328  0.3569  1.0606 -0.5188
 1177SOL     OW 4439   2.661   3.310   6.172  0.0771 -0.3355 -0.4928
 1177SOL    HW2 4440   2.615   3.347   6.247  0.4681 -1.2387  0.2202
 1177SOL    HW3 4441   2.594   3.259   6.126 -0.1381  0.1336 -0.7073
 1177SOL    MW4 4442   2.646   3.308   6.176 -0.4625 -0.3624 -0.5772
 1178SOL     OW 4443   5.870   2.687   3.162  0.9566  0.0526 -0.1855
 1178SOL    HW2 4444   5.781   2.652   3.160  0.2049  1.8101 -2.2251
 1178SOL    HW3 4445   5.923   2.620   3.118  0.2075 -0.0477 -0.9549
 1178SOL    MW4 4446   5.865   2.674   3.156 -0.1039  0.1094 -0.1379
 1179SOL     OW 4447   1.682   3.160   2.607  0.4302 -0.3519 -0.0413
 1179SOL    HW2 4448   1.628   3.233   2.576  1.2873  0.6608  0.8064
 1179SOL    HW3 4449   1.622   3.105   2.656 -0.1678 -0.0628 -0.4380
 1179SOL    MW4 4450   1.667   3.163   2.609 -0.3702  0.2933  0.0123
 1180SOL     OW 4451   4.321   3.233   0.358 -0.0359  0.0761 -0.5652
 1180SOL    HW2 4452   4.403   3.183   0.360 -0.2032 -0.1833  0.0575
 1180SOL    HW3 4453   4.316   3.267   0.269  2.4962  2.9865  0.2155
 1180SOL    MW4 4454   4.331   3.231   0.347  0.1991  0.1971  0.4149
 1181SOL     OW 4455   0.818   2.098   1.445 -0.2188  0.2006 -0.4200
 1181SOL    HW2 4456   0.799   2.005   1.457  0.3319  0.3570  2.3907
 1181SOL    HW3 4457   0.755   2.143   1.501  0.9321  1.3732 -0.0191
 1181SOL    MW4 4458   0.807   2.092   1.454 -0.2958 -0.3642  0.1385
 1182SOL     OW 4459   6.052   0.493   0.167  0.5140  0.3312 -0.2297
 1182SOL    HW2 4460   6.146   0.487   0.184  1.0086 -0.7447 -2.8198
 1182SOL    HW3 4461   6.028   0.404   0.141 -1.1135  0.7199 -0.1092
 1182SOL    MW4 4462   6.062   0.480   0.166  0.5312 -0.1196 -0.1377
 1183SOL     OW 4463   5.616   3.947   3.209 -0.1956 -0.6041  0.6371
 1183SOL    HW2 4464   5.694   3.923   3.158 -0.5115 -1.0084  0.3344
 1183SOL    HW3 4465   5.550   3.883   3.183 -0.6835 -0.1576  0.7589
 1183SOL    MW4 4466   5.618   3.935   3.199  0.0698 -0.0137 -0.0872
 1184SOL     OW 4467   1.466   4.943   0.306  0.2402 -0.9882 -0.5007
 1184SOL    HW2 4468   1.544   4.936   0.360  0.1825  1.4528  0.0221
 1184SOL    HW3 4469   1.415   4.865   0.327  1.8842 -1.9120  0.1979
 1184SOL    MW4 4470   1.469   4.932   0.316 -0.4656  0.2590 -0.4217
 1185SOL     OW 4471   1.640   6.417   0.748 -0.1263 -0.1415 -0.1153
 1185SOL    HW2 4472   1.711   6.441   0.688 -0.5203 -0.2288 -0.6229
 1185SOL    HW3 4473   1.616   6.328   0.723 -1.4295  0.4148 -0.9666
 1185SOL    MW4 4474   1.646   6.408   0.737  0.0758 -0.6016  0.1741
 1186SOL     OW 4475   2.888   6.332   6.421 -0.1090  1.0925  0.4873
 1186SOL    HW2 4476   2.923   6.248   6.390 -1.2685  0.9250 -0.4133
 1186SOL    HW3 4477   2.963   6.391   6.417  0.1590  0.7053 -1.2807
 1186SOL    MW4 4478   2.903   6.328   6.416 -0.2393  0.0620 -0.0925
 1187SOL     OW 4479   5.815   5.054   1.410  0.1096  0.2344 -0.6913
 1187SOL    HW2 4480   5.723   5.079   1.402  0.1515 -0.0074 -2.0831
 1187SOL    HW3 4481   5.863   5.136   1.405 -0.0171  0.3786  0.1956
 1187SOL    MW4 4482   5.809   5.068   1.409  0.3784 -0.2856  0.2686
 1188SOL     OW 4483   1.229   1.255   0.319  0.0364 -0.5363  0.0769
 1188SOL    HW2 4484   1.260   1.337   0.280  0.9132 -1.3712 -1.0756
 1188SOL    HW3 4485   1.270   1.252   0.405  0.4468 -0.0233 -0.0916
 1188SOL    MW4 4486   1.238   1.266   0.325  0.3713 -0.0046 -0.4224
 1189SOL     OW 4487   0.083   5.938   5.385 -0.0102  0.5735  0.0731
 1189SOL    HW2 4488   0.158   5.996   5.403  2.1823 -1.8852 -0.5329
 1189SOL    HW3 4489   0.102   5.901   5.299 -0.6142 -2.0157  0.9760
 1189SOL    MW4 4490   0.096   5.941   5.376  0.4070 -0.3711  0.4901
 1190SOL     OW 4491   4.794   5.922   1.318 -0.5102  0.5107  0.6715
 1190SOL    HW2 4492   4.883   5.923   1.283 -0.9635 -0.0053 -0.5376
 1190SOL    HW3 4493   4.777   5.831   1.340  0.2325  0.9762  3.6029
 1190SOL    MW4 4494   4.804   5.910   1.317  0.1127  0.2240  0.3996
 1191SOL     OW 4495   1.122   0.065   5.937  0.1232  0.0254 -0.0729
 1191SOL    HW2 4496   1.118   0.158   5.960 -1.9431  0.4486 -1.8524
 1191SOL    HW3 4497   1.082   0.060   5.851 -0.9968 -2.7110  0.5207
 1191SOL    MW4 4498   1.116   0.076   5.929  0.2203 -0.3184  0.4626
 1192SOL     OW 4499   6.400   1.112   1.023 -0.2513  0.0141 -0.0770
 1192SOL    HW2 4500   6.472   1.051   1.037 -0.5265 -0.1991  0.4340
 1192SOL    HW3 4501   6.335   1.088   1.089  0.4915  2.1843  1.5351
 1192SOL    MW4 4502   6.401   1.101   1.033  0.2973 -0.3964  0.2604
 1193SOL     OW 4503   6.014   4.911   2.766  1.0195  0.6699 -0.1121
 1193SOL    HW2 4504   5.925   4.939   2.787  0.5635 -0.9188  0.2112
 1193SOL    HW3 4505   6.042   4.970   2.696 -0.7717  0.4053 -1.1116
 1193SOL    MW4 4506   6.006   4.922   2.759  0.5463 -0.5471 -0.2285
 1194SOL     OW 4507   2.494   3.453   4.565 -0.2286  0.4523  0.0996
 1194SOL    HW2 4508   2.486   3.464   4.659  1.2892  3.0801  0.0230
 1194SOL    HW3 4509   2.458   3.366   4.547 -1.3895  0.2533  2.9453
 1194SOL    MW4 4510   2.488   3.443   4.575 -0.1475  0.1449  0.5606
 1195SOL     OW 4511   1.076   3.845   1.660  0.1814 -0.4512  0.0959
 1195SOL    HW2 4512   1.086   3.751   1.647 -0.4025 -0.4619 -0.3308
 1195SOL    HW3 4513   1.133   3.865   1.734  0.1654 -1.1728  0.3129
 1195SOL    MW4 4514   1.085   3.835   1.668  0.3253  0.4587  0.3710
 1196SOL     OW 4515   6.277   4.795   2.450  0.1209 -0.6986  0.3925
 1196SOL    HW2 4516   6.189   4.783   2.415  0.2239  1.3649 -0.7547
 1196SOL    HW3 4517   6.272   4.767   2.541 -1.7012 -0.6493  0.3280
 1196SOL    MW4 4518   6.265   4.790   2.457 -0.0216  0.1693 -0.1287
 1197SOL     OW 4519   4.277   3.381   5.262 -0.0590  0.4721 -0.2149
 1197SOL    HW2 4520   4.227   3.340   5.191  0.2795 -0.3281 -0.0084
 1197SOL    HW3 4521   4.242   3.470   5.268 -1.2239  0.0450 -0.3070
 1197SOL    MW4 4522   4.266   3.387   5.253 -0.1521 -0.4860  0.2354
 1198SOL     OW 4523   5.649   0.770   2.351  0.0795  0.2040 -0.2553
 1198SOL    HW2 4524   5.640   0.709   2.278 -0.6716 -0.9158  0.7243
 1198SOL    HW3 4525   5.709   0.726   2.411 -0.8972  0.1283  0.7148
 1198SOL    MW4 4526   5.656   0.756   2.349 -0.4642  0.1642  0.0354
 1199SOL     OW 4527   0.902   5.374   2.523 -0.2455  0.5541  0.1473
 1199SOL    HW2 4528   0.874   5.406   2.437 -1.0844  1.6371  0.8004
 1199SOL    HW3 4529   0.933   5.285   2.506 -0.6017  0.6640 -1.2387
 1199SOL    MW4 4530   0.902   5.367   2.509 -0.7651  0.5330  0.4305
 1200SOL     OW 4531   1.391   4.917   2.094 -0.2305  0.0979  0.3066
 1200SOL    HW2 4532   1.345   4.841   2.131 -0.4315 -0.2569 -0.6565
 1200SOL    HW3 4533   1.472   4.881   2.058  0.1894  0.5190  0.8138
 1200SOL    MW4 4534   1.396   4.902   2.094 -0.4865  0.2340  0.0583
 1201SOL     OW 4535   6.158   4.833   1.052  0.0463 -0.0995  0.1664
 1201SOL    HW2 4536   6.252   4.830   1.069 -0.1207 -1.0020  1.0695
 1201SOL    HW3 4537   6.150   4.874   0.966  1.4073 -1.7291 -0.8172
 1201SOL    MW4 4538   6.169   4.838   1.043 -0.3065  0.3728  0.3320
 1202SOL     OW 4539   5.040   2.611   4.126  0.0474  0.7861 -0.7191
 1202SOL    HW2 4540   5.123   2.567   4.142  0.2096  1.6039  0.9343
 1202SOL    HW3 4541   5.003   2.567   4.050  1.2735 -0.6321 -0.5276
 1202SOL    MW4 4542   5.046   2.599   4.118  0.2592  0.1115  0.0722
 1203SOL     OW 4543   0.131   4.081   6.015 -0.1637 -0.3588 -0.5504
 1203SOL    HW2 4544   0.173   4.165   5.997 -2.4163  1.0185  0.1765
 1203SOL    HW3 4545   0.110   4.045   5.929  1.0674 -0.3644 -0.8720
 1203SOL    MW4 4546   0.134   4.087   6.001  0.0769 -0.2375  0.3536
 1204SOL     OW 4547   4.919   3.466   4.791  0.0958 -0.4838  0.4746
 1204SOL    HW2 4548   4.911   3.377   4.824 -1.1134 -1.0494 -1.2092
 1204SOL    HW3 4549   4.870   3.466   4.709 -0.7056  1.9530  0.8600
 1204SOL    MW4 4550   4.911   3.454   4.785  0.1205  0.6400 -0.8706
 1205SOL     OW 4551   2.114   0.242   3.087  0.8659  0.4824  0.1808
 1205SOL    HW2 4552   2.036   0.228   3.140 -0.7245  1.0464 -1.8796
 1205SOL    HW3 4553   2.155   0.155   3.082 -2.3255 -1.0678 -2.6088
 1205SOL    MW4 4554   2.109   0.229   3.093  0.4001 -0.2465 -0.0405
 1206SOL     OW 4555   1.588   5.556   0.624 -0.0949 -0.5578  0.0447
 1206SOL    HW2 4556   1.533   5.579   0.699 -2.3015  0.9675 -1.8820
 1206SOL    HW3 4557   1.677   5.581   0.650 -0.6218 -0.9548  2.4358
 1206SOL    MW4 4558   1.593   5.562   0.637 -0.4401  0.3349  0.1980
 1207SOL     OW 4559   4.344   1.792   0.419 -0.3146 -0.0537 -0.3249
 1207SOL    HW2 4560   4.365   1.779   0.512 -0.4827  1.0994 -0.1047
 1207SOL    HW3 4561   4.258   1.752   0.408  0.6905 -2.3222 -0.5760
 1207SOL    MW4 4562   4.336   1.785   0.430 -0.2342  0.2356 -0.0683
 1208SOL     OW 4563   5.033   4.358   2.001 -0.2159  0.5018 -0.3611
 1208SOL    HW2 4564   5.000   4.268   2.010 -1.0624  0.9092  0.9326
 1208SOL    HW3 4565   4.955   4.413   2.004  0.3992  1.3742  0.7574
 1208SOL    MW4 4566   5.018   4.353   2.003 -0.1675 -0.0227 -0.1573
 1209SOL     OW 4567   3.510   3.856   1.356 -0.0227  0.0722  0.1327
 1209SOL    HW2 4568   3.415   3.859   1.364  0.0232 -1.7353  2.4045
 1209SOL    HW3 4569   3.540   3.831   1.443  2.6171  1.5263 -0.2631
 1209SOL    MW4 4570   3.501   3.853   1.369  0.2584  0.5772  0.2558
 1210SOL     OW 4571   5.319   0.105   0.969  0.0804 -0.0147 -0.3923
 1210SOL    HW2 4572   5.352   0.090   1.058 -2.3812  0.7129  0.7269
 1210SOL    HW3 4573   5.243   0.047   0.961  1.7333 -2.0383 -3.0657
 1210SOL    MW4 4574   5.313   0.095   0.980  0.1400 -0.6650  0.5912
 1211SOL     OW 4575   2.912   4.168   3.951  0.0072 -0.3538 -0.0022
 1211SOL    HW2 4576   2.950   4.157   4.038  1.8150 -0.3633 -0.7554
 1211SOL    HW3 4577   2.913   4.263   3.936  1.0630 -0.4412 -0.5675
 1211SOL    MW4 4578   2.917   4.179   3.960 -0.4970 -0.0061 -1.1193
 1212SOL     OW 4579   5.265   5.368   2.674 -0.3054 -0.1634  0.1438
 1212SOL    HW2 4580   5.206   5.394   2.604  1.3619 -0.8671 -1.6249
 1212SOL    HW3 4581   5.306   5.449   2.702  1.9688 -0.2146 -2.5955
 1212SOL    MW4 4582   5.263   5.382   2.669  0.0360 -0.0830 -0.2787
 1213SOL     OW 4583   6.378   5.255   2.871  0.3033 -0.6972  0.3915
 1213SOL    HW2 4584   6.392   5.202   2.949  1.6353 -0.7317  0.1538
 1213SOL    HW3 4585   6.431   5.333   2.884 -2.0019  0.9016  0.9536
 1213SOL    MW4 4586   6.386   5.258   2.883 -0.2207 -0.4832 -0.4488
 1214SOL     OW 4587   3.098   0.343   1.594 -0.1114 -0.2546 -0.4543
 1214SOL    HW2 4588   3.022   0.312   1.544 -0.2662 -0.2092 -0.2504
 1214SOL    HW3 4589   3.060   0.382   1.673 -0.0701  2.2121 -1.5639
 1214SOL    MW4 4590   3.083   0.344   1.598 -0.0682  0.0751  0.5101
 1215SOL     OW 4591   4.350   0.099   3.986 -0.0617 -0.3593 -0.8239
 1215SOL    HW2 4592   4.340   0.131   3.897  0.6088  0.1997 -0.7089
 1215SOL    HW3 4593   4.375   0.176   4.037  1.0002 -0.9414 -0.4229
 1215SOL    MW4 4594   4.352   0.113   3.981 -0.1629  0.4034 -0.3201
 1216SOL     OW 4595   1.131   6.333   3.683 -0.0647  0.1908 -0.9020
 1216SOL    HW2 4596   1.199   6.307   3.745  0.0955 -1.2212 -1.6150
 1216SOL    HW3 4597   1.063   6.265   3.693 -1.2013  1.3433 -0.4904
 1216SOL    MW4 4598   1.131   6.320   3.693  0.2124  0.2444 -0.3568
 1217SOL     OW 4599   2.112   2.394   0.193  0.1524 -0.4039  0.6363
 1217SOL    HW2 4600   2.109   2.417   0.100 -0.8556  2.9090  1.3551
 1217SOL    HW3 4601   2.021   2.394   0.221  0.5111 -0.1977  1.8524
 1217SOL    MW4 4602   2.100   2.397   0.184 -0.2340 -0.3506 -0.5149
 1218SOL     OW 4603   5.352   5.979   1.090  0.4033  0.0384  0.1046
 1218SOL    HW2 4604   5.432   6.006   1.135 -0.1579 -0.4457  1.4288
 1218SOL    HW3 4605   5.353   5.883   1.095 -0.0294  0.0068 -0.3072
 1218SOL    MW4 4606   5.363   5.970   1.096 -0.5783 -0.0605  0.0706
 1219SOL     OW 4607   1.541   0.309   4.709 -0.1595 -0.2990 -0.2677
 1219SOL    HW2 4608   1.548   0.324   4.803 -0.0279  0.0722 -0.3332
 1219SOL    HW3 4609   1.625   0.269   4.685  0.8931  1.9565 -0.6500
 1219SOL    MW4 4610   1.553   0.306   4.718  0.2528 -0.3576 -0.7014
 1220SOL     OW 4611   4.764   1.224   2.900  0.3186  0.1996 -0.2349
 1220SOL    HW2 4612   4.779   1.241   2.807 -3.0069 -2.2252 -1.4469
 1220SOL    HW3 4613   4.706   1.295   2.929  0.7556  0.5516 -0.2230
 1220SOL    MW4 4614   4.758   1.235   2.892  0.0073 -0.0630  0.1818
 1221SOL     OW 4615   1.771   5.992   3.532 -0.1065  0.5878  0.1230
 1221SOL    HW2 4616   1.837   5.995   3.462  0.2941 -1.2769  0.3730
 1221SOL    HW3 4617   1.688   6.006   3.487  0.2192  0.2181 -0.6192
 1221SOL    MW4 4618   1.769   5.994   3.517 -0.4666 -0.2610 -0.1832
 1222SOL     OW 4619   1.446   4.334   1.886  0.1715  0.0095  0.0812
 1222SOL    HW2 4620   1.419   4.282   1.961 -0.3308 -0.2271 -0.2593
 1222SOL    HW3 4621   1.527   4.291   1.855 -0.4044 -0.7802 -0.3890
 1222SOL    MW4 4622   1.453   4.321   1.892  0.2046  0.0488 -0.6841
 1223SOL     OW 4623   4.671   0.609   2.426  0.5344 -0.1656 -0.5565
 1223SOL    HW2 4624   4.727   0.579   2.355  0.4716 -2.0842  0.1310
 1223SOL    HW3 4625   4.713   0.575   2.505  0.2784  1.3978  0.2856
 1223SOL    MW4 4626   4.684   0.600   2.427  0.1801  0.2244 -0.1278
 1224SOL     OW 4627   2.122   2.476   6.350  0.2348 -0.0456 -0.7097
 1224SOL    HW2 4628   2.036   2.519   6.348 -0.2231 -0.7057  1.6582
 1224SOL    HW3 4629   2.117   2.410   6.280 -1.4771 -0.5308 -0.1783
 1224SOL    MW4 4630   2.110   2.473   6.340  0.4371  0.2061 -0.2830
 1225SOL     OW 4631   4.164   4.801   2.670 -0.0108  0.2948 -0.7656
 1225SOL    HW2 4632   4.072   4.830   2.667 -0.6373 -1.2315  1.4981
 1225SOL    HW3 4633   4.213   4.879   2.696 -1.1424  0.3996  1.2728
 1225SOL    MW4 4634   4.158   4.815   2.673 -0.2432  0.0058 -0.0181
 1226SOL     OW 4635   2.995   0.725   0.329 -0.3299 -0.1759 -0.0115
 1226SOL    HW2 4636   2.945   0.686   0.400 -2.1080  2.5043  0.3502
 1226SOL    HW3 4637   3.085   0.729   0.361 -0.8123 -0.4826  1.4235
 1226SOL    MW4 4638   3.000   0.721   0.342 -0.0838  0.0806  0.1816
 1227SOL     OW 4639   2.725   1.682   3.803  0.1418 -0.2046  0.0914
 1227SOL    HW2 4640   2.689   1.754   3.752  2.4212  1.2196  0.3124
 1227SOL    HW3 4641   2.750   1.616   3.737  0.6096  0.4620 -0.4211
 1227SOL    MW4 4642   2.724   1.682   3.787  0.6292  0.0311 -0.0653
 1228SOL     OW 4643   3.149   0.086   0.664  0.1117 -0.0975 -0.3246
 1228SOL    HW2 4644   3.118   0.084   0.573 -0.4462 -0.3618 -0.1306
 1228SOL    HW3 4645   3.117   0.004   0.702  1.6399 -0.7295 -0.3070
 1228SOL    MW4 4646   3.141   0.075   0.657 -0.5251  0.2327  0.6216
 1229SOL     OW 4647   2.163   2.680   0.343  0.5276  0.0399  0.6532
 1229SOL    HW2 4648   2.192   2.589   0.356 -0.9815 -0.4896  0.4366
 1229SOL    HW3 4649   2.100   2.675   0.272 -0.4821  1.0813  1.4517
 1229SOL    MW4 4650   2.159   2.667   0.335  0.0691 -0.5483 -0.2872
 1230SOL     OW 4651   5.331   2.176   1.299 -0.0995  0.0595  0.3491
 1230SOL    HW2 4652   5.327   2.082   1.281  0.9619  0.4420 -2.4100
 1230SOL    HW3 4653   5.246   2.209   1.270  0.8983  0.3958 -2.4776
 1230SOL    MW4 4654   5.320   2.168   1.293 -0.1169  0.2821 -0.1427
 1231SOL     OW 4655   5.974   0.923   0.492  0.0266 -0.0564  0.0341
 1231SOL    HW2 4656   6.057   0.908   0.447 -0.0291  0.6222 -0.3024
 1231SOL    HW3 4657   5.908   0.881   0.436 -0.0149  0.5915 -0.4192
 1231SOL    MW4 4658   5.976   0.916   0.479 -0.4721 -0.5579 -0.0486
 1232SOL     OW 4659   3.903   0.479   4.482  0.2379 -0.0099 -0.4168
 1232SOL    HW2 4660   3.926   0.494   4.574 -1.6694 -1.2059  0.3413
 1232SOL    HW3 4661   3.975   0.427   4.447  1.4036  1.1830  0.1254
 1232SOL    MW4 4662   3.915   0.474   4.490 -0.2947 -0.0244 -0.2018
 1233SOL     OW 4663   1.979   0.664   4.242  0.2114 -0.7165 -0.1398
 1233SOL    HW2 4664   1.945   0.754   4.244  0.9252 -0.3910 -1.6479
 1233SOL    HW3 4665   1.987   0.640   4.335  0.0777  0.7961  0.2942
 1233SOL    MW4 4666   1.975   0.673   4.255  0.2858  0.3291 -0.6463
 1234SOL     OW 4667   4.380   0.227   5.989  0.3388  0.2061 -0.1931
 1234SOL    HW2 4668   4.302   0.175   5.967 -1.1077  1.8039  0.8636
 1234SOL    HW3 4669   4.454   0.170   5.969 -1.1220 -1.6940 -0.4479
 1234SOL    MW4 4670   4.379   0.213   5.983  0.0785 -0.4393  0.0928
 1235SOL     OW 4671   2.899   0.297   3.854  0.5155 -0.1190  0.8220
 1235SOL    HW2 4672   2.821   0.268   3.901  1.2664 -1.7179  1.1868
 1235SOL    HW3 4673   2.971   0.275   3.913  1.3443 -0.2490 -0.2093
 1235SOL    MW4 4674   2.898   0.290   3.868 -0.2646  0.2735 -0.1119
 1236SOL     OW 4675   4.366   0.158   3.708 -0.4387 -0.5090  0.2930
 1236SOL    HW2 4676   4.363   0.118   3.621  1.1532 -0.0256 -0.0203
 1236SOL    HW3 4677   4.386   0.250   3.691  0.3382 -0.4999  1.1756
 1236SOL    MW4 4678   4.368   0.165   3.694  0.1702  0.2473  0.5115
 1237SOL     OW 4679   0.941   6.422   5.183 -0.7719 -0.4467  0.1458
 1237SOL    HW2 4680   1.017   6.385   5.227 -1.3411 -0.7145  0.9366
 1237SOL    HW3 4681   0.969   6.508   5.153  0.0141 -0.7779 -0.0959
 1237SOL    MW4 4682   0.954   6.428   5.185  0.0038  0.2225 -0.1365
 1238SOL     OW 4683   2.966   5.998   0.161 -0.3228  0.2646 -0.1716
 1238SOL    HW2 4684   2.931   6.079   0.200  0.8074  1.3622 -1.3325
 1238SOL    HW3 4685   2.971   6.017   0.067  2.7140 -0.0383 -0.1554
 1238SOL    MW4 4686   2.962   6.011   0.154  0.3572  0.1742 -0.1841
 1239SOL     OW 4687   3.910   0.239   3.328 -0.0069  0.2518  0.3329
 1239SOL    HW2 4688   3.999   0.218   3.300 -0.4445 -1.2031 -0.0331
 1239SOL    HW3 4689   3.906   0.335   3.322  1.4141  0.3270  0.0380
 1239SOL    MW4 4690   3.922   0.249   3.324  0.1990  0.0767  0.3434
 1240SOL     OW 4691   1.347   1.901   3.530 -0.1717 -0.0524  0.1732
 1240SOL    HW2 4692   1.406   1.969   3.497 -0.1360 -0.2576 -0.1914
 1240SOL    HW3 4693   1.341   1.838   3.458 -2.6822  1.0950 -0.7541
 1240SOL    MW4 4694   1.354   1.902   3.516 -0.0487  0.2259  0.2719
 1241SOL     OW 4695   4.831   0.405   4.964  0.1582 -0.1806  0.0506
 1241SOL    HW2 4696   4.746   0.385   5.003 -0.2349 -0.1750 -0.7689
 1241SOL    HW3 4697   4.834   0.350   4.885  1.0651 -0.4357  0.2518
 1241SOL    MW4 4698   4.821   0.395   4.959 -0.2961 -0.3117  0.4448
 1242SOL     OW 4699   0.529   2.471   4.758 -0.3476  0.1225 -0.3359
 1242SOL    HW2 4700   0.434   2.472   4.746 -0.2744  2.1483 -1.2929
 1242SOL    HW3 4701   0.564   2.471   4.669  0.3523  5.6118 -0.4441
 1242SOL    MW4 4702   0.521   2.471   4.745  0.3403 -0.0275  0.1003
 1243SOL     OW 4703   0.188   0.444   4.874 -0.5428  0.0218 -0.2774
 1243SOL    HW2 4704   0.194   0.403   4.788 -2.1966 -1.1964  0.1441
 1243SOL    HW3 4705   0.267   0.416   4.920 -0.2961 -0.3902 -0.9417
 1243SOL    MW4 4706   0.199   0.435   4.868 -0.1994 -0.3200 -0.6635
 1244SOL     OW 4707   2.106   5.105   1.212  0.4927  0.3108 -0.4096
 1244SOL    HW2 4708   2.013   5.098   1.192 -0.1500  1.6874  1.7725
 1244SOL    HW3 4709   2.128   5.197   1.192  0.4974  0.9449  2.2173
 1244SOL    MW4 4710   2.097   5.116   1.206 -0.4315  0.0985  0.3289
 1245SOL     OW 4711   0.737   3.399   3.652  0.2924 -0.2800 -0.3012
 1245SOL    HW2 4712   0.796   3.473   3.664  0.9923 -1.0559  1.3485
 1245SOL    HW3 4713   0.721   3.396   3.558 -0.5974  2.5716 -0.3309
 1245SOL    MW4 4714   0.743   3.408   3.641 -0.0515 -0.7090 -0.4200
 1246SOL     OW 4715   5.728   4.714   1.645 -0.5016 -0.3385 -0.4778
 1246SOL    HW2 4716   5.798   4.651   1.656 -1.8859 -1.7495  0.7595
 1246SOL    HW3 4717   5.677   4.709   1.726 -2.5619 -0.0637 -1.6678
 1246SOL    MW4 4718   5.730   4.705   1.657  0.2312 -0.0083 -0.3170
 1247SOL     OW 4719   5.776   4.195   4.862 -0.0682  0.0604  0.2248
 1247SOL    HW2 4720   5.870   4.216   4.860  0.5508 -2.4593  0.5129
 1247SOL    HW3 4721   5.772   4.100   4.854 -2.6042  0.0507  0.8409
 1247SOL    MW4 4722   5.788   4.185   4.861 -0.2140 -0.2536 -0.4083
 1248SOL     OW 4723   2.483   2.370   2.278  0.0305  0.1877  0.0278
 1248SOL    HW2 4724   2.497   2.364   2.183 -0.9719  0.2576 -0.1417
 1248SOL    HW3 4725   2.501   2.281   2.311  0.2717  0.1349 -0.2426
 1248SOL    MW4 4726   2.487   2.357   2.270  0.0715 -1.1116  0.7321
 1249SOL     OW 4727   3.177   1.673   0.894  0.1873  0.0515  0.1599
 1249SOL    HW2 4728   3.206   1.699   0.982  0.9681 -0.3098  0.0143
 1249SOL    HW3 4729   3.176   1.755   0.845 -1.5718  0.4887  0.8467
 1249SOL    MW4 4730   3.181   1.688   0.899 -0.0604 -0.6786 -0.3643
 1250SOL     OW 4731   5.187   4.295   5.792 -0.1386 -0.2052  0.0319
 1250SOL    HW2 4732   5.104   4.276   5.747 -0.2030 -0.1538  0.1280
 1250SOL    HW3 4733   5.231   4.211   5.798  0.5617  0.0188 -1.4953
 1250SOL    MW4 4734   5.182   4.282   5.787  0.8126 -0.6282  0.0117
 1251SOL     OW 4735   6.042   3.508   5.462  0.0371  0.3502  0.4307
 1251SOL    HW2 4736   5.970   3.446   5.456  0.1053  0.0403  2.1375
 1251SOL    HW3 4737   6.121   3.453   5.461  0.1532  0.5101  0.7084
 1251SOL    MW4 4738   6.043   3.492   5.461 -1.1268  0.2893  0.8022
 1252SOL     OW 4739   4.326   0.417   4.524 -0.1242  0.1498  0.2672
 1252SOL    HW2 4740   4.273   0.362   4.467  1.8697 -1.0632 -0.5353
 1252SOL    HW3 4741   4.342   0.497   4.473  1.8534 -1.0281 -1.0619
 1252SOL    MW4 4742   4.321   0.421   4.510 -0.3003 -0.3197 -0.3435
 1253SOL     OW 4743   3.146   1.246   0.298 -0.2681  0.2878  0.1194
 1253SOL    HW2 4744   3.093   1.225   0.375  0.3115  0.9360  0.7121
 1253SOL    HW3 4745   3.196   1.166   0.281 -0.1395  0.2518  0.6406
 1253SOL    MW4 4746   3.145   1.233   0.306 -0.2261 -0.2874  0.2220
 1254SOL     OW 4747   5.542   6.392   4.768  0.0453 -0.7385 -0.3037
 1254SOL    HW2 4748   5.528   6.340   4.847 -0.7348  0.1132  0.1331
 1254SOL    HW3 4749   5.492   6.347   4.700 -0.8065 -0.4577  0.1234
 1254SOL    MW4 4750   5.534   6.379   4.769  0.5388 -0.4096 -0.5113
 1255SOL     OW 4751   0.865   4.442   4.346  0.5034  0.0810  0.9427
 1255SOL    HW2 4752   0.859   4.346   4.352 -0.5048  0.2123  2.5761
 1255SOL    HW3 4753   0.954   4.458   4.317  0.2328 -1.3943 -0.8918
 1255SOL    MW4 4754   0.876   4.431   4.343  0.1177 -0.4892 -0.3331
 1256SOL     OW 4755   1.656   0.449   2.412 -0.1182 -0.1325  0.0510
 1256SOL    HW2 4756   1.661   0.363   2.454  1.4808  0.2376  0.7113
 1256SOL    HW3 4757   1.607   0.434   2.331  1.0488 -1.9080 -0.3862
 1256SOL    MW4 4758   1.650   0.435   2.407 -0.2146  0.4022  0.1143
 1257SOL     OW 4759   1.546   1.887   4.027 -0.7297 -1.2670  0.2012
 1257SOL    HW2 4760   1.638   1.861   4.014 -0.7986 -1.0407 -0.8066
 1257SOL    HW3 4761   1.552   1.973   4.068 -0.4701 -0.7699 -0.8455
 1257SOL    MW4 4762   1.559   1.895   4.030 -0.1302 -0.0122  0.2591
 1258SOL     OW 4763   1.531   3.743   6.388  0.0402  0.6309  0.2062
 1258SOL    HW2 4764   1.580   3.731   6.307 -1.3230  1.1478 -0.7295
 1258SOL    HW3 4765   1.488   3.658   6.403  0.8545  0.3051  0.8107
 1258SOL    MW4 4766   1.532   3.730   6.379 -0.5487 -0.1136  1.0086
 1259SOL     OW 4767   1.718   3.055   4.909  0.4446 -0.1057  0.1626
 1259SOL    HW2 4768   1.672   3.113   4.970 -0.1716  1.8770 -2.0411
 1259SOL    HW3 4769   1.810   3.068   4.929  0.3680  2.3075 -0.7407
 1259SOL    MW4 4770   1.724   3.065   4.920  0.0413 -0.4103 -0.3541
 1260SOL     OW 4771   5.825   5.806   0.761 -0.3298  0.1232  0.3412
 1260SOL    HW2 4772   5.830   5.898   0.738 -0.9362  1.1326  3.7481
 1260SOL    HW3 4773   5.912   5.785   0.797  0.3618 -1.1840 -1.8767
 1260SOL    MW4 4774   5.837   5.815   0.763 -0.4609  0.8011 -0.5725
 1261SOL     OW 4775   6.218   5.085   3.581 -0.3823  0.6752  0.8992
 1261SOL    HW2 4776   6.307   5.118   3.576  0.1453 -0.6684  0.9919
 1261SOL    HW3 4777   6.192   5.071   3.490  0.5046 -1.4411  0.9334
 1261SOL    MW4 4778   6.226   5.088   3.569 -0.5062 -0.4857 -0.4281
 1262SOL     OW 4779   2.828   2.184   3.131  0.4682  0.3276 -0.1995
 1262SOL    HW2 4780   2.770   2.146   3.196  1.6931  0.1516  0.8256
 1262SOL    HW3 4781   2.774   2.248   3.085 -1.1176 -1.2955 -0.7240
 1262SOL    MW4 4782   2.813   2.187   3.133  0.1471 -0.0870  0.6801
 1263SOL     OW 4783   6.350   4.413   2.820  0.2547 -0.1360 -0.1737
 1263SOL    HW2 4784   6.406   4.384   2.748 -0.2006 -0.8370 -0.2529
 1263SOL    HW3 4785   6.272   4.358   2.814 -0.5883  1.0261 -0.2528
 1263SOL    MW4 4786   6.347   4.402   2.810 -0.3490  0.3579  0.1802
 1264SOL     OW 4787   4.822   5.419   3.339  0.1666  0.1012  0.2335
 1264SOL    HW2 4788   4.857   5.363   3.270  3.2286  1.8177  0.2219
 1264SOL    HW3 4789   4.842   5.373   3.420  0.7780  0.1843  0.1366
 1264SOL    MW4 4790   4.829   5.406   3.340  0.5050 -0.1030 -0.4498
 1265SOL     OW 4791   1.926   3.099   1.746 -0.0583  1.1122  0.1160
 1265SOL    HW2 4792   2.004   3.066   1.701  0.8572  0.5187  2.0440
 1265SOL    HW3 4793   1.854   3.051   1.706  0.7777  0.1614 -0.3139
 1265SOL    MW4 4794   1.927   3.088   1.734  0.2544  0.1542 -0.2859
 1266SOL     OW 4795   1.029   3.985   3.835 -0.1348 -0.0575 -0.4521
 1266SOL    HW2 4796   0.959   3.942   3.787 -0.9617 -0.4043  1.0190
 1266SOL    HW3 4797   1.067   4.046   3.772 -1.9566  0.3795 -1.1789
 1266SOL    MW4 4798   1.025   3.987   3.821 -0.0468 -0.0919 -0.0635
 1267SOL     OW 4799   1.599   1.647   2.563  0.1879  0.4422 -0.1984
 1267SOL    HW2 4800   1.540   1.720   2.546 -0.0356 -0.1380 -2.1641
 1267SOL    HW3 4801   1.619   1.611   2.476  0.1007 -1.9885  0.7071
 1267SOL    MW4 4802   1.594   1.652   2.549  0.7672  0.1761 -0.2217
 1268SOL     OW 4803   0.252   0.444   2.625  0.0262 -0.3831  0.2202
 1268SOL    HW2 4804   0.157   0.438   2.631 -0.1291  1.1713 -0.0821
 1268SOL    HW3 4805   0.280   0.472   2.712  0.1404 -0.2170  0.1304
 1268SOL    MW4 4806   0.243   0.447   2.637 -0.1863 -0.2415 -0.4758
 1269SOL     OW 4807   0.240   5.394   2.610  0.2842  0.1644  0.2569
 1269SOL    HW2 4808   0.271   5.317   2.657 -0.0221  0.7907  1.5228
 1269SOL    HW3 4809   0.308   5.459   2.623  1.0296 -0.1573 -1.6595
 1269SOL    MW4 4810   0.253   5.392   2.618  0.1525  0.0926  0.2700
 1270SOL     OW 4811   3.336   1.928   0.353 -0.3421  0.0714  0.0093
 1270SOL    HW2 4812   3.352   1.837   0.376 -0.0852  0.0962 -0.0637
 1270SOL    HW3 4813   3.423   1.968   0.354 -0.1856 -0.1294 -1.9411
 1270SOL    MW4 4814   3.350   1.922   0.356  0.5211  0.0743 -0.0893
 1271SOL     OW 4815   2.402   5.620   1.270 -0.0592 -0.3656 -0.3545
 1271SOL    HW2 4816   2.345   5.679   1.319  1.1783  0.1432  0.5250
 1271SOL    HW3 4817   2.395   5.536   1.317 -1.2178 -0.7280 -1.1437
 1271SOL    MW4 4818   2.394   5.616   1.283 -0.3219 -0.1469  0.1570
 1272SOL     OW 4819   1.255   5.804   4.805 -0.5343 -0.3850  0.1087
 1272SOL    HW2 4820   1.196   5.872   4.839  1.2560  2.2718 -1.6665
 1272SOL    HW3 4821   1.197   5.745   4.756 -2.7032 -2.5788  4.6791
 1272SOL    MW4 4822   1.239   5.805   4.803 -1.0612 -0.4616 -0.1835
 1273SOL     OW 4823   4.535   6.096   2.901 -0.0450  0.3202  0.2688
 1273SOL    HW2 4824   4.581   6.084   2.984 -2.3736  1.8773  1.9232
 1273SOL    HW3 4825   4.463   6.033   2.904 -0.3151  0.5848 -0.4577
 1273SOL    MW4 4826   4.532   6.086   2.912 -0.0415 -0.0044  0.0933
 1274SOL     OW 4827   0.360   4.868   3.256 -0.4208 -0.0258  0.4164
 1274SOL    HW2 4828   0.274   4.884   3.296  0.3794  0.5070  2.0008
 1274SOL    HW3 4829   0.422   4.908   3.316  0.8136  2.0056 -2.0509
 1274SOL    MW4 4830   0.357   4.875   3.269  0.4024 -0.2121  0.2086
 1275SOL     OW 4831   2.195   0.801   5.663 -0.5349 -0.2603  0.3322
 1275SOL    HW2 4832   2.280   0.843   5.676 -0.6576  0.5387 -1.2097
 1275SOL    HW3 4833   2.145   0.823   5.742  0.3785  0.0141  0.8524
 1275SOL    MW4 4834   2.199   0.810   5.675 -0.1433 -0.3247 -0.7236
 1276SOL     OW 4835   5.366   1.122   0.154  0.4076  0.2576 -0.1810
 1276SOL    HW2 4836   5.383   1.125   0.060 -1.2192  0.1296 -0.4959
 1276SOL    HW3 4837   5.347   1.213   0.178 -0.3141  0.1213 -0.2116
 1276SOL    MW4 4838   5.366   1.135   0.145 -0.7206 -0.3295 -0.1228
 1277SOL     OW 4839   2.332   5.290   1.688  0.0704 -0.2884  0.0608
 1277SOL    HW2 4840   2.411   5.340   1.667 -0.8484  1.6492  0.9973
 1277SOL    HW3 4841   2.291   5.274   1.602  0.5542  0.2820 -0.2872
 1277SOL    MW4 4842   2.337   5.295   1.674 -0.0516 -0.0347  0.8903
 1278SOL     OW 4843   3.900   4.209   5.716  1.3387 -0.0978  0.3189
 1278SOL    HW2 4844   3.926   4.188   5.806  0.2294 -1.8137  0.2929
 1278SOL    HW3 4845   3.844   4.136   5.690 -2.1528  2.5007 -0.1860
 1278SOL    MW4 4846   3.896   4.196   5.724 -0.5316 -0.3304  0.0435
 1279SOL     OW 4847   6.032   0.219   5.095  0.2387  0.3219 -0.1031
 1279SOL    HW2 4848   6.003   0.222   5.004  0.9520 -0.7761 -0.3769
 1279SOL    HW3 4849   6.070   0.132   5.106  0.6829  0.6455  1.0890
 1279SOL    MW4 4850   6.033   0.208   5.085  0.8915  0.3575  0.1491
 1280SOL     OW 4851   4.661   6.419   4.770  0.6493 -0.1061  0.0514
 1280SOL    HW2 4852   4.668   6.329   4.736  0.6958 -0.1677  0.2247
 1280SOL    HW3 4853   4.658   6.408   4.865 -1.3977 -0.0817  0.0436
 1280SOL    MW4 4854   4.661   6.405   4.778  0.0948  0.1051 -0.6248
 1281SOL     OW 4855   0.132   4.229   4.012 -0.1162  0.1158 -0.6400
 1281SOL    HW2 4856   0.150   4.215   3.919  0.4463 -1.3650 -0.3437
 1281SOL    HW3 4857   0.187   4.303   4.036  0.8525 -0.4025 -1.1813
 1281SOL    MW4 4858   0.142   4.237   4.003 -0.5366  0.1976 -0.6844
 1282SOL     OW 4859   3.159   6.152   3.302  0.0138 -0.0949  0.3435
 1282SOL    HW2 4860   3.210   6.072   3.315  1.7250  0.3894 -2.6081
 1282SOL    HW3 4861   3.120   6.169   3.388  1.5381 -2.7342  1.6949
 1282SOL    MW4 4862   3.160   6.143   3.315  0.1414  0.3083 -0.8514
 1283SOL     OW 4863   0.717   2.328   3.084  0.1309  0.3266  0.2416
 1283SOL    HW2 4864   0.672   2.306   3.166 -0.3160  1.1679  0.2185
 1283SOL    HW3 4865   0.660   2.390   3.040 -0.1756 -0.9486 -1.2583
 1283SOL    MW4 4866   0.704   2.333   3.089 -0.4792 -0.1252  0.1810
 1284SOL     OW 4867   5.775   5.114   1.833  0.0133  0.3865  0.3310
 1284SOL    HW2 4868   5.807   5.063   1.759  1.6552  0.2133  1.1234
 1284SOL    HW3 4869   5.696   5.068   1.862  1.4154 -1.7490  1.0050
 1284SOL    MW4 4870   5.768   5.101   1.827  0.5710  0.0393 -0.0368
 1285SOL     OW 4871   4.349   1.913   4.867 -0.1374  0.3062  0.4230
 1285SOL    HW2 4872   4.390   1.991   4.905 -1.9638  1.7775 -0.4277
 1285SOL    HW3 4873   4.316   1.943   4.782 -2.8342 -0.7477  1.0074
 1285SOL    MW4 4874   4.350   1.927   4.861 -0.7826 -0.0707  0.7751
 1286SOL     OW 4875   2.437   4.493   1.272  0.0589 -0.2198  0.1092
 1286SOL    HW2 4876   2.531   4.503   1.259  0.2011 -0.4324  0.8721
 1286SOL    HW3 4877   2.400   4.492   1.184  0.7900 -0.3083 -0.2066
 1286SOL    MW4 4878   2.445   4.494   1.259 -0.3656  0.0826 -0.2023
 1287SOL     OW 4879   0.137   0.704   3.002  0.4766 -0.1630  0.3875
 1287SOL    HW2 4880   0.203   0.722   3.069  1.6357  0.8860 -0.9746
 1287SOL    HW3 4881   0.182   0.649   2.938  0.0127  0.4733 -0.5087
 1287SOL    MW4 4882   0.152   0.699   3.003  0.3711  0.0401 -0.7429
 1288SOL     OW 4883   3.826   2.827   5.106 -0.2049 -0.0287  0.2132
 1288SOL    HW2 4884   3.832   2.876   5.188 -1.1636 -0.4529  0.5483
 1288SOL    HW3 4885   3.756   2.764   5.120  1.4691 -2.0339  0.0671
 1288SOL    MW4 4886   3.817   2.825   5.118  0.1008  0.1795  0.1429
 1289SOL     OW 4887   2.034   4.249   2.942 -0.0743 -0.1440  0.3852
 1289SOL    HW2 4888   2.109   4.202   2.978 -0.1375  0.2965  1.0959
 1289SOL    HW3 4889   2.043   4.338   2.975 -1.2787 -0.2491  1.0301
 1289SOL    MW4 4890   2.045   4.254   2.951 -0.3457 -0.0263 -0.2833
 1290SOL     OW 4891   0.282   1.333   1.709 -0.1279 -0.2944 -0.0415
 1290SOL    HW2 4892   0.373   1.316   1.686  0.1700 -0.8630  1.4437
 1290SOL    HW3 4893   0.264   1.274   1.783 -1.3356  0.6298  0.4406
 1290SOL    MW4 4894   0.292   1.323   1.716  0.1743  0.1092  0.0030
 1291SOL     OW 4895   4.265   0.554   0.900  0.5457  0.8389 -0.2950
 1291SOL    HW2 4896   4.191   0.533   0.843  0.5216  0.4556 -0.1267
 1291SOL    HW3 4897   4.239   0.521   0.986  0.8732  0.7899 -0.2120
 1291SOL    MW4 4898   4.252   0.547   0.904 -0.8030 -0.8887 -0.1931
 1292SOL     OW 4899   5.898   4.603   6.029  0.4827  0.4787  0.5175
 1292SOL    HW2 4900   5.982   4.558   6.015  0.3546  0.2569  0.4674
 1292SOL    HW3 4901   5.908   4.687   5.984 -0.0191 -0.3142 -1.1367
 1292SOL    MW4 4902   5.911   4.608   6.021 -0.4563  0.3643  0.1914
 1293SOL     OW 4903   0.889   5.049   4.660  0.5576 -0.4861  0.2995
 1293SOL    HW2 4904   0.859   5.067   4.749 -2.2307  1.1806 -0.8699
 1293SOL    HW3 4905   0.920   5.133   4.627  2.4348 -1.2666 -0.0875
 1293SOL    MW4 4906   0.889   5.062   4.668  0.1256  0.1381  0.4074
 1294SOL     OW 4907   3.397   2.331   5.570 -0.0496 -0.5608 -0.3887
 1294SOL    HW2 4908   3.408   2.390   5.496 -1.1274 -0.3377 -0.3821
 1294SOL    HW3 4909   3.434   2.248   5.540  1.0699 -0.0309 -0.5556
 1294SOL    MW4 4910   3.404   2.328   5.556 -0.1869  0.6045 -0.3776
 1295SOL     OW 4911   6.307   2.024   3.498  0.0135 -0.4327 -0.4338
 1295SOL    HW2 4912   6.348   1.943   3.468 -0.5214 -0.8207 -0.1170
 1295SOL    HW3 4913   6.221   1.998   3.530 -0.4378  0.3578 -0.9665
 1295SOL    MW4 4914   6.301   2.010   3.498 -0.3389  0.0539  0.0307
 1296SOL     OW 4915   0.543   1.879   5.466  0.4446 -0.1073 -0.9063
 1296SOL    HW2 4916   0.464   1.832   5.441  1.1343 -1.8919  0.0844
 1296SOL    HW3 4917   0.520   1.924   5.548  0.2811 -0.0850 -0.9636
 1296SOL    MW4 4918   0.530   1.879   5.474 -0.2535  0.0167  0.7686
 1297SOL     OW 4919   3.672   3.186   2.989 -0.2817  0.2616 -0.2525
 1297SOL    HW2 4920   3.759   3.213   3.016  0.4100 -1.2965 -0.7661
 1297SOL    HW3 4921   3.641   3.256   2.932  1.4811 -0.0418 -1.6796
 1297SOL    MW4 4922   3.679   3.199   2.985  0.1397  0.3414  0.3907
 1298SOL     OW 4923   0.165   4.154   1.726  0.7985 -0.5440 -0.0755
 1298SOL    HW2 4924   0.073   4.141   1.700  0.2409  2.4739 -0.0225
 1298SOL    HW3 4925   0.160   4.194   1.813  2.1917 -0.7341  0.1118
 1298SOL    MW4 4926   0.152   4.158   1.734  0.9152  0.5193 -0.7365
 1299SOL     OW 4927   2.349   4.456   3.455 -0.1878 -0.3357 -0.4002
 1299SOL    HW2 4928   2.377   4.527   3.398 -0.6812 -0.4544 -0.8017
 1299SOL    HW3 4929   2.404   4.463   3.532 -0.2770  0.5202 -0.4135
 1299SOL    MW4 4930   2.360   4.466   3.458  0.4619 -0.1614 -0.0840
 1300SOL     OW 4931   3.127   3.471   4.332  0.1449  0.0447  0.7035
 1300SOL    HW2 4932   3.033   3.465   4.317  0.3479 -0.3119 -0.5569
 1300SOL    HW3 4933   3.150   3.387   4.371 -0.0156 -0.0054  0.6935
 1300SOL    MW4 4934   3.118   3.459   4.335  0.0781 -0.5639  0.3563
 1301SOL     OW 4935   2.459   0.090   1.497  0.6705  0.0570  0.0435
 1301SOL    HW2 4936   2.549   0.089   1.465  0.6395 -0.7647 -0.0265
 1301SOL    HW3 4937   2.432   0.182   1.488  0.4907 -0.1700 -2.7742
 1301SOL    MW4 4938   2.468   0.102   1.491 -0.0385  0.2952  0.5381
 1302SOL     OW 4939   0.971   4.782   4.621  0.3900  0.2191 -0.6082
 1302SOL    HW2 4940   1.028   4.766   4.696 -0.7175 -0.8240  0.0394
 1302SOL    HW3 4941   0.948   4.874   4.627 -1.1204 -0.2283  1.4010
 1302SOL    MW4 4942   0.975   4.792   4.632  0.0319 -0.5508 -0.0439
 1303SOL     OW 4943   4.408   2.892   1.648  0.4274  0.1045 -0.3274
 1303SOL    HW2 4944   4.430   2.807   1.686 -1.1206 -0.9284 -1.6457
 1303SOL    HW3 4945   4.325   2.879   1.603 -1.2876  3.0032  1.6472
 1303SOL    MW4 4946   4.400   2.879   1.647 -0.3398 -0.2845  0.0615
 1304SOL     OW 4947   1.634   4.183   2.723  0.0212  0.6280  0.5469
 1304SOL    HW2 4948   1.698   4.142   2.664  0.2023  0.9807  0.5000
 1304SOL    HW3 4949   1.678   4.188   2.807 -0.0443  0.6208  0.5817
 1304SOL    MW4 4950   1.648   4.178   2.726  0.0764  0.0900 -0.0588
 1305SOL     OW 4951   3.483   1.494   1.079  0.3490  0.2333  0.5522
 1305SOL    HW2 4952   3.406   1.465   1.127  0.0819 -0.5212 -0.3110
 1305SOL    HW3 4953   3.453   1.505   0.989  1.2672 -0.1822  0.1836
 1305SOL    MW4 4954   3.469   1.492   1.074 -0.5001 -0.5968  0.7775
 1306SOL     OW 4955   5.642   2.030   0.182 -0.2312 -0.9131 -0.0787
 1306SOL    HW2 4956   5.656   1.974   0.258 -1.8027 -1.0297  0.1553
 1306SOL    HW3 4957   5.548   2.028   0.168 -0.1888  0.7036 -0.8100
 1306SOL    MW4 4958   5.632   2.022   0.190 -0.2831  0.1074 -0.4927
 1307SOL     OW 4959   6.160   1.771   5.275 -0.2858 -0.1044  0.1956
 1307SOL    HW2 4960   6.115   1.772   5.190  1.6221 -1.2517 -0.9146
 1307SOL    HW3 4961   6.217   1.694   5.271  0.7264  0.4907  2.0437
 1307SOL    MW4 4962   6.162   1.761   5.263 -0.0450 -0.2816 -0.4610
 1308SOL     OW 4963   5.014   0.471   6.233 -0.2302  0.7807 -0.8598
 1308SOL    HW2 4964   4.952   0.405   6.205  0.5670  0.2129 -1.3419
 1308SOL    HW3 4965   4.966   0.525   6.296 -1.3781  0.7134 -1.6482
 1308SOL    MW4 4966   5.000   0.470   6.237 -0.7562 -0.0293 -0.1339
 1309SOL     OW 4967   4.946   4.765   2.673  0.0153 -0.1158  0.8187
 1309SOL    HW2 4968   5.003   4.710   2.620  1.7086  0.7028  1.7047
 1309SOL    HW3 4969   4.937   4.717   2.756  0.3476  0.2799  1.0866
 1309SOL    MW4 4970   4.952   4.752   2.677 -0.4258  0.9728  0.4667
 1310SOL     OW 4971   3.347   4.528   3.661  0.0997  0.2558  0.2664
 1310SOL    HW2 4972   3.372   4.553   3.572 -0.5215 -0.7786 -0.2183
 1310SOL    HW3 4973   3.427   4.493   3.699  0.5933  1.4990  0.4377
 1310SOL    MW4 4974   3.361   4.527   3.654  0.3638  0.1651 -0.0550
 1311SOL     OW 4975   6.032   2.318   0.044 -0.6418 -0.2935 -0.4318
 1311SOL    HW2 4976   6.017   2.411   0.029  0.8040 -0.0775 -0.7035
 1311SOL    HW3 4977   5.992   2.301   0.130  1.4254  1.2409  0.9288
 1311SOL    MW4 4978   6.025   2.328   0.053 -0.2676  0.6179 -0.5622
 1312SOL     OW 4979   1.217   0.337   1.520  0.3743 -0.4693 -0.0833
 1312SOL    HW2 4980   1.290   0.385   1.481 -0.2292 -3.1650 -5.3395
 1312SOL    HW3 4981   1.258   0.279   1.584  2.5102 -0.1922 -1.1134
 1312SOL    MW4 4982   1.232   0.336   1.523 -0.0685  0.6257 -0.3900
 1313SOL     OW 4983   1.750   6.249   1.528 -0.2958 -0.2022  0.5907
 1313SOL    HW2 4984   1.818   6.202   1.478 -0.0745  2.1442 -1.5359
 1313SOL    HW3 4985   1.797   6.321   1.569 -0.8016 -1.1208  2.9559
 1313SOL    MW4 4986   1.766   6.252   1.527  0.3851 -0.2805  0.0969
 1314SOL     OW 4987   3.119   0.766   2.914 -0.7763  0.5347  0.4271
 1314SOL    HW2 4988   3.038   0.737   2.872 -0.8971  0.9764  0.3494
 1314SOL    HW3 4989   3.090   0.823   2.985 -0.5210  1.5201 -0.2269
 1314SOL    MW4 4990   3.104   0.770   2.918  0.2962  0.3869  0.0202
 1315SOL     OW 4991   3.981   2.222   6.408  0.6046  0.0073 -0.0868
 1315SOL    HW2 4992   3.917   2.236   6.338 -1.0209  0.8890  1.4950
 1315SOL    HW3 4993   3.991   2.127   6.413 -0.0282 -0.1050 -0.8426
 1315SOL    MW4 4994   3.974   2.211   6.400 -0.5504 -0.0667 -0.2640
 1316SOL     OW 4995   6.286   0.725   6.147 -0.7386 -0.2413 -0.2616
 1316SOL    HW2 4996   6.355   0.768   6.096 -1.8157  0.0184 -1.5498
 1316SOL    HW3 4997   6.311   0.633   6.148 -0.4907 -0.1851 -0.9085
 1316SOL    MW4 4998   6.299   0.719   6.140  0.2686  0.1828  0.1867
 1317SOL     OW 4999   2.744   5.950   0.818 -0.1017 -0.0819  0.1184
 1317SOL    HW2 5000   2.711   5.910   0.737  0.2867 -0.4988  0.1621
 1317SOL    HW3 5001   2.728   5.885   0.886 -0.7231  0.4014  0.4401
 1317SOL    MW4 5002   2.738   5.936   0.816  0.6924 -0.1261  0.0089
 1318SOL     OW 5003   4.091   3.333   5.923  0.2594 -0.1310  0.5422
 1318SOL    HW2 5004   4.154   3.263   5.907 -0.7075 -1.4821  2.2877
 1318SOL    HW3 5005   4.131   3.385   5.993 -0.3241 -0.7197  1.3284
 1318SOL    MW4 5006   4.105   3.330   5.930  0.1406  0.2161 -0.3126
 1319SOL     OW 5007   5.989   5.838   5.309 -0.2919 -0.5696 -0.5281
 1319SOL    HW2 5008   6.058   5.888   5.267 -0.2908  0.3427  0.5130
 1319SOL    HW3 5009   5.910   5.890   5.297  0.0212  0.6697  2.1031
 1319SOL    MW4 5010   5.988   5.851   5.302  0.2745  0.2800 -0.3765
 1320SOL     OW 5011   0.410   4.144   0.418 -1.1278 -0.3425 -0.0143
 1320SOL    HW2 5012   0.433   4.201   0.345 -1.6205 -0.4468 -0.2592
 1320SOL    HW3 5013   0.320   4.116   0.398 -1.4239 -0.0344  0.8418
 1320SOL    MW4 5014   0.401   4.148   0.406  0.1989  0.2911  0.1667
 1321SOL     OW 5015   0.088   3.530   4.885 -0.1303  0.4375 -0.0167
 1321SOL    HW2 5016   0.086   3.520   4.790  0.7654  0.9552 -0.1013
 1321SOL    HW3 5017  -0.004   3.533   4.911 -0.4346 -1.9978 -0.6052
 1321SOL    MW4 5018   0.076   3.529   4.876 -0.0306 -0.4423 -0.3955
 1322SOL     OW 5019   4.048   4.739   3.104 -0.7857  0.1047  0.6749
 1322SOL    HW2 5020   3.963   4.759   3.142 -2.1812  2.8332 -3.2701
 1322SOL    HW3 5021   4.028   4.699   3.020  1.7829  1.3293 -0.6350
 1322SOL    MW4 5022   4.034   4.736   3.098 -0.0124  0.0468 -0.2028
 1323SOL     OW 5023   4.408   4.006   0.358 -0.3060  0.7243 -0.2193
 1323SOL    HW2 5024   4.417   3.925   0.309 -0.2661  0.5292  0.1087
 1323SOL    HW3 5025   4.452   3.989   0.441  0.1639  1.2604 -0.3553
 1323SOL    MW4 5026   4.415   3.993   0.363 -0.0641  0.1836 -0.0354
 1324SOL     OW 5027   5.204   0.778   3.778 -0.4289  0.2749 -0.1082
 1324SOL    HW2 5028   5.199   0.701   3.721 -0.4241  0.8036 -0.8401
 1324SOL    HW3 5029   5.273   0.757   3.841  0.1407  0.0011 -0.8073
 1324SOL    MW4 5030   5.212   0.765   3.778  0.5232 -0.5818 -0.0875
 1325SOL     OW 5031   2.280   5.546   4.921  0.9127 -0.3630  0.4188
 1325SOL    HW2 5032   2.244   5.635   4.922  1.7684  0.0201 -0.4868
 1325SOL    HW3 5033   2.252   5.508   5.004  0.5002  0.7424  0.8145
 1325SOL    MW4 5034   2.272   5.553   4.932  0.2546  0.2808 -0.3548
 1326SOL     OW 5035   4.345   1.445   3.779 -0.1841  0.1539 -0.1421
 1326SOL    HW2 5036   4.377   1.506   3.712 -0.2187 -1.6261 -1.8720
 1326SOL    HW3 5037   4.407   1.454   3.851  0.1768  1.7378 -0.5958
 1326SOL    MW4 5038   4.357   1.455   3.780  0.4801  0.4962 -0.0201
 1327SOL     OW 5039   0.354   4.069   2.660  0.1056  0.0942 -0.3423
 1327SOL    HW2 5040   0.284   4.066   2.595 -0.9963  1.1527  0.7479
 1327SOL    HW3 5041   0.374   4.163   2.671 -0.0934 -0.0099  1.1908
 1327SOL    MW4 5042   0.348   4.081   2.653 -0.2589  0.3523  0.9302
 1328SOL     OW 5043   6.377   5.224   2.590 -0.9897  0.2529 -0.1399
 1328SOL    HW2 5044   6.460   5.179   2.574 -0.2925  1.5021 -0.1375
 1328SOL    HW3 5045   6.367   5.224   2.685 -1.0382  0.0192 -0.1450
 1328SOL    MW4 5046   6.386   5.218   2.600  0.2266 -0.1624  0.6567
 1329SOL     OW 5047   1.965   0.521   3.109  0.6164  0.2162 -0.1952
 1329SOL    HW2 5048   1.975   0.434   3.072  1.2947 -0.2020  0.9424
 1329SOL    HW3 5049   2.050   0.542   3.147  0.0509  0.7694  0.8078
 1329SOL    MW4 5050   1.977   0.513   3.109  0.1027  0.1158  0.1186
 1330SOL     OW 5051   0.200   2.033   1.946  0.0663  0.4419 -0.3131
 1330SOL    HW2 5052   0.124   2.078   1.983  0.4876  2.0237 -1.2879
 1330SOL    HW3 5053   0.182   1.940   1.961 -1.7190  0.8144  0.1135
 1330SOL    MW4 5054   0.188   2.026   1.953  0.1261  0.1120  0.2960
 1331SOL     OW 5055   0.557   2.383   5.738  0.3613  0.2489 -0.4073
 1331SOL    HW2 5056   0.537   2.477   5.734 -1.3512 -0.0325  0.6632
 1331SOL    HW3 5057   0.533   2.349   5.652 -0.9876  0.4499 -0.1177
 1331SOL    MW4 5058   0.552   2.391   5.726  0.1352  0.4092  0.2275
 1332SOL     OW 5059   0.067   0.286   5.909 -0.0574 -0.1292  0.1195
 1332SOL    HW2 5060   0.077   0.194   5.935  0.2471 -0.5599 -1.4233
 1332SOL    HW3 5061   0.055   0.283   5.814  0.5235  1.4818 -0.0345
 1332SOL    MW4 5062   0.067   0.273   5.900 -0.0280  0.0243  0.1236
 1333SOL     OW 5063   5.989   6.167   5.364 -0.7596 -0.4615  0.2569
 1333SOL    HW2 5064   5.959   6.224   5.434  0.7754 -0.8568  1.2944
 1333SOL    HW3 5065   6.078   6.142   5.390 -0.5621 -1.5126 -1.2857
 1333SOL    MW4 5066   5.997   6.171   5.376  0.1258 -0.6966 -0.0587
 1334SOL     OW 5067   2.342   5.438   2.376 -0.1410  0.0725  0.3098
 1334SOL    HW2 5068   2.397   5.512   2.349  0.5136  0.5338  2.6803
 1334SOL    HW3 5069   2.401   5.362   2.372  0.0003  0.1660  0.5728
 1334SOL    MW4 5070   2.357   5.438   2.372 -0.1790 -0.1996  0.6450
 1335SOL     OW 5071   0.455   3.226   4.214 -0.0156  0.4686  0.0172
 1335SOL    HW2 5072   0.445   3.319   4.233 -0.8205  0.8362 -1.9356
 1335SOL    HW3 5073   0.529   3.221   4.153  0.3413 -0.2310  0.4950
 1335SOL    MW4 5074   0.463   3.238   4.208  0.2580 -0.4405  0.4304
 1336SOL     OW 5075   2.347   2.192   5.982 -0.1015  0.1946 -0.1608
 1336SOL    HW2 5076   2.431   2.166   6.019  0.1569  2.0046  0.6167
 1336SOL    HW3 5077   2.295   2.111   5.982  1.1341 -0.6431  0.7156
 1336SOL    MW4 5078   2.351   2.178   5.987  0.2578 -0.1456 -0.2075
 1337SOL     OW 5079   1.334   6.343   6.251 -0.0372  0.6067  1.2107
 1337SOL    HW2 5080   1.286   6.272   6.292  0.8234 -0.8783 -0.2361
 1337SOL    HW3 5081   1.327   6.326   6.157  0.2904  2.3740  0.8299
 1337SOL    MW4 5082   1.327   6.331   6.244  0.2964  0.0797 -0.0228
 1338SOL     OW 5083   1.308   1.578   1.143  0.1293  0.3255  0.1224
 1338SOL    HW2 5084   1.227   1.567   1.092 -0.8706  0.8434  1.5518
 1338SOL    HW3 5085   1.318   1.673   1.151 -0.0044  0.2492  1.2957
 1338SOL    MW4 5086   1.299   1.589   1.137  0.0233  0.2092  0.0874
 1339SOL     OW 5087   4.386   4.210   3.693  0.4348  0.1405  0.3678
 1339SOL    HW2 5088   4.425   4.276   3.636 -0.8736 -1.2372 -2.3823
 1339SOL    HW3 5089   4.298   4.242   3.710  0.2402 -0.2549  0.1251
 1339SOL    MW4 5090   4.380   4.223   3.687 -0.0447 -0.3347  0.4514
 1340SOL     OW 5091   5.584   1.441   2.043 -0.8549 -0.5619  0.0120
 1340SOL    HW2 5092   5.640   1.370   2.074 -1.8639 -1.1874  0.4680
 1340SOL    HW3 5093   5.577   1.500   2.118 -3.3730 -2.1224  1.1575
 1340SOL    MW4 5094   5.591   1.439   2.057 -0.1917 -0.3015  0.0554
 1341SOL     OW 5095   1.955   0.999   0.641  0.1376 -0.7686 -0.2645
 1341SOL    HW2 5096   1.941   1.049   0.560  1.9608 -0.5391 -0.4855
 1341SOL    HW3 5097   2.047   1.014   0.662 -0.1873 -1.2175  1.6106
 1341SOL    MW4 5098   1.965   1.008   0.633  0.1963  0.5624  0.0997
 1342SOL     OW 5099   0.133   4.454   4.608  0.2210 -0.3080 -0.0485
 1342SOL    HW2 5100   0.207   4.508   4.582  0.2156 -1.3435 -2.4199
 1342SOL    HW3 5101   0.088   4.433   4.526 -1.4234 -1.5266  1.0970
 1342SOL    MW4 5102   0.137   4.458   4.594  0.5249  0.1475 -0.0967
 1343SOL     OW 5103   2.430   2.562   1.604 -0.0948  0.3092 -0.2429
 1343SOL    HW2 5104   2.515   2.517   1.599 -1.5912 -2.7499 -0.9457
 1343SOL    HW3 5105   2.427   2.617   1.526  1.2267  0.4287 -0.2319
 1343SOL    MW4 5106   2.441   2.563   1.593 -0.5376 -0.2622  0.4143
 1344SOL     OW 5107   5.608   5.022   5.863 -0.2715 -0.1281 -0.1269
 1344SOL    HW2 5108   5.670   5.089   5.891 -0.2628  0.2306 -0.9599
 1344SOL    HW3 5109   5.631   5.006   5.771 -1.7265  0.3866 -0.6080
 1344SOL    MW4 5110   5.620   5.029   5.854  0.1013  0.0437 -0.2157
 1345SOL     OW 5111   6.346   1.958   2.289  0.4301  0.1801  0.3103
 1345SOL    HW2 5112   6.436   1.925   2.293  0.3980  0.0851  0.2490
 1345SOL    HW3 5113   6.299   1.911   2.357  0.1034 -0.7708 -0.5324
 1345SOL    MW4 5114   6.352   1.948   2.298 -0.4785  0.0058  0.5179
 1346SOL     OW 5115   6.289   3.910   2.724  0.2821 -0.1461  0.0185
 1346SOL    HW2 5116   6.232   3.962   2.667  0.5012  0.5886  0.4573
 1346SOL    HW3 5117   6.346   3.974   2.766 -0.1855 -0.6032  1.4202
 1346SOL    MW4 5118   6.289   3.925   2.722  0.0683  0.4390 -0.1095
 1347SOL     OW 5119   0.438   6.080   3.363  0.3628 -0.0082  0.6070
 1347SOL    HW2 5120   0.380   6.027   3.308 -0.1815 -0.8930  1.9541
 1347SOL    HW3 5121   0.445   6.164   3.318 -0.4739 -0.5152 -0.5198
 1347SOL    MW4 5122   0.431   6.084   3.350  0.0025 -0.0491  0.0072
 1348SOL     OW 5123   3.447   1.454   4.645  0.7334  0.3682 -0.3252
 1348SOL    HW2 5124   3.352   1.442   4.650  0.9034 -1.1981 -0.1969
 1348SOL    HW3 5125   3.472   1.407   4.565  1.4228  0.6461 -0.2810
 1348SOL    MW4 5126   3.438   1.446   4.635 -0.0167 -0.1937 -0.6448
 1349SOL     OW 5127   5.342   3.347   5.685  0.7847  0.1504  0.1098
 1349SOL    HW2 5128   5.359   3.426   5.736 -3.5180  1.1564  0.2954
 1349SOL    HW3 5129   5.366   3.275   5.745 -1.4661  1.3325  2.6280
 1349SOL    MW4 5130   5.348   3.348   5.700 -0.0497  0.7469 -0.0082
 1350SOL     OW 5131   3.008   2.161   0.194 -0.1140  0.0563 -0.2720
 1350SOL    HW2 5132   3.002   2.090   0.258 -3.8050  1.4071  1.1479
 1350SOL    HW3 5133   2.953   2.132   0.121  0.4123  0.4022 -0.8105
 1350SOL    MW4 5134   3.000   2.147   0.193 -0.1872 -0.0120  0.1829
 1351SOL     OW 5135   6.107   5.838   1.917  0.0265  0.0862  0.1091
 1351SOL    HW2 5136   6.054   5.783   1.974 -0.8514  1.1609  0.3447
 1351SOL    HW3 5137   6.119   5.785   1.838 -0.4958 -0.5906  0.4713
 1351SOL    MW4 5138   6.102   5.824   1.914 -0.7882 -0.2078  0.3887
 1352SOL     OW 5139   0.904   1.485   3.086 -0.3435  0.2951  0.0440
 1352SOL    HW2 5140   0.951   1.564   3.059 -2.2428  0.9949 -1.5001
 1352SOL    HW3 5141   0.945   1.414   3.037 -0.4055  0.7722 -0.7160
 1352SOL    MW4 5142   0.916   1.486   3.076  0.3726 -0.6544  0.0591
 1353SOL     OW 5143   4.638   6.219   0.241 -0.3364  0.5086 -0.1533
 1353SOL    HW2 5144   4.643   6.202   0.147  2.6551 -0.7423  0.1008
 1353SOL    HW3 5145   4.671   6.309   0.250 -0.2908  0.5072 -0.2927
 1353SOL    MW4 5146   4.643   6.229   0.230  0.1783 -0.3062 -0.1487
 1354SOL     OW 5147   4.684   1.019   5.047 -0.4412  0.1396  0.4997
 1354SOL    HW2 5148   4.708   1.111   5.057  2.4525 -0.4953  0.2014
 1354SOL    HW3 5149   4.706   0.998   4.956  1.0883 -1.3550  1.1692
 1354SOL    MW4 5150   4.690   1.028   5.036  0.0070  0.5867  0.3028
 1355SOL     OW 5151   0.765   3.328   1.998  0.4553 -0.0759 -0.0151
 1355SOL    HW2 5152   0.775   3.234   2.014  1.1169 -0.2761 -1.3994
 1355SOL    HW3 5153   0.843   3.351   1.947  0.2500  1.2058  0.2304
 1355SOL    MW4 5154   0.777   3.319   1.993  0.1333  0.6182 -0.1034
 1356SOL     OW 5155   3.705   1.437   1.400  0.1331  0.8153 -0.1845
 1356SOL    HW2 5156   3.678   1.414   1.311 -1.1071 -0.9527  0.5845
 1356SOL    HW3 5157   3.763   1.512   1.389  2.9066 -1.4573 -2.8409
 1356SOL    MW4 5158   3.709   1.444   1.387  0.4188 -0.4368 -0.1077
 1357SOL     OW 5159   0.500   0.017   5.507 -0.0063 -0.0873  0.1187
 1357SOL    HW2 5160   0.456   0.089   5.463  0.3337 -0.1087 -0.2637
 1357SOL    HW3 5161   0.471   0.023   5.598 -0.7165 -0.0471 -0.1102
 1357SOL    MW4 5162   0.491   0.027   5.513  0.2523  0.4099 -0.0383
 1358SOL     OW 5163   1.328   4.869   0.034  0.3295 -0.6311  0.0037
 1358SOL    HW2 5164   1.382   4.822   0.098  1.3822 -0.3146 -0.6234
 1358SOL    HW3 5165   1.336   4.817  -0.046  2.6479  1.2173 -1.1202
 1358SOL    MW4 5166   1.336   4.856   0.032  0.0809 -0.2910  0.3817
 1359SOL     OW 5167   6.258   0.775   4.303 -0.3211  0.4926  0.4274
 1359SOL    HW2 5168   6.350   0.783   4.277 -0.6308  1.5116 -0.4317
 1359SOL    HW3 5169   6.261   0.733   4.389  0.8323 -1.6513 -0.5572
 1359SOL    MW4 5170   6.270   0.770   4.311 -0.5014 -0.2322  0.2633
 1360SOL     OW 5171   3.661   0.996   5.941 -0.4724  0.0107  0.1198
 1360SOL    HW2 5172   3.623   1.083   5.957 -1.7583  0.1547 -3.0165
 1360SOL    HW3 5173   3.755   1.009   5.948 -0.7023  1.2110  1.4650
 1360SOL    MW4 5174   3.668   1.009   5.944 -0.1906  0.3947 -0.1863
 1361SOL     OW 5175   1.518   6.276   1.381 -0.0700 -0.3378 -1.0040
 1361SOL    HW2 5176   1.588   6.282   1.446 -0.2821 -2.2339 -0.5584
 1361SOL    HW3 5177   1.437   6.278   1.432 -0.2715 -0.6899 -1.3019
 1361SOL    MW4 5178   1.516   6.277   1.396 -0.5449  0.3280  0.4994
 1362SOL     OW 5179   6.277   3.035   2.344  0.2280  0.1628  0.0607
 1362SOL    HW2 5180   6.259   2.950   2.304  0.0592  0.7450 -1.1257
 1362SOL    HW3 5181   6.294   3.094   2.271  1.9314  0.8169  0.9108
 1362SOL    MW4 5182   6.277   3.032   2.329  0.4410  0.7517  0.6059
 1363SOL     OW 5183   0.623   1.425   3.088  0.6618 -0.2458  0.2083
 1363SOL    HW2 5184   0.573   1.475   3.023  0.9029  0.5415  0.6115
 1363SOL    HW3 5185   0.712   1.461   3.083  0.4275  0.6578  1.7638
 1363SOL    MW4 5186   0.628   1.436   3.079 -0.4483  0.1570  0.6805
 1364SOL     OW 5187   0.248   2.152   5.429 -0.1849  0.1273  0.5177
 1364SOL    HW2 5188   0.162   2.177   5.396 -0.2496 -0.3306  0.3284
 1364SOL    HW3 5189   0.233   2.070   5.477  0.1081  0.1545  0.6591
 1364SOL    MW4 5190   0.235   2.144   5.431  0.1703  0.3374  0.3540
 1365SOL     OW 5191   4.040   1.531   3.314 -0.3502 -0.1521 -0.0602
 1365SOL    HW2 5192   4.021   1.490   3.398 -1.1104 -0.6186 -0.4555
 1365SOL    HW3 5193   3.957   1.567   3.285 -0.2303 -0.5148 -0.8960
 1365SOL    MW4 5194   4.027   1.530   3.321 -0.9372  0.1148 -0.0150
 1366SOL     OW 5195   3.873   6.272   4.561 -0.6077 -0.1215 -0.1461
 1366SOL    HW2 5196   3.831   6.210   4.500 -0.7972 -0.0478 -0.0921
 1366SOL    HW3 5197   3.842   6.244   4.647 -2.5043  1.3978 -0.2625
 1366SOL    MW4 5198   3.863   6.260   4.564 -0.4187  0.0339 -0.5978
 1367SOL     OW 5199   3.029   3.166   5.648 -0.0609 -0.2468  0.1639
 1367SOL    HW2 5200   2.991   3.240   5.694 -0.8449 -1.6720  1.9357
 1367SOL    HW3 5201   2.956   3.129   5.599  0.1562 -0.2663 -0.1447
 1367SOL    MW4 5202   3.014   3.171   5.648  0.6069 -0.3512 -0.3234
 1368SOL     OW 5203   1.279   0.084   2.818  0.0588  0.6975  0.5086
 1368SOL    HW2 5204   1.366   0.101   2.853 -0.1636  0.3529  1.2568
 1368SOL    HW3 5205   1.223   0.078   2.895 -0.2796 -1.0296  0.1776
 1368SOL    MW4 5206   1.283   0.085   2.833  0.2742  0.0236 -0.1688
 1369SOL     OW 5207   0.900   6.008   4.641  0.0301 -0.4678  0.2590
 1369SOL    HW2 5208   0.966   6.076   4.657  1.1812 -1.3625 -0.5166
 1369SOL    HW3 5209   0.941   5.927   4.670 -0.9807 -0.9775  0.3228
 1369SOL    MW4 5210   0.914   6.006   4.647  0.6672  0.7943 -0.3687
 1370SOL     OW 5211   2.678   5.690   4.170  0.2176 -0.3337 -0.0109
 1370SOL    HW2 5212   2.624   5.692   4.249 -1.1352  0.4392 -0.9107
 1370SOL    HW3 5213   2.732   5.611   4.180  1.2212  0.5463  2.3737
 1370SOL    MW4 5214   2.678   5.680   4.182 -0.3504  0.1392  0.3387
 1371SOL     OW 5215   6.161   2.991   5.036  0.2538 -0.1276  0.0306
 1371SOL    HW2 5216   6.066   2.977   5.041  0.3017 -1.6833 -2.0265
 1371SOL    HW3 5217   6.171   3.078   4.998 -0.2148  1.4814  3.2152
 1371SOL    MW4 5218   6.149   3.000   5.032  0.7067 -0.2985 -0.0384
 1372SOL     OW 5219   1.175   6.254   4.346  0.1860 -0.0841 -0.2469
 1372SOL    HW2 5220   1.174   6.158   4.339  0.9736 -0.1897  0.8289
 1372SOL    HW3 5221   1.099   6.275   4.400 -0.2704 -0.0513 -0.8902
 1372SOL    MW4 5222   1.165   6.244   4.353 -0.2184 -0.1507 -0.1618
 1373SOL     OW 5223   2.227   4.777   1.757  0.5732  0.4277  0.5478
 1373SOL    HW2 5224   2.238   4.723   1.679  2.3993  0.4660  0.7276
 1373SOL    HW3 5225   2.152   4.833   1.738  1.0985  0.5681 -1.2613
 1373SOL    MW4 5226   2.219   4.777   1.744 -0.0681 -0.1829 -0.0586
 1374SOL     OW 5227   4.694   0.790   1.027  0.1056  0.2363  0.9366
 1374SOL    HW2 5228   4.650   0.715   1.068 -0.4300  0.2406  0.3963
 1374SOL    HW3 5229   4.633   0.863   1.038 -0.0727  0.2244  0.1091
 1374SOL    MW4 5230   4.680   0.789   1.034 -0.2424 -0.4372 -0.3015
 1375SOL     OW 5231   4.234   1.241   1.586 -0.0908  0.1961  0.1077
 1375SOL    HW2 5232   4.243   1.309   1.519  2.3036  0.1766  0.3366
 1375SOL    HW3 5233   4.198   1.166   1.540  1.2582  0.2699 -1.1081
 1375SOL    MW4 5234   4.230   1.240   1.571 -0.2581  0.0186  0.1099
 1376SOL     OW 5235   6.188   1.444   0.842 -0.1448 -0.6380 -0.0861
 1376SOL    HW2 5236   6.149   1.356   0.840  0.3516 -0.8725  0.2539
 1376SOL    HW3 5237   6.118   1.502   0.811 -0.4648 -1.1575 -0.3549
 1376SOL    MW4 5238   6.174   1.440   0.838  0.5050 -0.5355 -0.1203
 1377SOL     OW 5239   3.325   2.752   1.538 -1.1056 -0.1798  0.3736
 1377SOL    HW2 5240   3.255   2.771   1.600 -0.1644 -1.3008  1.8522
 1377SOL    HW3 5241   3.393   2.817   1.557 -0.6247 -0.8080  0.8910
 1377SOL    MW4 5242   3.325   2.763   1.549  0.0192  0.2172 -0.3569
 1378SOL     OW 5243   4.644   4.751   6.285 -0.4024  0.0544  0.9343
 1378SOL    HW2 5244   4.565   4.786   6.244  0.1671  0.3495  0.0589
 1378SOL    HW3 5245   4.696   4.829   6.306 -0.5389 -0.1143  1.9208
 1378SOL    MW4 5246   4.641   4.766   6.282  0.0101 -0.5077 -0.1344
 1379SOL     OW 5247   1.097   2.658   3.339 -0.1256 -0.1868 -0.0394
 1379SOL    HW2 5248   1.124   2.705   3.260 -0.0416 -2.0744 -1.1962
 1379SOL    HW3 5249   1.156   2.690   3.407  1.5202 -0.3553 -1.3156
 1379SOL    MW4 5250   1.108   2.669   3.337 -0.3718 -0.2038 -0.0096
 1380SOL     OW 5251   4.229   1.427   2.064 -0.1461 -0.5327 -0.3654
 1380SOL    HW2 5252   4.197   1.360   2.004 -2.4917  0.8503 -0.7824
 1380SOL    HW3 5253   4.225   1.508   2.014  1.4982  0.1351  0.5005
 1380SOL    MW4 5254   4.224   1.429   2.050  0.2710 -0.4460 -0.2501
 1381SOL     OW 5255   0.302   0.644   6.026  0.0549  0.5133 -0.4046
 1381SOL    HW2 5256   0.381   0.594   6.007  0.5992  1.7507 -1.6173
 1381SOL    HW3 5257   0.330   0.712   6.088 -0.1001  0.8060 -0.6481
 1381SOL    MW4 5258   0.316   0.647   6.031  0.1588  0.2869  0.9763
 1382SOL     OW 5259   2.975   1.472   5.229  0.1809 -0.3830 -0.6295
 1382SOL    HW2 5260   2.909   1.467   5.160  0.2945 -1.8091 -0.6534
 1382SOL    HW3 5261   3.058   1.483   5.183  0.1530 -0.3775 -0.6786
 1382SOL    MW4 5262   2.978   1.473   5.214 -0.1145  0.0029  0.6186
 1383SOL     OW 5263   0.286   4.044   1.348  0.3597 -0.4779 -0.3447
 1383SOL    HW2 5264   0.359   4.055   1.409 -0.4220  0.4973  0.4489
 1383SOL    HW3 5265   0.229   3.981   1.391  1.1955 -2.0435 -1.4402
 1383SOL    MW4 5266   0.288   4.037   1.362 -0.4519 -0.4199 -0.0062
 1384SOL     OW 5267   4.189   6.094   5.802  0.2580 -0.0716  0.0927
 1384SOL    HW2 5268   4.119   6.159   5.793  1.3293  0.8771 -2.1040
 1384SOL    HW3 5269   4.186   6.068   5.894 -2.6688  0.2567  0.2001
 1384SOL    MW4 5270   4.179   6.099   5.813  0.1460  0.0097 -0.0492
 1385SOL     OW 5271   2.272   0.135   6.244 -0.2453 -0.1662 -0.6178
 1385SOL    HW2 5272   2.317   0.129   6.328 -0.6250 -0.3541 -0.4235
 1385SOL    HW3 5273   2.188   0.092   6.259 -1.4761  2.1741 -0.2900
 1385SOL    MW4 5274   2.267   0.129   6.257  0.2046 -0.6199 -0.0504
 1386SOL     OW 5275   1.465   3.988   5.021 -0.3508 -0.4184  0.1338
 1386SOL    HW2 5276   1.554   4.000   5.055 -0.3222  1.8383 -0.5687
 1386SOL    HW3 5277   1.410   3.978   5.098 -0.0752  2.9876  0.8975
 1386SOL    MW4 5278   1.470   3.988   5.035  0.6152 -0.7276 -0.0956
 1387SOL     OW 5279   5.163   1.394   2.743 -0.3727 -0.2611 -0.2399
 1387SOL    HW2 5280   5.216   1.386   2.823 -2.2451  1.6276  1.3030
 1387SOL    HW3 5281   5.223   1.431   2.679  0.2522  1.9671  1.4908
 1387SOL    MW4 5282   5.178   1.398   2.745 -0.0116  0.2514  0.6167
 1388SOL     OW 5283   2.093   0.335   0.409  0.1544  0.0323 -0.2085
 1388SOL    HW2 5284   2.027   0.264   0.404 -0.5707  0.5960  1.0399
 1388SOL    HW3 5285   2.139   0.330   0.325  1.4160 -3.1442  0.5281
 1388SOL    MW4 5286   2.090   0.325   0.397 -0.2529  0.4605  0.0317
 1389SOL     OW 5287   2.175   2.806   3.694  0.0284  0.2058 -0.1743
 1389SOL    HW2 5288   2.157   2.839   3.606 -2.7464  2.5171  1.0901
 1389SOL    HW3 5289   2.245   2.863   3.727 -0.9034  1.2489  0.0559
 1389SOL    MW4 5290   2.182   2.818   3.687 -0.4996  0.0929 -0.8040
 1390SOL     OW 5291   6.031   6.413   1.861 -0.0624  0.0070 -0.3068
 1390SOL    HW2 5292   6.071   6.494   1.892  1.6818 -0.8563 -0.2035
 1390SOL    HW3 5293   6.069   6.399   1.774 -0.7005 -0.4831 -0.5177
 1390SOL    MW4 5294   6.041   6.422   1.853 -0.1543 -0.1998  0.1658
 1391SOL     OW 5295   4.471   1.623   6.080  0.1809  0.1762  0.3738
 1391SOL    HW2 5296   4.489   1.600   5.989  0.8485  0.5377  0.4106
 1391SOL    HW3 5297   4.557   1.641   6.118 -0.0397 -0.4422  1.2071
 1391SOL    MW4 5298   4.485   1.622   6.073 -0.4927 -0.5888  0.5536
 1392SOL     OW 5299   5.056   2.813   2.513  0.0536  0.3985  0.0585
 1392SOL    HW2 5300   5.006   2.803   2.594  0.0037 -1.8356 -0.1832
 1392SOL    HW3 5301   5.117   2.885   2.531  0.4792 -0.4337  2.3352
 1392SOL    MW4 5302   5.058   2.821   2.526 -0.0033  0.5008  0.1026
 1393SOL     OW 5303   0.472   0.259   2.643 -0.4337  0.1852 -0.0884
 1393SOL    HW2 5304   0.405   0.326   2.631 -0.0731  0.7940  1.2278
 1393SOL    HW3 5305   0.529   0.268   2.566 -0.9243  0.7514 -0.3915
 1393SOL    MW4 5306   0.471   0.269   2.631 -0.0632  0.1664 -0.1292
 1394SOL     OW 5307   3.590   0.168   1.551  0.0729 -0.1765  0.2138
 1394SOL    HW2 5308   3.611   0.227   1.623  1.0222  0.5446 -0.6275
 1394SOL    HW3 5309   3.660   0.103   1.552 -1.1602 -1.5567  1.3631
 1394SOL    MW4 5310   3.602   0.167   1.561 -0.2597  0.2137 -0.1844
 1395SOL     OW 5311   3.910   0.552   0.248 -0.5203  0.2428 -0.1134
 1395SOL    HW2 5312   3.941   0.463   0.232  1.0885  0.5957  0.8299
 1395SOL    HW3 5313   3.957   0.606   0.184 -1.1558  0.4899 -0.3861
 1395SOL    MW4 5314   3.920   0.548   0.237  0.4576  0.4864  0.1830
 1396SOL     OW 5315   5.055   6.113   3.350  0.0626  0.0599  0.1445
 1396SOL    HW2 5316   4.967   6.126   3.384 -0.0055  1.8453 -0.5753
 1396SOL    HW3 5317   5.113   6.147   3.418  0.2754 -1.5756  0.8395
 1396SOL    MW4 5318   5.051   6.119   3.364 -0.3285 -0.1462 -0.0513
 1397SOL     OW 5319   0.885   5.662   2.592  0.1047  0.1705  0.8566
 1397SOL    HW2 5320   0.944   5.722   2.638 -1.8384  1.3205  2.0155
 1397SOL    HW3 5321   0.918   5.575   2.613  2.2106  0.7669  0.2554
 1397SOL    MW4 5322   0.897   5.659   2.601 -0.2866  0.0207 -0.0150
 1398SOL     OW 5323   4.677   0.698   2.111 -0.3829  0.0518 -0.4622
 1398SOL    HW2 5324   4.688   0.732   2.022  2.4076  0.3325 -0.0975
 1398SOL    HW3 5325   4.719   0.763   2.167 -0.0501 -1.2293  0.8327
 1398SOL    MW4 5326   4.684   0.712   2.107  0.7324 -0.3430  0.2787
 1399SOL     OW 5327   3.158   1.595   4.635  0.0945 -0.6117 -0.7500
 1399SOL    HW2 5328   3.156   1.635   4.721  1.0822 -1.0513 -0.5019
 1399SOL    HW3 5329   3.119   1.659   4.577  0.8657  0.3513 -0.2284
 1399SOL    MW4 5330   3.153   1.608   4.639  0.7161  0.7529  0.6022
 1400SOL     OW 5331   0.939   2.685   1.722  0.0771 -0.1254 -0.2344
 1400SOL    HW2 5332   0.900   2.634   1.794 -1.6365  0.7357 -0.5089
 1400SOL    HW3 5333   0.899   2.649   1.643 -0.2645  0.8391 -0.5171
 1400SOL    MW4 5334   0.929   2.673   1.721  0.0334 -0.1562  0.3880
 1401SOL     OW 5335   3.165   5.241   0.160  0.0410  0.0484  0.0087
 1401SOL    HW2 5336   3.151   5.316   0.218 -0.4315 -0.5251  0.6519
 1401SOL    HW3 5337   3.080   5.228   0.117 -0.4563 -1.2621  1.2985
 1401SOL    MW4 5338   3.152   5.249   0.162 -0.0822 -0.0541  0.4044
 1402SOL     OW 5339   4.664   0.970   6.337 -0.4524  0.3217 -0.5351
 1402SOL    HW2 5340   4.748   0.924   6.335 -0.5460  0.1026  0.1164
 1402SOL    HW3 5341   4.666   1.021   6.418 -1.1415 -0.0708 -0.2608
 1402SOL    MW4 5342   4.675   0.971   6.348 -0.1957 -0.6280 -0.7251
 1403SOL     OW 5343   0.872   3.683   6.075  0.0009 -0.4107  0.2509
 1403SOL    HW2 5344   0.851   3.611   6.016  0.9737 -0.7378  0.2971
 1403SOL    HW3 5345   0.829   3.660   6.157 -0.8491 -0.2465 -0.1373
 1403SOL    MW4 5346   0.863   3.671   6.078 -0.0230  0.3245  0.1480
 1404SOL     OW 5347   4.129   4.580   0.626  0.1220 -0.0748  0.1277
 1404SOL    HW2 5348   4.135   4.590   0.721  0.0686 -0.0935  0.1334
 1404SOL    HW3 5349   4.180   4.502   0.606 -0.4975 -0.5181  0.2309
 1404SOL    MW4 5350   4.137   4.571   0.636  0.2166 -0.0129  0.0095
 1405SOL     OW 5351   1.228   2.503   5.588  0.3294  0.1900  0.2165
 1405SOL    HW2 5352   1.237   2.416   5.550  2.8808  0.3589  0.2593
 1405SOL    HW3 5353   1.186   2.555   5.519 -1.1947 -1.0201  0.1805
 1405SOL    MW4 5354   1.224   2.499   5.574  0.0880 -0.3676 -0.1343
 1406SOL     OW 5355   4.281   4.133   5.890 -0.4889  0.1837  0.0117
 1406SOL    HW2 5356   4.277   4.116   5.796  0.3299  0.3763 -0.0749
 1406SOL    HW3 5357   4.277   4.229   5.897  1.2240  0.2855  0.0280
 1406SOL    MW4 5358   4.280   4.144   5.879 -0.2480 -0.2923  0.5975
 1407SOL     OW 5359   3.268   3.734   2.509  0.3055  0.0288 -0.4554
 1407SOL    HW2 5360   3.181   3.751   2.474 -0.0343 -0.9494 -0.1140
 1407SOL    HW3 5361   3.297   3.818   2.545 -0.4770  0.3682 -0.6154
 1407SOL    MW4 5362   3.261   3.747   2.509 -0.3160  0.9028  0.0356
 1408SOL     OW 5363   1.984   1.246   5.198 -0.2906  0.9162  0.2473
 1408SOL    HW2 5364   2.073   1.237   5.164  0.0442  0.3523  1.2325
 1408SOL    HW3 5365   1.935   1.175   5.156  0.0895  0.2999  0.8295
 1408SOL    MW4 5366   1.990   1.235   5.188  0.6196 -0.5404 -0.0057
 1409SOL     OW 5367   4.819   0.410   4.517  0.2675  0.9509  0.0032
 1409SOL    HW2 5368   4.884   0.480   4.507 -0.1168  1.4141  0.6183
 1409SOL    HW3 5369   4.752   0.449   4.574 -0.9334  0.7612 -1.2241
 1409SOL    MW4 5370   4.819   0.425   4.523  0.1947 -0.9119  0.0975
 1410SOL     OW 5371   5.584   1.041   3.306 -0.2497  0.4376 -0.0267
 1410SOL    HW2 5372   5.660   0.986   3.326  0.3981  1.2632 -0.1788
 1410SOL    HW3 5373   5.516   1.010   3.366 -0.0238 -0.7952 -0.3860
 1410SOL    MW4 5374   5.585   1.029   3.317  0.6459  0.6307  0.0276
 1411SOL     OW 5375   5.041   4.997   1.759 -0.0989 -0.5619  0.8948
 1411SOL    HW2 5376   5.081   5.005   1.846  0.3652 -2.5002  0.9029
 1411SOL    HW3 5377   4.952   4.965   1.777 -0.0180 -0.9198  0.6554
 1411SOL    MW4 5378   5.034   4.994   1.773  0.3085 -0.1440  0.0345
 1412SOL     OW 5379   4.850   4.062   1.004  0.0999 -0.1029 -0.2454
 1412SOL    HW2 5380   4.855   4.135   0.942 -0.7694  0.9503  0.8767
 1412SOL    HW3 5381   4.786   4.002   0.966 -0.5469  0.6081 -0.3064
 1412SOL    MW4 5382   4.842   4.064   0.991  0.2635 -0.4241  0.4231
 1413SOL     OW 5383   0.565   0.621   5.757 -0.3948 -0.4598 -1.0864
 1413SOL    HW2 5384   0.496   0.615   5.690 -1.9619  1.3888  0.2591
 1413SOL    HW3 5385   0.560   0.711   5.789  0.4757 -1.1864  1.3361
 1413SOL    MW4 5386   0.555   0.632   5.752  0.4002 -0.1152  0.2184
 1414SOL     OW 5387   5.767   1.008   5.950  0.0954 -0.2087  0.0649
 1414SOL    HW2 5388   5.776   0.937   5.887  2.5622 -0.4931  0.6578
 1414SOL    HW3 5389   5.846   1.004   6.003  1.0542  3.7878 -0.7338
 1414SOL    MW4 5390   5.778   0.998   5.948  0.1813  0.2755 -0.7862
 1415SOL     OW 5391   2.027   0.208   5.844 -0.0700 -0.1560  0.2231
 1415SOL    HW2 5392   2.045   0.296   5.812  0.5700  0.1906  1.4527
 1415SOL    HW3 5393   2.099   0.155   5.811 -0.0638 -0.0618  0.0839
 1415SOL    MW4 5394   2.039   0.213   5.836 -0.3401 -0.2174 -0.1104
 1416SOL     OW 5395   1.489   5.781   5.813 -0.0920  0.0367 -0.0535
 1416SOL    HW2 5396   1.568   5.770   5.760 -0.3583 -0.8334 -0.2815
 1416SOL    HW3 5397   1.516   5.759   5.902  0.3434  1.4502  0.2006
 1416SOL    MW4 5398   1.503   5.777   5.818  0.6063 -0.4144  0.4184
 1417SOL     OW 5399   6.317   5.683   4.383  0.1646  0.1015 -0.4040
 1417SOL    HW2 5400   6.273   5.635   4.454  1.0875  1.5679  1.2518
 1417SOL    HW3 5401   6.293   5.636   4.304 -2.2601 -0.6673  0.6876
 1417SOL    MW4 5402   6.308   5.670   4.382  0.4538 -0.5549  0.1386
 1418SOL     OW 5403   3.037   3.698   0.755  0.2010 -0.0947  0.3428
 1418SOL    HW2 5404   3.114   3.733   0.801  0.4864  0.5678 -0.6127
 1418SOL    HW3 5405   3.059   3.607   0.737  0.3922 -0.1542  0.8423
 1418SOL    MW4 5406   3.050   3.691   0.759  0.0553  0.3670  0.0053
 1419SOL     OW 5407   2.487   4.000   0.188  0.0456 -0.0032 -0.7000
 1419SOL    HW2 5408   2.462   3.937   0.257  0.2536  0.7518  0.0840
 1419SOL    HW3 5409   2.534   4.069   0.235  3.3462 -1.1607 -2.0369
 1419SOL    MW4 5410   2.490   4.000   0.204 -0.4577  0.4384  0.0476
 1420SOL     OW 5411   3.991   1.256   2.227 -0.6266  0.1930 -0.4488
 1420SOL    HW2 5412   3.901   1.268   2.254 -0.4836  1.9755 -0.6439
 1420SOL    HW3 5413   4.043   1.307   2.290  0.3986 -1.8598  0.4640
 1420SOL    MW4 5414   3.986   1.264   2.239  0.4692 -0.4394 -0.4573
 1421SOL     OW 5415   4.202   0.433   5.506  0.3977  0.0277 -0.1700
 1421SOL    HW2 5416   4.233   0.423   5.416 -1.5140  0.3245 -0.8934
 1421SOL    HW3 5417   4.203   0.527   5.521  0.1018  0.0205 -0.1061
 1421SOL    MW4 5418   4.206   0.444   5.496 -0.0469 -0.5156 -0.4844
 1422SOL     OW 5419   3.821   1.674   3.688  0.5838  0.2936 -0.2702
 1422SOL    HW2 5420   3.771   1.752   3.662 -0.4841  0.2003  1.3652
 1422SOL    HW3 5421   3.773   1.601   3.650 -0.6346  0.2006  1.3322
 1422SOL    MW4 5422   3.808   1.675   3.679 -0.1295  0.5747 -0.1242
 1423SOL     OW 5423   5.834   0.197   2.122 -0.0393  0.6452  0.1061
 1423SOL    HW2 5424   5.823   0.104   2.141 -0.5248  0.7844  0.5532
 1423SOL    HW3 5425   5.803   0.241   2.201 -2.0453  1.2487 -0.9280
 1423SOL    MW4 5426   5.828   0.190   2.135  0.0260 -0.2262 -0.0371
 1424SOL     OW 5427   5.737   3.970   0.610 -0.0376 -1.1568 -0.3673
 1424SOL    HW2 5428   5.735   4.015   0.695  3.6055  0.6556 -1.0020
 1424SOL    HW3 5429   5.744   3.877   0.633  0.9759 -0.7120  1.3826
 1424SOL    MW4 5430   5.738   3.964   0.625 -0.4333 -0.0699  0.1843
 1425SOL     OW 5431   0.867   3.168   3.936 -0.2479  0.0106  0.2722
 1425SOL    HW2 5432   0.903   3.251   3.905 -0.8650 -0.2906 -1.3263
 1425SOL    HW3 5433   0.940   3.106   3.929 -0.4232 -0.0946 -0.8057
 1425SOL    MW4 5434   0.882   3.171   3.931 -0.4327  0.0540  0.0356
 1426SOL     OW 5435   1.911   4.278   3.484 -0.0849 -0.4869  0.1523
 1426SOL    HW2 5436   1.841   4.329   3.524  1.6713  1.0032  1.5215
 1426SOL    HW3 5437   1.870   4.236   3.408 -2.3049  0.6748  0.6226
 1426SOL    MW4 5438   1.896   4.279   3.479 -1.2025  0.2921 -0.2406
 1427SOL     OW 5439   1.248   2.837   4.799  0.5463 -0.1832 -0.6604
 1427SOL    HW2 5440   1.251   2.877   4.712  1.7659 -0.3094 -0.6954
 1427SOL    HW3 5441   1.310   2.764   4.794  2.8022  1.4542  1.0758
 1427SOL    MW4 5442   1.257   2.833   4.787 -0.9518 -0.0315  0.2653
 1428SOL     OW 5443   6.111   0.845   6.343 -0.2541  0.1663  0.1276
 1428SOL    HW2 5444   6.056   0.778   6.384  0.2026 -0.2168  0.1234
 1428SOL    HW3 5445   6.175   0.796   6.292  0.0961  0.6037  0.1340
 1428SOL    MW4 5446   6.112   0.830   6.342 -0.0284  0.1563 -0.7114
 1429SOL     OW 5447   0.507   5.991   2.661 -0.2998  0.3606  0.4562
 1429SOL    HW2 5448   0.424   5.973   2.705 -1.4740  1.8257 -1.0002
 1429SOL    HW3 5449   0.501   6.083   2.636  2.0180  0.6486  0.7719
 1429SOL    MW4 5450   0.495   6.001   2.663  0.5024 -0.4045  0.3518
 1430SOL     OW 5451   3.163   2.506   5.216  0.6812  0.0489 -0.1403
 1430SOL    HW2 5452   3.146   2.428   5.269 -0.2223  0.1415 -0.2828
 1430SOL    HW3 5453   3.150   2.478   5.126  0.4076  0.3466 -0.1955
 1430SOL    MW4 5454   3.159   2.492   5.211 -0.3698  0.1868 -0.2897
 1431SOL     OW 5455   3.664   2.198   3.148  0.0797 -0.1469 -0.3993
 1431SOL    HW2 5456   3.570   2.216   3.151  0.1087  0.0404 -0.5738
 1431SOL    HW3 5457   3.678   2.158   3.062 -0.0103 -1.1755  0.0509
 1431SOL    MW4 5458   3.653   2.195   3.137 -0.4866 -0.2570 -0.0655
 1432SOL     OW 5459   2.937   1.951   5.278  0.4090  0.1540  0.1124
 1432SOL    HW2 5460   2.938   1.907   5.363  0.0256  2.4528  1.3853
 1432SOL    HW3 5461   2.854   1.924   5.238 -1.4736  2.1792  2.3285
 1432SOL    MW4 5462   2.926   1.941   5.284  0.2829  0.0138  0.4297
 1433SOL     OW 5463   2.461   6.104   0.616 -0.2491  0.4397 -0.0553
 1433SOL    HW2 5464   2.406   6.032   0.647 -1.2283  1.1720 -0.0501
 1433SOL    HW3 5465   2.490   6.148   0.696  1.2688 -0.5907 -0.0085
 1433SOL    MW4 5466   2.457   6.100   0.631 -0.6334  0.4132 -0.4914
 1434SOL     OW 5467   2.464   1.792   5.090  0.5449 -0.2626  0.4105
 1434SOL    HW2 5468   2.427   1.871   5.129 -0.0943 -0.1856 -0.3266
 1434SOL    HW3 5469   2.430   1.721   5.144 -0.2161 -0.1477  0.0904
 1434SOL    MW4 5470   2.454   1.793   5.102 -0.3578 -0.0456 -0.1268
 1435SOL     OW 5471   6.212   1.167   2.904 -0.5474  0.8670 -0.5907
 1435SOL    HW2 5472   6.196   1.097   2.968 -1.8680 -0.8619 -2.6638
 1435SOL    HW3 5473   6.306   1.183   2.910 -0.1664 -1.1666 -0.0745
 1435SOL    MW4 5474   6.222   1.160   2.914 -0.1015 -0.6729  0.0448
 1436SOL     OW 5475   3.405   1.769   4.048  0.0117 -0.8980 -0.7056
 1436SOL    HW2 5476   3.478   1.714   4.018  0.6002 -0.1617 -0.6371
 1436SOL    HW3 5477   3.429   1.858   4.022 -0.7494 -0.6136 -0.4599
 1436SOL    MW4 5478   3.418   1.773   4.041 -0.2747  0.5025 -0.3260
 1437SOL     OW 5479   4.446   6.262   3.274  0.4904  0.0806  0.1858
 1437SOL    HW2 5480   4.431   6.171   3.300  1.8202 -0.3812 -0.5690
 1437SOL    HW3 5481   4.405   6.270   3.188  0.0162  0.3216  0.4302
 1437SOL    MW4 5482   4.438   6.251   3.266 -0.3724  0.8867 -0.2475
 1438SOL     OW 5483   2.522   3.799   0.718  0.0947  0.1580 -0.2504
 1438SOL    HW2 5484   2.611   3.812   0.749 -0.2989 -0.1824  1.0552
 1438SOL    HW3 5485   2.515   3.704   0.703 -0.3404  0.0448  0.6119
 1438SOL    MW4 5486   2.532   3.788   0.720  0.6116 -0.3541 -0.2561
 1439SOL     OW 5487   2.555   0.788   3.043  0.3247  0.3707 -0.5232
 1439SOL    HW2 5488   2.564   0.729   2.968 -1.1255  1.0062 -1.2388
 1439SOL    HW3 5489   2.619   0.857   3.026  1.0735 -0.2658 -0.3724
 1439SOL    MW4 5490   2.565   0.789   3.031 -0.3298  0.3762  0.7174
 1440SOL     OW 5491   5.416   6.400   4.160  0.7216 -0.0195 -0.3973
 1440SOL    HW2 5492   5.337   6.422   4.109  1.6309 -0.1247 -1.9002
 1440SOL    HW3 5493   5.429   6.307   4.144  1.8350  0.2540 -1.1645
 1440SOL    MW4 5494   5.407   6.391   4.151 -0.3487 -0.2606  0.0622
 1441SOL     OW 5495   1.512   6.240   3.807  0.6662 -0.2271  0.3020
 1441SOL    HW2 5496   1.457   6.252   3.730  0.9607  0.6286  0.2112
 1441SOL    HW3 5497   1.594   6.285   3.786  0.5218  0.5799  1.3525
 1441SOL    MW4 5498   1.516   6.247   3.794 -0.1297 -0.3789 -0.3344
 1442SOL     OW 5499   6.045   2.229   3.050 -0.5785 -0.5932  0.4065
 1442SOL    HW2 5500   6.109   2.294   3.079 -0.1353 -0.2831 -1.1794
 1442SOL    HW3 5501   6.053   2.158   3.113  0.0632  0.2111  1.2564
 1442SOL    MW4 5502   6.055   2.228   3.062 -0.2582  0.6686  0.0871
 1443SOL     OW 5503   5.209   6.359   5.182  0.2303  0.1262  0.2980
 1443SOL    HW2 5504   5.278   6.383   5.244  0.9473  0.3191 -0.5641
 1443SOL    HW3 5505   5.247   6.289   5.129  0.5228  1.5609 -1.4809
 1443SOL    MW4 5506   5.223   6.353   5.184 -0.0657  0.2956 -0.0719
 1444SOL     OW 5507   0.747   5.994   5.034  0.1449  0.2202 -0.3659
 1444SOL    HW2 5508   0.757   6.033   5.121 -0.2368  0.1144 -0.2776
 1444SOL    HW3 5509   0.756   6.069   4.974 -1.0494  0.5322 -0.1782
 1444SOL    MW4 5510   0.750   6.009   5.038 -0.1565  0.4493  0.6365
 1445SOL     OW 5511   3.325   3.242   2.372 -0.3150  0.2359 -0.0460
 1445SOL    HW2 5512   3.281   3.326   2.362 -0.0649  0.1408 -3.0878
 1445SOL    HW3 5513   3.362   3.244   2.460 -1.1086  2.9081  0.3132
 1445SOL    MW4 5514   3.324   3.254   2.382  0.6185 -0.3509  0.1229
 1446SOL     OW 5515   6.079   4.925   0.811  0.1519  0.1568  0.4709
 1446SOL    HW2 5516   5.996   4.959   0.777  1.4226  2.8071 -0.2871
 1446SOL    HW3 5517   6.098   4.850   0.755 -2.1705 -1.1843  1.3328
 1446SOL    MW4 5518   6.071   4.920   0.799  0.1617  0.1800  0.5583
 1447SOL     OW 5519   6.405   2.279   3.433 -0.7704 -0.6539 -0.3273
 1447SOL    HW2 5520   6.358   2.201   3.460  0.2627 -1.1800  0.0040
 1447SOL    HW3 5521   6.495   2.265   3.463 -0.4107  0.3511 -0.8694
 1447SOL    MW4 5522   6.411   2.267   3.440  0.1825 -0.0873  0.6021
 1448SOL     OW 5523   1.701   5.423   3.227  0.1083 -0.2682 -0.1433
 1448SOL    HW2 5524   1.628   5.362   3.221 -0.6868  0.7935 -2.2768
 1448SOL    HW3 5525   1.779   5.368   3.223 -0.5558 -1.2871  0.4483
 1448SOL    MW4 5526   1.702   5.408   3.226 -0.5835  0.4016 -0.2630
 1449SOL     OW 5527   1.070   2.957   3.906 -0.7886  0.1334  0.7334
 1449SOL    HW2 5528   1.043   2.966   3.815 -0.6589  0.2639  0.7085
 1449SOL    HW3 5529   1.144   3.017   3.916 -0.5369 -0.1862  0.8150
 1449SOL    MW4 5530   1.076   2.966   3.896 -0.0061 -0.3124 -0.8791
 1450SOL     OW 5531   6.426   3.345   3.486 -0.2638  0.2285  0.3088
 1450SOL    HW2 5532   6.453   3.322   3.574  1.4079 -0.8016 -0.4184
 1450SOL    HW3 5533   6.380   3.267   3.454  1.9991 -0.7574 -0.8049
 1450SOL    MW4 5534   6.423   3.331   3.493  0.1180  0.1037 -0.0279
 1451SOL     OW 5535   5.031   1.525   3.260 -0.0130 -0.3423 -0.5954
 1451SOL    HW2 5536   4.998   1.455   3.315  0.8594 -1.1969 -1.1296
 1451SOL    HW3 5537   5.101   1.566   3.312 -0.8359  0.4723 -0.0894
 1451SOL    MW4 5538   5.036   1.521   3.274  0.1763  0.4582 -0.0761
 1452SOL     OW 5539   0.280   1.540   1.516 -0.1760  0.2991  0.1565
 1452SOL    HW2 5540   0.200   1.529   1.463  0.4603  0.2804 -0.8263
 1452SOL    HW3 5541   0.287   1.458   1.565 -0.7551  0.2962  0.2493
 1452SOL    MW4 5542   0.270   1.528   1.516 -0.6089 -0.0135 -0.2959
 1453SOL     OW 5543   6.385   2.571   6.166 -0.6358  0.6086  0.3660
 1453SOL    HW2 5544   6.369   2.511   6.239 -0.5941  0.0693 -0.0592
 1453SOL    HW3 5545   6.307   2.626   6.163 -0.6369  0.6367  0.8150
 1453SOL    MW4 5546   6.373   2.571   6.175  1.0443 -0.3373 -0.2802
 1454SOL     OW 5547   6.296   2.441   4.197 -0.0806  0.1390 -0.9191
 1454SOL    HW2 5548   6.264   2.375   4.137 -0.9385 -0.2557 -0.0480
 1454SOL    HW3 5549   6.228   2.448   4.264  1.4296 -0.4131  0.7506
 1454SOL    MW4 5550   6.283   2.433   4.198  0.1172  0.1456 -0.0426
 1455SOL     OW 5551   6.198   5.713   6.327  0.7341  0.2365 -0.5048
 1455SOL    HW2 5552   6.285   5.742   6.301  1.0818 -0.0377  0.3164
 1455SOL    HW3 5553   6.186   5.750   6.415 -1.1563  2.7115 -1.6772
 1455SOL    MW4 5554   6.208   5.722   6.335  0.2184 -0.4888  0.0750
 1456SOL     OW 5555   3.486   3.541   2.483  0.0414 -0.2969  0.4371
 1456SOL    HW2 5556   3.521   3.582   2.562  1.0345 -1.0550  0.4150
 1456SOL    HW3 5557   3.410   3.595   2.459  0.4291  0.6329  1.2340
 1456SOL    MW4 5558   3.481   3.554   2.490 -0.3151  0.1247 -0.0761
 1457SOL     OW 5559   3.060   1.862   6.249 -0.4473 -0.4119  0.1208
 1457SOL    HW2 5560   3.092   1.816   6.327  2.7858  0.9993 -0.1994
 1457SOL    HW3 5561   3.012   1.796   6.200 -0.8206 -1.8735  2.3053
 1457SOL    MW4 5562   3.058   1.847   6.253 -0.1312  0.2443  0.1865
 1458SOL     OW 5563   6.407   2.086   5.706 -0.5915  0.7279  0.4086
 1458SOL    HW2 5564   6.471   2.040   5.651 -1.3540 -0.7181  0.6687
 1458SOL    HW3 5565   6.324   2.041   5.689 -1.1266  1.1897  1.6548
 1458SOL    MW4 5566   6.404   2.074   5.696  0.3011  0.1979 -0.7764
 1459SOL     OW 5567   1.613   3.997   5.552 -0.4143 -0.1713  0.3836
 1459SOL    HW2 5568   1.578   3.926   5.605 -1.4297  0.5359  0.6823
 1459SOL    HW3 5569   1.541   4.022   5.494  0.4464 -0.4428 -0.8404
 1459SOL    MW4 5570   1.599   3.991   5.551 -0.0924 -0.5547 -0.2066
 1460SOL     OW 5571   3.388   4.242   0.631  0.3205  0.4807 -0.1969
 1460SOL    HW2 5572   3.443   4.244   0.553  0.8554  2.6741  0.1643
 1460SOL    HW3 5573   3.351   4.330   0.636 -0.0750  0.2441  1.7718
 1460SOL    MW4 5574   3.390   4.254   0.621  1.0659  0.0792  0.4468
 1461SOL     OW 5575   0.969   3.197   3.501 -0.2825 -0.3722  0.5765
 1461SOL    HW2 5576   0.932   3.159   3.421  1.0530 -1.4172  0.4215
 1461SOL    HW3 5577   0.905   3.263   3.527 -0.2284  0.8099 -1.9670
 1461SOL    MW4 5578   0.956   3.200   3.494  0.2895  0.0923  0.7075
 1462SOL     OW 5579   5.873   1.929   1.825 -0.2396 -0.1796  0.2708
 1462SOL    HW2 5580   5.850   2.022   1.824  1.2171  0.1887 -0.0501
 1462SOL    HW3 5581   5.872   1.903   1.733 -1.7409 -0.7984  0.4230
 1462SOL    MW4 5582   5.870   1.938   1.813 -0.2971 -0.6099 -0.2401
 1463SOL     OW 5583   3.769   4.790   1.664  0.0337  0.1167  0.6743
 1463SOL    HW2 5584   3.856   4.773   1.701  0.0102 -1.8000 -0.0699
 1463SOL    HW3 5585   3.739   4.705   1.632 -1.5660  0.9977 -0.2961
 1463SOL    MW4 5586   3.776   4.777   1.665 -0.0838  0.7635 -0.1776
 1464SOL     OW 5587   0.010   4.815   1.030 -0.1051  0.0149 -0.6479
 1464SOL    HW2 5588   0.085   4.767   1.066  0.7999  0.2907 -2.0678
 1464SOL    HW3 5589  -0.019   4.762   0.956 -1.1975  0.0151 -0.2290
 1464SOL    MW4 5590   0.016   4.802   1.025  0.4474  0.0876  0.4429
 1465SOL     OW 5591   0.063   4.885   2.306 -0.0974  0.3352 -0.6561
 1465SOL    HW2 5592   0.016   4.935   2.240 -1.5330  2.1651  1.6144
 1465SOL    HW3 5593  -0.005   4.846   2.360  0.9484  1.2278  1.4183
 1465SOL    MW4 5594   0.048   4.886   2.304  0.3375 -0.0549  0.1528
 1466SOL     OW 5595   4.717   2.290   5.365 -0.3964 -0.3776  0.0516
 1466SOL    HW2 5596   4.762   2.285   5.449  1.0378 -0.0127 -0.6554
 1466SOL    HW3 5597   4.625   2.304   5.387  0.1964  1.4648  1.5430
 1466SOL    MW4 5598   4.711   2.291   5.379  0.5812 -0.2504 -0.7274
 1467SOL     OW 5599   5.233   1.559   6.102  0.3840  0.1220 -0.1865
 1467SOL    HW2 5600   5.200   1.647   6.118 -2.8797 -0.8295 -0.9388
 1467SOL    HW3 5601   5.291   1.568   6.026 -0.4103  1.5376 -0.6595
 1467SOL    MW4 5602   5.236   1.572   6.094  0.0559 -0.2939  0.2763
 1468SOL     OW 5603   1.896   2.080   4.083  0.3158 -0.2591  0.2866
 1468SOL    HW2 5604   1.858   2.017   4.021 -1.2495  1.8799 -1.0600
 1468SOL    HW3 5605   1.965   2.123   4.033 -1.1937  1.7359 -0.1820
 1468SOL    MW4 5606   1.900   2.077   4.068  0.0167 -0.2819  0.3794
 1469SOL     OW 5607   4.925   3.743   2.573 -0.0298 -0.2639  0.0730
 1469SOL    HW2 5608   4.982   3.666   2.579  0.3316 -0.5295 -4.0907
 1469SOL    HW3 5609   4.843   3.716   2.614  0.9794 -1.8314  1.1726
 1469SOL    MW4 5610   4.922   3.730   2.579  0.3580  0.5259 -0.1282
 1470SOL     OW 5611   3.569   2.009   0.807  0.0072  0.1188 -0.4097
 1470SOL    HW2 5612   3.601   2.063   0.735  0.1414  0.1976 -0.2926
 1470SOL    HW3 5613   3.551   1.924   0.768  1.4998 -0.2889 -0.2558
 1470SOL    MW4 5614   3.571   2.005   0.793  0.3886 -0.1137 -0.1482
 1471SOL     OW 5615   2.504   2.093   2.303 -0.6816 -0.2965 -0.2057
 1471SOL    HW2 5616   2.485   2.085   2.209 -0.1298 -0.4370 -0.3127
 1471SOL    HW3 5617   2.420   2.078   2.346 -0.6384 -1.8398 -0.6086
 1471SOL    MW4 5618   2.490   2.090   2.296  0.5225 -0.3383 -0.1355
 1472SOL     OW 5619   6.287   5.422   5.818  0.2783  0.4611 -0.3593
 1472SOL    HW2 5620   6.250   5.380   5.741 -1.3121 -0.5562  0.8836
 1472SOL    HW3 5621   6.334   5.498   5.784  0.7095 -0.6385 -2.4193
 1472SOL    MW4 5622   6.288   5.427   5.804 -0.4712  0.6491  0.0502
 1473SOL     OW 5623   0.610   4.487   3.835 -0.0887 -0.6399 -0.5094
 1473SOL    HW2 5624   0.516   4.483   3.848 -0.0556  0.3629  0.1654
 1473SOL    HW3 5625   0.642   4.541   3.907  1.0715 -1.4010 -0.4277
 1473SOL    MW4 5626   0.602   4.494   3.846  0.0929  0.2398  0.4615
 1474SOL     OW 5627   1.288   1.102   2.131  0.0331 -0.5809  0.0796
 1474SOL    HW2 5628   1.329   1.020   2.103  2.1987  0.3774  0.2840
 1474SOL    HW3 5629   1.357   1.167   2.126 -1.9520  1.6025 -1.4295
 1474SOL    MW4 5630   1.302   1.099   2.127  0.2458  0.2440 -0.3785
 1475SOL     OW 5631   1.890   2.381   4.817 -0.1287 -0.0410  0.1628
 1475SOL    HW2 5632   1.938   2.388   4.899 -0.4968  0.2074  0.3560
 1475SOL    HW3 5633   1.930   2.448   4.760  0.0216 -0.1089  0.1866
 1475SOL    MW4 5634   1.902   2.391   4.820 -0.0815  0.0478 -0.4524
 1476SOL     OW 5635   2.058   6.003   6.153  0.0698  0.9788  0.1266
 1476SOL    HW2 5636   2.023   6.088   6.128 -1.4538  0.1110 -0.8666
 1476SOL    HW3 5637   2.048   6.000   6.248 -1.1488  1.3824  0.0299
 1476SOL    MW4 5638   2.052   6.014   6.162 -0.3825 -0.0827  1.1863
 1477SOL     OW 5639   6.338   3.250   4.326 -0.4741 -0.3150 -0.2970
 1477SOL    HW2 5640   6.394   3.205   4.391 -0.2590  0.9156  0.3951
 1477SOL    HW3 5641   6.362   3.209   4.243  0.9097 -0.3708  0.0887
 1477SOL    MW4 5642   6.349   3.239   4.324  0.1955 -0.7332 -0.3212
 1478SOL     OW 5643   5.100   5.464   0.096 -0.1728  0.0692  0.2241
 1478SOL    HW2 5644   5.086   5.494   0.186 -0.3188  0.4008  0.0915
 1478SOL    HW3 5645   5.151   5.383   0.105 -0.0145  0.2091  0.5967
 1478SOL    MW4 5646   5.105   5.457   0.109 -0.0309  0.1908  0.0575
 1479SOL     OW 5647   2.414   5.476   4.688  0.7446  0.0143 -0.2082
 1479SOL    HW2 5648   2.458   5.398   4.722  2.5954  1.6692  1.4670
 1479SOL    HW3 5649   2.345   5.495   4.751  1.7703  0.9626  0.6770
 1479SOL    MW4 5650   2.411   5.468   4.701 -0.3218 -0.1536 -0.3912
 1480SOL     OW 5651   4.885   4.019   2.461 -0.1466  0.0082  0.2121
 1480SOL    HW2 5652   4.910   4.060   2.544 -1.8871 -0.0920  0.8231
 1480SOL    HW3 5653   4.910   3.927   2.472 -0.0648  0.0607  0.4798
 1480SOL    MW4 5654   4.892   4.012   2.474 -0.0573 -0.1138  0.8375
 1481SOL     OW 5655   1.273   0.016   2.119 -0.5430  0.1934 -0.2097
 1481SOL    HW2 5656   1.328   0.092   2.101 -1.1910  1.1205  1.4772
 1481SOL    HW3 5657   1.226   0.039   2.199  2.2513 -3.5906  2.9165
 1481SOL    MW4 5658   1.274   0.029   2.127 -0.7787 -0.1179 -0.0144
 1482SOL     OW 5659   2.181   6.132   5.830  0.3264 -0.1557  0.8902
 1482SOL    HW2 5660   2.181   6.200   5.897  1.2239  1.9884 -1.1080
 1482SOL    HW3 5661   2.271   6.131   5.798 -0.2230 -0.5608 -0.7442
 1482SOL    MW4 5662   2.193   6.141   5.835  0.0527 -0.5243  0.8014
 1483SOL     OW 5663   5.077   5.102   4.010 -0.6127  0.0580 -0.3482
 1483SOL    HW2 5664   5.121   5.063   3.934  1.7029  0.6381  0.5888
 1483SOL    HW3 5665   4.993   5.134   3.975 -0.7797 -1.9950 -2.0288
 1483SOL    MW4 5666   5.072   5.101   3.995 -0.1545 -0.3239  0.1694
 1484SOL     OW 5667   4.802   5.042   3.533  0.4530 -0.1158  0.2248
 1484SOL    HW2 5668   4.775   4.982   3.602  0.9079  1.6616  2.0415
 1484SOL    HW3 5669   4.893   5.017   3.513 -0.6274 -2.7345 -2.1975
 1484SOL    MW4 5670   4.811   5.031   3.539  0.4968 -0.1261 -0.3695
 1485SOL     OW 5671   2.932   6.208   5.758  0.3037 -0.1586 -0.3753
 1485SOL    HW2 5672   2.842   6.237   5.770  0.8568  1.6049 -0.1913
 1485SOL    HW3 5673   2.954   6.234   5.668  1.1919  1.1289  0.1880
 1485SOL    MW4 5674   2.923   6.215   5.748 -0.2873  0.1908  0.3427
 1486SOL     OW 5675   0.794   0.820   0.490  0.4491 -0.0016  0.7888
 1486SOL    HW2 5676   0.800   0.725   0.484  2.9109  0.1422 -0.1663
 1486SOL    HW3 5677   0.877   0.847   0.530 -1.6269  1.5849  4.5435
 1486SOL    MW4 5678   0.806   0.811   0.495 -0.6754 -0.2362 -0.1305
 1487SOL     OW 5679   3.887   3.664   5.197 -0.4708 -0.0801  0.0458
 1487SOL    HW2 5680   3.812   3.644   5.141 -1.0773 -0.0985  0.8449
 1487SOL    HW3 5681   3.964   3.644   5.143 -1.0487 -1.4879 -0.2852
 1487SOL    MW4 5682   3.888   3.659   5.183 -0.5926  0.1961  0.2300
 1488SOL     OW 5683   2.562   2.159   1.016 -0.0329 -0.3724 -0.2970
 1488SOL    HW2 5684   2.612   2.228   1.061 -0.6624 -0.6355  0.8359
 1488SOL    HW3 5685   2.533   2.101   1.086 -2.3770  0.0365 -0.8513
 1488SOL    MW4 5686   2.565   2.160   1.031 -0.0606 -0.1603  0.5443
 1489SOL     OW 5687   1.719   4.227   0.529  0.7814 -0.5714 -0.0552
 1489SOL    HW2 5688   1.798   4.243   0.580  1.5382  0.5469 -1.5209
 1489SOL    HW3 5689   1.751   4.199   0.443 -0.4456 -1.3999 -0.2724
 1489SOL    MW4 5690   1.734   4.225   0.524 -0.4744  0.2110 -0.2028
 1490SOL     OW 5691   0.538   5.354   4.660 -0.3513 -0.7700 -0.2040
 1490SOL    HW2 5692   0.621   5.364   4.613  0.0110 -1.2149  0.3361
 1490SOL    HW3 5693   0.526   5.437   4.706 -0.5241 -0.4707 -0.7775
 1490SOL    MW4 5694   0.547   5.366   4.660 -0.2982  0.1609  0.4145
 1491SOL     OW 5695   2.998   3.160   3.286 -0.1614  0.0356  0.3888
 1491SOL    HW2 5696   2.974   3.183   3.375 -0.0386 -0.3038  0.5096
 1491SOL    HW3 5697   2.915   3.158   3.238 -0.0972  1.7927  0.1135
 1491SOL    MW4 5698   2.984   3.163   3.291 -0.2376  0.5450  0.0635
 1492SOL     OW 5699   0.546   4.954   1.735  0.3469 -0.6810 -0.4857
 1492SOL    HW2 5700   0.501   4.920   1.812  4.5862 -2.7907  1.3545
 1492SOL    HW3 5701   0.583   5.038   1.764  0.1270 -0.4021 -0.9952
 1492SOL    MW4 5702   0.545   4.961   1.749  0.6202 -0.0923 -0.5525
 1493SOL     OW 5703   4.211   4.566   0.318  0.4010  0.2329 -0.1387
 1493SOL    HW2 5704   4.306   4.568   0.327  0.3618 -1.0352  0.9054
 1493SOL    HW3 5705   4.185   4.481   0.353 -1.1038  0.4451 -0.6381
 1493SOL    MW4 5706   4.220   4.555   0.324  0.0070 -0.2840 -0.0990
 1494SOL     OW 5707   4.076   6.053   4.523  0.2758  0.4806 -0.5171
 1494SOL    HW2 5708   4.077   5.961   4.547  1.7415  0.3134 -1.1079
 1494SOL    HW3 5709   4.025   6.096   4.592 -2.4085 -1.0411 -1.4036
 1494SOL    MW4 5710   4.069   6.047   4.535 -0.0508 -0.3759 -0.2025
 1495SOL     OW 5711   5.499   1.307   5.266 -0.2426 -0.4675  0.5876
 1495SOL    HW2 5712   5.473   1.252   5.340 -0.2886 -2.9837 -1.1680
 1495SOL    HW3 5713   5.561   1.253   5.216  1.4906  1.9810 -0.0841
 1495SOL    MW4 5714   5.503   1.292   5.269 -0.5603 -0.2992  0.0301
 1496SOL     OW 5715   5.056   1.990   2.941 -0.6555 -0.0274 -0.0568
 1496SOL    HW2 5716   5.097   1.975   3.027 -3.2711 -0.6255  1.1712
 1496SOL    HW3 5717   5.065   1.906   2.896 -0.4954 -0.1286  0.1588
 1496SOL    MW4 5718   5.063   1.977   2.947 -0.1258 -0.5403  0.1718
 1497SOL     OW 5719   4.702   1.768   5.810  0.0911  0.2925  0.2367
 1497SOL    HW2 5720   4.780   1.740   5.857 -0.3335 -0.8820  0.2605
 1497SOL    HW3 5721   4.708   1.864   5.809  0.6634  0.3032  1.7190
 1497SOL    MW4 5722   4.713   1.777   5.816 -0.5361  0.6419  0.4061
 1498SOL     OW 5723   1.890   4.174   0.280  0.3759 -0.6042  0.2686
 1498SOL    HW2 5724   1.862   4.186   0.189  2.2540  1.2199 -0.1387
 1498SOL    HW3 5725   1.944   4.095   0.278 -1.1056 -1.6588  0.2248
 1498SOL    MW4 5726   1.893   4.165   0.268  0.2455  0.0909  0.4013
 1499SOL     OW 5727   5.540   2.083   2.170  0.7033 -0.2355 -0.5388
 1499SOL    HW2 5728   5.527   2.022   2.243 -1.2453  0.4548 -0.2298
 1499SOL    HW3 5729   5.515   2.033   2.092 -1.3648  0.2134 -0.2379
 1499SOL    MW4 5730   5.535   2.069   2.170  0.0121  0.3388  0.2590
 1500SOL     OW 5731   1.696   2.337   0.011  0.0741  0.4319  0.1213
 1500SOL    HW2 5732   1.750   2.259   0.002  1.4802  0.9155  3.0073
 1500SOL    HW3 5733   1.720   2.372   0.097 -3.8686  1.4815  0.9794
 1500SOL    MW4 5734   1.707   2.332   0.021  0.4392 -0.4797 -0.0754
 1501SOL     OW 5735   4.622   2.167   4.230  0.1336  0.5078  0.0759
 1501SOL    HW2 5736   4.534   2.173   4.266  0.2091  1.0588  0.1898
 1501SOL    HW3 5737   4.668   2.105   4.287 -1.0290 -2.2259 -1.7979
 1501SOL    MW4 5738   4.617   2.160   4.242 -0.5835 -0.0354  0.3938
 1502SOL     OW 5739   4.566   0.558   1.112 -0.2685  0.3037 -0.4791
 1502SOL    HW2 5740   4.559   0.525   1.022 -2.2134  2.4655 -1.2248
 1502SOL    HW3 5741   4.575   0.479   1.166 -1.1050 -1.1878 -2.4051
 1502SOL    MW4 5742   4.566   0.544   1.107 -0.2840 -0.4615 -0.1357
 1503SOL     OW 5743   2.121   2.979   0.096  0.6278  0.1248  0.1875
 1503SOL    HW2 5744   2.044   2.953   0.045  0.5265  2.1026 -0.7435
 1503SOL    HW3 5745   2.084   3.015   0.177  0.5772  0.9005 -0.1784
 1503SOL    MW4 5746   2.106   2.980   0.100 -0.1251  1.0625 -0.5037
 1504SOL     OW 5747   4.570   6.130   1.700  0.4385 -1.0700 -0.0771
 1504SOL    HW2 5748   4.567   6.226   1.702 -1.3992 -1.1063  1.5583
 1504SOL    HW3 5749   4.663   6.109   1.695  0.9377  0.7921  0.7156
 1504SOL    MW4 5750   4.582   6.140   1.699  0.6654  0.6545 -0.5852
 1505SOL     OW 5751   5.030   5.378   2.149 -0.2148 -0.0876  0.5253
 1505SOL    HW2 5752   5.098   5.391   2.216  1.6111 -1.3366 -0.9853
 1505SOL    HW3 5753   5.029   5.284   2.134 -1.2036  0.0854 -0.6071
 1505SOL    MW4 5754   5.039   5.368   2.156  0.0152  0.3371 -0.3520
 1506SOL     OW 5755   3.374   3.450   3.393  0.6598 -0.3945 -0.1618
 1506SOL    HW2 5756   3.351   3.374   3.340 -2.7586 -0.6727  1.4510
 1506SOL    HW3 5757   3.374   3.523   3.332 -2.1445 -0.8560 -0.8278
 1506SOL    MW4 5758   3.371   3.450   3.378 -0.0391  0.7451 -0.7507
 1507SOL     OW 5759   1.687   1.284   1.718  0.0739  0.2832 -0.5152
 1507SOL    HW2 5760   1.700   1.378   1.706 -1.3360  0.5994  0.2341
 1507SOL    HW3 5761   1.754   1.259   1.782 -0.9734  1.2793  1.0682
 1507SOL    MW4 5762   1.698   1.293   1.725 -0.0876 -0.0480  0.7441
 1508SOL     OW 5763   3.405   0.638   3.422  0.7179 -0.5747  0.6948
 1508SOL    HW2 5764   3.411   0.544   3.408  1.5404 -0.5809  1.0581
 1508SOL    HW3 5765   3.355   0.671   3.347  2.9522 -0.9112 -1.0133
 1508SOL    MW4 5766   3.399   0.630   3.410 -0.5286  0.4009 -0.7306
 1509SOL     OW 5767   1.974   6.198   3.842 -0.6713 -0.5761  0.0679
 1509SOL    HW2 5768   2.041   6.141   3.806 -0.2494 -0.2042  0.2503
 1509SOL    HW3 5769   1.903   6.196   3.778 -0.3789 -0.7637 -0.2511
 1509SOL    MW4 5770   1.973   6.190   3.829 -0.0921 -0.7387 -0.1498
 1510SOL     OW 5771   3.917   0.533   5.316  0.3243  0.4739 -0.0761
 1510SOL    HW2 5772   3.921   0.438   5.313 -0.7417  0.4127 -0.0183
 1510SOL    HW3 5773   3.871   0.552   5.398 -0.5605  0.9872 -0.6726
 1510SOL    MW4 5774   3.911   0.523   5.327  0.0012 -0.1921  0.0419
 1511SOL     OW 5775   2.551   4.860   2.577 -0.0799  0.1623 -0.0625
 1511SOL    HW2 5776   2.579   4.793   2.639 -1.7313  0.1210  0.6905
 1511SOL    HW3 5777   2.474   4.823   2.534 -1.0666  1.5680  0.4116
 1511SOL    MW4 5778   2.545   4.846   2.579  0.6340 -0.1810  0.0795
 1512SOL     OW 5779   6.121   2.882   4.400  0.6445 -0.0248 -0.1747
 1512SOL    HW2 5780   6.179   2.888   4.323  1.0276  1.2013  0.1939
 1512SOL    HW3 5781   6.179   2.852   4.470  0.5352 -0.0562 -0.0987
 1512SOL    MW4 5782   6.137   2.879   4.399  0.4390 -0.8061  0.5573
 1513SOL     OW 5783   0.620   0.052   3.009 -0.1659 -0.4499 -0.4809
 1513SOL    HW2 5784   0.567   0.014   3.079 -0.5493 -0.9652 -1.0299
 1513SOL    HW3 5785   0.676  -0.020   2.980  1.5678  0.3604  0.7572
 1513SOL    MW4 5786   0.620   0.037   3.014 -0.1938 -0.0814 -0.0526
 1514SOL     OW 5787   4.414   5.501   0.793  0.1441  0.2522  0.2429
 1514SOL    HW2 5788   4.428   5.596   0.798  0.0278  0.2284  1.2911
 1514SOL    HW3 5789   4.320   5.490   0.803  0.0894  0.0513 -0.4580
 1514SOL    MW4 5790   4.403   5.512   0.795  0.5271 -0.3151  0.2439
 1515SOL     OW 5791   1.928   3.719   1.653  0.3387 -0.1426 -0.4851
 1515SOL    HW2 5792   1.948   3.775   1.728 -0.6417 -1.1754  0.5867
 1515SOL    HW3 5793   1.832   3.711   1.654  0.4551 -1.8085 -0.6115
 1515SOL    MW4 5794   1.918   3.725   1.663  0.1342 -0.1454  0.0654
 1516SOL     OW 5795   5.263   4.917   5.505 -0.6190 -0.3149  0.1058
 1516SOL    HW2 5796   5.178   4.939   5.469 -0.8484  0.7376  1.2295
 1516SOL    HW3 5797   5.245   4.898   5.598  0.4366  0.4800  0.4895
 1516SOL    MW4 5798   5.249   4.917   5.513 -0.5950 -0.2570 -0.2444
 1517SOL     OW 5799   0.650   2.363   4.412  0.1615 -0.3001  0.2745
 1517SOL    HW2 5800   0.664   2.298   4.343  1.4452  0.5699 -0.3326
 1517SOL    HW3 5801   0.558   2.388   4.403  0.4697  0.3427 -1.6541
 1517SOL    MW4 5802   0.640   2.358   4.401 -0.2589  0.0513  0.0558
 1518SOL     OW 5803   4.011   3.550   5.552  0.0409  0.8291 -0.1848
 1518SOL    HW2 5804   4.073   3.535   5.623  0.9755 -0.4485 -1.2302
 1518SOL    HW3 5805   3.944   3.483   5.564  1.5135 -1.0911 -1.8719
 1518SOL    MW4 5806   4.010   3.539   5.563  0.9967 -0.9021  0.7473
 1519SOL     OW 5807   2.054   5.459   2.597 -0.0402 -0.0406  0.3634
 1519SOL    HW2 5808   1.986   5.395   2.619 -0.8509  1.3348  2.0922
 1519SOL    HW3 5809   2.132   5.427   2.643 -0.0568 -0.5259  0.0634
 1519SOL    MW4 5810   2.055   5.446   2.606 -0.0524  0.3971  0.0147
 1520SOL     OW 5811   0.653   4.896   4.102 -0.4229 -0.5598  0.3260
 1520SOL    HW2 5812   0.641   4.932   4.189  4.1906 -1.3125  1.5026
 1520SOL    HW3 5813   0.680   4.805   4.116  0.6853 -0.6473 -1.8329
 1520SOL    MW4 5814   0.655   4.888   4.115  0.4304 -0.0452 -0.3176
 1521SOL     OW 5815   1.104   1.155   0.967  0.1128 -0.2546  0.5299
 1521SOL    HW2 5816   1.176   1.216   0.953 -0.0406 -0.0455  0.6443
 1521SOL    HW3 5817   1.080   1.166   1.059  0.6682 -1.1316  0.7901
 1521SOL    MW4 5818   1.110   1.164   0.977  0.0372 -0.9930 -0.0153
 1522SOL     OW 5819   4.904   0.434   0.471  0.4468  0.5015  0.6987
 1522SOL    HW2 5820   4.976   0.371   0.464  0.6223  0.8318 -0.6425
 1522SOL    HW3 5821   4.907   0.463   0.562  1.3443 -0.2701  0.9332
 1522SOL    MW4 5822   4.914   0.429   0.482 -0.9357  0.0783 -0.2061
 1523SOL     OW 5823   0.532   1.540   6.047 -0.1543 -0.0891 -0.2246
 1523SOL    HW2 5824   0.541   1.560   6.140 -1.9469 -0.1919  0.0063
 1523SOL    HW3 5825   0.580   1.609   6.003 -0.3513  0.6882  0.7454
 1523SOL    MW4 5826   0.539   1.552   6.054 -0.0820  0.4213  0.0763
 1524SOL     OW 5827   0.960   4.116   4.075 -0.4580  0.0222  0.5071
 1524SOL    HW2 5828   0.973   4.094   3.982 -0.5738  0.9203  0.2701
 1524SOL    HW3 5829   0.949   4.031   4.118  0.9118 -0.4957 -0.1002
 1524SOL    MW4 5830   0.961   4.102   4.068  0.0475  0.4079 -0.1293
 1525SOL     OW 5831   3.670   6.181   3.563  0.0555 -0.0550  0.4183
 1525SOL    HW2 5832   3.706   6.219   3.483 -0.1623  0.3966  0.5256
 1525SOL    HW3 5833   3.575   6.195   3.555  0.1016  0.8278  1.1563
 1525SOL    MW4 5834   3.662   6.188   3.551  0.6197  0.1763 -0.1469
 1526SOL     OW 5835   2.087   4.608   5.512 -0.1205 -0.0477 -0.2182
 1526SOL    HW2 5836   2.105   4.516   5.493  1.3044 -0.2052  1.6968
 1526SOL    HW3 5837   2.170   4.653   5.496 -0.1068  0.4853  1.2517
 1526SOL    MW4 5838   2.100   4.601   5.507 -0.4840 -0.0515  0.5981
 1527SOL     OW 5839   3.822   5.355   4.150 -0.2301  0.0337  0.1188
 1527SOL    HW2 5840   3.818   5.303   4.070 -0.3906 -1.1159  0.8449
 1527SOL    HW3 5841   3.887   5.423   4.131  2.2444 -2.1786  0.0855
 1527SOL    MW4 5842   3.830   5.357   4.137  0.0691  0.0205  0.1413
 1528SOL     OW 5843   2.347   3.306   6.250  0.6363 -0.7525  0.5174
 1528SOL    HW2 5844   2.382   3.231   6.297  0.8483 -0.9150  0.1052
 1528SOL    HW3 5845   2.397   3.381   6.283 -0.5523 -0.5630  1.9928
 1528SOL    MW4 5846   2.358   3.306   6.261 -0.0795 -0.0785 -0.0694
 1529SOL     OW 5847   5.196   2.744   5.095 -0.5727  0.3442  0.0162
 1529SOL    HW2 5848   5.178   2.751   5.001 -1.6634 -0.4346  0.1562
 1529SOL    HW3 5849   5.273   2.689   5.101 -0.8778 -0.1346 -0.4015
 1529SOL    MW4 5850   5.204   2.738   5.084  0.3531 -0.0153 -0.1722
 1530SOL     OW 5851   0.610   3.641   3.340  0.2516 -0.4747  0.0612
 1530SOL    HW2 5852   0.577   3.686   3.261 -0.2703  0.9585  1.0408
 1530SOL    HW3 5853   0.611   3.549   3.316 -1.1985 -0.2191 -1.1861
 1530SOL    MW4 5854   0.606   3.635   3.326 -0.6593  0.3663  0.0554
 1531SOL     OW 5855   5.178   0.943   3.303  0.5416  0.3757  0.1358
 1531SOL    HW2 5856   5.234   0.915   3.231 -1.0693  0.0150 -1.0272
 1531SOL    HW3 5857   5.104   0.883   3.301 -0.9200  2.0865  0.2759
 1531SOL    MW4 5858   5.176   0.931   3.294 -0.0638  0.3060 -0.0570
 1532SOL     OW 5859   4.568   6.118   6.087 -0.1463 -0.5088  0.2781
 1532SOL    HW2 5860   4.562   6.079   6.000 -0.8371 -0.0445  0.1145
 1532SOL    HW3 5861   4.504   6.070   6.140 -0.9762  0.3569  0.0844
 1532SOL    MW4 5862   4.559   6.106   6.083 -0.0600 -0.3957 -0.4089
 1533SOL     OW 5863   2.286   6.141   1.883 -0.0428  0.1792  0.1629
 1533SOL    HW2 5864   2.357   6.189   1.841 -0.7259  2.2276  1.1916
 1533SOL    HW3 5865   2.328   6.092   1.953  0.7305 -1.0830 -1.1473
 1533SOL    MW4 5866   2.301   6.141   1.887  0.0608  0.5239 -0.2787
 1534SOL     OW 5867   2.744   3.637   6.409 -0.2267 -0.3847  0.0998
 1534SOL    HW2 5868   2.788   3.649   6.325  1.6252  0.7294  1.1539
 1534SOL    HW3 5869   2.707   3.723   6.431  1.6704  0.1363  1.6048
 1534SOL    MW4 5870   2.745   3.650   6.401 -0.5888 -0.3049  0.4546
 1535SOL     OW 5871   3.949   5.291   3.875 -0.1836 -0.5225  0.3754
 1535SOL    HW2 5872   3.893   5.234   3.823 -1.6513  0.7870  0.4424
 1535SOL    HW3 5873   3.937   5.378   3.837 -0.6125  0.3134  2.3058
 1535SOL    MW4 5874   3.940   5.295   3.863 -0.4081  0.1448 -0.0898
 1536SOL     OW 5875   4.820   4.713   1.409  0.2243  0.4198  0.4124
 1536SOL    HW2 5876   4.809   4.806   1.425  2.5317  0.4966  1.9649
 1536SOL    HW3 5877   4.909   4.704   1.374 -1.0498 -0.9178 -2.9918
 1536SOL    MW4 5878   4.830   4.724   1.407 -0.0077 -0.2354 -0.2738
 1537SOL     OW 5879   0.498   2.230   5.178  0.4089 -0.0724  0.2450
 1537SOL    HW2 5880   0.442   2.252   5.104  0.4831 -3.2826 -0.8826
 1537SOL    HW3 5881   0.459   2.278   5.252 -0.0731  2.6486 -1.6486
 1537SOL    MW4 5882   0.485   2.239   5.178  0.4175 -0.0530 -0.2413
 1538SOL     OW 5883   2.888   1.735   1.674  0.1291  0.0432 -0.0366
 1538SOL    HW2 5884   2.839   1.752   1.594  1.0645 -0.5076 -0.7562
 1538SOL    HW3 5885   2.968   1.691   1.644  2.2893  3.0485  0.7979
 1538SOL    MW4 5886   2.892   1.731   1.660 -0.4349  0.5972  0.0254
 1539SOL     OW 5887   4.175   2.802   1.494 -0.1254  0.4310  0.4633
 1539SOL    HW2 5888   4.101   2.747   1.520 -0.4388 -0.3124 -1.7885
 1539SOL    HW3 5889   4.136   2.889   1.484 -0.5847  0.1602 -0.1681
 1539SOL    MW4 5890   4.160   2.806   1.496  0.6465  0.4795 -0.5099
 1540SOL     OW 5891   0.089   2.903   2.709 -0.4113 -0.0386 -0.1981
 1540SOL    HW2 5892   0.061   2.872   2.796  0.3312 -1.1573 -0.3376
 1540SOL    HW3 5893   0.112   2.995   2.723  1.3715 -0.6454  1.2000
 1540SOL    MW4 5894   0.088   2.911   2.722  0.1093 -0.0625 -0.1523
 1541SOL     OW 5895   3.796   5.173   2.630 -0.0808  0.1098  0.0489
 1541SOL    HW2 5896   3.848   5.094   2.612  1.6640  0.9897  0.9877
 1541SOL    HW3 5897   3.827   5.237   2.566 -1.0373  0.2506 -0.2952
 1541SOL    MW4 5898   3.807   5.171   2.619  0.0991  0.2491 -0.5149
 1542SOL     OW 5899   4.882   5.647   5.215  0.0703 -0.2499 -0.1100
 1542SOL    HW2 5900   4.859   5.696   5.136  0.6395 -0.1751 -0.2360
 1542SOL    HW3 5901   4.798   5.614   5.248 -0.5437  1.9282  0.7338
 1542SOL    MW4 5902   4.868   5.649   5.209  0.2316  0.4433  0.1725
 1543SOL     OW 5903   2.748   1.147   2.804  0.4820  0.1950  0.3504
 1543SOL    HW2 5904   2.732   1.087   2.877 -2.8703  1.1412  0.5693
 1543SOL    HW3 5905   2.802   1.217   2.842 -0.3424  0.1587  1.6571
 1543SOL    MW4 5906   2.753   1.148   2.819 -0.0041 -0.2052  0.2746
 1544SOL     OW 5907   2.946   0.495   0.175  0.0687 -0.3011 -0.2768
 1544SOL    HW2 5908   2.867   0.458   0.215  0.6747 -1.5586 -0.1840
 1544SOL    HW3 5909   2.959   0.579   0.220 -2.9214  1.4994 -2.4132
 1544SOL    MW4 5910   2.937   0.501   0.186 -0.2545 -0.1942 -0.2844
 1545SOL     OW 5911   6.214   2.423   3.784  0.4073 -0.5736 -0.2078
 1545SOL    HW2 5912   6.309   2.425   3.775  0.5530  2.2932  1.1442
 1545SOL    HW3 5913   6.198   2.376   3.866  0.6991 -0.5305 -0.1265
 1545SOL    MW4 5914   6.224   2.417   3.794 -0.4002 -0.2446  0.6928
 1546SOL     OW 5915   4.580   0.457   0.107  0.0437  0.3492 -0.0931
 1546SOL    HW2 5916   4.494   0.488   0.134  0.0848 -0.7566  1.4291
 1546SOL    HW3 5917   4.640   0.493   0.172  0.5476 -0.0003 -0.3623
 1546SOL    MW4 5918   4.576   0.466   0.119  0.0253 -0.6423  0.1385
 1547SOL     OW 5919   2.514   5.630   2.279  0.2520 -0.1139 -0.0564
 1547SOL    HW2 5920   2.504   5.684   2.201  0.1569  1.3739  0.9448
 1547SOL    HW3 5921   2.551   5.548   2.246  2.5273  1.3193 -1.4185
 1547SOL    MW4 5922   2.518   5.626   2.264  0.1166 -0.2607 -0.3088
 1548SOL     OW 5923   4.733   2.870   3.329  0.3467  0.5624  0.2677
 1548SOL    HW2 5924   4.692   2.940   3.278  0.0570 -0.0593 -0.3658
 1548SOL    HW3 5925   4.827   2.882   3.315  0.2406 -1.0060 -2.3970
 1548SOL    MW4 5926   4.740   2.881   3.320 -0.4072 -0.1982 -0.0213
 1549SOL     OW 5927   3.346   4.781   6.249  0.5083  0.9923  0.2885
 1549SOL    HW2 5928   3.319   4.856   6.196 -0.1709 -0.2480 -1.2013
 1549SOL    HW3 5929   3.430   4.755   6.212  0.6258  0.8697  0.6389
 1549SOL    MW4 5930   3.354   4.788   6.237 -0.2813  0.0491 -0.0666
 1550SOL     OW 5931   5.287   4.176   5.510 -0.3458  0.0376 -0.0072
 1550SOL    HW2 5932   5.323   4.261   5.536 -0.1253 -0.6620  2.1922
 1550SOL    HW3 5933   5.239   4.146   5.586 -1.7934 -1.1236 -1.3118
 1550SOL    MW4 5934   5.285   4.184   5.523 -0.0872 -0.4366 -0.1127
 1551SOL     OW 5935   1.982   2.119   5.527 -0.1982  0.3107  0.0443
 1551SOL    HW2 5936   2.061   2.123   5.473  0.0717  1.2541  0.4840
 1551SOL    HW3 5937   1.931   2.047   5.490  0.2423  0.5687 -1.1047
 1551SOL    MW4 5938   1.986   2.110   5.515 -0.5683 -0.5735  0.2801
 1552SOL     OW 5939   3.881   1.812   1.782 -0.3787  0.0045  0.2350
 1552SOL    HW2 5940   3.856   1.722   1.800  0.4178 -0.1612  0.5627
 1552SOL    HW3 5941   3.892   1.852   1.869  0.1094  0.1689  0.1033
 1552SOL    MW4 5942   3.879   1.806   1.796  0.0663  0.1678 -0.1465
 1553SOL     OW 5943   3.281   1.363   3.515  0.2794 -0.0705 -0.4528
 1553SOL    HW2 5944   3.296   1.457   3.520  0.9822 -0.1812 -0.3439
 1553SOL    HW3 5945   3.311   1.329   3.600  2.9657 -0.7565 -1.5585
 1553SOL    MW4 5946   3.287   1.371   3.527  0.5603 -0.3491  0.3327
 1554SOL     OW 5947   5.534   3.681   3.453 -0.1029  0.5404  0.6089
 1554SOL    HW2 5948   5.491   3.606   3.496  0.7976 -1.0100 -1.0503
 1554SOL    HW3 5949   5.628   3.662   3.461  0.0978  0.5031 -1.4439
 1554SOL    MW4 5950   5.541   3.668   3.460 -0.2061  1.1538 -0.0076
 1555SOL     OW 5951   4.975   1.331   3.458 -0.2685 -0.2267 -0.0664
 1555SOL    HW2 5952   4.941   1.303   3.543  0.0612  0.0110  0.1464
 1555SOL    HW3 5953   5.067   1.307   3.460 -0.4274 -0.9197 -0.6604
 1555SOL    MW4 5954   4.983   1.324   3.469 -0.6662  0.0312  0.2267
 1556SOL     OW 5955   3.873   0.716   4.998 -0.5589 -0.3941 -0.2245
 1556SOL    HW2 5956   3.934   0.649   5.029  0.7815  0.6572 -0.5247
 1556SOL    HW3 5957   3.818   0.670   4.935  1.1472 -0.9605 -1.3756
 1556SOL    MW4 5958   3.874   0.701   4.994  0.1864  0.2036 -0.3564
 1557SOL     OW 5959   0.626   6.297   0.235  0.2771  0.5740  0.0874
 1557SOL    HW2 5960   0.686   6.224   0.219  1.0466  1.3071 -0.4076
 1557SOL    HW3 5961   0.617   6.300   0.330  1.5395  0.8611  0.2121
 1557SOL    MW4 5962   0.632   6.287   0.246  0.4186 -0.0428 -0.1428
 1558SOL     OW 5963   6.328   1.247   5.141 -0.9216 -0.3951 -0.0373
 1558SOL    HW2 5964   6.324   1.306   5.216  0.4469  0.6441 -0.7485
 1558SOL    HW3 5965   6.366   1.166   5.176 -1.7428 -0.4819  0.6947
 1558SOL    MW4 5966   6.332   1.244   5.155 -0.1317  0.3490  0.4656
 1559SOL     OW 5967   4.877   4.203   4.468 -0.0034 -0.3076 -0.6124
 1559SOL    HW2 5968   4.847   4.224   4.379  0.4552  0.4343 -0.5991
 1559SOL    HW3 5969   4.972   4.209   4.464  0.1183 -1.8076 -0.4373
 1559SOL    MW4 5970   4.885   4.207   4.456 -0.0805 -0.0343 -0.2765
 1560SOL     OW 5971   0.381   5.929   3.139  0.1644 -0.4749 -0.2399
 1560SOL    HW2 5972   0.421   5.842   3.130  0.6428 -0.2883  0.0595
 1560SOL    HW3 5973   0.290   5.916   3.113 -0.1646 -1.4007  1.2521
 1560SOL    MW4 5974   0.374   5.916   3.134  0.4420  0.0771  0.5784
 1561SOL     OW 5975   4.293   2.701   5.711  0.3411  0.1652 -0.1866
 1561SOL    HW2 5976   4.199   2.683   5.710 -0.0811  1.9660 -2.7936
 1561SOL    HW3 5977   4.331   2.635   5.652 -0.3832  3.2749 -4.6729
 1561SOL    MW4 5978   4.286   2.690   5.703 -0.0839 -0.1210 -0.4956
 1562SOL     OW 5979   2.195   0.841   0.072 -0.4139 -0.2409  0.4713
 1562SOL    HW2 5980   2.135   0.806   0.006  2.1541 -0.2335 -2.0428
 1562SOL    HW3 5981   2.236   0.763   0.110  1.3258 -0.2333 -1.2303
 1562SOL    MW4 5982   2.192   0.826   0.069 -0.3336 -0.3260 -0.1334
 1563SOL     OW 5983   1.052   1.492   2.317 -0.2671 -0.7957  0.6708
 1563SOL    HW2 5984   1.028   1.407   2.279  1.4084 -0.5315 -1.1360
 1563SOL    HW3 5985   1.148   1.491   2.317 -0.2278  0.9770  0.9212
 1563SOL    MW4 5986   1.062   1.481   2.312  0.4892 -0.3138 -0.1823
 1564SOL     OW 5987   1.658   3.872   2.606 -0.1656  0.1547  0.1171
 1564SOL    HW2 5988   1.576   3.900   2.566  0.5939 -1.4648 -2.9016
 1564SOL    HW3 5989   1.724   3.932   2.572  0.0052  1.6459  2.7670
 1564SOL    MW4 5990   1.656   3.884   2.596 -0.0215 -0.4709 -0.0228
 1565SOL     OW 5991   1.395   5.710   0.826  0.5576  0.1910  0.0792
 1565SOL    HW2 5992   1.472   5.762   0.848 -0.0016  0.1173  2.5362
 1565SOL    HW3 5993   1.380   5.657   0.904 -1.2465 -0.7297 -0.8388
 1565SOL    MW4 5994   1.403   5.709   0.839 -0.0646  0.3699 -0.5047
 1566SOL     OW 5995   1.445   0.339   5.806 -0.1190  0.6196  0.4940
 1566SOL    HW2 5996   1.445   0.245   5.826  1.7076  0.5458  0.3092
 1566SOL    HW3 5997   1.374   0.375   5.859 -0.4332 -0.7626  1.0546
 1566SOL    MW4 5998   1.435   0.331   5.815  0.0473 -0.5557  0.4232
 1567SOL     OW 5999   1.681   4.691   3.585  0.2169 -0.1751 -0.2918
 1567SOL    HW2 6000   1.621   4.619   3.566 -0.2502  0.4954 -1.4912
 1567SOL    HW3 6001   1.664   4.713   3.676 -0.1444 -1.1148 -0.1262
 1567SOL    MW4 6002   1.671   4.685   3.594 -0.3104  0.3058  0.3229
 1568SOL     OW 6003   0.029   3.513   1.686  0.5750  0.2521 -0.5557
 1568SOL    HW2 6004   0.112   3.548   1.652  0.2843  1.8868  0.2813
 1568SOL    HW3 6005   0.007   3.441   1.627  3.1686 -1.0077 -0.1365
 1568SOL    MW4 6006   0.037   3.509   1.674  0.1166  0.4602 -0.1810
 1569SOL     OW 6007   3.781   5.673   0.460 -0.3937 -0.0074  0.5345
 1569SOL    HW2 6008   3.800   5.579   0.456  1.4530  0.3443 -0.2361
 1569SOL    HW3 6009   3.816   5.701   0.544 -0.4214  0.1016  0.5094
 1569SOL    MW4 6010   3.788   5.664   0.470 -0.0510  0.2711 -0.1752
 1570SOL     OW 6011   1.764   4.799   3.174 -0.5067  0.0372  0.4872
 1570SOL    HW2 6012   1.832   4.840   3.121 -0.3875 -0.9564 -0.1587
 1570SOL    HW3 6013   1.744   4.863   3.242 -1.3412  1.7824 -1.2973
 1570SOL    MW4 6014   1.770   4.813   3.176  0.0210  0.0143  0.2613
 1571SOL     OW 6015   6.095   6.076   2.472  0.6719 -0.4002  0.3115
 1571SOL    HW2 6016   6.082   6.157   2.521  0.5484  0.1797 -0.6543
 1571SOL    HW3 6017   6.190   6.070   2.461  0.7119 -0.6174  0.7502
 1571SOL    MW4 6018   6.106   6.086   2.477  0.0368  0.0680  0.1555
 1572SOL     OW 6019   2.762   5.136   2.292  0.3254 -0.4338 -0.3117
 1572SOL    HW2 6020   2.833   5.119   2.230 -0.4054 -0.9131 -1.0429
 1572SOL    HW3 6021   2.699   5.066   2.277 -0.1290 -0.2383  0.5949
 1572SOL    MW4 6022   2.763   5.125   2.282 -0.3270 -0.3812 -0.4536
 1573SOL     OW 6023   2.283   1.912   0.902 -0.5980  0.2337  0.3274
 1573SOL    HW2 6024   2.282   1.858   0.980 -0.0569  0.6433  0.6198
 1573SOL    HW3 6025   2.246   1.996   0.930 -1.7107 -0.0621 -0.1920
 1573SOL    MW4 6026   2.278   1.916   0.916 -0.1215 -0.8632  0.2672
 1574SOL     OW 6027   3.340   4.184   4.955  0.0426 -0.1003  0.0527
 1574SOL    HW2 6028   3.325   4.269   4.914 -0.2661 -0.3518 -0.3627
 1574SOL    HW3 6029   3.426   4.157   4.923  0.4097  0.3166  0.6540
 1574SOL    MW4 6030   3.349   4.191   4.945 -0.4529 -0.4317 -0.8435
 1575SOL     OW 6031   2.742   3.035   4.151 -0.5893  0.4775  0.3731
 1575SOL    HW2 6032   2.767   3.067   4.238  0.5747 -1.5066  0.8344
 1575SOL    HW3 6033   2.737   2.940   4.161 -1.0260  0.2553 -1.5938
 1575SOL    MW4 6034   2.745   3.027   4.164 -0.0384 -0.4441  0.3522
 1576SOL     OW 6035   3.209   2.304   5.769  0.1369 -0.8087  0.4044
 1576SOL    HW2 6036   3.178   2.223   5.729  0.8255 -1.2100  0.6500
 1576SOL    HW3 6037   3.282   2.332   5.714 -0.2210 -0.2484  0.2124
 1576SOL    MW4 6038   3.215   2.297   5.757 -0.0065 -0.4482  0.2252
 1577SOL     OW 6039   3.705   2.456   6.422 -0.4845 -0.3196 -0.7391
 1577SOL    HW2 6040   3.738   2.405   6.348  1.5760 -0.2278  0.0688
 1577SOL    HW3 6041   3.660   2.530   6.381 -0.7213 -1.0751 -1.8995
 1577SOL    MW4 6042   3.703   2.459   6.407 -0.3497  0.0608 -0.4025
 1578SOL     OW 6043   0.204   3.116   0.915 -0.2259  0.0127 -0.7082
 1578SOL    HW2 6044   0.232   3.036   0.959 -0.2513 -0.9901 -2.4108
 1578SOL    HW3 6045   0.109   3.116   0.922 -0.2124 -0.0097 -0.5398
 1578SOL    MW4 6046   0.195   3.106   0.922 -0.3934 -0.0664 -0.0821
 1579SOL     OW 6047   2.597   3.224   4.043 -0.2191  0.2014  0.7752
 1579SOL    HW2 6048   2.638   3.146   4.080 -1.5641 -0.4403  0.9919
 1579SOL    HW3 6049   2.587   3.204   3.950  0.1307  0.4312  0.6886
 1579SOL    MW4 6050   2.601   3.211   4.036 -0.1497 -0.0263  0.3957
 1580SOL     OW 6051   4.982   0.957   0.893 -0.1044 -0.0319  0.0840
 1580SOL    HW2 6052   5.067   0.986   0.860 -0.3815  0.7287  0.0151
 1580SOL    HW3 6053   4.988   0.862   0.894  0.6089  0.0001 -0.2930
 1580SOL    MW4 6054   4.994   0.948   0.889 -0.1964  0.2986 -0.1864
 1581SOL     OW 6055   2.394   5.069   1.456 -0.0955  0.2020 -0.8960
 1581SOL    HW2 6056   2.298   5.070   1.462 -0.0243  0.7808  0.3530
 1581SOL    HW3 6057   2.415   5.141   1.397 -0.4304  0.0444 -1.2095
 1581SOL    MW4 6058   2.384   5.079   1.449  0.0533  0.0610 -0.8356
 1582SOL     OW 6059   5.181   3.642   3.326 -0.0697 -0.3581 -0.0935
 1582SOL    HW2 6060   5.238   3.688   3.264 -0.0392  1.1466  1.0005
 1582SOL    HW3 6061   5.101   3.623   3.275 -0.7196  2.3180 -0.2181
 1582SOL    MW4 6062   5.178   3.646   3.311 -0.8443  0.6842 -0.2566
 1583SOL     OW 6063   4.525   3.641   1.400  0.1374  0.5017  0.2661
 1583SOL    HW2 6064   4.512   3.552   1.432  1.8225  0.2684  0.3855
 1583SOL    HW3 6065   4.470   3.647   1.322 -2.3318  0.3727  1.8724
 1583SOL    MW4 6066   4.516   3.630   1.394  0.4085 -0.2419  0.0042
 1584SOL     OW 6067   0.065   6.364   1.436  0.2362  0.1504  0.7107
 1584SOL    HW2 6068   0.062   6.367   1.532 -0.0873  0.9396  0.6768
 1584SOL    HW3 6069  -0.022   6.334   1.410 -0.4248  2.0840  0.5877
 1584SOL    MW4 6070   0.053   6.360   1.446 -0.1663 -0.2125  0.0035
 1585SOL     OW 6071   0.416   3.062   5.424 -0.1889 -0.0093  0.6340
 1585SOL    HW2 6072   0.498   3.021   5.393 -0.1200  1.3792 -1.2350
 1585SOL    HW3 6073   0.368   3.081   5.343 -1.8348  0.2936  1.6531
 1585SOL    MW4 6074   0.421   3.059   5.409  0.3271  0.2251 -0.7370
 1586SOL     OW 6075   5.525   6.005   6.368  0.6452  0.3451  0.3476
 1586SOL    HW2 6076   5.502   6.089   6.328  2.0965  1.2631  1.3551
 1586SOL    HW3 6077   5.619   5.995   6.349  0.4125 -1.2341 -0.0648
 1586SOL    MW4 6078   5.535   6.015   6.360 -0.2760  0.6579  0.0516
 1587SOL     OW 6079   4.806   0.558   5.319 -0.0456 -0.5588  0.0073
 1587SOL    HW2 6080   4.835   0.628   5.261 -0.2331 -0.6318 -0.1764
 1587SOL    HW3 6081   4.843   0.478   5.281 -1.1662 -0.7613 -0.7153
 1587SOL    MW4 6082   4.815   0.557   5.306  0.0710 -0.2144  0.4736
 1588SOL     OW 6083   6.171   4.191   1.357 -0.1622  0.9939 -0.3537
 1588SOL    HW2 6084   6.210   4.178   1.271  1.5086  0.2691  0.4707
 1588SOL    HW3 6085   6.244   4.183   1.419 -1.4723  0.4154  1.2204
 1588SOL    MW4 6086   6.186   4.188   1.354  0.4611 -0.4592  0.4729
 1589SOL     OW 6087   4.354   2.711   5.999  0.1686  0.1104  0.1435
 1589SOL    HW2 6088   4.346   2.708   5.904  1.0662  0.2527  0.0575
 1589SOL    HW3 6089   4.294   2.642   6.030  1.1620 -1.1348 -0.6102
 1589SOL    MW4 6090   4.345   2.701   5.991  0.3487  0.2724 -0.5663
 1590SOL     OW 6091   0.326   1.965   2.795 -0.0253 -0.1632 -0.1132
 1590SOL    HW2 6092   0.335   2.040   2.855 -1.9959 -0.5895  0.7962
 1590SOL    HW3 6093   0.302   2.005   2.711  1.1409  0.3275 -0.2449
 1590SOL    MW4 6094   0.324   1.980   2.792 -0.3569  0.1821  0.4086
 1591SOL     OW 6095   0.968   1.912   3.756  0.3142 -0.0260  0.0581
 1591SOL    HW2 6096   0.880   1.914   3.795 -0.4839 -0.6801 -1.5896
 1591SOL    HW3 6097   1.018   1.975   3.807 -1.7096  2.0283 -0.3324
 1591SOL    MW4 6098   0.963   1.921   3.768 -0.0845 -0.5622 -0.2582
 1592SOL     OW 6099   1.231   4.290   0.975 -0.2365 -0.6743  0.0858
 1592SOL    HW2 6100   1.254   4.318   1.063  0.2664 -1.3649  0.1805
 1592SOL    HW3 6101   1.175   4.212   0.988 -1.3428  0.0494 -0.1776
 1592SOL    MW4 6102   1.226   4.283   0.988 -0.1860  0.3146  0.1323
 1593SOL     OW 6103   6.098   3.070   0.290 -0.2570  0.1092 -0.1774
 1593SOL    HW2 6104   6.017   3.120   0.301 -0.6339 -0.3937 -0.6136
 1593SOL    HW3 6105   6.072   2.979   0.305  0.3348 -0.0045  0.1859
 1593SOL    MW4 6106   6.084   3.065   0.294 -0.1307 -0.1681  0.1910
 1594SOL     OW 6107   0.362   2.578   2.177 -0.3358 -0.4173 -0.4672
 1594SOL    HW2 6108   0.403   2.597   2.262 -0.1192 -0.3339 -0.5905
 1594SOL    HW3 6109   0.435   2.576   2.115 -0.7321  2.8455 -1.2557
 1594SOL    MW4 6110   0.377   2.580   2.180 -0.4345 -0.3863  0.1181
 1595SOL     OW 6111   2.024   5.589   4.722 -0.9971  0.4682  0.7351
 1595SOL    HW2 6112   2.096   5.650   4.738 -0.0267 -0.5383  0.3050
 1595SOL    HW3 6113   1.989   5.614   4.637  0.3882 -0.4929 -0.1561
 1595SOL    MW4 6114   2.029   5.600   4.713  0.1915  0.2165 -0.3470
 1596SOL     OW 6115   5.045   5.331   5.677 -0.3379  0.3343 -0.4576
 1596SOL    HW2 6116   5.049   5.236   5.665  0.5403  0.4451 -1.0911
 1596SOL    HW3 6117   5.103   5.349   5.750 -1.4851  0.2635  0.5041
 1596SOL    MW4 6118   5.053   5.321   5.685 -0.4008  0.1570 -0.1156
 1597SOL     OW 6119   0.683   0.760   1.567 -0.0834  0.3363  0.2162
 1597SOL    HW2 6120   0.778   0.759   1.575 -0.1926 -1.2768  2.0876
 1597SOL    HW3 6121   0.667   0.763   1.473  1.8680 -1.1635 -0.2445
 1597SOL    MW4 6122   0.693   0.760   1.556 -0.5045 -0.3552  0.3453
 1598SOL     OW 6123   4.068   6.429   1.322 -0.1498  0.0265 -0.0080
 1598SOL    HW2 6124   4.034   6.514   1.350 -0.8161 -0.2648  0.0839
 1598SOL    HW3 6125   4.108   6.446   1.236  0.5422  0.6091  0.4153
 1598SOL    MW4 6126   4.069   6.442   1.314 -0.0659 -0.6218 -0.4807
 1599SOL     OW 6127   4.929   4.319   5.639 -0.2336  0.0298 -0.3529
 1599SOL    HW2 6128   4.856   4.300   5.699 -0.3192  0.5763 -0.2853
 1599SOL    HW3 6129   4.924   4.249   5.574  1.0818 -1.7711  1.3545
 1599SOL    MW4 6130   4.918   4.307   5.639  0.0922  0.0657  0.8064
 1600SOL     OW 6131   3.353   5.873   4.428  0.5909 -0.2647 -0.3940
 1600SOL    HW2 6132   3.340   5.963   4.458  0.8474 -1.0402  2.2439
 1600SOL    HW3 6133   3.448   5.863   4.421  0.5731 -0.4189 -0.4228
 1600SOL    MW4 6134   3.364   5.884   4.431 -0.1961  1.0176 -0.0477
 1601SOL     OW 6135   0.234   0.576   0.472 -0.2102  0.7449 -0.2416
 1601SOL    HW2 6136   0.327   0.599   0.468 -0.3621  1.1776 -2.2967
 1601SOL    HW3 6137   0.230   0.507   0.538  1.7622 -0.0462 -0.8527
 1601SOL    MW4 6138   0.246   0.570   0.480  0.6124 -0.0569 -0.0573
 1602SOL     OW 6139   5.186   0.523   2.908 -0.0077  0.6043  0.4249
 1602SOL    HW2 6140   5.134   0.490   2.836 -0.1417  1.6125  0.0433
 1602SOL    HW3 6141   5.163   0.616   2.914 -1.7774  0.0959  3.2749
 1602SOL    MW4 6142   5.176   0.531   2.899  0.5542  0.0225 -0.3552
 1603SOL     OW 6143   1.782   6.260   0.372  0.0898 -0.1842  0.3165
 1603SOL    HW2 6144   1.848   6.259   0.302  1.0476 -0.3537  1.1897
 1603SOL    HW3 6145   1.752   6.350   0.375  0.5817 -0.0111  0.1668
 1603SOL    MW4 6146   1.787   6.272   0.364 -0.0319  0.3086  0.3197
 1604SOL     OW 6147   1.401   5.794   4.322 -0.0512 -0.6553  0.3205
 1604SOL    HW2 6148   1.379   5.713   4.277  1.0680 -1.8242  1.7767
 1604SOL    HW3 6149   1.475   5.829   4.274 -2.3741  1.2544 -2.2196
 1604SOL    MW4 6150   1.408   5.788   4.310 -0.6169  0.3099 -0.3843
 1605SOL     OW 6151   2.237   5.790   4.371 -0.1446  0.2829  0.3675
 1605SOL    HW2 6152   2.195   5.841   4.301  0.9372  1.3241  0.4409
 1605SOL    HW3 6153   2.173   5.723   4.394 -1.2885  1.1134 -0.3061
 1605SOL    MW4 6154   2.223   5.788   4.365 -0.0711 -0.4309  0.2665
 1606SOL     OW 6155   3.297   4.501   0.690  0.2836 -0.0911 -0.0140
 1606SOL    HW2 6156   3.226   4.552   0.651 -2.7415 -2.8486  1.4599
 1606SOL    HW3 6157   3.353   4.567   0.731 -0.8864  2.2942 -1.9461
 1606SOL    MW4 6158   3.295   4.516   0.690  0.3015 -0.8560 -0.4678
 1607SOL     OW 6159   4.219   5.981   1.380  0.1297 -0.4654  0.3073
 1607SOL    HW2 6160   4.146   5.922   1.399 -1.1944  1.1165  0.3430
 1607SOL    HW3 6161   4.219   6.043   1.454  2.2318 -1.0843  0.8780
 1607SOL    MW4 6162   4.209   5.981   1.392 -0.2981 -0.1639 -0.2114
 1608SOL     OW 6163   0.689   5.031   2.455 -0.1878 -0.3382  0.2095
 1608SOL    HW2 6164   0.617   5.041   2.516  0.7217  1.2460  1.1133
 1608SOL    HW3 6165   0.682   4.942   2.422 -1.3886 -0.8498  1.7522
 1608SOL    MW4 6166   0.679   5.021   2.458 -0.5770  0.0005 -0.2052
 1609SOL     OW 6167   5.753   5.757   4.913  0.1308 -0.0491 -0.0863
 1609SOL    HW2 6168   5.671   5.726   4.874 -1.0304  1.4076  1.0743
 1609SOL    HW3 6169   5.763   5.705   4.992 -0.8090  1.1427  0.8565
 1609SOL    MW4 6170   5.744   5.746   4.918  0.0133 -0.2064  0.0004
 1610SOL     OW 6171   2.903   4.069   1.942 -0.4558  0.1108 -0.0338
 1610SOL    HW2 6172   2.881   4.056   2.034  0.4734 -0.7827  0.0939
 1610SOL    HW3 6173   2.820   4.064   1.896 -0.9431  0.6868  0.7669
 1610SOL    MW4 6174   2.889   4.066   1.948 -0.7709 -0.3543 -0.2479
 1611SOL     OW 6175   0.500   6.421   6.320  0.0229  0.2792 -0.3524
 1611SOL    HW2 6176   0.593   6.406   6.304 -0.0844 -1.8690  0.7392
 1611SOL    HW3 6177   0.495   6.451   6.411 -0.4221 -1.0109  0.0749
 1611SOL    MW4 6178   0.511   6.423   6.330  0.3928 -0.1337 -0.6520
 1612SOL     OW 6179   0.613   4.798   0.745  0.1218 -0.2412  0.3697
 1612SOL    HW2 6180   0.531   4.765   0.780  1.5524 -1.3359  3.0169
 1612SOL    HW3 6181   0.653   4.723   0.701  0.3511 -0.1529  0.4223
 1612SOL    MW4 6182   0.608   4.784   0.744  0.2000 -1.3800  0.3789
 1613SOL     OW 6183   3.063   3.167   0.192 -0.3945  0.2228 -0.3390
 1613SOL    HW2 6184   3.111   3.126   0.120  0.9312  1.4004 -0.1763
 1613SOL    HW3 6185   3.043   3.095   0.251  2.8808 -0.1430  0.5114
 1613SOL    MW4 6186   3.067   3.152   0.190 -0.1786 -0.2512 -0.6796
 1614SOL     OW 6187   6.136   3.008   6.140 -0.2164  0.4872 -0.3015
 1614SOL    HW2 6188   6.079   3.025   6.066 -0.1363  1.0032 -0.2470
 1614SOL    HW3 6189   6.219   3.050   6.117 -0.1765  0.6095  0.0570
 1614SOL    MW4 6190   6.139   3.016   6.128  0.1367  0.2812 -0.5967
 1615SOL     OW 6191   2.378   0.641   4.340 -0.2048  0.4051  0.3055
 1615SOL    HW2 6192   2.465   0.663   4.373 -0.2883 -0.8918  1.4677
 1615SOL    HW3 6193   2.370   0.692   4.259  2.6568 -1.3185 -1.2377
 1615SOL    MW4 6194   2.388   0.651   4.334  0.5120  0.1538  0.5796
 1616SOL     OW 6195   2.791   5.456   4.288 -0.6875  0.6906  0.2638
 1616SOL    HW2 6196   2.711   5.434   4.336 -0.2367  0.1893  0.7972
 1616SOL    HW3 6197   2.801   5.385   4.225  0.1041 -0.0034  1.1580
 1616SOL    MW4 6198   2.782   5.444   4.286  0.4858  0.6293 -0.0063
 1617SOL     OW 6199   3.219   3.152   4.179  0.1516 -0.1538 -0.3117
 1617SOL    HW2 6200   3.270   3.218   4.132  0.5840 -0.6603 -0.5664
 1617SOL    HW3 6201   3.133   3.153   4.137  0.0094  0.5513 -0.0226
 1617SOL    MW4 6202   3.215   3.161   4.167  0.4591  0.2561 -0.3426
 1618SOL     OW 6203   2.687   3.658   1.059 -0.4853  0.8017 -0.1039
 1618SOL    HW2 6204   2.746   3.718   1.105 -0.9909  0.0847  1.5638
 1618SOL    HW3 6205   2.721   3.655   0.970  0.3368  2.5349  0.1081
 1618SOL    MW4 6206   2.699   3.666   1.053 -0.0515  0.1092  0.4346
 1619SOL     OW 6207   2.912   0.382   2.795 -0.0998 -0.2337 -0.0929
 1619SOL    HW2 6208   2.984   0.362   2.736 -0.7178 -1.6404 -0.3979
 1619SOL    HW3 6209   2.953   0.387   2.882  0.9705  2.7496 -0.6352
 1619SOL    MW4 6210   2.927   0.380   2.799 -0.1076  0.4849 -0.1534
 1620SOL     OW 6211   3.966   6.088   3.337 -0.0553  0.2646 -0.9644
 1620SOL    HW2 6212   4.011   6.055   3.415  1.0486 -0.1131 -1.7485
 1620SOL    HW3 6213   3.884   6.040   3.335 -0.4878  0.8814  0.4256
 1620SOL    MW4 6214   3.961   6.077   3.347  0.2413 -0.2625 -0.6748
 1621SOL     OW 6215   1.067   5.418   6.182 -0.2442  0.2816 -0.1725
 1621SOL    HW2 6216   1.117   5.424   6.263 -1.6515 -1.5837  0.9027
 1621SOL    HW3 6217   0.975   5.425   6.209 -0.8738 -2.5006 -1.2743
 1621SOL    MW4 6218   1.061   5.420   6.196  0.4326  0.2011  0.3080
 1622SOL     OW 6219   0.094   0.697   1.178 -0.0777 -0.5227 -0.3981
 1622SOL    HW2 6220   0.103   0.780   1.224  1.1310  0.4047 -2.2035
 1622SOL    HW3 6221   0.060   0.721   1.091  0.0169 -1.9367 -0.8494
 1622SOL    MW4 6222   0.091   0.711   1.172 -0.1594 -0.0151 -0.4227
 1623SOL     OW 6223   2.825   3.389   1.085  0.0885 -0.1265 -0.0100
 1623SOL    HW2 6224   2.853   3.479   1.071 -1.9581  0.5626 -0.0513
 1623SOL    HW3 6225   2.729   3.393   1.081 -0.0452 -2.3537 -0.2649
 1623SOL    MW4 6226   2.816   3.402   1.083  0.0983 -0.0925 -0.4744
 1624SOL     OW 6227   5.920   4.707   1.946 -0.1511  0.1060  0.3922
 1624SOL    HW2 6228   5.910   4.611   1.946  0.3833  0.0419 -0.6980
 1624SOL    HW3 6229   5.846   4.738   1.998  0.5370 -0.9752  2.1219
 1624SOL    MW4 6230   5.909   4.698   1.953 -0.3349  0.5881 -0.1154
 1625SOL     OW 6231   5.416   4.571   4.286 -0.4696  0.2147  0.0128
 1625SOL    HW2 6232   5.367   4.608   4.213 -0.6652 -0.1462 -0.0402
 1625SOL    HW3 6233   5.359   4.502   4.321 -0.2564  0.1929  0.3251
 1625SOL    MW4 6234   5.402   4.567   4.281 -0.2649 -0.0773 -0.4399
 1626SOL     OW 6235   1.177   1.945   4.621  0.6119 -0.2239  0.3607
 1626SOL    HW2 6236   1.185   1.945   4.716  0.2822  0.6291  0.3932
 1626SOL    HW3 6237   1.260   1.983   4.590  0.2626  0.5673  0.3634
 1626SOL    MW4 6238   1.189   1.950   4.629  0.1910  0.4340 -0.0853
 1627SOL     OW 6239   4.178   6.102   5.379  0.1391 -0.1993 -0.5426
 1627SOL    HW2 6240   4.207   6.182   5.423 -0.8895 -0.5307  0.8161
 1627SOL    HW3 6241   4.254   6.044   5.381  0.3812  0.1281  0.0120
 1627SOL    MW4 6242   4.191   6.105   5.385 -0.8032  0.1782 -0.0765
 1628SOL     OW 6243   5.706   2.620   0.996  0.1040  0.0409  0.4320
 1628SOL    HW2 6244   5.683   2.560   0.926  2.4625 -2.6090  1.7263
 1628SOL    HW3 6245   5.747   2.694   0.952  0.4593 -1.0121 -1.0843
 1628SOL    MW4 6246   5.709   2.622   0.981 -0.7724 -0.1055 -0.1758
 1629SOL     OW 6247   2.756   4.162   6.303 -0.3224 -0.2712 -0.2210
 1629SOL    HW2 6248   2.727   4.089   6.358  1.0006  0.4007  1.4646
 1629SOL    HW3 6249   2.821   4.124   6.244 -1.0034 -0.8038 -0.6351
 1629SOL    MW4 6250   2.761   4.148   6.302 -0.5333  0.3239  0.1531
 1630SOL     OW 6251   0.173   5.354   5.687  0.0819  0.2749  0.3896
 1630SOL    HW2 6252   0.165   5.260   5.673 -1.1317  0.6839 -2.3183
 1630SOL    HW3 6253   0.264   5.367   5.713 -0.1328 -1.7528  2.3894
 1630SOL    MW4 6254   0.184   5.343   5.688  0.7733 -0.4588  0.6118
 1631SOL     OW 6255   1.348   4.322   3.203  0.6893 -0.1609 -0.1573
 1631SOL    HW2 6256   1.393   4.242   3.230  2.5724 -0.1334 -2.8053
 1631SOL    HW3 6257   1.419   4.382   3.179 -0.7062  1.1708 -1.1424
 1631SOL    MW4 6258   1.363   4.319   3.203  0.4641 -0.3390 -0.7784
 1632SOL     OW 6259   0.235   1.077   1.575 -0.0685  0.0258  0.0319
 1632SOL    HW2 6260   0.221   1.169   1.597 -1.9638 -0.1480 -0.2035
 1632SOL    HW3 6261   0.167   1.031   1.626  0.2274 -1.1277 -0.5943
 1632SOL    MW4 6262   0.224   1.083   1.585 -0.0944 -0.1055 -0.2985
 1633SOL     OW 6263   4.728   0.174   6.299  0.4024  0.0670  0.4285
 1633SOL    HW2 6264   4.735   0.087   6.258 -0.2503 -0.6307  1.7334
 1633SOL    HW3 6265   4.815   0.190   6.335  0.5496 -0.0153  0.1123
 1633SOL    MW4 6266   4.740   0.165   6.298  0.4533 -0.1504 -0.3898
 1634SOL     OW 6267   2.901   6.271   5.215  0.3747 -0.2757  0.1495
 1634SOL    HW2 6268   2.832   6.233   5.162 -0.8223 -1.1546  2.2413
 1634SOL    HW3 6269   2.982   6.236   5.177 -0.4519 -1.3715 -0.6732
 1634SOL    MW4 6270   2.903   6.262   5.203 -0.2185  0.7485  0.3578
 1635SOL     OW 6271   3.065   1.208   3.441 -0.0930 -0.6881 -0.2014
 1635SOL    HW2 6272   3.006   1.277   3.411  2.1790  1.2836 -0.4696
 1635SOL    HW3 6273   3.141   1.255   3.477  0.2019 -3.0259  2.6304
 1635SOL    MW4 6274   3.068   1.223   3.442  0.3166  0.5965  0.2190
 1636SOL     OW 6275   0.554   0.105   0.934  0.3693  0.1765  0.4116
 1636SOL    HW2 6276   0.483   0.042   0.926  0.2904  0.3267 -0.1453
 1636SOL    HW3 6277   0.619   0.062   0.989  0.5886 -0.6345 -0.4678
 1636SOL    MW4 6278   0.553   0.091   0.940 -0.2687  1.0967  0.7951
 1637SOL     OW 6279   3.757   1.679   4.980 -0.6234  0.1764 -0.6745
 1637SOL    HW2 6280   3.677   1.634   4.953 -1.4259 -1.1058  3.2148
 1637SOL    HW3 6281   3.729   1.740   5.048  1.6063  0.0482  0.4666
 1637SOL    MW4 6282   3.743   1.681   4.985  0.0392  0.0424 -0.2955
 1638SOL     OW 6283   1.628   0.749   3.269 -0.0381 -0.1329  0.0392
 1638SOL    HW2 6284   1.716   0.716   3.284  1.1920  0.7237 -4.0031
 1638SOL    HW3 6285   1.613   0.814   3.338  3.2595  1.0115 -0.1709
 1638SOL    MW4 6286   1.637   0.753   3.280  0.0760 -0.4465 -0.2986
 1639SOL     OW 6287   5.689   3.563   5.194  0.1131  0.1520 -0.3773
 1639SOL    HW2 6288   5.745   3.600   5.126  1.6433 -2.1481 -0.4957
 1639SOL    HW3 6289   5.653   3.483   5.154 -1.4861  0.4016  0.4792
 1639SOL    MW4 6290   5.692   3.557   5.180 -0.0169 -0.0513 -0.1640
 1640SOL     OW 6291   3.442   2.977   0.416 -0.4201 -0.1602  0.1098
 1640SOL    HW2 6292   3.503   2.960   0.487 -0.7320  0.2295  0.4794
 1640SOL    HW3 6293   3.372   3.029   0.456 -1.0551 -0.6937 -0.2777
 1640SOL    MW4 6294   3.441   2.982   0.431 -0.2350  0.5984  0.0634
 1641SOL     OW 6295   2.640   1.211   5.651 -0.4445 -0.5585 -0.1776
 1641SOL    HW2 6296   2.602   1.183   5.568  0.5075 -2.7513  0.0564
 1641SOL    HW3 6297   2.703   1.280   5.627 -0.7366 -0.6168 -1.1556
 1641SOL    MW4 6298   2.644   1.217   5.637 -0.7407 -0.1710  0.4538
 1642SOL     OW 6299   1.209   2.714   0.857  0.0762  0.4058  0.1097
 1642SOL    HW2 6300   1.187   2.656   0.785 -3.9649  0.1540  1.3391
 1642SOL    HW3 6301   1.178   2.800   0.829  0.2459  0.6960  0.7778
 1642SOL    MW4 6302   1.202   2.718   0.844 -0.0199 -0.1895 -0.0728
 1643SOL     OW 6303   3.640   5.087   0.406  0.0725 -0.1100  0.4662
 1643SOL    HW2 6304   3.732   5.075   0.382  0.3605  0.2689  1.3280
 1643SOL    HW3 6305   3.622   5.179   0.385 -0.2940 -0.3444 -0.2704
 1643SOL    MW4 6306   3.650   5.098   0.400 -0.2116  0.0945  0.6328
 1644SOL     OW 6307   2.235   2.379   4.943  0.1210 -0.4605  0.2344
 1644SOL    HW2 6308   2.328   2.399   4.941 -0.0933  0.5460 -0.7568
 1644SOL    HW3 6309   2.222   2.318   4.871  0.1060 -1.0434  0.7295
 1644SOL    MW4 6310   2.245   2.374   4.933 -0.0170  0.5528 -0.0243
 1645SOL     OW 6311   3.735   5.128   4.790 -0.5297 -0.3689  0.4443
 1645SOL    HW2 6312   3.680   5.199   4.824 -1.5431 -1.5572  1.4117
 1645SOL    HW3 6313   3.808   5.123   4.852 -0.8142 -0.5888  0.7699
 1645SOL    MW4 6314   3.738   5.136   4.803  0.3245 -0.6032 -0.1506
 1646SOL     OW 6315   0.307   3.532   2.412 -0.2548  0.2169 -0.2344
 1646SOL    HW2 6316   0.289   3.623   2.437 -1.6234 -0.1129  0.0579
 1646SOL    HW3 6317   0.402   3.528   2.403 -0.1206  1.5151  0.3773
 1646SOL    MW4 6318   0.317   3.544   2.414  0.0353  0.3117 -0.1980
 1647SOL     OW 6319   3.613   5.922   4.095 -0.1334  0.1860 -0.0932
 1647SOL    HW2 6320   3.639   5.902   4.006  0.9687  0.6663  0.1044
 1647SOL    HW3 6321   3.518   5.905   4.097 -0.6794  2.4717 -2.0068
 1647SOL    MW4 6322   3.604   5.917   4.084 -0.3063 -0.0684 -0.4596
 1648SOL     OW 6323   3.158   5.515   4.153 -0.4472  0.3627  0.6402
 1648SOL    HW2 6324   3.130   5.516   4.244 -0.7164  0.2349  0.5627
 1648SOL    HW3 6325   3.076   5.528   4.103 -0.4531 -0.5831  0.3863
 1648SOL    MW4 6326   3.143   5.517   4.158 -0.0542  0.4447  0.4394
 1649SOL     OW 6327   5.412   3.180   0.430  0.0587 -0.4130  0.1448
 1649SOL    HW2 6328   5.360   3.132   0.495 -1.8345  1.4873  0.1290
 1649SOL    HW3 6329   5.443   3.257   0.477 -0.7170  0.6116 -0.9675
 1649SOL    MW4 6330   5.409   3.184   0.445  0.0283  0.1602  0.6037
 1650SOL     OW 6331   4.767   6.078   3.088 -0.4560 -0.5950 -0.0140
 1650SOL    HW2 6332   4.757   6.126   3.170 -2.2209  1.1437 -1.1618
 1650SOL    HW3 6333   4.773   5.986   3.114 -0.1200 -0.0268  2.0843
 1650SOL    MW4 6334   4.767   6.072   3.102  1.0194  0.2907 -0.5858
 1651SOL     OW 6335   3.877   3.153   5.765 -0.1867 -0.5571  0.7063
 1651SOL    HW2 6336   3.835   3.212   5.703 -0.2526 -1.3371 -0.0191
 1651SOL    HW3 6337   3.955   3.200   5.795  0.0652 -0.3166 -0.2911
 1651SOL    MW4 6338   3.882   3.167   5.761  0.0083 -0.3155 -0.0176
 1652SOL     OW 6339   2.592   4.436   2.830  0.4463 -0.1889  0.3569
 1652SOL    HW2 6340   2.509   4.427   2.876  0.1549 -1.6103 -0.3766
 1652SOL    HW3 6341   2.606   4.530   2.824 -0.3548  0.0470  1.8118
 1652SOL    MW4 6342   2.583   4.447   2.835  1.1729 -0.2586  0.8912
 1653SOL     OW 6343   4.480   5.610   0.510  0.0504 -0.5476 -0.0434
 1653SOL    HW2 6344   4.536   5.536   0.533 -0.9930 -1.0914  0.8225
 1653SOL    HW3 6345   4.502   5.629   0.419  1.5731 -0.7880  0.2590
 1653SOL    MW4 6346   4.490   5.603   0.501  0.1097 -0.1673  0.1290
 1654SOL     OW 6347   0.126   6.080   0.060 -0.0886  0.3189 -0.0729
 1654SOL    HW2 6348   0.098   6.018  -0.007  1.0902  1.1194 -1.3547
 1654SOL    HW3 6349   0.072   6.157   0.046 -1.1588 -0.1652  1.1572
 1654SOL    MW4 6350   0.115   6.082   0.050 -0.3732  0.3466 -0.2321
 1655SOL     OW 6351   5.114   4.653   2.228 -0.5654  0.1485  0.0509
 1655SOL    HW2 6352   5.147   4.563   2.227 -1.9544 -0.4058  1.0382
 1655SOL    HW3 6353   5.148   4.690   2.309 -1.3209 -0.0189  0.4475
 1655SOL    MW4 6354   5.123   4.646   2.239  0.2732 -0.1673 -0.2490
 1656SOL     OW 6355   5.368   3.486   2.594 -0.2309  0.7098 -0.2175
 1656SOL    HW2 6356   5.379   3.577   2.623 -2.8467  0.3408  2.4382
 1656SOL    HW3 6357   5.273   3.474   2.591 -0.0512 -2.5610  2.0643
 1656SOL    MW4 6358   5.357   3.497   2.598  0.2183  0.2156 -0.1831
 1657SOL     OW 6359   2.287   5.934   1.114  0.0908 -0.2667  0.2993
 1657SOL    HW2 6360   2.275   5.883   1.194  1.7126 -1.5104 -0.2095
 1657SOL    HW3 6361   2.212   5.910   1.060 -1.2962  0.9527  1.5586
 1657SOL    MW4 6362   2.275   5.924   1.118  0.2098 -0.2545 -0.3884
 1658SOL     OW 6363   0.696   1.140   3.098  0.5582  0.2192  0.4453
 1658SOL    HW2 6364   0.669   1.231   3.102  0.3536  0.1885 -0.1815
 1658SOL    HW3 6365   0.784   1.140   3.137  0.1400  0.4969  1.4366
 1658SOL    MW4 6366   0.704   1.152   3.104  0.1761  0.1528  0.1377
 1659SOL     OW 6367   4.318   5.807   4.159 -0.6452 -0.3964 -0.2671
 1659SOL    HW2 6368   4.346   5.859   4.234  2.0234  0.3591 -1.6988
 1659SOL    HW3 6369   4.273   5.869   4.101  0.4220 -0.1776 -0.8791
 1659SOL    MW4 6370   4.316   5.822   4.161  0.0886 -0.1833 -0.1925
 1660SOL     OW 6371   1.128   3.057   1.374  0.5734 -0.0996 -0.1217
 1660SOL    HW2 6372   1.103   3.135   1.325  2.8260  0.4134 -0.5824
 1660SOL    HW3 6373   1.045   3.014   1.396 -0.6102  1.0516 -2.0808
 1660SOL    MW4 6374   1.114   3.061   1.371 -0.1818  0.2574  0.2314
 1661SOL     OW 6375   0.400   5.280   2.873 -0.1355 -0.1142  0.1084
 1661SOL    HW2 6376   0.387   5.198   2.919  0.3328  0.7975  1.9571
 1661SOL    HW3 6377   0.493   5.283   2.853  0.0048  0.3392  0.8093
 1661SOL    MW4 6378   0.410   5.270   2.876 -0.6913  0.2614 -0.2500
 1662SOL     OW 6379   2.220   0.054   0.278 -0.4311  0.2396  0.4965
 1662SOL    HW2 6380   2.261   0.100   0.205  0.1577 -1.8318 -0.5650
 1662SOL    HW3 6381   2.287   0.054   0.347  0.6876 -1.3604 -0.5033
 1662SOL    MW4 6382   2.234   0.060   0.277 -0.1071  0.4170  0.5966
 1663SOL     OW 6383   2.294   3.597   3.276  0.3967  0.3604 -0.1129
 1663SOL    HW2 6384   2.320   3.645   3.197 -1.1939  1.1121 -0.2277
 1663SOL    HW3 6385   2.338   3.513   3.268 -1.5000 -0.5304 -3.0594
 1663SOL    MW4 6386   2.303   3.592   3.264  0.3297  0.8676 -0.2002
 1664SOL     OW 6387   0.769   2.028   1.737  0.2052 -0.2025  0.2341
 1664SOL    HW2 6388   0.749   2.114   1.775 -0.2330  0.1238 -0.7301
 1664SOL    HW3 6389   0.685   1.983   1.733  0.2933 -0.3362 -0.1103
 1664SOL    MW4 6390   0.756   2.033   1.742  0.0000  0.6802  0.0623
 1665SOL     OW 6391   0.307   5.079   1.399 -0.4755  0.5614 -0.4993
 1665SOL    HW2 6392   0.270   5.121   1.321 -2.1651 -0.1463 -0.1343
 1665SOL    HW3 6393   0.366   5.012   1.364 -1.6040 -0.0979 -1.2133
 1665SOL    MW4 6394   0.310   5.076   1.384  0.5475 -0.3766  0.2135
 1666SOL     OW 6395   6.196   4.331   2.451  0.3802  0.5162 -0.4671
 1666SOL    HW2 6396   6.129   4.335   2.382  1.3437 -1.1137 -1.5823
 1666SOL    HW3 6397   6.182   4.246   2.493  1.5487  0.2713 -0.5310
 1666SOL    MW4 6398   6.185   4.320   2.447 -0.5566 -0.3020 -0.4082
 1667SOL     OW 6399   0.123   3.234   0.512 -0.3315 -0.0949 -0.0897
 1667SOL    HW2 6400   0.030   3.209   0.507  0.1743 -2.0537 -0.6952
 1667SOL    HW3 6401   0.166   3.159   0.552  1.0761  0.5849 -0.2643
 1667SOL    MW4 6402   0.116   3.221   0.516  0.2283 -0.3208 -0.2391
 1668SOL     OW 6403   3.989   1.019   4.217 -0.0526  0.1353  0.1270
 1668SOL    HW2 6404   3.932   0.957   4.262 -0.9395  0.3070 -0.7165
 1668SOL    HW3 6405   3.930   1.067   4.158  1.1518 -0.4871 -1.6536
 1668SOL    MW4 6406   3.974   1.017   4.215  0.0106  0.0671 -0.2603
 1669SOL     OW 6407   1.032   4.353   2.061  0.0503  0.2746 -0.7745
 1669SOL    HW2 6408   1.089   4.361   2.138  0.5920 -0.3794 -1.0904
 1669SOL    HW3 6409   0.945   4.377   2.093  0.5610  1.6524 -0.3739
 1669SOL    MW4 6410   1.028   4.357   2.075 -0.4612 -0.1650  0.5889
 1670SOL     OW 6411   1.273   4.836   1.595 -0.0107  0.0377  0.2718
 1670SOL    HW2 6412   1.320   4.910   1.557  1.0564 -0.8207 -0.1494
 1670SOL    HW3 6413   1.333   4.762   1.584 -0.8049 -0.7689  1.2148
 1670SOL    MW4 6414   1.287   4.836   1.588 -0.9604 -0.2719  0.1741
 1671SOL     OW 6415   4.198   2.607   0.247 -0.0355  0.5707  0.0553
 1671SOL    HW2 6416   4.146   2.527   0.242 -1.7045  1.3345  2.5370
 1671SOL    HW3 6417   4.151   2.670   0.192 -0.0745  0.4520 -0.0443
 1671SOL    MW4 6418   4.185   2.605   0.239 -0.2697  0.3459 -0.3721
 1672SOL     OW 6419   6.267   1.387   0.564 -0.4416 -0.0018  0.3410
 1672SOL    HW2 6420   6.248   1.399   0.657 -1.3733 -2.1559  0.4896
 1672SOL    HW3 6421   6.316   1.304   0.560 -0.4704  0.0272 -1.0896
 1672SOL    MW4 6422   6.271   1.377   0.575  0.0285 -0.2075 -1.0160
 1673SOL     OW 6423   3.446   1.526   1.534  0.2865  0.2177  0.0641
 1673SOL    HW2 6424   3.534   1.490   1.524  0.1707 -0.2628  0.6802
 1673SOL    HW3 6425   3.441   1.553   1.626  0.1997  1.3749 -0.2608
 1673SOL    MW4 6426   3.457   1.525   1.545  0.4421 -0.1444  0.2720
 1674SOL     OW 6427   4.973   5.660   3.264  0.2075  0.1806  0.5089
 1674SOL    HW2 6428   4.934   5.575   3.281  0.9146  0.0402  1.5156
 1674SOL    HW3 6429   4.907   5.707   3.212  0.3617 -1.4305 -1.2371
 1674SOL    MW4 6430   4.959   5.655   3.259  0.7506 -0.4929 -0.5674
 1675SOL     OW 6431   4.957   5.489   6.290 -0.4808  0.1325 -0.6638
 1675SOL    HW2 6432   5.005   5.477   6.372  1.9880 -3.6973 -2.3788
 1675SOL    HW3 6433   4.992   5.570   6.253 -0.2207  0.8855  1.1555
 1675SOL    MW4 6434   4.968   5.498   6.296  0.3219 -0.4975  0.2391
 1676SOL     OW 6435   0.162   2.358   6.070  0.3185 -0.0861 -0.0818
 1676SOL    HW2 6436   0.179   2.306   6.149 -1.1708 -0.9640 -0.2842
 1676SOL    HW3 6437   0.105   2.429   6.101  0.6083  0.1880 -0.1799
 1676SOL    MW4 6438   0.157   2.360   6.085  0.4102 -0.1075  0.4913
 1677SOL     OW 6439   5.901   0.714   0.073 -0.2202 -0.5226  0.1585
 1677SOL    HW2 6440   5.951   0.646   0.118 -1.1115 -1.2345  0.0966
 1677SOL    HW3 6441   5.822   0.670   0.042 -0.8447  0.5537  0.1581
 1677SOL    MW4 6442   5.897   0.699   0.075  0.2255  0.3671  0.2653
 1678SOL     OW 6443   0.156   4.532   1.943 -0.1072  0.3652  0.0286
 1678SOL    HW2 6444   0.066   4.536   1.912 -0.4309  2.6673  1.0550
 1678SOL    HW3 6445   0.207   4.572   1.872  0.2296 -1.4424 -0.7951
 1678SOL    MW4 6446   0.151   4.538   1.930 -0.3302 -0.1097 -0.1289
 1679SOL     OW 6447   0.607   5.416   2.114 -0.1995  0.1173 -0.2436
 1679SOL    HW2 6448   0.633   5.325   2.100  0.9222  0.5716 -1.3368
 1679SOL    HW3 6449   0.688   5.459   2.142 -0.5999  0.8881 -0.2414
 1679SOL    MW4 6450   0.621   5.410   2.116 -0.6986 -0.3534  0.2610
 1680SOL     OW 6451   6.257   1.787   4.764 -0.3482  0.1303  0.0917
 1680SOL    HW2 6452   6.345   1.820   4.747 -0.6607  0.8621 -0.1215
 1680SOL    HW3 6453   6.208   1.863   4.797 -0.8898 -0.2725  0.2345
 1680SOL    MW4 6454   6.262   1.801   4.766  0.5832  0.5645 -0.1703
 1681SOL     OW 6455   5.735   5.056   5.353  0.2858  0.1744 -0.4433
 1681SOL    HW2 6456   5.653   5.106   5.360 -0.3146 -0.8544  0.0864
 1681SOL    HW3 6457   5.707   4.966   5.339  1.3265 -0.2562  0.1222
 1681SOL    MW4 6458   5.720   5.051   5.352  0.3171 -0.2050 -0.2687
 1682SOL     OW 6459   2.124   6.385   1.827  0.3157  0.1817 -0.5949
 1682SOL    HW2 6460   2.193   6.367   1.763 -0.4838 -0.9303 -1.1807
 1682SOL    HW3 6461   2.089   6.299   1.848 -0.0298  0.6178  0.6925
 1682SOL    MW4 6462   2.129   6.371   1.821  0.0022  0.0005  0.2542
 1683SOL     OW 6463   2.255   5.028   5.994  0.5971 -0.5734  0.5338
 1683SOL    HW2 6464   2.213   5.018   6.079 -1.2889  0.2121 -0.2508
 1683SOL    HW3 6465   2.296   4.943   5.978 -0.2241 -1.2000  1.6122
 1683SOL    MW4 6466   2.255   5.015   6.003  0.4020  0.3872 -0.1263
 1684SOL     OW 6467   4.239   5.263   3.921  0.3044 -0.6902 -0.4247
 1684SOL    HW2 6468   4.248   5.354   3.951 -0.0586 -1.2552  1.5273
 1684SOL    HW3 6469   4.144   5.251   3.910  0.1702 -1.3307  1.1401
 1684SOL    MW4 6470   4.227   5.274   3.924 -0.3487 -0.0861  0.3609
 1685SOL     OW 6471   6.392   6.352   0.573 -0.3517  0.3453  0.2151
 1685SOL    HW2 6472   6.403   6.273   0.625 -1.0328 -0.1601 -0.4046
 1685SOL    HW3 6473   6.359   6.322   0.489  0.9710  1.1202 -0.6264
 1685SOL    MW4 6474   6.389   6.338   0.569  0.1878  0.1579  0.0147
 1686SOL     OW 6475   1.071   3.143   6.134  0.3396  0.1449 -0.1740
 1686SOL    HW2 6476   0.986   3.121   6.095  0.2695  1.7087 -0.9936
 1686SOL    HW3 6477   1.062   3.235   6.159  1.8830  0.4077 -0.5142
 1686SOL    MW4 6478   1.059   3.152   6.133  0.1167  0.1328 -1.0005
 1687SOL     OW 6479   4.738   5.273   4.855 -0.0836 -0.2227  0.0956
 1687SOL    HW2 6480   4.693   5.219   4.921 -1.0701  0.9675  0.4385
 1687SOL    HW3 6481   4.790   5.334   4.907  1.2286 -0.9819 -0.2954
 1687SOL    MW4 6482   4.739   5.274   4.871 -0.3755 -0.0303  0.2618
 1688SOL     OW 6483   2.656   2.513   4.435  0.1278  0.2020  0.1488
 1688SOL    HW2 6484   2.638   2.431   4.390 -0.9044 -0.3377  1.4718
 1688SOL    HW3 6485   2.635   2.496   4.527  0.4323  1.7788  0.5527
 1688SOL    MW4 6486   2.651   2.500   4.441  0.3163 -0.0806 -0.1332
 1689SOL     OW 6487   0.513   0.873   4.600 -0.3671 -1.3411 -0.4109
 1689SOL    HW2 6488   0.510   0.787   4.641 -1.1398 -1.3352 -0.4535
 1689SOL    HW3 6489   0.439   0.874   4.539  0.5159 -1.1935 -1.5164
 1689SOL    MW4 6490   0.503   0.862   4.598  1.2045  0.5399  0.0963
 1690SOL     OW 6491   5.229   0.285   3.689  0.2591 -0.1825  0.1779
 1690SOL    HW2 6492   5.291   0.269   3.617 -0.0480 -0.5780 -0.0033
 1690SOL    HW3 6493   5.179   0.362   3.661  0.8778  0.3307  0.4678
 1690SOL    MW4 6494   5.231   0.293   3.676 -0.1069  0.0937  0.0146
 1691SOL     OW 6495   0.017   1.723   1.662 -0.3212  0.0999  0.0141
 1691SOL    HW2 6496   0.021   1.668   1.584 -0.6107  0.8724 -0.5633
 1691SOL    HW3 6497   0.108   1.734   1.688 -0.0811  1.0715 -1.1277
 1691SOL    MW4 6498   0.029   1.718   1.655 -0.1870 -0.0881  0.4733
 1692SOL     OW 6499   2.442   0.386   2.308 -0.2594  0.4229 -0.0746
 1692SOL    HW2 6500   2.361   0.425   2.341 -1.3501 -1.6105 -0.2009
 1692SOL    HW3 6501   2.458   0.430   2.224 -1.1365  0.9518  0.0270
 1692SOL    MW4 6502   2.434   0.397   2.301 -0.0593 -0.1041 -0.2950
 1693SOL     OW 6503   1.657   2.114   5.155  0.5573  0.0887 -0.3528
 1693SOL    HW2 6504   1.677   2.167   5.232 -1.7013 -1.1390  1.2239
 1693SOL    HW3 6505   1.562   2.108   5.155  0.5911 -1.3225 -2.3263
 1693SOL    MW4 6506   1.647   2.120   5.165  0.0474 -0.0023  0.5153
 1694SOL     OW 6507   5.570   1.865   1.045 -0.1266 -0.1120 -0.6684
 1694SOL    HW2 6508   5.604   1.843   1.132  0.1312  0.5091 -0.6142
 1694SOL    HW3 6509   5.487   1.908   1.062  0.2385  0.6160 -0.6972
 1694SOL    MW4 6510   5.564   1.867   1.059 -0.4363  0.3694  0.1057
 1695SOL     OW 6511   3.552   5.841   0.216 -0.4614 -0.4271 -0.1097
 1695SOL    HW2 6512   3.540   5.802   0.302  0.8609 -0.8095 -0.0747
 1695SOL    HW3 6513   3.507   5.781   0.156 -0.5470 -0.6783  0.2014
 1695SOL    MW4 6514   3.544   5.828   0.219  0.3072 -0.7408 -0.0735
 1696SOL     OW 6515   2.005   5.565   3.542 -0.0223 -0.0541 -0.2723
 1696SOL    HW2 6516   1.922   5.517   3.542 -0.2697  0.3716  0.2655
 1696SOL    HW3 6517   2.072   5.498   3.554 -0.4323 -0.1632  1.6558
 1696SOL    MW4 6518   2.003   5.550   3.543 -0.1686  0.1643 -0.1588
 1697SOL     OW 6519   5.685   4.627   0.296 -0.7310 -0.4841  0.3099
 1697SOL    HW2 6520   5.682   4.625   0.200 -1.2790  1.0706  0.2667
 1697SOL    HW3 6521   5.735   4.549   0.320  1.4636  0.2931 -1.3489
 1697SOL    MW4 6522   5.691   4.617   0.286  0.0923  0.1662  0.0885
 1698SOL     OW 6523   2.932   5.238   5.388 -0.0528 -0.4365  0.0839
 1698SOL    HW2 6524   3.007   5.297   5.392  0.0321 -0.3700 -1.6731
 1698SOL    HW3 6525   2.970   5.151   5.378 -0.1877 -0.3939 -0.8991
 1698SOL    MW4 6526   2.947   5.234   5.387  0.0694 -0.2336 -0.2760
 1699SOL     OW 6527   4.734   6.033   3.395  0.2277  0.1452 -0.7732
 1699SOL    HW2 6528   4.777   5.948   3.389  0.6208  0.3429 -0.7685
 1699SOL    HW3 6529   4.732   6.052   3.489  1.1214  0.6354 -0.8421
 1699SOL    MW4 6530   4.739   6.025   3.407 -0.1511 -0.0282  0.3501
 1700SOL     OW 6531   6.388   5.218   0.225  0.2177  0.3644 -0.6305
 1700SOL    HW2 6532   6.443   5.140   0.227 -0.8127 -0.3916  1.1608
 1700SOL    HW3 6533   6.338   5.214   0.307 -2.7612  0.7619 -2.2648
 1700SOL    MW4 6534   6.388   5.207   0.236 -0.4455 -0.8929  0.3331
 1701SOL     OW 6535   0.672   6.021   1.933  0.1149 -0.1729 -0.4390
 1701SOL    HW2 6536   0.616   6.072   1.991  0.6921 -1.2343  1.1217
 1701SOL    HW3 6537   0.752   6.073   1.924 -0.6517  0.8320 -1.7855
 1701SOL    MW4 6538   0.675   6.034   1.940 -0.1798 -0.1396  0.3607
 1702SOL     OW 6539   2.778   2.279   2.334 -0.0363  0.2735  0.4570
 1702SOL    HW2 6540   2.696   2.251   2.374  0.7315 -0.0552  1.8983
 1702SOL    HW3 6541   2.790   2.221   2.259  0.1575 -1.4639  1.7660
 1702SOL    MW4 6542   2.769   2.268   2.329  0.6078 -0.0510 -0.1534
 1703SOL     OW 6543   3.265   3.015   3.424 -0.0956 -0.5014 -0.2802
 1703SOL    HW2 6544   3.261   3.093   3.369  2.3992  0.5892  0.9264
 1703SOL    HW3 6545   3.206   3.034   3.497  1.7773  1.1283  0.9152
 1703SOL    MW4 6546   3.256   3.028   3.426 -0.3948 -0.2077  0.3152
 1704SOL     OW 6547   3.528   4.348   6.304 -0.3566  0.2323  0.1335
 1704SOL    HW2 6548   3.567   4.284   6.363 -0.8330  0.2008  0.4182
 1704SOL    HW3 6549   3.551   4.317   6.217 -0.4267 -0.2277  0.2747
 1704SOL    MW4 6550   3.536   4.335   6.300  0.3930 -0.0399 -0.4663
 1705SOL     OW 6551   5.224   3.551   0.595  0.2189  0.0092 -0.6897
 1705SOL    HW2 6552   5.143   3.521   0.554  0.0373 -1.4358  0.5986
 1705SOL    HW3 6553   5.197   3.584   0.680  1.0164 -1.2283  0.0930
 1705SOL    MW4 6554   5.210   3.551   0.601 -0.3580  0.5517 -0.3779
 1706SOL     OW 6555   5.416   5.223   5.895  0.0476 -0.1483 -0.1786
 1706SOL    HW2 6556   5.476   5.169   5.844 -1.1080 -0.2672 -1.4816
 1706SOL    HW3 6557   5.348   5.162   5.925 -0.2032  0.2269  0.0264
 1706SOL    MW4 6558   5.415   5.208   5.893  0.3719  0.6566 -0.3019
 1707SOL     OW 6559   0.021   4.909   4.839  0.4191  0.5339  0.4074
 1707SOL    HW2 6560   0.109   4.947   4.841  0.9528 -0.6775  1.7170
 1707SOL    HW3 6561  -0.038   4.984   4.828  1.6096  1.3260 -0.9376
 1707SOL    MW4 6562   0.025   4.924   4.838 -0.0783  0.0496 -0.0700
 1708SOL     OW 6563   6.358   3.737   4.632 -0.2936  0.3348  0.7565
 1708SOL    HW2 6564   6.426   3.679   4.599 -1.6245 -1.0726  0.3225
 1708SOL    HW3 6565   6.404   3.805   4.681  1.3597 -0.9113  0.9959
 1708SOL    MW4 6566   6.373   3.739   4.634 -0.3643 -0.5632  0.0911
 1709SOL     OW 6567   5.265   0.206   2.933  0.2364 -0.2338 -0.0218
 1709SOL    HW2 6568   5.299   0.119   2.911 -0.4594 -0.5521  0.1459
 1709SOL    HW3 6569   5.170   0.196   2.934  0.0895  0.7730 -1.0312
 1709SOL    MW4 6570   5.257   0.193   2.930  0.4216 -0.3337 -0.0301
 1710SOL     OW 6571   3.569   1.825   4.420  0.4633 -0.2086  0.8366
 1710SOL    HW2 6572   3.493   1.776   4.389 -0.8016  0.9931  1.9294
 1710SOL    HW3 6573   3.639   1.759   4.425 -0.6364 -1.4584  0.3382
 1710SOL    MW4 6574   3.569   1.810   4.417  0.4993  0.2876  0.4148
 1711SOL     OW 6575   5.948   5.689   4.190 -0.0363  0.3345 -0.4756
 1711SOL    HW2 6576   6.033   5.647   4.178 -0.2279  0.3271 -2.0974
 1711SOL    HW3 6577   5.892   5.621   4.226  0.3406 -0.0226 -0.5594
 1711SOL    MW4 6578   5.951   5.675   4.193  1.0940  0.2615  0.1967
 1712SOL     OW 6579   5.232   1.078   0.851  0.0882  0.0446  0.1200
 1712SOL    HW2 6580   5.257   1.096   0.941  2.3345  1.4222 -0.7047
 1712SOL    HW3 6581   5.171   1.149   0.829  0.9850  0.8080  0.0228
 1712SOL    MW4 6582   5.227   1.090   0.860  0.0329  0.0976 -0.1516
 1713SOL     OW 6583   1.732   6.227   2.782 -0.1843 -0.1211 -0.4996
 1713SOL    HW2 6584   1.686   6.233   2.698  1.2290  0.5438 -1.2509
 1713SOL    HW3 6585   1.809   6.172   2.763  0.8595  1.1230  0.0146
 1713SOL    MW4 6586   1.736   6.220   2.768 -0.2525  0.3005 -0.1357
 1714SOL     OW 6587   1.211   1.289   5.192  0.1007 -0.2512 -0.3164
 1714SOL    HW2 6588   1.291   1.241   5.214 -0.2457 -1.0256 -0.7219
 1714SOL    HW3 6589   1.212   1.295   5.097  0.2360  0.7354 -0.2670
 1714SOL    MW4 6590   1.222   1.284   5.182  0.4082 -0.3194 -0.4429
 1715SOL     OW 6591   5.979   0.639   4.584 -0.1148  0.5041 -0.3065
 1715SOL    HW2 6592   6.074   0.637   4.591 -0.1075  0.8184 -0.2965
 1715SOL    HW3 6593   5.951   0.551   4.608  0.1806  0.3801 -0.4193
 1715SOL    MW4 6594   5.987   0.627   4.588 -0.2037  0.0249  0.2968
 1716SOL     OW 6595   2.257   0.524   5.032  0.0853 -0.2449  0.4351
 1716SOL    HW2 6596   2.303   0.486   4.957  1.5682  1.9293  0.1683
 1716SOL    HW3 6597   2.166   0.531   5.004  0.4207 -0.4601 -0.7433
 1716SOL    MW4 6598   2.251   0.520   5.019 -0.0083  0.2408 -0.0455
 1717SOL     OW 6599   2.914   5.078   3.234  0.7257 -0.4338 -0.2769
 1717SOL    HW2 6600   2.966   5.005   3.201  0.1788 -0.8221 -0.2871
 1717SOL    HW3 6601   2.973   5.153   3.231  1.6192 -1.0734  0.6848
 1717SOL    MW4 6602   2.929   5.079   3.229  0.3002 -0.3589  0.1161
 1718SOL     OW 6603   4.050   0.469   1.888  0.2096 -0.4555  0.6317
 1718SOL    HW2 6604   3.978   0.532   1.894 -1.2087 -2.0605  1.2104
 1718SOL    HW3 6605   4.073   0.450   1.979  1.3220 -0.0396  0.4537
 1718SOL    MW4 6606   4.043   0.475   1.901  0.0104 -0.1949  0.1335
 1719SOL     OW 6607   6.311   1.321   2.391  0.3336 -0.0935  0.4487
 1719SOL    HW2 6608   6.237   1.261   2.399 -1.6595  2.1018 -0.4413
 1719SOL    HW3 6609   6.377   1.272   2.341 -2.2304 -0.7608 -2.5987
 1719SOL    MW4 6610   6.310   1.307   2.385  0.7284 -0.0696  0.2108
 1720SOL     OW 6611   6.189   1.070   1.212 -0.5698  0.0121  0.2056
 1720SOL    HW2 6612   6.176   0.980   1.243 -0.9460  0.6044  1.9163
 1720SOL    HW3 6613   6.162   1.124   1.286  0.1814  1.5346 -0.5912
 1720SOL    MW4 6614   6.184   1.065   1.226  0.1353  0.4048  0.4775
 1721SOL     OW 6615   2.345   2.817   5.016 -0.5898 -0.0405 -0.2870
 1721SOL    HW2 6616   2.318   2.866   5.093  0.6182  0.2566 -0.0364
 1721SOL    HW3 6617   2.266   2.770   4.988 -0.8541 -0.7730  1.5911
 1721SOL    MW4 6618   2.331   2.817   5.022 -0.4493 -0.3284  0.3783
 1722SOL     OW 6619   4.905   4.149   5.411  0.2707  0.1719 -0.3067
 1722SOL    HW2 6620   4.884   4.227   5.360  0.9289 -0.5938 -1.8025
 1722SOL    HW3 6621   4.994   4.125   5.383  0.3446 -0.7231  0.6309
 1722SOL    MW4 6622   4.914   4.156   5.401  0.0526  0.5612  0.3123
 1723SOL     OW 6623   2.752   3.041   0.125  0.0123  0.2971 -0.4121
 1723SOL    HW2 6624   2.722   2.953   0.146 -1.3950  1.1076  1.2587
 1723SOL    HW3 6625   2.799   3.069   0.203 -1.1184  1.6469 -0.1720
 1723SOL    MW4 6626   2.754   3.033   0.138 -0.3453 -0.1448 -0.1086
 1724SOL     OW 6627   6.167   6.210   3.986  0.1891  0.1106  0.5878
 1724SOL    HW2 6628   6.198   6.180   4.071  1.7472  2.0751  0.8188
 1724SOL    HW3 6629   6.127   6.296   4.004 -1.4065 -0.3871 -0.3916
 1724SOL    MW4 6630   6.166   6.218   4.000  0.2067  0.0023 -0.0998
 1725SOL     OW 6631   5.567   5.691   4.676 -0.3164  0.2104 -0.3625
 1725SOL    HW2 6632   5.490   5.718   4.725  0.0292 -1.1415  0.9951
 1725SOL    HW3 6633   5.543   5.607   4.637  0.8175 -0.8450  1.0929
 1725SOL    MW4 6634   5.554   5.684   4.678 -0.0706 -0.4961 -0.1377
 1726SOL     OW 6635   4.000   0.466   3.686 -0.1901 -0.1289 -0.0368
 1726SOL    HW2 6636   4.085   0.488   3.647 -0.2706 -1.4051 -1.0052
 1726SOL    HW3 6637   4.008   0.373   3.708 -0.9677  0.0101  0.9017
 1726SOL    MW4 6638   4.013   0.457   3.684 -0.2328  0.1207 -0.7828
 1727SOL     OW 6639   6.072   0.045   3.705 -0.5217 -0.1047  0.1358
 1727SOL    HW2 6640   6.073  -0.047   3.677  1.1245  0.4795 -2.0357
 1727SOL    HW3 6641   6.149   0.054   3.761 -0.2074  0.0997 -0.3187
 1727SOL    MW4 6642   6.082   0.034   3.709 -0.0121 -0.0413 -0.0092
 1728SOL     OW 6643   2.626   6.018   4.367 -0.3884  0.5165  0.0718
 1728SOL    HW2 6644   2.721   6.020   4.362 -0.3529  0.1272  0.5607
 1728SOL    HW3 6645   2.603   6.091   4.425 -0.2519 -0.6964  1.7096
 1728SOL    MW4 6646   2.635   6.028   4.374 -0.1083  0.5007  0.0975
 1729SOL     OW 6647   1.892   1.174   5.721  0.0142  0.0880 -0.5491
 1729SOL    HW2 6648   1.952   1.244   5.748 -0.3070 -0.3452  1.5305
 1729SOL    HW3 6649   1.807   1.217   5.712 -0.0199  0.1235 -0.0893
 1729SOL    MW4 6650   1.888   1.189   5.724  0.7052 -0.0525  0.3457
 1730SOL     OW 6651   1.033   0.920   0.584 -0.2294 -0.8767  0.1278
 1730SOL    HW2 6652   1.012   0.900   0.675  0.7343 -1.5270  0.2183
 1730SOL    HW3 6653   1.090   0.848   0.556  1.1013  0.3380 -0.3826
 1730SOL    MW4 6654   1.037   0.908   0.592 -0.3190 -0.1683 -0.2757
 1731SOL     OW 6655   3.997   0.217   1.790 -0.1345 -0.7052  0.3321
 1731SOL    HW2 6656   4.020   0.308   1.806 -1.0614 -0.3690 -0.1537
 1731SOL    HW3 6657   4.071   0.167   1.822 -0.3015  0.1306  2.1153
 1731SOL    MW4 6658   4.010   0.222   1.796 -0.2988 -0.0538  0.3423
 1732SOL     OW 6659   3.039   4.384   4.832  0.2163 -0.0110  0.1857
 1732SOL    HW2 6660   3.004   4.358   4.917  1.3780 -1.4116  0.2597
 1732SOL    HW3 6661   2.984   4.458   4.806 -1.4062 -0.7783  1.2510
 1732SOL    MW4 6662   3.027   4.391   4.840  0.2990  0.3328 -0.0442
 1733SOL     OW 6663   5.455   1.554   5.359  0.3331 -0.6047  0.6547
 1733SOL    HW2 6664   5.529   1.568   5.417  0.3936  2.9063 -0.0485
 1733SOL    HW3 6665   5.466   1.464   5.327  3.2168 -0.8346  1.9980
 1733SOL    MW4 6666   5.466   1.544   5.362 -0.4648 -0.1526  0.1030
 1734SOL     OW 6667   3.840   6.401   2.993  0.1806 -0.3142 -0.4195
 1734SOL    HW2 6668   3.816   6.407   2.900 -0.0197  0.1224 -0.3421
 1734SOL    HW3 6669   3.935   6.413   2.994  0.2242 -0.6286 -0.5946
 1734SOL    MW4 6670   3.849   6.404   2.981  0.3988 -0.1456  0.4510
 1735SOL     OW 6671   1.118   6.173   2.109 -0.0510 -0.0198 -0.0326
 1735SOL    HW2 6672   1.131   6.266   2.126 -3.2761  0.1746  2.4396
 1735SOL    HW3 6673   1.174   6.128   2.173 -0.1206  0.2965  0.2528
 1735SOL    MW4 6674   1.127   6.179   2.120 -0.2777  0.0585 -0.0066
 1736SOL     OW 6675   1.467   3.799   4.244 -0.0793  0.5796  0.0914
 1736SOL    HW2 6676   1.430   3.876   4.200 -2.4408  1.3811  3.1811
 1736SOL    HW3 6677   1.539   3.834   4.297 -0.4099  0.4672  0.6152
 1736SOL    MW4 6678   1.472   3.814   4.245 -0.4117  0.8749  0.0047
 1737SOL     OW 6679   2.023   4.508   3.066  0.3814 -0.2550 -0.7465
 1737SOL    HW2 6680   1.975   4.500   3.148  1.1394  1.3588 -0.1016
 1737SOL    HW3 6681   1.958   4.543   3.004  0.2356  0.1046 -0.3924
 1737SOL    MW4 6682   2.008   4.512   3.068  0.9975 -0.5833 -0.5521
 1738SOL     OW 6683   1.123   0.556   5.268 -0.1111 -0.1180  0.3145
 1738SOL    HW2 6684   1.180   0.480   5.267  2.0757  1.3730  1.6771
 1738SOL    HW3 6685   1.111   0.576   5.361 -1.7150  0.4508  0.0159
 1738SOL    MW4 6686   1.129   0.549   5.280 -0.1307 -0.1366  0.3670
 1739SOL     OW 6687   1.917   0.305   6.302 -0.1067 -0.5015  0.1401
 1739SOL    HW2 6688   1.913   0.239   6.233 -0.5166 -0.4344  0.0979
 1739SOL    HW3 6689   1.860   0.375   6.272  1.3008  0.4601 -0.4263
 1739SOL    MW4 6690   1.909   0.306   6.289  0.3811 -0.2687 -0.1483
 1740SOL     OW 6691   3.794   0.137   0.381  0.0808 -0.1292 -0.0955
 1740SOL    HW2 6692   3.864   0.199   0.363 -0.6513  0.3714 -1.3464
 1740SOL    HW3 6693   3.801   0.071   0.312 -1.8753  1.0189 -1.4761
 1740SOL    MW4 6694   3.804   0.136   0.370  0.2350  0.0716  0.2288
 1741SOL     OW 6695   4.005   2.704   5.720 -0.3320  0.0124 -0.1126
 1741SOL    HW2 6696   3.951   2.742   5.788  1.3439  1.0973  0.6737
 1741SOL    HW3 6697   3.944   2.682   5.650 -1.7949  0.9673  0.8156
 1741SOL    MW4 6698   3.990   2.706   5.720  1.0743 -0.2207  0.7965
 1742SOL     OW 6699   1.622   1.074   4.781  0.4141  0.0382 -0.6624
 1742SOL    HW2 6700   1.685   1.135   4.743  0.0377  1.2580  0.6177
 1742SOL    HW3 6701   1.537   1.104   4.750  0.3194 -0.6245 -1.0666
 1742SOL    MW4 6702   1.619   1.086   4.772  0.3519 -0.0569 -0.0076
 1743SOL     OW 6703   4.612   5.019   0.765 -0.0757  0.5872  0.4680
 1743SOL    HW2 6704   4.539   5.002   0.705  0.4127 -1.6326  0.4337
 1743SOL    HW3 6705   4.688   5.028   0.707  0.2560 -0.7389  0.6642
 1743SOL    MW4 6706   4.612   5.018   0.749  0.1207  0.1401 -0.0708
 1744SOL     OW 6707   4.176   4.643   3.465 -0.3219  0.2652  0.4848
 1744SOL    HW2 6708   4.168   4.619   3.373 -1.9241  2.1954  0.0547
 1744SOL    HW3 6709   4.270   4.639   3.483 -0.0629 -0.9563 -0.9811
 1744SOL    MW4 6710   4.187   4.639   3.456 -0.2751  0.0622 -0.0528
 1745SOL     OW 6711   3.286   4.175   1.078  0.3196 -0.7208  0.0751
 1745SOL    HW2 6712   3.270   4.144   0.988 -1.0275  1.0204 -0.3463
 1745SOL    HW3 6713   3.347   4.247   1.068  0.9524 -1.1550  0.6980
 1745SOL    MW4 6714   3.292   4.180   1.064  0.2908  0.2867 -1.1102
 1746SOL     OW 6715   0.787   5.141   1.948  0.1003  0.4753  0.5569
 1746SOL    HW2 6716   0.855   5.077   1.928 -1.7809 -0.9915 -1.6914
 1746SOL    HW3 6717   0.761   5.120   2.038  1.5126  0.0682  0.8975
 1746SOL    MW4 6718   0.792   5.130   1.957  0.7842  0.5719  0.4486
 1747SOL     OW 6719   1.405   3.816   1.502 -0.6555  0.4549  0.6969
 1747SOL    HW2 6720   1.403   3.905   1.537  1.1779  0.3351  1.2094
 1747SOL    HW3 6721   1.374   3.761   1.574 -3.2482  0.7372 -0.0937
 1747SOL    MW4 6722   1.400   3.820   1.516 -0.7905  0.0579  0.2266
 1748SOL     OW 6723   2.410   5.396   3.660 -0.1499  0.1248 -0.3241
 1748SOL    HW2 6724   2.423   5.476   3.712 -0.7187 -0.2635  0.4337
 1748SOL    HW3 6725   2.468   5.332   3.700  0.1047  0.0744 -0.7639
 1748SOL    MW4 6726   2.420   5.398   3.672 -0.3108  0.7275 -0.1188
 1749SOL     OW 6727   1.503   5.206   5.089 -0.1002  1.0495  0.7975
 1749SOL    HW2 6728   1.533   5.263   5.018  0.3773  0.4127  0.4753
 1749SOL    HW3 6729   1.410   5.226   5.098 -0.0371  1.5606  0.3875
 1749SOL    MW4 6730   1.495   5.216   5.080 -0.3083 -0.3756  0.3162
 1750SOL     OW 6731   2.567   0.828   4.692 -0.2239  0.3454  0.4005
 1750SOL    HW2 6732   2.613   0.744   4.698  1.3897  1.0809 -0.9048
 1750SOL    HW3 6733   2.477   0.808   4.718  0.1352 -1.7801  0.1668
 1750SOL    MW4 6734   2.561   0.814   4.696 -0.6581  0.4004  0.1604
 1751SOL     OW 6735   1.435   3.473   4.934 -0.0840 -0.4726 -0.2339
 1751SOL    HW2 6736   1.474   3.560   4.934 -0.0751 -0.4447  1.5057
 1751SOL    HW3 6737   1.436   3.446   4.842 -2.6227  2.4658 -1.2939
 1751SOL    MW4 6738   1.440   3.481   4.922  0.4389  0.0603  0.3115
 1752SOL     OW 6739   5.231   4.642   4.059 -0.3770 -0.4576  0.1417
 1752SOL    HW2 6740   5.205   4.621   3.970 -0.3855  0.6528 -0.1259
 1752SOL    HW3 6741   5.165   4.704   4.090  0.4910  0.3875  0.3519
 1752SOL    MW4 6742   5.219   4.647   4.052  0.3019  0.1973  0.2793
 1753SOL     OW 6743   2.142   3.991   2.394  0.3976 -0.5287 -0.2482
 1753SOL    HW2 6744   2.053   3.963   2.414  1.1944 -1.4150  2.4033
 1753SOL    HW3 6745   2.198   3.919   2.423  2.1009  0.9020  0.2345
 1753SOL    MW4 6746   2.138   3.978   2.400 -0.6564 -0.2551 -0.2162
 1754SOL     OW 6747   1.468   2.232   1.113  0.1142  0.4715 -0.6202
 1754SOL    HW2 6748   1.553   2.225   1.069 -0.6579  2.1570 -2.5463
 1754SOL    HW3 6749   1.419   2.295   1.061 -1.8533  0.6078  1.2393
 1754SOL    MW4 6750   1.473   2.239   1.100 -0.1804  0.0929  0.3325
 1755SOL     OW 6751   5.471   1.115   3.057  0.3700 -0.5159 -0.1529
 1755SOL    HW2 6752   5.403   1.178   3.082  1.4973  1.4294 -1.6631
 1755SOL    HW3 6753   5.511   1.089   3.139  0.9649  2.1064  0.4761
 1755SOL    MW4 6754   5.467   1.120   3.071 -1.0130  0.1477 -0.0778
 1756SOL     OW 6755   6.173   4.336   5.721  0.0374  0.5987 -0.0866
 1756SOL    HW2 6756   6.096   4.297   5.679  0.0993  1.1140 -0.6940
 1756SOL    HW3 6757   6.230   4.262   5.739  0.3643  0.4160 -1.6629
 1756SOL    MW4 6758   6.170   4.321   5.718 -0.8452  0.3500  0.0344
 1757SOL     OW 6759   1.773   1.621   6.068 -0.3292  0.5228  0.1540
 1757SOL    HW2 6760   1.716   1.566   6.013 -2.5333  1.9203  0.9016
 1757SOL    HW3 6761   1.824   1.559   6.120 -0.2055 -0.7998 -1.4682
 1757SOL    MW4 6762   1.772   1.606   6.067 -0.2034  0.4763 -0.1190
 1758SOL     OW 6763   4.758   1.648   3.322  0.0302 -0.3077 -0.2152
 1758SOL    HW2 6764   4.742   1.610   3.408 -1.7063  0.4501 -0.1486
 1758SOL    HW3 6765   4.850   1.632   3.305  0.4220 -0.4681  1.7897
 1758SOL    MW4 6766   4.768   1.641   3.331 -0.2809  0.4047 -0.2796
 1759SOL     OW 6767   6.024   0.799   6.053  0.1041 -0.1855  0.0007
 1759SOL    HW2 6768   6.106   0.784   6.100  0.7429  2.1557 -0.2737
 1759SOL    HW3 6769   6.051   0.817   5.963 -0.8852 -1.3496 -0.5642
 1759SOL    MW4 6770   6.038   0.799   6.047 -0.3340  0.0679 -1.2326
 1760SOL     OW 6771   6.352   1.519   6.333  0.0709 -0.1194  0.1448
 1760SOL    HW2 6772   6.364   1.573   6.255 -0.5949  0.5813  0.5139
 1760SOL    HW3 6773   6.274   1.555   6.375 -0.5933 -1.5956  0.2199
 1760SOL    MW4 6774   6.344   1.531   6.328  0.4538  0.5390  0.5272
 1761SOL     OW 6775   0.385   3.108   1.273 -0.1058  0.0468  0.0389
 1761SOL    HW2 6776   0.351   3.079   1.358  0.3133 -1.2270 -0.2114
 1761SOL    HW3 6777   0.368   3.034   1.214 -0.0019  0.7508 -0.8928
 1761SOL    MW4 6778   0.378   3.094   1.276  0.0105 -0.7785  0.6428
 1762SOL     OW 6779   6.409   0.315   2.631  1.0393  0.2950 -0.2354
 1762SOL    HW2 6780   6.464   0.260   2.575  0.0520 -1.7652  0.6919
 1762SOL    HW3 6781   6.324   0.318   2.587  0.0869 -1.7940  1.2694
 1762SOL    MW4 6782   6.405   0.308   2.618 -0.3606 -0.1402  0.0186
 1763SOL     OW 6783   2.262   2.497   3.893  0.3021 -0.1952 -0.5159
 1763SOL    HW2 6784   2.310   2.577   3.873 -0.2255 -0.0613 -1.2866
 1763SOL    HW3 6785   2.181   2.504   3.842  0.2640 -1.2297 -0.6213
 1763SOL    MW4 6786   2.258   2.509   3.883  0.1658 -0.2518  0.0222
 1764SOL     OW 6787   3.946   3.922   0.340  0.0356  0.4603 -0.5022
 1764SOL    HW2 6788   4.013   3.974   0.384 -0.5683 -0.1388  1.1829
 1764SOL    HW3 6789   3.863   3.956   0.373 -0.4191 -0.3242 -0.8150
 1764SOL    MW4 6790   3.944   3.934   0.350  0.5713 -0.3372 -0.4016
 1765SOL     OW 6791   0.490   5.666   0.020  0.0770  0.3339  0.2502
 1765SOL    HW2 6792   0.403   5.688  -0.012  0.0953  2.1394  1.3122
 1765SOL    HW3 6793   0.522   5.746   0.061  1.7943 -0.6132  0.8853
 1765SOL    MW4 6794   0.483   5.679   0.021  0.4990  0.2113 -0.3232
 1766SOL     OW 6795   0.580   6.131   5.959  0.4039 -0.0016 -0.8669
 1766SOL    HW2 6796   0.626   6.158   5.879  3.3564 -2.0517 -0.0271
 1766SOL    HW3 6797   0.640   6.151   6.030 -1.1064 -0.4641  0.6252
 1766SOL    MW4 6798   0.594   6.137   5.957 -0.1654 -0.2463  0.1893
 1767SOL     OW 6799   4.347   3.087   1.153  0.4518  0.0777  0.5401
 1767SOL    HW2 6800   4.339   3.142   1.075  1.4295  0.3006  0.5859
 1767SOL    HW3 6801   4.303   3.005   1.130  2.1438 -0.4776 -0.8481
 1767SOL    MW4 6802   4.340   3.083   1.140 -0.1258  0.0053 -0.3731
 1768SOL     OW 6803   0.017   0.538   5.534  0.4014  1.1513 -0.0111
 1768SOL    HW2 6804   0.085   0.472   5.518  1.1262  1.8655  0.0450
 1768SOL    HW3 6805  -0.048   0.522   5.466  0.9826  0.9155 -0.5255
 1768SOL    MW4 6806   0.018   0.527   5.522  0.3609  0.0674  0.2405
 1769SOL     OW 6807   2.326   0.449   4.758 -0.4675  0.9712  0.2483
 1769SOL    HW2 6808   2.406   0.485   4.720  0.7049 -2.2052 -0.6096
 1769SOL    HW3 6809   2.271   0.428   4.683 -0.9157  0.5589  0.6857
 1769SOL    MW4 6810   2.329   0.451   4.743  0.1568 -0.4793  0.4185
 1770SOL     OW 6811   0.906   0.048   1.272 -0.5769  0.5566  0.1932
 1770SOL    HW2 6812   0.978   0.108   1.296 -1.0386  1.0898  0.2612
 1770SOL    HW3 6813   0.950  -0.027   1.233 -0.0409  1.4620 -1.0110
 1770SOL    MW4 6814   0.922   0.046   1.270  1.0029  0.5474 -0.3048
 1771SOL     OW 6815   0.799   1.205   2.175 -0.4150  0.3747  0.0938
 1771SOL    HW2 6816   0.891   1.180   2.163 -0.1619  1.6319 -0.6952
 1771SOL    HW3 6817   0.754   1.122   2.193  0.8459 -0.2713  0.3730
 1771SOL    MW4 6818   0.805   1.191   2.176 -0.0619 -0.2192 -0.2499
 1772SOL     OW 6819   6.182   5.717   0.582  0.6327 -0.0756 -0.0445
 1772SOL    HW2 6820   6.197   5.809   0.560  1.1819 -0.4142 -1.2252
 1772SOL    HW3 6821   6.265   5.674   0.558  0.8691 -0.6827  1.7555
 1772SOL    MW4 6822   6.195   5.723   0.576  0.0732  0.0530  0.1246
 1773SOL     OW 6823   2.150   0.691   4.006  0.0841 -0.5528 -0.5448
 1773SOL    HW2 6824   2.236   0.711   4.043  0.1174 -0.1045 -0.8565
 1773SOL    HW3 6825   2.095   0.672   4.082  0.1753  0.2598 -0.2660
 1773SOL    MW4 6826   2.154   0.691   4.021 -0.0790  0.0015 -0.4065
 1774SOL     OW 6827   0.630   2.152   4.220 -0.1567  0.4441  0.7914
 1774SOL    HW2 6828   0.551   2.133   4.270 -0.5692 -1.9129 -0.6150
 1774SOL    HW3 6829   0.689   2.079   4.238  1.5482  1.8874  1.4003
 1774SOL    MW4 6830   0.628   2.140   4.229  0.2128  0.2693 -0.0560
 1775SOL     OW 6831   1.036   3.747   3.238  0.2601 -0.2134  0.2925
 1775SOL    HW2 6832   1.122   3.735   3.277  0.3071  1.5768  0.7965
 1775SOL    HW3 6833   1.052   3.765   3.146  0.3320 -1.0249  0.1339
 1775SOL    MW4 6834   1.049   3.748   3.231  0.3694 -0.0429  0.2353
 1776SOL     OW 6835   5.392   0.952   5.771  0.7206 -0.3032 -0.4280
 1776SOL    HW2 6836   5.324   0.993   5.718  0.6335  0.0064 -0.0837
 1776SOL    HW3 6837   5.468   0.946   5.712  0.8039  0.5640 -0.4322
 1776SOL    MW4 6838   5.393   0.957   5.756  0.5180  0.4324 -0.6216
 1777SOL     OW 6839   4.114   3.534   6.364 -0.5075 -0.0987 -0.3906
 1777SOL    HW2 6840   4.026   3.569   6.374  0.1131  1.3749  0.1936
 1777SOL    HW3 6841   4.153   3.544   6.451  0.3049 -0.5347 -0.6976
 1777SOL    MW4 6842   4.108   3.540   6.377 -0.4125 -0.9921  0.0188
 1778SOL     OW 6843   3.568   4.138   0.052  0.1798  0.1452 -0.2643
 1778SOL    HW2 6844   3.600   4.175   0.134  0.3036 -1.0993  0.2664
 1778SOL    HW3 6845   3.636   4.077   0.025  0.4293  0.9814 -1.6292
 1778SOL    MW4 6846   3.581   4.135   0.059 -0.5927 -0.1198 -0.5491
 1779SOL     OW 6847   0.368   1.791   3.002  0.6252 -0.9568  0.1909
 1779SOL    HW2 6848   0.342   1.849   2.930  1.1322  1.1521  1.6063
 1779SOL    HW3 6849   0.393   1.709   2.959  0.9450  0.2315 -2.0279
 1779SOL    MW4 6850   0.368   1.788   2.986 -0.1256 -0.1113 -0.1709
 1780SOL     OW 6851   4.467   0.723   4.034 -0.5592 -0.1614  0.3988
 1780SOL    HW2 6852   4.437   0.810   4.061 -0.7085 -0.1616  0.2354
 1780SOL    HW3 6853   4.545   0.707   4.089  1.1905  1.2727 -1.4902
 1780SOL    MW4 6854   4.474   0.733   4.045  0.0164  0.3476  0.2114
 1781SOL     OW 6855   3.596   2.410   2.577 -0.1803  0.8753  0.1937
 1781SOL    HW2 6856   3.554   2.366   2.651 -0.2658  1.8808  0.7611
 1781SOL    HW3 6857   3.560   2.367   2.500 -1.3519  0.9169  0.6992
 1781SOL    MW4 6858   3.586   2.399   2.577  0.1185 -0.7574  0.2717
 1782SOL     OW 6859   4.462   1.686   0.665 -0.3563  0.2610 -0.2309
 1782SOL    HW2 6860   4.473   1.779   0.686 -1.1696  0.7196 -1.6820
 1782SOL    HW3 6861   4.540   1.664   0.614  0.0322  0.0295  0.4553
 1782SOL    MW4 6862   4.474   1.696   0.661  0.4211 -0.0928 -1.0688
 1783SOL     OW 6863   4.198   1.752   5.601 -0.0686 -0.0011 -0.4425
 1783SOL    HW2 6864   4.233   1.702   5.528  0.2817 -1.8392  0.8843
 1783SOL    HW3 6865   4.272   1.800   5.636  0.7109 -2.0155  0.8906
 1783SOL    MW4 6866   4.212   1.752   5.596 -0.2969 -0.3393 -0.0130
 1784SOL     OW 6867   5.114   5.438   3.724 -0.4197 -0.8842  0.2239
 1784SOL    HW2 6868   5.138   5.525   3.754  0.4045 -0.9423 -0.2291
 1784SOL    HW3 6869   5.104   5.387   3.805  0.7399 -0.7825  0.4484
 1784SOL    MW4 6870   5.116   5.442   3.739 -0.1542 -0.3960 -0.5954
 1785SOL     OW 6871   4.703   2.687   2.278 -0.8141 -0.2518  0.4999
 1785SOL    HW2 6872   4.767   2.620   2.256 -0.1979  0.1071  1.1749
 1785SOL    HW3 6873   4.709   2.750   2.206  1.5947  1.2043  1.8833
 1785SOL    MW4 6874   4.712   2.687   2.265  0.3857 -0.3097 -0.1397
 1786SOL     OW 6875   0.393   0.483   3.439  0.4801 -0.0435  0.1447
 1786SOL    HW2 6876   0.460   0.531   3.486  0.3596 -0.5350  0.8237
 1786SOL    HW3 6877   0.318   0.543   3.435  1.0778  0.6727 -0.9947
 1786SOL    MW4 6878   0.392   0.498   3.445 -0.3573 -0.3651  0.0592
 1787SOL     OW 6879   1.689   0.739   0.666  0.3637  0.1291 -0.1036
 1787SOL    HW2 6880   1.688   0.656   0.714  0.1774  0.4780  0.5058
 1787SOL    HW3 6881   1.777   0.744   0.629  0.4002 -0.3014 -0.0816
 1787SOL    MW4 6882   1.700   0.729   0.667 -0.1331 -0.0704  0.1706
 1788SOL     OW 6883   5.177   0.020   4.023  0.1846 -0.3246 -0.2669
 1788SOL    HW2 6884   5.128   0.102   4.014  0.0848 -0.4642 -1.0570
 1788SOL    HW3 6885   5.140  -0.038   3.957  0.6604 -0.8101 -0.1177
 1788SOL    MW4 6886   5.166   0.023   4.013  0.0153 -0.6771  0.5594
 1789SOL     OW 6887   2.693   0.606   5.817 -0.0580  0.6707  0.0323
 1789SOL    HW2 6888   2.729   0.632   5.732  0.4014 -0.1710 -0.0492
 1789SOL    HW3 6889   2.629   0.538   5.795  0.0041  0.5087  0.3558
 1789SOL    MW4 6890   2.690   0.600   5.803  0.3621  0.1513  0.4970
 1790SOL     OW 6891   1.527   1.668   0.069 -0.1264  0.0426 -0.1770
 1790SOL    HW2 6892   1.511   1.693  -0.022  0.7219  0.1293 -0.3135
 1790SOL    HW3 6893   1.621   1.682   0.081  0.1647 -1.9370  0.1051
 1790SOL    MW4 6894   1.538   1.673   0.058  0.3123 -0.1877 -0.0896
 1791SOL     OW 6895   3.878   1.067   3.424 -0.0500 -0.1991  0.0080
 1791SOL    HW2 6896   3.898   1.160   3.407 -1.5899  0.2024  0.2659
 1791SOL    HW3 6897   3.795   1.069   3.471 -0.4264 -1.7600 -0.5659
 1791SOL    MW4 6898   3.870   1.080   3.428 -0.6040 -0.2752 -0.1341
 1792SOL     OW 6899   5.898   3.102   4.775 -0.0977 -0.4723  0.3835
 1792SOL    HW2 6900   5.905   3.067   4.686  0.3983  2.0258 -0.6414
 1792SOL    HW3 6901   5.813   3.145   4.777  0.7761  1.3560  0.3375
 1792SOL    MW4 6902   5.888   3.103   4.763 -0.3133 -0.3201  0.3209
 1793SOL     OW 6903   4.442   2.504   0.345  0.6480  0.0703 -0.3671
 1793SOL    HW2 6904   4.354   2.523   0.312  0.5897 -2.2060 -1.7547
 1793SOL    HW3 6905   4.496   2.502   0.266  0.6627 -4.7952 -0.5418
 1793SOL    MW4 6906   4.437   2.506   0.330  0.3542 -0.2936  0.7205
 1794SOL     OW 6907   5.932   6.209   5.658 -0.2964  0.9580 -0.1562
 1794SOL    HW2 6908   5.839   6.196   5.677 -0.9902  1.8405 -2.5682
 1794SOL    HW3 6909   5.962   6.123   5.628 -0.5059  0.8345 -0.0166
 1794SOL    MW4 6910   5.923   6.196   5.657 -0.2990 -0.3412 -0.5379
 1795SOL     OW 6911   5.468   6.317   0.289 -0.1326  0.3358  0.4291
 1795SOL    HW2 6912   5.456   6.250   0.357 -0.1286 -1.0501 -0.8803
 1795SOL    HW3 6913   5.398   6.299   0.226  0.7699  0.6222 -0.6811
 1795SOL    MW4 6914   5.457   6.305   0.290 -0.3756 -0.2473 -0.2892
 1796SOL     OW 6915   1.892   1.420   0.798 -0.5439 -0.2708 -0.2146
 1796SOL    HW2 6916   1.925   1.501   0.838 -1.6602 -0.5087  1.2615
 1796SOL    HW3 6917   1.958   1.354   0.821 -1.8612 -0.7278  2.6505
 1796SOL    MW4 6918   1.905   1.422   0.806  0.0469  0.1909  0.4190
 1797SOL     OW 6919   0.640   1.984   0.312  0.4060 -0.1176  0.0641
 1797SOL    HW2 6920   0.713   2.003   0.254 -0.0119  0.1198 -0.3942
 1797SOL    HW3 6921   0.617   1.893   0.293  0.0100  0.0841 -0.4412
 1797SOL    MW4 6922   0.646   1.974   0.302  0.2405  0.4783  0.4966
 1798SOL     OW 6923   6.408   4.729   5.355 -0.0351 -0.0738  0.0581
 1798SOL    HW2 6924   6.425   4.643   5.316 -1.0750 -0.3499  0.1888
 1798SOL    HW3 6925   6.483   4.743   5.413 -0.0618 -1.0978  0.3694
 1798SOL    MW4 6926   6.420   4.719   5.358 -0.1348  0.2821  0.0070
 1799SOL     OW 6927   6.138   0.517   5.053  0.0849 -0.1759 -0.2287
 1799SOL    HW2 6928   6.095   0.433   5.065  0.9232 -0.6403 -0.3824
 1799SOL    HW3 6929   6.115   0.542   4.963 -0.1732 -0.2297 -0.1801
 1799SOL    MW4 6930   6.129   0.509   5.043  0.5781 -0.2191  0.0802
 1800SOL     OW 6931   5.805   0.964   4.942 -0.4358 -0.3442 -0.1599
 1800SOL    HW2 6932   5.879   1.023   4.957 -2.6027  2.6052 -0.2405
 1800SOL    HW3 6933   5.796   0.962   4.847 -0.2235 -1.0681 -0.1705
 1800SOL    MW4 6934   5.814   0.972   4.932 -0.0233  0.3487  0.2099
 1801SOL     OW 6935   4.615   2.394   3.556  1.0481  0.2930  0.1032
 1801SOL    HW2 6936   4.630   2.475   3.605 -1.9766  1.1592 -0.1723
 1801SOL    HW3 6937   4.615   2.421   3.464  0.9647 -0.1927 -0.0446
 1801SOL    MW4 6938   4.617   2.408   3.550  0.1337 -0.2314  0.0012
 1802SOL     OW 6939   2.504   3.852   6.288 -0.0722 -1.1111 -0.2216
 1802SOL    HW2 6940   2.583   3.891   6.327  0.7369 -0.5451 -2.2984
 1802SOL    HW3 6941   2.439   3.922   6.292 -0.4673 -1.5250  1.3474
 1802SOL    MW4 6942   2.506   3.867   6.294 -0.2592  0.5060 -0.0268
 1803SOL     OW 6943   1.763   0.367   0.457 -0.9829 -0.0781  0.0840
 1803SOL    HW2 6944   1.677   0.404   0.478  0.3233  2.8480  0.6704
 1803SOL    HW3 6945   1.788   0.319   0.536 -1.8988 -0.7108  0.0176
 1803SOL    MW4 6946   1.755   0.366   0.470  0.6031 -0.6709  0.0482
 1804SOL     OW 6947   6.401   2.511   0.218  0.3959  0.1392  0.4616
 1804SOL    HW2 6948   6.344   2.506   0.295  1.2228  0.0166  1.0799
 1804SOL    HW3 6949   6.472   2.568   0.245  0.3856  0.5817 -0.4274
 1804SOL    MW4 6950   6.403   2.518   0.231  0.0251 -0.3046 -0.3723
 1805SOL     OW 6951   5.535   3.743   4.323  0.2380  0.2130 -0.4178
 1805SOL    HW2 6952   5.561   3.699   4.242  0.4757 -0.1845 -0.1321
 1805SOL    HW3 6953   5.598   3.814   4.334  2.1784 -1.6126  1.0282
 1805SOL    MW4 6954   5.547   3.746   4.314  0.2731  0.6160  0.2491
 1806SOL     OW 6955   0.114   0.769   0.636 -0.0749 -0.1285 -0.7930
 1806SOL    HW2 6956   0.089   0.848   0.588 -2.6391 -0.5558 -0.2994
 1806SOL    HW3 6957   0.167   0.719   0.575 -1.4821  0.3275 -2.4669
 1806SOL    MW4 6958   0.118   0.773   0.622 -0.0187  0.2942 -0.0798
 1807SOL     OW 6959   5.597   1.193   4.812  0.1546 -0.4808 -0.1772
 1807SOL    HW2 6960   5.561   1.107   4.833  0.6145 -0.3581  1.2356
 1807SOL    HW3 6961   5.690   1.178   4.795  0.2224 -0.2756  0.0059
 1807SOL    MW4 6962   5.604   1.180   4.813 -0.2469 -0.3731  0.2994
 1808SOL     OW 6963   4.795   2.287   0.380 -0.1836 -0.4115 -0.2460
 1808SOL    HW2 6964   4.771   2.378   0.362 -2.2814 -1.2120 -1.7360
 1808SOL    HW3 6965   4.891   2.289   0.387 -0.0609  1.6520 -1.7298
 1808SOL    MW4 6966   4.805   2.300   0.379 -0.1428  0.1068 -0.1552
 1809SOL     OW 6967   2.878   4.571   4.701  0.7799  0.6174 -0.5675
 1809SOL    HW2 6968   2.864   4.648   4.756  0.5819  1.0985 -1.2857
 1809SOL    HW3 6969   2.812   4.578   4.633 -0.5055 -1.1789  0.4065
 1809SOL    MW4 6970   2.867   4.582   4.699  0.5227 -0.4010  0.0109
 1810SOL     OW 6971   5.165   2.763   0.858  0.6799  0.8509 -0.0793
 1810SOL    HW2 6972   5.092   2.815   0.893  0.1345  1.0787 -1.5020
 1810SOL    HW3 6973   5.243   2.813   0.882  0.1938  2.0421 -0.8926
 1810SOL    MW4 6974   5.166   2.777   0.866  0.2555 -0.2000 -0.0880
 1811SOL     OW 6975   0.189   1.522   2.991 -0.6601  0.2840  0.1630
 1811SOL    HW2 6976   0.189   1.590   2.924  2.0700 -0.0375 -0.2812
 1811SOL    HW3 6977   0.184   1.569   3.074  1.1697  1.1104 -0.1377
 1811SOL    MW4 6978   0.188   1.537   2.993 -0.4459  0.4069  0.3241
 1812SOL     OW 6979   2.317   2.873   6.133 -0.2551  0.1143 -0.2694
 1812SOL    HW2 6980   2.341   2.781   6.145  0.1591  0.3462  0.7329
 1812SOL    HW3 6981   2.321   2.911   6.220 -2.1709  0.6865 -0.3890
 1812SOL    MW4 6982   2.321   2.866   6.146 -0.0997 -0.3795 -0.1846
 1813SOL     OW 6983   3.449   3.504   0.170  0.5515  0.7404 -0.2825
 1813SOL    HW2 6984   3.449   3.466   0.083  1.1600  0.7740 -0.2990
 1813SOL    HW3 6985   3.384   3.452   0.219 -1.8248  2.4015 -1.4622
 1813SOL    MW4 6986   3.440   3.492   0.165  0.2009 -0.3180  0.1435
 1814SOL     OW 6987   5.667   4.022   2.678  0.3683 -0.1808 -0.9267
 1814SOL    HW2 6988   5.596   4.013   2.742  1.0762  1.4641  0.1349
 1814SOL    HW3 6989   5.741   4.055   2.728  1.3722 -0.1895 -2.3518
 1814SOL    MW4 6990   5.667   4.025   2.693  0.3455  0.2531  0.2287
 1815SOL     OW 6991   3.949   4.993   3.444 -0.3868 -0.2752 -0.3967
 1815SOL    HW2 6992   3.995   5.068   3.407 -1.4030 -0.3101 -1.8248
 1815SOL    HW3 6993   3.888   5.031   3.507  0.6876 -0.1294  0.5885
 1815SOL    MW4 6994   3.947   5.008   3.448 -0.0427 -0.3526 -0.1077
 1816SOL     OW 6995   4.168   3.091   1.734 -0.0263 -0.2896 -0.2004
 1816SOL    HW2 6996   4.227   3.070   1.662  1.5673 -0.7022  1.1763
 1816SOL    HW3 6997   4.209   3.052   1.811 -1.2863  0.8031  1.0768
 1816SOL    MW4 6998   4.181   3.083   1.734  0.0255  0.1468  0.0488
 1817SOL     OW 6999   4.535   4.901   2.432  0.0863 -0.4915  0.1268
 1817SOL    HW2 7000   4.490   4.875   2.352 -0.2092  0.2744  0.0344
 1817SOL    HW3 7001   4.561   4.818   2.473 -1.8191 -0.9866  0.4106
 1817SOL    MW4 7002   4.532   4.887   2.427 -1.0007  0.0005  0.0635
 1818SOL     OW 7003   0.967   5.442   0.642 -0.2843 -0.2596  0.3706
 1818SOL    HW2 7004   0.947   5.458   0.734  1.6099  0.5181  0.6946
 1818SOL    HW3 7005   0.908   5.502   0.594  0.1607  0.8508  1.1785
 1818SOL    MW4 7006   0.956   5.452   0.648 -0.1748  0.3822 -0.4057
 1819SOL     OW 7007   3.658   4.591   0.979 -0.1648 -0.3145  0.5994
 1819SOL    HW2 7008   3.640   4.644   1.057 -1.0339 -1.8950  1.5223
 1819SOL    HW3 7009   3.585   4.612   0.920  1.1146  1.7850 -0.3504
 1819SOL    MW4 7010   3.646   4.601   0.982  0.3576  0.0775 -0.8181
 1820SOL     OW 7011   1.393   5.102   1.164 -0.1876  0.3103 -0.2621
 1820SOL    HW2 7012   1.319   5.132   1.111  0.2658 -0.1295 -1.1679
 1820SOL    HW3 7013   1.435   5.034   1.111  1.1186  0.8482  0.0447
 1820SOL    MW4 7014   1.389   5.097   1.150  0.4129 -0.5424  0.2071
 1821SOL     OW 7015   3.326   3.228   1.019  0.1054 -0.4823  0.0285
 1821SOL    HW2 7016   3.299   3.294   0.955 -0.0826  0.6327  1.2207
 1821SOL    HW3 7017   3.416   3.205   0.993  0.1907  0.2753 -0.3896
 1821SOL    MW4 7018   3.335   3.234   1.007  0.3211  0.4184 -0.1928
 1822SOL     OW 7019   2.555   0.322   3.557  0.8856  0.2946 -0.0971
 1822SOL    HW2 7020   2.572   0.244   3.609 -0.3802  0.4534  0.5913
 1822SOL    HW3 7021   2.569   0.395   3.617  0.0925  0.5080 -0.1588
 1822SOL    MW4 7022   2.559   0.321   3.572 -0.4657  0.2294 -0.4230
 1823SOL     OW 7023   0.225   2.798   2.074 -0.4162  0.0891  0.1335
 1823SOL    HW2 7024   0.263   2.721   2.117 -0.4812 -0.1039 -0.1564
 1823SOL    HW3 7025   0.297   2.861   2.071 -0.1586 -0.2181 -0.2710
 1823SOL    MW4 7026   0.240   2.796   2.079  0.2007 -0.2102 -0.3650
 1824SOL     OW 7027   5.843   4.629   0.672 -0.2349  0.3185  0.4864
 1824SOL    HW2 7028   5.755   4.592   0.657 -0.6516  1.4382  0.0528
 1824SOL    HW3 7029   5.902   4.563   0.635 -1.0868  1.4490 -3.4265
 1824SOL    MW4 7030   5.839   4.615   0.665  0.1168  0.2214 -0.3458
 1825SOL     OW 7031   2.894   3.323   5.843  0.2006  0.5695  0.1245
 1825SOL    HW2 7032   2.801   3.347   5.843 -1.0880 -3.5633 -1.6186
 1825SOL    HW3 7033   2.933   3.381   5.908 -3.8472  1.5904  1.9995
 1825SOL    MW4 7034   2.887   3.334   5.852 -0.3074  0.0432 -0.5395
 1826SOL     OW 7035   0.620   1.914   4.490 -0.2645 -0.6276 -0.0370
 1826SOL    HW2 7036   0.621   2.008   4.503  2.6737 -0.6383  0.6308
 1826SOL    HW3 7037   0.536   1.885   4.525 -0.9013  1.6366  0.4683
 1826SOL    MW4 7038   0.609   1.922   4.496 -0.0532  0.0763  0.2180
 1827SOL     OW 7039   3.094   5.205   1.287  0.0810 -0.4866 -0.3765
 1827SOL    HW2 7040   3.088   5.214   1.382  1.7996 -3.6829  0.1749
 1827SOL    HW3 7041   3.180   5.241   1.265  0.5707 -1.6107 -0.3663
 1827SOL    MW4 7042   3.105   5.211   1.296 -0.0087  0.3677 -0.5846
 1828SOL     OW 7043   0.972   3.704   4.014  0.3068  0.2993 -0.6005
 1828SOL    HW2 7044   0.947   3.611   4.015  0.5372  0.2108 -1.9652
 1828SOL    HW3 7045   0.973   3.728   3.922  2.1673  1.1217 -0.4216
 1828SOL    MW4 7046   0.969   3.695   4.002  0.8905  0.2913 -0.5141
 1829SOL     OW 7047   2.968   0.354   6.276  0.2500  0.1073  0.2797
 1829SOL    HW2 7048   3.022   0.423   6.237  1.1823 -0.6209  0.2481
 1829SOL    HW3 7049   2.992   0.354   6.369 -1.2459  1.1767  0.7057
 1829SOL    MW4 7050   2.978   0.363   6.283 -0.8774  0.5472  0.6615
 1830SOL     OW 7051   0.036   3.954   5.790  0.1339 -0.5988  0.5487
 1830SOL    HW2 7052   0.013   4.043   5.762 -0.5214 -0.2222  2.1729
 1830SOL    HW3 7053   0.130   3.948   5.772  0.3609  0.7224  1.1332
 1830SOL    MW4 7054   0.046   3.965   5.784  0.1614 -0.0144 -0.4328
 1831SOL     OW 7055   0.178   6.310   2.830 -0.1188  0.3727 -0.6657
 1831SOL    HW2 7056   0.247   6.372   2.806 -1.0002  2.3800  1.5786
 1831SOL    HW3 7057   0.225   6.229   2.850  1.6702  1.7125  0.9152
 1831SOL    MW4 7058   0.193   6.308   2.829 -0.1281  0.1300 -0.1036
 1832SOL     OW 7059   5.772   0.782   5.181 -0.0928  0.1299 -0.1037
 1832SOL    HW2 7060   5.743   0.807   5.093 -0.2057  0.9570  0.1629
 1832SOL    HW3 7061   5.706   0.820   5.239 -0.0176 -0.4160  0.3428
 1832SOL    MW4 7062   5.759   0.790   5.177 -0.0573  0.2786  0.3922
 1833SOL     OW 7063   1.929   0.754   0.512 -0.7305  0.4021 -0.1336
 1833SOL    HW2 7064   1.872   0.769   0.436 -0.1207  1.5078 -0.4005
 1833SOL    HW3 7065   1.958   0.842   0.537 -2.0343  0.2225  2.2810
 1833SOL    MW4 7066   1.925   0.768   0.505 -0.1295 -0.6753 -0.2826
 1834SOL     OW 7067   1.702   3.120   3.749 -0.4683  0.3793  0.0210
 1834SOL    HW2 7068   1.660   3.086   3.669 -0.6714  0.1264  0.2333
 1834SOL    HW3 7069   1.678   3.057   3.817  0.4355  0.1155  0.1037
 1834SOL    MW4 7070   1.693   3.107   3.747  0.6628  0.3324  0.0049
 1835SOL     OW 7071   0.560   4.245   3.558 -0.2449  0.0994 -0.5827
 1835SOL    HW2 7072   0.628   4.301   3.522  0.8555 -1.4346 -0.9878
 1835SOL    HW3 7073   0.501   4.228   3.485 -0.1736  0.1340 -0.6481
 1835SOL    MW4 7074   0.561   4.250   3.544 -0.5629  0.5622 -0.1835
 1836SOL     OW 7075   3.181   4.750   5.934 -0.4357 -0.2272  0.1111
 1836SOL    HW2 7076   3.159   4.714   5.848  0.8190 -0.2303 -0.2289
 1836SOL    HW3 7077   3.216   4.676   5.983 -2.0309 -0.4452  0.9884
 1836SOL    MW4 7078   3.182   4.736   5.929  0.1819  0.4533 -0.0765
 1837SOL     OW 7079   4.925   1.951   3.281 -0.2656  0.0111 -0.0758
 1837SOL    HW2 7080   4.851   1.939   3.221 -0.3442 -0.0017  0.0225
 1837SOL    HW3 7081   4.884   1.970   3.366 -0.1455  2.2127 -0.4496
 1837SOL    MW4 7082   4.910   1.952   3.284 -0.2116  0.0024  0.3413
 1838SOL     OW 7083   3.796   0.556   3.166 -0.3131  0.1242  0.5198
 1838SOL    HW2 7084   3.706   0.524   3.158  0.3292 -1.5519 -0.3474
 1838SOL    HW3 7085   3.786   0.652   3.165 -2.0488 -0.0133  0.0411
 1838SOL    MW4 7086   3.783   0.565   3.165 -0.0608 -0.8594  0.6668
 1839SOL     OW 7087   2.490   5.253   1.269  0.1064  0.5686 -0.9755
 1839SOL    HW2 7088   2.577   5.235   1.303 -0.5956  0.2798  0.8014
 1839SOL    HW3 7089   2.493   5.225   1.178  2.0061  1.0583 -1.1110
 1839SOL    MW4 7090   2.502   5.247   1.262 -0.3838 -0.5729 -0.1544
 1840SOL     OW 7091   4.776   3.745   3.423 -1.0585  0.3878 -0.3430
 1840SOL    HW2 7092   4.796   3.820   3.479 -1.1944 -0.2525  0.5970
 1840SOL    HW3 7093   4.781   3.779   3.334  3.8623  0.4058 -0.2773
 1840SOL    MW4 7094   4.779   3.760   3.419 -0.0481 -0.2676  0.1872
 1841SOL     OW 7095   1.328   2.169   3.919  0.0348 -0.2571  0.9329
 1841SOL    HW2 7096   1.392   2.130   3.978 -0.1809 -0.8814  0.7625
 1841SOL    HW3 7097   1.379   2.197   3.843  0.5437  1.7923  1.9356
 1841SOL    MW4 7098   1.343   2.168   3.917  0.7044 -0.0289  0.5761
 1842SOL     OW 7099   1.029   2.173   6.248 -0.0712 -0.0157 -0.1309
 1842SOL    HW2 7100   1.043   2.183   6.154  0.5202  0.1358 -0.0268
 1842SOL    HW3 7101   1.009   2.080   6.260 -1.1417  0.1473 -0.5293
 1842SOL    MW4 7102   1.028   2.162   6.237  0.2336 -0.1080  0.2486
 1843SOL     OW 7103   4.637   3.411   5.853 -0.6036  0.2746 -0.5393
 1843SOL    HW2 7104   4.693   3.431   5.778 -1.2127  0.2282 -1.0167
 1843SOL    HW3 7105   4.648   3.317   5.866  0.3705  0.4743  0.1515
 1843SOL    MW4 7106   4.646   3.401   5.845 -0.2455 -0.2065 -0.0093
 1844SOL     OW 7107   1.841   0.166   0.124  0.6733  0.2092  0.0306
 1844SOL    HW2 7108   1.755   0.181   0.084  0.9046 -0.3433 -0.7030
 1844SOL    HW3 7109   1.898   0.231   0.083  0.6041  0.5772  0.5191
 1844SOL    MW4 7110   1.837   0.176   0.113 -0.0175 -0.9875  0.3174
 1845SOL     OW 7111   0.479   0.662   3.951  0.1005  0.3346  0.1054
 1845SOL    HW2 7112   0.530   0.634   4.027 -0.7289 -0.0562  0.5348
 1845SOL    HW3 7113   0.457   0.753   3.971  1.4386  0.8224 -0.5418
 1845SOL    MW4 7114   0.483   0.670   3.964  0.1372  0.0869 -0.4970
 1846SOL     OW 7115   3.933   1.129   1.310  0.2295 -0.1461  0.2167
 1846SOL    HW2 7116   3.975   1.091   1.387  1.2310  0.2728 -0.1105
 1846SOL    HW3 7117   4.001   1.183   1.270 -0.4560  0.0920 -0.6453
 1846SOL    MW4 7118   3.947   1.131   1.315 -0.0508 -0.2805  0.1501
 1847SOL     OW 7119   2.158   1.422   2.178  0.3542  0.4432 -0.5796
 1847SOL    HW2 7120   2.225   1.456   2.237 -0.9837 -0.0808  1.3339
 1847SOL    HW3 7121   2.168   1.327   2.181  0.4299  0.4179 -1.4058
 1847SOL    MW4 7122   2.168   1.414   2.186 -0.2723 -0.1822  0.8728
 1848SOL     OW 7123   2.155   1.031   3.646 -0.0927 -0.0066 -0.4992
 1848SOL    HW2 7124   2.119   1.052   3.559 -0.1946  1.2800 -0.1696
 1848SOL    HW3 7125   2.099   0.961   3.679  0.2635 -0.8792 -1.6735
 1848SOL    MW4 7126   2.143   1.025   3.639 -0.0331  0.2065 -0.0181
 1849SOL     OW 7127   4.117   2.523   6.051  0.0479 -0.4930  0.6142
 1849SOL    HW2 7128   4.086   2.610   6.074  0.4403  0.0064 -0.6306
 1849SOL    HW3 7129   4.102   2.470   6.129 -2.9540 -0.0577  0.4551
 1849SOL    MW4 7130   4.111   2.527   6.064  0.4976  0.3608 -0.3428
 1850SOL     OW 7131   2.388   0.339   1.889 -0.4331 -0.2071 -0.6236
 1850SOL    HW2 7132   2.459   0.402   1.902 -2.2100  1.3839  2.5865
 1850SOL    HW3 7133   2.333   0.378   1.820 -0.2861  0.5793 -0.3009
 1850SOL    MW4 7134   2.390   0.352   1.881 -0.3856  0.1112  0.0332
 1851SOL     OW 7135   3.927   3.013   1.461  0.0527 -0.1537  0.2119
 1851SOL    HW2 7136   3.906   3.106   1.451  0.6799 -0.0247  0.0763
 1851SOL    HW3 7137   3.903   2.992   1.551  0.4764  0.2863  0.4281
 1851SOL    MW4 7138   3.921   3.023   1.471  0.5545  0.8889  0.3867
 1852SOL     OW 7139   2.479   2.791   3.411  0.4242 -0.3836  0.7853
 1852SOL    HW2 7140   2.446   2.875   3.442 -0.8218  0.2765 -2.0209
 1852SOL    HW3 7141   2.548   2.813   3.348 -0.6475 -1.3144 -0.8200
 1852SOL    MW4 7142   2.484   2.805   3.406  0.3451  0.5032 -0.6769
 1853SOL     OW 7143   0.784   0.615   2.329  0.1939 -0.1270 -0.0552
 1853SOL    HW2 7144   0.746   0.637   2.414  0.3428 -0.7772  0.1827
 1853SOL    HW3 7145   0.717   0.641   2.266 -0.1126 -0.0733  0.2866
 1853SOL    MW4 7146   0.770   0.621   2.332  0.0309  0.4640 -0.4044
 1854SOL     OW 7147   2.874   0.617   6.075  0.0042 -0.3270 -0.5203
 1854SOL    HW2 7148   2.815   0.607   6.001 -0.9058 -1.3434  0.2976
 1854SOL    HW3 7149   2.823   0.587   6.150  1.5241 -1.1202  0.2376
 1854SOL    MW4 7150   2.860   0.612   6.075 -0.7603 -0.3884  0.6262
 1855SOL     OW 7151   2.401   4.701   5.204  0.4853  0.2220  0.6535
 1855SOL    HW2 7152   2.462   4.635   5.172  0.0387  0.2938 -0.3793
 1855SOL    HW3 7153   2.444   4.785   5.186 -0.8973  0.4040 -2.4020
 1855SOL    MW4 7154   2.414   4.704   5.197  0.3701 -0.4044  0.6336
 1856SOL     OW 7155   1.468   1.435   2.698  0.4344 -0.2849 -0.0559
 1856SOL    HW2 7156   1.485   1.454   2.790  0.7208 -1.4271  0.1364
 1856SOL    HW3 7157   1.510   1.507   2.650  2.1365 -0.8118  0.6020
 1856SOL    MW4 7158   1.475   1.447   2.704 -0.0349 -0.3239  0.7520
 1857SOL     OW 7159   1.403   2.194   4.876 -0.3180 -0.2397 -0.0374
 1857SOL    HW2 7160   1.315   2.227   4.858 -0.0049  0.6107 -0.0464
 1857SOL    HW3 7161   1.432   2.155   4.793 -0.6197 -0.3705 -0.0810
 1857SOL    MW4 7162   1.395   2.193   4.863  0.0518 -0.0350 -0.0920
 1858SOL     OW 7163   3.142   1.496   1.364 -0.2396  0.0110 -0.0518
 1858SOL    HW2 7164   3.207   1.426   1.362 -1.1223 -0.8378 -1.1251
 1858SOL    HW3 7165   3.171   1.558   1.298 -0.4211 -0.2844 -0.4134
 1858SOL    MW4 7166   3.154   1.495   1.355 -0.0344  0.6130 -0.6971
 1859SOL     OW 7167   2.470   3.177   0.086 -0.0259 -0.4813 -0.2056
 1859SOL    HW2 7168   2.562   3.160   0.068  0.4176  0.3501  1.1201
 1859SOL    HW3 7169   2.426   3.095   0.065  1.1178 -1.1181 -0.1842
 1859SOL    MW4 7170   2.476   3.164   0.081 -0.5529  0.1337 -0.4734
 1860SOL     OW 7171   0.531   5.471   4.246  0.0711 -0.3511 -0.0255
 1860SOL    HW2 7172   0.479   5.474   4.166 -1.3399 -2.4557  0.7140
 1860SOL    HW3 7173   0.590   5.396   4.234 -0.8994 -1.3736  1.2632
 1860SOL    MW4 7174   0.532   5.462   4.234  0.3432  0.0956  0.2199
 1861SOL     OW 7175   3.330   2.458   1.809 -0.1805 -0.2247  0.2431
 1861SOL    HW2 7176   3.354   2.400   1.882  1.0929 -2.0380 -1.4982
 1861SOL    HW3 7177   3.370   2.416   1.732 -1.0864  1.8507 -1.4315
 1861SOL    MW4 7178   3.339   2.445   1.808  0.2973 -0.0369  0.0533
 1862SOL     OW 7179   5.801   4.005   2.963 -0.5003  0.6980  0.5848
 1862SOL    HW2 7180   5.833   4.081   3.012 -0.4556  1.7869 -1.0445
 1862SOL    HW3 7181   5.879   3.952   2.947 -0.2338  1.1844  0.2651
 1862SOL    MW4 7182   5.815   4.008   2.967 -0.3982  0.3086  0.3333
 1863SOL     OW 7183   3.997   1.107   5.189 -0.1304  0.5615 -0.3558
 1863SOL    HW2 7184   3.923   1.155   5.225 -0.3690 -0.5908  0.7358
 1863SOL    HW3 7185   3.966   1.017   5.181  1.5770 -0.2536  1.4961
 1863SOL    MW4 7186   3.983   1.101   5.192 -0.3725  0.4696 -0.6514
 1864SOL     OW 7187   2.698   4.678   4.499  0.4130 -0.1309  0.0689
 1864SOL    HW2 7188   2.759   4.751   4.502 -1.6997  1.7906 -0.4712
 1864SOL    HW3 7189   2.672   4.672   4.407  1.3366 -2.3242 -0.0987
 1864SOL    MW4 7190   2.702   4.687   4.487  0.4695 -0.6860  0.2858
 1865SOL     OW 7191   6.201   0.025   4.898  0.4929  0.1539  0.3602
 1865SOL    HW2 7192   6.231  -0.038   4.833 -0.7908 -1.4739  1.3021
 1865SOL    HW3 7193   6.282   0.063   4.932  1.2280  0.2527 -1.3622
 1865SOL    MW4 7194   6.216   0.022   4.894 -0.2050  0.6371  0.4771
 1866SOL     OW 7195   5.267   0.079   1.852 -0.8076 -0.5430 -0.4712
 1866SOL    HW2 7196   5.337   0.077   1.787 -0.7253  0.4830 -0.4268
 1866SOL    HW3 7197   5.192   0.038   1.808 -0.7085  0.0100 -1.1660
 1866SOL    MW4 7198   5.266   0.073   1.838  0.2241 -0.5260 -0.1753
 1867SOL     OW 7199   6.338   4.119   3.613 -0.2827 -0.2963  0.0839
 1867SOL    HW2 7200   6.308   4.203   3.578 -0.0828  0.2128  1.1103
 1867SOL    HW3 7201   6.290   4.109   3.695  0.5347 -0.6485  0.5279
 1867SOL    MW4 7202   6.328   4.129   3.619  0.0073 -0.0613 -0.1021
 1868SOL     OW 7203   4.434   4.271   2.829  0.1099  0.8195 -0.6167
 1868SOL    HW2 7204   4.491   4.315   2.766  2.7587 -1.6520 -0.1511
 1868SOL    HW3 7205   4.411   4.188   2.786 -0.7063  0.4934  0.4115
 1868SOL    MW4 7206   4.438   4.266   2.815  0.0054  0.0627  0.2367
 1869SOL     OW 7207   4.525   5.245   0.322  0.6444 -0.0214  0.2277
 1869SOL    HW2 7208   4.589   5.257   0.252  0.3184  0.5970  0.0336
 1869SOL    HW3 7209   4.554   5.305   0.391  1.3685 -1.1349  0.9137
 1869SOL    MW4 7210   4.537   5.255   0.322  0.1733  0.3220 -0.0501
 1870SOL     OW 7211   1.230   1.192   2.983 -0.5247  0.3451  0.5224
 1870SOL    HW2 7212   1.262   1.236   3.062  0.1873 -0.4092  0.6589
 1870SOL    HW3 7213   1.307   1.183   2.927 -1.0782  1.1215 -0.3897
 1870SOL    MW4 7214   1.244   1.197   2.986 -0.4565 -0.1077 -0.2793
 1871SOL     OW 7215   1.875   3.530   2.465 -0.0786 -0.4922  0.1333
 1871SOL    HW2 7216   1.806   3.555   2.526 -0.9204  0.0216 -0.9857
 1871SOL    HW3 7217   1.917   3.454   2.506 -2.8893 -2.3995 -0.2395
 1871SOL    MW4 7218   1.871   3.524   2.479 -0.3373  0.1756 -0.2599
 1872SOL     OW 7219   4.031   2.766   6.154 -0.7024  0.6823  0.0409
 1872SOL    HW2 7220   3.939   2.743   6.167 -0.1035 -0.3201  3.1457
 1872SOL    HW3 7221   4.072   2.755   6.240  2.1616  2.0021 -1.0128
 1872SOL    MW4 7222   4.024   2.761   6.167  0.6943  0.1527 -0.1909
 1873SOL     OW 7223   3.939   3.841   5.437 -0.3396  0.0360  0.4780
 1873SOL    HW2 7224   3.895   3.814   5.356 -0.5408  1.3940  0.0953
 1873SOL    HW3 7225   3.949   3.761   5.488 -1.8609 -0.5706 -0.1153
 1873SOL    MW4 7226   3.934   3.827   5.433 -0.3422 -0.1939 -0.0942
 1874SOL     OW 7227   3.121   5.730   3.716  0.4839 -0.2510 -0.0424
 1874SOL    HW2 7228   3.067   5.710   3.639 -0.1442  0.9172  0.0760
 1874SOL    HW3 7229   3.183   5.657   3.720  0.1226 -0.6665 -1.2777
 1874SOL    MW4 7230   3.122   5.717   3.706 -0.6978  0.1908  0.7539
 1875SOL     OW 7231   1.475   2.048   5.653  0.3078 -0.9442  0.2683
 1875SOL    HW2 7232   1.545   1.990   5.685  1.9726 -0.3522 -2.0353
 1875SOL    HW3 7233   1.507   2.079   5.569 -2.2049  0.4273 -0.2644
 1875SOL    MW4 7234   1.489   2.044   5.646 -0.0151  0.4629  0.0470
 1876SOL     OW 7235   5.121   3.852   0.740 -0.1858  0.1993 -0.4664
 1876SOL    HW2 7236   5.037   3.891   0.761 -0.1130  1.4229 -2.1349
 1876SOL    HW3 7237   5.117   3.836   0.645  1.3352  0.0529 -0.5423
 1876SOL    MW4 7238   5.110   3.855   0.730 -0.6772 -0.0748 -0.2893
 1877SOL     OW 7239   1.764   5.375   1.475  0.4501 -0.8607 -0.0586
 1877SOL    HW2 7240   1.705   5.408   1.543  0.1903  1.2573 -1.2151
 1877SOL    HW3 7241   1.711   5.312   1.426 -2.1854  3.0718 -2.9240
 1877SOL    MW4 7242   1.749   5.371   1.477  0.2807 -0.9413  0.0169
 1878SOL     OW 7243   2.018   5.896   0.542 -0.4751 -0.4082 -0.6057
 1878SOL    HW2 7244   2.016   5.817   0.489  1.2391  0.4692 -2.0834
 1878SOL    HW3 7245   2.057   5.962   0.485 -1.6552  1.4656  0.6530
 1878SOL    MW4 7246   2.023   5.894   0.528 -0.2458 -0.3185 -1.0291
 1879SOL     OW 7247   5.156   2.321   5.303 -0.0459 -0.1498 -0.2247
 1879SOL    HW2 7248   5.197   2.363   5.379  0.4490 -2.1799  0.7054
 1879SOL    HW3 7249   5.220   2.332   5.232 -1.7772  4.4852 -1.4105
 1879SOL    MW4 7250   5.170   2.328   5.304  0.3040 -0.1127  0.3527
 1880SOL     OW 7251   3.381   0.352   6.185 -0.0042 -0.2469  0.7062
 1880SOL    HW2 7252   3.449   0.410   6.150  0.9306 -0.7796  1.5789
 1880SOL    HW3 7253   3.402   0.344   6.278 -0.8343 -1.0236  0.8371
 1880SOL    MW4 7254   3.393   0.359   6.192 -0.5709  0.3090 -0.4714
 1881SOL     OW 7255   3.502   5.846   3.671 -0.3570 -0.7543  0.4842
 1881SOL    HW2 7256   3.475   5.756   3.692 -1.2071 -0.1300  2.2736
 1881SOL    HW3 7257   3.424   5.898   3.687  0.1599  0.3247 -0.4346
 1881SOL    MW4 7258   3.488   5.841   3.676  0.0302  0.0597 -0.1737
 1882SOL     OW 7259   6.005   4.195   6.391  0.0835  0.6064  0.2313
 1882SOL    HW2 7260   6.038   4.247   6.318  1.6758  0.9037  1.1176
 1882SOL    HW3 7261   5.924   4.239   6.416  0.1789  1.2471 -0.5434
 1882SOL    MW4 7262   5.999   4.208   6.385  0.5621  0.8086 -0.3297
 1883SOL     OW 7263   2.775   0.625   5.531  0.0517  0.4056 -0.0177
 1883SOL    HW2 7264   2.835   0.699   5.528  0.6002 -0.0473 -1.8098
 1883SOL    HW3 7265   2.825   0.553   5.492 -1.1276 -0.3804 -0.1116
 1883SOL    MW4 7266   2.790   0.625   5.525 -0.1375 -0.1917 -0.0960
 1884SOL     OW 7267   3.537   1.085   0.522  0.1187 -0.0561 -0.0575
 1884SOL    HW2 7268   3.625   1.084   0.485  0.6942  0.0761  1.2566
 1884SOL    HW3 7269   3.498   1.167   0.492  0.3662 -0.1911 -0.7723
 1884SOL    MW4 7270   3.543   1.095   0.513  0.3203  0.4757 -0.0258
 1885SOL     OW 7271   5.071   0.895   2.067  0.1442 -0.2869 -0.0057
 1885SOL    HW2 7272   5.057   0.816   2.015  1.6605 -1.2093  0.8871
 1885SOL    HW3 7273   5.013   0.884   2.143  0.7906 -0.8897  0.4253
 1885SOL    MW4 7274   5.061   0.883   2.070  0.0252 -0.2525  0.1361
 1886SOL     OW 7275   4.941   6.200   0.252 -0.1946 -0.0430  0.5404
 1886SOL    HW2 7276   4.846   6.200   0.267 -0.0849  2.4613  1.7055
 1886SOL    HW3 7277   4.961   6.289   0.225  1.8031 -0.6431 -0.1436
 1886SOL    MW4 7278   4.931   6.212   0.250 -0.2082 -0.1527 -0.0744
 1887SOL     OW 7279   4.416   2.158   3.839 -0.0959 -0.2686  0.3831
 1887SOL    HW2 7280   4.372   2.121   3.915 -0.0473  0.5991  0.8359
 1887SOL    HW3 7281   4.508   2.165   3.865 -0.0390 -0.1869  0.1649
 1887SOL    MW4 7282   4.423   2.154   3.852  0.1241 -0.0922 -0.1306
 1888SOL     OW 7283   4.330   0.339   1.321  0.4810  0.6254  0.7092
 1888SOL    HW2 7284   4.322   0.353   1.415 -0.1086  1.4602  0.5424
 1888SOL    HW3 7285   4.312   0.246   1.309  0.8976  0.4409  1.4563
 1888SOL    MW4 7286   4.327   0.328   1.331 -0.1408  0.3109  0.3180
 1889SOL     OW 7287   6.186   4.535   5.017 -0.1246 -0.4456  0.3047
 1889SOL    HW2 7288   6.099   4.567   4.994  0.4354  0.5702 -0.4571
 1889SOL    HW3 7289   6.219   4.493   4.938 -0.7107 -2.7557  1.1797
 1889SOL    MW4 7290   6.179   4.534   5.004  0.5526  0.5000 -0.5505
 1890SOL     OW 7291   1.006   3.982   0.191  0.8229  0.2046 -0.2910
 1890SOL    HW2 7292   1.083   4.033   0.166  2.0808 -1.5488 -0.1762
 1890SOL    HW3 7293   0.999   3.995   0.286  0.0980  1.4800 -0.4956
 1890SOL    MW4 7294   1.016   3.990   0.201 -0.3772 -0.2913 -0.3853
 1891SOL     OW 7295   4.132   4.693   0.891  0.6316  0.6650 -0.2057
 1891SOL    HW2 7296   4.082   4.772   0.871 -0.5734 -0.3595 -1.3634
 1891SOL    HW3 7297   4.071   4.636   0.937  1.3338  0.1877  0.1704
 1891SOL    MW4 7298   4.118   4.696   0.895  0.2655  0.6072  0.0544
 1892SOL     OW 7299   0.634   5.744   0.839  0.5408  0.0393 -0.6387
 1892SOL    HW2 7300   0.654   5.788   0.922  0.9459 -2.0572  0.4522
 1892SOL    HW3 7301   0.548   5.703   0.854  0.8422 -0.7617 -1.0548
 1892SOL    MW4 7302   0.625   5.744   0.852 -0.2667  0.0642  0.0703
 1893SOL     OW 7303   6.410   4.504   6.080  0.3207 -0.3751  0.8599
 1893SOL    HW2 7304   6.329   4.499   6.029  0.5489  1.5603  0.2314
 1893SOL    HW3 7305   6.433   4.413   6.097 -0.6492 -1.0397 -1.0913
 1893SOL    MW4 7306   6.402   4.491   6.076  1.0059 -0.1233  0.3919
 1894SOL     OW 7307   0.860   3.471   5.300  0.0716 -0.5232 -0.2287
 1894SOL    HW2 7308   0.882   3.421   5.379  2.1786 -0.0791 -0.4598
 1894SOL    HW3 7309   0.928   3.447   5.237 -0.1808  0.9316 -1.0977
 1894SOL    MW4 7310   0.872   3.461   5.302  0.7341 -0.5428  0.1869
 1895SOL     OW 7311   5.398   4.375   4.008 -0.0675 -0.6411  0.5497
 1895SOL    HW2 7312   5.344   4.449   4.036 -2.7021 -1.7842 -1.1589
 1895SOL    HW3 7313   5.486   4.411   4.001 -1.4350  2.7269 -1.4806
 1895SOL    MW4 7314   5.403   4.389   4.011 -0.2051  0.2090 -0.8104
 1896SOL     OW 7315   2.929   1.778   0.334 -0.5633  0.5605 -0.1560
 1896SOL    HW2 7316   2.920   1.848   0.398  1.7806  0.4844  0.3547
 1896SOL    HW3 7317   2.908   1.698   0.383  1.3533  0.4872  0.6361
 1896SOL    MW4 7318   2.925   1.777   0.349  0.1571  0.5532  0.4069
 1897SOL     OW 7319   1.048   1.720   3.022 -0.3094 -0.5981  0.4194
 1897SOL    HW2 7320   1.123   1.758   3.068  0.6004 -1.6206 -0.1763
 1897SOL    HW3 7321   1.065   1.738   2.930 -0.9289 -0.6380  0.2905
 1897SOL    MW4 7322   1.060   1.728   3.016  0.3353 -0.1433  0.5832
 1898SOL     OW 7323   2.070   0.976   3.094 -0.2647  0.2854 -0.5462
 1898SOL    HW2 7324   2.137   1.021   3.043  0.4879  0.0310  0.1873
 1898SOL    HW3 7325   2.039   0.906   3.036 -0.9528  1.3036 -1.4344
 1898SOL    MW4 7326   2.075   0.973   3.080 -0.1808 -0.2480 -0.0410
 1899SOL     OW 7327   4.059   4.476   3.226  0.3800 -0.1899 -0.2433
 1899SOL    HW2 7328   4.025   4.561   3.201  0.4839 -0.2007 -0.4175
 1899SOL    HW3 7329   4.107   4.445   3.150  1.3722  0.1287  0.2282
 1899SOL    MW4 7330   4.061   4.483   3.213 -0.4458 -0.0348  0.3832
 1900SOL     OW 7331   6.385   1.893   0.413  0.0708  0.3286  0.4143
 1900SOL    HW2 7332   6.369   1.812   0.460 -2.7204  0.8031  0.4161
 1900SOL    HW3 7333   6.398   1.866   0.322  0.4775 -0.1943  0.6239
 1900SOL    MW4 7334   6.385   1.879   0.407  0.1374 -0.6326 -0.1272
 1901SOL     OW 7335   6.268   3.196   0.100  0.1417  0.2076 -0.2159
 1901SOL    HW2 7336   6.241   3.284   0.125 -0.9241 -0.1110 -0.2178
 1901SOL    HW3 7337   6.226   3.138   0.163 -0.7146 -0.4274 -1.3269
 1901SOL    MW4 7338   6.259   3.200   0.111  0.1694  0.7418  0.5211
 1902SOL     OW 7339   5.237   1.853   3.189 -0.0883  0.1355  0.2066
 1902SOL    HW2 7340   5.287   1.789   3.139  1.5874 -0.1987  2.1903
 1902SOL    HW3 7341   5.214   1.808   3.270 -1.6037  1.0671  0.3440
 1902SOL    MW4 7342   5.240   1.839   3.193 -0.5889  0.1089  0.2772
 1903SOL     OW 7343   0.343   5.328   1.920  0.4750  0.3514  0.6477
 1903SOL    HW2 7344   0.314   5.298   1.835  0.2210  1.5677  0.2836
 1903SOL    HW3 7345   0.329   5.254   1.979 -1.5710  0.2705  0.0982
 1903SOL    MW4 7346   0.338   5.314   1.917 -0.0677 -0.1188  0.3352
 1904SOL     OW 7347   1.324   1.104   4.434 -0.3830  0.3792 -0.7460
 1904SOL    HW2 7348   1.388   1.151   4.381 -0.7315  2.5644  0.6403
 1904SOL    HW3 7349   1.240   1.120   4.390 -0.4344  0.6332 -0.5587
 1904SOL    MW4 7350   1.321   1.113   4.421  0.1740  0.0611 -0.2489
 1905SOL     OW 7351   1.415   2.432   5.171 -0.5982 -0.0331 -0.5840
 1905SOL    HW2 7352   1.480   2.426   5.241 -0.9121  0.0577 -0.2875
 1905SOL    HW3 7353   1.467   2.448   5.092 -0.3373  1.2057 -0.1708
 1905SOL    MW4 7354   1.431   2.433   5.170 -0.5192  0.0717  0.1051
 1906SOL     OW 7355   1.158   1.338   4.103 -0.3944 -0.0944  0.0949
 1906SOL    HW2 7356   1.223   1.408   4.102 -0.3848 -0.0921 -1.2489
 1906SOL    HW3 7357   1.097   1.361   4.033 -1.1806 -0.7134  0.5571
 1906SOL    MW4 7358   1.159   1.350   4.093 -0.9383 -0.4182  0.5765
 1907SOL     OW 7359   4.377   3.597   1.163 -0.2073  0.2053  0.5150
 1907SOL    HW2 7360   4.302   3.655   1.152  0.0833  0.6844  1.0316
 1907SOL    HW3 7361   4.340   3.509   1.163 -0.7180  0.4203  0.3287
 1907SOL    MW4 7362   4.362   3.593   1.162 -0.3008 -0.2571  0.9642
 1908SOL     OW 7363   5.173   2.809   4.827  0.3149  0.1829  0.2410
 1908SOL    HW2 7364   5.224   2.855   4.761 -0.2270 -1.9209 -1.8029
 1908SOL    HW3 7365   5.087   2.796   4.787  0.2028 -1.8483  0.9709
 1908SOL    MW4 7366   5.168   2.813   4.813 -0.1482 -0.4119  0.3077
 1909SOL     OW 7367   2.386   4.176   4.785 -0.0579 -0.0434  0.6249
 1909SOL    HW2 7368   2.402   4.107   4.721 -0.3825 -0.4116  0.9340
 1909SOL    HW3 7369   2.380   4.256   4.734 -0.7051 -0.3880  0.1564
 1909SOL    MW4 7370   2.388   4.177   4.770 -0.1356 -0.1674 -0.5194
 1910SOL     OW 7371   0.573   3.140   2.280  0.4880  0.6152  0.0366
 1910SOL    HW2 7372   0.483   3.121   2.307  0.0971 -0.5145 -1.9201
 1910SOL    HW3 7373   0.564   3.193   2.201  1.4854 -1.1975 -1.3538
 1910SOL    MW4 7374   0.560   3.145   2.273  0.1799 -0.2259 -0.4903
 1911SOL     OW 7375   5.527   5.527   5.008 -0.1498  0.0021  0.1181
 1911SOL    HW2 7376   5.588   5.535   5.082  0.6514  0.7610 -0.6043
 1911SOL    HW3 7377   5.443   5.557   5.043  0.2648  0.5325  0.6909
 1911SOL    MW4 7378   5.524   5.532   5.022 -0.4209  0.0888  0.4443
 1912SOL     OW 7379   1.535   4.146   3.704 -0.4218  0.3390 -0.0774
 1912SOL    HW2 7380   1.592   4.074   3.731 -1.6158  0.7938  4.4023
 1912SOL    HW3 7381   1.593   4.207   3.657  1.2481 -2.0501 -1.3185
 1912SOL    MW4 7382   1.550   4.145   3.701  0.2295  0.4939  0.1279
 1913SOL     OW 7383   3.677   6.109   2.645  0.5583 -0.1944  0.1162
 1913SOL    HW2 7384   3.635   6.144   2.566  0.4595 -1.9062 -0.6449
 1913SOL    HW3 7385   3.628   6.146   2.718 -2.2563 -1.9851 -0.7207
 1913SOL    MW4 7386   3.665   6.118   2.644 -0.0499  0.2563  0.8176
 1914SOL     OW 7387   4.901   4.510   0.336 -0.3514  0.2001  0.5715
 1914SOL    HW2 7388   4.900   4.599   0.372  0.8491  0.0962  0.9280
 1914SOL    HW3 7389   4.829   4.508   0.273 -1.3266  0.9545  1.6469
 1914SOL    MW4 7390   4.892   4.522   0.332 -0.1437  0.5821 -0.6431
 1915SOL     OW 7391   1.215   2.039   5.781 -0.1883  0.0695  0.3666
 1915SOL    HW2 7392   1.165   1.977   5.727  0.6172  0.3314 -0.7083
 1915SOL    HW3 7393   1.300   2.045   5.738  0.1128  1.1048  1.0805
 1915SOL    MW4 7394   1.219   2.031   5.768  0.2009 -0.0523 -0.2616
 1916SOL     OW 7395   0.279   0.466   1.715 -0.0677 -0.7503  0.1216
 1916SOL    HW2 7396   0.352   0.518   1.681  3.5021 -3.8792  2.2526
 1916SOL    HW3 7397   0.249   0.415   1.639  0.2947  0.1585 -0.6612
 1916SOL    MW4 7398   0.285   0.466   1.700  0.1980 -0.4044 -0.1622
 1917SOL     OW 7399   4.143   4.240   0.129 -0.2622 -0.0920  0.1720
 1917SOL    HW2 7400   4.087   4.278   0.062 -2.1064 -0.9942  1.1396
 1917SOL    HW3 7401   4.122   4.289   0.208  0.1895 -0.5720  0.6003
 1917SOL    MW4 7402   4.133   4.252   0.131  0.7805  0.2554  0.1441
 1918SOL     OW 7403   3.858   1.527   5.205  0.1556  0.1641  0.0849
 1918SOL    HW2 7404   3.869   1.558   5.115  0.3917 -0.5712 -0.1479
 1918SOL    HW3 7405   3.827   1.436   5.195 -0.3527  0.2583  0.7423
 1918SOL    MW4 7406   3.855   1.519   5.192 -0.4228 -0.0431 -0.1695
 1919SOL     OW 7407   3.027   1.784   4.187 -0.2680 -0.4317 -0.7217
 1919SOL    HW2 7408   3.075   1.745   4.114  0.3238  1.2140 -1.2523
 1919SOL    HW3 7409   3.009   1.874   4.159  1.3501  0.7871  1.7355
 1919SOL    MW4 7410   3.031   1.791   4.174  0.7609 -0.0505  0.1730
 1920SOL     OW 7411   4.155   4.799   5.665 -0.5413  0.1479  0.3271
 1920SOL    HW2 7412   4.200   4.714   5.665 -0.3396  0.2554  0.3298
 1920SOL    HW3 7413   4.140   4.819   5.573 -0.2915  0.2676  0.3129
 1920SOL    MW4 7414   4.159   4.790   5.653 -0.0579  0.3752  0.2773
 1921SOL     OW 7415   0.506   4.577   1.988 -0.7208  0.1005  0.0709
 1921SOL    HW2 7416   0.510   4.494   1.940 -0.3575  0.5290 -0.6518
 1921SOL    HW3 7417   0.446   4.559   2.061 -2.1334 -0.2739 -1.1212
 1921SOL    MW4 7418   0.498   4.564   1.991  0.2044  0.2348  0.4239
 1922SOL     OW 7419   0.074   6.126   4.794  0.2141  0.0421  0.3962
 1922SOL    HW2 7420   0.056   6.036   4.766  1.6586 -0.5940  1.3377
 1922SOL    HW3 7421   0.101   6.117   4.886 -0.3118  1.5344  0.7225
 1922SOL    MW4 7422   0.075   6.113   4.803 -0.0202  0.2961 -0.0145
 1923SOL     OW 7423   1.964   1.336   4.778  0.2699  0.3137 -0.1645
 1923SOL    HW2 7424   1.989   1.404   4.841 -0.6023 -0.0722  0.6145
 1923SOL    HW3 7425   2.035   1.272   4.783  0.5948  0.6654 -0.1698
 1923SOL    MW4 7426   1.977   1.337   4.787  0.1825  0.5250  0.0117
 1924SOL     OW 7427   3.303   1.741   3.262 -0.6547  0.0235 -0.7111
 1924SOL    HW2 7428   3.397   1.751   3.249 -0.8976  1.2162 -1.8117
 1924SOL    HW3 7429   3.286   1.647   3.247  0.2867 -0.0996 -1.0413
 1924SOL    MW4 7430   3.313   1.730   3.258 -0.1651 -0.0340  0.1631
 1925SOL     OW 7431   2.947   0.065   1.586  0.0988 -0.3844 -0.1563
 1925SOL    HW2 7432   3.001  -0.014   1.578 -0.3101 -0.7444  0.5365
 1925SOL    HW3 7433   3.006   0.130   1.625  0.2177 -0.5809 -0.0073
 1925SOL    MW4 7434   2.962   0.064   1.590 -0.3295  0.3385  0.3242
 1926SOL     OW 7435   1.834   5.046   1.626 -0.2178  0.3190 -0.6965
 1926SOL    HW2 7436   1.755   5.079   1.669  0.3648  0.3469  0.4038
 1926SOL    HW3 7437   1.897   5.117   1.634  0.2213 -0.0695 -0.6778
 1926SOL    MW4 7438   1.832   5.060   1.633 -0.1170  0.3050 -0.4728
 1927SOL     OW 7439   1.825   5.482   5.888 -0.0921 -0.1053 -0.4468
 1927SOL    HW2 7440   1.808   5.449   5.800  1.8352  0.1014 -0.9558
 1927SOL    HW3 7441   1.874   5.564   5.874  0.6032 -0.2780  0.7887
 1927SOL    MW4 7442   1.830   5.489   5.875 -0.6287 -0.0991  0.0907
 1928SOL     OW 7443   0.495   2.037   5.687 -0.4205  0.1669  0.0193
 1928SOL    HW2 7444   0.583   2.074   5.689 -0.9479  1.5100  0.0206
 1928SOL    HW3 7445   0.444   2.093   5.746 -0.7722 -2.0666  1.9435
 1928SOL    MW4 7446   0.500   2.050   5.695 -0.1408  0.0713  0.2079
 1929SOL     OW 7447   5.920   2.802   5.875  0.0952 -0.0228  0.5412
 1929SOL    HW2 7448   5.980   2.728   5.868  1.4970  1.1935 -0.8536
 1929SOL    HW3 7449   5.875   2.805   5.791 -1.6948 -0.6636  1.4230
 1929SOL    MW4 7450   5.922   2.792   5.863 -0.2552  0.4381  0.8099
 1930SOL     OW 7451   2.821   6.300   3.315 -0.1006  0.0656 -0.7015
 1930SOL    HW2 7452   2.804   6.259   3.400 -1.3593 -0.6215 -1.2562
 1930SOL    HW3 7453   2.909   6.336   3.323  0.1119 -0.6802  0.6221
 1930SOL    MW4 7454   2.830   6.300   3.327  0.1831 -0.0081  0.0899
 1931SOL     OW 7455   5.313   4.566   2.638 -0.2400 -0.1579  0.2868
 1931SOL    HW2 7456   5.372   4.499   2.604  0.3213  0.4384  0.0590
 1931SOL    HW3 7457   5.232   4.555   2.589 -1.1199 -2.3863  2.0707
 1931SOL    MW4 7458   5.310   4.556   2.627  0.2615  0.0821 -0.4589
 1932SOL     OW 7459   5.844   5.859   0.430  0.3418  0.0243  0.4874
 1932SOL    HW2 7460   5.874   5.769   0.447  0.1172 -0.0597  0.4375
 1932SOL    HW3 7461   5.852   5.869   0.335  0.5258  0.1156  0.5108
 1932SOL    MW4 7462   5.849   5.848   0.419 -0.2865 -0.0404 -0.2028
 1933SOL     OW 7463   5.270   3.227   4.338  0.4781  0.3547  0.5614
 1933SOL    HW2 7464   5.340   3.202   4.398 -0.5264 -0.5493  1.3982
 1933SOL    HW3 7465   5.236   3.308   4.374  1.2162  0.9211  0.0235
 1933SOL    MW4 7466   5.275   3.234   4.351  0.0399 -0.5222  0.1689
 1934SOL     OW 7467   6.240   5.340   4.377 -0.1408 -0.2648  0.0459
 1934SOL    HW2 7468   6.155   5.300   4.395 -0.2706  0.6556  1.7267
 1934SOL    HW3 7469   6.261   5.387   4.458  1.4213  0.4887 -0.7662
 1934SOL    MW4 7470   6.231   5.341   4.390  0.0308  0.4172  0.1675
 1935SOL     OW 7471   1.843   0.515   3.360  0.3424  0.1095 -0.0473
 1935SOL    HW2 7472   1.890   0.502   3.277  1.2325 -1.3926  0.6346
 1935SOL    HW3 7473   1.801   0.430   3.377  2.0009 -0.3912  2.0899
 1935SOL    MW4 7474   1.844   0.502   3.351 -0.2964  0.3705  0.0018
 1936SOL     OW 7475   0.667   3.852   5.406 -0.6434 -0.1625 -0.5869
 1936SOL    HW2 7476   0.717   3.816   5.333 -0.2633 -0.2233 -0.2970
 1936SOL    HW3 7477   0.658   3.945   5.386  1.5480  0.3333  0.4516
 1936SOL    MW4 7478   0.672   3.859   5.394 -0.0568  0.4719  0.1272
 1937SOL     OW 7479   2.256   1.807   1.156  0.1200  0.0900  0.2122
 1937SOL    HW2 7480   2.335   1.765   1.190  0.2055 -0.1703 -0.2984
 1937SOL    HW3 7481   2.197   1.810   1.231 -0.1781 -1.6514  0.0829
 1937SOL    MW4 7482   2.259   1.802   1.171  0.0308 -0.1830  0.0616
 1938SOL     OW 7483   6.321   5.687   5.108 -0.4717  0.0892 -0.2522
 1938SOL    HW2 7484   6.412   5.710   5.125 -0.9249  1.8862  0.0449
 1938SOL    HW3 7485   6.307   5.605   5.155  0.9787 -0.2048 -0.2959
 1938SOL    MW4 7486   6.331   5.680   5.117  0.2155  0.0643 -0.0011
 1939SOL     OW 7487   5.965   4.740   2.573  0.2446  0.2803 -0.0347
 1939SOL    HW2 7488   5.874   4.768   2.560 -0.2053 -0.3727  1.4534
 1939SOL    HW3 7489   5.995   4.793   2.647  0.9121  0.1262 -0.1926
 1939SOL    MW4 7490   5.957   4.751   2.581  0.2506  0.0854 -0.0899
 1940SOL     OW 7491   1.058   3.022   0.994  0.0380  0.3098  0.0486
 1940SOL    HW2 7492   1.153   3.025   0.993  0.1326 -1.7028 -0.4190
 1940SOL    HW3 7493   1.037   2.941   1.040 -1.4766  1.0348  0.7113
 1940SOL    MW4 7494   1.067   3.011   1.000  0.3291 -0.0460  0.4995
 1941SOL     OW 7495   5.384   0.312   5.042  0.0264 -0.2869  0.0252
 1941SOL    HW2 7496   5.302   0.318   4.994 -0.1326 -1.2742  0.1476
 1941SOL    HW3 7497   5.450   0.296   4.974 -0.0955 -0.9523  0.0575
 1941SOL    MW4 7498   5.382   0.311   5.026 -0.4829  0.3834 -0.0162
 1942SOL     OW 7499   3.019   2.799   1.469 -0.1360  0.1663 -0.0684
 1942SOL    HW2 7500   3.010   2.889   1.502  1.3232  0.1172  0.4990
 1942SOL    HW3 7501   3.038   2.747   1.546 -1.0176 -0.6575 -0.3935
 1942SOL    MW4 7502   3.020   2.804   1.483  0.3428  0.1400  0.0960
 1943SOL     OW 7503   2.718   0.291   0.193  0.1739  0.4204 -0.0179
 1943SOL    HW2 7504   2.632   0.323   0.221 -0.9916 -1.5011 -1.1503
 1943SOL    HW3 7505   2.706   0.269   0.100  1.7146 -0.4554 -0.0499
 1943SOL    MW4 7506   2.705   0.292   0.184 -0.0440 -0.2052  0.3723
 1944SOL     OW 7507   1.121   2.020   2.643  0.2108 -0.0776  0.0079
 1944SOL    HW2 7508   1.029   1.996   2.648 -0.5509  2.1367 -1.6910
 1944SOL    HW3 7509   1.137   2.038   2.550  2.0230  0.7771  0.4301
 1944SOL    MW4 7510   1.111   2.019   2.632  0.9366 -0.2561  0.4292
 1945SOL     OW 7511   0.611   5.131   2.201  0.0120 -0.0293  0.2926
 1945SOL    HW2 7512   0.652   5.108   2.284 -1.3454 -0.7297  0.7991
 1945SOL    HW3 7513   0.563   5.053   2.175 -0.1135  0.4001 -0.8282
 1945SOL    MW4 7514   0.610   5.118   2.208  0.6855  0.5040 -0.1929
 1946SOL     OW 7515   1.330   0.300   0.324  0.4151 -0.0840  0.1947
 1946SOL    HW2 7516   1.290   0.257   0.399 -0.7551  0.2717 -0.1956
 1946SOL    HW3 7517   1.384   0.369   0.362 -0.8232  0.6432  0.7197
 1946SOL    MW4 7518   1.332   0.303   0.339  0.2421  0.0171 -0.1797
 1947SOL     OW 7519   0.613   5.087   3.803 -0.0844 -0.1802  0.1969
 1947SOL    HW2 7520   0.690   5.141   3.785 -0.1803 -0.6024 -1.6384
 1947SOL    HW3 7521   0.646   4.997   3.802 -0.2555 -0.2816  1.4683
 1947SOL    MW4 7522   0.627   5.082   3.801 -0.2732  0.3554 -0.3210
 1948SOL     OW 7523   4.413   1.424   1.150  0.2353 -0.0179 -0.1835
 1948SOL    HW2 7524   4.403   1.469   1.234  3.0264  1.2827 -0.4329
 1948SOL    HW3 7525   4.396   1.492   1.085 -3.1091 -1.2892 -0.8624
 1948SOL    MW4 7526   4.409   1.439   1.153  0.2992  0.3233 -0.3151
 1949SOL     OW 7527   1.361   5.986   0.400  0.4110  0.3008  0.6145
 1949SOL    HW2 7528   1.423   6.032   0.344 -0.2933 -1.6007 -1.9049
 1949SOL    HW3 7529   1.414   5.920   0.445  0.4506 -0.4971 -0.5736
 1949SOL    MW4 7530   1.376   5.983   0.399 -0.3962 -0.2315  0.1652
 1950SOL     OW 7531   5.906   5.570   2.936  0.0181 -0.0390 -0.0128
 1950SOL    HW2 7532   5.864   5.487   2.957  0.7426 -0.1878  0.8977
 1950SOL    HW3 7533   5.834   5.625   2.904 -0.2253 -1.4571 -2.0935
 1950SOL    MW4 7534   5.891   5.567   2.935 -0.7275  0.3160  0.2559
 1951SOL     OW 7535   5.051   5.909   3.660 -0.4109 -0.4200  0.5919
 1951SOL    HW2 7536   5.027   6.000   3.681 -1.4491 -0.7431  0.8569
 1951SOL    HW3 7537   4.992   5.885   3.589 -1.3823 -1.4576  1.7110
 1951SOL    MW4 7538   5.040   5.918   3.654 -0.5489 -0.4549  0.3266
 1952SOL     OW 7539   4.222   0.036   4.969  0.0501  0.0106 -0.1021
 1952SOL    HW2 7540   4.254  -0.037   4.916  0.1532  0.0696 -0.1219
 1952SOL    HW3 7541   4.267   0.113   4.933  1.4804 -0.1681  1.1994
 1952SOL    MW4 7542   4.232   0.037   4.957  0.3554  0.3990 -0.0126
 1953SOL     OW 7543   3.328   4.005   2.527 -0.4555  0.7919  0.0396
 1953SOL    HW2 7544   3.422   4.012   2.506  0.0348 -0.2010  1.7263
 1953SOL    HW3 7545   3.299   4.095   2.537 -0.0511  1.1889 -1.8724
 1953SOL    MW4 7546   3.337   4.018   2.525  0.3964 -0.2105  0.0077
 1954SOL     OW 7547   3.388   5.765   6.399 -0.3649  0.2647  0.3482
 1954SOL    HW2 7548   3.465   5.731   6.354  1.1268  0.5976  2.4671
 1954SOL    HW3 7549   3.374   5.851   6.361  0.1393  0.0901 -0.2551
 1954SOL    MW4 7550   3.397   5.772   6.388  0.2515 -0.7861  0.0155
 1955SOL     OW 7551   1.410   3.226   1.743 -0.0906  0.0425 -0.1095
 1955SOL    HW2 7552   1.407   3.174   1.663  1.7196  0.1760 -0.3012
 1955SOL    HW3 7553   1.444   3.311   1.715 -0.0315  0.2902  0.6976
 1955SOL    MW4 7554   1.414   3.230   1.729 -0.4998  0.3752 -0.0678
 1956SOL     OW 7555   0.754   3.884   3.403 -0.5582 -0.6955 -0.2009
 1956SOL    HW2 7556   0.727   3.798   3.371 -0.1424 -0.3470 -1.5970
 1956SOL    HW3 7557   0.672   3.932   3.415 -0.7190 -0.5680 -1.6317
 1956SOL    MW4 7558   0.740   3.879   3.400  0.0105 -0.3109 -0.2062
 1957SOL     OW 7559   2.464   2.202   0.746  0.1213 -0.6988  0.4097
 1957SOL    HW2 7560   2.494   2.200   0.837 -0.1113  0.6353  0.5312
 1957SOL    HW3 7561   2.492   2.118   0.710  0.8566 -0.9440  1.5026
 1957SOL    MW4 7562   2.471   2.191   0.753  0.3912 -0.2888  0.0337
 1958SOL     OW 7563   0.067   2.408   4.549 -0.7284 -0.2053 -0.0504
 1958SOL    HW2 7564  -0.006   2.351   4.572  0.6372 -1.9969  0.0175
 1958SOL    HW3 7565   0.117   2.418   4.630 -1.4391  1.9352  0.1906
 1958SOL    MW4 7566   0.064   2.402   4.563  0.5563 -0.1761  0.1944
 1959SOL     OW 7567   5.564   0.936   6.126 -0.0497 -0.1432  0.1455
 1959SOL    HW2 7568   5.521   0.861   6.085 -1.6046  1.1787 -0.7723
 1959SOL    HW3 7569   5.624   0.970   6.059 -1.5986  1.2082 -0.6224
 1959SOL    MW4 7570   5.566   0.931   6.112 -0.0098 -0.0930 -0.3703
 1960SOL     OW 7571   3.832   1.772   2.699  0.4857 -0.4091  0.0967
 1960SOL    HW2 7572   3.891   1.743   2.630  0.0876 -2.5696  0.5798
 1960SOL    HW3 7573   3.747   1.734   2.675  0.6382 -2.5462  2.4219
 1960SOL    MW4 7574   3.828   1.763   2.687 -0.2379 -0.9550  0.4678
 1961SOL     OW 7575   1.786   2.498   0.632 -0.1147  0.0917 -0.2002
 1961SOL    HW2 7576   1.707   2.552   0.636  1.2574  2.0817  2.0923
 1961SOL    HW3 7577   1.853   2.555   0.596  1.6610  0.4750  3.3328
 1961SOL    MW4 7578   1.784   2.513   0.627  0.0813  0.5819  0.5496
 1962SOL     OW 7579   0.423   3.637   5.564 -0.1534  0.2164  0.3009
 1962SOL    HW2 7580   0.370   3.558   5.548 -0.1623  0.2604  0.1079
 1962SOL    HW3 7581   0.469   3.652   5.481 -0.5503  0.7120  0.1641
 1962SOL    MW4 7582   0.422   3.628   5.551  0.0267  0.8020  0.2907
 1963SOL     OW 7583   2.491   6.376   2.997  0.1001 -0.6131 -0.0818
 1963SOL    HW2 7584   2.583   6.350   3.006 -0.1988 -1.2640  1.3255
 1963SOL    HW3 7585   2.495   6.460   2.951  1.2714 -1.5031 -1.7213
 1963SOL    MW4 7586   2.504   6.384   2.992  0.2569 -0.0726 -0.2139
 1964SOL     OW 7587   4.870   4.731   5.091 -0.4253  0.3217  0.4531
 1964SOL    HW2 7588   4.955   4.764   5.061  0.5352 -2.0742  0.2535
 1964SOL    HW3 7589   4.860   4.647   5.046 -1.9518 -0.3991  2.0247
 1964SOL    MW4 7590   4.880   4.724   5.081 -0.0997  0.0587 -0.2703
 1965SOL     OW 7591   3.552   2.656   2.137 -0.0944 -0.0487 -0.8681
 1965SOL    HW2 7592   3.504   2.628   2.214  1.5782 -0.2321  0.1576
 1965SOL    HW3 7593   3.622   2.713   2.171 -1.5490  3.0437 -2.5796
 1965SOL    MW4 7594   3.555   2.660   2.152 -1.1087  0.1761  0.1801
 1966SOL     OW 7595   4.765   2.604   0.823  0.1871 -0.0726 -0.3979
 1966SOL    HW2 7596   4.732   2.582   0.737 -0.7597 -1.0093  0.1854
 1966SOL    HW3 7597   4.805   2.523   0.856  0.7394  0.3312 -0.0367
 1966SOL    MW4 7598   4.766   2.591   0.816  0.0832 -0.3660 -0.0742
 1967SOL     OW 7599   3.143   3.210   1.994  0.0949 -0.1828 -0.8137
 1967SOL    HW2 7600   3.202   3.139   2.017 -0.6613 -0.8756 -0.9566
 1967SOL    HW3 7601   3.091   3.176   1.921 -0.4803  0.4019 -0.6957
 1967SOL    MW4 7602   3.144   3.196   1.987  0.1854  0.4198 -0.4032
 1968SOL     OW 7603   2.616   5.688   4.633 -0.2202  0.0669 -0.3319
 1968SOL    HW2 7604   2.577   5.729   4.556  0.1110  0.0670 -0.4985
 1968SOL    HW3 7605   2.547   5.631   4.667  0.1154 -1.0615 -1.4664
 1968SOL    MW4 7606   2.602   5.686   4.628 -0.0866  0.3731 -0.0603
 1969SOL     OW 7607   0.097   5.120   5.262  0.6710  0.6874  0.9829
 1969SOL    HW2 7608   0.110   5.186   5.194  0.4302  0.8700  1.1135
 1969SOL    HW3 7609   0.087   5.038   5.214 -3.3920  1.2833  0.5096
 1969SOL    MW4 7610   0.098   5.118   5.247  0.4795  0.3483  0.3258
 1970SOL     OW 7611   3.969   1.643   2.463  0.0095 -0.3981 -0.6361
 1970SOL    HW2 7612   3.945   1.720   2.411 -1.8853 -1.1631 -0.9648
 1970SOL    HW3 7613   4.038   1.600   2.412 -0.5986 -0.2021 -1.6449
 1970SOL    MW4 7614   3.975   1.648   2.449 -0.3355  0.0108 -0.0617
 1971SOL     OW 7615   6.029   1.590   3.306  0.5434 -0.2946 -0.2478
 1971SOL    HW2 7616   6.016   1.577   3.400  2.2358  2.0427  0.4018
 1971SOL    HW3 7617   5.973   1.664   3.284  1.1649  0.0239 -0.7811
 1971SOL    MW4 7618   6.020   1.598   3.316 -0.2150 -0.1805 -0.7871
 1972SOL     OW 7619   5.524   0.271   1.491  0.3900  0.1093  0.2487
 1972SOL    HW2 7620   5.508   0.236   1.403  0.4766  0.0044  0.2741
 1972SOL    HW3 7621   5.452   0.332   1.506 -0.0889 -0.4901  0.4360
 1972SOL    MW4 7622   5.512   0.275   1.481  0.3820  0.5525  0.2681
 1973SOL     OW 7623   4.189   5.872   0.749  0.0608 -0.1469  0.1159
 1973SOL    HW2 7624   4.263   5.820   0.781  0.9505  1.1641  0.2515
 1973SOL    HW3 7625   4.129   5.876   0.823 -0.1404 -1.1844  0.0206
 1973SOL    MW4 7626   4.191   5.866   0.763 -0.0954  0.9236  0.0575
 1974SOL     OW 7627   5.069   1.219   4.537 -0.2978 -0.2594 -0.0485
 1974SOL    HW2 7628   5.112   1.267   4.609 -0.1017 -0.9375  0.2915
 1974SOL    HW3 7629   5.043   1.288   4.476  1.3338  0.1812 -0.3127
 1974SOL    MW4 7630   5.071   1.235   4.539 -0.2838  0.3038  0.1926
 1975SOL     OW 7631   2.630   0.875   3.578 -0.3574 -0.1457  0.1174
 1975SOL    HW2 7632   2.669   0.949   3.625  0.9617  0.4846 -1.8470
 1975SOL    HW3 7633   2.552   0.912   3.536 -0.3037 -0.1491  0.0146
 1975SOL    MW4 7634   2.625   0.890   3.579  0.3085  0.5109  0.1476
 1976SOL     OW 7635   3.476   0.592   0.010  0.3551  0.6791  0.0468
 1976SOL    HW2 7636   3.460   0.661  -0.055 -0.1460 -0.0665 -0.6399
 1976SOL    HW3 7637   3.570   0.596   0.025  0.4558  0.9826 -0.5955
 1976SOL    MW4 7638   3.486   0.602   0.003  0.9127 -0.5101  0.1972
 1977SOL     OW 7639   0.136   3.493   0.253 -0.1292  0.5435 -0.0085
 1977SOL    HW2 7640   0.177   3.567   0.210  2.1183 -1.3484 -1.3635
 1977SOL    HW3 7641   0.191   3.476   0.329 -0.2133 -0.1480 -0.0922
 1977SOL    MW4 7642   0.149   3.500   0.258 -0.3303  0.0624 -0.1697
 1978SOL     OW 7643   5.291   4.299   4.419  0.3721  0.3631 -0.4258
 1978SOL    HW2 7644   5.224   4.325   4.481  1.3477  1.6119  0.1543
 1978SOL    HW3 7645   5.243   4.263   4.345 -0.9001  0.7770  0.1718
 1978SOL    MW4 7646   5.276   4.297   4.418 -0.0076  0.3465  0.0238
 1979SOL     OW 7647   2.717   2.740   5.967  0.1844  0.0356  0.2905
 1979SOL    HW2 7648   2.638   2.723   5.915  0.4751  0.4248 -0.2955
 1979SOL    HW3 7649   2.698   2.821   6.014  0.8901  1.1492 -1.2525
 1979SOL    MW4 7650   2.704   2.748   5.966  0.0826 -0.1715 -0.4038
 1980SOL     OW 7651   1.393   0.969   2.445  0.1693  0.0037  0.6636
 1980SOL    HW2 7652   1.355   0.988   2.360  0.8876  0.4187  0.4307
 1980SOL    HW3 7653   1.318   0.969   2.505 -0.1045  1.6584  0.3614
 1980SOL    MW4 7654   1.378   0.971   2.442 -0.0660  0.1505 -0.6039
 1981SOL     OW 7655   0.489   5.136   0.771 -0.3318  0.2079  0.3815
 1981SOL    HW2 7656   0.413   5.193   0.763  0.1667  0.6140 -3.0850
 1981SOL    HW3 7657   0.562   5.196   0.787 -0.3708  0.1195  0.8829
 1981SOL    MW4 7658   0.489   5.151   0.772  0.2710  0.4308 -0.1765
 1982SOL     OW 7659   3.205   4.973   1.650 -0.1872 -0.0672 -0.4846
 1982SOL    HW2 7660   3.196   5.030   1.727  0.9811  0.1469 -0.4829
 1982SOL    HW3 7661   3.180   4.886   1.682  1.1233 -0.1549  0.4110
 1982SOL    MW4 7662   3.201   4.969   1.665 -0.3574 -0.2781  0.0627
 1983SOL     OW 7663   3.337   4.806   0.558  0.4976  0.3888  0.3700
 1983SOL    HW2 7664   3.256   4.758   0.539  0.8708 -0.3578  0.6256
 1983SOL    HW3 7665   3.363   4.842   0.473  1.1665 -1.3939 -0.2330
 1983SOL    MW4 7666   3.330   4.804   0.544  0.1790 -0.6011 -0.1829
 1984SOL     OW 7667   4.673   5.534   5.579 -0.0602 -0.2315 -0.8426
 1984SOL    HW2 7668   4.611   5.583   5.525 -0.1785  0.2735 -0.2654
 1984SOL    HW3 7669   4.721   5.601   5.627  0.0541 -0.6695 -0.3330
 1984SOL    MW4 7670   4.671   5.549   5.578 -0.0387 -0.0957 -0.0799
 1985SOL     OW 7671   2.340   4.092   6.201  0.1845  0.0344 -0.2024
 1985SOL    HW2 7672   2.270   4.156   6.197  0.2881  0.0955 -2.0899
 1985SOL    HW3 7673   2.417   4.137   6.165  0.5707 -0.7574 -0.4088
 1985SOL    MW4 7674   2.341   4.106   6.196 -0.2442  0.2208  0.0955
 1986SOL     OW 7675   5.382   5.497   5.643 -0.0417 -0.2540 -0.3816
 1986SOL    HW2 7676   5.362   5.422   5.698 -0.8209  0.0175 -0.2888
 1986SOL    HW3 7677   5.469   5.525   5.672  0.1173 -0.9144 -0.1952
 1986SOL    MW4 7678   5.391   5.490   5.654 -0.1521 -0.1882 -0.6127
 1987SOL     OW 7679   2.381   3.815   0.394  0.2828 -0.0293 -0.3092
 1987SOL    HW2 7680   2.303   3.861   0.427 -0.9449  1.2116 -4.3804
 1987SOL    HW3 7681   2.347   3.758   0.325  2.9455  0.5137 -2.1811
 1987SOL    MW4 7682   2.366   3.814   0.389 -0.1905 -0.8739  0.0913
 1988SOL     OW 7683   5.369   5.628   3.049 -0.3909 -0.0885  0.2918
 1988SOL    HW2 7684   5.316   5.605   2.973 -2.7091 -0.3122  1.8673
 1988SOL    HW3 7685   5.413   5.709   3.024 -0.8806 -0.2851 -1.3405
 1988SOL    MW4 7686   5.368   5.636   3.036  0.5372  0.2680 -0.2753
 1989SOL     OW 7687   5.117   6.127   1.053  0.2872  0.5001 -0.2595
 1989SOL    HW2 7688   5.081   6.089   0.972 -1.4457  0.1181  0.6558
 1989SOL    HW3 7689   5.207   6.093   1.056  0.1706 -0.0418 -1.6612
 1989SOL    MW4 7690   5.124   6.117   1.043 -0.4810  0.5751 -0.2722
 1990SOL     OW 7691   0.526   5.189   4.885 -0.1655  0.5299 -0.5766
 1990SOL    HW2 7692   0.474   5.110   4.870  0.5077  0.1413 -0.8823
 1990SOL    HW3 7693   0.513   5.242   4.807  1.6304 -0.5433 -1.6517
 1990SOL    MW4 7694   0.517   5.186   4.873 -0.9847 -0.2263 -0.6995
 1991SOL     OW 7695   0.868   1.191   0.345  0.0168 -0.2039  0.0097
 1991SOL    HW2 7696   0.793   1.132   0.350 -0.3633  0.2119 -0.7053
 1991SOL    HW3 7697   0.935   1.142   0.298  0.1574 -0.5252  0.5324
 1991SOL    MW4 7698   0.867   1.177   0.339  0.9116  0.1407 -0.1204
 1992SOL     OW 7699   3.309   2.400   4.089  0.0225 -0.0166 -0.4339
 1992SOL    HW2 7700   3.403   2.390   4.104  0.2154  0.6384 -1.1372
 1992SOL    HW3 7701   3.302   2.441   4.002 -0.8936  0.4148 -0.1734
 1992SOL    MW4 7702   3.320   2.404   4.079 -0.0277 -0.1325 -0.4913
 1993SOL     OW 7703   2.691   1.274   0.727  0.1786  0.5234  0.6036
 1993SOL    HW2 7704   2.602   1.308   0.722  0.1438  0.3782  0.1756
 1993SOL    HW3 7705   2.747   1.350   0.709  0.0774  0.1832 -1.3841
 1993SOL    MW4 7706   2.687   1.288   0.724 -0.4219  0.6043  0.1689
 1994SOL     OW 7707   1.573   3.760   4.657  0.8141 -0.1991 -0.0429
 1994SOL    HW2 7708   1.488   3.802   4.650  0.7391 -0.2514  0.4834
 1994SOL    HW3 7709   1.580   3.735   4.749  1.1614 -0.6931 -0.1960
 1994SOL    MW4 7710   1.563   3.762   4.668  0.0923  0.2435 -0.0417
 1995SOL     OW 7711   2.612   1.268   3.502  0.0051 -0.1506  0.0561
 1995SOL    HW2 7712   2.660   1.271   3.584  1.4440  0.6006 -0.7758
 1995SOL    HW3 7713   2.575   1.355   3.492 -0.9470 -0.5101  0.3353
 1995SOL    MW4 7714   2.613   1.280   3.511 -0.0907 -0.2044  0.1150
 1996SOL     OW 7715   5.726   3.143   6.099  0.2272 -0.3574  0.5687
 1996SOL    HW2 7716   5.741   3.234   6.123  1.9672 -0.8831  1.6123
 1996SOL    HW3 7717   5.643   3.120   6.142 -0.4059  0.7949  0.0148
 1996SOL    MW4 7718   5.717   3.152   6.108 -0.0587  0.3132  0.2406
 1997SOL     OW 7719   1.641   6.045   2.982 -0.2405  0.1933  0.1448
 1997SOL    HW2 7720   1.687   6.111   2.931  2.4179 -1.3230  0.4152
 1997SOL    HW3 7721   1.652   6.072   3.073 -0.5994  0.2573  0.1693
 1997SOL    MW4 7722   1.648   6.057   2.987  0.0880 -0.0178 -0.3626
 1998SOL     OW 7723   3.018   4.351   3.276 -0.4739  0.1187  0.2559
 1998SOL    HW2 7724   2.939   4.402   3.258 -0.7824 -0.1653  0.7814
 1998SOL    HW3 7725   2.997   4.263   3.246 -0.8290 -0.2541  1.5419
 1998SOL    MW4 7726   3.005   4.347   3.270  1.1440 -0.4919  0.0511
 1999SOL     OW 7727   2.665   5.413   5.879  0.8491 -0.3291  0.5397
 1999SOL    HW2 7728   2.679   5.364   5.798  0.2068 -0.0171  0.2294
 1999SOL    HW3 7729   2.607   5.357   5.931  1.1349 -0.4587  0.7215
 1999SOL    MW4 7730   2.659   5.399   5.875 -0.5426 -0.4413 -0.3920
 2000SOL     OW 7731   2.010   0.040   3.964 -0.2911  0.1973  0.5038
 2000SOL    HW2 7732   1.965  -0.038   3.929 -0.2231  0.6941 -0.7349
 2000SOL    HW3 7733   1.969   0.055   4.049 -1.0653 -0.5560  0.2762
 2000SOL    MW4 7734   1.998   0.031   3.970 -0.8110 -0.3496 -0.7817
 2001SOL     OW 7735   3.933   4.379   4.672  0.1509  0.5993 -0.3266
 2001SOL    HW2 7736   3.929   4.307   4.608  0.0271  1.0668 -0.8574
 2001SOL    HW3 7737   4.010   4.430   4.645 -0.3107  1.1946 -0.5355
 2001SOL    MW4 7738   3.943   4.376   4.660 -0.2705 -0.1213  0.4259
 2002SOL     OW 7739   2.331   1.696   0.669  0.1403 -0.5644  0.7261
 2002SOL    HW2 7740   2.397   1.740   0.616 -0.6982  0.0264  0.1403
 2002SOL    HW3 7741   2.306   1.762   0.735 -1.2225 -0.0662 -0.2404
 2002SOL    MW4 7742   2.336   1.711   0.671  0.0760  0.2348 -0.1675
 2003SOL     OW 7743   5.619   0.707   1.505 -0.5972  0.7187  0.0374
 2003SOL    HW2 7744   5.697   0.682   1.455  0.0269 -3.5041  2.5937
 2003SOL    HW3 7745   5.548   0.657   1.466 -0.9192  0.4770  0.9103
 2003SOL    MW4 7746   5.620   0.697   1.493  0.3490  0.5835  0.1343
 2004SOL     OW 7747   0.013   0.498   3.269 -0.2448  0.8680 -0.8703
 2004SOL    HW2 7748  -0.027   0.413   3.286 -1.7729  1.3733 -1.6705
 2004SOL    HW3 7749  -0.014   0.552   3.343  1.7152  0.3865  0.2521
 2004SOL    MW4 7750   0.004   0.494   3.281  0.0227 -0.1155 -0.0440
 2005SOL     OW 7751   3.675   3.917   1.942 -0.3187  0.0742 -0.1895
 2005SOL    HW2 7752   3.650   3.829   1.911 -0.7397  1.0804 -3.0206
 2005SOL    HW3 7753   3.592   3.960   1.960 -0.3223  0.8333 -1.8294
 2005SOL    MW4 7754   3.661   3.911   1.940  0.1137 -0.1332  0.6528
 2006SOL     OW 7755   5.602   5.396   2.783  0.1530  0.1199  0.0878
 2006SOL    HW2 7756   5.646   5.337   2.721  0.3493 -1.7470  1.8800
 2006SOL    HW3 7757   5.516   5.355   2.797 -0.0082  0.6749  0.7788
 2006SOL    MW4 7758   5.597   5.383   2.777 -0.3412 -0.0392  0.2063
 2007SOL     OW 7759   0.085   1.780   4.354 -0.1737 -0.2278  0.0393
 2007SOL    HW2 7760   0.050   1.868   4.339  0.2932 -0.3629 -2.1046
 2007SOL    HW3 7761   0.180   1.789   4.340 -0.2010 -1.2004 -0.8655
 2007SOL    MW4 7762   0.093   1.793   4.350  0.0891 -0.0949 -0.3979
 2008SOL     OW 7763   6.045   2.567   3.000 -0.7028  0.5792  0.2480
 2008SOL    HW2 7764   6.108   2.588   2.931 -1.3996  0.1460 -0.5461
 2008SOL    HW3 7765   6.087   2.499   3.052  0.0252  1.2506  0.5478
 2008SOL    MW4 7766   6.059   2.561   2.998 -0.7182  0.1848  0.4707
 2009SOL     OW 7767   3.250   1.322   0.687 -0.0862  0.1139 -0.4633
 2009SOL    HW2 7768   3.277   1.287   0.603 -0.8796 -0.9669 -0.2826
 2009SOL    HW3 7769   3.280   1.258   0.751 -1.2994 -0.1396 -0.1083
 2009SOL    MW4 7770   3.257   1.309   0.685 -0.2182  0.0392  0.5396
 2010SOL     OW 7771   1.115   4.533   1.672 -0.2729 -0.0076  0.4419
 2010SOL    HW2 7772   1.172   4.456   1.667 -0.7587 -0.3177 -0.5691
 2010SOL    HW3 7773   1.071   4.536   1.587 -1.1498  0.7029  0.9011
 2010SOL    MW4 7774   1.117   4.523   1.660  0.4856 -0.1868  0.1276
 2011SOL     OW 7775   3.231   5.147   4.464  0.4089  0.4562  0.5147
 2011SOL    HW2 7776   3.321   5.165   4.489 -0.0485  2.9148  0.6456
 2011SOL    HW3 7777   3.178   5.203   4.521 -1.3491 -2.0348  1.5218
 2011SOL    MW4 7778   3.236   5.157   4.475  0.1841  0.2188  0.1276
 2012SOL     OW 7779   4.919   1.404   5.311  0.4290 -0.5045  0.1498
 2012SOL    HW2 7780   4.915   1.495   5.341 -1.0999  0.2794 -2.1517
 2012SOL    HW3 7781   4.962   1.357   5.383 -0.1593  1.7267  2.1069
 2012SOL    MW4 7782   4.924   1.410   5.325  0.7002 -0.1971 -0.2391
 2013SOL     OW 7783   2.337   4.156   3.471 -0.0573  0.3418  0.1702
 2013SOL    HW2 7784   2.433   4.150   3.462 -0.0447  0.6275  0.1045
 2013SOL    HW3 7785   2.319   4.250   3.472 -0.3064  0.2909  0.5362
 2013SOL    MW4 7786   2.348   4.168   3.470  0.0465  0.2045 -0.4774
 2014SOL     OW 7787   2.755   0.969   3.049 -0.2650  0.1117 -1.1408
 2014SOL    HW2 7788   2.829   0.914   3.076 -2.3225 -2.4865 -0.3235
 2014SOL    HW3 7789   2.741   1.028   3.123 -2.1012 -2.9278  1.2242
 2014SOL    MW4 7790   2.763   0.970   3.062  0.6016 -0.1487  0.3884
 2015SOL     OW 7791   2.716   0.047   1.392  0.1601  0.2275 -0.4054
 2015SOL    HW2 7792   2.717   0.105   1.316 -1.5110 -0.3628 -0.9446
 2015SOL    HW3 7793   2.799   0.063   1.436  1.0257  0.8624 -2.1484
 2015SOL    MW4 7794   2.727   0.057   1.387  0.0986  0.3302 -0.2730
 2016SOL     OW 7795   5.615   6.204   1.466 -0.3836 -0.1089  0.5110
 2016SOL    HW2 7796   5.633   6.123   1.418  1.2540  1.5907 -1.9882
 2016SOL    HW3 7797   5.580   6.174   1.550 -0.2802 -3.3719 -0.4478
 2016SOL    MW4 7798   5.613   6.189   1.471  0.3196  0.6398 -0.5144
 2017SOL     OW 7799   5.861   1.424   6.279  0.1503 -0.4541 -0.3425
 2017SOL    HW2 7800   5.801   1.351   6.294  1.5809 -1.6312 -0.0227
 2017SOL    HW3 7801   5.895   1.410   6.191  0.3287 -0.0884 -0.3337
 2017SOL    MW4 7802   5.858   1.412   6.270 -0.3616 -0.2029  0.2822
 2018SOL     OW 7803   2.437   1.429   4.906 -0.0191 -0.1783  0.2335
 2018SOL    HW2 7804   2.346   1.400   4.916 -0.0622  0.2817  1.2886
 2018SOL    HW3 7805   2.483   1.353   4.870 -0.8461 -0.3706 -0.4302
 2018SOL    MW4 7806   2.431   1.416   4.903  0.3157  0.7266 -0.2018
 2019SOL     OW 7807   1.307   3.257   3.622  0.0953 -0.1637 -0.3642
 2019SOL    HW2 7808   1.343   3.340   3.654  1.2571 -0.8359  0.1376
 2019SOL    HW3 7809   1.347   3.246   3.535  1.3794 -1.0441  0.3047
 2019SOL    MW4 7810   1.317   3.266   3.614 -0.0560 -0.0333  0.0583
 2020SOL     OW 7811   1.625   1.442   2.078 -0.3556 -0.0288 -0.4267
 2020SOL    HW2 7812   1.701   1.449   2.021 -0.7296  4.6189 -0.7725
 2020SOL    HW3 7813   1.553   1.418   2.019  0.3315 -1.9872 -0.5352
 2020SOL    MW4 7814   1.625   1.440   2.062  0.3475 -0.4270  0.2339
 2021SOL     OW 7815   2.169   4.999   2.168  0.2402  0.4706 -0.6345
 2021SOL    HW2 7816   2.219   5.028   2.092 -0.1891  1.8010 -0.4257
 2021SOL    HW3 7817   2.077   5.008   2.142  0.0849 -0.6105 -0.5150
 2021SOL    MW4 7818   2.163   5.004   2.155 -0.0014  0.2967 -0.0561
 2022SOL     OW 7819   1.828   2.391   3.700 -0.1050 -0.1781 -0.0843
 2022SOL    HW2 7820   1.746   2.440   3.699 -1.0385 -1.6212 -2.4631
 2022SOL    HW3 7821   1.892   2.453   3.735 -1.9464  1.4031  0.6890
 2022SOL    MW4 7822   1.826   2.406   3.704 -0.4479 -0.1053 -0.0278
 2023SOL     OW 7823   2.157   0.378   4.555 -0.3214  0.0139 -0.0418
 2023SOL    HW2 7824   2.233   0.373   4.496 -0.6824  0.6462 -0.5662
 2023SOL    HW3 7825   2.082   0.363   4.498 -0.5773 -1.2139  0.5720
 2023SOL    MW4 7826   2.157   0.375   4.539 -0.7830 -0.0016  0.0448
 2024SOL     OW 7827   5.662   4.856   6.108 -0.1097 -0.6178 -0.0046
 2024SOL    HW2 7828   5.732   4.899   6.156 -0.4268  0.4244 -0.4347
 2024SOL    HW3 7829   5.656   4.905   6.026 -0.5524 -1.4390 -0.4757
 2024SOL    MW4 7830   5.670   4.868   6.103 -0.1817 -0.4200  0.5716
 2025SOL     OW 7831   0.068   3.898   1.433 -0.2207  0.3355  0.1791
 2025SOL    HW2 7832   0.048   3.912   1.526 -1.3614 -0.7261  0.1217
 2025SOL    HW3 7833   0.037   3.809   1.415 -0.5909  0.7512 -1.3633
 2025SOL    MW4 7834   0.061   3.888   1.443  0.6878 -0.3228  0.8698
 2026SOL     OW 7835   3.271   4.980   6.057 -0.1499 -0.4539  0.4783
 2026SOL    HW2 7836   3.220   4.905   6.026  0.7679 -1.3698  1.1392
 2026SOL    HW3 7837   3.335   4.995   5.987  0.5965 -1.2241  0.9719
 2026SOL    MW4 7838   3.273   4.972   6.044  0.7372  0.0876  0.1505
 2027SOL     OW 7839   1.209   5.191   6.124  0.1459  0.2718 -0.1260
 2027SOL    HW2 7840   1.248   5.177   6.210 -0.9045  0.5362  0.4075
 2027SOL    HW3 7841   1.152   5.268   6.135 -2.0377 -1.2157 -0.3339
 2027SOL    MW4 7842   1.207   5.200   6.137  0.2839 -0.0693 -0.3667
 2028SOL     OW 7843   4.479   0.350   5.741  0.0144 -0.1339  0.7858
 2028SOL    HW2 7844   4.394   0.307   5.730 -1.1605  2.2494 -0.2471
 2028SOL    HW3 7845   4.460   0.427   5.796  1.2260  1.0514 -0.3733
 2028SOL    MW4 7846   4.465   0.355   5.747  0.1344 -0.3651 -0.0426
 2029SOL     OW 7847   3.390   2.306   3.151  0.0589 -0.2628 -0.6585
 2029SOL    HW2 7848   3.297   2.287   3.164 -0.3162  2.3267  1.3226
 2029SOL    HW3 7849   3.391   2.387   3.100  1.1332  0.6406  0.7260
 2029SOL    MW4 7850   3.378   2.314   3.146 -0.5296  0.1311 -0.0374
 2030SOL     OW 7851   1.455   4.043   1.652  0.1406  0.2118  0.0859
 2030SOL    HW2 7852   1.417   4.096   1.582 -0.3544  0.0956  0.2607
 2030SOL    HW3 7853   1.549   4.043   1.635  0.0661  0.5606 -0.3169
 2030SOL    MW4 7854   1.462   4.050   1.641 -0.1770  0.2804  0.5441
 2031SOL     OW 7855   2.718   4.863   5.471  0.5877 -0.5715 -0.1088
 2031SOL    HW2 7856   2.703   4.773   5.443  1.2974 -0.1963 -1.7609
 2031SOL    HW3 7857   2.748   4.908   5.393 -0.5214  1.3121  0.4877
 2031SOL    MW4 7858   2.720   4.857   5.457  0.5653  0.1672 -0.5650
 2032SOL     OW 7859   5.334   3.236   5.950 -0.2078 -0.2269 -0.1972
 2032SOL    HW2 7860   5.257   3.294   5.952 -0.2991 -0.3622  0.4663
 2032SOL    HW3 7861   5.363   3.233   6.041 -0.1303 -1.1352 -0.2510
 2032SOL    MW4 7862   5.327   3.244   5.962 -0.5773 -0.1767  0.9555
 2033SOL     OW 7863   0.479   2.021   1.883  0.2386  0.1576  0.2536
 2033SOL    HW2 7864   0.511   1.984   1.965 -1.1501 -2.6472 -0.3510
 2033SOL    HW3 7865   0.384   2.020   1.892  0.0919  0.6251 -1.0743
 2033SOL    MW4 7866   0.471   2.016   1.895  0.5224 -0.1832  0.6478
 2034SOL     OW 7867   2.513   4.396   4.113 -0.8544 -0.2922 -0.0733
 2034SOL    HW2 7868   2.536   4.468   4.054 -0.7864  0.2746  0.6215
 2034SOL    HW3 7869   2.497   4.439   4.197 -1.4308 -1.0267  0.2032
 2034SOL    MW4 7870   2.514   4.412   4.116 -0.5870 -0.3712 -0.3070
 2035SOL     OW 7871   4.393   4.135   1.667  0.0247  0.1785  0.0983
 2035SOL    HW2 7872   4.341   4.215   1.675 -0.2454 -0.1261  2.1055
 2035SOL    HW3 7873   4.339   4.067   1.708  0.6692 -0.8294 -0.6748
 2035SOL    MW4 7874   4.379   4.137   1.674 -0.3494 -0.2196 -0.0816
 2036SOL     OW 7875   0.331   2.552   5.957  0.5540  0.7295  0.4482
 2036SOL    HW2 7876   0.279   2.504   6.022  1.8807 -2.2425 -0.5247
 2036SOL    HW3 7877   0.293   2.528   5.873  2.3794 -0.1271 -0.1775
 2036SOL    MW4 7878   0.319   2.543   5.954 -0.1581 -0.0987  0.3027
 2037SOL     OW 7879   4.194   1.719   1.753  0.4651 -0.2443  0.0585
 2037SOL    HW2 7880   4.235   1.633   1.758 -1.9729 -1.4811  0.4837
 2037SOL    HW3 7881   4.115   1.705   1.701 -0.0236  1.7230  0.1859
 2037SOL    MW4 7882   4.189   1.706   1.747 -0.3975 -0.2029 -0.4167
 2038SOL     OW 7883   2.678   1.596   4.721 -0.7037 -0.1835 -0.0203
 2038SOL    HW2 7884   2.597   1.639   4.748 -0.2643  1.4429 -1.1153
 2038SOL    HW3 7885   2.650   1.522   4.667 -1.4569  0.4234 -0.4755
 2038SOL    MW4 7886   2.664   1.592   4.718  0.4588  0.1173  0.7797
 2039SOL     OW 7887   6.028   2.543   1.928  0.2966  0.0999  0.3647
 2039SOL    HW2 7888   6.013   2.508   1.840  1.4137  0.5982 -0.0397
 2039SOL    HW3 7889   6.009   2.636   1.920 -3.0936 -0.3403  1.5415
 2039SOL    MW4 7890   6.024   2.551   1.916  0.0834 -0.1723  1.1917
 2040SOL     OW 7891   0.856   4.542   1.184  0.0239 -0.2044  0.2212
 2040SOL    HW2 7892   0.806   4.618   1.154  1.6850  1.6701  1.8324
 2040SOL    HW3 7893   0.921   4.528   1.115 -0.3499 -0.2315 -0.1283
 2040SOL    MW4 7894   0.858   4.550   1.171  0.2467  0.6886 -0.5600
 2041SOL     OW 7895   0.253   1.945   4.103  0.0993 -0.5827 -0.1806
 2041SOL    HW2 7896   0.159   1.964   4.107  0.4266  1.2432 -0.1071
 2041SOL    HW3 7897   0.290   2.020   4.057  1.3170 -2.1937 -1.9592
 2041SOL    MW4 7898   0.246   1.957   4.098 -0.4343  0.4540 -0.2776
 2042SOL     OW 7899   4.599   3.850   0.530 -0.6428  0.1488  0.1578
 2042SOL    HW2 7900   4.642   3.922   0.484  1.1465  0.4222  2.0815
 2042SOL    HW3 7901   4.652   3.773   0.511 -2.1496 -0.5833 -1.3278
 2042SOL    MW4 7902   4.612   3.850   0.522 -0.1433  0.0485 -0.2067
 2043SOL     OW 7903   3.904   2.981   1.711  0.1209  0.4134  0.4895
 2043SOL    HW2 7904   3.897   2.917   1.782  0.9920  0.9527  1.0843
 2043SOL    HW3 7905   3.993   3.016   1.719  0.3371  0.3106 -1.0277
 2043SOL    MW4 7906   3.915   2.977   1.721 -0.1741  0.0565 -0.0150
 2044SOL     OW 7907   0.259   2.218   2.946 -0.5866  0.4983  0.6818
 2044SOL    HW2 7908   0.177   2.172   2.965 -1.0570  0.1665 -1.7171
 2044SOL    HW3 7909   0.238   2.273   2.870  1.5640 -0.1673 -0.4785
 2044SOL    MW4 7910   0.245   2.219   2.938  0.0589 -0.4065 -0.1105
 2045SOL     OW 7911   2.107   1.939   4.887 -0.4586  0.3765 -0.3652
 2045SOL    HW2 7912   2.027   1.941   4.939 -0.6558 -3.9817 -0.1862
 2045SOL    HW3 7913   2.177   1.963   4.949 -0.7771 -3.8424  1.9725
 2045SOL    MW4 7914   2.106   1.943   4.902  0.0703 -0.1407 -0.1155
 2046SOL     OW 7915   5.286   5.669   5.090  0.0619  0.2266 -0.1071
 2046SOL    HW2 7916   5.256   5.632   5.173 -2.1829  0.1011 -0.9155
 2046SOL    HW3 7917   5.349   5.737   5.116 -0.8257  0.4216  1.7149
 2046SOL    MW4 7918   5.290   5.673   5.104  0.0184 -0.3814 -0.2049
 2047SOL     OW 7919   6.131   4.069   2.577  0.0308 -0.9813  0.1625
 2047SOL    HW2 7920   6.117   4.114   2.660  1.2776 -2.4908  1.2463
 2047SOL    HW3 7921   6.043   4.046   2.546 -0.9064  3.7298 -1.4720
 2047SOL    MW4 7922   6.118   4.072   2.584  0.1480  0.1971 -0.6273
 2048SOL     OW 7923   5.888   1.773   4.219 -0.0680  0.0008  0.2203
 2048SOL    HW2 7924   5.793   1.777   4.213 -0.4727 -3.2954  1.8803
 2048SOL    HW3 7925   5.908   1.811   4.305 -0.1798 -1.1707  0.7910
 2048SOL    MW4 7926   5.878   1.779   4.230  0.5138  0.1632  0.6770
 2049SOL     OW 7927   6.064   0.823   1.374 -0.2377 -0.0891  0.7814
 2049SOL    HW2 7928   6.058   0.758   1.444 -2.9686 -1.4601 -0.5581
 2049SOL    HW3 7929   6.085   0.772   1.296  3.4051  1.4768  0.5261
 2049SOL    MW4 7930   6.066   0.808   1.373  0.3625 -0.2840 -0.1207
 2050SOL     OW 7931   0.296   2.937   1.077 -0.2113 -0.0096  0.5721
 2050SOL    HW2 7932   0.210   2.896   1.089 -0.8387  1.1381  0.1519
 2050SOL    HW3 7933   0.342   2.879   1.017 -0.9124 -0.3256  0.3286
 2050SOL    MW4 7934   0.291   2.924   1.071 -0.6303 -0.3529  0.0204
 2051SOL     OW 7935   4.120   0.637   1.347 -0.1258  0.2931  0.1502
 2051SOL    HW2 7936   4.073   0.677   1.274 -1.8537 -2.4684 -0.3815
 2051SOL    HW3 7937   4.212   0.645   1.323 -0.4626  2.3445 -0.6869
 2051SOL    MW4 7938   4.126   0.643   1.334 -0.4618 -0.0181 -0.3369
 2052SOL     OW 7939   2.349   5.147   1.944 -0.5923 -0.0411 -0.0714
 2052SOL    HW2 7940   2.335   5.200   1.865 -1.0265  0.0766  0.0787
 2052SOL    HW3 7941   2.369   5.060   1.911  0.1875  0.2265 -0.3236
 2052SOL    MW4 7942   2.350   5.142   1.929  0.3887  0.1518  0.3439
 2053SOL     OW 7943   4.796   2.508   5.207 -0.0128 -0.1130  0.4598
 2053SOL    HW2 7944   4.886   2.529   5.233 -0.6599  0.8268  2.1572
 2053SOL    HW3 7945   4.767   2.445   5.273 -0.5132 -0.6189 -0.2398
 2053SOL    MW4 7946   4.804   2.503   5.219  0.3501  0.0510  0.1357
 2054SOL     OW 7947   5.514   4.599   3.175  0.1735  0.3335  0.6754
 2054SOL    HW2 7948   5.565   4.623   3.252  0.1515  2.2671  0.1345
 2054SOL    HW3 7949   5.480   4.682   3.141  0.1498 -0.4606 -1.4053
 2054SOL    MW4 7950   5.516   4.613   3.180 -0.3076 -0.0463  0.2072
 2055SOL     OW 7951   1.074   2.891   2.649 -0.4384 -0.3328  0.1397
 2055SOL    HW2 7952   1.088   2.950   2.722  1.5621 -0.5557  0.0135
 2055SOL    HW3 7953   1.152   2.903   2.594 -0.5824 -2.1368 -0.5266
 2055SOL    MW4 7954   1.086   2.900   2.651  0.1561 -0.2440 -0.2055
 2056SOL     OW 7955   1.691   3.070   4.225 -0.2715 -0.3364  0.0957
 2056SOL    HW2 7956   1.685   3.133   4.297  0.7391 -1.4353  1.1999
 2056SOL    HW3 7957   1.697   3.124   4.146 -1.2299  0.9038  0.8254
 2056SOL    MW4 7958   1.691   3.085   4.224  0.6354 -0.0726 -0.1446
 2057SOL     OW 7959   1.827   0.266   3.791 -0.4516  0.0890  0.2619
 2057SOL    HW2 7960   1.744   0.236   3.826  0.0040  0.0648  1.3715
 2057SOL    HW3 7961   1.892   0.209   3.833  0.2169  0.9450  0.4072
 2057SOL    MW4 7962   1.825   0.254   3.801 -0.0405  0.7565  0.4020
 2058SOL     OW 7963   2.834   1.053   6.126  0.0616 -0.1450  0.0365
 2058SOL    HW2 7964   2.780   1.082   6.052  0.9210 -2.3734 -1.5542
 2058SOL    HW3 7965   2.780   0.987   6.170  0.0274  0.3310  0.7239
 2058SOL    MW4 7966   2.819   1.048   6.122 -0.3910  0.4231 -0.3974
 2059SOL     OW 7967   5.864   4.237   3.389 -0.3250 -0.2130  0.1417
 2059SOL    HW2 7968   5.953   4.249   3.420 -0.2216  0.8820 -0.5252
 2059SOL    HW3 7969   5.873   4.219   3.295 -0.7668 -0.9046  0.2233
 2059SOL    MW4 7970   5.877   4.236   3.380 -0.2086 -0.0127 -0.3776
 2060SOL     OW 7971   4.029   6.084   4.835 -0.0686 -0.9131  0.0843
 2060SOL    HW2 7972   4.060   5.999   4.806  1.4106  0.4325 -2.6392
 2060SOL    HW3 7973   4.094   6.146   4.803 -1.9240  1.4210  0.5323
 2060SOL    MW4 7974   4.042   6.081   4.827 -0.3299  0.3256  0.3252
 2061SOL     OW 7975   3.463   3.184   2.612 -0.0004 -0.1769  0.0441
 2061SOL    HW2 7976   3.416   3.105   2.639 -0.0209 -0.3633 -0.5186
 2061SOL    HW3 7977   3.541   3.151   2.568  0.3098  0.1271  0.3577
 2061SOL    MW4 7978   3.467   3.169   2.610  0.8460  0.9812  0.4968
 2062SOL     OW 7979   4.658   3.909   2.948 -0.0286 -0.2591 -0.2756
 2062SOL    HW2 7980   4.582   3.939   2.998  0.5631 -0.3854  0.7272
 2062SOL    HW3 7981   4.715   3.986   2.944  0.3029 -0.4903 -0.0145
 2062SOL    MW4 7982   4.656   3.923   2.954  0.7300  0.2140 -0.7551
 2063SOL     OW 7983   4.919   2.517   6.013  0.1065 -0.1275 -0.5980
 2063SOL    HW2 7984   4.983   2.455   5.979  0.2787 -0.8579  0.9881
 2063SOL    HW3 7985   4.894   2.569   5.937  1.7565 -0.5459 -1.4756
 2063SOL    MW4 7986   4.924   2.516   5.998 -0.4051  0.1847  0.3543
 2064SOL     OW 7987   3.733   5.249   1.992 -0.1445 -0.7076  0.3190
 2064SOL    HW2 7988   3.785   5.208   1.923  1.8865  0.4837  1.0440
 2064SOL    HW3 7989   3.644   5.253   1.957  1.1541  1.7967 -3.1464
 2064SOL    MW4 7990   3.728   5.244   1.978  0.9480  0.0641 -0.0137
 2065SOL     OW 7991   4.237   2.025   0.090  0.4186 -0.3178  0.5042
 2065SOL    HW2 7992   4.259   2.020  -0.003 -0.6470 -1.3546  0.2925
 2065SOL    HW3 7993   4.148   1.991   0.096  0.4035 -0.0981  1.8850
 2065SOL    MW4 7994   4.228   2.020   0.078  0.7299 -0.2111 -0.4179
 2066SOL     OW 7995   3.253   0.495   1.412 -0.1034 -0.2662 -0.4753
 2066SOL    HW2 7996   3.211   0.439   1.478 -1.0971  1.4589  0.4158
 2066SOL    HW3 7997   3.333   0.448   1.389  1.2185 -0.1944  3.2763
 2066SOL    MW4 7998   3.258   0.481   1.418  0.3954 -0.5853  0.1784
 2067SOL     OW 7999   4.660   1.575   3.573 -0.0084 -0.3251 -0.2607
 2067SOL    HW2 8000   4.656   1.481   3.553  0.5682  0.1266 -2.7654
 2067SOL    HW3 8001   4.569   1.601   3.584 -0.1890 -1.1075  0.1860
 2067SOL    MW4 8002   4.648   1.566   3.572  0.4989  0.1845 -0.7117
 2068SOL     OW 8003   5.251   3.035   1.950  0.3612  0.3788 -0.5564
 2068SOL    HW2 8004   5.264   3.001   2.039 -0.7249 -0.6969 -0.7735
 2068SOL    HW3 8005   5.173   2.988   1.918  1.7565 -0.6403 -2.7379
 2068SOL    MW4 8006   5.243   3.024   1.958 -0.0009  0.2901  0.6199
 2069SOL     OW 8007   2.219   5.739   1.439  0.5563 -0.3256  0.3909
 2069SOL    HW2 8008   2.245   5.727   1.530  0.0927 -0.1297  0.5514
 2069SOL    HW3 8009   2.143   5.796   1.443  0.2008 -0.7561 -0.0816
 2069SOL    MW4 8010   2.213   5.745   1.451 -0.0051 -0.7447 -0.8233
 2070SOL     OW 8011   2.129   6.095   0.394 -0.2709  0.6133  0.0723
 2070SOL    HW2 8012   2.075   6.143   0.331  1.2840  0.8331 -1.1767
 2070SOL    HW3 8013   2.169   6.163   0.448  0.5566  0.6336 -0.5461
 2070SOL    MW4 8014   2.127   6.110   0.393 -0.2454  0.2618 -0.4637
 2071SOL     OW 8015   1.194   4.055   6.000 -0.1592  0.4970 -0.0655
 2071SOL    HW2 8016   1.238   4.107   5.933 -1.7014  0.4822 -1.1498
 2071SOL    HW3 8017   1.237   3.970   5.998 -0.1809  0.5046 -1.0526
 2071SOL    MW4 8018   1.205   4.051   5.991  0.0495  0.0896  0.6611
 2072SOL     OW 8019   3.387   2.555   5.411 -0.3707  0.2747  0.5140
 2072SOL    HW2 8020   3.379   2.650   5.419  0.2772  0.3969 -0.1286
 2072SOL    HW3 8021   3.312   2.529   5.357 -1.1668  0.2695  1.6086
 2072SOL    MW4 8022   3.376   2.564   5.405 -0.0299 -0.1774 -0.5374
 2073SOL     OW 8023   2.446   1.044   4.934  0.2201  0.1467  0.5021
 2073SOL    HW2 8024   2.494   1.012   5.011  2.5984  0.1784 -0.8769
 2073SOL    HW3 8025   2.436   0.967   4.878  0.7877  0.6204 -0.2657
 2073SOL    MW4 8026   2.451   1.029   4.937  0.1578 -0.5584 -0.9028
 2074SOL     OW 8027   2.565   2.325   3.018  0.1076 -0.2505  0.0667
 2074SOL    HW2 8028   2.622   2.306   2.944  1.4029  0.5017  0.8290
 2074SOL    HW3 8029   2.520   2.406   2.993  1.3931  0.6417  0.5269
 2074SOL    MW4 8030   2.566   2.333   3.005 -0.3723  0.1273  0.0186
 2075SOL     OW 8031   2.419   0.072   1.979  0.4066  0.2021 -0.4259
 2075SOL    HW2 8032   2.491   0.064   2.041  1.9374  0.0565 -2.1582
 2075SOL    HW3 8033   2.409   0.167   1.965  0.4530  0.2101 -0.4037
 2075SOL    MW4 8034   2.427   0.084   1.985  0.3393  0.8804 -0.1228
 2076SOL     OW 8035   5.619   3.092   0.888 -0.1353 -0.0773 -0.1414
 2076SOL    HW2 8036   5.714   3.103   0.879 -0.3425  0.7876 -1.5239
 2076SOL    HW3 8037   5.582   3.169   0.845 -1.4874 -0.9051 -0.5062
 2076SOL    MW4 8038   5.627   3.104   0.881 -0.0251  0.0439  0.1661
 2077SOL     OW 8039   1.889   3.838   1.296 -0.4486  0.4236 -0.0299
 2077SOL    HW2 8040   1.815   3.818   1.354 -0.1998  1.8936  0.8546
 2077SOL    HW3 8041   1.966   3.823   1.350  0.0042 -1.8515 -1.1818
 2077SOL    MW4 8042   1.889   3.833   1.311 -0.1055 -0.9857  0.0764
 2078SOL     OW 8043   6.247   4.683   1.728 -0.2058  0.3994  0.4210
 2078SOL    HW2 8044   6.271   4.687   1.821 -1.0109  0.1750  0.6477
 2078SOL    HW3 8045   6.239   4.774   1.702  0.9785  0.4873  0.3048
 2078SOL    MW4 8046   6.249   4.696   1.737 -0.0158 -0.3192 -0.4478
 2079SOL     OW 8047   4.322   0.644   3.257  0.1131 -0.2975 -0.1450
 2079SOL    HW2 8048   4.414   0.669   3.255  0.0559  0.1297  1.3459
 2079SOL    HW3 8049   4.323   0.549   3.247  0.6656 -0.2421 -0.6945
 2079SOL    MW4 8050   4.334   0.635   3.255  0.0581 -0.3161 -0.2121
 2080SOL     OW 8051   0.513   1.522   1.272 -0.0422 -0.2612 -0.1104
 2080SOL    HW2 8052   0.453   1.558   1.338 -0.7980 -0.5601 -0.6274
 2080SOL    HW3 8053   0.542   1.599   1.222 -0.7583 -0.2341 -0.4832
 2080SOL    MW4 8054   0.509   1.537   1.274  0.2828 -0.7558  0.5910
 2081SOL     OW 8055   0.625   3.787   0.027  0.3115  0.5514 -0.5418
 2081SOL    HW2 8056   0.536   3.814   0.007 -0.6668 -2.1472 -0.1478
 2081SOL    HW3 8057   0.616   3.718   0.093  2.7998  1.3062  0.7253
 2081SOL    MW4 8058   0.612   3.781   0.033  0.4080  0.0317 -0.4965
 2082SOL     OW 8059   3.751   0.351   3.994 -0.1388  0.8937 -0.4109
 2082SOL    HW2 8060   3.814   0.295   4.039 -1.1016  0.2590  0.1773
 2082SOL    HW3 8061   3.705   0.397   4.065 -1.9467 -0.4152 -0.6522
 2082SOL    MW4 8062   3.753   0.349   4.009  0.1574 -0.9668  0.4368
 2083SOL     OW 8063   5.541   3.031   6.332  0.6474  0.7818 -0.7989
 2083SOL    HW2 8064   5.492   3.014   6.412  0.3119  1.4275 -0.8544
 2083SOL    HW3 8065   5.615   3.085   6.360  0.1790  1.5531 -0.9983
 2083SOL    MW4 8066   5.544   3.036   6.346 -0.4052  0.0199  0.4021
 2084SOL     OW 8067   3.125   3.004   0.986 -0.4505 -0.1474  0.3991
 2084SOL    HW2 8068   3.192   2.942   0.958 -0.0938  0.9084 -1.2558
 2084SOL    HW3 8069   3.174   3.084   1.008 -0.9480 -0.2294  1.9180
 2084SOL    MW4 8070   3.140   3.007   0.985  0.5329  0.7665 -0.3787
 2085SOL     OW 8071   4.941   4.728   0.680 -0.4761 -0.3243 -0.5184
 2085SOL    HW2 8072   4.849   4.745   0.700 -0.4118  0.0050 -0.4945
 2085SOL    HW3 8073   4.962   4.651   0.731 -0.6326 -0.1704 -0.2167
 2085SOL    MW4 8074   4.931   4.720   0.689 -0.0800 -0.2125 -0.1132
 2086SOL     OW 8075   0.152   3.562   4.545  0.4871 -0.0250  0.2325
 2086SOL    HW2 8076   0.172   3.565   4.451  3.0419 -0.2606  0.6805
 2086SOL    HW3 8077   0.227   3.516   4.583 -0.7266 -0.3628  2.3471
 2086SOL    MW4 8078   0.165   3.556   4.538 -0.1915  0.0795 -0.0326
 2087SOL     OW 8079   1.649   6.364   4.517 -0.5599  0.7719  0.2299
 2087SOL    HW2 8080   1.559   6.356   4.487 -0.5560  2.1044 -0.1905
 2087SOL    HW3 8081   1.699   6.309   4.456 -0.8132  1.8474 -0.9944
 2087SOL    MW4 8082   1.644   6.356   4.505 -0.6542  0.3481  0.0094
 2088SOL     OW 8083   5.065   6.314   2.513  0.3615 -0.1640 -0.3180
 2088SOL    HW2 8084   5.102   6.226   2.514  1.0953  0.1377 -0.5556
 2088SOL    HW3 8085   4.979   6.304   2.554  0.4743 -0.9722 -0.2602
 2088SOL    MW4 8086   5.059   6.301   2.518 -0.4804  0.4814 -0.4269
 2089SOL     OW 8087   0.997   6.309   0.302 -0.1436  0.1518  0.1267
 2089SOL    HW2 8088   0.968   6.388   0.256  1.2793  0.4186 -0.3583
 2089SOL    HW3 8089   1.000   6.335   0.394 -2.1010 -0.1102  0.3129
 2089SOL    MW4 8090   0.993   6.323   0.308 -0.1224 -0.1718 -0.4767
 2090SOL     OW 8091   6.033   3.313   6.356 -0.0160 -0.0100  0.1420
 2090SOL    HW2 8092   6.097   3.367   6.403  1.1025 -0.3957 -0.8924
 2090SOL    HW3 8093   6.050   3.224   6.387  1.2799 -0.3820 -1.5451
 2090SOL    MW4 8094   6.044   3.308   6.367 -0.0249  0.3983 -0.2687
 2091SOL     OW 8095   4.587   6.032   5.809  0.8891 -0.1335  0.2200
 2091SOL    HW2 8096   4.679   6.021   5.783  0.8516  0.4035 -0.1645
 2091SOL    HW3 8097   4.542   5.960   5.765  1.1811 -0.6265  0.7208
 2091SOL    MW4 8098   4.593   6.021   5.800  0.0509  0.1219 -0.6215
 2092SOL     OW 8099   6.032   1.638   2.166 -0.0095  0.4402  0.0379
 2092SOL    HW2 8100   6.027   1.611   2.074 -0.2468 -0.7441  0.3793
 2092SOL    HW3 8101   6.125   1.650   2.183  0.0062  1.0522 -0.4587
 2092SOL    MW4 8102   6.044   1.636   2.156 -0.1950  0.4637  0.0079
 2093SOL     OW 8103   1.077   0.244   4.163 -0.0702 -0.0933  0.2039
 2093SOL    HW2 8104   1.030   0.252   4.246 -0.3439  0.5042 -0.0024
 2093SOL    HW3 8105   1.063   0.328   4.120  2.7546  0.8899  0.9430
 2093SOL    MW4 8106   1.069   0.256   4.168 -0.0518  0.5294  0.4732
 2094SOL     OW 8107   5.803   2.291   3.237  0.1191  0.0727  0.3093
 2094SOL    HW2 8108   5.866   2.326   3.301  0.2842  0.1048  0.1302
 2094SOL    HW3 8109   5.856   2.273   3.159  0.0737 -0.7621  0.4638
 2094SOL    MW4 8110   5.818   2.293   3.235  0.2125 -0.2494  0.2544
 2095SOL     OW 8111   3.722   4.664   0.513  0.1657 -0.1011 -0.1933
 2095SOL    HW2 8112   3.721   4.720   0.435  0.1427 -2.3433 -1.8928
 2095SOL    HW3 8113   3.703   4.724   0.585 -2.2049  1.7244 -2.1337
 2095SOL    MW4 8114   3.719   4.679   0.512 -0.0625  0.0505  0.1504
 2096SOL     OW 8115   0.166   4.686   4.031 -0.1299 -0.1822 -0.8534
 2096SOL    HW2 8116   0.150   4.604   3.985 -0.1905 -0.9740  0.5359
 2096SOL    HW3 8117   0.261   4.695   4.034  0.0420 -1.9333  1.8436
 2096SOL    MW4 8118   0.176   4.677   4.025  0.3215 -0.8498 -0.3377
 2097SOL     OW 8119   6.305   1.767   2.062  0.8618 -0.1216 -0.0571
 2097SOL    HW2 8120   6.327   1.824   2.135  0.8634  1.0634 -0.9400
 2097SOL    HW3 8121   6.241   1.817   2.011  0.8091 -0.9382 -0.8223
 2097SOL    MW4 8122   6.300   1.781   2.065  0.0461  0.0331  0.2642
 2098SOL     OW 8123   2.262   5.868   0.300  0.1203  0.0679 -0.0978
 2098SOL    HW2 8124   2.217   5.952   0.310 -0.5799 -0.0541 -1.9205
 2098SOL    HW3 8125   2.337   5.889   0.245  2.4799  0.2752  2.8925
 2098SOL    MW4 8126   2.266   5.882   0.294 -0.2488  0.1536  0.0409
 2099SOL     OW 8127   6.008   2.155   2.335 -0.7695 -0.0023  0.0883
 2099SOL    HW2 8128   5.916   2.181   2.330 -0.5908  0.4017 -1.5411
 2099SOL    HW3 8129   6.009   2.065   2.301 -0.5509  0.0385 -0.0161
 2099SOL    MW4 8130   5.996   2.146   2.330 -0.0234  0.0994  0.2148
 2100SOL     OW 8131   4.067   2.669   2.050 -0.0785 -0.5451 -0.2579
 2100SOL    HW2 8132   3.995   2.709   2.001  0.0154 -1.8619 -1.5372
 2100SOL    HW3 8133   4.029   2.646   2.134 -0.2094  1.9236  0.4396
 2100SOL    MW4 8134   4.053   2.671   2.054 -0.0815 -0.1401 -0.0526
 2101SOL     OW 8135   3.013   6.233   4.534 -0.4578  0.9793  0.3045
 2101SOL    HW2 8136   3.103   6.203   4.543 -0.7977  0.2937  1.5459
 2101SOL    HW3 8137   2.972   6.216   4.619 -2.1157  0.0800 -0.6127
 2101SOL    MW4 8138   3.019   6.227   4.546 -0.2867 -0.5159 -0.3832
 2102SOL     OW 8139   2.499   2.665   2.214  0.1758  0.3589  0.2910
 2102SOL    HW2 8140   2.433   2.678   2.147  1.3278  0.3258 -0.8906
 2102SOL    HW3 8141   2.476   2.582   2.256 -0.1495  0.0200 -0.5585
 2102SOL    MW4 8142   2.487   2.656   2.211 -0.3510 -0.7032  0.8865
 2103SOL     OW 8143   5.296   6.263   2.016 -0.3133 -0.1536  0.4408
 2103SOL    HW2 8144   5.264   6.339   1.968  0.2351  0.6387  1.2973
 2103SOL    HW3 8145   5.288   6.191   1.955 -1.0543  0.5536 -0.3146
 2103SOL    MW4 8146   5.291   6.264   2.002 -0.2399 -0.2489  0.0074
 2104SOL     OW 8147   5.503   4.034   2.913 -0.5671 -0.4009 -0.6053
 2104SOL    HW2 8148   5.444   4.066   2.982 -2.0043 -0.9121 -1.5411
 2104SOL    HW3 8149   5.588   4.027   2.955 -0.7265  2.1783  0.3303
 2104SOL    MW4 8150   5.506   4.038   2.927  0.1468 -0.2990  0.5362
 2105SOL     OW 8151   0.159   2.924   3.360 -0.2990 -0.1499 -0.2104
 2105SOL    HW2 8152   0.158   2.955   3.450  0.9153  1.3512 -0.6733
 2105SOL    HW3 8153   0.105   2.845   3.361  0.4761 -0.7096  2.0121
 2105SOL    MW4 8154   0.152   2.918   3.372 -0.1251 -0.0088 -0.2599
 2106SOL     OW 8155   0.111   5.955   3.936 -0.3978  0.0440  0.2249
 2106SOL    HW2 8156   0.149   5.984   4.020 -1.3217  1.7044  0.0991
 2106SOL    HW3 8157   0.062   6.031   3.904 -1.4591 -1.1191 -1.0145
 2106SOL    MW4 8158   0.110   5.969   3.943  1.2695  0.0682  0.5777
 2107SOL     OW 8159   3.231   0.605   5.606 -0.0600 -0.0990  0.2755
 2107SOL    HW2 8160   3.270   0.685   5.641 -0.1031 -0.0476  0.2051
 2107SOL    HW3 8161   3.206   0.555   5.683  0.4621 -0.2860  0.3286
 2107SOL    MW4 8162   3.233   0.609   5.620 -0.4363  0.1715 -0.3558
 2108SOL     OW 8163   0.778   2.010   0.595 -0.0198 -0.2555  0.2868
 2108SOL    HW2 8164   0.735   1.943   0.648  0.6027 -1.0334 -0.1849
 2108SOL    HW3 8165   0.719   2.025   0.522  2.0956 -4.1597 -2.5552
 2108SOL    MW4 8166   0.765   2.003   0.593 -0.0760  0.0390  0.3762
 2109SOL     OW 8167   2.807   4.297   5.545 -0.1851  0.7242 -0.1676
 2109SOL    HW2 8168   2.832   4.363   5.480 -2.3086  0.3761 -1.4371
 2109SOL    HW3 8169   2.718   4.272   5.521 -0.5745 -0.3909  2.1340
 2109SOL    MW4 8170   2.799   4.302   5.533  0.4700  0.1567  0.4841
 2110SOL     OW 8171   3.359   4.555   1.753  0.4804 -0.0339  0.5544
 2110SOL    HW2 8172   3.354   4.650   1.752  1.1514  0.0019  0.4350
 2110SOL    HW3 8173   3.269   4.526   1.739  0.6180  0.5858 -2.1726
 2110SOL    MW4 8174   3.346   4.564   1.751  0.0107 -0.7293  0.0493
 2111SOL     OW 8175   4.730   3.022   3.546 -0.3350 -0.2303 -0.5106
 2111SOL    HW2 8176   4.743   2.969   3.468 -1.2336 -0.3363 -0.5978
 2111SOL    HW3 8177   4.802   2.996   3.604 -1.1052 -2.0509 -0.2835
 2111SOL    MW4 8178   4.741   3.011   3.544  0.3040 -0.5341  0.3104
 2112SOL     OW 8179   0.808   3.063   3.289  0.3312 -0.0382 -0.0372
 2112SOL    HW2 8180   0.779   2.979   3.325 -0.5810 -0.3289 -1.3573
 2112SOL    HW3 8181   0.743   3.126   3.318  1.0039  0.2235  0.9343
 2112SOL    MW4 8182   0.796   3.060   3.297 -0.2486  0.6123  0.5468
 2113SOL     OW 8183   1.060   2.540   3.030 -0.6129  0.3629 -0.1358
 2113SOL    HW2 8184   1.130   2.505   2.975 -0.1037  0.6623  0.3126
 2113SOL    HW3 8185   0.996   2.575   2.968 -0.0773  0.6299 -0.5429
 2113SOL    MW4 8186   1.061   2.540   3.015  0.1462  0.6307 -1.2048
 2114SOL     OW 8187   0.054   5.146   3.530 -0.3838  0.0935  0.1850
 2114SOL    HW2 8188   0.036   5.202   3.454  0.4034 -0.4611 -0.4266
 2114SOL    HW3 8189   0.141   5.173   3.560  1.0709 -2.2677 -1.5340
 2114SOL    MW4 8190   0.063   5.157   3.524  0.3114  0.4640 -0.4845
 2115SOL     OW 8191   2.464   3.503   0.744 -0.6351  0.1018 -0.2484
 2115SOL    HW2 8192   2.434   3.488   0.655  1.0360 -1.2685 -0.6390
 2115SOL    HW3 8193   2.400   3.457   0.799 -0.6566 -0.6588 -0.8856
 2115SOL    MW4 8194   2.451   3.495   0.740  0.2619 -0.4964  0.0830
 2116SOL     OW 8195   4.651   6.043   4.374 -0.0439 -0.2654 -0.0682
 2116SOL    HW2 8196   4.673   6.072   4.286  1.0731 -0.8578  0.0012
 2116SOL    HW3 8197   4.702   5.963   4.387 -1.0070 -0.7856  0.7279
 2116SOL    MW4 8198   4.661   6.036   4.364 -0.5857 -0.1668 -0.1132
 2117SOL     OW 8199   6.101   5.660   2.410  0.4210 -0.3128 -0.6271
 2117SOL    HW2 8200   6.147   5.577   2.400 -0.2184 -0.7703  0.1186
 2117SOL    HW3 8201   6.160   5.714   2.462  0.3529 -0.7047 -0.1378
 2117SOL    MW4 8202   6.115   5.656   2.416 -0.7532 -0.3374 -0.0048
 2118SOL     OW 8203   3.612   6.362   5.615  0.1403  0.2937 -0.3525
 2118SOL    HW2 8204   3.536   6.327   5.568 -0.8218 -0.7297  1.8182
 2118SOL    HW3 8205   3.610   6.318   5.701  1.6148  2.2785  0.7853
 2118SOL    MW4 8206   3.602   6.351   5.620 -0.3560 -0.0469  0.0290
 2119SOL     OW 8207   1.202   2.769   1.712 -0.2747  0.2871 -0.0714
 2119SOL    HW2 8208   1.262   2.712   1.760 -0.9812 -0.0958  0.3809
 2119SOL    HW3 8209   1.116   2.727   1.723 -0.3013 -0.5345 -2.7285
 2119SOL    MW4 8210   1.198   2.756   1.720  0.1401  0.2145  0.0258
 2120SOL     OW 8211   1.076   3.658   6.418 -0.2753  0.1688  0.5887
 2120SOL    HW2 8212   1.144   3.699   6.472  0.6517  0.9381 -1.0856
 2120SOL    HW3 8213   1.124   3.616   6.347 -1.5223  0.2999 -0.3634
 2120SOL    MW4 8214   1.092   3.658   6.416 -0.1551 -0.1685  0.3613
 2121SOL     OW 8215   3.986   4.906   0.762 -0.2819  0.3939 -0.5951
 2121SOL    HW2 8216   4.007   4.994   0.793  1.5679 -0.5148  0.9983
 2121SOL    HW3 8217   4.050   4.889   0.693  0.0343 -0.0122 -0.2166
 2121SOL    MW4 8218   3.997   4.915   0.757 -0.5680 -0.8323  0.3190
 2122SOL     OW 8219   1.814   3.065   5.207  0.1484 -0.0733  0.0308
 2122SOL    HW2 8220   1.759   3.062   5.286 -0.8496  0.5808 -0.6106
 2122SOL    HW3 8221   1.797   2.982   5.163 -0.3636  0.1355 -0.1757
 2122SOL    MW4 8222   1.804   3.054   5.212 -0.3302 -0.6190  0.5227
 2123SOL     OW 8223   6.036   0.975   4.601  0.1206  0.1804  0.5679
 2123SOL    HW2 8224   6.108   0.974   4.663  0.5045 -2.0492  0.1823
 2123SOL    HW3 8225   6.074   1.007   4.519 -0.2026  2.3631  1.2237
 2123SOL    MW4 8226   6.050   0.979   4.598 -0.0331 -0.2826 -0.0850
 2124SOL     OW 8227   2.582   5.444   1.686  0.2089 -0.3285  0.5215
 2124SOL    HW2 8228   2.601   5.466   1.777  0.0077 -0.1256  0.5153
 2124SOL    HW3 8229   2.601   5.524   1.637  1.2499 -0.7119  0.2498
 2124SOL    MW4 8230   2.587   5.457   1.691 -0.4159  0.2051 -0.5619
 2125SOL     OW 8231   1.563   5.269   6.236 -0.3873  0.6099 -0.1337
 2125SOL    HW2 8232   1.556   5.359   6.267  1.6487  0.3328  1.3333
 2125SOL    HW3 8233   1.505   5.219   6.293 -0.1492  0.7544  0.2401
 2125SOL    MW4 8234   1.555   5.274   6.247 -0.9555  0.2835  0.2931
 2126SOL     OW 8235   2.703   4.323   0.512 -0.3289  0.0867 -0.3895
 2126SOL    HW2 8236   2.770   4.268   0.474  0.1167 -0.0873  0.6049
 2126SOL    HW3 8237   2.744   4.409   0.520  0.5696 -0.4968  2.1548
 2126SOL    MW4 8238   2.717   4.327   0.508 -0.1061 -0.9345 -0.3928
 2127SOL     OW 8239   5.610   2.937   1.433  0.2729  0.0884  0.2072
 2127SOL    HW2 8240   5.632   2.877   1.361  0.7092  0.0956  0.3269
 2127SOL    HW3 8241   5.515   2.932   1.441 -0.0811  1.8327 -1.9070
 2127SOL    MW4 8242   5.601   2.928   1.425  0.3616 -0.2254 -0.1441
 2128SOL     OW 8243   0.308   3.566   2.024 -0.1594 -0.2291  0.4627
 2128SOL    HW2 8244   0.242   3.629   1.996 -0.3802 -0.1420  1.1485
 2128SOL    HW3 8245   0.262   3.508   2.085  0.6792  0.6523  1.9976
 2128SOL    MW4 8246   0.293   3.567   2.029 -0.8693 -0.6331 -0.2968
 2129SOL     OW 8247   1.446   0.863   6.237  0.1991 -0.1897 -0.3339
 2129SOL    HW2 8248   1.374   0.911   6.197 -1.3495 -1.0784  1.2543
 2129SOL    HW3 8249   1.438   0.881   6.330  0.4117 -2.4160  0.1573
 2129SOL    MW4 8250   1.436   0.872   6.244 -0.0106 -0.0531  0.1058
 2130SOL     OW 8251   3.827   4.403   0.186  0.0406  0.0265  0.7520
 2130SOL    HW2 8252   3.896   4.463   0.156 -0.6467  0.6789  0.4501
 2130SOL    HW3 8253   3.869   4.350   0.254  0.5421  1.1469  1.3402
 2130SOL    MW4 8254   3.842   4.404   0.191 -0.5351  0.1916  0.4076
 2131SOL     OW 8255   3.806   0.484   6.163  0.1320  0.7819 -0.5088
 2131SOL    HW2 8256   3.881   0.533   6.130  2.7971 -1.5052  1.7072
 2131SOL    HW3 8257   3.787   0.524   6.248  1.6330 -1.1810  0.8215
 2131SOL    MW4 8258   3.813   0.496   6.169  0.2796  0.0551 -0.3212
 2132SOL     OW 8259   4.327   5.901   1.711  0.2231  0.6775  0.1603
 2132SOL    HW2 8260   4.385   5.940   1.777  0.2375  1.3297 -0.2327
 2132SOL    HW3 8261   4.295   5.976   1.660 -1.1960  0.3714  0.5543
 2132SOL    MW4 8262   4.330   5.916   1.713 -0.3022  0.5912 -0.2636
 2133SOL     OW 8263   5.766   5.177   0.627 -0.0508 -0.0643 -0.1302
 2133SOL    HW2 8264   5.798   5.088   0.643 -0.0854 -0.0135  0.2163
 2133SOL    HW3 8265   5.671   5.168   0.619 -0.0861 -0.0111  0.2290
 2133SOL    MW4 8266   5.758   5.164   0.628  0.1625  0.4227 -0.3766
 2134SOL     OW 8267   5.473   1.731   0.790  0.4716 -0.2925  0.3205
 2134SOL    HW2 8268   5.476   1.781   0.873 -1.9253  0.0689  0.2668
 2134SOL    HW3 8269   5.453   1.642   0.817  0.5566 -0.3534  0.1795
 2134SOL    MW4 8270   5.471   1.726   0.805 -0.5154  0.5454  0.5110
 2135SOL     OW 8271   1.739   5.332   1.010  0.0479  0.0154  0.1737
 2135SOL    HW2 8272   1.743   5.372   1.097  0.0836 -0.8103  0.5695
 2135SOL    HW3 8273   1.821   5.283   1.003  0.0840  0.1514 -0.3618
 2135SOL    MW4 8274   1.750   5.331   1.021  0.3559  0.0099  0.2604
 2136SOL     OW 8275   5.138   0.466   4.241  0.0949 -0.2326  0.3156
 2136SOL    HW2 8276   5.234   0.463   4.242  0.0773 -0.7269  0.5914
 2136SOL    HW3 8277   5.111   0.375   4.231 -0.3318  0.0421 -1.2142
 2136SOL    MW4 8278   5.147   0.454   4.240  0.2979  0.1829  0.7109
 2137SOL     OW 8279   3.991   2.791   4.229 -0.1611 -0.0272 -0.3692
 2137SOL    HW2 8280   4.051   2.720   4.252 -1.6505 -1.0170  0.7286
 2137SOL    HW3 8281   3.985   2.788   4.134 -0.8274 -2.0097 -0.3187
 2137SOL    MW4 8282   3.998   2.781   4.220 -0.1911 -0.4326 -0.6730
 2138SOL     OW 8283   4.307   2.957   4.989  0.4477  0.1100 -0.0317
 2138SOL    HW2 8284   4.361   3.035   5.001  1.7023 -0.5405 -1.1635
 2138SOL    HW3 8285   4.365   2.884   5.010 -0.3034 -0.5683 -0.2677
 2138SOL    MW4 8286   4.322   2.958   4.993  0.0793  0.4102 -0.0803
 2139SOL     OW 8287   6.018   4.996   5.385  0.3052 -0.0862  0.0756
 2139SOL    HW2 8288   6.084   5.056   5.351  0.1264 -0.6804 -1.3703
 2139SOL    HW3 8289   5.935   5.041   5.371  0.3114  0.2765  1.0812
 2139SOL    MW4 8290   6.016   5.010   5.379  0.1222 -0.4396  0.2074
 2140SOL     OW 8291   3.116   1.388   2.017 -0.9531 -0.3609  0.0088
 2140SOL    HW2 8292   3.077   1.313   1.973  1.0113 -0.3693 -1.8672
 2140SOL    HW3 8293   3.165   1.433   1.948  0.9978  0.5211  1.8829
 2140SOL    MW4 8294   3.117   1.384   2.002 -0.6526  0.0587  0.2575
 2141SOL     OW 8295   4.017   5.253   3.344  0.4444  0.1264  0.1409
 2141SOL    HW2 8296   3.951   5.268   3.276  0.8737  2.0291  0.0944
 2141SOL    HW3 8297   3.997   5.317   3.412  2.5262  1.1171 -0.1045
 2141SOL    MW4 8298   4.005   5.263   3.344 -1.0323  0.1864 -0.5184
 2142SOL     OW 8299   1.318   3.002   4.269 -0.8281  0.1898 -0.0731
 2142SOL    HW2 8300   1.391   3.018   4.329 -1.0382  1.9314 -0.2373
 2142SOL    HW3 8301   1.244   2.979   4.326 -0.0313 -2.3092  0.0549
 2142SOL    MW4 8302   1.317   3.001   4.284 -0.0219 -0.0271 -0.4457
 2143SOL     OW 8303   5.979   3.930   0.966 -0.1883  0.1055 -0.7739
 2143SOL    HW2 8304   6.028   3.992   1.020 -0.6455  0.3968 -0.6916
 2143SOL    HW3 8305   6.012   3.844   0.994 -1.7135  0.1305  1.3129
 2143SOL    MW4 8306   5.990   3.927   0.977 -0.2206  0.0749 -0.1156
 2144SOL     OW 8307   6.011   2.253   2.618  0.3498  0.0414  0.1464
 2144SOL    HW2 8308   6.003   2.231   2.525 -0.5090 -0.2159  0.2771
 2144SOL    HW3 8309   5.959   2.332   2.629 -1.7050 -1.3101  0.8796
 2144SOL    MW4 8310   6.003   2.260   2.607  0.4402 -0.1132  0.2696
 2145SOL     OW 8311   1.301   2.944   2.056  0.6229  0.1226 -0.4378
 2145SOL    HW2 8312   1.275   3.031   2.024  0.2477 -0.3203 -1.3667
 2145SOL    HW3 8313   1.376   2.961   2.113 -0.6251  1.2570  0.9221
 2145SOL    MW4 8314   1.308   2.958   2.059 -0.4356 -0.1476  0.0866
 2146SOL     OW 8315   1.098   5.901   5.701  0.2229 -0.2269 -0.5528
 2146SOL    HW2 8316   1.046   5.896   5.782  1.7915  1.6143  0.6569
 2146SOL    HW3 8317   1.148   5.820   5.700  0.3645 -0.1685  0.4832
 2146SOL    MW4 8318   1.097   5.890   5.712 -0.3115 -0.1629 -0.1039
 2147SOL     OW 8319   5.087   2.054   2.255  0.0311  0.0760 -0.0993
 2147SOL    HW2 8320   5.099   2.005   2.173  1.1238 -0.2121  0.2134
 2147SOL    HW3 8321   5.176   2.075   2.283 -0.2175 -1.0930  1.7689
 2147SOL    MW4 8322   5.100   2.050   2.248 -0.5475  0.4359 -0.5425
 2148SOL     OW 8323   3.698   3.037   4.668 -0.3659  0.2483 -0.4540
 2148SOL    HW2 8324   3.744   3.059   4.749 -0.9195  0.7146 -0.2515
 2148SOL    HW3 8325   3.724   2.948   4.648 -1.8228 -0.6771  1.4066
 2148SOL    MW4 8326   3.707   3.028   4.676  0.1038 -0.0187  0.2287
 2149SOL     OW 8327   1.014   1.760   4.134 -0.3172  0.6190  0.1841
 2149SOL    HW2 8328   0.987   1.700   4.203  0.8455 -0.5081 -0.2927
 2149SOL    HW3 8329   0.982   1.720   4.053 -1.3491  1.7401  0.0072
 2149SOL    MW4 8330   1.006   1.747   4.132  0.0343 -0.2283 -1.1033
 2150SOL     OW 8331   2.486   4.918   5.659  0.0318 -0.3330 -0.1821
 2150SOL    HW2 8332   2.559   4.907   5.598 -0.5072 -0.8552 -0.7574
 2150SOL    HW3 8333   2.450   5.005   5.639  1.7747  0.8745  1.5616
 2150SOL    MW4 8334   2.491   4.928   5.648 -0.5391 -0.0922 -0.1466
 2151SOL     OW 8335   6.021   6.001   3.853  0.0655 -0.2855 -0.1558
 2151SOL    HW2 8336   6.070   6.071   3.896 -0.5201 -1.7051  3.1306
 2151SOL    HW3 8337   6.082   5.966   3.787  2.6842 -0.4728  2.1561
 2151SOL    MW4 8338   6.036   6.006   3.850 -0.4147 -0.4901 -0.1565
 2152SOL     OW 8339   4.339   5.763   1.131  0.7850  0.0220 -0.0600
 2152SOL    HW2 8340   4.346   5.678   1.175  2.1036  0.4512  0.6264
 2152SOL    HW3 8341   4.410   5.815   1.169 -0.6631  1.8057  0.3417
 2152SOL    MW4 8342   4.350   5.759   1.142 -0.0136  0.1903 -0.1367
 2153SOL     OW 8343   1.258   0.479   4.924  0.2824 -0.1284 -0.1394
 2153SOL    HW2 8344   1.326   0.427   4.968  0.8466 -0.4578 -1.3415
 2153SOL    HW3 8345   1.263   0.565   4.964  1.2746 -0.2130 -0.0663
 2153SOL    MW4 8346   1.268   0.483   4.935 -0.4251 -0.2349  0.3728
 2154SOL     OW 8347   3.925   1.880   2.046  0.2119  0.5666  0.1621
 2154SOL    HW2 8348   3.977   1.960   2.033 -1.7000  1.6515 -1.4989
 2154SOL    HW3 8349   3.988   1.814   2.073  1.9786  2.4730  0.9813
 2154SOL    MW4 8350   3.940   1.882   2.048  0.0031 -0.5188 -0.2468
 2155SOL     OW 8351   3.084   5.288   4.643  0.0849  0.3233 -0.5888
 2155SOL    HW2 8352   2.994   5.310   4.670  0.2495 -0.2252  0.4913
 2155SOL    HW3 8353   3.139   5.329   4.710  0.7774  2.1831 -2.2110
 2155SOL    MW4 8354   3.079   5.296   4.656 -0.4933 -0.1893  0.2787
 2156SOL     OW 8355   0.165   2.259   4.280  0.0105 -0.0339  0.1944
 2156SOL    HW2 8356   0.176   2.282   4.188  1.5922  0.8299  0.5682
 2156SOL    HW3 8357   0.102   2.323   4.314  0.0695  0.1715 -0.0865
 2156SOL    MW4 8358   0.158   2.271   4.272 -0.2760 -0.0585  0.0372
 2157SOL     OW 8359   2.342   3.768   2.429  0.5186  0.1500 -0.3987
 2157SOL    HW2 8360   2.316   3.678   2.447 -0.8901  0.9179  1.9092
 2157SOL    HW3 8361   2.416   3.783   2.489 -1.3972  1.4501  1.7963
 2157SOL    MW4 8362   2.348   3.758   2.440  0.3656 -0.6173  0.5116
 2158SOL     OW 8363   4.328   5.966   4.919 -0.0958  0.3771 -0.1445
 2158SOL    HW2 8364   4.266   6.007   4.979  0.1345  0.0764  0.2952
 2158SOL    HW3 8365   4.349   5.882   4.959 -0.1178  0.0726 -0.7553
 2158SOL    MW4 8366   4.322   5.961   4.932 -0.1242 -0.5756  0.5159
 2159SOL     OW 8367   5.669   4.006   4.592  0.2337  0.6085 -0.0236
 2159SOL    HW2 8368   5.721   3.961   4.525  0.4041  0.3076  0.3052
 2159SOL    HW3 8369   5.640   4.086   4.550  1.5566  1.1300  0.0050
 2159SOL    MW4 8370   5.672   4.010   4.578  0.1109  0.0124 -0.2247
 2160SOL     OW 8371   1.414   1.674   0.693 -0.2693 -0.2008 -0.0632
 2160SOL    HW2 8372   1.472   1.751   0.697  0.5475 -0.7837 -0.4230
 2160SOL    HW3 8373   1.332   1.704   0.734  0.0219  0.8665 -0.2199
 2160SOL    MW4 8374   1.411   1.688   0.699 -0.0823 -0.1370  0.9213
 2161SOL     OW 8375   2.225   5.530   1.010 -0.8405 -0.3783 -0.1318
 2161SOL    HW2 8376   2.256   5.528   1.100 -0.4510 -0.0871 -0.2551
 2161SOL    HW3 8377   2.266   5.455   0.968  0.2400  0.3831 -0.4628
 2161SOL    MW4 8378   2.234   5.520   1.016  0.1284 -0.4152 -0.5623
 2162SOL     OW 8379   2.354   2.919   4.493  0.0317 -0.0281  0.2616
 2162SOL    HW2 8380   2.283   2.949   4.550 -0.7424  0.7651 -1.0855
 2162SOL    HW3 8381   2.313   2.855   4.435  0.6054 -0.1737  0.0126
 2162SOL    MW4 8382   2.339   2.914   4.493  0.7273 -0.8502  0.0992
 2163SOL     OW 8383   2.169   3.374   5.284 -0.6875  0.6559  0.3414
 2163SOL    HW2 8384   2.265   3.382   5.285 -0.6556  0.3008  0.3991
 2163SOL    HW3 8385   2.137   3.456   5.321 -0.3521 -0.0503  2.2800
 2163SOL    MW4 8386   2.178   3.386   5.289 -0.4293 -0.1331 -0.2605
 2164SOL     OW 8387   3.467   4.654   2.098  0.0292 -0.3654  0.1486
 2164SOL    HW2 8388   3.491   4.585   2.036 -1.7047 -1.5447  0.7029
 2164SOL    HW3 8389   3.484   4.735   2.051  0.6596 -1.1894 -1.1115
 2164SOL    MW4 8390   3.472   4.655   2.084 -0.5466  0.2189  0.3649
 2165SOL     OW 8391   3.609   0.159   0.658 -0.6244 -0.4932  0.2862
 2165SOL    HW2 8392   3.655   0.147   0.576 -0.0313  0.9533  0.3654
 2165SOL    HW3 8393   3.519   0.182   0.632 -0.2917  0.5613 -0.0093
 2165SOL    MW4 8394   3.603   0.161   0.644  0.6503  0.1185 -0.1402
 2166SOL     OW 8395   2.970   1.351   1.153 -0.5994 -0.1385  0.1586
 2166SOL    HW2 8396   2.955   1.397   1.236 -0.0848  0.0887  0.1288
 2166SOL    HW3 8397   3.014   1.270   1.178  2.5074  1.3274 -0.0925
 2166SOL    MW4 8398   2.974   1.347   1.167 -0.4247 -0.2726 -0.0211
 2167SOL     OW 8399   3.472   6.383   3.405  0.2283 -0.1408  0.1924
 2167SOL    HW2 8400   3.546   6.431   3.442 -0.7274  1.7409 -0.2119
 2167SOL    HW3 8401   3.508   6.342   3.326  0.8982  0.6376  0.0770
 2167SOL    MW4 8402   3.487   6.384   3.399 -0.0054  0.0805  0.5543
 2168SOL     OW 8403   5.358   2.010   3.514 -0.2004 -0.3706 -0.0086
 2168SOL    HW2 8404   5.303   2.059   3.452 -0.4583  1.2432  1.4442
 2168SOL    HW3 8405   5.296   1.972   3.576 -0.2204 -4.2235 -2.0474
 2168SOL    MW4 8406   5.342   2.011   3.514  0.5471 -0.1091  0.1210
 2169SOL     OW 8407   4.979   5.264   1.746  0.1447 -0.0006  0.2684
 2169SOL    HW2 8408   4.993   5.170   1.762  0.6652 -0.0176 -0.2397
 2169SOL    HW3 8409   4.938   5.268   1.660  2.2049  0.3225 -0.7636
 2169SOL    MW4 8410   4.976   5.252   1.737 -0.2844  0.6821  0.4808
 2170SOL     OW 8411   3.628   5.856   4.426  0.4569 -0.0452  0.2867
 2170SOL    HW2 8412   3.682   5.814   4.493  1.6067  0.7130 -0.1386
 2170SOL    HW3 8413   3.668   5.942   4.413  1.1447 -0.6811 -2.3954
 2170SOL    MW4 8414   3.640   5.862   4.433  0.1487 -0.2606 -0.1982
 2171SOL     OW 8415   1.465   1.438   1.342 -0.2368  0.3749 -0.4482
 2171SOL    HW2 8416   1.402   1.497   1.302 -0.1140  0.5379 -0.4001
 2171SOL    HW3 8417   1.468   1.463   1.434  0.5399  0.9398 -0.6208
 2171SOL    MW4 8418   1.457   1.449   1.349  0.0088 -0.5945 -0.7296
 2172SOL     OW 8419   4.193   0.890   0.432  0.5875 -0.6519 -0.4657
 2172SOL    HW2 8420   4.114   0.839   0.449 -0.3643  0.9163  0.0481
 2172SOL    HW3 8421   4.185   0.919   0.341 -0.6480  1.4137  0.2267
 2172SOL    MW4 8422   4.181   0.887   0.423  0.1420  0.4608 -0.0659
 2173SOL     OW 8423   0.938   2.179   0.760  0.3275  0.2566 -0.2526
 2173SOL    HW2 8424   0.908   2.123   0.688 -2.2533  1.1982 -0.0246
 2173SOL    HW3 8425   0.888   2.260   0.750  1.4281  1.2110  1.4200
 2173SOL    MW4 8426   0.927   2.182   0.749 -0.3921 -0.0955 -0.0275
 2174SOL     OW 8427   1.614   3.363   2.097  0.7033 -0.6259 -0.1087
 2174SOL    HW2 8428   1.681   3.354   2.164  1.3338 -2.2175 -0.8967
 2174SOL    HW3 8429   1.630   3.449   2.059  0.7546  0.0221  1.3021
 2174SOL    MW4 8430   1.625   3.373   2.101  0.2410  0.3418 -0.1003
 2175SOL     OW 8431   0.219   3.606   5.142 -0.7272  0.0740  0.3189
 2175SOL    HW2 8432   0.140   3.564   5.175 -0.4174 -0.5133  0.3248
 2175SOL    HW3 8433   0.212   3.601   5.047  0.1142 -1.5775  0.3012
 2175SOL    MW4 8434   0.208   3.600   5.134  0.1566 -0.3120 -0.2446
 2176SOL     OW 8435   2.550   0.730   1.494 -0.3892  0.2710 -0.1200
 2176SOL    HW2 8436   2.634   0.686   1.488  0.1491  1.1684  0.5224
 2176SOL    HW3 8437   2.541   0.753   1.587 -2.1248 -1.2698  0.1415
 2176SOL    MW4 8438   2.560   0.727   1.506  0.2918  0.1555 -0.2581
 2177SOL     OW 8439   1.777   4.449   3.857  0.3462  0.2835 -0.4414
 2177SOL    HW2 8440   1.869   4.452   3.830  0.6036 -2.9427 -0.3024
 2177SOL    HW3 8441   1.764   4.359   3.888 -2.5050  1.0540  0.9135
 2177SOL    MW4 8442   1.787   4.438   3.857 -0.6128  0.3361  0.0075
 2178SOL     OW 8443   4.181   3.139   2.236  0.5419 -0.2618  0.4730
 2178SOL    HW2 8444   4.135   3.195   2.173  1.5539 -1.5133 -1.4558
 2178SOL    HW3 8445   4.147   3.167   2.322 -1.2245  1.1834 -0.6256
 2178SOL    MW4 8446   4.170   3.150   2.239  0.2415  0.6144  0.3652
 2179SOL     OW 8447   0.402   0.893   3.692  0.1358 -0.3772  0.2590
 2179SOL    HW2 8448   0.369   0.935   3.772  1.8449  0.8181  0.3861
 2179SOL    HW3 8449   0.431   0.966   3.637  0.7265 -1.2718 -0.6391
 2179SOL    MW4 8450   0.402   0.908   3.696  0.0234  0.2477  0.6047
 2180SOL     OW 8451   3.602   2.228   0.633  0.2779  0.2530  0.2002
 2180SOL    HW2 8452   3.695   2.252   0.642 -0.2432  2.1206  1.2749
 2180SOL    HW3 8453   3.600   2.164   0.562  2.3507  0.3941 -0.0493
 2180SOL    MW4 8454   3.614   2.223   0.625 -0.1234 -0.1103  0.4941
 2181SOL     OW 8455   1.913   4.482   4.737  0.1742 -0.0599 -0.5813
 2181SOL    HW2 8456   1.850   4.441   4.797 -0.7095 -0.5347 -1.7810
 2181SOL    HW3 8457   1.995   4.483   4.785 -0.4584 -0.6233  0.5517
 2181SOL    MW4 8458   1.915   4.476   4.751  0.1196  0.6413 -0.5284
 2182SOL     OW 8459   3.158   3.717   3.560  0.3981  0.3566  0.3487
 2182SOL    HW2 8460   3.084   3.778   3.555  0.5122  0.4329 -0.7528
 2182SOL    HW3 8461   3.126   3.638   3.516 -0.2217 -0.9284  2.9127
 2182SOL    MW4 8462   3.144   3.715   3.553  0.1673  0.2616  0.2811
 2183SOL     OW 8463   6.320   0.918   1.460 -0.6829  0.4062  0.1371
 2183SOL    HW2 8464   6.232   0.898   1.428 -1.1313  0.3576  1.3466
 2183SOL    HW3 8465   6.346   0.840   1.509 -0.2975  0.7316  0.4568
 2183SOL    MW4 8466   6.312   0.905   1.462 -0.1782 -0.3594 -0.2200
 2184SOL     OW 8467   6.387   3.532   4.278 -0.1878  0.4407 -0.8186
 2184SOL    HW2 8468   6.382   3.445   4.316 -1.4968  1.5999  1.9706
 2184SOL    HW3 8469   6.308   3.539   4.224 -0.7888  0.2883  0.0107
 2184SOL    MW4 8470   6.376   3.522   4.276 -0.2454 -0.3465  0.0226
 2185SOL     OW 8471   1.955   3.024   4.279 -0.0283  0.8850 -0.0095
 2185SOL    HW2 8472   1.869   3.062   4.264 -0.6249 -0.2358  0.4483
 2185SOL    HW3 8473   1.951   2.990   4.368  1.1276  1.4106  0.2691
 2185SOL    MW4 8474   1.943   3.025   4.289  0.3202 -0.1829 -0.3355
 2186SOL     OW 8475   5.714   1.177   6.291 -0.0829  0.1867  0.0851
 2186SOL    HW2 8476   5.658   1.216   6.224  1.4504  3.4312  0.4574
 2186SOL    HW3 8477   5.794   1.152   6.244  0.5898  1.5171  0.4744
 2186SOL    MW4 8478   5.718   1.179   6.276 -0.8187  0.1515 -0.5660
 2187SOL     OW 8479   0.884   3.965   4.848 -0.2527  0.2359  0.7499
 2187SOL    HW2 8480   0.851   3.893   4.795 -0.6898  0.8560  0.1816
 2187SOL    HW3 8481   0.943   3.923   4.911 -0.1036 -0.5547  0.0885
 2187SOL    MW4 8482   0.888   3.950   4.849  0.0020 -0.0602 -0.0365
 2188SOL     OW 8483   3.964   0.526   4.767 -0.9590  0.2323  0.0038
 2188SOL    HW2 8484   3.939   0.453   4.823  1.3997 -1.0307 -0.4945
 2188SOL    HW3 8485   3.989   0.595   4.828 -1.2714 -0.0723  0.4838
 2188SOL    MW4 8486   3.964   0.526   4.782 -0.0835  0.3581 -0.0743
 2189SOL     OW 8487   1.145   2.324   4.827  0.3522  0.3253  0.7848
 2189SOL    HW2 8488   1.198   2.370   4.762 -0.9952  0.9566  0.0923
 2189SOL    HW3 8489   1.144   2.383   4.903 -0.4076  0.9140  0.3260
 2189SOL    MW4 8490   1.152   2.338   4.829  0.3602 -0.1934 -0.0412
 2190SOL     OW 8491   4.646   0.016   1.025 -0.6846 -0.1644  0.1610
 2190SOL    HW2 8492   4.740   0.004   1.030 -0.5958  0.1449 -0.5759
 2190SOL    HW3 8493   4.609  -0.067   1.053 -0.1801 -0.4904 -0.1293
 2190SOL    MW4 8494   4.653   0.004   1.029 -0.1294  0.0518  0.6516
 2191SOL     OW 8495   4.626   3.098   0.979 -0.4689  0.0095  0.1856
 2191SOL    HW2 8496   4.719   3.106   0.960  0.1873 -0.8759  2.6154
 2191SOL    HW3 8497   4.588   3.059   0.900  1.3299 -0.2056 -0.6054
 2191SOL    MW4 8498   4.633   3.094   0.966  0.1550 -0.5026 -0.0955
 2192SOL     OW 8499   2.117   3.707   1.455  0.1460  0.1499  0.7741
 2192SOL    HW2 8500   2.197   3.690   1.505  0.9385  0.2982 -0.4039
 2192SOL    HW3 8501   2.046   3.693   1.517  1.0267 -1.3666  1.4776
 2192SOL    MW4 8502   2.118   3.703   1.470 -0.0608  0.3241  0.4843
 2193SOL     OW 8503   3.975   1.366   3.575 -0.0050 -0.4770 -0.7969
 2193SOL    HW2 8504   3.884   1.358   3.604  0.8238  0.6190  2.6201
 2193SOL    HW3 8505   4.013   1.279   3.591 -0.2676 -0.7614 -1.6543
 2193SOL    MW4 8506   3.968   1.353   3.581 -0.0554 -0.8764  0.2228
 2194SOL     OW 8507   5.788   1.221   4.445 -0.2972 -0.4693 -0.2393
 2194SOL    HW2 8508   5.813   1.145   4.393 -0.1293  0.8395 -2.1644
 2194SOL    HW3 8509   5.695   1.208   4.464 -0.7032 -0.3767 -2.0044
 2194SOL    MW4 8510   5.779   1.209   4.441 -0.4092  0.0354  0.3762
 2195SOL     OW 8511   1.706   4.313   4.878  0.0966  0.4883  0.7807
 2195SOL    HW2 8512   1.693   4.294   4.971 -1.8037 -1.0099  0.2831
 2195SOL    HW3 8513   1.683   4.231   4.833 -1.1044  1.7628 -1.1068
 2195SOL    MW4 8514   1.701   4.300   4.884  0.1166 -0.6250  0.0815
 2196SOL     OW 8515   0.621   0.727   0.684  0.2569  0.4101 -0.2555
 2196SOL    HW2 8516   0.668   0.801   0.646  1.1358  0.0749  0.1432
 2196SOL    HW3 8517   0.671   0.650   0.656 -0.8617 -0.0840 -1.0031
 2196SOL    MW4 8518   0.634   0.726   0.675  0.0088 -0.3661 -0.3177
 2197SOL     OW 8519   5.146   2.539   5.715 -0.5783  0.0969  0.6908
 2197SOL    HW2 8520   5.213   2.507   5.776 -0.1835  0.3376  0.3833
 2197SOL    HW3 8521   5.147   2.634   5.726  0.7058  0.3104 -0.9242
 2197SOL    MW4 8522   5.155   2.547   5.725 -0.0868 -0.1516 -0.3732
 2198SOL     OW 8523   1.293   0.668   1.331 -0.4168  0.1370  0.3692
 2198SOL    HW2 8524   1.348   0.592   1.353 -0.1202  0.3448  0.3608
 2198SOL    HW3 8525   1.225   0.633   1.274 -0.4829 -0.1872  0.6419
 2198SOL    MW4 8526   1.291   0.653   1.327  0.0419  0.4963  0.2804
 2199SOL     OW 8527   2.760   4.348   4.380 -0.4665  0.0257  0.1652
 2199SOL    HW2 8528   2.849   4.331   4.410 -0.0357 -0.0248 -1.0978
 2199SOL    HW3 8529   2.749   4.292   4.304 -1.6981 -0.1946  0.4836
 2199SOL    MW4 8530   2.770   4.338   4.374  0.0428 -0.3751 -0.3601
 2200SOL     OW 8531   5.705   5.336   5.524  0.6383  0.0643 -0.0954
 2200SOL    HW2 8532   5.790   5.368   5.493  1.1367 -1.4969 -0.4268
 2200SOL    HW3 8533   5.697   5.372   5.613  0.8735  1.5622 -0.6533
 2200SOL    MW4 8534   5.715   5.345   5.532 -0.5011  0.3003 -0.5763
 2201SOL     OW 8535   2.247   2.881   5.292 -0.3953  0.1249  0.0532
 2201SOL    HW2 8536   2.165   2.908   5.333 -1.1424 -1.0441 -0.5947
 2201SOL    HW3 8537   2.274   2.803   5.341  2.1360  2.2762  2.4109
 2201SOL    MW4 8538   2.239   2.874   5.304 -0.3695 -0.2596  0.1113
 2202SOL     OW 8539   4.744   3.998   4.132 -0.6614  0.0399 -0.6144
 2202SOL    HW2 8540   4.710   4.075   4.177 -1.0743  0.0469 -0.9285
 2202SOL    HW3 8541   4.778   4.032   4.049  0.9540  0.1670  0.0675
 2202SOL    MW4 8542   4.744   4.012   4.127  0.3711 -0.0820 -0.5899
 2203SOL     OW 8543   4.595   6.059   5.319  0.4879 -0.4488  0.2084
 2203SOL    HW2 8544   4.664   6.012   5.367 -1.1256 -2.0608  1.0976
 2203SOL    HW3 8545   4.596   6.147   5.357  0.2833 -1.2407  2.1899
 2203SOL    MW4 8546   4.604   6.065   5.331 -0.8555  0.0933 -0.1855
 2204SOL     OW 8547   4.478   6.124   3.974  0.0737  0.7677 -0.2904
 2204SOL    HW2 8548   4.464   6.172   3.892  2.0731 -0.7726 -1.6327
 2204SOL    HW3 8549   4.469   6.191   4.042 -0.2696  2.4015 -1.8581
 2204SOL    MW4 8550   4.475   6.139   3.972  0.0721  0.0952  0.0286
 2205SOL     OW 8551   4.289   1.770   2.233 -0.1225 -0.1623 -0.5735
 2205SOL    HW2 8552   4.244   1.797   2.313  1.9250 -1.8294  1.2851
 2205SOL    HW3 8553   4.363   1.830   2.224  1.3853 -1.7310  0.5890
 2205SOL    MW4 8554   4.293   1.781   2.242  0.4055  0.1580 -0.1129
 2206SOL     OW 8555   0.963   2.727   4.026  0.1021  0.2038 -0.0366
 2206SOL    HW2 8556   1.030   2.660   4.023  0.2521  0.3845 -0.9679
 2206SOL    HW3 8557   1.001   2.802   3.981 -1.0262  0.0164 -1.3765
 2206SOL    MW4 8558   0.977   2.728   4.020  0.2390  0.2148 -0.2735
 2207SOL     OW 8559   2.075   3.392   2.837  0.0319  0.0732 -0.3926
 2207SOL    HW2 8560   2.042   3.392   2.747 -0.0230  1.4504 -0.3858
 2207SOL    HW3 8561   1.997   3.389   2.892  0.0804 -2.3756 -0.3395
 2207SOL    MW4 8562   2.060   3.392   2.832  0.0615  0.1181 -0.0134
 2208SOL     OW 8563   2.228   6.412   3.051 -0.0509  0.6640 -0.0076
 2208SOL    HW2 8564   2.176   6.373   3.120 -0.4189  2.3421  0.7249
 2208SOL    HW3 8565   2.318   6.389   3.072 -0.3851 -1.6534 -0.8802
 2208SOL    MW4 8566   2.233   6.404   3.063 -0.5522  0.2568  0.2815
 2209SOL     OW 8567   0.043   5.476   0.804  0.3806  0.0754  0.2726
 2209SOL    HW2 8568   0.125   5.428   0.789 -0.3456 -1.4035  0.8567
 2209SOL    HW3 8569   0.003   5.432   0.879 -1.3561  0.2264 -0.5259
 2209SOL    MW4 8570   0.049   5.464   0.812  0.1066  0.1862 -0.4257
 2210SOL     OW 8571   5.589   3.100   2.003 -0.0118 -0.5601 -0.2524
 2210SOL    HW2 8572   5.532   3.081   1.929  0.2635 -0.4552 -0.4965
 2210SOL    HW3 8573   5.637   3.178   1.976 -0.9774  0.3763  0.6411
 2210SOL    MW4 8574   5.588   3.108   1.990  0.3514  0.3719  0.1104
 2211SOL     OW 8575   3.252   2.855   2.283  0.5816  0.5158  0.0617
 2211SOL    HW2 8576   3.169   2.884   2.244  1.3977  0.5559 -1.7450
 2211SOL    HW3 8577   3.307   2.933   2.283  0.3838  0.6855  2.0054
 2211SOL    MW4 8578   3.248   2.869   2.278  0.1817 -0.8894 -0.2670
 2212SOL     OW 8579   2.064   2.902   2.677  0.0872  0.3955 -0.0739
 2212SOL    HW2 8580   2.153   2.869   2.692  0.0972 -0.4235 -1.6534
 2212SOL    HW3 8581   2.077   2.985   2.631  0.0934 -0.6487 -2.0776
 2212SOL    MW4 8582   2.077   2.908   2.673  0.2583  0.0082 -0.0438
 2213SOL     OW 8583   5.322   4.991   2.108  0.5578  0.0801  0.2943
 2213SOL    HW2 8584   5.393   5.020   2.051  0.3782 -0.2300 -0.0960
 2213SOL    HW3 8585   5.299   4.904   2.075  1.7125 -0.9455  2.0232
 2213SOL    MW4 8586   5.328   4.983   2.096  0.0554  0.0199  0.3107
 2214SOL     OW 8587   1.027   1.517   0.197 -0.1033 -0.1655  0.0098
 2214SOL    HW2 8588   1.045   1.608   0.172  1.8816 -0.2496  0.9414
 2214SOL    HW3 8589   1.063   1.465   0.126  3.1663 -0.3123  1.6000
 2214SOL    MW4 8590   1.034   1.522   0.185  0.2230  0.1594 -0.3344
 2215SOL     OW 8591   1.651   2.424   5.356 -0.0275 -0.6803  0.3626
 2215SOL    HW2 8592   1.659   2.345   5.408  0.7115 -0.5839  0.4028
 2215SOL    HW3 8593   1.610   2.488   5.414  0.4745 -0.6761  0.7112
 2215SOL    MW4 8594   1.646   2.422   5.370 -0.2191  0.2107  0.0843
 2216SOL     OW 8595   6.140   5.653   1.727  0.0018  0.1144 -0.2569
 2216SOL    HW2 8596   6.210   5.643   1.662  1.0572  1.0968  0.6893
 2216SOL    HW3 8597   6.060   5.633   1.679  0.9350 -1.2779 -1.3129
 2216SOL    MW4 8598   6.139   5.649   1.712 -0.1277  0.0016  0.3056
 2217SOL     OW 8599   1.710   3.483   3.630  0.1603 -0.3900 -0.2092
 2217SOL    HW2 8600   1.701   3.424   3.556  1.8233 -2.8500  1.3942
 2217SOL    HW3 8601   1.776   3.443   3.685  0.3759  2.3076  1.7271
 2217SOL    MW4 8602   1.717   3.470   3.628 -0.0842 -0.0095  0.3332
 2218SOL     OW 8603   5.444   0.394   2.375 -0.5755  0.2083  0.5651
 2218SOL    HW2 8604   5.432   0.299   2.378 -0.1480  0.1603  0.9160
 2218SOL    HW3 8605   5.381   0.425   2.311  0.1060 -0.4437 -0.4383
 2218SOL    MW4 8606   5.434   0.386   2.367 -0.3779  0.2645  1.0476
 2219SOL     OW 8607   1.051   1.795   0.540 -0.0912 -0.4197  0.0727
 2219SOL    HW2 8608   1.076   1.828   0.626  0.6758 -0.0666 -0.2783
 2219SOL    HW3 8609   1.113   1.725   0.522 -0.5452 -0.8100  0.0038
 2219SOL    MW4 8610   1.063   1.790   0.549  0.1843 -0.1139  0.6599
 2220SOL     OW 8611   3.733   5.902   6.247 -0.7381 -0.7284  0.1480
 2220SOL    HW2 8612   3.751   5.957   6.323 -1.8656  0.4011 -0.3545
 2220SOL    HW3 8613   3.685   5.827   6.282 -0.8452 -0.4460  0.6149
 2220SOL    MW4 8614   3.729   5.900   6.261  0.7508  0.0661 -0.0057
 2221SOL     OW 8615   0.137   5.177   1.175 -0.0171  0.2445  0.8216
 2221SOL    HW2 8616   0.090   5.114   1.230 -0.4357 -0.4671 -0.3224
 2221SOL    HW3 8617   0.114   5.262   1.213 -0.6162 -0.1991  1.5037
 2221SOL    MW4 8618   0.128   5.180   1.188 -0.0263 -0.6099  0.1498
 2222SOL     OW 8619   0.932   4.772   5.059  0.2590 -0.5685  0.3956
 2222SOL    HW2 8620   0.931   4.677   5.074  0.8758 -0.5354  0.6910
 2222SOL    HW3 8621   0.970   4.782   4.971 -1.3336 -0.6598 -0.3410
 2222SOL    MW4 8622   0.937   4.761   5.049 -0.0797  0.2148 -0.1918
 2223SOL     OW 8623   2.955   5.291   0.624  0.1294  0.0605  0.3336
 2223SOL    HW2 8624   3.028   5.229   0.631 -0.4394 -0.4518  2.2680
 2223SOL    HW3 8625   2.914   5.270   0.540  1.2072 -0.7455 -0.0169
 2223SOL    MW4 8626   2.959   5.280   0.614 -0.3682  0.3708 -0.0219
 2224SOL     OW 8627   1.972   4.906   1.835  0.6030 -0.6840  0.1172
 2224SOL    HW2 8628   1.924   4.957   1.771 -1.3423 -3.0530 -0.4874
 2224SOL    HW3 8629   1.930   4.926   1.919  2.5859  1.7521  0.6446
 2224SOL    MW4 8630   1.960   4.915   1.838  0.2219 -0.3879 -0.0853
 2225SOL     OW 8631   3.968   1.496   1.072  0.3656  0.5783  0.0648
 2225SOL    HW2 8632   3.889   1.442   1.080  0.0945  0.5495 -2.1411
 2225SOL    HW3 8633   3.935   1.581   1.042  1.2134  0.3338 -1.6189
 2225SOL    MW4 8634   3.953   1.500   1.069  0.4538 -0.1050 -0.1847
 2226SOL     OW 8635   1.813   4.701   5.455 -0.1972 -0.1955 -0.0761
 2226SOL    HW2 8636   1.900   4.667   5.471  0.2096  0.7611 -0.1751
 2226SOL    HW3 8637   1.800   4.768   5.523 -1.5552 -1.5164  1.0428
 2226SOL    MW4 8638   1.823   4.705   5.466 -0.1116  0.0114  0.4174
 2227SOL     OW 8639   3.152   5.145   1.925 -0.0548  0.0789 -0.1245
 2227SOL    HW2 8640   3.091   5.201   1.876 -2.8769 -3.4225 -1.0558
 2227SOL    HW3 8641   3.115   5.141   2.013 -0.8422 -1.5199 -0.5041
 2227SOL    MW4 8642   3.139   5.152   1.930 -0.8571 -0.1360  0.0905
 2228SOL     OW 8643   5.693   4.877   1.026 -0.6471  0.0685 -0.1417
 2228SOL    HW2 8644   5.771   4.863   1.080 -1.1442  2.1316  1.2369
 2228SOL    HW3 8645   5.621   4.843   1.079 -0.7834 -1.2367 -1.1287
 2228SOL    MW4 8646   5.694   4.871   1.040 -0.1329 -0.2687  0.0932
 2229SOL     OW 8647   3.472   1.784   1.427  0.4242 -0.6329  0.2791
 2229SOL    HW2 8648   3.553   1.812   1.470  2.2459 -2.9785 -1.3138
 2229SOL    HW3 8649   3.465   1.691   1.449 -0.2679 -1.1523 -1.8868
 2229SOL    MW4 8650   3.482   1.775   1.436  0.1797  0.1043  0.0342
 2230SOL     OW 8651   2.905   0.670   0.653  0.1435  0.0715  0.1730
 2230SOL    HW2 8652   2.828   0.676   0.709 -0.9906  1.4244 -1.4464
 2230SOL    HW3 8653   2.924   0.760   0.629  0.0558 -0.4937 -2.2803
 2230SOL    MW4 8654   2.898   0.682   0.657  0.2602 -0.0121  0.1163
 2231SOL     OW 8655   4.192   1.866   2.910 -0.5127 -0.6691  0.1310
 2231SOL    HW2 8656   4.258   1.849   2.977  0.5406 -2.7466 -1.3211
 2231SOL    HW3 8657   4.111   1.880   2.959  0.0469 -2.9482  1.8724
 2231SOL    MW4 8658   4.190   1.865   2.925  0.2431 -0.4632  0.4323
 2232SOL     OW 8659   3.574   3.398   2.233 -0.2022 -0.1149 -0.1279
 2232SOL    HW2 8660   3.524   3.318   2.219  1.4018 -1.5318  1.7322
 2232SOL    HW3 8661   3.539   3.435   2.314  0.7933 -0.4001  0.4592
 2232SOL    MW4 8662   3.563   3.392   2.242 -0.1349 -0.1236 -0.0987
 2233SOL     OW 8663   4.309   5.112   0.926  0.0845 -0.0940 -0.6105
 2233SOL    HW2 8664   4.338   5.151   1.008 -1.2735  0.0324 -0.1770
 2233SOL    HW3 8665   4.355   5.028   0.921  0.8100  0.2683 -0.1402
 2233SOL    MW4 8666   4.319   5.106   0.936 -0.0904  0.1294  0.6772
 2234SOL     OW 8667   3.576   4.651   6.110  0.4842  0.2488  0.5751
 2234SOL    HW2 8668   3.639   4.605   6.166 -0.0947 -1.3616 -0.0372
 2234SOL    HW3 8669   3.629   4.696   6.045  1.1271 -3.4200 -1.7752
 2234SOL    MW4 8670   3.591   4.651   6.109 -0.3152 -0.0376  0.0025
 2235SOL     OW 8671   0.892   3.704   0.290  0.4717  0.1814 -0.0535
 2235SOL    HW2 8672   0.805   3.670   0.269 -0.5452  1.2786  1.9927
 2235SOL    HW3 8673   0.929   3.730   0.206  0.3642 -3.5841 -1.4713
 2235SOL    MW4 8674   0.885   3.703   0.277  0.3683 -0.4265 -0.2778
 2236SOL     OW 8675   5.488   3.241   4.532 -0.6567 -0.0261  0.1404
 2236SOL    HW2 8676   5.572   3.205   4.503  0.9547  1.1995  2.8801
 2236SOL    HW3 8677   5.488   3.331   4.500 -0.2270  0.4057  1.2868
 2236SOL    MW4 8678   5.499   3.248   4.524  0.7089 -0.6993 -0.5173
 2237SOL     OW 8679   3.200   4.501   4.337 -0.6771 -0.4073  0.1996
 2237SOL    HW2 8680   3.183   4.504   4.243 -0.3839  0.7992  0.1792
 2237SOL    HW3 8681   3.273   4.440   4.346  0.2819  0.6132 -0.5138
 2237SOL    MW4 8682   3.207   4.493   4.326  0.2368  0.6893  0.4442
 2238SOL     OW 8683   2.366   6.366   3.451  0.1687  0.2080  0.1866
 2238SOL    HW2 8684   2.326   6.294   3.403 -0.4419  0.7193 -0.0888
 2238SOL    HW3 8685   2.441   6.392   3.398  0.4619 -0.2947  0.3472
 2238SOL    MW4 8686   2.371   6.360   3.438  0.1949 -0.1891 -0.5721
 2239SOL     OW 8687   3.232   4.843   0.966  0.0089  0.0472  1.2042
 2239SOL    HW2 8688   3.276   4.926   0.985  0.4444 -0.2618  1.5433
 2239SOL    HW3 8689   3.143   4.855   0.997 -1.2176  1.9177 -2.4606
 2239SOL    MW4 8690   3.226   4.856   0.972 -0.5803 -0.3760  0.1799
 2240SOL     OW 8691   0.850   4.880   0.859  0.2769 -0.5671  0.2676
 2240SOL    HW2 8692   0.768   4.872   0.810 -0.4376  2.4379  0.7496
 2240SOL    HW3 8693   0.822   4.889   0.950  1.1647 -0.1110  0.5040
 2240SOL    MW4 8694   0.835   4.880   0.865  0.6554  0.2741  0.1559
 2241SOL     OW 8695   2.582   2.866   0.797  0.0726  0.2954 -0.3492
 2241SOL    HW2 8696   2.674   2.888   0.781  0.1003  0.2344 -0.2750
 2241SOL    HW3 8697   2.556   2.922   0.870 -0.0288  0.5124 -0.5516
 2241SOL    MW4 8698   2.591   2.877   0.805  0.3215 -0.1917  0.1951
 2242SOL     OW 8699   1.397   1.370   1.947  0.1617  0.5502  0.3693
 2242SOL    HW2 8700   1.323   1.345   2.002  0.5607 -0.5986  0.4292
 2242SOL    HW3 8701   1.393   1.308   1.873  0.0616  1.5866 -0.5235
 2242SOL    MW4 8702   1.387   1.358   1.944 -0.6611 -0.6152 -0.3422
 2243SOL     OW 8703   6.052   3.166   2.151  0.1501  0.0945  0.2011
 2243SOL    HW2 8704   6.147   3.178   2.151  0.3015 -0.9723  0.8423
 2243SOL    HW3 8705   6.039   3.085   2.102 -0.5650  1.0207 -1.2192
 2243SOL    MW4 8706   6.062   3.157   2.144  0.2824  0.1198 -0.2953
 2244SOL     OW 8707   3.602   5.162   3.986 -0.0147 -0.1025 -0.2477
 2244SOL    HW2 8708   3.582   5.167   4.079 -0.0643  1.2072 -0.3094
 2244SOL    HW3 8709   3.536   5.102   3.950  0.1228 -0.7599  0.5766
 2244SOL    MW4 8710   3.590   5.154   3.994 -0.4961 -0.2056  0.2947
 2245SOL     OW 8711   4.071   5.891   1.010  0.3494 -0.2480 -0.2400
 2245SOL    HW2 8712   4.128   5.950   1.058  0.8345 -0.3103 -0.7266
 2245SOL    HW3 8713   4.088   5.805   1.047  0.9791 -0.3497 -0.7378
 2245SOL    MW4 8714   4.081   5.888   1.021  0.3788 -0.0489 -0.0148
 2246SOL     OW 8715   1.174   4.489   4.257 -0.2405 -0.0290  0.1059
 2246SOL    HW2 8716   1.189   4.496   4.351 -1.4001 -0.1984  0.3179
 2246SOL    HW3 8717   1.159   4.396   4.242  2.7286 -0.4652 -0.7278
 2246SOL    MW4 8718   1.174   4.478   4.267 -0.2226  0.7344  0.0055
 2247SOL     OW 8719   3.370   1.573   2.737  0.7737 -0.0157 -0.2797
 2247SOL    HW2 8720   3.410   1.491   2.708  0.5549 -0.6193  1.0891
 2247SOL    HW3 8721   3.276   1.555   2.738  0.7213  0.2782 -0.0337
 2247SOL    MW4 8722   3.363   1.560   2.733 -0.2516  0.7299  0.0648
 2248SOL     OW 8723   5.365   2.425   5.872  0.3839 -0.3908 -0.6381
 2248SOL    HW2 8724   5.449   2.470   5.861 -0.1920  0.2652 -2.8629
 2248SOL    HW3 8725   5.379   2.338   5.835  0.2848 -0.5334 -0.3433
 2248SOL    MW4 8726   5.378   2.419   5.866 -0.1230 -0.5426  0.3807
 2249SOL     OW 8727   4.370   2.456   0.895 -0.1102  0.4971 -0.2273
 2249SOL    HW2 8728   4.278   2.458   0.869 -0.5265  0.3972  1.1678
 2249SOL    HW3 8729   4.401   2.370   0.864 -0.8995 -0.1096  0.6151
 2249SOL    MW4 8730   4.362   2.445   0.887 -0.1329 -0.0459 -0.1204
 2250SOL     OW 8731   5.323   4.770   1.725  0.1612 -0.1148 -0.5058
 2250SOL    HW2 8732   5.287   4.756   1.812 -0.8212 -1.4507 -1.0824
 2250SOL    HW3 8733   5.328   4.865   1.715 -2.2723  0.1336  0.0157
 2250SOL    MW4 8734   5.319   4.780   1.735 -0.5821  0.1406  0.5471
 2251SOL     OW 8735   4.901   2.093   5.938 -0.5585 -0.0481  0.0476
 2251SOL    HW2 8736   4.909   2.052   5.852 -0.9724 -0.4289  0.1875
 2251SOL    HW3 8737   4.821   2.146   5.932 -0.8706 -0.4725  0.3513
 2251SOL    MW4 8738   4.891   2.095   5.926  0.3349 -0.2298  0.3678
 2252SOL     OW 8739   4.922   2.774   4.720  0.3285 -0.2898  0.2611
 2252SOL    HW2 8740   4.917   2.790   4.626  0.9807 -0.8906  0.1149
 2252SOL    HW3 8741   4.875   2.847   4.759  0.0519 -0.0292 -0.5287
 2252SOL    MW4 8742   4.915   2.786   4.713  0.5126 -0.2957 -0.4018
 2253SOL     OW 8743   6.010   2.336   4.721 -0.1244 -0.0444  0.5411
 2253SOL    HW2 8744   5.963   2.253   4.715 -2.0544  1.0173  0.3411
 2253SOL    HW3 8745   6.005   2.360   4.813  2.3509 -1.1339  1.0604
 2253SOL    MW4 8746   6.003   2.328   4.732 -0.1750  0.1922 -0.2508
 2254SOL     OW 8747   0.240   0.543   2.117 -0.2236  0.0884  0.1752
 2254SOL    HW2 8748   0.297   0.619   2.131 -0.5668  0.1915  1.0642
 2254SOL    HW3 8749   0.200   0.559   2.031  0.2786  0.5386  0.0211
 2254SOL    MW4 8750   0.242   0.555   2.108  0.1120 -0.5454  0.0569
 2255SOL     OW 8751   4.147   0.291   5.747  0.3552  0.8519 -0.1842
 2255SOL    HW2 8752   4.174   0.336   5.667  1.9136  0.4142  0.0471
 2255SOL    HW3 8753   4.059   0.260   5.729  1.1808 -0.5022 -2.3264
 2255SOL    MW4 8754   4.139   0.293   5.734  0.0502 -0.4584  0.0474
 2256SOL     OW 8755   1.777   1.927   5.455  0.1073 -0.2120  0.3769
 2256SOL    HW2 8756   1.751   1.891   5.540 -0.7585 -0.6971 -0.0809
 2256SOL    HW3 8757   1.772   1.853   5.395 -0.1774  0.3329 -0.2821
 2256SOL    MW4 8758   1.773   1.913   5.458  0.4572 -0.0787 -0.2252
 2257SOL     OW 8759   0.610   4.375   1.834 -0.2503  0.1678  0.0532
 2257SOL    HW2 8760   0.582   4.424   1.757 -1.6017  1.6382  1.3859
 2257SOL    HW3 8761   0.652   4.296   1.800 -3.7812 -0.9399 -2.1785
 2257SOL    MW4 8762   0.612   4.371   1.820  0.5905  0.1892 -0.1812
 2258SOL     OW 8763   3.217   4.475   0.322  0.2556  0.0628 -0.2904
 2258SOL    HW2 8764   3.167   4.501   0.245  1.1807  2.0770 -0.2884
 2258SOL    HW3 8765   3.235   4.382   0.310  0.4259  0.3451 -2.5407
 2258SOL    MW4 8766   3.213   4.466   0.311 -0.0606 -0.6610  0.1034
 2259SOL     OW 8767   1.215   0.285   5.234  0.8421 -0.0587 -0.4220
 2259SOL    HW2 8768   1.180   0.284   5.145  2.0316 -0.6696 -0.9042
 2259SOL    HW3 8769   1.286   0.220   5.233  1.0456  0.1104  0.8971
 2259SOL    MW4 8770   1.220   0.277   5.222 -0.0323 -0.4751  0.0498
 2260SOL     OW 8771   4.786   5.594   3.689 -0.3307 -0.1875  0.2596
 2260SOL    HW2 8772   4.722   5.551   3.745 -1.4416 -0.6202 -1.2549
 2260SOL    HW3 8773   4.844   5.523   3.660 -0.4537 -0.1747 -0.0226
 2260SOL    MW4 8774   4.785   5.579   3.692  0.3019 -0.4341 -0.4085
 2261SOL     OW 8775   0.168   5.013   0.647  0.4337  0.6401 -0.0758
 2261SOL    HW2 8776   0.169   5.031   0.741 -0.1436 -0.0276  0.0650
 2261SOL    HW3 8777   0.172   5.100   0.606 -1.6056  1.1042  0.5758
 2261SOL    MW4 8778   0.169   5.027   0.654 -0.0916  0.5300 -0.2762
 2262SOL     OW 8779   1.838   4.688   5.862 -0.5232  0.5447  0.4925
 2262SOL    HW2 8780   1.851   4.729   5.948 -1.9568 -0.6167  1.3056
 2262SOL    HW3 8781   1.745   4.666   5.859 -0.7091  1.3565 -1.7515
 2262SOL    MW4 8782   1.827   4.691   5.873  0.2966 -0.4949  0.3334
 2263SOL     OW 8783   4.726   6.077   2.314 -0.6256  0.7121 -0.3719
 2263SOL    HW2 8784   4.667   6.100   2.386  0.6247 -1.2940  1.4082
 2263SOL    HW3 8785   4.688   5.997   2.277  0.5881 -0.2684  0.4138
 2263SOL    MW4 8786   4.713   6.069   2.319  0.2356 -0.3109  0.2829
 2264SOL     OW 8787   3.174   4.205   3.912  0.5952 -0.5499 -0.5457
 2264SOL    HW2 8788   3.081   4.193   3.891  0.1485  2.1664 -0.5463
 2264SOL    HW3 8789   3.217   4.128   3.876 -1.6074 -1.7350 -0.8377
 2264SOL    MW4 8790   3.167   4.194   3.904  0.4454  0.4514  0.2133
 2265SOL     OW 8791   2.860   4.443   5.780  0.0983  0.4415  0.5096
 2265SOL    HW2 8792   2.886   4.389   5.855 -1.4242 -1.4273 -0.2196
 2265SOL    HW3 8793   2.842   4.380   5.711 -0.5596  1.9965 -0.7952
 2265SOL    MW4 8794   2.861   4.428   5.781  0.0461 -0.0076 -0.6635
 2266SOL     OW 8795   0.616   3.590   0.215  1.2108  0.3588  0.5093
 2266SOL    HW2 8796   0.625   3.495   0.204  2.5650  0.5972 -0.7783
 2266SOL    HW3 8797   0.566   3.600   0.296 -0.4428 -1.4783 -0.2052
 2266SOL    MW4 8798   0.611   3.578   0.224 -0.4887 -0.1718  0.1465
 2267SOL     OW 8799   3.780   5.691   4.591 -0.5034  0.1955  0.2646
 2267SOL    HW2 8800   3.867   5.664   4.560 -0.1187  2.1679 -0.5143
 2267SOL    HW3 8801   3.799   5.753   4.662 -1.3518 -1.1661  1.7562
 2267SOL    MW4 8802   3.794   5.695   4.596  0.0877  0.0041 -0.5436
 2268SOL     OW 8803   3.324   2.709   0.394 -0.1284 -0.2074  0.5228
 2268SOL    HW2 8804   3.363   2.794   0.376 -0.1114 -0.8915 -3.5181
 2268SOL    HW3 8805   3.241   2.709   0.346 -0.7011 -2.0628  1.3994
 2268SOL    MW4 8806   3.318   2.720   0.385  0.1608 -0.1786  0.6241
 2269SOL     OW 8807   0.437   2.210   0.246  0.1550  0.5120  0.5331
 2269SOL    HW2 8808   0.429   2.136   0.185 -0.6838 -0.8101  2.1666
 2269SOL    HW3 8809   0.531   2.215   0.265  0.2335 -0.1184  0.3520
 2269SOL    MW4 8810   0.448   2.201   0.240 -0.1191  0.2280 -0.5179
 2270SOL     OW 8811   3.682   4.031   4.319 -0.3766  0.4499 -0.1309
 2270SOL    HW2 8812   3.694   3.989   4.405 -0.1225  1.8371  0.5336
 2270SOL    HW3 8813   3.756   4.090   4.311 -0.6169  0.6263 -1.1454
 2270SOL    MW4 8814   3.693   4.033   4.329  0.2179 -0.5149 -0.4806
 2271SOL     OW 8815   5.176   1.853   5.867 -0.9104 -0.2542  0.0864
 2271SOL    HW2 8816   5.161   1.945   5.843 -0.7977 -0.2537  0.0164
 2271SOL    HW3 8817   5.271   1.845   5.871 -0.9271 -0.2661  0.4921
 2271SOL    MW4 8818   5.187   1.864   5.864  0.4261 -0.1001 -0.1938
 2272SOL     OW 8819   1.938   5.809   0.221  0.3296  0.0535 -0.1934
 2272SOL    HW2 8820   1.975   5.751   0.288 -0.5555 -1.1304 -0.6953
 2272SOL    HW3 8821   1.856   5.841   0.260  1.2147  1.6952  0.4239
 2272SOL    MW4 8822   1.932   5.805   0.235 -0.4047 -0.0009  0.0155
 2273SOL     OW 8823   6.232   5.538   4.597  0.8021  0.5680 -0.1229
 2273SOL    HW2 8824   6.260   5.578   4.679  0.8776  0.0300  0.1205
 2273SOL    HW3 8825   6.147   5.498   4.617  0.2224  1.5018 -0.6447
 2273SOL    MW4 8826   6.225   5.538   4.611 -0.3032  0.1261 -0.2659
 2274SOL     OW 8827   5.793   1.397   2.820 -0.5646 -0.2062 -0.5283
 2274SOL    HW2 8828   5.873   1.379   2.771 -1.3285 -1.1803 -1.4834
 2274SOL    HW3 8829   5.802   1.487   2.849  1.6329 -0.8006  0.8731
 2274SOL    MW4 8830   5.805   1.406   2.817  0.7709 -0.3260  0.6021
 2275SOL     OW 8831   3.044   1.075   0.926  0.0420  0.2819 -0.7841
 2275SOL    HW2 8832   2.989   1.023   0.985  0.8804  0.8899  0.5841
 2275SOL    HW3 8833   3.131   1.035   0.933  0.6565  1.7179  0.1608
 2275SOL    MW4 8834   3.048   1.063   0.935 -0.3063 -0.1264 -0.0859
 2276SOL     OW 8835   3.653   5.497   2.870  0.3277  0.2287 -0.3689
 2276SOL    HW2 8836   3.707   5.421   2.893  1.7832  1.7241  1.4902
 2276SOL    HW3 8837   3.655   5.499   2.775  1.2872 -1.3383 -0.4267
 2276SOL    MW4 8838   3.661   5.487   2.861 -0.3895 -0.5051  0.2778
 2277SOL     OW 8839   1.347   0.195   4.273  0.2357 -0.0514 -0.0683
 2277SOL    HW2 8840   1.264   0.219   4.232 -1.4045 -3.0135  1.2147
 2277SOL    HW3 8841   1.355   0.255   4.347  0.7246  2.0285 -1.6827
 2277SOL    MW4 8842   1.337   0.206   4.277  0.2573 -0.1162  0.2984
 2278SOL     OW 8843   5.615   6.037   0.241  0.1181  0.2204  0.0972
 2278SOL    HW2 8844   5.701   6.053   0.202  0.7306 -1.6212  0.5661
 2278SOL    HW3 8845   5.556   6.025   0.167  0.5605  0.1222 -0.2437
 2278SOL    MW4 8846   5.619   6.038   0.226 -1.0169 -0.7507  0.0978
 2279SOL     OW 8847   2.815   1.411   5.590  0.1195  0.0259 -0.3361
 2279SOL    HW2 8848   2.866   1.482   5.549 -0.5173  1.7369  1.6696
 2279SOL    HW3 8849   2.854   1.401   5.677 -1.1049 -0.6553  0.1545
 2279SOL    MW4 8850   2.827   1.419   5.596 -0.0474  0.2703 -0.3651
 2280SOL     OW 8851   0.614   6.076   4.664  0.1662 -0.3715  0.0475
 2280SOL    HW2 8852   0.618   6.171   4.651  1.3985 -0.5259 -0.9138
 2280SOL    HW3 8853   0.706   6.049   4.668 -0.1673 -1.4693  0.8092
 2280SOL    MW4 8854   0.627   6.085   4.663  0.3959 -0.2776  0.3419
 2281SOL     OW 8855   3.367   2.054   1.682 -0.3278  0.1447 -0.1883
 2281SOL    HW2 8856   3.334   2.008   1.604 -0.9935  2.6618 -1.4888
 2281SOL    HW3 8857   3.289   2.072   1.734 -0.3341  1.2471 -0.5472
 2281SOL    MW4 8858   3.352   2.050   1.679 -0.1444 -0.1113 -0.5964
 2282SOL     OW 8859   1.653   0.658   1.489 -0.0176  0.3268  0.7364
 2282SOL    HW2 8860   1.718   0.689   1.552  0.2083  0.4143  0.4675
 2282SOL    HW3 8861   1.606   0.738   1.463  1.1029  0.6085 -0.5657
 2282SOL    MW4 8862   1.656   0.673   1.494 -0.0967  0.0698  0.1599
 2283SOL     OW 8863   2.115   3.197   3.560 -0.4189  0.1734  0.3007
 2283SOL    HW2 8864   2.080   3.284   3.539 -0.7510 -0.2679 -1.1545
 2283SOL    HW3 8865   2.135   3.200   3.653  1.6888  2.5344 -0.1368
 2283SOL    MW4 8866   2.113   3.209   3.569 -0.5006 -0.2787 -0.0297
 2284SOL     OW 8867   6.372   1.385   1.755 -0.4425 -0.0135 -0.7915
 2284SOL    HW2 8868   6.358   1.378   1.660 -1.7918  0.2727 -0.6432
 2284SOL    HW3 8869   6.315   1.458   1.781 -0.0171 -0.0419  0.2245
 2284SOL    MW4 8870   6.362   1.394   1.746  0.8963 -0.3645  0.3805
 2285SOL     OW 8871   2.537   0.163   4.895 -0.7091 -0.0260  0.8182
 2285SOL    HW2 8872   2.599   0.115   4.839  0.1565  0.3447  1.4361
 2285SOL    HW3 8873   2.537   0.115   4.977 -1.3607 -0.1001  0.7807
 2285SOL    MW4 8874   2.545   0.150   4.898  0.0639 -0.6314  0.0249
 2286SOL     OW 8875   0.499   0.456   1.316  0.3500  0.5890  0.4452
 2286SOL    HW2 8876   0.585   0.463   1.273 -0.1625 -1.4255 -1.0766
 2286SOL    HW3 8877   0.436   0.461   1.244 -0.6672 -0.4615  1.2137
 2286SOL    MW4 8878   0.502   0.457   1.301  0.2805  0.6151 -0.4589
 2287SOL     OW 8879   5.783   5.502   4.334  0.0987 -0.4663 -0.0995
 2287SOL    HW2 8880   5.735   5.552   4.400 -1.1574 -0.4306 -1.0125
 2287SOL    HW3 8881   5.723   5.496   4.260  0.2023 -3.3307 -0.0508
 2287SOL    MW4 8882   5.769   5.508   4.333  0.3194 -0.1083  0.1600
 2288SOL     OW 8883   6.277   3.586   0.685 -0.2651 -0.3832 -0.0283
 2288SOL    HW2 8884   6.307   3.498   0.706  0.5795 -0.3644 -1.0862
 2288SOL    HW3 8885   6.186   3.588   0.713  0.0523 -1.1916  1.1269
 2288SOL    MW4 8886   6.269   3.575   0.692 -0.1517  0.2616 -0.1099
 2289SOL     OW 8887   5.934   4.646   4.816  0.0430 -0.3714  0.2557
 2289SOL    HW2 8888   5.881   4.597   4.879 -2.6113  0.0228 -1.5038
 2289SOL    HW3 8889   5.963   4.724   4.864 -3.1269  0.6631  0.7651
 2289SOL    MW4 8890   5.931   4.650   4.831  0.2922 -0.3552  0.0165
 2290SOL     OW 8891   3.020   3.477   3.204  0.0176 -0.5931  0.2514
 2290SOL    HW2 8892   2.925   3.487   3.199  0.2472  2.6463  0.0954
 2290SOL    HW3 8893   3.038   3.393   3.162 -2.7200 -1.0583 -0.1603
 2290SOL    MW4 8894   3.010   3.467   3.198  0.5196  0.2075  0.1585
 2291SOL     OW 8895   3.732   0.918   2.180 -0.9041  0.2280 -0.7213
 2291SOL    HW2 8896   3.815   0.891   2.219 -2.2146 -1.8350  0.8841
 2291SOL    HW3 8897   3.755   0.944   2.091  1.0664 -3.6576 -1.5691
 2291SOL    MW4 8898   3.746   0.918   2.174  0.1776  0.4050 -0.0022
 2292SOL     OW 8899   2.521   6.005   1.442  0.1192 -0.4225 -0.3439
 2292SOL    HW2 8900   2.583   6.013   1.514 -1.1752 -0.9109  0.8817
 2292SOL    HW3 8901   2.529   6.087   1.394  3.1060 -1.2440 -1.4532
 2292SOL    MW4 8902   2.530   6.017   1.445 -0.3641 -0.2056 -0.3224
 2293SOL     OW 8903   4.227   3.459   4.353 -0.1828 -0.2092 -0.1858
 2293SOL    HW2 8904   4.275   3.537   4.381 -0.1467 -0.3069  0.0281
 2293SOL    HW3 8905   4.150   3.493   4.308  0.0476 -0.0514 -0.4645
 2293SOL    MW4 8906   4.223   3.473   4.351 -0.1496 -0.2631 -0.3001
 2294SOL     OW 8907   3.451   4.076   4.142  0.0067  0.0431  0.0111
 2294SOL    HW2 8908   3.479   4.072   4.050 -0.1799  2.2363 -0.1966
 2294SOL    HW3 8909   3.527   4.044   4.192  0.3338 -0.5948 -0.8706
 2294SOL    MW4 8910   3.465   4.072   4.136  0.4475 -0.2551  0.3585
 2295SOL     OW 8911   2.254   1.544   4.232 -0.1275 -0.8789 -0.3868
 2295SOL    HW2 8912   2.252   1.611   4.300  0.8403 -2.0597  0.8612
 2295SOL    HW3 8913   2.305   1.584   4.161  0.4980 -0.3122  0.3624
 2295SOL    MW4 8914   2.261   1.558   4.232  0.0315  0.9564 -0.3001
 2296SOL     OW 8915   2.988   0.432   4.436  0.1645  0.0110  0.1668
 2296SOL    HW2 8916   3.037   0.376   4.497 -2.4060 -0.4649  1.9213
 2296SOL    HW3 8917   2.926   0.374   4.393 -3.0185  1.3997  2.4870
 2296SOL    MW4 8918   2.987   0.417   4.438  0.4324 -0.0477 -0.0186
 2297SOL     OW 8919   3.437   2.414   1.200 -0.1640 -0.5044  0.1339
 2297SOL    HW2 8920   3.436   2.463   1.117  0.2269 -2.2216 -0.9244
 2297SOL    HW3 8921   3.467   2.478   1.264  1.9170  0.2730 -1.4832
 2297SOL    MW4 8922   3.441   2.429   1.197  0.2187 -0.1318  0.1138
 2298SOL     OW 8923   4.503   4.090   1.281  0.1816  0.0843 -0.6712
 2298SOL    HW2 8924   4.461   4.076   1.196 -1.1800 -1.8456  0.2316
 2298SOL    HW3 8925   4.548   4.007   1.298  0.4610  0.4645  0.4726
 2298SOL    MW4 8926   4.503   4.077   1.272 -0.3946 -0.6538 -0.1089
 2299SOL     OW 8927   4.764   1.089   4.758  0.3837  0.4550  0.1652
 2299SOL    HW2 8928   4.800   1.170   4.795  0.7830  0.1645  0.4271
 2299SOL    HW3 8929   4.841   1.041   4.727  0.3627 -0.6536  1.6709
 2299SOL    MW4 8930   4.779   1.093   4.759  0.3322 -0.2267 -0.5493
 2300SOL     OW 8931   0.749   4.018   6.184  0.0875  0.7988  0.2182
 2300SOL    HW2 8932   0.707   3.940   6.149  1.4590  0.4189 -0.6819
 2300SOL    HW3 8933   0.782   3.992   6.270  0.4538  0.3994 -0.0391
 2300SOL    MW4 8934   0.748   4.005   6.191  0.3372  0.1313 -0.1079
 2301SOL     OW 8935   1.826   1.691   1.300  0.2051  0.2342  0.0908
 2301SOL    HW2 8936   1.837   1.651   1.386  0.7199 -0.7274 -0.4106
 2301SOL    HW3 8937   1.778   1.626   1.249 -1.8255  1.5487  0.1675
 2301SOL    MW4 8938   1.821   1.677   1.305  0.1922  0.3868  0.3724
 2302SOL     OW 8939   3.537   5.493   5.125 -0.1516  0.1662 -0.2504
 2302SOL    HW2 8940   3.478   5.436   5.174 -0.0847 -0.6053 -1.0559
 2302SOL    HW3 8941   3.482   5.566   5.097  0.1324  1.4985  2.3033
 2302SOL    MW4 8942   3.522   5.495   5.128 -0.4177  0.2062 -0.4129
 2303SOL     OW 8943   3.696   3.215   0.060 -0.2641  0.4359  0.4600
 2303SOL    HW2 8944   3.721   3.267  -0.017 -0.9606  0.5710  0.3190
 2303SOL    HW3 8945   3.715   3.272   0.134  0.6942  0.1940  0.4161
 2303SOL    MW4 8946   3.702   3.230   0.059  0.1445 -0.3079 -0.6525
 2304SOL     OW 8947   3.638   6.240   5.869 -0.1706  0.6162 -1.0152
 2304SOL    HW2 8948   3.582   6.213   5.942 -0.8121  0.5915 -1.5072
 2304SOL    HW3 8949   3.668   6.327   5.893 -0.6654  0.7553 -0.8805
 2304SOL    MW4 8950   3.635   6.248   5.882 -0.1190  0.1561 -0.6593
 2305SOL     OW 8951   1.212   4.185   6.370  0.2170 -0.2118  0.1852
 2305SOL    HW2 8952   1.267   4.108   6.361  0.5159 -0.1902  1.5995
 2305SOL    HW3 8953   1.137   4.168   6.313  0.0554 -1.7608  0.8006
 2305SOL    MW4 8954   1.210   4.173   6.362  0.1777 -0.1995 -0.0579
 2306SOL     OW 8955   5.384   4.479   0.220 -0.5773 -0.2113  0.2028
 2306SOL    HW2 8956   5.432   4.421   0.280 -1.3550  0.2142  1.2625
 2306SOL    HW3 8957   5.413   4.452   0.133 -0.6275 -1.9504  0.6881
 2306SOL    MW4 8958   5.394   4.467   0.217 -0.5647  0.1694  0.6611
 2307SOL     OW 8959   3.598   1.027   5.114  0.5362  0.3130 -0.3251
 2307SOL    HW2 8960   3.655   1.057   5.044 -0.7471  1.1290 -1.0553
 2307SOL    HW3 8961   3.656   0.981   5.174  1.6828 -0.4352 -1.9183
 2307SOL    MW4 8962   3.613   1.025   5.113 -0.3571  0.4245  0.8497
 2308SOL     OW 8963   0.605   1.892   2.929 -0.2194 -0.4391  0.4870
 2308SOL    HW2 8964   0.588   1.986   2.919 -1.1249 -0.4550  1.6742
 2308SOL    HW3 8965   0.521   1.854   2.953 -0.0400 -1.6991 -0.7347
 2308SOL    MW4 8966   0.592   1.899   2.931  0.0114 -0.4524  0.2847
 2309SOL     OW 8967   2.159   2.546   2.869 -0.8481 -0.3868 -0.6216
 2309SOL    HW2 8968   2.132   2.537   2.777 -1.1775 -0.4877 -0.5168
 2309SOL    HW3 8969   2.254   2.552   2.865 -0.8729 -0.2050 -0.9859
 2309SOL    MW4 8970   2.168   2.545   2.856 -0.4077 -0.1001 -0.3441
 2310SOL     OW 8971   1.339   3.312   6.116 -0.1696 -0.0296 -0.1026
 2310SOL    HW2 8972   1.323   3.319   6.210  1.4567 -0.9602  0.2896
 2310SOL    HW3 8973   1.293   3.233   6.090  0.7359 -0.7076  0.2847
 2310SOL    MW4 8974   1.331   3.303   6.125 -0.4339  0.0081 -0.6549
 2311SOL     OW 8975   4.223   5.107   4.336 -0.0589  0.0912  0.2522
 2311SOL    HW2 8976   4.161   5.067   4.275 -0.6521  0.8896  0.3137
 2311SOL    HW3 8977   4.307   5.104   4.290 -0.3102 -0.1993 -0.1953
 2311SOL    MW4 8978   4.226   5.101   4.322  0.0207  0.5301 -0.0284
 2312SOL     OW 8979   2.438   3.782   0.987  0.1775  0.7285 -0.5255
 2312SOL    HW2 8980   2.445   3.816   0.898  2.6566  0.6107 -0.4231
 2312SOL    HW3 8981   2.525   3.750   1.008 -0.5277  0.0927  1.7133
 2312SOL    MW4 8982   2.450   3.782   0.978 -0.3316  0.2752 -0.0754
 2313SOL     OW 8983   5.471   2.216   5.723  0.0906 -0.3833 -0.1192
 2313SOL    HW2 8984   5.566   2.204   5.733  0.1422 -0.5137 -0.7193
 2313SOL    HW3 8985   5.455   2.202   5.629 -0.7090 -1.6456  0.1753
 2313SOL    MW4 8986   5.482   2.212   5.712  0.1650  0.0973 -0.2006
 2314SOL     OW 8987   3.023   0.737   2.119 -0.2894  0.8120  0.0588
 2314SOL    HW2 8988   3.112   0.730   2.085 -0.5995 -0.7567 -0.5035
 2314SOL    HW3 8989   3.028   0.805   2.186  0.8726  2.2069 -1.3721
 2314SOL    MW4 8990   3.035   0.745   2.124 -0.9756  0.5034  0.8568
 2315SOL     OW 8991   3.240   1.909   1.484 -0.2258  0.2422 -0.4202
 2315SOL    HW2 8992   3.322   1.868   1.456  1.0541  0.3242  2.7616
 2315SOL    HW3 8993   3.225   1.980   1.422  2.9381  1.1397 -0.2999
 2315SOL    MW4 8994   3.248   1.913   1.472  0.0384  0.0146 -0.3848
 2316SOL     OW 8995   4.771   3.739   3.134 -0.1825  0.1786  0.1421
 2316SOL    HW2 8996   4.712   3.664   3.144  0.5403 -0.5552 -0.8893
 2316SOL    HW3 8997   4.722   3.800   3.079 -0.2417 -0.1465 -0.1721
 2316SOL    MW4 8998   4.757   3.737   3.128  0.2969  0.4989 -0.0563
 2317SOL     OW 8999   5.521   1.566   5.067 -0.2301 -0.4519  0.2700
 2317SOL    HW2 9000   5.472   1.595   5.144  1.4885  1.2990  0.7830
 2317SOL    HW3 9001   5.463   1.585   4.993 -0.5215  1.1612  0.8753
 2317SOL    MW4 9002   5.507   1.572   5.068  0.2006  0.0633 -0.0025
 2318SOL     OW 9003   0.281   3.802   2.452 -0.8887 -0.1849 -0.2989
 2318SOL    HW2 9004   0.342   3.855   2.401 -0.9556 -0.0773 -0.2661
 2318SOL    HW3 9005   0.202   3.856   2.460 -1.2429 -0.5901 -0.9210
 2318SOL    MW4 9006   0.279   3.816   2.446 -0.0966 -0.4268 -0.3195
 2319SOL     OW 9007   4.935   0.914   3.902  0.2555  0.8800  0.0911
 2319SOL    HW2 9008   4.959   0.983   3.840 -0.9627  1.0169 -0.2601
 2319SOL    HW3 9009   5.000   0.845   3.889 -1.2590 -0.1203 -3.0509
 2319SOL    MW4 9010   4.947   0.914   3.892 -0.1072  0.1232 -0.3882
 2320SOL     OW 9011   0.704   4.141   3.773  0.6737 -0.3343 -0.9902
 2320SOL    HW2 9012   0.773   4.208   3.779  0.2378  0.0272  0.5332
 2320SOL    HW3 9013   0.642   4.176   3.709 -0.2289  1.4356  0.7261
 2320SOL    MW4 9014   0.705   4.154   3.765 -0.2585 -0.5995 -0.2475
 2321SOL     OW 9015   3.920   2.171   2.391 -0.3301  0.1060  0.1876
 2321SOL    HW2 9016   3.902   2.118   2.468  0.2477 -1.6116 -0.8151
 2321SOL    HW3 9017   4.010   2.151   2.367  0.6062  3.0237  0.8520
 2321SOL    MW4 9018   3.929   2.161   2.398 -0.2290  0.1892  0.1939
 2322SOL     OW 9019   6.087   6.074   6.286  0.4193  0.5268 -0.1275
 2322SOL    HW2 9020   6.172   6.066   6.243  0.7225  1.1534  0.3480
 2322SOL    HW3 9021   6.051   6.156   6.252  0.0592  0.3314 -0.2253
 2322SOL    MW4 9022   6.093   6.084   6.276 -0.1740 -0.6490  0.1248
 2323SOL     OW 9023   3.746   5.279   5.387 -0.5335  0.2519 -0.0814
 2323SOL    HW2 9024   3.791   5.363   5.387  1.1364 -0.5832 -1.2043
 2323SOL    HW3 9025   3.789   5.229   5.457 -4.0140  1.4556  3.2407
 2323SOL    MW4 9026   3.758   5.284   5.396 -0.2607 -0.0114  0.0214
 2324SOL     OW 9027   0.714   5.587   0.619  0.5557  0.1569  0.1017
 2324SOL    HW2 9028   0.661   5.612   0.544  0.2232  1.3853  0.7271
 2324SOL    HW3 9029   0.723   5.667   0.671  1.5281 -0.4504  0.9201
 2324SOL    MW4 9030   0.709   5.601   0.616  0.1759  0.1228  0.1735
 2325SOL     OW 9031   1.678   5.711   2.538  0.1091  0.0276  0.2347
 2325SOL    HW2 9032   1.773   5.701   2.553  0.1862  0.0084 -0.2694
 2325SOL    HW3 9033   1.659   5.654   2.465 -0.3243 -0.0686  0.4224
 2325SOL    MW4 9034   1.688   5.702   2.531 -0.0928 -0.0355 -0.5777
 2326SOL     OW 9035   3.057   5.784   4.501  0.0882  0.4571 -0.6756
 2326SOL    HW2 9036   3.036   5.710   4.445 -0.1761  0.1766 -0.2136
 2326SOL    HW3 9037   3.153   5.783   4.509 -0.0200 -1.1680  1.0909
 2326SOL    MW4 9038   3.067   5.774   4.495  0.3403  0.0143  0.1840
 2327SOL     OW 9039   4.093   2.809   0.555  0.7686 -0.0582  0.2818
 2327SOL    HW2 9040   4.134   2.820   0.641  1.9853  1.5258 -0.4660
 2327SOL    HW3 9041   4.153   2.850   0.494 -1.1540  0.8792 -1.0843
 2327SOL    MW4 9042   4.106   2.816   0.558 -0.9191  0.1095  0.4932
 2328SOL     OW 9043   0.099   0.887   4.632  0.2493  0.5006  0.7716
 2328SOL    HW2 9044   0.130   0.977   4.639 -0.2905  0.6039  2.3193
 2328SOL    HW3 9045   0.143   0.841   4.703 -2.4135  0.4861  2.5955
 2328SOL    MW4 9046   0.109   0.893   4.642 -0.2895  0.0562 -0.1761
 2329SOL     OW 9047   6.199   1.076   1.725  0.2010  0.3904 -0.2562
 2329SOL    HW2 9048   6.177   1.169   1.722 -1.0851  0.1062 -0.1398
 2329SOL    HW3 9049   6.248   1.060   1.644 -0.5777  0.9221 -0.8426
 2329SOL    MW4 9050   6.203   1.086   1.714  0.7273  0.2333  0.2026
 2330SOL     OW 9051   1.110   4.599   3.130  0.1334  0.2071 -0.1239
 2330SOL    HW2 9052   1.075   4.679   3.091 -0.6847  1.3133  2.6110
 2330SOL    HW3 9053   1.181   4.629   3.187  0.5750 -1.1608  0.0946
 2330SOL    MW4 9054   1.115   4.613   3.132  0.0172 -0.0722  0.7322
 2331SOL     OW 9055   4.517   4.323   1.001  0.0521  0.6231  0.1082
 2331SOL    HW2 9056   4.470   4.241   1.015 -0.9005  0.4950 -2.9332
 2331SOL    HW3 9057   4.586   4.324   1.067 -2.5508 -0.4737  3.0663
 2331SOL    MW4 9058   4.520   4.312   1.011 -0.4859 -0.2686  0.9504
 2332SOL     OW 9059   5.515   4.339   6.087  0.2566  0.2075  0.2122
 2332SOL    HW2 9060   5.554   4.358   6.172  0.6467  1.1759 -0.1649
 2332SOL    HW3 9061   5.421   4.334   6.103  0.3977 -0.5466  0.8538
 2332SOL    MW4 9062   5.508   4.341   6.100 -1.0348 -0.1651  0.0757
 2333SOL     OW 9063   0.394   4.431   6.301  0.2526 -0.2145  0.0552
 2333SOL    HW2 9064   0.451   4.498   6.339  1.6342 -0.3863 -1.5552
 2333SOL    HW3 9065   0.451   4.356   6.287 -0.6747 -0.8415 -0.4777
 2333SOL    MW4 9066   0.409   4.430   6.304 -0.2883  0.2914 -0.1430
 2334SOL     OW 9067   3.859   5.371   1.187  0.5131  0.0860 -0.7191
 2334SOL    HW2 9068   3.787   5.332   1.237  0.4459  0.1021 -0.8018
 2334SOL    HW3 9069   3.898   5.435   1.247 -1.4000  2.2348 -1.6100
 2334SOL    MW4 9070   3.854   5.374   1.202 -0.0524  0.4883  0.1379
 2335SOL     OW 9071   1.023   0.862   5.987 -0.4371 -0.3467  0.2566
 2335SOL    HW2 9072   1.064   0.780   6.011 -1.6338 -1.4623 -1.3106
 2335SOL    HW3 9073   1.057   0.882   5.900 -1.4761 -0.1285 -0.1208
 2335SOL    MW4 9074   1.033   0.854   5.978 -0.4912  0.5313 -0.2229
 2336SOL     OW 9075   1.996   1.573   4.546  0.1903 -0.0063 -0.4135
 2336SOL    HW2 9076   2.054   1.630   4.596 -0.3541 -0.0317  0.2638
 2336SOL    HW3 9077   2.024   1.484   4.568  0.9102 -0.0254 -1.3166
 2336SOL    MW4 9078   2.007   1.569   4.555  0.3934 -0.0048 -0.3980
 2337SOL     OW 9079   2.323   3.413   0.508 -0.1809  0.3517 -0.2026
 2337SOL    HW2 9080   2.332   3.343   0.445 -0.0316 -1.7640  2.0077
 2337SOL    HW3 9081   2.231   3.439   0.504 -0.2638 -0.0519 -0.9466
 2337SOL    MW4 9082   2.312   3.407   0.499 -0.1813  0.6259 -0.0044
 2338SOL     OW 9083   0.875   3.798   1.965  0.0514 -0.1951  0.1264
 2338SOL    HW2 9084   0.862   3.891   1.943  1.5531 -0.4375 -2.1666
 2338SOL    HW3 9085   0.788   3.760   1.961 -0.4468  0.9075 -0.0588
 2338SOL    MW4 9086   0.862   3.806   1.961 -0.0633 -0.6302  0.2356
 2339SOL     OW 9087   2.677   1.907   1.808 -0.0070  0.3714  0.6781
 2339SOL    HW2 9088   2.694   1.952   1.890  0.7260  0.2595  0.5902
 2339SOL    HW3 9089   2.756   1.856   1.791  0.0116  0.7115 -0.3102
 2339SOL    MW4 9090   2.690   1.906   1.817  0.5249 -0.1765 -0.4788
 2340SOL     OW 9091   0.674   4.858   4.657 -0.2781  0.3468  0.0382
 2340SOL    HW2 9092   0.680   4.814   4.742 -0.9200  1.1215  0.4937
 2340SOL    HW3 9093   0.743   4.924   4.660 -0.0539  0.1252 -0.1983
 2340SOL    MW4 9094   0.684   4.861   4.669  0.3611 -0.3369  0.3131
 2341SOL     OW 9095   0.350   4.015   4.054  0.0788  0.1247  0.0419
 2341SOL    HW2 9096   0.383   3.938   4.008  1.0247 -0.6642  1.9151
 2341SOL    HW3 9097   0.411   4.085   4.030  0.8250 -0.3815  0.4052
 2341SOL    MW4 9098   0.363   4.014   4.045 -0.1684  0.1716 -0.5985
 2342SOL     OW 9099   0.653   4.608   2.658 -0.2013 -0.2678 -0.0025
 2342SOL    HW2 9100   0.616   4.660   2.729 -0.4227 -0.2340 -0.1388
 2342SOL    HW3 9101   0.677   4.673   2.591 -2.1443 -0.4191 -0.9476
 2342SOL    MW4 9102   0.651   4.623   2.658 -0.1457  0.1333  0.0870
 2343SOL     OW 9103   5.793   5.681   1.185  0.4129 -0.5664 -0.6911
 2343SOL    HW2 9104   5.739   5.707   1.111 -1.4249  1.0199  1.0823
 2343SOL    HW3 9105   5.731   5.663   1.255  2.1275 -0.2124  0.9986
 2343SOL    MW4 9106   5.778   5.682   1.185 -0.4513  0.2959 -0.2930
 2344SOL     OW 9107   6.100   4.630   2.888  0.1111 -0.0705 -0.3421
 2344SOL    HW2 9108   6.105   4.570   2.812 -0.1664 -0.4378 -0.0758
 2344SOL    HW3 9109   6.007   4.646   2.899  0.2409  1.6308 -1.3384
 2344SOL    MW4 9110   6.088   4.624   2.879 -0.4025 -0.7645 -0.1026
 2345SOL     OW 9111   2.613   2.839   4.571 -0.1284  1.2165 -0.0999
 2345SOL    HW2 9112   2.629   2.769   4.508 -0.2486 -0.2957  1.4656
 2345SOL    HW3 9113   2.530   2.877   4.545  0.1464  1.0714 -1.2240
 2345SOL    MW4 9114   2.604   2.835   4.559  0.0266 -0.0312 -0.0026
 2346SOL     OW 9115   4.577   1.000   2.626 -0.0271 -0.0407  0.3360
 2346SOL    HW2 9116   4.498   1.041   2.661  0.8571  2.5243 -0.4356
 2346SOL    HW3 9117   4.629   0.977   2.704 -0.5744  0.2888  0.8016
 2346SOL    MW4 9118   4.574   1.002   2.641  0.1410  0.6340  0.4804
 2347SOL     OW 9119   0.581   0.844   2.778 -0.4181 -0.4459 -0.3006
 2347SOL    HW2 9120   0.596   0.804   2.864 -0.8032 -1.0322 -0.5011
 2347SOL    HW3 9121   0.602   0.937   2.790  1.1709 -0.8213  0.0020
 2347SOL    MW4 9122   0.586   0.851   2.791 -0.1749  0.6132 -0.7241
 2348SOL     OW 9123   6.426   6.192   1.156 -0.1034 -0.0678 -0.0239
 2348SOL    HW2 9124   6.353   6.221   1.212 -0.0836  0.0612 -0.0644
 2348SOL    HW3 9125   6.435   6.099   1.175 -0.0603 -0.0121  0.2309
 2348SOL    MW4 9126   6.418   6.184   1.166  0.0219  0.3918  0.4905
 2349SOL     OW 9127   4.220   1.468   1.413  0.3263  0.0758  0.2944
 2349SOL    HW2 9128   4.173   1.424   1.342  2.1867 -1.3574 -0.1644
 2349SOL    HW3 9129   4.153   1.496   1.474 -1.1779 -0.5958 -0.9900
 2349SOL    MW4 9130   4.205   1.466   1.412  0.0250  0.1552  0.0475
 2350SOL     OW 9131   5.485   2.300   6.137 -0.7420 -0.6599 -0.2688
 2350SOL    HW2 9132   5.526   2.303   6.223 -0.8877  1.6652 -0.2327
 2350SOL    HW3 9133   5.391   2.304   6.155 -0.8454 -1.7217 -0.5068
 2350SOL    MW4 9134   5.478   2.301   6.151  0.2737  0.1581 -0.8915
 2351SOL     OW 9135   5.235   0.644   0.574 -0.0456  0.1155  0.6578
 2351SOL    HW2 9136   5.263   0.720   0.625  0.2703 -0.4603  1.3716
 2351SOL    HW3 9137   5.158   0.674   0.525 -0.0313  0.8387  1.0745
 2351SOL    MW4 9138   5.228   0.658   0.575  0.1644 -0.2787 -0.9790
 2352SOL     OW 9139   4.473   3.992   4.775  0.0091 -0.3816  0.0728
 2352SOL    HW2 9140   4.557   3.994   4.822 -0.0200  0.3345  0.1051
 2352SOL    HW3 9141   4.418   3.934   4.827  0.8837 -1.9103 -0.6416
 2352SOL    MW4 9142   4.477   3.985   4.788  0.2746 -0.0223  0.5853
 2353SOL     OW 9143   5.544   5.362   0.134  0.5085 -0.0111  0.1393
 2353SOL    HW2 9144   5.580   5.274   0.149  0.8517  0.2246  0.7029
 2353SOL    HW3 9145   5.563   5.410   0.214  0.6815  0.7087 -0.3272
 2353SOL    MW4 9146   5.551   5.356   0.146 -0.2310  0.3454 -0.4003
 2354SOL     OW 9147   2.696   5.372   0.052 -0.1075  0.0466 -0.6760
 2354SOL    HW2 9148   2.777   5.323   0.039  0.6067  0.7426  0.8978
 2354SOL    HW3 9149   2.722   5.449   0.104 -2.1897 -1.3251  2.7489
 2354SOL    MW4 9150   2.710   5.376   0.057 -0.7506  0.5299 -0.1393
 2355SOL     OW 9151   5.958   1.347   0.131  0.1678 -0.0743  0.3140
 2355SOL    HW2 9152   5.973   1.379   0.042  2.3369 -2.9448 -0.5015
 2355SOL    HW3 9153   6.017   1.400   0.185 -0.1723  0.7764 -0.1207
 2355SOL    MW4 9154   5.968   1.358   0.126 -0.0458  0.1586 -0.2219
 2356SOL     OW 9155   4.796   3.976   5.187  0.0584 -0.3184  0.4791
 2356SOL    HW2 9156   4.822   4.031   5.260 -2.4207  1.4086  0.1600
 2356SOL    HW3 9157   4.760   3.897   5.228 -1.8287  0.8642  1.2340
 2356SOL    MW4 9158   4.795   3.973   5.202 -0.4542  0.0013 -0.2964
 2357SOL     OW 9159   3.885   6.145   2.934  0.6956 -0.1471 -0.2881
 2357SOL    HW2 9160   3.873   6.238   2.952  0.2178 -0.4282  0.8816
 2357SOL    HW3 9161   3.905   6.142   2.840 -1.0023  0.9774 -0.7343
 2357SOL    MW4 9162   3.886   6.157   2.924 -0.0137  0.6348 -0.1768
 2358SOL     OW 9163   0.410   1.410   3.309  0.2449  0.1843 -0.1061
 2358SOL    HW2 9164   0.480   1.386   3.370 -0.5778  1.0950  1.2488
 2358SOL    HW3 9165   0.454   1.416   3.224  2.2304  2.5227  0.9673
 2358SOL    MW4 9166   0.425   1.408   3.306 -0.2428 -0.3413  0.0779
 2359SOL     OW 9167   2.490   1.470   6.337  0.4370 -0.2140  0.4323
 2359SOL    HW2 9168   2.441   1.411   6.280  0.2116  1.8063 -1.5941
 2359SOL    HW3 9169   2.581   1.458   6.310  0.2764  1.1449 -0.8314
 2359SOL    MW4 9170   2.496   1.461   6.326  0.3286 -0.5363 -0.1723
 2360SOL     OW 9171   4.116   5.134   6.283 -0.1657  0.2952  0.0073
 2360SOL    HW2 9172   4.091   5.196   6.351  0.2829 -0.8713  1.2644
 2360SOL    HW3 9173   4.036   5.124   6.230 -0.5906  1.0465  0.4910
 2360SOL    MW4 9174   4.102   5.141   6.285 -0.4092 -0.2910 -0.1191
 2361SOL     OW 9175   1.799   3.908   3.356  0.2716  0.9487  0.2460
 2361SOL    HW2 9176   1.788   3.884   3.448  1.2385 -1.9342 -0.2927
 2361SOL    HW3 9177   1.891   3.889   3.336 -0.0563  0.9467 -1.4667
 2361SOL    MW4 9178   1.810   3.903   3.365  0.1289 -0.1749 -0.5321
 2362SOL     OW 9179   1.197   4.235   4.167  0.0665 -0.1601  0.2497
 2362SOL    HW2 9180   1.114   4.189   4.152  0.0435 -0.2470  0.6525
 2362SOL    HW3 9181   1.233   4.247   4.079 -2.0568  3.0128 -0.3845
 2362SOL    MW4 9182   1.191   4.231   4.153  0.3415 -0.7289 -0.0256
 2363SOL     OW 9183   3.383   3.454   1.492 -0.7648  0.1306 -0.6408
 2363SOL    HW2 9184   3.471   3.452   1.530 -0.5820  0.8019 -1.0116
 2363SOL    HW3 9185   3.397   3.484   1.402 -1.3019 -0.4093 -0.9111
 2363SOL    MW4 9186   3.396   3.458   1.485  0.4157 -0.0792  0.2959
 2364SOL     OW 9187   5.870   0.517   0.801 -0.0253  0.3604 -0.3349
 2364SOL    HW2 9188   5.904   0.604   0.782 -0.2789  0.6020  0.3107
 2364SOL    HW3 9189   5.776   0.523   0.784  0.2290 -0.3584 -2.3109
 2364SOL    MW4 9190   5.862   0.529   0.796 -0.1286 -0.2847 -0.3907
 2365SOL     OW 9191   1.766   5.189   2.926 -0.3061  0.5747 -0.1321
 2365SOL    HW2 9192   1.749   5.282   2.911  2.7606  1.1642 -0.6943
 2365SOL    HW3 9193   1.806   5.185   3.013 -1.8814 -0.5008  0.5977
 2365SOL    MW4 9194   1.769   5.200   2.936 -0.4852  0.3405  0.3235
 2366SOL     OW 9195   6.264   1.687   3.121 -0.0671  0.0687  0.2771
 2366SOL    HW2 9196   6.202   1.713   3.054 -0.1350 -0.7920 -0.0151
 2366SOL    HW3 9197   6.209   1.661   3.195 -0.2834 -3.1318 -0.8292
 2366SOL    MW4 9198   6.249   1.687   3.122  0.4559  0.2838 -0.2943
 2367SOL     OW 9199   1.373   1.198   1.228 -0.2750  0.1506  0.0874
 2367SOL    HW2 9200   1.347   1.209   1.136 -1.4719 -0.9156  0.2793
 2367SOL    HW3 9201   1.392   1.287   1.257 -0.8516  0.6260 -0.9205
 2367SOL    MW4 9202   1.372   1.212   1.219 -0.4533 -0.4189 -0.3156
 2368SOL     OW 9203   0.213   5.423   4.215  0.2790  0.4105  0.9834
 2368SOL    HW2 9204   0.190   5.462   4.299  0.0756  0.6009  0.8406
 2368SOL    HW3 9205   0.256   5.494   4.167 -0.2642  0.5169  0.6484
 2368SOL    MW4 9206   0.216   5.438   4.220 -0.1818 -0.2326 -0.4007
 2369SOL     OW 9207   5.773   0.092   0.606  0.4836  0.1446 -0.2781
 2369SOL    HW2 9208   5.697   0.140   0.573  0.4720 -0.6587 -1.4667
 2369SOL    HW3 9209   5.848   0.139   0.569  0.6664  1.4831  1.6088
 2369SOL    MW4 9210   5.773   0.105   0.597 -0.7539 -0.1368  0.5420
 2370SOL     OW 9211   3.509   1.928   2.601  0.4618 -0.0866  0.3867
 2370SOL    HW2 9212   3.549   1.843   2.584  3.0799  1.1701 -0.2752
 2370SOL    HW3 9213   3.520   1.976   2.519 -0.9755  0.9129  0.7460
 2370SOL    MW4 9214   3.516   1.923   2.588 -0.0144  0.4554  0.7077
 2371SOL     OW 9215   1.483   2.252   3.704  0.0372  0.6655 -0.2178
 2371SOL    HW2 9216   1.466   2.325   3.645  0.8779  1.7120  0.7859
 2371SOL    HW3 9217   1.544   2.196   3.655  0.9499  1.6602 -0.2579
 2371SOL    MW4 9218   1.489   2.254   3.690 -0.2628  0.1245 -0.4975
 2372SOL     OW 9219   0.152   1.662   3.950 -0.1007 -0.4038  0.3288
 2372SOL    HW2 9220   0.078   1.644   3.891  0.1106  1.5520 -0.6391
 2372SOL    HW3 9221   0.230   1.649   3.895  0.0706  3.1546 -0.5360
 2372SOL    MW4 9222   0.153   1.658   3.935  0.0764 -0.0451  0.2102
 2373SOL     OW 9223   3.716   5.881   3.826  0.1671 -0.3254  0.1752
 2373SOL    HW2 9224   3.790   5.921   3.780 -0.8065  2.8383  1.1120
 2373SOL    HW3 9225   3.648   5.873   3.758  0.4961 -0.7378 -0.1072
 2373SOL    MW4 9226   3.717   5.885   3.811  0.3158  0.5237 -0.0350
 2374SOL     OW 9227   6.307   6.275   3.114  0.3279  0.8317  0.3368
 2374SOL    HW2 9228   6.337   6.189   3.084 -1.3754  0.3723 -0.1641
 2374SOL    HW3 9229   6.381   6.333   3.096  2.9062 -1.0131  3.7564
 2374SOL    MW4 9230   6.321   6.271   3.107  0.3714 -0.2451  1.1312
 2375SOL     OW 9231   6.399   2.620   3.980 -0.0438  0.0520  0.0668
 2375SOL    HW2 9232   6.385   2.548   4.041  0.7105 -0.1109  0.0483
 2375SOL    HW3 9233   6.353   2.594   3.900 -0.4937 -0.0174  0.3443
 2375SOL    MW4 9234   6.391   2.607   3.977  0.3674 -0.1646  0.0349
 2376SOL     OW 9235   0.465   3.273   2.018  0.6019  0.5603  0.3460
 2376SOL    HW2 9236   0.511   3.240   1.941 -0.6022 -1.0092  0.2599
 2376SOL    HW3 9237   0.395   3.329   1.982  0.9599  1.0371  0.3795
 2376SOL    MW4 9238   0.461   3.276   2.003 -0.6703  0.7354 -0.2980
 2377SOL     OW 9239   4.494   2.380   6.087 -0.1631  0.0696 -0.6909
 2377SOL    HW2 9240   4.479   2.391   6.181 -2.2714 -1.8849 -0.7118
 2377SOL    HW3 9241   4.583   2.344   6.082 -1.0903 -2.7852  0.9080
 2377SOL    MW4 9242   4.504   2.376   6.099  0.3438  0.3175  0.3021
 2378SOL     OW 9243   1.709   5.768   5.613 -0.5238  0.4907  0.1354
 2378SOL    HW2 9244   1.802   5.748   5.626 -0.4850  1.4470  1.5372
 2378SOL    HW3 9245   1.708   5.860   5.586 -1.0662  0.5305  0.2761
 2378SOL    MW4 9246   1.721   5.778   5.611 -0.8266 -0.3437  0.3735
 2379SOL     OW 9247   5.509   6.149   2.298 -0.5864 -0.3326 -0.1916
 2379SOL    HW2 9248   5.414   6.140   2.308 -1.0014  1.7194 -1.5442
 2379SOL    HW3 9249   5.522   6.244   2.287  1.6093 -0.5944 -0.1222
 2379SOL    MW4 9250   5.498   6.161   2.297 -0.4987 -0.5471 -0.0767
 2380SOL     OW 9251   6.284   5.361   6.343  0.4509 -0.1605 -0.2820
 2380SOL    HW2 9252   6.258   5.273   6.371  1.6879 -0.9308 -1.4351
 2380SOL    HW3 9253   6.250   5.368   6.253 -3.1068  2.1079  1.0337
 2380SOL    MW4 9254   6.276   5.350   6.335  0.2856  0.7417  0.0906
 2381SOL     OW 9255   1.454   3.557   6.098 -0.1688  0.0074 -0.3537
 2381SOL    HW2 9256   1.423   3.467   6.112  2.0612 -0.6938  0.6505
 2381SOL    HW3 9257   1.495   3.555   6.012 -1.9802  0.6771 -1.2693
 2381SOL    MW4 9258   1.455   3.545   6.089  0.5542 -0.1485  0.1468
 2382SOL     OW 9259   4.564   5.512   3.390 -0.8679 -0.0559 -0.2733
 2382SOL    HW2 9260   4.653   5.477   3.382 -1.1843 -0.8978 -0.2643
 2382SOL    HW3 9261   4.515   5.466   3.322 -1.5362 -0.4257  0.4374
 2382SOL    MW4 9262   4.570   5.501   3.380  0.2464  0.0994  0.7050
 2383SOL     OW 9263   4.715   3.964   5.600 -0.0655  0.5844 -0.4301
 2383SOL    HW2 9264   4.809   3.945   5.606 -0.0348  0.8402 -0.1098
 2383SOL    HW3 9265   4.679   3.930   5.681 -0.4773 -0.8107 -1.1663
 2383SOL    MW4 9266   4.723   3.957   5.611 -0.3085 -0.4936  0.1319
 2384SOL     OW 9267   5.715   1.759   5.158 -0.6373 -0.3449 -0.1609
 2384SOL    HW2 9268   5.672   1.676   5.135 -0.2189 -1.1244  1.7064
 2384SOL    HW3 9269   5.784   1.734   5.220  0.4409  1.2520 -0.6571
 2384SOL    MW4 9270   5.719   1.744   5.163 -0.1908  0.5321  0.1234
 2385SOL     OW 9271   4.631   4.871   5.086 -0.1639  0.2533 -0.1091
 2385SOL    HW2 9272   4.708   4.814   5.094 -1.2024 -1.2596 -0.3739
 2385SOL    HW3 9273   4.574   4.826   5.023 -0.5944  2.1324 -1.1480
 2385SOL    MW4 9274   4.633   4.857   5.078  0.2581 -0.0594  0.0658
 2386SOL     OW 9275   0.526   2.841   0.889 -0.5545 -0.0702  0.4144
 2386SOL    HW2 9276   0.563   2.757   0.863 -3.0334 -1.7550  1.9247
 2386SOL    HW3 9277   0.587   2.875   0.954  0.2475 -0.8905  0.1146
 2386SOL    MW4 9278   0.539   2.835   0.894 -0.0234 -0.4219 -0.6505
 2387SOL     OW 9279   4.651   4.421   6.207  0.1026 -0.3019  0.5510
 2387SOL    HW2 9280   4.611   4.433   6.121  0.8026 -0.6247  0.1746
 2387SOL    HW3 9281   4.611   4.490   6.261 -1.1801 -0.7972  0.2816
 2387SOL    MW4 9282   4.640   4.432   6.203 -0.1002 -0.4928  0.4004
 2388SOL     OW 9283   0.374   3.868   3.595 -0.3671  0.4336  0.2067
 2388SOL    HW2 9284   0.411   3.857   3.683 -0.0116 -0.1987 -0.0171
 2388SOL    HW3 9285   0.291   3.820   3.598 -0.5384  0.7302  0.3049
 2388SOL    MW4 9286   0.368   3.861   3.607 -0.2721  0.2812 -0.2547
 2389SOL     OW 9287   3.105   1.483   2.747 -0.2921 -0.5419 -0.0032
 2389SOL    HW2 9288   3.056   1.467   2.667 -0.5889  1.6109 -0.3218
 2389SOL    HW3 9289   3.043   1.463   2.818  0.1023 -2.8532 -0.2340
 2389SOL    MW4 9290   3.090   1.478   2.746 -0.0959  0.0852 -0.4036
 2390SOL     OW 9291   1.606   2.877   0.316 -0.1798  0.0042  0.7257
 2390SOL    HW2 9292   1.647   2.943   0.261  1.5657 -1.4412  0.2038
 2390SOL    HW3 9293   1.512   2.889   0.302  0.1731  0.7138 -1.3429
 2390SOL    MW4 9294   1.599   2.887   0.307 -0.1238  0.6574 -0.4338
 2391SOL     OW 9295   2.432   1.019   3.426  0.3167 -0.0786  0.2438
 2391SOL    HW2 9296   2.414   0.938   3.378 -2.4073  0.4808  0.1519
 2391SOL    HW3 9297   2.483   1.072   3.365 -1.4246 -0.1513 -1.3857
 2391SOL    MW4 9298   2.436   1.016   3.412 -0.1292  0.3387  0.2533
 2392SOL     OW 9299   4.988   4.716   5.346 -0.1439  0.0712 -0.0224
 2392SOL    HW2 9300   4.989   4.809   5.369 -0.7997 -0.2502  1.3823
 2392SOL    HW3 9301   4.916   4.707   5.284  0.0353  0.5314 -0.3000
 2392SOL    MW4 9302   4.979   4.727   5.341  0.0817 -0.2940 -0.2505
 2393SOL     OW 9303   0.621   1.821   2.641  0.0975  0.4168 -0.1539
 2393SOL    HW2 9304   0.584   1.860   2.720 -0.1904  1.3030 -0.7144
 2393SOL    HW3 9305   0.570   1.857   2.570  1.4124  0.9416 -0.8750
 2393SOL    MW4 9306   0.610   1.831   2.642  0.4021  0.2106 -0.1666
 2394SOL     OW 9307   5.126   0.361   4.954 -0.3919  0.4458  0.1632
 2394SOL    HW2 9308   5.106   0.384   4.864  1.7796  3.7548  0.3380
 2394SOL    HW3 9309   5.046   0.382   5.003 -0.6455  1.3869 -0.6349
 2394SOL    MW4 9310   5.113   0.367   4.949  0.0986 -0.8160 -0.0785
 2395SOL     OW 9311   1.414   2.814   3.224 -0.0328 -0.4839 -0.8432
 2395SOL    HW2 9312   1.463   2.893   3.205 -1.5195  0.1823 -2.0941
 2395SOL    HW3 9313   1.469   2.766   3.287  0.9311  1.4741 -0.1135
 2395SOL    MW4 9314   1.428   2.818   3.230  0.0319 -0.0224  0.1477
 2396SOL     OW 9315   1.677   4.716   0.867 -0.0310  0.3527  0.5005
 2396SOL    HW2 9316   1.712   4.640   0.820  1.2560  1.0643  0.2705
 2396SOL    HW3 9317   1.751   4.775   0.877 -0.2194  0.2463  3.4550
 2396SOL    MW4 9318   1.691   4.714   0.862  0.2382  0.4112 -0.0922
 2397SOL     OW 9319   3.269   5.367   2.647  0.0459 -0.1526 -0.0479
 2397SOL    HW2 9320   3.271   5.389   2.740  0.6515 -3.5836  0.8783
 2397SOL    HW3 9321   3.241   5.276   2.644  3.9719 -1.5524 -2.8473
 2397SOL    MW4 9322   3.266   5.358   2.659 -0.0410 -0.1348 -0.3870
 2398SOL     OW 9323   2.362   2.566   6.148  0.0487  0.4057  0.3234
 2398SOL    HW2 9324   2.290   2.557   6.210  1.3986 -0.0175  1.9004
 2398SOL    HW3 9325   2.335   2.514   6.073 -1.3614  0.4087  0.7947
 2398SOL    MW4 9326   2.349   2.558   6.146 -0.2906 -0.2775 -0.2424
 2399SOL     OW 9327   4.952   4.398   4.185  1.0129 -0.2441 -0.5819
 2399SOL    HW2 9328   5.034   4.348   4.192 -0.1304 -2.1138  0.5131
 2399SOL    HW3 9329   4.958   4.463   4.255  1.0756 -1.1788  0.3097
 2399SOL    MW4 9330   4.963   4.400   4.195 -0.6523 -0.0371  0.4522
 2400SOL     OW 9331   1.861   1.291   1.399 -0.2501  0.6930 -0.1784
 2400SOL    HW2 9332   1.935   1.290   1.339  0.6789 -2.6739  0.7778
 2400SOL    HW3 9333   1.796   1.234   1.357 -0.0633 -0.7173  1.3430
 2400SOL    MW4 9334   1.862   1.283   1.386 -0.6973 -0.3419 -0.7521
 2401SOL     OW 9335   5.302   5.634   2.259 -0.1416 -0.3518 -0.0401
 2401SOL    HW2 9336   5.242   5.709   2.262 -0.3528 -0.5162 -0.1054
 2401SOL    HW3 9337   5.383   5.666   2.297 -0.1831 -0.0447 -0.2085
 2401SOL    MW4 9338   5.304   5.648   2.264 -0.5068  0.1296  0.7270
 2402SOL     OW 9339   0.921   4.339   3.757  0.1828 -0.4223 -0.3844
 2402SOL    HW2 9340   0.886   4.405   3.817 -1.6302 -1.1636 -0.5600
 2402SOL    HW3 9341   0.876   4.357   3.674 -1.9563 -3.1138  0.0839
 2402SOL    MW4 9342   0.911   4.350   3.754 -0.0538 -0.3187  0.1644
 2403SOL     OW 9343   3.159   3.811   5.185  0.6889  0.0571 -0.5062
 2403SOL    HW2 9344   3.090   3.856   5.135  0.8940 -0.5168 -1.3244
 2403SOL    HW3 9345   3.201   3.880   5.235  0.3446  0.6201 -0.9762
 2403SOL    MW4 9346   3.155   3.826   5.185 -0.2641  0.5783  0.5109
 2404SOL     OW 9347   2.462   2.021   2.047  0.0317  0.2960  0.1823
 2404SOL    HW2 9348   2.378   1.989   2.015 -1.3599  2.4101  1.4617
 2404SOL    HW3 9349   2.477   2.103   2.000  1.8758 -0.4751 -0.6823
 2404SOL    MW4 9350   2.453   2.028   2.037  0.5460 -0.3576  0.4252
 2405SOL     OW 9351   5.540   6.138   4.921  0.6143  0.3034  0.4080
 2405SOL    HW2 9352   5.585   6.090   4.851  0.2595  0.2439  0.2196
 2405SOL    HW3 9353   5.604   6.142   4.992 -0.3919 -3.3155  1.7304
 2405SOL    MW4 9354   5.554   6.132   4.921  0.3541  0.1895 -0.0946
 2406SOL     OW 9355   1.767   5.610   2.083 -0.5219  0.5224 -0.0124
 2406SOL    HW2 9356   1.832   5.562   2.033  0.3592  3.8289 -2.4103
 2406SOL    HW3 9357   1.766   5.567   2.169  1.7470 -2.2012 -1.1755
 2406SOL    MW4 9358   1.775   5.598   2.088 -0.2924 -0.4136 -0.1450
 2407SOL     OW 9359   2.463   5.262   6.021  0.1936 -0.9994 -0.2338
 2407SOL    HW2 9360   2.469   5.306   6.105 -0.1035 -1.1194 -0.1500
 2407SOL    HW3 9361   2.398   5.193   6.034 -0.2441 -0.6881 -0.7018
 2407SOL    MW4 9362   2.455   5.259   6.034  0.1451  0.4969  0.4919
 2408SOL     OW 9363   2.547   4.469   6.062 -0.4061 -0.0586 -0.0446
 2408SOL    HW2 9364   2.557   4.479   5.968  0.1918 -0.2948 -0.0152
 2408SOL    HW3 9365   2.608   4.532   6.100 -0.6396  0.0318  0.1830
 2408SOL    MW4 9366   2.557   4.479   6.055  0.1025 -0.1357 -0.0879
 2409SOL     OW 9367   0.334   4.628   0.491  0.3629 -0.1528  0.4776
 2409SOL    HW2 9368   0.324   4.616   0.397  0.2071  2.0985  0.1390
 2409SOL    HW3 9369   0.360   4.720   0.501  0.4713 -0.3518  2.6298
 2409SOL    MW4 9370   0.336   4.639   0.480  0.2918 -0.1247 -0.4179
 2410SOL     OW 9371   3.792   5.954   0.095 -0.2590  0.1197 -0.3448
 2410SOL    HW2 9372   3.736   5.879   0.115 -1.2850  0.0290 -3.2217
 2410SOL    HW3 9373   3.782   6.011   0.171 -0.8105 -1.8196  1.1469
 2410SOL    MW4 9374   3.783   5.951   0.108  0.0514 -0.2825 -0.1402
 2411SOL     OW 9375   1.361   1.151   4.698  0.0262  0.2101  0.2820
 2411SOL    HW2 9376   1.274   1.156   4.736 -0.2166  1.4914 -0.3827
 2411SOL    HW3 9377   1.346   1.139   4.604  0.5369  1.1230  0.0734
 2411SOL    MW4 9378   1.348   1.150   4.690  0.4487  0.1100 -0.4459
 2412SOL     OW 9379   0.367   3.239   3.530  0.4433 -0.5956  0.5897
 2412SOL    HW2 9380   0.412   3.278   3.604  0.4492 -1.9316  1.3231
 2412SOL    HW3 9381   0.329   3.313   3.483 -0.2682  0.2344  2.3807
 2412SOL    MW4 9382   0.368   3.254   3.533 -0.0011  0.0057  0.5997
 2413SOL     OW 9383   1.266   0.671   3.450  0.2336  0.6436  0.1677
 2413SOL    HW2 9384   1.237   0.665   3.359  1.5161  0.5433 -0.2504
 2413SOL    HW3 9385   1.331   0.741   3.450 -0.0693  0.9387  1.0994
 2413SOL    MW4 9386   1.271   0.680   3.438  0.1069  0.4187 -0.2867
 2414SOL     OW 9387   5.617   3.503   5.826  0.0823 -0.4000 -0.1406
 2414SOL    HW2 9388   5.523   3.508   5.839 -0.0746  1.7526 -1.5503
 2414SOL    HW3 9389   5.654   3.562   5.892  0.3578 -0.4147 -0.2778
 2414SOL    MW4 9390   5.610   3.512   5.837 -0.2558 -0.1157 -0.4870
 2415SOL     OW 9391   1.662   6.020   1.692 -0.4542 -0.1218 -0.0538
 2415SOL    HW2 9392   1.630   6.046   1.778 -1.0166 -0.2460 -0.2219
 2415SOL    HW3 9393   1.694   6.101   1.653  1.7471 -0.3676  1.0519
 2415SOL    MW4 9394   1.662   6.034   1.698 -0.4835  1.0663 -0.2011
 2416SOL     OW 9395   5.452   3.749   3.190  0.2950 -0.0503 -0.7487
 2416SOL    HW2 9396   5.479   3.742   3.281 -0.2632 -0.4227 -0.6069
 2416SOL    HW3 9397   5.509   3.688   3.143  1.5336  1.1521 -0.8793
 2416SOL    MW4 9398   5.463   3.740   3.196  0.0781 -0.6850  0.1238
 2417SOL     OW 9399   3.239   3.928   3.266 -0.2791 -0.5472 -0.0283
 2417SOL    HW2 9400   3.237   3.834   3.248  0.2442 -0.1139 -2.7867
 2417SOL    HW3 9401   3.305   3.963   3.205 -1.6786  1.8337 -0.3220
 2417SOL    MW4 9402   3.248   3.920   3.256 -0.1780  0.3586  0.5151
 2418SOL     OW 9403   0.914   2.876   1.219  0.5204  0.6492 -0.4482
 2418SOL    HW2 9404   0.900   2.854   1.311 -0.4034  0.0853 -0.7057
 2418SOL    HW3 9405   0.928   2.791   1.176 -0.0068  0.8223 -0.9758
 2418SOL    MW4 9406   0.914   2.862   1.225  0.3062 -0.2773  0.5221
 2419SOL     OW 9407   5.638   2.617   0.092  0.3335  0.3112  0.0295
 2419SOL    HW2 9408   5.656   2.603  -0.001 -2.1453  0.1097 -0.4874
 2419SOL    HW3 9409   5.550   2.583   0.104  0.3985  0.8366  2.3634
 2419SOL    MW4 9410   5.629   2.610   0.081  0.1740  0.0417  0.1483
 2420SOL     OW 9411   2.559   2.634   4.758 -0.2039 -0.0113 -0.6860
 2420SOL    HW2 9412   2.580   2.696   4.689  0.0116 -0.6678 -1.2129
 2420SOL    HW3 9413   2.614   2.661   4.832  0.9119 -0.4038 -1.3547
 2420SOL    MW4 9414   2.569   2.646   4.759  0.9731  0.4906 -0.1568
 2421SOL     OW 9415   6.071   3.749   0.494 -0.2445  0.0183  0.6804
 2421SOL    HW2 9416   6.160   3.719   0.474 -0.9887 -2.7292  1.1375
 2421SOL    HW3 9417   6.083   3.812   0.565  1.3708  0.3311  0.1873
 2421SOL    MW4 9418   6.084   3.754   0.500 -0.5655 -0.3657 -0.5754
 2422SOL     OW 9419   3.953   0.093   4.877  0.2640  0.1517  0.4638
 2422SOL    HW2 9420   3.932   0.182   4.903 -0.4366  0.1748 -0.1442
 2422SOL    HW3 9421   4.039   0.076   4.915  0.6556  1.2849  0.1258
 2422SOL    MW4 9422   3.962   0.102   4.885 -0.4115 -0.1060 -0.2400
 2423SOL     OW 9423   5.259   1.264   3.145 -0.0058  0.1422  0.3376
 2423SOL    HW2 9424   5.176   1.258   3.097  0.4895 -0.1804 -0.5186
 2423SOL    HW3 9425   5.270   1.357   3.162 -0.5720  0.1828  0.5195
 2423SOL    MW4 9426   5.249   1.276   3.141  0.2027 -0.4559  0.0800
 2424SOL     OW 9427   2.988   3.910   0.561  0.2135  0.1074 -0.1400
 2424SOL    HW2 9428   2.986   3.832   0.617  0.9555 -0.3206 -0.6823
 2424SOL    HW3 9429   2.910   3.901   0.506  0.8696 -0.8524 -0.9561
 2424SOL    MW4 9430   2.977   3.898   0.561  0.5135 -0.2624  0.4370
 2425SOL     OW 9431   3.025   5.643   2.538  0.4262 -0.1671 -0.1704
 2425SOL    HW2 9432   3.025   5.738   2.529  1.4732  0.0062  1.2101
 2425SOL    HW3 9433   3.021   5.610   2.448 -1.4853  1.1295 -0.6209
 2425SOL    MW4 9434   3.025   5.651   2.525  0.4413 -0.0518  0.2038
 2426SOL     OW 9435   6.091   1.131   5.705 -1.0057  0.0289  0.0200
 2426SOL    HW2 9436   6.112   1.155   5.796 -0.6879 -0.4513  0.0803
 2426SOL    HW3 9437   6.169   1.157   5.655 -1.2901  0.5377 -0.1574
 2426SOL    MW4 9438   6.104   1.138   5.711 -0.5894  0.3037  0.2864
 2427SOL     OW 9439   0.256   4.740   1.181 -0.6017 -0.0376 -0.1064
 2427SOL    HW2 9440   0.333   4.764   1.233  0.5385  0.4676 -1.9296
 2427SOL    HW3 9441   0.228   4.656   1.216  2.4862 -1.6423 -1.1228
 2427SOL    MW4 9442   0.262   4.732   1.193 -0.3883 -0.4418  0.2399
 2428SOL     OW 9443   4.651   5.394   3.836 -0.3770 -0.0017 -0.3381
 2428SOL    HW2 9444   4.587   5.394   3.765 -0.1542  2.1227 -0.6095
 2428SOL    HW3 9445   4.599   5.383   3.916 -1.4173  3.3762 -0.3931
 2428SOL    MW4 9446   4.636   5.392   3.837  0.1068 -0.0931  0.4148
 2429SOL     OW 9447   2.052   4.558   3.458 -0.1536  0.1184  0.5379
 2429SOL    HW2 9448   2.138   4.517   3.455  0.3582  1.1834 -0.8468
 2429SOL    HW3 9449   1.993   4.493   3.421  0.6949  0.6283 -1.9289
 2429SOL    MW4 9450   2.055   4.544   3.453 -0.1207  0.4285  0.2986
 2430SOL     OW 9451   1.790   4.814   5.197 -0.0528 -0.4720  0.5003
 2430SOL    HW2 9452   1.710   4.779   5.157 -0.3701 -1.2308  1.7384
 2430SOL    HW3 9453   1.773   4.809   5.291  0.4502  1.7521  0.7623
 2430SOL    MW4 9454   1.777   4.809   5.204  0.1912  0.3268  0.5343
 2431SOL     OW 9455   3.787   4.544   2.660  0.0473  0.0706 -0.7673
 2431SOL    HW2 9456   3.703   4.590   2.655 -0.0930 -0.0061  0.4929
 2431SOL    HW3 9457   3.842   4.586   2.594 -0.7134  0.6982 -1.0126
 2431SOL    MW4 9458   3.783   4.555   2.651 -0.0819 -0.2421  0.3329
 2432SOL     OW 9459   1.733   3.984   1.628  0.8783 -0.4168  0.9844
 2432SOL    HW2 9460   1.730   3.926   1.552 -2.3495 -0.7235  1.2114
 2432SOL    HW3 9461   1.727   3.927   1.704  1.7978  0.0149  1.3987
 2432SOL    MW4 9462   1.732   3.969   1.628 -0.3501 -0.1153 -0.3160
 2433SOL     OW 9463   4.519   2.335   1.761 -0.0312  0.1645 -0.2309
 2433SOL    HW2 9464   4.567   2.259   1.728  0.4700  0.5369 -0.3683
 2433SOL    HW3 9465   4.433   2.300   1.784  0.2679 -0.4936 -0.0722
 2433SOL    MW4 9466   4.514   2.320   1.759  0.6277  0.1089  0.1502
 2434SOL     OW 9467   6.230   2.599   0.749  0.2527 -0.2639  0.1953
 2434SOL    HW2 9468   6.237   2.611   0.843  0.3721  0.9139  0.0441
 2434SOL    HW3 9469   6.313   2.558   0.724 -0.3440 -1.9034  0.7781
 2434SOL    MW4 9470   6.242   2.595   0.758 -0.0298  0.9992  0.1668
 2435SOL     OW 9471   1.964   5.948   3.292  0.0270  0.1504  0.1383
 2435SOL    HW2 9472   2.032   5.953   3.359 -0.8747  1.3451  1.0177
 2435SOL    HW3 9473   1.951   5.854   3.278  1.6194 -0.1029  0.1561
 2435SOL    MW4 9474   1.971   5.936   3.299 -0.2529  0.5104 -0.0612
 2436SOL     OW 9475   6.210   3.689   3.662 -0.2893  0.2299 -0.0276
 2436SOL    HW2 9476   6.114   3.691   3.658 -0.3583 -1.5788 -0.4103
 2436SOL    HW3 9477   6.228   3.657   3.751 -0.0336  0.5598  0.0393
 2436SOL    MW4 9478   6.200   3.685   3.673 -0.1423 -0.7781 -0.0277
 2437SOL     OW 9479   1.797   2.085   0.009  0.6106 -0.4208  0.6850
 2437SOL    HW2 9480   1.735   2.045  -0.052  1.5737 -3.7346  1.6318
 2437SOL    HW3 9481   1.783   2.039   0.092  2.2729  0.8597  1.7549
 2437SOL    MW4 9482   1.787   2.074   0.012 -0.3541  0.4538 -0.6251
 2438SOL     OW 9483   1.052   2.072   5.029  0.1605 -0.4636 -0.2043
 2438SOL    HW2 9484   1.097   2.146   5.070  0.6260 -0.1871 -1.1706
 2438SOL    HW3 9485   0.973   2.111   4.990  0.0314 -0.6165 -0.0990
 2438SOL    MW4 9486   1.047   2.087   5.029 -0.3311 -0.0736  0.4263
 2439SOL     OW 9487   3.034   2.341   1.986 -0.3072 -0.1624 -0.3525
 2439SOL    HW2 9488   2.998   2.386   1.910  1.3141  1.1142 -0.4437
 2439SOL    HW3 9489   3.110   2.394   2.011  2.1066 -3.1469 -0.7875
 2439SOL    MW4 9490   3.039   2.354   1.979  0.2546 -0.1660  0.2322
 2440SOL     OW 9491   4.183   5.726   3.847  0.3452  0.1864  0.0986
 2440SOL    HW2 9492   4.213   5.745   3.758  0.0985  0.3335  0.0471
 2440SOL    HW3 9493   4.170   5.812   3.887 -0.9950  0.1467 -0.2087
 2440SOL    MW4 9494   4.185   5.740   3.841  0.2399 -0.2078  0.2163
 2441SOL     OW 9495   1.814   5.797   0.706  0.3293 -0.0360 -0.2325
 2441SOL    HW2 9496   1.865   5.852   0.647  0.2729 -0.0906 -0.3311
 2441SOL    HW3 9497   1.866   5.717   0.715  0.6889  0.2533  0.3526
 2441SOL    MW4 9498   1.828   5.793   0.700 -0.4517 -0.4380 -0.1459
 2442SOL     OW 9499   1.658   1.613   3.649 -0.3629 -0.0669  0.1491
 2442SOL    HW2 9500   1.606   1.680   3.694 -1.0568  0.1719 -0.9678
 2442SOL    HW3 9501   1.742   1.655   3.631  0.9546 -0.9729  3.4380
 2442SOL    MW4 9502   1.662   1.627   3.652 -0.3316  0.2654 -0.3644
 2443SOL     OW 9503   1.365   3.739   3.026  0.5176 -0.6445 -0.6140
 2443SOL    HW2 9504   1.405   3.825   3.036  1.0884 -0.9679 -0.1104
 2443SOL    HW3 9505   1.339   3.714   3.114 -0.3575 -0.6594 -0.8608
 2443SOL    MW4 9506   1.367   3.747   3.039  0.1199 -0.2201  0.4337
 2444SOL     OW 9507   4.211   0.361   6.379 -0.4468 -0.0841  0.2564
 2444SOL    HW2 9508   4.270   0.286   6.374  0.2376  0.4348  0.3754
 2444SOL    HW3 9509   4.243   0.421   6.312 -1.6153 -0.3184 -0.5459
 2444SOL    MW4 9510   4.223   0.359   6.369 -0.0971  0.5201  0.0244
 2445SOL     OW 9511   5.429   4.684   5.759 -0.1585 -0.2126 -0.0664
 2445SOL    HW2 9512   5.404   4.593   5.741  0.2482 -0.6483  1.4195
 2445SOL    HW3 9513   5.442   4.687   5.854  0.2632  1.2969 -0.1456
 2445SOL    MW4 9514   5.428   4.672   5.769 -0.0555 -0.3080  0.6236
 2446SOL     OW 9515   4.838   3.217   4.323 -0.1838 -0.5459  0.3675
 2446SOL    HW2 9516   4.913   3.159   4.308 -0.7517 -1.0656 -0.5953
 2446SOL    HW3 9517   4.768   3.179   4.270 -0.6793  0.8358 -0.0055
 2446SOL    MW4 9518   4.839   3.204   4.314  0.6236 -0.0935 -0.0979
 2447SOL     OW 9519   0.890   0.704   2.858  0.5258  0.0791  0.2324
 2447SOL    HW2 9520   0.925   0.771   2.917  0.7808  0.2801 -0.1403
 2447SOL    HW3 9521   0.796   0.700   2.878  0.9568 -1.4808  2.2525
 2447SOL    MW4 9522   0.882   0.712   2.868  0.1009 -0.2813  0.2643
 2448SOL     OW 9523   0.845   5.478   2.884  0.2459 -0.0646  0.9697
 2448SOL    HW2 9524   0.920   5.444   2.836 -0.7745 -1.8363  0.5238
 2448SOL    HW3 9525   0.882   5.525   2.958  1.7850 -0.2251  0.3296
 2448SOL    MW4 9526   0.860   5.480   2.887  0.3302 -0.0171  0.3173
 2449SOL     OW 9527   3.418   0.367   0.871 -0.0296 -0.1417  0.6374
 2449SOL    HW2 9528   3.327   0.344   0.853  0.6756 -0.7122 -3.0568
 2449SOL    HW3 9529   3.464   0.283   0.875  0.6800  0.2008 -0.0503
 2449SOL    MW4 9530   3.412   0.353   0.869  0.1956 -0.3125  0.5260
 2450SOL     OW 9531   4.137   2.529   3.271 -0.1860 -0.1098 -0.5410
 2450SOL    HW2 9532   4.231   2.522   3.285 -0.1031 -1.0073 -1.4807
 2450SOL    HW3 9533   4.128   2.575   3.188 -0.5780 -0.0511 -0.4693
 2450SOL    MW4 9534   4.148   2.534   3.262  0.1789 -0.4299  0.2701
 2451SOL     OW 9535   0.134   1.357   6.028 -0.1828  0.2687 -0.5058
 2451SOL    HW2 9536   0.126   1.334   5.936 -0.8062 -0.2160 -0.3420
 2451SOL    HW3 9537   0.169   1.446   6.028 -2.6107  1.3013 -1.2941
 2451SOL    MW4 9538   0.137   1.366   6.016  0.1902 -0.7391 -0.0767
 2452SOL     OW 9539   1.550   1.519   2.949  0.3490 -0.4841  0.2100
 2452SOL    HW2 9540   1.626   1.575   2.932  0.6580 -1.0163 -0.1881
 2452SOL    HW3 9541   1.587   1.441   2.989  0.1846 -1.3348 -1.2359
 2452SOL    MW4 9542   1.565   1.516   2.952  0.6839  0.4561  0.6077
 2453SOL     OW 9543   0.180   3.504   6.360 -0.2276  0.0378  0.1675
 2453SOL    HW2 9544   0.181   3.444   6.434 -0.9454 -0.4358 -0.1963
 2453SOL    HW3 9545   0.089   3.506   6.332 -0.0897  0.7792 -0.2458
 2453SOL    MW4 9546   0.168   3.496   6.366 -0.2024  0.1976  0.4633
 2454SOL     OW 9547   3.873   2.234   1.791 -0.2431  0.0281 -0.2101
 2454SOL    HW2 9548   3.927   2.305   1.825  2.5285 -2.0344  0.1132
 2454SOL    HW3 9549   3.834   2.194   1.868  2.1521 -1.6611  0.2655
 2454SOL    MW4 9550   3.875   2.238   1.805  0.2204 -0.6319  0.5454
 2455SOL     OW 9551   1.234   0.830   1.762 -0.2946  0.3817 -0.3985
 2455SOL    HW2 9552   1.238   0.834   1.667 -0.5199  0.1158 -0.4225
 2455SOL    HW3 9553   1.162   0.888   1.786 -0.9470 -0.3779 -0.4692
 2455SOL    MW4 9554   1.225   0.838   1.753 -0.5938  0.1028  0.1398
 2456SOL     OW 9555   3.546   3.353   4.236  0.0723 -0.7360 -0.2565
 2456SOL    HW2 9556   3.473   3.392   4.187  0.8647 -0.3212 -1.1323
 2456SOL    HW3 9557   3.595   3.304   4.170  1.0025 -0.4058  0.1872
 2456SOL    MW4 9558   3.543   3.351   4.221 -0.3651 -0.2550  0.6313
 2457SOL     OW 9559   1.498   0.371   1.135 -0.3053 -0.7109 -0.1879
 2457SOL    HW2 9560   1.469   0.434   1.069  0.8405  0.2897  0.2147
 2457SOL    HW3 9561   1.579   0.335   1.100  0.1076 -0.4588  0.4731
 2457SOL    MW4 9562   1.505   0.375   1.122 -0.5592 -0.1027  0.3322
 2458SOL     OW 9563   3.340   5.632   5.438 -0.0893  0.3099  0.1165
 2458SOL    HW2 9564   3.427   5.610   5.471  0.4444  1.6557 -0.3022
 2458SOL    HW3 9565   3.329   5.579   5.359 -0.5680 -1.4737  1.3437
 2458SOL    MW4 9566   3.350   5.622   5.432  0.3186 -0.0549  0.3450
 2459SOL     OW 9567   2.232   5.991   2.218  0.3775  0.0182  0.4526
 2459SOL    HW2 9568   2.194   5.912   2.256 -1.6357  0.5922 -0.2187
 2459SOL    HW3 9569   2.248   6.049   2.293  0.8666 -0.6216  0.8443
 2459SOL    MW4 9570   2.229   5.988   2.233 -0.5985 -0.2484  0.0299
 2460SOL     OW 9571   5.072   4.864   0.895  0.0095 -0.0603 -0.1163
 2460SOL    HW2 9572   5.162   4.835   0.909 -0.2979 -1.3753 -0.7663
 2460SOL    HW3 9573   5.047   4.825   0.812 -1.6552 -0.9466  0.7519
 2460SOL    MW4 9574   5.081   4.855   0.886  0.1689 -0.0950  0.6096
 2461SOL     OW 9575   3.720   2.811   3.281 -0.3494  0.1649 -0.0411
 2461SOL    HW2 9576   3.734   2.717   3.265 -0.8782  0.0130  0.3757
 2461SOL    HW3 9577   3.628   2.818   3.307  0.3554  0.3994  2.7598
 2461SOL    MW4 9578   3.710   2.799   3.282 -0.3292 -0.1711 -0.0004
 2462SOL     OW 9579   3.685   4.314   2.206 -0.1887 -0.4694  0.0278
 2462SOL    HW2 9580   3.730   4.253   2.264  0.2337 -0.0554  0.1413
 2462SOL    HW3 9581   3.753   4.347   2.147 -0.0692  1.0324  0.9366
 2462SOL    MW4 9582   3.700   4.310   2.206  0.1600  0.2208  0.3898
 2463SOL     OW 9583   4.224   2.824   2.349  0.8504 -0.5395 -0.2556
 2463SOL    HW2 9584   4.251   2.732   2.354 -0.0319 -0.8111 -0.2973
 2463SOL    HW3 9585   4.208   2.849   2.440  1.6323 -0.2523 -0.1909
 2463SOL    MW4 9586   4.225   2.815   2.362  0.1829  0.0310 -0.0765
 2464SOL     OW 9587   0.628   4.784   2.352 -0.1816 -0.2769  0.8700
 2464SOL    HW2 9588   0.550   4.815   2.307  0.1140 -1.0809 -0.2671
 2464SOL    HW3 9589   0.663   4.715   2.294  1.1428 -0.2037  1.5366
 2464SOL    MW4 9590   0.622   4.779   2.338 -1.0040 -0.0707 -0.1687
 2465SOL     OW 9591   5.684   0.754   1.060 -0.2537  0.4703  0.1287
 2465SOL    HW2 9592   5.692   0.773   0.966  2.1960 -2.0180 -0.3198
 2465SOL    HW3 9593   5.734   0.823   1.103 -1.1017  1.4368 -0.3981
 2465SOL    MW4 9594   5.692   0.765   1.053 -0.7919  0.3516  0.3820
 2466SOL     OW 9595   0.149   4.479   1.302 -0.2319 -0.5376  0.4014
 2466SOL    HW2 9596   0.158   4.398   1.253 -0.8957 -0.2139 -0.2832
 2466SOL    HW3 9597   0.160   4.453   1.394  2.6404 -0.8997  0.0407
 2466SOL    MW4 9598   0.151   4.465   1.308 -0.0205 -0.6820  0.5838
 2467SOL     OW 9599   0.670   4.183   0.890 -0.3497  0.0884  0.4217
 2467SOL    HW2 9600   0.643   4.169   0.981  0.7302 -1.7574  0.5118
 2467SOL    HW3 9601   0.603   4.139   0.838  1.1632 -2.5359  0.5533
 2467SOL    MW4 9602   0.658   4.176   0.895 -0.4766  0.1476 -0.2180
 2468SOL     OW 9603   5.067   1.135   2.321  0.6113  0.1872 -0.3421
 2468SOL    HW2 9604   5.149   1.168   2.284  1.7132  0.7371  2.3706
 2468SOL    HW3 9605   5.073   1.154   2.414 -1.7097 -1.6938  0.2940
 2468SOL    MW4 9606   5.079   1.142   2.328 -0.1275 -0.3580 -0.2089
 2469SOL     OW 9607   3.529   0.679   4.063  0.1715  0.2358 -0.0814
 2469SOL    HW2 9608   3.504   0.758   4.112 -2.0158 -0.1546 -0.4716
 2469SOL    HW3 9609   3.487   0.690   3.977 -0.3488 -1.4199 -0.0760
 2469SOL    MW4 9610   3.520   0.691   4.058  0.6687  0.2843  0.8844
 2470SOL     OW 9611   4.899   1.932   1.714  0.0727 -0.4598  0.1916
 2470SOL    HW2 9612   4.847   1.853   1.705 -2.5526  1.3234 -1.7277
 2470SOL    HW3 9613   4.956   1.933   1.636  1.0881 -1.0733  0.9051
 2470SOL    MW4 9614   4.900   1.922   1.702 -0.3510 -0.4997 -0.4688
 2471SOL     OW 9615   0.804   1.178   4.213  0.0181 -0.2609  0.5097
 2471SOL    HW2 9616   0.818   1.253   4.271 -2.4292  0.1081  0.7506
 2471SOL    HW3 9617   0.862   1.110   4.247 -0.5004  0.3167  2.6987
 2471SOL    MW4 9618   0.813   1.179   4.225  0.9286 -0.4763  0.3746
 2472SOL     OW 9619   5.760   6.237   2.687  0.2433 -0.2559 -0.4317
 2472SOL    HW2 9620   5.790   6.173   2.623  1.2935 -1.0152  0.7562
 2472SOL    HW3 9621   5.803   6.211   2.769 -0.1760  1.3207  0.3392
 2472SOL    MW4 9622   5.769   6.226   2.690 -0.1615 -0.3319  0.3261
 2473SOL     OW 9623   2.982   3.745   5.591  0.4190  0.3282  0.0280
 2473SOL    HW2 9624   3.073   3.719   5.579  0.3722 -0.6496  1.4583
 2473SOL    HW3 9625   2.965   3.728   5.684 -1.3480  0.0575 -0.3148
 2473SOL    MW4 9626   2.992   3.739   5.602  0.8022  0.1228 -0.2333
 2474SOL     OW 9627   5.355   5.385   0.497  0.1997 -0.1569  0.4002
 2474SOL    HW2 9628   5.421   5.449   0.472 -0.4892  0.0889 -0.8670
 2474SOL    HW3 9629   5.336   5.403   0.589  0.0138  1.4746  0.0630
 2474SOL    MW4 9630   5.361   5.396   0.505 -1.0136 -0.4717 -0.0336
 2475SOL     OW 9631   0.432   3.383   5.780 -0.9177  0.2210 -0.2636
 2475SOL    HW2 9632   0.337   3.387   5.796 -0.9376  1.5513 -0.6024
 2475SOL    HW3 9633   0.470   3.368   5.866 -1.4241 -0.0649 -0.0838
 2475SOL    MW4 9634   0.424   3.382   5.793 -0.2134 -0.3387 -0.2220
 2476SOL     OW 9635   0.839   4.168   0.493 -0.3894  0.0510  0.4417
 2476SOL    HW2 9636   0.926   4.128   0.495  0.6538  2.1635  0.5637
 2476SOL    HW3 9637   0.779   4.096   0.473  1.1554 -1.8340  2.1967
 2476SOL    MW4 9638   0.843   4.153   0.491  0.1116  0.0582 -0.3614
 2477SOL     OW 9639   1.386   1.235   0.538  0.0154  0.1831 -0.6771
 2477SOL    HW2 9640   1.379   1.294   0.614 -0.3559  0.3355 -0.8300
 2477SOL    HW3 9641   1.471   1.256   0.500  0.6158 -0.5374  0.2346
 2477SOL    MW4 9642   1.396   1.246   0.543 -0.2427 -0.1183  0.6227
 2478SOL     OW 9643   5.834   5.252   5.112  0.0475 -0.0885  0.4679
 2478SOL    HW2 9644   5.928   5.252   5.133 -0.0546  0.6434  0.9864
 2478SOL    HW3 9645   5.807   5.162   5.124  0.6376 -0.2572  0.5744
 2478SOL    MW4 9646   5.843   5.240   5.116 -0.5840 -0.5172 -0.5033
 2479SOL     OW 9647   2.437   6.017   0.152  0.2254  0.0059  0.2333
 2479SOL    HW2 9648   2.463   6.060   0.234  1.2186  1.4887 -0.8315
 2479SOL    HW3 9649   2.365   6.070   0.119  0.0694 -0.3787 -0.0569
 2479SOL    MW4 9650   2.431   6.030   0.159  0.3548  0.2339 -0.3217
 2480SOL     OW 9651   2.996   5.816   1.949 -0.5095 -0.3190  0.0023
 2480SOL    HW2 9652   2.902   5.816   1.936 -0.6010 -1.2296  0.5836
 2480SOL    HW3 9653   3.017   5.726   1.974  0.6896 -0.4681 -1.3791
 2480SOL    MW4 9654   2.987   5.804   1.951 -0.3145 -0.2509 -0.0668
 2481SOL     OW 9655   2.923   5.229   0.035  0.2031 -0.3352  0.6906
 2481SOL    HW2 9656   2.956   5.253  -0.051  2.5215 -0.7527  1.4027
 2481SOL    HW3 9657   2.910   5.134   0.029  2.7412 -0.8039  1.4543
 2481SOL    MW4 9658   2.926   5.219   0.023 -0.1323  0.5761  0.0258
 2482SOL     OW 9659   2.276   2.604   5.424  0.4422 -0.3589  0.1893
 2482SOL    HW2 9660   2.346   2.654   5.465  0.2690 -0.0937  0.1639
 2482SOL    HW3 9661   2.321   2.538   5.372  0.6920  0.3191 -0.4752
 2482SOL    MW4 9662   2.291   2.602   5.423 -0.1765 -0.4769  0.2469
 2483SOL     OW 9663   2.277   4.190   0.127 -0.3771 -0.1499  0.3627
 2483SOL    HW2 9664   2.236   4.202   0.212  0.0627  0.8094  0.4535
 2483SOL    HW3 9665   2.360   4.147   0.146  0.3771  1.3311  0.6010
 2483SOL    MW4 9666   2.283   4.186   0.140  0.0624 -0.4844 -0.0673
 2484SOL     OW 9667   5.763   2.029   0.916  0.2217  0.2006 -0.4411
 2484SOL    HW2 9668   5.827   2.062   0.978  0.5065  0.2013 -0.7315
 2484SOL    HW3 9669   5.696   1.987   0.970  0.8448 -0.4749 -0.1717
 2484SOL    MW4 9670   5.762   2.028   0.931  0.0336  0.0332 -0.0586
 2485SOL     OW 9671   4.597   2.891   1.450 -0.1635 -0.2848  0.2067
 2485SOL    HW2 9672   4.556   2.883   1.364 -1.2003 -0.3122  0.6965
 2485SOL    HW3 9673   4.527   2.874   1.512  0.5332 -0.0767  1.0705
 2485SOL    MW4 9674   4.583   2.888   1.447 -0.1817  0.2744  0.0347
 2486SOL     OW 9675   0.269   5.090   5.939  0.0955  0.3505 -0.0401
 2486SOL    HW2 9676   0.363   5.074   5.947 -0.2381 -1.8164  0.0545
 2486SOL    HW3 9677   0.234   5.071   6.026 -0.5241  0.4502 -0.2596
 2486SOL    MW4 9678   0.276   5.086   5.952 -0.5782  0.1390  0.6340
 2487SOL     OW 9679   1.015   3.399   6.238  0.0492 -0.3065  0.1000
 2487SOL    HW2 9680   1.040   3.472   6.181 -0.0077 -2.0586 -2.3028
 2487SOL    HW3 9681   1.098   3.363   6.269  0.1286 -0.0426  0.1922
 2487SOL    MW4 9682   1.029   3.404   6.235  0.1846 -0.1530  0.5088
 2488SOL     OW 9683   2.013   6.398   4.430  0.2205  0.0407  0.0230
 2488SOL    HW2 9684   2.096   6.388   4.383  0.7760 -1.1795  1.1689
 2488SOL    HW3 9685   2.039   6.422   4.519 -0.8346  3.0791 -0.3932
 2488SOL    MW4 9686   2.028   6.400   4.435 -0.0762 -0.0319  0.1717
 2489SOL     OW 9687   5.655   4.007   1.930  0.1134 -0.6306 -0.0828
 2489SOL    HW2 9688   5.640   4.013   2.025 -2.9113  0.0204 -0.4828
 2489SOL    HW3 9689   5.718   3.936   1.920  3.9359  2.0150  2.5714
 2489SOL    MW4 9690   5.661   3.998   1.942 -0.2727  0.0138  0.0387
 2490SOL     OW 9691   0.661   5.938   1.059  0.0341  0.0756 -0.2837
 2490SOL    HW2 9692   0.586   5.919   1.116  0.5898  1.4151  0.9401
 2490SOL    HW3 9693   0.635   6.017   1.011  0.4183  0.2019 -0.2863
 2490SOL    MW4 9694   0.648   5.946   1.061  0.1038 -0.2219 -0.6063
 2491SOL     OW 9695   0.830   2.601   1.965 -0.5663 -0.4263 -0.4385
 2491SOL    HW2 9696   0.917   2.603   2.005 -0.6368 -0.2226 -0.2908
 2491SOL    HW3 9697   0.787   2.679   1.999 -0.9039 -0.6754 -0.2943
 2491SOL    MW4 9698   0.836   2.612   1.975 -0.6366 -0.4670  0.8468
 2492SOL     OW 9699   4.401   3.156   3.610  0.0310 -0.1148 -0.3362
 2492SOL    HW2 9700   4.407   3.061   3.622  1.1727 -0.4616 -3.0297
 2492SOL    HW3 9701   4.491   3.188   3.620 -0.2939  0.6481  0.2415
 2492SOL    MW4 9702   4.414   3.148   3.613 -0.4079  0.3349  0.5014
 2493SOL     OW 9703   1.453   3.030   2.696 -0.0523 -0.2341 -0.1948
 2493SOL    HW2 9704   1.383   3.006   2.635 -0.0628  1.2699 -0.8165
 2493SOL    HW3 9705   1.408   3.074   2.768  0.3042  1.6627 -1.0862
 2493SOL    MW4 9706   1.438   3.033   2.697  0.0217  0.1034  0.0605
 2494SOL     OW 9707   5.896   3.561   0.386 -0.0562 -0.5062 -0.1943
 2494SOL    HW2 9708   5.829   3.533   0.449 -0.9718  1.3816 -0.2671
 2494SOL    HW3 9709   5.932   3.641   0.424 -0.1891  0.3261 -1.7415
 2494SOL    MW4 9710   5.892   3.568   0.399  0.2121 -0.2111 -0.2690
 2495SOL     OW 9711   0.699   5.695   4.239 -0.2921  0.0556 -0.0407
 2495SOL    HW2 9712   0.632   5.635   4.269  0.4145 -0.3970  0.6492
 2495SOL    HW3 9713   0.778   5.642   4.230 -0.6206 -0.0824 -3.6325
 2495SOL    MW4 9714   0.701   5.680   4.242 -0.1164 -0.0387 -0.3652
 2496SOL     OW 9715   2.930   4.530   6.187 -0.3471  0.2888  0.0891
 2496SOL    HW2 9716   2.921   4.610   6.135 -2.2534  1.0673  1.4644
 2496SOL    HW3 9717   3.013   4.540   6.233 -0.6290  1.5859  0.3561
 2496SOL    MW4 9718   2.940   4.542   6.186  0.2006 -0.3528 -0.0047
 2497SOL     OW 9719   1.057   1.128   4.739  0.0925  0.2936 -0.0899
 2497SOL    HW2 9720   1.014   1.115   4.654 -1.3573  1.1676  0.4827
 2497SOL    HW3 9721   1.084   1.040   4.765  0.2689 -0.0318 -1.2917
 2497SOL    MW4 9722   1.055   1.115   4.731  0.4740 -0.1479 -0.3694
 2498SOL     OW 9723   5.204   5.986   3.174 -1.1937  0.2965  0.5555
 2498SOL    HW2 9724   5.161   6.043   3.238  1.0134 -0.4185  2.8260
 2498SOL    HW3 9725   5.270   5.940   3.224  2.5155  1.5669 -2.6859
 2498SOL    MW4 9726   5.207   5.988   3.189 -0.1294  0.7111 -0.0019
 2499SOL     OW 9727   0.800   3.508   4.942  0.0220 -0.0396 -0.2197
 2499SOL    HW2 9728   0.854   3.542   4.869  0.9380  1.7986  1.2299
 2499SOL    HW3 9729   0.858   3.446   4.987  0.0785  0.1314 -0.0558
 2499SOL    MW4 9730   0.815   3.504   4.938 -0.8445 -0.8458 -0.0290
 2500SOL     OW 9731   1.341   2.198   1.979  0.1269  0.1326 -0.1188
 2500SOL    HW2 9732   1.323   2.110   2.012 -0.5646  0.7445  1.1972
 2500SOL    HW3 9733   1.391   2.240   2.049  1.5786  0.4051 -1.2601
 2500SOL    MW4 9734   1.346   2.192   1.992 -0.2993 -0.4491  0.1465
 2501SOL     OW 9735   2.307   5.298   0.840 -0.2126  0.1663 -0.3377
 2501SOL    HW2 9736   2.354   5.333   0.764  1.6146 -0.3241  0.5098
 2501SOL    HW3 9737   2.215   5.297   0.812  0.4270 -0.4143 -2.7025
 2501SOL    MW4 9738   2.301   5.302   0.826 -0.5230  0.1139  0.1608
 2502SOL     OW 9739   1.257   4.442   5.983 -0.2235 -0.6999  0.3172
 2502SOL    HW2 9740   1.343   4.465   6.020 -0.7410 -0.3726  1.3345
 2502SOL    HW3 9741   1.216   4.527   5.965  0.2074 -0.8322 -1.5253
 2502SOL    MW4 9742   1.263   4.456   5.986 -0.1704 -0.1746 -0.3494
 2503SOL     OW 9743   0.082   1.636   5.507  0.0687 -0.1052  0.1272
 2503SOL    HW2 9744   0.165   1.654   5.463  0.4047 -1.9224 -0.0334
 2503SOL    HW3 9745   0.018   1.634   5.437  0.3028 -1.1584 -0.0645
 2503SOL    MW4 9746   0.085   1.638   5.492 -0.4926  0.1191 -0.4236
 2504SOL     OW 9747   1.990   2.420   4.273  0.3200 -0.2296 -0.1484
 2504SOL    HW2 9748   2.068   2.441   4.221 -1.5288  0.8690 -2.6899
 2504SOL    HW3 9749   1.959   2.504   4.305 -0.2714 -0.5527  0.1424
 2504SOL    MW4 9750   1.996   2.434   4.270  0.1191  0.0482 -0.3270
 2505SOL     OW 9751   5.718   3.858   1.003  0.4625 -0.4465  0.1750
 2505SOL    HW2 9752   5.738   3.800   1.077  0.2070  1.2894  1.6887
 2505SOL    HW3 9753   5.804   3.892   0.976  0.4278 -0.0698  0.5429
 2505SOL    MW4 9754   5.732   3.855   1.009  0.2526 -0.4606 -0.0032
 2506SOL     OW 9755   0.713   1.413   1.464 -0.2838  0.4054 -0.0347
 2506SOL    HW2 9756   0.662   1.476   1.411  0.2339  0.1814 -0.8155
 2506SOL    HW3 9757   0.654   1.389   1.535 -1.6346 -0.4914 -1.3853
 2506SOL    MW4 9758   0.698   1.418   1.466  0.2742  0.5003  0.5863
 2507SOL     OW 9759   4.780   4.192   2.983 -0.3029 -0.3760 -0.3248
 2507SOL    HW2 9760   4.700   4.239   3.008 -0.2209  0.2267 -1.1423
 2507SOL    HW3 9761   4.796   4.218   2.892  0.1841 -1.3982 -0.5488
 2507SOL    MW4 9762   4.772   4.202   2.974 -0.0842 -0.7298 -0.3582
 2508SOL     OW 9763   2.395   5.668   4.088 -0.0761 -0.2192  0.0812
 2508SOL    HW2 9764   2.389   5.667   3.993 -0.9951  3.0022 -0.0220
 2508SOL    HW3 9765   2.489   5.666   4.106  0.1071 -0.8941 -0.8881
 2508SOL    MW4 9766   2.406   5.668   4.078 -0.3368 -0.5889  0.5979
 2509SOL     OW 9767   2.719   6.200   2.140  0.1938  0.3401 -0.4063
 2509SOL    HW2 9768   2.811   6.181   2.159  0.6295  0.8285 -1.8564
 2509SOL    HW3 9769   2.670   6.143   2.199  1.4214 -1.7224 -1.2821
 2509SOL    MW4 9770   2.725   6.190   2.150 -0.6596  0.3341 -0.0266
 2510SOL     OW 9771   0.955   1.416   1.853 -0.1043 -0.1750  0.6655
 2510SOL    HW2 9772   0.983   1.340   1.801  1.6831  0.0047  1.2855
 2510SOL    HW3 9773   1.019   1.484   1.831 -1.5764  1.1327  0.2601
 2510SOL    MW4 9774   0.967   1.415   1.843 -0.2714  0.4738 -0.0689
 2511SOL     OW 9775   4.163   2.344   6.250 -0.3197 -0.6956  0.0126
 2511SOL    HW2 9776   4.190   2.282   6.183 -0.3403 -0.4133 -0.2618
 2511SOL    HW3 9777   4.117   2.291   6.315  1.6710 -1.3500  0.9640
 2511SOL    MW4 9778   4.160   2.329   6.250 -0.2150 -0.1982  0.6604
 2512SOL     OW 9779   3.762   3.323   6.219  0.2864  0.4138  0.0503
 2512SOL    HW2 9780   3.789   3.239   6.183  0.8564  0.5706  0.0989
 2512SOL    HW3 9781   3.795   3.388   6.156 -0.2488  0.5981 -0.0474
 2512SOL    MW4 9782   3.770   3.320   6.206  0.2384  0.0786  0.1065
 2513SOL     OW 9783   2.161   2.396   1.083 -0.6776 -0.1750  0.2722
 2513SOL    HW2 9784   2.196   2.479   1.052 -0.6426 -0.6137 -0.9058
 2513SOL    HW3 9785   2.089   2.376   1.024 -1.1669 -0.6196  1.0050
 2513SOL    MW4 9786   2.156   2.404   1.071 -0.1195  0.0221  0.3091
 2514SOL     OW 9787   1.109   4.671   2.776 -0.6391 -0.0422 -0.0793
 2514SOL    HW2 9788   1.062   4.721   2.842  0.5581 -1.1959  1.7294
 2514SOL    HW3 9789   1.060   4.589   2.768 -0.4853 -0.1202 -0.2303
 2514SOL    MW4 9790   1.097   4.667   2.784 -0.4409  0.3454  0.1923
 2515SOL     OW 9791   4.893   0.819   4.319  0.3956 -0.4311  0.4149
 2515SOL    HW2 9792   4.829   0.863   4.374 -2.1225 -1.0510 -1.8209
 2515SOL    HW3 9793   4.941   0.889   4.276 -0.9453  0.1377 -0.2040
 2515SOL    MW4 9794   4.891   0.834   4.321 -0.3251  0.0865  0.2188
 2516SOL     OW 9795   2.185   0.789   5.235  0.1807  0.4965 -0.2126
 2516SOL    HW2 9796   2.188   0.884   5.247 -0.5012  0.4808  0.1227
 2516SOL    HW3 9797   2.273   0.766   5.206  0.3353  1.2383 -0.3538
 2516SOL    MW4 9798   2.197   0.798   5.233 -0.4136 -0.0562 -0.0367
 2517SOL     OW 9799   0.297   0.055   4.930 -0.5102  0.2883 -0.0668
 2517SOL    HW2 9800   0.375   0.072   4.877 -1.3744  0.1215 -1.4483
 2517SOL    HW3 9801   0.317  -0.025   4.978  0.9127  1.3092  1.1564
 2517SOL    MW4 9802   0.310   0.047   4.929 -0.2406  0.0134 -0.7346
 2518SOL     OW 9803   2.568   2.109   4.618 -0.5116  0.1498 -0.2258
 2518SOL    HW2 9804   2.524   2.185   4.580 -0.6284 -0.2926 -1.0126
 2518SOL    HW3 9805   2.498   2.060   4.661 -0.4437  0.4675  0.2425
 2518SOL    MW4 9806   2.553   2.112   4.618 -0.1467 -0.3287  0.1310
 2519SOL     OW 9807   3.398   0.166   1.146  0.1457 -0.8284 -0.2917
 2519SOL    HW2 9808   3.431   0.162   1.056  0.6595 -0.5319 -0.1196
 2519SOL    HW3 9809   3.348   0.085   1.157 -1.9803  0.1995 -1.6189
 2519SOL    MW4 9810   3.396   0.155   1.136  0.1266  0.0020 -0.4843
 2520SOL     OW 9811   5.260   4.076   1.332  0.2855 -0.6082 -0.2893
 2520SOL    HW2 9812   5.166   4.056   1.331 -0.0426  0.7212  0.6015
 2520SOL    HW3 9813   5.279   4.098   1.423  1.3150 -0.1998 -0.5890
 2520SOL    MW4 9814   5.250   4.076   1.344  0.7565  0.4392  0.0524
 2521SOL     OW 9815   3.555   2.786   1.217 -0.1053  0.4398 -0.3285
 2521SOL    HW2 9816   3.578   2.728   1.289  0.2475  0.3106 -0.5449
 2521SOL    HW3 9817   3.462   2.805   1.231  0.1450  1.0176  0.5781
 2521SOL    MW4 9818   3.546   2.781   1.228 -0.2145  0.3073 -0.1002
 2522SOL     OW 9819   3.874   2.291   0.604  0.3188 -0.5035 -0.0953
 2522SOL    HW2 9820   3.872   2.373   0.556 -2.8883  0.0405  0.7700
 2522SOL    HW3 9821   3.868   2.223   0.537 -2.2739  0.1922 -0.6601
 2522SOL    MW4 9822   3.873   2.292   0.589 -0.4314  0.4957 -0.4680
 2523SOL     OW 9823   2.749   3.403   0.574  0.1935  0.1495  0.1086
 2523SOL    HW2 9824   2.720   3.348   0.647  2.2618  1.8679  2.3951
 2523SOL    HW3 9825   2.691   3.479   0.576 -0.4007 -0.2716 -0.7365
 2523SOL    MW4 9826   2.737   3.406   0.584 -0.5453 -0.2654 -0.1464
 2524SOL     OW 9827   3.294   5.660   1.205  0.3599  0.1844  0.1433
 2524SOL    HW2 9828   3.228   5.694   1.146  1.2519  1.2799 -0.2467
 2524SOL    HW3 9829   3.323   5.736   1.256 -0.2386 -0.6805  1.8723
 2524SOL    MW4 9830   3.289   5.674   1.204 -0.0688  0.8061 -0.1231
 2525SOL     OW 9831   2.667   1.150   6.411 -0.0126 -0.6764  0.0262
 2525SOL    HW2 9832   2.744   1.169   6.466  1.0391 -2.6394 -0.6665
 2525SOL    HW3 9833   2.593   1.157   6.471  0.5504  1.9910  0.5683
 2525SOL    MW4 9834   2.668   1.153   6.427 -0.2072  0.5081 -0.3574
 2526SOL     OW 9835   3.154   0.335   0.082 -0.1427 -0.3284  0.7755
 2526SOL    HW2 9836   3.118   0.404   0.138 -0.3331  1.0159 -0.9180
 2526SOL    HW3 9837   3.249   0.347   0.087 -0.0510 -1.2469  1.9962
 2526SOL    MW4 9838   3.161   0.346   0.090 -0.4375 -0.3589 -0.5007
 2527SOL     OW 9839   2.120   3.583   5.714  0.3288 -0.1628  0.1260
 2527SOL    HW2 9840   2.061   3.507   5.721  0.8895 -0.6080  0.0663
 2527SOL    HW3 9841   2.107   3.631   5.796  0.9784 -1.0580  0.7642
 2527SOL    MW4 9842   2.110   3.579   5.726  0.0292 -0.1120 -0.5457
 2528SOL     OW 9843   3.969   3.166   4.193 -0.5019 -0.2280  0.1544
 2528SOL    HW2 9844   3.986   3.105   4.265 -0.5770 -2.6653 -1.7637
 2528SOL    HW3 9845   3.875   3.157   4.176 -0.4504  0.1900 -0.3823
 2528SOL    MW4 9846   3.959   3.157   4.200 -0.0051 -0.0502 -0.1190
 2529SOL     OW 9847   6.073   5.317   6.124 -0.0970  0.0282 -0.0894
 2529SOL    HW2 9848   6.031   5.366   6.054  0.0052  0.5349  0.1988
 2529SOL    HW3 9849   6.120   5.247   6.080  0.9546  1.0480 -0.6372
 2529SOL    MW4 9850   6.074   5.314   6.109 -0.2295 -0.2874 -0.2038
 2530SOL     OW 9851   1.367   3.953   6.332  0.4513 -0.5153  0.0070
 2530SOL    HW2 9852   1.418   3.873   6.345  2.3566  0.6145 -0.1311
 2530SOL    HW3 9853   1.420   4.022   6.373 -1.3584  0.6235  0.5354
 2530SOL    MW4 9854   1.381   3.952   6.339 -0.1350  0.5425  0.0815
 2531SOL     OW 9855   4.095   4.937   2.310 -0.2521 -0.0764 -0.4902
 2531SOL    HW2 9856   4.123   5.029   2.302 -1.3404  0.1465 -2.9114
 2531SOL    HW3 9857   4.165   4.887   2.268  0.0928 -0.3296  0.3630
 2531SOL    MW4 9858   4.108   4.943   2.303  0.4923  0.8597  0.3758
 2532SOL     OW 9859   2.722   1.793   5.472 -0.3146 -0.1528 -0.1729
 2532SOL    HW2 9860   2.807   1.756   5.498 -0.9283 -0.9376  0.8489
 2532SOL    HW3 9861   2.713   1.770   5.380  0.7156  0.2189 -0.3816
 2532SOL    MW4 9862   2.732   1.785   5.463 -0.3233 -0.2388  0.0803
 2533SOL     OW 9863   2.537   2.633   5.114 -0.5871  0.6209 -0.5007
 2533SOL    HW2 9864   2.471   2.696   5.084 -0.3851  1.8846  1.4848
 2533SOL    HW3 9865   2.615   2.656   5.065 -1.0017  0.7112 -1.1287
 2533SOL    MW4 9866   2.538   2.644   5.104  0.0241 -0.2193  0.1909
 2534SOL     OW 9867   0.708   5.725   5.670  0.3163 -0.5045  0.7000
 2534SOL    HW2 9868   0.772   5.670   5.624  0.9115  1.2513 -0.6646
 2534SOL    HW3 9869   0.741   5.729   5.760  1.6449 -0.3641  0.2311
 2534SOL    MW4 9870   0.721   5.718   5.676 -0.0816 -0.0252  0.3682
 2535SOL     OW 9871   4.819   0.779   5.702  0.7073  0.4984  0.0545
 2535SOL    HW2 9872   4.851   0.704   5.652  1.9750 -0.4526  2.1386
 2535SOL    HW3 9873   4.890   0.800   5.762 -0.8336  1.3170  1.6993
 2535SOL    MW4 9874   4.832   0.772   5.703  0.6400 -0.3649 -0.1549
 2536SOL     OW 9875   5.963   6.211   1.232 -0.2148 -0.3537 -0.4050
 2536SOL    HW2 9876   5.959   6.133   1.177 -0.3593 -0.4703 -0.2292
 2536SOL    HW3 9877   6.052   6.210   1.267 -0.9815 -1.9058  1.7136
 2536SOL    MW4 9878   5.974   6.200   1.229 -0.1868  0.0181  0.3876
 2537SOL     OW 9879   4.082   2.137   2.047 -0.1377 -0.1010  0.1305
 2537SOL    HW2 9880   4.138   2.129   2.124 -0.7344 -0.1336  0.5660
 2537SOL    HW3 9881   4.014   2.200   2.072 -0.0045  0.3262 -0.5693
 2537SOL    MW4 9882   4.080   2.144   2.060 -0.4938  0.0862 -0.8093
 2538SOL     OW 9883   5.512   6.430   2.154 -1.2697  0.3408  0.0164
 2538SOL    HW2 9884   5.494   6.377   2.077 -1.5956 -0.6354  0.7438
 2538SOL    HW3 9885   5.492   6.520   2.127 -0.5473  0.1356 -1.2835
 2538SOL    MW4 9886   5.507   6.435   2.141  0.2800  0.5044  0.2485
 2539SOL     OW 9887   0.849   6.351   2.893 -0.3022 -0.1862  0.4805
 2539SOL    HW2 9888   0.815   6.285   2.833 -0.5355  1.0945 -0.8561
 2539SOL    HW3 9889   0.897   6.302   2.959 -0.2440 -1.6633 -0.6262
 2539SOL    MW4 9890   0.851   6.336   2.894  0.1466 -0.1711 -0.1240
 2540SOL     OW 9891   0.435   5.659   6.106  0.1792  0.2123 -0.4003
 2540SOL    HW2 9892   0.394   5.642   6.190  1.0946 -1.2901 -0.2051
 2540SOL    HW3 9893   0.411   5.583   6.052  0.8582  0.4020 -0.9925
 2540SOL    MW4 9894   0.427   5.646   6.110  0.0933 -0.3453  0.1894
 2541SOL     OW 9895   3.333   4.526   6.006 -0.3976 -0.3461  0.6691
 2541SOL    HW2 9896   3.407   4.563   6.054 -1.2064  0.7592  1.1035
 2541SOL    HW3 9897   3.361   4.523   5.915 -0.3143  1.4051  0.6132
 2541SOL    MW4 9898   3.346   4.530   6.001  0.0619 -0.2311 -0.5085
 2542SOL     OW 9899   2.885   4.970   1.922 -0.3192 -0.5685  0.1666
 2542SOL    HW2 9900   2.959   4.932   1.875 -0.0574 -0.0202  0.1339
 2542SOL    HW3 9901   2.816   4.903   1.915  0.4841 -1.5075  1.0771
 2542SOL    MW4 9902   2.886   4.956   1.915 -0.0422  0.4456 -0.0674
 2543SOL     OW 9903   0.381   6.239   5.062  0.4980  0.6210  0.4172
 2543SOL    HW2 9904   0.430   6.172   5.014  0.7551  1.0983  0.0018
 2543SOL    HW3 9905   0.417   6.235   5.151 -0.2420 -0.5254  0.6934
 2543SOL    MW4 9906   0.392   6.229   5.067 -0.6414 -0.1038  0.1467
 2544SOL     OW 9907   6.218   0.448   6.318 -0.8356 -0.2559 -0.5152
 2544SOL    HW2 9908   6.249   0.504   6.388  0.4168 -0.4935 -0.8480
 2544SOL    HW3 9909   6.154   0.390   6.359 -0.1249 -0.3905  0.4330
 2544SOL    MW4 9910   6.214   0.447   6.332 -0.0958 -0.4597  0.3546
 2545SOL     OW 9911   0.706   3.894   5.694 -0.0082 -0.7439  1.1383
 2545SOL    HW2 9912   0.700   3.893   5.599  1.8164  0.5173  0.9730
 2545SOL    HW3 9913   0.695   3.987   5.718 -0.1663 -1.0088  2.1485
 2545SOL    MW4 9914   0.704   3.906   5.685  0.2196 -0.3057  0.1780
 2546SOL     OW 9915   2.682   0.251   6.341 -0.4615  0.3394 -0.3201
 2546SOL    HW2 9916   2.771   0.265   6.308 -0.0070  0.2662  0.8313
 2546SOL    HW3 9917   2.642   0.190   6.278  0.6561 -0.4568 -0.2909
 2546SOL    MW4 9918   2.689   0.245   6.328  0.0198 -0.1230 -0.6935
 2547SOL     OW 9919   3.880   2.056   4.725  0.2779 -0.1527  0.2787
 2547SOL    HW2 9920   3.898   1.966   4.698  0.1234 -0.1330  0.1096
 2547SOL    HW3 9921   3.921   2.063   4.811 -0.7983 -0.7800  0.8677
 2547SOL    MW4 9922   3.888   2.045   4.733  0.2093 -0.1243  0.1705
 2548SOL     OW 9923   3.436   4.020   5.966 -0.3516  0.2193 -0.5132
 2548SOL    HW2 9924   3.499   3.971   5.914  0.5291  0.6545  0.1230
 2548SOL    HW3 9925   3.414   3.962   6.039 -0.5476  0.1445 -0.6297
 2548SOL    MW4 9926   3.441   4.006   5.968 -0.2122 -0.0038 -0.0447
 2549SOL     OW 9927   1.505   3.915   0.485 -0.4102 -0.4537  0.2606
 2549SOL    HW2 9928   1.594   3.933   0.454 -0.9908  0.3732 -1.0217
 2549SOL    HW3 9929   1.497   3.967   0.565 -0.8580  2.4768 -1.5050
 2549SOL    MW4 9930   1.515   3.924   0.491 -0.4420 -0.0940  0.0260
 2550SOL     OW 9931   3.104   2.820   2.600 -0.7411  0.6820 -0.4305
 2550SOL    HW2 9932   3.025   2.825   2.653 -0.8262 -0.9518 -0.3591
 2550SOL    HW3 9933   3.102   2.899   2.546 -2.7977  0.3298 -0.9507
 2550SOL    MW4 9934   3.093   2.831   2.600  0.4522 -0.5085 -0.0697
 2551SOL     OW 9935   5.523   4.850   2.824 -0.2668  0.0157  0.0550
 2551SOL    HW2 9936   5.437   4.848   2.782  0.2875 -1.4679 -1.1256
 2551SOL    HW3 9937   5.545   4.758   2.838  0.7903  0.3919  1.0648
 2551SOL    MW4 9938   5.515   4.837   2.820  0.3563  1.1643 -0.0154
 2552SOL     OW 9939   6.406   4.179   6.412 -0.2940 -0.1417  0.4081
 2552SOL    HW2 9940   6.378   4.139   6.330 -0.1331  0.9012 -0.1647
 2552SOL    HW3 9941   6.339   4.152   6.475 -0.9490 -0.1573 -0.2787
 2552SOL    MW4 9942   6.394   4.170   6.410  0.5375 -0.3100  0.1381
 2553SOL     OW 9943   1.970   0.082   0.894 -0.6085 -0.1034 -0.4778
 2553SOL    HW2 9944   2.050   0.029   0.886 -1.5988 -1.9263  0.9704
 2553SOL    HW3 9945   2.001   0.173   0.893  1.6156 -0.7660  1.0673
 2553SOL    MW4 9946   1.985   0.087   0.893  0.1448 -0.2945  0.5608
 2554SOL     OW 9947   1.334   5.268   2.625  0.3812  0.4029  0.1358
 2554SOL    HW2 9948   1.342   5.191   2.568 -0.1267 -0.3545  1.0616
 2554SOL    HW3 9949   1.327   5.342   2.564 -0.3995 -0.4048 -0.7999
 2554SOL    MW4 9950   1.334   5.268   2.609  0.2103  0.0732  0.2623
 2555SOL     OW 9951   5.785   2.754   4.871  0.2664 -0.2914  0.5257
 2555SOL    HW2 9952   5.739   2.686   4.921  0.1519 -0.6251 -0.0213
 2555SOL    HW3 9953   5.793   2.827   4.932 -0.5093 -0.4284  0.8039
 2555SOL    MW4 9954   5.780   2.755   4.886 -0.6764 -0.2266  0.0875
 2556SOL     OW 9955   5.899   3.248   3.130  0.3811 -0.1685 -0.5635
 2556SOL    HW2 9956   5.911   3.170   3.185 -0.0208  0.2161  0.0768
 2556SOL    HW3 9957   5.934   3.320   3.183  2.3507 -0.1056 -1.8073
 2556SOL    MW4 9958   5.905   3.247   3.144  0.1870  0.1973 -0.1179
 2557SOL     OW 9959   4.304   3.826   4.926 -0.2078 -0.4381 -0.2203
 2557SOL    HW2 9960   4.233   3.833   4.991  0.7152 -2.1155  1.0399
 2557SOL    HW3 9961   4.267   3.773   4.856 -0.0794 -1.8047  0.6982
 2557SOL    MW4 9962   4.290   3.820   4.926  0.4939  0.8088  0.0383
 2558SOL     OW 9963   4.141   4.213   2.195 -0.1598  0.0175 -0.5892
 2558SOL    HW2 9964   4.073   4.278   2.179  0.5042  0.7200 -0.6385
 2558SOL    HW3 9965   4.145   4.162   2.114 -2.4316 -1.7944  0.3290
 2558SOL    MW4 9966   4.133   4.215   2.182 -0.1923 -0.0096 -0.0420
 2559SOL     OW 9967   0.696   0.349   6.292  0.3153 -0.4022  0.1029
 2559SOL    HW2 9968   0.629   0.406   6.329  0.9886 -0.6054  1.7007
 2559SOL    HW3 9969   0.779   0.394   6.311  0.6749 -0.0322 -2.0552
 2559SOL    MW4 9970   0.699   0.363   6.299  0.1098  0.3157  1.0318
 2560SOL     OW 9971   5.525   1.363   2.900 -0.2282  0.1831  0.2049
 2560SOL    HW2 9972   5.527   1.279   2.946  0.2675 -0.2802 -0.6395
 2560SOL    HW3 9973   5.614   1.374   2.866 -0.1980  1.2030  0.5467
 2560SOL    MW4 9974   5.537   1.354   2.902  0.0508 -0.6181  0.5374
 2561SOL     OW 9975   6.290   1.403   4.557 -0.0312  0.2310  0.0218
 2561SOL    HW2 9976   6.212   1.408   4.613  0.9428  0.4077  1.4212
 2561SOL    HW3 9977   6.255   1.394   4.468 -1.6450 -0.9552  0.7197
 2561SOL    MW4 9978   6.275   1.402   4.553 -0.8032  0.2519  0.0822
 2562SOL     OW 9979   5.000   1.263   3.023  0.3035 -0.6982 -0.2493
 2562SOL    HW2 9980   4.992   1.357   3.008  1.4404 -0.7251 -1.0705
 2562SOL    HW3 9981   4.926   1.225   2.976 -0.5067 -0.2021  0.5629
 2562SOL    MW4 9982   4.989   1.270   3.015  0.5573  0.3571 -0.1375
 2563SOL     OW 9983   3.633   5.070   0.689  0.0775  0.7591  0.4623
 2563SOL    HW2 9984   3.610   5.066   0.596  1.8347  1.2954 -0.0486
 2563SOL    HW3 9985   3.663   4.982   0.710  1.3319  1.0406 -0.0004
 2563SOL    MW4 9986   3.634   5.058   0.679 -0.3322 -0.1375  0.0562
 2564SOL     OW 9987   0.738   4.565   5.182  0.0799 -0.0529 -0.3366
 2564SOL    HW2 9988   0.696   4.546   5.266  0.1598  1.6347  0.1243
 2564SOL    HW3 9989   0.729   4.484   5.132 -1.2313 -0.6404  0.7702
 2564SOL    MW4 9990   0.731   4.552   5.186  0.1756  0.0434 -0.2107
 2565SOL     OW 9991   2.564   4.206   6.104  0.1740  0.3346 -0.4951
 2565SOL    HW2 9992   2.552   4.299   6.082  1.6683  0.4440 -0.9642
 2565SOL    HW3 9993   2.638   4.205   6.165 -0.6420 -0.4567  0.5118
 2565SOL    MW4 9994   2.572   4.218   6.109 -0.6233  0.7367  0.1396
 2566SOL     OW 9995   5.156   2.908   1.175  0.0170 -0.0703  0.4548
 2566SOL    HW2 9996   5.105   2.849   1.231  0.3821 -0.2799  0.5674
 2566SOL    HW3 9997   5.226   2.854   1.140 -0.3785 -0.0107 -0.4438
 2566SOL    MW4 9998   5.158   2.893   1.178  0.1438 -0.6483  0.1809
 2567SOL     OW 9999   1.873   2.705   2.589  0.1081  0.0205 -0.3007
 2567SOL    HW210000   1.917   2.668   2.512  1.0663  0.0865  0.2044
 2567SOL    HW310001   1.929   2.778   2.615 -1.2886  1.3004 -0.7485
 2567SOL    MW410002   1.886   2.710   2.582  0.0116 -0.1287  0.3369
 2568SOL     OW10003   0.344   3.017   2.938 -0.0372  0.3682 -0.2366
 2568SOL    HW210004   0.383   3.105   2.929  0.5763  0.1234 -0.0650
 2568SOL    HW310005   0.403   2.972   2.997 -1.0813  0.2560  0.7448
 2568SOL    MW410006   0.357   3.023   2.944  0.4461 -0.4328 -0.4976
 2569SOL     OW10007   2.495   4.455   0.767 -0.4310  0.0011 -0.3365
 2569SOL    HW210008   2.567   4.420   0.820 -0.7397 -0.0132  0.0802
 2569SOL    HW310009   2.471   4.383   0.708 -1.3275 -0.6631  0.7821
 2569SOL    MW410010   2.501   4.441   0.767 -0.1428 -0.0617 -0.0917
 2570SOL     OW10011   3.424   6.102   5.067 -0.3302 -0.3927  0.2292
 2570SOL    HW210012   3.395   6.192   5.053 -2.6930 -1.0263  0.5411
 2570SOL    HW310013   3.489   6.108   5.136 -0.3705  1.0792  0.1715
 2570SOL    MW410014   3.429   6.115   5.074 -0.4125  0.0640 -0.2834
 2571SOL     OW10015   0.833   3.039   2.047 -0.3234 -0.1230 -0.2125
 2571SOL    HW210016   0.896   3.005   1.984 -0.6505 -1.2698  0.0515
 2571SOL    HW310017   0.886   3.089   2.110 -0.0691  1.5642 -1.6998
 2571SOL    MW410018   0.848   3.041   2.047 -0.6266 -0.2356  0.3877
 2572SOL     OW10019   3.190   6.428   5.129 -0.0445  0.1097  0.5355
 2572SOL    HW210020   3.240   6.449   5.049  1.1481  0.4253  1.3351
 2572SOL    HW310021   3.162   6.338   5.116  0.6117 -0.0254 -0.0237
 2572SOL    MW410022   3.193   6.419   5.116 -0.0912  0.2015 -0.0204
 2573SOL     OW10023   5.931   3.945   6.279  0.3045  0.0963 -0.0584
 2573SOL    HW210024   5.965   4.029   6.310 -0.9091  0.7153 -0.3558
 2573SOL    HW310025   5.836   3.955   6.280  0.1699 -0.4120 -2.4456
 2573SOL    MW410026   5.923   3.957   6.284 -0.3295 -0.6809  0.3225
 2574SOL     OW10027   1.317   6.093   2.278  0.0704 -0.0289 -0.3002
 2574SOL    HW210028   1.362   6.164   2.323 -1.9853  1.1840 -0.0356
 2574SOL    HW310029   1.386   6.031   2.255  1.7096  1.2966  0.8592
 2574SOL    MW410030   1.332   6.094   2.281  0.0458  0.1870 -0.4632
 2575SOL     OW10031   3.839   1.589   4.183  0.1113 -0.2864 -0.3687
 2575SOL    HW210032   3.768   1.542   4.139  0.7777 -1.0123 -0.7064
 2575SOL    HW310033   3.906   1.522   4.197  1.3839  0.6819 -1.5112
 2575SOL    MW410034   3.838   1.574   4.179  0.2263  0.4339 -0.1672
 2576SOL     OW10035   3.968   2.422   1.441  0.2202 -0.2888  0.0190
 2576SOL    HW210036   4.037   2.440   1.377 -1.1133  1.2240 -1.0621
 2576SOL    HW310037   3.910   2.360   1.398 -0.6040  0.6213 -0.2186
 2576SOL    MW410038   3.970   2.416   1.427 -0.4024 -0.3741 -0.3161
 2577SOL     OW10039   3.506   5.916   5.497  0.0095  0.1314  0.0916
 2577SOL    HW210040   3.517   5.898   5.590 -0.4862 -0.5032  0.0295
 2577SOL    HW310041   3.586   5.882   5.457 -0.1578 -0.3763  0.1839
 2577SOL    MW410042   3.518   5.909   5.504 -0.3231  0.3457  0.1670
 2578SOL     OW10043   3.262   4.244   6.006  0.4524  0.2156  0.7669
 2578SOL    HW210044   3.325   4.175   5.986 -1.4703 -0.9999 -1.8120
 2578SOL    HW310045   3.311   4.325   5.993  2.1488 -0.6465  1.4814
 2578SOL    MW410046   3.277   4.245   6.002  0.9315 -0.4320 -0.6585
 2579SOL     OW10047   3.417   4.520   5.741  0.3411 -0.4280 -0.4314
 2579SOL    HW210048   3.487   4.463   5.773 -1.1253 -2.4864 -0.7317
 2579SOL    HW310049   3.380   4.473   5.666 -1.3569  0.5932 -0.2797
 2579SOL    MW410050   3.421   4.506   5.736 -0.3916  0.3950 -0.6860
 2580SOL     OW10051   1.174   1.761   2.433 -0.0468 -0.7096  0.7014
 2580SOL    HW210052   1.125   1.833   2.395 -0.2877 -0.9467  0.5597
 2580SOL    HW310053   1.114   1.686   2.431  0.7406 -1.3563 -0.6996
 2580SOL    MW410054   1.160   1.760   2.427  0.1869 -0.2007 -0.4468
 2581SOL     OW10055   3.410   2.227   3.411  0.0046 -0.7525  0.0684
 2581SOL    HW210056   3.425   2.258   3.321 -1.1828 -1.1938 -0.2984
 2581SOL    HW310057   3.383   2.136   3.400 -2.8923 -0.0456  0.6290
 2581SOL    MW410058   3.409   2.219   3.397  0.6758  0.1718 -0.0913
 2582SOL     OW10059   5.862   2.086   6.349  0.1982  0.2008 -0.2881
 2582SOL    HW210060   5.912   2.027   6.294  0.7272  0.0286  0.3664
 2582SOL    HW310061   5.924   2.154   6.376 -0.4474  1.1707 -1.1813
 2582SOL    MW410062   5.876   2.087   6.346 -0.0552  0.3135  0.3624
 2583SOL     OW10063   5.954   5.280   3.966  0.4629 -0.2396  0.2430
 2583SOL    HW210064   5.972   5.294   3.873  2.5694 -0.6481  0.5434
 2583SOL    HW310065   5.899   5.355   3.990  2.4171  1.6018 -0.6607
 2583SOL    MW410066   5.949   5.292   3.957 -0.4251  0.0690  0.5675
 2584SOL     OW10067   4.491   0.393   6.190 -0.7952 -0.5050  0.5290
 2584SOL    HW210068   4.459   0.329   6.126  1.2259 -1.0602  0.0105
 2584SOL    HW310069   4.510   0.342   6.268  1.8139 -0.8174 -0.2180
 2584SOL    MW410070   4.489   0.378   6.192 -0.3132 -0.0407 -0.4622
 2585SOL     OW10071   5.235   5.597   3.291  0.3611 -0.5826  0.1686
 2585SOL    HW210072   5.141   5.613   3.289  0.3049 -0.6209  1.6263
 2585SOL    HW310073   5.262   5.605   3.200 -1.2818 -1.9675 -0.4919
 2585SOL    MW410074   5.226   5.600   3.279 -0.3016  0.2077 -0.4737
 2586SOL     OW10075   1.508   5.234   3.195  0.2723 -0.9994 -0.0271
 2586SOL    HW210076   1.521   5.229   3.100 -0.5960  1.6027 -0.3707
 2586SOL    HW310077   1.414   5.220   3.207  0.5928 -2.7844  0.6452
 2586SOL    MW410078   1.497   5.232   3.184  0.2484  0.1496  0.0617
 2587SOL     OW10079   1.073   3.775   5.649  0.5109 -0.1931 -0.0637
 2587SOL    HW210080   1.032   3.814   5.726  0.7605 -2.2226  1.1855
 2587SOL    HW310081   1.008   3.713   5.616  1.5100 -1.5087  0.3468
 2587SOL    MW410082   1.059   3.772   5.655 -0.2978 -0.0278  0.0756
 2588SOL     OW10083   1.059   4.072   0.770 -0.4772  0.4592 -0.4768
 2588SOL    HW210084   1.018   4.015   0.835 -0.2253 -0.6773 -1.2838
 2588SOL    HW310085   0.997   4.145   0.760  0.1697  1.4646  2.0957
 2588SOL    MW410086   1.045   4.074   0.777 -0.3444 -0.1646 -0.1660
 2589SOL     OW10087   3.993   5.796   5.352 -0.3072  0.2567 -0.4144
 2589SOL    HW210088   4.071   5.778   5.300  0.3021  1.3647  0.0665
 2589SOL    HW310089   4.027   5.836   5.432 -1.3892  1.1047 -0.3565
 2589SOL    MW410090   4.008   5.799   5.356  0.1578 -0.1854  0.1010
 2590SOL     OW10091   0.038   4.514   3.065 -0.3028 -0.5049  0.4331
 2590SOL    HW210092   0.009   4.604   3.051  0.7141 -0.1112  0.7222
 2590SOL    HW310093   0.003   4.465   2.990  0.3397  0.4258 -0.5066
 2590SOL    MW410094   0.030   4.519   3.053  0.4393  0.0735  0.7713
 2591SOL     OW10095   1.889   6.297   2.343  0.5209 -0.4800 -0.2812
 2591SOL    HW210096   1.936   6.351   2.407  0.9728 -0.3573 -0.7168
 2591SOL    HW310097   1.801   6.286   2.381 -0.0965  1.8340 -0.8893
 2591SOL    MW410098   1.883   6.303   2.357  0.2217  0.0092 -0.0135
 2592SOL     OW10099   4.005   5.821   1.404  0.2113  0.5044 -0.3651
 2592SOL    HW210100   3.960   5.894   1.363 -2.7564 -0.7728  0.3311
 2592SOL    HW310101   4.011   5.755   1.335 -0.5146  0.0635 -0.0128
 2592SOL    MW410102   4.000   5.822   1.390  0.2463 -0.2321 -0.2020
 2593SOL     OW10103   5.858   0.947   1.217  0.4617  0.3169 -0.5271
 2593SOL    HW210104   5.896   0.895   1.288  4.1760  1.6908 -1.2883
 2593SOL    HW310105   5.809   1.016   1.262 -1.5684 -1.6418  0.5047
 2593SOL    MW410106   5.856   0.949   1.232 -0.5499  0.5572 -0.5684
 2594SOL     OW10107   3.261   1.972   3.403 -0.1258 -0.0444 -0.0767
 2594SOL    HW210108   3.174   1.982   3.365  0.8167  1.2866 -2.0468
 2594SOL    HW310109   3.297   1.894   3.360  0.1263  0.1616 -0.2409
 2594SOL    MW410110   3.255   1.963   3.392 -0.0648  0.1917  0.3690
 2595SOL     OW10111   2.318   1.915   3.629 -0.1747 -0.1614 -0.0969
 2595SOL    HW210112   2.316   1.908   3.534 -0.0646  1.2953 -0.2248
 2595SOL    HW310113   2.411   1.908   3.652 -0.2935 -1.7312  0.0407
 2595SOL    MW410114   2.330   1.913   3.620 -0.1331  0.2602  0.6460
 2596SOL     OW10115   0.760   6.233   4.380 -0.1213 -0.6815 -0.0202
 2596SOL    HW210116   0.776   6.139   4.383  0.3983 -0.5800  1.0384
 2596SOL    HW310117   0.774   6.257   4.289 -1.0453 -1.7549 -0.4665
 2596SOL    MW410118   0.764   6.224   4.369 -1.0082 -0.1488 -0.3448
 2597SOL     OW10119   4.139   1.801   5.023 -0.0485  0.2462  0.3705
 2597SOL    HW210120   4.153   1.727   5.082 -2.4092  0.0293  0.7707
 2597SOL    HW310121   4.227   1.828   4.995  0.9072 -2.2011  0.8151
 2597SOL    MW410122   4.152   1.795   5.027  0.5307 -0.0485  0.4207
 2598SOL     OW10123   0.693   2.201   2.462  0.3764 -0.1636 -0.0145
 2598SOL    HW210124   0.631   2.221   2.533 -1.6470  0.9295 -1.9527
 2598SOL    HW310125   0.749   2.279   2.457  0.3181 -0.1072  0.1883
 2598SOL    MW410126   0.692   2.214   2.471 -0.0518  0.2823  0.7122
 2599SOL     OW10127   3.619   4.388   4.691  0.4061 -0.2706 -0.2767
 2599SOL    HW210128   3.599   4.342   4.609  1.7552 -0.8888 -0.2702
 2599SOL    HW310129   3.713   4.406   4.687  0.3044  0.5813  0.6984
 2599SOL    MW410130   3.628   4.385   4.680  0.2260 -0.0297  0.9239
 2600SOL     OW10131   0.305   3.440   0.466  0.1150 -0.0775 -0.0158
 2600SOL    HW210132   0.238   3.373   0.481 -1.9605  1.5126 -1.5039
 2600SOL    HW310133   0.290   3.504   0.536  1.0201 -0.3423  0.4403
 2600SOL    MW410134   0.294   3.439   0.477  0.0034 -0.7289 -0.3388
 2601SOL     OW10135   6.365   1.250   4.088 -0.2986 -0.1874 -0.1434
 2601SOL    HW210136   6.440   1.211   4.133 -1.5711 -0.2567  2.0109
 2601SOL    HW310137   6.303   1.271   4.157 -1.4666  1.7238 -1.6688
 2601SOL    MW410138   6.367   1.248   4.103  0.3748  0.7225  0.6819
 2602SOL     OW10139   0.803   5.502   3.486  0.3442  0.2277  0.3172
 2602SOL    HW210140   0.869   5.559   3.526  0.5298 -0.8882  1.7009
 2602SOL    HW310141   0.737   5.490   3.554 -0.1417 -0.4696 -0.2562
 2602SOL    MW410142   0.803   5.508   3.500  0.3081 -0.8455  0.1499
 2603SOL     OW10143   4.850   3.085   1.401  0.9767 -0.1114 -0.1948
 2603SOL    HW210144   4.824   3.042   1.483 -1.5646  0.3781 -0.6537
 2603SOL    HW310145   4.873   3.012   1.343 -1.7953 -0.8653 -0.4807
 2603SOL    MW410146   4.850   3.069   1.404  0.7018 -0.5564 -0.0215
 2604SOL     OW10147   5.490   3.457   0.994 -0.7652 -0.2797 -0.4541
 2604SOL    HW210148   5.408   3.423   0.958 -1.4665  0.1928  0.6476
 2604SOL    HW310149   5.473   3.550   1.009  0.2833  0.0190 -1.0647
 2604SOL    MW410150   5.477   3.465   0.992 -0.3362 -0.4374  0.5584
 2605SOL     OW10151   0.677   5.438   0.219  0.2223  0.2766 -0.2555
 2605SOL    HW210152   0.765   5.434   0.183  0.3966 -1.7184  0.2680
 2605SOL    HW310153   0.620   5.416   0.145  0.2566  0.2889 -0.2855
 2605SOL    MW410154   0.681   5.435   0.205 -0.4081 -0.8354 -0.0161
 2606SOL     OW10155   5.299   3.778   2.896 -1.0319 -0.3343 -0.6100
 2606SOL    HW210156   5.348   3.824   2.963 -1.9426  2.7702 -1.9223
 2606SOL    HW310157   5.308   3.685   2.919 -0.5018  0.5023  3.1703
 2606SOL    MW410158   5.306   3.772   2.907 -0.1695  0.5666 -0.1679
 2607SOL     OW10159   5.909   2.852   2.964 -0.0940  0.4975  0.3403
 2607SOL    HW210160   5.817   2.877   2.969 -0.0769  0.5742  0.2673
 2607SOL    HW310161   5.915   2.773   3.018 -0.3940 -0.0421 -0.3925
 2607SOL    MW410162   5.898   2.845   2.972  0.1294  0.7133  0.2456
 2608SOL     OW10163   0.164   1.333   4.270 -0.5476  0.4421  0.2681
 2608SOL    HW210164   0.117   1.402   4.222 -3.6024 -0.7707  1.2985
 2608SOL    HW310165   0.124   1.332   4.356  1.0810 -1.0877  1.0778
 2608SOL    MW410166   0.153   1.342   4.275 -0.4242 -0.1196 -0.5468
 2609SOL     OW10167   0.293   5.946   2.131 -0.1688 -0.1022  0.7194
 2609SOL    HW210168   0.330   5.963   2.218  1.1005  1.5594 -0.0866
 2609SOL    HW310169   0.328   5.861   2.106 -0.9978 -0.8566  2.0371
 2609SOL    MW410170   0.303   5.937   2.139  0.3556  0.4272 -0.6580
 2610SOL     OW10171   3.054   3.082   2.478 -0.2440  0.4343 -0.6271
 2610SOL    HW210172   3.064   3.177   2.485 -1.9351  0.6348 -0.6836
 2610SOL    HW310173   3.046   3.066   2.384  1.0156  0.0920 -0.7043
 2610SOL    MW410174   3.054   3.092   2.466  0.2207 -0.2405 -0.5461
 2611SOL     OW10175   2.572   4.016   2.718 -0.1865 -0.1368  0.1194
 2611SOL    HW210176   2.560   3.927   2.684 -2.0352 -0.5244  1.5946
 2611SOL    HW310177   2.620   4.004   2.799 -1.6839 -0.0115  1.0744
 2611SOL    MW410178   2.577   4.003   2.724 -0.1515 -0.0183 -0.5037
 2612SOL     OW10179   6.352   2.103   6.257  0.0326 -0.2103  0.0623
 2612SOL    HW210180   6.380   2.113   6.167  0.1534  1.3988  0.2468
 2612SOL    HW310181   6.271   2.153   6.263  0.2410  0.0490  0.9343
 2612SOL    MW410182   6.345   2.111   6.246  0.5008 -0.2629  0.0454
 2613SOL     OW10183   1.015   3.993   3.357  0.3733  0.0416 -0.5132
 2613SOL    HW210184   0.927   3.965   3.381 -0.6192  1.6209 -2.0230
 2613SOL    HW310185   1.039   3.937   3.284  0.4735 -0.1710 -0.3158
 2613SOL    MW410186   1.007   3.982   3.351 -0.9236 -0.3879 -0.5347
 2614SOL     OW10187   3.217   0.261   5.236  1.2364 -0.4105 -0.2478
 2614SOL    HW210188   3.174   0.273   5.320  0.3700 -0.7628 -0.6252
 2614SOL    HW310189   3.205   0.168   5.216  4.3553 -1.1421  0.7748
 2614SOL    MW410190   3.209   0.250   5.244  0.0353 -0.6942  0.0430
 2615SOL     OW10191   5.572   2.834   3.689  0.0511  0.3345 -0.2981
 2615SOL    HW210192   5.600   2.925   3.686  0.7627  0.1228 -0.1140
 2615SOL    HW310193   5.628   2.793   3.755  0.4033 -0.4603 -1.0736
 2615SOL    MW410194   5.583   2.840   3.697 -0.4619  0.0177 -0.2742
 2616SOL     OW10195   3.121   3.891   6.018 -0.6564  0.0702 -0.0072
 2616SOL    HW210196   3.144   3.837   6.094 -0.4151  1.5149  0.9900
 2616SOL    HW310197   3.051   3.948   6.050 -0.4794  0.7670 -0.8416
 2616SOL    MW410198   3.115   3.891   6.032 -0.2513  0.1716  0.4822
 2617SOL     OW10199   0.105   5.539   4.471  0.1574  0.8241 -0.3563
 2617SOL    HW210200   0.191   5.575   4.449 -0.0945  1.2597 -0.6362
 2617SOL    HW310201   0.043   5.601   4.434 -0.2979 -0.3805 -1.6713
 2617SOL    MW410202   0.108   5.552   4.463 -0.3469 -0.1607  0.0913
 2618SOL     OW10203   6.053   3.857   2.927  0.7169  0.0686 -0.5196
 2618SOL    HW210204   6.076   3.820   3.012 -0.1734  0.0431 -0.2842
 2618SOL    HW310205   6.137   3.871   2.883  1.2508  1.1132  0.7816
 2618SOL    MW410206   6.067   3.854   2.932 -0.9202  0.3389 -0.7052
 2619SOL     OW10207   1.349   1.542   2.332  0.0826 -0.6328  0.2153
 2619SOL    HW210208   1.355   1.602   2.257  0.5812 -0.7706  0.1427
 2619SOL    HW310209   1.430   1.491   2.329  1.4539  1.2070  2.4153
 2619SOL    MW410210   1.361   1.543   2.321 -0.7354  0.4262  0.4741
 2620SOL     OW10211   3.260   0.730   0.375 -0.2857 -0.8315  0.0958
 2620SOL    HW210212   3.245   0.678   0.296 -1.2692  0.7935 -0.8649
 2620SOL    HW310213   3.243   0.820   0.347 -0.1360 -0.1512  2.0524
 2620SOL    MW410214   3.256   0.735   0.361 -0.8390 -0.3816  0.4707
 2621SOL     OW10215   5.190   5.539   1.366 -0.1558 -0.1171  0.0862
 2621SOL    HW210216   5.142   5.469   1.322 -0.4496  0.1942 -0.0948
 2621SOL    HW310217   5.192   5.512   1.458 -1.3413  0.2333  0.2210
 2621SOL    MW410218   5.184   5.526   1.373  1.0069  0.5164 -0.0655
 2622SOL     OW10219   1.312   5.974   3.247  0.3762 -0.3403 -0.0588
 2622SOL    HW210220   1.316   6.049   3.187  1.1404 -1.1857 -1.0949
 2622SOL    HW310221   1.386   5.987   3.306 -0.9452  1.0170  1.3975
 2622SOL    MW410222   1.322   5.986   3.247  0.3423 -0.7481 -0.0188
 2623SOL     OW10223   1.928   1.321   3.450  0.5182  0.0727  0.3465
 2623SOL    HW210224   1.929   1.231   3.415  0.2305 -1.2393  3.3850
 2623SOL    HW310225   1.838   1.333   3.481  0.4121  1.6571 -0.4888
 2623SOL    MW410226   1.916   1.311   3.449 -0.1419  0.1181  0.6116
 2624SOL     OW10227   2.953   4.280   3.543 -0.0681  0.0309 -0.0462
 2624SOL    HW210228   2.873   4.328   3.565  1.2062  1.5937  1.4676
 2624SOL    HW310229   2.968   4.301   3.450 -2.3860 -1.8811 -0.9499
 2624SOL    MW410230   2.944   4.289   3.534  0.3119  0.2271  0.2320
 2625SOL     OW10231   2.091   1.684   0.522  0.2940  0.3088  0.1493
 2625SOL    HW210232   2.185   1.667   0.525  0.2245 -0.0982  0.0541
 2625SOL    HW310233   2.084   1.771   0.483  0.5651 -0.3992 -1.5605
 2625SOL    MW410234   2.103   1.693   0.517 -0.1510 -0.3790 -0.3266
 2626SOL     OW10235   5.451   6.287   1.252  0.1728 -0.6095  0.2278
 2626SOL    HW210236   5.502   6.266   1.330  0.8303  0.3406  0.0767
 2626SOL    HW310237   5.516   6.296   1.183 -0.1550  0.8040  0.0650
 2626SOL    MW410238   5.466   6.286   1.253 -0.1917 -0.1563 -0.8277
 2627SOL     OW10239   2.202   2.655   0.706 -0.0228  0.4957  0.0299
 2627SOL    HW210240   2.128   2.690   0.655 -1.5048 -1.0315  1.0174
 2627SOL    HW310241   2.188   2.560   0.706  0.3361  0.3750  2.5936
 2627SOL    MW410242   2.190   2.647   0.699  0.1855 -0.2600 -0.2087
 2628SOL     OW10243   6.393   4.829   0.506  0.4172  0.4779 -0.3646
 2628SOL    HW210244   6.415   4.739   0.529 -1.0338  0.3712  0.7795
 2628SOL    HW310245   6.437   4.883   0.571  0.9690  0.5816 -0.8162
 2628SOL    MW410246   6.402   4.824   0.518  0.2679 -0.3760 -0.0149
 2629SOL     OW10247   5.416   2.809   5.545  0.3856  0.1792 -0.1684
 2629SOL    HW210248   5.454   2.725   5.572 -2.0813 -0.6096  1.0994
 2629SOL    HW310249   5.460   2.873   5.600  0.2019 -0.6629  1.0138
 2629SOL    MW410250   5.427   2.806   5.556 -0.2517 -0.1388 -0.8401
 2630SOL     OW10251   1.031   2.363   5.824 -0.4017  0.2616  0.2294
 2630SOL    HW210252   1.034   2.303   5.750 -0.6876  0.2981  0.1844
 2630SOL    HW310253   1.050   2.309   5.900  3.1436  0.7772 -0.1393
 2630SOL    MW410254   1.034   2.348   5.824  0.1039 -0.0064 -0.0024
 2631SOL     OW10255   4.547   3.447   6.420  0.3254  0.1568  0.2208
 2631SOL    HW210256   4.595   3.530   6.430 -1.3059  1.1097  0.3949
 2631SOL    HW310257   4.581   3.410   6.338  0.0311  1.7274 -0.6390
 2631SOL    MW410258   4.558   3.453   6.410 -0.0635 -0.4412 -0.3244
 2632SOL     OW10259   4.990   2.577   3.731  0.9297 -0.3454 -0.4342
 2632SOL    HW210260   5.045   2.646   3.767  0.0546 -0.2088  0.6902
 2632SOL    HW310261   4.903   2.617   3.724  0.0891 -1.6829  1.5162
 2632SOL    MW410262   4.985   2.591   3.735 -0.2425 -0.2120 -0.1247
 2633SOL     OW10263   1.404   2.775   4.112 -0.4119 -0.3933 -0.5233
 2633SOL    HW210264   1.488   2.753   4.152  0.0539  0.6193 -0.9239
 2633SOL    HW310265   1.363   2.836   4.174 -0.6099 -0.4413 -0.6047
 2633SOL    MW410266   1.409   2.780   4.126 -0.3781  0.0978  0.3566
 2634SOL     OW10267   2.027   1.423   5.773  0.4909 -0.2036 -0.1365
 2634SOL    HW210268   1.969   1.449   5.702  1.2858  0.2216 -0.6400
 2634SOL    HW310269   2.028   1.497   5.833  2.0111  0.6003 -1.0981
 2634SOL    MW410270   2.020   1.436   5.772 -0.0697  0.7259 -0.3739
 2635SOL     OW10271   2.441   4.074   1.410  0.1585  0.2866  0.0456
 2635SOL    HW210272   2.442   4.067   1.314 -1.9742 -0.8797  0.0581
 2635SOL    HW310273   2.526   4.112   1.431  1.3408 -0.8795 -2.1954
 2635SOL    MW410274   2.452   4.078   1.400  0.5313  0.6009 -0.2573
 2636SOL     OW10275   4.586   4.594   1.927  0.2975  0.1571 -0.0084
 2636SOL    HW210276   4.573   4.685   1.900  0.9228 -0.0617 -1.0744
 2636SOL    HW310277   4.536   4.543   1.864  1.2639 -0.3289 -0.3962
 2636SOL    MW410278   4.577   4.599   1.915  0.4070 -0.0439 -0.0601
 2637SOL     OW10279   4.970   6.157   5.982  0.6365 -0.1650 -0.0579
 2637SOL    HW210280   4.919   6.221   5.932 -0.6812 -0.9565  0.2192
 2637SOL    HW310281   5.039   6.129   5.922 -1.1219 -1.3646 -1.6114
 2637SOL    MW410282   4.972   6.162   5.968 -0.0887  0.0951 -0.4367
 2638SOL     OW10283   0.276   1.251   4.030  0.3655  0.5941  0.1472
 2638SOL    HW210284   0.247   1.283   4.115  0.2705 -0.1849  0.4176
 2638SOL    HW310285   0.354   1.303   4.010  1.5645 -0.5213  1.6490
 2638SOL    MW410286   0.283   1.262   4.039 -0.4410  0.1699 -0.6018
 2639SOL     OW10287   0.205   4.751   6.286  0.3140 -0.5811  0.0507
 2639SOL    HW210288   0.258   4.704   6.221  0.1343 -0.4133 -0.2194
 2639SOL    HW310289   0.237   4.718   6.370 -0.5251 -1.9788 -0.1471
 2639SOL    MW410290   0.217   4.740   6.288 -0.5602 -0.0264  0.6289
 2640SOL     OW10291   5.781   4.956   5.046 -0.5292  0.2380 -0.5302
 2640SOL    HW210292   5.727   4.911   5.111  0.4190 -0.3198 -0.0954
 2640SOL    HW310293   5.858   4.899   5.036  0.0257  1.0592 -1.0463
 2640SOL    MW410294   5.784   4.942   5.053 -0.7989  0.3197  0.0708
 2641SOL     OW10295   6.001   4.425   1.406 -0.2705  0.1288 -0.0250
 2641SOL    HW210296   5.932   4.392   1.464  0.5663 -1.3298  0.2101
 2641SOL    HW310297   6.073   4.362   1.417  2.4191  3.2441  2.2195
 2641SOL    MW410298   6.001   4.412   1.415  0.5124  0.3323 -0.2129
 2642SOL     OW10299   3.752   0.185   4.351 -0.8376 -0.5887  0.1832
 2642SOL    HW210300   3.791   0.191   4.438  0.8941  0.4805 -0.5988
 2642SOL    HW310301   3.708   0.100   4.350  1.1215 -1.6875  1.3379
 2642SOL    MW410302   3.752   0.174   4.362 -0.2281  0.1503  0.3034
 2643SOL     OW10303   0.744   1.967   3.907 -0.0888 -0.2831  0.6508
 2643SOL    HW210304   0.668   1.917   3.878 -0.8760  0.1823  1.8380
 2643SOL    HW310305   0.767   1.929   3.992 -0.3664  1.0047  1.3198
 2643SOL    MW410306   0.737   1.956   3.914  0.1192  0.3422 -0.2399
 2644SOL     OW10307   3.124   2.767   0.214 -0.2549 -0.0582  0.0557
 2644SOL    HW210308   3.068   2.698   0.178  0.2325  0.0372 -0.9215
 2644SOL    HW310309   3.203   2.764   0.160 -0.1148  1.0921  0.1714
 2644SOL    MW410310   3.127   2.757   0.202  0.2918 -0.2232 -0.0432
 2645SOL     OW10311   6.159   0.678   1.142  0.1668  0.3189  0.1260
 2645SOL    HW210312   6.242   0.631   1.134  0.5401  1.2084 -1.7073
 2645SOL    HW310313   6.093   0.614   1.116  0.5819  0.4374 -1.3360
 2645SOL    MW410314   6.162   0.663   1.137  0.2649  0.3345  0.2033
 2646SOL     OW10315   0.506   4.036   1.490  0.1983 -0.4568 -0.4401
 2646SOL    HW210316   0.495   4.016   1.583 -2.6922 -0.8206 -0.7676
 2646SOL    HW310317   0.549   3.959   1.454  1.3560 -0.3156  0.5720
 2646SOL    MW410318   0.510   4.024   1.498  0.0495  0.2836  0.5759
 2647SOL     OW10319   5.760   5.351   3.007 -0.2633  0.1998  0.0124
 2647SOL    HW210320   5.720   5.398   3.080  0.4377  0.0206  0.5216
 2647SOL    HW310321   5.695   5.355   2.937  0.0731  2.5651 -0.2273
 2647SOL    MW410322   5.746   5.358   3.007 -0.3989  0.3974  0.2169
 2648SOL     OW10323   4.621   4.447   2.690  0.3278  0.0894  0.1015
 2648SOL    HW210324   4.637   4.540   2.672 -1.4363  0.3884 -0.0359
 2648SOL    HW310325   4.635   4.404   2.605 -1.1271  0.5700 -0.4162
 2648SOL    MW410326   4.625   4.454   2.676  0.3291  0.2368 -0.1199
 2649SOL     OW10327   0.162   1.948   1.257  0.2652  0.3944  0.2969
 2649SOL    HW210328   0.246   1.968   1.299 -0.0770  1.6308  0.4090
 2649SOL    HW310329   0.159   2.006   1.181  0.5358 -1.2824 -1.0598
 2649SOL    MW410330   0.173   1.958   1.252 -0.3299 -0.6554 -0.1597
 2650SOL     OW10331   0.790   2.783   5.858 -0.6245 -0.2844 -0.2414
 2650SOL    HW210332   0.855   2.729   5.812  1.7663 -1.3505  3.9125
 2650SOL    HW310333   0.828   2.871   5.859 -1.1291 -0.0490 -1.0286
 2650SOL    MW410334   0.803   2.787   5.852  0.1915  0.5934  0.1231
 2651SOL     OW10335   3.076   3.460   3.484 -0.3715  0.2610 -0.4357
 2651SOL    HW210336   3.158   3.413   3.467  0.0726  1.6468 -2.5384
 2651SOL    HW310337   3.031   3.462   3.400 -1.4904  1.4904  0.1456
 2651SOL    MW410338   3.081   3.454   3.471 -0.3293  0.1195  0.2478
 2652SOL     OW10339   5.906   1.868   2.271  0.1409  0.5010  0.1926
 2652SOL    HW210340   5.833   1.877   2.210 -0.8938 -1.1682  1.1210
 2652SOL    HW310341   5.949   1.786   2.246  0.4126  0.3965  0.9712
 2652SOL    MW410342   5.902   1.858   2.260 -0.2386  0.2977  0.4056
 2653SOL     OW10343   5.383   2.355   4.643 -0.2544  0.3987 -0.4868
 2653SOL    HW210344   5.450   2.321   4.704  0.7515  0.6097 -1.4438
 2653SOL    HW310345   5.302   2.355   4.695 -0.1111 -2.4564 -0.0938
 2653SOL    MW410346   5.381   2.350   4.658  0.0632 -0.1310 -0.5365
 2654SOL     OW10347   3.131   6.246   2.783 -0.4776 -0.0415  0.2573
 2654SOL    HW210348   3.211   6.235   2.835  2.3942  0.0906 -3.6642
 2654SOL    HW310349   3.109   6.339   2.792  0.0813  0.0264  1.0141
 2654SOL    MW410350   3.139   6.257   2.792 -0.4935 -0.1364  1.0972
 2655SOL     OW10351   2.738   5.112   5.047 -0.3764 -0.0018  0.0086
 2655SOL    HW210352   2.765   5.095   4.957 -0.9093  0.6143 -0.2812
 2655SOL    HW310353   2.794   5.057   5.101  0.8599  0.6114 -0.6216
 2655SOL    MW410354   2.749   5.103   5.042  0.5055 -0.5179 -0.3973
 2656SOL     OW10355   0.902   2.597   1.379  0.2537  0.0472 -0.4120
 2656SOL    HW210356   0.868   2.534   1.443 -0.7697 -0.0728 -1.0567
 2656SOL    HW310357   0.913   2.545   1.299 -0.3450  0.6166 -0.8732
 2656SOL    MW410358   0.899   2.582   1.377  0.1064  0.5083  0.3606
 2657SOL     OW10359   5.071   0.301   4.012  0.3913 -0.1014  0.4930
 2657SOL    HW210360   5.156   0.317   3.973  1.5946  0.2742  3.0547
 2657SOL    HW310361   5.055   0.377   4.068 -1.9238  0.1086 -0.3273
 2657SOL    MW410362   5.080   0.313   4.014 -0.2782 -0.1271 -0.1141
 2658SOL     OW10363   3.515   0.968   3.316 -0.3200 -0.8053  0.0905
 2658SOL    HW210364   3.426   0.940   3.340 -0.0639 -0.2553  1.8255
 2658SOL    HW310365   3.506   1.061   3.299  0.2066 -0.3167  2.1630
 2658SOL    MW410366   3.502   0.976   3.317 -0.3752  0.2554  0.6857
 2659SOL     OW10367   5.756   2.401   1.271  0.3406 -0.2845  0.6090
 2659SOL    HW210368   5.677   2.448   1.245  0.6423 -0.1031  0.0189
 2659SOL    HW310369   5.825   2.434   1.213  0.3199 -2.2894 -0.6720
 2659SOL    MW410370   5.754   2.411   1.260 -0.8325  0.0545 -0.4441
 2660SOL     OW10371   1.710   4.246   1.783 -0.3253 -0.4826  0.3435
 2660SOL    HW210372   1.783   4.308   1.784 -0.1672 -0.6410 -0.3912
 2660SOL    HW310373   1.747   4.166   1.746 -0.2659 -1.3791  2.2097
 2660SOL    MW410374   1.725   4.244   1.778  0.0077  0.2603  0.1060
 2661SOL     OW10375   4.128   3.577   3.626  0.9775 -0.4641 -0.5494
 2661SOL    HW210376   4.133   3.561   3.720  1.4996 -0.1652 -0.5264
 2661SOL    HW310377   4.105   3.492   3.588  0.8045 -0.5923 -0.1569
 2661SOL    MW410378   4.126   3.564   3.633  0.2833  0.2073  0.0756
 2662SOL     OW10379   5.280   5.248   0.106 -0.5606 -0.2275  0.3792
 2662SOL    HW210380   5.367   5.284   0.126 -0.7861  0.2776  0.4881
 2662SOL    HW310381   5.294   5.188   0.034 -0.2934  0.7830 -0.4421
 2662SOL    MW410382   5.293   5.245   0.099 -0.8933 -0.4211 -0.0865
 2663SOL     OW10383   5.534   0.311   0.890 -0.0408  0.1146 -0.2054
 2663SOL    HW210384   5.549   0.230   0.841  2.7531  0.9337 -0.8877
 2663SOL    HW310385   5.549   0.381   0.826 -3.7583  1.3192 -0.0222
 2663SOL    MW410386   5.538   0.309   0.875  0.0299 -0.0768  0.6494
 2664SOL     OW10387   0.805   5.405   6.293  0.2208 -0.1449  0.3366
 2664SOL    HW210388   0.760   5.450   6.221 -0.8444  0.8132  1.5433
 2664SOL    HW310389   0.791   5.312   6.276  0.2070  0.0575 -0.8164
 2664SOL    MW410390   0.797   5.399   6.282 -0.2510 -0.1984  0.2549
 2665SOL     OW10391   5.241   1.874   1.382 -0.2104  0.2424 -0.4852
 2665SOL    HW210392   5.184   1.815   1.430 -1.5244 -0.2325 -2.5236
 2665SOL    HW310393   5.328   1.861   1.420 -0.6442 -2.3143 -0.2565
 2665SOL    MW410394   5.245   1.865   1.393 -0.1067  0.0804 -0.0952
 2666SOL     OW10395   2.662   5.701   1.618 -0.0823 -0.1240  0.1059
 2666SOL    HW210396   2.591   5.758   1.648  1.2964  1.2843  0.8690
 2666SOL    HW310397   2.681   5.732   1.529 -0.0030 -0.0345  0.1523
 2666SOL    MW410398   2.655   5.713   1.610 -0.1592 -0.5564 -0.2251
 2667SOL     OW10399   1.552   0.922   1.429  0.3170 -0.0359 -0.4017
 2667SOL    HW210400   1.565   0.961   1.515 -0.3870  0.1959 -0.3890
 2667SOL    HW310401   1.616   0.964   1.372 -0.1408  0.8364 -0.2889
 2667SOL    MW410402   1.562   0.932   1.433  0.2302  0.0803  0.1343
 2668SOL     OW10403   3.648   1.399   4.097 -0.3128 -0.0504  0.7341
 2668SOL    HW210404   3.709   1.326   4.103 -0.1244  0.1702  1.7139
 2668SOL    HW310405   3.618   1.413   4.187 -0.7591  0.7267  0.4780
 2668SOL    MW410406   3.652   1.391   4.110  0.1072 -0.0430  0.4267
 2669SOL     OW10407   5.407   2.794   0.592  0.0119 -0.2244 -0.6357
 2669SOL    HW210408   5.453   2.821   0.513  1.6699 -0.7793  0.0922
 2669SOL    HW310409   5.315   2.808   0.572  0.4242  0.1631 -2.4560
 2669SOL    MW410410   5.401   2.799   0.579  0.0790  0.5956  0.2961
 2670SOL     OW10411   1.969   0.451   2.685 -0.2108 -0.2953  0.3772
 2670SOL    HW210412   1.966   0.393   2.609 -2.4272 -1.3183  1.1497
 2670SOL    HW310413   1.882   0.492   2.687  0.5270  1.3260  1.1639
 2670SOL    MW410414   1.957   0.449   2.675 -1.2172 -0.4504  0.4464
 2671SOL     OW10415   3.549   1.824   3.309  0.3305  0.2257  0.1787
 2671SOL    HW210416   3.586   1.907   3.341  1.0974  0.3714 -1.0056
 2671SOL    HW310417   3.613   1.758   3.336 -0.5281 -0.0813  1.5656
 2671SOL    MW410418   3.563   1.827   3.317  0.0341  0.9875  0.3917
 2672SOL     OW10419   1.217   5.456   0.465 -0.5141 -0.9080  0.3866
 2672SOL    HW210420   1.125   5.473   0.486 -0.8873 -0.3289 -1.5028
 2672SOL    HW310421   1.241   5.381   0.519 -1.8826 -0.6571  1.4066
 2672SOL    MW410422   1.208   5.449   0.475  0.4723  0.8032  0.2999
 2673SOL     OW10423   5.166   5.448   2.404 -0.1391  0.8602  0.4208
 2673SOL    HW210424   5.194   5.529   2.361 -0.4244  0.8064  0.1301
 2673SOL    HW310425   5.072   5.460   2.420 -0.1126  0.7257  0.6871
 2673SOL    MW410426   5.157   5.460   2.400 -0.0204 -0.0634  0.7253
 2674SOL     OW10427   2.649   0.380   1.593  0.1371  0.4459 -0.8239
 2674SOL    HW210428   2.644   0.316   1.664  0.3527  2.9761  1.6874
 2674SOL    HW310429   2.741   0.380   1.567  0.4144  0.6404  0.1180
 2674SOL    MW410430   2.661   0.372   1.599 -1.1972 -0.1168  0.2912
 2675SOL     OW10431   1.747   3.766   3.589  0.3427  0.6585  0.3854
 2675SOL    HW210432   1.684   3.800   3.653  0.8352  0.5558  0.9301
 2675SOL    HW310433   1.717   3.677   3.572  0.4282  0.5528  0.7666
 2675SOL    MW410434   1.735   3.759   3.596 -0.3644 -0.4805  0.0491
 2676SOL     OW10435   2.862   5.574   1.358  0.3025 -0.1407  0.2666
 2676SOL    HW210436   2.911   5.600   1.436  0.7919  0.0279 -0.0925
 2676SOL    HW310437   2.797   5.644   1.347  1.3222  0.7211 -0.4350
 2676SOL    MW410438   2.860   5.587   1.367 -0.1932 -0.0949 -0.0978
 2677SOL     OW10439   3.586   3.631   4.760 -0.1374 -0.0648  0.6894
 2677SOL    HW210440   3.624   3.609   4.845  0.2921  0.2370  0.5800
 2677SOL    HW310441   3.612   3.722   4.745 -1.3685  0.3333  0.8574
 2677SOL    MW410442   3.595   3.640   4.770  0.1206 -0.3547 -0.4099
 2678SOL     OW10443   6.217   1.249   1.970 -0.3914 -0.4594 -0.3867
 2678SOL    HW210444   6.241   1.314   2.035  2.8481 -2.0522  0.2129
 2678SOL    HW310445   6.279   1.262   1.898 -1.0378 -1.5248 -1.1720
 2678SOL    MW410446   6.228   1.259   1.969  0.0449 -0.3171 -0.0926
 2679SOL     OW10447   2.254   1.269   1.744 -0.2264 -0.1410  0.7222
 2679SOL    HW210448   2.325   1.270   1.808  0.0754 -0.1339  0.3947
 2679SOL    HW310449   2.184   1.319   1.785  0.4701  1.0843  0.4946
 2679SOL    MW410450   2.254   1.276   1.757 -0.1479  0.1489  0.2625
 2680SOL     OW10451   5.727   2.603   4.644 -0.2078 -0.3317  0.0856
 2680SOL    HW210452   5.638   2.614   4.610  0.5799 -0.5658 -2.2856
 2680SOL    HW310453   5.741   2.678   4.701 -1.3366  0.6725 -0.9100
 2680SOL    MW410454   5.717   2.614   4.647 -0.5329 -0.7962 -0.5692
 2681SOL     OW10455   3.069   3.543   5.251 -0.1945  0.0494 -0.5094
 2681SOL    HW210456   2.988   3.583   5.283 -0.5392 -1.1697  0.2056
 2681SOL    HW310457   3.125   3.618   5.229 -0.6876  0.9333  1.0640
 2681SOL    MW410458   3.066   3.559   5.252 -0.4283  0.3687  0.2226
 2682SOL     OW10459   3.647   1.128   0.780  0.6214 -0.2653  0.4361
 2682SOL    HW210460   3.612   1.122   0.691 -0.4293  0.1158  0.8108
 2682SOL    HW310461   3.680   1.040   0.799 -0.8575 -0.8837  0.3377
 2682SOL    MW410462   3.647   1.115   0.771 -0.2612  0.0380  0.2548
 2683SOL     OW10463   0.252   1.714   0.888  0.5255  0.0031 -0.2427
 2683SOL    HW210464   0.299   1.795   0.872  0.6466 -0.4831 -2.7534
 2683SOL    HW310465   0.312   1.661   0.941  1.1093  0.9095  0.0191
 2683SOL    MW410466   0.266   1.718   0.893  0.1682 -0.1359  0.3935
 2684SOL     OW10467   0.825   0.188   6.057 -0.3550 -0.0782 -0.7006
 2684SOL    HW210468   0.774   0.240   6.120  1.2608 -0.0820  0.6949
 2684SOL    HW310469   0.761   0.132   6.014 -2.0014  2.1869 -1.3988
 2684SOL    MW410470   0.810   0.188   6.060  0.0784  0.6970 -0.2362
 2685SOL     OW10471   1.971   0.760   2.934  0.4063 -0.0995  0.1204
 2685SOL    HW210472   1.922   0.692   2.981 -0.6803  0.3071 -0.3935
 2685SOL    HW310473   2.055   0.719   2.914 -0.2605 -1.3306 -0.2570
 2685SOL    MW410474   1.976   0.745   2.938  0.3934 -0.4739  0.2300
 2686SOL     OW10475   1.494   4.527   3.104  0.4054 -0.9577  0.1173
 2686SOL    HW210476   1.476   4.621   3.107  1.6982 -0.6748 -0.2781
 2686SOL    HW310477   1.454   4.498   3.021  0.8640 -0.5584 -0.2479
 2686SOL    MW410478   1.486   4.535   3.093 -0.4707  0.1265  0.1933
 2687SOL     OW10479   4.818   3.230   3.001 -0.2741 -0.3071  0.4960
 2687SOL    HW210480   4.736   3.257   3.043 -0.1946 -1.5069  1.4621
 2687SOL    HW310481   4.792   3.156   2.945  0.0275 -0.2361  0.2627
 2687SOL    MW410482   4.804   3.223   2.999 -0.1541  0.0369  0.4744
 2688SOL     OW10483   4.656   3.874   0.917  0.1607 -0.0780  0.3167
 2688SOL    HW210484   4.650   3.787   0.957 -0.8829  0.5343  1.5680
 2688SOL    HW310485   4.566   3.893   0.889  0.4314  0.5015 -0.1711
 2688SOL    MW410486   4.643   3.865   0.918  0.5291 -0.3632 -0.1462
 2689SOL     OW10487   1.604   2.584   3.666 -0.6205 -0.7958  0.1512
 2689SOL    HW210488   1.571   2.671   3.687  1.0229  0.6315 -2.5431
 2689SOL    HW310489   1.531   2.539   3.624 -1.2379 -0.4172  0.8131
 2689SOL    MW410490   1.590   2.590   3.663  0.5330  0.7561 -0.3299
 2690SOL     OW10491   2.583   3.158   2.547  0.7516  0.0895  0.5053
 2690SOL    HW210492   2.625   3.074   2.532  1.2627  0.2140  1.1609
 2690SOL    HW310493   2.565   3.192   2.460  0.9103 -0.5172  0.2307
 2690SOL    MW410494   2.586   3.152   2.533 -0.5240  0.0680  0.0325
 2691SOL     OW10495   3.815   5.901   5.080  0.1257  0.5663 -0.0398
 2691SOL    HW210496   3.861   5.871   5.158 -0.7267  1.2895  0.7630
 2691SOL    HW310497   3.815   5.997   5.087 -0.7763  0.6109 -0.4253
 2691SOL    MW410498   3.821   5.910   5.091  0.0066  0.0533 -0.0627
 2692SOL     OW10499   1.032   5.044   3.900 -0.6720  0.0439 -0.0799
 2692SOL    HW210500   1.109   5.039   3.957 -0.8063 -1.3725  0.0043
 2692SOL    HW310501   1.022   5.138   3.881  0.5280  0.3332  0.6399
 2692SOL    MW410502   1.041   5.056   3.905  0.1546  0.2908 -0.0131
 2693SOL     OW10503   5.624   1.877   4.426 -0.2453  0.1352 -1.0724
 2693SOL    HW210504   5.641   1.965   4.457  0.3360 -0.0983 -0.7054
 2693SOL    HW310505   5.535   1.857   4.457  0.2413 -0.0192  0.2970
 2693SOL    MW410506   5.614   1.886   4.435  0.4894  0.3929  0.0126
 2694SOL     OW10507   3.552   4.740   4.494  0.5389  0.9294 -0.1024
 2694SOL    HW210508   3.637   4.707   4.464 -0.5843 -0.1572 -2.3026
 2694SOL    HW310509   3.546   4.711   4.585  1.7739 -0.5231 -0.4487
 2694SOL    MW410510   3.562   4.732   4.502  0.4684 -0.3021  0.2419
 2695SOL     OW10511   6.083   4.486   2.654  0.2316  0.5764  0.4684
 2695SOL    HW210512   6.016   4.552   2.633  0.7639  1.5009  1.5387
 2695SOL    HW310513   6.098   4.441   2.571 -2.5464 -0.4862  0.4390
 2695SOL    MW410514   6.076   4.489   2.640 -0.2495  0.3974  0.3233
 2696SOL     OW10515   5.850   3.350   3.557  0.3372  0.8103 -0.3967
 2696SOL    HW210516   5.827   3.410   3.628 -1.0831  2.3646 -2.0732
 2696SOL    HW310517   5.767   3.332   3.513  0.4629 -3.3530  0.6317
 2696SOL    MW410518   5.836   3.355   3.560  0.6403 -0.0808  0.5551
 2697SOL     OW10519   5.308   3.570   0.327 -0.6307  0.6765 -0.1012
 2697SOL    HW210520   5.350   3.650   0.297 -2.1640  1.1776 -1.0131
 2697SOL    HW310521   5.308   3.577   0.422  0.3451  1.1716 -0.1278
 2697SOL    MW410522   5.314   3.581   0.336  0.1099  0.5523  0.1032
 2698SOL     OW10523   1.711   2.805   6.147 -0.5791 -0.0735 -0.0118
 2698SOL    HW210524   1.656   2.834   6.074 -1.7261 -0.3211  0.7224
 2698SOL    HW310525   1.662   2.830   6.225  0.2154 -0.5930  0.6704
 2698SOL    MW410526   1.697   2.812   6.148 -0.5526 -0.0683  0.0283
 2699SOL     OW10527   3.116   4.534   5.382  0.0191 -0.0056 -0.4170
 2699SOL    HW210528   3.170   4.479   5.324 -1.7840 -1.3552 -0.9148
 2699SOL    HW310529   3.034   4.545   5.334 -1.4438 -0.9276  1.7194
 2699SOL    MW410530   3.112   4.528   5.368 -0.1949  0.3249  0.7148
 2700SOL     OW10531   0.166   4.858   1.828  0.4033  0.1885  0.2601
 2700SOL    HW210532   0.155   4.830   1.737 -0.0957  1.4657 -0.0957
 2700SOL    HW310533   0.125   4.944   1.832 -1.4565 -0.6891  2.2016
 2700SOL    MW410534   0.159   4.866   1.816 -0.2277 -0.2688 -0.2034
 2701SOL     OW10535   0.519   1.234   0.239 -0.3873  0.0456  0.5165
 2701SOL    HW210536   0.467   1.284   0.302 -1.4373 -0.1200 -0.1879
 2701SOL    HW310537   0.562   1.166   0.291  0.2180  1.0247  1.3228
 2701SOL    MW410538   0.517   1.232   0.254  0.2250  0.1545 -0.1581
 2702SOL     OW10539   0.196   1.922   5.576 -0.4840  0.1507  0.4010
 2702SOL    HW210540   0.139   1.845   5.567  0.3859 -0.4200 -0.4504
 2702SOL    HW310541   0.258   1.899   5.644 -0.9664  0.5880  0.9976
 2702SOL    MW410542   0.197   1.909   5.584  0.0919 -0.1808 -0.1785
 2703SOL     OW10543   4.260   1.494   4.590  0.1050  0.0184  0.8192
 2703SOL    HW210544   4.202   1.543   4.648 -0.9352  0.7501 -0.7454
 2703SOL    HW310545   4.334   1.552   4.574 -0.3693  0.4754  0.2115
 2703SOL    MW410546   4.262   1.508   4.595 -0.3865 -0.3331 -0.5431
 2704SOL     OW10547   4.066   0.724   0.087  0.3837  0.4424  0.1633
 2704SOL    HW210548   4.041   0.745  -0.003 -1.1651 -1.2587  0.1536
 2704SOL    HW310549   4.154   0.688   0.079  0.5619  1.0100 -0.5631
 2704SOL    MW410550   4.074   0.722   0.074 -0.3175  0.0964 -0.0201
 2705SOL     OW10551   5.271   2.473   5.492  0.4025 -0.5007  0.1411
 2705SOL    HW210552   5.236   2.510   5.573 -1.0290  0.3003 -0.8008
 2705SOL    HW310553   5.366   2.475   5.504  0.2211 -0.4180  1.7902
 2705SOL    MW410554   5.279   2.478   5.504 -0.0920  0.1793  0.2462
 2706SOL     OW10555   0.098   3.119   6.263 -0.5373 -0.2616 -0.1177
 2706SOL    HW210556   0.027   3.182   6.269 -0.1464  0.2208 -0.5171
 2706SOL    HW310557   0.070   3.057   6.195 -0.6069 -0.1131 -0.2251
 2706SOL    MW410558   0.085   3.119   6.255 -0.1521  0.2387 -0.2865
 2707SOL     OW10559   4.296   0.431   5.225 -0.1158  0.1872  0.3369
 2707SOL    HW210560   4.350   0.510   5.225  1.2761 -0.6972 -1.1104
 2707SOL    HW310561   4.213   0.458   5.185  0.1709  0.9979  0.2705
 2707SOL    MW410562   4.292   0.445   5.220 -0.2961 -0.3809 -0.1082
 2708SOL     OW10563   5.957   3.223   2.859  0.1835  0.2763  0.6562
 2708SOL    HW210564   6.026   3.158   2.849 -0.0338  0.1085  0.1597
 2708SOL    HW310565   5.937   3.223   2.952  2.0574  1.6086  1.1137
 2708SOL    MW410566   5.963   3.214   2.870  0.3625  0.2911  0.0483
 2709SOL     OW10567   5.995   2.784   5.273  0.0733 -0.0798 -0.3087
 2709SOL    HW210568   6.004   2.689   5.281 -1.3589 -0.4394 -2.1201
 2709SOL    HW310569   6.084   2.816   5.262  0.6524 -1.0892  1.1085
 2709SOL    MW410570   6.008   2.775   5.273  0.2306 -0.5706 -0.1976
 2710SOL     OW10571   4.324   0.029   5.719  0.6677 -0.0576  0.6811
 2710SOL    HW210572   4.240   0.071   5.741  0.5922 -0.4900  1.2308
 2710SOL    HW310573   4.308  -0.014   5.635  0.4235  0.0997  0.6461
 2710SOL    MW410574   4.310   0.029   5.711  0.2652 -0.8658  0.0957
 2711SOL     OW10575   5.019   0.466   0.117 -0.0591  0.3617  0.9953
 2711SOL    HW210576   4.937   0.488   0.162 -0.3020 -0.0041  0.7335
 2711SOL    HW310577   5.078   0.538   0.138 -0.9127  1.3816 -0.0327
 2711SOL    MW410578   5.016   0.478   0.126 -0.1102 -0.2059  0.5964
 2712SOL     OW10579   4.083   3.583   1.021  0.0576  0.2821 -0.0191
 2712SOL    HW210580   4.159   3.593   0.964 -0.1558 -1.1290 -0.6144
 2712SOL    HW310581   4.071   3.668   1.062 -0.0680  1.5334 -2.4698
 2712SOL    MW410582   4.091   3.595   1.019 -0.3405 -0.2334 -0.2795
 2713SOL     OW10583   2.486   0.103   0.908  0.3035 -0.2023 -0.6608
 2713SOL    HW210584   2.543   0.026   0.898  1.2319 -0.3576  3.7055
 2713SOL    HW310585   2.546   0.177   0.908  0.2707 -0.1245  1.1748
 2713SOL    MW410586   2.502   0.102   0.907  0.0135 -0.5687 -0.4641
 2714SOL     OW10587   2.676   3.497   4.052  0.4881 -0.6982  0.1860
 2714SOL    HW210588   2.642   3.409   4.063  0.8074 -0.9842 -0.9158
 2714SOL    HW310589   2.743   3.489   3.984  1.2285  0.2219  0.7740
 2714SOL    MW410590   2.680   3.485   4.044 -0.8019  0.3729  0.0588
 2715SOL     OW10591   1.277   6.088   1.863 -0.2813  0.2021  0.0206
 2715SOL    HW210592   1.217   6.071   1.936 -1.3677  1.3884 -0.5618
 2715SOL    HW310593   1.268   6.182   1.846  1.8664  0.4356 -0.0032
 2715SOL    MW410594   1.268   6.098   1.871  0.4547 -0.1561 -0.1932
 2716SOL     OW10595   0.743   1.268   2.640  0.3959  0.0185 -0.2528
 2716SOL    HW210596   0.738   1.357   2.674  1.0380 -0.0039 -0.0896
 2716SOL    HW310597   0.837   1.252   2.629  0.3197 -0.9147  0.4342
 2716SOL    MW410598   0.755   1.278   2.643  0.0843 -1.0049  0.0341
 2717SOL     OW10599   3.016   0.947   2.304 -0.6129  0.3549 -0.0375
 2717SOL    HW210600   3.054   0.988   2.382 -1.5658 -0.5177  0.9377
 2717SOL    HW310601   2.929   0.917   2.333 -0.9769 -0.0238 -1.4321
 2717SOL    MW410602   3.009   0.948   2.318 -0.0241  0.2690  0.0838
 2718SOL     OW10603   5.288   6.222   6.052 -0.0667 -0.0181 -0.4136
 2718SOL    HW210604   5.293   6.127   6.064 -1.9743 -0.2136 -0.8820
 2718SOL    HW310605   5.289   6.234   5.957  1.5918  0.5709 -0.3621
 2718SOL    MW410606   5.289   6.211   6.041  0.4532  0.3801 -0.3558
 2719SOL     OW10607   2.425   5.456   0.360 -0.9001  0.3705 -0.8005
 2719SOL    HW210608   2.363   5.480   0.291 -0.4341  2.7872 -0.4431
 2719SOL    HW310609   2.495   5.521   0.354  0.7802 -1.2436 -0.0605
 2719SOL    MW410610   2.426   5.467   0.350  0.4382  0.5934 -0.2408
 2720SOL     OW10611   5.356   2.601   2.456 -0.7620 -0.0993  0.3405
 2720SOL    HW210612   5.267   2.572   2.435 -1.3871  0.8913  1.5053
 2720SOL    HW310613   5.357   2.694   2.431  0.3753 -0.3929 -0.8591
 2720SOL    MW410614   5.344   2.610   2.450 -0.0146  0.2477 -0.0601
 2721SOL     OW10615   3.014   3.627   1.156  0.1348  0.1747  0.0846
 2721SOL    HW210616   3.039   3.584   1.238  0.1001  1.2342  0.6573
 2721SOL    HW310617   2.971   3.708   1.183  1.4669  1.2988 -0.9956
 2721SOL    MW410618   3.012   3.632   1.170  0.0908  0.0375  0.3950
 2722SOL     OW10619   4.581   2.199   0.823  0.4973 -0.4862 -0.3199
 2722SOL    HW210620   4.644   2.143   0.869  1.5377  0.3254 -0.6981
 2722SOL    HW310621   4.636   2.261   0.774 -0.6010  1.1152  0.3937
 2722SOL    MW410622   4.597   2.200   0.822  0.1020  0.1670  0.6789
 2723SOL     OW10623   5.837   0.751   4.358  0.7607 -0.0826 -0.1942
 2723SOL    HW210624   5.787   0.681   4.315  0.9446 -0.4214  0.1376
 2723SOL    HW310625   5.882   0.707   4.430 -0.3220  0.6447  0.9733
 2723SOL    MW410626   5.836   0.736   4.362 -0.5040  0.0269 -0.2566
 2724SOL     OW10627   2.678   4.728   3.190 -0.2026 -0.1078 -0.1506
 2724SOL    HW210628   2.688   4.780   3.110 -0.9955 -1.4443 -1.1529
 2724SOL    HW310629   2.586   4.737   3.213 -0.1771 -0.4659  0.0919
 2724SOL    MW410630   2.667   4.736   3.182 -0.1687 -0.1810  0.4740
 2725SOL     OW10631   0.723   0.813   0.936 -0.2659  0.4027 -0.3194
 2725SOL    HW210632   0.672   0.788   0.859  0.6574  2.0486 -1.5121
 2725SOL    HW310633   0.767   0.894   0.911  1.0078  0.3440  1.5354
 2725SOL    MW410634   0.722   0.820   0.923  0.0583  0.2365 -0.3942
 2726SOL     OW10635   3.336   2.952   2.704  0.1838  0.2604 -0.6052
 2726SOL    HW210636   3.255   2.907   2.678 -0.3308  1.3788 -0.9890
 2726SOL    HW310637   3.401   2.882   2.710 -0.1730 -0.3399 -2.8801
 2726SOL    MW410638   3.334   2.936   2.701  0.3525 -0.1520 -0.2999
 2727SOL     OW10639   0.578   0.325   5.425  0.3009 -0.5432 -0.3387
 2727SOL    HW210640   0.492   0.352   5.457  0.1431 -1.2570 -0.1429
 2727SOL    HW310641   0.561   0.277   5.345  0.6387  0.5321 -1.0739
 2727SOL    MW410642   0.565   0.322   5.419 -0.1708  0.5987  0.0466
 2728SOL     OW10643   2.110   0.403   0.140  0.3684  0.4209 -0.0077
 2728SOL    HW210644   2.018   0.427   0.151  0.5586  1.2595 -0.1129
 2728SOL    HW310645   2.127   0.412   0.046  0.4034 -0.3331 -0.0759
 2728SOL    MW410646   2.100   0.408   0.129  0.3927 -0.6608  0.0745
 2729SOL     OW10647   4.936   5.117   1.259 -0.1393  0.4738  0.2114
 2729SOL    HW210648   4.891   5.092   1.179 -2.0068  1.8275  0.7533
 2729SOL    HW310649   4.955   5.210   1.248 -0.2555  0.6378  1.2602
 2729SOL    MW410650   4.933   5.126   1.247  0.2035 -0.0021 -0.0506
 2730SOL     OW10651   1.176   4.321   3.418  0.1626  0.3642 -0.2435
 2730SOL    HW210652   1.236   4.342   3.347 -0.0898  2.4566  0.0900
 2730SOL    HW310653   1.093   4.300   3.375  0.9207 -2.0302 -0.6792
 2730SOL    MW410654   1.173   4.321   3.403  0.3193  0.4506  0.2650
 2731SOL     OW10655   0.889   3.145   4.749  0.1457 -0.0572 -0.2239
 2731SOL    HW210656   0.798   3.175   4.746  0.5384  1.3118  0.5550
 2731SOL    HW310657   0.887   3.066   4.803 -0.4287  0.6547  0.8292
 2731SOL    MW410658   0.877   3.138   4.756  0.1154 -0.3178  0.1551
 2732SOL     OW10659   1.851   1.411   4.057  0.4361  0.1350  0.2475
 2732SOL    HW210660   1.920   1.440   3.998  0.1467  1.2282  0.4323
 2732SOL    HW310661   1.780   1.382   4.000 -0.7193  3.2155 -0.0385
 2732SOL    MW410662   1.851   1.411   4.042  0.9841 -0.1491 -0.3824
 2733SOL     OW10663   5.386   2.906   0.858  0.0210  0.2418  0.3223
 2733SOL    HW210664   5.388   2.857   0.776  0.3613  0.3541  0.2622
 2733SOL    HW310665   5.471   2.950   0.862 -0.0641  0.3814  0.6467
 2733SOL    MW410666   5.397   2.905   0.848 -0.9795 -0.3013  0.1859
 2734SOL     OW10667   3.272   1.329   1.138 -0.3968 -0.5598  0.4230
 2734SOL    HW210668   3.183   1.339   1.104 -0.8840 -2.7370  0.9057
 2734SOL    HW310669   3.270   1.246   1.185  1.8048 -0.4661  0.7676
 2734SOL    MW410670   3.260   1.319   1.139 -0.3889 -0.3273  0.5637
 2735SOL     OW10671   2.109   3.659   1.145 -0.1995  0.5684 -0.0464
 2735SOL    HW210672   2.112   3.645   1.239  1.2895 -1.3577 -0.3099
 2735SOL    HW310673   2.133   3.751   1.133 -1.6984  1.2117  1.4726
 2735SOL    MW410674   2.113   3.669   1.156 -0.1793  0.1326 -0.3351
 2736SOL     OW10675   5.120   4.738   1.547  0.2412 -0.1110  0.6686
 2736SOL    HW210676   5.192   4.762   1.605  0.9815  0.8764 -0.6162
 2736SOL    HW310677   5.041   4.749   1.601  1.0443 -2.4465  2.5003
 2736SOL    MW410678   5.119   4.743   1.562 -0.1554 -0.3303  1.3421
 2737SOL     OW10679   1.299   4.146   4.616  0.4428  0.2054 -0.1934
 2737SOL    HW210680   1.334   4.138   4.528  1.6049  0.4021  0.2315
 2737SOL    HW310681   1.272   4.238   4.624  0.9683  0.3525 -0.1172
 2737SOL    MW410682   1.300   4.157   4.606 -0.2282 -0.2184  0.6231
 2738SOL     OW10683   0.569   1.244   3.718  0.2020 -0.3823  0.0101
 2738SOL    HW210684   0.545   1.313   3.780  0.2682 -0.9678  0.7009
 2738SOL    HW310685   0.595   1.291   3.639  1.9878  0.4777  1.0455
 2738SOL    MW410686   0.569   1.260   3.716  0.2667 -0.0209 -0.0933
 2739SOL     OW10687   3.072   4.142   5.337  0.6500 -0.6049  0.0620
 2739SOL    HW210688   3.133   4.071   5.356 -0.1019 -1.2948 -0.0698
 2739SOL    HW310689   2.986   4.105   5.352  0.2565  0.3899  0.3246
 2739SOL    MW410690   3.069   4.128   5.341  0.2756  0.5320  0.1315
 2740SOL     OW10691   1.490   3.507   1.729 -0.3483  0.7249 -0.0243
 2740SOL    HW210692   1.404   3.518   1.690 -0.7704 -1.5387  0.1292
 2740SOL    HW310693   1.478   3.532   1.821 -1.6130 -2.0282  0.6691
 2740SOL    MW410694   1.477   3.511   1.736 -0.6183 -0.1576  0.7038
 2741SOL     OW10695   1.793   0.071   2.775 -0.3847  0.0816  0.7606
 2741SOL    HW210696   1.884   0.091   2.800  0.4566 -0.6573 -1.4667
 2741SOL    HW310697   1.790  -0.024   2.769 -1.3140  0.0970  0.8292
 2741SOL    MW410698   1.805   0.061   2.777  0.0702 -0.6972 -0.4742
 2742SOL     OW10699   6.031   1.801   5.020  0.3160  0.2811 -0.0108
 2742SOL    HW210700   5.939   1.787   4.996  0.3433  0.5698 -0.2715
 2742SOL    HW310701   6.062   1.869   4.961  1.3972 -1.4974 -1.5960
 2742SOL    MW410702   6.023   1.808   5.009 -0.1075 -0.0845 -0.3179
 2743SOL     OW10703   3.984   4.588   2.888  0.0588 -0.0338 -0.2395
 2743SOL    HW210704   3.950   4.505   2.920  1.4646 -1.2655 -1.7084
 2743SOL    HW310705   3.914   4.624   2.833  0.2752 -1.4433 -1.4844
 2743SOL    MW410706   3.971   4.582   2.885 -0.1724 -0.1132 -0.6669
 2744SOL     OW10707   3.022   3.670   4.525 -0.3978 -0.4961 -1.1561
 2744SOL    HW210708   2.947   3.614   4.544  0.1961 -1.1921 -0.8116
 2744SOL    HW310709   3.069   3.624   4.455 -0.0131 -0.3327 -1.0084
 2744SOL    MW410710   3.018   3.656   4.519  0.2575  0.6328 -0.2078
 2745SOL     OW10711   4.124   3.590   0.347 -0.0811  0.0856  0.0383
 2745SOL    HW210712   4.141   3.497   0.329 -2.3878 -0.4176  0.1873
 2745SOL    HW310713   4.178   3.637   0.283  0.8361 -1.3550 -0.2855
 2745SOL    MW410714   4.133   3.584   0.336  0.3328 -0.3353  0.4721
 2746SOL     OW10715   4.701   2.884   6.265 -0.2991 -0.4604  1.1735
 2746SOL    HW210716   4.671   2.807   6.216 -1.0568 -0.3346  1.4380
 2746SOL    HW310717   4.627   2.944   6.265  0.4878  0.5555  0.4342
 2746SOL    MW410718   4.687   2.881   6.258  0.5557 -0.1589 -0.0665
 2747SOL     OW10719   5.879   0.537   6.052  0.0506  0.1414 -0.6734
 2747SOL    HW210720   5.891   0.631   6.037 -0.2944  0.6406  1.7170
 2747SOL    HW310721   5.968   0.501   6.048  0.5732  1.0897  1.0594
 2747SOL    MW410722   5.892   0.545   6.050 -0.0555 -0.6073  0.6523
 2748SOL     OW10723   5.829   1.732   5.847  0.2380  0.4942  0.0294
 2748SOL    HW210724   5.923   1.716   5.855  0.2400  0.8758  0.8277
 2748SOL    HW310725   5.789   1.645   5.852  0.4317  0.4673  1.5995
 2748SOL    MW410726   5.836   1.718   5.849 -0.6208  0.0226  0.3811
 2749SOL     OW10727   3.208   1.268   2.990 -0.3452 -0.0915 -0.5140
 2749SOL    HW210728   3.202   1.223   2.906 -3.3131 -2.1140  0.6546
 2749SOL    HW310729   3.120   1.301   3.007  0.8477  3.0927  0.4608
 2749SOL    MW410730   3.196   1.267   2.981 -0.2531 -0.2562 -0.1013
 2750SOL     OW10731   5.850   2.978   5.010 -0.1697  0.5010 -0.0839
 2750SOL    HW210732   5.820   3.045   5.071  1.3615  0.3630  0.8615
 2750SOL    HW310733   5.870   3.026   4.930 -0.4864  0.9447  0.0990
 2750SOL    MW410734   5.849   2.993   5.007  0.5077  0.4151 -1.2346
 2751SOL     OW10735   4.703   4.938   2.108  0.7148 -0.1758 -0.1841
 2751SOL    HW210736   4.612   4.907   2.109  0.8311 -0.5191 -0.1415
 2751SOL    HW310737   4.738   4.913   2.193  0.2485  1.7958  0.6325
 2751SOL    MW410738   4.696   4.930   2.119 -0.3025  0.0734 -0.0338
 2752SOL     OW10739   2.849   1.428   5.864 -0.2776  0.0676  0.2221
 2752SOL    HW210740   2.920   1.364   5.867 -0.1116  0.0899 -1.7769
 2752SOL    HW310741   2.774   1.382   5.902  0.7193 -0.0139  2.2147
 2752SOL    MW410742   2.848   1.413   5.869  0.1665  0.1286 -0.2280
 2753SOL     OW10743   4.550   1.741   4.756 -0.1781  0.4081  0.2382
 2753SOL    HW210744   4.509   1.810   4.808  0.8545 -0.0654  1.7420
 2753SOL    HW310745   4.643   1.764   4.754  0.2931 -1.2431  1.3094
 2753SOL    MW410746   4.557   1.753   4.762 -0.1357 -1.1164  0.5401
 2754SOL     OW10747   1.359   3.390   4.311 -0.3210  0.2610  0.3231
 2754SOL    HW210748   1.291   3.432   4.259  0.1511  0.7430  0.0765
 2754SOL    HW310749   1.313   3.328   4.367 -0.8312 -0.3831 -0.7806
 2754SOL    MW410750   1.344   3.388   4.311 -0.4031  0.1329  0.3552
 2755SOL     OW10751   2.318   4.767   5.936 -0.5742 -0.4271 -0.0160
 2755SOL    HW210752   2.254   4.732   5.874 -0.5519 -1.0984  0.3331
 2755SOL    HW310753   2.308   4.713   6.014 -0.8964  0.6768  0.7286
 2755SOL    MW410754   2.308   4.756   5.938 -0.2178 -0.0734 -0.2196
 2756SOL     OW10755   5.579   4.138   0.011 -0.2070  0.3892 -0.4652
 2756SOL    HW210756   5.613   4.072  -0.050  1.2235  0.7591 -0.1065
 2756SOL    HW310757   5.500   4.171  -0.032 -0.0256 -0.3751 -1.4353
 2756SOL    MW410758   5.573   4.134  -0.003 -0.1260  0.2656  0.0671
 2757SOL     OW10759   0.887   1.559   3.946 -0.3181 -0.1620  0.1139
 2757SOL    HW210760   0.808   1.568   3.999 -0.4321  0.5565 -0.1775
 2757SOL    HW310761   0.856   1.553   3.856  0.0076  1.3870 -0.1217
 2757SOL    MW410762   0.873   1.559   3.941  0.0822  0.2006 -0.2530
 2758SOL     OW10763   1.793   0.166   4.945  0.9778  0.2825  0.4142
 2758SOL    HW210764   1.821   0.256   4.928  1.6379  0.2295  1.1475
 2758SOL    HW310765   1.857   0.112   4.899  1.0817  0.1794  0.6798
 2758SOL    MW410766   1.805   0.171   4.937 -0.0056 -0.3760  0.1757
 2759SOL     OW10767   3.639   0.271   3.479 -0.0732 -0.7957 -0.3567
 2759SOL    HW210768   3.712   0.213   3.502  0.8579  0.0070 -1.1817
 2759SOL    HW310769   3.672   0.359   3.498 -0.2493 -0.3071 -2.1192
 2759SOL    MW410770   3.653   0.275   3.485  0.0298  0.3198  0.6794
 2760SOL     OW10771   5.854   2.363   2.032  0.3341 -0.4438 -0.0452
 2760SOL    HW210772   5.909   2.439   2.014  1.8955 -1.8067 -1.3477
 2760SOL    HW310773   5.772   2.382   1.985  1.2399 -0.1699 -1.5865
 2760SOL    MW410774   5.850   2.375   2.023 -0.0834  0.2992 -0.1085
 2761SOL     OW10775   2.293   3.372   4.966 -0.8074  0.0613 -0.3000
 2761SOL    HW210776   2.267   3.286   4.999 -2.7742  0.8243  0.2897
 2761SOL    HW310777   2.331   3.416   5.041 -2.1868  0.6019  0.1027
 2761SOL    MW410778   2.295   3.366   4.980 -0.1318 -0.5802  0.0796
 2762SOL     OW10779   3.560   3.593   5.748 -0.3477  0.4952 -0.5836
 2762SOL    HW210780   3.481   3.540   5.737 -0.2629  0.0586  0.7525
 2762SOL    HW310781   3.621   3.536   5.796  0.1326  1.4221 -0.0619
 2762SOL    MW410782   3.558   3.579   5.753 -0.2177 -0.2132  0.1046
 2763SOL     OW10783   5.336   4.010   1.881 -0.4527  0.8662  0.4220
 2763SOL    HW210784   5.426   4.029   1.908 -0.7642  0.8196  1.5440
 2763SOL    HW310785   5.330   4.047   1.793  0.6395  0.9335  0.3530
 2763SOL    MW410786   5.347   4.017   1.873  0.6560  0.3733  0.0085
 2764SOL     OW10787   5.027   3.944   5.961  0.0074 -0.1960  0.6091
 2764SOL    HW210788   5.006   4.037   5.949 -2.0154 -0.7255 -0.4486
 2764SOL    HW310789   4.974   3.916   6.035 -0.2291 -0.7328  0.2479
 2764SOL    MW410790   5.017   3.953   5.969 -0.4189 -0.2973 -1.2741
 2765SOL     OW10791   3.303   5.826   3.061  0.4407 -0.0837  0.0859
 2765SOL    HW210792   3.252   5.805   2.982 -1.0251  0.1751  0.9322
 2765SOL    HW310793   3.393   5.804   3.037  0.1411  0.5622 -1.8772
 2765SOL    MW410794   3.308   5.820   3.047  0.1637  0.2347  0.2179
 2766SOL     OW10795   4.305   1.689   3.370  0.5823 -0.3474  0.0167
 2766SOL    HW210796   4.332   1.781   3.378 -0.4424 -0.1535  1.4893
 2766SOL    HW310797   4.209   1.692   3.374  0.3916 -1.3010 -2.2180
 2766SOL    MW410798   4.296   1.702   3.372 -0.4959 -0.5780  0.4564
 2767SOL     OW10799   2.091   1.599   5.215  0.7022 -0.0107 -0.1364
 2767SOL    HW210800   2.077   1.562   5.302 -0.5932 -0.5060 -0.5398
 2767SOL    HW310801   2.118   1.690   5.232 -1.5866  0.5678  0.7819
 2767SOL    MW410802   2.093   1.606   5.229 -0.4445  0.4281 -0.3155
 2768SOL     OW10803   0.028   4.402   2.383  0.0716 -0.1910  0.2634
 2768SOL    HW210804  -0.065   4.399   2.407 -0.1967  2.2360 -0.2820
 2768SOL    HW310805   0.037   4.481   2.330  2.1750 -1.2183 -1.0489
 2768SOL    MW410806   0.017   4.412   2.379  0.4393  0.6453 -0.0963
 2769SOL     OW10807   2.010   1.552   4.938 -0.0172  0.0412  0.5399
 2769SOL    HW210808   1.916   1.566   4.952 -0.2197 -2.5332  2.6765
 2769SOL    HW310809   2.048   1.555   5.026  2.1679  2.1310 -0.3760
 2769SOL    MW410810   2.003   1.554   4.951 -0.3458  0.4984  0.5436
 2770SOL     OW10811   2.311   5.042   2.406 -0.5036  0.3401 -0.4339
 2770SOL    HW210812   2.271   5.004   2.484  0.4682  0.0752 -0.0484
 2770SOL    HW310813   2.244   5.032   2.338 -0.1970 -2.4902 -0.4751
 2770SOL    MW410814   2.297   5.035   2.407 -0.3265  0.7001  0.1906
 2771SOL     OW10815   1.933   4.879   2.689  0.9974 -0.3116  0.4433
 2771SOL    HW210816   1.936   4.787   2.715 -0.1404  0.0019  1.8039
 2771SOL    HW310817   1.846   4.909   2.716  0.5286  0.6484 -1.8853
 2771SOL    MW410818   1.922   4.871   2.696  0.8271  0.3164 -0.2467
 2772SOL     OW10819   5.179   1.391   3.769 -0.0353  0.5756 -0.0721
 2772SOL    HW210820   5.100   1.338   3.766 -0.4730  1.2562 -1.4541
 2772SOL    HW310821   5.248   1.333   3.738  0.1764 -0.2271  1.7778
 2772SOL    MW410822   5.178   1.377   3.765 -0.2788 -0.4004 -0.2666
 2773SOL     OW10823   2.596   5.977   6.172 -0.0088 -0.2460 -0.0160
 2773SOL    HW210824   2.624   6.055   6.220 -0.3564 -0.9885  1.4779
 2773SOL    HW310825   2.674   5.945   6.128 -0.0915  1.5207 -1.5310
 2773SOL    MW410826   2.610   5.983   6.173  0.2983  0.6175  0.2268
 2774SOL     OW10827   1.399   6.310   2.425  0.0105  0.3916 -0.6689
 2774SOL    HW210828   1.368   6.398   2.403  0.8730  0.9294  0.1970
 2774SOL    HW310829   1.362   6.293   2.512 -0.4628 -0.2591 -0.9943
 2774SOL    MW410830   1.390   6.320   2.434  0.5271  0.0090  0.4961
 2775SOL     OW10831   4.793   1.374   6.061 -0.0137  0.6399  0.4486
 2775SOL    HW210832   4.737   1.322   6.119  1.3861 -0.2810  1.0067
 2775SOL    HW310833   4.762   1.464   6.072 -0.9960  0.2327  1.1783
 2775SOL    MW410834   4.781   1.379   6.070 -0.5695  0.2095 -0.4376
 2776SOL     OW10835   6.277   2.590   2.823  0.9491  0.0537  0.3589
 2776SOL    HW210836   6.372   2.596   2.813  0.8498 -0.5250 -1.3572
 2776SOL    HW310837   6.242   2.623   2.740 -0.2253 -2.2690 -0.1755
 2776SOL    MW410838   6.285   2.595   2.811  0.6111 -0.4660  0.6479
 2777SOL     OW10839   2.860   3.486   4.274  0.4215 -0.7012  0.1875
 2777SOL    HW210840   2.838   3.401   4.312 -0.4513 -0.7812 -0.4740
 2777SOL    HW310841   2.824   3.483   4.186  2.6224 -0.6022 -0.7758
 2777SOL    MW410842   2.852   3.474   4.268  0.3850 -0.6488  0.2290
 2778SOL     OW10843   0.807   2.338   6.003  0.2463  0.0784 -0.6152
 2778SOL    HW210844   0.724   2.385   6.013  0.2229 -0.2379  0.9243
 2778SOL    HW310845   0.865   2.400   5.959 -1.0044  0.0347 -2.4180
 2778SOL    MW410846   0.804   2.353   5.998 -0.1269  0.1724  0.2112
 2779SOL     OW10847   6.042   0.062   4.123  0.0681 -0.3687 -0.6457
 2779SOL    HW210848   6.005   0.142   4.160 -0.9832 -1.5040  0.8901
 2779SOL    HW310849   5.968   0.017   4.084  0.1308 -1.8047  0.8185
 2779SOL    MW410850   6.028   0.067   4.123 -0.0313  0.4009  0.4224
 2780SOL     OW10851   5.523   2.898   0.357 -0.3333  0.4214  0.4215
 2780SOL    HW210852   5.494   2.989   0.365 -1.8924 -0.0607  0.6328
 2780SOL    HW310853   5.587   2.900   0.286 -0.8472  1.5884 -0.0408
 2780SOL    MW410854   5.528   2.910   0.348  0.1107  0.1060  0.8241
 2781SOL     OW10855   2.273   6.016   1.580  0.2771 -0.2206  0.0869
 2781SOL    HW210856   2.291   6.103   1.617 -0.4104  0.2591 -0.6616
 2781SOL    HW310857   2.343   6.002   1.517 -0.1552  0.2364 -0.5070
 2781SOL    MW410858   2.285   6.026   1.577 -0.1656 -0.0124 -0.1735
 2782SOL     OW10859   0.768   2.751   2.348  0.3054 -0.2794 -0.0769
 2782SOL    HW210860   0.749   2.768   2.256  1.4786  0.9331 -0.1295
 2782SOL    HW310861   0.807   2.832   2.379  1.4522 -1.2359  1.0609
 2782SOL    MW410862   0.771   2.764   2.340 -0.0857  0.0527 -0.0165
 2783SOL     OW10863   5.124   3.711   2.164  0.1981 -0.1154 -0.3526
 2783SOL    HW210864   5.140   3.803   2.147 -0.6841  0.1557  0.2154
 2783SOL    HW310865   5.183   3.688   2.236 -0.2490  0.2562  0.1391
 2783SOL    MW410866   5.134   3.720   2.171 -0.3389 -0.3732  0.0110
 2784SOL     OW10867   0.027   0.512   4.466  0.0278 -0.1010 -0.0833
 2784SOL    HW210868  -0.037   0.477   4.404 -0.6202  0.8685  0.0167
 2784SOL    HW310869   0.075   0.435   4.497  1.4784 -0.4915 -2.9570
 2784SOL    MW410870   0.025   0.497   4.462 -0.1845 -0.2121  0.5847
 2785SOL     OW10871   4.075   3.055   0.088 -0.5599 -0.1779 -0.1967
 2785SOL    HW210872   4.055   3.129   0.031  0.0350  0.2623  0.1562
 2785SOL    HW310873   3.990   3.029   0.125 -1.2886 -1.6762 -2.6714
 2785SOL    MW410874   4.061   3.061   0.085  0.8314 -0.1386  0.0140
 2786SOL     OW10875   5.000   2.122   5.004 -0.1605  0.6976  0.3312
 2786SOL    HW210876   4.954   2.204   5.018 -0.0771  0.5499  1.6205
 2786SOL    HW310877   4.971   2.066   5.076  0.7024  0.0162  0.1609
 2786SOL    MW410878   4.990   2.125   5.016  0.8877  0.2966  0.5868
 2787SOL     OW10879   2.459   1.369   2.594 -0.1094  0.5518 -0.0672
 2787SOL    HW210880   2.540   1.369   2.543 -1.0523  1.7278 -1.6426
 2787SOL    HW310881   2.437   1.461   2.605 -0.5251  0.2941  1.5816
 2787SOL    MW410882   2.467   1.381   2.589 -0.4188 -0.8480  0.1243
 2788SOL     OW10883   2.736   4.341   5.247  0.5805  0.2083 -0.2958
 2788SOL    HW210884   2.687   4.264   5.218 -0.2282 -0.0690  1.6889
 2788SOL    HW310885   2.695   4.414   5.201 -0.2216 -0.2730 -0.3608
 2788SOL    MW410886   2.724   4.340   5.237 -0.4766  0.3637  0.1837
 2789SOL     OW10887   1.779   2.926   0.542 -0.4861 -0.2112 -0.3824
 2789SOL    HW210888   1.753   2.892   0.628  0.6291 -1.5552 -0.5338
 2789SOL    HW310889   1.706   2.903   0.484 -0.1189 -1.6667 -0.3023
 2789SOL    MW410890   1.766   2.918   0.546 -0.0295  0.6976  0.3772
 2790SOL     OW10891   0.097   2.824   6.162  0.7188  0.5831  0.3035
 2790SOL    HW210892   0.052   2.739   6.164 -0.0971  1.0159  1.8372
 2790SOL    HW310893   0.121   2.836   6.070 -0.6646 -0.5403 -0.2418
 2790SOL    MW410894   0.094   2.815   6.150 -0.4214  0.2416  0.0336
 2791SOL     OW10895   1.045   1.789   6.081 -0.1147 -0.3069  0.1125
 2791SOL    HW210896   1.027   1.695   6.081  0.8202 -0.4954  0.4175
 2791SOL    HW310897   1.002   1.821   6.161 -0.1527 -0.5285  0.1831
 2791SOL    MW410898   1.037   1.781   6.092  0.5590 -0.2926 -0.0778
 2792SOL     OW10899   1.516   3.626   1.989  0.0427  0.1140  0.1434
 2792SOL    HW210900   1.568   3.662   2.060 -0.5481  1.1399  0.0836
 2792SOL    HW310901   1.430   3.668   1.998  0.4329  1.6130 -2.1482
 2792SOL    MW410902   1.511   3.637   2.000  0.2045  0.6771  0.8171
 2793SOL     OW10903   0.569   0.394   0.643 -0.2691  0.3002 -0.6149
 2793SOL    HW210904   0.555   0.373   0.550 -1.7491 -5.2951  0.5104
 2793SOL    HW310905   0.481   0.402   0.680  0.1386 -1.6518  0.9166
 2793SOL    MW410906   0.556   0.393   0.635  0.2937  0.3850 -0.1772
 2794SOL     OW10907   2.021   1.911   1.343  0.0112 -0.1703  0.8589
 2794SOL    HW210908   1.961   1.839   1.323  0.4672 -0.4137  0.3310
 2794SOL    HW310909   1.971   1.970   1.399 -1.2871  0.4371 -0.8497
 2794SOL    MW410910   2.007   1.909   1.347  0.6051 -0.0798 -0.3026
 2795SOL     OW10911   0.923   5.991   0.413  0.0931  0.0746  0.1987
 2795SOL    HW210912   0.918   6.022   0.323  1.0906  1.3500  0.5432
 2795SOL    HW310913   1.007   6.025   0.445 -0.7879  0.7352  1.9803
 2795SOL    MW410914   0.934   6.000   0.406  0.0128 -0.6602  0.3429
 2796SOL     OW10915   3.687   3.239   1.806  0.5263 -0.3039 -0.1600
 2796SOL    HW210916   3.734   3.166   1.765 -1.0999 -0.8673 -1.1156
 2796SOL    HW310917   3.667   3.209   1.894  0.2707 -0.8397 -0.3969
 2796SOL    MW410918   3.691   3.226   1.812  0.5469 -0.1441 -0.6682
 2797SOL     OW10919   3.817   0.554   2.839  0.5602  0.8956 -0.3427
 2797SOL    HW210920   3.883   0.605   2.885  0.1599  0.6480  0.5429
 2797SOL    HW310921   3.819   0.468   2.882 -1.1677  1.2584  0.5604
 2797SOL    MW410922   3.826   0.549   2.851 -0.2858  0.3090  0.1845
 2798SOL     OW10923   0.267   4.158   4.975  0.2422 -0.4298 -0.3298
 2798SOL    HW210924   0.179   4.177   5.007 -0.2025  0.3582 -1.9114
 2798SOL    HW310925   0.275   4.063   4.980  0.3069 -0.3666  2.2538
 2798SOL    MW410926   0.256   4.148   4.980 -0.1278 -0.0171  0.5124
 2799SOL     OW10927   5.511   6.180   3.288  0.3878  0.2644  0.2993
 2799SOL    HW210928   5.474   6.092   3.297 -0.7504  0.7093  0.0820
 2799SOL    HW310929   5.604   6.165   3.270 -0.0551 -0.9338 -1.1606
 2799SOL    MW410930   5.518   6.166   3.287  0.5504  0.2693  0.3348
 2800SOL     OW10931   0.666   5.371   0.839 -0.3638 -0.4185 -0.0013
 2800SOL    HW210932   0.758   5.365   0.867 -0.6988 -1.7147  0.8820
 2800SOL    HW310933   0.662   5.453   0.790  0.9653  0.3518  1.0882
 2800SOL    MW410934   0.678   5.381   0.836  0.2766 -0.0535 -0.2312
 2801SOL     OW10935   6.372   0.279   0.115 -0.4958  0.2134 -0.0129
 2801SOL    HW210936   6.381   0.296   0.021  0.0639 -1.4700 -0.2927
 2801SOL    HW310937   6.378   0.184   0.123 -2.5173  0.1565  1.5285
 2801SOL    MW410938   6.374   0.269   0.104  0.6448  0.2213  0.6039
 2802SOL     OW10939   4.001   2.479   1.839 -0.3880 -0.3230  0.3497
 2802SOL    HW210940   4.011   2.521   1.925 -0.4726 -0.3301  0.3635
 2802SOL    HW310941   4.082   2.500   1.793  0.1814 -1.3404  0.8579
 2802SOL    MW410942   4.013   2.488   1.844  0.2158  0.4042 -0.2719
 2803SOL     OW10943   6.407   5.276   4.850  0.0582 -0.0512  0.0092
 2803SOL    HW210944   6.339   5.340   4.869  0.1641 -0.1253  0.6463
 2803SOL    HW310945   6.376   5.231   4.771  0.4792  1.4788 -1.0765
 2803SOL    MW410946   6.394   5.279   4.842  0.4265  0.2934 -0.1811
 2804SOL     OW10947   5.311   0.410   0.448 -0.4180 -0.4562 -0.5289
 2804SOL    HW210948   5.306   0.486   0.506 -1.1368 -0.1128 -1.0139
 2804SOL    HW310949   5.394   0.369   0.469  0.1021  0.6043 -0.4082
 2804SOL    MW410950   5.321   0.415   0.458 -0.4933 -0.1151 -0.1110
 2805SOL     OW10951   6.343   3.332   4.675 -0.4089 -0.8495  0.4449
 2805SOL    HW210952   6.302   3.395   4.615  2.6497  2.8620  1.8416
 2805SOL    HW310953   6.416   3.296   4.624 -0.0492 -0.5352  0.7319
 2805SOL    MW410954   6.347   3.336   4.660  0.1805 -0.1614  0.1845
 2806SOL     OW10955   2.237   3.702   5.211  0.1469  0.8277 -0.2568
 2806SOL    HW210956   2.157   3.666   5.250  0.3739  0.1373 -0.4116
 2806SOL    HW310957   2.235   3.795   5.234 -0.8960  0.9007 -0.5939
 2806SOL    MW410958   2.226   3.709   5.219 -0.4145 -0.2978 -0.6552
 2807SOL     OW10959   5.931   4.250   3.106  0.6268 -0.1286 -0.4705
 2807SOL    HW210960   6.014   4.297   3.105 -0.3041  1.5714 -1.7536
 2807SOL    HW310961   5.868   4.311   3.070 -1.2663 -1.2913  0.7014
 2807SOL    MW410962   5.934   4.264   3.101  0.3769  0.3638  0.1248
 2808SOL     OW10963   4.331   2.950   0.125  0.3339  0.1723  0.0421
 2808SOL    HW210964   4.247   2.997   0.119 -1.2815 -2.6461 -1.6305
 2808SOL    HW310965   4.371   2.960   0.038  0.4472 -0.6436 -0.0097
 2808SOL    MW410966   4.325   2.958   0.113 -0.4139 -0.0020  0.2743
 2809SOL     OW10967   3.579   2.206   6.052  0.3603 -0.4999 -0.7739
 2809SOL    HW210968   3.507   2.267   6.065  1.1230  0.4960 -1.0841
 2809SOL    HW310969   3.560   2.164   5.967 -0.0857 -0.5916 -0.6312
 2809SOL    MW410970   3.567   2.208   6.042 -0.9400  0.0964 -0.0814
 2810SOL     OW10971   3.825   0.861   5.241  0.2640  0.7386  0.1678
 2810SOL    HW210972   3.894   0.837   5.304  0.5262  1.3557  0.1212
 2810SOL    HW310973   3.831   0.794   5.173 -0.2073 -0.1028  0.9306
 2810SOL    MW410974   3.835   0.849   5.241 -0.1395  0.0295 -0.7211
 2811SOL     OW10975   1.469   4.535   3.509  0.2184 -0.0814 -0.2312
 2811SOL    HW210976   1.445   4.568   3.596  0.1351 -0.7898  0.0285
 2811SOL    HW310977   1.414   4.583   3.448 -1.6455 -1.3997  0.3063
 2811SOL    MW410978   1.459   4.546   3.513 -0.3593  0.2637 -0.2345
 2812SOL     OW10979   3.859   4.314   0.740 -0.3867 -0.1931 -0.0236
 2812SOL    HW210980   3.857   4.350   0.651 -2.2217  0.1556  0.1212
 2812SOL    HW310981   3.767   4.312   0.767  0.0846 -0.8731  1.6433
 2812SOL    MW410982   3.846   4.318   0.731 -0.0381  0.0945  0.6407
 2813SOL     OW10983   3.441   5.532   2.466  0.2166  0.1589 -0.2198
 2813SOL    HW210984   3.523   5.545   2.514 -1.0554 -0.5750  2.3543
 2813SOL    HW310985   3.386   5.481   2.526 -1.5114 -0.9128 -2.5467
 2813SOL    MW410986   3.444   5.527   2.480 -0.1750 -0.0664  0.6418
 2814SOL     OW10987   0.671   5.018   0.347 -0.0269 -0.0752 -0.1140
 2814SOL    HW210988   0.762   5.044   0.364 -0.2497  0.4292  0.3075
 2814SOL    HW310989   0.634   5.091   0.297 -0.3948  0.0239  0.2982
 2814SOL    MW410990   0.678   5.031   0.343 -0.9664  0.2297  0.3222
 2815SOL     OW10991   4.842   0.138   3.814  0.2055  0.3649 -0.7189
 2815SOL    HW210992   4.874   0.210   3.759  0.5703  0.9872  0.2701
 2815SOL    HW310993   4.790   0.181   3.882  2.6056  0.0380  1.4896
 2815SOL    MW410994   4.839   0.153   3.816 -1.0516 -0.6465 -0.4785
 2816SOL     OW10995   6.004   4.554   0.918 -0.1472  0.3519 -0.4380
 2816SOL    HW210996   5.949   4.585   0.846 -0.1792 -1.5128 -1.2744
 2816SOL    HW310997   5.960   4.584   0.997 -0.6516  1.5800 -1.1691
 2816SOL    MW410998   5.991   4.562   0.919  0.1239  0.0428  0.2079
 2817SOL     OW10999   3.660   4.645   3.416 -0.4731  0.5671 -0.3581
 2817SOL    HW211000   3.700   4.566   3.454 -1.3104  0.8029  1.0773
 2817SOL    HW311001   3.572   4.617   3.391 -0.2051  0.6331 -1.4366
 2817SOL    MW411002   3.653   4.631   3.417  0.2380 -0.0922  0.0022
 2818SOL     OW11003   0.670   1.029   1.268 -0.3959 -0.5610 -0.1931
 2818SOL    HW211004   0.593   1.087   1.260 -0.2231 -0.2508  0.3382
 2818SOL    HW311005   0.634   0.941   1.260 -0.7874 -0.4111 -0.1364
 2818SOL    MW411006   0.655   1.025   1.266  0.0873  0.7042  0.3627
 2819SOL     OW11007   2.603   5.845   6.404  0.2466  0.4799  0.0699
 2819SOL    HW211008   2.601   5.876   6.314 -0.1929 -1.5089 -0.6699
 2819SOL    HW311009   2.563   5.915   6.455  0.3249  1.5600 -1.3048
 2819SOL    MW411010   2.598   5.858   6.399  0.3132 -0.4591  0.2368
 2820SOL     OW11011   0.839   0.535   0.475  0.0627  0.1427  0.7836
 2820SOL    HW211012   0.928   0.506   0.496 -0.1085 -0.7113  0.3708
 2820SOL    HW311013   0.825   0.506   0.385  0.8156  3.8026 -0.6828
 2820SOL    MW411014   0.849   0.527   0.466  0.0205 -0.5898  0.3027
 2821SOL     OW11015   4.233   6.095   1.088 -0.4384  0.0333 -0.0146
 2821SOL    HW211016   4.213   6.067   1.177  1.4782  0.8786  0.7461
 2821SOL    HW311017   4.224   6.190   1.090  1.3332  0.2458 -0.1903
 2821SOL    MW411018   4.229   6.104   1.100 -0.3234 -0.1119 -1.2456
 2822SOL     OW11019   0.997   1.227   2.536 -0.4979 -0.4161  0.8380
 2822SOL    HW211020   1.030   1.151   2.585 -0.5198 -2.0208 -1.4846
 2822SOL    HW311021   1.071   1.288   2.533 -0.1778 -0.7232  1.9381
 2822SOL    MW411022   1.011   1.225   2.542  0.4664  0.1952  0.6004
 2823SOL     OW11023   0.841   0.069   0.703  0.3686 -0.0011 -0.4226
 2823SOL    HW211024   0.746   0.075   0.691  0.3203  1.9653  0.6625
 2823SOL    HW311025   0.852   0.060   0.798  1.1900 -3.8135 -0.7098
 2823SOL    MW411026   0.830   0.068   0.714 -0.1606  0.7560  0.0467
 2824SOL     OW11027   2.957   0.225   5.817  0.7212  0.7562 -0.3513
 2824SOL    HW211028   2.926   0.218   5.727  1.9395 -0.8993 -0.6872
 2824SOL    HW311029   3.019   0.297   5.817  0.4304  1.0080 -0.7328
 2824SOL    MW411030   2.961   0.234   5.805  0.1771 -0.0872 -0.0724
 2825SOL     OW11031   1.645   1.373   0.688 -0.0705  0.3153  0.3851
 2825SOL    HW211032   1.734   1.391   0.719 -0.5982  1.6497  1.1932
 2825SOL    HW311033   1.658   1.326   0.606  1.3779  0.2905  0.5969
 2825SOL    MW411034   1.659   1.369   0.681  0.2243  0.0600 -0.2266
 2826SOL     OW11035   0.240   1.586   2.555  0.3076  0.0751  0.0986
 2826SOL    HW211036   0.331   1.557   2.565  0.5742  0.1500 -1.7492
 2826SOL    HW311037   0.237   1.624   2.468 -1.3250  0.8011  0.4461
 2826SOL    MW411038   0.252   1.587   2.545  0.2060 -0.2132  0.4833
 2827SOL     OW11039   5.489   4.652   6.039  0.0446  0.3930  0.3220
 2827SOL    HW211040   5.550   4.578   6.046  1.4122  1.4915  0.3902
 2827SOL    HW311041   5.543   4.729   6.052 -1.2853  1.4520 -0.1802
 2827SOL    MW411042   5.504   4.652   6.042 -0.0718 -0.5868 -0.2977
 2828SOL     OW11043   4.531   4.400   3.544 -0.2888  0.1111 -0.1910
 2828SOL    HW211044   4.501   4.491   3.536  0.8454  0.3645 -2.5034
 2828SOL    HW311045   4.611   4.406   3.596 -1.6415  0.0154  2.0261
 2828SOL    MW411046   4.538   4.413   3.550  0.1013  0.0126 -0.2261
 2829SOL     OW11047   1.427   3.132   1.212  0.1003  0.4197 -0.0652
 2829SOL    HW211048   1.453   3.040   1.211 -1.8504 -0.1921  0.8929
 2829SOL    HW311049   1.502   3.178   1.173  0.4209 -1.7155 -2.2395
 2829SOL    MW411050   1.440   3.126   1.207  0.4188  0.5931 -0.3851
 2830SOL     OW11051   3.683   3.576   3.769 -0.1945 -0.2982  0.0603
 2830SOL    HW211052   3.690   3.528   3.852  1.4949 -0.0095  0.1298
 2830SOL    HW311053   3.620   3.525   3.718 -2.0209  0.0377  1.8267
 2830SOL    MW411054   3.676   3.563   3.774  0.3773  0.7839  0.4303
 2831SOL     OW11055   0.975   0.183   2.918 -0.1927  0.4069 -0.4785
 2831SOL    HW211056   0.956   0.207   2.827 -0.5345 -1.6070 -0.9802
 2831SOL    HW311057   0.924   0.104   2.933 -0.0796  0.6633  1.4677
 2831SOL    MW411058   0.966   0.176   2.908  0.4377  0.1912  0.6201
 2832SOL     OW11059   2.535   3.322   1.010  0.0342  0.2390  0.1335
 2832SOL    HW211060   2.547   3.283   1.097 -1.5749 -0.4770  0.0742
 2832SOL    HW311061   2.479   3.397   1.025 -0.8096 -0.2837 -0.3606
 2832SOL    MW411062   2.530   3.327   1.024 -0.2377  0.4446  0.8435
 2833SOL     OW11063   6.196   5.965   3.617  0.2624 -0.2012 -0.2250
 2833SOL    HW211064   6.255   6.021   3.568 -1.9930  0.5037 -2.3615
 2833SOL    HW311065   6.236   5.878   3.613  1.0598  0.1992 -1.8210
 2833SOL    MW411066   6.209   5.961   3.610  0.2366  0.1555 -1.0748
 2834SOL     OW11067   6.354   3.130   0.921 -0.1277  0.6545 -0.5087
 2834SOL    HW211068   6.295   3.204   0.930 -1.0160 -0.0819 -0.0301
 2834SOL    HW311069   6.318   3.079   0.848 -0.0086  0.2650 -0.2989
 2834SOL    MW411070   6.342   3.133   0.912  0.2066 -0.5363 -0.2145
 2835SOL     OW11071   3.235   1.124   2.750  0.0686  0.1305 -0.2375
 2835SOL    HW211072   3.284   1.043   2.765 -0.8065 -0.3890 -0.0987
 2835SOL    HW311073   3.299   1.185   2.714  0.4489 -1.0333 -1.5922
 2835SOL    MW411074   3.249   1.121   2.747  0.3785 -0.0583 -0.1028
 2836SOL     OW11075   0.533   2.568   4.160 -0.0710 -0.5166  0.1224
 2836SOL    HW211076   0.602   2.622   4.198 -0.3103  0.0338 -0.2118
 2836SOL    HW311077   0.559   2.558   4.068 -1.6569  1.7847 -0.6646
 2836SOL    MW411078   0.546   2.574   4.153  0.1011 -0.0705 -0.5449
 2837SOL     OW11079   2.664   5.991   5.260 -0.2457 -0.0123  0.5128
 2837SOL    HW211080   2.597   6.044   5.217  0.9379  1.7588  0.7337
 2837SOL    HW311081   2.740   5.998   5.202 -0.0012 -1.3360  0.6605
 2837SOL    MW411082   2.665   5.999   5.246 -0.2616  0.7373  0.0088
 2838SOL     OW11083   6.275   0.979   4.737  0.0009 -0.8982  0.0423
 2838SOL    HW211084   6.302   1.045   4.801  1.0372 -1.9795  0.7494
 2838SOL    HW311085   6.356   0.952   4.694 -0.6507 -0.3564 -1.6096
 2838SOL    MW411086   6.289   0.984   4.740 -0.0025 -0.7302 -0.3255
 2839SOL     OW11087   4.254   3.704   2.002  0.5261  0.0480 -0.0788
 2839SOL    HW211088   4.194   3.743   2.064  0.2976  0.1946 -0.3896
 2839SOL    HW311089   4.340   3.710   2.043  0.2508 -0.7199  0.6386
 2839SOL    MW411090   4.258   3.710   2.015  0.1689 -0.2425 -0.7493
 2840SOL     OW11091   1.588   1.370   5.471  0.0353 -0.2772  0.3313
 2840SOL    HW211092   1.591   1.274   5.462 -0.0104 -0.2394 -0.0874
 2840SOL    HW311093   1.613   1.403   5.384 -0.7654  0.0898  0.2386
 2840SOL    MW411094   1.592   1.361   5.458 -0.0605 -0.5462  0.0413
 2841SOL     OW11095   3.079   0.226   1.927 -0.1017 -0.0088 -0.4132
 2841SOL    HW211096   3.114   0.300   1.976  0.6934  0.3709 -1.4976
 2841SOL    HW311097   3.150   0.161   1.929  0.3964  0.4502 -1.9554
 2841SOL    MW411098   3.093   0.227   1.934 -0.0256 -0.6196  0.6546
 2842SOL     OW11099   0.386   0.775   5.058  0.3656  0.0098 -0.1353
 2842SOL    HW211100   0.399   0.681   5.043  0.7965  0.5178 -3.9912
 2842SOL    HW311101   0.471   0.814   5.036  0.1816  1.3778  1.3771
 2842SOL    MW411102   0.399   0.767   5.053 -0.0344  0.0663  0.0252
 2843SOL     OW11103   4.493   1.605   1.495  0.2639  0.7130 -0.0375
 2843SOL    HW211104   4.564   1.648   1.542 -0.6341 -0.0599  2.1525
 2843SOL    HW311105   4.434   1.677   1.470  1.0398  1.1896 -0.5482
 2843SOL    MW411106   4.494   1.620   1.498 -0.0575 -0.2093  0.1906
 2844SOL     OW11107   0.470   5.869   4.144  0.5158  0.2857 -0.2345
 2844SOL    HW211108   0.552   5.892   4.101  0.9750  1.2238  1.0555
 2844SOL    HW311109   0.495   5.853   4.235 -0.2094 -2.8557 -0.4799
 2844SOL    MW411110   0.484   5.870   4.151 -0.2965 -0.4205 -0.3093
 2845SOL     OW11111   3.650   0.488   5.424  0.0189  0.2259  0.2155
 2845SOL    HW211112   3.673   0.540   5.347  2.0757 -0.3523  0.3795
 2845SOL    HW311113   3.556   0.473   5.415 -0.2822  2.3420 -0.8124
 2845SOL    MW411114   3.641   0.493   5.413 -0.3895 -0.1900  0.8169
 2846SOL     OW11115   3.278   2.075   5.347 -0.2821 -0.2428  0.1959
 2846SOL    HW211116   3.276   2.043   5.437  0.0275  0.2100  0.3679
 2846SOL    HW311117   3.239   2.005   5.295  0.9230 -1.1620  0.4868
 2846SOL    MW411118   3.273   2.062   5.352 -0.0943 -0.5556 -0.0969
 2847SOL     OW11119   1.433   1.554   3.205 -0.1846 -0.2122 -0.0698
 2847SOL    HW211120   1.515   1.553   3.254 -0.3360  1.2291  0.2736
 2847SOL    HW311121   1.459   1.540   3.114  0.4954  0.5439 -0.0057
 2847SOL    MW411122   1.447   1.552   3.199  0.3521  0.2754  0.4228
 2848SOL     OW11123   2.929   0.971   5.781  0.6150 -0.1032  0.0061
 2848SOL    HW211124   2.963   0.910   5.846 -0.3234 -0.2799  0.3406
 2848SOL    HW311125   2.854   1.012   5.823  0.6388  0.5617 -0.5791
 2848SOL    MW411126   2.924   0.968   5.795 -0.3283 -0.4831 -0.2288
 2849SOL     OW11127   5.775   0.924   4.675  0.3449  0.3365 -0.5509
 2849SOL    HW211128   5.723   0.885   4.605  0.3768  1.7824 -1.4336
 2849SOL    HW311129   5.865   0.922   4.642  0.4008  0.7340 -0.4340
 2849SOL    MW411130   5.780   0.919   4.661  0.0677  0.4940 -0.1783
 2850SOL     OW11131   6.058   3.657   2.429 -0.2032  0.0553 -0.4247
 2850SOL    HW211132   6.027   3.696   2.510 -0.1851  0.4428 -0.6020
 2850SOL    HW311133   6.122   3.591   2.457 -0.6651 -0.2568 -0.0958
 2850SOL    MW411134   6.063   3.653   2.443  0.0625 -0.4033  0.2278
 2851SOL     OW11135   3.816   4.925   2.157 -0.0543 -0.3809  0.0389
 2851SOL    HW211136   3.884   4.990   2.139 -0.0470 -0.5295 -0.4770
 2851SOL    HW311137   3.807   4.927   2.252 -0.9697  1.2840 -0.0524
 2851SOL    MW411138   3.824   4.934   2.167 -0.3244 -0.1127 -0.2183
 2852SOL     OW11139   4.084   2.517   0.827  0.0625  0.3309 -0.3357
 2852SOL    HW211140   3.989   2.500   0.829  0.3942 -2.0264  1.9538
 2852SOL    HW311141   4.108   2.510   0.735 -1.6767 -1.4424 -0.7316
 2852SOL    MW411142   4.074   2.514   0.815 -0.3492  0.1277 -0.0758
 2853SOL     OW11143   0.623   4.771   1.544  0.2071  0.9414  0.1411
 2853SOL    HW211144   0.710   4.806   1.521 -0.8735  3.2883 -0.6953
 2853SOL    HW311145   0.588   4.835   1.606 -1.7500  1.2330 -1.1901
 2853SOL    MW411146   0.630   4.784   1.549 -0.1108 -0.3373 -0.5239
 2854SOL     OW11147   0.971   1.633   4.380  0.2452  0.4083 -0.5695
 2854SOL    HW211148   1.042   1.582   4.418 -0.7790  0.6614  1.9361
 2854SOL    HW311149   0.926   1.671   4.456 -1.5437  1.6172 -2.1315
 2854SOL    MW411150   0.974   1.632   4.395  0.0354 -0.3436  0.5213
 2855SOL     OW11151   3.237   2.886   4.238 -0.2243 -0.0244  0.2038
 2855SOL    HW211152   3.143   2.868   4.243 -0.2026  0.1743  1.9423
 2855SOL    HW311153   3.242   2.981   4.224 -0.2965  0.0280  0.5116
 2855SOL    MW411154   3.225   2.896   4.237  0.0753 -0.0281  0.3780
 2856SOL     OW11155   5.117   4.347   0.225  0.4973 -0.1265 -0.4472
 2856SOL    HW211156   5.059   4.394   0.284  2.8347  0.8840  1.2157
 2856SOL    HW311157   5.189   4.408   0.209  2.2628 -2.0835 -0.4753
 2856SOL    MW411158   5.119   4.361   0.231 -0.2523 -0.6895 -0.3890
 2857SOL     OW11159   4.920   2.818   0.003 -0.2766 -0.2206 -0.2279
 2857SOL    HW211160   4.836   2.847  -0.033 -0.2512 -0.9772 -0.9320
 2857SOL    HW311161   4.968   2.786  -0.073 -0.5506 -2.6604  0.5500
 2857SOL    MW411162   4.915   2.818  -0.012  0.3205 -0.0411 -0.2579
 2858SOL     OW11163   2.203   0.886   2.081  0.4551 -1.1662 -0.1568
 2858SOL    HW211164   2.215   0.872   1.987  0.5560 -0.1390 -0.2986
 2858SOL    HW311165   2.246   0.969   2.099 -1.2024 -0.3927  0.4376
 2858SOL    MW411166   2.210   0.895   2.071  0.1832  0.0562  0.5259
 2859SOL     OW11167   4.819   1.801   4.717 -0.2808  0.0276  0.0974
 2859SOL    HW211168   4.868   1.780   4.638 -1.7198  0.2131 -0.8736
 2859SOL    HW311169   4.842   1.893   4.735 -0.0027  0.0065 -0.1381
 2859SOL    MW411170   4.829   1.810   4.709  0.2656  0.1450  0.0157
 2860SOL     OW11171   1.204   2.227   5.473  0.4822 -0.2998 -0.0943
 2860SOL    HW211172   1.119   2.204   5.510  0.7807 -0.3795  0.5463
 2860SOL    HW311173   1.191   2.222   5.378  0.0098 -1.1702  0.0094
 2860SOL    MW411174   1.191   2.224   5.465 -0.1371  0.0986 -0.2047
 2861SOL     OW11175   0.817   2.471   2.414 -0.5046 -0.1300  0.3138
 2861SOL    HW211176   0.907   2.440   2.414 -0.4234 -0.0638  2.4581
 2861SOL    HW311177   0.824   2.565   2.398 -0.2219 -0.1595  0.2593
 2861SOL    MW411178   0.829   2.480   2.412  0.6082  0.2181 -0.1514
 2862SOL     OW11179   4.281   5.651   5.864  0.0313  0.5339 -0.2432
 2862SOL    HW211180   4.207   5.621   5.811  0.3352 -1.1863  0.2653
 2862SOL    HW311181   4.357   5.605   5.828  0.7309  1.5452 -0.1365
 2862SOL    MW411182   4.282   5.641   5.852  0.3121 -0.6432  0.0356
 2863SOL     OW11183   1.345   5.744   2.330  0.4926 -0.5853  0.0212
 2863SOL    HW211184   1.418   5.801   2.306 -0.8591  2.0762  1.7444
 2863SOL    HW311185   1.268   5.784   2.289 -0.6003 -0.6471  1.8879
 2863SOL    MW411186   1.345   5.757   2.322 -0.2677 -0.5451  0.2499
 2864SOL     OW11187   0.022   4.245   5.773 -0.0727  0.2415 -0.1190
 2864SOL    HW211188   0.012   4.261   5.679 -0.3161  2.3027  0.2050
 2864SOL    HW311189   0.105   4.288   5.796 -0.0305 -0.2159  0.6321
 2864SOL    MW411190   0.032   4.253   5.764  0.2177 -0.1347 -0.4021
 2865SOL     OW11191   4.961   3.814   0.296  0.0049 -0.1698  0.2409
 2865SOL    HW211192   5.000   3.755   0.231 -1.4031 -1.7314  0.7386
 2865SOL    HW311193   4.896   3.864   0.247  1.2968  1.1227 -0.2112
 2865SOL    MW411194   4.958   3.812   0.281 -0.3059  0.0113 -0.1889
 2866SOL     OW11195   0.958   0.848   2.568  0.5873 -0.1330  0.0681
 2866SOL    HW211196   0.965   0.771   2.625  2.3197  0.7167  1.1205
 2866SOL    HW311197   0.865   0.867   2.563  0.3428 -0.2634  2.6952
 2866SOL    MW411198   0.947   0.841   2.575 -0.0122 -0.2373  0.2664
 2867SOL     OW11199   4.273   5.592   1.961 -0.6137  0.3681 -0.4112
 2867SOL    HW211200   4.364   5.585   1.989 -0.6674  2.3240  0.4221
 2867SOL    HW311201   4.236   5.506   1.980  1.3017 -0.8852 -1.9147
 2867SOL    MW411202   4.280   5.580   1.967 -0.3041  0.2447 -0.0820
 2868SOL     OW11203   4.377   1.386   2.487  0.2597  0.2750  0.6461
 2868SOL    HW211204   4.354   1.373   2.579  1.2870 -0.2033  0.8539
 2868SOL    HW311205   4.442   1.318   2.469 -0.8423 -0.4382 -0.7922
 2868SOL    MW411206   4.383   1.376   2.497  0.3466 -0.1687  0.4270
 2869SOL     OW11207   4.017   2.721   5.316 -0.4509  0.4818 -0.3526
 2869SOL    HW211208   4.053   2.779   5.248  0.4193 -1.3147 -1.4956
 2869SOL    HW311209   3.994   2.641   5.269  0.6209 -1.0027  1.5555
 2869SOL    MW411210   4.019   2.718   5.301 -0.8303  0.1632  0.2133
 2870SOL     OW11211   5.277   0.442   6.177 -0.0765 -0.4326 -0.3232
 2870SOL    HW211212   5.182   0.453   6.187  0.1352  1.2313  0.2075
 2870SOL    HW311213   5.312   0.454   6.265  0.6898 -0.1863 -0.6586
 2870SOL    MW411214   5.269   0.445   6.190  0.8724  0.0790  0.3130
 2871SOL     OW11215   5.698   0.371   4.021  0.4059  0.5887 -0.0787
 2871SOL    HW211216   5.673   0.434   3.954  2.2346 -0.9739 -2.3892
 2871SOL    HW311217   5.656   0.289   3.994  0.7029  0.0610  1.0074
 2871SOL    MW411218   5.690   0.368   4.009 -0.1291  0.3854  0.1158
 2872SOL     OW11219   2.034   1.286   2.496 -0.8610 -0.1766 -0.0847
 2872SOL    HW211220   2.125   1.274   2.468 -1.1027  0.2868 -1.0911
 2872SOL    HW311221   1.982   1.241   2.430 -1.3790 -0.4635  0.5037
 2872SOL    MW411222   2.039   1.279   2.484 -0.6620  0.4529  0.6497
 2873SOL     OW11223   5.416   4.951   3.376 -0.1551 -0.2552 -0.2855
 2873SOL    HW211224   5.415   5.005   3.455 -0.2057  0.9178 -1.0640
 2873SOL    HW311225   5.447   5.010   3.307  0.1747 -1.3386 -1.0908
 2873SOL    MW411226   5.420   4.966   3.377 -0.3882 -0.1245 -0.3185
 2874SOL     OW11227   0.357   1.047   0.453 -0.2574 -0.3160 -0.0402
 2874SOL    HW211228   0.311   1.038   0.536 -0.1161  0.8813  0.1828
 2874SOL    HW311229   0.344   1.138   0.428  0.6435 -0.3758 -0.7707
 2874SOL    MW411230   0.349   1.057   0.460  0.4326  1.3772  0.1366
 2875SOL     OW11231   6.223   2.521   3.479 -0.2437  0.2218 -0.3664
 2875SOL    HW211232   6.260   2.433   3.480 -1.3943 -0.2784  0.6688
 2875SOL    HW311233   6.299   2.579   3.475  0.5511 -0.7975 -0.5721
 2875SOL    MW411234   6.238   2.517   3.478 -0.3100 -0.4271 -0.0819
 2876SOL     OW11235   3.338   5.389   6.410  0.6456 -0.1369 -0.2790
 2876SOL    HW211236   3.349   5.320   6.346 -0.1002  0.9979 -1.6819
 2876SOL    HW311237   3.302   5.345   6.487  0.4216 -1.3407 -1.0465
 2876SOL    MW411238   3.335   5.374   6.412  0.3978 -0.3992  0.1675
 2877SOL     OW11239   5.757   5.202   6.011 -0.5542 -0.6339  0.2633
 2877SOL    HW211240   5.741   5.284   5.964  0.0005  0.0172  1.1900
 2877SOL    HW311241   5.697   5.204   6.085  1.8634  0.6591  2.3375
 2877SOL    MW411242   5.747   5.213   6.015 -0.2478  0.0945 -0.5439
 2878SOL     OW11243   4.541   2.799   4.724 -0.1134 -0.3391  0.3214
 2878SOL    HW211244   4.546   2.726   4.662 -1.8825 -0.7590  0.6284
 2878SOL    HW311245   4.625   2.796   4.770  0.8539 -0.6039 -1.3690
 2878SOL    MW411246   4.553   2.789   4.722 -0.3575 -0.7265 -0.5244
 2879SOL     OW11247   4.512   5.363   2.686 -0.3340  0.1416 -0.4517
 2879SOL    HW211248   4.487   5.299   2.620 -2.9483  1.4167 -0.8158
 2879SOL    HW311249   4.504   5.317   2.769 -2.6416  0.0361 -0.6750
 2879SOL    MW411250   4.508   5.349   2.688 -0.4750 -0.1678 -0.0858
 2880SOL     OW11251   0.970   2.199   0.326 -0.2349 -0.0924 -0.1525
 2880SOL    HW211252   1.000   2.267   0.265 -0.0588 -0.7173 -0.7782
 2880SOL    HW311253   0.886   2.231   0.358 -0.2036  0.3719 -0.5241
 2880SOL    MW411254   0.963   2.212   0.322  0.7565  0.0431  0.5628
 2881SOL     OW11255   0.241   1.802   3.546 -0.2590 -0.2119  0.1970
 2881SOL    HW211256   0.149   1.776   3.557 -0.5880  0.5030 -0.6910
 2881SOL    HW311257   0.244   1.840   3.458  0.8054  0.1535  0.3823
 2881SOL    MW411258   0.229   1.803   3.536  0.0633 -0.1955 -0.1060
 2882SOL     OW11259   0.991   0.980   6.371  0.2904 -0.3154 -0.1037
 2882SOL    HW211260   0.939   1.057   6.349  0.6437  0.1428  0.6225
 2882SOL    HW311261   1.065   0.982   6.310 -0.4656 -0.9066 -1.0621
 2882SOL    MW411262   0.994   0.990   6.360 -0.3442 -0.1428  0.2960
 2883SOL     OW11263   2.815   6.360   4.360 -0.3783  0.4002  0.6284
 2883SOL    HW211264   2.890   6.319   4.404 -0.6314 -0.5075  0.2397
 2883SOL    HW311265   2.839   6.360   4.268 -1.2778 -0.8660  0.3732
 2883SOL    MW411266   2.828   6.355   4.354 -0.2633 -0.5105  0.4882
 2884SOL     OW11267   5.195   5.016   1.256  0.0520  0.3894  0.6473
 2884SOL    HW211268   5.221   5.028   1.164 -0.9785 -2.6456 -0.1694
 2884SOL    HW311269   5.113   5.064   1.264 -1.5233 -1.8238 -1.0417
 2884SOL    MW411270   5.188   5.024   1.245  0.4353  0.3455 -0.4552
 2885SOL     OW11271   5.449   0.631   5.028 -0.3961  0.2430 -0.0926
 2885SOL    HW211272   5.518   0.641   4.963  1.1255  0.9243  1.5169
 2885SOL    HW311273   5.434   0.537   5.034  0.0576  0.1203 -0.8175
 2885SOL    MW411274   5.456   0.620   5.020 -0.1833  0.5071  0.4011
 2886SOL     OW11275   5.930   0.377   3.885  0.2480  0.3440 -0.4167
 2886SOL    HW211276   5.853   0.396   3.938 -0.3864  0.1524 -1.2470
 2886SOL    HW311277   6.004   0.403   3.940 -0.0807 -3.5379  2.2849
 2886SOL    MW411278   5.930   0.382   3.899 -0.3320 -0.0338  0.0741
 2887SOL     OW11279   5.536   6.291   3.781 -0.4191  0.1059  0.4614
 2887SOL    HW211280   5.617   6.243   3.764 -1.2279 -1.2486  0.3299
 2887SOL    HW311281   5.468   6.224   3.787 -1.4075  1.1398  1.4414
 2887SOL    MW411282   5.538   6.276   3.779  0.0132  0.6995 -0.2671
 2888SOL     OW11283   0.860   0.602   4.601 -0.5899  0.8082  0.2971
 2888SOL    HW211284   0.941   0.588   4.550  0.4798  1.1079  1.8451
 2888SOL    HW311285   0.843   0.517   4.641  0.2415  1.2759  1.7203
 2888SOL    MW411286   0.869   0.589   4.599 -0.1699  0.1827 -0.2764
 2889SOL     OW11287   5.646   4.274   1.830  0.3172  0.1155 -0.4883
 2889SOL    HW211288   5.653   4.190   1.875 -1.2810  0.8152  1.2090
 2889SOL    HW311289   5.707   4.331   1.877  0.1906  0.3245 -0.5773
 2889SOL    MW411290   5.655   4.271   1.842 -0.1892  0.4802 -0.0531
 2890SOL     OW11291   3.694   1.720   5.879 -0.3805  0.3543 -0.2738
 2890SOL    HW211292   3.750   1.648   5.850 -1.2335 -0.2486 -0.4578
 2890SOL    HW311293   3.605   1.690   5.860 -0.8873  0.5184  1.6475
 2890SOL    MW411294   3.689   1.707   5.873  0.4948 -0.6271  0.0011
 2891SOL     OW11295   1.351   0.538   0.958  0.0060  0.0763  0.1019
 2891SOL    HW211296   1.391   0.617   0.993 -0.1115 -0.5535  1.7748
 2891SOL    HW311297   1.271   0.526   1.011  0.3940 -1.5178  0.3961
 2891SOL    MW411298   1.346   0.547   0.970 -0.2370 -0.0183 -0.2044
 2892SOL     OW11299   4.965   1.730   3.598 -0.4134  0.5132  0.9976
 2892SOL    HW211300   4.904   1.803   3.585 -1.4087 -0.2351  1.2610
 2892SOL    HW311301   4.918   1.670   3.656  0.5525 -0.1364  1.1346
 2892SOL    MW411302   4.950   1.732   3.604  0.2614  0.0500 -0.0404
 2893SOL     OW11303   0.727   1.203   5.705 -0.4186  0.3686  0.1335
 2893SOL    HW211304   0.678   1.285   5.715 -0.2212  0.7196 -1.4929
 2893SOL    HW311305   0.804   1.227   5.654  0.0910 -0.6789  0.3785
 2893SOL    MW411306   0.731   1.217   5.699  0.1689  0.1858 -0.4064
 2894SOL     OW11307   4.773   0.075   2.422  0.2951  0.4420 -0.1693
 2894SOL    HW211308   4.808   0.043   2.339 -1.9171 -1.4027 -0.5057
 2894SOL    HW311309   4.687   0.111   2.399 -0.1044  0.4237  1.2223
 2894SOL    MW411310   4.766   0.076   2.408 -0.2209  0.3715 -0.5871
 2895SOL     OW11311   4.399   2.594   3.382 -0.5554 -0.0003 -0.0935
 2895SOL    HW211312   4.400   2.672   3.326 -1.2278  1.4025  1.7609
 2895SOL    HW311313   4.354   2.621   3.461 -1.5316 -2.5250  0.3278
 2895SOL    MW411314   4.393   2.608   3.385  0.2481  0.1003 -0.0710
 2896SOL     OW11315   3.561   5.362   1.753 -0.3208 -0.2052 -0.0882
 2896SOL    HW211316   3.497   5.326   1.813  0.5422  0.1187  1.0604
 2896SOL    HW311317   3.532   5.452   1.738  1.0799  0.7227  2.3029
 2896SOL    MW411318   3.549   5.369   1.759 -0.0721 -0.2060  0.1493
 2897SOL     OW11319   1.700   6.422   4.077  0.5486 -0.0131 -0.4363
 2897SOL    HW211320   1.622   6.398   4.128  1.8537  0.0104  1.6930
 2897SOL    HW311321   1.733   6.501   4.119  2.4481 -0.7451 -0.4496
 2897SOL    MW411322   1.694   6.429   4.089 -0.1263 -1.0702 -0.3093
 2898SOL     OW11323   5.247   3.771   4.327 -0.0782 -0.2767  0.1585
 2898SOL    HW211324   5.343   3.780   4.322  0.0100 -1.3273 -0.5600
 2898SOL    HW311325   5.228   3.697   4.268 -1.5253  1.1216 -1.2303
 2898SOL    MW411326   5.257   3.763   4.318 -0.1277 -0.2072  0.1975
 2899SOL     OW11327   3.393   0.720   3.829 -0.4630 -0.2720  0.1779
 2899SOL    HW211328   3.358   0.766   3.753 -1.5495 -0.5449  0.4895
 2899SOL    HW311329   3.339   0.641   3.836 -0.0256 -0.5178  0.9071
 2899SOL    MW411330   3.381   0.715   3.820  0.2453  0.1396  0.6566
 2900SOL     OW11331   1.024   1.525   2.743 -0.5424 -0.0617  0.0177
 2900SOL    HW211332   1.083   1.485   2.679  0.9121  0.9182  0.6599
 2900SOL    HW311333   0.984   1.451   2.788  0.8272 -0.8028  0.0883
 2900SOL    MW411334   1.027   1.510   2.741  0.3324  0.3512  0.3553
 2901SOL     OW11335   4.672   1.679   5.096  0.1990  0.0019  0.2296
 2901SOL    HW211336   4.626   1.598   5.113  1.5608 -0.8479  0.0348
 2901SOL    HW311337   4.721   1.663   5.016 -0.3721  1.4144 -0.4317
 2901SOL    MW411338   4.673   1.666   5.088 -0.2919  0.2140 -0.3806
 2902SOL     OW11339   0.507   5.575   4.860 -0.2530  0.3532  0.0150
 2902SOL    HW211340   0.488   5.511   4.929 -2.5792  0.1997 -0.6919
 2902SOL    HW311341   0.471   5.657   4.894  0.7613  0.8265 -0.0203
 2902SOL    MW411342   0.500   5.577   4.874 -0.2292  0.0101 -0.2826
 2903SOL     OW11343   5.649   2.289   3.950  0.4133 -0.1025 -0.5013
 2903SOL    HW211344   5.650   2.281   3.854 -0.1578  2.6298 -0.8334
 2903SOL    HW311345   5.734   2.328   3.971 -0.1638  1.0077 -0.1505
 2903SOL    MW411346   5.661   2.293   3.940 -0.1888  0.1565 -0.2633
 2904SOL     OW11347   5.972   2.624   0.665  0.2544  0.2358  0.3155
 2904SOL    HW211348   6.062   2.610   0.693  0.4127 -1.5626 -0.9005
 2904SOL    HW311349   5.947   2.541   0.624 -0.8370  1.7304 -2.2901
 2904SOL    MW411350   5.981   2.611   0.663  0.7371  0.0452  0.0894
 2905SOL     OW11351   6.249   0.686   4.616  0.1218 -0.0595 -0.3834
 2905SOL    HW211352   6.341   0.663   4.605 -0.1441 -1.6900  0.4444
 2905SOL    HW311353   6.249   0.757   4.680  0.7007 -1.7194  1.5493
 2905SOL    MW411354   6.261   0.692   4.623  0.2477  0.4307  0.2379
 2906SOL     OW11355   2.341   4.623   4.755 -0.3821 -0.7466 -0.0444
 2906SOL    HW211356   2.312   4.693   4.697  0.3035  0.9393  1.5631
 2906SOL    HW311357   2.265   4.604   4.809 -0.2814 -0.5872  0.1511
 2906SOL    MW411358   2.327   4.630   4.754 -0.1030  0.4879 -0.3074
 2907SOL     OW11359   2.989   2.925   2.169  0.3970  0.1066 -0.4228
 2907SOL    HW211360   2.901   2.894   2.187  1.2731 -2.2192  0.2626
 2907SOL    HW311361   3.009   2.895   2.081  0.9594 -0.5786 -0.0752
 2907SOL    MW411362   2.980   2.917   2.160 -0.0052 -0.0866  0.2935
 2908SOL     OW11363   5.767   5.708   0.038 -0.2859  0.2667 -0.0933
 2908SOL    HW211364   5.839   5.672   0.090 -1.8768 -0.0632  2.0104
 2908SOL    HW311365   5.733   5.633  -0.011  0.2777  0.2622 -0.4898
 2908SOL    MW411366   5.772   5.693   0.038 -0.4782  0.6022  0.0716
 2909SOL     OW11367   3.992   0.712   2.961  0.0608 -0.3623 -0.0036
 2909SOL    HW211368   4.063   0.770   2.933 -0.6669  0.6214  0.1278
 2909SOL    HW311369   4.036   0.643   3.011  1.1837 -1.1960 -2.0250
 2909SOL    MW411370   4.008   0.711   2.964 -0.8403 -0.0991  0.4422
 2910SOL     OW11371   0.469   5.251   3.968 -0.0618 -0.2025  0.6443
 2910SOL    HW211372   0.527   5.194   3.918 -0.0241  0.4119 -0.0192
 2910SOL    HW311373   0.429   5.192   4.033 -0.1371 -1.0178 -0.1192
 2910SOL    MW411374   0.471   5.235   3.970 -0.0401 -0.4602 -0.3760
 2911SOL     OW11375   1.070   2.898   5.948 -0.2473 -0.0570  0.3663
 2911SOL    HW211376   1.022   2.951   6.012  0.2635  0.4270  0.3504
 2911SOL    HW311377   1.047   2.808   5.971 -0.0041  0.1059  1.2938
 2911SOL    MW411378   1.060   2.893   5.960  0.4451  0.1194 -0.0042
 2912SOL     OW11379   3.385   3.935   5.616 -0.9039  0.2337  0.2773
 2912SOL    HW211380   3.340   4.002   5.668 -0.4034  0.6337  0.2079
 2912SOL    HW311381   3.467   3.920   5.662  0.0284  1.3647 -0.9385
 2912SOL    MW411382   3.390   3.942   5.629  0.4901 -0.5108  0.0240
 2913SOL     OW11383   2.748   2.948   1.349 -0.1952  0.4388  0.1857
 2913SOL    HW211384   2.668   2.933   1.300  1.3568  0.8618 -2.7112
 2913SOL    HW311385   2.761   3.043   1.346  1.5036  0.2157 -1.4154
 2913SOL    MW411386   2.740   2.959   1.342 -0.5135 -0.1090  0.4997
 2914SOL     OW11387   0.780   5.015   1.362 -0.1234 -0.0907  0.4949
 2914SOL    HW211388   0.856   5.047   1.409 -0.4643 -0.2084  1.1335
 2914SOL    HW311389   0.714   5.083   1.373 -1.1593 -1.3431  2.6178
 2914SOL    MW411390   0.781   5.028   1.369  0.3497  0.4679 -0.4814
 2915SOL     OW11391   3.499   6.049   3.254 -0.2770 -0.4357  0.2303
 2915SOL    HW211392   3.585   6.015   3.280 -0.0476  0.0329  0.0965
 2915SOL    HW311393   3.436   5.996   3.303  0.1513  2.0740  3.9396
 2915SOL    MW411394   3.502   6.037   3.264  0.1038  0.0017  0.1808
 2916SOL     OW11395   5.363   5.031   1.003  0.6154  0.1809 -0.1993
 2916SOL    HW211396   5.367   5.049   0.909  0.6458 -0.0581 -0.2454
 2916SOL    HW311397   5.361   4.935   1.008 -1.2411  0.2046 -0.0330
 2916SOL    MW411398   5.364   5.020   0.991 -0.0978  0.5969  0.0943
 2917SOL     OW11399   0.484   0.482   2.303  0.1189  0.5080  0.2186
 2917SOL    HW211400   0.422   0.429   2.252  0.0794 -0.0936  0.8773
 2917SOL    HW311401   0.429   0.530   2.365  0.2340  0.6588  0.2042
 2917SOL    MW411402   0.469   0.481   2.304 -0.5446 -0.0285  0.0255
 2918SOL     OW11403   5.403   3.850   0.815  0.4624 -0.9096 -0.0499
 2918SOL    HW211404   5.309   3.851   0.795  0.7362 -2.2242 -1.5363
 2918SOL    HW311405   5.445   3.822   0.734  2.0320 -1.7630  1.0139
 2918SOL    MW411406   5.396   3.846   0.802 -0.3015  0.4052  0.2963
 2919SOL     OW11407   4.272   4.213   2.523  0.2844  0.3766 -0.5658
 2919SOL    HW211408   4.246   4.286   2.578  0.8089  0.5795 -0.5748
 2919SOL    HW311409   4.312   4.254   2.446  0.0527  0.0894 -0.8449
 2919SOL    MW411410   4.274   4.228   2.520  0.6228  0.7205  0.2427
 2920SOL     OW11411   4.172   3.355   1.435  0.9050  0.2516  0.0396
 2920SOL    HW211412   4.138   3.366   1.523  0.5139  2.1671 -0.3122
 2920SOL    HW311413   4.266   3.374   1.443  0.8978  0.2786  0.0593
 2920SOL    MW411414   4.180   3.359   1.447 -0.2779 -0.3624 -0.0362
 2921SOL     OW11415   5.631   1.595   6.084  0.1053 -0.5354  0.3416
 2921SOL    HW211416   5.611   1.515   6.134 -4.4448  1.4028  2.1774
 2921SOL    HW311417   5.679   1.650   6.145 -1.2617  0.0006  0.9731
 2921SOL    MW411418   5.634   1.591   6.099  0.2788 -0.0282 -0.2647
 2922SOL     OW11419   1.204   1.532   5.787 -0.0847  0.3486  0.2551
 2922SOL    HW211420   1.274   1.469   5.771  0.8823  1.6059 -0.6561
 2922SOL    HW311421   1.237   1.615   5.753 -2.0279  1.0016 -0.2001
 2922SOL    MW411422   1.217   1.535   5.781 -0.1887 -0.2331 -0.8424
 2923SOL     OW11423   3.891   2.061   0.804  0.1454 -0.3637 -0.2555
 2923SOL    HW211424   3.910   2.005   0.880 -0.4342 -0.1637  0.0475
 2923SOL    HW311425   3.796   2.051   0.791  0.4477 -1.4569 -1.8148
 2923SOL    MW411426   3.881   2.052   0.813  0.3024 -0.6928  0.6145
 2924SOL     OW11427   3.415   5.832   4.815  0.6057  0.1254 -0.1414
 2924SOL    HW211428   3.493   5.864   4.768  0.8794  0.5073  0.5574
 2924SOL    HW311429   3.388   5.755   4.765  1.1770  0.2374 -0.6482
 2924SOL    MW411430   3.422   5.826   4.802 -0.2362  0.1202 -0.2901
 2925SOL     OW11431   5.480   1.385   3.926 -0.0823 -0.2062  0.0043
 2925SOL    HW211432   5.568   1.381   3.964  0.3131 -0.4597 -0.9129
 2925SOL    HW311433   5.484   1.327   3.850 -0.3080  1.6419 -1.5032
 2925SOL    MW411434   5.492   1.377   3.921  0.2638  0.6594  0.4799
 2926SOL     OW11435   1.853   5.523   6.242 -0.1694  0.8853  0.3084
 2926SOL    HW211436   1.922   5.474   6.197 -1.0648 -0.7235  0.6215
 2926SOL    HW311437   1.855   5.610   6.201  1.6057  0.6947 -0.1160
 2926SOL    MW411438   1.862   5.528   6.231  0.3692 -0.6988  0.5216
 2927SOL     OW11439   3.629   3.537   5.462  0.3312  0.4283 -0.2534
 2927SOL    HW211440   3.555   3.556   5.404  0.8685  3.5935 -0.0581
 2927SOL    HW311441   3.597   3.559   5.550  0.3045 -2.0062  0.4145
 2927SOL    MW411442   3.615   3.542   5.466 -0.0628  0.1675  0.8967
 2928SOL     OW11443   3.857   2.014   5.731 -0.1537  0.2145  0.1062
 2928SOL    HW211444   3.883   1.995   5.641  1.1283  2.0178  0.0189
 2928SOL    HW311445   3.927   1.977   5.784  0.1166  0.8450  0.2048
 2928SOL    MW411446   3.870   2.007   5.726  0.3455 -0.0074 -0.2008
 2929SOL     OW11447   5.081   5.101   5.003  0.2398  0.1731 -0.1214
 2929SOL    HW211448   5.162   5.151   4.991  0.8201 -0.7926 -0.3482
 2929SOL    HW311449   5.034   5.147   5.073  1.3269  0.3370  0.5246
 2929SOL    MW411450   5.085   5.114   5.011 -0.1562  0.1052 -0.2980
 2930SOL     OW11451   5.086   3.417   5.954 -0.2357  0.8444  0.2713
 2930SOL    HW211452   5.020   3.383   5.893 -0.7365  2.4669 -0.1434
 2930SOL    HW311453   5.120   3.496   5.911 -0.0579  1.6117  1.7475
 2930SOL    MW411454   5.082   3.423   5.940  0.2203  0.0440 -0.1541
 2931SOL     OW11455   3.450   4.698   0.827  0.2759 -0.4627 -0.2309
 2931SOL    HW211456   3.445   4.742   0.743 -0.6976  0.8223  0.4499
 2931SOL    HW311457   3.406   4.758   0.888 -0.1460 -1.9055  0.9521
 2931SOL    MW411458   3.443   4.712   0.824  0.0068 -0.4809 -0.2304
 2932SOL     OW11459   3.730   4.527   6.299  0.2810  0.2434 -0.0356
 2932SOL    HW211460   3.660   4.461   6.299  0.0354  0.4869  0.8595
 2932SOL    HW311461   3.792   4.496   6.234  0.6955 -1.4524  1.0906
 2932SOL    MW411462   3.729   4.514   6.291 -0.4339 -0.0655 -0.1105
 2933SOL     OW11463   2.420   2.023   1.243 -0.0754 -0.4782 -0.4170
 2933SOL    HW211464   2.353   1.965   1.207  0.0579  0.2061 -1.8764
 2933SOL    HW311465   2.372   2.100   1.271 -0.0965 -0.7221  0.2218
 2933SOL    MW411466   2.405   2.025   1.242  0.2958 -0.1554  0.2546
 2934SOL     OW11467   5.441   1.522   4.563 -0.3628 -0.4188  0.2340
 2934SOL    HW211468   5.415   1.493   4.475 -0.0914 -0.5924  0.2116
 2934SOL    HW311469   5.524   1.568   4.549 -0.9117  0.6100  0.2269
 2934SOL    MW411470   5.449   1.524   4.549 -0.4207 -0.3506 -0.1699
 2935SOL     OW11471   0.995   2.934   1.850 -0.0425  0.0342 -0.2281
 2935SOL    HW211472   0.947   2.867   1.801  1.6021 -1.2589 -0.1371
 2935SOL    HW311473   1.062   2.886   1.899  0.5493  1.6476  0.6243
 2935SOL    MW411474   0.998   2.919   1.850  0.5912 -0.0555 -0.0088
 2936SOL     OW11475   2.733   3.330   5.302 -0.2367  0.1897 -0.4860
 2936SOL    HW211476   2.766   3.303   5.217  0.8025 -0.3465  0.0682
 2936SOL    HW311477   2.749   3.424   5.306  0.2293  0.1161 -0.6533
 2936SOL    MW411478   2.739   3.339   5.291 -0.0647 -0.2681 -0.2405
 2937SOL     OW11479   1.140   5.661   4.407  0.0499  0.3141  0.2738
 2937SOL    HW211480   1.194   5.739   4.420  1.2197 -0.3759 -0.2192
 2937SOL    HW311481   1.181   5.594   4.462  0.6679 -0.6362 -1.2705
 2937SOL    MW411482   1.153   5.662   4.416  0.1467  0.1734  0.7104
 2938SOL     OW11483   0.952   3.417   1.359 -0.3013  0.1956 -0.7891
 2938SOL    HW211484   1.026   3.400   1.417 -0.5307  0.9743 -0.2404
 2938SOL    HW311485   0.969   3.364   1.282  1.0448  0.6556 -0.8455
 2938SOL    MW411486   0.964   3.408   1.357  0.7382  0.0213  0.0145
 2939SOL     OW11487   4.499   4.547   0.378 -0.3405  0.1052 -0.7557
 2939SOL    HW211488   4.533   4.474   0.326  0.2568  0.2560 -0.5907
 2939SOL    HW311489   4.549   4.544   0.459 -0.6844  0.3742 -0.5309
 2939SOL    MW411490   4.510   4.537   0.381 -0.4551 -0.2699  0.6064
 2940SOL     OW11491   1.840   2.704   4.007  0.6446 -0.6626  0.1663
 2940SOL    HW211492   1.835   2.772   3.939 -0.6694 -0.4635  0.4393
 2940SOL    HW311493   1.910   2.733   4.065  0.5562  0.1132 -0.1055
 2940SOL    MW411494   1.848   2.717   4.006  0.1522 -0.8174 -0.8759
 2941SOL     OW11495   0.834   5.532   2.291 -0.0133  0.0646  0.2787
 2941SOL    HW211496   0.927   5.523   2.268  0.0230 -0.3385  0.5712
 2941SOL    HW311497   0.824   5.625   2.312  0.1808  0.2358 -0.3615
 2941SOL    MW411498   0.845   5.543   2.291 -0.1439  0.3254  0.3411
 2942SOL     OW11499   3.177   6.182   6.120 -0.3640  0.0525  0.6894
 2942SOL    HW211500   3.200   6.163   6.029  0.8420 -0.1241  1.0133
 2942SOL    HW311501   3.201   6.275   6.131 -0.3141  0.0172  0.8791
 2942SOL    MW411502   3.183   6.192   6.110  0.5436 -0.0829 -0.1264
 2943SOL     OW11503   3.390   6.402   2.575 -0.0519  0.0055  0.0969
 2943SOL    HW211504   3.376   6.478   2.519 -0.8696  0.7769  1.3031
 2943SOL    HW311505   3.303   6.375   2.603  0.3652  0.3175  1.8424
 2943SOL    MW411506   3.377   6.408   2.572  0.0610 -0.2249 -0.2344
 2944SOL     OW11507   1.041   4.827   0.076 -0.2527  0.7076 -0.0113
 2944SOL    HW211508   1.026   4.807   0.168  0.5849 -1.1517 -0.2422
 2944SOL    HW311509   1.135   4.816   0.064 -0.2148  1.7877 -0.9278
 2944SOL    MW411510   1.051   4.823   0.086  0.3227 -1.0861 -0.6997
 2945SOL     OW11511   1.051   6.010   4.967  0.5209  0.3199 -0.0134
 2945SOL    HW211512   1.018   6.097   4.945 -0.4391 -0.2309 -0.8159
 2945SOL    HW311513   0.977   5.964   5.005  0.9139 -0.2748  0.0534
 2945SOL    MW411514   1.037   6.015   4.969  0.0262  0.4598  0.0006
 2946SOL     OW11515   3.093   4.768   1.806 -0.2958 -0.2623 -0.3331
 2946SOL    HW211516   3.097   4.674   1.788 -2.5114 -0.9264  2.0180
 2946SOL    HW311517   3.013   4.798   1.762  0.9854  0.8402 -2.0302
 2946SOL    MW411518   3.083   4.760   1.798 -0.0884  0.2014  0.2054
 2947SOL     OW11519   3.588   3.093   5.933 -0.1661 -0.0280 -0.2532
 2947SOL    HW211520   3.672   3.088   5.977 -0.6641 -2.6866  0.5568
 2947SOL    HW311521   3.525   3.113   6.002 -0.4576 -0.1710 -0.4735
 2947SOL    MW411522   3.591   3.095   5.948  0.5140  0.0734 -0.3981
 2948SOL     OW11523   2.365   5.490   5.707 -0.0284  0.4527  0.3775
 2948SOL    HW211524   2.323   5.509   5.791 -3.3876 -0.3583 -0.9612
 2948SOL    HW311525   2.421   5.566   5.690 -0.6609  1.4620  2.4895
 2948SOL    MW411526   2.367   5.502   5.716  0.0450  0.2129  0.4434
 2949SOL     OW11527   0.192   1.616   0.640 -0.0840 -0.0875 -0.1638
 2949SOL    HW211528   0.228   1.654   0.720  0.5670  1.0602 -0.9813
 2949SOL    HW311529   0.242   1.657   0.569 -0.4126 -1.3324 -1.1559
 2949SOL    MW411530   0.204   1.626   0.642 -0.0752  0.4563 -0.0181
 2950SOL     OW11531   6.078   4.567   3.319 -0.2894  0.4312 -0.1008
 2950SOL    HW211532   6.098   4.649   3.366  1.5059  0.5299 -0.9460
 2950SOL    HW311533   6.099   4.498   3.382  1.7013  0.5749 -0.5293
 2950SOL    MW411534   6.084   4.569   3.334 -0.0708  0.4025  0.0690
 2951SOL     OW11535   5.869   4.625   6.319  0.0510 -0.3261 -0.4523
 2951SOL    HW211536   5.883   4.627   6.224  0.9609 -0.5767 -0.3322
 2951SOL    HW311537   5.860   4.532   6.339  0.5214 -0.3194 -0.2039
 2951SOL    MW411538   5.869   4.613   6.309  0.1757 -0.2100  0.0659
 2952SOL     OW11539   3.779   2.294   5.685 -0.3466 -0.0268 -0.1135
 2952SOL    HW211540   3.826   2.356   5.741  1.4862 -0.4994 -1.0489
 2952SOL    HW311541   3.808   2.208   5.715  1.0374 -0.2890 -1.9808
 2952SOL    MW411542   3.789   2.291   5.696 -0.9606  0.8209  0.3076
 2953SOL     OW11543   4.748   2.575   0.287  0.3007  0.3737 -0.1621
 2953SOL    HW211544   4.796   2.627   0.351 -0.9419  0.4846  0.7174
 2953SOL    HW311545   4.700   2.640   0.234  0.5892  0.2331 -0.6041
 2953SOL    MW411546   4.748   2.591   0.288  0.5839 -0.9333 -0.1919
 2954SOL     OW11547   4.869   2.782   2.709  0.2153  0.4102  0.2311
 2954SOL    HW211548   4.785   2.737   2.724  0.2311  0.3800  0.2310
 2954SOL    HW311549   4.929   2.740   2.771 -0.3348  2.0738  2.0222
 2954SOL    MW411550   4.866   2.770   2.719 -0.6622 -0.3427 -0.2976
 2955SOL     OW11551   1.109   2.389   2.652  0.2061 -0.0842  0.0642
 2955SOL    HW211552   1.163   2.325   2.699 -0.0809  0.2065  0.8092
 2955SOL    HW311553   1.157   2.471   2.660  0.2407 -0.0703 -0.3033
 2955SOL    MW411554   1.123   2.392   2.660 -0.0425 -0.0135  0.2811
 2956SOL     OW11555   5.537   4.501   5.433 -0.2166 -0.2793 -0.1626
 2956SOL    HW211556   5.465   4.489   5.495  1.9695  0.0110  2.6290
 2956SOL    HW311557   5.526   4.591   5.401  0.7300  1.1275  3.0107
 2956SOL    MW411558   5.526   4.511   5.437 -0.0062  0.2046 -0.0524
 2957SOL     OW11559   0.513   3.337   6.034 -0.5925 -0.0235 -0.3811
 2957SOL    HW211560   0.490   3.357   6.125  0.1377 -0.9201  0.0238
 2957SOL    HW311561   0.489   3.245   6.023 -0.0971 -0.0965 -0.8938
 2957SOL    MW411562   0.507   3.328   6.045  0.6316  0.2123  0.0013
 2958SOL     OW11563   3.167   5.163   0.906 -0.3106 -0.1578 -0.1971
 2958SOL    HW211564   3.090   5.115   0.877 -0.4243  0.3247 -0.7327
 2958SOL    HW311565   3.236   5.134   0.847 -0.5829  0.9628 -1.1076
 2958SOL    MW411566   3.166   5.153   0.894 -0.2928 -0.3969  0.1063
 2959SOL     OW11567   2.524   1.526   0.438 -0.3261  0.1017  0.3299
 2959SOL    HW211568   2.511   1.470   0.362 -2.0422  0.7718  0.0803
 2959SOL    HW311569   2.547   1.466   0.509  0.0677 -0.6587 -0.4184
 2959SOL    MW411570   2.525   1.511   0.437  0.3638 -0.4777 -0.8122
 2960SOL     OW11571   3.383   0.114   4.150  0.1003  0.5075 -0.0563
 2960SOL    HW211572   3.379   0.173   4.225  0.1706  0.0759  0.2917
 2960SOL    HW311573   3.356   0.029   4.184 -0.0129  0.3362 -0.5552
 2960SOL    MW411574   3.379   0.110   4.164  0.0588  0.2317  0.0970
 2961SOL     OW11575   4.162   0.174   3.247 -0.9914  0.9630 -0.6622
 2961SOL    HW211576   4.236   0.230   3.225  0.1964 -0.3486 -0.1556
 2961SOL    HW311577   4.156   0.113   3.173 -0.4480 -0.0142  0.0730
 2961SOL    MW411578   4.171   0.173   3.234  0.3792  0.6422 -0.0557
 2962SOL     OW11579   1.589   0.902   2.176 -0.0733 -0.2770  0.7942
 2962SOL    HW211580   1.624   0.848   2.246 -0.2539 -0.1982  0.9464
 2962SOL    HW311581   1.605   0.992   2.206 -1.6802 -0.1985  1.5432
 2962SOL    MW411582   1.595   0.907   2.189  0.7416 -0.0145 -0.2851
 2963SOL     OW11583   3.897   4.394   1.221  0.2043  1.4424  0.6199
 2963SOL    HW211584   3.904   4.441   1.138 -0.5915 -0.0127 -0.3142
 2963SOL    HW311585   3.803   4.385   1.236  0.3451  0.1271  0.7614
 2963SOL    MW411586   3.885   4.399   1.212  0.1305 -0.2968 -0.5305
 2964SOL     OW11587   4.461   3.491   5.493 -0.1913 -0.1034  0.5603
 2964SOL    HW211588   4.502   3.405   5.483  0.3753  0.2629 -0.3579
 2964SOL    HW311589   4.403   3.480   5.568  0.0088 -1.2355  0.5808
 2964SOL    MW411590   4.459   3.478   5.502  0.5696  0.2590  0.0402
 2965SOL     OW11591   5.205   1.971   4.674 -0.1601 -0.5470 -0.0385
 2965SOL    HW211592   5.114   1.989   4.654  0.2806 -0.6099 -2.3763
 2965SOL    HW311593   5.255   2.032   4.619  1.2151 -2.0932 -0.6085
 2965SOL    MW411594   5.200   1.982   4.664 -0.3046 -0.3376 -0.0200
 2966SOL     OW11595   0.361   4.581   3.255 -0.1077 -0.5727 -0.3561
 2966SOL    HW211596   0.449   4.560   3.224  0.6860  1.6157  0.2129
 2966SOL    HW311597   0.350   4.674   3.234 -2.6538 -0.9715 -1.2155
 2966SOL    MW411598   0.371   4.591   3.248  0.1744 -0.1862  0.4739
 2967SOL     OW11599   5.208   1.200   3.488 -0.2468 -0.0161 -0.4696
 2967SOL    HW211600   5.300   1.203   3.512  0.1002 -2.7782 -1.0885
 2967SOL    HW311601   5.206   1.149   3.407 -2.3464 -0.5335 -0.1508
 2967SOL    MW411602   5.220   1.193   3.481 -0.0966 -0.1568  0.0064
 2968SOL     OW11603   4.059   0.321   0.313  0.2787  0.0539 -0.5996
 2968SOL    HW211604   4.079   0.229   0.293  1.1984 -0.0058  0.4466
 2968SOL    HW311605   4.142   0.356   0.345 -0.2494  1.0578 -0.3124
 2968SOL    MW411606   4.073   0.313   0.315 -0.2083 -0.7306  0.3324
 2969SOL     OW11607   4.324   2.750   1.994 -0.7104 -0.0715 -0.4864
 2969SOL    HW211608   4.394   2.689   2.013  0.6864  1.4889 -0.3778
 2969SOL    HW311609   4.253   2.725   2.053  0.5271 -0.4004  0.9161
 2969SOL    MW411610   4.324   2.739   2.004 -0.1092 -0.2001 -0.2538
 2970SOL     OW11611   3.786   5.824   2.157  0.0355 -0.1318  0.6152
 2970SOL    HW211612   3.795   5.832   2.062  1.0305  1.0495  0.7973
 2970SOL    HW311613   3.691   5.825   2.172 -0.1245 -0.2104 -0.3465
 2970SOL    MW411614   3.775   5.825   2.147  0.6277 -0.0789  0.8111
 2971SOL     OW11615   0.303   4.008   2.945  0.2333  0.0605  0.3813
 2971SOL    HW211616   0.371   3.954   2.984 -0.0748 -0.1838  0.5751
 2971SOL    HW311617   0.350   4.063   2.881  0.5597 -0.3359  0.2808
 2971SOL    MW411618   0.318   4.008   2.941 -0.4762  0.0558 -0.5384
 2972SOL     OW11619   3.812   5.116   3.672 -0.0533  0.2954  0.0480
 2972SOL    HW211620   3.771   5.052   3.731 -1.1182  1.6039  0.7924
 2972SOL    HW311621   3.738   5.155   3.625  0.8010 -1.3699 -2.9659
 2972SOL    MW411622   3.797   5.112   3.674 -0.4135 -0.0602  0.0964
 2973SOL     OW11623   5.522   5.404   4.571 -0.1717 -0.1075  0.4802
 2973SOL    HW211624   5.510   5.378   4.662 -1.4919 -0.4530  0.2322
 2973SOL    HW311625   5.545   5.323   4.525 -0.6901 -0.1672  0.3169
 2973SOL    MW411626   5.523   5.390   4.577 -0.0136  0.3086 -0.3552
 2974SOL     OW11627   0.788   5.098   0.644 -0.5399  0.2375 -0.1622
 2974SOL    HW211628   0.854   5.083   0.576  0.1060  1.9727  0.0544
 2974SOL    HW311629   0.830   5.069   0.725 -0.5932 -0.0280 -0.2286
 2974SOL    MW411630   0.802   5.092   0.646  0.5908  0.6234  0.0352
 2975SOL     OW11631   2.271   0.516   5.922  0.7342 -0.3041 -0.6071
 2975SOL    HW211632   2.274   0.422   5.940  1.5600 -0.5089 -1.7051
 2975SOL    HW311633   2.202   0.549   5.978 -0.4859 -1.7940 -1.1660
 2975SOL    MW411634   2.263   0.508   5.931 -0.1381 -0.2191  0.2086
 2976SOL     OW11635   1.746   3.665   6.214  0.7725  0.4763 -0.3178
 2976SOL    HW211636   1.670   3.659   6.155  0.7392 -0.2447 -0.2193
 2976SOL    HW311637   1.780   3.753   6.202 -1.7588  1.8773  1.6872
 2976SOL    MW411638   1.740   3.676   6.205  0.0598 -0.1243  0.3588
 2977SOL     OW11639   0.262   2.041   1.634 -0.4749  0.0092 -0.0296
 2977SOL    HW211640   0.275   1.947   1.646 -1.4515 -0.2872 -1.1259
 2977SOL    HW311641   0.224   2.071   1.716 -2.4646 -1.0441 -0.4966
 2977SOL    MW411642   0.258   2.033   1.646  0.1741  0.0687 -0.1223
 2978SOL     OW11643   2.769   2.907   3.642  0.3067 -0.1112 -0.0553
 2978SOL    HW211644   2.697   2.860   3.684 -0.4532  1.5653  0.6204
 2978SOL    HW311645   2.829   2.926   3.714  1.6353 -1.7741 -0.6665
 2978SOL    MW411646   2.767   2.903   3.657  0.1123 -0.2621  0.0488
 2979SOL     OW11647   2.519   5.480   2.630 -0.1126 -0.6124 -0.1903
 2979SOL    HW211648   2.573   5.409   2.663 -0.8450 -1.5118 -0.8622
 2979SOL    HW311649   2.503   5.458   2.538  0.4780  0.9514 -0.7031
 2979SOL    MW411650   2.524   5.468   2.622 -0.3553 -0.5859 -0.0304
 2980SOL     OW11651   0.642   3.309   0.169  0.4598 -0.3005 -0.4006
 2980SOL    HW211652   0.736   3.320   0.158  0.1503  1.7688 -1.6117
 2980SOL    HW311653   0.615   3.249   0.100  0.6058  1.0066 -1.6416
 2980SOL    MW411654   0.651   3.303   0.159 -0.2772 -0.1062  0.7044
 2981SOL     OW11655   0.542   3.620   0.997 -0.4181 -0.5690  0.1148
 2981SOL    HW211656   0.495   3.551   0.949  1.0948 -1.0384 -0.7623
 2981SOL    HW311657   0.616   3.574   1.038  1.0676  0.6219 -1.1259
 2981SOL    MW411658   0.546   3.605   0.996  0.0551  0.1312 -0.0905
 2982SOL     OW11659   0.090   6.284   6.144  0.3960  0.3323  0.7185
 2982SOL    HW211660   0.025   6.218   6.121  0.1861  0.3810  1.1510
 2982SOL    HW311661   0.174   6.239   6.135  0.2609  0.0413  0.8902
 2982SOL    MW411662   0.092   6.269   6.140 -0.4686  0.2028 -0.1920
 2983SOL     OW11663   0.814   3.019   0.122 -0.0615 -0.2320  0.1871
 2983SOL    HW211664   0.832   3.110   0.096  0.1534  0.5454  2.7895
 2983SOL    HW311665   0.898   2.986   0.153 -0.1633 -1.3354 -0.6368
 2983SOL    MW411666   0.828   3.027   0.123 -0.0830 -0.2397  0.5837
 2984SOL     OW11667   3.098   0.070   3.685 -0.4087 -0.2491 -0.2441
 2984SOL    HW211668   3.009   0.101   3.667 -0.8188 -2.0229 -1.5879
 2984SOL    HW311669   3.152   0.110   3.617 -0.2191  0.5600  0.3694
 2984SOL    MW411670   3.093   0.079   3.674 -0.3498 -0.5151  0.1690
 2985SOL     OW11671   5.199   0.521   4.696 -0.3324 -0.0926  0.2810
 2985SOL    HW211672   5.281   0.486   4.662  0.2378  0.7711  0.7390
 2985SOL    HW311673   5.139   0.520   4.622  0.2380 -0.2642 -0.1786
 2985SOL    MW411674   5.202   0.516   4.682 -0.1765  1.0570 -0.9111
 2986SOL     OW11675   0.465   1.549   2.897 -0.1571  0.5947  0.4378
 2986SOL    HW211676   0.379   1.517   2.921 -0.9802  3.3923  1.6725
 2986SOL    HW311677   0.468   1.541   2.802 -0.9955 -1.2588  0.5340
 2986SOL    MW411678   0.454   1.544   2.888  0.0655  0.3344 -0.2106
 2987SOL     OW11679   2.063   1.334   0.116  0.6181  0.0632  0.6032
 2987SOL    HW211680   2.118   1.411   0.129 -0.1911  1.1464 -1.8035
 2987SOL    HW311681   1.974   1.364   0.133  0.5043 -1.1393  2.4266
 2987SOL    MW411682   2.058   1.348   0.120  0.1419 -0.1291 -0.2694
 2988SOL     OW11683   6.182   0.851   5.079  0.4237  0.0287  0.3820
 2988SOL    HW211684   6.247   0.797   5.034  0.9556  1.1332 -0.1913
 2988SOL    HW311685   6.138   0.899   5.009 -1.2006 -0.8620  0.7331
 2988SOL    MW411686   6.184   0.850   5.064 -0.9336 -0.1373 -0.3247
 2989SOL     OW11687   2.570   6.437   4.150  0.1219 -0.2051  0.2440
 2989SOL    HW211688   2.553   6.461   4.241 -0.1511  2.5730 -0.4612
 2989SOL    HW311689   2.497   6.474   4.101 -0.2848 -2.5483 -1.0440
 2989SOL    MW411690   2.558   6.445   4.156 -0.5028 -0.2705  0.5960
 2990SOL     OW11691   0.214   0.053   0.697 -0.0108 -0.4593  0.2256
 2990SOL    HW211692   0.154   0.020   0.631  0.2363  0.7532 -0.6203
 2990SOL    HW311693   0.268  -0.023   0.720 -2.4058 -1.8367  1.6880
 2990SOL    MW411694   0.213   0.038   0.692  0.1587 -0.1823 -0.2808
 2991SOL     OW11695   0.295   6.133   0.593 -0.1680  0.3996  0.2600
 2991SOL    HW211696   0.301   6.141   0.688 -0.5661 -0.8602  0.4120
 2991SOL    HW311697   0.352   6.202   0.559  1.0257  0.0261  1.4276
 2991SOL    MW411698   0.304   6.143   0.601  0.8915  0.2774 -0.3142
 2992SOL     OW11699   3.672   5.618   3.943 -0.5064  0.0198 -0.3318
 2992SOL    HW211700   3.725   5.682   3.896 -0.1520 -0.0703 -0.0626
 2992SOL    HW311701   3.672   5.648   4.034 -0.6016 -0.1880 -0.2601
 2992SOL    MW411702   3.679   5.630   3.949  0.1801  0.3729  0.3165
 2993SOL     OW11703   1.975   3.765   0.419  0.1846  0.3641  0.1830
 2993SOL    HW211704   1.987   3.692   0.479  1.6783 -0.4606 -1.0359
 2993SOL    HW311705   2.041   3.830   0.446  2.0061 -0.6839 -1.4454
 2993SOL    MW411706   1.985   3.764   0.430 -0.4526 -0.3223  0.2459
 2994SOL     OW11707   4.887   6.327   3.497 -0.3414 -0.1928 -0.0600
 2994SOL    HW211708   4.912   6.410   3.538  0.4507 -0.3694 -0.1806
 2994SOL    HW311709   4.906   6.261   3.564  1.1509 -0.5043 -0.7579
 2994SOL    MW411710   4.893   6.329   3.512 -0.1697  0.2404 -0.1389
 2995SOL     OW11711   1.151   2.066   0.505 -0.6212 -0.2206  0.2838
 2995SOL    HW211712   1.086   2.111   0.450 -0.2313 -0.5252 -0.4381
 2995SOL    HW311713   1.123   1.974   0.504 -0.1532 -0.3605 -0.0721
 2995SOL    MW411714   1.139   2.060   0.498  0.1609 -0.2977  0.0989
 2996SOL     OW11715   1.968   3.305   2.598  0.2341 -0.3818 -0.1430
 2996SOL    HW211716   1.882   3.281   2.634 -0.2436 -1.4354 -1.8498
 2996SOL    HW311717   2.001   3.224   2.560  1.5924  0.2258 -0.3020
 2996SOL    MW411718   1.961   3.291   2.597  0.5369  0.2913  0.8893
 2997SOL     OW11719   0.730   2.746   4.642 -0.0916  0.2308 -0.9114
 2997SOL    HW211720   0.784   2.675   4.608  1.4309  1.8017 -1.9200
 2997SOL    HW311721   0.774   2.773   4.723 -1.7696 -1.1858  0.5807
 2997SOL    MW411722   0.743   2.740   4.648  0.2724 -0.2462  0.1528
 2998SOL     OW11723   5.393   3.418   1.646 -0.1663  0.0578  0.1375
 2998SOL    HW211724   5.350   3.388   1.726  0.2892  0.8325  0.6835
 2998SOL    HW311725   5.482   3.441   1.673 -0.7015  2.6194 -0.0780
 2998SOL    MW411726   5.399   3.417   1.660  0.8967 -0.1973 -0.4725
 2999SOL     OW11727   0.375   5.692   2.316 -0.2015  0.1261 -0.1536
 2999SOL    HW211728   0.446   5.748   2.349  0.8893 -0.0974 -1.9480
 2999SOL    HW311729   0.295   5.739   2.338  0.6070  1.4201  0.1451
 2999SOL    MW411730   0.374   5.706   2.323 -0.3145 -0.2196  0.4278
 3000SOL     OW11731   4.951   4.641   2.924  0.1853  0.0605 -0.2087
 3000SOL    HW211732   4.938   4.598   3.008 -0.7256 -3.4539 -1.9455
 3000SOL    HW311733   5.045   4.632   2.907  0.2324  0.0427  0.0510
 3000SOL    MW411734   4.962   4.634   2.933 -0.7389 -0.7582 -0.1300
 3001SOL     OW11735   6.332   1.241   5.624 -0.2212 -0.2008 -0.2462
 3001SOL    HW211736   6.347   1.326   5.582 -1.1802  0.8922  1.4804
 3001SOL    HW311737   6.319   1.180   5.552 -0.9749  1.4178 -1.5429
 3001SOL    MW411738   6.332   1.244   5.609  0.4112 -0.0532 -0.0914
 3002SOL     OW11739   1.128   1.127   1.329  0.0964 -0.6295  0.1832
 3002SOL    HW211740   1.212   1.150   1.289  0.6490 -0.2444  1.4960
 3002SOL    HW311741   1.086   1.211   1.347 -1.3976 -0.8134 -2.0201
 3002SOL    MW411742   1.133   1.141   1.326 -0.0676 -0.0745  0.2242
 3003SOL     OW11743   1.865   1.433   2.816 -0.3685 -0.1957  0.3014
 3003SOL    HW211744   1.893   1.505   2.760  1.7443 -0.6244  0.7074
 3003SOL    HW311745   1.816   1.375   2.757 -0.6772  0.7481 -0.4013
 3003SOL    MW411746   1.862   1.435   2.801 -0.6249 -0.3172  0.4604
 3004SOL     OW11747   5.314   4.120   6.272  0.2662  0.2093  0.5854
 3004SOL    HW211748   5.342   4.058   6.205 -0.4799 -0.4678  0.8928
 3004SOL    HW311749   5.273   4.192   6.223 -0.5438 -0.4186  0.3156
 3004SOL    MW411750   5.312   4.122   6.257 -0.4864 -0.3022  0.2494
 3005SOL     OW11751   4.768   6.034   0.586 -0.1356  0.1078  0.1241
 3005SOL    HW211752   4.787   5.969   0.654  1.9441 -0.1893 -0.6334
 3005SOL    HW311753   4.763   6.117   0.632 -0.0783 -0.2529  0.7901
 3005SOL    MW411754   4.770   6.036   0.601  0.2566 -0.3193 -0.4999
 3006SOL     OW11755   4.550   5.880   1.547 -0.3163 -0.2589  0.0511
 3006SOL    HW211756   4.476   5.851   1.600  0.5991  1.2109  2.2621
 3006SOL    HW311757   4.563   5.971   1.572  1.2159  0.0211 -1.5581
 3006SOL    MW411758   4.542   5.888   1.557  0.1638 -0.4537 -0.5397
 3007SOL     OW11759   2.849   2.816   2.697 -0.7069  0.6649  0.2341
 3007SOL    HW211760   2.815   2.730   2.720  0.7618  0.4227  1.6869
 3007SOL    HW311761   2.842   2.868   2.777 -2.0364  2.1077 -0.7408
 3007SOL    MW411762   2.843   2.812   2.710  0.5908  0.4362 -0.2603
 3008SOL     OW11763   1.557   4.917   6.210  0.3825 -0.1716  0.0090
 3008SOL    HW211764   1.595   4.829   6.211  0.4939 -0.1230  0.0857
 3008SOL    HW311765   1.616   4.967   6.154  0.4970 -0.0664  0.2241
 3008SOL    MW411766   1.570   4.912   6.203  0.0477 -0.4637  0.0359
 3009SOL     OW11767   5.948   3.217   2.413  0.5174 -0.4595  0.5317
 3009SOL    HW211768   5.911   3.305   2.399  3.0868  1.0609  2.4392
 3009SOL    HW311769   5.994   3.197   2.331  0.9912  0.5770  0.5268
 3009SOL    MW411770   5.949   3.226   2.400  0.2481  0.0247  0.6493
 3010SOL     OW11771   1.280   1.560   6.307 -1.1296  0.1389  0.0761
 3010SOL    HW211772   1.266   1.586   6.216 -1.0240  0.6447  0.2034
 3010SOL    HW311773   1.234   1.476   6.314 -1.2655  0.1657 -0.4029
 3010SOL    MW411774   1.272   1.552   6.296 -0.5096  0.1797 -0.2960
 3011SOL     OW11775   2.748   4.580   1.308  0.6498  0.1061  0.2469
 3011SOL    HW211776   2.743   4.673   1.330  0.5552 -0.3306  2.2781
 3011SOL    HW311777   2.841   4.562   1.294  0.4703  1.0524 -3.1761
 3011SOL    MW411778   2.759   4.590   1.309  0.1029  0.0448 -0.2111
 3012SOL     OW11779   5.438   4.774   0.320 -0.4382  0.3711  0.3219
 3012SOL    HW211780   5.505   4.707   0.307 -1.1972 -0.2067 -0.7545
 3012SOL    HW311781   5.382   4.740   0.390  0.5536  1.0163  1.4758
 3012SOL    MW411782   5.440   4.761   0.328  0.1692 -0.1138  0.3404
 3013SOL     OW11783   1.615   1.016   4.099 -0.2089 -0.5365 -0.5846
 3013SOL    HW211784   1.672   1.018   4.022  2.4775 -1.5808  1.2282
 3013SOL    HW311785   1.586   1.107   4.111  0.2795 -0.1596 -2.1086
 3013SOL    MW411786   1.618   1.028   4.090  0.1481  0.1218  0.1200
 3014SOL     OW11787   4.275   2.177   6.047 -0.1196 -0.2678 -0.0306
 3014SOL    HW211788   4.344   2.242   6.030 -0.9229  0.7272  0.4088
 3014SOL    HW311789   4.316   2.115   6.107  1.3574 -1.4190 -2.1012
 3014SOL    MW411790   4.290   2.177   6.053 -0.1871  0.0725 -0.1991
 3015SOL     OW11791   0.967   1.190   5.203  0.2049 -0.2274  0.5432
 3015SOL    HW211792   1.057   1.221   5.206  0.8693 -1.6854 -1.8736
 3015SOL    HW311793   0.925   1.246   5.138 -0.1995 -0.5813  0.4987
 3015SOL    MW411794   0.973   1.202   5.195  0.6116  0.0432 -0.0240
 3016SOL     OW11795   5.607   4.953   0.429 -0.1166  0.2124 -0.0458
 3016SOL    HW211796   5.682   4.900   0.456 -0.6145 -0.0359  0.8767
 3016SOL    HW311797   5.553   4.894   0.377  0.0070  0.2154 -0.1804
 3016SOL    MW411798   5.610   4.938   0.426 -0.1921  0.2498  0.5641
 3017SOL     OW11799   2.402   3.335   3.264 -0.0677  0.2891 -0.5030
 3017SOL    HW211800   2.350   3.255   3.263 -0.7902  0.6167  2.2852
 3017SOL    HW311801   2.488   3.308   3.233 -0.8578 -1.0680 -1.6510
 3017SOL    MW411802   2.406   3.321   3.259 -0.0135  0.2288 -0.0137
 3018SOL     OW11803   0.539   3.709   5.813  0.1310  0.6110 -0.2829
 3018SOL    HW211804   0.608   3.760   5.769 -0.0899  0.7797 -0.4379
 3018SOL    HW311805   0.514   3.642   5.749  0.9913 -0.2078  0.2322
 3018SOL    MW411806   0.545   3.707   5.798 -0.1053 -0.3614  0.0079
 3019SOL     OW11807   1.078   1.721   1.419  0.3533 -0.4486  0.0508
 3019SOL    HW211808   1.050   1.698   1.330  0.1425 -3.7084  0.8239
 3019SOL    HW311809   1.172   1.702   1.420  0.3282 -0.5608  0.5435
 3019SOL    MW411810   1.087   1.715   1.407 -0.2264  0.1169  0.5000
 3020SOL     OW11811   2.176   3.978   1.481  1.4218 -0.1001  0.7776
 3020SOL    HW211812   2.266   3.999   1.454 -0.2616  1.5438 -4.8124
 3020SOL    HW311813   2.176   3.882   1.487  3.3391 -0.2309 -0.2536
 3020SOL    MW411814   2.188   3.968   1.478 -0.5467 -0.0125 -0.7008
 3021SOL     OW11815   5.690   5.905   5.216  0.3201 -0.2133 -0.8699
 3021SOL    HW211816   5.599   5.907   5.188  0.4332  0.1639 -1.2180
 3021SOL    HW311817   5.732   5.977   5.168  0.8258 -0.4608 -0.8082
 3021SOL    MW411818   5.683   5.915   5.206 -0.6834  0.7218 -0.1505
 3022SOL     OW11819   3.595   2.655   4.783 -0.3642  0.2944  0.1505
 3022SOL    HW211820   3.550   2.571   4.780  1.2556 -0.5811 -1.1277
 3022SOL    HW311821   3.543   2.708   4.844 -3.5221 -0.3758 -1.7156
 3022SOL    MW411822   3.582   2.651   4.790  0.9126  1.0503  0.1240
 3023SOL     OW11823   2.396   5.235   5.572 -0.2112  0.1519 -0.1692
 3023SOL    HW211824   2.393   5.322   5.611  0.9805  0.2667 -0.3061
 3023SOL    HW311825   2.304   5.210   5.563 -0.5458  0.4060  2.0369
 3023SOL    MW411826   2.383   5.243   5.576 -0.4112 -0.2600  0.9713
 3024SOL     OW11827   0.325   4.689   4.573  0.3748 -0.1458 -0.1131
 3024SOL    HW211828   0.343   4.781   4.592 -0.7783 -0.0844  0.7930
 3024SOL    HW311829   0.396   4.662   4.515  0.9523  1.2012 -0.0642
 3024SOL    MW411830   0.337   4.697   4.568  0.3965 -0.1575  0.1046
 3025SOL     OW11831   4.475   3.508   0.393  0.0883 -0.0245 -0.1244
 3025SOL    HW211832   4.556   3.457   0.390  0.8982  1.1658  0.9791
 3025SOL    HW311833   4.407   3.445   0.367  1.4254 -0.8474 -1.7749
 3025SOL    MW411834   4.476   3.493   0.389 -0.2891 -0.4408 -0.1961
 3026SOL     OW11835   5.012   1.236   0.502  0.0583 -0.6199  0.3886
 3026SOL    HW211836   4.949   1.229   0.574  1.3083 -0.9125  1.4926
 3026SOL    HW311837   4.964   1.204   0.425 -1.2625 -0.4324  1.1068
 3026SOL    MW411838   4.998   1.231   0.501 -0.2612 -0.3567  0.0181
 3027SOL     OW11839   1.316   2.519   2.912 -0.1682  0.0529  0.1848
 3027SOL    HW211840   1.357   2.603   2.890  1.3420 -0.4605  0.9027
 3027SOL    HW311841   1.366   2.454   2.862  0.0269 -0.6068  1.2094
 3027SOL    MW411842   1.328   2.522   2.902  0.8385 -0.0685  0.7683
 3028SOL     OW11843   0.679   2.947   1.081  0.6220  0.5083 -0.0864
 3028SOL    HW211844   0.769   2.924   1.104  0.9141  0.1990 -1.4402
 3028SOL    HW311845   0.677   3.043   1.081  1.3033  0.5359 -1.2673
 3028SOL    MW411846   0.690   2.957   1.084 -0.5199  1.0154 -0.3955
 3029SOL     OW11847   0.717   0.623   6.156  0.2885  0.0756 -0.0393
 3029SOL    HW211848   0.709   0.529   6.140 -0.0974 -0.3079  2.0746
 3029SOL    HW311849   0.779   0.630   6.229  1.1620  1.5591 -0.8645
 3029SOL    MW411850   0.724   0.612   6.164 -0.0649  0.1911 -0.1421
 3030SOL     OW11851   6.315   5.633   4.851  0.2238 -0.1082  0.3924
 3030SOL    HW211852   6.289   5.660   4.939  0.5665  0.7914  0.2222
 3030SOL    HW311853   6.409   5.618   4.857 -0.0926 -2.3404  0.7429
 3030SOL    MW411854   6.324   5.634   4.863 -0.2630 -0.2649  0.0464
 3031SOL     OW11855   1.891   3.446   6.301 -0.4178  0.0803 -0.8446
 3031SOL    HW211856   1.857   3.522   6.254  1.2054 -0.3916 -2.9336
 3031SOL    HW311857   1.974   3.475   6.337 -1.3221  0.2190  1.2329
 3031SOL    MW411858   1.898   3.460   6.299 -0.3751  0.3997 -0.6283
 3032SOL     OW11859   3.103   6.028   1.774  0.2599  0.4181 -0.6973
 3032SOL    HW211860   3.051   5.980   1.839  1.4702  1.8299  1.4328
 3032SOL    HW311861   3.114   6.115   1.812  3.1255  0.5493 -1.5846
 3032SOL    MW411862   3.097   6.033   1.788 -0.2027  0.1579 -0.2576
 3033SOL     OW11863   0.637   1.029   0.395 -0.9326  0.7560  0.1204
 3033SOL    HW211864   0.570   1.007   0.459 -2.0503  1.1878 -0.8678
 3033SOL    HW311865   0.712   0.974   0.418 -1.4720  0.5812  1.4996
 3033SOL    MW411866   0.638   1.019   0.406  0.2007 -0.1314  0.9530
 3034SOL     OW11867   1.802   0.925   4.286 -0.5330  0.2532 -0.2029
 3034SOL    HW211868   1.875   0.987   4.280 -0.2581 -0.1739 -1.9695
 3034SOL    HW311869   1.728   0.971   4.245 -0.6959 -0.0570 -0.2641
 3034SOL    MW411870   1.802   0.940   4.280 -0.1999 -0.7892 -0.0023
 3035SOL     OW11871   1.445   1.139   5.186 -0.4514  0.3869  0.3155
 3035SOL    HW211872   1.509   1.119   5.255 -0.7141 -0.5305  0.3058
 3035SOL    HW311873   1.497   1.178   5.116 -0.0091  0.3064  0.5921
 3035SOL    MW411874   1.461   1.141   5.186 -0.5486 -0.2251 -0.3103
 3036SOL     OW11875   0.370   1.539   3.613 -0.3316  0.1866  0.2210
 3036SOL    HW211876   0.329   1.621   3.584 -1.8564 -0.3318  0.7754
 3036SOL    HW311877   0.308   1.471   3.586  0.8043 -0.7720 -0.0249
 3036SOL    MW411878   0.356   1.541   3.606 -0.3139  0.4799  0.0852
 3037SOL     OW11879   5.633   3.508   5.539 -0.4943  0.1720  0.3652
 3037SOL    HW211880   5.612   3.504   5.632  2.7300 -0.7111  1.1915
 3037SOL    HW311881   5.675   3.593   5.527  0.4839 -0.3268  0.1057
 3037SOL    MW411882   5.636   3.518   5.549 -0.3047 -0.5224  0.3610
 3038SOL     OW11883   5.856   5.817   3.958  0.2536 -0.4350  0.0815
 3038SOL    HW211884   5.895   5.798   4.043  0.4803  0.2656  0.1327
 3038SOL    HW311885   5.923   5.865   3.910  1.6225 -3.9123 -1.8952
 3038SOL    MW411886   5.870   5.821   3.963 -0.0591 -0.1300 -0.2809
 3039SOL     OW11887   5.684   2.578   2.243  0.2553  0.2152 -0.0239
 3039SOL    HW211888   5.777   2.583   2.265  0.5882  2.1382 -1.5613
 3039SOL    HW311889   5.683   2.554   2.150 -0.8581 -1.1882  0.3229
 3039SOL    MW411890   5.696   2.575   2.233  0.0989  0.6726  0.5321
 3040SOL     OW11891   0.703   5.756   1.988 -0.2124 -0.2003 -0.1138
 3040SOL    HW211892   0.692   5.850   1.975 -1.3833 -0.3006  0.1041
 3040SOL    HW311893   0.732   5.747   2.079 -0.4799 -0.0841 -0.0196
 3040SOL    MW411894   0.706   5.767   1.999 -0.1784 -0.2557  0.4881
 3041SOL     OW11895   0.494   0.421   5.971  0.5962 -0.6228 -0.5495
 3041SOL    HW211896   0.571   0.439   5.917  1.0406 -1.7551 -0.3067
 3041SOL    HW311897   0.427   0.394   5.909  1.2967 -2.5686 -0.5307
 3041SOL    MW411898   0.496   0.420   5.956  0.0462 -0.1256  0.2057
 3042SOL     OW11899   0.937   4.246   3.268 -0.3604 -0.5228 -0.3905
 3042SOL    HW211900   0.953   4.152   3.273  1.2821 -0.2823 -0.4813
 3042SOL    HW311901   0.987   4.274   3.191 -0.7780  0.4449 -0.3188
 3042SOL    MW411902   0.946   4.237   3.258 -0.0088 -0.0239 -0.0361
 3043SOL     OW11903   2.947   0.738   1.705  0.0925 -0.1771  0.4470
 3043SOL    HW211904   2.895   0.713   1.629 -0.2574  0.6133  0.4139
 3043SOL    HW311905   2.995   0.659   1.728 -0.2120 -0.5813 -0.2597
 3043SOL    MW411906   2.946   0.725   1.698 -0.2215 -0.5497 -0.3990
 3044SOL     OW11907   5.759   5.257   2.196  0.1014  0.2216 -0.1216
 3044SOL    HW211908   5.675   5.270   2.153  1.1225 -0.2691 -2.4435
 3044SOL    HW311909   5.814   5.328   2.163  1.0998 -0.5065 -0.0799
 3044SOL    MW411910   5.755   5.268   2.186 -0.1375  0.4783 -0.3046
 3045SOL     OW11911   0.772   6.220   2.637 -0.0021  0.1562 -0.2066
 3045SOL    HW211912   0.814   6.201   2.553 -0.1034 -1.2927  0.0389
 3045SOL    HW311913   0.679   6.220   2.618 -0.1631 -2.2868  0.2204
 3045SOL    MW411914   0.765   6.217   2.623 -0.5913 -0.3011  0.2634
 3046SOL     OW11915   4.915   3.668   3.901  0.3196  0.7007  0.4416
 3046SOL    HW211916   4.881   3.680   3.989  1.3631 -1.5457  1.2174
 3046SOL    HW311917   4.873   3.589   3.869  1.1531  0.6031 -0.4611
 3046SOL    MW411918   4.905   3.659   3.908  0.3870  0.4683 -0.1177
 3047SOL     OW11919   2.045   5.436   2.308 -0.2285 -0.1590 -0.0006
 3047SOL    HW211920   2.136   5.406   2.313 -0.2168 -0.0288  0.6590
 3047SOL    HW311921   2.021   5.454   2.399 -0.3213  1.5857 -0.3414
 3047SOL    MW411922   2.054   5.434   2.321 -0.5616 -0.3170  0.0744
 3048SOL     OW11923   2.362   3.014   5.589  0.3479  0.5401  0.9584
 3048SOL    HW211924   2.301   3.015   5.663 -0.7780  1.7226  0.0569
 3048SOL    HW311925   2.436   3.066   5.619  1.0014 -0.9485  2.0825
 3048SOL    MW411926   2.364   3.021   5.603  0.8638 -0.6085 -0.2167
 3049SOL     OW11927   0.760   1.857   2.334 -0.1498  0.0177 -0.8571
 3049SOL    HW211928   0.719   1.772   2.318  1.5938 -0.9181 -0.5989
 3049SOL    HW311929   0.781   1.857   2.427  2.2152 -0.4114 -1.3318
 3049SOL    MW411930   0.757   1.846   2.344  0.2718 -0.6822 -0.2422
 3050SOL     OW11931   5.674   5.506   6.027  0.2960 -0.3501 -0.4303
 3050SOL    HW211932   5.586   5.543   6.025  0.1012 -0.7204  0.6023
 3050SOL    HW311933   5.696   5.501   6.120  1.3407 -0.4259 -0.6707
 3050SOL    MW411934   5.665   5.510   6.039 -0.6751 -0.0060 -0.0525
 3051SOL     OW11935   1.165   0.315   1.910  1.0255 -0.1802  0.9834
 3051SOL    HW211936   1.088   0.265   1.934  1.0774 -0.1358  1.2429
 3051SOL    HW311937   1.135   0.374   1.840  1.2032 -1.2937 -0.0704
 3051SOL    MW411938   1.151   0.317   1.904 -0.3044  0.1889 -0.4872
 3052SOL     OW11939   5.420   0.137   1.271  0.7143  0.0876  0.3530
 3052SOL    HW211940   5.329   0.142   1.298 -0.1589  1.3016 -2.4516
 3052SOL    HW311941   5.446   0.047   1.290 -0.8137 -0.0876  1.8039
 3052SOL    MW411942   5.412   0.126   1.277 -0.7446 -0.2356  0.1271
 3053SOL     OW11943   4.296   4.913   5.348 -0.2474  0.1162  0.0863
 3053SOL    HW211944   4.307   4.911   5.253 -1.6592  1.2775 -0.1477
 3053SOL    HW311945   4.304   5.005   5.371  1.7677 -0.3249  1.3674
 3053SOL    MW411946   4.298   4.925   5.339 -0.1867 -0.2343  0.3180
 3054SOL     OW11947   1.012   1.230   3.707 -0.0587  0.1745 -0.3072
 3054SOL    HW211948   0.952   1.230   3.781  0.9334  0.7118  0.5312
 3054SOL    HW311949   1.089   1.183   3.739  1.3384  2.4208 -0.1374
 3054SOL    MW411950   1.014   1.224   3.721 -0.2815  0.5479  0.1548
 3055SOL     OW11951   0.773   3.422   0.628  0.2695 -0.4624  0.1601
 3055SOL    HW211952   0.690   3.374   0.631  0.1497 -0.2037  1.3381
 3055SOL    HW311953   0.747   3.514   0.620  0.4519 -0.4101  0.1747
 3055SOL    MW411954   0.759   3.427   0.627 -0.4160 -0.2327 -0.2857
 3056SOL     OW11955   1.783   1.367   0.035  0.0024 -0.1077 -0.7591
 3056SOL    HW211956   1.787   1.449   0.083  1.2242 -0.2441 -0.5924
 3056SOL    HW311957   1.823   1.386  -0.050  0.1336 -0.4757 -0.7851
 3056SOL    MW411958   1.789   1.380   0.030  0.0006  0.1804  0.2074
 3057SOL     OW11959   1.128   0.545   5.586 -0.5682  0.7880  0.2816
 3057SOL    HW211960   1.074   0.466   5.588 -1.3820  1.3429  1.1578
 3057SOL    HW311961   1.216   0.514   5.566 -0.8069 -0.3750  0.9761
 3057SOL    MW411962   1.132   0.531   5.583 -0.3235 -0.5381 -0.7686
 3058SOL     OW11963   4.977   4.368   1.311  0.1491 -0.0756 -0.0966
 3058SOL    HW211964   5.032   4.362   1.390 -2.9801 -1.3817  2.2044
 3058SOL    HW311965   4.973   4.278   1.279 -1.5524 -0.2354  0.5054
 3058SOL    MW411966   4.984   4.355   1.318  0.0142  0.7082 -0.0996
 3059SOL     OW11967   2.549   0.548   4.644 -0.4846 -0.0539 -0.4407
 3059SOL    HW211968   2.578   0.559   4.554 -2.0581 -1.8014 -1.2293
 3059SOL    HW311969   2.594   0.469   4.674  0.3567  0.7517  0.4758
 3059SOL    MW411970   2.559   0.539   4.636 -0.5128  0.2305  0.1453
 3060SOL     OW11971   4.479   4.737   3.757 -0.0076  0.4749 -0.5974
 3060SOL    HW211972   4.450   4.679   3.827 -3.8019  0.6115 -1.8238
 3060SOL    HW311973   4.478   4.824   3.796  0.9677  0.2530 -0.0435
 3060SOL    MW411974   4.475   4.741   3.771  0.0200 -0.3830  0.0692
 3061SOL     OW11975   0.714   1.662   3.451 -0.3136  0.6769 -0.1321
 3061SOL    HW211976   0.790   1.715   3.473 -0.6003  0.1133  2.6829
 3061SOL    HW311977   0.645   1.726   3.433 -0.1526  1.2879  1.2674
 3061SOL    MW411978   0.715   1.678   3.452 -0.5027  0.1263  0.5053
 3062SOL     OW11979   2.441   5.149   2.783  0.2497 -0.0372  0.6044
 3062SOL    HW211980   2.432   5.075   2.723 -1.9704  0.9876 -0.4503
 3062SOL    HW311981   2.421   5.112   2.869  1.4264 -1.0999  0.4567
 3062SOL    MW411982   2.437   5.134   2.786 -0.2358 -0.2055  0.1149
 3063SOL     OW11983   0.138   0.902   6.162 -0.2244  0.6182  0.1709
 3063SOL    HW211984   0.231   0.894   6.183 -0.5562 -0.3833  1.3826
 3063SOL    HW311985   0.120   0.995   6.171  0.0833  0.5044  2.6876
 3063SOL    MW411986   0.148   0.913   6.166 -0.3072 -0.0980 -0.7573
 3064SOL     OW11987   0.011   1.788   0.154 -0.5839 -0.1051  0.3211
 3064SOL    HW211988  -0.010   1.804   0.061  1.0737 -2.0677 -0.4750
 3064SOL    HW311989   0.106   1.792   0.157 -0.6450  0.4615  2.0879
 3064SOL    MW411990   0.020   1.791   0.142 -0.5083 -0.2337 -0.1856
 3065SOL     OW11991   3.640   4.709   4.174  0.1846 -0.2004  0.1436
 3065SOL    HW211992   3.654   4.615   4.161 -2.1316 -0.3174 -2.3443
 3065SOL    HW311993   3.578   4.734   4.106  0.4012  3.0967  0.9720
 3065SOL    MW411994   3.634   4.700   4.163 -0.1297 -0.3964  0.0711
 3066SOL     OW11995   6.374   2.914   2.954  0.2682  0.1030  0.3909
 3066SOL    HW211996   6.419   2.979   3.009  1.4332 -1.1788  1.0286
 3066SOL    HW311997   6.354   2.842   3.014  0.0301 -0.6073 -0.5247
 3066SOL    MW411998   6.378   2.914   2.970 -0.2708  0.6741  0.0498
 3067SOL     OW11999   2.426   5.887   5.853 -0.1901  0.0050 -0.0005
 3067SOL    HW212000   2.331   5.874   5.851 -0.1352 -0.3226 -0.7258
 3067SOL    HW312001   2.456   5.827   5.920 -0.0885 -2.8623 -2.4157
 3067SOL    MW412002   2.417   5.878   5.861 -0.2951  0.0365  0.0694
 3068SOL     OW12003   2.938   2.426   0.272  0.0629 -0.5456 -0.5804
 3068SOL    HW212004   2.928   2.462   0.184  1.3533 -0.3444 -0.6559
 3068SOL    HW312005   2.959   2.333   0.258  1.3217 -0.2737 -0.5196
 3068SOL    MW412006   2.939   2.418   0.258 -0.6071 -0.1692  0.1006
 3069SOL     OW12007   6.283   2.369   5.187  0.1947 -0.3292  0.6325
 3069SOL    HW212008   6.347   2.343   5.253  0.9960  0.1770  0.0616
 3069SOL    HW312009   6.322   2.444   5.142 -1.4670  1.0066  1.3068
 3069SOL    MW412010   6.297   2.375   5.190  0.6816  0.1830  0.1251
 3070SOL     OW12011   2.665   4.329   0.963  0.1464  0.3437  0.5089
 3070SOL    HW212012   2.680   4.256   0.904  0.4675  0.1994  0.7719
 3070SOL    HW312013   2.702   4.301   1.047  1.6825  1.4108  0.2248
 3070SOL    MW412014   2.672   4.316   0.967  0.3705 -0.0032  0.2150
 3071SOL     OW12015   3.294   4.017   3.748 -0.2559  0.0170 -0.1373
 3071SOL    HW212016   3.235   3.999   3.675 -1.5877 -0.1778  0.9440
 3071SOL    HW312017   3.347   3.937   3.756 -0.4861 -0.1761 -0.5201
 3071SOL    MW412018   3.293   4.004   3.739  0.7959 -0.7161  0.1998
 3072SOL     OW12019   5.055   5.484   1.883  0.0276 -0.7146 -0.3549
 3072SOL    HW212020   5.037   5.405   1.833 -1.6555 -0.1830 -0.6481
 3072SOL    HW312021   5.059   5.455   1.974  0.1281 -1.2331 -0.5222
 3072SOL    MW412022   5.053   5.470   1.888 -0.0585  0.0851 -0.2153
 3073SOL     OW12023   4.689   2.192   3.937 -0.1624  0.1074 -0.0986
 3073SOL    HW212024   4.656   2.186   4.026  0.3544  0.5875  0.1369
 3073SOL    HW312025   4.758   2.125   3.932 -1.2982 -1.0615 -0.6643
 3073SOL    MW412026   4.694   2.182   3.948 -0.2286  0.8173  0.2976
 3074SOL     OW12027   4.445   4.143   3.953  0.5613  0.2777 -0.5222
 3074SOL    HW212028   4.437   4.160   3.859 -0.0215 -2.0473 -0.9744
 3074SOL    HW312029   4.536   4.164   3.973  0.9624 -0.0638 -1.8483
 3074SOL    MW412030   4.456   4.148   3.943  0.3781  0.3198  0.2533
 3075SOL     OW12031   1.979   5.436   5.425  0.3183  0.5309  0.1101
 3075SOL    HW212032   1.977   5.348   5.387  1.2933  0.1646  0.8594
 3075SOL    HW312033   1.914   5.486   5.375  0.5356 -0.3183 -1.0438
 3075SOL    MW412034   1.970   5.431   5.414  0.4569 -0.0253  0.0250
 3076SOL     OW12035   1.585   2.983   3.965  0.0697  0.1109  0.2629
 3076SOL    HW212036   1.562   3.003   4.056  1.8482 -2.1511  1.3203
 3076SOL    HW312037   1.553   2.894   3.950  0.5543  0.1207 -1.0289
 3076SOL    MW412038   1.578   2.974   3.975  0.4498 -0.2687 -0.7470
 3077SOL     OW12039   1.418   6.306   0.504  0.0046 -0.6623  0.0825
 3077SOL    HW212040   1.483   6.367   0.468 -3.5957  3.6399 -0.1208
 3077SOL    HW312041   1.383   6.260   0.428  0.2185 -0.1147 -0.3583
 3077SOL    MW412042   1.422   6.308   0.489 -0.1483 -0.3922  0.2744
 3078SOL     OW12043   4.596   0.252   5.049  0.4622  0.0180 -0.4850
 3078SOL    HW212044   4.627   0.162   5.040  0.9988  0.2528 -1.0495
 3078SOL    HW312045   4.512   0.253   5.003  1.3648  0.2632 -2.1895
 3078SOL    MW412046   4.589   0.240   5.042  0.2792  0.0593 -0.5293
 3079SOL     OW12047   2.560   2.152   5.045  0.4525  0.2228  0.1924
 3079SOL    HW212048   2.554   2.240   5.009 -0.8450  0.3086  0.5490
 3079SOL    HW312049   2.597   2.165   5.133 -0.8177  0.5695  0.6993
 3079SOL    MW412050   2.564   2.166   5.052  0.0874 -0.1566 -1.0451
 3080SOL     OW12051   3.449   0.181   4.647 -0.3202  0.2443 -0.1171
 3080SOL    HW212052   3.486   0.251   4.701 -0.0385  0.2353 -0.3015
 3080SOL    HW312053   3.465   0.208   4.557 -0.4266  0.0583 -0.1935
 3080SOL    MW412054   3.456   0.194   4.642 -0.8927  0.3186  0.7024
 3081SOL     OW12055   3.034   0.950   5.138 -0.0025 -0.0888  0.0486
 3081SOL    HW212056   3.070   0.948   5.049 -0.7419 -0.1210 -0.2580
 3081SOL    HW312057   2.984   0.869   5.145  0.1234 -0.1248  0.5265
 3081SOL    MW412058   3.032   0.939   5.127  0.4552 -0.4994 -0.1526
 3082SOL     OW12059   1.505   4.420   2.694 -0.8351 -0.3858  0.1161
 3082SOL    HW212060   1.456   4.423   2.776  0.0439  0.8340  0.6248
 3082SOL    HW312061   1.553   4.337   2.698  1.7367  1.0471  2.4303
 3082SOL    MW412062   1.505   4.409   2.705 -0.4044 -0.5824  0.1544
 3083SOL     OW12063   2.162   4.800   0.430 -0.3169 -0.1761 -0.0470
 3083SOL    HW212064   2.182   4.891   0.450  0.9493 -0.8637  2.0437
 3083SOL    HW312065   2.242   4.752   0.451 -1.9720 -2.1854  2.1437
 3083SOL    MW412066   2.175   4.806   0.435 -0.1404  0.1666  0.5101
 3084SOL     OW12067   1.379   0.782   5.459  0.4085  0.8046 -0.1463
 3084SOL    HW212068   1.285   0.804   5.462  0.4447  0.8310  1.8572
 3084SOL    HW312069   1.405   0.802   5.369 -1.2401  1.9603 -0.4148
 3084SOL    MW412070   1.370   0.787   5.447  0.2952 -0.2139 -0.0552
 3085SOL     OW12071   3.945   2.313   3.292 -0.6223  0.0829  0.1772
 3085SOL    HW212072   3.966   2.263   3.371  1.0914 -2.2619 -1.6228
 3085SOL    HW312073   4.018   2.374   3.281  0.2790 -1.1097 -0.7017
 3085SOL    MW412074   3.957   2.315   3.301 -0.1849 -0.0727 -0.2074
 3086SOL     OW12075   5.392   6.278   4.560  0.0734 -0.0698  0.5535
 3086SOL    HW212076   5.301   6.295   4.585  0.1979 -0.2297  1.1349
 3086SOL    HW312077   5.391   6.189   4.526 -0.4557  0.7915 -1.8762
 3086SOL    MW412078   5.380   6.269   4.559 -0.0073 -0.3087 -0.9978
 3087SOL     OW12079   1.025   3.954   4.554  0.2168  0.1774  0.0364
 3087SOL    HW212080   1.012   4.049   4.550 -0.7337  0.1508  1.8841
 3087SOL    HW312081   1.088   3.941   4.625 -1.0860 -0.6676  1.0766
 3087SOL    MW412082   1.032   3.965   4.563  0.2696 -0.0151 -0.2142
 3088SOL     OW12083   2.852   1.712   4.921 -0.0063 -0.3081  0.3783
 3088SOL    HW212084   2.833   1.806   4.931  1.9180  0.0237  1.2177
 3088SOL    HW312085   2.777   1.679   4.871  0.4560  2.1783 -2.2682
 3088SOL    MW412086   2.839   1.720   4.916  0.0778 -0.2468  0.9465
 3089SOL     OW12087   6.218   3.675   5.322  0.1164  0.6095 -0.3488
 3089SOL    HW212088   6.173   3.737   5.263 -0.0526 -0.2068 -1.1016
 3089SOL    HW312089   6.148   3.638   5.375 -0.0455 -0.2820 -1.1668
 3089SOL    MW412090   6.203   3.679   5.321  0.2241  0.3565  0.0574
 3090SOL     OW12091   1.496   5.525   4.682 -0.1371  0.3085 -0.0385
 3090SOL    HW212092   1.551   5.483   4.747 -1.4379 -0.7449  0.4094
 3090SOL    HW312093   1.474   5.610   4.720 -1.7649 -0.7041  1.4512
 3090SOL    MW412094   1.500   5.531   4.695  0.7480 -0.0386 -0.2526
 3091SOL     OW12095   4.672   0.046   0.341 -0.1282 -0.4217 -0.0775
 3091SOL    HW212096   4.635   0.096   0.269 -0.6395  0.5189  0.8197
 3091SOL    HW312097   4.767   0.059   0.332 -0.2182  4.5261  2.6095
 3091SOL    MW412098   4.680   0.054   0.330 -0.2683  0.5788  0.8110
 3092SOL     OW12099   1.615   1.475   5.913  0.5197  0.3934 -0.6679
 3092SOL    HW212100   1.559   1.415   5.961 -0.4920  1.8177  0.0119
 3092SOL    HW312101   1.555   1.526   5.858  1.2276  1.3646 -0.5760
 3092SOL    MW412102   1.600   1.474   5.912  0.3538 -0.3139  0.3435
 3093SOL     OW12103   4.240   5.937   6.045 -0.1463  0.7332 -0.3202
 3093SOL    HW212104   4.175   5.869   6.060 -0.8109  1.4288  0.0032
 3093SOL    HW312105   4.286   5.946   6.129  1.3250 -0.7107 -0.9198
 3093SOL    MW412106   4.237   5.929   6.058 -0.0714 -0.2915 -0.1885
 3094SOL     OW12107   1.377   5.220   0.285  0.3445 -0.1183  0.2813
 3094SOL    HW212108   1.415   5.133   0.294 -0.1131 -0.2038  1.6719
 3094SOL    HW312109   1.442   5.279   0.322  0.3354  0.0484  0.0319
 3094SOL    MW412110   1.390   5.216   0.291  0.4730 -0.3484 -0.2120
 3095SOL     OW12111   3.894   3.363   5.233 -0.1388  0.0725 -0.1325
 3095SOL    HW212112   3.800   3.354   5.246 -0.3627 -0.9176 -2.0696
 3095SOL    HW312113   3.909   3.457   5.225 -1.2101  0.1663 -1.2672
 3095SOL    MW412114   3.884   3.374   5.234  0.8207  0.2992 -0.0876
 3096SOL     OW12115   5.195   0.881   1.644  0.1056 -0.1697 -0.5257
 3096SOL    HW212116   5.149   0.884   1.560  0.3598 -2.4381 -0.8210
 3096SOL    HW312117   5.262   0.949   1.637 -0.1052 -0.0706 -2.0076
 3096SOL    MW412118   5.198   0.890   1.632  0.4904 -0.6674  0.2856
 3097SOL     OW12119   3.511   5.736   0.484 -0.2284  0.4187  0.6624
 3097SOL    HW212120   3.605   5.725   0.473 -0.2990 -0.0564  0.4831
 3097SOL    HW312121   3.501   5.808   0.547  0.2666 -0.3034  1.5840
 3097SOL    MW412122   3.522   5.744   0.491  0.5883  0.7881  0.2044
 3098SOL     OW12123   6.334   1.722   6.096 -0.3539  0.2647  0.1589
 3098SOL    HW212124   6.376   1.772   6.026 -0.8446  0.6501  0.1316
 3098SOL    HW312125   6.331   1.782   6.170 -1.6626  0.5844 -0.1112
 3098SOL    MW412126   6.339   1.736   6.097  0.0158  0.6296  0.6597
 3099SOL     OW12127   5.262   5.431   0.766  0.1868  0.2287 -0.0408
 3099SOL    HW212128   5.252   5.517   0.726  0.1472  0.2489  0.0123
 3099SOL    HW312129   5.173   5.393   0.765 -0.1193  0.8304  1.3927
 3099SOL    MW412130   5.249   5.437   0.761 -0.2790 -0.1038  0.4662
 3100SOL     OW12131   4.704   4.970   3.846 -0.1881  0.0018  0.4623
 3100SOL    HW212132   4.759   5.043   3.874 -0.3140  0.6998 -1.0124
 3100SOL    HW312133   4.616   4.994   3.875 -0.0924  0.0171  0.7427
 3100SOL    MW412134   4.700   4.982   3.854 -0.1040  0.2787  0.4240
 3101SOL     OW12135   2.831   2.619   3.057 -0.4062 -0.3313 -0.7526
 3101SOL    HW212136   2.922   2.626   3.085 -0.2520 -1.3089 -0.9620
 3101SOL    HW312137   2.832   2.551   2.990 -0.9993  0.9289 -2.0933
 3101SOL    MW412138   2.843   2.611   3.052 -1.0341 -0.0844  0.6683
 3102SOL     OW12139   6.168   2.732   6.205 -0.1317  0.1160  0.1611
 3102SOL    HW212140   6.207   2.730   6.292 -1.0548 -0.2347  0.5712
 3102SOL    HW312141   6.155   2.825   6.187 -2.1967  0.1298  1.4417
 3102SOL    MW412142   6.171   2.744   6.214 -0.1905 -0.2185 -0.3392
 3103SOL     OW12143   2.993   5.876   0.727 -0.0840 -0.4492 -0.0285
 3103SOL    HW212144   3.041   5.853   0.806 -0.1092 -1.1995 -0.2213
 3103SOL    HW312145   2.902   5.887   0.757 -0.1067 -0.8029  0.0374
 3103SOL    MW412146   2.987   5.874   0.741 -0.5150 -0.2733  0.3465
 3104SOL     OW12147   1.264   4.389   2.531 -0.1990  0.0426  0.0475
 3104SOL    HW212148   1.208   4.332   2.584  0.5333 -0.0339  0.7536
 3104SOL    HW312149   1.340   4.406   2.586  0.1329  0.7544 -0.6134
 3104SOL    MW412150   1.267   4.384   2.545 -0.2674  0.0847 -0.6305
 3105SOL     OW12151   6.026   5.504   5.938  0.0534  0.1207 -0.3008
 3105SOL    HW212152   6.116   5.514   5.907 -0.0202 -0.0165 -0.5539
 3105SOL    HW312153   5.973   5.553   5.875 -0.2412 -1.2595 -1.1562
 3105SOL    MW412154   6.031   5.512   5.926  0.3292 -0.0968  0.2176
 3106SOL     OW12155   2.313   3.963   5.925 -0.2718 -0.1190 -0.8568
 3106SOL    HW212156   2.319   3.937   6.017  1.2199  1.9629 -0.2869
 3106SOL    HW312157   2.231   4.013   5.920  1.6206  3.5199  0.5340
 3106SOL    MW412158   2.303   3.966   5.936  0.7529  1.0082  0.0978
 3107SOL     OW12159   5.367   2.884   2.438  0.1284 -0.0008 -0.1431
 3107SOL    HW212160   5.454   2.866   2.403  0.6980  0.2764  1.0583
 3107SOL    HW312161   5.370   2.977   2.460 -0.4834  0.0146 -0.1209
 3107SOL    MW412162   5.379   2.894   2.436  0.0022 -0.1401 -0.6113
 3108SOL     OW12163   6.098   3.481   1.891  0.3434 -0.1021 -0.6592
 3108SOL    HW212164   6.050   3.449   1.968 -1.4111  1.0100 -1.2308
 3108SOL    HW312165   6.188   3.452   1.906 -0.7160 -3.7766 -0.3168
 3108SOL    MW412166   6.104   3.473   1.903  0.7896  0.3531 -0.0469
 3109SOL     OW12167   2.514   0.590   1.953  0.3172 -0.8483 -0.4155
 3109SOL    HW212168   2.464   0.627   2.026  0.0536 -0.1719 -0.9302
 3109SOL    HW312169   2.600   0.631   1.960 -0.5182  1.4286 -2.0920
 3109SOL    MW412170   2.519   0.600   1.964  0.3327 -0.2275 -0.1302
 3110SOL     OW12171   2.367   1.995   0.205  0.3156  0.2050 -0.2324
 3110SOL    HW212172   2.417   2.072   0.231 -1.0029  1.0284 -0.0400
 3110SOL    HW312173   2.384   1.931   0.274  0.9719  0.5056 -0.1029
 3110SOL    MW412174   2.376   1.997   0.217  0.2358 -0.0318  0.3645
 3111SOL     OW12175   2.468   0.723   5.476  0.2361  0.1940  0.9521
 3111SOL    HW212176   2.379   0.689   5.462  0.2429  0.1786  0.9465
 3111SOL    HW312177   2.513   0.654   5.524  0.2616  0.1797  0.9069
 3111SOL    MW412178   2.462   0.710   5.481 -0.1246 -0.6632 -0.1226
 3112SOL     OW12179   5.402   5.071   4.216 -0.6174  0.3663  0.2609
 3112SOL    HW212180   5.391   5.146   4.157  0.3882 -0.5311 -1.1325
 3112SOL    HW312181   5.322   5.070   4.268 -1.6781  1.0382 -1.2755
 3112SOL    MW412182   5.390   5.081   4.215 -0.4752 -0.3880 -0.1732
 3113SOL     OW12183   4.714   0.174   1.465  0.3410  0.4751  0.0629
 3113SOL    HW212184   4.786   0.146   1.409 -0.7661  0.8093 -1.5846
 3113SOL    HW312185   4.755   0.232   1.530  1.7886 -0.6332  0.1962
 3113SOL    MW412186   4.729   0.178   1.466 -0.1005  0.7064 -0.3337
 3114SOL     OW12187   2.268   3.781   3.486 -0.2665  0.2618  0.1117
 3114SOL    HW212188   2.229   3.715   3.544  0.0542 -1.3548 -1.4405
 3114SOL    HW312189   2.293   3.732   3.408  0.2058  2.2116 -1.0045
 3114SOL    MW412190   2.266   3.766   3.484  0.4778 -0.2467  0.6982
 3115SOL     OW12191   1.854   1.133   3.113  0.0024  0.2586  0.1420
 3115SOL    HW212192   1.835   1.140   3.020  2.2965  1.1469 -0.3076
 3115SOL    HW312193   1.927   1.071   3.119 -3.0810 -3.7535  1.8711
 3115SOL    MW412194   1.861   1.125   3.102 -0.2137 -0.1271 -0.3448
 3116SOL     OW12195   1.210   1.777   2.753 -0.0590 -0.5233  0.1378
 3116SOL    HW212196   1.180   1.855   2.706  0.1474  0.9193  2.2106
 3116SOL    HW312197   1.150   1.708   2.726 -3.0782  1.3861  1.3718
 3116SOL    MW412198   1.198   1.778   2.744  0.2201 -0.0969  0.0022
 3117SOL     OW12199   0.474   1.241   1.237 -0.1910 -0.1244 -0.2952
 3117SOL    HW212200   0.392   1.219   1.281  0.3715 -1.0154  0.3557
 3117SOL    HW312201   0.482   1.336   1.247 -0.1766 -0.2590  1.4164
 3117SOL    MW412202   0.464   1.251   1.244  0.3403 -0.8110 -0.1129
 3118SOL     OW12203   4.308   0.986   3.812 -0.1807  0.5239  0.3662
 3118SOL    HW212204   4.226   0.938   3.795 -0.5131  1.3785 -0.5719
 3118SOL    HW312205   4.327   0.970   3.904 -1.0346 -0.2639  0.4186
 3118SOL    MW412206   4.299   0.978   3.822  0.6637  0.5612  0.4805
 3119SOL     OW12207   3.100   3.391   4.715 -0.2081  0.5657 -0.7017
 3119SOL    HW212208   3.008   3.396   4.743  0.3124  0.8449  1.0468
 3119SOL    HW312209   3.141   3.469   4.752  0.9666 -0.0982 -0.5455
 3119SOL    MW412210   3.093   3.402   4.724  0.6008  0.5206 -0.4058
 3120SOL     OW12211   4.127   6.095   3.077 -0.0090  0.0330 -0.1773
 3120SOL    HW212212   4.083   6.090   3.162 -0.2256  0.9383 -0.2266
 3120SOL    HW312213   4.055   6.095   3.013  0.1624 -0.9386 -0.3859
 3120SOL    MW412214   4.111   6.094   3.079 -0.3263  0.1127 -0.4085
 3121SOL     OW12215   5.723   6.247   4.434 -0.3952  0.1277 -0.3653
 3121SOL    HW212216   5.748   6.273   4.522 -0.5035 -1.1165  0.0552
 3121SOL    HW312217   5.667   6.318   4.403 -1.2971  0.0546  1.0134
 3121SOL    MW412218   5.719   6.260   4.441  0.3361  0.3605  0.6420
 3122SOL     OW12219   3.987   6.344   4.118 -0.3902  0.0503 -0.3029
 3122SOL    HW212220   3.895   6.345   4.092  0.0755  0.7710 -2.0501
 3122SOL    HW312221   4.035   6.348   4.036  1.2296 -0.9196  0.5490
 3122SOL    MW412222   3.981   6.344   4.104 -0.0162  0.2724 -0.4733
 3123SOL     OW12223   3.768   6.113   4.350 -0.1970 -0.4236 -0.1619
 3123SOL    HW212224   3.701   6.169   4.312 -0.4167 -0.2599  0.4469
 3123SOL    HW312225   3.815   6.077   4.275  1.9290  2.8648 -0.6325
 3123SOL    MW412226   3.765   6.116   4.335 -0.0740 -0.5242  0.1416
 3124SOL     OW12227   0.971   4.574   3.980 -0.9742 -0.2231 -0.4366
 3124SOL    HW212228   0.942   4.650   3.929 -1.1937  0.9035  1.2890
 3124SOL    HW312229   0.903   4.562   4.046  0.1942 -0.4393  0.7732
 3124SOL    MW412230   0.958   4.583   3.982 -0.0618  0.1561 -0.9162
 3125SOL     OW12231   4.339   1.632   4.146  0.0097  0.1715  0.1221
 3125SOL    HW212232   4.288   1.687   4.086  2.1382  1.4812 -0.5981
 3125SOL    HW312233   4.285   1.628   4.226 -2.3470 -0.6527 -1.3917
 3125SOL    MW412234   4.325   1.639   4.149  0.0490 -0.1068  0.1831
 3126SOL     OW12235   0.957   1.699   1.170  0.6039 -0.1265 -0.4974
 3126SOL    HW212236   0.971   1.782   1.123 -0.8361 -0.2954 -1.2947
 3126SOL    HW312237   0.994   1.633   1.112  0.5378 -0.1635 -0.4974
 3126SOL    MW412238   0.964   1.701   1.156  0.4542 -0.1457  0.1604
 3127SOL     OW12239   3.148   4.907   4.583  0.3417 -0.1543  0.1915
 3127SOL    HW212240   3.176   4.833   4.530  1.1524  0.3522 -0.0992
 3127SOL    HW312241   3.174   4.985   4.533 -1.0117  0.3439  0.2133
 3127SOL    MW412242   3.155   4.908   4.569 -0.0233  0.3591  0.0444
 3128SOL     OW12243   1.095   3.090   5.645 -0.5151 -0.5854  0.7811
 3128SOL    HW212244   1.124   2.999   5.644 -0.3037 -0.5200 -0.3064
 3128SOL    HW312245   1.006   3.086   5.682 -0.8086 -1.3291  0.0279
 3128SOL    MW412246   1.087   3.077   5.650 -0.2991  0.7373 -0.2560
 3129SOL     OW12247   1.963   3.014   6.149  0.1024  0.2278  0.4496
 3129SOL    HW212248   2.006   3.096   6.173 -0.2734  0.8802 -0.9713
 3129SOL    HW312249   1.870   3.037   6.143  0.2156  0.3096 -2.1292
 3129SOL    MW412250   1.956   3.028   6.152  0.3497 -0.0840 -0.0959
 3130SOL     OW12251   4.421   4.791   6.124  0.0611 -0.2877 -0.3388
 3130SOL    HW212252   4.414   4.880   6.090 -0.2628  0.9294  2.5548
 3130SOL    HW312253   4.468   4.743   6.056  0.8354  2.2440 -1.7525
 3130SOL    MW412254   4.427   4.797   6.111  0.3663 -0.0212  0.3888
 3131SOL     OW12255   5.963   4.162   4.268 -0.2481 -0.5913 -0.1030
 3131SOL    HW212256   6.025   4.094   4.241  1.1212  0.6572 -0.2186
 3131SOL    HW312257   5.916   4.185   4.188 -0.1061 -0.7892 -0.2443
 3131SOL    MW412258   5.965   4.156   4.254  0.0124 -0.7868 -0.2107
 3132SOL     OW12259   0.351   3.832   0.663 -0.2446  0.2984  0.6361
 3132SOL    HW212260   0.306   3.749   0.680 -1.8934  1.0463  0.1626
 3132SOL    HW312261   0.360   3.835   0.567  2.3663 -0.5655  0.7666
 3132SOL    MW412262   0.346   3.821   0.652  0.3555  0.1226  0.4732
 3133SOL     OW12263   1.614   0.526   4.923  0.2682 -0.4632 -0.3752
 3133SOL    HW212264   1.606   0.621   4.921  1.9947 -0.2610  0.0673
 3133SOL    HW312265   1.655   0.508   5.008  1.2026 -1.4691 -1.0145
 3133SOL    MW412266   1.619   0.536   4.934 -0.2464 -0.4151 -0.3193
 3134SOL     OW12267   1.054   2.643   4.733  0.0218  1.4486 -0.3245
 3134SOL    HW212268   1.108   2.717   4.760  1.8424  0.6120 -1.5055
 3134SOL    HW312269   1.097   2.608   4.655 -0.4143 -1.2021  0.5101
 3134SOL    MW412270   1.067   2.648   4.727 -0.6028  0.1626 -0.7588
 3135SOL     OW12271   1.241   5.375   3.661 -0.3266  0.7791 -0.2384
 3135SOL    HW212272   1.220   5.299   3.606 -1.6418  0.9043  0.0462
 3135SOL    HW312273   1.289   5.434   3.603  1.1903 -0.4566 -0.3308
 3135SOL    MW412274   1.244   5.372   3.646  0.1864  0.0856  0.3245
 3136SOL     OW12275   2.244   1.037   1.547 -0.1191 -0.4137  0.1978
 3136SOL    HW212276   2.150   1.031   1.557 -0.1213 -0.2061  0.2969
 3136SOL    HW312277   2.267   1.124   1.580  0.0419 -0.2684 -0.2878
 3136SOL    MW412278   2.235   1.048   1.553  0.5111 -0.5109  0.9765
 3137SOL     OW12279   2.730   4.725   1.965 -0.2522 -0.5350  0.1746
 3137SOL    HW212280   2.789   4.657   1.998 -1.2162 -0.8556  1.3032
 3137SOL    HW312281   2.648   4.712   2.014 -0.6471  1.0713 -0.0057
 3137SOL    MW412282   2.727   4.714   1.976  0.5009 -0.0129  0.4299
 3138SOL     OW12283   4.259   3.210   3.859 -0.1736  0.2789  0.1033
 3138SOL    HW212284   4.305   3.212   3.774  0.2880 -1.3986  0.2570
 3138SOL    HW312285   4.232   3.300   3.875  1.7994  1.0720 -0.7162
 3138SOL    MW412286   4.262   3.222   3.850 -0.3334  0.2530 -0.3340
 3139SOL     OW12287   4.605   1.446   4.499  0.4009  0.3412 -0.1290
 3139SOL    HW212288   4.700   1.455   4.491  0.4428  0.1426  0.1121
 3139SOL    HW312289   4.581   1.385   4.429  0.6707 -0.8447  0.7820
 3139SOL    MW412290   4.614   1.439   4.489 -0.2917 -0.7996  0.0927
 3140SOL     OW12291   3.271   6.334   1.121  0.3777  0.7400  0.0273
 3140SOL    HW212292   3.315   6.266   1.172  0.6392  1.6461  1.0482
 3140SOL    HW312293   3.179   6.326   1.145 -0.1800 -1.4242 -2.4176
 3140SOL    MW412294   3.265   6.324   1.131  0.4548  0.3161  0.2197
 3141SOL     OW12295   5.072   0.633   1.959 -0.9534  0.1928 -0.2564
 3141SOL    HW212296   5.069   0.549   2.004 -0.7163  0.3140 -0.0160
 3141SOL    HW312297   5.008   0.624   1.888 -1.6716  0.1595  0.3800
 3141SOL    MW412298   5.063   0.621   1.955 -0.4164 -0.4528 -0.3748
 3142SOL     OW12299   5.282   0.730   4.510 -0.2726  0.1457  0.4220
 3142SOL    HW212300   5.247   0.819   4.511 -1.5066 -0.3281  1.1388
 3142SOL    HW312301   5.212   0.677   4.472  0.6134 -0.4675 -0.3837
 3142SOL    MW412302   5.268   0.735   4.505 -0.6044 -0.4065  0.0242
 3143SOL     OW12303   3.449   4.380   1.075  0.3633 -0.0858  0.0824
 3143SOL    HW212304   3.375   4.440   1.067  2.3553  2.6179  0.3511
 3143SOL    HW312305   3.491   4.383   0.989 -0.6044 -2.8158 -0.5730
 3143SOL    MW412306   3.445   4.388   1.063  0.0526  0.0971  0.1158
 3144SOL     OW12307   5.808   1.828   5.575  0.2567  0.1595  0.3979
 3144SOL    HW212308   5.755   1.907   5.582 -0.8138 -0.6122  1.3519
 3144SOL    HW312309   5.815   1.796   5.665  1.3957 -0.3750  0.1329
 3144SOL    MW412310   5.802   1.834   5.588 -0.3608 -0.6683 -0.1227
 3145SOL     OW12311   3.871   1.891   2.331 -0.1805  0.4186 -0.4870
 3145SOL    HW212312   3.885   1.911   2.239 -2.2952  0.2474 -0.9105
 3145SOL    HW312313   3.791   1.939   2.355 -1.3964 -1.8452  0.3767
 3145SOL    MW412314   3.862   1.900   2.322  0.4480 -0.4254  0.0951
 3146SOL     OW12315   2.924   6.212   0.333 -0.3663  0.4558  0.3069
 3146SOL    HW212316   2.995   6.204   0.396 -0.4337 -1.7242  0.1631
 3146SOL    HW312317   2.930   6.303   0.303  1.5829  0.6777  1.1891
 3146SOL    MW412318   2.934   6.223   0.337 -0.1858  0.4382 -0.1511
 3147SOL     OW12319   4.485   3.743   3.872  0.4933  0.5355  0.3847
 3147SOL    HW212320   4.482   3.821   3.816  0.0652 -0.7728 -1.5146
 3147SOL    HW312321   4.406   3.749   3.925  0.7034  1.6226  0.6008
 3147SOL    MW412322   4.474   3.754   3.871  0.1063 -0.1381 -0.4369
 3148SOL     OW12323   3.600   5.391   3.807  0.2872  0.4075  0.7241
 3148SOL    HW212324   3.635   5.462   3.861  2.8811 -1.4116  1.5945
 3148SOL    HW312325   3.588   5.318   3.868 -0.7082 -0.4431 -0.4468
 3148SOL    MW412326   3.603   5.391   3.822  0.0182 -0.0546  0.3190
 3149SOL     OW12327   3.679   5.661   1.229  0.3190 -0.1198  0.2712
 3149SOL    HW212328   3.758   5.612   1.251  0.7469  0.5778  0.3194
 3149SOL    HW312329   3.626   5.599   1.179 -0.0280 -1.2776  1.9538
 3149SOL    MW412330   3.683   5.646   1.226 -0.1659 -0.0886 -0.6085
 3150SOL     OW12331   3.790   0.917   1.590 -0.1656 -0.0487 -0.4765
 3150SOL    HW212332   3.881   0.936   1.612 -0.5339  1.8110 -0.4385
 3150SOL    HW312333   3.795   0.872   1.505  0.8476 -1.5187  0.3098
 3150SOL    MW412334   3.803   0.913   1.582 -0.5216  0.1552  0.0305
 3151SOL     OW12335   2.942   3.987   0.202 -0.5629 -0.1355  0.4206
 3151SOL    HW212336   2.979   3.937   0.274 -0.3768 -1.1667 -0.3737
 3151SOL    HW312337   3.015   4.002   0.142 -1.0855 -0.9242 -0.4465
 3151SOL    MW412338   2.956   3.982   0.204 -0.2948 -0.2455  0.3611
 3152SOL     OW12339   3.125   3.583   2.705  1.3071 -0.2885 -0.3931
 3152SOL    HW212340   3.208   3.620   2.678 -0.5825  2.6319 -2.8777
 3152SOL    HW312341   3.071   3.659   2.728 -0.8738 -2.0084  0.5265
 3152SOL    MW412342   3.129   3.598   2.705  0.0400 -0.6409 -0.0993
 3153SOL     OW12343   0.184   3.944   2.182 -0.0957  0.2653  0.0112
 3153SOL    HW212344   0.140   4.025   2.208  0.3251  0.3617  0.4389
 3153SOL    HW312345   0.260   3.973   2.133 -0.6661  0.0905 -0.9979
 3153SOL    MW412346   0.188   3.959   2.179 -0.3202  0.0152 -0.1173
 3154SOL     OW12347   3.989   0.821   5.468 -0.0020 -0.4501 -0.6949
 3154SOL    HW212348   4.080   0.843   5.489 -0.1673 -1.1701  0.9610
 3154SOL    HW312349   3.977   0.733   5.503 -1.5056 -0.1272 -0.3393
 3154SOL    MW412350   4.000   0.812   5.475  0.5061  0.0027  0.6214
 3155SOL     OW12351   4.026   0.908   4.872  0.3504  0.1696 -0.3560
 3155SOL    HW212352   3.973   0.836   4.905  0.6020 -0.4327 -1.2193
 3155SOL    HW312353   4.006   0.911   4.778  0.6970  0.9182 -0.4159
 3155SOL    MW412354   4.016   0.899   4.864 -0.7281  0.4266 -0.3280
 3156SOL     OW12355   3.644   5.087   3.260  0.1326  0.1778 -0.2520
 3156SOL    HW212356   3.701   5.160   3.236  1.0415  0.5136  2.5977
 3156SOL    HW312357   3.701   5.010   3.257  0.8013  0.4817  2.3685
 3156SOL    MW412358   3.659   5.087   3.256  0.0411  0.1797 -0.4599
 3157SOL     OW12359   4.699   5.626   4.736 -0.2506  0.0401  0.0173
 3157SOL    HW212360   4.683   5.681   4.659  1.3982 -0.3498 -0.6387
 3157SOL    HW312361   4.672   5.538   4.707  3.3693 -0.7779 -1.3666
 3157SOL    MW412362   4.693   5.622   4.722 -0.0968  0.0536 -0.4833
 3158SOL     OW12363   0.787   5.800   2.289  0.2810  0.4576  0.3558
 3158SOL    HW212364   0.752   5.793   2.378  0.1060 -0.2877  0.2342
 3158SOL    HW312365   0.860   5.862   2.297 -0.3046  1.0928  0.8408
 3158SOL    MW412366   0.792   5.807   2.302 -0.0733 -0.5562 -0.0710
 3159SOL     OW12367   5.064   5.382   2.897  0.0447 -0.1692 -0.2771
 3159SOL    HW212368   5.116   5.381   2.817 -0.4870  0.9553 -0.6608
 3159SOL    HW312369   5.126   5.360   2.967  0.5337 -1.0657 -0.9685
 3159SOL    MW412370   5.079   5.379   2.896 -0.1950 -0.1698 -0.3609
 3160SOL     OW12371   1.310   4.678   1.331 -0.6667 -0.3728 -0.1496
 3160SOL    HW212372   1.359   4.690   1.412 -1.1973  0.7898  0.0170
 3160SOL    HW312373   1.376   4.683   1.262 -0.5014  0.8775  0.0859
 3160SOL    MW412374   1.325   4.680   1.333  0.0399  0.2282 -0.0977
 3161SOL     OW12375   2.686   1.763   1.482 -0.3577  0.1528 -0.0162
 3161SOL    HW212376   2.600   1.795   1.509 -1.2529  0.7054 -3.0549
 3161SOL    HW312377   2.677   1.668   1.482 -1.0763  0.2079 -0.5074
 3161SOL    MW412378   2.673   1.755   1.485 -0.2332  0.0362  0.8802
 3162SOL     OW12379   6.133   1.959   1.918  0.1243  0.4527  0.6910
 3162SOL    HW212380   6.116   2.045   1.956  0.6889  0.3164  1.2777
 3162SOL    HW312381   6.049   1.931   1.882 -0.2372  0.9283  1.1576
 3162SOL    MW412382   6.119   1.966   1.918 -0.3065 -0.1108 -0.3741
 3163SOL     OW12383   6.231   4.127   5.023 -0.3310 -0.0126  0.2556
 3163SOL    HW212384   6.304   4.180   5.054 -1.0234  0.2635  1.4907
 3163SOL    HW312385   6.180   4.108   5.101 -1.7698  0.1000 -0.6116
 3163SOL    MW412386   6.234   4.132   5.037  0.1344  0.3284 -0.5062
 3164SOL     OW12387   0.572   2.242   2.169 -0.2810  0.1170 -0.3068
 3164SOL    HW212388   0.571   2.262   2.263 -0.2982 -2.6859  0.4005
 3164SOL    HW312389   0.489   2.197   2.154 -0.0766  0.1427 -1.5813
 3164SOL    MW412390   0.561   2.238   2.180  0.4307  0.3494  0.5175
 3165SOL     OW12391   3.786   4.940   1.247  0.1416  0.2184  0.0140
 3165SOL    HW212392   3.734   4.860   1.253  1.9586 -0.9237  1.7317
 3165SOL    HW312393   3.721   5.010   1.239 -1.5341 -1.3219 -0.5723
 3165SOL    MW412394   3.770   4.939   1.246 -0.6163 -0.1357  0.4009
 3166SOL     OW12395   4.499   3.656   6.003 -0.0331 -0.0806  0.2034
 3166SOL    HW212396   4.571   3.601   5.972 -0.8687 -1.6095  0.8111
 3166SOL    HW312397   4.506   3.737   5.953 -0.1457 -1.6402 -2.5314
 3166SOL    MW412398   4.509   3.659   5.993 -0.0499  0.1677  0.0759
 3167SOL     OW12399   3.876   6.413   0.663  0.2530  0.6401 -0.1438
 3167SOL    HW212400   3.806   6.410   0.598 -0.2640  2.4143  0.2764
 3167SOL    HW312401   3.844   6.358   0.735 -0.8208  1.5814  0.1234
 3167SOL    MW412402   3.863   6.405   0.664  0.1914  0.5617  0.3865
 3168SOL     OW12403   0.878   0.399   1.943  0.0692 -0.1259 -0.8828
 3168SOL    HW212404   0.882   0.475   1.885 -0.9571 -0.1849 -1.0539
 3168SOL    HW312405   0.838   0.330   1.889 -2.0583  0.1568  0.1959
 3168SOL    MW412406   0.873   0.400   1.928 -0.3627 -0.1991 -0.1840
 3169SOL     OW12407   4.174   4.863   0.541  0.0741 -0.0942  0.1692
 3169SOL    HW212408   4.265   4.889   0.553 -0.2970  2.0599 -1.0293
 3169SOL    HW312409   4.176   4.768   0.532  2.0207 -0.2172  1.5001
 3169SOL    MW412410   4.186   4.854   0.541 -0.1691  0.9857 -0.0218
 3170SOL     OW12411   5.103   2.262   1.174  0.2673 -0.2469 -0.3734
 3170SOL    HW212412   5.062   2.188   1.130 -1.2497 -0.8770  1.9087
 3170SOL    HW312413   5.106   2.331   1.108  0.6226 -1.9524 -2.2113
 3170SOL    MW412414   5.098   2.261   1.159  0.3954  0.5961  0.5138
 3171SOL     OW12415   1.082   3.630   1.894  0.6482  0.1583 -0.3320
 3171SOL    HW212416   1.045   3.542   1.893  1.5553 -0.2334 -0.3223
 3171SOL    HW312417   1.009   3.686   1.919  0.0338 -0.5759 -0.4310
 3171SOL    MW412418   1.068   3.626   1.897 -0.2497  0.3824 -0.0712
 3172SOL     OW12419   0.394   4.369   2.708  0.4432  0.0564  0.2211
 3172SOL    HW212420   0.372   4.430   2.778 -0.5595  0.7704 -0.6750
 3172SOL    HW312421   0.416   4.425   2.633 -0.4970 -0.6521 -0.6216
 3172SOL    MW412422   0.394   4.384   2.707  0.5558 -0.0488  0.0996
 3173SOL     OW12423   5.402   5.290   4.027  0.4954  0.2053  0.1101
 3173SOL    HW212424   5.313   5.324   4.038 -0.6799 -2.6431  0.2960
 3173SOL    HW312425   5.451   5.327   4.100 -0.9465  0.6233  0.9039
 3173SOL    MW412426   5.397   5.299   4.038  0.2210  0.3491  0.3932
 3174SOL     OW12427   6.402   2.284   1.625 -0.3514 -0.3138  0.1900
 3174SOL    HW212428   6.368   2.328   1.703  0.6903 -0.3122  0.6567
 3174SOL    HW312429   6.390   2.191   1.642 -0.7038 -0.2883  0.0793
 3174SOL    MW412430   6.396   2.278   1.637  0.4222  0.1031 -0.4805
 3175SOL     OW12431   1.972   4.212   4.607  0.0574  0.0952  0.2226
 3175SOL    HW212432   1.998   4.303   4.591  1.3848 -0.3584 -0.3177
 3175SOL    HW312433   2.004   4.164   4.531 -0.8180 -0.8063  0.3999
 3175SOL    MW412434   1.980   4.218   4.595 -0.1096 -0.0302  0.2470
 3176SOL     OW12435   6.396   0.510   1.339  0.3094  0.0589 -0.5649
 3176SOL    HW212436   6.355   0.451   1.275  3.0603 -1.9928 -0.6264
 3176SOL    HW312437   6.449   0.569   1.286 -1.9422  2.3750 -0.4504
 3176SOL    MW412438   6.398   0.510   1.323 -0.0144 -0.2970  0.1013
 3177SOL     OW12439   6.200   4.491   4.739 -0.3749  0.0633  0.1839
 3177SOL    HW212440   6.219   4.464   4.649  0.6666  0.3885  0.2938
 3177SOL    HW312441   6.120   4.542   4.732 -0.0698  0.4517 -0.6303
 3177SOL    MW412442   6.192   4.494   4.726  0.4903 -0.2920 -0.4959
 3178SOL     OW12443   4.743   5.341   1.945 -0.3090 -0.0897 -0.1938
 3178SOL    HW212444   4.820   5.304   1.900 -0.9319 -1.9971  0.2300
 3178SOL    HW312445   4.669   5.294   1.908 -1.1125  0.4642  0.6777
 3178SOL    MW412446   4.744   5.330   1.934  0.1824 -0.4887  0.1987
 3179SOL     OW12447   5.924   1.872   1.555  0.4099 -0.9915 -0.2306
 3179SOL    HW212448   5.887   1.791   1.520  1.3270 -2.4542  1.9456
 3179SOL    HW312449   6.015   1.872   1.526  0.6158 -1.1666  0.3829
 3179SOL    MW412450   5.931   1.862   1.547 -0.1547 -0.0567  0.1077
 3180SOL     OW12451   3.936   4.500   4.244 -0.3080  0.0952  0.1139
 3180SOL    HW212452   3.842   4.496   4.229  0.0361 -0.3393 -2.5244
 3180SOL    HW312453   3.969   4.557   4.174  1.3119  1.0247  1.5565
 3180SOL    MW412454   3.928   4.507   4.232  0.2298 -0.2580  0.0302
 3181SOL     OW12455   6.247   0.084   5.671  0.1902 -0.6916 -0.3917
 3181SOL    HW212456   6.208   0.163   5.709  0.1318 -0.9755  0.1484
 3181SOL    HW312457   6.268   0.030   5.746 -1.6615 -2.0998 -0.8100
 3181SOL    MW412458   6.245   0.087   5.686 -0.2495  0.2329 -0.1317
 3182SOL     OW12459   0.787   4.941   3.576 -0.3260 -0.0806  0.1829
 3182SOL    HW212460   0.773   4.848   3.593  1.6508 -0.9243 -2.1061
 3182SOL    HW312461   0.721   4.963   3.511 -1.5477  0.4890  1.5667
 3182SOL    MW412462   0.776   4.931   3.570  0.7153 -0.1125  0.2021
 3183SOL     OW12463   3.576   0.133   3.933 -0.0678 -0.4849  0.2239
 3183SOL    HW212464   3.639   0.199   3.962  1.1956 -1.3141 -0.5262
 3183SOL    HW312465   3.515   0.124   4.006  0.5677  0.4782  0.9004
 3183SOL    MW412466   3.577   0.140   3.946 -0.9576 -0.1180  0.0412
 3184SOL     OW12467   2.734   0.663   3.211 -0.4510  0.5852  0.4616
 3184SOL    HW212468   2.695   0.592   3.263 -0.4468  2.0282  2.5598
 3184SOL    HW312469   2.666   0.685   3.147 -0.4795 -1.2209 -0.1978
 3184SOL    MW412470   2.720   0.657   3.210 -0.0753  0.1530  0.9481
 3185SOL     OW12471   0.854   5.046   5.510  0.5746 -0.3809  0.1854
 3185SOL    HW212472   0.855   5.133   5.471  0.7970 -0.7932 -0.7489
 3185SOL    HW312473   0.919   4.997   5.461  1.5520 -0.6646  1.6988
 3185SOL    MW412474   0.862   5.051   5.499 -0.3735 -0.1211 -0.8819
 3186SOL     OW12475   1.538   2.528   3.272  0.0779 -0.0326 -0.4104
 3186SOL    HW212476   1.476   2.474   3.223 -0.1518 -0.7575  0.6621
 3186SOL    HW312477   1.624   2.500   3.242 -0.0765  0.4767 -1.3783
 3186SOL    MW412478   1.541   2.517   3.262 -0.1415  0.5265  0.2527
 3187SOL     OW12479   3.173   4.920   1.273 -0.0465  0.2761  0.4842
 3187SOL    HW212480   3.110   4.896   1.205  0.6761  0.7928 -0.3847
 3187SOL    HW312481   3.150   5.010   1.295  1.5585  1.1720 -1.2359
 3187SOL    MW412482   3.162   4.929   1.267  0.3624 -0.0543 -0.2621
 3188SOL     OW12483   1.759   5.337   0.040 -0.1544  0.0940  0.1341
 3188SOL    HW212484   1.686   5.294  -0.005 -3.0746  3.0648  1.6118
 3188SOL    HW312485   1.788   5.405  -0.020 -0.2922  0.4950  0.5167
 3188SOL    MW412486   1.753   5.340   0.027  0.4549  0.1558 -0.0227
 3189SOL     OW12487   4.403   1.524   1.819 -0.3194  0.6578  0.0098
 3189SOL    HW212488   4.486   1.559   1.850  0.9499 -1.7574 -0.4103
 3189SOL    HW312489   4.380   1.456   1.883 -1.9928  1.2737  0.1150
 3189SOL    MW412490   4.411   1.520   1.831  0.4185  0.7500 -0.1057
 3190SOL     OW12491   0.848   0.306   4.360  0.2177 -0.4610 -0.8583
 3190SOL    HW212492   0.811   0.227   4.322 -0.5958 -0.0326 -0.9964
 3190SOL    HW312493   0.848   0.369   4.288  0.4523 -0.2101 -0.6395
 3190SOL    MW412494   0.843   0.304   4.345  0.1342  0.1205 -0.1998
 3191SOL     OW12495   4.528   4.210   0.747  0.0184  0.2730  0.4209
 3191SOL    HW212496   4.574   4.248   0.822  0.2614  0.2210  0.2986
 3191SOL    HW312497   4.516   4.118   0.771  1.6314 -0.1649 -0.3254
 3191SOL    MW412498   4.533   4.203   0.760  0.1560  0.2755  0.0596
 3192SOL     OW12499   4.794   2.317   6.167  0.6436  0.4185 -0.1057
 3192SOL    HW212500   4.786   2.366   6.249  0.1603  1.9356 -1.0335
 3192SOL    HW312501   4.838   2.377   6.107 -2.7652  1.0417 -2.2530
 3192SOL    MW412502   4.799   2.331   6.170  0.1394 -0.4154  0.4070
 3193SOL     OW12503   0.070   0.876   5.534 -0.1488  0.0566  0.0237
 3193SOL    HW212504   0.076   0.799   5.589  0.1694  1.3009  1.8221
 3193SOL    HW312505   0.123   0.856   5.457 -0.1877 -1.5297  0.3847
 3193SOL    MW412506   0.078   0.863   5.531  0.2986  0.3935  0.4334
 3194SOL     OW12507   6.417   4.278   5.478 -0.2876  0.9784 -0.5638
 3194SOL    HW212508   6.511   4.296   5.481 -0.1275  0.0642  0.4192
 3194SOL    HW312509   6.377   4.361   5.505  0.2969  0.9720  0.3598
 3194SOL    MW412510   6.424   4.292   5.482  0.1604 -0.7253 -0.4361
 3195SOL     OW12511   2.819   5.541   0.617  0.0944 -0.7279 -0.2945
 3195SOL    HW212512   2.872   5.462   0.631  0.8989  0.2189  2.8437
 3195SOL    HW312513   2.793   5.568   0.705  1.1046  3.3148 -1.0475
 3195SOL    MW412514   2.823   5.534   0.631 -0.4195  0.1986  0.3567
 3196SOL     OW12515   0.023   2.331   1.358  0.0993 -0.7448 -0.3036
 3196SOL    HW212516  -0.010   2.319   1.447  0.6616  1.7602  0.3333
 3196SOL    HW312517  -0.048   2.301   1.302 -1.0038 -0.6823  1.0059
 3196SOL    MW412518   0.009   2.326   1.362  0.1618 -0.1207  0.2120
 3197SOL     OW12519   5.788   6.358   2.253  0.1941  0.1547 -0.0719
 3197SOL    HW212520   5.809   6.321   2.167 -0.2889 -0.6616  0.1483
 3197SOL    HW312521   5.698   6.390   2.244  0.7984  1.8639 -0.4330
 3197SOL    MW412522   5.779   6.357   2.240  0.2153 -0.0586 -0.0606
 3198SOL     OW12523   2.010   2.639   5.447  0.0304  0.1240  0.0263
 3198SOL    HW212524   2.104   2.623   5.441  0.2088  0.5990  1.3018
 3198SOL    HW312525   2.003   2.728   5.483 -0.9036 -0.0336  0.2571
 3198SOL    MW412526   2.021   2.649   5.451 -0.4704 -0.4739 -0.2237
 3199SOL     OW12527   1.700   3.601   2.948  0.1732  0.6871  0.2668
 3199SOL    HW212528   1.675   3.595   3.041  0.9903 -1.3721  0.4129
 3199SOL    HW312529   1.709   3.695   2.932 -2.5485  1.2931  1.5487
 3199SOL    MW412530   1.698   3.613   2.958  0.3391  0.1059  0.4113
 3200SOL     OW12531   2.007   4.996   5.154  0.1604 -0.3279 -0.1768
 3200SOL    HW212532   2.071   4.931   5.128  0.3840 -0.2683  0.2188
 3200SOL    HW312533   1.925   4.947   5.163  0.5478 -0.7700  1.1682
 3200SOL    MW412534   2.004   4.981   5.151 -0.4686 -0.4520  0.0811
 3201SOL     OW12535   1.290   1.729   4.510 -0.0440 -0.4614 -0.0476
 3201SOL    HW212536   1.259   1.736   4.419 -0.8484 -0.1749  0.2431
 3201SOL    HW312537   1.239   1.794   4.558 -0.5702 -1.5096  0.8578
 3201SOL    MW412538   1.279   1.739   4.504 -0.1145 -0.1924  0.0690
 3202SOL     OW12539   0.942   2.700   6.326  0.4152 -0.0782 -0.5778
 3202SOL    HW212540   0.967   2.787   6.296 -0.7339  0.5619  0.2471
 3202SOL    HW312541   0.900   2.659   6.251  0.2106  0.3939 -0.7216
 3202SOL    MW412542   0.940   2.706   6.312 -0.4833  0.0422 -0.3433
 3203SOL     OW12543   5.592   2.442   0.775 -0.2851 -0.0476 -0.5020
 3203SOL    HW212544   5.635   2.360   0.751  0.1077 -0.5950  1.8301
 3203SOL    HW312545   5.570   2.483   0.691  0.4576 -2.0178 -1.7311
 3203SOL    MW412546   5.595   2.437   0.760 -0.5063  0.3583  0.3980
 3204SOL     OW12547   2.953   2.075   1.021 -0.0738  0.0652 -0.5406
 3204SOL    HW212548   3.042   2.108   1.007 -0.4858  1.3747 -0.2270
 3204SOL    HW312549   2.896   2.139   0.978 -0.8422 -1.3094 -1.6507
 3204SOL    MW412550   2.957   2.088   1.014 -0.0964 -0.1832  0.4128
 3205SOL     OW12551   4.205   4.456   6.212  0.1237 -0.0470 -0.0136
 3205SOL    HW212552   4.260   4.512   6.268 -1.3898  1.6965 -0.1897
 3205SOL    HW312553   4.154   4.404   6.273  0.5946 -0.3148  0.1628
 3205SOL    MW412554   4.206   4.457   6.228  0.2687  0.1324  0.1008
 3206SOL     OW12555   4.407   0.524   2.927  0.3000  0.4558  0.1890
 3206SOL    HW212556   4.496   0.493   2.944  0.1149 -0.2578 -0.1269
 3206SOL    HW312557   4.394   0.513   2.833 -1.1536 -2.3367  0.5890
 3206SOL    MW412558   4.417   0.519   2.917 -0.3075  0.2057  0.6306
 3207SOL     OW12559   0.786   4.384   3.481  0.4505  0.5385 -0.0750
 3207SOL    HW212560   0.764   4.474   3.459 -0.3646 -0.3112 -3.3089
 3207SOL    HW312561   0.817   4.346   3.399 -0.0777 -2.3732  0.9481
 3207SOL    MW412562   0.787   4.391   3.467  0.0355 -0.3195  0.1257
 3208SOL     OW12563   0.510   0.162   3.926 -0.5435  0.2711 -0.0673
 3208SOL    HW212564   0.422   0.197   3.913 -1.0492  0.0880  2.4112
 3208SOL    HW312565   0.497   0.082   3.977  1.1198  1.4293  2.3611
 3208SOL    MW412566   0.497   0.156   3.931  0.3823  0.6899 -0.0353
 3209SOL     OW12567   4.213   2.922   2.626  0.6280 -0.0126 -0.2110
 3209SOL    HW212568   4.150   2.874   2.680  3.0648 -2.0145  1.0492
 3209SOL    HW312569   4.171   3.007   2.610 -2.3999 -1.2572  0.3987
 3209SOL    MW412570   4.199   2.927   2.631  0.5991 -0.9377 -0.1399
 3210SOL     OW12571   3.701   4.914   3.831  0.3792 -0.0226 -0.0213
 3210SOL    HW212572   3.620   4.884   3.790 -0.9634  2.8598  0.2940
 3210SOL    HW312573   3.676   4.934   3.921  2.1828 -1.7964  0.9473
 3210SOL    MW412574   3.687   4.912   3.838  0.2020  0.1130  0.2437
 3211SOL     OW12575   6.195   2.519   4.450 -0.1461 -0.2831  0.1759
 3211SOL    HW212576   6.101   2.535   4.459 -0.0210 -0.0410  1.1471
 3211SOL    HW312577   6.210   2.434   4.490 -0.0392 -0.6078 -0.5373
 3211SOL    MW412578   6.185   2.510   4.457  0.0119 -0.8984  0.2958
 3212SOL     OW12579   3.538   5.041   2.551  0.2958  0.8025  0.4311
 3212SOL    HW212580   3.519   5.012   2.640  0.0147  0.3754  0.2333
 3212SOL    HW312581   3.630   5.068   2.554  0.5765 -0.1426  0.6085
 3212SOL    MW412582   3.548   5.041   2.563 -0.7016  0.2801  0.1216
 3213SOL     OW12583   5.978   2.383   4.975 -0.8167  0.5492 -0.1121
 3213SOL    HW212584   5.994   2.446   5.045 -1.7643  1.7635 -0.9416
 3213SOL    HW312585   5.982   2.297   5.017  2.3532  0.9972  0.7221
 3213SOL    MW412586   5.981   2.380   4.989 -0.2541 -0.2736  0.5806
 3214SOL     OW12587   3.754   0.770   0.502  0.1685 -0.5591  1.0300
 3214SOL    HW212588   3.745   0.774   0.598  2.9410  0.6533  1.3438
 3214SOL    HW312589   3.752   0.861   0.474  0.9606 -0.7935  0.1548
 3214SOL    MW412590   3.753   0.782   0.511  0.5585 -0.7578  0.0109
 3215SOL     OW12591   0.205   3.213   5.992 -0.2110  0.1055 -0.1413
 3215SOL    HW212592   0.118   3.180   6.016  0.3862 -0.9514  0.6072
 3215SOL    HW312593   0.242   3.245   6.074 -1.0787  3.5435 -0.9250
 3215SOL    MW412594   0.198   3.213   6.006 -0.3781 -0.2330 -0.0360
 3216SOL     OW12595   5.319   5.293   3.023 -0.9055  0.1050 -0.3515
 3216SOL    HW212596   5.365   5.367   3.061  0.2997 -1.0099  0.4526
 3216SOL    HW312597   5.347   5.218   3.075 -2.1249 -0.9153 -1.1039
 3216SOL    MW412598   5.329   5.293   3.035  0.8033 -0.4937 -0.1835
 3217SOL     OW12599   0.852   1.973   2.600 -0.2665  0.6788 -0.1287
 3217SOL    HW212600   0.771   1.941   2.640  0.5105  1.0404  1.8557
 3217SOL    HW312601   0.826   2.051   2.552 -1.0086  1.2632  1.1611
 3217SOL    MW412602   0.838   1.979   2.599  0.0624 -0.2216 -0.1637
 3218SOL     OW12603   3.912   4.515   0.943  0.0612 -0.7630  0.2624
 3218SOL    HW212604   3.820   4.541   0.940  0.2279 -0.2228 -1.0054
 3218SOL    HW312605   3.920   4.451   0.872  1.3181  1.5737 -1.8465
 3218SOL    MW412606   3.901   4.510   0.933  0.4023 -0.1416 -0.0850
 3219SOL     OW12607   1.065   4.012   0.476  0.0789  0.4974  0.1479
 3219SOL    HW212608   1.036   3.945   0.538 -0.0174 -0.6205 -1.0675
 3219SOL    HW312609   1.158   4.024   0.495  0.3576 -0.7790 -0.3094
 3219SOL    MW412610   1.074   4.005   0.487 -0.1384 -0.1826 -0.2147
 3220SOL     OW12611   5.089   5.019   3.452  0.5258  0.3664 -0.0488
 3220SOL    HW212612   5.139   4.949   3.410 -1.4324 -0.5151 -1.0517
 3220SOL    HW312613   5.121   5.100   3.412  1.2877 -0.1500 -0.5017
 3220SOL    MW412614   5.100   5.021   3.442  0.6565  0.6548 -0.3678
 3221SOL     OW12615   4.561   0.260   4.374  0.5352 -0.0920  0.2442
 3221SOL    HW212616   4.498   0.250   4.445  0.4176  1.0487  0.3174
 3221SOL    HW312617   4.620   0.328   4.404  0.6528  0.2090 -0.6367
 3221SOL    MW412618   4.561   0.268   4.387  0.2374  0.0102 -0.6068
 3222SOL     OW12619   4.894   5.330   3.587  0.0042 -0.2665 -0.2313
 3222SOL    HW212620   4.982   5.356   3.615  0.0870  1.9171 -2.2590
 3222SOL    HW312621   4.888   5.237   3.612  2.3125 -0.1014  1.2436
 3222SOL    MW412622   4.905   5.321   3.594  0.5728 -0.0784  0.2815
 3223SOL     OW12623   0.348   3.966   5.811 -0.4058 -0.5950  0.2868
 3223SOL    HW212624   0.397   3.946   5.731  2.6133  1.3774  1.4898
 3223SOL    HW312625   0.367   3.892   5.870  0.7980 -0.0831  0.5687
 3223SOL    MW412626   0.357   3.953   5.808 -0.2588  0.7151 -0.1334
 3224SOL     OW12627   6.399   5.375   4.019 -0.5754 -0.7275 -0.6513
 3224SOL    HW212628   6.344   5.308   4.059  0.0332 -0.5901  0.4294
 3224SOL    HW312629   6.472   5.387   4.079 -0.3439  0.4613 -1.1317
 3224SOL    MW412630   6.401   5.368   4.032 -0.4730 -0.1509 -0.0001
 3225SOL     OW12631   0.318   6.010   0.261 -0.1584 -0.0317  0.0443
 3225SOL    HW212632   0.254   5.974   0.322 -0.4718 -0.9685 -0.8117
 3225SOL    HW312633   0.266   6.050   0.192  0.1908  0.1109 -0.1401
 3225SOL    MW412634   0.303   6.011   0.260 -0.1514 -0.4808 -0.3866
 3226SOL     OW12635   3.668   2.894   0.775  0.0956 -0.8030  0.5225
 3226SOL    HW212636   3.601   2.956   0.746  0.8059 -0.3541 -0.2051
 3226SOL    HW312637   3.743   2.949   0.798  0.8944 -1.3984 -0.5607
 3226SOL    MW412638   3.669   2.910   0.774 -0.1877 -0.8328  0.8547
 3227SOL     OW12639   0.969   2.068   1.189  0.2166  0.7633  0.0468
 3227SOL    HW212640   0.903   2.033   1.129  0.7204 -0.7380  0.3267
 3227SOL    HW312641   0.919   2.093   1.267 -0.0500 -0.3237  0.2415
 3227SOL    MW412642   0.954   2.067   1.191  0.1619  0.1581  0.5925
 3228SOL     OW12643   3.030   4.623   3.097  0.1947 -0.4817  0.2256
 3228SOL    HW212644   3.104   4.612   3.038 -0.0279  1.0608 -0.3828
 3228SOL    HW312645   2.960   4.571   3.057  0.7587 -1.4836  0.5024
 3228SOL    MW412646   3.031   4.615   3.084  0.1782  0.0798  0.0378
 3229SOL     OW12647   2.817   5.689   5.627 -0.2767 -0.5089  0.5956
 3229SOL    HW212648   2.723   5.689   5.639 -0.3934 -0.3923 -0.2664
 3229SOL    HW312649   2.837   5.771   5.582  0.3515 -0.1126  1.5615
 3229SOL    MW412650   2.807   5.700   5.622  0.3758 -0.1837  0.0348
 3230SOL     OW12651   1.634   3.704   4.052  0.5210  0.3021  0.5085
 3230SOL    HW212652   1.714   3.754   4.040 -0.1530  1.5926  1.2379
 3230SOL    HW312653   1.582   3.755   4.114 -0.3353 -1.1467  1.0355
 3230SOL    MW412654   1.637   3.717   4.058 -0.1358  0.3122  0.0076
 3231SOL     OW12655   5.205   2.411   4.833  0.2005  0.0438 -0.2901
 3231SOL    HW212656   5.236   2.502   4.840 -2.4649  0.9353  1.8859
 3231SOL    HW312657   5.125   2.417   4.782  1.1328 -1.5008 -2.0287
 3231SOL    MW412658   5.199   2.424   4.827  0.2817 -0.2604  0.3861
 3232SOL     OW12659   5.626   0.818   0.760 -0.2183  0.6856  0.2959
 3232SOL    HW212660   5.534   0.833   0.742 -0.0180  1.1763 -0.3860
 3232SOL    HW312661   5.671   0.892   0.719  0.3616  1.3307  2.0370
 3232SOL    MW412662   5.620   0.830   0.752 -0.1375  0.1747  0.2090
 3233SOL     OW12663   4.546   0.461   2.078 -0.0961  0.2258  0.1719
 3233SOL    HW212664   4.605   0.535   2.089  0.2399 -0.1403  0.8971
 3233SOL    HW312665   4.508   0.473   1.991 -0.2601  1.4002  0.3914
 3233SOL    MW412666   4.549   0.472   2.068  0.0095  0.4113  0.0361
 3234SOL     OW12667   0.690   1.237   0.648  0.4626  0.1625  0.0891
 3234SOL    HW212668   0.656   1.154   0.680 -1.1607  0.3849 -0.9566
 3234SOL    HW312669   0.784   1.221   0.636  0.3360 -1.2344  0.7119
 3234SOL    MW412670   0.698   1.224   0.651 -0.3810  0.0051  0.0049
 3235SOL     OW12671   0.817   4.504   5.649  0.5312 -0.5494  0.6864
 3235SOL    HW212672   0.817   4.507   5.745  0.5586 -2.8328  0.7979
 3235SOL    HW312673   0.872   4.578   5.624 -0.2184  0.6729  2.3770
 3235SOL    MW412674   0.824   4.514   5.659 -0.4969 -0.1412  0.1082
 3236SOL     OW12675   2.496   1.183   4.153 -0.0778  0.0048 -0.5800
 3236SOL    HW212676   2.435   1.223   4.215  0.5183  1.1891 -0.7302
 3236SOL    HW312677   2.569   1.245   4.148  1.2365 -1.4570 -0.2658
 3236SOL    MW412678   2.498   1.197   4.160 -0.6515  0.1971 -0.0471
 3237SOL     OW12679   2.246   1.707   5.926 -0.0142  0.5222  0.1304
 3237SOL    HW212680   2.291   1.729   6.008 -0.0164 -1.3005  0.6609
 3237SOL    HW312681   2.154   1.725   5.944  0.1017  1.0837  0.1789
 3237SOL    MW412682   2.240   1.712   5.939 -0.0690 -0.1156  0.0910
 3238SOL     OW12683   0.517   3.952   1.755 -0.1415  0.0935  0.0165
 3238SOL    HW212684   0.555   3.873   1.715  0.0616  0.6230 -0.8767
 3238SOL    HW312685   0.589   4.015   1.755 -0.0664  0.0317  1.4840
 3238SOL    MW412686   0.532   3.950   1.750 -0.4613 -0.0637  0.3485
 3239SOL     OW12687   5.542   0.950   2.825 -0.1741  0.3690 -0.1981
 3239SOL    HW212688   5.478   0.902   2.773  1.1568  0.8420 -2.4267
 3239SOL    HW312689   5.492   1.017   2.870 -1.4028 -0.0733 -0.8702
 3239SOL    MW412690   5.527   0.952   2.824 -0.3451 -0.1943  0.0997
 3240SOL     OW12691   2.267   3.027   0.790 -0.2174 -0.0856 -0.0073
 3240SOL    HW212692   2.298   2.969   0.860  1.5617  0.0091 -0.6587
 3240SOL    HW312693   2.345   3.043   0.737 -1.2923  0.7288 -1.3872
 3240SOL    MW412694   2.281   3.021   0.792  0.0053 -0.6317  0.6010
 3241SOL     OW12695   2.920   3.842   3.467 -0.1679  0.0323 -0.0800
 3241SOL    HW212696   2.976   3.918   3.484  2.9515 -1.9558 -0.4783
 3241SOL    HW312697   2.926   3.829   3.372  0.0313 -1.1165  0.0700
 3241SOL    MW412698   2.928   3.850   3.456 -0.1434 -0.0812  0.2930
 3242SOL     OW12699   4.695   2.756   3.906 -0.1731  0.1019  0.0110
 3242SOL    HW212700   4.741   2.750   3.990  0.3440 -0.5278 -0.3017
 3242SOL    HW312701   4.686   2.849   3.890 -0.3793  0.2321  0.8208
 3242SOL    MW412702   4.700   2.767   3.915 -0.4467 -0.0522 -0.4859
 3243SOL     OW12703   2.452   5.730   0.904  0.6490  0.3309 -0.0070
 3243SOL    HW212704   2.515   5.756   0.971 -0.5030  2.4020  0.3369
 3243SOL    HW312705   2.371   5.714   0.951  0.3491 -0.2027 -0.6905
 3243SOL    MW412706   2.450   5.731   0.919 -0.1687 -0.1225 -0.7191
 3244SOL     OW12707   4.178   1.493   0.666  0.5252  0.5307  1.0521
 3244SOL    HW212708   4.149   1.426   0.728 -0.2114 -1.1601 -1.0408
 3244SOL    HW312709   4.159   1.576   0.711 -0.7495 -0.5964  2.7419
 3244SOL    MW412710   4.172   1.495   0.680  0.5062  0.2603  0.8748
 3245SOL     OW12711   5.239   0.998   4.458 -0.2038 -0.8203  1.0870
 3245SOL    HW212712   5.174   1.060   4.492 -2.6078 -2.3560 -0.4030
 3245SOL    HW312713   5.250   1.024   4.367  0.4554 -1.2311  1.0471
 3245SOL    MW412714   5.232   1.010   4.450  0.8152  0.2545  0.0584
 3246SOL     OW12715   1.482   2.112   2.631 -0.4286  0.3242 -0.4622
 3246SOL    HW212716   1.451   2.030   2.591 -1.4175  0.2713  0.3835
 3246SOL    HW312717   1.488   2.173   2.557  0.3477 -0.5016 -1.1100
 3246SOL    MW412718   1.478   2.109   2.616  0.0884  0.4583 -0.1125
 3247SOL     OW12719   0.206   6.334   5.490 -0.3088 -0.1788 -0.2881
 3247SOL    HW212720   0.247   6.248   5.481  0.8127  0.0887  1.6451
 3247SOL    HW312721   0.113   6.318   5.474 -0.1905 -1.8609  0.4935
 3247SOL    MW412722   0.199   6.320   5.487 -0.0702  0.2106 -0.3367
 3248SOL     OW12723   6.206   2.658   2.580 -0.4181 -0.6510  0.2715
 3248SOL    HW212724   6.143   2.730   2.574 -1.0458 -1.2941 -2.0157
 3248SOL    HW312725   6.286   2.692   2.540 -0.2201 -0.7515  0.5753
 3248SOL    MW412726   6.208   2.672   2.574 -0.1034 -0.5309 -0.3642
 3249SOL     OW12727   4.589   3.042   3.918  0.7199 -0.0140  0.6166
 3249SOL    HW212728   4.578   3.054   4.013  1.9324 -0.1552  0.7909
 3249SOL    HW312729   4.587   3.131   3.883  1.8968  0.1792  0.9883
 3249SOL    MW412730   4.588   3.056   3.926  0.2252 -0.3934  0.0730
 3250SOL     OW12731   5.840   1.234   3.077  0.1441  0.0262 -0.1159
 3250SOL    HW212732   5.853   1.272   2.990 -0.1362 -0.1948 -0.2567
 3250SOL    HW312733   5.834   1.140   3.061 -0.0190 -0.0063  0.1296
 3250SOL    MW412734   5.841   1.227   3.064 -0.2197 -0.1246 -0.2558
 3251SOL     OW12735   5.742   0.248   2.549  0.3177 -0.0793  0.0623
 3251SOL    HW212736   5.661   0.205   2.575  0.7323 -0.5597  0.5633
 3251SOL    HW312737   5.727   0.273   2.457  0.0537 -1.2312 -0.2197
 3251SOL    MW412738   5.729   0.246   2.540 -0.0623 -0.0226 -0.3376
 3252SOL     OW12739   1.047   2.408   3.738 -0.1865  0.2047 -0.3004
 3252SOL    HW212740   1.083   2.319   3.739  1.0715  0.6897 -0.7353
 3252SOL    HW312741   1.068   2.442   3.650 -1.8671  0.4701 -0.6465
 3252SOL    MW412742   1.055   2.401   3.726 -0.0189  0.1939  0.6133
 3253SOL     OW12743   6.316   3.860   1.679 -0.5468 -0.4729 -0.5649
 3253SOL    HW212744   6.323   3.937   1.736 -1.3159  1.2852 -2.6715
 3253SOL    HW312745   6.287   3.790   1.737  0.0383  0.8469  1.4342
 3253SOL    MW412746   6.313   3.861   1.694  0.4394 -0.2311  0.0858
 3254SOL     OW12747   0.805   2.638   0.529  0.1556  0.6711 -0.1630
 3254SOL    HW212748   0.727   2.679   0.568  0.2808 -0.1446  1.0230
 3254SOL    HW312749   0.867   2.710   0.518 -0.7346  1.3206 -1.0575
 3254SOL    MW412750   0.802   2.653   0.533 -0.0793  0.4450  0.0452
 3255SOL     OW12751   3.162   2.041   2.932  0.1561  0.0858 -0.3801
 3255SOL    HW212752   3.234   1.992   2.893 -0.7637 -2.5642  1.0518
 3255SOL    HW312753   3.084   2.011   2.885 -0.4622  0.0554  0.6415
 3255SOL    MW412754   3.161   2.031   2.920 -0.0285 -0.4205  0.0005
 3256SOL     OW12755   1.066   1.209   1.707 -0.9206 -0.1563 -0.2366
 3256SOL    HW212756   1.048   1.194   1.615  0.0078  0.1739 -0.4825
 3256SOL    HW312757   1.161   1.224   1.711 -0.9788  0.0265  0.7389
 3256SOL    MW412758   1.077   1.209   1.696  0.1609 -0.3692  0.4884
 3257SOL     OW12759   2.444   1.725   4.796  0.7383  0.3476 -0.0376
 3257SOL    HW212760   2.474   1.776   4.872  0.1289  1.0886 -0.2845
 3257SOL    HW312761   2.418   1.641   4.832  0.9693  0.5039  0.5002
 3257SOL    MW412762   2.445   1.721   4.811 -0.2784 -1.0776 -0.1128
 3258SOL     OW12763   2.704   2.416   1.607  0.7791 -0.8199  0.8111
 3258SOL    HW212764   2.704   2.322   1.623  2.7249 -1.0935 -0.5384
 3258SOL    HW312765   2.772   2.450   1.664  1.8516 -0.6221 -0.5382
 3258SOL    MW412766   2.713   2.408   1.617  0.1933  0.5797  0.3243
 3259SOL     OW12767   5.137   3.466   4.511  0.4180 -0.0448 -0.1235
 3259SOL    HW212768   5.086   3.528   4.457 -1.6870 -0.7944  0.8851
 3259SOL    HW312769   5.223   3.507   4.519 -0.8542  2.7990  0.4983
 3259SOL    MW412770   5.141   3.480   4.505  0.5016 -0.4506  0.1319
 3260SOL     OW12771   0.355   3.740   4.781  0.0487 -0.1668 -0.1431
 3260SOL    HW212772   0.385   3.659   4.822 -0.7394  0.2312  1.2820
 3260SOL    HW312773   0.407   3.748   4.702 -0.3410 -2.4351 -0.6908
 3260SOL    MW412774   0.366   3.730   4.776  0.0676  0.6057  0.6033
 3261SOL     OW12775   0.809   2.560   4.899 -0.3269  0.5262  0.3867
 3261SOL    HW212776   0.860   2.638   4.879  1.3805  0.2185  3.0173
 3261SOL    HW312777   0.831   2.498   4.829  2.9698  0.4587  1.3029
 3261SOL    MW412778   0.818   2.562   4.888 -0.2882 -0.0961 -0.0272
 3262SOL     OW12779   1.967   5.726   1.153  0.5577  0.6746  0.1246
 3262SOL    HW212780   2.002   5.650   1.199 -0.7030 -0.1055 -0.1578
 3262SOL    HW312781   1.967   5.796   1.218  1.2010  0.2890  0.5511
 3262SOL    MW412782   1.972   5.725   1.168 -0.0980 -0.4690 -0.0607
 3263SOL     OW12783   4.438   2.218   5.430  0.0212 -0.2163  0.7150
 3263SOL    HW212784   4.420   2.188   5.341  0.1034  0.3053  0.5192
 3263SOL    HW312785   4.352   2.235   5.468 -0.0346 -0.8230  0.8759
 3263SOL    MW412786   4.424   2.216   5.424  0.3517  0.0366  0.3018
 3264SOL     OW12787   2.969   6.063   2.267  0.0726  0.3516  0.1567
 3264SOL    HW212788   3.008   6.126   2.327  0.7624  0.4421 -0.3684
 3264SOL    HW312789   3.044   6.011   2.235 -0.2839  0.2755 -0.5825
 3264SOL    MW412790   2.984   6.064   2.271  0.2153  0.7599  0.6819
 3265SOL     OW12791   2.672   0.336   5.319 -0.3074  0.3708  0.0339
 3265SOL    HW212792   2.664   0.305   5.410 -1.8266  0.2363 -0.1135
 3265SOL    HW312793   2.733   0.274   5.279 -1.6856 -1.2679  0.2950
 3265SOL    MW412794   2.679   0.323   5.326  0.4297 -0.3995 -0.2355
 3266SOL     OW12795   1.929   0.743   5.122  0.0075 -0.7604 -0.0181
 3266SOL    HW212796   2.014   0.736   5.166  0.4347 -0.7138 -0.8030
 3266SOL    HW312797   1.950   0.729   5.029 -0.3245  2.3735 -0.6818
 3266SOL    MW412798   1.943   0.740   5.116  0.0504 -0.1620 -0.1573
 3267SOL     OW12799   3.568   1.087   4.703  0.4659 -0.4033  0.7589
 3267SOL    HW212800   3.533   0.999   4.690  0.3108 -0.1162 -1.2047
 3267SOL    HW312801   3.647   1.074   4.756  1.4551 -1.9936 -0.9666
 3267SOL    MW412802   3.574   1.074   4.708  0.0301  0.3699 -0.6186
 3268SOL     OW12803   2.197   4.969   2.653 -0.8678  0.0373  0.2038
 3268SOL    HW212804   2.234   4.935   2.734 -1.9728 -0.9458  0.3188
 3268SOL    HW312805   2.114   4.923   2.643  0.0378 -1.2542 -2.4091
 3268SOL    MW412806   2.191   4.958   2.662  0.9433 -0.8654 -0.2672
 3269SOL     OW12807   3.558   4.815   5.084  0.4363 -0.2022  0.7114
 3269SOL    HW212808   3.474   4.862   5.079  0.3033 -0.5236 -0.2500
 3269SOL    HW312809   3.533   4.724   5.097  0.6503 -0.2621  0.6910
 3269SOL    MW412810   3.543   4.809   5.085 -0.0970 -0.1772 -0.6160
 3270SOL     OW12811   1.337   3.081   0.028  0.0778 -0.1894  0.4954
 3270SOL    HW212812   1.346   3.051   0.119  0.5321 -1.0357  0.1796
 3270SOL    HW312813   1.264   3.029  -0.007 -0.3923  0.4564  0.4961
 3270SOL    MW412814   1.328   3.070   0.036 -0.0210  0.6222  0.3264
 3271SOL     OW12815   0.913   6.221   0.868  0.1396  0.6688 -0.1428
 3271SOL    HW212816   0.941   6.272   0.792  0.1446  0.7706 -0.0720
 3271SOL    HW312817   0.918   6.130   0.838 -1.3302  0.7656 -0.7648
 3271SOL    MW412818   0.917   6.215   0.854 -0.2984 -0.1627  0.1744
 3272SOL     OW12819   4.698   0.969   0.769 -0.5770 -0.5147  0.0683
 3272SOL    HW212820   4.748   0.889   0.751 -1.4174 -1.0715  0.1623
 3272SOL    HW312821   4.759   1.040   0.749 -0.0234 -1.1658 -0.6312
 3272SOL    MW412822   4.713   0.968   0.764 -0.2534  0.2013  0.1199
 3273SOL     OW12823   2.030   0.991   4.805 -0.1450  0.2312 -0.2374
 3273SOL    HW212824   2.124   1.006   4.797  0.3762 -3.0132 -1.9033
 3273SOL    HW312825   2.000   0.981   4.715 -1.7619 -0.4090  0.3337
 3273SOL    MW412826   2.038   0.992   4.792  0.0461 -0.8511  0.3942
 3274SOL     OW12827   5.709   0.237   1.876  0.0600  0.3828  0.3955
 3274SOL    HW212828   5.762   0.235   1.956  0.5121  1.2500  0.1300
 3274SOL    HW312829   5.650   0.311   1.888 -1.0057 -0.4788  0.6166
 3274SOL    MW412830   5.708   0.247   1.888 -0.2610 -0.1021 -1.1989
 3275SOL     OW12831   3.441   3.108   5.708  0.2732 -0.3203  0.5200
 3275SOL    HW212832   3.510   3.097   5.774  0.2664  0.4319  0.6598
 3275SOL    HW312833   3.363   3.071   5.749  0.2142  0.3565  1.0381
 3275SOL    MW412834   3.440   3.101   5.722 -0.0571 -0.0320 -0.2716
 3276SOL     OW12835   5.344   2.344   5.081 -0.0032 -0.2031  0.5070
 3276SOL    HW212836   5.292   2.379   5.008  1.2732  0.6928 -0.0050
 3276SOL    HW312837   5.364   2.254   5.054 -0.1221 -0.1026  0.0678
 3276SOL    MW412838   5.340   2.337   5.067 -0.2634 -0.4617 -0.0333
 3277SOL     OW12839   0.668   6.333   4.628 -0.4975  0.0484 -0.3411
 3277SOL    HW212840   0.690   6.294   4.543 -0.5223 -0.3434 -0.1724
 3277SOL    HW312841   0.625   6.415   4.607 -0.5610 -0.0795 -0.7109
 3277SOL    MW412842   0.665   6.339   4.614  0.5725  0.3759  0.4436
 3278SOL     OW12843   0.886   3.930   0.939  0.0522 -0.1799  0.2798
 3278SOL    HW212844   0.902   3.836   0.938 -2.0518 -0.7372  3.7600
 3278SOL    HW312845   0.820   3.945   0.872 -1.7062 -1.7631  1.5656
 3278SOL    MW412846   0.880   3.920   0.930 -0.0699  0.4285 -0.2788
 3279SOL     OW12847   3.834   2.046   2.639  0.1616 -0.0602 -0.9587
 3279SOL    HW212848   3.837   1.950   2.638  0.3068 -0.0770  0.3273
 3279SOL    HW312849   3.758   2.068   2.692  2.3889  0.4965  2.2943
 3279SOL    MW412850   3.824   2.036   2.646 -0.3977 -0.3388  0.5114
 3280SOL     OW12851   2.209   0.500   2.432 -0.0241  0.2615 -0.5758
 3280SOL    HW212852   2.139   0.436   2.444 -0.6944  1.0361 -0.1996
 3280SOL    HW312853   2.163   0.580   2.405  0.6331  0.9845  0.3692
 3280SOL    MW412854   2.193   0.502   2.430  0.0716  0.6733  0.4623
 3281SOL     OW12855   1.556   5.956   2.322  0.4832 -0.2373  0.0648
 3281SOL    HW212856   1.564   5.913   2.407 -0.2866 -2.4080 -0.8919
 3281SOL    HW312857   1.632   5.926   2.272  1.6401  2.0403  0.3355
 3281SOL    MW412858   1.567   5.946   2.326 -0.1187  0.5169  0.6976
 3282SOL     OW12859   2.906   1.246   0.136  0.3304 -0.4949  0.2975
 3282SOL    HW212860   2.972   1.252   0.206  1.5671  1.3350 -0.9472
 3282SOL    HW312861   2.838   1.308   0.162 -0.1487 -1.2195  0.7988
 3282SOL    MW412862   2.906   1.255   0.149 -0.3267 -0.3433 -0.2529
 3283SOL     OW12863   3.009   5.867   4.827  0.1069  0.0272  0.2125
 3283SOL    HW212864   2.937   5.830   4.879 -0.3480  0.6988  0.0723
 3283SOL    HW312865   3.007   5.818   4.745 -0.6640  0.5193 -0.0759
 3283SOL    MW412866   2.999   5.856   4.823 -0.3788 -0.3802 -0.3503
 3284SOL     OW12867   1.940   2.948   2.925 -0.2705  0.2844  0.1643
 3284SOL    HW212868   1.979   2.938   2.838 -1.6047  0.5409 -0.4972
 3284SOL    HW312869   1.872   2.881   2.928 -1.4337  1.4177  0.2821
 3284SOL    MW412870   1.936   2.938   2.914  0.1203 -0.0021  0.2236
 3285SOL     OW12871   0.112   3.267   5.018 -0.5233  0.3327  0.7313
 3285SOL    HW212872   0.133   3.332   4.951 -2.3876  1.1099  0.8584
 3285SOL    HW312873   0.082   3.191   4.968 -0.8081  0.4958  0.6519
 3285SOL    MW412874   0.111   3.266   5.002 -0.6891  0.2969  0.1533
 3286SOL     OW12875   1.463   2.478   0.212 -0.4665  0.4247 -0.7732
 3286SOL    HW212876   1.437   2.526   0.133 -1.8840 -0.0562 -0.6222
 3286SOL    HW312877   1.466   2.386   0.185 -0.7146  0.2844 -0.3445
 3286SOL    MW412878   1.460   2.472   0.198 -0.0098  0.2710  0.1192
 3287SOL     OW12879   0.460   2.323   5.451  0.3894 -0.1367 -0.6155
 3287SOL    HW212880   0.410   2.403   5.466 -1.4066 -1.2236 -0.5200
 3287SOL    HW312881   0.394   2.253   5.452  2.1724 -1.9571  1.9962
 3287SOL    MW412882   0.444   2.324   5.453 -0.0483  0.3278 -0.9367
 3288SOL     OW12883   2.974   6.085   6.290 -0.3146  0.3371 -0.7742
 3288SOL    HW212884   3.042   6.133   6.242 -1.0646  2.2623 -0.0286
 3288SOL    HW312885   2.937   6.025   6.226  2.5305 -1.3179 -1.0096
 3288SOL    MW412886   2.978   6.084   6.275  0.2120  0.2746 -0.1419
 3289SOL     OW12887   3.539   5.364   0.684 -0.9522 -0.0711  0.6167
 3289SOL    HW212888   3.621   5.414   0.687 -1.5871  1.1426 -0.6709
 3289SOL    HW312889   3.560   5.281   0.725  0.7131  0.5062  1.0275
 3289SOL    MW412890   3.553   5.360   0.690  0.4661  0.0229  0.8667
 3290SOL     OW12891   1.868   3.500   4.395 -0.1180  0.0305  0.0323
 3290SOL    HW212892   1.793   3.535   4.348  0.8821  1.1694 -0.8040
 3290SOL    HW312893   1.913   3.578   4.429 -0.0030 -0.6843  1.6549
 3290SOL    MW412894   1.864   3.515   4.394  0.3939  0.3805  0.2727
 3291SOL     OW12895   4.930   3.882   1.688  0.5682  0.6305 -0.2414
 3291SOL    HW212896   4.895   3.806   1.642  0.3835  0.9902 -0.7022
 3291SOL    HW312897   4.882   3.884   1.771  0.4465  0.3513 -0.3053
 3291SOL    MW412898   4.919   3.872   1.693  0.3208  0.1363 -0.2057
 3292SOL     OW12899   5.946   5.758   2.175 -0.2375 -0.2479 -0.0517
 3292SOL    HW212900   5.954   5.853   2.169 -0.7921 -0.2414 -0.8634
 3292SOL    HW312901   5.989   5.736   2.258 -0.7708  0.7831  0.5208
 3292SOL    MW412902   5.953   5.768   2.185 -0.3759  0.3011  0.2107
 3293SOL     OW12903   0.021   3.023   2.019 -0.0254  0.4297  0.2497
 3293SOL    HW212904   0.099   2.972   2.043 -1.1411 -1.1376  0.7136
 3293SOL    HW312905   0.053   3.087   1.955  1.7180  0.1364  0.7630
 3293SOL    MW412906   0.036   3.025   2.014 -0.0657  0.1322  0.0070
 3294SOL     OW12907   5.319   1.956   1.113  0.0476  0.4317 -0.5197
 3294SOL    HW212908   5.274   1.901   1.177 -2.4676  4.0014  1.1527
 3294SOL    HW312909   5.262   1.953   1.036  0.3213  0.1235 -0.7119
 3294SOL    MW412910   5.306   1.948   1.111 -0.3096  0.1241  1.0116
 3295SOL     OW12911   6.057   1.480   2.954 -0.2620 -0.0823  0.5413
 3295SOL    HW212912   6.118   1.437   3.013  1.2904  1.3105  0.0457
 3295SOL    HW312913   5.983   1.505   3.010  0.8389  0.5588  1.7731
 3295SOL    MW412914   6.055   1.478   2.969 -0.1365 -0.4378  0.2605
 3296SOL     OW12915   5.810   5.290   4.852 -0.0291  0.4037  0.0906
 3296SOL    HW212916   5.803   5.203   4.814  0.6686  0.4279 -0.1136
 3296SOL    HW312917   5.813   5.275   4.947  1.2585  0.1023  0.0215
 3296SOL    MW412918   5.809   5.277   4.860  0.5013 -0.2809  0.0736
 3297SOL     OW12919   1.785   2.096   2.790  0.7467  0.1684  0.2077
 3297SOL    HW212920   1.815   2.009   2.817 -1.4802 -0.5256  0.6163
 3297SOL    HW312921   1.771   2.088   2.696 -2.7045 -1.0734  0.6847
 3297SOL    MW412922   1.787   2.083   2.781  0.5657  0.3973  0.3861
 3298SOL     OW12923   0.645   3.482   4.605  0.1613 -0.6474  0.2626
 3298SOL    HW212924   0.732   3.457   4.572 -0.7300 -2.6192 -0.8023
 3298SOL    HW312925   0.622   3.412   4.666 -0.7455 -0.2548  0.3882
 3298SOL    MW412926   0.653   3.469   4.609 -0.0795 -0.2330  0.8065
 3299SOL     OW12927   2.365   3.173   4.203  0.1272 -0.1069  0.1402
 3299SOL    HW212928   2.339   3.082   4.218 -2.2307  0.6712  1.3019
 3299SOL    HW312929   2.432   3.168   4.135 -0.3013 -2.6694 -0.1891
 3299SOL    MW412930   2.370   3.160   4.196  0.2282 -0.2307  0.4428
 3300SOL     OW12931   3.580   5.807   2.909  0.4760  0.1335 -0.4067
 3300SOL    HW212932   3.531   5.868   2.854 -2.0213 -0.9053  0.5186
 3300SOL    HW312933   3.615   5.742   2.847  0.8113  0.9721 -1.1088
 3300SOL    MW412934   3.578   5.806   2.894  0.4294  0.2810  0.5873
 3301SOL     OW12935   5.646   3.337   3.058 -0.1110 -0.1349 -0.6450
 3301SOL    HW212936   5.614   3.305   2.973  0.1902  0.1881 -0.8844
 3301SOL    HW312937   5.737   3.310   3.061  0.0097  0.2674 -0.6355
 3301SOL    MW412938   5.653   3.329   3.047 -0.1348  0.6314 -1.2239
 3302SOL     OW12939   1.769   2.194   4.645  0.1657  0.1995  0.4136
 3302SOL    HW212940   1.815   2.246   4.711  1.7777  0.1125 -0.5780
 3302SOL    HW312941   1.784   2.103   4.673 -0.8658  0.1865  0.9919
 3302SOL    MW412942   1.777   2.189   4.658 -0.1567 -0.1646 -0.6593
 3303SOL     OW12943   5.057   2.263   4.197 -0.0769  0.4690 -0.2817
 3303SOL    HW212944   5.043   2.181   4.245 -0.8435  0.0122 -1.2598
 3303SOL    HW312945   4.988   2.321   4.228  0.3875  0.7235  0.3141
 3303SOL    MW412946   5.046   2.259   4.208 -0.3510  0.4618 -0.0519
 3304SOL     OW12947   2.695   0.309   0.935 -0.3240 -0.0102 -0.2571
 3304SOL    HW212948   2.773   0.253   0.926 -0.2087  0.1588 -0.3166
 3304SOL    HW312949   2.730   0.397   0.950 -0.4859  0.2321 -1.2070
 3304SOL    MW412950   2.710   0.313   0.936 -0.7153 -0.3381 -0.1474
 3305SOL     OW12951   2.193   6.180   2.444 -0.0898 -0.1092  1.4295
 3305SOL    HW212952   2.257   6.248   2.420  0.3493 -1.0136 -0.0631
 3305SOL    HW312953   2.227   6.143   2.526  0.0464  0.9665  1.8775
 3305SOL    MW412954   2.206   6.184   2.452 -0.0464 -0.0031 -0.1714
 3306SOL     OW12955   6.158   2.363   2.238  0.4763  0.3818  0.1484
 3306SOL    HW212956   6.107   2.285   2.259 -0.5217  0.9749 -0.0139
 3306SOL    HW312957   6.228   2.364   2.303 -1.9124  1.5938  2.8857
 3306SOL    MW412958   6.161   2.353   2.249  0.0284 -0.1836  0.2103
 3307SOL     OW12959   2.498   4.475   3.707 -0.3276  0.3634 -0.3429
 3307SOL    HW212960   2.511   4.385   3.737 -1.3291  0.5209  0.6425
 3307SOL    HW312961   2.419   4.504   3.753  0.2042  1.8787 -0.3341
 3307SOL    MW412962   2.489   4.467   3.717  0.3249  0.3914 -0.0013
 3308SOL     OW12963   3.643   1.583   0.282  0.0892 -0.1451 -0.3342
 3308SOL    HW212964   3.712   1.646   0.302  0.8132 -1.0414  0.0699
 3308SOL    HW312965   3.614   1.606   0.194 -0.0435  1.0858  0.0158
 3308SOL    MW412966   3.648   1.594   0.273  0.6907  0.8050 -0.2026
 3309SOL     OW12967   2.304   2.936   0.415 -0.0509 -0.1617 -0.0163
 3309SOL    HW212968   2.258   2.858   0.385  0.0846 -0.8639  1.5034
 3309SOL    HW312969   2.365   2.904   0.482 -0.3445  1.2982  1.0022
 3309SOL    MW412970   2.306   2.921   0.420  0.4956  0.1089  0.3957
 3310SOL     OW12971   2.463   2.792   0.564  0.0587 -0.0050 -0.0248
 3310SOL    HW212972   2.516   2.831   0.634 -0.3951  0.1084  0.2614
 3310SOL    HW312973   2.393   2.745   0.611  0.8315 -1.5360 -0.3243
 3310SOL    MW412974   2.460   2.791   0.580 -0.1995  0.0686 -0.1040
 3311SOL     OW12975   3.092   2.738   4.679  0.2821 -0.5553 -0.1350
 3311SOL    HW212976   3.044   2.663   4.644 -0.2767  0.7243 -2.2823
 3311SOL    HW312977   3.164   2.751   4.618 -0.0792  1.0878 -0.2474
 3311SOL    MW412978   3.095   2.730   4.667 -0.6737  0.3043 -0.3174
 3312SOL     OW12979   1.034   0.788   0.862 -0.1699  0.1495  0.1150
 3312SOL    HW212980   0.978   0.820   0.933 -1.2953  0.1497 -0.7594
 3312SOL    HW312981   0.995   0.706   0.835  1.3086 -0.7881  0.6913
 3312SOL    MW412982   1.022   0.782   0.868 -0.1122 -0.3323 -0.1190
 3313SOL     OW12983   3.510   2.871   3.881  0.5880 -0.0056 -0.0298
 3313SOL    HW212984   3.586   2.813   3.892 -1.5967 -2.8691  1.2137
 3313SOL    HW312985   3.453   2.848   3.954 -1.1046  2.7541 -0.3689
 3313SOL    MW412986   3.513   2.860   3.892 -0.1397 -0.0834 -0.7588
 3314SOL     OW12987   1.508   1.595   0.944  0.1117  0.2727 -0.5243
 3314SOL    HW212988   1.469   1.618   0.859 -0.3560  0.6832 -0.2085
 3314SOL    HW312989   1.433   1.576   1.000  0.4593 -1.2926 -0.5475
 3314SOL    MW412990   1.493   1.596   0.940 -0.0632  0.0504  0.6591
 3315SOL     OW12991   1.922   5.448   1.890  0.2982 -0.4850  0.5519
 3315SOL    HW212992   2.009   5.465   1.852 -0.4569  0.0073 -1.0278
 3315SOL    HW312993   1.861   5.475   1.822 -1.1035 -2.6890  0.8454
 3315SOL    MW412994   1.926   5.454   1.876  0.3121  0.1180  0.7601
 3316SOL     OW12995   3.565   1.115   2.446 -0.1518  0.5954  0.5412
 3316SOL    HW212996   3.574   1.020   2.443  1.4373  0.7224  0.3028
 3316SOL    HW312997   3.477   1.132   2.414  0.3685 -0.7006 -1.8438
 3316SOL    MW412998   3.555   1.105   2.441  0.1103 -0.1946  0.4671
 3317SOL     OW12999   1.855   0.990   5.956 -0.3192 -0.1212  0.1623
 3317SOL    HW213000   1.879   1.033   5.874  0.4591 -1.2247 -0.2191
 3317SOL    HW313001   1.912   1.031   6.022  0.4681 -0.5962 -0.2074
 3317SOL    MW413002   1.866   1.001   5.954 -0.1113  0.3544  0.9394
 3318SOL     OW13003   4.042   1.935   5.948  0.4809  0.0336 -0.3377
 3318SOL    HW213004   4.122   1.892   5.975 -0.0103 -0.3346  0.5767
 3318SOL    HW313005   3.974   1.899   6.006 -0.3515  0.2973 -1.1181
 3318SOL    MW413006   4.043   1.925   5.959  0.4694 -0.4022  0.2873
 3319SOL     OW13007   2.524   3.011   1.022  0.5440 -0.4576  0.0209
 3319SOL    HW213008   2.521   2.972   1.110  0.2072  0.7935  0.5861
 3319SOL    HW313009   2.578   3.089   1.033  0.4806 -0.2777 -0.8915
 3319SOL    MW413010   2.531   3.016   1.035  0.0666  0.1463 -0.3885
 3320SOL     OW13011   4.325   4.285   1.360  0.0384 -0.3083 -0.0767
 3320SOL    HW213012   4.375   4.356   1.400  0.3618 -0.4836 -0.1629
 3320SOL    HW313013   4.385   4.210   1.363 -0.3033 -0.5789  0.0272
 3320SOL    MW413014   4.340   4.284   1.366  0.4796 -0.4486 -0.6368
 3321SOL     OW13015   0.045   2.672   4.349  0.0185 -0.1072  0.2798
 3321SOL    HW213016   0.091   2.666   4.432  0.8358 -0.3528 -0.1810
 3321SOL    HW313017  -0.005   2.590   4.343 -0.5968  0.2267  0.8491
 3321SOL    MW413018   0.044   2.660   4.359 -0.1080 -0.0324 -0.4086
 3322SOL     OW13019   2.632   5.542   0.837 -0.1567 -0.5367  0.3182
 3322SOL    HW213020   2.591   5.497   0.763  1.1829 -1.6584  0.2052
 3322SOL    HW313021   2.580   5.621   0.850 -1.2789 -1.0490 -0.8940
 3322SOL    MW413022   2.620   5.546   0.829  0.0444  0.2811 -0.1746
 3323SOL     OW13023   4.457   6.303   0.713 -0.0867 -0.2179 -0.6062
 3323SOL    HW213024   4.451   6.280   0.620 -3.3076 -0.2207 -0.5046
 3323SOL    HW313025   4.389   6.250   0.756  2.8516 -2.0819  2.2769
 3323SOL    MW413026   4.447   6.293   0.706  0.0193 -0.1746  0.4112
 3324SOL     OW13027   5.761   6.318   0.152  0.0905 -0.4905 -0.4141
 3324SOL    HW213028   5.802   6.234   0.134  0.7225 -0.1517 -0.5936
 3324SOL    HW313029   5.687   6.297   0.208  1.8632 -0.8890  1.9142
 3324SOL    MW413030   5.757   6.304   0.157  0.3720 -0.1196 -0.3315
 3325SOL     OW13031   1.703   0.451   4.281  0.0005  0.1663 -0.9027
 3325SOL    HW213032   1.636   0.405   4.230  0.1893 -1.7031  0.4210
 3325SOL    HW313033   1.654   0.510   4.338 -0.2752  1.4132 -2.3780
 3325SOL    MW413034   1.688   0.453   4.282  0.2122 -0.2005  0.3171
 3326SOL     OW13035   1.872   6.107   1.321  0.4117 -0.0272  0.0492
 3326SOL    HW213036   1.816   6.059   1.260  2.0856  0.4754 -2.0363
 3326SOL    HW313037   1.950   6.129   1.269  2.0072  0.3545  2.4486
 3326SOL    MW413038   1.875   6.104   1.306  0.3446  0.0683  0.2778
 3327SOL     OW13039   3.257   3.943   2.930 -0.4297  0.1978  0.3181
 3327SOL    HW213040   3.173   3.910   2.961 -0.2144  0.1703  0.8998
 3327SOL    HW313041   3.255   4.037   2.949 -0.0611  0.0776  0.9756
 3327SOL    MW413042   3.246   3.951   2.937 -0.0591  0.3166 -0.2948
 3328SOL     OW13043   2.200   0.208   3.809 -0.0403 -0.3762 -0.5029
 3328SOL    HW213044   2.169   0.295   3.834  0.7190  0.3988 -2.1274
 3328SOL    HW313045   2.157   0.149   3.871 -2.0604  0.9642 -0.5112
 3328SOL    MW413046   2.190   0.212   3.821 -0.2660  0.1563  0.3485
 3329SOL     OW13047   5.199   3.240   4.671 -0.1966  0.2434  0.0976
 3329SOL    HW213048   5.177   3.310   4.608 -0.0215 -1.4325 -1.9319
 3329SOL    HW313049   5.264   3.281   4.729  1.3759  1.2868 -2.2039
 3329SOL    MW413050   5.205   3.255   4.670 -0.1949 -0.0731  0.1403
 3330SOL     OW13051   3.154   2.431   4.648 -0.8841  0.1181  0.6881
 3330SOL    HW213052   3.240   2.441   4.607 -0.9796 -2.5573 -0.3051
 3330SOL    HW313053   3.093   2.467   4.584 -0.9004 -2.7723 -1.0659
 3330SOL    MW413054   3.157   2.437   4.634 -0.1678 -0.0168 -0.1042
 3331SOL     OW13055   6.130   1.631   0.072  0.5539  0.4031  0.0395
 3331SOL    HW213056   6.147   1.583   0.153 -3.3099 -0.7549  0.3504
 3331SOL    HW313057   6.103   1.718   0.102 -3.1144 -0.6855  0.3647
 3331SOL    MW413058   6.129   1.636   0.087 -0.1562  0.0583 -0.0307
 3332SOL     OW13059   0.530   3.632   2.197 -0.2008 -0.2591  0.1795
 3332SOL    HW213060   0.522   3.726   2.213  0.8887  0.2832 -2.0624
 3332SOL    HW313061   0.442   3.604   2.173 -0.2619  0.4772 -0.4763
 3332SOL    MW413062   0.518   3.641   2.196  0.3192 -0.1061  0.2999
 3333SOL     OW13063   5.567   4.576   2.829  0.2300  0.0587  0.4102
 3333SOL    HW213064   5.633   4.552   2.894 -0.4220  0.4345  1.2250
 3333SOL    HW313065   5.499   4.509   2.837  0.7425 -0.6316 -0.8006
 3333SOL    MW413066   5.567   4.564   2.839 -0.0301 -0.2409 -0.2057
 3334SOL     OW13067   2.516   5.264   4.857  0.1452  0.1009 -0.2315
 3334SOL    HW213068   2.522   5.252   4.952  0.8553  0.1142 -0.2720
 3334SOL    HW313069   2.583   5.206   4.821 -0.7850 -0.6560 -0.7927
 3334SOL    MW413070   2.525   5.255   4.865 -0.0041  0.2672  1.0008
 3335SOL     OW13071   5.829   0.113   3.826  0.0908  0.0564 -0.1155
 3335SOL    HW213072   5.830   0.202   3.859 -1.6097  0.1062 -0.1082
 3335SOL    HW313073   5.918   0.098   3.792  0.4485  1.6644  0.0630
 3335SOL    MW413074   5.841   0.123   3.826  0.4725 -0.2619 -0.5591
 3336SOL     OW13075   0.876   2.076   3.554 -0.5204 -0.2581 -0.0231
 3336SOL    HW213076   0.910   2.023   3.626  0.6264  0.3440 -0.1062
 3336SOL    HW313077   0.833   2.150   3.597  2.0305  1.2697  0.1014
 3336SOL    MW413078   0.875   2.079   3.569  0.1603 -0.3498  0.7502
 3337SOL     OW13079   3.654   4.658   0.114  0.2717  0.4708 -0.0610
 3337SOL    HW213080   3.610   4.603   0.178  0.7637  0.3853  0.2082
 3337SOL    HW313081   3.691   4.597   0.051 -0.0431  0.5457 -0.3243
 3337SOL    MW413082   3.653   4.643   0.114  0.0620 -0.1985  0.2726
 3338SOL     OW13083   1.702   6.290   4.792  0.2092  0.1396 -0.4839
 3338SOL    HW213084   1.628   6.251   4.838  0.9766 -0.5706  0.1890
 3338SOL    HW313085   1.671   6.303   4.703 -0.8549  0.2366 -0.1127
 3338SOL    MW413086   1.688   6.287   4.787 -0.3432  0.6252 -0.2710
 3339SOL     OW13087   0.317   0.893   2.669 -0.2994 -0.1039 -0.2419
 3339SOL    HW213088   0.411   0.878   2.682 -0.4953 -1.0251  0.1768
 3339SOL    HW313089   0.312   0.946   2.590  0.7892  3.0613  1.6323
 3339SOL    MW413090   0.329   0.898   2.660  0.3167 -0.0677 -0.8431
 3340SOL     OW13091   5.347   3.572   5.872 -0.1790  0.1097  0.3367
 3340SOL    HW213092   5.363   3.652   5.823  1.0016 -0.4320 -0.2089
 3340SOL    HW313093   5.341   3.600   5.963  0.1175  0.8348  0.1380
 3340SOL    MW413094   5.348   3.586   5.877 -0.2258  0.1095 -0.4982
 3341SOL     OW13095   6.003   6.009   3.146  0.2490 -0.2444  0.2484
 3341SOL    HW213096   6.049   5.968   3.073  0.9190  1.2185 -0.1920
 3341SOL    HW313097   5.951   5.939   3.184 -1.0429 -0.8056 -2.3390
 3341SOL    MW413098   6.002   5.995   3.142 -0.4836  0.4096 -0.1109
 3342SOL     OW13099   3.922   3.023   3.818  0.5435 -0.9296 -0.1383
 3342SOL    HW213100   3.828   3.039   3.806  0.5364 -1.1356 -0.3546
 3342SOL    HW313101   3.955   3.004   3.731  0.9828  0.1298 -0.2112
 3342SOL    MW413102   3.914   3.022   3.805  0.1596 -0.3815 -0.1030
 3343SOL     OW13103   5.214   1.935   1.825  0.2488  0.0020 -0.3016
 3343SOL    HW213104   5.173   2.005   1.876 -1.0740 -1.1942  0.3555
 3343SOL    HW313105   5.183   1.854   1.866  2.4210 -0.9983 -0.4933
 3343SOL    MW413106   5.205   1.934   1.837  0.0105 -0.0678 -0.1797
 3344SOL     OW13107   5.444   4.014   0.212  0.0041 -0.5051  0.5596
 3344SOL    HW213108   5.351   4.038   0.207  0.0614 -0.2108  0.9044
 3344SOL    HW313109   5.485   4.061   0.140 -0.2495 -1.3030 -0.1335
 3344SOL    MW413110   5.437   4.023   0.202 -0.2994 -0.4258 -0.2082
 3345SOL     OW13111   2.379   1.066   0.889  0.0163  0.0700  0.2737
 3345SOL    HW213112   2.334   1.012   0.955  0.7179 -0.1288  0.5974
 3345SOL    HW313113   2.443   1.115   0.939 -1.0214  1.6926  0.0815
 3345SOL    MW413114   2.381   1.065   0.905  0.5496  0.0388  0.7248
 3346SOL     OW13115   6.258   0.184   0.611 -0.2954 -0.0211  0.0714
 3346SOL    HW213116   6.299   0.098   0.606  0.2754  0.2025  0.7721
 3346SOL    HW313117   6.319   0.237   0.662 -1.0368  0.5656  0.3691
 3346SOL    MW413118   6.271   0.180   0.617  0.4427  0.3478 -0.0645
 3347SOL     OW13119   0.281   1.542   1.888 -0.0324  0.6252  0.1663
 3347SOL    HW213120   0.243   1.501   1.965  0.1039  2.6096  1.3527
 3347SOL    HW313121   0.278   1.474   1.820  0.9201 -1.5842  2.1988
 3347SOL    MW413122   0.276   1.528   1.889 -0.3710  0.3866  0.0295
 3348SOL     OW13123   5.286   4.703   0.975  0.0614 -0.3517 -0.1688
 3348SOL    HW213124   5.273   4.609   0.962 -0.8164 -0.3656  0.7274
 3348SOL    HW313125   5.315   4.711   1.066 -3.2279  0.4878  0.9422
 3348SOL    MW413126   5.288   4.692   0.985 -0.1367  0.1246 -0.3140
 3349SOL     OW13127   5.640   0.663   4.832 -0.0520 -0.1208 -0.0079
 3349SOL    HW213128   5.715   0.606   4.849 -0.6087 -1.3889 -1.5017
 3349SOL    HW313129   5.632   0.665   4.736 -0.0347  2.5651 -0.0300
 3349SOL    MW413130   5.649   0.656   4.821 -0.3799 -0.0503  0.3614
 3350SOL     OW13131   4.070   2.725   2.762 -0.0572  0.6855  0.3627
 3350SOL    HW213132   4.121   2.653   2.725  2.5618  2.1475  0.8252
 3350SOL    HW313133   4.045   2.694   2.849 -0.9291 -0.4670 -0.2695
 3350SOL    MW413134   4.074   2.711   2.768  0.2101 -0.0435  0.4828
 3351SOL     OW13135   4.661   0.814   3.807  0.1637  0.2010  0.0825
 3351SOL    HW213136   4.589   0.800   3.868  1.6122  0.1039  1.8517
 3351SOL    HW313137   4.714   0.882   3.848  1.8910 -0.8071 -0.3747
 3351SOL    MW413138   4.659   0.821   3.820 -0.6004 -0.4049  0.0959
 3352SOL     OW13139   0.973   4.292   5.652  0.3421  0.4367 -0.4672
 3352SOL    HW213140   0.928   4.376   5.642 -0.0933  0.7543  2.9305
 3352SOL    HW313141   0.921   4.244   5.717  2.7250 -0.8202  0.6633
 3352SOL    MW413142   0.960   4.296   5.660  0.9601  0.0972 -0.2196
 3353SOL     OW13143   4.603   3.133   4.191  0.3369  0.1200  0.1475
 3353SOL    HW213144   4.608   3.095   4.279  0.6716  1.5598  0.7842
 3353SOL    HW313145   4.530   3.194   4.196  0.2837  0.1220 -0.6216
 3353SOL    MW413146   4.594   3.136   4.204  0.2641 -0.2187  0.3075
 3354SOL     OW13147   2.760   2.281   2.807  0.1089  0.1119  0.1951
 3354SOL    HW213148   2.853   2.256   2.802 -0.2745 -2.0464  2.2128
 3354SOL    HW313149   2.727   2.266   2.719  1.6181  0.8222 -0.5421
 3354SOL    MW413150   2.768   2.276   2.795 -0.0667  0.0224 -0.0934
 3355SOL     OW13151   6.404   0.944   3.942 -0.4861 -0.0899  0.8202
 3355SOL    HW213152   6.312   0.959   3.923 -0.3881  0.8199  1.0371
 3355SOL    HW313153   6.407   0.932   4.037 -0.1408  1.9288  1.1078
 3355SOL    MW413154   6.392   0.944   3.952  0.3534  0.5090 -0.1312
 3356SOL     OW13155   3.190   5.331   2.380  0.1764 -0.3537 -0.4640
 3356SOL    HW213156   3.116   5.271   2.384  0.4891 -0.7611 -0.6133
 3356SOL    HW313157   3.199   5.365   2.469 -1.0436  0.7798 -0.7386
 3356SOL    MW413158   3.182   5.328   2.392 -0.3585  0.0192 -0.6655
 3357SOL     OW13159   5.505   4.730   1.191 -0.2930  0.5083 -0.1813
 3357SOL    HW213160   5.496   4.749   1.284  0.3901 -0.1574  0.0331
 3357SOL    HW313161   5.551   4.647   1.188 -1.0654  0.0870 -1.1090
 3357SOL    MW413162   5.510   4.722   1.203  0.3610  0.0129  0.6047
 3358SOL     OW13163   0.950   6.370   5.708 -0.6983  0.6337 -0.3603
 3358SOL    HW213164   0.898   6.390   5.630 -1.6549  0.2155  0.1524
 3358SOL    HW313165   1.010   6.301   5.680 -1.5086 -0.0069 -0.5617
 3358SOL    MW413166   0.951   6.364   5.694 -0.6083 -0.2928 -0.1437
 3359SOL     OW13167   1.216   2.073   1.047  0.2913 -0.0962 -0.5455
 3359SOL    HW213168   1.142   2.087   1.106  0.2103 -0.9046 -0.4434
 3359SOL    HW313169   1.278   2.143   1.071  0.7577 -1.0748  1.3270
 3359SOL    MW413170   1.215   2.084   1.058 -1.0239 -0.1906 -0.0032
 3360SOL     OW13171   3.054   1.145   2.525 -0.3400 -0.3379 -0.3850
 3360SOL    HW213172   3.109   1.138   2.604 -2.7216 -0.2289  1.4071
 3360SOL    HW313173   3.016   1.233   2.530 -0.7152 -0.4192 -1.5349
 3360SOL    MW413174   3.056   1.156   2.536 -0.3210 -0.0497  0.2732
 3361SOL     OW13175   3.956   1.225   2.723 -0.0464 -0.5788 -0.6991
 3361SOL    HW213176   4.026   1.209   2.660 -0.4936  0.3714 -1.4541
 3361SOL    HW313177   3.889   1.272   2.674 -2.3201 -3.4621 -0.6443
 3361SOL    MW413178   3.956   1.229   2.708 -0.0298  0.0063 -0.2773
 3362SOL     OW13179   0.547   5.408   6.415 -0.0953  0.8357 -0.5003
 3362SOL    HW213180   0.630   5.428   6.372  1.2149 -0.7058  1.1726
 3362SOL    HW313181   0.510   5.493   6.436  2.7659  1.6701  1.7755
 3362SOL    MW413182   0.553   5.422   6.412  0.5096  0.5229  0.3798
 3363SOL     OW13183   2.079   0.688   1.825  0.5953 -0.4369  0.0401
 3363SOL    HW213184   2.133   0.766   1.815 -0.9727  0.9657  1.8360
 3363SOL    HW313185   2.000   0.707   1.773 -0.6891  0.1383  2.0976
 3363SOL    MW413186   2.076   0.701   1.817  0.2900  0.6739 -0.0669
 3364SOL     OW13187   5.291   4.876   4.616 -0.0646  0.1337  0.1742
 3364SOL    HW213188   5.209   4.833   4.640  0.3800  0.1328  1.7991
 3364SOL    HW313189   5.350   4.804   4.592  0.2162 -0.0755  1.4382
 3364SOL    MW413190   5.288   4.861   4.616  0.5431  0.0172  0.3073
 3365SOL     OW13191   5.054   2.037   4.349  0.1055 -0.2398 -0.5274
 3365SOL    HW213192   5.131   2.076   4.390  0.1903 -0.7623 -0.1868
 3365SOL    HW313193   5.083   1.950   4.322  0.3103  0.3738 -2.4605
 3365SOL    MW413194   5.068   2.031   4.351 -0.0882  0.7410  0.2504
 3366SOL     OW13195   2.892   0.519   3.483  0.2004  0.5295 -0.3522
 3366SOL    HW213196   2.814   0.548   3.531 -0.0424  0.1783 -0.5274
 3366SOL    HW313197   2.864   0.439   3.438  0.9639 -0.1917  0.4115
 3366SOL    MW413198   2.878   0.512   3.483 -0.1536 -1.0075 -0.0080
 3367SOL     OW13199   0.163   0.174   2.475  0.6092  0.3371  0.1867
 3367SOL    HW213200   0.141   0.084   2.449  0.6920  0.3062  0.2233
 3367SOL    HW313201   0.234   0.163   2.539 -0.4561  0.3283  1.4145
 3367SOL    MW413202   0.169   0.160   2.480 -0.6472  0.3236  0.0144
 3368SOL     OW13203   0.943   0.315   1.103 -0.1326 -0.8372  0.1464
 3368SOL    HW213204   0.882   0.352   1.167 -0.7747 -1.7411  0.0810
 3368SOL    HW313205   0.934   0.372   1.027 -1.2747 -1.2255 -0.0327
 3368SOL    MW413206   0.933   0.328   1.101  0.2710 -0.1636  0.1248
 3369SOL     OW13207   5.676   4.046   1.329  0.3464 -0.3761  0.3625
 3369SOL    HW213208   5.771   4.035   1.319  0.1922 -1.6405  0.1052
 3369SOL    HW313209   5.638   3.983   1.268 -0.6931  1.6054 -1.1211
 3369SOL    MW413210   5.684   4.036   1.320 -0.0805 -0.2095  0.0896
 3370SOL     OW13211   1.264   6.270   0.263  0.1119 -0.0638 -0.0161
 3370SOL    HW213212   1.172   6.286   0.281  0.0277 -1.0110  0.4424
 3370SOL    HW313213   1.299   6.356   0.239 -1.0628  0.1550 -1.0330
 3370SOL    MW413214   1.257   6.283   0.262  0.1939  0.2569  0.2146
 3371SOL     OW13215   3.258   0.146   3.469 -0.0800  0.0810  0.6871
 3371SOL    HW213216   3.289   0.232   3.441  1.5160 -0.2435  1.3666
 3371SOL    HW313217   3.327   0.085   3.443 -1.1850 -1.0135  0.2226
 3371SOL    MW413218   3.271   0.149   3.462 -0.1215 -0.4570  0.0683
 3372SOL     OW13219   0.068   2.659   3.405 -0.6017  0.0719 -0.2296
 3372SOL    HW213220   0.138   2.639   3.467 -1.5300  1.6951  1.4503
 3372SOL    HW313221   0.094   2.615   3.324  1.8603 -0.1514  0.6063
 3372SOL    MW413222   0.080   2.651   3.402 -0.0624 -0.3769  0.5078
 3373SOL     OW13223   2.000   0.266   5.192 -0.4609  0.4519  0.1201
 3373SOL    HW213224   2.012   0.340   5.253 -1.0667  1.1826 -0.6190
 3373SOL    HW313225   1.955   0.305   5.117 -0.5957 -0.6408 -0.3747
 3373SOL    MW413226   1.995   0.281   5.191 -0.7452 -0.7273 -0.8697
 3374SOL     OW13227   5.137   2.151   1.980 -0.2288 -0.0815  0.3295
 3374SOL    HW213228   5.060   2.209   1.982 -0.2441 -0.1162  0.8499
 3374SOL    HW313229   5.205   2.200   2.026 -0.2550 -0.4920  0.8090
 3374SOL    MW413230   5.136   2.165   1.986  0.0944  0.2666  0.4522
 3375SOL     OW13231   5.478   5.910   4.072  0.8277  0.2729 -0.2406
 3375SOL    HW213232   5.460   5.847   4.141  2.0063 -0.3268 -0.4567
 3375SOL    HW313233   5.482   5.858   3.992  1.8985  0.5838 -0.4118
 3375SOL    MW413234   5.476   5.895   4.070  0.0655  0.0414  0.4262
 3376SOL     OW13235   2.543   3.463   6.393  0.0049  0.4483  0.0806
 3376SOL    HW213236   2.548   3.430   6.483 -0.7120  1.1920  0.4059
 3376SOL    HW313237   2.615   3.525   6.385 -0.1031  0.5932  0.2344
 3376SOL    MW413238   2.553   3.467   6.404  0.3417 -0.6712 -0.3350
 3377SOL     OW13239   5.914   5.954   4.563 -0.1611 -0.1278  0.4036
 3377SOL    HW213240   5.951   5.951   4.475  0.7243 -1.8281  0.7836
 3377SOL    HW313241   5.928   5.866   4.597 -1.1529  0.2935  1.9873
 3377SOL    MW413242   5.920   5.942   4.556  0.2152 -0.3033 -0.1337
 3378SOL     OW13243   0.679   0.697   2.079  0.0501  0.3119  0.1226
 3378SOL    HW213244   0.602   0.716   2.025 -0.3961  4.2306  1.8181
 3378SOL    HW313245   0.752   0.695   2.016 -1.0304 -0.2830 -1.1608
 3378SOL    MW413246   0.679   0.699   2.063 -0.8974 -0.1864  0.2247
 3379SOL     OW13247   5.008   5.434   4.726 -0.2196 -0.2899  0.0810
 3379SOL    HW213248   4.952   5.510   4.709  1.9655  1.6515  1.0386
 3379SOL    HW313249   5.002   5.420   4.821  1.3219  0.3296  0.2933
 3379SOL    MW413250   5.000   5.442   4.736 -0.3670 -0.1681 -0.0882
 3380SOL     OW13251   1.076   1.628   5.067  0.1048 -0.1719 -0.9155
 3380SOL    HW213252   1.036   1.705   5.107  0.5784 -0.2873 -0.1966
 3380SOL    HW313253   1.094   1.654   4.977 -0.6530  0.2142 -0.9645
 3380SOL    MW413254   1.073   1.641   5.060 -0.5506  0.6952 -0.5192
 3381SOL     OW13255   5.806   2.784   2.573  0.6143 -0.3758 -0.2203
 3381SOL    HW213256   5.892   2.825   2.579  0.5406 -0.4050  1.4148
 3381SOL    HW313257   5.823   2.690   2.567  0.6965 -0.3896  0.2229
 3381SOL    MW413258   5.820   2.777   2.573  0.1869 -0.0699 -0.0893
 3382SOL     OW13259   1.488   3.995   3.025  0.7728 -0.2181  0.6220
 3382SOL    HW213260   1.426   4.018   2.957 -0.0914 -1.6447  0.8921
 3382SOL    HW313261   1.565   3.963   2.978  0.1491 -1.2750  0.2855
 3382SOL    MW413262   1.490   3.993   3.010  0.7689  0.0213 -0.4309
 3383SOL     OW13263   5.927   0.518   1.074  0.1942  0.7271  0.4287
 3383SOL    HW213264   5.910   0.432   1.112  0.3893  1.0800  1.3536
 3383SOL    HW313265   5.889   0.514   0.986  2.2497 -1.0605 -0.4444
 3383SOL    MW413266   5.920   0.506   1.067 -0.4609 -0.2322 -0.1259
 3384SOL     OW13267   1.362   6.212   5.298  0.1553  0.1576 -0.1336
 3384SOL    HW213268   1.416   6.178   5.369 -0.4212 -0.7899 -0.1333
 3384SOL    HW313269   1.362   6.142   5.232 -1.7276 -0.2414  0.2231
 3384SOL    MW413270   1.369   6.198   5.299  1.0676  0.0024 -0.4060
 3385SOL     OW13271   0.232   1.518   0.025 -0.4694 -0.6063  0.4272
 3385SOL    HW213272   0.226   1.523   0.120 -1.6065 -2.9332  0.5480
 3385SOL    HW313273   0.207   1.428   0.004 -0.8368  0.0146 -2.1268
 3385SOL    MW413274   0.228   1.507   0.034 -0.6103 -0.1034  0.1169
 3386SOL     OW13275   2.117   4.419   4.485 -0.2578 -0.2371 -0.3544
 3386SOL    HW213276   2.146   4.503   4.448  0.1646  0.1351  0.7903
 3386SOL    HW313277   2.084   4.370   4.409  1.2245  0.2223 -1.3471
 3386SOL    MW413278   2.117   4.424   4.470 -0.0896  0.4782  0.0710
 3387SOL     OW13279   3.055   1.800   2.302 -0.2430 -0.0152 -0.6316
 3387SOL    HW213280   3.072   1.798   2.397 -0.6380  1.1971 -0.5211
 3387SOL    HW313281   3.132   1.844   2.266 -1.5438  2.5354 -0.4826
 3387SOL    MW413282   3.067   1.805   2.310  0.5194  1.2583 -0.0091
 3388SOL     OW13283   4.756   3.035   2.808 -0.1347  0.5970  0.3110
 3388SOL    HW213284   4.810   2.958   2.792 -1.0722  0.0284 -0.1698
 3388SOL    HW313285   4.729   3.064   2.721  0.3239  1.5746  0.4739
 3388SOL    MW413286   4.760   3.029   2.795 -0.8948 -0.1249  0.6207
 3389SOL     OW13287   5.753   0.286   5.647  0.8021 -0.0169 -0.4509
 3389SOL    HW213288   5.760   0.309   5.740  1.8089 -2.8432  0.2760
 3389SOL    HW313289   5.665   0.313   5.623  0.2348  0.1334  1.5556
 3389SOL    MW413290   5.742   0.292   5.656  0.1456  0.1576  0.5215
 3390SOL     OW13291   1.251   5.343   4.063 -0.1165  0.1242  0.1772
 3390SOL    HW213292   1.325   5.341   4.002  0.4718  1.9792  0.7505
 3390SOL    HW313293   1.265   5.422   4.115 -2.9206  1.0178 -0.2272
 3390SOL    MW413294   1.263   5.354   4.061 -0.5131 -0.1059 -0.2093
 3391SOL     OW13295   1.044   6.345   0.585 -0.2589  0.6680  0.0971
 3391SOL    HW213296   1.115   6.409   0.587 -0.9942  1.5892 -1.3916
 3391SOL    HW313297   0.968   6.392   0.620 -0.3897  0.0019  0.7432
 3391SOL    MW413298   1.043   6.360   0.590 -0.2970  0.3373  0.4092
 3392SOL     OW13299   3.126   0.068   0.039  0.3772  0.3598 -0.2155
 3392SOL    HW213300   3.124   0.163   0.043 -1.5547  0.4660 -2.0851
 3392SOL    HW313301   3.172   0.048  -0.042  0.2615 -0.2984 -0.1235
 3392SOL    MW413302   3.132   0.078   0.029 -0.2026 -0.2560  0.1508
 3393SOL     OW13303   3.410   1.895   1.062 -0.0242  0.6957 -0.0497
 3393SOL    HW213304   3.419   1.939   0.977  1.5970 -0.5656 -0.5784
 3393SOL    HW313305   3.497   1.859   1.079 -0.3279  0.8998  2.1622
 3393SOL    MW413306   3.423   1.896   1.053 -0.0733 -1.2449 -0.2894
 3394SOL     OW13307   3.291   4.157   5.723  0.8284 -0.3777 -0.1320
 3394SOL    HW213308   3.198   4.159   5.700  1.3081 -0.3460 -2.2409
 3394SOL    HW313309   3.292   4.156   5.819 -1.3718 -1.9140 -0.0638
 3394SOL    MW413310   3.279   4.157   5.733 -0.6152  0.2515 -0.1363
 3395SOL     OW13311   2.192   5.588   5.507 -0.0931  0.1512 -0.1949
 3395SOL    HW213312   2.249   5.539   5.566  0.9900 -1.1780 -2.2084
 3395SOL    HW313313   2.122   5.526   5.485  0.1618  0.1883 -1.1634
 3395SOL    MW413314   2.190   5.573   5.512  0.4163 -0.5656 -0.7318
 3396SOL     OW13315   5.628   5.698   0.957 -0.1309 -0.0611  0.4790
 3396SOL    HW213316   5.636   5.605   0.938  2.7011 -0.3370  2.3821
 3396SOL    HW313317   5.672   5.742   0.884  1.2880 -0.4516  1.0693
 3396SOL    MW413318   5.635   5.692   0.945 -0.2592 -0.6587 -0.7417
 3397SOL     OW13319   0.052   0.815   2.158  0.1519  0.0059  0.0618
 3397SOL    HW213320   0.007   0.731   2.167 -0.0691  0.0107 -0.8640
 3397SOL    HW313321  -0.011   0.870   2.112  0.1929  0.7670  0.9001
 3397SOL    MW413322   0.038   0.811   2.153 -0.6223 -0.1103 -0.6355
 3398SOL     OW13323   4.363   5.869   5.723  0.3689 -0.3611  0.9885
 3398SOL    HW213324   4.303   5.941   5.741 -0.5006 -1.1007  1.1171
 3398SOL    HW313325   4.354   5.810   5.798 -1.4621 -2.2552 -0.6021
 3398SOL    MW413326   4.354   5.871   5.735 -0.2916 -0.4569  0.2660
 3399SOL     OW13327   4.439   5.385   6.409  0.1061  0.2795 -0.0000
 3399SOL    HW213328   4.431   5.354   6.318 -0.2689 -1.0421  0.4672
 3399SOL    HW313329   4.531   5.368   6.432  0.7626  2.4465 -0.7402
 3399SOL    MW413330   4.450   5.379   6.400 -0.1458 -0.7293 -0.3104
 3400SOL     OW13331   1.510   6.025   1.292 -0.0572 -0.1604  0.1737
 3400SOL    HW213332   1.476   5.972   1.364  2.7547  0.3582  2.0242
 3400SOL    HW313333   1.515   6.114   1.328 -2.0876  0.9653 -1.9784
 3400SOL    MW413334   1.506   6.030   1.306 -0.4432  0.2532 -0.1486
 3401SOL     OW13335   0.843   3.457   2.297  0.2335  0.4243  0.2280
 3401SOL    HW213336   0.825   3.429   2.207  0.3455 -0.3082  0.4279
 3401SOL    HW313337   0.760   3.446   2.343  0.2899  0.3813  0.3190
 3401SOL    MW413338   0.830   3.452   2.291 -0.6959  0.0453 -0.0520
 3402SOL     OW13339   2.283   1.572   5.572 -0.3245 -0.0586  0.0109
 3402SOL    HW213340   2.219   1.642   5.578  0.2477  0.4257  0.6246
 3402SOL    HW313341   2.353   1.598   5.632 -0.0607 -1.1096  0.1796
 3402SOL    MW413342   2.284   1.585   5.580 -0.2399  0.6714  0.5933
 3403SOL     OW13343   3.059   1.627   3.638  0.0510 -0.0810 -0.0827
 3403SOL    HW213344   3.115   1.577   3.697  1.0655 -0.8025 -1.5882
 3403SOL    HW313345   3.102   1.712   3.630 -0.4573  0.2664  0.7109
 3403SOL    MW413346   3.072   1.631   3.645  0.6423  0.1855  0.3430
 3404SOL     OW13347   5.533   5.874   2.127 -0.1562  0.0422 -0.5681
 3404SOL    HW213348   5.559   5.805   2.190 -1.0572 -1.2009 -1.5124
 3404SOL    HW313349   5.526   5.953   2.181  1.7103 -0.3856  0.4200
 3404SOL    MW413350   5.536   5.875   2.143  0.1583 -0.0933  0.2063
 3405SOL     OW13351   5.957   1.067   6.189  0.0644  0.2918 -0.3890
 3405SOL    HW213352   6.042   1.093   6.226  0.3408  0.7184 -1.2740
 3405SOL    HW313353   5.959   0.972   6.188 -0.0489  0.2603  0.8783
 3405SOL    MW413354   5.969   1.058   6.194  0.0448  0.5110  0.3033
 3406SOL     OW13355   2.961   4.184   0.701  0.1530 -0.4434  0.4614
 3406SOL    HW213356   3.050   4.182   0.736 -0.0722 -0.8107  1.0363
 3406SOL    HW313357   2.952   4.102   0.653  0.5145  0.1331 -0.6176
 3406SOL    MW413358   2.972   4.173   0.699 -0.4660 -0.0780  0.0287
 3407SOL     OW13359   1.969   2.706   0.565 -0.2600  0.5428 -0.0918
 3407SOL    HW213360   1.928   2.791   0.549  0.2230  0.9655  0.8239
 3407SOL    HW313361   2.034   2.697   0.495  0.7898  1.6771  0.6772
 3407SOL    MW413362   1.972   2.716   0.554  0.2079 -0.4733  0.1742
 3408SOL     OW13363   0.153   3.238   0.139  0.2921  0.0743  0.1068
 3408SOL    HW213364   0.068   3.202   0.114 -0.2051  2.0541 -1.3157
 3408SOL    HW313365   0.132   3.314   0.194  1.0133  1.4530 -1.4296
 3408SOL    MW413366   0.139   3.243   0.143 -0.2451 -0.2057 -0.3594
 3409SOL     OW13367   2.305   3.443   2.610  0.3476  0.4770 -0.3144
 3409SOL    HW213368   2.345   3.431   2.524  0.0569 -0.6596 -0.3010
 3409SOL    HW313369   2.215   3.412   2.600  0.5248 -0.3733  0.5818
 3409SOL    MW413370   2.298   3.438   2.597 -0.3950 -0.6696 -0.1361
 3410SOL     OW13371   5.897   1.176   5.341 -0.1745 -0.3473  0.4638
 3410SOL    HW213372   5.804   1.169   5.361 -0.4870 -0.5575 -0.9760
 3410SOL    HW313373   5.924   1.086   5.322  0.5463 -0.4215  1.7095
 3410SOL    MW413374   5.889   1.163   5.341 -0.6040  0.1774 -0.1049
 3411SOL     OW13375   3.193   3.007   5.816 -0.1115 -0.0555  0.5452
 3411SOL    HW213376   3.202   2.924   5.770  1.4604  0.4934 -0.2336
 3411SOL    HW313377   3.129   3.056   5.764 -0.6068 -0.5626  0.6740
 3411SOL    MW413378   3.186   3.003   5.803  0.2459 -0.3424  0.2467
 3412SOL     OW13379   1.531   3.773   0.836  0.1407 -0.0272 -0.3498
 3412SOL    HW213380   1.583   3.849   0.810  0.4441 -0.5223 -1.2480
 3412SOL    HW313381   1.514   3.786   0.929 -0.7613  1.6845 -0.7194
 3412SOL    MW413382   1.536   3.785   0.845  0.4451  0.2390 -0.1012
 3413SOL     OW13383   0.786   2.428   0.716  0.0551 -0.3054  0.0816
 3413SOL    HW213384   0.819   2.466   0.635  1.5547 -0.6690  0.4861
 3413SOL    HW313385   0.694   2.410   0.699  0.4102 -0.6418 -1.6263
 3413SOL    MW413386   0.779   2.431   0.703 -1.0768  0.5629 -0.0568
 3414SOL     OW13387   3.825   1.083   1.051 -0.0215  0.5897  0.1284
 3414SOL    HW213388   3.731   1.065   1.049 -0.6689  3.4723 -0.5366
 3414SOL    HW313389   3.846   1.097   1.143  0.2931 -2.0712  0.5384
 3414SOL    MW413390   3.816   1.083   1.063 -0.5903  0.2708 -0.2305
 3415SOL     OW13391   5.742   3.906   4.267  0.2450 -0.2994 -0.3461
 3415SOL    HW213392   5.828   3.906   4.309 -0.4344  2.4975  1.2741
 3415SOL    HW313393   5.742   3.985   4.213 -1.0452 -0.6704 -0.9193
 3415SOL    MW413394   5.754   3.917   4.266  0.0146  0.4255  0.5829
 3416SOL     OW13395   2.035   5.365   4.843  0.5009 -0.1126 -0.1558
 3416SOL    HW213396   2.062   5.392   4.930  0.0924 -1.8806  0.5550
 3416SOL    HW313397   2.040   5.445   4.790 -0.2035  1.2060  1.6985
 3416SOL    MW413398   2.039   5.379   4.847  0.3319  0.2253 -0.1408
 3417SOL     OW13399   0.210   3.076   4.146 -0.5109  0.3621  0.1108
 3417SOL    HW213400   0.198   3.049   4.237  1.3724 -1.4130 -0.0933
 3417SOL    HW313401   0.280   3.142   4.150 -0.4225  0.2780 -0.0453
 3417SOL    MW413402   0.218   3.081   4.159 -0.3038  0.4343  0.1813
 3418SOL     OW13403   2.295   5.913   0.735  0.0304  0.0915 -0.1558
 3418SOL    HW213404   2.225   5.865   0.779  0.8336 -0.8926  0.1009
 3418SOL    HW313405   2.375   5.872   0.767  0.6807  0.3044 -1.4503
 3418SOL    MW413406   2.296   5.901   0.745  0.0732  0.3030  0.5670
 3419SOL     OW13407   4.596   1.949   6.158 -0.2332 -0.0250  0.1142
 3419SOL    HW213408   4.573   1.887   6.227 -0.1440 -1.5127 -1.1514
 3419SOL    HW313409   4.675   1.992   6.190 -0.4969 -0.2772  1.1685
 3419SOL    MW413410   4.603   1.947   6.172  0.1511  0.3113 -0.5469
 3420SOL     OW13411   3.759   0.825   3.261 -0.1994 -0.5590 -0.3034
 3420SOL    HW213412   3.809   0.882   3.319  0.2085 -1.2554  0.0459
 3420SOL    HW313413   3.668   0.851   3.274  0.0391  0.5967 -0.8059
 3420SOL    MW413414   3.754   0.836   3.270 -0.1892 -0.4720 -0.1451
 3421SOL     OW13415   1.152   1.344   2.075  0.2041  0.2715 -0.6586
 3421SOL    HW213416   1.149   1.251   2.098 -1.1715  0.2171 -0.9988
 3421SOL    HW313417   1.079   1.356   2.015 -0.2509  1.7796  0.1622
 3421SOL    MW413418   1.142   1.333   2.071  0.8620 -0.3540 -0.5229
 3422SOL     OW13419   4.284   5.988   0.399  0.6982  0.2279 -0.1380
 3422SOL    HW213420   4.363   5.943   0.429 -0.0579 -0.8308  0.3370
 3422SOL    HW313421   4.268   5.951   0.312  1.2042  1.0991 -0.6212
 3422SOL    MW413422   4.293   5.977   0.391 -0.7954 -0.0895  0.0428
 3423SOL     OW13423   5.257   1.905   6.166 -0.0870 -0.1236  0.6317
 3423SOL    HW213424   5.233   1.981   6.219  0.4793  0.5469 -0.0551
 3423SOL    HW313425   5.322   1.938   6.104 -1.5428 -0.6113 -1.2491
 3423SOL    MW413426   5.262   1.920   6.165 -0.5563 -0.0550  0.0827
 3424SOL     OW13427   5.007   3.384   0.468 -0.2870 -0.1585 -0.1405
 3424SOL    HW213428   5.068   3.360   0.397  0.3794  0.1697  0.3071
 3424SOL    HW313429   5.006   3.309   0.526  1.1994  0.5365  0.8542
 3424SOL    MW413430   5.015   3.371   0.466 -0.1606 -0.3010 -0.1435
 3425SOL     OW13431   0.535   2.283   2.666  0.2509 -0.2342 -0.2056
 3425SOL    HW213432   0.583   2.365   2.679 -2.3574  1.1936  1.6947
 3425SOL    HW313433   0.561   2.229   2.740  1.0387 -0.6347 -0.7674
 3425SOL    MW413434   0.545   2.287   2.678  0.0569 -0.5461  0.0619
 3426SOL     OW13435   4.156   2.105   0.364  0.5466 -0.2840  0.2805
 3426SOL    HW213436   4.181   2.028   0.312  2.4019  0.0750  0.5630
 3426SOL    HW313437   4.239   2.145   0.387 -0.1711 -0.4475  3.5738
 3426SOL    MW413438   4.170   2.100   0.360  0.4906 -0.4355 -0.0304
 3427SOL     OW13439   2.924   5.668   1.098 -0.2657  0.2903  0.0838
 3427SOL    HW213440   2.937   5.586   1.051  0.7236  0.5555 -0.1283
 3427SOL    HW313441   2.920   5.643   1.190 -0.6714 -0.0684 -0.0286
 3427SOL    MW413442   2.925   5.654   1.104 -0.7942  0.1096  0.3552
 3428SOL     OW13443   3.768   2.561   6.068  0.1915 -0.0785  0.0031
 3428SOL    HW213444   3.777   2.471   6.099  1.1300 -0.5348 -1.4598
 3428SOL    HW313445   3.805   2.559   5.979  1.0455  1.9294  0.2600
 3428SOL    MW413446   3.774   2.549   6.060 -0.0396 -0.0367 -0.6288
 3429SOL     OW13447   3.390   5.557   3.755  0.4046 -0.1581  0.0582
 3429SOL    HW213448   3.373   5.593   3.843 -0.9699  0.3404 -0.3941
 3429SOL    HW313449   3.462   5.495   3.769 -0.5640 -0.9810  1.7654
 3429SOL    MW413450   3.397   5.554   3.769 -0.3056  0.0187 -0.6762
 3430SOL     OW13451   4.061   6.305   2.099  0.5179 -0.8183  0.2576
 3430SOL    HW213452   4.108   6.222   2.085  1.1173 -0.7333  1.6126
 3430SOL    HW313453   3.976   6.291   2.058  0.7926 -1.9205  0.0195
 3430SOL    MW413454   4.056   6.292   2.091 -0.2494 -0.1841  0.3700
 3431SOL     OW13455   3.895   6.426   5.587 -0.1498 -0.0892  0.5537
 3431SOL    HW213456   3.884   6.521   5.592 -1.5075 -0.0151 -1.8485
 3431SOL    HW313457   3.808   6.391   5.605  0.3879 -0.9336  1.6466
 3431SOL    MW413458   3.882   6.434   5.590  0.2842 -0.2666 -0.8457
 3432SOL     OW13459   0.014   5.879   1.809 -0.0039  0.1513  0.2029
 3432SOL    HW213460   0.011   5.921   1.895  1.3395  0.3830  0.1588
 3432SOL    HW313461   0.099   5.903   1.774 -0.1030 -0.8177 -0.7526
 3432SOL    MW413462   0.025   5.887   1.816 -0.0990 -0.1544 -0.0461
 3433SOL     OW13463   1.195   4.683   4.480  0.6106 -0.1709 -0.7329
 3433SOL    HW213464   1.114   4.733   4.489  1.0270  0.3671  0.0937
 3433SOL    HW313465   1.260   4.747   4.451  1.6203  0.2709  2.1972
 3433SOL    MW413466   1.193   4.698   4.477 -0.2659 -0.7523  0.0986
 3434SOL     OW13467   0.275   4.847   5.806  0.1992  0.0647  0.3719
 3434SOL    HW213468   0.369   4.846   5.786  0.3071  0.3953  0.8375
 3434SOL    HW313469   0.264   4.922   5.864  0.2295 -1.8768  3.0933
 3434SOL    MW413470   0.286   4.857   5.811  0.2993  0.6785 -0.0460
 3435SOL     OW13471   3.787   4.648   5.460 -0.2930 -0.0103  0.3739
 3435SOL    HW213472   3.777   4.743   5.464 -0.3428  0.0777 -1.2611
 3435SOL    HW313473   3.876   4.634   5.429 -0.7818 -0.4377 -0.9000
 3435SOL    MW413474   3.797   4.659   5.456  0.1228 -0.4405 -0.7301
 3436SOL     OW13475   3.898   4.995   1.486  0.0606 -0.4554  0.1342
 3436SOL    HW213476   3.861   4.958   1.406 -0.7417 -0.2800  0.4157
 3436SOL    HW313477   3.861   4.942   1.557 -1.6771  1.2422  0.6049
 3436SOL    MW413478   3.888   4.983   1.485 -0.2959 -0.0545 -0.4088
 3437SOL     OW13479   3.535   0.316   2.906  0.0739 -0.1375  0.1772
 3437SOL    HW213480   3.564   0.256   2.838  3.3215 -0.4049  1.6086
 3437SOL    HW313481   3.479   0.262   2.963 -1.1003 -0.4049 -1.1798
 3437SOL    MW413482   3.532   0.301   2.905 -0.8829 -1.0867 -0.2994
 3438SOL     OW13483   1.884   0.190   3.228 -0.3305 -0.0869  0.3373
 3438SOL    HW213484   1.797   0.215   3.195  0.0605 -0.0724 -0.7088
 3438SOL    HW313485   1.878   0.204   3.323 -1.8180 -1.1330  0.4300
 3438SOL    MW413486   1.871   0.195   3.236  0.1308  0.0066 -0.1033
 3439SOL     OW13487   4.118   2.147   3.498  0.5231 -0.1680 -0.2566
 3439SOL    HW213488   4.055   2.169   3.566  0.1508 -1.2761 -0.2287
 3439SOL    HW313489   4.192   2.207   3.513  0.2251 -0.0565  0.7890
 3439SOL    MW413490   4.120   2.158   3.509  0.1828  0.1262 -0.1826
 3440SOL     OW13491   5.743   5.086   3.640  0.0883 -0.4453  0.5185
 3440SOL    HW213492   5.737   5.181   3.632 -1.8689 -0.6709 -1.4021
 3440SOL    HW313493   5.757   5.055   3.551 -0.6908 -2.0439  0.9153
 3440SOL    MW413494   5.744   5.094   3.627  0.2572  0.8505 -0.7752
 3441SOL     OW13495   4.970   6.171   2.887 -0.0477 -0.0489  0.1368
 3441SOL    HW213496   4.937   6.166   2.797 -0.1570  0.2446  0.1610
 3441SOL    HW313497   4.891   6.181   2.941  0.0314 -0.0407  0.2501
 3441SOL    MW413498   4.955   6.172   2.882 -0.5593 -0.7689 -0.0163
 3442SOL     OW13499   3.217   4.098   0.821 -0.1124 -0.1618  0.3899
 3442SOL    HW213500   3.272   4.134   0.752  0.5710 -0.2635  0.8666
 3442SOL    HW313501   3.236   4.005   0.822 -1.7401 -0.5509 -0.7171
 3442SOL    MW413502   3.226   4.091   0.812  0.6621  0.3566  0.1672
 3443SOL     OW13503   0.801   2.460   1.615  0.5164 -0.1185  0.5192
 3443SOL    HW213504   0.756   2.386   1.573  1.3912 -0.2418 -0.2289
 3443SOL    HW313505   0.879   2.421   1.654  1.3906  0.5307 -0.5536
 3443SOL    MW413506   0.805   2.445   1.615  0.2527  0.4110  0.0234
 3444SOL     OW13507   5.819   5.303   0.367  0.2793  0.1639  0.2113
 3444SOL    HW213508   5.778   5.243   0.304  0.4576 -0.5983  0.8033
 3444SOL    HW313509   5.808   5.259   0.452  1.1070  0.6005  0.5530
 3444SOL    MW413510   5.812   5.289   0.370 -0.2504 -0.3733 -0.1233
 3445SOL     OW13511   2.433   0.439   0.733  0.2016 -0.1361  0.0298
 3445SOL    HW213512   2.377   0.514   0.712  0.4098  0.0503  0.1399
 3445SOL    HW313513   2.416   0.421   0.826  2.4170  1.7206  0.8714
 3445SOL    MW413514   2.423   0.446   0.743  0.0981 -0.4591 -0.0136
 3446SOL     OW13515   6.014   4.708   2.273  0.0205 -0.1724  0.1920
 3446SOL    HW213516   5.980   4.790   2.237  0.3577 -0.3636 -0.5862
 3446SOL    HW313517   5.968   4.697   2.356  1.8858  2.1337  1.6375
 3446SOL    MW413518   6.003   4.717   2.279 -0.4304 -0.2859  0.5988
 3447SOL     OW13519   5.752   3.134   4.427  0.3798 -0.0036  0.1534
 3447SOL    HW213520   5.794   3.216   4.452  1.5330 -0.0768 -1.3456
 3447SOL    HW313521   5.813   3.066   4.456  1.1150 -0.1350 -1.5572
 3447SOL    MW413522   5.766   3.136   4.434 -0.0079 -0.9690  0.1085
 3448SOL     OW13523   5.802   0.161   4.911  0.0420  0.1729 -0.4405
 3448SOL    HW213524   5.719   0.166   4.865  0.0188 -1.0959 -0.5674
 3448SOL    HW313525   5.834   0.072   4.895  0.8095  0.2257  0.6527
 3448SOL    MW413526   5.796   0.150   4.903 -0.6951 -0.1505  0.2217
 3449SOL     OW13527   3.064   0.108   4.240  0.2903 -0.0483 -0.1533
 3449SOL    HW213528   2.998   0.168   4.206  0.5539  0.3616  0.0600
 3449SOL    HW313529   3.098   0.063   4.162  0.6881  0.6799 -0.4067
 3449SOL    MW413530   3.060   0.110   4.225  0.3633  0.0800 -0.0116
 3450SOL     OW13531   5.186   3.836   0.474 -0.6965 -0.2222 -0.1165
 3450SOL    HW213532   5.107   3.793   0.440 -1.0991 -0.9270  1.6314
 3450SOL    HW313533   5.182   3.924   0.437 -0.6945 -1.1401 -2.4673
 3450SOL    MW413534   5.175   3.842   0.465  0.0804 -0.0466 -0.3129
 3451SOL     OW13535   6.164   5.195   4.114  0.5419  0.2483 -0.0956
 3451SOL    HW213536   6.190   5.120   4.061 -1.1196 -0.1994 -0.3502
 3451SOL    HW313537   6.100   5.241   4.060  0.5359  1.0784  0.6097
 3451SOL    MW413538   6.159   5.191   4.100  0.0547 -0.0885  0.1318
 3452SOL     OW13539   2.976   1.225   0.510  0.2898  0.5617  0.1434
 3452SOL    HW213540   3.008   1.155   0.568  0.6825  1.0162  0.4871
 3452SOL    HW313541   3.010   1.305   0.550  0.2564  0.9083 -0.5244
 3452SOL    MW413542   2.985   1.226   0.523  0.3635 -0.4632 -0.0300
 3453SOL     OW13543   1.770   3.938   0.411 -0.2407 -0.1987  0.3274
 3453SOL    HW213544   1.816   3.855   0.417 -0.9044 -0.5152  1.4001
 3453SOL    HW313545   1.773   3.961   0.318  0.7310 -0.9612  0.1573
 3453SOL    MW413546   1.776   3.930   0.399  0.5462  0.6346  0.0606
 3454SOL     OW13547   3.734   5.381   0.936  0.5355 -0.2979  0.2146
 3454SOL    HW213548   3.779   5.314   0.885 -0.7892 -1.3904  0.4220
 3454SOL    HW313549   3.757   5.361   1.027  3.2262  1.8882  0.1760
 3454SOL    MW413550   3.743   5.369   0.941  0.2500  0.1287  0.1120
 3455SOL     OW13551   5.182   0.785   4.790 -0.1915  0.5148  0.2879
 3455SOL    HW213552   5.202   0.769   4.882 -0.9934 -0.1349  0.3607
 3455SOL    HW313553   5.194   0.700   4.747  0.0681  0.7864 -0.1916
 3455SOL    MW413554   5.186   0.772   4.796 -0.1613 -0.8513 -0.1068
 3456SOL     OW13555   1.905   0.131   6.077 -0.2341 -0.5066 -0.1171
 3456SOL    HW213556   1.940   0.166   5.995 -0.9161 -0.0166 -0.2079
 3456SOL    HW313557   1.812   0.153   6.075  0.0471  1.1972  1.6043
 3456SOL    MW413558   1.898   0.139   6.066 -0.1608  0.0250 -0.7636
 3457SOL     OW13559   0.901   5.331   4.329 -0.3995  0.0056 -0.1659
 3457SOL    HW213560   0.921   5.402   4.269 -0.9328  0.4690  0.1959
 3457SOL    HW313561   0.815   5.300   4.302 -0.0275 -0.7290 -0.5322
 3457SOL    MW413562   0.892   5.336   4.318  0.1843  0.3928  0.2337
 3458SOL     OW13563   6.229   5.076   6.015  0.4696 -0.0451 -0.3492
 3458SOL    HW213564   6.249   5.054   6.105  1.4867  3.1312  0.3326
 3458SOL    HW313565   6.300   5.134   5.988 -2.1231  2.8636 -1.5475
 3458SOL    MW413566   6.241   5.081   6.023 -0.9599 -0.2116 -0.9074
 3459SOL     OW13567   0.365   5.285   1.037  0.1484 -0.1132  0.3119
 3459SOL    HW213568   0.308   5.213   1.060 -0.6812  0.2598 -0.5320
 3459SOL    HW313569   0.356   5.295   0.942  2.0735 -0.4277  0.0456
 3459SOL    MW413570   0.357   5.277   1.027 -0.4335  0.2514 -0.0008
 3460SOL     OW13571   3.228   1.585   5.982 -0.0461 -0.2240  0.0636
 3460SOL    HW213572   3.183   1.525   6.042 -0.3745  0.8521  0.9462
 3460SOL    HW313573   3.264   1.652   6.040  0.3359  0.4063 -0.8911
 3460SOL    MW413574   3.227   1.586   5.998 -0.7746  0.4928  0.2963
 3461SOL     OW13575   0.376   2.978   4.702  0.2118  0.0338  0.2082
 3461SOL    HW213576   0.376   2.892   4.660 -0.3825 -0.0679  0.4137
 3461SOL    HW313577   0.416   3.036   4.637 -0.9404 -0.0618 -0.6055
 3461SOL    MW413578   0.381   2.974   4.688 -0.1049 -0.0657  0.2118
 3462SOL     OW13579   2.613   0.064   2.188  0.2304  0.7683  0.1949
 3462SOL    HW213580   2.644   0.120   2.259  0.8993 -0.6658  1.0952
 3462SOL    HW313581   2.676  -0.009   2.187 -1.6369 -0.9167  0.3281
 3462SOL    MW413582   2.626   0.062   2.197 -0.3724 -0.2398 -0.3924
 3463SOL     OW13583   0.923   0.508   6.334 -0.1839 -0.5386 -0.9785
 3463SOL    HW213584   0.988   0.439   6.316  1.1099  0.4182 -0.1782
 3463SOL    HW313585   0.904   0.498   6.427  0.4285  0.5137 -0.7322
 3463SOL    MW413586   0.929   0.497   6.344  0.1832 -0.1012 -0.1725
 3464SOL     OW13587   3.054   0.944   3.541 -0.2960  0.0801  0.0904
 3464SOL    HW213588   2.974   0.926   3.491  0.8069 -0.2226 -1.6801
 3464SOL    HW313589   3.062   1.039   3.541 -1.4591  0.2035  1.6627
 3464SOL    MW413590   3.045   0.954   3.534 -0.4221 -0.3442  0.2502
 3465SOL     OW13591   5.691   0.572   6.333 -0.3130  0.0524 -0.0156
 3465SOL    HW213592   5.760   0.594   6.270 -0.1450  0.1078  0.1858
 3465SOL    HW313593   5.639   0.651   6.341 -0.9517 -0.2686 -0.8592
 3465SOL    MW413594   5.693   0.585   6.326  0.5896  0.0380  0.2642
 3466SOL     OW13595   4.110   4.441   2.669 -0.1057 -0.3117 -0.1766
 3466SOL    HW213596   4.071   4.487   2.743 -1.6730 -1.0486 -0.5011
 3466SOL    HW313597   4.088   4.495   2.593  0.7486 -0.0069 -0.2173
 3466SOL    MW413598   4.102   4.454   2.669  0.1263  0.2788  0.3393
 3467SOL     OW13599   3.502   3.398   0.721 -0.2571  0.2384  0.0378
 3467SOL    HW213600   3.568   3.380   0.654 -0.0839  2.9973 -0.6597
 3467SOL    HW313601   3.553   3.411   0.801 -0.5439 -4.4984  1.2847
 3467SOL    MW413602   3.518   3.398   0.723  0.1899 -0.0704 -0.0925
 3468SOL     OW13603   0.488   3.024   1.743 -0.0419  0.0001 -0.6529
 3468SOL    HW213604   0.404   3.025   1.697 -0.0641  0.1748 -0.6061
 3468SOL    HW313605   0.547   2.978   1.683  0.0985  0.8014 -1.1477
 3468SOL    MW413606   0.485   3.018   1.729 -0.8211  0.3469  0.0190
 3469SOL     OW13607   6.343   3.563   3.900  0.2927 -0.2080  0.4038
 3469SOL    HW213608   6.406   3.629   3.929  2.0758  0.4668 -4.2141
 3469SOL    HW313609   6.392   3.507   3.840 -3.1346 -0.4571 -2.4819
 3469SOL    MW413610   6.358   3.564   3.896  0.4630  0.0893  0.0733
 3470SOL     OW13611   1.222   4.426   2.256 -0.0809  0.2241 -0.1014
 3470SOL    HW213612   1.248   4.399   2.344  1.5191  1.0837 -0.2795
 3470SOL    HW313613   1.292   4.395   2.199 -0.1671  1.3013 -0.8170
 3470SOL    MW413614   1.235   4.418   2.260  0.0768  0.0975 -0.0516
 3471SOL     OW13615   6.135   1.787   2.876 -0.7626  0.2404  0.7688
 3471SOL    HW213616   6.193   1.803   2.801 -1.8055  0.4435 -0.0140
 3471SOL    HW313617   6.072   1.859   2.873 -0.0635  1.0062  2.6261
 3471SOL    MW413618   6.134   1.799   2.866 -0.4740 -0.2136  0.3149
 3472SOL     OW13619   5.318   0.699   5.858 -0.3829  0.2474  0.2708
 3472SOL    HW213620   5.360   0.698   5.944 -0.7944  0.8788  0.4880
 3472SOL    HW313621   5.328   0.789   5.828 -1.3557  0.3493  0.2231
 3472SOL    MW413622   5.325   0.711   5.866 -0.1263  0.1884 -0.0794
 3473SOL     OW13623   1.035   3.628   1.212 -0.0391 -0.4706  0.0272
 3473SOL    HW213624   0.986   3.686   1.270 -1.2329 -1.6224  0.2167
 3473SOL    HW313625   1.029   3.542   1.254 -1.5740 -1.4972 -2.1175
 3473SOL    MW413626   1.028   3.624   1.225  0.1835 -0.1255 -0.5929
 3474SOL     OW13627   1.099   0.362   3.498 -0.1785 -0.0539  0.6309
 3474SOL    HW213628   1.102   0.266   3.502  1.8691 -0.0293  0.7555
 3474SOL    HW313629   1.187   0.387   3.470 -0.6878  1.8001  0.5968
 3474SOL    MW413630   1.111   0.353   3.495 -0.0126  0.0634  0.2563
 3475SOL     OW13631   5.461   4.421   6.378  0.6739 -0.6072  0.1934
 3475SOL    HW213632   5.395   4.478   6.339  0.7818 -1.9162 -2.0680
 3475SOL    HW313633   5.534   4.480   6.400  0.1628  0.3634 -0.6180
 3475SOL    MW413634   5.462   4.436   6.376 -0.2019  0.6336 -0.4067
 3476SOL     OW13635   5.168   3.166   6.385 -0.6841  0.0712 -0.0679
 3476SOL    HW213636   5.227   3.220   6.332  1.9482  0.3495  2.8204
 3476SOL    HW313637   5.151   3.089   6.331 -0.4055  1.5013 -2.3218
 3476SOL    MW413638   5.174   3.163   6.371  0.9414  0.0293 -0.0112
 3477SOL     OW13639   3.591   4.760   1.187  0.8620  0.1628 -0.0548
 3477SOL    HW213640   3.547   4.842   1.167  0.1053 -0.0639  0.6154
 3477SOL    HW313641   3.549   4.729   1.268  1.0888 -0.9075 -0.3259
 3477SOL    MW413642   3.579   4.766   1.195  0.4169  0.3779 -0.2790
 3478SOL     OW13643   2.255   2.153   1.012  0.0066 -0.3144 -0.1754
 3478SOL    HW213644   2.349   2.169   1.013 -0.0996  0.8860  2.8588
 3478SOL    HW313645   2.217   2.235   1.044 -2.1567 -0.5848 -1.8234
 3478SOL    MW413646   2.262   2.166   1.017  0.2158  0.2555 -0.4875
 3479SOL     OW13647   5.925   0.372   2.928 -0.0273 -0.3223  0.3047
 3479SOL    HW213648   5.843   0.323   2.928 -1.1134  1.3748  1.0055
 3479SOL    HW313649   5.950   0.380   2.836 -1.4253  0.3274 -0.0381
 3479SOL    MW413650   5.918   0.366   2.916  0.0787 -0.1199  0.3091
 3480SOL     OW13651   2.964   0.664   5.128  0.6073  0.3507 -0.3379
 3480SOL    HW213652   2.890   0.643   5.184  0.0989 -0.9410 -1.4511
 3480SOL    HW313653   2.936   0.640   5.040  2.4302 -0.4250 -0.7581
 3480SOL    MW413654   2.951   0.658   5.124 -0.6049  0.1539 -0.7794
 3481SOL     OW13655   0.040   4.891   5.129  0.3500  0.0216  0.0328
 3481SOL    HW213656  -0.002   4.863   5.047 -2.4233  2.2495  0.5510
 3481SOL    HW313657   0.015   4.823   5.192 -0.7696  0.2370 -0.1500
 3481SOL    MW413658   0.031   4.878   5.126  0.2326  0.2573  0.2616
 3482SOL     OW13659   2.200   5.748   1.928  0.0770  0.1865 -0.4387
 3482SOL    HW213660   2.261   5.806   1.973 -0.2751  1.8291 -1.9481
 3482SOL    HW313661   2.133   5.807   1.894 -1.5070 -1.3842 -0.1945
 3482SOL    MW413662   2.199   5.764   1.930  0.3263 -0.1110  0.0386
 3483SOL     OW13663   5.894   4.399   0.302  0.1434 -0.1349 -0.4658
 3483SOL    HW213664   5.976   4.431   0.264 -0.2828  0.8629 -0.5853
 3483SOL    HW313665   5.917   4.315   0.341  0.8074 -0.7671 -2.1132
 3483SOL    MW413666   5.908   4.392   0.302  0.5381 -0.3923  0.9191
 3484SOL     OW13667   4.183   0.870   2.809 -0.5055 -0.4725  0.3158
 3484SOL    HW213668   4.192   0.831   2.722 -1.6502 -2.8180  1.1702
 3484SOL    HW313669   4.265   0.848   2.853  0.6844  1.9065 -0.4918
 3484SOL    MW413670   4.195   0.862   2.803  0.7880 -0.7266  0.0201
 3485SOL     OW13671   1.812   1.706   5.257  0.4242  0.4239  0.1408
 3485SOL    HW213672   1.900   1.671   5.238  0.4226  0.0388  0.8079
 3485SOL    HW313673   1.752   1.645   5.214  0.4145 -0.5359  1.4373
 3485SOL    MW413674   1.816   1.693   5.249  0.1881  0.5405  0.9750
 3486SOL     OW13675   1.262   1.736   3.301 -0.4060 -0.1626  0.3280
 3486SOL    HW213676   1.320   1.670   3.263 -0.1957  0.3589 -0.2912
 3486SOL    HW313677   1.271   1.812   3.243  0.7674  1.0655  1.9967
 3486SOL    MW413678   1.271   1.738   3.288  0.3864 -0.3710 -0.5257
 3487SOL     OW13679   3.786   5.246   2.909 -0.7561 -0.6721  0.0877
 3487SOL    HW213680   3.767   5.208   2.823 -1.0979  0.0887 -0.1873
 3487SOL    HW313681   3.882   5.249   2.913 -0.7377 -0.3782 -0.4310
 3487SOL    MW413682   3.796   5.241   2.898  0.0433 -0.1506  0.4667
 3488SOL     OW13683   4.374   4.407   3.276  0.0616  0.0498  0.1113
 3488SOL    HW213684   4.342   4.496   3.266 -0.9342 -0.0056  2.1864
 3488SOL    HW313685   4.421   4.388   3.195 -0.0978  2.2813 -0.5486
 3488SOL    MW413686   4.376   4.416   3.264 -0.2858  0.8845 -0.5927
 3489SOL     OW13687   3.639   2.120   2.859  0.0963  0.1918  0.6734
 3489SOL    HW213688   3.684   2.204   2.868 -3.2024  2.4084 -0.9456
 3489SOL    HW313689   3.562   2.141   2.805 -1.3067 -3.7767  0.8198
 3489SOL    MW413690   3.634   2.134   2.853  0.0802 -0.7593 -0.4053
 3490SOL     OW13691   3.708   1.414   2.806  0.7679  0.1450  0.0614
 3490SOL    HW213692   3.728   1.445   2.717  0.5078 -0.8127 -0.3408
 3490SOL    HW313693   3.779   1.354   2.827  0.0268 -0.8173 -0.1216
 3490SOL    MW413694   3.720   1.410   2.797 -0.0292 -0.4855  0.2789
 3491SOL     OW13695   4.981   3.476   6.245 -0.2544 -0.2663 -0.1982
 3491SOL    HW213696   4.942   3.398   6.285 -1.6798 -0.6104 -2.1135
 3491SOL    HW313697   5.033   3.443   6.172 -0.1872  0.5218 -0.5208
 3491SOL    MW413698   4.983   3.462   6.241  0.3273 -0.1797 -0.3363
 3492SOL     OW13699   4.730   1.849   1.390 -0.1523  0.1841 -0.1053
 3492SOL    HW213700   4.764   1.939   1.397  0.2649  0.2166 -1.9303
 3492SOL    HW313701   4.733   1.815   1.479  1.8978  1.2223  0.2901
 3492SOL    MW413702   4.735   1.857   1.402  0.0184 -0.6883  0.2291
 3493SOL     OW13703   5.473   2.820   6.042 -0.1972 -0.0510 -0.4209
 3493SOL    HW213704   5.551   2.849   6.088  0.5431 -0.8264 -1.1625
 3493SOL    HW313705   5.424   2.769   6.107  0.0919  0.1216 -0.0666
 3493SOL    MW413706   5.477   2.817   6.057 -0.6654 -0.0629  0.1856
 3494SOL     OW13707   5.967   3.722   2.698 -0.1770 -0.1580  0.1495
 3494SOL    HW213708   5.934   3.798   2.651 -0.9227 -0.6309 -0.1130
 3494SOL    HW313709   5.996   3.757   2.782 -2.5385  0.1581  0.9274
 3494SOL    MW413710   5.966   3.737   2.703 -0.5129 -0.3783  0.1352
 3495SOL     OW13711   0.991   3.872   5.128  0.4179 -0.2168  0.3102
 3495SOL    HW213712   1.019   3.905   5.213 -0.4442 -2.0800  1.3711
 3495SOL    HW313713   0.922   3.810   5.148 -1.0524  0.5910 -1.8996
 3495SOL    MW413714   0.986   3.869   5.142  0.5526  0.2081  1.1698
 3496SOL     OW13715   0.276   3.640   1.622 -0.6971  0.7004  0.5251
 3496SOL    HW213716   0.266   3.732   1.644  1.5586  0.9538  0.6424
 3496SOL    HW313717   0.270   3.637   1.527  0.3038  1.1299  0.4438
 3496SOL    MW413718   0.274   3.652   1.613  0.0694 -0.1504 -0.2475
 3497SOL     OW13719   4.063   5.261   2.895 -0.4591  0.2147 -0.1174
 3497SOL    HW213720   4.124   5.189   2.912  1.1091  1.2736 -1.0260
 3497SOL    HW313721   4.103   5.337   2.938  0.2894  1.5051 -2.8354
 3497SOL    MW413722   4.077   5.262   2.903  0.1741  0.9022  0.2276
 3498SOL     OW13723   3.828   1.781   0.373  0.3220 -0.1747 -0.3047
 3498SOL    HW213724   3.825   1.750   0.463 -0.5632 -1.3962 -0.7310
 3498SOL    HW313725   3.905   1.739   0.336  0.4736  0.0291 -0.2202
 3498SOL    MW413726   3.838   1.771   0.380 -0.5903  0.4132 -0.2325
 3499SOL     OW13727   5.412   5.158   2.795 -0.1485 -0.0455  1.2709
 3499SOL    HW213728   5.390   5.190   2.883 -0.7706  0.5610  0.8998
 3499SOL    HW313729   5.352   5.204   2.737 -0.8382 -1.6032  0.6812
 3499SOL    MW413730   5.401   5.168   2.799  0.5330 -0.3885  0.0510
 3500SOL     OW13731   2.556   6.427   5.160  0.1476 -0.4636  0.4152
 3500SOL    HW213732   2.491   6.487   5.196 -0.2083 -1.0951  0.8480
 3500SOL    HW313733   2.522   6.340   5.181  1.2848 -0.8028  0.9331
 3500SOL    MW413734   2.543   6.423   5.168 -0.1488  0.1187  0.0098
 3501SOL     OW13735   2.368   3.462   2.322 -0.2894  0.0256  0.3365
 3501SOL    HW213736   2.392   3.511   2.243 -1.1705  0.3830  0.2828
 3501SOL    HW313737   2.276   3.440   2.310 -0.0110 -1.3608  0.5238
 3501SOL    MW413738   2.359   3.465   2.310 -0.0501  0.6404 -0.2016
 3502SOL     OW13739   1.225   4.726   4.020 -0.3819 -0.1390  0.7700
 3502SOL    HW213740   1.145   4.678   3.998  0.4199 -0.9544 -0.5204
 3502SOL    HW313741   1.274   4.665   4.076 -0.5658  0.2900  1.4116
 3502SOL    MW413742   1.221   4.711   4.025 -0.2712  0.2092 -0.3514
 3503SOL     OW13743   4.426   2.429   5.082  0.1128 -0.4630  0.6846
 3503SOL    HW213744   4.437   2.522   5.064 -0.8462  0.0230  2.4565
 3503SOL    HW313745   4.355   2.402   5.023 -0.5959  0.2698  1.1906
 3503SOL    MW413746   4.418   2.437   5.072  0.1613 -0.2733  0.1058
 3504SOL     OW13747   1.174   5.055   1.004  0.0762  0.0564 -0.0181
 3504SOL    HW213748   1.103   5.025   1.062  0.1893 -1.7918 -0.7684
 3504SOL    HW313749   1.129   5.096   0.930 -0.1368  0.4841  0.3416
 3504SOL    MW413750   1.158   5.056   1.002 -0.2069 -0.0665  0.3148
 3505SOL     OW13751   4.847   0.218   4.741  0.3034  0.3637  0.2483
 3505SOL    HW213752   4.785   0.146   4.743  0.3930  0.2828  0.1042
 3505SOL    HW313753   4.829   0.262   4.657 -0.1554  0.8640  0.5985
 3505SOL    MW413754   4.836   0.215   4.730  0.0241 -0.0793 -0.0776
 3506SOL     OW13755   2.867   1.695   6.126  0.1138 -0.2280  0.6787
 3506SOL    HW213756   2.846   1.619   6.180  1.1454 -1.2880 -0.3392
 3506SOL    HW313757   2.874   1.660   6.037 -0.4180  1.2582  0.0045
 3506SOL    MW413758   2.865   1.680   6.121 -0.6872 -0.2957 -0.1864
 3507SOL     OW13759   0.332   0.404   0.207  0.6272 -0.2425 -0.2347
 3507SOL    HW213760   0.295   0.451   0.281 -0.2663 -0.8208 -0.3030
 3507SOL    HW313761   0.284   0.321   0.204  2.4260 -1.3794  0.1342
 3507SOL    MW413762   0.321   0.399   0.216  0.2657  0.1750  0.3556
 3508SOL     OW13763   3.131   4.536   4.070  0.2317 -0.0190  0.8931
 3508SOL    HW213764   3.055   4.483   4.047 -0.4374  0.2132  2.4098
 3508SOL    HW313765   3.203   4.498   4.021 -0.8866 -0.1483 -0.7185
 3508SOL    MW413766   3.130   4.524   4.061  0.2832  0.3606  0.5510
 3509SOL     OW13767   2.887   5.645   4.662 -0.4861 -0.7441  0.1477
 3509SOL    HW213768   2.934   5.693   4.594 -1.1541  0.9589  0.8254
 3509SOL    HW313769   2.796   5.672   4.652 -0.2946  1.7265  3.2617
 3509SOL    MW413770   2.881   5.655   4.652  0.2653  0.1141 -0.8048
 3510SOL     OW13771   2.949   2.943   3.860  0.0570  0.4197  0.6365
 3510SOL    HW213772   2.977   2.871   3.917  0.8992  1.0013  0.9787
 3510SOL    HW313773   2.940   3.018   3.919 -0.1770  0.7576  0.1785
 3510SOL    MW413774   2.951   2.943   3.875 -0.2487 -0.8051 -0.6895
 3511SOL     OW13775   0.756   2.668   6.126 -0.3232 -0.3858 -0.5893
 3511SOL    HW213776   0.800   2.687   6.043 -1.3942 -1.3511 -1.4094
 3511SOL    HW313777   0.699   2.593   6.106 -1.5572  0.1756  0.6920
 3511SOL    MW413778   0.755   2.660   6.112  0.5735  0.1653  0.3905
 3512SOL     OW13779   3.649   3.456   1.576 -0.0841  0.0258 -0.0545
 3512SOL    HW213780   3.645   3.402   1.655  0.4584  0.3097  0.1694
 3512SOL    HW313781   3.722   3.419   1.526 -0.0828  0.1899 -0.1732
 3512SOL    MW413782   3.658   3.444   1.580 -0.0589  0.0526  0.1710
 3513SOL     OW13783   3.600   1.054   1.902 -0.4145 -0.0972  0.4558
 3513SOL    HW213784   3.584   1.124   1.839  1.1821  0.6497  0.8347
 3513SOL    HW313785   3.514   1.032   1.936 -1.2449 -0.0823 -1.5038
 3513SOL    MW413786   3.587   1.060   1.898  0.0135  0.1815  0.3814
 3514SOL     OW13787   2.874   5.945   5.801 -0.0607 -0.1317  1.2604
 3514SOL    HW213788   2.860   5.915   5.710  0.7841 -2.9101  1.9420
 3514SOL    HW313789   2.900   6.036   5.792 -0.4170 -0.1921 -1.2692
 3514SOL    MW413790   2.876   5.953   5.788 -0.2774 -0.0427 -0.1276
 3515SOL     OW13791   4.770   3.027   1.658 -0.2969 -0.1173 -0.9392
 3515SOL    HW213792   4.686   3.021   1.613 -0.6687  1.3695 -0.4866
 3515SOL    HW313793   4.770   2.952   1.719 -0.1186 -1.6799 -2.7539
 3515SOL    MW413794   4.759   3.016   1.660  0.3022  0.4232 -0.1349
 3516SOL     OW13795   4.577   4.598   2.381  0.4202  0.6621  0.6852
 3516SOL    HW213796   4.656   4.639   2.347  0.0889  1.0541  0.3679
 3516SOL    HW313797   4.599   4.506   2.388  0.8974  0.7637  0.5718
 3516SOL    MW413798   4.590   4.592   2.377  0.0266 -0.1031 -0.0360
 3517SOL     OW13799   4.802   1.253   3.257  0.7820  0.0665  0.3774
 3517SOL    HW213800   4.861   1.253   3.332  2.3320  0.5189 -0.7838
 3517SOL    HW313801   4.860   1.257   3.181 -0.7499  0.1370 -0.8390
 3517SOL    MW413802   4.817   1.253   3.257 -0.2187 -0.3412  0.1011
 3518SOL     OW13803   0.162   1.766   2.015  0.5063  0.0199 -0.3525
 3518SOL    HW213804   0.200   1.690   1.970 -0.5031 -1.0785  0.5627
 3518SOL    HW313805   0.067   1.758   1.999  0.5186  2.2284 -1.8970
 3518SOL    MW413806   0.154   1.755   2.007  0.0292 -0.2502  0.5783
 3519SOL     OW13807   2.077   1.471   3.866 -0.2051 -0.7361 -0.3673
 3519SOL    HW213808   2.155   1.419   3.886  0.4107 -0.1197 -1.1209
 3519SOL    HW313809   2.099   1.518   3.786 -1.0949 -0.0261 -0.2116
 3519SOL    MW413810   2.091   1.471   3.858  0.2333  0.1348  0.0892
 3520SOL     OW13811   5.988   3.733   0.041 -0.5668 -0.4627  0.5041
 3520SOL    HW213812   5.902   3.694   0.054 -1.1470 -0.1221 -1.7620
 3520SOL    HW313813   5.976   3.791  -0.035  1.3385  0.6347  0.9885
 3520SOL    MW413814   5.975   3.735   0.032 -0.4073  0.1282 -0.5023
 3521SOL     OW13815   2.348   1.124   2.159 -0.1430  0.1586 -0.1262
 3521SOL    HW213816   2.434   1.083   2.159  0.8835  2.1451 -0.9649
 3521SOL    HW313817   2.329   1.140   2.252  0.5346 -0.0369  0.0538
 3521SOL    MW413818   2.357   1.121   2.171  0.4892  0.0231 -0.5080
 3522SOL     OW13819   6.127   0.701   2.484 -0.7016  0.4057  0.0734
 3522SOL    HW213820   6.220   0.679   2.490 -0.2148  1.8278 -1.4067
 3522SOL    HW313821   6.099   0.714   2.575  0.1777 -1.3143  0.6253
 3522SOL    MW413822   6.135   0.700   2.497 -0.1106  0.7007  0.2895
 3523SOL     OW13823   5.078   3.195   3.000 -0.1791 -0.0072  0.0658
 3523SOL    HW213824   4.983   3.209   3.009 -0.2674  0.5429 -1.3904
 3523SOL    HW313825   5.110   3.191   3.090 -1.7638 -1.6143  0.6228
 3523SOL    MW413826   5.070   3.196   3.013 -0.4056  0.0150  0.4227
 3524SOL     OW13827   0.308   3.733   0.146 -0.0797  0.0358 -0.0074
 3524SOL    HW213828   0.323   3.691   0.061 -0.3035 -0.9659  0.4333
 3524SOL    HW313829   0.243   3.801   0.127  1.5613  1.3995 -1.0641
 3524SOL    MW413830   0.302   3.736   0.132 -0.8253 -0.0169 -0.5764
 3525SOL     OW13831   2.363   4.183   3.162 -0.2686  0.4294  0.1643
 3525SOL    HW213832   2.458   4.184   3.149 -0.3104 -0.1828 -0.1815
 3525SOL    HW313833   2.353   4.180   3.257  0.0424  1.6760  0.2627
 3525SOL    MW413834   2.374   4.183   3.173  0.0886  0.0476 -0.3965
 3526SOL     OW13835   6.384   3.957   0.797 -0.7395  0.7245 -0.1116
 3526SOL    HW213836   6.397   4.051   0.813  0.6396  0.3269  1.5310
 3526SOL    HW313837   6.438   3.915   0.864 -1.6282 -1.2513 -0.5779
 3526SOL    MW413838   6.393   3.964   0.808  0.3667 -0.4897 -0.5683
 3527SOL     OW13839   3.874   4.228   4.394 -0.3074  0.1076  0.2643
 3527SOL    HW213840   3.944   4.164   4.405 -0.9070 -0.7849 -0.8682
 3527SOL    HW313841   3.918   4.313   4.396  0.5778 -0.3476  1.2101
 3527SOL    MW413842   3.889   4.231   4.396 -0.4419 -0.6157  0.1509
 3528SOL     OW13843   2.043   3.698   4.527 -0.2116 -0.3675 -0.5378
 3528SOL    HW213844   2.080   3.627   4.580 -0.7925  0.0686  0.4932
 3528SOL    HW313845   2.118   3.739   4.485  0.1211 -1.6782 -1.2822
 3528SOL    MW413846   2.057   3.694   4.529  0.1142  0.0734  0.0096
 3529SOL     OW13847   0.813   4.866   6.069 -0.1963  0.0864 -0.2063
 3529SOL    HW213848   0.828   4.959   6.086  0.3661  0.1734 -1.1332
 3529SOL    HW313849   0.862   4.820   6.138 -1.5609  0.4655  1.0764
 3529SOL    MW413850   0.821   4.872   6.080 -0.3567 -0.1792 -0.1663
 3530SOL     OW13851   3.916   5.726   0.683 -0.1601 -0.3481  0.5783
 3530SOL    HW213852   3.926   5.822   0.687  1.9873 -0.4826 -0.2724
 3530SOL    HW313853   3.904   5.700   0.775 -1.1225  0.7494  0.7846
 3530SOL    MW413854   3.916   5.735   0.696 -0.7665 -0.1084 -0.3723
 3531SOL     OW13855   0.056   1.379   1.064  0.7544  0.3210 -0.0533
 3531SOL    HW213856  -0.024   1.418   1.101  0.5603  0.4736 -0.6166
 3531SOL    HW313857   0.027   1.297   1.024  1.2904 -0.8213  1.7817
 3531SOL    MW413858   0.041   1.374   1.064 -0.3006 -0.1784 -0.0415
 3532SOL     OW13859   6.086   1.441   5.722  0.3122  0.1838  0.0930
 3532SOL    HW213860   6.065   1.426   5.630 -0.9295  1.1885  0.1809
 3532SOL    HW313861   6.129   1.361   5.750 -0.7664 -0.7970 -0.9396
 3532SOL    MW413862   6.089   1.429   5.713  0.4498 -0.2267  0.7207
 3533SOL     OW13863   3.407   5.968   2.738  0.1421  0.3102  0.1573
 3533SOL    HW213864   3.351   5.891   2.731  0.8082 -0.0537 -2.3251
 3533SOL    HW313865   3.383   6.009   2.821  0.2943 -2.9582  1.9860
 3533SOL    MW413866   3.397   5.963   2.748 -0.4546  0.1183 -0.9836
 3534SOL     OW13867   4.608   6.172   6.389  1.0789  0.4760  0.4378
 3534SOL    HW213868   4.622   6.078   6.374  0.8629  0.1716  1.9258
 3534SOL    HW313869   4.514   6.180   6.400  1.0686  0.9193  0.0291
 3534SOL    MW413870   4.598   6.160   6.389 -0.2242 -0.0723 -0.3228
 3535SOL     OW13871   1.783   3.105   3.100 -0.1350  0.5651 -0.0861
 3535SOL    HW213872   1.800   3.198   3.088 -0.9901  0.7643  0.2067
 3535SOL    HW313873   1.825   3.064   3.024 -0.5965  1.2848 -0.7488
 3535SOL    MW413874   1.791   3.112   3.088  0.2036  0.3956  0.3616
 3536SOL     OW13875   2.524   2.577   0.404 -0.4000 -0.1143  0.0657
 3536SOL    HW213876   2.508   2.643   0.471 -2.4569 -0.0427 -0.4253
 3536SOL    HW313877   2.438   2.537   0.388 -0.3867  0.9649 -3.6163
 3536SOL    MW413878   2.511   2.580   0.410  0.1969  0.3425  0.2549
 3537SOL     OW13879   2.446   0.704   5.148  0.3221  0.1856  0.1043
 3537SOL    HW213880   2.410   0.622   5.112  1.6600  0.2556 -1.5608
 3537SOL    HW313881   2.508   0.675   5.214  1.8407 -0.3061 -1.4452
 3537SOL    MW413882   2.450   0.689   5.152 -0.1515 -0.3883 -0.1649
 3538SOL     OW13883   2.814   2.148   4.432  0.3222 -0.8586 -0.7647
 3538SOL    HW213884   2.763   2.096   4.493  1.1681 -1.3717 -0.4757
 3538SOL    HW313885   2.749   2.192   4.377 -0.4196 -2.2100 -1.0143
 3538SOL    MW413886   2.799   2.147   4.433  0.5095 -0.8467 -0.1455
 3539SOL     OW13887   5.243   5.887   2.489  0.0165 -0.4072 -0.3985
 3539SOL    HW213888   5.151   5.904   2.468  0.4801  1.5125 -1.0849
 3539SOL    HW313889   5.269   5.961   2.545  0.8539 -1.5358  0.7869
 3539SOL    MW413890   5.234   5.899   2.494  0.0372  0.0385 -0.4055
 3540SOL     OW13891   0.541   4.510   1.603  0.1166 -0.0378  0.1730
 3540SOL    HW213892   0.581   4.454   1.537 -0.6476 -0.2707 -0.1028
 3540SOL    HW313893   0.585   4.595   1.591  2.7843 -1.0271  1.9679
 3540SOL    MW413894   0.552   4.514   1.592 -0.1028 -0.5316 -0.7683
 3541SOL     OW13895   1.446   6.376   4.169 -0.5858 -0.2430 -0.3972
 3541SOL    HW213896   1.415   6.456   4.209 -0.5988 -1.0804  1.3421
 3541SOL    HW313897   1.431   6.308   4.235 -1.1381 -1.7998 -2.0200
 3541SOL    MW413898   1.440   6.377   4.183 -0.4688  0.1564 -0.1484
 3542SOL     OW13899   3.233   4.332   5.232 -0.3026  0.1833 -0.4963
 3542SOL    HW213900   3.271   4.298   5.151  2.2975 -0.8228  1.0146
 3542SOL    HW313901   3.172   4.263   5.260  0.3828 -0.4553 -0.5390
 3542SOL    MW413902   3.230   4.318   5.225 -0.3380  0.4541 -0.0859
 3543SOL     OW13903   5.993   5.264   1.300 -0.4537 -0.1077 -0.4211
 3543SOL    HW213904   5.977   5.353   1.267  1.1581  0.0095 -0.9450
 3543SOL    HW313905   5.978   5.208   1.224 -0.1563 -0.1647 -0.4357
 3543SOL    MW413906   5.989   5.269   1.285  0.0796  0.2720  0.4432
 3544SOL     OW13907   5.337   3.637   2.329  0.2703  0.0961  0.3469
 3544SOL    HW213908   5.388   3.577   2.274  1.9933  0.8115  1.1060
 3544SOL    HW313909   5.318   3.587   2.408 -0.8396 -0.3991 -0.2113
 3544SOL    MW413910   5.341   3.623   2.332  0.0502 -0.2793 -0.1594
 3545SOL     OW13911   3.294   4.769   4.390 -0.6471 -0.2489 -0.7414
 3545SOL    HW213912   3.262   4.679   4.390 -1.7458 -0.0489  3.1027
 3545SOL    HW313913   3.387   4.761   4.414 -1.0248 -0.3878  0.7829
 3545SOL    MW413914   3.302   4.756   4.393 -0.3770 -0.3727  0.2146
 3546SOL     OW13915   5.326   4.433   3.434  0.2849 -0.5103 -0.0587
 3546SOL    HW213916   5.410   4.478   3.428  0.5383 -0.9377  0.2617
 3546SOL    HW313917   5.345   4.344   3.405 -0.0789 -0.5833 -0.0757
 3546SOL    MW413918   5.339   4.427   3.429 -0.0182  0.3712 -0.3732
 3547SOL     OW13919   5.602   2.316   3.663 -0.1202 -0.3502  0.1344
 3547SOL    HW213920   5.635   2.385   3.605 -1.0553 -0.5855 -0.7004
 3547SOL    HW313921   5.510   2.338   3.676 -0.0634 -0.6457  1.0402
 3547SOL    MW413922   5.594   2.328   3.657 -0.4660  1.2314 -0.2383
 3548SOL     OW13923   4.005   3.438   3.194 -0.5244  0.1643  0.5187
 3548SOL    HW213924   3.962   3.410   3.274  0.2655 -0.2908  0.7900
 3548SOL    HW313925   4.098   3.424   3.210 -0.3930 -0.5164 -0.6956
 3548SOL    MW413926   4.012   3.432   3.207  0.1646 -0.0313  0.2791
 3549SOL     OW13927   3.494   0.630   1.536  0.7222 -0.6656 -0.0741
 3549SOL    HW213928   3.403   0.601   1.528 -0.1601  2.0152 -0.5960
 3549SOL    HW313929   3.494   0.690   1.611  2.6408 -2.4359  1.4740
 3549SOL    MW413930   3.482   0.634   1.545 -0.5404 -0.6341 -0.0617
 3550SOL     OW13931   2.334   2.603   4.597 -0.1949  0.0377  0.2453
 3550SOL    HW213932   2.256   2.610   4.653  0.8997  1.4168  1.6624
 3550SOL    HW313933   2.406   2.632   4.652  1.1237  0.2766 -1.5209
 3550SOL    MW413934   2.333   2.608   4.611 -0.4052  0.8155 -0.1764
 3551SOL     OW13935   3.756   2.913   0.422  0.1458  0.0221 -0.4410
 3551SOL    HW213936   3.786   2.830   0.459 -1.2543 -0.6617 -0.7947
 3551SOL    HW313937   3.808   2.979   0.468 -0.6287 -0.8636  1.8776
 3551SOL    MW413938   3.767   2.911   0.433 -0.0208  0.1218  0.2048
 3552SOL     OW13939   2.445   4.739   4.225 -0.0034  0.3959 -0.5922
 3552SOL    HW213940   2.449   4.662   4.282 -0.9304 -0.8850 -2.1931
 3552SOL    HW313941   2.536   4.767   4.216  0.2759 -0.1132  0.5182
 3552SOL    MW413942   2.457   4.732   4.231  0.0557  0.0318  0.1108
 3553SOL     OW13943   2.483   2.174   5.413 -0.0158 -0.4434 -0.1191
 3553SOL    HW213944   2.567   2.158   5.455  0.1565  1.2150  0.2385
 3553SOL    HW313945   2.424   2.195   5.485 -0.4585 -0.4935 -0.4639
 3553SOL    MW413946   2.486   2.174   5.428 -0.2078 -0.4692  0.3992
 3554SOL     OW13947   0.491   3.586   3.585 -0.6286 -0.2033 -0.3513
 3554SOL    HW213948   0.551   3.608   3.514 -0.6787 -0.5514 -0.4996
 3554SOL    HW313949   0.406   3.619   3.556 -0.6089 -0.1623 -0.3623
 3554SOL    MW413950   0.488   3.593   3.572 -0.1504  0.7119  0.1911
 3555SOL     OW13951   5.249   1.360   6.302 -0.0724 -0.6323 -0.2542
 3555SOL    HW213952   5.196   1.407   6.366  0.4573 -0.3738 -0.0016
 3555SOL    HW313953   5.248   1.416   6.225  0.1125 -0.4670 -0.1364
 3555SOL    MW413954   5.242   1.374   6.300 -0.2810  0.0644 -0.3234
 3556SOL     OW13955   4.079   1.935   4.367 -0.5982 -0.0922  0.1547
 3556SOL    HW213956   4.019   1.997   4.407 -1.6511 -1.2469  0.4168
 3556SOL    HW313957   4.039   1.915   4.282 -1.3841 -1.9719  0.9336
 3556SOL    MW413958   4.066   1.941   4.361  0.4578  0.2387  0.0488
 3557SOL     OW13959   3.361   5.652   4.033 -0.5611 -0.3008 -0.3760
 3557SOL    HW213960   3.289   5.605   4.074 -0.3559  1.4025  2.1931
 3557SOL    HW313961   3.438   5.628   4.085 -0.0669  1.0575 -0.4425
 3557SOL    MW413962   3.362   5.643   4.045 -0.3837  0.5373 -0.3319
 3558SOL     OW13963   3.620   1.548   3.449 -0.2228  0.2409  0.5725
 3558SOL    HW213964   3.624   1.455   3.473 -1.0479  0.3042  0.9747
 3558SOL    HW313965   3.672   1.554   3.369  1.0379 -0.3056  1.3215
 3558SOL    MW413966   3.628   1.537   3.441  0.6870  0.0753  0.6692
 3559SOL     OW13967   0.479   5.671   3.031  0.1207 -0.6923 -0.5026
 3559SOL    HW213968   0.547   5.666   3.098  0.3493  0.3163 -0.6520
 3559SOL    HW313969   0.526   5.685   2.949 -0.2942  2.5025 -0.3230
 3559SOL    MW413970   0.494   5.672   3.029  0.1295  0.3024  0.0136
 3560SOL     OW13971   5.402   0.784   4.201  0.1444 -0.7324  0.5469
 3560SOL    HW213972   5.411   0.689   4.208 -0.7227 -0.9110 -0.5891
 3560SOL    HW313973   5.462   0.818   4.268  2.4532 -2.0197 -0.7094
 3560SOL    MW413974   5.411   0.776   4.210 -0.0934  0.0094  0.7593
 3561SOL     OW13975   3.190   5.710   0.950  0.5052 -0.1684  0.2964
 3561SOL    HW213976   3.235   5.745   0.873  0.8096 -0.0763  0.5124
 3561SOL    HW313977   3.163   5.622   0.925  0.0107  0.1055 -0.1458
 3561SOL    MW413978   3.193   5.703   0.937 -0.4778  0.1100 -0.0134
 3562SOL     OW13979   2.207   3.103   5.057  0.3471  0.2000  0.1527
 3562SOL    HW213980   2.279   3.089   5.118  0.2178 -0.2701  0.1986
 3562SOL    HW313981   2.132   3.126   5.112  0.5525  1.0981  0.0800
 3562SOL    MW413982   2.207   3.104   5.072  0.0899  0.2482  0.7601
 3563SOL     OW13983   5.964   3.015   5.443 -0.1591 -0.6218  0.3088
 3563SOL    HW213984   5.957   2.970   5.358 -2.7928 -0.0868  0.1413
 3563SOL    HW313985   5.932   3.103   5.425  0.1714 -0.2084  1.6708
 3563SOL    MW413986   5.959   3.021   5.429  0.1969 -0.1805  0.0860
 3564SOL     OW13987   3.970   4.206   6.002  0.1650 -0.1163 -0.0709
 3564SOL    HW213988   4.063   4.201   6.024  0.3675  0.4676 -0.7459
 3564SOL    HW313989   3.930   4.134   6.050  1.0430 -0.6867 -0.1714
 3564SOL    MW413990   3.977   4.196   6.011 -0.4847 -0.3571  0.2566
 3565SOL     OW13991   0.446   3.718   5.273 -0.0674 -0.1230 -0.6055
 3565SOL    HW213992   0.378   3.683   5.216 -0.9195  0.3765  0.0726
 3565SOL    HW313993   0.482   3.793   5.225 -1.5805  1.0157 -0.0329
 3565SOL    MW413994   0.442   3.724   5.259 -0.3186 -0.2622  0.0231
 3566SOL     OW13995   0.069   3.752   3.210 -0.3735  0.4926 -0.2787
 3566SOL    HW213996   0.090   3.845   3.221  0.8457  0.1318  0.7216
 3566SOL    HW313997   0.036   3.725   3.296 -1.8870  0.2676 -0.9107
 3566SOL    MW413998   0.067   3.761   3.223  0.0349 -0.1153  0.8180
 3567SOL     OW13999   0.632   0.627   4.210 -0.2348 -0.0008 -0.0343
 3567SOL    HW214000   0.600   0.562   4.272 -0.3717  1.2077  1.2224
 3567SOL    HW314001   0.656   0.702   4.264  2.2874  0.1180 -1.1868
 3567SOL    MW414002   0.631   0.628   4.225  0.4592 -0.9043 -0.9921
 3568SOL     OW14003   5.527   5.318   4.833  0.7021  1.0899  0.2310
 3568SOL    HW214004   5.618   5.291   4.833  0.4832  0.3203  0.7847
 3568SOL    HW314005   5.525   5.396   4.889  1.0771  1.3464 -0.1059
 3568SOL    MW414006   5.539   5.325   4.841  0.5069 -0.0734 -0.2466
 3569SOL     OW14007   5.322   1.568   1.103  0.1118 -0.3492 -0.1882
 3569SOL    HW214008   5.386   1.555   1.174 -1.0104 -1.5287  0.6455
 3569SOL    HW314009   5.356   1.516   1.031  0.6843 -0.0247 -0.1693
 3569SOL    MW414010   5.335   1.560   1.103 -0.2223  0.3487 -0.4385
 3570SOL     OW14011   2.597   4.572   0.006 -1.5077  0.4793  0.4755
 3570SOL    HW214012   2.665   4.505   0.009 -1.4671  0.4498 -0.7282
 3570SOL    HW314013   2.518   4.527   0.037 -1.1739  0.2840  1.0605
 3570SOL    MW414014   2.596   4.557   0.011 -0.3628  0.3453 -0.0932
 3571SOL     OW14015   6.132   0.506   1.737 -0.1891 -0.0551  0.5725
 3571SOL    HW214016   6.216   0.487   1.695 -1.5364 -0.8720 -1.9803
 3571SOL    HW314017   6.152   0.572   1.803  2.1894  0.9198 -1.0051
 3571SOL    MW414018   6.146   0.512   1.740  0.2826 -0.2553  0.3357
 3572SOL     OW14019   1.360   0.407   0.705 -0.1294  0.1766  0.0527
 3572SOL    HW214020   1.384   0.317   0.727  0.9494  1.0676  2.9514
 3572SOL    HW314021   1.369   0.456   0.787 -1.9707  2.7081 -1.0926
 3572SOL    MW414022   1.364   0.402   0.718 -0.1220  0.0665 -0.1991
 3573SOL     OW14023   3.368   3.471   2.994  0.1999  0.7309 -0.1444
 3573SOL    HW214024   3.350   3.550   2.944 -4.2508  0.5175  0.7896
 3573SOL    HW314025   3.438   3.496   3.055  1.2535  2.8371 -2.1008
 3573SOL    MW414026   3.375   3.485   2.996  0.0552  0.1690  0.0718
 3574SOL     OW14027   5.324   1.503   1.853 -0.2103  0.4561 -0.3773
 3574SOL    HW214028   5.250   1.443   1.844 -0.1840  0.5446 -1.2246
 3574SOL    HW314029   5.399   1.446   1.869 -0.4692  0.3733  0.6203
 3574SOL    MW414030   5.325   1.488   1.854 -0.3622  0.2123  0.2600
 3575SOL     OW14031   4.853   1.823   0.241  0.5552  0.0297  0.0072
 3575SOL    HW214032   4.845   1.909   0.200  0.4733  0.4993  0.9931
 3575SOL    HW314033   4.943   1.796   0.222  1.6647  1.7434  2.3271
 3575SOL    MW414034   4.864   1.831   0.233  0.4661  0.2620  0.2276
 3576SOL     OW14035   0.552   1.209   6.306  0.5037  0.0941  0.3125
 3576SOL    HW214036   0.570   1.239   6.217  0.7769  0.2437  0.4154
 3576SOL    HW314037   0.611   1.134   6.318  0.2523 -0.1127  0.2640
 3576SOL    MW414038   0.562   1.203   6.296  0.4133  0.1707 -0.7743
 3577SOL     OW14039   3.108   4.252   2.174  0.1462 -0.7210  0.1651
 3577SOL    HW214040   3.182   4.313   2.176 -0.8356  0.4818  1.0037
 3577SOL    HW314041   3.147   4.167   2.196  1.3251 -0.1753  0.2669
 3577SOL    MW414042   3.123   4.249   2.177  0.6121 -0.0177 -0.6330
 3578SOL     OW14043   1.993   3.787   2.529  0.5316 -0.1208  0.1812
 3578SOL    HW214044   2.056   3.752   2.592 -1.2442 -1.2545  1.4133
 3578SOL    HW314045   1.947   3.710   2.496 -0.0025  0.6506 -0.9434
 3578SOL    MW414046   1.995   3.772   2.533  0.3203  0.1698 -0.1411
 3579SOL     OW14047   3.901   2.463   5.845 -0.7618 -0.3677  0.0679
 3579SOL    HW214048   3.973   2.524   5.825 -1.0733  0.9560  2.5604
 3579SOL    HW314049   3.942   2.396   5.900 -0.9572 -1.0494 -0.5940
 3579SOL    MW414050   3.916   2.462   5.850 -0.0014  0.2226 -0.5213
 3580SOL     OW14051   4.262   1.263   4.100 -0.3615 -0.6419 -0.3171
 3580SOL    HW214052   4.315   1.326   4.050  2.0992 -1.4401  1.1049
 3580SOL    HW314053   4.184   1.251   4.047  0.1434  1.8047 -1.7981
 3580SOL    MW414054   4.259   1.270   4.086 -0.3917 -0.0008 -0.2287
 3581SOL     OW14055   3.204   4.572   2.204  0.0877  0.1570 -0.6398
 3581SOL    HW214056   3.276   4.619   2.163  1.2023 -2.3887 -1.7893
 3581SOL    HW314057   3.130   4.633   2.200  1.0485  1.3025 -3.3725
 3581SOL    MW414058   3.204   4.586   2.198 -0.3504  0.2612  0.6218
 3582SOL     OW14059   4.326   4.843   4.696  0.5950  0.1259 -0.2517
 3582SOL    HW214060   4.234   4.841   4.669  0.8837 -2.8641 -1.4783
 3582SOL    HW314061   4.369   4.898   4.630 -0.2376  1.2845  0.1471
 3582SOL    MW414062   4.320   4.850   4.683  0.2851 -0.0600  0.6473
 3583SOL     OW14063   6.224   3.230   3.268  0.1670  0.2702 -0.0516
 3583SOL    HW214064   6.282   3.251   3.195  3.4405  0.1671  2.3161
 3583SOL    HW314065   6.201   3.138   3.254  1.0979  0.1288 -0.7596
 3583SOL    MW414066   6.228   3.221   3.256 -0.3552 -0.0656  0.0193
 3584SOL     OW14067   2.950   6.261   4.130  0.5782  0.2607 -0.2644
 3584SOL    HW214068   2.993   6.306   4.057  0.5838 -1.9071 -1.6893
 3584SOL    HW314069   3.004   6.182   4.144 -1.0645 -0.8441  0.0955
 3584SOL    MW414070   2.963   6.256   4.122 -0.1143  0.1263  0.4268
 3585SOL     OW14071   0.968   1.079   3.197  0.8657  0.1277  0.1480
 3585SOL    HW214072   1.001   1.167   3.175  1.1480 -0.2656 -1.1087
 3585SOL    HW314073   0.954   1.082   3.291 -0.3180  1.9217 -0.0346
 3585SOL    MW414074   0.971   1.091   3.206  0.3362 -0.2494 -0.2143
 3586SOL     OW14075   0.725   2.100   6.110 -0.2008  0.2102 -0.0519
 3586SOL    HW214076   0.749   2.032   6.047 -0.8906 -0.0255 -0.0670
 3586SOL    HW314077   0.772   2.178   6.080 -0.5455  0.1112 -0.8886
 3586SOL    MW414078   0.734   2.101   6.098 -0.0418  0.2261  0.1471
 3587SOL     OW14079   2.665   2.005   4.170  0.2910 -0.3900 -0.0197
 3587SOL    HW214080   2.759   2.025   4.172  0.1283  0.3480  1.3201
 3587SOL    HW314081   2.635   2.036   4.085  1.2661 -0.6546 -0.4697
 3587SOL    MW414082   2.673   2.012   4.159  0.0783  0.0502 -0.1955
 3588SOL     OW14083   1.873   2.608   6.287 -0.0370  0.1711 -0.1446
 3588SOL    HW214084   1.834   2.653   6.212 -1.3573  0.0495  0.4339
 3588SOL    HW314085   1.890   2.678   6.350  2.3949  0.4766 -1.0466
 3588SOL    MW414086   1.870   2.623   6.286  0.1834  0.0274  0.1225
 3589SOL     OW14087   1.984   4.340   1.709 -0.5744  0.1545 -0.2272
 3589SOL    HW214088   1.994   4.286   1.631 -2.5946  0.6753 -0.9038
 3589SOL    HW314089   1.980   4.430   1.676 -0.9189  0.4263  0.5114
 3589SOL    MW414090   1.985   4.345   1.694 -0.1253  0.2332  0.2359
 3590SOL     OW14091   1.914   0.109   4.219 -0.0829 -0.7272  0.5846
 3590SOL    HW214092   1.957   0.043   4.273  0.6572  0.6848  1.7908
 3590SOL    HW314093   1.916   0.188   4.272  0.2487  0.6088 -1.3280
 3590SOL    MW414094   1.920   0.111   4.233 -0.3228  0.3493 -0.9263
 3591SOL     OW14095   5.703   6.156   6.041 -0.0489 -0.1819 -0.4599
 3591SOL    HW214096   5.702   6.249   6.019 -1.5521 -0.1520 -0.4076
 3591SOL    HW314097   5.707   6.154   6.136  3.3726 -0.2711 -0.4853
 3591SOL    MW414098   5.703   6.168   6.051 -0.5422  0.0074 -0.1072
 3592SOL     OW14099   0.799   3.907   1.618 -0.6568 -0.8606 -0.0590
 3592SOL    HW214100   0.797   3.863   1.533  1.1493 -1.2586  0.0687
 3592SOL    HW314101   0.892   3.911   1.641 -0.9300  1.1267  0.9368
 3592SOL    MW414102   0.811   3.902   1.610 -0.6382 -0.1964 -0.3143
 3593SOL     OW14103   3.777   1.650   4.481 -0.5075  0.2345  0.1464
 3593SOL    HW214104   3.819   1.631   4.397  1.8068  1.1382  1.0185
 3593SOL    HW314105   3.756   1.564   4.517  1.5350 -0.3567  0.0604
 3593SOL    MW414106   3.780   1.636   4.475  0.1581  0.0199 -0.1196
 3594SOL     OW14107   6.169   4.799   3.404 -0.6179 -0.0541 -0.4457
 3594SOL    HW214108   6.252   4.771   3.441 -1.4257 -3.4544 -0.8487
 3594SOL    HW314109   6.186   4.811   3.311 -0.2651  0.8071 -0.2751
 3594SOL    MW414110   6.182   4.797   3.397 -0.8727 -0.5430  0.1381
 3595SOL     OW14111   0.346   1.773   1.662 -0.9516  0.2640  0.1694
 3595SOL    HW214112   0.314   1.688   1.630 -0.0819  0.4143 -1.1892
 3595SOL    HW314113   0.414   1.751   1.725 -0.4262 -0.0636 -0.5008
 3595SOL    MW414114   0.350   1.759   1.666 -0.3045 -0.3801  0.0058
 3596SOL     OW14115   3.528   2.303   2.292  0.0040 -0.0136 -0.1471
 3596SOL    HW214116   3.448   2.255   2.274  0.4245  0.2085 -2.9513
 3596SOL    HW314117   3.522   2.382   2.239  2.4106 -0.3909 -1.1008
 3596SOL    MW414118   3.517   2.307   2.283  0.5382  0.0974  0.0292
 3597SOL     OW14119   2.059   1.770   4.024 -0.6206 -0.0971  0.2335
 3597SOL    HW214120   2.115   1.696   3.998 -1.5428 -0.7437  0.0256
 3597SOL    HW314121   2.025   1.745   4.110  0.9129  1.1730  1.2456
 3597SOL    MW414122   2.062   1.757   4.032 -0.1352  0.1894 -0.0334
 3598SOL     OW14123   5.108   1.342   5.097  0.8445  0.4347  0.7564
 3598SOL    HW214124   5.080   1.434   5.099 -1.2808 -0.0914 -0.8575
 3598SOL    HW314125   5.185   1.342   5.039  0.6164  1.1391  0.4416
 3598SOL    MW414126   5.115   1.354   5.090  0.3422 -0.0379  0.5949
 3599SOL     OW14127   3.441   4.981   1.112  0.4266 -0.8730 -0.0450
 3599SOL    HW214128   3.436   5.075   1.100  2.0768 -0.8486 -0.7190
 3599SOL    HW314129   3.366   4.960   1.168 -1.4717  0.4616 -1.9443
 3599SOL    MW414130   3.430   4.990   1.118  0.1404  0.6414 -0.5432
 3600SOL     OW14131   2.167   4.346   6.135 -0.7612 -0.2490  0.2887
 3600SOL    HW214132   2.136   4.379   6.051 -2.1007 -0.0181  0.8640
 3600SOL    HW314133   2.251   4.391   6.148 -1.2489  0.8487 -0.2222
 3600SOL    MW414134   2.174   4.356   6.125  0.2194 -0.4801 -0.0323
 3601SOL     OW14135   3.725   5.582   3.169  0.7133  0.0741  0.0842
 3601SOL    HW214136   3.641   5.617   3.199 -0.5789 -2.8699  0.1588
 3601SOL    HW314137   3.713   5.569   3.075  0.6333 -1.4179  0.2817
 3601SOL    MW414138   3.712   5.585   3.161  0.7896 -0.1027  0.1304
 3602SOL     OW14139   1.012   5.772   0.683 -0.2061 -0.9016  0.3984
 3602SOL    HW214140   1.103   5.782   0.652  0.3470 -0.6114  2.0068
 3602SOL    HW314141   0.995   5.679   0.677 -0.3813 -0.7875 -1.4041
 3602SOL    MW414142   1.022   5.761   0.678 -0.7102  0.0505  0.0807
 3603SOL     OW14143   5.998   6.020   1.526 -0.0825  0.2356 -0.3187
 3603SOL    HW214144   5.974   6.021   1.618  0.4748  2.2114 -0.1454
 3603SOL    HW314145   5.917   6.036   1.479 -0.6206 -2.0759 -0.3148
 3603SOL    MW414146   5.984   6.022   1.532  0.2965 -0.1709  0.2996
 3604SOL     OW14147   5.447   5.764   3.854 -0.6427 -0.5117 -0.0792
 3604SOL    HW214148   5.477   5.686   3.807 -0.7038  0.0009 -0.9850
 3604SOL    HW314149   5.352   5.756   3.855 -0.6534 -0.4084 -0.2464
 3604SOL    MW414150   5.438   5.753   3.848 -0.8498  0.0539 -0.4964
 3605SOL     OW14151   0.434   4.257   3.300  0.0571  0.2841 -0.3521
 3605SOL    HW214152   0.448   4.175   3.253  0.9921 -0.8587  1.7700
 3605SOL    HW314153   0.340   4.275   3.291 -0.2627 -1.3184 -0.4176
 3605SOL    MW414154   0.424   4.249   3.292  0.0612 -0.6174  0.3508
 3606SOL     OW14155   0.673   2.008   5.271  0.0351  0.2802  0.3853
 3606SOL    HW214156   0.612   2.077   5.245 -0.0450 -0.7880 -2.7597
 3606SOL    HW314157   0.626   1.957   5.336 -0.9688  1.5660  0.7075
 3606SOL    MW414158   0.659   2.010   5.276  0.2842  0.0274  0.0824
 3607SOL     OW14159   3.875   2.761   1.875 -0.0262  0.4703 -0.2608
 3607SOL    HW214160   3.921   2.706   1.812 -0.5605 -0.1596 -0.1178
 3607SOL    HW314161   3.789   2.720   1.883  0.7616 -0.8487  2.6069
 3607SOL    MW414162   3.869   2.748   1.868 -0.0502 -0.1047  0.5212
 3608SOL     OW14163   2.974   2.778   6.368 -0.3721 -0.3519  0.2459
 3608SOL    HW214164   3.008   2.866   6.387 -0.1980 -0.7488  1.8908
 3608SOL    HW314165   2.880   2.784   6.386 -0.8232  0.0857 -1.9359
 3608SOL    MW414166   2.966   2.790   6.373  0.2191  0.2461 -0.0522
 3609SOL     OW14167   0.100   2.206   0.732  0.4337  0.5719  0.1780
 3609SOL    HW214168   0.014   2.172   0.711  0.4149  0.7007  0.0464
 3609SOL    HW314169   0.123   2.164   0.815  1.4537 -1.6904 -1.1515
 3609SOL    MW414170   0.092   2.196   0.741 -0.0941  0.0944 -0.1182
 3610SOL     OW14171   1.008   4.841   1.604 -0.3665 -0.0088  0.6571
 3610SOL    HW214172   0.969   4.755   1.594 -1.8965  0.8001 -0.9105
 3610SOL    HW314173   1.102   4.826   1.595 -0.6266 -1.4751  0.1784
 3610SOL    MW414174   1.015   4.828   1.601  0.3763  0.1824  0.1281
 3611SOL     OW14175   3.729   1.349   1.130 -0.1027 -0.0354  1.2279
 3611SOL    HW214176   3.747   1.272   1.077 -0.5288 -0.7665  2.1270
 3611SOL    HW314177   3.654   1.390   1.086  2.4054  2.0554 -1.4888
 3611SOL    MW414178   3.721   1.345   1.117  0.6768 -0.2787  0.3173
 3612SOL     OW14179   4.572   4.447   5.685 -0.1065  0.3712  0.5057
 3612SOL    HW214180   4.592   4.523   5.630  1.7632 -1.6594 -1.8457
 3612SOL    HW314181   4.596   4.372   5.631 -3.3161 -2.0211  2.1169
 3612SOL    MW414182   4.578   4.447   5.671 -0.1360  0.0030 -0.6295
 3613SOL     OW14183   2.339   5.494   2.021  0.1510  0.2542  0.1719
 3613SOL    HW214184   2.315   5.549   2.096  0.4315 -0.2753  0.6540
 3613SOL    HW314185   2.326   5.404   2.052 -0.3852  0.0505 -0.6407
 3613SOL    MW414186   2.334   5.489   2.035  0.3067 -0.0975  0.0237
 3614SOL     OW14187   4.805   5.089   5.569 -0.9256 -0.2237 -0.5341
 3614SOL    HW214188   4.803   4.996   5.591 -1.2784 -0.2459 -0.6563
 3614SOL    HW314189   4.774   5.133   5.648  1.2678 -0.0547  0.3023
 3614SOL    MW414190   4.800   5.083   5.582  0.4824  0.0950 -0.5781
 3615SOL     OW14191   4.432   1.892   1.728 -0.4273 -0.0737  0.1940
 3615SOL    HW214192   4.353   1.839   1.733 -0.2449 -0.5275 -1.2075
 3615SOL    HW314193   4.420   1.946   1.650  0.0534  0.8457  0.7428
 3615SOL    MW414194   4.420   1.892   1.718 -0.5500  0.9590  0.3705
 3616SOL     OW14195   5.188   3.179   5.496 -0.1063 -0.2741 -0.2998
 3616SOL    HW214196   5.202   3.094   5.455  0.7425  0.0962 -0.8177
 3616SOL    HW314197   5.276   3.215   5.505 -0.5668  1.3115 -1.7255
 3616SOL    MW414198   5.202   3.172   5.492 -0.3915  0.5341 -0.6012
 3617SOL     OW14199   5.225   3.270   1.805  0.0116 -0.0200 -0.8086
 3617SOL    HW214200   5.132   3.289   1.799  0.4538  2.9212 -0.0843
 3617SOL    HW314201   5.232   3.202   1.872 -1.5337  1.1995  0.6891
 3617SOL    MW414202   5.214   3.264   1.813 -0.1414  0.2198 -1.5397
 3618SOL     OW14203   0.985   6.143   6.317  0.2179  0.0538 -0.0030
 3618SOL    HW214204   1.038   6.165   6.241  1.8861  0.5369  1.2385
 3618SOL    HW314205   0.896   6.133   6.282  1.3105 -2.4201 -2.4653
 3618SOL    MW414206   0.980   6.144   6.302  0.4163 -0.4727 -0.0477
 3619SOL     OW14207   0.416   0.200   1.444  0.0320 -0.0336  0.0653
 3619SOL    HW214208   0.322   0.217   1.455  0.0477  0.1297 -0.0526
 3619SOL    HW314209   0.457   0.286   1.455  0.1974 -0.1577  0.4431
 3619SOL    MW414210   0.409   0.214   1.447  0.8758  0.0639  0.0140
 3620SOL     OW14211   0.517   3.288   0.599 -0.5792 -0.0057  0.6546
 3620SOL    HW214212   0.501   3.194   0.595  0.6492 -0.1967  0.1008
 3620SOL    HW314213   0.459   3.325   0.533  0.2859 -0.5638 -0.4406
 3620SOL    MW414214   0.507   3.281   0.590  0.3332  0.2421 -0.1918
 3621SOL     OW14215   4.292   0.485   0.406 -0.6760  0.1603  0.2739
 3621SOL    HW214216   4.311   0.557   0.466  0.3828  0.5224 -0.4729
 3621SOL    HW314217   4.339   0.411   0.442  0.8851  0.6481 -0.6681
 3621SOL    MW414218   4.301   0.485   0.418  0.1362  0.2422 -0.4528
 3622SOL     OW14219   2.257   2.643   0.979  0.1643 -0.3125  0.2045
 3622SOL    HW214220   2.238   2.662   0.887  0.5717 -0.3944  0.0999
 3622SOL    HW314221   2.190   2.690   1.028  0.7400  0.8362 -0.0754
 3622SOL    MW414222   2.245   2.652   0.973 -0.4206 -0.5566  0.0321
 3623SOL     OW14223   1.996   3.862   5.605  0.1526 -0.5012  0.0219
 3623SOL    HW214224   2.014   3.830   5.694  0.2022 -0.7962 -0.0943
 3623SOL    HW314225   2.074   3.913   5.582  0.7678 -1.5974 -0.3951
 3623SOL    MW414226   2.009   3.865   5.614 -0.4072 -0.4065 -0.3727
 3624SOL     OW14227   0.141   4.410   0.574 -0.0134  0.0767 -0.1139
 3624SOL    HW214228   0.082   4.466   0.525  1.0789 -0.2813 -1.9572
 3624SOL    HW314229   0.141   4.327   0.526  1.9853  0.0904 -0.2600
 3624SOL    MW414230   0.133   4.406   0.561  0.1587  0.0182  0.2457
 3625SOL     OW14231   4.806   5.364   3.003  0.4286  0.1748  0.2422
 3625SOL    HW214232   4.898   5.372   2.981  0.8104 -1.4284  1.0735
 3625SOL    HW314233   4.798   5.277   3.043 -1.6649 -0.2816 -0.9600
 3625SOL    MW414234   4.817   5.353   3.005  0.0809  0.0800 -0.5296
 3626SOL     OW14235   4.907   4.724   3.300  0.0129 -0.4469 -0.1179
 3626SOL    HW214236   4.910   4.643   3.249  1.8363 -0.8815  0.5981
 3626SOL    HW314237   4.998   4.756   3.299 -0.2508  0.4330  1.4045
 3626SOL    MW414238   4.920   4.718   3.293 -0.2838  0.4778  0.2250
 3627SOL     OW14239   6.317   2.398   2.465  0.0890  0.6611 -0.0255
 3627SOL    HW214240   6.259   2.474   2.475 -0.0658  0.4439  0.8270
 3627SOL    HW314241   6.310   2.352   2.548 -2.2792 -2.0295 -1.5013
 3627SOL    MW414242   6.308   2.402   2.477 -0.1921  0.5621 -0.3643
 3628SOL     OW14243   1.085   0.064   6.333  0.0338  0.2583 -0.4194
 3628SOL    HW214244   1.152   0.012   6.289  1.5717  1.0850  0.7993
 3628SOL    HW314245   1.101   0.154   6.303 -0.8040  0.4139 -0.4224
 3628SOL    MW414246   1.096   0.069   6.323  0.1644  0.0069  0.0862
 3629SOL     OW14247   6.409   2.764   0.506 -0.7739  0.1524 -0.6390
 3629SOL    HW214248   6.438   2.840   0.455  0.3730  0.0761 -0.1275
 3629SOL    HW314249   6.460   2.770   0.588 -0.4860 -1.3050 -0.6959
 3629SOL    MW414250   6.420   2.775   0.510  0.6464  0.1467  0.5250
 3630SOL     OW14251   0.908   4.219   4.513  0.6590 -0.3094  0.3491
 3630SOL    HW214252   0.929   4.217   4.606  0.9571 -1.5744  0.2677
 3630SOL    HW314253   0.826   4.170   4.505  0.3841  0.1981  0.0059
 3630SOL    MW414254   0.900   4.212   4.524  0.3641  0.1623  0.2714
 3631SOL     OW14255   0.947   3.212   2.283 -0.4490 -0.6020 -0.5135
 3631SOL    HW214256   0.893   3.158   2.342  0.8347 -0.1613  1.1178
 3631SOL    HW314257   0.923   3.302   2.304 -0.4172 -0.4537 -1.1058
 3631SOL    MW414258   0.937   3.216   2.294  0.1615  0.2751  0.5475
 3632SOL     OW14259   2.540   6.243   1.807  0.7692 -0.2898 -0.1136
 3632SOL    HW214260   2.617   6.283   1.768 -0.6076  2.5387 -0.1770
 3632SOL    HW314261   2.518   6.300   1.881 -1.8706 -0.3242 -0.7678
 3632SOL    MW414262   2.547   6.256   1.812  0.0929  0.8361 -0.3616
 3633SOL     OW14263   5.832   6.236   1.979  0.6962  0.0762  0.6220
 3633SOL    HW214264   5.906   6.288   1.949 -0.8715  1.9027 -0.2731
 3633SOL    HW314265   5.831   6.159   1.921  0.5715  1.1647 -0.8644
 3633SOL    MW414266   5.842   6.232   1.968  0.0710  0.0361 -0.4054
 3634SOL     OW14267   1.487   4.633   1.559  0.1054  0.2128  0.0864
 3634SOL    HW214268   1.554   4.701   1.558  0.9545 -0.5946  0.5026
 3634SOL    HW314269   1.534   4.553   1.537 -0.9091 -0.2225 -0.5546
 3634SOL    MW414270   1.502   4.632   1.556  0.1500 -0.5855 -0.1058
 3635SOL     OW14271   3.536   1.047   1.141 -0.4599  0.1761  0.0214
 3635SOL    HW214272   3.470   0.977   1.142  0.0321 -0.3151 -0.8432
 3635SOL    HW314273   3.532   1.084   1.229  0.2533 -1.8843  0.9922
 3635SOL    MW414274   3.527   1.043   1.153  0.4044 -0.4849  0.3083
 3636SOL     OW14275   4.610   2.604   0.573  0.3578 -0.1298 -0.6290
 3636SOL    HW214276   4.569   2.581   0.489  0.0147 -0.5216 -0.3580
 3636SOL    HW314277   4.694   2.643   0.548 -0.4311  1.2473 -1.2182
 3636SOL    MW414278   4.616   2.606   0.559 -0.1269 -0.2908  0.5353
 3637SOL     OW14279   2.103   4.691   5.775  0.4007  0.6116 -0.4393
 3637SOL    HW214280   2.014   4.686   5.810  0.9376  1.0553  1.0638
 3637SOL    HW314281   2.097   4.650   5.689 -1.1248  0.0839 -0.1146
 3637SOL    MW414282   2.090   4.685   5.768  0.3297 -0.5518 -0.5658
 3638SOL     OW14283   0.512   1.973   1.125  0.1915 -0.0699  0.2468
 3638SOL    HW214284   0.482   1.960   1.215 -2.3672  0.3105 -0.4756
 3638SOL    HW314285   0.573   2.046   1.131  0.1216 -0.0938  1.6699
 3638SOL    MW414286   0.516   1.981   1.138  0.1750  0.3120 -0.4811
 3639SOL     OW14287   3.436   1.131   6.173 -0.3135  0.4690  1.0228
 3639SOL    HW214288   3.347   1.141   6.141 -0.0937 -3.7677 -1.6864
 3639SOL    HW314289   3.489   1.186   6.115 -0.8671  0.5985  0.6353
 3639SOL    MW414290   3.431   1.140   6.161 -0.1573  0.3659 -0.3649
 3640SOL     OW14291   5.714   4.962   5.608 -0.0582 -0.4340 -0.2303
 3640SOL    HW214292   5.734   4.982   5.517  0.6702 -2.7999 -0.6374
 3640SOL    HW314293   5.690   4.870   5.608 -1.2379 -0.1801  1.8090
 3640SOL    MW414294   5.714   4.953   5.596  0.6084  0.6118 -0.1323
 3641SOL     OW14295   1.139   3.622   6.126  0.7707 -0.0919 -0.1356
 3641SOL    HW214296   1.200   3.696   6.121  1.3925 -0.6108 -0.3350
 3641SOL    HW314297   1.058   3.655   6.086  1.1550  0.3626 -0.5493
 3641SOL    MW414298   1.136   3.636   6.120 -0.4287 -0.3026  0.1268
 3642SOL     OW14299   3.071   1.879   3.178  0.4085 -0.2819  0.3725
 3642SOL    HW214300   3.145   1.820   3.189  1.4476  0.8350 -0.5064
 3642SOL    HW314301   3.103   1.949   3.123 -0.8140  1.0961  1.3303
 3642SOL    MW414302   3.085   1.880   3.172  0.2005 -0.5058  0.5601
 3643SOL     OW14303   1.821   0.927   3.954 -0.1211  0.5101 -0.1430
 3643SOL    HW214304   1.793   0.853   4.008  2.4986 -0.0699  0.5754
 3643SOL    HW314305   1.883   0.974   4.009  0.1582  1.8102 -1.5057
 3643SOL    MW414306   1.826   0.923   3.968 -0.1868 -0.1527  0.4904
 3644SOL     OW14307   1.268   3.852   2.654  0.1255 -0.3422  0.1406
 3644SOL    HW214308   1.238   3.859   2.563 -1.9942  0.3898  0.8409
 3644SOL    HW314309   1.300   3.762   2.661  0.0341 -0.5117 -1.2497
 3644SOL    MW414310   1.268   3.841   2.643  0.0994 -1.2237 -0.1170
 3645SOL     OW14311   5.596   1.363   0.175  0.1942  0.5364  0.1738
 3645SOL    HW214312   5.590   1.405   0.089  3.4233 -0.3902 -0.6652
 3645SOL    HW314313   5.655   1.419   0.225  2.2863 -1.3506 -0.0086
 3645SOL    MW414314   5.603   1.376   0.170  0.3994 -0.2365  0.6715
 3646SOL     OW14315   6.299   3.890   5.494 -0.0895 -0.3416 -0.2330
 3646SOL    HW214316   6.309   3.841   5.576 -0.4038  1.3358  0.8696
 3646SOL    HW314317   6.244   3.835   5.439  0.1860 -1.5373  0.6624
 3646SOL    MW414318   6.293   3.877   5.498  0.6155 -0.1082  0.7020
 3647SOL     OW14319   3.514   0.432   4.779 -0.0082  0.3782  0.2042
 3647SOL    HW214320   3.536   0.457   4.869 -0.1649  1.7324 -0.1202
 3647SOL    HW314321   3.420   0.449   4.772 -0.1994 -0.6659  0.0707
 3647SOL    MW414322   3.505   0.437   4.790 -0.0156  0.1957  0.0751
 3648SOL     OW14323   1.661   2.036   1.213  0.1465  0.0018  0.3229
 3648SOL    HW214324   1.581   2.056   1.261  0.3717 -0.0728  0.7413
 3648SOL    HW314325   1.639   1.960   1.160 -0.2216  0.3239  0.0065
 3648SOL    MW414326   1.648   2.029   1.212  0.3666  0.5208  0.1643
 3649SOL     OW14327   3.094   5.011   5.314 -0.2635  0.1917 -0.0732
 3649SOL    HW214328   3.162   5.012   5.247 -0.9341  0.6761 -0.7765
 3649SOL    HW314329   3.140   4.990   5.396  0.6697  0.2250 -0.5764
 3649SOL    MW414330   3.109   5.009   5.316 -0.2964  0.2166 -0.0302
 3650SOL     OW14331   2.698   2.788   6.395  0.1754  0.0418  0.5179
 3650SOL    HW214332   2.666   2.717   6.340 -1.0508 -0.2348  1.5235
 3650SOL    HW314333   2.681   2.868   6.344  1.1741 -0.3433 -0.4413
 3650SOL    MW414334   2.691   2.789   6.381 -0.4515 -0.3095 -0.1492
 3651SOL     OW14335   2.525   2.353   3.958  0.1626 -0.0383  0.9473
 3651SOL    HW214336   2.518   2.258   3.954  0.0985 -0.0475  1.2623
 3651SOL    HW314337   2.437   2.385   3.936  0.4987 -0.0116 -0.4653
 3651SOL    MW414338   2.512   2.345   3.954  0.0376  0.4262 -0.2754
 3652SOL     OW14339   6.359   6.222   5.902  0.1696  0.0985 -0.5076
 3652SOL    HW214340   6.363   6.313   5.931  2.3425  0.3537 -1.4384
 3652SOL    HW314341   6.332   6.174   5.980  0.8580  1.3206  0.5240
 3652SOL    MW414342   6.356   6.228   5.916 -0.6425  0.0861  0.3199
 3653SOL     OW14343   5.675   2.508   4.968  0.1991  0.3062  0.2105
 3653SOL    HW214344   5.662   2.488   5.061  0.6990  2.1370  0.7154
 3653SOL    HW314345   5.726   2.434   4.935  1.1397  0.2311  1.7149
 3653SOL    MW414346   5.680   2.495   4.976  0.0899  0.0150 -0.0342
 3654SOL     OW14347   3.247   2.088   0.106 -0.1227 -0.0786 -0.1251
 3654SOL    HW214348   3.163   2.132   0.123 -0.1333 -0.6167  1.3394
 3654SOL    HW314349   3.269   2.046   0.189  1.6048  0.0349 -0.4981
 3654SOL    MW414350   3.239   2.089   0.119 -0.0286 -0.7019 -0.4625
 3655SOL     OW14351   4.017   5.630   1.191  0.0497  0.2186 -0.0685
 3655SOL    HW214352   3.990   5.617   1.101  0.4322  2.2686 -0.5330
 3655SOL    HW314353   4.097   5.579   1.200 -0.8687 -1.3355 -0.3543
 3655SOL    MW414354   4.024   5.621   1.181  0.0565  0.2596  0.0635
 3656SOL     OW14355   5.298   2.166   4.475  0.1177  0.0324  0.9697
 3656SOL    HW214356   5.340   2.193   4.394 -1.5036  0.7455  0.3268
 3656SOL    HW314357   5.334   2.225   4.541  0.7582  0.0566  0.6041
 3656SOL    MW414358   5.309   2.177   4.473 -0.2034 -0.1927 -0.0808
 3657SOL     OW14359   4.691   5.287   0.098 -0.7097 -0.0992  0.2557
 3657SOL    HW214360   4.776   5.270   0.139 -0.0704  0.4173 -0.8275
 3657SOL    HW314361   4.677   5.213   0.039 -0.7677  0.0785  0.0466
 3657SOL    MW414362   4.700   5.275   0.096 -0.4374  0.1177 -0.1554
 3658SOL     OW14363   4.997   0.945   5.373 -0.0812 -0.8534 -0.7809
 3658SOL    HW214364   5.023   1.035   5.354 -2.4022  0.2226  0.7340
 3658SOL    HW314365   4.977   0.907   5.288 -1.7022  0.9805 -1.2957
 3658SOL    MW414366   4.998   0.952   5.360  0.7419 -0.3188  0.3017
 3659SOL     OW14367   6.371   4.748   2.005  0.3967  0.0453 -1.0702
 3659SOL    HW214368   6.423   4.790   1.936  0.4358  1.5868 -0.1494
 3659SOL    HW314369   6.299   4.809   2.021 -0.9841 -1.4389 -1.4077
 3659SOL    MW414370   6.369   4.762   1.998  0.0151 -0.0996 -0.2736
 3660SOL     OW14371   1.286   1.687   0.459  0.3037 -0.0866  0.1985
 3660SOL    HW214372   1.312   1.768   0.414 -1.3068  0.1913 -0.3134
 3660SOL    HW314373   1.338   1.686   0.539  2.6427 -0.1562 -1.2171
 3660SOL    MW414374   1.296   1.698   0.464  0.4682  0.3245 -0.3363
 3661SOL     OW14375   1.619   1.938   4.456  0.0494  0.0941 -0.2506
 3661SOL    HW214376   1.640   1.845   4.448 -1.1472 -0.4527  1.9886
 3661SOL    HW314377   1.695   1.983   4.420  1.2657 -1.7452 -0.1447
 3661SOL    MW414378   1.632   1.931   4.450  0.3563  0.0557 -0.3727
 3662SOL     OW14379   4.980   1.766   4.496  0.0242 -0.5458  0.2488
 3662SOL    HW214380   4.913   1.753   4.429  0.8580 -0.7327 -0.5698
 3662SOL    HW314381   5.027   1.682   4.499 -0.2044 -0.6527  1.3071
 3662SOL    MW414382   4.977   1.753   4.488 -0.1743  0.0487 -0.2456
 3663SOL     OW14383   1.639   5.765   2.991 -0.4715  0.1138  0.2389
 3663SOL    HW214384   1.645   5.860   2.978 -1.3569  0.5779  2.6677
 3663SOL    HW314385   1.721   5.731   2.957  0.7904  2.0291  1.1798
 3663SOL    MW414386   1.650   5.773   2.985  0.3094 -0.3560 -0.1749
 3664SOL     OW14387   2.059   3.280   6.138  0.2811 -0.0345 -0.0380
 3664SOL    HW214388   2.129   3.323   6.187 -0.7203 -0.6515  2.0283
 3664SOL    HW314389   1.979   3.310   6.180 -0.5412 -2.0172 -0.1203
 3664SOL    MW414390   2.058   3.290   6.150 -0.2178 -0.0875  0.0133
 3665SOL     OW14391   0.597   1.029   2.477  0.4220  0.3252  0.0191
 3665SOL    HW214392   0.504   1.029   2.501 -0.2642  1.5939 -2.3461
 3665SOL    HW314393   0.630   1.112   2.511  0.2760  0.5855 -0.4569
 3665SOL    MW414394   0.589   1.040   2.485  0.0173  0.0159 -0.2177
 3666SOL     OW14395   2.607   0.940   5.132 -0.0737  0.2895 -0.3252
 3666SOL    HW214396   2.549   0.865   5.143 -1.4885  1.6099  1.9903
 3666SOL    HW314397   2.675   0.929   5.198 -0.5129  1.1846  0.3081
 3666SOL    MW414398   2.608   0.929   5.142 -0.1615 -0.3999  0.4079
 3667SOL     OW14399   1.313   0.940   0.343  0.1072 -0.5482 -0.1050
 3667SOL    HW214400   1.229   0.937   0.299  0.2258 -1.3560 -0.2955
 3667SOL    HW314401   1.291   0.946   0.436 -0.1898 -1.7712 -0.0776
 3667SOL    MW414402   1.299   0.941   0.350  0.2840  0.2402  0.0938
 3668SOL     OW14403   2.041   0.231   2.818  0.5556  0.2416 -0.1677
 3668SOL    HW214404   2.032   0.319   2.782 -1.9629  0.7401  1.4561
 3668SOL    HW314405   2.095   0.241   2.896  1.3834  0.0849 -0.7058
 3668SOL    MW414406   2.047   0.244   2.823 -0.1822 -0.0496  0.0390
 3669SOL     OW14407   2.558   5.293   3.904  0.9459 -0.1709 -0.4449
 3669SOL    HW214408   2.544   5.198   3.901  1.0061 -0.4178  3.0332
 3669SOL    HW314409   2.488   5.326   3.959  1.6760  1.6384 -0.5189
 3669SOL    MW414410   2.547   5.285   3.910  0.4042 -0.7082  0.1624
 3670SOL     OW14411   4.011   5.490   4.523  0.8014  0.3415  0.5244
 3670SOL    HW214412   4.050   5.455   4.443  1.8725 -0.2882  1.2997
 3670SOL    HW314413   3.930   5.441   4.534  0.9449  0.0154  0.1494
 3670SOL    MW414414   4.006   5.479   4.514 -0.5286 -0.0908 -0.3286
 3671SOL     OW14415   5.683   3.655   2.230  0.2480 -0.3913 -0.3502
 3671SOL    HW214416   5.618   3.588   2.212 -0.3749  0.1377 -0.0879
 3671SOL    HW314417   5.641   3.713   2.293  0.6296  0.4768 -0.8861
 3671SOL    MW414418   5.669   3.654   2.236 -0.4084  0.4343 -0.4482
 3672SOL     OW14419   6.131   3.128   3.887  0.0590  0.5742 -0.0693
 3672SOL    HW214420   6.110   3.193   3.954  0.4851  0.5137  0.1263
 3672SOL    HW314421   6.227   3.124   3.887  0.0356 -0.2205  0.0799
 3672SOL    MW414422   6.141   3.136   3.896 -0.2086 -0.0510 -0.2650
 3673SOL     OW14423   0.087   0.613   5.172  0.2426  0.2104 -0.1704
 3673SOL    HW214424   0.104   0.519   5.179 -0.2770  0.2006  1.0711
 3673SOL    HW314425  -0.008   0.621   5.171  0.2708  0.6860 -1.1877
 3673SOL    MW414426   0.077   0.602   5.173 -0.3397 -0.3974  0.3092
 3674SOL     OW14427   3.901   4.470   0.514  0.0299 -0.1623  0.5206
 3674SOL    HW214428   3.827   4.529   0.505  1.6573  2.3105  2.0907
 3674SOL    HW314429   3.968   4.522   0.559  2.7054 -2.2658 -0.7366
 3674SOL    MW414430   3.900   4.484   0.519  0.8432 -0.5346 -0.4921
 3675SOL     OW14431   0.660   5.680   2.812  0.1253  0.3269  0.0255
 3675SOL    HW214432   0.739   5.626   2.821 -0.2200 -0.3979 -1.0135
 3675SOL    HW314433   0.692   5.770   2.813  0.6032  0.2154  2.9691
 3675SOL    MW414434   0.675   5.684   2.813 -0.1909 -0.1736 -0.8711
 3676SOL     OW14435   5.268   3.647   1.553  0.1143  0.5174 -0.6358
 3676SOL    HW214436   5.299   3.559   1.576 -0.0683  0.7603  0.6146
 3676SOL    HW314437   5.245   3.687   1.637 -1.1879  1.2456 -1.3057
 3676SOL    MW414438   5.269   3.641   1.567 -0.1271  0.3327  0.6336
 3677SOL     OW14439   6.181   5.401   2.414 -0.1576 -0.4615  0.1942
 3677SOL    HW214440   6.194   5.317   2.371 -0.9492  0.2568 -1.5566
 3677SOL    HW314441   6.267   5.425   2.449  0.4586 -1.2106 -0.7835
 3677SOL    MW414442   6.194   5.393   2.413 -0.5175  0.1406 -0.6052
 3678SOL     OW14443   0.938   4.976   1.133 -0.4760 -0.8625 -0.4429
 3678SOL    HW214444   0.867   4.983   1.197 -0.3761  0.3174 -0.4466
 3678SOL    HW314445   0.982   4.894   1.155  1.0458  0.6216  2.5324
 3678SOL    MW414446   0.934   4.966   1.144  0.0559  0.3916 -0.5086
 3679SOL     OW14447   2.805   4.610   5.411 -0.6359 -0.2327 -0.1359
 3679SOL    HW214448   2.723   4.568   5.437 -1.6104  0.5927 -1.7315
 3679SOL    HW314449   2.806   4.604   5.315 -0.0154  1.8426 -0.3141
 3679SOL    MW414450   2.794   4.603   5.402  0.0313 -0.1602  0.5216
 3680SOL     OW14451   0.861   1.221   6.334 -0.1904 -0.3398  0.4929
 3680SOL    HW214452   0.819   1.272   6.404  0.5466  1.5503 -0.3969
 3680SOL    HW314453   0.825   1.257   6.253  1.6743  0.0090 -0.2193
 3680SOL    MW414454   0.850   1.232   6.333 -0.3128 -0.4405  0.0223
 3681SOL     OW14455   0.733   2.616   0.891  0.5422 -0.0589 -0.4793
 3681SOL    HW214456   0.819   2.639   0.926  0.3511 -0.7233  0.4415
 3681SOL    HW314457   0.752   2.550   0.824  0.7624 -0.1240 -0.3551
 3681SOL    MW414458   0.747   2.610   0.886  0.4540 -0.6079  0.2945
 3682SOL     OW14459   4.291   1.713   2.705 -0.4176  0.5019  0.3310
 3682SOL    HW214460   4.301   1.619   2.723  0.2388  0.6303  0.6522
 3682SOL    HW314461   4.234   1.745   2.775  1.0395  0.7385  1.4557
 3682SOL    MW414462   4.285   1.705   2.716  0.6652 -0.0388 -0.2635
 3683SOL     OW14463   4.333   6.401   2.316 -0.8282 -0.4057 -0.1241
 3683SOL    HW214464   4.376   6.470   2.265 -0.5230  1.0820  2.0088
 3683SOL    HW314465   4.248   6.439   2.339 -0.9153 -0.9828  0.5390
 3683SOL    MW414466   4.327   6.415   2.312  0.4754  0.2026 -0.8042
 3684SOL     OW14467   4.214   6.028   3.538  0.2898 -0.5404  0.4188
 3684SOL    HW214468   4.305   6.028   3.509  0.3050  1.7491  0.2797
 3684SOL    HW314469   4.192   6.121   3.548 -1.4345 -1.0818  2.3681
 3684SOL    MW414470   4.223   6.041   3.536 -0.1163  0.0507  0.1516
 3685SOL     OW14471   0.528   1.879   3.406 -0.1562  0.0133  0.2713
 3685SOL    HW214472   0.461   1.875   3.338 -0.7479 -1.2690  0.9021
 3685SOL    HW314473   0.586   1.950   3.378  0.3241 -1.2490 -2.2197
 3685SOL    MW414474   0.527   1.888   3.394  0.4234 -0.3345  0.1188
 3686SOL     OW14475   4.715   1.461   1.071  0.0924  0.3439 -0.0083
 3686SOL    HW214476   4.634   1.449   1.120  0.7729  0.7981  1.2644
 3686SOL    HW314477   4.695   1.530   1.008 -0.9265 -0.5603 -0.7090
 3686SOL    MW414478   4.702   1.469   1.069 -0.0492  0.2544 -0.0976
 3687SOL     OW14479   2.423   2.420   5.282 -0.6841 -0.6700 -0.2931
 3687SOL    HW214480   2.495   2.464   5.238 -2.1218 -0.4549 -2.5947
 3687SOL    HW314481   2.461   2.340   5.317  0.8365 -0.1329 -0.6548
 3687SOL    MW414482   2.437   2.415   5.281  0.0976  0.4671 -0.4724
 3688SOL     OW14483   3.889   2.743   2.539  0.1663  0.1182 -0.2148
 3688SOL    HW214484   3.797   2.719   2.549  0.6583 -2.6982 -1.6198
 3688SOL    HW314485   3.930   2.715   2.621  0.0271  0.0364 -0.1732
 3688SOL    MW414486   3.882   2.736   2.551 -0.3136  0.1037 -0.7005
 3689SOL     OW14487   4.715   3.723   4.105  0.1271  0.5269  0.1036
 3689SOL    HW214488   4.645   3.720   4.040  1.7883  0.7238 -1.7915
 3689SOL    HW314489   4.735   3.817   4.116  1.0415  0.4174 -0.4863
 3689SOL    MW414490   4.709   3.735   4.098 -0.7391 -0.2714 -0.0548
 3690SOL     OW14491   1.391   2.156   1.707 -0.0729 -0.1491  0.0749
 3690SOL    HW214492   1.359   2.180   1.794 -2.0920 -1.3690 -0.2657
 3690SOL    HW314493   1.385   2.060   1.705 -0.9106 -0.0884 -1.6899
 3690SOL    MW414494   1.386   2.146   1.719 -0.1631 -0.6179  0.5560
 3691SOL     OW14495   5.424   0.901   2.415  0.0229 -0.5705  0.3629
 3691SOL    HW214496   5.500   0.847   2.391  0.3701 -1.7566  3.7161
 3691SOL    HW314497   5.455   0.991   2.402  1.9590 -1.0308  1.3230
 3691SOL    MW414498   5.438   0.906   2.410 -0.0047  0.2414 -1.0210
 3692SOL     OW14499   4.836   1.150   2.173 -0.0228  0.0748 -0.0365
 3692SOL    HW214500   4.809   1.230   2.127  0.6596 -0.3805 -1.2854
 3692SOL    HW314501   4.923   1.170   2.206  0.1518 -0.1489 -0.3579
 3692SOL    MW414502   4.844   1.164   2.171 -0.1852 -0.4538 -0.1470
 3693SOL     OW14503   0.158   3.451   5.864  0.5486 -0.5476  0.4405
 3693SOL    HW214504   0.108   3.428   5.786  0.5148 -1.8170  0.8090
 3693SOL    HW314505   0.156   3.372   5.918  2.4455 -0.4507  0.7405
 3693SOL    MW414506   0.151   3.437   5.861 -0.5556  0.6473  0.2356
 3694SOL     OW14507   1.871   5.073   0.855 -0.0771  0.2970  0.3406
 3694SOL    HW214508   1.788   5.059   0.809  0.4815 -0.2605 -0.5207
 3694SOL    HW314509   1.852   5.051   0.946 -0.8098 -0.0467  0.1102
 3694SOL    MW414510   1.857   5.069   0.861 -0.1753 -0.0133 -0.0398
 3695SOL     OW14511   4.615   3.300   3.791  0.1867  0.0441  0.4333
 3695SOL    HW214512   4.704   3.337   3.797  2.1851 -3.7040 -1.9150
 3695SOL    HW314513   4.565   3.366   3.744  2.3416  1.4439 -0.0615
 3695SOL    MW414514   4.620   3.313   3.786 -0.0940  0.2111  0.5064
 3696SOL     OW14515   5.810   4.520   5.034 -0.3762 -0.0612  0.0904
 3696SOL    HW214516   5.827   4.545   5.125 -2.9314  0.4230  0.5036
 3696SOL    HW314517   5.831   4.427   5.030 -1.4007 -0.3764  1.5166
 3696SOL    MW414518   5.815   4.511   5.046 -0.0307  0.2677  0.5975
 3697SOL     OW14519   0.419   4.009   2.033 -0.0081 -0.3145 -0.0363
 3697SOL    HW214520   0.451   3.992   1.944  0.1892 -0.0562 -0.0169
 3697SOL    HW314521   0.430   4.103   2.044 -0.9105 -0.1947 -0.0797
 3697SOL    MW414522   0.425   4.019   2.022 -0.3543 -0.0802 -1.1497
 3698SOL     OW14523   3.269   2.356   2.522 -0.2676  0.2768 -0.2451
 3698SOL    HW214524   3.300   2.424   2.462  0.7966 -0.8269 -0.9935
 3698SOL    HW314525   3.209   2.303   2.470  1.6149 -1.4343 -0.7989
 3698SOL    MW414526   3.265   2.358   2.507 -0.6821 -0.4700  0.3122
 3699SOL     OW14527   4.164   3.725   1.576  0.1220 -0.4622  0.3345
 3699SOL    HW214528   4.215   3.676   1.641  0.7924 -0.5032 -0.2108
 3699SOL    HW314529   4.224   3.791   1.543 -0.5834  0.3335  0.6013
 3699SOL    MW414530   4.178   3.727   1.580 -0.7327  0.0922  0.0040
 3700SOL     OW14531   4.393   5.267   0.674 -0.1073  0.6739 -0.0424
 3700SOL    HW214532   4.395   5.206   0.747  0.2101  1.1848  0.3832
 3700SOL    HW314533   4.409   5.353   0.714  2.2285  0.7322 -0.9778
 3700SOL    MW414534   4.395   5.271   0.689 -0.3235 -0.1767  0.7891
 3701SOL     OW14535   2.437   3.303   5.467  0.0966 -0.6719 -0.2624
 3701SOL    HW214536   2.388   3.324   5.547 -0.6525 -1.0308 -0.6080
 3701SOL    HW314537   2.509   3.365   5.466  0.9212 -1.5346  1.3996
 3701SOL    MW414538   2.440   3.314   5.478 -0.7878  0.1531 -0.5164
 3702SOL     OW14539   6.107   5.254   2.784 -0.1151 -0.4325 -0.0206
 3702SOL    HW214540   6.129   5.177   2.731  1.2170  0.7950 -1.3512
 3702SOL    HW314541   6.190   5.283   2.820 -0.4119  1.0350 -0.4659
 3702SOL    MW414542   6.121   5.247   2.782  0.2418  0.2272 -0.6081
 3703SOL     OW14543   5.426   0.511   4.177  0.1517 -0.5726 -0.1972
 3703SOL    HW214544   5.401   0.472   4.093 -1.4120 -1.9024  0.8161
 3703SOL    HW314545   5.449   0.436   4.232  0.3624  0.2064  0.8125
 3703SOL    MW414546   5.426   0.496   4.173  0.4348  0.5517 -0.2699
 3704SOL     OW14547   1.177   6.168   3.398  0.1373  0.0283  0.6847
 3704SOL    HW214548   1.226   6.106   3.345  1.9215  1.8551  0.0762
 3704SOL    HW314549   1.103   6.193   3.344 -1.1713 -2.1977  1.3137
 3704SOL    MW414550   1.174   6.163   3.384  0.3509 -0.1519 -0.2126
 3705SOL     OW14551   4.982   0.956   4.664  0.1378  0.5312 -0.2828
 3705SOL    HW214552   5.058   0.928   4.716  1.3602  1.3260 -1.6006
 3705SOL    HW314553   5.011   1.036   4.620 -1.4351  0.7798 -0.9098
 3705SOL    MW414554   4.996   0.963   4.665 -0.0028  0.4316  0.0988
 3706SOL     OW14555   5.534   2.926   4.462 -0.4106 -0.4520 -0.6623
 3706SOL    HW214556   5.593   2.851   4.451  1.7527  0.8558  1.1217
 3706SOL    HW314557   5.591   3.003   4.456 -1.8482  0.9011  1.4701
 3706SOL    MW414558   5.549   2.926   4.460  0.1437 -0.7564  0.6796
 3707SOL     OW14559   1.773   0.471   6.157  0.2477  0.3951  0.5083
 3707SOL    HW214560   1.735   0.557   6.173  1.6997  1.4130 -1.1190
 3707SOL    HW314561   1.726   0.438   6.081 -0.6726 -0.5333  1.4467
 3707SOL    MW414562   1.762   0.478   6.149 -0.2639  0.1777 -0.0113
 3708SOL     OW14563   5.032   3.912   4.995 -0.1797  0.0570 -0.5426
 3708SOL    HW214564   4.993   3.954   5.072 -1.6099  0.4912 -1.4704
 3708SOL    HW314565   4.988   3.827   4.989  0.4387 -0.2742 -0.4885
 3708SOL    MW414566   5.021   3.907   5.004  0.8010  0.2247  0.2824
 3709SOL     OW14567   5.739   1.039   2.621 -0.2446  0.0242  0.1281
 3709SOL    HW214568   5.693   1.119   2.598 -0.8295 -0.3647 -0.1020
 3709SOL    HW314569   5.676   0.991   2.676 -0.5087 -0.9473 -0.9714
 3709SOL    MW414570   5.725   1.043   2.626 -0.3624  0.3308 -0.0981
 3710SOL     OW14571   2.351   3.580   4.357  0.4963  0.8293  0.5404
 3710SOL    HW214572   2.296   3.510   4.321 -0.3420  0.5078  2.3053
 3710SOL    HW314573   2.392   3.540   4.434  1.0431  1.8840  0.8101
 3710SOL    MW414574   2.349   3.565   4.362  0.0670  0.4646  0.5694
 3711SOL     OW14575   2.252   5.055   3.457  0.0342 -0.0016  1.0031
 3711SOL    HW214576   2.332   5.059   3.405 -1.7647 -0.2609 -2.0665
 3711SOL    HW314577   2.233   5.146   3.481  0.9280  0.1187  1.2773
 3711SOL    MW414578   2.260   5.067   3.453 -0.0277  0.0185 -0.6153
 3712SOL     OW14579   0.368   4.795   0.914 -0.4295  0.0319 -0.5119
 3712SOL    HW214580   0.336   4.760   0.997  0.0793  0.2298 -0.2269
 3712SOL    HW314581   0.291   4.799   0.858 -1.5884  3.1902  1.0409
 3712SOL    MW414582   0.354   4.791   0.917  0.6645 -0.0185  0.5509
 3713SOL     OW14583   0.715   0.790   4.405 -0.2035  0.5919 -0.4285
 3713SOL    HW214584   0.750   0.724   4.466  0.3938  0.9978 -0.3143
 3713SOL    HW314585   0.664   0.849   4.461  3.9528  3.6362  0.6803
 3713SOL    MW414586   0.713   0.789   4.421  0.0692 -0.4122 -0.1492
 3714SOL     OW14587   4.777   1.396   3.999 -0.2768 -0.3399  0.0968
 3714SOL    HW214588   4.861   1.390   4.045  0.0247  0.2750 -0.3651
 3714SOL    HW314589   4.788   1.468   3.937 -0.6825 -1.1391 -0.9394
 3714SOL    MW414590   4.789   1.405   3.997 -0.3616 -0.1855  0.1362
 3715SOL     OW14591   0.019   0.693   3.826  0.4605 -0.3923  0.1371
 3715SOL    HW214592  -0.002   0.778   3.864 -0.5659 -0.6341  0.1198
 3715SOL    HW314593  -0.047   0.633   3.861 -0.8778 -0.5313 -2.3723
 3715SOL    MW414594   0.008   0.696   3.835 -0.1052 -0.4627 -0.6352
 3716SOL     OW14595   1.736   1.403   5.223 -0.1955 -0.3001 -0.0322
 3716SOL    HW214596   1.702   1.370   5.140  1.4173  0.4180 -1.0087
 3716SOL    HW314597   1.821   1.361   5.233  0.7757  1.5494 -0.0514
 3716SOL    MW414598   1.743   1.393   5.214  0.0016  0.2712 -0.1418
 3717SOL     OW14599   4.009   2.436   4.715  0.5956 -0.3710  0.1291
 3717SOL    HW214600   4.036   2.501   4.780 -1.0246  0.8544 -0.3666
 3717SOL    HW314601   4.002   2.485   4.633 -1.7419 -0.8810 -0.0347
 3717SOL    MW414602   4.012   2.451   4.713  0.2255  0.4851 -0.3165
 3718SOL     OW14603   0.401   6.207   4.426  0.9854  0.7792 -0.4806
 3718SOL    HW214604   0.372   6.262   4.499  0.0345 -0.0917 -0.1828
 3718SOL    HW314605   0.350   6.127   4.434  3.7531 -1.0260  0.2567
 3718SOL    MW414606   0.390   6.204   4.436  0.9026  0.0099 -0.4140
 3719SOL     OW14607   0.391   3.603   2.914 -0.0087  0.3184 -0.0600
 3719SOL    HW214608   0.325   3.581   2.981 -0.1722  1.9757  0.3725
 3719SOL    HW314609   0.344   3.657   2.851  0.4861 -0.1099 -0.8176
 3719SOL    MW414610   0.376   3.607   2.915 -0.1764 -0.3630  0.6257
 3720SOL     OW14611   5.105   0.197   4.307  0.0039  0.2724 -0.6956
 3720SOL    HW214612   5.097   0.177   4.400 -2.0201 -0.3305 -0.9524
 3720SOL    HW314613   5.047   0.134   4.264  2.1919 -0.5891 -2.5419
 3720SOL    MW414614   5.096   0.186   4.314 -0.0556  0.2760 -0.3889
 3721SOL     OW14615   2.519   5.195   0.184  0.3018 -0.1530  0.2973
 3721SOL    HW214616   2.543   5.122   0.127  0.5755  0.4669 -0.4022
 3721SOL    HW314617   2.571   5.268   0.151 -1.4762  0.8758 -0.3391
 3721SOL    MW414618   2.529   5.195   0.172 -0.2110  0.2238 -0.0930
 3722SOL     OW14619   2.517   0.789   1.761 -0.0257 -0.2462  0.1678
 3722SOL    HW214620   2.529   0.719   1.824  0.6348  0.3015  0.6630
 3722SOL    HW314621   2.563   0.864   1.799  1.2596 -0.1742 -1.4318
 3722SOL    MW414622   2.524   0.790   1.774 -0.3629 -0.4528 -0.2288
 3723SOL     OW14623   3.719   4.838   2.438  0.4019  0.1981 -0.7534
 3723SOL    HW214624   3.702   4.755   2.393  0.0076  0.3616 -0.9095
 3723SOL    HW314625   3.634   4.865   2.472  0.8218 -0.2934  0.7541
 3723SOL    MW414626   3.706   4.831   2.437 -0.7837 -0.6125 -0.3942
 3724SOL     OW14627   4.881   2.329   1.577  0.0572  0.1087 -0.6953
 3724SOL    HW214628   4.976   2.327   1.581  0.0876  1.0203 -0.7444
 3724SOL    HW314629   4.857   2.418   1.604 -0.8794 -0.6446  1.0739
 3724SOL    MW414630   4.890   2.340   1.581  0.1127 -0.3643 -0.1289
 3725SOL     OW14631   3.486   0.251   4.392  0.0906 -0.1405 -0.0865
 3725SOL    HW214632   3.579   0.249   4.367  0.3325  0.6999  0.7089
 3725SOL    HW314633   3.451   0.328   4.347 -0.6234 -1.3113 -1.6489
 3725SOL    MW414634   3.494   0.261   4.382 -0.0446 -0.6983 -0.5248
 3726SOL     OW14635   1.685   2.313   6.165  0.3562  0.7747 -0.3516
 3726SOL    HW214636   1.695   2.337   6.258  3.3934 -1.4619  0.0437
 3726SOL    HW314637   1.757   2.357   6.121  0.7948 -0.6010 -1.0759
 3726SOL    MW414638   1.696   2.322   6.172 -0.3592  0.5691 -0.2762
 3727SOL     OW14639   3.050   2.323   2.827  0.0514 -0.2170 -0.1862
 3727SOL    HW214640   3.101   2.242   2.824  0.8690  0.3158 -2.2079
 3727SOL    HW314641   3.077   2.371   2.750 -0.3335  2.0690  1.0176
 3727SOL    MW414642   3.060   2.319   2.817 -0.1464  0.4790 -0.0653
 3728SOL     OW14643   6.160   5.131   0.065  0.0651 -0.2006  0.5611
 3728SOL    HW214644   6.201   5.085  -0.008 -0.8605 -1.0027  0.5414
 3728SOL    HW314645   6.233   5.150   0.125  0.5460 -1.1647  0.2980
 3728SOL    MW414646   6.175   5.128   0.063  0.3348  0.0033  0.6383
 3729SOL     OW14647   5.214   1.809   4.272 -0.2467 -0.3056 -0.3125
 3729SOL    HW214648   5.276   1.871   4.235  1.2772 -0.9815  1.0198
 3729SOL    HW314649   5.250   1.786   4.358 -1.2446 -2.3115 -0.3624
 3729SOL    MW414650   5.227   1.814   4.278  0.4600  0.2679  1.1972
 3730SOL     OW14651   0.716   1.040   5.336  0.1800  0.0015  0.3674
 3730SOL    HW214652   0.719   0.972   5.403 -1.5349  1.1640  1.7295
 3730SOL    HW314653   0.800   1.033   5.291  0.3095 -2.5582  0.8650
 3730SOL    MW414654   0.727   1.030   5.339  0.3461  0.2176 -0.3391
 3731SOL     OW14655   3.216   1.089   3.224  0.6615  0.3953 -0.3154
 3731SOL    HW214656   3.188   1.138   3.147  1.8283  1.0088 -0.3574
 3731SOL    HW314657   3.174   1.134   3.298  0.3512  0.4031 -0.4943
 3731SOL    MW414658   3.207   1.101   3.224  0.2619 -0.3921 -0.2353
 3732SOL     OW14659   5.364   0.305   3.168 -0.5197  0.2284 -0.2070
 3732SOL    HW214660   5.323   0.277   3.086 -1.5966  0.2935  0.2914
 3732SOL    HW314661   5.380   0.224   3.216 -1.9811  0.3124  0.4684
 3732SOL    MW414662   5.361   0.291   3.163 -0.1901 -0.0360 -0.1850
 3733SOL     OW14663   0.124   3.739   3.970 -0.0323 -0.3289 -0.4119
 3733SOL    HW214664   0.094   3.829   3.987  1.1315  0.2738 -1.3985
 3733SOL    HW314665   0.148   3.705   4.056 -0.0521  0.4737 -0.0779
 3733SOL    MW414666   0.123   3.747   3.983  0.5457 -0.4497 -0.3152
 3734SOL     OW14667   0.383   4.866   4.254  0.0986 -0.2079 -0.7330
 3734SOL    HW214668   0.405   4.958   4.239  0.5170 -0.2087 -0.1664
 3734SOL    HW314669   0.295   4.868   4.291  0.5771  0.0735  0.4646
 3734SOL    MW414670   0.374   4.879   4.257  0.3390 -0.3279  0.0522
 3735SOL     OW14671   1.925   0.052   1.608 -0.1803 -0.2482 -0.5650
 3735SOL    HW214672   1.987   0.048   1.536 -0.2387 -2.4610 -0.5598
 3735SOL    HW314673   1.972   0.016   1.683 -1.3705 -1.9647 -0.5594
 3735SOL    MW414674   1.939   0.046   1.608  0.5208 -0.1607 -0.5982
 3736SOL     OW14675   5.586   5.677   0.613  0.2715  0.4951 -0.5722
 3736SOL    HW214676   5.505   5.726   0.624  0.8258  1.1317  0.8811
 3736SOL    HW314677   5.654   5.735   0.645  1.0525 -0.9132  0.4408
 3736SOL    MW414678   5.585   5.691   0.618 -0.5570 -0.6924  0.0084
 3737SOL     OW14679   1.436   3.662   0.570 -0.1732 -0.1061 -0.1290
 3737SOL    HW214680   1.426   3.749   0.532  0.6370  0.5529  1.1219
 3737SOL    HW314681   1.415   3.602   0.498 -0.6647  1.1091 -1.0251
 3737SOL    MW414682   1.432   3.665   0.556  0.4392 -0.2783 -0.2068
 3738SOL     OW14683   5.023   0.730   5.897 -0.3157 -0.4202 -0.4323
 3738SOL    HW214684   5.011   0.779   5.978 -1.2043 -0.6882 -0.3887
 3738SOL    HW314685   5.117   0.732   5.880 -0.2777  0.7831 -0.1122
 3738SOL    MW414686   5.034   0.736   5.905 -0.0386 -0.3035  0.2936
 3739SOL     OW14687   1.550   4.117   0.703  0.7049  0.1029 -0.6577
 3739SOL    HW214688   1.458   4.140   0.686  0.3566  0.3553  1.3873
 3739SOL    HW314689   1.599   4.161   0.634 -0.6213  0.8390 -1.1588
 3739SOL    MW414690   1.544   4.126   0.692  0.3113 -0.6189  0.4882
 3740SOL     OW14691   6.365   1.575   5.205  0.0059  0.3077  0.4196
 3740SOL    HW214692   6.303   1.557   5.134  0.6504  0.1073 -0.1057
 3740SOL    HW314693   6.438   1.621   5.162  0.2007  0.5843  1.0346
 3740SOL    MW414694   6.367   1.579   5.190 -0.3731 -0.2392 -0.8535
 3741SOL     OW14695   5.718   6.043   4.063  0.5181  0.2514  1.0811
 3741SOL    HW214696   5.763   5.972   4.017 -0.2704  0.7271 -0.4865
 3741SOL    HW314697   5.627   6.014   4.068  0.1583  1.1853  0.2930
 3741SOL    MW414698   5.712   6.030   4.057  0.1132  0.2602 -0.3553
 3742SOL     OW14699   5.072   4.324   4.643 -0.3755  0.0750  0.1717
 3742SOL    HW214700   5.154   4.328   4.693 -1.1181  0.4922  1.3867
 3742SOL    HW314701   5.037   4.413   4.646  0.4048  0.5928 -2.6334
 3742SOL    MW414702   5.078   4.336   4.650  0.1259 -0.6959  0.0770
 3743SOL     OW14703   3.432   2.739   4.108 -0.8498  0.3145 -0.2245
 3743SOL    HW214704   3.444   2.645   4.124 -0.7491  0.1467 -1.2305
 3743SOL    HW314705   3.354   2.762   4.159 -0.9763 -0.3501 -0.1074
 3743SOL    MW414706   3.423   2.730   4.117 -0.0713 -0.1784 -0.2823
 3744SOL     OW14707   6.241   4.426   0.995  0.2634  0.9662 -0.4696
 3744SOL    HW214708   6.161   4.463   0.957  0.9087  1.6729 -1.1675
 3744SOL    HW314709   6.241   4.456   1.085 -1.2692 -0.6906  0.1540
 3744SOL    MW414710   6.230   4.435   1.002  0.1995  0.3539  0.1045
 3745SOL     OW14711   2.534   0.337   0.510  0.2596 -0.2087 -0.3782
 3745SOL    HW214712   2.478   0.369   0.581 -0.1548  0.0436 -0.8119
 3745SOL    HW314713   2.616   0.313   0.553 -0.0821 -0.3186  0.2253
 3745SOL    MW414714   2.538   0.338   0.525  0.5461  0.1964  0.5634
 3746SOL     OW14715   5.125   1.503   0.469 -0.3443  0.1396  0.2075
 3746SOL    HW214716   5.059   1.552   0.519 -1.8316 -0.1396 -1.3890
 3746SOL    HW314717   5.103   1.411   0.483 -0.2311  0.0405 -0.2469
 3746SOL    MW414718   5.113   1.497   0.477  0.4142 -0.0049 -0.0444
 3747SOL     OW14719   5.405   3.715   1.056 -0.1239 -0.2691 -0.2980
 3747SOL    HW214720   5.408   3.761   0.972  1.0980 -1.7989 -1.1547
 3747SOL    HW314721   5.431   3.781   1.120 -1.4829  1.0423 -1.0235
 3747SOL    MW414722   5.409   3.730   1.053  0.2914  0.1885 -0.1102
 3748SOL     OW14723   4.316   3.566   2.331  0.2980  0.0180  0.3027
 3748SOL    HW214724   4.224   3.565   2.303  0.5791  0.2538 -0.6615
 3748SOL    HW314725   4.358   3.632   2.275  1.4286 -1.3419 -0.5111
 3748SOL    MW414726   4.309   3.575   2.320 -0.3841 -0.4287  0.1983
 3749SOL     OW14727   5.696   2.438   1.575  0.0952 -0.0600 -0.3247
 3749SOL    HW214728   5.707   2.528   1.607 -0.5315  0.1977 -0.8010
 3749SOL    HW314729   5.717   2.444   1.482 -0.3465 -0.3235 -0.4414
 3749SOL    MW414730   5.700   2.451   1.567 -0.6126 -0.4911  0.1082
 3750SOL     OW14731   5.699   2.480   6.059 -0.4017  0.2060  0.0129
 3750SOL    HW214732   5.624   2.420   6.063  0.0955 -0.3892  0.6629
 3750SOL    HW314733   5.700   2.522   6.145  1.8422 -2.1052  1.2497
 3750SOL    MW414734   5.689   2.478   6.071 -0.3532 -0.4835 -1.1395
 3751SOL     OW14735   2.191   0.896   2.670 -0.4236  0.7132  0.5653
 3751SOL    HW214736   2.187   0.809   2.711  1.0950 -0.5307 -1.7001
 3751SOL    HW314737   2.123   0.893   2.602 -0.9822  1.6615  1.0684
 3751SOL    MW414738   2.182   0.884   2.666 -0.1066  0.0323 -0.2118
 3752SOL     OW14739   5.725   6.436   5.976 -0.0709  0.4823 -0.8293
 3752SOL    HW214740   5.733   6.477   6.062 -1.2701 -1.2095  0.1687
 3752SOL    HW314741   5.801   6.466   5.927  0.8708  1.1549  0.9736
 3752SOL    MW414742   5.736   6.445   5.981 -0.0331  0.3558 -0.1022
 3753SOL     OW14743   4.048   5.577   5.735  0.5992 -0.3364  0.3364
 3753SOL    HW214744   4.084   5.535   5.657  0.4601  0.0057  0.0890
 3753SOL    HW314745   3.997   5.651   5.702  0.5344 -0.1936  0.7478
 3753SOL    MW414746   4.046   5.581   5.721 -0.0409  0.2659  0.0412
 3754SOL     OW14747   5.041   4.550   6.116  0.3911 -0.6289  0.5822
 3754SOL    HW214748   5.037   4.578   6.025 -1.5308  1.2859  1.1734
 3754SOL    HW314749   5.120   4.591   6.151  0.7108 -0.7286 -0.0117
 3754SOL    MW414750   5.051   4.559   6.109  0.7235 -0.5961  0.3400
 3755SOL     OW14751   1.314   3.703   0.180 -0.3295  0.0267  0.5022
 3755SOL    HW214752   1.360   3.623   0.153 -0.7977 -0.0258 -0.1702
 3755SOL    HW314753   1.272   3.680   0.262 -0.7420 -0.5323  0.1424
 3755SOL    MW414754   1.315   3.690   0.187 -0.5578  0.6252 -0.1451
 3756SOL     OW14755   0.487   0.180   4.764  0.0861 -0.0879  0.3762
 3756SOL    HW214756   0.512   0.211   4.677 -0.9252  0.0795  0.1364
 3756SOL    HW314757   0.560   0.207   4.821  1.1613 -0.9449 -0.5516
 3756SOL    MW414758   0.500   0.188   4.760  0.0178 -0.5909 -0.4846
 3757SOL     OW14759   5.360   2.018   5.478 -0.0744 -0.2129 -0.8196
 3757SOL    HW214760   5.285   2.007   5.419 -0.9803  1.6374 -0.0974
 3757SOL    HW314761   5.352   1.947   5.541 -1.3233  0.0391 -0.6744
 3757SOL    MW414762   5.349   2.007   5.479 -0.3058 -0.2898 -0.7095
 3758SOL     OW14763   5.224   4.191   0.692  0.5119 -0.2300 -0.3206
 3758SOL    HW214764   5.193   4.172   0.780  0.7166  1.7008  0.2296
 3758SOL    HW314765   5.197   4.282   0.677 -0.2772 -0.7668 -2.5936
 3758SOL    MW414766   5.216   4.201   0.702 -0.1343 -0.2468 -0.2195
 3759SOL     OW14767   3.816   0.071   6.156 -0.1305 -0.3861  0.1029
 3759SOL    HW214768   3.877   0.134   6.196  0.2449  0.4619 -1.7207
 3759SOL    HW314769   3.846  -0.014   6.188  2.2539 -0.0266 -0.9365
 3759SOL    MW414770   3.828   0.068   6.166 -0.4707  0.2105 -0.3222
 3760SOL     OW14771   6.267   4.191   4.079 -0.7153 -0.3540 -0.3457
 3760SOL    HW214772   6.363   4.193   4.080 -0.7210  0.6510 -0.8667
 3760SOL    HW314773   6.245   4.112   4.129  0.3365  0.4926  1.5832
 3760SOL    MW414774   6.277   4.181   4.086  0.0076  0.3437  0.4696
 3761SOL     OW14775   4.539   3.478   5.207  0.0804  0.1243  0.0847
 3761SOL    HW214776   4.449   3.450   5.225 -0.5527  2.5277  1.0772
 3761SOL    HW314777   4.529   3.555   5.151  1.3661  1.7996  2.0426
 3761SOL    MW414778   4.526   3.484   5.202 -0.2456 -0.5369 -0.2616
 3762SOL     OW14779   0.999   0.809   3.768  0.1123 -0.5131  0.0604
 3762SOL    HW214780   0.917   0.857   3.759  0.6201  0.4660  0.5059
 3762SOL    HW314781   1.026   0.824   3.859  0.7620 -0.8465 -0.0719
 3762SOL    MW414782   0.992   0.818   3.779 -0.6459  0.2080 -0.1769
 3763SOL     OW14783   0.564   5.920   0.149  0.7336  0.0497 -0.3556
 3763SOL    HW214784   0.492   5.926   0.212  1.1118 -1.4568  0.2524
 3763SOL    HW314785   0.643   5.916   0.203  1.1515 -0.0719 -0.9633
 3763SOL    MW414786   0.565   5.920   0.164 -0.6077  0.4428 -0.1772
 3764SOL     OW14787   5.970   4.647   4.005 -0.6571 -0.1659  0.1738
 3764SOL    HW214788   5.964   4.634   3.911  3.1871  1.4092 -0.4971
 3764SOL    HW314789   6.037   4.585   4.034  1.2835  2.1452  0.9753
 3764SOL    MW414790   5.978   4.637   3.996 -0.4741 -0.5485  0.0722
 3765SOL     OW14791   3.382   5.883   1.375  0.8139 -0.2524 -0.2202
 3765SOL    HW214792   3.317   5.860   1.442 -0.8139 -1.9814 -2.2242
 3765SOL    HW314793   3.466   5.862   1.415 -0.1128 -1.6273  1.1433
 3765SOL    MW414794   3.384   5.877   1.389  0.1953 -0.0836  0.2793
 3766SOL     OW14795   6.076   5.077   2.550 -0.1375  0.5225 -0.8274
 3766SOL    HW214796   6.015   5.140   2.512  0.8363  1.2600 -1.2083
 3766SOL    HW314797   6.149   5.073   2.489  1.6958  2.0964  1.0884
 3766SOL    MW414798   6.078   5.085   2.537  0.2945  0.1074 -0.0766
 3767SOL     OW14799   0.802   0.048   1.551 -0.3590  0.2183  0.2410
 3767SOL    HW214800   0.710   0.022   1.558 -0.6483  1.4926  1.6682
 3767SOL    HW314801   0.821   0.046   1.457 -1.1860 -2.1355  0.0537
 3767SOL    MW414802   0.793   0.044   1.540 -0.1496  0.2948 -0.1229
 3768SOL     OW14803   4.850   2.827   4.136  0.3584 -0.3081 -0.1760
 3768SOL    HW214804   4.921   2.763   4.128 -0.1714 -1.3196  2.3800
 3768SOL    HW314805   4.795   2.794   4.207 -1.1557  1.8813 -0.2230
 3768SOL    MW414806   4.852   2.814   4.144 -0.0161 -0.1498  0.1675
 3769SOL     OW14807   0.062   0.125   2.115 -0.1884 -0.0508  0.0649
 3769SOL    HW214808   0.080   0.206   2.163 -1.4668  0.0459  0.4168
 3769SOL    HW314809   0.080   0.147   2.024 -1.3177  0.8977  0.0538
 3769SOL    MW414810   0.067   0.139   2.109  0.1840 -0.3963 -0.2838
 3770SOL     OW14811   4.569   2.264   0.173 -0.4339  0.5723  0.9412
 3770SOL    HW214812   4.512   2.197   0.209 -0.1438  0.3290  0.9559
 3770SOL    HW314813   4.518   2.303   0.102 -0.0812 -0.6584 -0.0407
 3770SOL    MW414814   4.555   2.260   0.168 -0.4763 -0.6674 -0.6654
 3771SOL     OW14815   1.684   3.148   6.187 -0.3298  0.8816 -0.2813
 3771SOL    HW214816   1.608   3.120   6.136 -1.0369  0.8091  0.7824
 3771SOL    HW314817   1.647   3.185   6.267  0.7275  1.6637 -0.1300
 3771SOL    MW414818   1.669   3.149   6.191 -0.0088  0.6808  0.3576
 3772SOL     OW14819   5.835   3.313   5.458 -0.1807  0.3745 -0.4666
 3772SOL    HW214820   5.853   3.283   5.547  0.7661  0.4710 -0.6142
 3772SOL    HW314821   5.773   3.385   5.469 -0.4941  0.0315  0.0697
 3772SOL    MW414822   5.829   3.318   5.471 -0.2953 -0.1687  0.4835
 3773SOL     OW14823   4.850   1.599   4.895 -0.4005 -0.2525 -0.4256
 3773SOL    HW214824   4.926   1.591   4.953 -0.3962 -0.0751 -0.4079
 3773SOL    HW314825   4.871   1.673   4.838 -0.1162 -0.8281 -1.0866
 3773SOL    MW414826   4.863   1.607   4.895 -0.6490 -0.2536 -0.4172
 3774SOL     OW14827   3.213   0.516   2.425  0.1652  0.8137 -0.1052
 3774SOL    HW214828   3.254   0.598   2.453  1.5042  0.3264 -0.5606
 3774SOL    HW314829   3.281   0.450   2.437 -0.7585 -0.1787 -0.1352
 3774SOL    MW414830   3.227   0.518   2.430 -0.2941 -0.3177 -0.4250
 3775SOL     OW14831   0.468   0.495   5.018  0.2208  0.7070  0.5572
 3775SOL    HW214832   0.539   0.493   4.954  0.0506  1.4697  0.3431
 3775SOL    HW314833   0.477   0.412   5.065  0.0566 -0.0938 -0.7628
 3775SOL    MW414834   0.479   0.484   5.016  0.1314  0.3296 -0.5112
 3776SOL     OW14835   2.194   0.463   3.847 -0.3351 -0.4269 -0.4205
 3776SOL    HW214836   2.153   0.514   3.917 -0.4700 -1.6324  0.3980
 3776SOL    HW314837   2.195   0.523   3.772  0.1610  1.0389  0.6922
 3776SOL    MW414838   2.189   0.478   3.846  0.2086 -0.0855  0.2067
 3777SOL     OW14839   6.119   1.369   4.784  0.0350 -0.0157 -0.1023
 3777SOL    HW214840   6.114   1.432   4.856 -0.9409 -1.2517  0.9665
 3777SOL    HW314841   6.185   1.306   4.811  0.2749 -0.0181 -0.6848
 3777SOL    MW414842   6.127   1.369   4.797 -0.1027 -0.0738 -0.1045
 3778SOL     OW14843   6.148   0.479   4.052  0.0820 -0.5536 -0.1099
 3778SOL    HW214844   6.210   0.445   4.117  1.4037 -1.3150 -1.7200
 3778SOL    HW314845   6.094   0.541   4.102 -0.0515 -2.2842  2.0915
 3778SOL    MW414846   6.149   0.483   4.067 -0.0605 -0.3645 -0.5761
 3779SOL     OW14847   2.735   0.664   4.926  0.2932  0.1948  0.0083
 3779SOL    HW214848   2.706   0.683   5.015  0.1462  2.5422 -0.4634
 3779SOL    HW314849   2.677   0.595   4.895 -2.6606  2.3994  0.2537
 3779SOL    MW414850   2.724   0.658   4.934  0.0898 -0.4279  0.3273
 3780SOL     OW14851   5.728   0.908   3.994  0.2106  0.0834  0.4859
 3780SOL    HW214852   5.727   0.952   4.079 -0.3357 -0.2938  0.6799
 3780SOL    HW314853   5.643   0.863   3.989 -0.7903  1.9892 -1.2307
 3780SOL    MW414854   5.717   0.908   4.004  0.1727 -0.4822 -0.2121
 3781SOL     OW14855   5.283   4.603   6.229 -0.5718 -0.2740  0.4353
 3781SOL    HW214856   5.338   4.606   6.151 -2.6118 -0.5121 -1.0858
 3781SOL    HW314857   5.304   4.683   6.277  2.0548 -1.0001  0.6711
 3781SOL    MW414858   5.293   4.614   6.225  0.2304 -0.0689  0.3231
 3782SOL     OW14859   2.335   0.827   1.121 -0.3390 -0.6285  0.6309
 3782SOL    HW214860   2.279   0.869   1.186  0.7315 -0.6733  1.6037
 3782SOL    HW314861   2.279   0.762   1.079 -1.7133  0.9552 -0.1142
 3782SOL    MW414862   2.320   0.824   1.124  1.0623 -0.0777  0.0534
 3783SOL     OW14863   5.997   2.621   6.405  0.6927  0.3768 -0.1433
 3783SOL    HW214864   5.998   2.694   6.467 -1.0853  0.5416 -0.2623
 3783SOL    HW314865   6.024   2.661   6.322 -0.7572  1.0456 -0.3207
 3783SOL    MW414866   6.001   2.636   6.402  0.2734  0.5061  0.6709
 3784SOL     OW14867   1.078   5.747   1.487 -0.5272 -0.3956 -0.0743
 3784SOL    HW214868   0.983   5.747   1.498 -0.5258  0.0854 -0.0439
 3784SOL    HW314869   1.108   5.822   1.539 -0.2808  0.4024 -1.3193
 3784SOL    MW414870   1.070   5.757   1.495  0.0830  0.5819 -0.1087
 3785SOL     OW14871   4.823   3.033   0.469  0.0865  0.2352  0.2939
 3785SOL    HW214872   4.871   3.082   0.535 -0.0347 -0.1577  0.6765
 3785SOL    HW314873   4.731   3.047   0.492  0.0008  0.9731 -0.4240
 3785SOL    MW414874   4.817   3.042   0.480  0.4554  0.4230  0.2718
 3786SOL     OW14875   5.718   2.061   4.117  0.2364  0.3185  0.0136
 3786SOL    HW214876   5.807   2.056   4.083 -0.1778 -0.0147 -1.0915
 3786SOL    HW314877   5.672   2.118   4.056 -1.0179 -1.8393 -1.1987
 3786SOL    MW414878   5.723   2.068   4.105  0.0652 -0.4190 -0.2091
 3787SOL     OW14879   3.973   2.689   4.573  0.3253  0.0090  0.0115
 3787SOL    HW214880   3.932   2.715   4.655 -1.4734 -0.7149 -0.6017
 3787SOL    HW314881   3.914   2.722   4.505  1.0494 -0.5816 -0.9376
 3787SOL    MW414882   3.960   2.697   4.575  0.4188 -0.1494 -0.6065
 3788SOL     OW14883   3.908   1.025   5.651  0.5851 -0.4199  0.3470
 3788SOL    HW214884   3.898   0.987   5.738 -3.0739 -0.7047 -0.0251
 3788SOL    HW314885   3.898   0.952   5.591  1.8784 -0.0441 -0.3659
 3788SOL    MW414886   3.905   1.011   5.655  0.5026 -0.4781  0.7396
 3789SOL     OW14887   0.348   6.138   6.141  0.1561  0.1860  0.4567
 3789SOL    HW214888   0.413   6.130   6.211  0.4451  0.3426  0.2066
 3789SOL    HW314889   0.399   6.146   6.061 -0.1615 -1.5355  0.0258
 3789SOL    MW414890   0.363   6.138   6.140  0.2176  0.6246 -0.1933
 3790SOL     OW14891   0.042   5.608   1.299 -0.0269  0.3069 -0.3021
 3790SOL    HW214892  -0.014   5.558   1.240 -0.5576  1.5780 -0.9147
 3790SOL    HW314893   0.008   5.588   1.387 -0.3597 -0.2208 -0.5437
 3790SOL    MW414894   0.031   5.599   1.303  0.1552  0.1967 -0.2437
 3791SOL     OW14895   2.035   3.925   0.753 -0.3338  0.0976 -0.3795
 3791SOL    HW214896   2.014   3.835   0.777 -0.7002 -0.1758 -1.6330
 3791SOL    HW314897   1.950   3.965   0.735 -0.2558  0.9970  1.0975
 3791SOL    MW414898   2.021   3.919   0.754 -0.4139  0.0859  0.1432
 3792SOL     OW14899   4.472   5.764   3.258  0.1624  0.9616  0.0109
 3792SOL    HW214900   4.450   5.746   3.167 -0.0450  1.5867 -0.0675
 3792SOL    HW314901   4.474   5.678   3.300  0.6052  0.6414 -0.6567
 3792SOL    MW414902   4.469   5.751   3.252 -0.7284 -0.0396  0.4547
 3793SOL     OW14903   1.929   4.750   4.648  0.6895  0.2505 -0.2413
 3793SOL    HW214904   1.914   4.661   4.681 -2.3101  1.2154  1.3332
 3793SOL    HW314905   1.883   4.807   4.710  2.8552  2.9882 -0.9641
 3793SOL    MW414906   1.921   4.746   4.661  0.2522  0.2587 -0.5663
 3794SOL     OW14907   1.322   1.757   6.023  0.0520 -0.0991  0.3359
 3794SOL    HW214908   1.348   1.752   5.931  0.3088 -1.0300  0.4439
 3794SOL    HW314909   1.227   1.771   6.021  0.1956  0.8667 -0.0620
 3794SOL    MW414910   1.313   1.758   6.011 -0.1912  0.5641  0.3244
 3795SOL     OW14911   5.102   0.791   2.979 -0.6738  0.2345  0.1914
 3795SOL    HW214912   5.175   0.836   3.020  2.2328 -1.8766 -2.2288
 3795SOL    HW314913   5.094   0.832   2.893 -1.1358 -0.6921 -0.2296
 3795SOL    MW414914   5.110   0.802   2.973 -0.1441  0.1169  0.1504
 3796SOL     OW14915   3.999   0.259   2.773  0.0807  0.0584 -0.6874
 3796SOL    HW214916   3.996   0.164   2.766  0.5889 -0.3782  2.8689
 3796SOL    HW314917   3.941   0.280   2.847  2.1827  2.1324  0.5337
 3796SOL    MW414918   3.991   0.249   2.782  0.2293 -0.2201 -0.1384
 3797SOL     OW14919   3.820   6.208   5.164 -0.3828  0.5954  0.3055
 3797SOL    HW214920   3.859   6.281   5.211  1.2105  0.0062 -0.0454
 3797SOL    HW314921   3.744   6.184   5.216 -0.1198  1.5945  1.1804
 3797SOL    MW414922   3.815   6.214   5.177  0.4045  0.0892 -0.3597
 3798SOL     OW14923   4.192   3.393   0.668  0.0281  0.0284 -0.5781
 3798SOL    HW214924   4.267   3.448   0.646  0.7989 -1.3168 -1.4453
 3798SOL    HW314925   4.201   3.316   0.611 -0.2307 -1.6517  1.5072
 3798SOL    MW414926   4.203   3.390   0.658 -0.5107  0.5260 -1.2091
 3799SOL     OW14927   0.324   5.006   4.905  0.7422 -0.1325 -0.2653
 3799SOL    HW214928   0.342   4.935   4.967 -3.2830 -1.4540 -0.2976
 3799SOL    HW314929   0.344   4.968   4.819  1.1017 -0.2880 -0.1150
 3799SOL    MW414930   0.329   4.992   4.901  0.2595 -0.0509  0.2738
 3800SOL     OW14931   5.589   6.125   1.741 -0.1360 -0.0981 -0.4753
 3800SOL    HW214932   5.494   6.117   1.756 -0.0071  0.5497  0.8300
 3800SOL    HW314933   5.607   6.218   1.755  0.3168  0.3205 -3.2438
 3800SOL    MW414934   5.579   6.136   1.745 -1.0400  0.1400  0.2853
 3801SOL     OW14935   3.616   4.196   5.582  0.0794 -0.3264  0.0006
 3801SOL    HW214936   3.577   4.108   5.583 -0.4005 -0.1211 -0.1826
 3801SOL    HW314937   3.543   4.253   5.557  0.8877 -0.1297 -2.1157
 3801SOL    MW414938   3.601   4.192   5.579  0.1385 -0.0215  0.1622
 3802SOL     OW14939   2.218   2.030   0.644 -0.2216  0.1456  0.0933
 3802SOL    HW214940   2.303   2.072   0.630 -0.1837 -0.4136 -1.6840
 3802SOL    HW314941   2.232   1.971   0.718  0.4995  1.1550  0.7929
 3802SOL    MW414942   2.231   2.028   0.652 -0.4360 -0.0984  0.2423
 3803SOL     OW14943   1.253   5.626   1.311  0.0649  0.0269  0.4970
 3803SOL    HW214944   1.209   5.541   1.300  0.7760 -0.6767  2.5519
 3803SOL    HW314945   1.200   5.672   1.376  2.2335 -0.8753  3.1020
 3803SOL    MW414946   1.240   5.621   1.318 -0.3149  0.0389  0.2121
 3804SOL     OW14947   1.671   1.267   0.415  0.5974  0.0587  0.4563
 3804SOL    HW214948   1.762   1.240   0.399  0.3541  0.4091 -1.9747
 3804SOL    HW314949   1.668   1.358   0.386 -0.8144 -0.3603 -0.8272
 3804SOL    MW414950   1.683   1.275   0.409 -0.1442  0.3410  0.7647
 3805SOL     OW14951   1.756   0.525   3.835  0.5137  0.1375 -0.0773
 3805SOL    HW214952   1.816   0.451   3.837  0.4420  0.0757 -0.2550
 3805SOL    HW314953   1.744   0.548   3.927  0.0090 -0.4978  0.0259
 3805SOL    MW414954   1.762   0.518   3.848  0.8042  0.2361  0.1223
 3806SOL     OW14955   3.220   2.073   5.629  0.4663  0.0595 -0.3232
 3806SOL    HW214956   3.143   2.018   5.615  1.9315 -1.4589 -3.2692
 3806SOL    HW314957   3.286   2.013   5.662  0.9635  0.9469  0.3198
 3806SOL    MW414958   3.218   2.058   5.632 -0.5149  0.2531 -0.0662
 3807SOL     OW14959   2.408   6.187   4.187 -0.6758  0.3639 -0.6615
 3807SOL    HW214960   2.461   6.115   4.221 -0.6142  1.2258  1.2116
 3807SOL    HW314961   2.469   6.260   4.179 -1.6062  1.6794  2.5093
 3807SOL    MW414962   2.423   6.187   4.191  0.4951 -0.0123 -0.7292
 3808SOL     OW14963   0.114   3.411   3.740  0.0140 -0.2150  0.3389
 3808SOL    HW214964   0.197   3.364   3.737  0.1020 -0.1247  1.2762
 3808SOL    HW314965   0.132   3.495   3.698 -0.1584 -0.9984 -1.4052
 3808SOL    MW414966   0.127   3.416   3.734 -0.0292 -0.0464 -0.0403
 3809SOL     OW14967   3.205   4.855   4.851 -0.4687 -0.0930 -0.1500
 3809SOL    HW214968   3.171   4.861   4.762 -0.0932  0.1584 -0.2800
 3809SOL    HW314969   3.299   4.874   4.843 -0.0018 -2.0688  0.0179
 3809SOL    MW414970   3.213   4.858   4.838 -0.2706 -0.3599 -0.1030
 3810SOL     OW14971   2.303   4.883   1.159  0.2538  0.0058  0.0084
 3810SOL    HW214972   2.358   4.867   1.235  0.8984  0.2330 -0.4043
 3810SOL    HW314973   2.259   4.967   1.177 -0.0283 -0.2191  0.3747
 3810SOL    MW414974   2.304   4.892   1.171  0.1402 -0.3428  0.1775
 3811SOL     OW14975   4.439   1.520   0.272 -0.4283  0.0201  0.2999
 3811SOL    HW214976   4.435   1.583   0.343 -1.3838  0.3574 -0.0391
 3811SOL    HW314977   4.385   1.558   0.202 -0.4372 -0.8310 -0.1735
 3811SOL    MW414978   4.431   1.533   0.272  0.5562  0.1404  0.4731
 3812SOL     OW14979   2.073   3.614   5.430  0.7710 -0.3673  0.4115
 3812SOL    HW214980   1.979   3.615   5.414  1.0229  0.8358 -1.1891
 3812SOL    HW314981   2.081   3.616   5.525 -0.8067 -1.4881  0.6100
 3812SOL    MW414982   2.062   3.614   5.440 -0.0453 -0.0918 -0.1028
 3813SOL     OW14983   2.493   5.096   3.294  0.0930  0.6298  0.1113
 3813SOL    HW214984   2.461   5.074   3.206 -2.1641  0.5091  0.9100
 3813SOL    HW314985   2.563   5.033   3.309 -1.1717 -1.0429 -0.6460
 3813SOL    MW414986   2.498   5.085   3.284  0.3727 -0.3367 -0.1571
 3814SOL     OW14987   5.581   5.606   1.337 -0.3722  0.0526 -0.1041
 3814SOL    HW214988   5.611   5.552   1.411  0.7142 -0.8210 -1.1499
 3814SOL    HW314989   5.518   5.551   1.291 -2.0417  1.0692  0.8268
 3814SOL    MW414990   5.576   5.592   1.341  0.3386 -0.1292 -0.3273
 3815SOL     OW14991   5.622   5.343   1.776 -0.3335 -0.0370  0.0861
 3815SOL    HW214992   5.664   5.257   1.778  0.7466  0.4333 -0.7875
 3815SOL    HW314993   5.689   5.403   1.810 -0.6738  0.5906 -0.3297
 3815SOL    MW414994   5.637   5.340   1.780  0.2778 -0.3514  0.3422
 3816SOL     OW14995   3.771   0.858   1.311 -0.0607 -0.1787  0.2096
 3816SOL    HW214996   3.700   0.793   1.309 -0.5226  0.1846  2.2911
 3816SOL    HW314997   3.728   0.940   1.286  0.1213 -0.3365 -0.6430
 3816SOL    MW414998   3.756   0.860   1.307 -0.2802  0.0434  0.3491
 3817SOL     OW14999   0.684   0.385   3.251 -0.0403  0.5625  0.0683
 3817SOL    HW215000   0.651   0.369   3.162 -0.2394 -2.5363  0.5913
 3817SOL    HW315001   0.612   0.429   3.296  0.5923  3.6009 -1.5812
 3817SOL    MW415002   0.670   0.389   3.245  0.3915  0.1326 -0.2900
 3818SOL     OW15003   4.912   3.197   4.687 -0.3266  0.2835 -0.5176
 3818SOL    HW215004   4.884   3.259   4.620  0.0701  1.0702  0.0332
 3818SOL    HW315005   5.008   3.200   4.684 -0.3012 -0.3083 -0.4861
 3818SOL    MW415006   4.921   3.205   4.678 -0.0715 -0.0008 -0.5208
 3819SOL     OW15007   1.612   4.576   2.153 -0.1083  0.2121 -0.3267
 3819SOL    HW215008   1.703   4.545   2.154 -0.0167  0.4557 -0.8604
 3819SOL    HW315009   1.613   4.651   2.093 -0.8397 -0.3269 -1.0132
 3819SOL    MW415010   1.624   4.582   2.146 -0.3528 -0.3108  0.3408
 3820SOL     OW15011   0.316   5.839   1.714  0.2441  0.5566  0.2804
 3820SOL    HW215012   0.329   5.818   1.621  1.5204  0.9131  0.3679
 3820SOL    HW315013   0.334   5.756   1.759 -1.7232  0.0024  0.1510
 3820SOL    MW415014   0.320   5.825   1.708 -0.2132 -0.1456  0.2966
 3821SOL     OW15015   4.000   5.801   6.270 -0.1396 -0.7468 -0.1302
 3821SOL    HW215016   3.952   5.845   6.200  1.2566 -0.5695 -1.0059
 3821SOL    HW315017   3.934   5.784   6.338 -1.1274  0.7844 -0.6697
 3821SOL    MW415018   3.985   5.804   6.270  0.0438  0.4484 -0.2476
 3822SOL     OW15019   3.631   5.241   6.007 -0.6481 -0.3789 -0.6579
 3822SOL    HW215020   3.685   5.221   6.084  0.9467 -0.6264 -1.7951
 3822SOL    HW315021   3.541   5.238   6.040  0.0441  2.2129  1.8178
 3822SOL    MW415022   3.626   5.238   6.022  0.4908 -0.6000  0.3667
 3823SOL     OW15023   3.808   2.941   0.125  0.2600  0.1576  0.5015
 3823SOL    HW215024   3.784   2.917   0.214 -2.7334 -1.3981 -0.5892
 3823SOL    HW315025   3.757   3.020   0.107  0.3539  0.0963 -0.0551
 3823SOL    MW415026   3.798   2.948   0.135  0.1323 -0.3636 -0.4397
 3824SOL     OW15027   3.902   5.416   5.917  0.3617 -0.7808  0.1695
 3824SOL    HW215028   3.951   5.467   5.852 -1.6796  0.6932 -0.3016
 3824SOL    HW315029   3.953   5.425   5.998  2.3339 -1.6892 -0.8959
 3824SOL    MW415030   3.916   5.423   5.919  0.0028 -0.3077  0.1656
 3825SOL     OW15031   1.526   5.391   5.976  0.1472  0.5447 -0.3761
 3825SOL    HW215032   1.553   5.337   6.050 -2.7468  1.5689  1.6262
 3825SOL    HW315033   1.606   5.436   5.948  1.5207 -0.5748  1.5133
 3825SOL    MW415034   1.540   5.390   5.982  0.0813 -0.9142  0.0446
 3826SOL     OW15035   3.148   5.413   3.722  0.2436 -0.1488  0.2243
 3826SOL    HW215036   3.223   5.469   3.742 -1.4210  2.8791 -1.2438
 3826SOL    HW315037   3.128   5.369   3.805  0.9601  2.3884  1.8658
 3826SOL    MW415038   3.155   5.414   3.736 -0.2194  0.2984  0.2705
 3827SOL     OW15039   2.686   4.176   4.142 -0.2484 -0.0104  0.5546
 3827SOL    HW215040   2.620   4.244   4.135 -0.4473 -0.1129  1.3518
 3827SOL    HW315041   2.731   4.177   4.057 -1.2635  0.0604  0.0074
 3827SOL    MW415042   2.684   4.185   4.130  0.1032 -0.3018  0.1325
 3828SOL     OW15043   6.034   0.726   3.371 -0.4623  0.0344  0.3132
 3828SOL    HW215044   6.016   0.699   3.461 -0.4956 -0.4056  0.1809
 3828SOL    HW315045   6.098   0.662   3.340  0.6250  1.0323  0.4789
 3828SOL    MW415046   6.040   0.714   3.379  0.0685  0.2629  0.2388
 3829SOL     OW15047   5.850   3.481   2.364 -0.3317 -1.0152  0.7060
 3829SOL    HW215048   5.789   3.545   2.328 -1.4262 -2.5357 -0.2620
 3829SOL    HW315049   5.920   3.534   2.404 -1.3279  0.7521  0.2116
 3829SOL    MW415050   5.852   3.496   2.364  0.0079 -0.6992 -0.1675
 3830SOL     OW15051   2.228   3.961   5.322 -0.0544 -0.3501  0.3176
 3830SOL    HW215052   2.148   4.009   5.343  0.0958  0.3492 -0.6398
 3830SOL    HW315053   2.264   4.007   5.246  0.4791 -1.5394 -0.1722
 3830SOL    MW415054   2.222   3.973   5.315  0.1244  0.9509  0.2766
 3831SOL     OW15055   3.440   4.929   0.334  0.5913  0.5154 -0.2740
 3831SOL    HW215056   3.458   4.903   0.244 -1.3567  0.0337 -0.5783
 3831SOL    HW315057   3.507   4.994   0.355  0.1708  1.7820 -2.6063
 3831SOL    MW415058   3.451   4.934   0.325  0.0333 -0.0984 -0.5125
 3832SOL     OW15059   0.479   0.506   6.375  0.7982  0.4675 -0.7048
 3832SOL    HW215060   0.475   0.511   6.470  0.6284  0.0563 -0.6868
 3832SOL    HW315061   0.511   0.592   6.347 -1.3552  1.4149 -0.4143
 3832SOL    MW415062   0.483   0.518   6.383 -0.4976 -0.2843  0.0607
 3833SOL     OW15063   4.737   1.030   1.739 -0.2160  0.2425 -0.4667
 3833SOL    HW215064   4.653   1.043   1.695 -1.0669 -1.4190  0.5730
 3833SOL    HW315065   4.741   0.936   1.757  1.9092  0.2612 -0.5207
 3833SOL    MW415066   4.727   1.019   1.735 -0.0528  0.1162  0.3503
 3834SOL     OW15067   4.474   4.718   4.908 -0.2409  0.0164  0.2465
 3834SOL    HW215068   4.428   4.741   4.827  1.5463  0.1469 -0.7865
 3834SOL    HW315069   4.423   4.646   4.944 -1.8672  0.8587 -0.2339
 3834SOL    MW415070   4.461   4.712   4.902 -0.4282 -0.0257 -0.8392
 3835SOL     OW15071   0.322   1.325   0.410 -0.6327 -0.2012  0.0281
 3835SOL    HW215072   0.339   1.345   0.502  0.4658  1.9793 -0.5712
 3835SOL    HW315073   0.271   1.399   0.378  0.1959 -0.2202 -1.4324
 3835SOL    MW415074   0.318   1.337   0.418 -0.2149 -0.1447 -0.1060
 3836SOL     OW15075   1.543   2.872   5.022 -0.7708  0.8299 -0.6034
 3836SOL    HW215076   1.610   2.928   4.983 -0.6224 -0.6560 -2.6454
 3836SOL    HW315077   1.573   2.856   5.112  1.5378  0.3405 -1.4148
 3836SOL    MW415078   1.556   2.877   5.029  0.5578 -0.1591 -0.1048
 3837SOL     OW15079   4.763   5.543   4.390 -0.0816 -0.5044  0.3526
 3837SOL    HW215080   4.774   5.536   4.295  0.8869  0.2311  0.3990
 3837SOL    HW315081   4.698   5.613   4.401  0.0515 -0.3613  0.2371
 3837SOL    MW415082   4.756   5.552   4.379 -0.2048 -0.6917  0.1424
 3838SOL     OW15083   1.284   6.260   2.664 -0.0804 -0.3849 -0.0696
 3838SOL    HW215084   1.277   6.332   2.726 -0.9787 -1.4466  1.1380
 3838SOL    HW315085   1.322   6.188   2.715 -0.4343 -1.1627 -0.8644
 3838SOL    MW415086   1.288   6.260   2.679 -0.6203 -0.1690 -0.5086
 3839SOL     OW15087   3.995   5.579   4.969  0.3569  0.0976 -0.0763
 3839SOL    HW215088   3.989   5.484   4.980 -0.5603  0.0087 -1.1757
 3839SOL    HW315089   3.911   5.612   5.003  0.3986  0.4476 -0.3140
 3839SOL    MW415090   3.983   5.571   4.975  0.1119  0.4173 -0.4481
 3840SOL     OW15091   1.230   2.938   5.086 -0.0745  0.0812 -0.1969
 3840SOL    HW215092   1.248   2.952   4.993  1.7275  0.1424  0.1394
 3840SOL    HW315093   1.247   2.845   5.099 -3.0674 -0.6209 -0.4625
 3840SOL    MW415094   1.235   2.927   5.075  0.1963  0.0026  0.8300
 3841SOL     OW15095   0.940   3.385   1.803  0.4134 -0.3599  0.1593
 3841SOL    HW215096   0.955   3.304   1.754 -1.0162 -0.9050  0.5705
 3841SOL    HW315097   0.888   3.439   1.744 -2.4017 -1.5040  1.3795
 3841SOL    MW415098   0.935   3.381   1.789  0.5710  0.0570 -0.6786
 3842SOL     OW15099   6.050   5.534   0.822  0.4562  0.3660  0.5937
 3842SOL    HW215100   5.966   5.531   0.776  0.9106  1.3717 -0.3560
 3842SOL    HW315101   6.068   5.627   0.833  2.1081  0.2288 -0.5223
 3842SOL    MW415102   6.041   5.545   0.817  0.4227  0.3807 -0.2084
 3843SOL     OW15103   0.604   0.535   1.814  0.1973  0.2395  0.4612
 3843SOL    HW215104   0.615   0.480   1.891 -0.3304 -1.0585 -0.3707
 3843SOL    HW315105   0.527   0.588   1.833  1.2702  1.4585  1.6745
 3843SOL    MW415106   0.596   0.535   1.827 -0.5966  0.3454  0.1003
 3844SOL     OW15107   3.806   1.708   0.952 -0.3087 -0.0210 -0.3336
 3844SOL    HW215108   3.803   1.804   0.948  2.6612  0.1755 -0.3493
 3844SOL    HW315109   3.797   1.681   0.861 -3.1583  0.0464 -0.1467
 3844SOL    MW415110   3.804   1.717   0.940  0.2584 -0.2177  0.1289
 3845SOL     OW15111   4.054   5.499   2.678  0.4909 -0.5374  0.8304
 3845SOL    HW215112   4.062   5.415   2.722 -0.6129 -0.8196  0.5122
 3845SOL    HW315113   4.038   5.477   2.587 -0.6478 -0.0055  0.8872
 3845SOL    MW415114   4.053   5.485   2.672  0.0042  0.0266 -0.0259
 3846SOL     OW15115   5.155   2.992   5.231 -0.1582  0.0775 -0.2546
 3846SOL    HW215116   5.169   2.910   5.184  0.2734  0.7819 -1.3976
 3846SOL    HW315117   5.064   2.989   5.259 -0.8363  0.1896 -2.2994
 3846SOL    MW415118   5.145   2.981   5.228  0.6146  0.1035  0.1217
 3847SOL     OW15119   5.730   2.192   5.786 -0.3822 -0.3211  0.1146
 3847SOL    HW215120   5.768   2.267   5.832 -1.5193  1.2642 -1.3786
 3847SOL    HW315121   5.746   2.118   5.844  1.0971  0.9970  1.5124
 3847SOL    MW415122   5.737   2.192   5.800 -0.2526  0.1163 -0.1324
 3848SOL     OW15123   0.136   5.471   2.896 -0.3156  0.4124 -0.3995
 3848SOL    HW215124   0.175   5.452   2.811 -0.7624 -0.2505 -0.4593
 3848SOL    HW315125   0.211   5.481   2.955 -0.0094  0.7240 -0.8320
 3848SOL    MW415126   0.151   5.470   2.892 -0.8371 -0.6992 -0.1222
 3849SOL     OW15127   3.450   4.249   3.361  0.2593 -0.3270 -0.6032
 3849SOL    HW215128   3.545   4.263   3.358 -0.0227  2.4353  0.3732
 3849SOL    HW315129   3.428   4.257   3.454 -1.0519  0.1312 -0.9381
 3849SOL    MW415130   3.460   4.252   3.373  0.4537  0.8392  0.2947
 3850SOL     OW15131   3.765   1.344   5.021 -0.6090 -0.0376  0.3161
 3850SOL    HW215132   3.697   1.316   4.959 -0.0515 -2.1349  0.5472
 3850SOL    HW315133   3.839   1.369   4.966 -1.6449  2.7639  0.0417
 3850SOL    MW415134   3.766   1.343   5.006 -0.2991  0.1898  0.0858
 3851SOL     OW15135   6.164   0.277   2.487 -0.7127 -0.7964 -0.0265
 3851SOL    HW215136   6.134   0.341   2.422 -1.6261 -1.4355 -0.2493
 3851SOL    HW315137   6.147   0.192   2.446  3.6119 -1.3287 -1.2595
 3851SOL    MW415138   6.158   0.275   2.473 -0.6025 -0.0481  0.1543
 3852SOL     OW15139   3.414   3.708   1.671 -0.2820  0.4492  0.7262
 3852SOL    HW215140   3.400   3.640   1.605  0.0383 -1.1086  2.1803
 3852SOL    HW315141   3.348   3.690   1.738  0.4329  0.9803  1.5922
 3852SOL    MW415142   3.403   3.697   1.671 -0.4065 -0.3818 -0.4380
 3853SOL     OW15143   0.064   4.526   4.887  0.1733 -0.3655 -0.4984
 3853SOL    HW215144   0.023   4.498   4.806  0.3268  0.5801 -0.9183
 3853SOL    HW315145   0.151   4.556   4.860  0.2985 -0.2348  0.0455
 3853SOL    MW415146   0.070   4.527   4.873 -0.1271  0.4415 -0.4279
 3854SOL     OW15147   5.235   5.272   3.383  0.4824 -0.2468  0.3519
 3854SOL    HW215148   5.330   5.279   3.386  0.4849 -0.5770  2.1187
 3854SOL    HW315149   5.204   5.363   3.377  0.8715 -0.1853 -2.4901
 3854SOL    MW415150   5.243   5.285   3.382  0.0078  0.7603  0.3697
 3855SOL     OW15151   2.731   2.875   5.387  0.6048  0.0490 -0.1333
 3855SOL    HW215152   2.789   2.804   5.417  0.3833 -0.9048 -1.8206
 3855SOL    HW315153   2.643   2.845   5.411  0.6480  0.6611  0.8332
 3855SOL    MW415154   2.727   2.861   5.394  0.4720 -0.3214  0.1648
 3856SOL     OW15155   6.158   4.465   5.966  0.2891  0.1960 -0.0932
 3856SOL    HW215156   6.165   4.406   6.040 -0.1918 -0.0729 -0.2587
 3856SOL    HW315157   6.152   4.408   5.889 -3.7150  0.2329 -0.0397
 3856SOL    MW415158   6.158   4.450   5.965 -0.2319  0.2970  0.4802
 3857SOL     OW15159   1.388   3.249   4.632 -0.2012 -0.5431 -0.4828
 3857SOL    HW215160   1.383   3.220   4.723 -0.7565 -2.5197 -1.0969
 3857SOL    HW315161   1.481   3.267   4.618  0.2937 -2.5381 -0.1430
 3857SOL    MW415162   1.400   3.247   4.642 -0.3350 -0.3179  0.7425
 3858SOL     OW15163   2.394   0.579   6.356 -0.1906 -0.0993  0.4267
 3858SOL    HW215164   2.359   0.599   6.443  0.4459  2.3371  0.2014
 3858SOL    HW315165   2.326   0.526   6.314 -1.2383  0.0711  1.8369
 3858SOL    MW415166   2.380   0.575   6.362  0.0745 -0.3386 -0.3550
 3859SOL     OW15167   2.905   3.834   3.175  0.5425 -0.2331 -0.4964
 3859SOL    HW215168   2.925   3.926   3.161 -1.8743  0.2827 -0.9988
 3859SOL    HW315169   2.811   3.827   3.158  0.5385 -2.6711  0.1608
 3859SOL    MW415170   2.895   3.845   3.171  0.2322 -0.3914  0.4038
 3860SOL     OW15171   2.995   5.419   1.798  0.3861  0.5706  0.1059
 3860SOL    HW215172   2.994   5.502   1.749  0.4789  0.4497 -0.1034
 3860SOL    HW315173   2.911   5.378   1.777  0.5339  0.3998 -0.1604
 3860SOL    MW415174   2.984   5.425   1.788  0.1508 -0.1811  0.4406
 3861SOL     OW15175   1.781   1.901   3.175 -0.8428  0.0275  0.4487
 3861SOL    HW215176   1.831   1.820   3.183 -1.1210 -0.1734  0.1344
 3861SOL    HW315177   1.830   1.964   3.228 -0.0886 -0.0968 -0.0821
 3861SOL    MW415178   1.794   1.899   3.183  0.1242 -0.5990 -0.1286
 3862SOL     OW15179   5.396   5.972   5.713  0.0892 -0.5755 -0.2267
 3862SOL    HW215180   5.433   5.948   5.628  0.3349  0.2317 -0.3552
 3862SOL    HW315181   5.470   5.970   5.773 -0.1883 -1.7170  0.1027
 3862SOL    MW415182   5.410   5.969   5.710 -1.0231 -0.1544  0.1212
 3863SOL     OW15183   2.702   4.336   1.521  0.0574  0.2268  0.4867
 3863SOL    HW215184   2.736   4.411   1.571 -0.0683 -0.4237  1.5888
 3863SOL    HW315185   2.607   4.348   1.522  0.1189  2.0543 -2.6060
 3863SOL    MW415186   2.694   4.348   1.528 -0.0763  0.3496 -0.8942
 3864SOL     OW15187   4.400   5.091   6.188  0.8565 -0.0133  0.1061
 3864SOL    HW215188   4.307   5.112   6.192  0.4269 -1.8965  1.0367
 3864SOL    HW315189   4.432   5.137   6.110 -0.8136  0.7494 -0.1621
 3864SOL    MW415190   4.392   5.100   6.178  0.3038  0.0563 -0.2371
 3865SOL     OW15191   0.818   1.059   4.905 -0.2332  0.5632  0.1106
 3865SOL    HW215192   0.817   0.994   4.836 -1.4093  0.8406 -0.1538
 3865SOL    HW315193   0.880   1.126   4.874  0.5235 -0.1199  0.1164
 3865SOL    MW415194   0.826   1.059   4.892 -0.0009 -0.1481  0.1702
 3866SOL     OW15195   2.580   3.710   4.233 -0.3718  0.5329  0.1114
 3866SOL    HW215196   2.513   3.667   4.286 -1.8755  0.5383 -1.6853
 3866SOL    HW315197   2.635   3.638   4.202  0.8489  0.5760  2.0109
 3866SOL    MW415198   2.579   3.695   4.236  0.1421 -0.2300  0.2337
 3867SOL     OW15199   5.070   2.179   0.152 -0.0122  0.8860  0.9282
 3867SOL    HW215200   5.095   2.261   0.109 -1.2638 -0.3640 -2.5190
 3867SOL    HW315201   4.974   2.180   0.152 -0.0481 -0.5775  0.7873
 3867SOL    MW415202   5.061   2.190   0.146 -0.1789 -0.6451 -0.1709
 3868SOL     OW15203   1.400   1.781   4.962 -0.1683  0.2315  0.5277
 3868SOL    HW215204   1.383   1.713   5.028  0.4416 -0.6369 -0.1828
 3868SOL    HW315205   1.496   1.785   4.957 -0.2029 -0.2351 -0.8181
 3868SOL    MW415206   1.410   1.772   4.970 -0.4325 -0.7772  0.3600
 3869SOL     OW15207   3.587   5.514   5.490  0.4630  0.5594  0.0807
 3869SOL    HW215208   3.600   5.465   5.571 -0.2050 -0.3489 -0.3445
 3869SOL    HW315209   3.626   5.459   5.422 -0.1855  0.6610 -0.3850
 3869SOL    MW415210   3.594   5.500   5.492 -0.4789  0.5700 -1.1352
 3870SOL     OW15211   0.456   0.921   4.060  0.2418  0.0014  0.1231
 3870SOL    HW215212   0.376   0.959   4.026  1.1821  0.1212 -2.0829
 3870SOL    HW315213   0.526   0.960   4.008  1.9610  1.1201  3.0041
 3870SOL    MW415214   0.455   0.931   4.049 -0.0420  0.2774 -0.1706
 3871SOL     OW15215   1.275   4.717   6.227  0.6573  0.1400 -0.2939
 3871SOL    HW215216   1.181   4.736   6.229  0.6626  0.1232  1.0600
 3871SOL    HW315217   1.280   4.623   6.247  0.9994  0.3493  0.6469
 3871SOL    MW415218   1.263   4.707   6.230 -0.3236  1.0869  0.5703
 3872SOL     OW15219   0.858   0.318   4.643 -0.0272 -0.4170  0.6177
 3872SOL    HW215220   0.854   0.321   4.548  1.5478  0.4227  0.5514
 3872SOL    HW315221   0.940   0.272   4.663  1.4640  2.3643  1.4832
 3872SOL    MW415222   0.868   0.313   4.633  1.0050 -0.2317 -0.0243
 3873SOL     OW15223   1.465   5.877   1.554 -0.6008 -0.0182 -0.1663
 3873SOL    HW215224   1.498   5.788   1.561 -2.4561 -0.7935 -0.6323
 3873SOL    HW315225   1.526   5.930   1.605 -1.0099 -1.9557  2.4887
 3873SOL    MW415226   1.478   5.872   1.561 -0.3868 -0.0486  0.2054
 3874SOL     OW15227   0.633   3.267   4.801  0.0482  0.2446  0.3918
 3874SOL    HW215228   0.681   3.299   4.877  3.5343 -2.1578 -0.5704
 3874SOL    HW315229   0.588   3.188   4.831 -0.4790  0.5555  0.4435
 3874SOL    MW415230   0.633   3.261   4.815  0.0926  0.2132  0.3341
 3875SOL     OW15231   2.891   1.910   2.098 -0.3936  0.4034 -0.0506
 3875SOL    HW215232   2.938   1.876   2.175 -0.2610  0.5488 -0.0664
 3875SOL    HW315233   2.955   1.905   2.027 -0.8369 -0.7099 -0.3946
 3875SOL    MW415234   2.906   1.905   2.099  0.0972 -0.0441 -0.1362
 3876SOL     OW15235   3.236   1.427   4.207 -0.1735  0.2904  0.1768
 3876SOL    HW215236   3.294   1.500   4.229 -1.1562  1.7276 -1.6783
 3876SOL    HW315237   3.274   1.390   4.127 -0.7370 -0.0039  0.0406
 3876SOL    MW415238   3.248   1.432   4.199  0.1243  0.3971  0.0436
 3877SOL     OW15239   3.347   1.798   0.030 -0.4379  0.5483 -0.5949
 3877SOL    HW215240   3.373   1.887   0.055  0.2302  0.1656  0.1077
 3877SOL    HW315241   3.254   1.792   0.055 -0.7451  1.3461 -1.5001
 3877SOL    MW415242   3.338   1.809   0.037  0.0461 -0.0996 -0.4961
 3878SOL     OW15243   1.186   0.039   4.907 -0.4799  0.4401 -0.3553
 3878SOL    HW215244   1.271   0.057   4.867 -0.7909 -0.4326 -1.4329
 3878SOL    HW315245   1.163   0.121   4.951  1.1765  0.5197  0.4657
 3878SOL    MW415246   1.195   0.052   4.908  0.4878 -0.2796  0.5256
 3879SOL     OW15247   2.447   1.112   1.336 -0.0719  0.5415  0.6107
 3879SOL    HW215248   2.356   1.089   1.355  0.3198 -0.6273  1.1698
 3879SOL    HW315249   2.495   1.088   1.415  0.9664 -0.3941 -0.2646
 3879SOL    MW415250   2.442   1.106   1.349  0.0150  0.1682 -0.3190
 3880SOL     OW15251   1.551   1.184   2.174 -0.4687 -0.3680 -0.2484
 3880SOL    HW215252   1.598   1.257   2.134  1.5313 -1.0701  0.7337
 3880SOL    HW315253   1.542   1.208   2.266  0.2319 -1.3356  0.0934
 3880SOL    MW415254   1.556   1.197   2.181  0.2420  0.7459 -0.1478
 3881SOL     OW15255   1.280   3.702   3.591  0.0772 -0.5250 -0.0571
 3881SOL    HW215256   1.317   3.791   3.589  0.6502 -0.7704 -0.3595
 3881SOL    HW315257   1.351   3.647   3.621 -0.8884 -0.6048  2.2777
 3881SOL    MW415258   1.294   3.707   3.594  0.0188  0.1777  0.8224
 3882SOL     OW15259   5.670   1.434   3.204  0.4862 -0.2834  0.0691
 3882SOL    HW215260   5.709   1.463   3.287 -2.6360 -2.2651  2.4818
 3882SOL    HW315261   5.713   1.351   3.184 -1.9890 -2.4224  2.6747
 3882SOL    MW415262   5.681   1.427   3.212 -0.1579 -0.0646  0.5449
 3883SOL     OW15263   0.203   0.934   0.928  0.0199 -1.0383  0.1563
 3883SOL    HW215264   0.201   1.007   0.867 -1.2276  0.0449  1.4169
 3883SOL    HW315265   0.160   0.862   0.882 -0.9527 -0.2223 -0.2322
 3883SOL    MW415266   0.197   0.934   0.914 -0.4971 -0.3145  0.1359
 3884SOL     OW15267   4.414   0.272   0.501  0.7823 -0.1672 -0.4874
 3884SOL    HW215268   4.352   0.233   0.562 -1.0127  0.2073 -1.9897
 3884SOL    HW315269   4.499   0.267   0.546 -0.0938 -1.8912  1.0816
 3884SOL    MW415270   4.417   0.266   0.515  0.2675 -0.2473  0.3613
 3885SOL     OW15271   5.409   4.438   1.508 -0.1814 -0.1770  0.0864
 3885SOL    HW215272   5.453   4.397   1.433  0.7931  1.2072 -0.1183
 3885SOL    HW315273   5.444   4.527   1.511 -0.3910 -0.1353  2.0619
 3885SOL    MW415274   5.419   4.444   1.498 -0.1267 -0.5155 -0.2268
 3886SOL     OW15275   4.853   2.046   5.224 -0.1952 -0.1351 -0.3302
 3886SOL    HW215276   4.827   1.971   5.277  0.2637 -0.9178 -1.2068
 3886SOL    HW315277   4.796   2.117   5.255 -2.0411 -1.3282 -0.8600
 3886SOL    MW415278   4.842   2.046   5.235  0.0072  0.2705  0.1300
 3887SOL     OW15279   4.846   6.307   5.788 -0.4530  0.1001 -0.0288
 3887SOL    HW215280   4.751   6.299   5.779 -0.3044 -0.2128 -1.5083
 3887SOL    HW315281   4.881   6.236   5.734  0.6151 -1.3728  2.3917
 3887SOL    MW415282   4.838   6.296   5.780  0.5143  0.0953 -0.1461
 3888SOL     OW15283   1.356   1.727   1.546 -0.3036  0.2434  0.2021
 3888SOL    HW215284   1.353   1.792   1.616 -1.8407  0.6306 -0.1953
 3888SOL    HW315285   1.437   1.747   1.498  0.2307  0.6213  1.2289
 3888SOL    MW415286   1.366   1.738   1.549 -0.4528  0.3718 -1.0362
 3889SOL     OW15287   2.037   1.876   2.846 -0.1789  0.0077  0.1232
 3889SOL    HW215288   2.068   1.786   2.837  1.0992  0.4778 -0.3495
 3889SOL    HW315289   2.082   1.924   2.777  0.0606  1.2409  1.1021
 3889SOL    MW415290   2.047   1.870   2.836  0.0115  0.6090  0.2055
 3890SOL     OW15291   2.684   1.099   5.902 -0.0629  0.3713  0.6610
 3890SOL    HW215292   2.668   1.114   5.809  1.0299 -1.8003  0.0716
 3890SOL    HW315293   2.601   1.069   5.937 -0.3942  0.8928  0.3320
 3890SOL    MW415294   2.671   1.097   5.894  1.1040  1.0931 -1.1187
 3891SOL     OW15295   5.138   5.369   4.006 -0.6003 -0.3180  0.1041
 3891SOL    HW215296   5.106   5.284   4.036  0.9698 -1.1639 -0.5302
 3891SOL    HW315297   5.083   5.432   4.052 -1.7701 -1.6598  0.6299
 3891SOL    MW415298   5.126   5.366   4.016 -0.7515  0.4116  0.2007
 3892SOL     OW15299   0.446   2.077   6.210  0.0724 -0.3214 -0.1292
 3892SOL    HW215300   0.443   2.043   6.300  2.7549 -2.3644 -0.7074
 3892SOL    HW315301   0.538   2.094   6.194 -0.6023  2.1284 -1.8206
 3892SOL    MW415302   0.458   2.074   6.220 -0.1428 -0.6895 -0.0001
 3893SOL     OW15303   3.532   4.759   3.636 -0.4227 -0.0539 -0.6834
 3893SOL    HW215304   3.517   4.696   3.707 -0.3016 -0.5765 -1.1173
 3893SOL    HW315305   3.595   4.715   3.578  1.0936  1.1820 -0.0531
 3893SOL    MW415306   3.538   4.745   3.638 -0.5525  0.6446  0.4601
 3894SOL     OW15307   4.461   5.317   1.160  0.1970 -0.2643 -0.3967
 3894SOL    HW215308   4.522   5.282   1.096 -1.3632 -0.0675 -2.0641
 3894SOL    HW315309   4.453   5.247   1.225  2.6015 -0.0523  0.2204
 3894SOL    MW415310   4.468   5.303   1.160  0.8744 -0.0240 -0.0239
 3895SOL     OW15311   1.183   2.568   4.008 -0.0776  0.3479  0.4178
 3895SOL    HW215312   1.262   2.618   3.986 -0.2152  0.5901  0.4730
 3895SOL    HW315313   1.175   2.505   3.936  0.3799  0.0610  0.6084
 3895SOL    MW415314   1.192   2.567   3.995  0.0005 -0.6424  0.2635
 3896SOL     OW15315   3.058   4.501   3.692 -0.2195 -0.4146 -0.4168
 3896SOL    HW215316   3.049   4.424   3.637 -1.1432  1.0171 -2.3762
 3896SOL    HW315317   3.152   4.507   3.709  0.2756 -0.2917 -2.8369
 3896SOL    MW415318   3.069   4.492   3.687  0.5122 -0.1753  0.6659
 3897SOL     OW15319   4.291   4.539   5.608 -0.5200  0.4040 -0.2657
 3897SOL    HW215320   4.208   4.493   5.593 -0.5167  0.5135 -0.6191
 3897SOL    HW315321   4.355   4.469   5.618 -0.3568  0.3280 -1.7019
 3897SOL    MW415322   4.288   4.524   5.608  0.3504 -0.0990 -0.0898
 3898SOL     OW15323   1.790   2.430   3.187 -0.0398 -0.5815  0.1022
 3898SOL    HW215324   1.801   2.524   3.196 -1.5231 -0.5010  1.4672
 3898SOL    HW315325   1.835   2.393   3.263 -2.0129 -0.7367  1.2575
 3898SOL    MW415326   1.798   2.437   3.198  0.8218 -0.0865  0.1314
 3899SOL     OW15327   4.982   0.914   6.127  0.3539  0.1278  0.0632
 3899SOL    HW215328   5.077   0.920   6.135  0.1361  2.1424  1.9691
 3899SOL    HW315329   4.951   0.901   6.217 -1.2183  0.3170 -0.4190
 3899SOL    MW415330   4.991   0.913   6.140 -0.3643  0.2736  0.1957
 3900SOL     OW15331   4.981   2.200   5.527 -0.3505  0.2609  0.0444
 3900SOL    HW215332   5.036   2.228   5.454  0.0383 -0.2976  0.1138
 3900SOL    HW315333   4.958   2.281   5.573  1.0161  0.4469  0.4397
 3900SOL    MW415334   4.985   2.214   5.524 -0.2072 -0.1806  0.8772
 3901SOL     OW15335   5.784   1.176   0.382 -0.3329  0.2963  0.6499
 3901SOL    HW215336   5.865   1.197   0.428 -0.0516  2.3860 -0.6583
 3901SOL    HW315337   5.715   1.207   0.441 -0.1634 -0.5742  1.3256
 3901SOL    MW415338   5.785   1.183   0.396 -0.2717  0.4115 -1.0169
 3902SOL     OW15339   0.620   0.710   0.196  0.4580  0.3303  0.0925
 3902SOL    HW215340   0.550   0.758   0.152 -0.5035 -0.7413  0.4105
 3902SOL    HW315341   0.700   0.757   0.172 -0.3340  1.4182 -0.4967
 3902SOL    MW415342   0.621   0.723   0.187  0.8213  0.2142 -0.0367
 3903SOL     OW15343   5.032   5.898   5.216  0.4330  0.2189  0.1017
 3903SOL    HW215344   5.053   5.910   5.123 -1.9835 -1.8936 -0.8028
 3903SOL    HW315345   5.070   5.813   5.238 -0.3758 -0.0248  0.5796
 3903SOL    MW415346   5.040   5.888   5.207  0.0967 -0.2127 -0.3510
 3904SOL     OW15347   3.758   0.242   1.962 -0.2774 -0.4068 -0.0032
 3904SOL    HW215348   3.707   0.278   1.890 -0.7983  0.2291  0.6704
 3904SOL    HW315349   3.848   0.243   1.931 -0.3615  0.8713 -0.2514
 3904SOL    MW415350   3.763   0.247   1.948 -0.5633 -0.3285 -0.2116
 3905SOL     OW15351   6.175   4.963   1.648 -0.0973  0.1001 -0.3242
 3905SOL    HW215352   6.080   4.963   1.643 -0.1548  1.9151 -0.1675
 3905SOL    HW315353   6.201   5.041   1.600  1.1686  0.6979  1.2307
 3905SOL    MW415354   6.166   4.973   1.641 -0.5623 -0.1953  0.0443
 3906SOL     OW15355   4.326   5.021   3.551  0.4411  0.2650  0.3615
 3906SOL    HW215356   4.320   5.103   3.601 -0.9571 -0.0049  0.6542
 3906SOL    HW315357   4.258   4.965   3.588 -0.7920  0.1257 -1.9614
 3906SOL    MW415358   4.316   5.025   3.563 -0.2927  0.2079 -0.0847
 3907SOL     OW15359   0.153   0.275   1.088 -0.1294  0.2219 -0.0791
 3907SOL    HW215360   0.204   0.220   1.147  2.1035 -0.1231 -2.1922
 3907SOL    HW315361   0.183   0.364   1.107 -0.7117  0.3063  0.4839
 3907SOL    MW415362   0.164   0.280   1.098 -0.0146  1.0649  0.1280
 3908SOL     OW15363   0.424   2.862   0.307 -0.6288  0.1210  0.2096
 3908SOL    HW215364   0.417   2.937   0.249  0.2363 -1.2449 -1.7654
 3908SOL    HW315365   0.354   2.803   0.279 -0.3256 -0.4838  0.7032
 3908SOL    MW415366   0.414   2.864   0.296  0.5580 -0.3627  0.0358
 3909SOL     OW15367   5.867   5.305   6.305 -0.0593 -0.2255 -0.2970
 3909SOL    HW215368   5.937   5.278   6.246 -0.4198 -2.8489  0.3730
 3909SOL    HW315369   5.841   5.225   6.351 -2.7679  0.8715  0.2782
 3909SOL    MW415370   5.873   5.291   6.304  0.0060  0.3931  0.8984
 3910SOL     OW15371   5.466   3.370   4.158  0.2401 -0.0055  0.5304
 3910SOL    HW215372   5.387   3.423   4.151 -0.5321 -1.2772 -0.6615
 3910SOL    HW315373   5.441   3.298   4.215  0.5295 -0.4162  0.1422
 3910SOL    MW415374   5.452   3.368   4.165 -0.6641  0.2892  0.0580
 3911SOL     OW15375   5.444   5.299   2.422 -0.2333  0.1976 -0.4705
 3911SOL    HW215376   5.452   5.334   2.333  2.6828 -0.6425 -0.6334
 3911SOL    HW315377   5.372   5.348   2.461 -0.5981  1.6381 -2.7991
 3911SOL    MW415378   5.436   5.310   2.416 -0.0693 -0.2028  0.3251
 3912SOL     OW15379   1.265   0.354   3.873  0.1095  0.0197  0.2511
 3912SOL    HW215380   1.191   0.398   3.832  0.3404 -0.8540 -1.1809
 3912SOL    HW315381   1.338   0.416   3.861 -0.2688  0.6805  1.2563
 3912SOL    MW415382   1.265   0.368   3.866  0.4271  0.1895  0.3555
 3913SOL     OW15383   0.295   0.364   5.782  0.0034  0.1485  0.4176
 3913SOL    HW215384   0.310   0.278   5.744  0.4825  0.6446 -0.5634
 3913SOL    HW315385   0.213   0.355   5.831 -0.2596 -0.7103 -0.1544
 3913SOL    MW415386   0.286   0.352   5.783  0.6818 -0.3634  0.7495
 3914SOL     OW15387   6.038   3.964   3.552  0.1688  0.3951 -0.0551
 3914SOL    HW215388   5.944   3.952   3.560  0.3689 -0.9941  0.4944
 3914SOL    HW315389   6.074   3.876   3.561  1.4821  0.8129 -0.8947
 3914SOL    MW415390   6.030   3.951   3.554  0.0282  0.2195 -0.3062
 3915SOL     OW15391   4.977   3.553   3.159  0.0449  0.2294  0.1455
 3915SOL    HW215392   4.926   3.503   3.223  0.1334  0.1600  0.1628
 3915SOL    HW315393   4.916   3.619   3.126 -0.5263 -0.8100 -0.9604
 3915SOL    MW415394   4.962   3.555   3.163  0.1536  0.2829  0.0887
 3916SOL     OW15395   4.408   1.499   4.889 -0.1497  0.0113  0.0332
 3916SOL    HW215396   4.454   1.420   4.858  2.1159  0.6363  1.6036
 3916SOL    HW315397   4.449   1.571   4.840  0.1239  0.5110  0.9700
 3916SOL    MW415398   4.420   1.498   4.878 -0.1430  0.0293  0.2694
 3917SOL     OW15399   5.435   4.252   5.056 -0.1967  0.0423  0.1092
 3917SOL    HW215400   5.461   4.328   5.004  0.9458 -0.8359 -0.6573
 3917SOL    HW315401   5.339   4.254   5.054 -0.1964  0.3945 -1.5439
 3917SOL    MW415402   5.426   4.262   5.049 -0.0264  0.1086  0.7574
 3918SOL     OW15403   0.978   3.141   1.661 -0.2773  0.3071  0.2357
 3918SOL    HW215404   1.017   3.089   1.732 -0.6429 -0.1363  0.1179
 3918SOL    HW315405   0.936   3.077   1.604 -1.4583  0.7830  0.5300
 3918SOL    MW415406   0.978   3.126   1.663 -0.0205 -0.0033 -0.0348
 3919SOL     OW15407   1.723   3.465   1.408  0.2602 -0.4892 -0.3569
 3919SOL    HW215408   1.792   3.466   1.342  1.4097 -1.1090  0.7881
 3919SOL    HW315409   1.722   3.374   1.440 -0.7855 -0.3829 -0.0382
 3919SOL    MW415410   1.732   3.453   1.404  0.1759 -0.9145 -0.3372
 3920SOL     OW15411   3.974   1.422   4.849 -0.3040 -0.1568 -0.1000
 3920SOL    HW215412   4.030   1.352   4.815  0.6195  0.2651  0.5341
 3920SOL    HW315413   4.027   1.501   4.841 -1.7905  0.7385 -2.0159
 3920SOL    MW415414   3.988   1.423   4.844 -0.0495 -0.3228 -0.1249
 3921SOL     OW15415   3.367   4.332   5.501 -0.5233  0.8565 -0.3223
 3921SOL    HW215416   3.292   4.290   5.544 -1.4292  1.8798 -0.8593
 3921SOL    HW315417   3.342   4.337   5.409  0.2134  1.1831 -0.5071
 3921SOL    MW415418   3.354   4.327   5.494  0.0394 -0.2295 -0.1485
 3922SOL     OW15419   0.552   2.784   0.552 -0.3621  0.3089 -0.1021
 3922SOL    HW215420   0.503   2.815   0.476  1.9556 -1.2712 -2.3730
 3922SOL    HW315421   0.600   2.862   0.582  1.1912  0.3215 -2.3514
 3922SOL    MW415422   0.552   2.799   0.546 -0.1885  0.6481  0.0859
 3923SOL     OW15423   4.015   1.552   1.589  0.1202  0.2018  0.1842
 3923SOL    HW215424   3.957   1.607   1.535 -0.4796  1.0454  1.6077
 3923SOL    HW315425   3.958   1.521   1.660  1.2017  0.3068  1.1182
 3923SOL    MW415426   4.000   1.556   1.591  0.1938  0.3504 -0.2173
 3924SOL     OW15427   5.618   6.403   1.846  0.0634  0.6242 -0.5813
 3924SOL    HW215428   5.654   6.489   1.825  0.6910  0.2776 -0.9608
 3924SOL    HW315429   5.684   6.361   1.900 -0.0169  0.1942 -0.8055
 3924SOL    MW415430   5.631   6.409   1.850  0.0223  0.2210  0.0716
 3925SOL     OW15431   2.118   6.414   1.401 -0.2662  0.0334  0.0847
 3925SOL    HW215432   2.168   6.485   1.361 -0.8341  0.1492 -0.4387
 3925SOL    HW315433   2.112   6.347   1.333  0.9010 -0.8612  0.8172
 3925SOL    MW415434   2.124   6.414   1.387  0.0448  0.3735  0.4420
 3926SOL     OW15435   5.432   2.809   1.124 -0.2729  0.3477 -0.2575
 3926SOL    HW215436   5.453   2.809   1.031 -0.1139 -1.1765 -0.2484
 3926SOL    HW315437   5.458   2.722   1.155 -0.8523  0.6206  1.0905
 3926SOL    MW415438   5.438   2.797   1.116 -0.3684  0.3013  0.2053
 3927SOL     OW15439   0.498   2.657   2.479 -0.2448  0.3872  0.1816
 3927SOL    HW215440   0.580   2.685   2.436 -0.9787  1.1668 -0.7723
 3927SOL    HW315441   0.447   2.737   2.485 -0.9199 -0.0888  0.8197
 3927SOL    MW415442   0.502   2.671   2.474  0.0379 -0.4560 -0.5505
 3928SOL     OW15443   0.414   4.943   4.660  0.6045  0.0488  0.6093
 3928SOL    HW215444   0.400   5.014   4.597 -1.3288  1.9360  3.0048
 3928SOL    HW315445   0.507   4.921   4.651  0.7315  1.2457 -1.8081
 3928SOL    MW415446   0.425   4.950   4.650  0.3001  0.1484  0.0562
 3929SOL     OW15447   4.173   1.878   2.478 -0.0928 -0.4823 -0.1911
 3929SOL    HW215448   4.185   1.963   2.522  0.6181 -0.7155  0.0822
 3929SOL    HW315449   4.193   1.813   2.545 -0.3099 -0.8675 -0.4950
 3929SOL    MW415450   4.177   1.881   2.492 -0.3235 -0.7012  0.3656
 3930SOL     OW15451   6.319   6.224   5.151 -0.9839  0.0716  0.0113
 3930SOL    HW215452   6.295   6.131   5.154 -1.3250  0.1512 -0.3051
 3930SOL    HW315453   6.338   6.246   5.243 -1.3474 -0.1914  0.1521
 3930SOL    MW415454   6.318   6.214   5.164 -0.0249 -0.4498 -0.4060
 3931SOL     OW15455   0.279   5.735   0.416 -0.5247 -0.0703  0.6802
 3931SOL    HW215456   0.314   5.797   0.480  0.2026 -1.3301  1.5710
 3931SOL    HW315457   0.212   5.686   0.464  0.0815 -1.0853  0.5283
 3931SOL    MW415458   0.275   5.737   0.431  0.6344  0.9417  0.4416
 3932SOL     OW15459   1.353   3.154   2.926 -0.1733 -0.2181 -0.2396
 3932SOL    HW215460   1.403   3.097   2.984 -1.3321 -1.3635 -0.3151
 3932SOL    HW315461   1.268   3.111   2.917 -2.4070  3.1279  2.3464
 3932SOL    MW415462   1.348   3.141   2.933 -0.0632 -0.1685 -0.1030
 3933SOL     OW15463   5.718   1.809   3.760 -0.1347 -0.7729 -0.4742
 3933SOL    HW215464   5.701   1.901   3.741  1.3754 -0.6560 -1.3446
 3933SOL    HW315465   5.691   1.798   3.852  1.1019  0.9043  0.1186
 3933SOL    MW415466   5.712   1.820   3.770 -1.0204  0.4155  0.0108
 3934SOL     OW15467   0.352   4.596   4.832 -0.2732  0.2811  0.1994
 3934SOL    HW215468   0.355   4.636   4.745 -0.8826  0.1900  0.1301
 3934SOL    HW315469   0.428   4.538   4.835 -0.9270 -0.6736 -0.7579
 3934SOL    MW415470   0.362   4.594   4.821 -0.7400  0.2695 -0.7290
 3935SOL     OW15471   4.951   0.080   0.251 -0.1641 -0.1559 -0.0575
 3935SOL    HW215472   5.026   0.130   0.285 -0.1192  0.0820 -0.5014
 3935SOL    HW315473   4.943   0.108   0.160 -0.0922 -1.0133 -0.3403
 3935SOL    MW415474   4.960   0.090   0.244  0.0446  0.5787 -0.2918
 3936SOL     OW15475   6.073   2.194   5.920  0.0725 -0.3618  0.6963
 3936SOL    HW215476   6.000   2.252   5.900 -0.0129 -1.1617 -1.6056
 3936SOL    HW315477   6.041   2.106   5.902  1.0760 -0.8932  1.3557
 3936SOL    MW415478   6.059   2.190   5.915  0.5184 -0.0666  0.2885
 3937SOL     OW15479   5.309   3.681   6.157  0.0263 -0.1535  0.1858
 3937SOL    HW215480   5.255   3.689   6.236 -0.2298  0.0866 -0.0114
 3937SOL    HW315481   5.302   3.767   6.115  2.2254  0.6243  1.2265
 3937SOL    MW415482   5.301   3.694   6.162 -0.2122  0.0516  0.0929
 3938SOL     OW15483   0.988   0.899   5.178  0.0892 -0.0153  0.1335
 3938SOL    HW215484   1.010   0.987   5.147  3.7418 -0.6048  0.6751
 3938SOL    HW315485   1.061   0.844   5.149 -2.6173 -3.2229 -1.2356
 3938SOL    MW415486   1.000   0.903   5.170 -0.5409 -0.7199  0.3366
 3939SOL     OW15487   0.673   2.538   1.146  0.0674  0.1998 -0.4042
 3939SOL    HW215488   0.707   2.450   1.159  0.2248  0.0012 -1.9325
 3939SOL    HW315489   0.711   2.566   1.063 -0.0198  1.6973  0.0256
 3939SOL    MW415490   0.682   2.530   1.137 -0.2495  0.0103 -0.0888
 3940SOL     OW15491   5.196   4.022   5.727 -0.6245 -0.2256  0.3048
 3940SOL    HW215492   5.262   3.954   5.717 -0.6715 -0.3559  0.8567
 3940SOL    HW315493   5.113   3.974   5.732 -0.5800 -0.1996  1.6022
 3940SOL    MW415494   5.194   4.007   5.726 -0.4471  0.2593 -0.5438
 3941SOL     OW15495   3.212   4.775   3.772  0.4321  0.1447  0.4151
 3941SOL    HW215496   3.254   4.776   3.686  0.3203 -1.4906  0.3154
 3941SOL    HW315497   3.281   4.746   3.832  0.2609  0.3830  0.7310
 3941SOL    MW415498   3.227   4.772   3.769 -0.2004 -0.0272 -0.0514
 3942SOL     OW15499   4.291   2.466   5.320 -0.1239 -0.3774 -0.0906
 3942SOL    HW215500   4.294   2.561   5.332 -0.0589 -0.4709  0.6485
 3942SOL    HW315501   4.344   2.450   5.242 -1.4597  0.3531 -1.2120
 3942SOL    MW415502   4.298   2.477   5.311  0.1960 -0.1993  0.4021
 3943SOL     OW15503   1.831   3.589   0.204 -0.5582  0.8580 -0.6424
 3943SOL    HW215504   1.922   3.617   0.214 -0.1047  0.0525 -2.2956
 3943SOL    HW315505   1.831   3.530   0.129 -1.8541 -1.9250  1.3903
 3943SOL    MW415506   1.843   3.585   0.196  0.1138 -0.5204 -0.4441
 3944SOL     OW15507   2.292   5.692   0.522 -0.1505 -0.8484  0.7792
 3944SOL    HW215508   2.278   5.757   0.591 -2.6634 -0.9393  0.4662
 3944SOL    HW315509   2.290   5.743   0.441  0.3979 -1.0304  0.6478
 3944SOL    MW415510   2.289   5.707   0.521 -0.0293 -0.3540 -0.3991
 3945SOL     OW15511   6.386   0.385   0.372 -0.2096 -0.6827  0.3656
 3945SOL    HW215512   6.315   0.322   0.382 -1.2977  0.0624 -1.8644
 3945SOL    HW315513   6.408   0.381   0.279  1.7603  0.0912  0.7538
 3945SOL    MW415514   6.380   0.376   0.361  0.0684  0.7901  0.1592
 3946SOL     OW15515   0.457   2.987   3.946  0.3175  0.0241 -0.1747
 3946SOL    HW215516   0.457   2.923   3.874  1.3057  1.2841 -1.3446
 3946SOL    HW315517   0.368   2.983   3.981 -0.4341 -0.0959 -1.9725
 3946SOL    MW415518   0.445   2.978   3.941  0.6101  0.0509  0.0211
 3947SOL     OW15519   5.209   2.925   0.363  0.2564 -0.3521 -0.0486
 3947SOL    HW215520   5.170   2.877   0.437  1.0062  1.1307  1.3800
 3947SOL    HW315521   5.146   2.994   0.343  0.5561 -0.0653 -0.0233
 3947SOL    MW415522   5.196   2.928   0.370  0.4706 -0.0961 -0.8303
 3948SOL     OW15523   1.116   0.994   3.557 -0.1609 -0.0500  0.1334
 3948SOL    HW215524   1.206   0.968   3.538 -0.0291  0.4841  0.0084
 3948SOL    HW315525   1.093   0.947   3.637  0.9512  1.4165  1.3721
 3948SOL    MW415526   1.125   0.984   3.565 -0.1522 -0.1816 -0.0378
 3949SOL     OW15527   1.922   1.397   6.217 -0.1793  0.5699  0.1786
 3949SOL    HW215528   1.979   1.351   6.155 -0.1521  2.6663 -1.4464
 3949SOL    HW315529   1.981   1.456   6.264 -0.3665 -0.3167  1.5654
 3949SOL    MW415530   1.938   1.399   6.215 -0.4249 -0.2168  0.3820
 3950SOL     OW15531   0.148   1.655   1.208  0.1244 -0.4807 -0.3884
 3950SOL    HW215532   0.165   1.747   1.228 -0.0413 -0.7116  0.9243
 3950SOL    HW315533   0.092   1.657   1.131 -4.0137  0.7957  2.3366
 3950SOL    MW415534   0.143   1.668   1.200 -0.1534  0.2543  0.0309
 3951SOL     OW15535   0.033   5.925   4.274  0.1700  0.6168 -0.1679
 3951SOL    HW215536   0.006   5.847   4.323 -1.5010  1.8416  0.9610
 3951SOL    HW315537   0.120   5.946   4.309  0.1562 -0.0967  0.3152
 3951SOL    MW415538   0.041   5.917   4.285 -0.7097  0.1214  0.6865
 3952SOL     OW15539   6.003   2.667   0.406  0.1572  0.0660 -0.6247
 3952SOL    HW215540   5.976   2.675   0.498  0.5927  1.9527 -0.6228
 3952SOL    HW315541   6.087   2.620   0.410  0.1534  0.0929 -0.0706
 3952SOL    MW415542   6.011   2.662   0.419  0.3667  0.0192 -0.4708
 3953SOL     OW15543   0.213   3.847   6.177 -0.2456 -0.3158 -0.0664
 3953SOL    HW215544   0.265   3.811   6.106  0.8890  2.4776 -0.7757
 3953SOL    HW315545   0.154   3.909   6.135  0.3531  1.3084  1.3611
 3953SOL    MW415546   0.212   3.850   6.162  0.4889 -0.1692 -0.0732
 3954SOL     OW15547   4.668   4.773   4.211 -0.2455 -0.0956  0.2764
 3954SOL    HW215548   4.714   4.760   4.128 -0.9990 -1.4173  0.0446
 3954SOL    HW315549   4.578   4.793   4.187 -0.0155  1.6784  0.7521
 3954SOL    MW415550   4.662   4.774   4.197 -0.2420  0.5958 -0.2250
 3955SOL     OW15551   3.807   2.507   0.433 -0.1201  0.6777  0.1445
 3955SOL    HW215552   3.815   2.578   0.496 -3.1510 -0.1002  1.5824
 3955SOL    HW315553   3.713   2.489   0.428  0.2313 -1.0621 -2.6593
 3955SOL    MW415554   3.796   2.514   0.441 -0.4738  0.3186  0.4297
 3956SOL     OW15555   2.694   6.208   3.078 -0.0201 -0.1843  0.5289
 3956SOL    HW215556   2.755   6.249   3.139 -1.3581  0.7063  1.3111
 3956SOL    HW315557   2.744   6.199   2.996  1.3964 -0.2368  1.3607
 3956SOL    MW415558   2.709   6.212   3.075  0.3223 -0.0849  0.3274
 3957SOL     OW15559   5.402   1.665   0.236  0.3571 -0.3777 -0.3317
 3957SOL    HW215560   5.375   1.573   0.239 -0.7602 -0.1787 -2.5414
 3957SOL    HW315561   5.482   1.664   0.184 -0.4224  0.0315 -1.5608
 3957SOL    MW415562   5.409   1.652   0.230 -0.1447  0.4810 -0.0898
 3958SOL     OW15563   3.923   0.751   3.563  0.0969  0.2895  0.3470
 3958SOL    HW215564   3.966   0.790   3.486 -0.0249 -0.8935 -0.3503
 3958SOL    HW315565   3.893   0.666   3.532 -0.9897  0.2769  1.4025
 3958SOL    MW415566   3.925   0.745   3.548 -0.5188 -0.6197 -0.4062
 3959SOL     OW15567   4.803   3.973   3.600 -0.0405 -0.0404  0.4919
 3959SOL    HW215568   4.869   3.937   3.660 -0.9530  0.8467  2.1057
 3959SOL    HW315569   4.850   4.040   3.551 -0.0375  1.8163  2.8400
 3959SOL    MW415570   4.818   3.977   3.602  0.0082 -0.2106 -0.0418
 3960SOL     OW15571   3.516   5.116   5.427 -0.1643  0.1076  0.6683
 3960SOL    HW215572   3.595   5.166   5.405 -0.6297  0.2133 -0.9303
 3960SOL    HW315573   3.549   5.029   5.451  0.5342  0.6609  1.8020
 3960SOL    MW415574   3.531   5.111   5.427 -0.9647  0.8421 -0.6766
 3961SOL     OW15575   3.792   5.915   4.766  0.1571 -0.8920  0.4269
 3961SOL    HW215576   3.731   5.988   4.757  1.2541 -0.0023 -0.1626
 3961SOL    HW315577   3.828   5.925   4.854  1.0652 -0.0734 -0.0181
 3961SOL    MW415578   3.789   5.926   4.776  0.0359 -0.1679  0.5563
 3962SOL     OW15579   5.576   0.972   1.476 -0.6826  0.4119 -0.3153
 3962SOL    HW215580   5.582   1.010   1.563  0.0393  0.2069 -0.2708
 3962SOL    HW315581   5.591   0.878   1.489  1.4524  0.6236 -0.8753
 3962SOL    MW415582   5.579   0.964   1.489 -0.0576 -0.0988  0.0935
 3963SOL     OW15583   1.826   3.864   4.606  0.3372 -0.0125 -0.1555
 3963SOL    HW215584   1.746   3.813   4.617  0.2033  0.2434  0.0694
 3963SOL    HW315585   1.893   3.799   4.585  0.2813 -0.3473  0.6694
 3963SOL    MW415586   1.824   3.849   4.605 -0.4652 -0.0569  0.0104
 3964SOL     OW15587   0.852   0.483   4.146  0.5486 -0.1431  0.5352
 3964SOL    HW215588   0.842   0.453   4.055 -0.6947 -0.4940  0.7827
 3964SOL    HW315589   0.780   0.545   4.159  0.5243 -0.3429  1.3896
 3964SOL    MW415590   0.841   0.487   4.135 -0.3216  0.5337 -0.4098
 3965SOL     OW15591   0.541   1.294   1.633  0.0411 -0.0742  0.1524
 3965SOL    HW215592   0.556   1.208   1.596 -2.3782 -1.5246  2.2382
 3965SOL    HW315593   0.603   1.300   1.707 -0.0592 -0.1951  0.2461
 3965SOL    MW415594   0.551   1.284   1.638  0.2718  0.4917  0.1939
 3966SOL     OW15595   3.214   2.450   6.276  0.3275 -0.2979 -0.2310
 3966SOL    HW215596   3.291   2.394   6.287 -0.2538 -1.0726 -0.0320
 3966SOL    HW315597   3.190   2.441   6.184  0.5271  0.0271 -0.3186
 3966SOL    MW415598   3.221   2.441   6.266 -0.7444  0.0446  0.0067
 3967SOL     OW15599   3.199   1.979   4.924  0.2145  0.2514  0.4209
 3967SOL    HW215600   3.289   1.991   4.955  0.7765  0.0454 -1.0333
 3967SOL    HW315601   3.187   1.885   4.920 -0.9656  0.2155  2.9482
 3967SOL    MW415602   3.209   1.968   4.928 -0.2091  0.4195 -0.2096
 3968SOL     OW15603   2.742   2.159   3.680  0.5447  0.5819  0.1887
 3968SOL    HW215604   2.797   2.142   3.604  1.6127  2.0313  0.5986
 3968SOL    HW315605   2.695   2.239   3.659 -1.1870 -0.4159  0.0095
 3968SOL    MW415606   2.743   2.167   3.668  0.3610  0.0407  0.8311
 3969SOL     OW15607   4.842   0.717   4.702 -0.0445  0.3675  0.5393
 3969SOL    HW215608   4.900   0.694   4.775  0.6733 -0.9460 -0.3875
 3969SOL    HW315609   4.883   0.792   4.661  0.3540  0.1948  0.6167
 3969SOL    MW415610   4.855   0.724   4.706  0.4926  0.1278 -0.0603
 3970SOL     OW15611   2.415   5.285   5.304 -0.1103  0.4923  0.3614
 3970SOL    HW215612   2.413   5.260   5.397  0.2011  0.1883  0.2872
 3970SOL    HW315613   2.508   5.283   5.280 -0.3387 -1.9728 -0.6234
 3970SOL    MW415614   2.427   5.282   5.313  0.3398  0.4224 -0.8005
 3971SOL     OW15615   3.251   2.505   3.835  1.0132  0.4977  0.1551
 3971SOL    HW215616   3.204   2.461   3.764 -2.8538  0.6277  2.3694
 3971SOL    HW315617   3.268   2.593   3.802  0.0491  0.3099 -0.8920
 3971SOL    MW415618   3.247   2.511   3.821  0.0818 -0.1835 -0.3430
 3972SOL     OW15619   4.734   5.977   1.916 -0.0963  0.4479  0.4739
 3972SOL    HW215620   4.766   5.923   1.844  1.1954 -0.2988  1.5618
 3972SOL    HW315621   4.763   5.932   1.995 -1.3384  1.3296  1.4821
 3972SOL    MW415622   4.742   5.964   1.917  0.4274  0.4618 -0.4339
 3973SOL     OW15623   4.865   3.765   1.120  0.2004  0.2741  0.3134
 3973SOL    HW215624   4.952   3.802   1.110 -0.7611  2.0107 -3.4175
 3973SOL    HW315625   4.865   3.687   1.064 -0.6073  0.2948  0.2660
 3973SOL    MW415626   4.876   3.760   1.111 -0.0575 -0.8053 -0.1750
 3974SOL     OW15627   1.763   5.449   2.831 -0.5251  0.4792 -0.2012
 3974SOL    HW215628   1.812   5.529   2.849 -0.7177  0.6143 -0.2708
 3974SOL    HW315629   1.678   5.480   2.801 -0.1220  0.2710 -1.6176
 3974SOL    MW415630   1.758   5.464   2.829  0.2578  0.3823  0.6181
 3975SOL     OW15631   2.690   1.910   2.307  0.5580  0.5374  0.9277
 3975SOL    HW215632   2.731   1.925   2.222  0.8952 -1.0680  0.7896
 3975SOL    HW315633   2.614   1.968   2.307  0.2972  0.2311 -0.6567
 3975SOL    MW415634   2.685   1.920   2.296  0.3011  0.3506 -0.2488
 3976SOL     OW15635   2.879   0.355   1.405  0.7562  0.0932 -0.2687
 3976SOL    HW215636   2.819   0.295   1.359  0.7299 -0.2536  0.2160
 3976SOL    HW315637   2.923   0.402   1.335 -0.2451  0.5128 -0.6406
 3976SOL    MW415638   2.877   0.353   1.390  0.3804  0.4849  0.2661
 3977SOL     OW15639   3.819   1.422   2.556  0.4613  0.4751 -0.3453
 3977SOL    HW215640   3.855   1.510   2.543 -1.9444  1.5272 -0.2886
 3977SOL    HW315641   3.788   1.396   2.470  0.8411 -0.1910 -0.2875
 3977SOL    MW415642   3.820   1.431   2.543  0.1443  0.5165  0.1179
 3978SOL     OW15643   5.899   5.427   2.691  0.3770  0.8011 -0.4980
 3978SOL    HW215644   5.959   5.357   2.718 -0.7158  0.2116  0.4769
 3978SOL    HW315645   5.898   5.487   2.765 -0.9562  0.3094 -0.0905
 3978SOL    MW415646   5.907   5.426   2.704  0.4689 -0.5547  0.1757
 3979SOL     OW15647   5.672   2.322   4.746 -0.2847 -0.1355  0.2686
 3979SOL    HW215648   5.677   2.262   4.671 -0.9964 -0.3533  0.3878
 3979SOL    HW315649   5.686   2.409   4.708 -2.0146 -0.0862 -0.3591
 3979SOL    MW415650   5.675   2.326   4.731  0.5419 -0.1109 -1.0624
 3980SOL     OW15651   4.166   4.055   0.491  0.0372  0.2701 -0.0061
 3980SOL    HW215652   4.162   4.100   0.576 -0.6098 -0.9449  0.6349
 3980SOL    HW315653   4.258   4.056   0.468  0.0342  2.0426 -0.0974
 3980SOL    MW415654   4.177   4.061   0.500  0.2231  0.0970 -0.0793
 3981SOL     OW15655   4.470   3.652   4.385  0.5283  0.0760 -0.4483
 3981SOL    HW215656   4.494   3.713   4.454  0.6633  2.1283 -2.2194
 3981SOL    HW315657   4.554   3.623   4.348  0.4308  0.1128 -0.6986
 3981SOL    MW415658   4.485   3.656   4.389  0.1975  0.4763 -0.5513
 3982SOL     OW15659   2.699   5.290   2.743 -0.2779  0.3241 -0.4289
 3982SOL    HW215660   2.714   5.219   2.680 -0.2152 -0.1837  0.1551
 3982SOL    HW315661   2.617   5.267   2.786 -1.1093  1.4362 -1.3407
 3982SOL    MW415662   2.690   5.278   2.740  0.2716 -0.2380 -0.6054
 3983SOL     OW15663   4.048   1.308   0.851  0.0196 -0.1584 -0.2257
 3983SOL    HW215664   4.105   1.244   0.893 -1.2730 -0.4115  1.2280
 3983SOL    HW315665   4.031   1.374   0.919  0.0822  0.9271 -1.2221
 3983SOL    MW415666   4.053   1.308   0.865 -0.3403  0.5668  0.5473
 3984SOL     OW15667   4.273   4.881   5.053 -0.0112 -0.0115  0.8030
 3984SOL    HW215668   4.292   4.972   5.031  0.4966 -0.2029  0.4378
 3984SOL    HW315669   4.330   4.829   4.996 -1.2824 -0.5946  0.0021
 3984SOL    MW415670   4.283   4.886   5.043 -0.3387 -0.0052  0.7484
 3985SOL     OW15671   1.793   3.046   2.346 -0.0507  0.1634 -0.1212
 3985SOL    HW215672   1.888   3.053   2.352  0.1220 -0.4351 -1.7508
 3985SOL    HW315673   1.762   3.074   2.432  1.6186 -0.1503  0.6284
 3985SOL    MW415674   1.802   3.051   2.358 -0.0406  0.3972 -0.0762
 3986SOL     OW15675   2.655   2.791   0.269 -0.2392 -0.1174 -0.5214
 3986SOL    HW215676   2.654   2.712   0.324  0.0968  0.0348 -0.2886
 3986SOL    HW315677   2.661   2.758   0.180 -0.1772 -0.3578 -0.4299
 3986SOL    MW415678   2.656   2.776   0.265  0.0414 -0.2794  0.9481
 3987SOL     OW15679   5.909   4.216   6.007 -0.2902  0.6640 -0.4385
 3987SOL    HW215680   5.917   4.228   5.912 -0.8373 -1.6107 -0.8394
 3987SOL    HW315681   5.844   4.146   6.017 -0.9403  1.4720  1.6780
 3987SOL    MW415682   5.901   4.208   5.996 -0.4931  0.7882  0.1730
 3988SOL     OW15683   4.396   3.749   2.564 -0.4290  0.2772  0.0524
 3988SOL    HW215684   4.377   3.693   2.639  1.3954 -0.7129 -0.1707
 3988SOL    HW315685   4.379   3.694   2.488 -1.1244  0.8896 -0.2413
 3988SOL    MW415686   4.391   3.734   2.564  0.5981 -0.3871  0.6987
 3989SOL     OW15687   4.036   4.541   0.093 -0.0711 -0.4609 -0.1602
 3989SOL    HW215688   4.111   4.572   0.142  0.6531 -1.0946 -0.8404
 3989SOL    HW315689   4.023   4.606   0.024 -1.3310  0.6379  1.0490
 3989SOL    MW415690   4.044   4.553   0.090 -0.2897 -0.6638 -0.2471
 3990SOL     OW15691   4.796   0.342   0.955 -0.2534  0.0637 -0.4455
 3990SOL    HW215692   4.713   0.358   0.911  0.3576 -0.8370 -2.0010
 3990SOL    HW315693   4.848   0.421   0.940 -0.4605  0.2218 -0.3316
 3990SOL    MW415694   4.792   0.355   0.947  0.3116  0.2845 -0.4667
 3991SOL     OW15695   0.362   5.577   4.433 -0.3617 -0.2046 -0.1853
 3991SOL    HW215696   0.432   5.603   4.493 -0.5786  2.4354 -0.9443
 3991SOL    HW315697   0.407   5.526   4.365  0.9445  1.7589 -0.8662
 3991SOL    MW415698   0.377   5.573   4.432 -0.9145  0.3208 -0.4844
 3992SOL     OW15699   4.055   4.021   4.399  0.4518 -0.1590  0.1021
 3992SOL    HW215700   4.148   4.018   4.375  0.4754 -2.7215  0.1795
 3992SOL    HW315701   4.045   3.949   4.463 -1.5139  0.2952  0.3760
 3992SOL    MW415702   4.066   4.011   4.405 -0.1035 -0.0267 -0.0071
 3993SOL     OW15703   1.390   0.049   5.878 -0.1783  0.0804  0.3516
 3993SOL    HW215704   1.296   0.059   5.896  0.1672  1.3023  1.5935
 3993SOL    HW315705   1.394   0.024   5.786 -1.7613 -0.9573  0.5174
 3993SOL    MW415706   1.378   0.047   5.868 -0.1212 -0.7112 -0.0820
 3994SOL     OW15707   6.009   1.419   5.450  0.2703 -0.0261  0.3221
 3994SOL    HW215708   5.966   1.481   5.392 -0.7607 -0.9418  0.0980
 3994SOL    HW315709   5.986   1.333   5.417  1.1941 -0.5595  0.9896
 3994SOL    MW415710   6.001   1.416   5.438 -0.0262  0.7064  0.1843
 3995SOL     OW15711   4.473   5.543   2.375  0.3374 -0.6147 -0.2848
 3995SOL    HW215712   4.382   5.515   2.380 -0.1240  0.4254 -1.9989
 3995SOL    HW315713   4.476   5.623   2.428  0.2391 -0.5897 -0.3166
 3995SOL    MW415714   4.461   5.550   2.383  0.3572  0.2317  0.2593
 3996SOL     OW15715   4.773   0.304   2.013 -0.2353  0.0132 -0.1377
 3996SOL    HW215716   4.682   0.334   2.019  0.0464  0.5875  1.6328
 3996SOL    HW315717   4.769   0.211   2.033 -0.3528  0.1723  0.5778
 3996SOL    MW415718   4.760   0.296   2.016  0.2298 -0.5720 -0.6490
 3997SOL     OW15719   3.224   3.666   3.196 -0.7435  0.1410  0.1507
 3997SOL    HW215720   3.213   3.674   3.102 -1.1990 -2.1117 -0.0481
 3997SOL    HW315721   3.159   3.601   3.223 -1.6220  1.7742  2.2851
 3997SOL    MW415722   3.214   3.658   3.187  0.1710 -0.3212 -0.5776
 3998SOL     OW15723   1.031   5.060   2.803  0.6957 -0.0534 -0.3215
 3998SOL    HW215724   1.016   5.033   2.712 -0.1862  2.1190 -0.8931
 3998SOL    HW315725   1.055   5.152   2.797  0.3757  0.2085  1.6665
 3998SOL    MW415726   1.032   5.068   2.790 -0.1768  0.2893  0.0543
 3999SOL     OW15727   0.479   3.164   4.501 -0.4047 -0.5542  0.2053
 3999SOL    HW215728   0.460   3.163   4.407 -0.8629 -2.2234  0.2880
 3999SOL    HW315729   0.572   3.188   4.506 -0.5810  0.3435 -0.6176
 3999SOL    MW415730   0.489   3.167   4.489  0.0378 -0.7517  0.1505
 4000SOL     OW15731   3.035   0.211   5.442  0.1798  0.0820 -0.5093
 4000SOL    HW215732   2.999   0.162   5.368 -0.2337 -1.2641  0.5344
 4000SOL    HW315733   2.974   0.285   5.453  0.4749  0.5310 -1.7364
 4000SOL    MW415734   3.022   0.215   5.434 -0.6671 -0.5208 -0.8056
 4001SOL     OW15735   1.427   4.929   4.853 -0.1424  0.1597  0.1350
 4001SOL    HW215736   1.439   4.933   4.948  0.7062  0.9265  0.0039
 4001SOL    HW315737   1.468   4.846   4.828 -0.5113 -0.1234  0.4522
 4001SOL    MW415738   1.434   4.918   4.863  0.2877  0.1872  0.0081
 4002SOL     OW15739   5.034   0.928   3.572 -0.0701 -0.5866 -0.3559
 4002SOL    HW215740   5.082   0.916   3.490 -1.2001 -1.5062 -0.9201
 4002SOL    HW315741   5.010   0.839   3.598  2.3285 -0.5743  2.2944
 4002SOL    MW415742   5.037   0.914   3.564 -0.5475  0.0664 -0.2868
 4003SOL     OW15743   2.732   1.734   3.461  0.4758 -0.2159  0.4627
 4003SOL    HW215744   2.693   1.737   3.374 -1.3808 -0.7635  1.2221
 4003SOL    HW315745   2.805   1.796   3.457  0.0973  0.1765 -1.3034
 4003SOL    MW415746   2.737   1.743   3.449 -0.1429  0.3909 -0.5011
 4004SOL     OW15747   5.935   2.484   1.069 -0.1021 -0.1974  0.0680
 4004SOL    HW215748   5.862   2.544   1.053  0.2635  0.2381  0.0227
 4004SOL    HW315749   6.010   2.541   1.086 -0.1621 -0.6191  1.9648
 4004SOL    MW415750   5.935   2.500   1.069 -0.0618  0.0452  0.5917
 4005SOL     OW15751   1.437   3.453   0.390 -0.5450 -0.0366  0.3386
 4005SOL    HW215752   1.512   3.430   0.444 -1.2800  0.8589  1.8149
 4005SOL    HW315753   1.373   3.384   0.407  0.0227 -0.9724 -1.1620
 4005SOL    MW415754   1.438   3.441   0.399  0.0738 -0.5145 -0.3698
 4006SOL     OW15755   6.033   4.494   0.528  0.6073 -0.0081 -0.0252
 4006SOL    HW215756   5.995   4.460   0.447  1.3750 -1.7888  0.3245
 4006SOL    HW315757   6.090   4.424   0.560  1.8244  1.3928  1.0593
 4006SOL    MW415758   6.036   4.481   0.522  0.8697 -0.0605 -0.6059
 4007SOL     OW15759   2.999   0.088   4.744 -0.2980 -0.1346 -0.3952
 4007SOL    HW215760   3.008   0.130   4.658  1.1342 -0.2257 -0.3004
 4007SOL    HW315761   2.904   0.090   4.761 -0.5093  0.7584 -1.5294
 4007SOL    MW415762   2.987   0.094   4.735  0.1399  0.9386  0.8411
 4008SOL     OW15763   4.473   0.167   4.631  0.3079  0.7316 -0.5863
 4008SOL    HW215764   4.538   0.112   4.674 -0.1866  0.0537 -0.6958
 4008SOL    HW315765   4.418   0.106   4.582  1.1945  1.5168 -2.6608
 4008SOL    MW415766   4.474   0.152   4.631 -0.0846  0.2681  0.1423
 4009SOL     OW15767   6.373   0.653   1.590 -0.8640 -0.0691  0.7335
 4009SOL    HW215768   6.429   0.618   1.658  1.3995  1.1641 -0.3904
 4009SOL    HW315769   6.385   0.594   1.515  0.0885  0.9459  0.0445
 4009SOL    MW415770   6.382   0.641   1.589  0.5540  0.1678 -0.0260
 4010SOL     OW15771   2.311   0.603   0.219  0.0236 -0.2226 -0.2730
 4010SOL    HW215772   2.337   0.626   0.308  1.1202  0.0323 -0.6462
 4010SOL    HW315773   2.250   0.530   0.230  1.2522 -1.1465  0.6148
 4010SOL    MW415774   2.306   0.596   0.232 -0.0120  0.1750 -0.0048
 4011SOL     OW15775   6.389   1.178   3.236  0.5938  0.3190 -0.4401
 4011SOL    HW215776   6.362   1.257   3.190  0.4974  0.9868  0.7425
 4011SOL    HW315777   6.482   1.191   3.254  0.5421  0.2391 -0.1067
 4011SOL    MW415778   6.398   1.190   3.232 -0.1335 -0.3540  1.0154
 4012SOL     OW15779   0.062   4.809   4.319 -0.7683  0.1128  0.2338
 4012SOL    HW215780   0.007   4.735   4.291 -2.4697  1.1943  0.5989
 4012SOL    HW315781   0.076   4.794   4.412 -0.9327  0.1361  0.2628
 4012SOL    MW415782   0.057   4.797   4.328  0.7210 -0.1883  0.6825
 4013SOL     OW15783   0.248   2.167   3.462  0.4371 -0.3666 -0.1367
 4013SOL    HW215784   0.264   2.126   3.547 -3.0137  1.6272  1.6962
 4013SOL    HW315785   0.322   2.226   3.449  0.9246 -0.5520  1.5973
 4013SOL    MW415786   0.260   2.169   3.471  0.0412 -0.2877  0.2694
 4014SOL     OW15787   5.446   4.761   0.731 -0.0567  0.0141  0.4203
 4014SOL    HW215788   5.501   4.691   0.696  0.9396  0.5243  0.9251
 4014SOL    HW315789   5.403   4.721   0.807 -1.0343 -0.6280 -0.4447
 4014SOL    MW415790   5.447   4.747   0.737 -0.1456 -0.1111 -0.6235
 4015SOL     OW15791   0.118   5.896   3.052 -0.0587 -0.9440 -0.1302
 4015SOL    HW215792   0.057   5.950   3.001 -1.3413 -1.4941  0.7785
 4015SOL    HW315793   0.084   5.899   3.141  1.5966 -0.8071  0.5270
 4015SOL    MW415794   0.106   5.904   3.057 -0.1311 -0.0193 -0.2668
 4016SOL     OW15795   1.370   4.572   3.767 -0.1670  0.3615 -0.2070
 4016SOL    HW215796   1.343   4.594   3.856  0.4375  2.7834 -0.5562
 4016SOL    HW315797   1.293   4.531   3.728 -0.0296 -1.9846  1.7652
 4016SOL    MW415798   1.356   4.569   3.773  0.7226 -0.3478 -0.0294
 4017SOL     OW15799   6.282   2.758   0.024 -0.5854 -0.0500 -0.0314
 4017SOL    HW215800   6.303   2.690   0.088 -1.5549  1.2727  1.7999
 4017SOL    HW315801   6.354   2.821   0.031 -1.4877  0.9165  1.0284
 4017SOL    MW415802   6.294   2.757   0.034 -0.1286  0.1568 -0.5053
 4018SOL     OW15803   3.436   2.258   5.150  0.6733 -0.4987  0.1073
 4018SOL    HW215804   3.382   2.322   5.104  1.2887 -0.5439 -0.7037
 4018SOL    HW315805   3.380   2.225   5.220 -0.7338 -1.2851 -1.3101
 4018SOL    MW415806   3.422   2.262   5.153  0.4286 -0.3873  0.3394
 4019SOL     OW15807   4.193   5.665   1.715 -0.1796  0.2964  0.5671
 4019SOL    HW215808   4.231   5.752   1.702  1.8638 -0.5795  0.2941
 4019SOL    HW315809   4.207   5.647   1.807 -0.5511  0.2332  0.6100
 4019SOL    MW415810   4.200   5.674   1.725 -0.6929  0.5372  0.1152
 4020SOL     OW15811   1.614   2.638   4.655  0.2168  0.0411  0.0084
 4020SOL    HW215812   1.544   2.673   4.599  0.2273  0.7976  0.4579
 4020SOL    HW315813   1.616   2.544   4.634 -2.1322 -0.3740  1.2165
 4020SOL    MW415814   1.605   2.630   4.645  0.4904 -0.5178  0.1457
 4021SOL     OW15815   4.264   3.686   4.081  0.1931 -0.4578  0.1168
 4021SOL    HW215816   4.328   3.651   4.144 -1.1116 -0.3522  1.5515
 4021SOL    HW315817   4.268   3.781   4.094  0.6715 -0.3542 -0.7353
 4021SOL    MW415818   4.273   3.694   4.091 -0.2165  0.5418 -0.0395
 4022SOL     OW15819   2.027   0.628   1.301  0.2995 -0.7364 -0.5240
 4022SOL    HW215820   2.015   0.556   1.363  3.2585 -1.4013 -0.5926
 4022SOL    HW315821   2.114   0.663   1.320 -0.3040  1.6818 -1.7124
 4022SOL    MW415822   2.037   0.623   1.311 -0.1575  0.0635  0.2203
 4023SOL     OW15823   4.426   3.922   3.124 -0.3569  0.0077  0.4205
 4023SOL    HW215824   4.424   3.908   3.219  0.8638  0.6386  0.5547
 4023SOL    HW315825   4.361   3.991   3.109 -1.4597 -0.9547  0.6141
 4023SOL    MW415826   4.417   3.930   3.135 -0.2698  0.6181 -0.1382
 4024SOL     OW15827   3.395   0.372   3.375  0.3383 -0.0875 -0.0551
 4024SOL    HW215828   3.484   0.342   3.395  0.9041 -0.0095 -2.1298
 4024SOL    HW315829   3.388   0.362   3.280 -1.4119  1.1666 -0.1032
 4024SOL    MW415830   3.406   0.367   3.365  0.1873 -0.2578  0.9996
 4025SOL     OW15831   3.732   3.466   4.026  0.0307 -0.2307  0.3749
 4025SOL    HW215832   3.745   3.528   4.097  0.4500 -2.1248  2.0586
 4025SOL    HW315833   3.810   3.411   4.027 -0.5808 -1.1723 -0.6465
 4025SOL    MW415834   3.744   3.467   4.035  0.5510  0.0514  0.2349
 4026SOL     OW15835   4.325   1.411   2.755 -0.3573  0.0579 -0.0972
 4026SOL    HW215836   4.240   1.402   2.798 -0.1634 -0.4938  0.1800
 4026SOL    HW315837   4.389   1.392   2.823 -0.0130  0.2993 -0.3466
 4026SOL    MW415838   4.323   1.407   2.769 -0.0673 -0.7816  0.3858
 4027SOL     OW15839   5.001   3.154   0.645  0.1810 -0.0700 -0.4450
 4027SOL    HW215840   4.959   3.182   0.726 -0.0844  0.2690 -0.6985
 4027SOL    HW315841   5.089   3.128   0.672  0.2513  0.4835 -0.1126
 4027SOL    MW415842   5.007   3.155   0.660 -0.0020  0.4205  0.0104
 4028SOL     OW15843   0.155   2.969   4.381  0.1508 -0.1194 -0.2229
 4028SOL    HW215844   0.117   2.945   4.465  1.5142 -0.5616  0.2976
 4028SOL    HW315845   0.231   2.911   4.371  0.1490  0.0735 -1.6579
 4028SOL    MW415846   0.160   2.958   4.391  0.3761  0.5010 -0.5989
 4029SOL     OW15847   4.248   1.398   6.008 -0.0501 -0.2064  0.2514
 4029SOL    HW215848   4.333   1.362   5.981  0.8189  0.8390  1.4384
 4029SOL    HW315849   4.240   1.480   5.958  0.4449  0.5278  1.3334
 4029SOL    MW415850   4.259   1.404   5.998  0.3153 -0.4358 -0.0695
 4030SOL     OW15851   6.301   2.935   5.808 -0.1567  0.6887 -0.2564
 4030SOL    HW215852   6.227   2.908   5.754 -0.5114  0.6489  0.2434
 4030SOL    HW315853   6.341   2.853   5.837 -0.5299  0.6977  0.3010
 4030SOL    MW415854   6.297   2.921   5.805  0.6255 -0.7490 -0.3928
 4031SOL     OW15855   2.997   2.241   3.458  0.4462  0.5402 -0.2860
 4031SOL    HW215856   3.016   2.251   3.551  1.6869  0.2876 -0.4960
 4031SOL    HW315857   2.926   2.303   3.440  0.1746  0.5599  0.8263
 4031SOL    MW415858   2.990   2.250   3.468  0.2656  0.2978  0.2699
 4032SOL     OW15859   2.497   6.014   3.137 -0.1264  0.7000  0.5474
 4032SOL    HW215860   2.536   5.927   3.128  0.5462  1.2121 -2.5280
 4032SOL    HW315861   2.569   6.075   3.123 -0.6539  1.7971  2.2829
 4032SOL    MW415862   2.511   6.011   3.134  0.1960 -0.9330 -0.6313
 4033SOL     OW15863   4.182   1.818   0.963 -0.3164  0.0131  0.2531
 4033SOL    HW215864   4.268   1.787   0.989  0.4615  1.8597  0.0030
 4033SOL    HW315865   4.196   1.906   0.930 -1.9763 -0.3988 -1.8752
 4033SOL    MW415866   4.195   1.825   0.962 -0.5878  0.9684 -0.1148
 4034SOL     OW15867   6.254   0.561   5.285  0.6449  0.1391 -0.6318
 4034SOL    HW215868   6.211   0.548   5.201  1.0079  1.8696 -1.1237
 4034SOL    HW315869   6.210   0.637   5.324  0.6086 -0.5178  0.6642
 4034SOL    MW415870   6.243   0.569   5.279  0.4423  0.3597  0.1432
 4035SOL     OW15871   4.182   0.075   5.248 -0.5557 -0.2425  0.4794
 4035SOL    HW215872   4.205   0.051   5.158 -0.8625 -1.6388  0.7369
 4035SOL    HW315873   4.260   0.118   5.282  0.3697 -1.6119  0.1969
 4035SOL    MW415874   4.195   0.077   5.240 -0.3704 -0.0261 -0.2410
 4036SOL     OW15875   2.925   6.028   1.416  0.4425 -0.4905  0.5448
 4036SOL    HW215876   2.971   6.111   1.421  3.1427 -1.7770 -0.7035
 4036SOL    HW315877   2.885   6.028   1.329  0.3232 -0.4518  0.5992
 4036SOL    MW415878   2.926   6.039   1.405  0.7735 -0.2867  0.0324
 4037SOL     OW15879   0.850   0.698   1.153 -0.0903  0.0847 -0.3647
 4037SOL    HW215880   0.799   0.724   1.076  0.7639  0.3969 -0.8435
 4037SOL    HW315881   0.893   0.778   1.182 -0.8532  0.1007  0.8126
 4037SOL    MW415882   0.849   0.712   1.147 -0.9803 -0.0435  0.6784
 4038SOL     OW15883   2.674   4.601   1.042 -0.1394 -0.9031 -0.4056
 4038SOL    HW215884   2.703   4.588   1.132 -0.2962 -1.5210 -0.4413
 4038SOL    HW315885   2.681   4.514   1.001  1.4901 -0.3258 -1.4576
 4038SOL    MW415886   2.679   4.588   1.048 -0.1666 -0.3210  0.1598
 4039SOL     OW15887   2.626   0.097   3.717 -0.0119  0.1524  0.0968
 4039SOL    HW215888   2.673   0.015   3.734  1.3939  1.2382  1.7649
 4039SOL    HW315889   2.577   0.114   3.797 -0.2074  0.9752 -0.1885
 4039SOL    MW415890   2.626   0.088   3.730  0.5561 -0.4767  0.4316
 4040SOL     OW15891   5.018   2.924   1.833 -0.3752  0.0426 -0.1642
 4040SOL    HW215892   4.984   3.013   1.832 -0.9612 -0.1786 -0.7573
 4040SOL    HW315893   4.982   2.886   1.913  1.3234  0.8625  1.0421
 4040SOL    MW415894   5.009   2.930   1.843 -0.0580  0.0753 -0.1238
 4041SOL     OW15895   4.247   2.245   1.840  0.5667  0.4819  0.1807
 4041SOL    HW215896   4.185   2.250   1.767  1.2073 -0.1138 -0.4234
 4041SOL    HW315897   4.195   2.214   1.914  0.1250  0.0805 -0.2908
 4041SOL    MW415898   4.232   2.242   1.840  0.5909 -0.5938 -0.0338
 4042SOL     OW15899   3.062   4.154   4.185 -0.4341 -0.1570  0.0981
 4042SOL    HW215900   3.046   4.059   4.185  0.3994 -0.3289 -1.6750
 4042SOL    HW315901   3.147   4.164   4.143  0.3903  1.2927  1.9749
 4042SOL    MW415902   3.071   4.143   4.179 -0.1772  0.0653 -0.1381
 4043SOL     OW15903   1.182   3.286   0.808 -0.4298  0.3867 -0.1187
 4043SOL    HW215904   1.207   3.269   0.899  1.3134  1.8046 -0.2593
 4043SOL    HW315905   1.093   3.322   0.813 -0.1874  0.8622  1.0888
 4043SOL    MW415906   1.174   3.289   0.821  0.7790 -0.3278  0.3321
 4044SOL     OW15907   5.314   6.119   5.087 -0.2603  0.4050 -0.0551
 4044SOL    HW215908   5.391   6.106   5.033 -0.0199 -0.3415  0.4621
 4044SOL    HW315909   5.242   6.083   5.035 -0.0137 -0.4171  0.1689
 4044SOL    MW415910   5.314   6.113   5.073  0.1016 -0.1806  0.1789
 4045SOL     OW15911   0.062   4.935   0.237  0.0869  0.0333 -0.1496
 4045SOL    HW215912   0.057   4.848   0.196  1.3042 -0.3869  0.5473
 4045SOL    HW315913   0.037   4.920   0.328  0.6221  0.3635  0.0498
 4045SOL    MW415914   0.058   4.921   0.244 -0.6839  0.0885  0.0153
 4046SOL     OW15915   0.685   0.060   5.082  0.4567  0.1929  0.2940
 4046SOL    HW215916   0.763   0.047   5.136  0.8834 -0.7330 -0.5236
 4046SOL    HW315917   0.716   0.110   5.007  0.4057 -0.7001 -0.3344
 4046SOL    MW415918   0.699   0.065   5.079  0.3998  0.2051 -0.0040
 4047SOL     OW15919   4.864   0.806   5.182 -0.0308 -0.0268  0.3135
 4047SOL    HW215920   4.906   0.765   5.107  0.8425  0.0090  0.7728
 4047SOL    HW315921   4.802   0.869   5.145 -0.3278 -0.7129 -0.3782
 4047SOL    MW415922   4.861   0.809   5.168 -0.4130 -0.6649  0.2656
 4048SOL     OW15923   4.290   3.963   4.090  0.5545  0.5248  0.3597
 4048SOL    HW215924   4.353   4.010   4.036 -0.3707  3.0953  1.3667
 4048SOL    HW315925   4.324   3.970   4.179  0.5403 -1.0438  0.5094
 4048SOL    MW415926   4.303   3.970   4.094  0.2124  0.6742  0.1513
 4049SOL     OW15927   3.137   1.726   3.954 -0.1035  0.1153  0.6566
 4049SOL    HW215928   3.222   1.738   3.998  0.5997  0.4941 -0.7473
 4049SOL    HW315929   3.149   1.648   3.900 -1.0790 -0.5701  1.4001
 4049SOL    MW415930   3.150   1.717   3.953  0.1086 -0.0801 -0.3602
 4050SOL     OW15931   5.304   2.403   0.385 -0.0201  0.3795  0.7457
 4050SOL    HW215932   5.308   2.317   0.426 -0.6953  0.2675  0.5731
 4050SOL    HW315933   5.367   2.456   0.435  0.7427 -0.3324  0.5499
 4050SOL    MW415934   5.313   2.399   0.397 -0.3591  0.1340 -0.7889
 4051SOL     OW15935   3.203   1.911   0.748  0.2101 -0.6478 -0.7112
 4051SOL    HW215936   3.284   1.911   0.697  0.7072  0.0480  0.0557
 4051SOL    HW315937   3.195   2.000   0.781 -0.8080 -0.7383 -0.6538
 4051SOL    MW415938   3.212   1.923   0.745  0.0400 -0.0601 -0.1184
 4052SOL     OW15939   1.695   4.529   4.511 -0.2440 -0.8247  0.2468
 4052SOL    HW215940   1.785   4.544   4.540 -0.1876 -1.6176  0.5225
 4052SOL    HW315941   1.673   4.442   4.546 -1.4278 -0.2662  0.9793
 4052SOL    MW415942   1.704   4.519   4.520  0.1144 -0.3786  0.0246
 4053SOL     OW15943   4.668   5.220   0.996 -0.0423 -0.0596  0.1002
 4053SOL    HW215944   4.645   5.164   0.922  1.2362  0.8907 -1.0690
 4053SOL    HW315945   4.746   5.179   1.033  0.0689  0.1730  0.1258
 4053SOL    MW415946   4.675   5.207   0.991 -0.5092  0.1026  0.3261
 4054SOL     OW15947   4.859   4.981   1.027  0.1214 -0.3770  1.0027
 4054SOL    HW215948   4.798   4.907   1.040  0.9205 -1.0343  1.1070
 4054SOL    HW315949   4.925   4.947   0.966 -0.2206  0.6922  0.0008
 4054SOL    MW415950   4.859   4.966   1.020 -0.3752  0.7059 -0.1469
 4055SOL     OW15951   5.427   5.832   1.845  0.2464 -0.1088  0.1273
 4055SOL    HW215952   5.496   5.826   1.779  0.2499  0.2806  0.0944
 4055SOL    HW315953   5.474   5.853   1.926  0.3578 -1.5614  0.4761
 4055SOL    MW415954   5.443   5.834   1.847 -0.3563 -0.6812 -0.4312
 4056SOL     OW15955   1.591   0.810   4.914  0.0535 -0.1895 -0.0061
 4056SOL    HW215956   1.641   0.890   4.900  1.1762 -0.4883  1.9489
 4056SOL    HW315957   1.518   0.838   4.969 -0.8831 -0.1292 -1.2236
 4056SOL    MW415958   1.588   0.824   4.919 -0.4401 -0.0314 -0.5034
 4057SOL     OW15959   1.803   1.440   2.404  0.2662 -0.1375  0.0112
 4057SOL    HW215960   1.888   1.418   2.442  0.8724 -0.5608 -1.5455
 4057SOL    HW315961   1.821   1.510   2.342 -0.5451 -0.1535 -0.2579
 4057SOL    MW415962   1.817   1.447   2.401 -0.1856  0.2887  0.3201
 4058SOL     OW15963   2.184   6.028   3.782 -0.1557  0.0283  0.3662
 4058SOL    HW215964   2.240   6.104   3.799 -1.4681  1.2186 -0.3967
 4058SOL    HW315965   2.196   5.973   3.859 -0.4854  1.8449  1.8009
 4058SOL    MW415966   2.193   6.031   3.794 -0.3595 -0.0140 -0.2909
 4059SOL     OW15967   4.268   0.943   5.990  0.1836  0.1036 -0.2362
 4059SOL    HW215968   4.315   0.900   6.061 -0.2704 -2.4813 -1.3681
 4059SOL    HW315969   4.334   0.959   5.923  0.1714  0.1981 -0.2257
 4059SOL    MW415970   4.283   0.939   5.990 -0.5280  0.2730  0.2428
 4060SOL     OW15971   3.459   0.794   5.985  0.3158 -0.0258 -0.3093
 4060SOL    HW215972   3.494   0.707   6.003 -1.7752 -0.2722  3.5418
 4060SOL    HW315973   3.529   0.853   6.013  1.4485 -0.3338 -2.2509
 4060SOL    MW415974   3.473   0.790   5.991  0.6125  0.6614 -0.4650
 4061SOL     OW15975   5.007   0.768   0.434  0.1320  0.1061  0.0605
 4061SOL    HW215976   5.044   0.759   0.346  2.9549 -0.4631  1.1864
 4061SOL    HW315977   5.042   0.851   0.465  1.1297 -0.7992  1.4544
 4061SOL    MW415978   5.017   0.778   0.426  0.3439 -0.3786  0.2406
 4062SOL     OW15979   1.261   0.933   0.941 -0.3189 -0.1761  0.4742
 4062SOL    HW215980   1.204   1.011   0.940  1.0930  0.8876 -0.2293
 4062SOL    HW315981   1.201   0.860   0.925 -1.6000  0.8100  0.5543
 4062SOL    MW415982   1.245   0.934   0.939  0.0747 -0.1170 -0.3195
 4063SOL     OW15983   0.246   5.881   6.067 -0.7887 -0.3218 -0.2365
 4063SOL    HW215984   0.276   5.968   6.095 -1.8171 -0.4894  1.5440
 4063SOL    HW315985   0.323   5.825   6.074 -0.5583  0.0664  0.4363
 4063SOL    MW415986   0.260   5.885   6.072 -0.1860 -0.2268 -0.3331
 4064SOL     OW15987   0.637   4.564   5.432  0.2583  0.1529  0.2307
 4064SOL    HW215988   0.637   4.652   5.469  1.9034  0.0121  0.6169
 4064SOL    HW315989   0.681   4.510   5.498 -0.1835 -0.8435 -0.2705
 4064SOL    MW415990   0.643   4.568   5.446  0.2280  0.1867 -0.2765
 4065SOL     OW15991   3.127   0.350   0.435  0.2556 -0.3072 -0.5173
 4065SOL    HW215992   3.108   0.260   0.409 -0.3974 -1.0550  2.1843
 4065SOL    HW315993   3.041   0.388   0.457  0.7463  0.0475  0.9275
 4065SOL    MW415994   3.113   0.343   0.435  0.0596 -0.4095 -0.0985
 4066SOL     OW15995   5.929   4.359   3.859  0.1617 -0.2225  0.3463
 4066SOL    HW215996   5.958   4.345   3.769  1.3280 -0.8080  0.7950
 4066SOL    HW315997   5.911   4.271   3.892 -1.1243  0.0513  0.4235
 4066SOL    MW415998   5.930   4.346   3.852  0.1348  0.2670  0.1370
 4067SOL     OW15999   4.667   2.887   5.928  0.1657  0.0217  0.2430
 4067SOL    HW216000   4.667   2.813   5.988  1.8670 -0.6194 -0.4843
 4067SOL    HW316001   4.608   2.861   5.857  1.5042 -1.1241 -0.5068
 4067SOL    MW416002   4.659   2.874   5.926 -0.3890 -0.1341 -0.1032
 4068SOL     OW16003   1.788   3.440   0.432 -0.1344  0.0238 -0.3667
 4068SOL    HW216004   1.765   3.500   0.504 -1.0452  0.1169 -0.7293
 4068SOL    HW316005   1.799   3.498   0.357  1.6916  0.0311 -0.1397
 4068SOL    MW416006   1.787   3.456   0.432 -0.3768  0.7421  0.4250
 4069SOL     OW16007   0.335   2.197   4.600  0.3455  0.5253  0.4197
 4069SOL    HW216008   0.254   2.147   4.600  0.7718 -0.1769  0.0707
 4069SOL    HW316009   0.362   2.200   4.692  0.6346 -0.4274  0.3798
 4069SOL    MW416010   0.328   2.191   4.612 -1.0801  0.6033 -0.6359
 4070SOL     OW16011   5.977   2.391   1.687  0.0998 -0.3478  0.6813
 4070SOL    HW216012   5.895   2.404   1.639  0.6348  1.0110  0.0917
 4070SOL    HW316013   6.041   2.370   1.620  0.7440  1.0448  0.8293
 4070SOL    MW416014   5.974   2.390   1.672 -0.2862  0.2177 -0.7081
 4071SOL     OW16015   5.619   0.538   0.708  0.1536  0.5143 -0.1826
 4071SOL    HW216016   5.669   0.506   0.634  0.5355  0.3551  0.1429
 4071SOL    HW316017   5.614   0.633   0.694  0.7300  0.5553 -0.1000
 4071SOL    MW416018   5.625   0.547   0.696  0.2106  0.3604  0.1870
 4072SOL     OW16019   2.378   0.385   5.243 -0.1683  0.5110 -0.4463
 4072SOL    HW216020   2.470   0.385   5.215  0.5031  0.4814  1.6423
 4072SOL    HW316021   2.333   0.436   5.176  1.8168  2.8188 -0.1560
 4072SOL    MW416022   2.384   0.392   5.230  0.2453 -0.0642 -0.0064
 4073SOL     OW16023   4.356   4.007   4.352  0.3030 -0.1669  0.7238
 4073SOL    HW216024   4.408   3.938   4.394  0.0958  0.0409  1.3436
 4073SOL    HW316025   4.381   4.087   4.399 -0.8012 -0.1158  1.2431
 4073SOL    MW416026   4.367   4.009   4.364 -0.0796  0.4874 -0.2563
 4074SOL     OW16027   6.034   6.209   3.599  0.3334  0.3213  1.1581
 4074SOL    HW216028   6.081   6.127   3.585 -1.1206 -0.5127  1.0443
 4074SOL    HW316029   6.044   6.256   3.516 -1.0010 -0.8863  0.2758
 4074SOL    MW416030   6.042   6.205   3.586  0.3628 -0.0100  0.1908
 4075SOL     OW16031   3.889   0.980   2.807 -0.4081 -0.0944 -0.6187
 4075SOL    HW216032   3.975   0.943   2.826  0.1346  1.1119 -0.6275
 4075SOL    HW316033   3.907   1.070   2.779 -1.6850  0.2521 -0.4075
 4075SOL    MW416034   3.902   0.987   2.806 -0.1346 -0.0350  0.3591
 4076SOL     OW16035   0.879   1.693   0.858  0.0549  0.7711 -0.4268
 4076SOL    HW216036   0.808   1.754   0.840  0.8264  2.2247  1.1825
 4076SOL    HW316037   0.839   1.606   0.845 -1.9119  1.5421  0.0491
 4076SOL    MW416038   0.864   1.689   0.854  0.9500  0.2674  0.5587
 4077SOL     OW16039   5.320   3.390   3.236  0.3116 -0.0999 -0.0817
 4077SOL    HW216040   5.294   3.466   3.289  0.3181 -0.1288 -0.0367
 4077SOL    HW316041   5.321   3.423   3.146  2.7679  0.6386  0.1442
 4077SOL    MW416042   5.317   3.404   3.231 -0.5070  0.0336 -0.6383
 4078SOL     OW16043   4.475   4.973   1.208 -0.1825 -0.2616 -0.2090
 4078SOL    HW216044   4.546   4.912   1.188  0.4119  0.0557  0.8882
 4078SOL    HW316045   4.412   4.960   1.137 -0.3409 -2.5546  0.2565
 4078SOL    MW416046   4.476   4.963   1.196  0.1549  0.0064  0.2089
 4079SOL     OW16047   6.155   3.537   4.096  0.4050  0.2522  0.2844
 4079SOL    HW216048   6.109   3.453   4.094  0.6111  0.0585  2.0397
 4079SOL    HW316049   6.215   3.533   4.021 -0.6623 -0.5037 -0.5628
 4079SOL    MW416050   6.157   3.525   4.086 -0.0371 -0.3834 -0.3011
 4080SOL     OW16051   0.264   2.478   4.757  0.3099  0.3774 -0.0550
 4080SOL    HW216052   0.221   2.554   4.797 -0.5191  1.0512 -2.0563
 4080SOL    HW316053   0.274   2.415   4.828 -3.4324  0.4268  0.7380
 4080SOL    MW416054   0.260   2.480   4.772  0.3292 -0.7341  0.6265
 4081SOL     OW16055   4.453   5.474   4.385 -0.5081  0.0709 -0.0344
 4081SOL    HW216056   4.494   5.433   4.462 -0.4811  0.9620  0.4345
 4081SOL    HW316057   4.360   5.451   4.393 -0.6230  0.7397  0.6475
 4081SOL    MW416058   4.446   5.465   4.396  0.0121 -0.6503  0.2347
 4082SOL     OW16059   2.290   2.060   5.070 -0.2706  0.2487 -0.3217
 4082SOL    HW216060   2.377   2.101   5.068 -0.8354  1.4736 -0.6858
 4082SOL    HW316061   2.245   2.101   5.143 -0.2061 -1.1618  0.5495
 4082SOL    MW416062   2.296   2.071   5.079  0.2043 -0.2944  0.0893
 4083SOL     OW16063   6.165   1.158   0.810  0.3628 -0.0398 -0.1476
 4083SOL    HW216064   6.133   1.076   0.773  0.1668 -0.1261  0.2079
 4083SOL    HW316065   6.250   1.137   0.846  0.2356 -0.1271  0.0993
 4083SOL    MW416066   6.172   1.145   0.810  0.9475 -0.1632 -0.1684
 4084SOL     OW16067   4.868   4.254   0.814  0.9335 -0.0320  0.3783
 4084SOL    HW216068   4.911   4.331   0.851  0.5273  0.9800 -1.1580
 4084SOL    HW316069   4.870   4.268   0.719  1.6585 -2.3556 -0.0196
 4084SOL    MW416070   4.874   4.266   0.806 -0.8773  0.6935 -0.0260
 4085SOL     OW16071   3.109   4.024   3.502  0.5810  0.3831  0.0383
 4085SOL    HW216072   3.135   4.027   3.410  4.0284  1.8527  0.9015
 4085SOL    HW316073   3.050   4.099   3.513 -0.4668 -0.2459 -1.0754
 4085SOL    MW416074   3.105   4.034   3.492  0.2905  0.0640  0.0943
 4086SOL     OW16075   1.678   0.827   5.272  0.2186  0.3451 -1.2338
 4086SOL    HW216076   1.724   0.856   5.194  1.4531  1.0201 -0.2934
 4086SOL    HW316077   1.747   0.794   5.330 -0.8414 -1.8906 -1.1179
 4086SOL    MW416078   1.693   0.826   5.269  0.4075  0.3492 -0.7954
 4087SOL     OW16079   3.129   5.145   3.585  0.1976  0.2166 -0.3102
 4087SOL    HW216080   3.072   5.151   3.662  1.7588  0.0260  0.9143
 4087SOL    HW316081   3.148   5.236   3.562  1.0633  0.2958  0.6128
 4087SOL    MW416082   3.124   5.157   3.592  0.2562  0.3087  0.2411
 4088SOL     OW16083   1.348   3.415   2.158 -0.2055  0.7247 -0.1041
 4088SOL    HW216084   1.315   3.357   2.226 -0.7250 -0.4683 -1.3464
 4088SOL    HW316085   1.440   3.392   2.150 -0.5851 -0.5041 -1.1345
 4088SOL    MW416086   1.356   3.405   2.166 -0.8602  0.5891  0.3826
 4089SOL     OW16087   5.994   3.446   1.073 -0.5686 -0.0871  0.3007
 4089SOL    HW216088   5.955   3.361   1.056 -0.8352 -0.0153  0.5490
 4089SOL    HW316089   5.924   3.497   1.113 -0.5379  0.3862 -0.2389
 4089SOL    MW416090   5.980   3.442   1.076 -0.1428  0.0733 -0.2097
 4090SOL     OW16091   6.343   1.583   2.344 -0.0691  0.1104  0.2705
 4090SOL    HW216092   6.348   1.492   2.373  0.7787 -0.3407 -1.1899
 4090SOL    HW316093   6.434   1.613   2.344 -0.3410  0.9690  0.7460
 4090SOL    MW416094   6.356   1.575   2.348  1.2821  0.8308 -0.3105
 4091SOL     OW16095   1.412   2.607   1.791 -0.1166 -0.1561 -0.1522
 4091SOL    HW216096   1.438   2.519   1.763 -3.4288 -1.1729 -0.5837
 4091SOL    HW316097   1.416   2.604   1.886  2.3484  0.2092 -0.1814
 4091SOL    MW416098   1.416   2.595   1.800 -0.2931 -0.6178  0.3608
 4092SOL     OW16099   1.728   3.999   5.137  0.1227 -0.0724  0.0521
 4092SOL    HW216100   1.762   3.955   5.215  0.6952  1.7170  0.8513
 4092SOL    HW316101   1.789   3.973   5.067  1.3568  0.6327  0.8311
 4092SOL    MW416102   1.741   3.989   5.138  0.7682  0.5653  0.1966
 4093SOL     OW16103   4.448   3.369   1.447 -0.1092  0.3311 -0.4085
 4093SOL    HW216104   4.484   3.353   1.535 -0.9452 -1.7136 -0.3932
 4093SOL    HW316105   4.504   3.318   1.389  0.9829  2.3615 -1.2425
 4093SOL    MW416106   4.460   3.360   1.451 -0.6323  0.0749  0.1200
 4094SOL     OW16107   5.860   6.425   1.086 -0.2740 -0.4711 -0.1020
 4094SOL    HW216108   5.885   6.349   1.139 -0.9189 -0.3865  0.3236
 4094SOL    HW316109   5.923   6.425   1.014 -0.1811 -1.3220 -0.0240
 4094SOL    MW416110   5.872   6.415   1.084  0.0048 -0.1055 -0.1293
 4095SOL     OW16111   1.810   3.867   1.022 -0.3734 -0.0309 -0.8088
 4095SOL    HW216112   1.839   3.877   1.113 -1.0479  0.4637 -0.6381
 4095SOL    HW316113   1.868   3.800   0.985  1.7703  1.7192 -0.8258
 4095SOL    MW416114   1.822   3.860   1.029 -0.4225 -0.5268 -0.2655
 4096SOL     OW16115   2.201   6.380   4.196 -0.1911 -0.2773 -0.1564
 4096SOL    HW216116   2.182   6.387   4.103 -0.2514  0.5148 -0.0952
 4096SOL    HW316117   2.243   6.295   4.207 -2.0545 -1.2910 -0.5845
 4096SOL    MW416118   2.204   6.370   4.185 -0.2017  0.1257 -0.0235
 4097SOL     OW16119   6.313   1.915   1.383 -0.1135  0.1135 -0.6327
 4097SOL    HW216120   6.406   1.930   1.363 -0.0322 -0.2850 -0.5503
 4097SOL    HW316121   6.307   1.928   1.478  0.0065 -0.6144 -0.5210
 4097SOL    MW416122   6.324   1.919   1.393  0.2666 -0.0888  0.0782
 4098SOL     OW16123   6.411   2.091   2.861 -0.1470 -0.5562  0.0954
 4098SOL    HW216124   6.342   2.153   2.837  0.3874  0.8251  1.9127
 4098SOL    HW316125   6.420   2.034   2.784 -0.8937  1.3949 -1.5215
 4098SOL    MW416126   6.403   2.091   2.848 -0.2150 -0.0610  0.2875
 4099SOL     OW16127   4.774   0.596   6.353 -0.3830  0.2268  0.0082
 4099SOL    HW216128   4.746   0.574   6.264 -0.0980 -0.2090  0.0239
 4099SOL    HW316129   4.729   0.533   6.409  1.2758 -1.0922 -0.0393
 4099SOL    MW416130   4.765   0.585   6.349  0.1427 -0.1211 -0.4191
 4100SOL     OW16131   2.565   5.550   5.031 -0.2126 -0.4254  0.4306
 4100SOL    HW216132   2.648   5.503   5.021  0.1479 -0.5635  3.2418
 4100SOL    HW316133   2.514   5.526   4.954  1.4963 -2.1577 -0.2449
 4100SOL    MW416134   2.569   5.541   5.020 -0.6700  0.5241 -0.3091
 4101SOL     OW16135   5.123   0.427   5.848 -0.0971  0.0840 -0.0258
 4101SOL    HW216136   5.070   0.460   5.921 -0.2521 -1.5220  0.6146
 4101SOL    HW316137   5.146   0.506   5.799  0.5517  1.3023  2.0988
 4101SOL    MW416138   5.119   0.442   5.851 -0.5105 -0.5206 -0.4826
 4102SOL     OW16139   0.472   2.846   3.127  0.0998 -0.3407  0.4114
 4102SOL    HW216140   0.490   2.883   3.213 -0.5313  0.4980  0.1991
 4102SOL    HW316141   0.559   2.830   3.089  0.3838  0.2970  0.7789
 4102SOL    MW416142   0.486   2.849   3.133  0.5470 -0.4806 -0.3911
 4103SOL     OW16143   2.722   4.752   4.191  0.1795 -0.0116 -0.2783
 4103SOL    HW216144   2.797   4.698   4.219 -0.9122 -1.3567  0.1309
 4103SOL    HW316145   2.756   4.803   4.117  1.7503  0.0670  0.4436
 4103SOL    MW416146   2.737   4.752   4.185 -0.4515 -0.3057  0.0955
 4104SOL     OW16147   3.563   6.146   4.821  0.3665  0.2157 -0.5342
 4104SOL    HW216148   3.528   6.094   4.892 -0.5769  1.2652 -0.1857
 4104SOL    HW316149   3.612   6.216   4.864  0.1312  0.6209 -0.9079
 4104SOL    MW416150   3.565   6.149   4.836  0.4404 -0.0104 -0.7558
 4105SOL     OW16151   2.140   5.810   4.864 -0.0008  0.1013  0.1859
 4105SOL    HW216152   2.180   5.845   4.785  2.0986 -0.6333  0.8494
 4105SOL    HW316153   2.047   5.829   4.855  0.4908  2.0522 -1.3902
 4105SOL    MW416154   2.133   5.817   4.853 -0.0566 -0.2075  0.0543
 4106SOL     OW16155   1.291   3.588   3.949  0.0403  0.4939 -0.1647
 4106SOL    HW216156   1.250   3.595   4.035  0.6181 -0.5419  0.2218
 4106SOL    HW316157   1.240   3.521   3.903 -1.2820  2.2033 -1.2647
 4106SOL    MW416158   1.279   3.580   3.954 -0.2604 -0.0829  0.3151
 4107SOL     OW16159   5.721   1.628   0.229  0.1937  0.0162 -0.2907
 4107SOL    HW216160   5.797   1.597   0.279  0.7391  1.7437 -0.0023
 4107SOL    HW316161   5.756   1.696   0.172 -0.4929 -1.5199 -2.7420
 4107SOL    MW416162   5.736   1.633   0.228 -0.7959  0.1018 -0.0521
 4108SOL     OW16163   0.297   1.568   2.228 -0.1267  0.4662 -0.4280
 4108SOL    HW216164   0.273   1.480   2.199  0.9823 -0.3366  0.9576
 4108SOL    HW316165   0.392   1.565   2.236 -0.1885  1.3800  0.8822
 4108SOL    MW416166   0.306   1.556   2.225 -0.1128  0.0137 -0.2171
 4109SOL     OW16167   0.325   0.931   4.407 -0.8284  0.8372 -0.6836
 4109SOL    HW216168   0.395   0.974   4.357  1.5372 -0.2503  1.4699
 4109SOL    HW316169   0.291   1.000   4.464 -0.8439  1.1310 -1.0431
 4109SOL    MW416170   0.330   0.946   4.408  0.4520 -0.1831  0.4167
 4110SOL     OW16171   3.235   3.373   6.158 -0.1471 -0.0724 -0.2341
 4110SOL    HW216172   3.208   3.441   6.096  1.3313  2.0066  1.2659
 4110SOL    HW316173   3.168   3.375   6.226 -0.2278 -0.2558 -0.3109
 4110SOL    MW416174   3.223   3.383   6.159  0.0773  0.5255 -0.0618
 4111SOL     OW16175   2.177   1.347   2.791 -1.0727 -0.1965  0.3666
 4111SOL    HW216176   2.181   1.262   2.834  0.3723 -0.9824 -1.2476
 4111SOL    HW316177   2.083   1.362   2.775 -1.2794 -1.9316 -0.1810
 4111SOL    MW416178   2.165   1.338   2.795  0.0205  0.2785 -0.1242
 4112SOL     OW16179   6.373   5.539   3.101  0.2255  0.8152  0.5429
 4112SOL    HW216180   6.450   5.523   3.046  0.0755 -1.0934  0.8448
 4112SOL    HW316181   6.310   5.581   3.043  0.8271  0.7498 -0.1699
 4112SOL    MW416182   6.375   5.543   3.086  0.0645 -0.0706  0.0719
 4113SOL     OW16183   3.412   1.660   0.413  0.2467  0.0098 -0.1270
 4113SOL    HW216184   3.491   1.632   0.366 -0.7215 -1.8379 -0.7919
 4113SOL    HW316185   3.341   1.615   0.367 -0.7604 -2.3458  3.3146
 4113SOL    MW416186   3.413   1.650   0.400  0.5156 -0.3581  0.2585
 4114SOL     OW16187   5.839   4.245   5.119  0.2303 -0.2857 -0.0253
 4114SOL    HW216188   5.758   4.250   5.169  0.5691  0.1501  0.4826
 4114SOL    HW316189   5.812   4.209   5.034 -0.0911 -2.7410  1.0390
 4114SOL    MW416190   5.825   4.241   5.114  0.2179 -0.2210 -0.5415
 4115SOL     OW16191   4.965   1.522   2.987  0.1543  0.1443 -0.4859
 4115SOL    HW216192   4.996   1.522   3.077  0.2490  0.5074 -0.5179
 4115SOL    HW316193   5.038   1.559   2.937 -0.1310  0.5038 -0.6333
 4115SOL    MW416194   4.979   1.527   2.992 -0.2350  0.2737 -0.5581
 4116SOL     OW16195   5.302   6.079   1.796 -0.4463 -0.2296  0.4342
 4116SOL    HW216196   5.342   5.993   1.803 -1.3018 -0.5224  2.2317
 4116SOL    HW316197   5.232   6.068   1.731  1.6040  0.0453 -1.9722
 4116SOL    MW416198   5.298   6.066   1.788 -0.0436 -0.8569  0.0699
 4117SOL     OW16199   2.309   4.133   3.805  0.4831  0.5239  0.1820
 4117SOL    HW216200   2.299   4.049   3.850  2.9322 -0.5097 -1.0029
 4117SOL    HW316201   2.260   4.121   3.723  0.9814  0.1398 -0.0699
 4117SOL    MW416202   2.301   4.120   3.800 -0.0750  0.2119  0.0393
 4118SOL     OW16203   5.851   5.001   4.015 -0.7508  0.0728  0.3435
 4118SOL    HW216204   5.875   5.092   3.999 -1.5808  0.1395 -0.5977
 4118SOL    HW316205   5.922   4.950   3.977 -0.6004  0.3144  0.2974
 4118SOL    MW416206   5.863   5.006   4.008 -0.6476 -0.3092  0.0092
 4119SOL     OW16207   5.313   2.660   6.213 -0.4437 -0.1207 -0.1158
 4119SOL    HW216208   5.338   2.668   6.304  0.2921 -0.1636 -0.3123
 4119SOL    HW316209   5.220   2.682   6.212 -0.4789 -0.2067  0.6542
 4119SOL    MW416210   5.304   2.664   6.225 -0.2055  0.1474 -0.2086
 4120SOL     OW16211   3.588   4.330   0.805 -0.1250 -0.1251  0.5575
 4120SOL    HW216212   3.612   4.261   0.867  0.9645  0.3268  0.6583
 4120SOL    HW316213   3.508   4.297   0.763 -0.4687 -0.7633  1.6648
 4120SOL    MW416214   3.581   4.316   0.807 -0.1411 -0.5364  0.5827
 4121SOL     OW16215   0.953   5.807   1.908 -0.2078  0.2892 -0.4006
 4121SOL    HW216216   0.866   5.789   1.943  0.1940  0.0844  0.5291
 4121SOL    HW316217   0.951   5.901   1.888 -0.3743  0.4678  0.4137
 4121SOL    MW416218   0.941   5.817   1.910  0.2879 -0.0142  0.1338
 4122SOL     OW16219   2.866   0.978   0.325  0.0305 -0.3897  0.5168
 4122SOL    HW216220   2.915   1.048   0.284 -0.4232 -0.1869  0.3115
 4122SOL    HW316221   2.926   0.904   0.326  0.9309  0.3078  1.7652
 4122SOL    MW416222   2.880   0.978   0.320 -0.1091 -0.1983  0.4508
 4123SOL     OW16223   3.463   0.506   2.727 -0.2159  0.2888  0.3551
 4123SOL    HW216224   3.500   0.583   2.770 -1.7631  1.1485  0.2302
 4123SOL    HW316225   3.490   0.433   2.782 -0.2836  1.1296  1.5429
 4123SOL    MW416226   3.472   0.507   2.740 -0.0610 -0.1198  0.1054
 4124SOL     OW16227   2.594   3.632   0.427  0.3981  0.2621  0.1863
 4124SOL    HW216228   2.513   3.681   0.418  0.0202 -0.3522  0.1669
 4124SOL    HW316229   2.587   3.561   0.363  0.7215 -0.0918  0.5336
 4124SOL    MW416230   2.583   3.629   0.418  0.1501 -0.0797  0.3234
 4125SOL     OW16231   1.159   4.029   1.081  0.4767 -0.3756  0.3516
 4125SOL    HW216232   1.208   3.973   1.141  0.9307 -0.0732  0.2768
 4125SOL    HW316233   1.070   4.030   1.115  0.2987 -1.6744 -0.0247
 4125SOL    MW416234   1.154   4.022   1.093 -0.2165 -1.1008  0.4303
 4126SOL     OW16235   2.380   3.367   5.970 -0.3877  0.5758 -0.6118
 4126SOL    HW216236   2.354   3.335   6.057 -1.5650  0.8251 -0.8529
 4126SOL    HW316237   2.381   3.462   5.979 -1.0465  0.6264 -0.9994
 4126SOL    MW416238   2.377   3.375   5.983 -0.0334  0.4591 -0.0813
 4127SOL     OW16239   6.316   2.831   1.831 -0.4515 -0.7293 -0.4886
 4127SOL    HW216240   6.334   2.892   1.903 -0.8900  1.8123 -2.4124
 4127SOL    HW316241   6.396   2.779   1.824  0.8352  1.0911 -0.1054
 4127SOL    MW416242   6.329   2.832   1.840  0.2300  0.3429  0.3115
 4128SOL     OW16243   4.331   1.195   3.056  0.6352 -0.0776  0.1116
 4128SOL    HW216244   4.392   1.265   3.032 -0.0709  0.8817  0.9986
 4128SOL    HW316245   4.372   1.153   3.132  0.0813  0.7913  0.9275
 4128SOL    MW416246   4.344   1.199   3.063  0.2272 -0.1975 -0.3353
 4129SOL     OW16247   4.015   4.505   3.659  0.2320  0.1485 -0.1752
 4129SOL    HW216248   4.072   4.536   3.588  0.1792  1.6003  0.3752
 4129SOL    HW316249   4.060   4.428   3.694  1.2767  0.5972 -0.4915
 4129SOL    MW416250   4.029   4.499   3.654  0.3109 -0.5166  0.0659
 4130SOL     OW16251   1.153   6.363   1.794 -0.5745  0.0682 -0.5593
 4130SOL    HW216252   1.079   6.346   1.737  0.0243  0.4071 -1.4623
 4130SOL    HW316253   1.114   6.396   1.875 -1.4067  0.0568 -0.9460
 4130SOL    MW416254   1.138   6.365   1.797  0.7320 -0.3507 -0.4080
 4131SOL     OW16255   2.360   4.702   2.428 -0.2360  0.0766  0.1608
 4131SOL    HW216256   2.288   4.713   2.366  1.0477 -1.2001 -1.6500
 4131SOL    HW316257   2.413   4.631   2.391  0.0973 -1.4411  3.2111
 4131SOL    MW416258   2.357   4.694   2.415 -0.3474  0.1984 -0.5129
 4132SOL     OW16259   3.898   4.149   3.217  0.0345  0.1444 -0.0722
 4132SOL    HW216260   3.951   4.129   3.294  0.7402  1.7947 -0.0852
 4132SOL    HW316261   3.871   4.064   3.184  1.5489 -0.6976  0.7344
 4132SOL    MW416262   3.902   4.135   3.223 -0.5109 -0.3711  0.4274
 4133SOL     OW16263   4.784   1.972   0.882  0.1733  0.9918  0.3677
 4133SOL    HW216264   4.699   1.935   0.907  1.3382 -2.8306 -0.6281
 4133SOL    HW316265   4.777   1.988   0.788  0.0860  2.1914  0.5707
 4133SOL    MW416266   4.772   1.969   0.873  0.1710 -0.2781  0.2052
 4134SOL     OW16267   4.520   2.677   0.935 -0.3610 -0.7815 -0.0513
 4134SOL    HW216268   4.612   2.656   0.915 -0.0811  1.9888 -2.2287
 4134SOL    HW316269   4.476   2.592   0.937  1.0886 -1.9948 -5.3632
 4134SOL    MW416270   4.527   2.663   0.933  0.2550 -0.1019  0.7005
 4135SOL     OW16271   3.870   5.498   5.326 -0.2177  0.0116 -0.3545
 4135SOL    HW216272   3.836   5.543   5.249 -0.8761  1.4750  0.7370
 4135SOL    HW316273   3.935   5.558   5.363  0.4555 -0.8857 -0.0256
 4135SOL    MW416274   3.874   5.512   5.321 -0.0624  0.4956 -0.3672
 4136SOL     OW16275   2.197   0.396   2.098  0.1581 -0.3184  0.2728
 4136SOL    HW216276   2.210   0.323   2.158  1.1684  0.8204  1.4917
 4136SOL    HW316277   2.237   0.367   2.016  2.1902 -0.4960  1.2544
 4136SOL    MW416278   2.204   0.382   2.095  0.1463  0.2727 -0.0935
 4137SOL     OW16279   3.755   0.568   0.003 -0.2393  0.5796 -0.1202
 4137SOL    HW216280   3.778   0.660   0.008  0.7210  0.4245 -1.3746
 4137SOL    HW316281   3.783   0.531   0.087  0.6250  1.1523 -0.1546
 4137SOL    MW416282   3.762   0.575   0.015 -0.0599  0.5284 -0.1966
 4138SOL     OW16283   4.801   6.422   3.146  0.2998 -0.1087 -0.2053
 4138SOL    HW216284   4.744   6.439   3.221 -2.0400 -2.7483 -1.2224
 4138SOL    HW316285   4.888   6.409   3.184 -0.1180  1.8714  1.6334
 4138SOL    MW416286   4.805   6.423   3.161  0.5365  0.4337  0.0592
 4139SOL     OW16287   4.258   4.750   4.368 -0.5992  0.5874  0.9097
 4139SOL    HW216288   4.198   4.762   4.442 -2.5206  2.5121 -0.8116
 4139SOL    HW316289   4.245   4.659   4.341 -1.9654  0.6576  1.2568
 4139SOL    MW416290   4.248   4.740   4.374  0.0803  0.3402  0.2247
 4140SOL     OW16291   4.043   5.179   5.794 -0.2272  0.2830  0.4042
 4140SOL    HW216292   4.007   5.097   5.828 -1.1959  1.4628  2.3715
 4140SOL    HW316293   3.983   5.246   5.826  0.4490  1.7735 -1.3076
 4140SOL    MW416294   4.030   5.177   5.802 -0.2746  0.0333 -0.0606
 4141SOL     OW16295   1.970   1.660   5.891  0.0951  0.0186 -0.0260
 4141SOL    HW216296   1.923   1.696   5.815  1.3116  1.3958 -0.1767
 4141SOL    HW316297   1.903   1.648   5.958 -0.5701  1.4731 -0.3931
 4141SOL    MW416298   1.955   1.664   5.889  0.4924  0.0405 -0.3387
 4142SOL     OW16299   2.709   5.595   6.220 -0.7051 -0.0942  0.1715
 4142SOL    HW216300   2.647   5.560   6.284  1.5869 -0.9030  2.0898
 4142SOL    HW316301   2.757   5.663   6.268  0.3509  0.0415 -1.0361
 4142SOL    MW416302   2.707   5.600   6.235 -0.4438  0.1540 -0.0206
 4143SOL     OW16303   2.983   1.398   4.772  0.2306 -0.1727  0.0186
 4143SOL    HW216304   2.927   1.399   4.850  1.1173  0.4716  0.6714
 4143SOL    HW316305   2.984   1.489   4.742  0.6597 -0.2375 -0.1795
 4143SOL    MW416306   2.976   1.410   4.778  0.1634 -0.1657 -0.2100
 4144SOL     OW16307   2.562   1.885   5.853 -0.1064  0.3535  0.0789
 4144SOL    HW216308   2.655   1.893   5.833 -0.4605  1.2490 -1.3511
 4144SOL    HW316309   2.548   1.945   5.927  0.4723  0.0499  0.4441
 4144SOL    MW416310   2.572   1.894   5.860  0.2776  0.2773 -0.1665
 4145SOL     OW16311   3.325   6.098   0.669  0.1266  0.2792  0.3373
 4145SOL    HW216312   3.312   6.172   0.728 -1.8575  0.8346 -0.7168
 4145SOL    HW316313   3.417   6.104   0.644  0.6456  0.8877  2.1896
 4145SOL    MW416314   3.336   6.109   0.674  0.0765  0.4161  0.0072
 4146SOL     OW16315   1.902   2.650   5.790  0.0109 -0.3720  0.2589
 4146SOL    HW216316   1.836   2.687   5.732  0.9150 -0.3440 -0.7791
 4146SOL    HW316317   1.958   2.725   5.813  0.3169 -0.5969  0.2581
 4146SOL    MW416318   1.901   2.665   5.786 -0.1884 -0.5092  0.0964
 4147SOL     OW16319   3.135   4.323   1.356 -0.3993 -0.7141 -0.1074
 4147SOL    HW216320   3.212   4.343   1.409 -0.4965  1.6305 -0.7253
 4147SOL    HW316321   3.134   4.228   1.349  1.8563 -0.8569  0.7601
 4147SOL    MW416322   3.145   4.313   1.362  0.2553 -0.2328  0.0634
 4148SOL     OW16323   1.601   0.178   6.385 -0.4914  0.0655  0.0340
 4148SOL    HW216324   1.624   0.133   6.304  1.4732  2.8636 -1.0841
 4148SOL    HW316325   1.534   0.242   6.360  0.9938  1.7869  0.2782
 4148SOL    MW416326   1.595   0.180   6.371 -0.6243 -0.3344 -0.4792
 4149SOL     OW16327   0.349   5.532   1.659 -0.0700 -0.5465  0.4179
 4149SOL    HW216328   0.378   5.572   1.577  0.2991  2.4707  1.8826
 4149SOL    HW316329   0.431   5.513   1.706 -0.2982  0.6870  1.3456
 4149SOL    MW416330   0.364   5.534   1.654 -0.1142 -0.0152 -0.7286
 4150SOL     OW16331   0.273   5.851   2.744 -0.0541 -0.2718 -0.4763
 4150SOL    HW216332   0.327   5.773   2.727 -0.3333 -0.0649 -2.5327
 4150SOL    HW316333   0.195   5.817   2.788  0.5370 -0.9135  0.1192
 4150SOL    MW416334   0.270   5.836   2.748 -0.5914 -0.3000  0.6444
 4151SOL     OW16335   1.352   4.112   5.461 -0.0920  0.0211  0.0280
 4151SOL    HW216336   1.353   4.195   5.412  0.9943 -1.0940 -1.9854
 4151SOL    HW316337   1.298   4.130   5.537 -0.7350  2.2926 -0.8715
 4151SOL    MW416338   1.345   4.126   5.464 -0.8024  0.0525 -0.6396
 4152SOL     OW16339   0.039   2.589   5.338  0.0852  0.1034 -0.6764
 4152SOL    HW216340   0.085   2.558   5.260  0.7727 -0.5687 -0.0217
 4152SOL    HW316341   0.077   2.676   5.354  0.7585 -0.2224 -0.4536
 4152SOL    MW416342   0.050   2.597   5.330 -0.0709 -0.0696  0.3082
 4153SOL     OW16343   3.677   0.839   3.711  0.5494  0.5146 -0.0487
 4153SOL    HW216344   3.650   0.749   3.725 -1.7996  1.0151 -0.9089
 4153SOL    HW316345   3.771   0.833   3.694  0.6906 -1.6021  1.1253
 4153SOL    MW416346   3.686   0.826   3.710 -0.6500 -0.2380  0.1834
 4154SOL     OW16347   2.314   4.942   4.884  0.0944 -0.3617 -0.1717
 4154SOL    HW216348   2.277   5.030   4.880 -2.1314 -1.1626  0.9754
 4154SOL    HW316349   2.359   4.939   4.968  1.6787  0.1891 -0.9734
 4154SOL    MW416350   2.315   4.953   4.895 -0.4409 -0.0282 -0.1679
 4155SOL     OW16351   0.108   0.187   3.518 -0.1125  0.4555  0.0140
 4155SOL    HW216352   0.106   0.268   3.569  0.3684 -0.5837  1.7553
 4155SOL    HW316353   0.039   0.199   3.452 -1.1672  1.6163  1.2629
 4155SOL    MW416354   0.098   0.199   3.516  0.3146 -0.1239 -0.0835
 4156SOL     OW16355   2.573   1.365   5.165 -0.9369  0.1851 -0.4772
 4156SOL    HW216356   2.513   1.408   5.226 -2.6190 -1.6833 -0.7290
 4156SOL    HW316357   2.542   1.391   5.078  0.3683  1.3933 -0.6416
 4156SOL    MW416358   2.561   1.374   5.162  0.2240 -0.5639 -0.4556
 4157SOL     OW16359   1.356   5.141   6.401  0.2106  0.2531 -0.5023
 4157SOL    HW216360   1.340   5.183   6.486  0.2622  1.1626 -0.9373
 4157SOL    HW316361   1.359   5.048   6.422 -0.7589  0.3823  0.3512
 4157SOL    MW416362   1.354   5.134   6.415 -0.5691 -0.4093  0.2937
 4158SOL     OW16363   0.050   4.483   3.864 -0.0538 -0.2938  0.2482
 4158SOL    HW216364   0.070   4.398   3.826  1.7961 -0.4522  1.4563
 4158SOL    HW316365  -0.039   4.474   3.897 -0.3154 -1.3535 -0.6712
 4158SOL    MW416366   0.041   4.471   3.863  0.2377  0.1023 -0.0706
 4159SOL     OW16367   3.572   3.652   1.877  0.0574  0.3587 -0.2846
 4159SOL    HW216368   3.522   3.675   1.799 -1.1178 -0.4651  0.1858
 4159SOL    HW316369   3.505   3.635   1.944  0.9639 -0.8340  0.3606
 4159SOL    MW416370   3.557   3.653   1.875  0.3948  1.4069  0.2573
 4160SOL     OW16371   3.752   5.404   4.872  0.0732  0.2684 -0.5160
 4160SOL    HW216372   3.708   5.446   4.946 -1.6930 -2.4213  0.1130
 4160SOL    HW316373   3.836   5.374   4.907 -0.4594 -0.3857  0.2455
 4160SOL    MW416374   3.757   5.406   4.886 -0.0185  0.3990 -0.1751
 4161SOL     OW16375   5.012   5.032   5.396 -0.0343 -0.5001 -0.1980
 4161SOL    HW216376   4.920   5.052   5.413 -0.7668 -2.7343 -1.1908
 4161SOL    HW316377   5.040   5.098   5.332 -0.4157  1.2118  1.3315
 4161SOL    MW416378   5.004   5.044   5.390 -0.3540  0.5200 -0.4185
 4162SOL     OW16379   3.630   4.408   1.287 -0.2185 -0.1981 -0.1499
 4162SOL    HW216380   3.574   4.341   1.326 -0.6400  0.2021 -0.0454
 4162SOL    HW316381   3.585   4.432   1.206  0.6679 -1.0436 -0.8991
 4162SOL    MW416382   3.616   4.403   1.282  0.4873  0.7223 -0.0200
 4163SOL     OW16383   1.898   3.317   3.302 -0.0290  0.3219  0.3730
 4163SOL    HW216384   1.927   3.226   3.297 -0.1469  0.3565 -1.3092
 4163SOL    HW316385   1.969   3.362   3.347  0.9299 -0.2372 -0.5509
 4163SOL    MW416386   1.911   3.311   3.307  0.1153  0.0815  0.3070
 4164SOL     OW16387   4.190   3.755   0.109  0.1198 -0.2556 -0.1598
 4164SOL    HW216388   4.153   3.843   0.109 -0.3474 -0.4463  0.2505
 4164SOL    HW316389   4.273   3.764   0.156 -0.5020 -0.2577  0.9665
 4164SOL    MW416390   4.196   3.767   0.115  0.4340  0.7093 -0.0195
 4165SOL     OW16391   3.737   1.274   2.299 -0.1371 -0.4844  0.1427
 4165SOL    HW216392   3.689   1.210   2.351  0.5772 -0.8430  0.3688
 4165SOL    HW316393   3.689   1.279   2.217  0.0174 -1.6046 -0.0333
 4165SOL    MW416394   3.724   1.266   2.295  0.8095  0.3465 -0.5356
 4166SOL     OW16395   2.723   1.774   5.188 -0.0331 -0.8778 -0.2811
 4166SOL    HW216396   2.765   1.731   5.114 -1.1416 -1.5498 -0.5330
 4166SOL    HW316397   2.631   1.780   5.164 -0.0495  1.0441  0.0294
 4166SOL    MW416398   2.717   1.769   5.175  0.3717 -0.0067 -0.4721
 4167SOL     OW16399   5.726   2.035   2.964  0.4153 -0.0835 -0.3022
 4167SOL    HW216400   5.813   2.032   2.923 -0.5880 -1.4361 -2.5040
 4167SOL    HW316401   5.684   2.112   2.926 -0.1404 -0.7328 -1.0235
 4167SOL    MW416402   5.732   2.045   2.953  0.0635 -0.0544  0.0822
 4168SOL     OW16403   4.220   1.292   5.127  0.2674  0.2467  0.3053
 4168SOL    HW216404   4.140   1.245   5.152  0.4784  0.2116  0.9096
 4168SOL    HW316405   4.240   1.259   5.039  0.7902 -1.2934  0.9694
 4168SOL    MW416406   4.212   1.281   5.118 -0.1971  0.7330 -0.3871
 4169SOL     OW16407   4.004   0.800   1.144 -0.0451 -0.3432 -0.1999
 4169SOL    HW216408   3.926   0.819   1.196 -0.0752 -1.4297  0.1732
 4169SOL    HW316409   3.973   0.800   1.053 -0.4660 -0.6914 -0.0602
 4169SOL    MW416410   3.990   0.803   1.139 -0.2590 -0.2484 -0.0789
 4170SOL     OW16411   1.125   3.414   5.859 -0.5822 -0.5449 -0.1436
 4170SOL    HW216412   1.138   3.319   5.862 -1.3021 -0.6717 -0.6905
 4170SOL    HW316413   1.190   3.449   5.920 -0.6840 -1.4244  0.4952
 4170SOL    MW416414   1.135   3.406   5.867  0.1491 -0.0860  0.4822
 4171SOL     OW16415   0.321   5.502   3.815  0.1674  0.1932  0.6388
 4171SOL    HW216416   0.284   5.586   3.787  0.5722  0.1964  0.0984
 4171SOL    HW316417   0.248   5.440   3.808  0.3536  0.1024 -0.8671
 4171SOL    MW416418   0.306   5.505   3.811 -0.0961  0.1915 -0.4051
 4172SOL     OW16419   1.279   5.805   0.215  0.4067 -0.0799  0.3011
 4172SOL    HW216420   1.332   5.840   0.143  0.9694  2.2749  1.7516
 4172SOL    HW316421   1.286   5.871   0.284 -1.8250 -1.2474  1.7521
 4172SOL    MW416422   1.287   5.818   0.215  0.2097  0.0150  0.3481
 4173SOL     OW16423   4.925   3.306   5.048 -0.0679 -0.1797  0.4276
 4173SOL    HW216424   4.963   3.385   5.086  0.7889  1.3244 -3.2137
 4173SOL    HW316425   5.000   3.256   5.016 -0.7871 -0.6333 -0.5972
 4173SOL    MW416426   4.940   3.310   5.049 -0.0258 -1.1208 -1.0154
 4174SOL     OW16427   4.318   6.238   6.373  0.2227 -0.4874 -0.0654
 4174SOL    HW216428   4.323   6.149   6.337  2.1709 -0.1554 -0.7145
 4174SOL    HW316429   4.225   6.249   6.395 -0.3646 -2.1020 -1.4613
 4174SOL    MW416430   4.306   6.228   6.371 -0.0361 -0.0329 -0.1853
 4175SOL     OW16431   1.710   0.538   5.201  0.2668  0.4417 -0.0017
 4175SOL    HW216432   1.780   0.600   5.179  1.0013 -0.6132 -0.7856
 4175SOL    HW316433   1.699   0.546   5.295 -0.0624  2.1618 -0.1561
 4175SOL    MW416434   1.718   0.547   5.210 -0.4469  0.2148 -0.0563
 4176SOL     OW16435   5.871   0.386   4.648  0.2540 -0.0607 -0.2567
 4176SOL    HW216436   5.813   0.333   4.593 -0.2298 -2.1855  2.1152
 4176SOL    HW316437   5.953   0.336   4.651  0.6617  0.6162  0.0223
 4176SOL    MW416438   5.874   0.372   4.641  0.2350 -0.4746  0.4757
 4177SOL     OW16439   0.303   4.184   0.897 -0.1558 -0.0103  0.0473
 4177SOL    HW216440   0.353   4.159   0.819 -1.0006 -0.5272 -0.3452
 4177SOL    HW316441   0.354   4.255   0.937  0.3964  0.1156 -0.8578
 4177SOL    MW416442   0.316   4.190   0.892 -0.2367  0.1288 -0.7431
 4178SOL     OW16443   2.355   2.721   2.502 -0.6721 -0.1945 -0.1948
 4178SOL    HW216444   2.443   2.698   2.471 -0.1923  2.2297 -0.8567
 4178SOL    HW316445   2.310   2.751   2.424 -1.4009  0.5455  0.4997
 4178SOL    MW416446   2.361   2.722   2.487  0.5172  0.5883 -0.6923
 4179SOL     OW16447   4.920   4.204   5.940 -0.2309 -0.4048 -0.7387
 4179SOL    HW216448   4.831   4.181   5.915 -0.4134 -0.7715  0.2112
 4179SOL    HW316449   4.913   4.236   6.030  0.5506 -0.0992 -0.7709
 4179SOL    MW416450   4.907   4.205   5.948  0.4619 -0.0370  0.3149
 4180SOL     OW16451   6.149   0.987   3.865  0.3133 -0.2598 -0.7269
 4180SOL    HW216452   6.086   0.917   3.847 -0.7511  0.1682  1.0620
 4180SOL    HW316453   6.136   1.049   3.793 -0.6278 -0.6485 -0.9112
 4180SOL    MW416454   6.139   0.986   3.853 -0.7808 -0.1835 -0.7454
 4181SOL     OW16455   3.539   4.670   2.740  0.2459  0.0125  0.4602
 4181SOL    HW216456   3.485   4.596   2.769 -0.5330  0.5933  0.5233
 4181SOL    HW316457   3.578   4.704   2.821  0.1661  0.0092  0.5005
 4181SOL    MW416458   3.537   4.664   2.754 -0.4554  0.5328 -0.0042
 4182SOL     OW16459   0.451   2.994   3.386  1.1153  0.2699  0.4514
 4182SOL    HW216460   0.360   2.974   3.364  1.7924 -1.5731 -0.9654
 4182SOL    HW316461   0.446   3.073   3.439 -1.2562  0.5963 -0.1346
 4182SOL    MW416462   0.438   3.002   3.390  0.4927  0.4161  0.0226
 4183SOL     OW16463   6.143   2.856   5.591 -0.0398 -0.2331  0.3986
 4183SOL    HW216464   6.086   2.906   5.533  1.8281  0.7310 -0.7149
 4183SOL    HW316465   6.129   2.765   5.567  0.1138  0.1030 -1.0465
 4183SOL    MW416466   6.134   2.851   5.580 -0.0296  0.4304  0.1613
 4184SOL     OW16467   1.450   1.236   4.217  0.0500 -0.0235 -0.1527
 4184SOL    HW216468   1.425   1.328   4.212  0.0181 -0.0759 -1.0840
 4184SOL    HW316469   1.380   1.189   4.172  1.0692 -0.3010 -1.5227
 4184SOL    MW416470   1.437   1.242   4.211  0.4184  0.3773 -0.3413
 4185SOL     OW16471   3.774   2.624   3.607 -0.6620  0.2587  0.4028
 4185SOL    HW216472   3.738   2.568   3.539  1.8490 -0.3514 -0.5041
 4185SOL    HW316473   3.796   2.706   3.562 -0.0136  0.2556  0.6996
 4185SOL    MW416474   3.772   2.628   3.592  0.3081 -0.1714  0.3516
 4186SOL     OW16475   2.462   1.262   1.939 -0.0838  0.0454  0.1032
 4186SOL    HW216476   2.408   1.210   1.998  1.6054 -0.4886  1.2711
 4186SOL    HW316477   2.488   1.338   1.991 -0.9888  1.1162 -0.9680
 4186SOL    MW416478   2.459   1.265   1.954  0.0809 -0.2358 -0.2737
 4187SOL     OW16479   1.431   3.767   5.402  0.3852 -0.0186 -0.0454
 4187SOL    HW216480   1.462   3.700   5.341 -1.6823 -0.2522 -0.9231
 4187SOL    HW316481   1.370   3.819   5.351 -1.3941 -0.1986  1.7929
 4187SOL    MW416482   1.427   3.765   5.387 -0.0053  0.1782  0.2250
 4188SOL     OW16483   4.940   1.151   5.701  0.1322  0.0336 -0.1459
 4188SOL    HW216484   4.920   1.139   5.794  1.3363 -2.0414 -0.1106
 4188SOL    HW316485   4.868   1.109   5.655 -0.1068  0.4530 -0.1646
 4188SOL    MW416486   4.928   1.144   5.707  0.1396 -0.4501  0.1062
 4189SOL     OW16487   5.765   3.623   1.199 -0.6600  0.1474 -0.0072
 4189SOL    HW216488   5.728   3.535   1.209  0.5717 -0.4194 -0.3175
 4189SOL    HW316489   5.828   3.631   1.271 -1.1932  1.0259  0.3884
 4189SOL    MW416490   5.768   3.613   1.210 -0.3611  0.0017 -0.0757
 4190SOL     OW16491   4.642   1.169   6.152  0.8622 -0.1745  0.0033
 4190SOL    HW216492   4.622   1.100   6.215  2.1668  0.5271  1.2436
 4190SOL    HW316493   4.685   1.124   6.079  0.9947 -0.7532  0.4335
 4190SOL    MW416494   4.645   1.154   6.151 -0.0645 -0.1436 -0.2205
 4191SOL     OW16495   5.795   1.606   3.013  0.0335  0.4614  0.1666
 4191SOL    HW216496   5.728   1.652   2.963  0.6313  0.4026 -0.7158
 4191SOL    HW316497   5.747   1.550   3.073 -0.7025  1.0258  0.1165
 4191SOL    MW416498   5.780   1.605   3.014 -0.4582 -0.0883 -0.2087
 4192SOL     OW16499   2.727   2.763   4.163  0.0085  0.5379  0.3348
 4192SOL    HW216500   2.636   2.743   4.185  1.3897 -2.4110  4.4289
 4192SOL    HW316501   2.747   2.706   4.089 -0.9170 -0.3105  0.7239
 4192SOL    MW416502   2.718   2.753   4.156  0.4392  0.3433  0.1598
 4193SOL     OW16503   2.245   1.864   3.360 -0.6208 -0.3770 -0.1980
 4193SOL    HW216504   2.300   1.797   3.321 -0.3139 -1.1908  1.5516
 4193SOL    HW316505   2.201   1.905   3.286  0.3497 -1.4689 -1.4199
 4193SOL    MW416506   2.246   1.861   3.345 -0.3546  0.4933 -0.3426
 4194SOL     OW16507   1.687   5.254   2.399 -0.2239  0.0130 -0.2026
 4194SOL    HW216508   1.756   5.222   2.341  1.6652  2.0452  0.7925
 4194SOL    HW316509   1.606   5.224   2.358  1.1488 -1.0984 -2.2898
 4194SOL    MW416510   1.685   5.246   2.386 -0.0930  0.5583 -0.6577
 4195SOL     OW16511   2.419   1.935   5.313  0.1306  0.1481 -0.7172
 4195SOL    HW216512   2.433   2.024   5.344  2.9289  0.1609 -1.7815
 4195SOL    HW316513   2.425   1.881   5.392 -1.3481  0.7993 -0.1030
 4195SOL    MW416514   2.421   1.940   5.327 -0.5867  0.1894 -0.3694
 4196SOL     OW16515   1.905   5.719   2.904 -0.2502 -0.0161 -0.5190
 4196SOL    HW216516   1.980   5.681   2.950 -1.7142 -0.7999  1.3413
 4196SOL    HW316517   1.940   5.746   2.819  2.0240 -0.7393  0.1273
 4196SOL    MW416518   1.919   5.718   2.899 -0.2145 -0.1285  1.0256
 4197SOL     OW16519   1.627   4.543   1.818  0.6030 -0.3126 -0.4914
 4197SOL    HW216520   1.583   4.505   1.894 -0.4556 -0.4644 -1.1632
 4197SOL    HW316521   1.560   4.546   1.750  1.2416  0.8289 -1.0999
 4197SOL    MW416522   1.612   4.538   1.819  0.4499 -0.1870  0.8305
 4198SOL     OW16523   4.369   5.669   5.300  0.0439  0.3495  0.3139
 4198SOL    HW216524   4.303   5.684   5.232 -0.1215  0.2649  0.4544
 4198SOL    HW316525   4.364   5.746   5.356 -0.6945 -0.1429  0.9436
 4198SOL    MW416526   4.360   5.681   5.299 -0.3915  0.8093  0.1350
 4199SOL     OW16527   5.408   1.545   0.505 -0.1090  0.3533  0.7191
 4199SOL    HW216528   5.313   1.546   0.513 -0.7373 -0.8033 -3.8954
 4199SOL    HW316529   5.427   1.608   0.436  2.4432  0.2112  1.1917
 4199SOL    MW416530   5.398   1.553   0.497 -0.3207 -0.1475 -0.1377
 4200SOL     OW16531   5.317   5.226   5.005 -0.1532 -0.2082 -0.1464
 4200SOL    HW216532   5.380   5.279   4.956 -0.8415  2.2710  1.4705
 4200SOL    HW316533   5.370   5.161   5.050  0.8059 -0.5169 -1.6256
 4200SOL    MW416534   5.332   5.224   5.004 -0.2650 -0.0085  0.2022
 4201SOL     OW16535   2.697   1.036   0.565  0.1170  0.4036 -0.1085
 4201SOL    HW216536   2.715   1.126   0.590  0.8421 -0.3817  2.5241
 4201SOL    HW316537   2.762   1.016   0.497  2.1150  0.9502  1.5353
 4201SOL    MW416538   2.708   1.045   0.559 -0.5946 -0.0928 -0.7237
 4202SOL     OW16539   1.717   0.877   1.058 -0.1278 -0.1052  0.1050
 4202SOL    HW216540   1.739   0.904   0.969 -1.0231 -0.2224 -0.1521
 4202SOL    HW316541   1.622   0.867   1.058 -0.3585  1.6104  1.5397
 4202SOL    MW416542   1.708   0.879   1.046  0.0534  0.5975 -0.2853
 4203SOL     OW16543   3.172   3.474   2.050  0.1860 -0.1160 -0.4041
 4203SOL    HW216544   3.176   3.502   1.958  0.8191  0.0292 -0.3410
 4203SOL    HW316545   3.171   3.378   2.046 -1.7204 -0.1159 -0.6127
 4203SOL    MW416546   3.172   3.465   2.037 -0.5749 -0.4675  0.0074
 4204SOL     OW16547   1.367   5.312   1.470 -0.5366  0.1511 -0.3947
 4204SOL    HW216548   1.280   5.288   1.440 -1.5145  2.0917  0.6486
 4204SOL    HW316549   1.403   5.366   1.400 -0.2375 -0.5166 -0.7564
 4204SOL    MW416550   1.360   5.316   1.457  0.1783 -0.3507 -0.0844
 4205SOL     OW16551   5.741   1.405   4.981  0.1095 -0.0309 -0.1400
 4205SOL    HW216552   5.661   1.439   5.020  0.2351 -1.6329  1.6025
 4205SOL    HW316553   5.712   1.336   4.921  0.1889 -0.9337  0.8437
 4205SOL    MW416554   5.727   1.400   4.978 -0.5753 -0.1555  0.1335
 4206SOL     OW16555   1.332   1.949   5.380 -0.0438  0.2266 -0.1515
 4206SOL    HW216556   1.331   1.968   5.286  0.6782  0.7964 -0.0569
 4206SOL    HW316557   1.318   2.034   5.421  3.0441  0.6462  0.2881
 4206SOL    MW416558   1.330   1.963   5.373  0.2822  0.3002 -0.3098
 4207SOL     OW16559   1.398   2.458   3.517 -0.5388  0.2418 -0.2511
 4207SOL    HW216560   1.308   2.443   3.486 -0.3726  0.1619 -0.7041
 4207SOL    HW316561   1.452   2.451   3.438 -0.1064  0.0626  0.0564
 4207SOL    MW416562   1.393   2.455   3.502 -0.3053 -0.8954  0.3861
 4208SOL     OW16563   4.610   5.536   5.257  0.4082  0.1379  0.1676
 4208SOL    HW216564   4.525   5.566   5.288  0.1617 -1.2039  0.8741
 4208SOL    HW316565   4.597   5.514   5.165  0.1096  0.3444  0.1618
 4208SOL    MW416566   4.597   5.537   5.249  0.4191  0.1613 -0.1717
 4209SOL     OW16567   5.817   4.553   3.246  0.2612  1.1525  0.4363
 4209SOL    HW216568   5.779   4.532   3.331  0.1342 -0.4606  0.0092
 4209SOL    HW316569   5.911   4.557   3.261  0.2606  0.5708  0.5932
 4209SOL    MW416570   5.824   4.551   3.259  0.2002 -0.3440  0.1054
 4210SOL     OW16571   2.839   2.382   4.993 -0.0614  0.3906 -1.0134
 4210SOL    HW216572   2.922   2.345   5.023 -1.1451 -0.5255  1.1101
 4210SOL    HW316573   2.818   2.334   4.913  0.9062 -0.1417 -0.9630
 4210SOL    MW416574   2.847   2.371   4.987 -0.1380 -0.1403  0.1566
 4211SOL     OW16575   2.744   3.223   0.830  0.1085  0.0639  0.4505
 4211SOL    HW216576   2.784   3.278   0.897  0.8125 -0.6387  0.6239
 4211SOL    HW316577   2.650   3.242   0.837  0.2265  0.4235  1.2482
 4211SOL    MW416578   2.737   3.233   0.840  0.1458  0.1514 -0.2303
 4212SOL     OW16579   2.039   5.729   3.762 -0.2997  0.4075  0.0060
 4212SOL    HW216580   2.043   5.684   3.677 -0.6947  0.1202  0.1328
 4212SOL    HW316581   1.948   5.759   3.768  0.2589  2.3166 -0.6200
 4212SOL    MW416582   2.027   5.727   3.751 -0.5832  0.3481  0.5721
 4213SOL     OW16583   3.817   2.303   6.189  0.3000 -0.1681  0.1838
 4213SOL    HW216584   3.876   2.255   6.131  0.7629 -0.5871  0.9780
 4213SOL    HW316585   3.730   2.269   6.169  0.2224  0.9074 -1.4509
 4213SOL    MW416586   3.813   2.292   6.179  0.2656 -0.6697  0.0154
 4214SOL     OW16587   6.174   4.822   4.174  0.5647 -0.4292  0.5724
 4214SOL    HW216588   6.169   4.857   4.263 -0.2856 -0.1773  0.4399
 4214SOL    HW316589   6.093   4.771   4.164  0.9386 -0.9426  0.1456
 4214SOL    MW416590   6.162   4.820   4.184 -0.1083 -0.4280 -0.3910
 4215SOL     OW16591   5.360   3.010   0.123 -0.1941  0.5221 -0.4671
 4215SOL    HW216592   5.275   3.035   0.087 -0.4368 -0.0156 -0.2804
 4215SOL    HW316593   5.344   2.999   0.217 -0.1597 -0.5374 -0.5713
 4215SOL    MW416594   5.347   3.012   0.131  0.8430 -0.3640 -0.1895
 4216SOL     OW16595   5.041   3.292   1.350  0.1738  0.2170  0.2618
 4216SOL    HW216596   5.005   3.372   1.387 -0.4814 -0.3181  0.8055
 4216SOL    HW316597   5.001   3.221   1.400  0.2595 -0.4825 -0.6150
 4216SOL    MW416598   5.031   3.293   1.361 -0.4515 -0.3942 -0.5882
 4217SOL     OW16599   1.616   0.243   5.226  0.4061  0.5949  0.0797
 4217SOL    HW216600   1.633   0.337   5.224  1.7708  0.4554  2.3812
 4217SOL    HW316601   1.701   0.203   5.205  0.3406 -0.1209  1.1447
 4217SOL    MW416602   1.630   0.250   5.223  0.4303  0.0515  0.0815
 4218SOL     OW16603   0.368   4.054   5.264  0.4699  0.1815  0.1981
 4218SOL    HW216604   0.391   4.037   5.173  1.2504  0.3528  0.3591
 4218SOL    HW316605   0.280   4.018   5.274  0.9865 -1.2314 -0.2076
 4218SOL    MW416606   0.359   4.047   5.253  0.1322 -0.0170 -0.3017
 4219SOL     OW16607   6.340   2.405   4.856  0.1103  0.1611 -0.4030
 4219SOL    HW216608   6.266   2.432   4.802 -0.0210 -0.6253 -0.6260
 4219SOL    HW316609   6.361   2.483   4.908 -0.4341  0.6001 -0.8252
 4219SOL    MW416610   6.333   2.419   4.856  0.4058  0.5315  0.7369
 4220SOL     OW16611   3.310   3.901   1.996  0.8156  0.2072 -0.1119
 4220SOL    HW216612   3.306   3.952   2.077 -0.1217  1.0540 -0.6712
 4220SOL    HW316613   3.329   3.965   1.928  1.4652 -0.4797 -0.5862
 4220SOL    MW416614   3.312   3.916   1.998 -0.0370 -0.1577 -0.5510
 4221SOL     OW16615   4.179   4.665   2.234  0.7218  0.2210 -0.6439
 4221SOL    HW216616   4.257   4.647   2.181  0.8574 -0.1725 -0.3151
 4221SOL    HW316617   4.207   4.646   2.324  0.4332  0.6834 -0.4542
 4221SOL    MW416618   4.193   4.660   2.239 -0.0143  0.3998 -0.5315
 4222SOL     OW16619   0.628   4.301   5.175  0.0697  0.3910  0.8699
 4222SOL    HW216620   0.543   4.345   5.169  1.1298  2.5157  0.2114
 4222SOL    HW316621   0.626   4.233   5.108 -1.3792 -0.1176  1.4093
 4222SOL    MW416622   0.617   4.298   5.165 -0.0290 -0.3187 -0.1474
 4223SOL     OW16623   2.020   0.584   6.072  0.0340  0.3817  0.6728
 4223SOL    HW216624   1.937   0.538   6.083 -0.0980  0.6365  0.7347
 4223SOL    HW316625   2.001   0.655   6.012  0.5495 -0.4668 -0.5529
 4223SOL    MW416626   2.007   0.587   6.065  0.5068  0.4295  0.4193
 4224SOL     OW16627   4.486   4.563   6.397 -0.1522 -0.4776 -0.3372
 4224SOL    HW216628   4.541   4.637   6.372  1.0958 -1.4828 -0.6975
 4224SOL    HW316629   4.533   4.522   6.469 -1.3103 -0.3817  0.4950
 4224SOL    MW416630   4.499   4.567   6.403  0.0730 -0.0082  0.6577
 4225SOL     OW16631   6.400   1.746   3.402  0.1973  0.4777 -0.2391
 4225SOL    HW216632   6.359   1.671   3.445  0.1389  0.7119  0.1104
 4225SOL    HW316633   6.453   1.706   3.332  0.0089  0.1239 -0.1844
 4225SOL    MW416634   6.402   1.731   3.398  0.0091  0.1925  0.1339
 4226SOL     OW16635   5.948   1.267   1.876  0.1021 -0.6348  0.4199
 4226SOL    HW216636   5.940   1.354   1.915 -0.9220  0.0720 -1.2665
 4226SOL    HW316637   6.038   1.241   1.895  0.3113  0.6277  1.2850
 4226SOL    MW416638   5.959   1.275   1.883 -0.5018 -0.6115  0.1714
 4227SOL     OW16639   0.846   0.563   5.810 -0.2521  0.0145 -0.2932
 4227SOL    HW216640   0.752   0.553   5.794 -0.0023 -1.5494 -0.9438
 4227SOL    HW316641   0.888   0.512   5.741  1.0829  0.4962  0.1259
 4227SOL    MW416642   0.839   0.555   5.799  0.1175  0.3159  0.4395
 4228SOL     OW16643   0.772   2.708   4.215  0.1392  0.0854 -0.1712
 4228SOL    HW216644   0.829   2.717   4.138  1.0476 -0.4839  0.4060
 4228SOL    HW316645   0.822   2.652   4.274 -0.0589  1.4236  1.2998
 4228SOL    MW416646   0.786   2.702   4.212  0.1543 -0.2113  0.5707
 4229SOL     OW16647   3.414   5.644   1.921  0.1694  0.6290  0.0117
 4229SOL    HW216648   3.388   5.736   1.929  0.5657  0.7029  0.4751
 4229SOL    HW316649   3.392   5.606   2.006 -0.1376  0.2542 -0.2305
 4229SOL    MW416650   3.408   5.651   1.933  0.9881 -0.3023  0.0450
 4230SOL     OW16651   5.547   0.162   3.921  0.1580 -0.0922 -0.4769
 4230SOL    HW216652   5.511   0.085   3.965  0.0727 -0.0045 -0.3931
 4230SOL    HW316653   5.572   0.130   3.834 -0.9722  0.0504 -0.8698
 4230SOL    MW416654   5.545   0.148   3.915  0.0519  0.1932  0.2253
 4231SOL     OW16655   4.894   2.006   3.953 -0.6623 -0.4590  0.1581
 4231SOL    HW216656   4.973   2.060   3.950 -0.4840 -0.7305 -0.2559
 4231SOL    HW316657   4.918   1.931   4.008 -1.0510  0.0966  1.0928
 4231SOL    MW416658   4.908   2.003   3.960 -0.2352  0.5926  0.3656
 4232SOL     OW16659   4.926   4.059   4.720  0.0871 -0.1242  0.0462
 4232SOL    HW216660   5.017   4.071   4.748 -0.1234  1.7239  0.0893
 4232SOL    HW316661   4.916   4.121   4.647 -0.3048 -2.4723 -2.0133
 4232SOL    MW416662   4.937   4.069   4.714  0.2277 -0.5040 -0.1710
 4233SOL     OW16663   3.464   0.612   5.180 -0.0163  0.5169  0.2158
 4233SOL    HW216664   3.485   0.676   5.112  0.0919 -1.9083 -2.2003
 4233SOL    HW316665   3.369   0.619   5.191  0.0923  1.6052  0.5898
 4233SOL    MW416666   3.454   0.621   5.173 -0.1311  0.4855 -0.4180
 4234SOL     OW16667   3.168   2.543   2.978  0.7809 -0.4468 -0.3471
 4234SOL    HW216668   3.135   2.539   3.068  4.4600 -1.7390  1.1115
 4234SOL    HW316669   3.129   2.467   2.935 -3.7250  1.9114 -1.1572
 4234SOL    MW416670   3.158   2.533   2.984  0.4265  0.1461 -0.0749
 4235SOL     OW16671   5.599   1.626   5.572 -0.6315  0.1024 -0.4044
 4235SOL    HW216672   5.679   1.675   5.554 -1.0182  0.8640 -0.0814
 4235SOL    HW316673   5.626   1.556   5.631 -0.4998  1.3918  1.1128
 4235SOL    MW416674   5.613   1.623   5.577 -0.1223  0.3972  0.1726
 4236SOL     OW16675   5.345   2.169   0.535 -0.8387  0.5942 -0.4910
 4236SOL    HW216676   5.368   2.176   0.628 -1.8724  0.2039 -0.1835
 4236SOL    HW316677   5.368   2.080   0.511  2.8092  1.6789 -1.6389
 4236SOL    MW416678   5.351   2.158   0.544  0.0230 -0.9314 -0.3455
 4237SOL     OW16679   3.279   6.030   2.486 -0.2278  0.0865  0.1064
 4237SOL    HW216680   3.305   5.942   2.461 -1.5225 -0.6249  1.1207
 4237SOL    HW316681   3.314   6.042   2.574  1.9919  1.5364 -0.8993
 4237SOL    MW416682   3.287   6.020   2.494 -0.2791  0.2023  0.4073
 4238SOL     OW16683   1.390   4.512   4.085  0.1976  0.1248  0.1898
 4238SOL    HW216684   1.453   4.567   4.132 -1.4714  1.0914  1.3861
 4238SOL    HW316685   1.332   4.479   4.153 -0.2579 -1.2249 -0.8146
 4238SOL    MW416686   1.391   4.515   4.100  0.5644  0.0667  0.1232
 4239SOL     OW16687   4.170   4.065   6.144  0.3528 -0.0961 -0.2583
 4239SOL    HW216688   4.203   3.983   6.181  1.1104  1.0221  1.7155
 4239SOL    HW316689   4.243   4.098   6.092  1.0180  0.4978  0.9891
 4239SOL    MW416690   4.184   4.058   6.142  0.4690  0.3149 -0.5239
 4240SOL     OW16691   2.168   3.368   4.278 -0.0204  0.1998 -0.0597
 4240SOL    HW216692   2.215   3.292   4.242  0.5347  0.9432 -0.9474
 4240SOL    HW316693   2.093   3.379   4.220  0.1604  0.6093 -0.2225
 4240SOL    MW416694   2.165   3.359   4.265  0.1121 -0.1854 -1.2831
 4241SOL     OW16695   3.443   1.287   2.657 -0.4484 -0.3430 -0.3902
 4241SOL    HW216696   3.486   1.226   2.597  0.9506  2.4867 -2.4876
 4241SOL    HW316697   3.481   1.267   2.742  3.8390  0.7099 -1.7918
 4241SOL    MW416698   3.454   1.276   2.660  0.2421  0.6091  0.0642
 4242SOL     OW16699   6.299   0.333   1.175 -0.1641  0.0893  0.8307
 4242SOL    HW216700   6.377   0.277   1.177  1.1305  1.8411  0.8511
 4242SOL    HW316701   6.227   0.273   1.196  1.3143 -1.3217  2.1953
 4242SOL    MW416702   6.299   0.317   1.178 -0.2862  0.0022  0.3302
 4243SOL     OW16703   4.062   5.185   0.827 -0.1408 -0.1085 -0.3212
 4243SOL    HW216704   4.128   5.136   0.875 -1.5839 -0.6099  1.2254
 4243SOL    HW316705   4.101   5.272   0.814  0.6449 -0.2414  0.9947
 4243SOL    MW416706   4.076   5.190   0.831  0.0043 -0.1926  0.3464
 4244SOL     OW16707   6.004   3.056   6.395 -0.0114 -0.1275  0.1807
 4244SOL    HW216708   6.052   3.025   6.318  0.5220 -0.6390  0.7100
 4244SOL    HW316709   6.023   2.992   6.463 -0.4584  0.3290  0.7489
 4244SOL    MW416710   6.013   3.044   6.394  0.1170  0.4114  0.1343
 4245SOL     OW16711   2.930   4.080   6.113  0.1817 -0.3239 -0.1206
 4245SOL    HW216712   2.967   4.150   6.060  0.1052  1.2815  1.8463
 4245SOL    HW316713   2.854   4.050   6.063 -1.8038  3.2968  0.3965
 4245SOL    MW416714   2.924   4.085   6.099 -0.0404 -0.5422 -0.3639
 4246SOL     OW16715   2.963   2.815   4.303  0.1127 -0.1309 -0.2725
 4246SOL    HW216716   2.940   2.884   4.366  0.2689  1.2446 -1.6831
 4246SOL    HW316717   2.885   2.803   4.250  0.0745 -1.0894 -0.0223
 4246SOL    MW416718   2.950   2.823   4.305 -0.3123  0.5707  0.2768
 4247SOL     OW16719   1.264   4.673   2.493  0.0118  0.0814  0.1937
 4247SOL    HW216720   1.276   4.578   2.497 -0.4449 -0.0461 -0.9883
 4247SOL    HW316721   1.244   4.699   2.583  0.4310 -0.8973  0.5788
 4247SOL    MW416722   1.263   4.664   2.505  0.2477 -0.2446  0.0279
 4248SOL     OW16723   3.410   0.949   1.564 -0.2466 -0.4848 -0.0539
 4248SOL    HW216724   3.443   0.917   1.648 -0.2487 -0.4361 -0.0345
 4248SOL    HW316725   3.316   0.933   1.567 -0.3235 -0.0012  0.1679
 4248SOL    MW416726   3.402   0.943   1.575  0.1873 -0.1756 -0.5122
 4249SOL     OW16727   2.980   2.370   1.063 -0.2548  0.0929  0.2083
 4249SOL    HW216728   2.903   2.350   1.117 -1.2774 -0.2356 -1.3206
 4249SOL    HW316729   3.054   2.362   1.123 -1.4067  0.5264  1.7485
 4249SOL    MW416730   2.980   2.366   1.078 -0.4427 -0.1688  0.3240
 4250SOL     OW16731   5.549   0.912   4.407 -0.6711 -0.5899 -0.2900
 4250SOL    HW216732   5.498   0.981   4.449 -0.8211  0.4296 -2.0536
 4250SOL    HW316733   5.616   0.958   4.357  0.3105 -1.8126 -0.1485
 4250SOL    MW416734   5.551   0.927   4.406  0.8899 -0.0360  0.4626
 4251SOL     OW16735   3.743   5.921   3.340 -0.2776 -0.7129  0.1376
 4251SOL    HW216736   3.678   5.853   3.357 -2.3722  1.1025 -0.2053
 4251SOL    HW316737   3.766   5.910   3.248 -1.5872 -0.2191 -0.2749
 4251SOL    MW416738   3.737   5.911   3.330  0.0205  0.3893 -0.4274
 4252SOL     OW16739   3.028   0.523   5.424  0.2661 -0.5318 -0.1957
 4252SOL    HW216740   3.079   0.538   5.345 -0.7383  1.8547 -0.4537
 4252SOL    HW316741   3.087   0.549   5.495  0.0305  0.5529 -0.3847
 4252SOL    MW416742   3.043   0.528   5.423  0.1636 -0.5187 -0.2033
 4253SOL     OW16743   3.732   2.870   2.239  0.1496 -0.3836  0.3807
 4253SOL    HW216744   3.823   2.857   2.264  0.1010 -0.0111  0.7796
 4253SOL    HW316745   3.693   2.914   2.315 -0.4523 -0.8868  0.3716
 4253SOL    MW416746   3.739   2.874   2.253  0.4079  0.1232 -0.4094
 4254SOL     OW16747   1.802   3.311   2.276  0.2841  0.0823 -0.1870
 4254SOL    HW216748   1.811   3.341   2.366 -1.5456 -1.1882  0.4749
 4254SOL    HW316749   1.801   3.216   2.282  1.2506 -0.0533 -1.6963
 4254SOL    MW416750   1.803   3.303   2.288 -0.2117 -0.3948 -0.3568
 4255SOL     OW16751   5.736   0.512   0.429 -0.2037 -0.7329 -0.2076
 4255SOL    HW216752   5.652   0.478   0.396 -1.2853  1.5802 -0.0213
 4255SOL    HW316753   5.739   0.603   0.400  1.7227 -0.4223  0.7829
 4255SOL    MW416754   5.725   0.519   0.421 -0.3231 -0.0128 -0.0570
 4256SOL     OW16755   0.323   1.074   2.893 -0.4522  0.5042  0.4422
 4256SOL    HW216756   0.413   1.066   2.926 -0.5484 -0.8215  0.4180
 4256SOL    HW316757   0.316   1.008   2.824 -2.0060 -0.7868  1.7502
 4256SOL    MW416758   0.334   1.064   2.889  0.2159  0.3542  0.9277
 4257SOL     OW16759   3.613   0.748   2.429 -0.5820  0.1472  0.0568
 4257SOL    HW216760   3.681   0.776   2.490 -0.0199  0.5253 -0.7281
 4257SOL    HW316761   3.637   0.788   2.346 -1.2813 -0.4420 -0.4449
 4257SOL    MW416762   3.625   0.757   2.426  0.1978  0.6802 -0.1956
 4258SOL     OW16763   5.537   2.876   2.707  0.0786  0.7779 -0.6489
 4258SOL    HW216764   5.594   2.877   2.630 -1.6546 -1.9863 -2.1436
 4258SOL    HW316765   5.462   2.822   2.680 -1.3306  0.9631  2.5058
 4258SOL    MW416766   5.535   2.869   2.693  0.4021 -0.1558 -0.5083
 4259SOL     OW16767   4.850   0.120   0.792  0.6088 -0.2221 -0.2360
 4259SOL    HW216768   4.813   0.154   0.711 -0.0041 -0.5204 -0.0842
 4259SOL    HW316769   4.845   0.193   0.853 -1.2973 -0.7470  0.2784
 4259SOL    MW416770   4.845   0.134   0.789  0.3511 -0.5690 -0.2569
 4260SOL     OW16771   4.120   5.292   1.438 -0.1828 -0.6968 -0.0480
 4260SOL    HW216772   4.162   5.238   1.371  0.9588  0.3270 -0.1889
 4260SOL    HW316773   4.030   5.260   1.442 -0.0675 -1.2631 -1.5540
 4260SOL    MW416774   4.114   5.281   1.430 -0.2286 -0.1981 -0.1098
 4261SOL     OW16775   0.657   4.076   4.476  0.4933 -0.1080  0.0456
 4261SOL    HW216776   0.577   4.089   4.425 -0.8857  0.6588  2.2554
 4261SOL    HW316777   0.696   3.996   4.441 -1.0108 -0.2613 -1.3587
 4261SOL    MW416778   0.652   4.068   4.465  0.4335 -0.4823  0.3901
 4262SOL     OW16779   3.166   3.332   5.447 -0.0910  0.1804 -0.3315
 4262SOL    HW216780   3.115   3.280   5.510 -0.2625  0.1848 -0.4678
 4262SOL    HW316781   3.109   3.407   5.426 -0.0554  0.1511 -0.5332
 4262SOL    MW416782   3.151   3.335   5.453  0.2466  0.8859 -0.1569
 4263SOL     OW16783   5.716   3.193   3.903  0.4166 -0.2257 -0.6101
 4263SOL    HW216784   5.774   3.153   3.838  0.3278 -0.0688 -0.7866
 4263SOL    HW316785   5.732   3.143   3.983  1.7159  0.6057 -0.3191
 4263SOL    MW416786   5.726   3.181   3.905  0.3091 -0.1970  0.2401
 4264SOL     OW16787   5.125   2.534   1.863  0.1975 -0.2487  0.1278
 4264SOL    HW216788   5.185   2.479   1.812  1.8898 -0.1696  1.8854
 4264SOL    HW316789   5.067   2.573   1.798  0.6774 -1.9891 -1.4554
 4264SOL    MW416790   5.125   2.532   1.848  0.5264  0.1466 -0.6793
 4265SOL     OW16791   3.391   1.154   3.674 -0.2698 -0.2788  0.4822
 4265SOL    HW216792   3.471   1.111   3.643  0.1359 -0.1154  1.2813
 4265SOL    HW316793   3.325   1.084   3.674 -0.1392 -0.4061 -0.2134
 4265SOL    MW416794   3.393   1.139   3.670 -0.5215 -0.0772  0.3362
 4266SOL     OW16795   2.720   1.371   4.138  0.1224  0.6258  0.0821
 4266SOL    HW216796   2.793   1.420   4.175  0.4384  0.1977  0.0460
 4266SOL    HW316797   2.658   1.437   4.108  0.3086  0.9880  0.4894
 4266SOL    MW416798   2.721   1.386   4.139  0.8016  0.2327 -0.1842
 4267SOL     OW16799   1.023   2.959   3.623 -0.1363  0.0000 -0.3616
 4267SOL    HW216800   1.102   2.932   3.576 -0.8966 -1.3847 -0.9103
 4267SOL    HW316801   1.002   3.045   3.588  1.5604  0.7582  0.3740
 4267SOL    MW416802   1.030   2.967   3.612 -0.5400 -0.3034 -0.4974
 4268SOL     OW16803   1.977   6.123   2.163 -0.1789  0.0513  0.1110
 4268SOL    HW216804   2.068   6.098   2.181 -0.9716 -2.6984  0.7702
 4268SOL    HW316805   1.960   6.195   2.223  1.0082 -0.6836  1.3905
 4268SOL    MW416806   1.987   6.129   2.173  0.1337  0.0881  0.0033
 4269SOL     OW16807   4.892   3.251   6.345  0.1136 -0.1065 -0.0584
 4269SOL    HW216808   4.973   3.207   6.369 -0.2458 -0.3657  0.7213
 4269SOL    HW316809   4.866   3.210   6.262  0.3747 -0.5633  0.0818
 4269SOL    MW416810   4.899   3.240   6.337  0.1820 -0.3104 -0.0121
 4270SOL     OW16811   0.931   5.647   3.106 -0.0481  0.8218 -0.7495
 4270SOL    HW216812   0.855   5.636   3.163  0.6252 -0.8731 -0.1331
 4270SOL    HW316813   0.993   5.697   3.159  0.7266 -1.0722  0.2245
 4270SOL    MW416814   0.929   5.652   3.120 -0.2051 -0.5103  0.1799
 4271SOL     OW16815   3.530   1.139   2.900 -0.0789 -0.4158  0.0251
 4271SOL    HW216816   3.604   1.095   2.943  0.7512 -0.0330 -0.9583
 4271SOL    HW316817   3.495   1.198   2.966 -0.0805 -1.2650  0.7959
 4271SOL    MW416818   3.535   1.141   2.914  0.0959 -0.7362 -0.0930
 4272SOL     OW16819   0.137   6.072   5.063  0.1810 -0.0567 -0.2581
 4272SOL    HW216820   0.078   6.130   5.112  1.1743 -1.1352  2.4540
 4272SOL    HW316821   0.221   6.118   5.064 -0.3093  1.1021 -3.3958
 4272SOL    MW416822   0.140   6.086   5.070  0.0244 -0.0957  0.1023
 4273SOL     OW16823   2.259   3.844   4.359 -0.4349 -0.3259  0.2501
 4273SOL    HW216824   2.320   3.884   4.420  0.6984  0.4339 -1.3382
 4273SOL    HW316825   2.289   3.753   4.351  1.1695  0.2934 -1.2890
 4273SOL    MW416826   2.271   3.837   4.366 -0.7339 -0.7848 -0.2388
 4274SOL     OW16827   4.655   3.123   2.570 -0.5969 -1.2585 -0.5341
 4274SOL    HW216828   4.699   3.081   2.496 -1.7260 -2.0426 -0.7689
 4274SOL    HW316829   4.570   3.080   2.576 -1.4128  0.3187 -0.1718
 4274SOL    MW416830   4.650   3.112   2.561  0.2478 -0.3444  0.0019
 4275SOL     OW16831   4.580   5.675   0.267  0.2588  0.0072  0.5101
 4275SOL    HW216832   4.623   5.627   0.197 -1.2538 -1.0321  0.2449
 4275SOL    HW316833   4.601   5.767   0.250 -0.7929 -0.1141 -1.8452
 4275SOL    MW416834   4.589   5.681   0.256  0.1827 -0.8421  0.0008
 4276SOL     OW16835   3.436   5.213   2.365 -0.3094 -0.8075  0.4531
 4276SOL    HW216836   3.458   5.181   2.452  0.8474 -1.6322 -0.1258
 4276SOL    HW316837   3.353   5.260   2.377  0.4091  0.0939  2.2027
 4276SOL    MW416838   3.428   5.215   2.378  0.1578 -0.5749 -0.3276
 4277SOL     OW16839   0.918   6.220   2.388 -0.2785 -0.0920 -0.2996
 4277SOL    HW216840   0.966   6.293   2.350 -1.9316  0.3507 -1.6222
 4277SOL    HW316841   0.968   6.142   2.361  1.1997  0.4569  0.6974
 4277SOL    MW416842   0.931   6.219   2.380 -0.4655 -0.0446 -0.1016
 4278SOL     OW16843   3.059   3.787   1.600  0.2419  0.0667  0.3111
 4278SOL    HW216844   2.970   3.777   1.634  1.0090 -1.0505  2.1673
 4278SOL    HW316845   3.092   3.866   1.643 -0.2845  1.3298 -1.4988
 4278SOL    MW416846   3.051   3.796   1.610  0.1317 -0.1617  0.3225
 4279SOL     OW16847   1.705   2.427   1.240  0.0034 -0.0285  0.2623
 4279SOL    HW216848   1.706   2.373   1.160  2.9484  3.9297 -2.7828
 4279SOL    HW316849   1.794   2.420   1.275 -0.0850  1.4007  0.8273
 4279SOL    MW416850   1.717   2.419   1.234  0.2146 -0.0500 -0.5263
 4280SOL     OW16851   5.085   2.165   0.431  0.0126  0.6960 -0.5914
 4280SOL    HW216852   5.177   2.148   0.448 -0.3643 -1.8392 -0.7215
 4280SOL    HW316853   5.077   2.159   0.336 -0.4103  0.1285 -0.5238
 4280SOL    MW416854   5.096   2.162   0.421 -0.7555 -0.9671  0.0556
 4281SOL     OW16855   5.670   5.196   1.090  0.0844 -0.0703  0.7819
 4281SOL    HW216856   5.765   5.192   1.089  0.0635 -0.9793 -1.6490
 4281SOL    HW316857   5.641   5.108   1.069 -1.4047 -0.3447  3.4769
 4281SOL    MW416858   5.679   5.184   1.087  0.0431 -0.0337 -0.6371
 4282SOL     OW16859   6.146   2.587   5.531 -1.0645  0.0730 -0.0662
 4282SOL    HW216860   6.169   2.504   5.572 -0.8295  0.3940  0.4574
 4282SOL    HW316861   6.190   2.585   5.446 -1.1082 -0.3604 -0.0812
 4282SOL    MW416862   6.155   2.576   5.525 -0.6427 -0.0178 -0.2135
 4283SOL     OW16863   2.288   5.583   0.160 -0.0612 -0.5846 -0.7442
 4283SOL    HW216864   2.288   5.654   0.224  0.3699  0.0089 -1.3935
 4283SOL    HW316865   2.198   5.578   0.128 -0.4422 -1.3203  0.3623
 4283SOL    MW416866   2.276   5.592   0.165  0.6772 -0.0426  0.0120
 4284SOL     OW16867   5.785   0.612   2.113  0.4049  0.0686  0.0050
 4284SOL    HW216868   5.715   0.558   2.076  0.1352  0.3014  0.1673
 4284SOL    HW316869   5.866   0.571   2.083  0.2006 -0.3673  0.0515
 4284SOL    MW416870   5.787   0.600   2.104 -0.5291  0.0459 -0.0326
 4285SOL     OW16871   2.732   3.867   0.410  0.1385 -0.2301  0.0644
 4285SOL    HW216872   2.687   3.783   0.418 -0.9123  0.0986 -1.7631
 4285SOL    HW316873   2.670   3.931   0.444  0.5393 -0.0757  0.5216
 4285SOL    MW416874   2.718   3.865   0.415  0.3190 -0.5077 -0.6335
 4286SOL     OW16875   4.738   2.162   2.067 -0.5347 -0.0010 -0.2614
 4286SOL    HW216876   4.747   2.178   2.161  0.6551 -1.7519 -0.0310
 4286SOL    HW316877   4.766   2.244   2.026 -1.4056  0.9088  0.8978
 4286SOL    MW416878   4.743   2.175   2.074 -0.6379  0.4306 -0.1914
 4287SOL     OW16879   1.422   0.924   3.474 -0.5139 -0.0192  0.5055
 4287SOL    HW216880   1.439   0.919   3.568 -1.2622  0.4168  0.6765
 4287SOL    HW316881   1.497   0.971   3.438 -1.5854  2.5261  1.3445
 4287SOL    MW416882   1.434   0.930   3.482  0.2936 -0.1109  0.5251
 4288SOL     OW16883   1.264   4.305   1.666  0.3702  0.1225 -0.3462
 4288SOL    HW216884   1.330   4.319   1.734  0.8617 -0.8700 -0.5983
 4288SOL    HW316885   1.314   4.303   1.584 -0.3074  2.2307 -0.8828
 4288SOL    MW416886   1.279   4.306   1.664 -0.0761  0.4122 -0.3287
 4289SOL     OW16887   1.683   3.725   1.486 -0.1242 -0.3883 -0.5054
 4289SOL    HW216888   1.696   3.634   1.459 -1.0818 -1.4993  2.3781
 4289SOL    HW316889   1.588   3.735   1.490 -0.0579 -0.1306  1.5739
 4289SOL    MW416890   1.672   3.714   1.483 -0.0018  0.2568  0.6568
 4290SOL     OW16891   0.713   4.776   4.372  0.0515  0.4745  0.0290
 4290SOL    HW216892   0.711   4.777   4.468 -0.2011  3.1108  0.0727
 4290SOL    HW316893   0.805   4.761   4.350  0.0660 -0.4149  0.6606
 4290SOL    MW416894   0.725   4.774   4.382  0.9178 -0.6495 -0.0517
 4291SOL     OW16895   2.247   4.624   2.689 -0.5155  0.0001  0.3878
 4291SOL    HW216896   2.154   4.600   2.683  0.0062 -1.7348 -2.7391
 4291SOL    HW316897   2.271   4.650   2.600  1.9346  0.7812  1.1966
 4291SOL    MW416898   2.238   4.624   2.677  0.0860  0.4347  0.2103
 4292SOL     OW16899   1.392   6.166   0.947 -0.1657 -0.0160  0.4524
 4292SOL    HW216900   1.446   6.127   0.879  0.1840  1.0198  0.1086
 4292SOL    HW316901   1.310   6.117   0.943 -0.0273 -0.1993 -0.4902
 4292SOL    MW416902   1.388   6.155   0.938 -0.3837 -0.4284 -0.3158
 4293SOL     OW16903   0.075   1.173   2.273  0.1511  0.7394 -0.2028
 4293SOL    HW216904   0.126   1.237   2.223  1.5841 -0.5103 -0.4021
 4293SOL    HW316905   0.131   1.096   2.277 -1.3631 -0.3683  0.4014
 4293SOL    MW416906   0.089   1.171   2.267 -0.2490 -0.1114 -0.2460
 4294SOL     OW16907   0.055   2.434   2.018 -0.3760 -0.1794  0.2245
 4294SOL    HW216908   0.140   2.412   1.980  0.2025 -0.0629  1.4066
 4294SOL    HW316909   0.031   2.358   2.070 -1.3015 -0.4587 -0.5606
 4294SOL    MW416910   0.063   2.421   2.020  0.5708 -0.5875  0.0483
 4295SOL     OW16911   0.803   5.933   0.738 -0.0688 -0.2330 -0.5074
 4295SOL    HW216912   0.890   5.895   0.731  0.5305  0.4604  2.1516
 4295SOL    HW316913   0.750   5.865   0.780  0.0630  0.4767  0.8576
 4295SOL    MW416914   0.807   5.919   0.743 -0.0029  0.1599 -0.0648
 4296SOL     OW16915   2.831   1.606   0.657  0.0486  0.1019  0.1116
 4296SOL    HW216916   2.858   1.697   0.665 -1.2739  0.5300 -0.0373
 4296SOL    HW316917   2.805   1.580   0.745 -3.1965  1.1059 -0.4213
 4296SOL    MW416918   2.831   1.614   0.669  0.0359  0.0581 -0.0028
 4297SOL     OW16919   5.894   4.997   6.184 -0.7336 -0.1224  0.6479
 4297SOL    HW216920   5.959   4.940   6.143 -0.4780  0.3554  0.3843
 4297SOL    HW316921   5.876   5.064   6.118  0.1666  1.0360  1.5466
 4297SOL    MW416922   5.900   4.998   6.170  0.4657  0.5679 -0.1714
 4298SOL     OW16923   3.373   5.725   5.080  0.1750 -0.1778 -0.0663
 4298SOL    HW216924   3.327   5.783   5.141  0.1901 -0.9274  0.6727
 4298SOL    HW316925   3.377   5.775   4.999 -0.8301  0.4060  0.2236
 4298SOL    MW416926   3.367   5.740   5.078  0.2921 -0.1556 -0.1975
 4299SOL     OW16927   1.503   0.493   3.158  0.2348 -0.3304 -0.2252
 4299SOL    HW216928   1.542   0.575   3.190  0.6574 -0.0398 -1.4502
 4299SOL    HW316929   1.466   0.516   3.073  0.6984 -1.5077 -0.7537
 4299SOL    MW416930   1.503   0.507   3.151  0.3493  0.0184 -0.6996
 4300SOL     OW16931   1.342   1.188   0.015 -0.3442  0.1092  0.5159
 4300SOL    HW216932   1.388   1.164   0.095  0.8522 -2.0953 -0.7124
 4300SOL    HW316933   1.400   1.251  -0.028  0.2316 -0.6043  0.2347
 4300SOL    MW416934   1.356   1.193   0.020  0.5134 -0.1021 -0.4882
 4301SOL     OW16935   3.738   2.026   3.342 -0.0466  0.0887  0.1948
 4301SOL    HW216936   3.816   1.983   3.306 -0.6230 -1.7927  1.0451
 4301SOL    HW316937   3.720   2.098   3.282  0.6029 -1.2718 -1.7244
 4301SOL    MW416938   3.746   2.030   3.330 -0.5370  0.2605 -0.3233
 4302SOL     OW16939   6.333   6.054   6.139  0.9206  0.5182  0.0605
 4302SOL    HW216940   6.373   5.991   6.199  0.4314  0.8709  0.7608
 4302SOL    HW316941   6.265   6.005   6.095  0.9437  0.3934  0.1624
 4302SOL    MW416942   6.330   6.039   6.141 -0.0126  0.3381  0.2386
 4303SOL     OW16943   6.374   0.998   5.241  0.0495  0.4669  0.5463
 4303SOL    HW216944   6.453   0.945   5.251  0.0704  0.0678 -1.3322
 4303SOL    HW316945   6.314   0.942   5.191 -1.3215  0.8853  1.6600
 4303SOL    MW416946   6.376   0.984   5.236  0.0781 -0.2935  0.0740
 4304SOL     OW16947   4.394   1.704   3.100  0.0559  1.0642  0.0729
 4304SOL    HW216948   4.485   1.678   3.112 -0.1793  0.7151  1.2070
 4304SOL    HW316949   4.355   1.697   3.187 -1.6551 -1.0456 -0.7801
 4304SOL    MW416950   4.400   1.700   3.113 -0.0804  0.2253 -0.1582
 4305SOL     OW16951   0.290   3.358   1.184 -0.0313  0.1469  0.3086
 4305SOL    HW216952   0.288   3.428   1.250 -0.0581 -0.2654  0.7470
 4305SOL    HW316953   0.317   3.280   1.232  1.6311  0.1902 -0.5092
 4305SOL    MW416954   0.293   3.357   1.199  0.0777 -0.6602 -0.0470
 4306SOL     OW16955   5.254   1.798   6.413 -0.4907 -0.6099  1.0024
 4306SOL    HW216956   5.257   1.812   6.318 -1.5115 -0.8057  0.9289
 4306SOL    HW316957   5.337   1.756   6.433 -0.6368 -1.4182  0.0393
 4306SOL    MW416958   5.265   1.795   6.403 -0.6131  0.4209  0.3202
 4307SOL     OW16959   0.626   5.260   1.737 -0.0746 -0.1236  0.6472
 4307SOL    HW216960   0.676   5.214   1.805 -0.0230 -0.3876  0.4331
 4307SOL    HW316961   0.600   5.342   1.778 -1.0497 -0.7800  1.3952
 4307SOL    MW416962   0.629   5.265   1.752 -0.3390  0.2780  0.3738
 4308SOL     OW16963   4.604   0.549   0.606  0.1333  0.4437  0.1181
 4308SOL    HW216964   4.584   0.486   0.675 -1.7796 -1.1407 -1.7491
 4308SOL    HW316965   4.523   0.599   0.595 -0.0732 -0.2436 -1.8307
 4308SOL    MW416966   4.591   0.547   0.613 -0.2644  0.3903  0.3029
 4309SOL     OW16967   0.212   0.820   5.286 -0.3027 -0.0806  0.1887
 4309SOL    HW216968   0.162   0.738   5.278 -0.8737  0.3011 -0.2806
 4309SOL    HW316969   0.259   0.828   5.204  1.7244 -1.1685  1.1755
 4309SOL    MW416970   0.211   0.810   5.274 -0.5411 -0.5813  0.6378
 4310SOL     OW16971   3.377   0.427   5.450  0.2727  0.0902 -0.2914
 4310SOL    HW216972   3.328   0.482   5.511 -0.7987 -0.4616 -0.6240
 4310SOL    HW316973   3.330   0.437   5.367  1.9338  1.1368 -1.1458
 4310SOL    MW416974   3.364   0.435   5.447 -0.0148  0.1784 -0.3394
 4311SOL     OW16975   5.669   6.273   3.037 -0.1501 -0.3337  0.2248
 4311SOL    HW216976   5.669   6.354   3.088  0.4236 -1.2324  1.7173
 4311SOL    HW316977   5.762   6.257   3.019 -0.1909 -1.0693  0.6385
 4311SOL    MW416978   5.681   6.282   3.042 -0.4546  0.2624  0.5973
 4312SOL     OW16979   0.783   4.007   0.022 -0.2720  0.0680  0.2060
 4312SOL    HW216980   0.726   3.933   0.043 -0.9982  0.6275  0.2299
 4312SOL    HW316981   0.858   3.997   0.080 -1.0431  0.1547  1.2408
 4312SOL    MW416982   0.786   3.996   0.032 -0.0729  0.0537 -0.4731
 4313SOL     OW16983   0.787   3.699   5.171  0.0016 -0.4246  0.1918
 4313SOL    HW216984   0.815   3.621   5.219 -0.5934 -1.4998 -1.1525
 4313SOL    HW316985   0.751   3.666   5.089  3.0052  1.3774 -2.1026
 4313SOL    MW416986   0.786   3.685   5.167  0.3847 -0.1141  0.1097
 4314SOL     OW16987   3.978   0.272   6.267  0.2548 -0.2043  0.2948
 4314SOL    HW216988   3.931   0.353   6.245  1.6755  0.0848 -1.9607
 4314SOL    HW316989   4.051   0.301   6.322  1.1039  0.1780 -0.9919
 4314SOL    MW416990   3.981   0.287   6.271 -0.2022  0.3136  0.3493
 4315SOL     OW16991   0.524   4.189   6.348  0.2880  0.2889  0.1547
 4315SOL    HW216992   0.465   4.114   6.337  0.4116 -0.1326  2.0450
 4315SOL    HW316993   0.611   4.150   6.354  0.4759  0.6808 -0.0134
 4315SOL    MW416994   0.528   4.174   6.348  0.0038 -0.7154 -0.2221
 4316SOL     OW16995   3.973   3.091   2.666  0.0910  0.0828 -0.0748
 4316SOL    HW216996   3.987   3.137   2.584 -0.3828  1.7361  0.7145
 4316SOL    HW316997   4.049   3.115   2.720 -0.1509 -0.0723  0.3405
 4316SOL    MW416998   3.985   3.100   2.663 -0.1750 -0.2417  0.1473
 4317SOL     OW16999   3.026   0.113   3.348  0.3805 -0.5681 -0.1983
 4317SOL    HW217000   2.966   0.163   3.404 -0.3870 -1.3634 -0.2829
 4317SOL    HW317001   3.110   0.116   3.393 -0.0815 -0.6820  0.6881
 4317SOL    MW417002   3.029   0.120   3.361 -0.2290  0.8721  0.4564
 4318SOL     OW17003   4.584   6.298   5.449  0.2255 -0.2990  0.3050
 4318SOL    HW217004   4.641   6.375   5.455 -0.9232  0.5510  0.6642
 4318SOL    HW317005   4.578   6.266   5.539  1.9662 -1.8131 -0.0444
 4318SOL    MW417006   4.591   6.304   5.462  0.2884  0.0002  0.1931
 4319SOL     OW17007   3.813   0.718   4.017 -0.2874  0.3470 -0.0427
 4319SOL    HW217008   3.793   0.676   3.933 -0.1201 -2.1762  1.0858
 4319SOL    HW317009   3.727   0.732   4.058 -0.3812  1.7589 -0.6720
 4319SOL    MW417010   3.799   0.715   4.011 -0.0846 -0.0523 -0.0924
 4320SOL     OW17011   6.137   3.357   1.515 -0.0068 -0.0692  0.3947
 4320SOL    HW217012   6.217   3.308   1.532 -0.2350  0.1922  2.4630
 4320SOL    HW317013   6.066   3.298   1.541 -0.4793 -0.0031 -0.6649
 4320SOL    MW417014   6.138   3.343   1.520  0.3150  0.9042 -0.1305
 4321SOL     OW17015   6.039   4.549   4.437  0.2410  0.4824  0.4490
 4321SOL    HW217016   5.978   4.485   4.473  0.8999 -0.9258 -0.8246
 4321SOL    HW317017   5.984   4.626   4.419 -0.9943 -0.4281  0.1460
 4321SOL    MW417018   6.023   4.551   4.439  0.5665 -0.2952 -0.1399
 4322SOL     OW17019   5.739   1.399   4.021  0.4238  0.5537 -0.3607
 4322SOL    HW217020   5.801   1.337   3.984  1.5124  1.4780 -0.1680
 4322SOL    HW317021   5.778   1.485   4.003  0.8941  1.0972  2.5873
 4322SOL    MW417022   5.752   1.402   4.014 -0.4320 -0.1715  0.0136
 4323SOL     OW17023   2.731   0.038   4.738 -0.0669 -0.0849  0.3088
 4323SOL    HW217024   2.707  -0.054   4.734 -0.5715  0.0257  0.6079
 4323SOL    HW317025   2.746   0.063   4.647 -0.2180 -0.3895  0.1992
 4323SOL    MW417026   2.729   0.029   4.725 -0.2526 -0.3251 -0.0703
 4324SOL     OW17027   2.853   3.140   6.315  0.1095 -0.0402  0.1187
 4324SOL    HW217028   2.828   3.123   6.406 -2.6768  1.3892 -0.2591
 4324SOL    HW317029   2.770   3.163   6.272  1.4345 -0.1313 -2.6594
 4324SOL    MW417030   2.838   3.141   6.321 -0.4095 -0.3604 -0.2049
 4325SOL     OW17031   2.785   4.805   0.392 -0.4216  0.0550 -0.0174
 4325SOL    HW217032   2.710   4.796   0.333 -0.7005  2.6946 -0.1991
 4325SOL    HW317033   2.853   4.844   0.338 -0.2337  1.2823  1.0557
 4325SOL    MW417034   2.784   4.809   0.377  0.0736 -0.4277  0.2253
 4326SOL     OW17035   0.771   5.317   3.764 -0.0181  0.0411  0.0987
 4326SOL    HW217036   0.730   5.399   3.736  1.5186  0.8063 -0.0179
 4326SOL    HW317037   0.850   5.345   3.810  0.2315 -1.3743  0.5600
 4326SOL    MW417038   0.776   5.332   3.767 -0.1700 -0.1334  0.4074
 4327SOL     OW17039   4.563   1.077   1.265  0.1435 -0.0994 -0.2470
 4327SOL    HW217040   4.650   1.050   1.294  0.2088 -0.0675 -0.4180
 4327SOL    HW317041   4.576   1.115   1.178 -0.1365 -0.7151 -0.5635
 4327SOL    MW417042   4.576   1.078   1.258  0.5985  0.1508  0.3630
 4328SOL     OW17043   1.732   4.807   1.482  0.8004  0.1241 -0.4583
 4328SOL    HW217044   1.792   4.740   1.513  1.6702  1.3181  0.5309
 4328SOL    HW317045   1.765   4.888   1.520 -1.9318  0.7345  0.8210
 4328SOL    MW417046   1.744   4.809   1.491 -0.0653  0.1314  0.7580
 4329SOL     OW17047   5.859   3.355   0.642  0.4763 -0.0115  0.3866
 4329SOL    HW217048   5.773   3.359   0.685  1.0158  0.5846  1.4576
 4329SOL    HW317049   5.902   3.280   0.682  0.7055  0.1034  0.3561
 4329SOL    MW417050   5.853   3.346   0.653  0.0741 -1.0414 -0.0093
 4330SOL     OW17051   5.035   3.450   3.604 -0.0544 -0.2237 -0.1472
 4330SOL    HW217052   5.093   3.526   3.600  0.8149 -0.6317  2.6034
 4330SOL    HW317053   5.094   3.375   3.616 -1.0255 -0.9729  0.0881
 4330SOL    MW417054   5.050   3.450   3.605 -0.4347 -1.1172 -0.2515
 4331SOL     OW17055   4.766   1.536   0.009  0.2340 -0.2356 -0.2398
 4331SOL    HW217056   4.785   1.566   0.098  0.4839 -0.7989 -0.1007
 4331SOL    HW317057   4.695   1.473   0.020 -0.1416  0.1354 -0.5073
 4331SOL    MW417058   4.759   1.532   0.022 -0.1933  0.3657 -0.0908
 4332SOL     OW17059   0.952   2.194   4.080  0.0979  0.4608 -0.1702
 4332SOL    HW217060   0.886   2.128   4.102 -0.5671  1.3737  0.6683
 4332SOL    HW317061   0.902   2.267   4.044  0.3913  1.8745  2.0907
 4332SOL    MW417062   0.937   2.194   4.078 -1.1007  0.0572  0.3842
 4333SOL     OW17063   3.452   4.971   4.832 -0.0219  0.3269  0.0098
 4333SOL    HW217064   3.486   4.996   4.747 -0.3087  1.3707  0.1881
 4333SOL    HW317065   3.524   4.925   4.875  0.0283 -0.4470 -0.8903
 4333SOL    MW417066   3.466   4.968   4.827  0.6153  0.1306  0.0575
 4334SOL     OW17067   5.091   0.521   2.622 -0.4250 -0.5315  0.2065
 4334SOL    HW217068   5.186   0.532   2.625 -0.3555 -0.5392 -1.0989
 4334SOL    HW317069   5.078   0.433   2.586 -0.9189 -0.3232 -0.1374
 4334SOL    MW417070   5.102   0.511   2.617 -0.0946 -0.3984 -0.2057
 4335SOL     OW17071   1.143   2.549   0.642 -0.5969 -0.3293  0.3519
 4335SOL    HW217072   1.214   2.484   0.644 -1.2654 -1.0704  1.0067
 4335SOL    HW317073   1.151   2.592   0.557  0.9206 -0.0759  0.5959
 4335SOL    MW417074   1.154   2.546   0.631  0.3270  0.3093 -0.2299
 4336SOL     OW17075   3.449   1.785   0.674 -0.2170  0.6083  0.6976
 4336SOL    HW217076   3.442   1.772   0.580 -1.7374  0.7483  0.7689
 4336SOL    HW317077   3.449   1.697   0.711 -0.0908  0.5679  0.6040
 4336SOL    MW417078   3.448   1.772   0.666  0.0080  0.9753  0.2814
 4337SOL     OW17079   4.611   3.589   0.981 -0.1700 -0.0924  0.5382
 4337SOL    HW217080   4.538   3.612   1.038 -0.5431 -0.0556  0.0507
 4337SOL    HW317081   4.582   3.509   0.936 -0.0056  0.0458  0.1788
 4337SOL    MW417082   4.597   3.581   0.982  0.4268 -0.0020  0.2221
 4338SOL     OW17083   1.234   1.571   4.819  0.3644  0.4462  0.3797
 4338SOL    HW217084   1.265   1.662   4.824  1.2360  0.2582 -0.9530
 4338SOL    HW317085   1.308   1.519   4.853  0.1586  0.1873  0.4346
 4338SOL    MW417086   1.248   1.576   4.824  0.3618 -0.0621 -0.6520
 4339SOL     OW17087   6.132   6.238   3.322 -0.3528 -0.0448  0.6976
 4339SOL    HW217088   6.187   6.268   3.249 -2.3066  2.3201  0.0544
 4339SOL    HW317089   6.074   6.173   3.283  0.3299 -0.7321  0.8030
 4339SOL    MW417090   6.132   6.233   3.307  0.3218  0.1405  0.1011
 4340SOL     OW17091   5.911   1.601   3.999  0.2537 -0.0624  0.0329
 4340SOL    HW217092   5.987   1.544   3.984 -0.5521 -0.8524 -1.2175
 4340SOL    HW317093   5.938   1.658   4.071  1.7946 -0.7499  0.0424
 4340SOL    MW417094   5.925   1.601   4.007  0.4208 -0.1663  0.6952
 4341SOL     OW17095   6.115   4.521   0.232  0.1869 -0.3518 -0.0049
 4341SOL    HW217096   6.171   4.501   0.157  1.7422  0.0749  0.9931
 4341SOL    HW317097   6.131   4.614   0.249 -2.6226  0.4377 -1.0888
 4341SOL    MW417098   6.125   4.531   0.224  0.8024 -0.0288 -0.2410
 4342SOL     OW17099   4.814   1.373   1.380 -0.3622 -0.6663  0.8227
 4342SOL    HW217100   4.831   1.301   1.320  1.2685 -1.2677  1.9145
 4342SOL    HW317101   4.722   1.365   1.403 -0.6059 -1.3890 -0.3329
 4342SOL    MW417102   4.804   1.363   1.375  0.0266 -0.2684 -0.3532
 4343SOL     OW17103   0.176   2.844   3.964 -0.5285  0.2307 -0.4738
 4343SOL    HW217104   0.123   2.768   3.986  1.5656 -0.7665  1.6839
 4343SOL    HW317105   0.166   2.902   4.040  0.0644  0.8065 -0.8293
 4343SOL    MW417106   0.168   2.842   3.977  0.2072  0.5641 -0.4735
 4344SOL     OW17107   3.343   2.876   0.869 -0.4024  0.2753  0.1141
 4344SOL    HW217108   3.300   2.829   0.797 -0.6209  0.8603 -0.1432
 4344SOL    HW317109   3.376   2.807   0.927 -1.8289 -0.2024  0.3999
 4344SOL    MW417110   3.342   2.860   0.867  0.7522  0.5333 -0.2144
 4345SOL     OW17111   6.237   2.768   4.601 -0.3733 -0.2629 -0.0485
 4345SOL    HW217112   6.232   2.682   4.559  1.8825 -0.1251 -0.7252
 4345SOL    HW317113   6.170   2.765   4.669 -2.3041 -1.4996 -1.8817
 4345SOL    MW417114   6.228   2.756   4.604 -0.0714  0.5999 -0.3297
 4346SOL     OW17115   6.206   1.793   2.478  0.2679 -0.4540 -0.0111
 4346SOL    HW217116   6.233   1.709   2.439  0.0022 -0.7473  0.4193
 4346SOL    HW317117   6.132   1.770   2.534  0.8685 -0.1128  0.9547
 4346SOL    MW417118   6.200   1.779   2.480 -0.8287  0.1765 -0.0079
 4347SOL     OW17119   0.822   2.110   4.852  0.4686 -0.3476 -0.6614
 4347SOL    HW217120   0.865   2.166   4.788  0.9561 -1.8295 -1.6683
 4347SOL    HW317121   0.776   2.171   4.910 -0.4924  1.0222 -2.7577
 4347SOL    MW417122   0.822   2.126   4.851 -0.4170 -0.9308 -0.2315
 4348SOL     OW17123   5.633   1.138   5.494  0.5220  0.0857  0.0698
 4348SOL    HW217124   5.700   1.153   5.561  0.5497 -1.2144  0.3657
 4348SOL    HW317125   5.611   1.045   5.502 -0.4778  0.2198 -0.8093
 4348SOL    MW417126   5.639   1.128   5.504 -0.2126  0.0090 -0.2789
 4349SOL     OW17127   4.952   1.937   2.459 -0.5326  0.1805  0.5930
 4349SOL    HW217128   4.997   1.971   2.382 -0.2864 -0.3359  0.5036
 4349SOL    HW317129   4.870   1.900   2.425 -1.0741  1.1901  0.7658
 4349SOL    MW417130   4.947   1.936   2.445  0.1456 -0.1439 -0.0654
 4350SOL     OW17131   4.240   0.025   4.531  0.9347  0.5606  0.3658
 4350SOL    HW217132   4.225  -0.045   4.467  1.7887  0.5968  0.1196
 4350SOL    HW317133   4.154   0.064   4.544  0.2522 -1.1283  1.1918
 4350SOL    MW417134   4.227   0.021   4.524 -0.0011 -0.3168 -0.3417
 4351SOL     OW17135   3.514   3.333   3.910 -0.3415 -0.2630 -0.1355
 4351SOL    HW217136   3.534   3.328   3.817 -0.7491  1.8446 -0.3786
 4351SOL    HW317137   3.578   3.396   3.944 -1.1688  0.1338  0.7099
 4351SOL    MW417138   3.525   3.340   3.902 -0.1235  0.4605  0.0119
 4352SOL     OW17139   1.247   3.379   2.593  0.1609 -0.2773  0.3621
 4352SOL    HW217140   1.226   3.330   2.672 -0.5442 -0.3183  0.1500
 4352SOL    HW317141   1.166   3.423   2.569  0.5026  0.1398 -0.0580
 4352SOL    MW417142   1.234   3.378   2.600 -0.4651  0.1167 -0.1576
 4353SOL     OW17143   4.754   4.190   3.866 -0.3078  0.1102  0.3427
 4353SOL    HW217144   4.784   4.278   3.844  1.4513 -0.7808 -1.0495
 4353SOL    HW317145   4.768   4.138   3.787  0.6119 -1.8806  1.7100
 4353SOL    MW417146   4.760   4.195   3.853 -0.6196  0.1668  0.0562
 4354SOL     OW17147   2.870   3.424   3.857 -0.3849  0.1250  0.1071
 4354SOL    HW217148   2.844   3.445   3.767 -0.4313 -1.4221 -0.2676
 4354SOL    HW317149   2.940   3.486   3.876 -0.8187  0.9015 -0.7631
 4354SOL    MW417150   2.876   3.435   3.848  0.3122  0.1252 -0.9067
 4355SOL     OW17151   4.073   1.825   1.208  0.1149  0.5612 -0.1520
 4355SOL    HW217152   4.146   1.831   1.270  0.6223  1.6710 -0.8346
 4355SOL    HW317153   4.114   1.811   1.123 -0.5301  0.0245 -0.3838
 4355SOL    MW417154   4.088   1.824   1.205  0.2026 -0.3657  0.5253
 4356SOL     OW17155   3.210   1.510   0.316  0.1856  0.4376 -0.5316
 4356SOL    HW217156   3.178   1.440   0.259  1.5718 -1.3670  0.7847
 4356SOL    HW317157   3.146   1.513   0.388  0.0025  0.6945 -0.7038
 4356SOL    MW417158   3.197   1.501   0.318  0.1527  0.1278  0.6956
 4357SOL     OW17159   2.814   0.881   3.390 -0.1400  0.3807  0.3114
 4357SOL    HW217160   2.743   0.869   3.453  0.1779 -0.8841  0.4535
 4357SOL    HW317161   2.801   0.811   3.326  0.3125  0.8495 -0.3067
 4357SOL    MW417162   2.803   0.870   3.390  0.5552  0.8260 -0.2001
 4358SOL     OW17163   6.111   6.114   1.963 -0.0081  0.4069 -0.1483
 4358SOL    HW217164   6.030   6.145   1.922 -2.7342 -2.1677  2.6124
 4358SOL    HW317165   6.119   6.023   1.934  0.0204 -0.3404  2.0046
 4358SOL    MW417166   6.101   6.106   1.954 -0.3348 -0.6251  0.2453
 4359SOL     OW17167   5.321   3.209   3.954  0.8290  0.5282 -0.4184
 4359SOL    HW217168   5.390   3.247   4.008 -0.1104  1.4382  0.1925
 4359SOL    HW317169   5.357   3.211   3.865  1.6578  0.8087 -0.0919
 4359SOL    MW417170   5.335   3.214   3.949  0.1894  0.0909 -0.0948
 4360SOL     OW17171   3.488   3.493   1.218  0.0385  0.6889  0.0311
 4360SOL    HW217172   3.540   3.573   1.212 -1.0144  1.5083  1.1844
 4360SOL    HW317173   3.414   3.508   1.159  0.7992 -0.2609 -1.2164
 4360SOL    MW417174   3.485   3.505   1.209 -0.0386  0.0265  0.1882
 4361SOL     OW17175   4.378   0.172   2.065 -0.4218  0.0831 -0.1719
 4361SOL    HW217176   4.368   0.263   2.093 -1.1366 -0.1343  0.2901
 4361SOL    HW317177   4.439   0.177   1.991  0.2102  0.8447  0.3760
 4361SOL    MW417178   4.385   0.185   2.059  0.2991 -0.0453  0.4475
 4362SOL     OW17179   3.731   4.025   1.452 -0.0478  0.1598 -0.5872
 4362SOL    HW217180   3.699   3.935   1.450  0.5522 -0.0420 -1.3551
 4362SOL    HW317181   3.667   4.074   1.400 -0.3709  0.1910 -0.1744
 4362SOL    MW417182   3.718   4.020   1.445  0.1327  0.5190  0.1645
 4363SOL     OW17183   1.028   3.147   4.281  0.1505 -0.3871  0.5353
 4363SOL    HW217184   1.027   3.061   4.325 -2.2472  0.5080  2.4694
 4363SOL    HW317185   0.950   3.147   4.227  0.7143  0.2253 -0.3059
 4363SOL    MW417186   1.018   3.135   4.280 -0.0149  0.7866 -0.0215
 4364SOL     OW17187   5.525   2.215   1.828  0.1191  0.2297  0.2532
 4364SOL    HW217188   5.460   2.280   1.801  0.5100  0.7365  0.5043
 4364SOL    HW317189   5.583   2.205   1.753  1.4999  2.0072  1.0063
 4364SOL    MW417190   5.524   2.222   1.815  0.3334  0.2828 -0.2729
 4365SOL     OW17191   6.282   4.465   1.555  0.2145 -0.1322 -0.1824
 4365SOL    HW217192   6.277   4.465   1.459  1.6610 -0.2029 -0.2795
 4365SOL    HW317193   6.237   4.546   1.581  0.9724  0.5805 -1.0179
 4365SOL    MW417194   6.275   4.476   1.546  0.1369 -0.4348  0.2550
 4366SOL     OW17195   3.590   1.951   6.205  0.0360 -0.1697 -0.5532
 4366SOL    HW217196   3.574   1.999   6.124  3.3183  1.6411 -0.2878
 4366SOL    HW317197   3.669   1.901   6.188  0.1087 -0.7039  1.1607
 4366SOL    MW417198   3.598   1.951   6.192 -0.0189  0.2203  0.4022
 4367SOL     OW17199   1.576   5.309   0.491  0.4188 -0.1904  0.0203
 4367SOL    HW217200   1.570   5.365   0.568  1.2575  1.1301 -0.8322
 4367SOL    HW317201   1.631   5.235   0.519 -0.2673 -0.3516  1.0048
 4367SOL    MW417202   1.583   5.306   0.505 -0.1230  0.0512 -0.1533
 4368SOL     OW17203   5.028   5.648   4.068  0.5052 -0.2083 -0.2701
 4368SOL    HW217204   5.051   5.717   4.131 -0.0011  1.5047 -1.8537
 4368SOL    HW317205   4.935   5.633   4.082  0.8844 -1.6225  0.9930
 4368SOL    MW417206   5.019   5.655   4.078 -0.5005 -0.0250 -0.8000
 4369SOL     OW17207   0.114   4.436   3.467  0.2292 -0.1797 -0.2891
 4369SOL    HW217208   0.199   4.437   3.510 -0.5091  0.3864  1.2280
 4369SOL    HW317209   0.097   4.526   3.442 -0.0857 -0.2230 -0.2464
 4369SOL    MW417210   0.123   4.448   3.470  0.3292  0.5349  0.1050
 4370SOL     OW17211   6.284   5.019   6.275 -0.0923  0.2650  0.0559
 4370SOL    HW217212   6.306   4.927   6.255 -0.6191  0.4214 -1.4261
 4370SOL    HW317213   6.369   5.063   6.280  0.2558 -0.5568  2.3683
 4370SOL    MW417214   6.298   5.012   6.273  0.0467 -0.1358 -0.2500
 4371SOL     OW17215   2.996   4.796   4.055 -0.3477  0.3981  0.4557
 4371SOL    HW217216   2.983   4.817   3.962 -1.0794 -0.2321  0.4040
 4371SOL    HW317217   3.021   4.704   4.056 -2.1475 -0.1358  0.9723
 4371SOL    MW417218   2.997   4.787   4.043 -0.0958  0.3247 -0.8627
 4372SOL     OW17219   3.550   3.359   3.618  0.2378 -0.0228 -0.4099
 4372SOL    HW217220   3.481   3.371   3.553 -2.1548 -1.3462  1.7066
 4372SOL    HW317221   3.589   3.274   3.596  0.0997 -0.0164 -0.6890
 4372SOL    MW417222   3.546   3.349   3.606 -0.1999 -0.0144  0.3937
 4373SOL     OW17223   0.311   0.429   0.742 -0.4492  0.2013 -0.0456
 4373SOL    HW217224   0.219   0.408   0.723 -0.8503  1.3904  0.4641
 4373SOL    HW317225   0.308   0.520   0.773  0.9007  0.2337  0.0195
 4373SOL    MW417226   0.298   0.439   0.744  0.0402  0.3401  0.4581
 4374SOL     OW17227   0.923   4.731   2.552  0.2002 -0.1494  0.0680
 4374SOL    HW217228   0.958   4.778   2.476  0.6988 -0.8258 -0.1301
 4374SOL    HW317229   0.984   4.752   2.623 -0.8647  1.3661  0.5843
 4374SOL    MW417230   0.936   4.740   2.551 -0.5761  0.0784 -0.2964
 4375SOL     OW17231   3.891   5.664   0.066 -0.3205  0.2779  0.1659
 4375SOL    HW217232   3.934   5.579   0.059 -2.6101 -0.9640  0.4290
 4375SOL    HW317233   3.937   5.707   0.139  0.5379 -0.9351  0.3767
 4375SOL    MW417234   3.903   5.659   0.075 -0.5876  0.1887 -0.2976
 4376SOL     OW17235   0.751   1.586   1.992  0.2873 -0.1209  0.1921
 4376SOL    HW217236   0.812   1.534   1.939 -1.3341  0.9513 -2.9566
 4376SOL    HW317237   0.787   1.674   1.992  0.7233 -0.2721  1.7201
 4376SOL    MW417238   0.763   1.590   1.985  0.2652 -0.6571 -0.0395
 4377SOL     OW17239   3.319   5.720   6.077  0.1188 -0.3262  0.0462
 4377SOL    HW217240   3.363   5.664   6.012 -1.3285 -1.4129 -0.0608
 4377SOL    HW317241   3.231   5.730   6.043  0.2264  1.7466  0.2904
 4377SOL    MW417242   3.314   5.714   6.064  0.1925 -0.2215  0.1127
 4378SOL     OW17243   2.113   2.301   6.148 -0.4162  0.2834 -0.2717
 4378SOL    HW217244   2.081   2.222   6.192 -1.1539  1.0711  0.6478
 4378SOL    HW317245   2.188   2.271   6.097  1.0780 -0.5472  2.2457
 4378SOL    MW417246   2.119   2.287   6.147 -0.3954  0.2330 -0.0357
 4379SOL     OW17247   0.010   0.161   0.871  0.2433 -0.5901  0.4606
 4379SOL    HW217248   0.042   0.199   0.953 -1.1735  0.5939  0.4967
 4379SOL    HW317249   0.090   0.143   0.820  1.0400  2.5807  0.3965
 4379SOL    MW417250   0.025   0.163   0.875 -0.4531  0.2106 -0.4821
 4380SOL     OW17251   5.600   4.268   5.271 -0.6354 -0.0283 -0.3887
 4380SOL    HW217252   5.586   4.351   5.316 -0.0102  1.7420 -3.2916
 4380SOL    HW317253   5.532   4.265   5.204 -0.1524 -1.4990 -0.8513
 4380SOL    MW417254   5.589   4.278   5.268  0.6002  0.1804  0.2283
 4381SOL     OW17255   3.881   5.444   2.449 -0.1238  0.3298  0.1100
 4381SOL    HW217256   3.926   5.504   2.390  1.1237 -0.3146  0.3690
 4381SOL    HW317257   3.816   5.401   2.394  0.6016  0.1863 -0.6636
 4381SOL    MW417258   3.879   5.446   2.434  0.1506  0.8857 -0.0469
 4382SOL     OW17259   4.603   3.267   5.465 -0.4521 -1.0110  0.6646
 4382SOL    HW217260   4.695   3.243   5.476  0.6590  2.4338  0.0989
 4382SOL    HW317261   4.582   3.243   5.375 -0.0521 -1.5927  0.7204
 4382SOL    MW417262   4.612   3.261   5.455  0.1899 -0.0312  0.2458
 4383SOL     OW17263   4.129   3.409   4.607 -0.3542 -0.5010  0.1251
 4383SOL    HW217264   4.161   3.417   4.518  1.4016  0.1120  0.7669
 4383SOL    HW317265   4.176   3.334   4.643 -0.9260 -0.6460  0.5899
 4383SOL    MW417266   4.139   3.400   4.600  0.0963  0.4049 -0.0577
 4384SOL     OW17267   3.528   4.260   1.578  0.1852  0.1898 -0.4164
 4384SOL    HW217268   3.568   4.182   1.616 -1.0122 -0.7138 -0.9593
 4384SOL    HW317269   3.436   4.257   1.604  0.0844  1.3653 -0.5457
 4384SOL    MW417270   3.521   4.250   1.586  0.0652  0.5547  0.1241
 4385SOL     OW17271   3.169   2.957   6.081 -0.0098  0.0675  0.3063
 4385SOL    HW217272   3.121   2.875   6.085  1.0645 -0.5740  0.4423
 4385SOL    HW317273   3.198   2.964   5.990  1.4036 -0.6194  0.6717
 4385SOL    MW417274   3.167   2.947   6.070  0.2229 -0.3660  0.0546
 4386SOL     OW17275   3.461   4.709   1.441 -0.3689 -0.0204 -0.5747
 4386SOL    HW217276   3.506   4.638   1.485  0.7647  1.3355  0.5523
 4386SOL    HW317277   3.369   4.681   1.437 -0.1796 -0.9563  1.0338
 4386SOL    MW417278   3.455   4.696   1.446  0.4199 -0.1901 -0.6179
 4387SOL     OW17279   4.319   0.370   1.602 -0.5392 -0.0516 -0.0830
 4387SOL    HW217280   4.381   0.410   1.664 -0.7035  0.8616 -0.5005
 4387SOL    HW317281   4.321   0.277   1.624 -0.8207  0.2894  1.5138
 4387SOL    MW417282   4.327   0.363   1.613  0.1493 -0.4364  0.5996
 4388SOL     OW17283   3.112   2.190   3.163 -0.5769  0.6593  0.1435
 4388SOL    HW217284   3.023   2.158   3.177 -0.7453  1.0422 -0.0208
 4388SOL    HW317285   3.143   2.141   3.086 -0.4687  0.1814  0.4873
 4388SOL    MW417286   3.104   2.179   3.154  0.0628 -0.1689 -0.0274
 4389SOL     OW17287   5.681   5.989   4.714 -0.4865 -0.1014  0.4257
 4389SOL    HW217288   5.684   5.894   4.715  0.0100 -0.1494 -1.7710
 4389SOL    HW317289   5.757   6.016   4.662 -0.4640  1.5110  1.2248
 4389SOL    MW417290   5.691   5.980   4.707  0.1272  0.0348 -0.1130
 4390SOL     OW17291   6.197   3.533   4.962 -0.1804  0.3502  0.0169
 4390SOL    HW217292   6.172   3.605   5.020 -2.7035 -0.6729  0.3425
 4390SOL    HW317293   6.125   3.527   4.899  0.1048 -1.6658 -0.1906
 4390SOL    MW417294   6.184   3.542   4.961  0.2454  1.1164 -0.0252
 4391SOL     OW17295   4.221   3.667   4.734  0.2587  0.2587  0.2823
 4391SOL    HW217296   4.152   3.651   4.799  0.8218  1.4047  1.1916
 4391SOL    HW317297   4.235   3.582   4.693 -1.9551  0.0682 -0.1969
 4391SOL    MW417298   4.214   3.654   4.738  0.3772 -0.3097  0.7982
 4392SOL     OW17299   3.069   4.310   1.893  0.2861  0.1356  0.4875
 4392SOL    HW217300   3.095   4.307   1.985 -0.7624 -3.0163  0.7886
 4392SOL    HW317301   3.011   4.236   1.882  0.3430  0.4380 -2.7448
 4392SOL    MW417302   3.065   4.300   1.904  0.0555  0.1072 -0.1752
 4393SOL     OW17303   1.268   1.127   3.782  0.7134  0.2717 -0.2050
 4393SOL    HW217304   1.322   1.189   3.732  0.3072  0.3026 -0.6148
 4393SOL    HW317305   1.317   1.045   3.779  1.3402  0.6118  0.4941
 4393SOL    MW417306   1.282   1.125   3.775  0.0137  0.1371 -0.3695
 4394SOL     OW17307   0.434   6.165   2.068  0.0854  0.1452  0.1204
 4394SOL    HW217308   0.382   6.085   2.072 -0.4354  0.3320 -1.8668
 4394SOL    HW317309   0.379   6.232   2.110 -0.4873 -0.0469 -0.3162
 4394SOL    MW417310   0.420   6.163   2.074 -0.4177  0.3214  0.9690
 4395SOL     OW17311   3.285   4.053   2.237  0.5795 -0.1289 -0.1059
 4395SOL    HW217312   3.342   4.128   2.219 -1.2351  1.2957 -0.2332
 4395SOL    HW317313   3.304   4.031   2.329 -0.6933  2.2806  0.8428
 4395SOL    MW417314   3.295   4.060   2.247  0.6412 -0.4225  0.3260
 4396SOL     OW17315   0.028   4.036   3.218 -0.1286  0.0420  0.9207
 4396SOL    HW217316  -0.057   4.042   3.174 -0.4495 -1.5692  1.2403
 4396SOL    HW317317   0.069   4.120   3.203 -0.4249 -0.2467 -2.0465
 4396SOL    MW417318   0.022   4.048   3.210 -0.0468  0.1356  0.4957
 4397SOL     OW17319   0.264   3.797   2.747 -0.4830  0.5211 -0.1421
 4397SOL    HW217320   0.274   3.880   2.794 -2.1177  0.5473  0.2350
 4397SOL    HW317321   0.301   3.814   2.661  0.7098  1.1110  0.4623
 4397SOL    MW417322   0.270   3.810   2.742 -0.4502  0.3228  0.2081
 4398SOL     OW17323   0.316   4.553   0.209 -0.0015  0.1269  0.1719
 4398SOL    HW217324   0.229   4.515   0.199 -0.4688  1.5204 -1.8518
 4398SOL    HW317325   0.376   4.479   0.199 -0.9120 -0.7653  1.0271
 4398SOL    MW417326   0.313   4.538   0.206 -0.3100 -0.0279  0.0733
 4399SOL     OW17327   1.461   5.017   1.491  0.1549 -0.0242  0.4105
 4399SOL    HW217328   1.414   5.093   1.457 -0.7169 -0.8212 -0.2464
 4399SOL    HW317329   1.471   4.960   1.414 -0.7298 -1.3173  1.2019
 4399SOL    MW417330   1.456   5.020   1.476 -0.5905 -0.1454 -0.1384
 4400SOL     OW17331   3.165   2.504   3.498  0.0738  0.3786  0.0087
 4400SOL    HW217332   3.079   2.488   3.537 -0.0626  0.9140 -0.0670
 4400SOL    HW317333   3.205   2.417   3.491 -0.1618  0.2049  0.7378
 4400SOL    MW417334   3.159   2.491   3.502  0.1395  0.7255 -0.7913
 4401SOL     OW17335   6.048   4.314   5.348 -0.9664 -0.0210 -0.5628
 4401SOL    HW217336   5.991   4.288   5.276 -4.0192 -1.4538  2.1284
 4401SOL    HW317337   6.104   4.237   5.362 -1.0219 -0.0992 -0.7601
 4401SOL    MW417338   6.048   4.300   5.340  0.0439  0.4003  0.8047
 4402SOL     OW17339   4.694   5.909   6.364  0.0241 -0.6448 -0.1832
 4402SOL    HW217340   4.735   5.883   6.282  0.8156  1.0483 -0.3615
 4402SOL    HW317341   4.746   5.864   6.431 -0.4495 -1.8089 -0.5826
 4402SOL    MW417342   4.707   5.900   6.362 -0.7528 -0.2351  0.5252
 4403SOL     OW17343   3.998   4.896   3.898 -0.5529  0.4959  0.1379
 4403SOL    HW217344   4.026   4.882   3.808 -0.1274  1.8702  0.0285
 4403SOL    HW317345   3.903   4.888   3.896 -0.5329  0.3794 -0.3993
 4403SOL    MW417346   3.989   4.893   3.886  0.1653  0.0743 -0.4282
 4404SOL     OW17347   4.728   4.452   0.110 -0.0971  0.2096 -0.5815
 4404SOL    HW217348   4.731   4.359   0.087  2.1835 -0.3029  1.4523
 4404SOL    HW317349   4.805   4.490   0.068 -0.4640  0.9832 -0.5741
 4404SOL    MW417350   4.738   4.444   0.101 -0.2435  0.4819 -0.0533
 4405SOL     OW17351   2.893   5.695   3.181  0.0948 -0.0679  0.1739
 4405SOL    HW217352   2.929   5.746   3.108 -0.2926 -0.0925 -0.0346
 4405SOL    HW317353   2.916   5.604   3.161 -1.2174 -0.2449 -0.6407
 4405SOL    MW417354   2.901   5.690   3.169  0.3678 -0.0261  0.0312
 4406SOL     OW17355   4.433   0.417   3.634 -0.6440  0.1726 -0.4896
 4406SOL    HW217356   4.366   0.424   3.566 -1.7345  0.3290  0.5494
 4406SOL    HW317357   4.389   0.450   3.713 -0.2744 -2.3045  0.8396
 4406SOL    MW417358   4.418   0.422   3.636  0.1941  0.7342 -0.1288
 4407SOL     OW17359   4.466   1.081   0.330  0.2016 -0.0915  0.2256
 4407SOL    HW217360   4.439   1.016   0.266  0.4740  2.0613 -2.2429
 4407SOL    HW317361   4.534   1.038   0.381  0.1799 -1.8226 -1.1167
 4407SOL    MW417362   4.471   1.067   0.328  0.3698  0.3259 -0.2178
 4408SOL     OW17363   3.613   5.256   3.575  0.1931  0.1325 -1.1284
 4408SOL    HW217364   3.535   5.200   3.579  0.1255  0.2350 -0.9810
 4408SOL    HW317365   3.607   5.310   3.654  1.2546 -0.9564 -0.2794
 4408SOL    MW417366   3.602   5.256   3.586 -0.2368  0.6759 -0.1440
 4409SOL     OW17367   2.417   2.876   3.078  0.0859 -0.3900  0.1854
 4409SOL    HW217368   2.385   2.841   2.995  1.3381 -0.2738 -0.3724
 4409SOL    HW317369   2.500   2.917   3.056  0.3944 -0.2719  1.4923
 4409SOL    MW417370   2.424   2.877   3.064  0.3064  0.2950 -0.0162
 4410SOL     OW17371   5.944   0.627   5.608 -0.4106  0.3389 -0.1490
 4410SOL    HW217372   5.958   0.538   5.577  0.2358  0.5183 -0.3849
 4410SOL    HW317373   6.010   0.679   5.563 -0.6025  0.8925  0.1976
 4410SOL    MW417374   5.955   0.622   5.598 -0.0838  0.1304  0.0422
 4411SOL     OW17375   4.437   4.665   0.684 -0.1678  0.0100  0.3297
 4411SOL    HW217376   4.430   4.750   0.728  2.5946  1.3453 -1.5299
 4411SOL    HW317377   4.390   4.605   0.742 -0.9076  2.4984  2.5334
 4411SOL    MW417378   4.430   4.668   0.698  0.2111  0.3182  0.3384
 4412SOL     OW17379   0.920   4.742   5.811 -0.5158  0.3113 -0.1371
 4412SOL    HW217380   0.965   4.819   5.776 -1.3886  0.5660 -0.7258
 4412SOL    HW317381   0.882   4.772   5.893 -0.9502  0.5480 -0.4204
 4412SOL    MW417382   0.921   4.756   5.817  1.1293  0.2192  0.5733
 4413SOL     OW17383   1.934   2.885   4.512 -0.4335 -0.2123  0.2536
 4413SOL    HW217384   2.017   2.912   4.551  0.4731 -0.6504 -1.2803
 4413SOL    HW317385   1.868   2.914   4.574  0.8841 -0.2227  1.7209
 4413SOL    MW417386   1.936   2.892   4.525 -0.5622 -0.0269 -0.0273
 4414SOL     OW17387   0.595   1.611   2.208 -0.3600  0.1953 -0.4886
 4414SOL    HW217388   0.634   1.600   2.122  1.8477 -0.0578  0.4705
 4414SOL    HW317389   0.619   1.531   2.256  0.5638  1.3231  1.0575
 4414SOL    MW417390   0.604   1.599   2.203 -0.4294 -0.4009  0.4537
 4415SOL     OW17391   3.905   0.533   2.325  0.6284 -0.6197 -0.1722
 4415SOL    HW217392   3.908   0.521   2.420  1.5781  0.5027 -0.0345
 4415SOL    HW317393   3.972   0.599   2.307 -0.8058  0.5909 -1.3967
 4415SOL    MW417394   3.914   0.540   2.335  0.0970 -0.2740 -0.2399
 4416SOL     OW17395   1.079   3.819   2.981  0.0842 -0.4503  0.0034
 4416SOL    HW217396   1.050   3.910   2.973 -0.8695 -0.7536 -0.1854
 4416SOL    HW317397   1.173   3.822   2.966  0.2432  0.6451  1.0595
 4416SOL    MW417398   1.088   3.831   2.978 -0.2178 -0.3480  0.6251
 4417SOL     OW17399   0.657   1.709   5.868 -0.2915 -0.6407  0.2633
 4417SOL    HW217400   0.592   1.684   5.802  1.1965 -0.0666 -1.4846
 4417SOL    HW317401   0.710   1.630   5.880  1.6618  0.2268 -1.9779
 4417SOL    MW417402   0.655   1.695   5.861  0.8142 -0.7959  0.4698
 4418SOL     OW17403   3.555   6.180   6.183 -0.5389 -0.0671  0.4289
 4418SOL    HW217404   3.552   6.174   6.278  0.4797 -0.3913  0.4441
 4418SOL    HW317405   3.503   6.106   6.152 -2.4954  1.1166  0.7222
 4418SOL    MW417406   3.548   6.170   6.191  0.1468 -0.2993 -0.3076
 4419SOL     OW17407   5.186   2.965   4.034 -0.2163 -0.0017  0.2912
 4419SOL    HW217408   5.238   2.905   4.087 -1.5282  0.0188  1.6539
 4419SOL    HW317409   5.241   3.043   4.025  0.6738 -0.6247  0.2415
 4419SOL    MW417410   5.200   2.967   4.040 -0.1512 -0.1941  0.0148
 4420SOL     OW17411   5.576   5.568   3.680  0.6026  0.0578 -0.3690
 4420SOL    HW217412   5.510   5.503   3.707 -1.5963  2.0436 -0.6406
 4420SOL    HW317413   5.648   5.557   3.743 -0.3977 -1.5327  0.5704
 4420SOL    MW417414   5.577   5.558   3.692 -0.1321 -0.4882  0.0781
 4421SOL     OW17415   3.898   1.535   5.895 -0.3327  0.0642  0.1264
 4421SOL    HW217416   3.937   1.567   5.814 -1.8539  0.8888 -0.3203
 4421SOL    HW317417   3.908   1.439   5.891 -1.1989  0.0172 -1.4796
 4421SOL    MW417418   3.905   1.526   5.884  0.9471 -0.1438  0.3883
 4422SOL     OW17419   1.860   4.711   2.425 -0.6385 -0.2217 -0.5550
 4422SOL    HW217420   1.838   4.708   2.518  1.2546  2.6031  0.1027
 4422SOL    HW317421   1.808   4.784   2.391  0.7087  0.5285 -1.0511
 4422SOL    MW417422   1.850   4.720   2.433  0.2480 -0.0278 -0.0742
 4423SOL     OW17423   1.953   2.368   1.335  0.7197 -0.6773 -0.0012
 4423SOL    HW217424   1.968   2.461   1.349 -0.7817 -0.5017  0.6530
 4423SOL    HW317425   2.008   2.346   1.260  2.0369  0.4404  0.5705
 4423SOL    MW417426   1.963   2.377   1.327 -0.0190 -0.2321  0.0947
 4424SOL     OW17427   0.997   0.401   5.971 -0.0301  0.6887  0.4104
 4424SOL    HW217428   0.951   0.321   5.999 -0.0799 -0.5966 -2.9229
 4424SOL    HW317429   0.931   0.451   5.924  0.2095  2.4308  1.8144
 4424SOL    MW417430   0.982   0.397   5.969  0.3794  0.3106  0.3822
 4425SOL     OW17431   0.384   4.906   0.513  0.2300 -0.1744 -0.1853
 4425SOL    HW217432   0.301   4.926   0.556 -0.3391 -1.7439 -0.4538
 4425SOL    HW317433   0.366   4.920   0.420  0.6224  0.5645 -0.1561
 4425SOL    MW417434   0.370   4.910   0.506  0.0215  0.1909 -0.0504
 4426SOL     OW17435   4.257   2.694   4.524  0.2706  0.1958  0.8889
 4426SOL    HW217436   4.296   2.667   4.607 -0.6477 -2.6699  0.4905
 4426SOL    HW317437   4.166   2.713   4.546 -0.1652 -1.2814  0.4805
 4426SOL    MW417438   4.250   2.693   4.538  0.4106  0.4457 -0.0968
 4427SOL     OW17439   4.036   4.077   3.521 -0.0680 -0.5270 -0.1963
 4427SOL    HW217440   4.016   3.987   3.496 -0.1589 -0.8084  0.8330
 4427SOL    HW317441   4.120   4.095   3.480  0.9005 -1.7723  1.1392
 4427SOL    MW417442   4.044   4.067   3.513  0.9126  0.2034 -0.5045
 4428SOL     OW17443   4.048   5.790   4.183  0.1129 -0.2628 -1.0109
 4428SOL    HW217444   4.022   5.877   4.154 -0.8972 -0.0728  0.3507
 4428SOL    HW317445   4.143   5.792   4.185  0.0973  0.8237 -0.9443
 4428SOL    MW417446   4.057   5.801   4.179 -0.0254 -0.0009  0.3992
 4429SOL     OW17447   1.848   5.783   4.105  0.5767 -0.0944  0.0188
 4429SOL    HW217448   1.907   5.830   4.164 -0.0359 -1.1797  1.5691
 4429SOL    HW317449   1.902   5.713   4.068  0.3326 -1.0736  1.4193
 4429SOL    MW417450   1.863   5.780   4.108 -0.3628 -0.0577 -0.3049
 4430SOL     OW17451   0.505   1.576   6.327  0.1954 -0.0060  0.0289
 4430SOL    HW217452   0.568   1.516   6.366 -0.3890 -1.2878 -0.9251
 4430SOL    HW317453   0.423   1.560   6.374 -0.7678 -2.2522 -2.1916
 4430SOL    MW417454   0.502   1.566   6.338  0.3258 -0.6330  0.5024
 4431SOL     OW17455   5.357   4.276   4.729  0.5451  0.0721 -0.7325
 4431SOL    HW217456   5.334   4.188   4.761  0.6769  0.2565 -0.1048
 4431SOL    HW317457   5.453   4.274   4.721  0.6562  0.4780  0.3073
 4431SOL    MW417458   5.367   4.264   4.733 -0.4872  0.0017 -0.3281
 4432SOL     OW17459   1.581   4.085   4.761  0.1813  0.1985 -0.0931
 4432SOL    HW217460   1.491   4.097   4.793  0.3303  0.1200  0.3661
 4432SOL    HW317461   1.587   3.992   4.741  0.4733 -0.0059  0.8786
 4432SOL    MW417462   1.570   4.074   4.763  0.0637  0.3728 -0.1828
 4433SOL     OW17463   5.454   0.151   5.275 -0.1019 -0.4108  0.7576
 4433SOL    HW217464   5.549   0.153   5.285 -0.0325  0.9792 -0.0072
 4433SOL    HW317465   5.438   0.182   5.186 -1.2098 -2.3030  0.2351
 4433SOL    MW417466   5.465   0.155   5.265  0.3461 -0.3219 -0.3705
 4434SOL     OW17467   1.908   4.862   3.972 -0.5996  0.3143  0.1215
 4434SOL    HW217468   1.923   4.949   4.010 -2.1349  1.1632 -1.1478
 4434SOL    HW317469   1.961   4.861   3.893 -1.6250  0.6179 -0.5786
 4434SOL    MW417470   1.917   4.873   3.967  0.2541  0.3248 -0.6110
 4435SOL     OW17471   2.949   0.555   2.328 -0.5373 -0.0058  0.1286
 4435SOL    HW217472   3.037   0.557   2.366 -0.7083 -1.7125  0.6830
 4435SOL    HW317473   2.950   0.627   2.264  1.1557  0.2035  0.3247
 4435SOL    MW417474   2.961   0.565   2.325 -0.4245  0.5892  0.3154
 4436SOL     OW17475   4.756   5.207   5.821  0.6486 -0.3402  0.7119
 4436SOL    HW217476   4.786   5.294   5.847 -0.8619  0.4830 -0.2223
 4436SOL    HW317477   4.826   5.148   5.852  2.4356  1.3171  0.0517
 4436SOL    MW417478   4.769   5.210   5.829  0.5587 -0.5355  0.0696
 4437SOL     OW17479   0.178   3.160   5.269  0.0358  0.0679  0.0875
 4437SOL    HW217480   0.146   3.178   5.181  0.8671  0.2993 -0.1768
 4437SOL    HW317481   0.186   3.246   5.310  1.1735  0.0923 -0.1626
 4437SOL    MW417482   0.175   3.174   5.263 -0.2316 -0.1781  0.0662
 4438SOL     OW17483   2.684   4.953   0.641 -0.9103 -0.0342 -0.3364
 4438SOL    HW217484   2.646   4.870   0.671 -0.3828  0.5511  2.1932
 4438SOL    HW317485   2.722   4.932   0.556 -1.3109 -2.2388 -0.0539
 4438SOL    MW417486   2.684   4.939   0.634 -0.2267  0.3233  0.4317
 4439SOL     OW17487   5.905   5.257   2.428 -0.1412  0.4000  0.1250
 4439SOL    HW217488   5.970   5.327   2.422 -0.1919  0.3817 -0.8006
 4439SOL    HW317489   5.856   5.263   2.346 -0.5230 -0.3491  0.2904
 4439SOL    MW417490   5.907   5.267   2.416  0.2263 -0.5737 -0.5225
 4440SOL     OW17491   1.105   0.585   4.093  0.1954  0.2952  0.3754
 4440SOL    HW217492   1.099   0.608   4.186 -0.7136 -0.2430  0.4601
 4440SOL    HW317493   1.015   0.569   4.066  0.5091 -0.1292 -0.4531
 4440SOL    MW417494   1.093   0.586   4.102 -0.1176  0.0008 -0.2038
 4441SOL     OW17495   2.593   0.960   2.106  0.2378 -0.4404 -0.7249
 4441SOL    HW217496   2.643   0.987   2.029  1.8265  0.2492  0.4808
 4441SOL    HW317497   2.653   0.906   2.156 -1.2703 -2.1284 -0.6488
 4441SOL    MW417498   2.607   0.957   2.103 -0.3063 -0.1023 -0.4119
 4442SOL     OW17499   4.187   4.437   1.953  0.1372 -0.0788 -0.0262
 4442SOL    HW217500   4.260   4.404   2.006  1.9400  0.1035 -2.2098
 4442SOL    HW317501   4.109   4.399   1.992  1.3665 -0.1328  2.5482
 4442SOL    MW417502   4.186   4.428   1.965 -0.0708  0.1158 -0.1109
 4443SOL     OW17503   6.322   4.038   6.174 -1.0681 -0.0168 -0.3456
 4443SOL    HW217504   6.275   3.964   6.136  0.1258 -0.9954  0.0426
 4443SOL    HW317505   6.403   4.043   6.123  0.2830 -0.9642  1.6099
 4443SOL    MW417506   6.326   4.029   6.162 -0.3352 -0.0568 -0.0828
 4444SOL     OW17507   2.061   5.117   2.866  0.1930  0.0856  0.9196
 4444SOL    HW217508   2.089   5.082   2.781  1.2267 -1.9731  2.0175
 4444SOL    HW317509   1.968   5.136   2.855  0.2553 -0.3709 -0.5968
 4444SOL    MW417510   2.052   5.115   2.853 -0.2158  0.2153 -0.2970
 4445SOL     OW17511   4.710   5.216   2.200 -0.3324  0.5170 -0.4247
 4445SOL    HW217512   4.727   5.270   2.123  0.5833 -0.6738 -1.1106
 4445SOL    HW317513   4.739   5.128   2.174 -1.9278 -0.3527  0.5756
 4445SOL    MW417514   4.716   5.211   2.186  0.4185 -0.2832  0.3453
 4446SOL     OW17515   5.351   5.713   0.990  0.2112 -0.1812  0.2821
 4446SOL    HW217516   5.443   5.719   0.962  0.2065  0.5976  0.4072
 4446SOL    HW317517   5.350   5.643   1.055  0.9293  0.5191  1.0712
 4446SOL    MW417518   5.363   5.705   0.995 -0.1650 -0.6276 -0.0614
 4447SOL     OW17519   4.586   3.205   1.281  0.1185 -0.1310 -0.3332
 4447SOL    HW217520   4.652   3.146   1.319  1.3325  0.0770 -2.0158
 4447SOL    HW317521   4.532   3.149   1.225 -1.0299 -0.2525  0.8451
 4447SOL    MW417522   4.588   3.190   1.279  0.0280  0.0442  0.0107
 4448SOL     OW17523   3.231   0.851   0.937 -0.1699  0.6449  0.1158
 4448SOL    HW217524   3.170   0.778   0.926 -0.1323  0.5149  0.7480
 4448SOL    HW317525   3.316   0.815   0.914 -0.3138  0.8040 -0.6876
 4448SOL    MW417526   3.234   0.837   0.932 -0.0761  0.2513  0.2706
 4449SOL     OW17527   3.438   1.199   5.278 -0.5939 -0.3522  0.3461
 4449SOL    HW217528   3.483   1.133   5.226 -0.4892  0.8227 -1.1123
 4449SOL    HW317529   3.504   1.267   5.291 -0.4876 -0.7887  2.4149
 4449SOL    MW417530   3.453   1.199   5.273 -0.1337 -0.0093 -0.3920
 4450SOL     OW17531   3.857   4.529   3.883  0.0988  0.3760 -0.5402
 4450SOL    HW217532   3.905   4.512   3.801 -0.8456 -0.9037 -0.8539
 4450SOL    HW317533   3.854   4.444   3.926  0.8385  1.0930  1.0035
 4450SOL    MW417534   3.863   4.515   3.878 -0.1312  0.0579  0.1491
 4451SOL     OW17535   2.482   2.537   2.779 -0.6251  0.7394 -0.1071
 4451SOL    HW217536   2.450   2.501   2.697  0.1286  1.4369 -0.7212
 4451SOL    HW317537   2.536   2.612   2.754  0.4711  0.3538  0.9502
 4451SOL    MW417538   2.485   2.542   2.765  0.0631  0.2311 -0.2719
 4452SOL     OW17539   4.586   4.392   5.143  0.5436 -0.3626 -0.2986
 4452SOL    HW217540   4.563   4.309   5.185  2.6012 -1.2806 -0.8852
 4452SOL    HW317541   4.620   4.366   5.057 -0.1638  1.2233 -1.1056
 4452SOL    MW417542   4.587   4.377   5.137 -0.3672  0.2933  0.1282
 4453SOL     OW17543   3.354   2.318   1.575  0.0223  0.2199 -0.3767
 4453SOL    HW217544   3.264   2.337   1.549  0.2881  1.6294 -0.3440
 4453SOL    HW317545   3.347   2.244   1.635 -1.0773  0.1178 -0.6134
 4453SOL    MW417546   3.341   2.310   1.579  0.3470 -0.1215 -0.0564
 4454SOL     OW17547   5.800   2.804   3.843 -0.4248  0.1481  0.0445
 4454SOL    HW217548   5.890   2.829   3.865 -0.4769  0.8410 -0.4834
 4454SOL    HW317549   5.751   2.817   3.925 -0.5190  2.2452 -0.2650
 4454SOL    MW417550   5.805   2.809   3.857 -0.1569 -0.0119  0.2949
 4455SOL     OW17551   0.127   1.685   2.775 -0.1959  0.3111 -0.5925
 4455SOL    HW217552   0.033   1.669   2.773 -0.2734  0.7707 -0.9165
 4455SOL    HW317553   0.162   1.637   2.700 -0.1763  0.1614 -0.4873
 4455SOL    MW417554   0.120   1.677   2.765  0.2445 -0.4062 -0.2209
 4456SOL     OW17555   5.120   2.687   2.842  0.0936 -0.6156 -0.5472
 4456SOL    HW217556   5.112   2.781   2.825 -2.7518 -0.8058 -0.6913
 4456SOL    HW317557   5.115   2.679   2.937 -0.8784 -0.6683 -0.5915
 4456SOL    MW417558   5.118   2.698   2.852  0.1247 -0.3388  0.6252
 4457SOL     OW17559   5.425   3.813   5.724  0.2191 -0.2012  0.2159
 4457SOL    HW217560   5.451   3.805   5.632  0.3185  0.5125  0.1750
 4457SOL    HW317561   5.501   3.851   5.767  1.5240 -3.6733  1.3025
 4457SOL    MW417562   5.438   3.817   5.718  0.5706  0.5997 -0.0806
 4458SOL     OW17563   1.664   0.197   2.543  0.1172  0.1030 -0.1640
 4458SOL    HW217564   1.622   0.122   2.501 -1.2210 -0.2003  1.5820
 4458SOL    HW317565   1.726   0.159   2.605 -1.8822  0.2540  2.0875
 4458SOL    MW417566   1.666   0.182   2.546 -0.0600 -0.1606  0.0658
 4459SOL     OW17567   2.980   5.450   2.074  0.6367  0.2148  0.2164
 4459SOL    HW217568   2.994   5.358   2.096 -1.1749 -0.1274  0.0885
 4459SOL    HW317569   3.000   5.455   1.980  0.1850 -0.1899  0.0913
 4459SOL    MW417570   2.984   5.438   2.064 -0.0441 -0.1682 -0.0573
 4460SOL     OW17571   4.815   5.918   5.418 -0.2604 -0.0051 -0.2376
 4460SOL    HW217572   4.872   5.902   5.343  1.2087  1.0198  0.5974
 4460SOL    HW317573   4.823   5.839   5.471  0.1806  0.0090 -0.2746
 4460SOL    MW417574   4.824   5.906   5.415 -0.0062 -0.3362 -0.1485
 4461SOL     OW17575   1.490   4.437   5.599 -0.3190 -0.0498 -0.2127
 4461SOL    HW217576   1.543   4.414   5.523  0.2357 -2.7834  0.8660
 4461SOL    HW317577   1.553   4.457   5.667 -0.8114  2.9775 -0.5261
 4461SOL    MW417578   1.505   4.437   5.598  0.2258  0.2680 -0.2957
 4462SOL     OW17579   1.061   5.341   1.662  0.2029  0.2089 -0.2269
 4462SOL    HW217580   1.054   5.403   1.590  2.3566  0.5614 -0.1934
 4462SOL    HW317581   1.030   5.258   1.625 -0.4241  0.7793 -1.0011
 4462SOL    MW417582   1.056   5.338   1.648  0.0349 -0.3923 -0.3946
 4463SOL     OW17583   1.453   2.058   1.416 -0.2148 -0.5139 -0.6075
 4463SOL    HW217584   1.460   2.153   1.407 -0.2336  0.0259  3.3339
 4463SOL    HW317585   1.359   2.040   1.418 -0.2378 -0.3628  0.1085
 4463SOL    MW417586   1.442   2.068   1.415 -0.0845  0.0841  0.3122
 4464SOL     OW17587   4.494   4.706   5.328  0.3048  0.2845  0.1420
 4464SOL    HW217588   4.550   4.743   5.259  0.6232 -2.3598 -1.1521
 4464SOL    HW317589   4.433   4.776   5.349  2.5237  2.4667 -0.1380
 4464SOL    MW417590   4.494   4.720   5.322  0.6913  0.3713  0.9499
 4465SOL     OW17591   3.817   1.237   5.360 -0.1327 -0.0576  0.6470
 4465SOL    HW217592   3.755   1.180   5.405 -0.2779  0.3317  0.9393
 4465SOL    HW317593   3.786   1.325   5.378 -0.5641  0.0943 -0.7333
 4465SOL    MW417594   3.805   1.241   5.368 -0.4575  0.2345 -0.1765
 4466SOL     OW17595   5.785   0.517   3.281 -0.5452  0.4885  0.1484
 4466SOL    HW217596   5.695   0.511   3.249 -0.1206  0.3315 -1.0843
 4466SOL    HW317597   5.825   0.587   3.228  0.1663  0.2848  0.3957
 4466SOL    MW417598   5.779   0.526   3.270 -0.1151 -0.3196  0.0130
 4467SOL     OW17599   2.628   0.511   6.239  0.2496  0.2572  0.5449
 4467SOL    HW217600   2.642   0.421   6.268  0.7851 -0.2667 -1.2030
 4467SOL    HW317601   2.537   0.529   6.263 -0.7594 -1.7312 -1.3525
 4467SOL    MW417602   2.618   0.501   6.246 -0.1706 -0.2541 -0.0022
 4468SOL     OW17603   4.910   2.419   5.643  0.1484 -0.1397 -0.1644
 4468SOL    HW217604   4.837   2.416   5.704 -0.5767  0.0211 -0.9988
 4468SOL    HW317605   4.982   2.458   5.692 -1.0003  1.8774  0.0074
 4468SOL    MW417606   4.910   2.424   5.657 -0.3745 -0.3070 -0.2059
 4469SOL     OW17607   3.823   5.901   1.180  0.4249 -0.7064 -0.1350
 4469SOL    HW217608   3.772   5.820   1.183  2.0564 -1.7630  0.1853
 4469SOL    HW317609   3.888   5.886   1.112  0.1689  0.7243 -0.7260
 4469SOL    MW417610   3.825   5.888   1.171  0.5867  0.1318 -0.1650
 4470SOL     OW17611   6.227   2.405   3.161  0.3296 -0.3066 -0.3293
 4470SOL    HW217612   6.313   2.426   3.126  0.3466 -0.2033 -0.2256
 4470SOL    HW317613   6.243   2.349   3.236  0.3299  0.0827 -0.0342
 4470SOL    MW417614   6.240   2.400   3.166 -0.4469  0.0082 -0.1089
 4471SOL     OW17615   6.428   3.476   5.222 -0.2667 -0.3824 -0.4500
 4471SOL    HW217616   6.358   3.540   5.216  0.5373  0.4629 -1.0493
 4471SOL    HW317617   6.413   3.416   5.149  2.0485  2.3256 -3.4006
 4471SOL    MW417618   6.417   3.476   5.212 -0.2273  0.3860  0.0260
 4472SOL     OW17619   5.466   4.203   2.152  0.1525  0.3855  0.3077
 4472SOL    HW217620   5.393   4.188   2.212  0.4449 -1.7696  0.2245
 4472SOL    HW317621   5.454   4.293   2.121 -2.9243 -0.1113 -0.3221
 4472SOL    MW417622   5.455   4.213   2.156 -0.5567 -0.4740 -0.1867
 4473SOL     OW17623   4.283   5.924   2.914  0.5290  0.7048  0.1811
 4473SOL    HW217624   4.318   5.845   2.956 -0.6221 -0.6396 -1.2510
 4473SOL    HW317625   4.219   5.958   2.976 -2.4901 -2.2544 -0.9698
 4473SOL    MW417626   4.279   5.918   2.928  0.0402 -0.2972  0.2450
 4474SOL     OW17627   3.378   3.106   2.132 -0.2217  0.7367  0.1679
 4474SOL    HW217628   3.469   3.101   2.102  0.3421 -2.7957  1.9754
 4474SOL    HW317629   3.381   3.162   2.209  0.7825 -0.5339  1.0963
 4474SOL    MW417630   3.391   3.113   2.138 -0.2014  0.3990  0.3926
 4475SOL     OW17631   5.574   5.187   1.354 -0.5141  0.3370  0.0487
 4475SOL    HW217632   5.518   5.110   1.357  0.3539 -0.3517 -0.7707
 4475SOL    HW317633   5.606   5.190   1.264  2.2216 -0.3757  0.9088
 4475SOL    MW417634   5.571   5.178   1.343  0.3956 -0.2359  0.0376
 4476SOL     OW17635   0.584   3.826   0.833  0.3537  0.1369  0.2490
 4476SOL    HW217636   0.504   3.829   0.780  0.2914  0.0276  0.3376
 4476SOL    HW317637   0.573   3.750   0.890  0.1401  0.6073  0.8520
 4476SOL    MW417638   0.572   3.817   0.834 -0.3055  0.0454  0.1028
 4477SOL     OW17639   0.716   2.839   3.408  0.3015 -0.0901 -0.3788
 4477SOL    HW217640   0.762   2.780   3.469 -1.0329  0.4323  1.2042
 4477SOL    HW317641   0.657   2.890   3.464  1.9663  3.3865 -1.5184
 4477SOL    MW417642   0.715   2.838   3.423 -0.0060 -0.9884 -0.4667
 4478SOL     OW17643   4.536   2.081   2.868 -0.2496  0.0530  0.1342
 4478SOL    HW217644   4.498   2.042   2.947 -2.3717  1.8537  0.1075
 4478SOL    HW317645   4.628   2.095   2.889 -0.1884 -1.7914  1.3312
 4478SOL    MW417646   4.543   2.078   2.881 -0.1564  0.3209  0.1343
 4479SOL     OW17647   6.278   5.709   3.678 -0.0308  0.1753  0.0608
 4479SOL    HW217648   6.299   5.624   3.641  0.2825  0.7126 -1.0261
 4479SOL    HW317649   6.315   5.707   3.766  3.0661  0.4032 -1.1246
 4479SOL    MW417650   6.285   5.698   3.685 -0.0997 -0.3622  0.0524
 4480SOL     OW17651   0.688   5.522   6.082  0.2434 -0.1780  0.9567
 4480SOL    HW217652   0.759   5.581   6.056 -0.0064 -0.1265  0.3858
 4480SOL    HW317653   0.616   5.579   6.106 -1.2526 -0.1669 -2.9548
 4480SOL    MW417654   0.688   5.537   6.082  0.2112  0.0737  0.3822
 4481SOL     OW17655   3.395   2.591   2.382  0.0625 -0.6136  0.1278
 4481SOL    HW217656   3.466   2.635   2.427  1.2948 -2.2285 -0.1483
 4481SOL    HW317657   3.329   2.659   2.369  1.5003  0.9012  0.4630
 4481SOL    MW417658   3.395   2.605   2.387 -0.3844 -0.5418 -0.7194
 4482SOL     OW17659   0.873   5.724   0.332 -0.7861 -0.9978 -0.0328
 4482SOL    HW217660   0.781   5.707   0.353 -0.6005 -0.6956  1.0468
 4482SOL    HW317661   0.899   5.796   0.390  0.6063 -2.1747  0.8653
 4482SOL    MW417662   0.864   5.731   0.342  0.2394  0.5062 -0.3234
 4483SOL     OW17663   3.131   1.914   3.641  0.4549  0.3959  0.5221
 4483SOL    HW217664   3.176   1.918   3.557  0.1212 -1.7873  0.1759
 4483SOL    HW317665   3.038   1.918   3.618  0.3839  0.7734  0.8712
 4483SOL    MW417666   3.125   1.915   3.627 -0.3157  0.1570 -0.1150
 4484SOL     OW17667   5.491   1.184   2.295  0.0244 -0.2246 -0.6882
 4484SOL    HW217668   5.537   1.152   2.217 -0.2972  1.2306 -1.5036
 4484SOL    HW317669   5.542   1.261   2.323 -0.0697 -0.5240  0.3420
 4484SOL    MW417670   5.504   1.190   2.288  0.1351  0.0437 -0.0322
 4485SOL     OW17671   0.429   3.844   0.375  0.1049  0.0713 -0.3305
 4485SOL    HW217672   0.382   3.790   0.313 -3.3757  2.1315  0.2353
 4485SOL    HW317673   0.432   3.931   0.335 -2.1627  1.4413  2.1519
 4485SOL    MW417674   0.424   3.849   0.362 -0.6482  0.0753 -0.4311
 4486SOL     OW17675   4.580   3.138   5.970  0.0245 -0.5696 -0.0709
 4486SOL    HW217676   4.590   3.046   5.946  0.3946 -0.2337 -1.2656
 4486SOL    HW317677   4.501   3.141   6.023 -0.1765 -1.5274 -0.3025
 4486SOL    MW417678   4.571   3.127   5.974  0.7697  0.1483 -0.6882
 4487SOL     OW17679   5.801   6.372   4.663 -0.8344 -0.1004 -0.2171
 4487SOL    HW217680   5.865   6.356   4.733 -0.7872  1.2652  0.1014
 4487SOL    HW317681   5.716   6.352   4.704 -0.8681  1.3391  0.5039
 4487SOL    MW417682   5.798   6.368   4.678 -0.5326 -0.2438  0.0050
 4488SOL     OW17683   5.845   0.472   4.935  0.1335 -0.0084  0.2559
 4488SOL    HW217684   5.914   0.529   4.902  1.6270 -0.9791  1.5432
 4488SOL    HW317685   5.827   0.411   4.863  2.5570 -1.4123  0.7456
 4488SOL    MW417686   5.852   0.471   4.921  0.7139 -0.3476 -0.5359
 4489SOL     OW17687   0.179   2.084   0.384  0.3406 -0.0673  0.1762
 4489SOL    HW217688   0.196   2.093   0.290 -1.3370  1.9966 -0.0027
 4489SOL    HW317689   0.107   2.021   0.389  0.8215 -0.6369  0.1666
 4489SOL    MW417690   0.172   2.077   0.372  0.0125  0.5257 -0.2047
 4490SOL     OW17691   0.303   5.051   3.044  1.0721  0.1040  0.0751
 4490SOL    HW217692   0.214   5.044   3.079  1.3626  0.8477  0.9988
 4490SOL    HW317693   0.354   4.989   3.095  1.0960 -0.2888 -0.4236
 4490SOL    MW417694   0.298   5.042   3.055  0.0322 -0.0414  0.6082
 4491SOL     OW17695   1.153   1.876   4.888  0.0709 -0.0794 -0.2493
 4491SOL    HW217696   1.126   1.957   4.931  1.5127  1.9069 -2.8499
 4491SOL    HW317697   1.246   1.868   4.906 -0.0741 -1.2651  0.0763
 4491SOL    MW417698   1.161   1.885   4.896 -0.1645 -1.3756 -0.1423
 4492SOL     OW17699   4.710   2.251   4.611  0.1907  0.3742 -0.2897
 4492SOL    HW217700   4.637   2.272   4.669 -0.1899  0.4820 -0.8016
 4492SOL    HW317701   4.772   2.202   4.666 -0.2637  0.2893  0.1475
 4492SOL    MW417702   4.709   2.247   4.626  0.5840  0.2614 -0.3244
 4493SOL     OW17703   1.052   1.498   0.995 -0.1192 -0.7972 -0.6127
 4493SOL    HW217704   1.056   1.504   0.899  1.0042 -0.4427 -0.5589
 4493SOL    HW317705   1.003   1.418   1.011  0.4253 -1.3425 -1.5081
 4493SOL    MW417706   1.046   1.488   0.984 -0.5473 -0.2248 -0.5377
 4494SOL     OW17707   1.447   0.769   1.074 -0.1243  0.2504  0.4035
 4494SOL    HW217708   1.393   0.841   1.043  0.4312  0.8360  0.7676
 4494SOL    HW317709   1.421   0.756   1.165 -0.9097 -0.6699  0.0640
 4494SOL    MW417710   1.437   0.777   1.082 -0.0925  0.2213  0.3543
 4495SOL     OW17711   5.115   4.511   3.791 -0.7376 -0.1887  0.2285
 4495SOL    HW217712   5.084   4.586   3.741 -0.9188 -1.1283 -1.1175
 4495SOL    HW317713   5.038   4.481   3.840 -1.2729 -0.8550 -0.9890
 4495SOL    MW417714   5.101   4.517   3.791  0.0783 -0.0363  0.2506
 4496SOL     OW17715   2.925   4.435   3.931 -0.2521  0.5326 -0.0119
 4496SOL    HW217716   2.843   4.484   3.942 -0.7123 -0.1407 -0.3743
 4496SOL    HW317717   2.958   4.463   3.846  0.3162  1.3967  0.4757
 4496SOL    MW417718   2.918   4.445   3.921 -0.0225  0.2905  0.1221
 4497SOL     OW17719   3.089   0.636   3.658 -0.2260 -0.0636  1.1462
 4497SOL    HW217720   3.047   0.597   3.582 -1.2038  1.7556  0.7084
 4497SOL    HW317721   3.148   0.568   3.690  0.1670 -0.9074 -1.1918
 4497SOL    MW417722   3.092   0.622   3.652 -0.3771  0.5147  0.0713
 4498SOL     OW17723   2.617   2.402   3.678  0.3605  0.1349  0.4392
 4498SOL    HW217724   2.533   2.440   3.651  1.3876  1.0993 -1.6103
 4498SOL    HW317725   2.613   2.403   3.774 -2.0013  0.0126  0.4211
 4498SOL    MW417726   2.605   2.407   3.687 -0.1261  0.1926  0.1464
 4499SOL     OW17727   3.662   3.883   4.560 -0.3105 -0.5829  0.0188
 4499SOL    HW217728   3.732   3.836   4.514  0.2129  1.1542 -1.0279
 4499SOL    HW317729   3.582   3.835   4.537  0.3248 -1.5814 -0.1629
 4499SOL    MW417730   3.660   3.870   4.551 -0.4456  0.1750 -0.1045
 4500SOL     OW17731   2.100   4.732   1.015 -0.8133 -0.1113  0.2401
 4500SOL    HW217732   2.032   4.743   1.081  1.4640 -0.1271  2.7484
 4500SOL    HW317733   2.173   4.785   1.047 -0.0351  1.0269 -3.0330
 4500SOL    MW417734   2.100   4.741   1.028  0.3194  0.0078 -0.1243
 4501SOL     OW17735   0.690   5.654   3.237  0.6952 -0.0270 -0.5216
 4501SOL    HW217736   0.678   5.746   3.258  0.7331 -0.0397 -0.4442
 4501SOL    HW317737   0.718   5.614   3.319  1.0596 -0.0378 -0.6482
 4501SOL    MW417738   0.692   5.661   3.251 -0.0573  0.0811 -0.0291
 4502SOL     OW17739   0.180   0.306   4.583 -0.0532 -0.2797  0.1749
 4502SOL    HW217740   0.271   0.332   4.566 -0.5554  1.0507 -0.6274
 4502SOL    HW317741   0.169   0.223   4.535  1.4794 -1.9330  2.4886
 4502SOL    MW417742   0.191   0.298   4.574  0.1666 -0.5787  0.1511
 4503SOL     OW17743   3.720   3.328   0.539 -0.7598  0.1893  0.2900
 4503SOL    HW217744   3.698   3.335   0.447 -1.4152 -0.5010  0.3811
 4503SOL    HW317745   3.799   3.381   0.550 -1.8632  2.0187 -0.2323
 4503SOL    MW417746   3.728   3.336   0.529  0.0572  0.3040 -0.2877
 4504SOL     OW17747   2.213   3.599   3.715 -0.3097 -0.4407  0.3756
 4504SOL    HW217748   2.141   3.608   3.777  0.5489 -0.7932  1.4460
 4504SOL    HW317749   2.292   3.604   3.768  0.4727 -0.1609 -0.7659
 4504SOL    MW417750   2.214   3.601   3.730  0.1861  0.2422  0.4828
 4505SOL     OW17751   6.309   4.456   4.467  0.3079 -0.5975 -0.4037
 4505SOL    HW217752   6.351   4.494   4.390  0.8873 -2.2098 -0.9375
 4505SOL    HW317753   6.216   4.475   4.456  0.6441  1.3933 -0.1733
 4505SOL    MW417754   6.302   4.463   4.455 -0.0569  0.7087 -0.0962
 4506SOL     OW17755   4.664   1.876   3.162 -0.1003 -0.3123  0.0640
 4506SOL    HW217756   4.678   1.818   3.237 -2.1523 -1.8087 -0.5858
 4506SOL    HW317757   4.578   1.915   3.178 -0.5694 -0.6492 -1.4731
 4506SOL    MW417758   4.654   1.873   3.174  0.1811 -0.7935 -0.2113
 4507SOL     OW17759   1.038   5.748   4.650  0.1904 -0.5426 -0.3679
 4507SOL    HW217760   1.051   5.727   4.558 -0.6848  0.8608 -0.8351
 4507SOL    HW317761   1.015   5.665   4.691  2.4934 -1.5848 -0.9967
 4507SOL    MW417762   1.037   5.734   4.644 -0.5835  0.2557 -0.0597
 4508SOL     OW17763   3.105   2.031   0.467  0.2321 -0.3273 -0.7265
 4508SOL    HW217764   3.181   1.981   0.436  0.3260 -0.6310 -0.0238
 4508SOL    HW317765   3.066   1.975   0.534 -0.5237 -0.0993 -0.9666
 4508SOL    MW417766   3.110   2.017   0.472 -0.8520  0.0130  0.0073
 4509SOL     OW17767   1.058   6.099   1.436  0.8370  0.2825  0.8409
 4509SOL    HW217768   1.090   6.034   1.498 -1.0244 -1.0455  0.4780
 4509SOL    HW317769   1.110   6.084   1.357  0.3940 -0.7915  0.7511
 4509SOL    MW417770   1.069   6.089   1.434  0.6618  0.2762  0.2706
 4510SOL     OW17771   6.240   0.123   3.930 -0.4966  0.3972  0.2521
 4510SOL    HW217772   6.174   0.137   3.998  1.9913  2.6842  2.4036
 4510SOL    HW317773   6.257   0.211   3.895 -0.1039 -0.4443 -1.7877
 4510SOL    MW417774   6.233   0.137   3.935  0.7710  1.0328 -0.2008
 4511SOL     OW17775   3.696   4.332   3.291 -0.0039  0.2132  0.0997
 4511SOL    HW217776   3.705   4.421   3.258  0.9100  1.2093  2.8034
 4511SOL    HW317777   3.775   4.287   3.263 -0.8856 -0.1053 -2.0776
 4511SOL    MW417778   3.707   4.338   3.283 -1.0877 -0.5203  0.0746
 4512SOL     OW17779   6.064   2.858   3.940 -0.4969 -0.2629 -0.6707
 4512SOL    HW217780   6.124   2.808   3.886  0.3807 -0.6344  0.5982
 4512SOL    HW317781   6.085   2.949   3.922  1.4507 -0.3773  0.7755
 4512SOL    MW417782   6.075   2.863   3.931 -0.4860  0.9365  0.7562
 4513SOL     OW17783   6.068   2.763   4.835 -0.0647  0.3799 -0.0182
 4513SOL    HW217784   6.095   2.835   4.893  2.4406 -1.8963  1.9025
 4513SOL    HW317785   5.977   2.745   4.860 -0.0060  1.4128  1.0572
 4513SOL    MW417786   6.060   2.770   4.846  1.1255  0.3020  0.3101
 4514SOL     OW17787   5.377   5.520   1.173  0.0939  0.8632 -0.1515
 4514SOL    HW217788   5.348   5.446   1.119  1.7810 -0.2226  0.3524
 4514SOL    HW317789   5.316   5.519   1.248  0.2239 -0.1637 -0.0440
 4514SOL    MW417790   5.365   5.510   1.176  0.2199 -0.0229 -0.0822
 4515SOL     OW17791   0.826   3.894   3.676 -0.2560  0.0485  0.2813
 4515SOL    HW217792   0.775   3.971   3.702  0.7338  0.9011 -0.1911
 4515SOL    HW317793   0.798   3.876   3.586  1.9797  2.1154 -0.9674
 4515SOL    MW417794   0.816   3.902   3.667 -0.1225  0.5011  0.1543
 4516SOL     OW17795   5.358   2.414   1.739 -0.0775 -0.2500  0.1549
 4516SOL    HW217796   5.369   2.509   1.744 -2.0401  0.0105  0.4450
 4516SOL    HW317797   5.291   2.401   1.671 -0.2936 -1.3743  0.5571
 4516SOL    MW417798   5.350   2.425   1.730 -0.3223 -0.4660 -0.3323
 4517SOL     OW17799   3.861   0.874   2.520 -0.1718  0.0545 -0.1501
 4517SOL    HW217800   3.865   0.894   2.613 -0.1920 -3.2666  0.6926
 4517SOL    HW317801   3.950   0.849   2.496 -0.3984 -0.2139 -0.7460
 4517SOL    MW417802   3.873   0.874   2.529 -0.2946  0.3559  0.3590
 4518SOL     OW17803   1.017   0.963   2.954 -0.5666  0.0491  0.1534
 4518SOL    HW217804   1.008   1.005   3.039 -0.8245 -0.7850  0.5512
 4518SOL    HW317805   1.110   0.969   2.934 -0.8965  3.0810 -1.0228
 4518SOL    MW417806   1.028   0.969   2.962  0.1560  0.5589  0.6593
 4519SOL     OW17807   2.444   3.472   5.152  0.2382  0.3264  0.0903
 4519SOL    HW217808   2.514   3.536   5.147  0.0489  0.6147  0.9375
 4519SOL    HW317809   2.487   3.390   5.174  0.4359  0.2466 -0.5865
 4519SOL    MW417810   2.459   3.470   5.154 -0.3400  0.4357  0.3416
 4520SOL     OW17811   0.024   0.191   4.945  0.1283  0.3802  0.8303
 4520SOL    HW217812   0.030   0.274   4.897  0.2866  0.2321  0.5931
 4520SOL    HW317813   0.105   0.145   4.924 -1.4650 -1.4023 -1.9449
 4520SOL    MW417814   0.036   0.196   4.936  0.3125 -0.1471  0.0883
 4521SOL     OW17815   2.401   2.261   1.471  0.1685  0.3013 -0.0095
 4521SOL    HW217816   2.425   2.316   1.396 -0.8434  0.8176  0.0265
 4521SOL    HW317817   2.419   2.315   1.547 -0.9544  0.6555  0.0209
 4521SOL    MW417818   2.407   2.275   1.471  0.4436 -0.3457 -0.1712
 4522SOL     OW17819   1.977   3.295   5.107 -0.4822  0.1775 -0.2262
 4522SOL    HW217820   1.903   3.256   5.154  1.5640 -2.2184  1.2680
 4522SOL    HW317821   2.032   3.332   5.175  0.1876  1.0864 -1.2303
 4522SOL    MW417822   1.974   3.294   5.122 -0.2261  0.1741 -0.4852
 4523SOL     OW17823   2.788   5.440   4.997  0.2957  0.2591  0.9609
 4523SOL    HW217824   2.785   5.395   4.913 -0.2470  2.1826 -0.0963
 4523SOL    HW317825   2.810   5.371   5.060  1.5813 -1.0786 -0.8477
 4523SOL    MW417826   2.791   5.425   4.994 -0.1893  0.2666  0.1872
 4524SOL     OW17827   6.413   3.597   1.407  0.2944  0.2667 -0.1762
 4524SOL    HW217828   6.372   3.617   1.491 -0.1772 -1.1852 -0.0208
 4524SOL    HW317829   6.343   3.557   1.356  0.1432  2.5454 -1.8859
 4524SOL    MW417830   6.398   3.594   1.412  0.2262 -0.1274  0.3322
 4525SOL     OW17831   3.689   6.156   1.205  0.3955 -0.0717  0.2127
 4525SOL    HW217832   3.709   6.063   1.201 -0.7186 -0.3892  1.3019
 4525SOL    HW317833   3.601   6.160   1.241  0.0713  1.3838 -0.6616
 4525SOL    MW417834   3.680   6.145   1.209  0.7489  0.3631 -0.2961
 4526SOL     OW17835   3.884   2.061   0.410 -0.1554  0.2053 -0.2916
 4526SOL    HW217836   3.877   1.970   0.384  0.7250  0.3341 -1.0018
 4526SOL    HW317837   3.967   2.091   0.373 -1.8337  2.1880 -2.8179
 4526SOL    MW417838   3.894   2.053   0.402 -0.4362 -0.1670 -0.7847
 4527SOL     OW17839   4.993   5.314   0.721 -0.3677 -0.3364  0.5084
 4527SOL    HW217840   4.932   5.386   0.737  0.3804  0.3293  0.3995
 4527SOL    HW317841   4.937   5.239   0.702 -1.1596  0.8316 -2.1599
 4527SOL    MW417842   4.977   5.314   0.721  0.3229 -0.1968  0.5240
 4528SOL     OW17843   0.510   3.113   5.672 -0.2369 -0.2717  0.6179
 4528SOL    HW217844   0.465   3.098   5.588 -0.8848 -1.2935  1.1175
 4528SOL    HW317845   0.496   3.205   5.691  1.0489  0.3072 -1.0325
 4528SOL    MW417846   0.502   3.123   5.663 -0.8315 -0.5153  0.8518
 4529SOL     OW17847   5.117   3.168   1.077 -0.2797 -0.3363  0.4792
 4529SOL    HW217848   5.114   3.210   1.163 -0.3720 -1.2462  0.9389
 4529SOL    HW317849   5.161   3.084   1.093  2.6302  0.7843 -0.9435
 4529SOL    MW417850   5.123   3.162   1.090  0.0575 -0.1200  0.2362
 4530SOL     OW17851   5.478   0.717   1.898 -0.8375  0.4951  0.0569
 4530SOL    HW217852   5.423   0.730   1.821 -0.6750  0.8993  0.0036
 4530SOL    HW317853   5.425   0.749   1.971 -0.6508  0.9494 -0.0033
 4530SOL    MW417854   5.464   0.723   1.898 -0.1972  0.5798  0.2563
 4531SOL     OW17855   0.885   3.587   5.599 -0.0050  0.3116 -0.0285
 4531SOL    HW217856   0.937   3.507   5.590  1.7074  1.1442  1.6491
 4531SOL    HW317857   0.865   3.592   5.692  0.1730  1.9463 -0.0478
 4531SOL    MW417858   0.889   3.578   5.610  0.1830 -0.4064  0.7576
 4532SOL     OW17859   1.907   1.636   3.255 -0.1547 -0.7588  0.4180
 4532SOL    HW217860   1.964   1.596   3.190  0.3306 -1.4562  1.2573
 4532SOL    HW317861   1.843   1.568   3.276 -1.1327 -0.0892 -0.2829
 4532SOL    MW417862   1.906   1.622   3.249  0.5047 -0.1253 -0.6713
 4533SOL     OW17863   3.518   1.815   3.702 -0.2321  0.0374 -0.1757
 4533SOL    HW217864   3.572   1.883   3.661 -1.0495 -0.5204 -2.3288
 4533SOL    HW317865   3.465   1.780   3.630 -0.5955 -2.1611  1.0752
 4533SOL    MW417866   3.518   1.819   3.687 -0.8452 -0.3530 -0.2637
 4534SOL     OW17867   1.478   4.638   6.025 -0.5478 -0.2049  0.5316
 4534SOL    HW217868   1.403   4.694   6.048 -0.2635  0.6689 -0.6151
 4534SOL    HW317869   1.533   4.638   6.104 -1.0259  0.3403  0.8707
 4534SOL    MW417870   1.475   4.645   6.038  0.1967  0.0721  0.7925
 4535SOL     OW17871   3.099   0.099   2.802 -0.1718  0.2772  0.3769
 4535SOL    HW217872   3.105   0.097   2.898 -0.5468  0.5254  0.4082
 4535SOL    HW317873   3.136   0.184   2.778  2.5956 -0.9014  0.0809
 4535SOL    MW417874   3.105   0.110   2.812 -0.0484 -0.2438  0.4018
 4536SOL     OW17875   1.173   3.550   0.654  0.2190 -0.3205 -0.0770
 4536SOL    HW217876   1.182   3.458   0.678 -0.6411  0.0962  2.0397
 4536SOL    HW317877   1.260   3.587   0.664  0.5637 -0.8669 -0.9180
 4536SOL    MW417878   1.185   3.543   0.658  0.8760 -0.2522 -0.2837
 4537SOL     OW17879   1.014   1.386   1.388 -1.0569 -0.1758  0.0818
 4537SOL    HW217880   0.933   1.434   1.407 -0.3470  1.5458 -1.0842
 4537SOL    HW317881   1.083   1.451   1.393  0.4924 -1.8622  2.3123
 4537SOL    MW417882   1.012   1.401   1.391  0.1942  0.2092  0.0097
 4538SOL     OW17883   5.694   1.462   4.347 -0.7028 -0.8171  0.0625
 4538SOL    HW217884   5.711   1.463   4.253  3.2325 -0.0197  0.6142
 4538SOL    HW317885   5.746   1.390   4.380  0.0563  0.5064  1.8954
 4538SOL    MW417886   5.703   1.453   4.339 -0.1771  0.3677  0.6693
 4539SOL     OW17887   1.454   5.254   3.883  0.7202 -0.1558  0.2207
 4539SOL    HW217888   1.452   5.317   3.811  1.1088  0.5190  0.7861
 4539SOL    HW317889   1.475   5.170   3.842  2.3555  0.4646 -0.2913
 4539SOL    MW417890   1.456   5.251   3.868  0.8024 -0.1436  0.5382
 4540SOL     OW17891   4.366   2.755   2.882 -0.0972 -0.0765 -0.2580
 4540SOL    HW217892   4.281   2.747   2.839 -0.6156 -1.1483  0.9073
 4540SOL    HW317893   4.368   2.684   2.945  1.3539  0.4122  0.2948
 4540SOL    MW417894   4.355   2.745   2.884  0.1594  0.5825 -0.2075
 4541SOL     OW17895   5.644   5.509   5.734  0.2222  0.2174 -0.0255
 4541SOL    HW217896   5.671   5.482   5.822  0.3744 -1.4158 -0.5535
 4541SOL    HW317897   5.703   5.582   5.713  0.1611  0.6615  1.2205
 4541SOL    MW417898   5.656   5.515   5.743 -0.5337  0.0890  0.4178
 4542SOL     OW17899   6.363   1.653   0.537  0.3149 -0.2350 -0.3107
 4542SOL    HW217900   6.345   1.559   0.527 -1.3034  0.1725 -1.6548
 4542SOL    HW317901   6.449   1.656   0.578 -0.0949 -2.3105  0.8677
 4542SOL    MW417902   6.372   1.641   0.541  0.2257 -0.2041  0.6139
 4543SOL     OW17903   0.066   5.595   1.740  0.1581 -0.2635 -0.6365
 4543SOL    HW217904   0.056   5.687   1.762  1.5378  0.1684 -1.6385
 4543SOL    HW317905   0.151   5.571   1.777 -0.3163 -1.2199 -0.1430
 4543SOL    MW417906   0.076   5.604   1.748 -0.5838 -0.0199  0.1094
 4544SOL     OW17907   1.995   2.593   4.646 -0.1068  0.3576  0.5500
 4544SOL    HW217908   1.924   2.574   4.584 -0.5677 -0.1377  1.2216
 4544SOL    HW317909   1.958   2.655   4.708 -0.0763 -0.1691  1.1089
 4544SOL    MW417910   1.981   2.599   4.646 -0.1636  0.1004  0.2176
 4545SOL     OW17911   6.406   2.039   4.357 -0.0678  0.1686 -0.0231
 4545SOL    HW217912   6.321   2.080   4.344  0.1276  0.4301 -0.4794
 4545SOL    HW317913   6.469   2.105   4.330  0.2345 -0.7664 -1.7522
 4545SOL    MW417914   6.403   2.053   4.352 -0.0052 -0.2795 -0.4618
 4546SOL     OW17915   1.973   0.928   2.489 -0.1482  0.2050  0.6092
 4546SOL    HW217916   1.905   0.946   2.553 -1.4253 -0.6815 -0.4413
 4546SOL    HW317917   1.955   0.989   2.417  0.1286 -0.0899  0.2880
 4546SOL    MW417918   1.962   0.939   2.488  0.2183  0.4867 -0.1205
 4547SOL     OW17919   5.742   0.116   5.196  0.2409  0.7567 -0.3570
 4547SOL    HW217920   5.729   0.022   5.186  3.4427  0.0461  1.1523
 4547SOL    HW317921   5.782   0.144   5.113 -0.4799  0.7894 -0.7067
 4547SOL    MW417922   5.745   0.107   5.183 -0.2379 -0.2691  0.1282
 4548SOL     OW17923   4.554   1.306   4.748  0.2279  0.1879  0.1732
 4548SOL    HW217924   4.625   1.242   4.737 -0.4370 -0.6890  0.8100
 4548SOL    HW317925   4.560   1.362   4.671 -0.7120 -2.1794 -1.7186
 4548SOL    MW417926   4.564   1.305   4.737 -0.0367 -0.2912  0.0591
 4549SOL     OW17927   0.313   2.293   4.980 -0.6394  0.1870  0.5491
 4549SOL    HW217928   0.378   2.240   4.934 -0.3790  0.6928  0.3193
 4549SOL    HW317929   0.248   2.231   5.011 -0.3935 -0.2508  0.1946
 4549SOL    MW417930   0.313   2.278   4.978 -0.4307 -0.0627  0.1092
 4550SOL     OW17931   6.356   0.583   0.101  0.3768  0.0914 -0.3761
 4550SOL    HW217932   6.433   0.533   0.075 -0.0968 -0.1974 -1.2583
 4550SOL    HW317933   6.369   0.669   0.063  0.3846  0.1234 -0.3020
 4550SOL    MW417934   6.368   0.588   0.093  0.1886 -0.1877  0.3250
 4551SOL     OW17935   4.550   1.987   3.653  0.0862  0.3868 -0.1201
 4551SOL    HW217936   4.501   2.064   3.681  0.5885  0.3925  0.7967
 4551SOL    HW317937   4.565   1.937   3.734  0.6359 -0.1569 -0.5432
 4551SOL    MW417938   4.546   1.990   3.667 -0.1661 -0.1069  0.0380
 4552SOL     OW17939   2.736   5.196   0.845  0.3106  0.4510  0.2590
 4552SOL    HW217940   2.801   5.258   0.811  1.5185  0.1662  1.9558
 4552SOL    HW317941   2.753   5.115   0.798 -0.5744  1.0640 -1.1913
 4552SOL    MW417942   2.747   5.194   0.834 -0.0182  0.0055  0.2464
 4553SOL     OW17943   5.500   5.359   2.118 -0.2952  0.1246 -0.1509
 4553SOL    HW217944   5.465   5.299   2.053  1.7358 -0.0089 -1.2110
 4553SOL    HW317945   5.475   5.446   2.086 -2.4571 -0.0356  0.9105
 4553SOL    MW417946   5.492   5.363   2.105  0.3341 -0.4561 -0.1028
 4554SOL     OW17947   4.831   2.100   1.321 -0.0661 -0.0407 -0.2674
 4554SOL    HW217948   4.889   2.122   1.394  1.5807 -0.7158 -1.3083
 4554SOL    HW317949   4.882   2.039   1.267 -1.6054 -0.3455 -1.4593
 4554SOL    MW417950   4.845   2.095   1.323 -0.3369 -0.1215 -0.3672
 4555SOL     OW17951   0.270   5.917   2.468  0.0021 -0.3559 -0.0503
 4555SOL    HW217952   0.326   5.994   2.477  2.1444 -1.6674 -1.4239
 4555SOL    HW317953   0.252   5.890   2.558  1.4612  0.2251  0.4467
 4555SOL    MW417954   0.275   5.923   2.481  0.2475  0.2923 -0.3940
 4556SOL     OW17955   2.045   1.399   0.519 -0.3356  0.6794 -0.3880
 4556SOL    HW217956   2.008   1.411   0.607  1.0167 -0.6175  0.4216
 4556SOL    HW317957   2.067   1.488   0.490  0.0929  1.0676  1.0285
 4556SOL    MW417958   2.043   1.412   0.527  0.7141 -0.3013  0.0536
 4557SOL     OW17959   2.247   1.224   0.615 -0.2197  0.3510 -0.0753
 4557SOL    HW217960   2.183   1.289   0.586 -1.0264  0.7895  2.4457
 4557SOL    HW317961   2.324   1.275   0.640  0.7137 -0.0743 -1.8909
 4557SOL    MW417962   2.249   1.240   0.614 -0.4358 -0.3945  0.2140
 4558SOL     OW17963   1.521   3.066   5.944  0.3133  0.1723 -0.0884
 4558SOL    HW217964   1.590   3.080   5.879 -0.5833  0.4459 -0.9958
 4558SOL    HW317965   1.462   3.140   5.933 -0.9109 -0.8137 -0.3242
 4558SOL    MW417966   1.523   3.078   5.934 -0.2529  0.5551  0.4298
 4559SOL     OW17967   1.266   4.754   0.369 -0.3658  0.3433 -0.1488
 4559SOL    HW217968   1.213   4.696   0.424  0.5396 -0.5569 -0.1887
 4559SOL    HW317969   1.341   4.699   0.342 -0.1410  1.1529 -1.2264
 4559SOL    MW417970   1.269   4.739   0.372  0.3586 -0.1493  0.0315
 4560SOL     OW17971   1.110   0.126   2.582 -0.3353  0.0046 -0.5919
 4560SOL    HW217972   1.038   0.184   2.606  0.5467  1.2493 -0.8877
 4560SOL    HW317973   1.156   0.109   2.665  0.2401  0.8896 -0.7250
 4560SOL    MW417974   1.107   0.131   2.596  0.1550  0.1543  0.5250
 4561SOL     OW17975   4.846   5.211   3.913 -0.8654  0.1714 -0.7609
 4561SOL    HW217976   4.826   5.225   4.005 -2.5374 -2.0852 -0.6805
 4561SOL    HW317977   4.779   5.261   3.866 -1.2045 -0.1782 -0.6664
 4561SOL    MW417978   4.834   5.219   3.919 -0.1575  0.3073 -0.2245
 4562SOL     OW17979   3.799   1.147   4.093 -0.0189 -0.6903  0.0746
 4562SOL    HW217980   3.848   1.195   4.027  0.8189 -1.1782  0.3226
 4562SOL    HW317981   3.742   1.089   4.043  0.0747 -0.5297 -0.2201
 4562SOL    MW417982   3.798   1.146   4.078 -0.1773  0.5314 -1.1107
 4563SOL     OW17983   2.129   4.742   2.270  0.1246 -0.3408  0.0250
 4563SOL    HW217984   2.053   4.750   2.328 -1.0281 -1.9463 -1.1558
 4563SOL    HW317985   2.149   4.832   2.244  0.0192  0.3149  2.0191
 4563SOL    MW417986   2.121   4.755   2.274 -0.9293  0.1057  0.0483
 4564SOL     OW17987   5.153   3.853   1.094  0.0681  0.3189 -0.7559
 4564SOL    HW217988   5.169   3.938   1.051  0.1109  0.9678  0.5015
 4564SOL    HW317989   5.239   3.811   1.096  0.7769  1.7215  1.6281
 4564SOL    MW417990   5.167   3.859   1.089 -0.4274  0.2464 -0.8098
 4565SOL     OW17991   4.486   4.207   4.539 -0.4610 -0.0419 -0.1812
 4565SOL    HW217992   4.548   4.272   4.574 -1.4046  0.5279  0.4675
 4565SOL    HW317993   4.472   4.146   4.611  0.0090 -0.6625 -0.6152
 4565SOL    MW417994   4.492   4.208   4.553 -0.3976  0.4531  0.0703
 4566SOL     OW17995   4.429   5.042   3.946  0.3196 -0.0168 -0.0122
 4566SOL    HW217996   4.404   4.981   4.016  0.9958 -0.6131 -0.2762
 4566SOL    HW317997   4.351   5.096   3.933 -0.6352 -1.4277 -0.4118
 4566SOL    MW417998   4.415   5.041   3.954  0.6278 -0.0078 -0.2195
 4567SOL     OW17999   1.484   3.231   5.652 -0.3387 -0.0106  0.3279
 4567SOL    HW218000   1.548   3.298   5.628 -0.1540  0.3522  1.7205
 4567SOL    HW318001   1.400   3.277   5.653 -0.3548 -0.0394  0.3045
 4567SOL    MW418002   1.481   3.246   5.649  0.3207 -0.5154  0.9124
 4568SOL     OW18003   0.333   5.444   5.982 -0.4764  0.5214  0.4179
 4568SOL    HW218004   0.246   5.475   6.006  0.6254  1.6057  3.7078
 4568SOL    HW318005   0.350   5.372   6.043  1.3286  1.1364  0.7052
 4568SOL    MW418006   0.324   5.439   5.993  0.4272 -0.1655 -0.3139
 4569SOL     OW18007   1.986   5.537   1.351 -0.3707  0.1882 -0.1103
 4569SOL    HW218008   1.973   5.622   1.392  0.1492  0.4081 -0.3947
 4569SOL    HW318009   1.913   5.484   1.382 -2.1378  1.4516 -1.8873
 4569SOL    MW418010   1.975   5.541   1.361 -0.3754  0.1177 -0.0076
 4570SOL     OW18011   3.955   2.953   2.370  0.0751  0.8649 -0.5165
 4570SOL    HW218012   3.958   2.874   2.424 -0.9571  1.3514  0.2585
 4570SOL    HW318013   4.043   2.957   2.330  0.3632 -0.2935 -0.0441
 4570SOL    MW418014   3.967   2.943   2.372  0.0532 -0.1651  0.4489
 4571SOL     OW18015   1.326   1.530   3.832  0.2887  0.1399 -0.1751
 4571SOL    HW218016   1.411   1.545   3.873 -0.6033  0.1587  1.8340
 4571SOL    HW318017   1.292   1.617   3.815 -0.4383  0.2626  1.6206
 4571SOL    MW418018   1.333   1.543   3.835  0.0209  0.1771 -0.3420
 4572SOL     OW18019   3.599   2.107   4.749 -0.6416  0.1514 -0.1684
 4572SOL    HW218020   3.691   2.086   4.732  0.3756  3.9238 -0.2071
 4572SOL    HW318021   3.550   2.045   4.695  2.0045  0.4414 -3.2268
 4572SOL    MW418022   3.605   2.096   4.740 -0.5648  0.4644 -0.7575
 4573SOL     OW18023   0.145   2.823   1.412 -0.2381 -0.3484  0.0136
 4573SOL    HW218024   0.070   2.776   1.448  0.3088 -2.6387 -1.5620
 4573SOL    HW318025   0.206   2.754   1.385  1.0791  1.3040 -1.5752
 4573SOL    MW418026   0.143   2.808   1.413 -0.0768  0.1600 -0.3131
 4574SOL     OW18027   2.255   4.311   4.009  0.0147 -0.4323  0.3687
 4574SOL    HW218028   2.270   4.248   3.939  1.8864  0.4919 -0.1478
 4574SOL    HW318029   2.336   4.309   4.060 -0.4783  0.4802  1.2207
 4574SOL    MW418030   2.268   4.302   4.007 -0.6335  0.0281  0.1372
 4575SOL     OW18031   2.466   2.395   6.397  0.5705  0.2184  0.0514
 4575SOL    HW218032   2.457   2.484   6.431  0.0940 -0.8222  2.8761
 4575SOL    HW318033   2.421   2.397   6.313 -0.3444  2.3959  0.5309
 4575SOL    MW418034   2.459   2.407   6.390  0.4459 -0.0477  0.3957
 4576SOL     OW18035   1.499   4.978   5.418 -0.8142  0.3370  0.3396
 4576SOL    HW218036   1.445   4.919   5.471 -1.0813 -0.9072 -1.2362
 4576SOL    HW318037   1.455   5.063   5.424 -2.1991 -0.3357  0.1803
 4576SOL    MW418038   1.486   4.981   5.426 -0.3758 -0.0241 -0.4958
 4577SOL     OW18039   2.738   2.588   3.939  0.0054 -0.8189 -0.4287
 4577SOL    HW218040   2.827   2.622   3.929 -1.0086  2.3767  0.1952
 4577SOL    HW318041   2.748   2.508   3.989  2.4859 -0.0747  0.4255
 4577SOL    MW418042   2.751   2.582   3.944 -0.7232 -0.3437  0.2396
 4578SOL     OW18043   3.129   6.407   3.961 -0.1677  0.2093 -0.6588
 4578SOL    HW218044   3.130   6.434   3.869  0.6025 -3.1585 -1.7893
 4578SOL    HW318045   3.188   6.332   3.964 -0.3321  0.0711  2.5993
 4578SOL    MW418046   3.137   6.401   3.949 -0.1130 -0.0047  0.5142
 4579SOL     OW18047   5.334   4.159   1.633 -0.0660  0.2119  0.3724
 4579SOL    HW218048   5.419   4.115   1.623  0.4764  0.7413  2.3199
 4579SOL    HW318049   5.354   4.251   1.615 -0.6974  0.0635 -1.2569
 4579SOL    MW418050   5.348   4.166   1.629  0.3539  0.0188  0.2612
 4580SOL     OW18051   0.057   2.182   2.568 -0.3298 -0.2674  0.1187
 4580SOL    HW218052   0.031   2.211   2.480 -0.6639  0.1291  0.3466
 4580SOL    HW318053   0.035   2.088   2.569 -2.2090  0.1390  0.4530
 4580SOL    MW418054   0.051   2.173   2.556 -0.1057  0.5155  0.9783
 4581SOL     OW18055   0.951   0.314   5.610 -0.1942  0.3639 -0.3972
 4581SOL    HW218056   0.862   0.292   5.637  0.6797 -1.1757  1.4774
 4581SOL    HW318057   0.989   0.231   5.579  0.9598  0.7211 -0.0046
 4581SOL    MW418058   0.944   0.300   5.609  0.2532 -0.1595 -0.5775
 4582SOL     OW18059   2.475   2.453   1.265  0.0746  0.0928 -0.4400
 4582SOL    HW218060   2.461   2.461   1.170 -0.8724  1.4178 -0.2250
 4582SOL    HW318061   2.439   2.535   1.301  0.1678 -0.5079  1.0861
 4582SOL    MW418062   2.468   2.465   1.257 -0.5166  0.4991  0.0271
 4583SOL     OW18063   3.793   4.908   5.201  0.5681  0.4502 -0.1474
 4583SOL    HW218064   3.733   4.859   5.145  0.9516 -0.2120  0.0229
 4583SOL    HW318065   3.878   4.900   5.158  0.7846  0.2975  0.3105
 4583SOL    MW418066   3.796   4.901   5.188 -0.2666 -0.2927 -0.9350
 4584SOL     OW18067   4.862   0.325   1.674 -0.8298  0.1958  0.0343
 4584SOL    HW218068   4.835   0.267   1.745  0.8359  1.0435  1.4566
 4584SOL    HW318069   4.947   0.290   1.647 -0.4615  1.1365 -0.0488
 4584SOL    MW418070   4.870   0.312   1.680 -0.1313 -0.0610  0.2742
 4585SOL     OW18071   0.781   0.161   3.859 -0.2033 -0.3124 -0.1014
 4585SOL    HW218072   0.823   0.247   3.854 -1.8944  0.5942  0.5855
 4585SOL    HW318073   0.689   0.180   3.877 -0.9799 -2.2257 -1.7251
 4585SOL    MW418074   0.775   0.175   3.861 -0.0592 -0.1496  0.9278
 4586SOL     OW18075   2.807   3.247   5.060  0.4606  0.5291  0.0887
 4586SOL    HW218076   2.749   3.171   5.058  0.5286  0.3624  2.0454
 4586SOL    HW318077   2.895   3.211   5.050  0.5912  0.1477  2.1301
 4586SOL    MW418078   2.811   3.233   5.059  0.5246  0.3339  0.2180
 4587SOL     OW18079   4.418   1.029   0.793  0.1906  0.7259  0.7044
 4587SOL    HW218080   4.512   1.040   0.801  0.2850 -0.2223  1.0420
 4587SOL    HW318081   4.404   0.934   0.798 -0.7739  0.8511  0.6327
 4587SOL    MW418082   4.428   1.018   0.795  0.1021  0.1734  0.7489
 4588SOL     OW18083   5.207   4.751   1.984  0.1513  0.2865 -0.1604
 4588SOL    HW218084   5.145   4.704   1.927 -1.9387  3.1618 -0.4350
 4588SOL    HW318085   5.175   4.734   2.072 -0.9481  1.5814 -0.2895
 4588SOL    MW418086   5.195   4.742   1.988 -0.1686  0.2737  0.4996
 4589SOL     OW18087   6.427   1.289   3.818 -0.3663  0.1609 -0.9454
 4589SOL    HW218088   6.452   1.381   3.810  0.8640 -0.1445 -0.6801
 4589SOL    HW318089   6.401   1.279   3.910 -1.8678  0.5487 -1.2882
 4589SOL    MW418090   6.427   1.300   3.829 -0.0870 -0.0340  0.2380
 4590SOL     OW18091   3.437   5.445   5.926  0.1151 -0.1005  0.0210
 4590SOL    HW218092   3.349   5.430   5.890 -0.3423  0.4786  0.8440
 4590SOL    HW318093   3.494   5.449   5.850 -0.4542 -1.2557 -0.4839
 4590SOL    MW418094   3.433   5.444   5.912 -0.2011 -0.5382  0.0030
 4591SOL     OW18095   0.141   4.079   0.375  0.2328 -0.2192  0.3622
 4591SOL    HW218096   0.099   4.009   0.425 -0.4576 -0.1342 -0.1071
 4591SOL    HW318097   0.070   4.136   0.347  0.4314 -1.0587 -2.0089
 4591SOL    MW418098   0.126   4.077   0.378  0.3427 -0.1126  0.7918
 4592SOL     OW18099   2.438   2.256   0.251 -0.0540 -0.2992  0.1181
 4592SOL    HW218100   2.443   2.293   0.163 -0.2205 -0.9832 -0.1846
 4592SOL    HW318101   2.525   2.270   0.287  0.3469 -0.9826 -0.5545
 4592SOL    MW418102   2.450   2.263   0.244 -0.5194 -0.2499  0.0237
 4593SOL     OW18103   3.188   1.477   3.828  0.0528 -0.4360 -0.0395
 4593SOL    HW218104   3.181   1.389   3.867  0.0199 -0.6287 -0.4798
 4593SOL    HW318105   3.282   1.492   3.820  0.0714 -0.2034  0.5411
 4593SOL    MW418106   3.199   1.467   3.832 -0.1716  0.0086  0.7097
 4594SOL     OW18107   2.155   0.994   1.268  0.0263 -0.2603  0.6225
 4594SOL    HW218108   2.154   1.078   1.222 -0.9020 -1.1493 -1.0169
 4594SOL    HW318109   2.065   0.981   1.296 -0.0392 -1.1641  0.0119
 4594SOL    MW418110   2.143   1.004   1.266 -0.5968 -0.5423 -0.1018
 4595SOL     OW18111   4.096   3.946   0.880 -0.2811  0.5494  0.0912
 4595SOL    HW218112   4.120   3.854   0.870  0.2649  0.6081  0.7726
 4595SOL    HW318113   4.041   3.965   0.804 -1.1187 -0.5648  0.4051
 4595SOL    MW418114   4.092   3.937   0.869 -0.6739 -0.0426  0.0067
 4596SOL     OW18115   6.340   4.014   1.909 -0.4504 -0.1342 -0.7904
 4596SOL    HW218116   6.403   3.944   1.927  0.9478  0.8594 -1.7086
 4596SOL    HW318117   6.374   4.090   1.955 -0.1936  0.7884 -2.4489
 4596SOL    MW418118   6.353   4.014   1.917 -0.1080  0.7761  0.3375
 4597SOL     OW18119   6.112   5.615   1.320 -0.1813  0.3804 -0.2785
 4597SOL    HW218120   6.094   5.574   1.235 -2.2042 -0.1826  0.3764
 4597SOL    HW318121   6.189   5.569   1.353 -1.4081 -1.8154 -0.3142
 4597SOL    MW418122   6.120   5.604   1.313  0.8240 -0.1106  0.1979
 4598SOL     OW18123   2.744   5.160   1.376 -0.6367  0.3029  0.0933
 4598SOL    HW218124   2.765   5.202   1.459 -1.2951 -1.2575  1.1035
 4598SOL    HW318125   2.795   5.208   1.311  1.6122  0.2237  1.6763
 4598SOL    MW418126   2.754   5.172   1.378  0.1298  0.6609  0.6634
 4599SOL     OW18127   0.636   5.287   0.454 -0.0788 -0.1836  0.2102
 4599SOL    HW218128   0.645   5.332   0.370  0.5081 -3.0636 -1.3884
 4599SOL    HW318129   0.725   5.286   0.490  0.1333 -1.0102 -0.3109
 4599SOL    MW418130   0.649   5.293   0.448  0.6791  0.1289  0.1347
 4600SOL     OW18131   2.139   1.872   5.264 -0.4082  0.2030  0.2381
 4600SOL    HW218132   2.226   1.905   5.242 -0.5646  0.9174  0.6452
 4600SOL    HW318133   2.082   1.949   5.256 -0.9864 -0.2427  0.0442
 4600SOL    MW418134   2.143   1.886   5.260 -0.4134 -0.1627  0.0794
 4601SOL     OW18135   5.900   1.522   2.409  0.3395 -0.2643  0.1866
 4601SOL    HW218136   5.954   1.526   2.331 -0.3416 -1.8988 -0.4240
 4601SOL    HW318137   5.908   1.608   2.449 -1.7473  1.7834 -3.3017
 4601SOL    MW418138   5.908   1.534   2.404  0.1100 -0.2146 -0.4397
 4602SOL     OW18139   4.608   2.691   5.467  0.2290 -0.5699  0.2620
 4602SOL    HW218140   4.584   2.749   5.540 -0.7320 -1.0941  0.3824
 4602SOL    HW318141   4.699   2.711   5.450  0.4210 -0.2924  1.4934
 4602SOL    MW418142   4.617   2.701   5.475  0.0288 -0.0601 -0.2626
 4603SOL     OW18143   1.341   0.848   2.027  0.0766  0.1082 -0.2508
 4603SOL    HW218144   1.382   0.807   1.951 -1.6452 -2.5087  0.1184
 4603SOL    HW318145   1.413   0.854   2.091  1.1716  0.9031 -1.5001
 4603SOL    MW418146   1.356   0.843   2.026  0.0632 -0.3535  0.0142
 4604SOL     OW18147   2.766   0.647   2.547  0.1626 -0.4358  0.3779
 4604SOL    HW218148   2.690   0.663   2.492  0.8727  0.1891 -0.4580
 4604SOL    HW318149   2.821   0.588   2.496  0.8961  0.2563  0.3276
 4604SOL    MW418150   2.763   0.642   2.533  0.4815 -0.4550 -0.0289
 4605SOL     OW18151   5.846   5.503   1.852  0.1039 -0.0523 -0.5597
 4605SOL    HW218152   5.884   5.439   1.792 -0.5757  0.3674 -1.4679
 4605SOL    HW318153   5.887   5.484   1.937  1.0396 -0.6914 -1.1364
 4605SOL    MW418154   5.856   5.492   1.856 -0.1365  0.0163 -0.6805
 4606SOL     OW18155   0.882   1.345   3.324 -0.5025 -0.2994 -0.2814
 4606SOL    HW218156   0.915   1.400   3.395  0.3006 -0.1297 -0.7727
 4606SOL    HW318157   0.892   1.399   3.246  0.3835 -1.1668 -0.7901
 4606SOL    MW418158   0.888   1.359   3.323  0.4546  0.3314  0.4392
 4607SOL     OW18159   4.555   2.702   0.126 -0.4836 -0.0251 -0.1316
 4607SOL    HW218160   4.501   2.706   0.047 -0.4917  0.8950 -0.0897
 4607SOL    HW318161   4.515   2.766   0.185 -0.4144 -0.6284  0.5857
 4607SOL    MW418162   4.542   2.711   0.123  0.0585 -0.7353 -0.0165
 4608SOL     OW18163   1.650   5.216   5.332 -0.2676 -0.0123  0.0857
 4608SOL    HW218164   1.634   5.134   5.379  2.2138  0.0487  1.1955
 4608SOL    HW318165   1.604   5.205   5.249  0.1014 -2.6210  0.1375
 4608SOL    MW418166   1.642   5.204   5.327 -0.3185  0.0899 -0.0769
 4609SOL     OW18167   3.078   6.262   1.464  0.1000 -0.6756 -0.3576
 4609SOL    HW218168   3.174   6.255   1.462  0.0819 -1.3755  0.4053
 4609SOL    HW318169   3.056   6.315   1.388  1.1472  0.0986 -0.1549
 4609SOL    MW418170   3.088   6.268   1.454  0.5735  0.2791 -0.0221
 4610SOL     OW18171   5.481   5.007   4.781 -0.1324 -0.3981 -0.2239
 4610SOL    HW218172   5.398   4.974   4.747 -0.7207  1.7074 -0.9591
 4610SOL    HW318173   5.462   5.097   4.808  2.3912  0.9260 -2.4749
 4610SOL    MW418174   5.468   5.014   4.780 -0.3817  0.3364 -0.1866
 4611SOL     OW18175   3.305   2.083   1.282 -0.1475 -0.7915 -0.0082
 4611SOL    HW218176   3.384   2.112   1.328 -1.1569  1.2117  0.5619
 4611SOL    HW318177   3.338   2.044   1.201  1.4437  1.0176 -0.3250
 4611SOL    MW418178   3.320   2.082   1.277 -0.2697  0.1915  0.0896
 4612SOL     OW18179   4.916   4.607   4.372  0.3214  0.0966 -0.1962
 4612SOL    HW218180   4.826   4.605   4.342  0.0381 -0.2075  0.6200
 4612SOL    HW318181   4.934   4.699   4.390  0.3455  0.2199 -0.8376
 4612SOL    MW418182   4.907   4.619   4.371 -0.3151  0.2059 -0.5775
 4613SOL     OW18183   3.698   6.039   1.588 -0.2006  0.0303 -0.0623
 4613SOL    HW218184   3.758   6.024   1.661  0.5031  1.5871 -0.2690
 4613SOL    HW318185   3.683   5.953   1.550 -0.7305 -0.8487  2.0088
 4613SOL    MW418186   3.704   6.026   1.593 -0.2276 -0.6230 -0.1053
 4614SOL     OW18187   1.837   4.103   2.464  0.2453  0.6956 -0.0819
 4614SOL    HW218188   1.901   4.148   2.519  1.2824 -1.2253  0.3700
 4614SOL    HW318189   1.795   4.173   2.414  0.9773  2.2508  1.3927
 4614SOL    MW418190   1.840   4.118   2.464  0.2809 -0.2131  0.1719
 4615SOL     OW18191   2.641   0.629   4.362 -0.0605 -0.2639 -0.4093
 4615SOL    HW218192   2.697   0.704   4.342 -1.3535  0.8569 -0.0371
 4615SOL    HW318193   2.615   0.595   4.276  1.3599 -0.9672 -0.5834
 4615SOL    MW418194   2.645   0.634   4.348  0.0531 -0.5781 -0.3236
 4616SOL     OW18195   2.007   3.930   0.192  0.2214 -0.0579  0.0687
 4616SOL    HW218196   1.927   3.925   0.140  0.2790 -1.3877  0.0791
 4616SOL    HW318197   1.994   3.867   0.263  1.6202 -0.9207 -0.4128
 4616SOL    MW418198   1.995   3.921   0.195 -0.4724  0.1237 -0.3839
 4617SOL     OW18199   5.430   2.704   5.271  0.4014  0.6040 -0.4033
 4617SOL    HW218200   5.383   2.713   5.354  0.3141 -1.4018 -0.1860
 4617SOL    HW318201   5.519   2.734   5.291  0.2335  0.6838  0.2593
 4617SOL    MW418202   5.435   2.709   5.285  0.2640  0.3677 -0.0217
 4618SOL     OW18203   6.145   2.946   3.291  0.1022 -0.2761  0.2768
 4618SOL    HW218204   6.052   2.939   3.271  0.1178  1.6737 -0.7506
 4618SOL    HW318205   6.186   2.875   3.242 -0.9114 -1.8860  1.6504
 4618SOL    MW418206   6.138   2.936   3.282 -0.1967 -0.3197  0.2846
 4619SOL     OW18207   4.476   3.021   0.745 -0.0526  0.2414 -0.0577
 4619SOL    HW218208   4.451   2.929   0.748  1.3016 -0.1819 -1.1582
 4619SOL    HW318209   4.399   3.067   0.778 -1.5633 -1.1338 -1.4909
 4619SOL    MW418210   4.462   3.015   0.750  0.5297  0.0086  0.3659
 4620SOL     OW18211   1.940   3.431   4.128 -0.5424  0.0463 -0.6323
 4620SOL    HW218212   1.875   3.384   4.076 -0.3148  0.9466 -1.7793
 4620SOL    HW318213   1.897   3.447   4.212 -1.3422 -0.4525 -0.9398
 4620SOL    MW418214   1.926   3.427   4.132 -0.0920  0.6926  0.5501
 4621SOL     OW18215   1.171   5.377   1.250  0.1299  0.0718  0.3811
 4621SOL    HW218216   1.082   5.347   1.230  0.0104  1.0426 -0.5866
 4621SOL    HW318217   1.216   5.379   1.165  0.3849  1.7723  0.5191
 4621SOL    MW418218   1.165   5.373   1.236  0.5959 -0.0440  0.9356
 4622SOL     OW18219   4.851   1.206   0.703 -0.1530 -0.2114 -0.0833
 4622SOL    HW218220   4.792   1.281   0.696  1.2947  1.1950  1.7634
 4622SOL    HW318221   4.917   1.233   0.767 -0.2220 -3.5151  1.5948
 4622SOL    MW418222   4.852   1.219   0.711 -0.2685  0.2834  0.1017
 4623SOL     OW18223   5.568   5.204   4.384 -0.4664  0.0250  0.5744
 4623SOL    HW218224   5.653   5.165   4.366  0.8572  3.5078 -1.6102
 4623SOL    HW318225   5.506   5.149   4.336  1.2116  0.1653 -1.9327
 4623SOL    MW418226   5.571   5.191   4.375  0.7006 -0.1519 -0.0234
 4624SOL     OW18227   0.285   3.347   1.813 -0.0263  0.2624 -1.0253
 4624SOL    HW218228   0.258   3.436   1.836 -0.5954  0.2146 -1.4915
 4624SOL    HW318229   0.206   3.294   1.828 -0.7213  0.3454 -3.8279
 4624SOL    MW418230   0.271   3.351   1.818  0.2597 -0.1313  0.1581
 4625SOL     OW18231   4.686   0.644   4.213  0.3830 -0.3590 -0.5407
 4625SOL    HW218232   4.631   0.648   4.291 -1.4844 -0.3917 -1.7970
 4625SOL    HW318233   4.759   0.703   4.233 -0.6047  0.4803  0.8163
 4625SOL    MW418234   4.688   0.652   4.226 -0.3727  0.2236  0.0704
 4626SOL     OW18235   4.117   1.651   4.773  0.4031 -0.1105  0.8904
 4626SOL    HW218236   4.029   1.677   4.746  0.4490 -0.9935 -0.2086
 4626SOL    HW318237   4.133   1.698   4.855 -2.0019 -1.7473  2.3992
 4626SOL    MW418238   4.108   1.661   4.780  0.0087 -0.1446  0.4480
 4627SOL     OW18239   0.981   4.162   2.446 -0.2432 -0.1949 -0.1094
 4627SOL    HW218240   1.000   4.186   2.537  3.2423  0.6727 -0.9027
 4627SOL    HW318241   0.946   4.073   2.451 -0.3754 -0.0753  2.0683
 4627SOL    MW418242   0.979   4.153   2.458 -0.3096  0.4408  0.0484
 4628SOL     OW18243   1.572   4.548   4.808  0.2834  0.1689 -0.2310
 4628SOL    HW218244   1.607   4.461   4.829  1.7967  0.5622 -1.0083
 4628SOL    HW318245   1.632   4.583   4.742  0.3974  2.2900  0.9125
 4628SOL    MW418246   1.585   4.541   4.802 -0.4015  0.5046 -0.5169
 4629SOL     OW18247   1.669   4.086   0.954  0.3290  0.0281  0.2780
 4629SOL    HW218248   1.636   4.087   0.864  0.2078 -0.0083  0.3220
 4629SOL    HW318249   1.737   4.019   0.954  1.0916  0.7796 -0.0618
 4629SOL    MW418250   1.674   4.078   0.942  0.2139  0.1972  1.2200
 4630SOL     OW18251   5.737   3.473   1.538  0.8327  0.3005  0.5343
 4630SOL    HW218252   5.700   3.390   1.507  0.3444  0.3536  0.9565
 4630SOL    HW318253   5.817   3.485   1.487 -0.2337  0.6602 -1.1291
 4630SOL    MW418254   5.742   3.464   1.527 -0.4688  0.4530  0.2323
 4631SOL     OW18255   3.926   4.655   4.845 -0.0598  0.0559 -0.0559
 4631SOL    HW218256   3.924   4.565   4.876  0.1099 -0.2960 -1.0353
 4631SOL    HW318257   3.834   4.677   4.831 -0.0634 -0.1609 -0.3691
 4631SOL    MW418258   3.913   4.646   4.847 -0.5278  0.0460  0.2612
 4632SOL     OW18259   5.835   1.065   0.711 -0.0772  0.6193 -0.0479
 4632SOL    HW218260   5.865   1.156   0.723  1.5641  0.0441  0.5185
 4632SOL    HW318261   5.874   1.039   0.628 -1.9174  0.9157 -1.0603
 4632SOL    MW418262   5.844   1.074   0.702  0.3876  0.0527 -0.2737
 4633SOL     OW18263   2.712   0.621   5.247  0.2694 -0.3962 -0.1823
 4633SOL    HW218264   2.702   0.647   5.338 -1.9396  0.4463 -0.6247
 4633SOL    HW318265   2.700   0.526   5.248 -0.3986 -0.3134  0.3372
 4633SOL    MW418266   2.709   0.612   5.259  0.1647  0.0702 -0.2296
 4634SOL     OW18267   2.980   5.891   2.970  0.1063  0.1157  0.1845
 4634SOL    HW218268   2.933   5.899   2.887 -0.2149  1.0216  0.4392
 4634SOL    HW318269   2.972   5.978   3.010 -0.0605 -0.4115  1.3340
 4634SOL    MW418270   2.973   5.904   2.965 -0.4302 -0.0003  0.3587
 4635SOL     OW18271   1.095   0.544   3.742  0.9589 -0.5172 -0.3886
 4635SOL    HW218272   1.084   0.638   3.729  1.2126 -0.4079  0.1655
 4635SOL    HW318273   1.105   0.508   3.654  2.0869  0.1341 -0.5380
 4635SOL    MW418274   1.095   0.551   3.729 -0.5517 -0.6054 -0.0594
 4636SOL     OW18275   4.573   5.840   4.011  0.6470  0.5946  1.1418
 4636SOL    HW218276   4.490   5.824   4.056 -0.1152  0.1749 -0.3281
 4636SOL    HW318277   4.579   5.936   4.007 -0.9236  0.6943 -0.6423
 4636SOL    MW418278   4.563   5.851   4.016 -0.0097 -0.3710  0.1588
 4637SOL     OW18279   1.434   4.440   0.844 -0.4527 -0.0090  0.2205
 4637SOL    HW218280   1.355   4.410   0.890 -1.8096  1.1198 -1.2595
 4637SOL    HW318281   1.422   4.411   0.754  0.3882  0.9657 -0.2180
 4637SOL    MW418282   1.422   4.432   0.838 -0.2129  0.7193 -0.8141
 4638SOL     OW18283   1.936   3.363   5.657 -0.4382 -0.6424 -0.0754
 4638SOL    HW218284   1.987   3.302   5.603  0.7137 -0.7475  1.0895
 4638SOL    HW318285   1.852   3.370   5.612 -0.5116 -2.8908 -0.3873
 4638SOL    MW418286   1.932   3.356   5.644 -0.4718 -0.0542 -0.3598
 4639SOL     OW18287   0.550   0.638   4.762 -0.4310  0.0935 -0.4814
 4639SOL    HW218288   0.465   0.654   4.804 -0.2328 -1.8967  0.8615
 4639SOL    HW318289   0.536   0.558   4.711 -0.1023  1.3810 -2.6952
 4639SOL    MW418290   0.537   0.630   4.761 -0.2902  0.5065  0.5469
 4640SOL     OW18291   4.196   0.167   0.611  0.7056  0.3947 -0.5642
 4640SOL    HW218292   4.114   0.217   0.608  0.1608 -0.1727  2.1040
 4640SOL    HW318293   4.171   0.080   0.581  0.3394  0.2475  0.1526
 4640SOL    MW418294   4.182   0.162   0.606 -0.7160 -0.0826 -0.4904
 4641SOL     OW18295   1.510   3.412   3.978 -0.1939  0.7483 -0.1632
 4641SOL    HW218296   1.421   3.406   4.014  0.0132 -1.7108  0.1025
 4641SOL    HW318297   1.540   3.500   4.003 -2.0796  1.1727  0.8135
 4641SOL    MW418298   1.502   3.423   3.986  0.2762 -0.1615  0.2054
 4642SOL     OW18299   1.551   5.780   2.071 -0.3306  0.6333  0.2307
 4642SOL    HW218300   1.480   5.747   2.016 -1.5882  0.1139  2.0736
 4642SOL    HW318301   1.622   5.717   2.059 -1.1760 -0.3883  0.4330
 4642SOL    MW418302   1.551   5.768   2.062 -1.0172  0.5375  0.5508
 4643SOL     OW18303   1.151   5.470   2.030  0.4805 -0.8060 -0.1044
 4643SOL    HW218304   1.190   5.389   1.995  1.2894 -0.9659  1.0978
 4643SOL    HW318305   1.147   5.455   2.124  1.3701  0.8560  0.2345
 4643SOL    MW418306   1.156   5.457   2.037  0.4048 -1.4780  0.4768
 4644SOL     OW18307   0.353   5.452   3.371  0.3220  0.1329  0.3309
 4644SOL    HW218308   0.399   5.534   3.389 -0.3358  0.7036 -0.4797
 4644SOL    HW318309   0.348   5.448   3.276 -0.6762 -0.2627  0.3915
 4644SOL    MW418310   0.358   5.463   3.361 -0.5532  0.3090  0.1196
 4645SOL     OW18311   5.345   3.193   5.210 -0.0069  0.4823 -0.4895
 4645SOL    HW218312   5.331   3.284   5.237  0.8133  0.1137  1.3197
 4645SOL    HW318313   5.262   3.149   5.228  0.8524 -0.0131  2.7796
 4645SOL    MW418314   5.332   3.199   5.216 -0.2140  0.0074 -0.0788
 4646SOL     OW18315   2.625   4.788   5.937  0.0288 -0.0066 -0.3905
 4646SOL    HW218316   2.645   4.749   6.023  0.6739  0.1866 -0.4487
 4646SOL    HW318317   2.530   4.777   5.928 -0.1689  0.6021  0.6659
 4646SOL    MW418318   2.615   4.781   5.947  0.5629  0.1190 -0.2999
 4647SOL     OW18319   4.708   3.660   1.599 -0.1989 -0.3531 -0.0105
 4647SOL    HW218320   4.638   3.656   1.533 -0.6702 -0.0797  0.4684
 4647SOL    HW318321   4.689   3.587   1.658 -0.4063  0.0700  0.4448
 4647SOL    MW418322   4.696   3.650   1.598 -0.1778 -0.3526  0.3908
 4648SOL     OW18323   0.033   1.567   4.181 -0.1841 -0.1751  0.6692
 4648SOL    HW218324   0.022   1.644   4.237 -0.6902 -1.2062  2.0712
 4648SOL    HW318325   0.077   1.599   4.103  1.4156  1.1950  2.0542
 4648SOL    MW418326   0.037   1.581   4.178  0.2052 -0.0487 -0.0805
 4649SOL     OW18327   3.017   5.919   2.493  0.3379 -0.3351  0.2920
 4649SOL    HW218328   2.972   5.947   2.413  0.5829 -1.3310 -0.2077
 4649SOL    HW318329   3.097   5.972   2.494  0.2680 -0.2150 -0.0467
 4649SOL    MW418330   3.022   5.930   2.482  0.1110  0.8233 -1.0380
 4650SOL     OW18331   1.953   1.213   3.790  0.4705 -0.3416 -0.4885
 4650SOL    HW218332   2.032   1.268   3.790  0.9951 -1.0718  0.0626
 4650SOL    HW318333   1.952   1.173   3.703 -0.1006  0.7870 -1.0152
 4650SOL    MW418334   1.964   1.215   3.779  0.0978  0.4567 -0.1018
 4651SOL     OW18335   3.269   1.950   5.996 -0.0097  0.1518  0.2463
 4651SOL    HW218336   3.215   1.899   6.057  0.4786  0.4633  0.9449
 4651SOL    HW318337   3.232   2.038   6.000  1.1937  0.6404  1.5611
 4651SOL    MW418338   3.257   1.955   6.005 -0.6097 -0.3754 -0.4964
 4652SOL     OW18339   3.011   0.617   3.234 -0.2806  0.1902 -0.4038
 4652SOL    HW218340   2.933   0.623   3.178 -0.8229 -0.2331  0.2906
 4652SOL    HW318341   2.977   0.595   3.320  0.6833 -1.0298 -0.3080
 4652SOL    MW418342   2.996   0.615   3.238 -0.7463  0.2534  0.2949
 4653SOL     OW18343   2.187   5.314   3.537 -0.3772  0.3588  0.0761
 4653SOL    HW218344   2.269   5.330   3.582  0.0210 -0.6246 -0.2641
 4653SOL    HW318345   2.129   5.278   3.605  0.1524 -0.9137 -0.1054
 4653SOL    MW418346   2.190   5.311   3.552  0.2002 -0.0122 -0.1374
 4654SOL     OW18347   5.120   3.781   5.350  0.0001  0.8206  0.1311
 4654SOL    HW218348   5.113   3.855   5.290 -0.9815  0.8415  0.2502
 4654SOL    HW318349   5.089   3.706   5.299  0.3534  0.6138  0.2193
 4654SOL    MW418350   5.115   3.781   5.336  0.0120 -0.9157  0.7295
 4655SOL     OW18351   6.013   0.271   6.393  0.5098 -0.0638 -0.0844
 4655SOL    HW218352   6.027   0.180   6.420 -0.7376  0.3000  2.0181
 4655SOL    HW318353   5.933   0.268   6.340  0.4425 -0.1780  0.0230
 4655SOL    MW418354   6.004   0.259   6.389  0.3396 -0.6264 -0.1767
 4656SOL     OW18355   5.940   5.034   5.726 -0.4451  0.2800  0.1228
 4656SOL    HW218356   5.854   5.013   5.690 -0.2664 -0.0363 -0.1149
 4656SOL    HW318357   5.979   5.092   5.661 -0.7930  1.0856  0.6069
 4656SOL    MW418358   5.934   5.039   5.713 -0.5981 -0.0342 -0.1210
 4657SOL     OW18359   5.623   5.990   0.549  1.1937  0.5414  0.0005
 4657SOL    HW218360   5.621   6.084   0.534  0.5649  0.0973 -3.3195
 4657SOL    HW318361   5.671   5.954   0.475  2.4823 -1.7285  1.7876
 4657SOL    MW418362   5.629   5.998   0.537  0.1546  0.1336 -0.1046
 4658SOL     OW18363   2.828   3.686   3.668  0.5393  0.1533  0.3250
 4658SOL    HW218364   2.856   3.747   3.600  1.2482 -0.0079  0.4637
 4658SOL    HW318365   2.749   3.725   3.705  0.5580  0.5996 -0.1036
 4658SOL    MW418366   2.822   3.699   3.664  0.6684 -0.2942 -0.2251
 4659SOL     OW18367   1.964   1.071   1.532  0.3447  0.9100 -0.1973
 4659SOL    HW218368   1.924   0.997   1.488 -0.1830  0.4361  1.0307
 4659SOL    HW318369   1.915   1.147   1.502 -0.7506  0.4645  0.4101
 4659SOL    MW418370   1.953   1.071   1.522 -0.2586  0.2892  0.3582
 4660SOL     OW18371   4.650   1.306   0.456  0.2496 -0.0591 -0.1558
 4660SOL    HW218372   4.649   1.393   0.415  0.1230 -0.3049 -0.6879
 4660SOL    HW318373   4.559   1.290   0.481 -0.3769 -1.2653 -2.7687
 4660SOL    MW418374   4.638   1.316   0.454 -0.2560  0.3124  0.3310
 4661SOL     OW18375   4.934   3.629   4.408 -0.0863 -0.5650  0.6037
 4661SOL    HW218376   4.936   3.563   4.339  0.0346 -1.0873  1.1015
 4661SOL    HW318377   4.875   3.593   4.474 -0.8980  0.3208  0.3995
 4661SOL    MW418378   4.926   3.616   4.408 -0.9263 -0.1514  0.5683
 4662SOL     OW18379   1.993   0.491   0.616  0.5365  0.3948  0.8444
 4662SOL    HW218380   1.966   0.581   0.597  0.5476  0.6124  1.8271
 4662SOL    HW318381   2.008   0.452   0.530  0.0297  1.1767  0.3929
 4662SOL    MW418382   1.992   0.497   0.602 -0.5867 -0.1845  0.1747
 4663SOL     OW18383   6.350   6.135   3.469  0.3626 -0.0056 -0.3036
 4663SOL    HW218384   6.384   6.190   3.540 -0.8169  0.7378 -0.2906
 4663SOL    HW318385   6.288   6.191   3.423  0.0491 -0.9424 -1.0481
 4663SOL    MW418386   6.346   6.149   3.472 -0.2205 -0.7652 -0.5312
 4664SOL     OW18387   2.022   1.047   3.403 -0.2376 -0.2823  0.3346
 4664SOL    HW218388   2.037   0.955   3.383 -1.0510 -0.0912 -1.3397
 4664SOL    HW318389   2.058   1.095   3.328 -3.6730  0.4665 -1.0505
 4664SOL    MW418390   2.029   1.041   3.390  0.2999 -0.1805  0.5402
 4665SOL     OW18391   4.884   3.259   5.420  0.1394  0.7416  0.0376
 4665SOL    HW218392   4.881   3.351   5.393 -1.0639  0.4837 -0.8317
 4665SOL    HW318393   4.968   3.249   5.463  0.4840  2.1449 -0.2525
 4665SOL    MW418394   4.894   3.270   5.422  0.5737 -0.0172  0.3153
 4666SOL     OW18395   2.541   6.320   0.077  0.3484  0.4858 -0.2214
 4666SOL    HW218396   2.554   6.285  -0.011  1.5736 -0.6026  0.3483
 4666SOL    HW318397   2.629   6.317   0.116  0.1973  2.7057  0.4234
 4666SOL    MW418398   2.555   6.315   0.071  0.3897 -0.2549  0.4672
 4667SOL     OW18399   2.138   6.123   4.617 -0.2349 -0.4061  0.2619
 4667SOL    HW218400   2.076   6.127   4.544 -1.1914 -0.9992  1.0152
 4667SOL    HW318401   2.084   6.136   4.695  0.8034  0.4544  0.8702
 4667SOL    MW418402   2.123   6.125   4.617  0.1832 -0.6895  0.1098
 4668SOL     OW18403   3.982   6.246   1.681  0.4547 -0.4643 -0.6921
 4668SOL    HW218404   3.927   6.200   1.743  2.4793 -0.6207  1.1341
 4668SOL    HW318405   3.950   6.220   1.595 -3.1066  0.5271  0.1828
 4668SOL    MW418406   3.971   6.237   1.677  0.4622 -0.2805  0.1557
 4669SOL     OW18407   0.414   1.449   4.912 -0.2745 -0.7063  0.3210
 4669SOL    HW218408   0.496   1.493   4.894 -1.6269  2.3628  1.0785
 4669SOL    HW318409   0.416   1.429   5.005 -0.6844  0.0923  0.5069
 4669SOL    MW418410   0.425   1.452   4.922  0.0078  0.5020 -0.3637
 4670SOL     OW18411   5.689   0.878   1.734  0.1278 -0.0541  0.3784
 4670SOL    HW218412   5.686   0.812   1.665 -0.0426  0.6929 -0.3384
 4670SOL    HW318413   5.782   0.887   1.754  0.4714  1.6617 -1.6725
 4670SOL    MW418414   5.701   0.870   1.728  0.6776  0.4044  0.0670
 4671SOL     OW18415   4.332   5.562   2.755 -0.4925  0.3528  0.1657
 4671SOL    HW218416   4.383   5.481   2.762  1.2026  1.2956 -0.6200
 4671SOL    HW318417   4.245   5.533   2.728 -0.1721 -1.2642  0.7412
 4671SOL    MW418418   4.327   5.548   2.753 -0.4896 -0.1219 -0.6300
 4672SOL     OW18419   5.454   0.633   2.937  0.0012 -0.1158 -0.0792
 4672SOL    HW218420   5.530   0.585   2.904 -1.0518 -2.0553  0.2239
 4672SOL    HW318421   5.381   0.572   2.929 -1.2933  1.2410  0.8688
 4672SOL    MW418422   5.454   0.619   2.932  0.1376 -0.4525 -0.0817
 4673SOL     OW18423   5.776   0.823   3.368  0.1129 -0.0191  0.2255
 4673SOL    HW218424   5.741   0.749   3.319  0.1359  0.3686 -0.3875
 4673SOL    HW318425   5.871   0.810   3.369  0.0328 -0.6282  1.1646
 4673SOL    MW418426   5.784   0.812   3.362  0.1277  0.2535  0.3294
 4674SOL     OW18427   3.629   1.868   5.136  0.2450  0.1057 -0.4181
 4674SOL    HW218428   3.581   1.932   5.084 -2.4489 -0.2478  1.4088
 4674SOL    HW318429   3.607   1.889   5.227  2.2074 -1.2104  0.4234
 4674SOL    MW418430   3.620   1.879   5.141  0.4364 -0.5330  0.3619
 4675SOL     OW18431   3.555   2.796   2.766  0.6046  0.3396 -0.3864
 4675SOL    HW218432   3.631   2.843   2.800 -0.2802  1.7813 -0.3415
 4675SOL    HW318433   3.532   2.735   2.836  0.8156  0.9455  0.2212
 4675SOL    MW418434   3.562   2.794   2.780  0.1378  0.0606 -0.0143
 4676SOL     OW18435   0.135   2.555   5.740  0.4431 -0.3333  0.4575
 4676SOL    HW218436   0.046   2.529   5.762 -0.3035  0.1543 -1.6920
 4676SOL    HW318437   0.144   2.642   5.777 -1.3825  1.1943 -2.3353
 4676SOL    MW418438   0.125   2.563   5.748 -0.3293 -0.6967 -0.0803
 4677SOL     OW18439   6.272   4.957   3.960  0.1838 -0.6956 -0.7054
 4677SOL    HW218440   6.362   4.971   3.991 -1.0001  1.6182  2.1620
 4677SOL    HW318441   6.228   4.915   4.033 -1.8024  1.1588 -0.7348
 4677SOL    MW418442   6.278   4.954   3.974 -0.0163 -0.9625  0.1489
 4678SOL     OW18443   4.884   4.468   5.034  0.1786  0.1294 -0.6126
 4678SOL    HW218444   4.864   4.441   5.123  0.9665  0.4012 -0.3513
 4678SOL    HW318445   4.822   4.419   4.980 -0.3953  0.0677  0.0879
 4678SOL    MW418446   4.873   4.458   5.039 -0.1239  0.1329 -0.0953
 4679SOL     OW18447   2.934   1.544   0.928  0.0714  0.0747  0.7021
 4679SOL    HW218448   2.948   1.458   0.968  0.2987 -1.2997 -2.0418
 4679SOL    HW318449   3.021   1.581   0.919  0.2136 -0.4352 -0.1202
 4679SOL    MW418450   2.947   1.537   0.932 -0.1586 -0.0116  0.5401
 4680SOL     OW18451   1.186   2.289   5.201 -0.3566 -0.1633 -0.2864
 4680SOL    HW218452   1.266   2.339   5.189 -0.4127 -0.3985 -1.8253
 4680SOL    HW318453   1.116   2.354   5.199 -0.2242  0.0525  1.1488
 4680SOL    MW418454   1.187   2.304   5.199  0.3054  0.1357 -0.0809
 4681SOL     OW18455   1.535   3.834   5.789 -0.2723  0.2392 -0.0479
 4681SOL    HW218456   1.463   3.792   5.742 -0.7893 -0.2471  1.1321
 4681SOL    HW318457   1.564   3.768   5.852 -0.5904  1.3458  1.3252
 4681SOL    MW418458   1.529   3.819   5.791  0.1662  0.0138 -0.5158
 4682SOL     OW18459   1.235   3.833   0.825  0.3197 -0.2348  0.5664
 4682SOL    HW218460   1.326   3.818   0.803 -0.0910  0.3728 -1.7998
 4682SOL    HW318461   1.235   3.914   0.877  1.0881 -0.0228  0.2440
 4682SOL    MW418462   1.247   3.842   0.829  0.5891  0.0051 -0.2541
 4683SOL     OW18463   4.277   2.257   3.078  0.3194  0.1364  0.3899
 4683SOL    HW218464   4.316   2.278   2.993  0.5415 -2.2994 -0.2044
 4683SOL    HW318465   4.185   2.240   3.058  0.2165  0.2521  0.7684
 4683SOL    MW418466   4.270   2.257   3.064  0.3173  0.2529  0.3064
 4684SOL     OW18467   2.047   2.102   6.299  0.1658 -0.1324 -0.5590
 4684SOL    HW218468   2.102   2.106   6.378  2.5931  0.0273 -2.1488
 4684SOL    HW318469   1.958   2.109   6.332  1.1383  3.2943  1.9998
 4684SOL    MW418470   2.043   2.104   6.314 -0.1736 -0.2803 -0.0167
 4685SOL     OW18471   6.279   4.514   5.525  0.4808  0.3641  0.0374
 4685SOL    HW218472   6.336   4.573   5.574 -0.6440  1.6482 -0.1497
 4685SOL    HW318473   6.226   4.471   5.591  1.7279 -0.9583  0.2263
 4685SOL    MW418474   6.279   4.516   5.540  0.5121 -0.3868  0.3056
 4686SOL     OW18475   0.059   0.037   3.028 -0.0526  0.1442  0.3776
 4686SOL    HW218476   0.101  -0.023   2.967 -0.4446 -0.6348  0.8581
 4686SOL    HW318477   0.132   0.085   3.067  0.1946  0.7547 -0.7881
 4686SOL    MW418478   0.074   0.035   3.025  0.2383 -0.0536 -0.6150
 4687SOL     OW18479   6.354   1.422   3.111  0.6653 -0.2248  0.0372
 4687SOL    HW218480   6.331   1.514   3.124  1.0112 -0.5261  3.8770
 4687SOL    HW318481   6.414   1.422   3.037  0.5058  2.5894 -0.1868
 4687SOL    MW418482   6.359   1.434   3.103 -0.0364 -0.2970  0.3398
 4688SOL     OW18483   0.881   0.363   2.404  0.2345 -0.2422 -0.1398
 4688SOL    HW218484   0.846   0.450   2.386  0.8234  0.3520  1.4832
 4688SOL    HW318485   0.907   0.330   2.318 -0.7716  0.8248 -0.8820
 4688SOL    MW418486   0.880   0.370   2.390 -0.0075 -0.1630 -0.3622
 4689SOL     OW18487   1.893   2.801   5.109 -0.2974 -0.3508  0.1761
 4689SOL    HW218488   1.910   2.709   5.132  2.2771  0.4493  1.9450
 4689SOL    HW318489   1.961   2.822   5.045 -0.7410  0.3984 -0.0518
 4689SOL    MW418490   1.904   2.791   5.104 -0.1476  0.2015  0.4031
 4690SOL     OW18491   4.440   4.559   2.147 -0.2944 -0.3539  0.1316
 4690SOL    HW218492   4.505   4.593   2.209 -1.2674  0.8340  0.5366
 4690SOL    HW318493   4.476   4.578   2.061 -1.1025  2.4484  0.3267
 4690SOL    MW418494   4.453   4.566   2.144  0.1899  0.4445 -0.3242
 4691SOL     OW18495   3.579   1.434   5.333 -0.1459  0.0488 -0.7282
 4691SOL    HW218496   3.527   1.492   5.277 -1.5362  0.1722  0.6040
 4691SOL    HW318497   3.659   1.483   5.351 -1.1833  1.4991  0.1594
 4691SOL    MW418498   3.582   1.448   5.328 -0.6046 -0.3595 -0.4212
 4692SOL     OW18499   1.190   3.448   3.076 -0.2970  0.2058 -0.0374
 4692SOL    HW218500   1.273   3.403   3.060 -0.3823  0.3400 -0.9090
 4692SOL    HW318501   1.180   3.447   3.172 -0.9323 -2.7230 -0.0487
 4692SOL    MW418502   1.200   3.442   3.087  0.2098  0.2145  0.0112
 4693SOL     OW18503   3.829   3.917   5.679 -0.3584  0.3494  0.5102
 4693SOL    HW218504   3.900   3.915   5.743 -0.3195  0.8827  0.4842
 4693SOL    HW318505   3.866   3.877   5.601  0.0233  0.9194  0.3914
 4693SOL    MW418506   3.843   3.911   5.678 -0.0221 -0.4331 -0.0119
 4694SOL     OW18507   1.665   4.999   2.683 -0.3316  0.0087  0.0683
 4694SOL    HW218508   1.622   5.035   2.606 -0.8290  0.2730  0.4586
 4694SOL    HW318509   1.673   5.074   2.743  0.2418 -0.1460  0.1870
 4694SOL    MW418510   1.660   5.014   2.681  0.1085 -1.1944 -0.1129
 4695SOL     OW18511   6.142   1.779   0.641 -0.5036 -0.2680 -0.1756
 4695SOL    HW218512   6.220   1.734   0.611 -0.4693 -0.1481 -0.2640
 4695SOL    HW318513   6.105   1.819   0.562  0.4701  1.4210  0.1716
 4695SOL    MW418514   6.147   1.779   0.627  0.6259 -0.3018  0.0168
 4696SOL     OW18515   2.007   6.084   3.035  0.4578 -0.2001 -0.9309
 4696SOL    HW218516   1.959   6.046   2.961 -0.1319 -2.8164  0.6308
 4696SOL    HW318517   1.992   6.022   3.107  4.7693 -0.2658  0.1612
 4696SOL    MW418518   1.999   6.071   3.035 -0.0984  0.4886 -0.3947
 4697SOL     OW18519   3.906   4.324   2.966  0.2105  0.5251  0.3984
 4697SOL    HW218520   3.895   4.258   2.898 -1.5579  1.1360  0.0515
 4697SOL    HW318521   3.889   4.277   3.048 -3.2745  0.9341  0.0235
 4697SOL    MW418522   3.903   4.309   2.968 -0.1307 -0.3059 -0.2970
 4698SOL     OW18523   2.375   6.292   2.759  0.1462  0.3906  0.5153
 4698SOL    HW218524   2.403   6.315   2.847  0.4316  1.6673  0.1136
 4698SOL    HW318525   2.406   6.202   2.747  1.0670  0.5790  1.3237
 4698SOL    MW418526   2.383   6.283   2.769 -0.1996 -0.3429  0.5229
 4699SOL     OW18527   5.589   2.002   6.317 -0.3280  0.1287 -0.2807
 4699SOL    HW218528   5.537   2.080   6.334 -0.6591 -0.2431  0.4615
 4699SOL    HW318529   5.679   2.028   6.336 -0.7750 -0.7346  4.2381
 4699SOL    MW418530   5.594   2.015   6.322 -0.3088  0.1745  0.1619
 4700SOL     OW18531   0.773   6.130   5.286  0.0413 -0.5195 -0.1800
 4700SOL    HW218532   0.844   6.174   5.332 -0.3291 -0.9339  0.8396
 4700SOL    HW318533   0.763   6.047   5.332  0.6515 -1.6578 -1.9847
 4700SOL    MW418534   0.781   6.125   5.298  0.0784 -0.7278 -0.1166
 4701SOL     OW18535   0.488   3.129   2.681 -0.8142 -0.8743 -0.1263
 4701SOL    HW218536   0.411   3.185   2.693  0.0992  0.1364  1.4617
 4701SOL    HW318537   0.550   3.184   2.632 -0.1599 -0.6798  0.8733
 4701SOL    MW418538   0.486   3.144   2.676 -0.3553 -0.3259  0.0791
 4702SOL     OW18539   0.920   0.328   2.670  0.0340 -0.3126  0.3179
 4702SOL    HW218540   0.993   0.376   2.709  0.4203 -1.4936  1.1386
 4702SOL    HW318541   0.921   0.352   2.578  1.9368 -0.8504  0.1630
 4702SOL    MW418542   0.930   0.337   2.663 -0.0584  0.5210 -0.2297
 4703SOL     OW18543   3.003   3.345   2.498  0.0635 -0.0699  0.3974
 4703SOL    HW218544   2.952   3.332   2.418  0.5391 -0.4388  0.1516
 4703SOL    HW318545   3.061   3.418   2.477  0.6645 -0.6059  0.1650
 4703SOL    MW418546   3.004   3.353   2.485  0.0513  0.2202  0.0018
 4704SOL     OW18547   0.554   5.097   2.706 -0.8514  0.0045 -0.1980
 4704SOL    HW218548   0.619   5.063   2.767 -1.5273 -0.7413  0.1352
 4704SOL    HW318549   0.588   5.183   2.679  0.7307 -0.7714 -0.7861
 4704SOL    MW418550   0.567   5.104   2.711 -0.2378  0.1155  0.3852
 4705SOL     OW18551   5.926   1.574   0.767 -0.4851 -0.2694 -0.3506
 4705SOL    HW218552   5.893   1.559   0.856  0.8502 -2.3794 -0.1424
 4705SOL    HW318553   5.947   1.667   0.765 -2.3040  0.2446  0.8884
 4705SOL    MW418554   5.924   1.584   0.779  0.4866 -0.3070  0.0543
 4706SOL     OW18555   5.127   0.259   1.655 -0.1708  0.2597 -0.2390
 4706SOL    HW218556   5.148   0.278   1.746 -1.0822  0.1495 -0.0028
 4706SOL    HW318557   5.193   0.308   1.605  0.8289 -0.3192  0.4824
 4706SOL    MW418558   5.139   0.268   1.660  0.2633  0.4102  0.2658
 4707SOL     OW18559   3.594   3.582   3.111  0.1696  0.2190  0.1339
 4707SOL    HW218560   3.562   3.668   3.084  0.4659  0.6118  0.9912
 4707SOL    HW318561   3.626   3.595   3.200  1.4637 -0.4768 -0.2087
 4707SOL    MW418562   3.594   3.595   3.119 -0.2698  0.6230 -0.1039
 4708SOL     OW18563   5.897   4.729   3.685  0.2396 -0.2032  0.0518
 4708SOL    HW218564   5.938   4.810   3.715 -0.5607  0.7827 -1.3899
 4708SOL    HW318565   5.816   4.723   3.735  0.8838 -0.8202  1.0710
 4708SOL    MW418566   5.892   4.739   3.696 -0.0973  0.0193 -0.2198
 4709SOL     OW18567   5.007   4.509   0.826 -0.4808  0.1489 -0.4252
 4709SOL    HW218568   5.094   4.471   0.827 -0.1816  0.8317 -0.1356
 4709SOL    HW318569   4.990   4.536   0.916 -1.8225 -1.7972 -0.0289
 4709SOL    MW418570   5.016   4.508   0.838  0.1984  0.0074 -0.2989
 4710SOL     OW18571   1.919   5.670   5.222  0.5875  0.6221 -0.1541
 4710SOL    HW218572   1.901   5.619   5.144  0.4731 -0.6962  0.6950
 4710SOL    HW318573   2.014   5.664   5.233  0.4745 -0.2727  0.4819
 4710SOL    MW418574   1.930   5.662   5.213  0.0306 -0.1887 -0.4877
 4711SOL     OW18575   4.974   1.700   2.211 -0.6642 -0.0385 -0.0941
 4711SOL    HW218576   4.991   1.761   2.139 -1.1524  1.0834  0.7079
 4711SOL    HW318577   4.879   1.703   2.222 -0.5482  0.1306  0.8745
 4711SOL    MW418578   4.964   1.708   2.203  0.4058 -0.3007 -0.3390
 4712SOL     OW18579   3.809   4.805   0.275 -0.7200  0.1993  0.8739
 4712SOL    HW218580   3.758   4.757   0.210  0.4074 -1.0517  0.8474
 4712SOL    HW318581   3.900   4.777   0.259 -0.4002 -0.1554  2.9554
 4712SOL    MW418582   3.815   4.795   0.264  0.3402 -0.3411  0.2975
 4713SOL     OW18583   0.254   4.640   6.021 -0.2704  0.2205  0.1830
 4713SOL    HW218584   0.168   4.600   6.038 -0.9048  1.8436  1.0422
 4713SOL    HW318585   0.243   4.685   5.937  0.3751 -1.1545 -0.6745
 4713SOL    MW418586   0.241   4.641   6.012 -0.1400  0.1072 -0.1883
 4714SOL     OW18587   5.654   0.111   3.190 -0.7777  0.0497  0.0025
 4714SOL    HW218588   5.574   0.114   3.241 -0.2963  2.6413  0.7447
 4714SOL    HW318589   5.724   0.096   3.254 -0.5113 -0.9150 -0.4812
 4714SOL    MW418590   5.653   0.109   3.205  0.4477  0.0428  0.1441
 4715SOL     OW18591   1.078   2.151   3.817  0.1315 -0.1707 -0.5204
 4715SOL    HW218592   1.169   2.147   3.846 -0.2782 -2.7313  0.5811
 4715SOL    HW318593   1.026   2.154   3.897 -0.8222 -0.6221 -1.0977
 4715SOL    MW418594   1.083   2.151   3.831 -0.1222  0.9395  0.0544
 4716SOL     OW18595   5.993   3.559   0.802  0.4686 -0.1020 -0.4454
 4716SOL    HW218596   5.969   3.481   0.752 -0.6221 -0.9635  1.3019
 4716SOL    HW318597   5.994   3.529   0.893  1.3908  1.6187  0.1551
 4716SOL    MW418598   5.990   3.545   0.808  0.3716  0.0936 -0.0932
 4717SOL     OW18599   1.323   4.460   4.964  0.1775  0.0595  0.0493
 4717SOL    HW218600   1.288   4.546   4.988 -0.0094  0.2806 -0.9601
 4717SOL    HW318601   1.375   4.477   4.885  0.3481 -0.7119 -0.0099
 4717SOL    MW418602   1.325   4.474   4.956  0.3366 -0.2247  0.8327
 4718SOL     OW18603   2.885   5.251   0.366 -1.0024  0.2603 -0.3131
 4718SOL    HW218604   2.952   5.315   0.344 -1.0164  0.6418  0.7207
 4718SOL    HW318605   2.838   5.236   0.283 -0.5328  1.0240 -0.7257
 4718SOL    MW418606   2.888   5.258   0.352 -0.7342 -0.1506  0.0096
 4719SOL     OW18607   2.570   0.581   3.672 -0.5419  0.0077 -0.4805
 4719SOL    HW218608   2.540   0.655   3.619  1.1557 -0.2148 -1.8499
 4719SOL    HW318609   2.634   0.620   3.732  0.7005 -0.3734 -1.5172
 4719SOL    MW418610   2.575   0.596   3.673 -0.2153 -0.2891  0.3471
 4720SOL     OW18611   6.141   1.676   1.342  0.0841  0.4506  0.3531
 4720SOL    HW218612   6.216   1.734   1.348  1.4241 -1.3842  2.9794
 4720SOL    HW318613   6.164   1.614   1.273  1.6702 -0.8582  1.9550
 4720SOL    MW418614   6.154   1.676   1.334  0.0475  0.3396  0.5160
 4721SOL     OW18615   0.247   5.616   6.313 -0.4201  0.0302  0.5887
 4721SOL    HW218616   0.189   5.566   6.256 -1.5006  1.8666 -0.0049
 4721SOL    HW318617   0.192   5.641   6.387  0.2833 -0.1521  1.1896
 4721SOL    MW418618   0.233   5.612   6.316  0.0789 -0.3911  0.0655
 4722SOL     OW18619   4.008   4.733   6.289 -0.1146  0.5454  0.0728
 4722SOL    HW218620   3.942   4.802   6.300 -1.1734 -0.8208  3.3394
 4722SOL    HW318621   4.092   4.778   6.300 -0.5927  1.7534 -0.8922
 4722SOL    MW418622   4.010   4.748   6.292 -0.2006  0.4309 -0.4490
 4723SOL     OW18623   4.902   4.420   2.780  0.2789  0.3545 -0.2810
 4723SOL    HW218624   4.923   4.498   2.831  0.2380  0.7735 -0.9075
 4723SOL    HW318625   4.807   4.421   2.772  0.1579 -0.4360  0.7712
 4723SOL    MW418626   4.892   4.430   2.786  0.1190 -0.6103 -0.0428
 4724SOL     OW18627   4.857   2.238   3.584 -0.2130  0.3779  0.4898
 4724SOL    HW218628   4.884   2.253   3.493 -0.3245 -0.1610  0.3624
 4724SOL    HW318629   4.771   2.280   3.590  0.5066  1.8348  0.8138
 4724SOL    MW418630   4.849   2.245   3.573  0.5942  0.2180  0.2581
 4725SOL     OW18631   4.570   6.008   0.884  0.1816  0.1796 -0.2316
 4725SOL    HW218632   4.619   5.949   0.942 -2.0281 -0.2256  1.3511
 4725SOL    HW318633   4.636   6.046   0.827  2.0879 -1.5841  0.6724
 4725SOL    MW418634   4.585   6.005   0.884  0.4154 -0.4534 -0.0280
 4726SOL     OW18635   1.238   3.808   1.280 -0.5335 -0.3131 -0.6839
 4726SOL    HW218636   1.298   3.766   1.341 -1.6573  0.6565  1.1810
 4726SOL    HW318637   1.170   3.743   1.264 -0.1850 -0.6034 -0.9980
 4726SOL    MW418638   1.237   3.794   1.286  0.3894  0.3767 -0.0373
 4727SOL     OW18639   0.382   0.678   0.864  0.4690  0.1288  0.0469
 4727SOL    HW218640   0.436   0.708   0.792  0.7219  1.1517  0.6426
 4727SOL    HW318641   0.388   0.747   0.930 -1.6191  0.3298  0.1095
 4727SOL    MW418642   0.390   0.691   0.863  1.1180  0.2961  0.3331
 4728SOL     OW18643   5.962   1.563   1.917  0.4114 -0.4416  0.7062
 4728SOL    HW218644   5.893   1.595   1.859  0.2067 -0.2999  1.0261
 4728SOL    HW318645   6.043   1.593   1.877  0.2418  0.1257  0.7858
 4728SOL    MW418646   5.963   1.571   1.904 -0.4652  0.2046  0.6101
 4729SOL     OW18647   3.208   4.640   2.872 -0.2041 -0.0196  0.5618
 4729SOL    HW218648   3.193   4.569   2.809 -2.4876  0.8684  0.0047
 4729SOL    HW318649   3.225   4.717   2.817 -0.3653  0.3957  1.0909
 4729SOL    MW418650   3.208   4.641   2.856  0.4609  0.3421  0.4450
 4730SOL     OW18651   5.130   1.828   4.912  0.4319  0.3708 -0.6258
 4730SOL    HW218652   5.171   1.861   4.831  0.0296  1.1886 -0.5002
 4730SOL    HW318653   5.164   1.884   4.981  1.1399 -0.6229 -0.1387
 4730SOL    MW418654   5.140   1.839   4.910  0.8295  0.0860 -0.1333
 4731SOL     OW18655   0.694   6.356   1.962 -0.8754  0.3619 -0.1752
 4731SOL    HW218656   0.651   6.315   1.887  1.2309  0.5411 -1.5578
 4731SOL    HW318657   0.674   6.298   2.036 -0.9780 -1.1831 -1.3635
 4731SOL    MW418658   0.685   6.343   1.962  0.2399 -0.0585  0.5179
 4732SOL     OW18659   0.402   3.945   5.541  0.4305  0.4772 -0.2585
 4732SOL    HW218660   0.398   4.000   5.462  2.0806 -0.5829 -1.1427
 4732SOL    HW318661   0.476   3.887   5.525 -0.9676 -1.7163  0.8352
 4732SOL    MW418662   0.411   3.945   5.528 -0.0075  0.4339 -0.4908
 4733SOL     OW18663   5.960   0.284   4.283 -0.1308 -0.3742  0.2813
 4733SOL    HW218664   5.892   0.251   4.341  0.3017 -0.0277  0.9932
 4733SOL    HW318665   6.042   0.257   4.324  0.1901  0.2530  0.0591
 4733SOL    MW418666   5.962   0.276   4.296 -0.0867  0.4474 -0.3163
 4734SOL     OW18667   4.351   5.532   1.504 -0.2536 -0.2085 -0.1009
 4734SOL    HW218668   4.339   5.444   1.540 -1.8845  0.1423  0.2787
 4734SOL    HW318669   4.307   5.590   1.566  1.3005  0.9693 -0.0310
 4734SOL    MW418670   4.344   5.528   1.517 -0.1375  0.6715  0.5665
 4735SOL     OW18671   5.171   4.251   2.526 -0.3855 -0.6538  0.0127
 4735SOL    HW218672   5.235   4.200   2.577  1.0691  0.9359 -0.1097
 4735SOL    HW318673   5.143   4.320   2.586 -1.3745 -0.8412 -0.2218
 4735SOL    MW418674   5.176   4.253   2.541 -0.6640 -0.1527  0.0129
 4736SOL     OW18675   5.595   0.886   5.594  0.2844 -0.0834  0.1445
 4736SOL    HW218676   5.659   0.836   5.645  0.0226  0.8640  1.4541
 4736SOL    HW318677   5.537   0.820   5.557 -0.0279 -0.7723  1.7922
 4736SOL    MW418678   5.596   0.871   5.596  0.6907  0.1447 -0.4265
 4737SOL     OW18679   5.835   3.998   5.573  0.0757  0.1833  0.2519
 4737SOL    HW218680   5.900   3.953   5.518 -0.7665 -0.8123  0.0473
 4737SOL    HW318681   5.758   4.006   5.518 -0.7951 -0.8620  1.2718
 4737SOL    MW418682   5.834   3.993   5.559 -0.6361  0.2196 -0.2739
 4738SOL     OW18683   6.347   4.904   5.577 -0.6577 -0.0861  0.0285
 4738SOL    HW218684   6.290   4.864   5.643 -1.3381  0.0879 -0.4418
 4738SOL    HW318685   6.341   4.846   5.501 -0.6082  0.1959 -0.1958
 4738SOL    MW418686   6.338   4.891   5.576  0.0294 -0.0177  1.0632
 4739SOL     OW18687   0.177   4.229   1.183 -0.2507  0.0368 -0.7211
 4739SOL    HW218688   0.230   4.189   1.253  0.7690 -0.4512 -1.7450
 4739SOL    HW318689   0.241   4.254   1.117 -1.0684  1.7707 -0.8890
 4739SOL    MW418690   0.193   4.227   1.184 -0.5424 -0.1801  0.3221
 4740SOL     OW18691   4.322   2.623   4.776  0.0281 -0.4933  0.1649
 4740SOL    HW218692   4.377   2.546   4.764  0.9550 -0.1935  2.0520
 4740SOL    HW318693   4.384   2.694   4.793 -0.8842 -0.1001  2.1620
 4740SOL    MW418694   4.337   2.623   4.777 -0.1097  0.5720 -0.5490
 4741SOL     OW18695   5.870   6.436   5.415 -0.5383  0.5936 -0.5758
 4741SOL    HW218696   5.842   6.477   5.332  0.3946 -0.6629 -1.5465
 4741SOL    HW318697   5.964   6.453   5.419 -1.0004  3.4813  1.9187
 4741SOL    MW418698   5.879   6.444   5.404 -0.0707  0.1843 -0.0967
 4742SOL     OW18699   4.638   1.648   1.916 -0.2415 -0.0238 -0.0039
 4742SOL    HW218700   4.729   1.650   1.947 -0.4845  0.4733  0.7286
 4742SOL    HW318701   4.608   1.738   1.928 -0.8132 -0.1799 -0.2847
 4742SOL    MW418702   4.646   1.660   1.922 -0.3563  0.2350 -0.1725
 4743SOL     OW18703   5.039   5.264   3.189  0.6328  0.2334  0.0613
 4743SOL    HW218704   5.111   5.274   3.252  0.5243 -0.2101  0.2589
 4743SOL    HW318705   5.032   5.169   3.176  0.7082  0.3216 -0.6816
 4743SOL    MW418706   5.048   5.253   3.195 -0.1268  0.4575 -0.6210
 4744SOL     OW18707   6.137   3.842   5.094  0.8313  0.0625 -0.2743
 4744SOL    HW218708   6.229   3.865   5.089  0.6911  0.7459  0.0425
 4744SOL    HW318709   6.101   3.865   5.008  0.7587  0.7689 -0.0655
 4744SOL    MW418710   6.144   3.848   5.082  0.0268 -0.7021  0.5581
 4745SOL     OW18711   6.407   4.566   4.220  0.1202  0.3075 -0.3840
 4745SOL    HW218712   6.337   4.568   4.155 -0.3226 -0.0870  0.0747
 4745SOL    HW318713   6.484   4.599   4.173 -0.4774  1.2179 -0.7546
 4745SOL    MW418714   6.408   4.571   4.205  0.4483  0.0825  0.5441
 4746SOL     OW18715   0.570   5.698   5.280 -0.1836 -0.2675 -0.2297
 4746SOL    HW218716   0.527   5.654   5.353  0.3677  1.8632  1.4472
 4746SOL    HW318717   0.644   5.641   5.258  0.0103 -0.6409  1.2919
 4746SOL    MW418718   0.574   5.684   5.286 -0.1895  0.5472  0.3651
 4747SOL     OW18719   0.342   0.745   5.571  0.2031  0.0386  0.0302
 4747SOL    HW218720   0.298   0.808   5.629  1.3653  1.8199 -0.9404
 4747SOL    HW318721   0.378   0.798   5.500  1.3086 -1.7314 -0.8145
 4747SOL    MW418722   0.341   0.760   5.569 -0.1220 -0.1260 -0.4288
 4748SOL     OW18723   2.364   2.935   0.003  0.3815  0.2071  0.3771
 4748SOL    HW218724   2.280   2.959   0.043  0.5107  1.5619 -0.1013
 4748SOL    HW318725   2.395   2.862   0.056 -0.5911  0.3898  1.2511
 4748SOL    MW418726   2.357   2.929   0.015  0.1223 -0.4577 -0.0514
 4749SOL     OW18727   6.056   4.051   2.056 -0.7774 -0.6069 -0.2643
 4749SOL    HW218728   6.009   3.981   2.101  0.4216 -1.7807 -0.7892
 4749SOL    HW318729   6.125   4.007   2.007 -0.8572  0.8189 -1.7431
 4749SOL    MW418730   6.059   4.036   2.055 -0.0832 -0.1966  0.3478
 4750SOL     OW18731   2.061   4.306   4.232 -0.2967  0.7251  0.6061
 4750SOL    HW218732   1.987   4.365   4.219 -0.5377  0.4333  0.6217
 4750SOL    HW318733   2.103   4.300   4.146 -0.8107  0.2167  0.3761
 4750SOL    MW418734   2.057   4.313   4.219 -0.3572 -0.3022  0.1563
 4751SOL     OW18735   6.212   3.255   4.896 -0.4843  0.1709  0.2664
 4751SOL    HW218736   6.259   3.254   4.813 -2.4618 -0.7832 -0.8836
 4751SOL    HW318737   6.200   3.348   4.916 -2.2171  0.4594 -1.8519
 4751SOL    MW418738   6.217   3.267   4.888  0.5043 -0.2086  0.0659
 4752SOL     OW18739   2.100   3.356   2.274 -0.2369  0.1637 -0.5672
 4752SOL    HW218740   2.041   3.386   2.204 -0.3789 -2.1526 -1.5438
 4752SOL    HW318741   2.058   3.277   2.308  0.6679  0.3427  1.0606
 4752SOL    MW418742   2.086   3.350   2.269 -0.3404  0.0024  0.4173
 4753SOL     OW18743   3.702   4.789   5.898  0.6577  0.3676  0.0069
 4753SOL    HW218744   3.628   4.849   5.905  0.4880  0.0233  1.5138
 4753SOL    HW318745   3.779   4.846   5.898  0.4444  0.6590 -0.2648
 4753SOL    MW418746   3.703   4.805   5.899  0.0342  0.0643  0.0570
 4754SOL     OW18747   2.102   3.288   4.554 -0.2534  0.3413  0.6048
 4754SOL    HW218748   2.109   3.301   4.460 -1.4844  0.5565  0.5308
 4754SOL    HW318749   2.159   3.356   4.592 -1.6097  1.8500  0.0613
 4754SOL    MW418750   2.111   3.299   4.547  0.4029 -0.6481 -0.3285
 4755SOL     OW18751   4.743   6.112   2.672  0.2531 -0.0693  0.9633
 4755SOL    HW218752   4.735   6.036   2.614  0.4365  1.7995 -1.7331
 4755SOL    HW318753   4.663   6.112   2.724 -0.2375 -1.4836  0.2618
 4755SOL    MW418754   4.732   6.102   2.671 -0.0909  0.4507  0.3503
 4756SOL     OW18755   5.680   5.675   2.835 -0.5243  0.1383 -0.0791
 4756SOL    HW218756   5.661   5.737   2.765 -1.9502 -0.6763 -0.4697
 4756SOL    HW318757   5.641   5.593   2.805  1.1907 -0.9328  0.4778
 4756SOL    MW418758   5.672   5.672   2.822 -0.2473  0.1054 -0.8821
 4757SOL     OW18759   2.140   3.772   6.201 -0.5883 -0.2625  0.4648
 4757SOL    HW218760   2.178   3.824   6.272  2.5463  1.5170 -2.2290
 4757SOL    HW318761   2.060   3.818   6.177  0.2358  1.2906  0.5354
 4757SOL    MW418762   2.135   3.785   6.207 -0.3724 -0.2158  0.0104
 4758SOL     OW18763   3.018   4.940   2.551 -0.2621 -0.8459 -0.3566
 4758SOL    HW218764   2.941   4.997   2.553  0.1800 -0.1609 -1.8947
 4758SOL    HW318765   3.074   4.972   2.622 -0.3431  0.1740 -0.7442
 4758SOL    MW418766   3.015   4.951   2.561  0.7112 -0.7236 -0.1378
 4759SOL     OW18767   2.347   0.369   4.367 -0.4699  0.2675  0.0710
 4759SOL    HW218768   2.319   0.341   4.279  3.8854  0.2837 -1.5464
 4759SOL    HW318769   2.362   0.463   4.359  1.2453  0.0433  0.3892
 4759SOL    MW418770   2.345   0.377   4.354 -0.3204  0.5831 -0.6169
 4760SOL     OW18771   1.403   0.132   3.421 -0.5223 -0.1389 -0.2369
 4760SOL    HW218772   1.406   0.160   3.513  0.8229 -0.6991 -0.0811
 4760SOL    HW318773   1.315   0.098   3.409 -1.1961  1.2944  0.4323
 4760SOL    MW418774   1.392   0.131   3.432  0.0254  0.5381  0.3098
 4761SOL     OW18775   4.613   2.500   4.026 -0.2392 -0.5583 -0.4164
 4761SOL    HW218776   4.599   2.574   3.966 -0.7122 -1.6194 -1.6647
 4761SOL    HW318777   4.668   2.439   3.977  0.4886 -0.8730  0.7455
 4761SOL    MW418778   4.618   2.502   4.012 -0.2963 -0.0564 -0.0414
 4762SOL     OW18779   2.431   1.810   0.013 -0.1163 -0.6459  0.0480
 4762SOL    HW218780   2.423   1.878   0.079 -0.4636 -0.6046 -0.0368
 4762SOL    HW318781   2.480   1.740   0.056  1.5473  0.2410 -0.3147
 4762SOL    MW418782   2.437   1.809   0.027  0.2519 -0.4204  0.0161
 4763SOL     OW18783   5.132   4.817   4.986 -0.0824 -1.1149  0.0093
 4763SOL    HW218784   5.109   4.801   4.895  0.4279  1.4924 -0.6459
 4763SOL    HW318785   5.139   4.912   4.993  1.7723 -1.3230  2.3080
 4763SOL    MW418786   5.130   4.827   4.975 -0.8177 -0.2048  0.0545
 4764SOL     OW18787   1.490   0.937   5.649 -0.6447 -0.0745  0.4097
 4764SOL    HW218788   1.446   0.925   5.733 -0.5892 -0.6382  0.3611
 4764SOL    HW318789   1.440   0.882   5.588  0.8017 -1.6679  0.5827
 4764SOL    MW418790   1.477   0.928   5.652  0.0594 -0.3090 -0.3528
 4765SOL     OW18791   0.311   6.148   3.620  0.5075 -0.1390 -0.1832
 4765SOL    HW218792   0.342   6.157   3.530 -0.4252 -1.1661 -0.6312
 4765SOL    HW318793   0.222   6.183   3.619 -0.2492 -1.9639 -0.1465
 4765SOL    MW418794   0.303   6.154   3.608  0.3769  0.4139 -0.1276
 4766SOL     OW18795   0.879   4.079   1.184 -0.4598  0.2485 -0.1069
 4766SOL    HW218796   0.822   4.154   1.199  1.4890  1.6475  0.7224
 4766SOL    HW318797   0.846   4.040   1.102 -2.6644  0.8428  0.4168
 4766SOL    MW418798   0.867   4.084   1.175 -0.1069 -0.0324 -0.6945
 4767SOL     OW18799   1.141   1.612   1.744 -0.0650 -0.2375 -0.1104
 4767SOL    HW218800   1.194   1.637   1.819 -0.4562 -0.3790  0.2222
 4767SOL    HW318801   1.149   1.685   1.683 -0.5272  0.3275  0.4880
 4767SOL    MW418802   1.149   1.625   1.746 -0.5586 -0.0295 -0.1079
 4768SOL     OW18803   5.233   5.272   1.616 -0.8408  0.3973 -0.3590
 4768SOL    HW218804   5.145   5.256   1.649 -0.2020 -0.2564  1.1033
 4768SOL    HW318805   5.280   5.311   1.689  0.2403  0.2288 -0.9379
 4768SOL    MW418806   5.228   5.275   1.630  0.3013 -0.0859 -0.0570
 4769SOL     OW18807   4.184   1.751   3.936  0.2913  0.4313 -0.3038
 4769SOL    HW218808   4.192   1.821   3.870  1.0719 -0.9112 -1.6921
 4769SOL    HW318809   4.145   1.678   3.889  0.3045 -0.3705  0.8939
 4769SOL    MW418810   4.180   1.751   3.921 -0.1785  0.1934  0.0259
 4770SOL     OW18811   3.254   3.277   3.818 -0.3395  0.2186  0.1026
 4770SOL    HW218812   3.218   3.365   3.824  1.8959  1.1892  0.1525
 4770SOL    HW318813   3.340   3.282   3.860 -0.3343 -2.1191  0.5587
 4770SOL    MW418814   3.261   3.289   3.824  0.1516 -0.0951  0.5400
 4771SOL     OW18815   5.043   0.906   1.441 -0.3745 -0.4513 -0.0994
 4771SOL    HW218816   4.958   0.885   1.405 -0.1058  0.8684 -1.5827
 4771SOL    HW318817   5.038   0.998   1.464  0.2545 -0.6732  1.0224
 4771SOL    MW418818   5.031   0.915   1.440  0.0875  0.5306  0.4014
 4772SOL     OW18819   5.616   5.467   4.109  0.3509 -0.6304  0.7621
 4772SOL    HW218820   5.564   5.547   4.098 -0.0474 -0.8957  0.7196
 4772SOL    HW318821   5.644   5.444   4.020 -0.4470 -1.1454  0.6327
 4772SOL    MW418822   5.613   5.475   4.096  0.4512  0.1961 -0.5270
 4773SOL     OW18823   3.203   2.030   4.496 -0.3134 -0.4541  0.6830
 4773SOL    HW218824   3.149   2.078   4.558 -1.8803 -2.3611  0.8992
 4773SOL    HW318825   3.147   1.958   4.466 -0.0103  0.8165 -3.6270
 4773SOL    MW418826   3.188   2.027   4.500 -0.6871  0.1664  0.0652
 4774SOL     OW18827   2.574   6.109   0.375  0.0834  0.1029 -0.2904
 4774SOL    HW218828   2.530   6.093   0.458  0.4931  0.5913  0.0296
 4774SOL    HW318829   2.627   6.030   0.360 -0.0556 -0.0206 -0.1272
 4774SOL    MW418830   2.575   6.096   0.384  0.6018 -0.1780 -0.0720
 4775SOL     OW18831   1.296   1.313   3.203  0.0625 -0.5140  0.3151
 4775SOL    HW218832   1.349   1.392   3.206 -0.0222 -0.4217 -0.5387
 4775SOL    HW318833   1.267   1.301   3.294  0.1040  0.4049  0.4594
 4775SOL    MW418834   1.299   1.322   3.216  0.8143 -0.4787 -0.6746
 4776SOL     OW18835   5.428   4.971   1.404  0.4269  0.6278  0.1941
 4776SOL    HW218836   5.422   4.878   1.429  0.4704  0.7122  0.5295
 4776SOL    HW318837   5.353   4.985   1.346  0.4441  0.3724  0.1084
 4776SOL    MW418838   5.417   4.960   1.400  0.4715  0.1398  0.2656
 4777SOL     OW18839   0.075   1.167   2.969 -0.2427  0.0681  0.2360
 4777SOL    HW218840   0.070   1.138   3.060  0.6131  0.6120  0.4625
 4777SOL    HW318841   0.166   1.152   2.943 -0.1084  1.3101 -0.0568
 4777SOL    MW418842   0.086   1.161   2.977  0.3284 -0.2014  0.8997
 4778SOL     OW18843   3.295   0.185   2.412 -0.0331 -0.1914 -0.5588
 4778SOL    HW218844   3.226   0.155   2.352  1.4829 -1.7200 -1.6362
 4778SOL    HW318845   3.364   0.217   2.354  1.0142 -0.6741  0.4022
 4778SOL    MW418846   3.295   0.185   2.396 -0.4836  0.6935  0.7645
 4779SOL     OW18847   2.396   1.539   5.285  0.1920 -0.4516 -0.4084
 4779SOL    HW218848   2.388   1.524   5.380 -0.0617 -1.6938 -0.6093
 4779SOL    HW318849   2.308   1.522   5.251  0.0420  0.9159 -0.7735
 4779SOL    MW418850   2.383   1.535   5.293 -0.3121  0.3227 -0.1899
 4780SOL     OW18851   2.813   2.372   4.087  0.1235 -0.6412  0.4584
 4780SOL    HW218852   2.868   2.342   4.014 -0.2079  0.4636 -0.2622
 4780SOL    HW318853   2.876   2.393   4.156  0.5503 -0.2128 -0.0540
 4780SOL    MW418854   2.829   2.371   4.087  0.2714  0.2453  0.3818
 4781SOL     OW18855   1.891   1.730   5.635  0.5602 -0.4405 -0.1698
 4781SOL    HW218856   1.883   1.645   5.591 -0.1912 -0.3250 -0.2670
 4781SOL    HW318857   1.971   1.768   5.600 -0.2439 -0.1678 -1.7639
 4781SOL    MW418858   1.901   1.723   5.625 -0.5236  0.0599  0.4806
 4782SOL     OW18859   1.991   0.962   0.209  0.1013  0.4908  0.5669
 4782SOL    HW218860   1.955   1.002   0.130  0.2318  1.5306  1.0236
 4782SOL    HW318861   2.058   0.902   0.176 -1.3738 -0.7962 -0.2419
 4782SOL    MW418862   1.995   0.959   0.194  0.1689  0.1172 -0.0686
 4783SOL     OW18863   2.394   3.203   4.466 -0.0427 -0.0704  0.2935
 4783SOL    HW218864   2.385   3.113   4.499 -1.3952  0.1014  0.4738
 4783SOL    HW318865   2.384   3.195   4.372 -1.9690  0.0526  0.4479
 4783SOL    MW418866   2.391   3.190   4.458 -0.0221 -0.1049  0.0667
 4784SOL     OW18867   4.976   0.183   6.394 -0.4415  0.1727 -0.8911
 4784SOL    HW218868   5.033   0.158   6.321  0.3196  1.7172 -0.8547
 4784SOL    HW318869   5.006   0.270   6.420 -1.4313  0.1238  0.5433
 4784SOL    MW418870   4.988   0.191   6.388 -0.1040 -0.1885 -0.3926
 4785SOL     OW18871   0.890   5.552   4.771  0.3694  0.3609  0.3623
 4785SOL    HW218872   0.865   5.616   4.838 -1.9147 -0.2032  0.1560
 4785SOL    HW318873   0.920   5.476   4.820 -0.6984  0.1781  0.7719
 4785SOL    MW418874   0.891   5.551   4.786  0.4449  0.0653 -0.1548
 4786SOL     OW18875   0.560   0.191   1.924 -0.0719  0.6049 -0.2080
 4786SOL    HW218876   0.589   0.101   1.932  3.1814  1.4945 -0.6070
 4786SOL    HW318877   0.599   0.236   2.000  0.7568  2.1786 -1.5066
 4786SOL    MW418878   0.569   0.185   1.935  0.4218  0.1028 -0.0813
 4787SOL     OW18879   5.981   6.105   0.513  0.5064 -0.5164  0.0991
 4787SOL    HW218880   5.921   6.039   0.478 -2.4137  2.0001 -0.0522
 4787SOL    HW318881   5.983   6.174   0.447  1.2112  0.7969  1.4373
 4787SOL    MW418882   5.973   6.106   0.500  0.6770  0.1436  0.2759
 4788SOL     OW18883   1.797   4.493   0.021 -0.5702  0.5856  0.0741
 4788SOL    HW218884   1.807   4.513   0.114  1.5613 -1.2261  0.3223
 4788SOL    HW318885   1.885   4.502  -0.015 -0.1358 -3.8999 -0.5363
 4788SOL    MW418886   1.810   4.497   0.029 -0.3062  0.2083 -0.3033
 4789SOL     OW18887   5.049   6.301   1.804  0.0394  0.1426  0.2890
 4789SOL    HW218888   5.029   6.250   1.882 -0.7785 -0.1430 -0.0971
 4789SOL    HW318889   4.971   6.356   1.791  0.5848  0.9197  0.2491
 4789SOL    MW418890   5.036   6.302   1.813  0.2478 -0.2120 -0.3289
 4790SOL     OW18891   3.071   2.586   2.318 -1.1185 -0.1899  0.1282
 4790SOL    HW218892   3.079   2.668   2.367  0.5837 -1.1235  1.5042
 4790SOL    HW318893   2.978   2.564   2.325 -1.2397  0.5937  1.4657
 4790SOL    MW418894   3.060   2.594   2.325  0.0905 -0.5419 -0.1009
 4791SOL     OW18895   3.431   1.926   4.626 -0.4420 -0.2538  0.1625
 4791SOL    HW218896   3.348   1.954   4.587  0.2701 -0.2550 -1.4158
 4791SOL    HW318897   3.479   1.886   4.554  0.6076 -1.0241  1.2444
 4791SOL    MW418898   3.426   1.924   4.612 -0.3131 -0.9864 -0.3068
 4792SOL     OW18899   4.858   5.807   2.602 -0.0273 -0.1128  0.0309
 4792SOL    HW218900   4.911   5.779   2.677 -0.3866  0.6022  0.5690
 4792SOL    HW318901   4.789   5.741   2.595  0.3837 -0.5407 -0.0955
 4792SOL    MW418902   4.856   5.794   2.611  0.5656 -0.5285 -0.2172
 4793SOL     OW18903   2.271   5.002   5.318 -0.0973  0.1701 -0.3759
 4793SOL    HW218904   2.220   5.049   5.384 -3.1290 -2.6483 -0.4845
 4793SOL    HW318905   2.207   4.975   5.253  2.1265 -0.8462 -2.2840
 4793SOL    MW418906   2.256   5.005   5.318 -0.0192 -0.5740 -0.2762
 4794SOL     OW18907   2.319   2.887   4.129 -0.2537  0.5533  0.3589
 4794SOL    HW218908   2.227   2.864   4.137  0.0833 -1.5673 -1.2163
 4794SOL    HW318909   2.367   2.808   4.155  1.0150  0.2079 -2.6496
 4794SOL    MW418910   2.314   2.874   4.134 -0.1465 -0.0207 -0.6264
 4795SOL     OW18911   1.813   2.713   3.189 -0.0268 -0.0401  0.0551
 4795SOL    HW218912   1.906   2.718   3.164 -0.0135 -1.8471 -0.3818
 4795SOL    HW318913   1.814   2.725   3.284  0.3761  2.3284 -0.1772
 4795SOL    MW418914   1.826   2.715   3.198  0.4792  0.2611  0.4209
 4796SOL     OW18915   0.770   2.764   3.791  0.2348  0.1219  0.0954
 4796SOL    HW218916   0.827   2.745   3.865 -0.3572 -1.0727  0.2824
 4796SOL    HW318917   0.817   2.730   3.715  0.4099  0.4492  0.0591
 4796SOL    MW418918   0.784   2.757   3.790 -0.4551 -0.5174 -0.2810
 4797SOL     OW18919   5.414   0.200   3.475 -0.6142 -1.0181 -0.2310
 4797SOL    HW218920   5.323   0.212   3.446 -1.2635  0.3085  2.0499
 4797SOL    HW318921   5.422   0.106   3.488 -1.4627 -1.2221 -1.0564
 4797SOL    MW418922   5.403   0.189   3.473  0.3960 -0.0523  0.2532
 4798SOL     OW18923   0.475   4.087   0.701 -0.1989  0.4280 -0.0946
 4798SOL    HW218924   0.487   4.126   0.615 -0.9190  1.7929  0.3855
 4798SOL    HW318925   0.430   4.004   0.685 -0.5191  0.7747 -1.0081
 4798SOL    MW418926   0.471   4.081   0.688  0.5261  0.0323 -0.0854
 4799SOL     OW18927   6.317   0.381   4.261  0.4572 -0.4273 -0.2508
 4799SOL    HW218928   6.405   0.357   4.232  1.1714 -0.2692  1.6430
 4799SOL    HW318929   6.289   0.308   4.317 -0.3846 -0.2083 -0.3692
 4799SOL    MW418930   6.325   0.368   4.264  0.5093 -0.4673 -0.2253
 4800SOL     OW18931   4.001   3.825   4.583 -0.2813 -0.2112  0.6144
 4800SOL    HW218932   3.943   3.775   4.525 -0.3109 -1.5026  1.6954
 4800SOL    HW318933   4.066   3.761   4.612  0.8213  0.8576  0.5876
 4800SOL    MW418934   4.002   3.810   4.579  0.1575  0.5783  0.1195
 4801SOL     OW18935   0.633   5.837   5.984 -0.0616  0.2224  0.4797
 4801SOL    HW218936   0.588   5.795   6.058 -0.3566  0.9201  0.7129
 4801SOL    HW318937   0.599   5.927   5.984  0.7170  0.5279  0.1377
 4801SOL    MW418938   0.622   5.843   5.994  0.8340  0.1127  0.1224
 4802SOL     OW18939   3.668   4.166   0.992  0.6510  0.4573 -0.0846
 4802SOL    HW218940   3.622   4.173   1.075 -0.4017 -1.2617 -0.4674
 4802SOL    HW318941   3.757   4.141   1.015  0.5288  0.5991  0.5409
 4802SOL    MW418942   3.674   4.164   1.006  0.2513 -0.1463  0.5463
 4803SOL     OW18943   3.184   3.509   2.341  0.6497  0.1760  0.6432
 4803SOL    HW218944   3.163   3.524   2.249 -1.0697 -1.0739  0.7754
 4803SOL    HW318945   3.230   3.588   2.369 -0.4973  1.3963 -0.7916
 4803SOL    MW418946   3.187   3.521   2.333  0.5362  0.0655 -0.0624
 4804SOL     OW18947   4.805   2.112   0.131 -0.2078  0.1452  0.2188
 4804SOL    HW218948   4.813   2.087   0.040  0.4076  0.6008  0.1363
 4804SOL    HW318949   4.743   2.185   0.131 -2.3391 -1.5659  0.5112
 4804SOL    MW418950   4.798   2.118   0.119 -0.2579 -0.2172  0.0924
 4805SOL     OW18951   5.427   1.241   3.660 -0.3966 -0.5082  0.8147
 4805SOL    HW218952   5.512   1.227   3.616 -1.8736 -3.2007 -1.5488
 4805SOL    HW318953   5.408   1.156   3.701 -1.9955  0.0175  1.2087
 4805SOL    MW418954   5.436   1.228   3.659 -0.7104  0.1547 -0.0442
 4806SOL     OW18955   2.770   4.050   3.715  0.0686  0.0901  0.0183
 4806SOL    HW218956   2.763   4.099   3.633 -0.6718  1.2673  0.7494
 4806SOL    HW318957   2.843   4.090   3.761 -1.0949  1.1511  1.0072
 4806SOL    MW418958   2.778   4.062   3.710 -0.4912  0.6365 -0.0387
 4807SOL     OW18959   3.455   4.256   2.785 -0.6962 -0.3672 -0.7782
 4807SOL    HW218960   3.415   4.276   2.700 -1.0446 -0.6188 -0.6721
 4807SOL    HW318961   3.382   4.236   2.843 -0.4757 -0.0019 -0.3612
 4807SOL    MW418962   3.440   4.256   2.782  0.2426  0.1031 -0.1082
 4808SOL     OW18963   5.232   4.310   6.083  0.3274  0.0617  0.7465
 4808SOL    HW218964   5.209   4.287   5.993  1.3661 -0.2973  0.5584
 4808SOL    HW318965   5.167   4.375   6.109 -1.2930 -1.4149  0.4949
 4808SOL    MW418966   5.221   4.316   6.074  0.2295 -0.1407  0.0388
 4809SOL     OW18967   5.601   6.015   5.498 -0.3750  0.3443 -0.0364
 4809SOL    HW218968   5.546   6.075   5.449 -1.0449 -1.0733 -1.1103
 4809SOL    HW318969   5.638   5.956   5.431  1.6664  0.6345  0.7606
 4809SOL    MW418970   5.599   6.015   5.483  0.5219  0.1810  0.9002
 4810SOL     OW18971   3.825   5.332   1.655 -0.0147  0.2206 -0.3650
 4810SOL    HW218972   3.815   5.238   1.668  0.6565 -0.0412 -1.5184
 4810SOL    HW318973   3.757   5.372   1.710  1.3820 -0.7750  2.2258
 4810SOL    MW418974   3.815   5.325   1.664 -0.0757  0.3441 -0.2582
 4811SOL     OW18975   3.847   1.694   1.402  0.0140 -0.2052  0.0976
 4811SOL    HW218976   3.901   1.741   1.339  1.2434  1.3216  2.2062
 4811SOL    HW318977   3.802   1.762   1.452 -1.3541 -1.3839  0.5584
 4811SOL    MW418978   3.848   1.709   1.400 -0.6406 -0.0612  0.1834
 4812SOL     OW18979   4.331   4.984   2.764  0.1536  0.2811 -0.0235
 4812SOL    HW218980   4.309   5.001   2.856 -0.6745 -2.3280  0.3399
 4812SOL    HW318981   4.424   4.961   2.766 -0.0065 -0.3588  0.2674
 4812SOL    MW418982   4.341   4.983   2.777  0.0045  0.0699 -0.2933
 4813SOL     OW18983   4.338   4.521   5.016 -0.0654 -0.1967  0.0993
 4813SOL    HW218984   4.299   4.538   5.102 -0.4635 -1.2910  0.1470
 4813SOL    HW318985   4.418   4.472   5.035  0.4709  0.5988 -0.0927
 4813SOL    MW418986   4.344   4.517   5.030 -0.2722 -0.3758  0.1540
 4814SOL     OW18987   6.307   3.022   1.177  0.7236 -0.1594  0.2667
 4814SOL    HW218988   6.309   3.058   1.089 -2.0332 -1.0768 -0.2605
 4814SOL    HW318989   6.357   3.085   1.230  0.1551  1.8371 -1.4458
 4814SOL    MW418990   6.314   3.035   1.173 -0.1044 -0.5418  0.6978
 4815SOL     OW18991   4.446   3.953   0.753  0.4091 -0.6562  0.2802
 4815SOL    HW218992   4.397   3.887   0.802 -1.4839  0.4487 -0.0334
 4815SOL    HW318993   4.487   3.904   0.681  0.7652 -1.7970  1.2164
 4815SOL    MW418994   4.445   3.938   0.750  0.0781 -0.2104  0.2139
 4816SOL     OW18995   2.537   3.843   3.449  0.0383  0.4369 -0.1580
 4816SOL    HW218996   2.442   3.850   3.456 -0.0446  1.2056 -1.5088
 4816SOL    HW318997   2.553   3.754   3.419 -0.3370  0.5859 -0.8187
 4816SOL    MW418998   2.527   3.832   3.446 -0.8310 -0.0879 -0.0048
 4817SOL     OW18999   1.931   2.684   0.164 -0.4736  0.7331  0.3277
 4817SOL    HW219000   1.844   2.664   0.198 -1.2312  0.3422 -1.7430
 4817SOL    HW319001   1.922   2.768   0.120 -0.4386 -0.3823 -1.9309
 4817SOL    MW419002   1.918   2.693   0.163 -0.2788  0.5119  0.1395
 4818SOL     OW19003   2.477   4.955   5.122  0.1959 -0.0986  0.0905
 4818SOL    HW219004   2.448   5.007   5.196  0.6553  2.7989 -1.6264
 4818SOL    HW319005   2.569   4.979   5.110 -0.6271  2.0204 -3.2316
 4818SOL    MW419006   2.485   4.965   5.130 -0.1298  0.6382  0.6566
 4819SOL     OW19007   1.248   0.740   0.019 -0.0818 -0.3644  0.1105
 4819SOL    HW219008   1.196   0.716   0.096 -0.6305  1.6566  0.4288
 4819SOL    HW319009   1.198   0.809  -0.024  1.4383  0.3358 -0.6320
 4819SOL    MW419010   1.235   0.745   0.023  0.1610  0.0398 -0.0700
 4820SOL     OW19011   5.234   4.861   5.773  0.2381 -0.4014  0.5915
 4820SOL    HW219012   5.150   4.824   5.798  0.4504 -0.3064  1.4597
 4820SOL    HW319013   5.295   4.788   5.777  1.4462  0.5461  5.9398
 4820SOL    MW419014   5.231   4.847   5.777 -0.3985 -0.2789  0.4233
 4821SOL     OW19015   4.362   1.396   3.329  0.7273  0.4217  0.4795
 4821SOL    HW219016   4.315   1.479   3.339 -0.8961 -0.5802  1.4921
 4821SOL    HW319017   4.450   1.422   3.300  0.5321  2.5448  1.5904
 4821SOL    MW419018   4.368   1.411   3.326  0.4308 -0.1784  0.2372
 4822SOL     OW19019   1.317   0.582   1.870 -0.1189 -0.6978  0.0200
 4822SOL    HW219020   1.261   0.573   1.947 -0.2956  1.6579  0.2490
 4822SOL    HW319021   1.277   0.653   1.820  2.0245  0.3391 -0.3379
 4822SOL    MW419022   1.304   0.590   1.874  0.2318 -0.0100 -0.0334
 4823SOL     OW19023   5.875   2.432   4.061 -0.3694 -0.1425 -0.3485
 4823SOL    HW219024   5.911   2.515   4.093  0.9306 -0.6725 -0.4062
 4823SOL    HW319025   5.846   2.451   3.972 -0.9604  0.4899 -0.0297
 4823SOL    MW419026   5.876   2.446   4.054 -0.3500  0.4605 -0.3700
 4824SOL     OW19027   6.166   4.455   4.034 -0.1098 -0.1331  0.0860
 4824SOL    HW219028   6.133   4.419   3.952  1.1938 -0.3112 -0.3723
 4824SOL    HW319029   6.205   4.381   4.079  2.2558  0.5583 -0.6933
 4824SOL    MW419030   6.167   4.441   4.029 -0.2496 -0.5501  0.3547
 4825SOL     OW19031   0.259   5.780   3.788  0.3675 -0.1939  0.0012
 4825SOL    HW219032   0.213   5.858   3.818 -0.0921  0.7123 -2.7859
 4825SOL    HW319033   0.352   5.806   3.787  0.2161  0.3713 -0.9202
 4825SOL    MW419034   0.265   5.793   3.792 -0.0919  0.1218 -0.6406
 4826SOL     OW19035   5.001   0.114   2.171 -0.9950 -1.0399  0.0502
 4826SOL    HW219036   4.966   0.025   2.171 -0.1856 -1.3715 -0.1462
 4826SOL    HW319037   5.073   0.111   2.234 -0.1737 -0.8679 -0.8376
 4826SOL    MW419038   5.006   0.102   2.179 -0.3802 -0.8182 -0.0746
 4827SOL     OW19039   5.490   3.810   4.709  0.4810 -0.0748  0.0166
 4827SOL    HW219040   5.401   3.817   4.675  0.4720  0.1959  0.0957
 4827SOL    HW319041   5.534   3.889   4.678 -0.0000  1.0384  2.0235
 4827SOL    MW419042   5.484   3.822   4.700  0.1111 -0.4597 -0.1192
 4828SOL     OW19043   4.150   5.203   1.706 -0.3159 -0.1626  0.3230
 4828SOL    HW219044   4.231   5.162   1.675  0.7132  0.3660  2.1786
 4828SOL    HW319045   4.116   5.249   1.629  0.1234 -1.9200 -0.9777
 4828SOL    MW419046   4.156   5.204   1.692  0.0656  0.4737  0.1946
 4829SOL     OW19047   2.868   4.460   2.938  0.2148  0.2716 -0.7968
 4829SOL    HW219048   2.924   4.388   2.907  0.0826  0.8138 -2.3345
 4829SOL    HW319049   2.781   4.440   2.903 -0.7514 -0.7761  1.8936
 4829SOL    MW419050   2.864   4.448   2.929  0.0167 -0.6947  0.2428
 4830SOL     OW19051   0.021   5.104   2.106 -0.4022 -0.9540  0.3031
 4830SOL    HW219052   0.116   5.101   2.095 -0.3289 -0.1402  0.6141
 4830SOL    HW319053  -0.013   5.114   2.017 -0.1871 -1.0926  0.2043
 4830SOL    MW419054   0.029   5.105   2.093 -0.4785  0.0141 -0.1329
 4831SOL     OW19055   0.859   0.301   5.302 -0.5850 -0.5796 -0.6410
 4831SOL    HW219056   0.781   0.283   5.355 -0.7328  0.2873 -0.5444
 4831SOL    HW319057   0.928   0.320   5.366 -0.5224 -0.4620 -0.7428
 4831SOL    MW419058   0.858   0.302   5.318  0.5427 -0.2160  0.4804
 4832SOL     OW19059   3.530   4.550   5.153  0.5717  0.2416  0.1501
 4832SOL    HW219060   3.509   4.566   5.245  1.8301  1.2234  0.3005
 4832SOL    HW319061   3.618   4.512   5.155  0.4762 -0.0332 -0.6336
 4832SOL    MW419062   3.539   4.547   5.166 -0.3287 -0.0973  0.3234
 4833SOL     OW19063   4.584   5.493   1.363 -0.2561  0.1302  0.0388
 4833SOL    HW219064   4.499   5.522   1.396  0.0195  2.8406 -1.3230
 4833SOL    HW319065   4.564   5.415   1.312 -1.4740 -0.8498  1.8856
 4833SOL    MW419066   4.570   5.486   1.361 -0.2069  0.4242  0.5584
 4834SOL     OW19067   0.024   3.887   0.513 -0.0569  0.3583 -0.2132
 4834SOL    HW219068   0.006   3.884   0.607  2.4828 -1.6236  0.3046
 4834SOL    HW319069  -0.016   3.807   0.478  1.1816 -0.2303 -0.3307
 4834SOL    MW419070   0.016   3.876   0.521  0.0657  0.1957  0.4567
 4835SOL     OW19071   6.010   4.817   5.031 -0.1225 -0.2179 -0.6261
 4835SOL    HW219072   6.044   4.787   5.116 -1.7919  2.0579  0.9751
 4835SOL    HW319073   6.068   4.889   5.006 -0.1013 -0.3733 -1.0326
 4835SOL    MW419074   6.023   4.822   5.039 -0.4365 -0.5548  0.0236
 4836SOL     OW19075   4.597   0.848   5.387  0.1206  0.0014  0.0354
 4836SOL    HW219076   4.646   0.769   5.362 -0.0999 -0.3761  0.7541
 4836SOL    HW319077   4.661   0.902   5.432  0.1818  0.0745 -0.1370
 4836SOL    MW419078   4.612   0.844   5.390 -0.2110  0.2915 -0.1414
 4837SOL     OW19079   2.200   0.290   4.129  0.0781  0.3399  0.3369
 4837SOL    HW219080   2.116   0.335   4.113  0.2424  0.0375 -1.5313
 4837SOL    HW319081   2.174   0.203   4.160 -0.2408  1.3236  3.1588
 4837SOL    MW419082   2.185   0.285   4.131 -0.2759 -0.6882 -0.0255
 4838SOL     OW19083   5.597   0.819   6.370  0.2229 -0.4779 -0.3007
 4838SOL    HW219084   5.504   0.799   6.372 -0.2775  1.4620 -1.6022
 4838SOL    HW319085   5.609   0.871   6.291  2.5867 -1.3712 -0.6194
 4838SOL    MW419086   5.586   0.823   6.360  0.1219 -0.5782 -0.1300
 4839SOL     OW19087   4.030   0.721   1.592  0.0459  0.6503  0.1793
 4839SOL    HW219088   4.054   0.683   1.508  1.0600  1.1792  0.2136
 4839SOL    HW319089   3.943   0.686   1.610  1.0958 -2.0872  0.4641
 4839SOL    MW419090   4.022   0.711   1.583 -0.0374 -0.0153  0.0103
 4840SOL     OW19091   5.887   4.469   5.538  0.2318  0.2945  0.5640
 4840SOL    HW219092   5.969   4.442   5.497 -0.0837 -0.7232  0.5755
 4840SOL    HW319093   5.910   4.544   5.592  1.3872 -0.7077  1.4931
 4840SOL    MW419094   5.901   4.475   5.539  0.2775  0.7059 -0.7076
 4841SOL     OW19095   0.166   4.829   1.495 -0.1105 -0.1189 -0.7089
 4841SOL    HW219096   0.225   4.904   1.501 -1.4063  0.8193  1.5298
 4841SOL    HW319097   0.220   4.754   1.525  0.4128  0.4226 -0.2640
 4841SOL    MW419098   0.181   4.829   1.500 -0.2264  0.8464 -0.7530
 4842SOL     OW19099   3.111   1.231   1.652  0.0872  0.7389 -0.0445
 4842SOL    HW219100   3.169   1.259   1.581  0.0715 -1.4367 -0.9832
 4842SOL    HW319101   3.023   1.253   1.621  0.0797 -0.2229 -0.7203
 4842SOL    MW419102   3.107   1.238   1.639  0.7908 -0.1506 -0.1775
 4843SOL     OW19103   3.478   0.883   0.169  0.4835 -0.3206  0.3497
 4843SOL    HW219104   3.465   0.867   0.075 -0.9889  0.3298  0.4110
 4843SOL    HW319105   3.507   0.799   0.204  0.5792 -0.6974 -0.6060
 4843SOL    MW419106   3.480   0.870   0.161 -0.0259  0.1309  0.3187
 4844SOL     OW19107   0.860   3.308   2.776 -0.0518  0.0544 -0.4773
 4844SOL    HW219108   0.821   3.284   2.691 -0.0046  0.9090 -0.7487
 4844SOL    HW319109   0.809   3.384   2.805  0.9167  0.7217 -0.4747
 4844SOL    MW419110   0.848   3.315   2.768  0.3238 -0.5617 -0.2868
 4845SOL     OW19111   4.495   2.077   1.460  0.1233  0.4110  0.2610
 4845SOL    HW219112   4.574   2.105   1.506 -0.6142  0.4040  1.5876
 4845SOL    HW319113   4.526   2.045   1.376  1.5475  0.2823  0.8083
 4845SOL    MW419114   4.510   2.077   1.455  0.0517 -0.4973 -0.3492
 4846SOL     OW19115   4.516   3.075   6.353  0.1660  0.2866  0.3870
 4846SOL    HW219116   4.460   3.137   6.307 -0.5273 -0.0315  0.7808
 4846SOL    HW319117   4.546   3.122   6.431  0.2674  0.3861  0.2871
 4846SOL    MW419118   4.512   3.089   6.357 -0.1161  0.2710 -0.5977
 4847SOL     OW19119   2.677   2.913   2.489  0.2731 -0.2194 -0.9027
 4847SOL    HW219120   2.692   2.909   2.395 -0.6943  2.1076 -1.2268
 4847SOL    HW319121   2.764   2.917   2.527  0.6879  0.9900 -1.8944
 4847SOL    MW419122   2.690   2.913   2.482  0.0493 -0.0462  0.2321
 4848SOL     OW19123   0.701   0.980   1.880  0.2586 -0.1403  0.2087
 4848SOL    HW219124   0.778   0.928   1.854  0.9099  0.8475  0.1119
 4848SOL    HW319125   0.681   0.949   1.968  1.0839 -0.0631  0.4351
 4848SOL    MW419126   0.709   0.969   1.888  0.5287  0.0741  0.3714
 4849SOL     OW19127   0.533   5.908   4.458  0.0005  0.4574  1.1043
 4849SOL    HW219128   0.533   5.833   4.518  0.2483  0.2015  0.7937
 4849SOL    HW319129   0.559   5.982   4.512  0.7310  0.1360  1.2060
 4849SOL    MW419130   0.537   5.908   4.473  0.5371 -0.1590 -0.6838
 4850SOL     OW19131   0.387   2.199   0.697  0.2102 -0.2306 -0.2358
 4850SOL    HW219132   0.411   2.138   0.628  1.9765 -0.3173  0.4099
 4850SOL    HW319133   0.292   2.211   0.687 -0.7536 -4.8450  0.9843
 4850SOL    MW419134   0.377   2.193   0.687  0.1852  0.0547 -0.2277
 4851SOL     OW19135   3.885   3.731   3.653  0.0678 -0.2355 -0.1054
 4851SOL    HW219136   3.965   3.685   3.627  0.2798 -1.8346  2.9052
 4851SOL    HW319137   3.824   3.660   3.677 -1.3743  1.0102  0.0740
 4851SOL    MW419138   3.887   3.715   3.653 -0.2877  0.2965  0.1517
 4852SOL     OW19139   4.515   0.426   0.874  0.2471  0.2462 -0.7518
 4852SOL    HW219140   4.489   0.336   0.851 -0.4454  0.4323 -0.7184
 4852SOL    HW319141   4.432   0.473   0.881  0.2372 -0.0107  3.1830
 4852SOL    MW419142   4.501   0.420   0.872  0.0237 -0.1161  0.0589
 4853SOL     OW19143   2.744   1.059   5.358 -0.2416  0.4378 -0.3258
 4853SOL    HW219144   2.662   1.108   5.360  0.1357  1.0713 -0.1699
 4853SOL    HW319145   2.812   1.126   5.353  0.2284 -0.1067 -1.9155
 4853SOL    MW419146   2.742   1.074   5.358  0.2638 -0.1097 -0.1199
 4854SOL     OW19147   5.590   4.537   0.635  0.0969  0.1225  0.5326
 4854SOL    HW219148   5.590   4.463   0.575  0.8176  0.5483 -0.0073
 4854SOL    HW319149   5.571   4.498   0.721 -0.6085 -0.5322  0.0973
 4854SOL    MW419150   5.588   4.522   0.639  0.3083 -0.5136  0.1967
 4855SOL     OW19151   5.160   3.562   4.948 -0.1069  0.0912  0.6624
 4855SOL    HW219152   5.222   3.491   4.930 -0.0719 -0.1220  1.5896
 4855SOL    HW319153   5.091   3.550   4.882  2.0884  1.9647 -2.2418
 4855SOL    MW419154   5.159   3.551   4.937  0.2616  0.2214  0.1090
 4856SOL     OW19155   3.024   2.471   3.224 -0.4201 -0.0684 -0.0852
 4856SOL    HW219156   3.034   2.377   3.208 -1.0642  0.1820 -2.1173
 4856SOL    HW319157   3.069   2.485   3.308  2.0283 -1.7253 -0.9873
 4856SOL    MW419158   3.031   2.460   3.233 -0.1015 -0.0217  0.0484
 4857SOL     OW19159   2.984   3.668   4.861 -0.2144 -0.2213 -0.3411
 4857SOL    HW219160   2.959   3.733   4.796 -0.5517 -0.8753 -0.8865
 4857SOL    HW319161   3.080   3.667   4.859 -0.2016  0.4051 -0.1674
 4857SOL    MW419162   2.993   3.676   4.852  0.1321  0.0213 -0.4693
 4858SOL     OW19163   5.454   0.425   4.591  0.2964 -0.2741 -0.1285
 4858SOL    HW219164   5.438   0.376   4.510  1.2214 -0.6874 -0.0711
 4858SOL    HW319165   5.494   0.507   4.562 -0.3070  0.0190 -0.1516
 4858SOL    MW419166   5.457   0.430   4.576 -0.1970 -0.5721  0.3011
 4859SOL     OW19167   6.368   6.263   6.391 -0.3301 -0.1783 -0.0594
 4859SOL    HW219168   6.290   6.318   6.385 -1.4914 -1.9223 -1.8448
 4859SOL    HW319169   6.423   6.291   6.318  0.6034  0.7359  0.9315
 4859SOL    MW419170   6.365   6.274   6.381  0.3308  0.0951  0.1485
 4860SOL     OW19171   2.742   5.316   3.614  0.0889  0.6037  1.1036
 4860SOL    HW219172   2.725   5.377   3.685 -0.9661 -0.4812  1.8130
 4860SOL    HW319173   2.665   5.324   3.557  0.2956  0.4691  0.8047
 4860SOL    MW419174   2.729   5.325   3.616 -0.4847 -0.3270 -0.8973
 4861SOL     OW19175   0.752   3.203   4.470  0.3118 -0.7604  0.2669
 4861SOL    HW219176   0.752   3.158   4.386 -2.1440 -0.8333  0.2097
 4861SOL    HW319177   0.821   3.268   4.464  0.7637 -1.3663 -1.4617
 4861SOL    MW419178   0.761   3.206   4.458 -0.2907  0.5621 -0.8134
 4862SOL     OW19179   0.634   5.328   2.593  0.2146  0.4032  0.2792
 4862SOL    HW219180   0.584   5.367   2.520  0.2538  0.4339  0.2684
 4862SOL    HW319181   0.721   5.367   2.585 -0.3066  1.9044  1.4964
 4862SOL    MW419182   0.639   5.338   2.582 -0.2868  0.1134 -0.1468
 4863SOL     OW19183   5.007   5.686   2.807 -0.0553  0.0594 -0.0467
 4863SOL    HW219184   4.987   5.740   2.884 -1.1755  0.6042 -0.6940
 4863SOL    HW319185   4.973   5.599   2.829  0.1674  0.0562  0.3003
 4863SOL    MW419186   5.000   5.682   2.820 -0.0738  0.6869 -0.0145
 4864SOL     OW19187   3.654   3.458   0.953 -0.3288 -0.1210  0.0838
 4864SOL    HW219188   3.731   3.507   0.925  0.2622 -0.6634  0.7511
 4864SOL    HW319189   3.664   3.448   1.047 -0.5820 -1.2917  0.0034
 4864SOL    MW419190   3.665   3.463   0.962  0.3713  0.3549 -0.0506
 4865SOL     OW19191   4.680   4.176   1.709 -0.2810  0.4235 -0.2056
 4865SOL    HW219192   4.589   4.150   1.697  0.0261 -0.7418 -0.1376
 4865SOL    HW319193   4.717   4.174   1.621 -0.2193  0.5041 -0.1816
 4865SOL    MW419194   4.673   4.173   1.696 -0.0808  0.9176 -0.0306
 4866SOL     OW19195   2.770   0.166   4.504 -0.2186  0.1096 -0.1064
 4866SOL    HW219196   2.810   0.100   4.447 -1.0097 -1.3335  0.9382
 4866SOL    HW319197   2.684   0.182   4.465 -0.5192 -0.4245  0.3236
 4866SOL    MW419198   2.764   0.159   4.491 -0.1347 -0.0482  0.1962
 4867SOL     OW19199   1.229   2.109   2.383  0.4855 -1.0584  0.0820
 4867SOL    HW219200   1.313   2.156   2.384  0.2547 -0.4047 -2.6626
 4867SOL    HW319201   1.164   2.177   2.363 -0.1925 -2.1181 -1.4498
 4867SOL    MW419202   1.232   2.125   2.381  0.5649 -0.0759 -0.0100
 4868SOL     OW19203   3.848   5.148   5.610  0.3484 -0.4687  0.1059
 4868SOL    HW219204   3.782   5.186   5.668  0.1324  2.2604 -1.7327
 4868SOL    HW319205   3.931   5.160   5.657  0.3519  2.8974 -0.4702
 4868SOL    MW419206   3.851   5.155   5.624  0.0703 -0.0015  0.0674
 4869SOL     OW19207   6.331   5.723   1.010  0.2318 -0.4921 -0.5760
 4869SOL    HW219208   6.381   5.717   0.929  0.6779 -0.3367 -0.3173
 4869SOL    HW319209   6.372   5.795   1.058 -0.8619  0.3042 -0.7870
 4869SOL    MW419210   6.343   5.732   1.006  0.3523 -0.6363  0.0224
 4870SOL     OW19211   2.575   5.362   3.388 -0.0726 -0.4159 -0.2345
 4870SOL    HW219212   2.490   5.391   3.421  0.3453 -0.8965  1.3826
 4870SOL    HW319213   2.559   5.275   3.352 -0.4633 -0.0629 -0.9204
 4870SOL    MW419214   2.562   5.355   3.388  0.1507 -0.0863 -0.0859
 4871SOL     OW19215   4.487   3.727   2.181 -0.4022  0.5470  0.0783
 4871SOL    HW219216   4.581   3.708   2.185 -0.4650 -0.5970 -2.3950
 4871SOL    HW319217   4.476   3.806   2.235  1.8291  0.2941  1.0088
 4871SOL    MW419218   4.498   3.735   2.189 -0.0865 -0.8653 -0.2045
 4872SOL     OW19219   0.920   4.777   0.347  0.2976 -0.2819  0.3311
 4872SOL    HW219220   0.857   4.715   0.309  0.2485 -0.3040  0.4491
 4872SOL    HW319221   0.954   4.731   0.424  1.3909 -0.7934 -0.4400
 4872SOL    MW419222   0.916   4.762   0.352 -0.1136 -0.3824  0.0157
 4873SOL     OW19223   1.086   5.622   3.551 -0.2478 -0.3384  0.3525
 4873SOL    HW219224   1.097   5.688   3.619 -0.1921  1.0760 -0.9870
 4873SOL    HW319225   1.174   5.607   3.518 -0.4048 -0.2660 -0.1008
 4873SOL    MW419226   1.099   5.629   3.556 -0.0203  0.8749  0.0354
 4874SOL     OW19227   0.509   5.448   2.379  0.3115 -0.0665 -0.3979
 4874SOL    HW219228   0.544   5.431   2.291 -0.7867  0.5386 -0.9633
 4874SOL    HW319229   0.432   5.502   2.364 -1.0651 -1.6046  0.7849
 4874SOL    MW419230   0.504   5.453   2.365  0.2555  0.0822  0.1357
 4875SOL     OW19231   0.408   0.634   1.542  0.4515  0.0757  0.4953
 4875SOL    HW219232   0.438   0.582   1.468 -0.2355  0.8719 -0.3677
 4875SOL    HW319233   0.488   0.675   1.576  0.8520 -0.7518  0.5684
 4875SOL    MW419234   0.422   0.633   1.537 -0.2986  0.2681  0.1946
 4876SOL     OW19235   5.422   2.787   3.420  0.5196  1.0065 -0.3121
 4876SOL    HW219236   5.331   2.802   3.444  0.1751 -1.7948  0.5453
 4876SOL    HW319237   5.468   2.783   3.503  0.5521 -1.9107 -0.3501
 4876SOL    MW419238   5.416   2.788   3.434  0.9422 -0.2540 -0.1600
 4877SOL     OW19239   1.080   0.155   4.655 -0.4864  0.1559  0.5545
 4877SOL    HW219240   1.118   0.117   4.734  0.5057  1.7664  0.8840
 4877SOL    HW319241   1.069   0.081   4.596  1.0123 -0.7094  1.3172
 4877SOL    MW419242   1.083   0.140   4.658  0.0287 -0.1499  0.3961
 4878SOL     OW19243   0.020   4.944   1.282 -0.2666 -0.3177 -0.4903
 4878SOL    HW219244   0.070   4.889   1.343  0.1103 -0.0456 -0.5493
 4878SOL    HW319245   0.049   4.916   1.195  0.9003  0.8324 -0.5138
 4878SOL    MW419246   0.031   4.933   1.279  0.3473 -0.1971  0.2545
 4879SOL     OW19247   0.852   0.778   3.197  0.6698 -0.6807  0.4539
 4879SOL    HW219248   0.868   0.872   3.189  2.4051 -1.0545 -1.1591
 4879SOL    HW319249   0.856   0.761   3.291  0.7843  0.7789  0.7375
 4879SOL    MW419250   0.854   0.788   3.208  0.1392  0.4857 -0.1142
 4880SOL     OW19251   2.204   1.825   2.298  0.1835 -0.0340 -0.3163
 4880SOL    HW219252   2.114   1.827   2.265 -0.3671  0.7656  1.1165
 4880SOL    HW319253   2.223   1.917   2.320  1.8436  0.0269 -1.7923
 4880SOL    MW419254   2.194   1.838   2.297  0.5153  0.0937 -0.4861
 4881SOL     OW19255   5.959   6.161   5.944 -0.4419  0.0311 -0.6994
 4881SOL    HW219256   5.865   6.171   5.961 -0.4434  1.2246 -1.2748
 4881SOL    HW319257   5.968   6.175   5.849  0.1201 -1.8423 -0.9685
 4881SOL    MW419258   5.948   6.165   5.933 -0.2890 -0.6552 -0.0627
 4882SOL     OW19259   4.691   1.966   4.992  0.2748 -0.6355 -0.0021
 4882SOL    HW219260   4.754   1.979   5.062 -0.2082  0.2296  0.2847
 4882SOL    HW319261   4.688   1.871   4.980  1.7327 -0.6869 -0.1319
 4882SOL    MW419262   4.699   1.955   5.000 -0.0039  0.1077 -0.5748
 4883SOL     OW19263   3.544   2.013   4.009 -0.1933  0.5366  0.7705
 4883SOL    HW219264   3.579   2.036   4.096  0.3899 -1.2960  1.0613
 4883SOL    HW319265   3.591   2.071   3.949 -0.0252  1.2862  1.5896
 4883SOL    MW419266   3.555   2.024   4.013 -0.3126 -0.3546 -0.4757
 4884SOL     OW19267   5.678   3.670   4.097  0.0646  0.0640  0.0334
 4884SOL    HW219268   5.725   3.588   4.111  1.2106  0.3346 -1.8807
 4884SOL    HW319269   5.735   3.737   4.136  1.6247  0.4458 -2.6962
 4884SOL    MW419270   5.692   3.668   4.104 -0.3526  0.3951 -0.3089
 4885SOL     OW19271   4.369   5.522   3.931  0.4312  0.3877 -0.2638
 4885SOL    HW219272   4.412   5.536   3.847 -0.0531  0.2314 -0.5448
 4885SOL    HW319273   4.315   5.600   3.943  1.5403  1.0577  0.5674
 4885SOL    MW419274   4.367   5.534   3.921  0.1622 -0.1854  0.3330
 4886SOL     OW19275   1.036   5.857   4.138  0.3531  0.3591 -0.2460
 4886SOL    HW219276   0.954   5.848   4.185  0.6423 -0.2929  0.1472
 4886SOL    HW319277   1.043   5.777   4.086 -0.5942  1.6370 -2.4472
 4886SOL    MW419278   1.026   5.845   4.137 -0.2010 -0.4732  0.3276
 4887SOL     OW19279   4.480   5.962   1.279  0.6665  0.3629 -0.0110
 4887SOL    HW219280   4.385   5.959   1.292  0.6342 -0.6791 -0.4090
 4887SOL    HW319281   4.516   5.927   1.361  0.7366  1.2436  0.3459
 4887SOL    MW419282   4.473   5.957   1.292  0.1592  0.2163 -0.2529
 4888SOL     OW19283   0.117   3.760   1.969 -0.2641 -0.2903 -0.0426
 4888SOL    HW219284   0.143   3.813   2.044 -0.0369 -0.0087 -0.3150
 4888SOL    HW319285   0.149   3.809   1.893  0.4936 -1.1286 -0.2751
 4888SOL    MW419286   0.125   3.774   1.969 -0.2066  0.3215 -0.1292
 4889SOL     OW19287   1.476   5.328   1.769  0.2272 -0.0572 -0.3798
 4889SOL    HW219288   1.388   5.300   1.792  0.4977 -1.4108 -0.9281
 4889SOL    HW319289   1.465   5.370   1.683  0.3012 -1.4967 -1.1245
 4889SOL    MW419290   1.463   5.330   1.761  0.2507 -0.5159  0.4558
 4890SOL     OW19291   0.318   0.676   2.472  0.1670 -0.1611 -0.1404
 4890SOL    HW219292   0.314   0.738   2.545 -0.1387  0.7658 -0.9221
 4890SOL    HW319293   0.257   0.607   2.496  2.3459 -1.5140  1.9201
 4890SOL    MW419294   0.310   0.675   2.485 -0.1163 -0.2426 -0.0740
 4891SOL     OW19295   1.090   5.328   2.806  0.1839 -0.0488  0.1963
 4891SOL    HW219296   1.153   5.374   2.751  2.1542 -2.6152  0.1473
 4891SOL    HW319297   1.102   5.365   2.893  2.1502 -0.8024  0.2802
 4891SOL    MW419298   1.100   5.339   2.810  0.6559  0.0480  0.2348
 4892SOL     OW19299   5.838   1.269   2.360 -0.0708  0.0570  0.4534
 4892SOL    HW219300   5.857   1.360   2.383 -0.9176 -0.3455  3.1498
 4892SOL    HW319301   5.765   1.245   2.417 -1.1004 -1.7905 -1.5227
 4892SOL    MW419302   5.831   1.278   2.371 -0.2696 -1.1578 -0.4101
 4893SOL     OW19303   0.119   5.091   5.661  0.1449 -0.0013 -0.5166
 4893SOL    HW219304   0.047   5.038   5.624 -0.1475  0.3618 -0.4762
 4893SOL    HW319305   0.187   5.028   5.682  0.0156 -0.3033 -0.9834
 4893SOL    MW419306   0.118   5.076   5.659 -0.4203  0.4640  0.6405
 4894SOL     OW19307   0.348   2.419   3.163  0.4726  0.3331  0.1308
 4894SOL    HW219308   0.322   2.349   3.103  0.1063  0.2847  0.3437
 4894SOL    HW319309   0.407   2.474   3.111  0.4491  0.0877 -0.1604
 4894SOL    MW419310   0.353   2.417   3.148  0.0624  0.4754 -0.2473
 4895SOL     OW19311   4.179   3.758   0.596 -0.6032  0.1420 -0.7476
 4895SOL    HW219312   4.157   3.840   0.553  0.2311  0.0127 -1.4322
 4895SOL    HW319313   4.164   3.691   0.529 -0.5639 -0.1921 -0.4265
 4895SOL    MW419314   4.174   3.760   0.582  0.3755 -0.3115 -0.0947
 4896SOL     OW19315   2.851   3.234   4.394 -0.1695 -0.4293 -0.1988
 4896SOL    HW219316   2.942   3.235   4.423  0.5685 -1.8009 -2.2570
 4896SOL    HW319317   2.803   3.197   4.468  1.0736 -0.5298  0.5832
 4896SOL    MW419318   2.857   3.229   4.408 -0.1667 -0.5192 -0.0503
 4897SOL     OW19319   4.899   3.267   5.818  0.1089  0.3270  0.1051
 4897SOL    HW219320   4.880   3.335   5.753  0.6784  1.1104  0.7420
 4897SOL    HW319321   4.931   3.193   5.766 -1.3028  0.2251 -0.6739
 4897SOL    MW419322   4.901   3.266   5.802 -0.3277 -0.5486  0.2407
 4898SOL     OW19323   0.118   5.840   0.809  0.4989  0.0936  0.4016
 4898SOL    HW219324   0.161   5.792   0.739  3.8071  2.3045  0.7380
 4898SOL    HW319325   0.167   5.816   0.888 -1.1205  0.1299  1.4786
 4898SOL    MW419326   0.130   5.830   0.810 -0.2576  0.1375  0.1472
 4899SOL     OW19327   2.645   0.325   2.695  0.2398 -0.0291 -0.7134
 4899SOL    HW219328   2.659   0.279   2.612  3.3074 -2.2320  0.7971
 4899SOL    HW319329   2.721   0.383   2.703  2.0190 -2.4494  1.9495
 4899SOL    MW419330   2.657   0.326   2.685 -0.2301 -0.3472  0.0626
 4900SOL     OW19331   0.571   1.752   5.043 -0.6319  0.0334 -0.2232
 4900SOL    HW219332   0.587   1.815   5.113  0.5820 -0.3439 -0.1514
 4900SOL    HW319333   0.628   1.781   4.971  1.9473 -2.3804  0.6686
 4900SOL    MW419334   0.581   1.764   5.042  0.3015 -0.3967 -0.0858
 4901SOL     OW19335   3.537   2.483   0.356  0.1747  0.2160 -0.7234
 4901SOL    HW219336   3.453   2.445   0.383  0.4707  0.8436  1.2545
 4901SOL    HW319337   3.512   2.557   0.300 -0.5286 -0.4855 -1.3559
 4901SOL    MW419338   3.522   2.488   0.353  0.0429 -0.3689 -0.1251
 4902SOL     OW19339   1.291   3.756   2.067 -0.1957  0.1004 -0.4705
 4902SOL    HW219340   1.212   3.712   2.037  1.3313 -1.9762 -1.7335
 4902SOL    HW319341   1.290   3.841   2.022 -1.8195  0.2396 -0.2125
 4902SOL    MW419342   1.281   3.761   2.057  0.3573 -0.3618  0.2007
 4903SOL     OW19343   0.813   5.891   1.547  0.0027  0.1705  0.2596
 4903SOL    HW219344   0.729   5.927   1.576  0.1212 -0.1641  1.0157
 4903SOL    HW319345   0.852   5.962   1.495 -0.2347  0.7466  0.8617
 4903SOL    MW419346   0.807   5.905   1.544 -0.4301  0.4033 -0.3006
 4904SOL     OW19347   2.394   6.219   1.057  0.1221  0.1834 -0.6461
 4904SOL    HW219348   2.359   6.134   1.084  0.7882  0.3756  0.8946
 4904SOL    HW319349   2.443   6.250   1.132  2.2573  0.6766 -2.1561
 4904SOL    MW419350   2.396   6.212   1.070  0.0630  0.2628 -0.1042
 4905SOL     OW19351   0.029   2.694   2.448 -0.3214  0.3136 -0.3285
 4905SOL    HW219352   0.030   2.663   2.358 -1.3441  0.3509 -0.3642
 4905SOL    HW319353   0.082   2.630   2.496  0.1055  0.2128 -0.9272
 4905SOL    MW419354   0.036   2.681   2.443 -0.0434  0.7926 -0.0219
 4906SOL     OW19355   3.109   4.043   1.259  0.5351  0.1690  0.0567
 4906SOL    HW219356   3.014   4.042   1.248  0.5894 -0.0744 -0.4081
 4906SOL    HW319357   3.143   4.066   1.172  0.9822 -1.6872 -0.2983
 4906SOL    MW419358   3.101   4.046   1.246 -0.1810  0.4566 -0.8372
 4907SOL     OW19359   1.450   6.099   5.528  0.5420  0.3807 -0.0700
 4907SOL    HW219360   1.381   6.125   5.589  0.7399 -1.0327  0.8035
 4907SOL    HW319361   1.530   6.137   5.566  0.5080  0.4561 -0.0724
 4907SOL    MW419362   1.452   6.108   5.541 -0.1307  0.0130  0.8196
 4908SOL     OW19363   4.844   2.070   6.271 -0.4654  0.4920 -0.3291
 4908SOL    HW219364   4.837   2.139   6.206  0.2361  2.2910  1.4060
 4908SOL    HW319365   4.891   1.999   6.227  2.1949  2.5974 -1.1079
 4908SOL    MW419366   4.850   2.069   6.257 -0.5122  0.6494 -0.0430
 4909SOL     OW19367   5.181   2.802   3.520  0.1175 -0.0950 -0.1637
 4909SOL    HW219368   5.220   2.797   3.608 -0.1026 -1.0867 -0.1172
 4909SOL    HW319369   5.134   2.719   3.509 -0.1941  0.1859 -1.0678
 4909SOL    MW419370   5.180   2.791   3.530  0.1295  0.0704 -0.8314
 4910SOL     OW19371   0.041   0.404   2.248 -0.1414 -0.3260 -0.2828
 4910SOL    HW219372   0.120   0.454   2.229 -1.3510  1.5288 -0.6390
 4910SOL    HW319373  -0.002   0.453   2.317 -1.7976 -0.3566 -1.2491
 4910SOL    MW419374   0.046   0.417   2.254 -0.1835 -0.4804 -0.5066
 4911SOL     OW19375   2.180   2.421   3.486  0.4595 -0.7157  0.5482
 4911SOL    HW219376   2.104   2.366   3.466  0.6558 -1.0191  0.6279
 4911SOL    HW319377   2.180   2.487   3.417 -0.3618 -0.2042  1.0169
 4911SOL    MW419378   2.170   2.422   3.474  0.4370 -0.2711 -0.8786
 4912SOL     OW19379   2.608   2.226   2.575  0.2227  0.1069 -0.1972
 4912SOL    HW219380   2.524   2.272   2.570  0.2478  0.1506 -0.2207
 4912SOL    HW319381   2.584   2.134   2.587  0.1739  0.1439 -0.0107
 4912SOL    MW419382   2.594   2.220   2.576 -0.2857 -0.2778  0.7584
 4913SOL     OW19383   0.166   0.132   6.359 -0.7290 -0.2891  0.0053
 4913SOL    HW219384   0.175   0.222   6.392 -1.5515  0.5976 -1.9564
 4913SOL    HW319385   0.249   0.114   6.315 -0.5981 -0.4596  0.3208
 4913SOL    MW419386   0.178   0.142   6.357 -0.3606  0.3603 -0.1037
 4914SOL     OW19387   3.444   5.064   3.592 -0.0879 -0.1598 -0.4892
 4914SOL    HW219388   3.463   4.970   3.585 -0.6753 -0.7721  3.5246
 4914SOL    HW319389   3.350   5.071   3.572  0.1106 -0.2604 -1.5156
 4914SOL    MW419390   3.434   5.053   3.589 -0.2383  0.4358  0.0593
 4915SOL     OW19391   4.541   3.863   4.525  0.6922 -0.4553 -0.2960
 4915SOL    HW219392   4.632   3.885   4.504  0.2420  0.8395 -0.9783
 4915SOL    HW319393   4.521   3.914   4.603 -0.1699  1.1737 -1.5369
 4915SOL    MW419394   4.551   3.872   4.532 -0.1370 -0.2783 -0.5123
 4916SOL     OW19395   1.315   0.988   5.882  0.1049  0.2744 -0.4908
 4916SOL    HW219396   1.281   1.056   5.824 -0.3568 -0.3359 -0.9575
 4916SOL    HW319397   1.406   1.013   5.899 -0.5121  1.8514  0.6511
 4916SOL    MW419398   1.323   1.000   5.876 -0.2930 -0.1810  0.4688
 4917SOL     OW19399   3.160   5.126   2.699 -0.3400  0.2541 -0.0385
 4917SOL    HW219400   3.209   5.057   2.744  0.7423  1.2464  0.3585
 4917SOL    HW319401   3.080   5.135   2.750  0.6974  1.0960  1.5431
 4917SOL    MW419402   3.156   5.119   2.711  0.2279  0.5752  0.1060
 4918SOL     OW19403   0.799   4.282   0.242 -0.5281  0.1749  0.1187
 4918SOL    HW219404   0.819   4.218   0.174  0.6874  1.3092 -0.6451
 4918SOL    HW319405   0.810   4.234   0.324  1.4716 -0.3395 -0.3884
 4918SOL    MW419406   0.803   4.267   0.244 -0.4614  0.1833  0.5683
 4919SOL     OW19407   0.055   0.494   6.115 -0.6131  0.1714  0.5379
 4919SOL    HW219408   0.059   0.420   6.055 -0.5823 -0.7276  1.6095
 4919SOL    HW319409   0.131   0.547   6.093  0.0542 -0.7558  0.5374
 4919SOL    MW419410   0.066   0.491   6.104 -0.2479  0.2698 -0.0391
 4920SOL     OW19411   3.615   1.054   3.546 -1.0101 -0.0321 -0.2942
 4920SOL    HW219412   3.613   0.964   3.578  0.3086  0.0086 -0.0161
 4920SOL    HW319413   3.570   1.052   3.462 -2.2603 -0.6601  0.3795
 4920SOL    MW419414   3.609   1.042   3.539  0.3370  0.3048  0.5187
 4921SOL     OW19415   5.183   0.354   0.982  0.1190  0.5424 -0.2774
 4921SOL    HW219416   5.217   0.265   0.988  0.1143  0.5875  0.4317
 4921SOL    HW319417   5.261   0.410   0.981  0.1607  0.5025 -1.5818
 4921SOL    MW419418   5.198   0.350   0.982 -0.1863 -0.0991 -0.6620
 4922SOL     OW19419   1.819   2.554   2.172  0.7830  0.0067 -0.2765
 4922SOL    HW219420   1.895   2.580   2.225  1.2650  0.4624 -1.1796
 4922SOL    HW319421   1.836   2.462   2.151  0.5336 -0.2128  0.4394
 4922SOL    MW419422   1.832   2.545   2.176  0.0057 -0.4796 -0.4430
 4923SOL     OW19423   5.528   0.599   1.254  0.3445 -0.1052 -0.1704
 4923SOL    HW219424   5.551   0.507   1.246  0.7784 -0.0666  0.5875
 4923SOL    HW319425   5.605   0.646   1.221 -0.7056  0.0048 -2.7341
 4923SOL    MW419426   5.541   0.593   1.248 -0.3500 -0.2024 -0.5666
 4924SOL     OW19427   5.664   6.104   0.833 -0.7612 -0.1857 -0.1672
 4924SOL    HW219428   5.714   6.159   0.773  0.7609 -1.3765 -0.0589
 4924SOL    HW319429   5.586   6.080   0.784 -0.5172  0.4841 -0.9147
 4924SOL    MW419430   5.660   6.108   0.819 -0.5756 -0.2541  0.5263
 4925SOL     OW19431   0.618   3.890   4.208  0.1235 -0.1622  0.4223
 4925SOL    HW219432   0.599   3.889   4.114  1.1237 -0.4098  0.2172
 4925SOL    HW319433   0.531   3.892   4.250 -0.3750 -1.4246 -0.4821
 4925SOL    MW419434   0.604   3.890   4.201 -0.7046  0.6530  0.4833
 4926SOL     OW19435   5.149   0.858   2.433  0.3669 -0.1847 -0.3106
 4926SOL    HW219436   5.237   0.893   2.421  0.1564  0.8854  0.9417
 4926SOL    HW319437   5.092   0.923   2.392  0.1322 -0.6876 -0.7919
 4926SOL    MW419438   5.153   0.872   2.426 -0.3122  0.0035  0.7083
 4927SOL     OW19439   4.880   5.261   4.427 -0.0585 -0.0826 -0.0639
 4927SOL    HW219440   4.822   5.315   4.481  0.0276 -0.3881  0.3314
 4927SOL    HW319441   4.857   5.171   4.449 -0.8118 -0.2332 -1.3614
 4927SOL    MW419442   4.869   5.256   4.437 -0.1606 -0.0919 -0.8660
 4928SOL     OW19443   2.664   0.263   4.010 -0.1969 -0.1721  0.5319
 4928SOL    HW219444   2.631   0.184   4.053 -1.3143  0.6024  1.1352
 4928SOL    HW319445   2.589   0.298   3.964  0.5282  0.0548 -0.5094
 4928SOL    MW419446   2.650   0.257   4.010  0.5206 -0.0798  0.2899
 4929SOL     OW19447   4.739   6.048   4.924  0.0725  0.0530 -0.5554
 4929SOL    HW219448   4.814   6.107   4.927  1.2409 -1.3827 -0.6782
 4929SOL    HW319449   4.669   6.096   4.969  1.2074  1.2107  0.0238
 4929SOL    MW419450   4.739   6.062   4.930  0.2033  0.2052 -0.2737
 4930SOL     OW19451   2.813   1.432   4.994 -0.5336 -0.7384  0.0574
 4930SOL    HW219452   2.728   1.473   4.980 -1.7985 -1.4051  4.2884
 4930SOL    HW319453   2.794   1.339   5.005  0.9695 -1.1173 -0.3322
 4930SOL    MW419454   2.799   1.425   4.994  0.2302  0.2814 -0.0522
 4931SOL     OW19455   4.730   2.363   0.659  0.0761  0.3016  1.1095
 4931SOL    HW219456   4.768   2.320   0.583 -1.5059 -1.6256  1.3295
 4931SOL    HW319457   4.674   2.433   0.623  0.2384  0.1584  0.5764
 4931SOL    MW419458   4.727   2.367   0.644 -0.3730 -0.0135 -0.6146
 4932SOL     OW19459   4.487   3.941   3.640  0.3376 -0.2225 -0.0634
 4932SOL    HW219460   4.580   3.953   3.627 -0.0307 -0.3509 -3.8134
 4932SOL    HW319461   4.451   4.030   3.645  0.3501 -0.0753 -2.0388
 4932SOL    MW419462   4.494   3.954   3.639  0.1742 -0.1222  0.4074
 4933SOL     OW19463   5.302   0.811   0.780 -0.0186  0.0319 -0.6253
 4933SOL    HW219464   5.245   0.766   0.843 -0.6507  1.0096 -0.4679
 4933SOL    HW319465   5.287   0.904   0.797  2.2646  0.3577  0.0055
 4933SOL    MW419466   5.293   0.818   0.791 -0.7258 -0.4479  0.6803
 4934SOL     OW19467   3.623   2.773   4.510  0.4981  0.0449 -0.0903
 4934SOL    HW219468   3.628   2.723   4.592 -0.9629 -1.1814 -0.7070
 4934SOL    HW319469   3.529   2.789   4.498  0.9149  3.9254  0.6020
 4934SOL    MW419470   3.611   2.769   4.519 -0.1736  0.0676 -0.0706
 4935SOL     OW19471   1.122   2.091   3.451  0.3267  0.0624  0.4190
 4935SOL    HW219472   1.034   2.092   3.490  0.1224  0.1925 -0.0348
 4935SOL    HW319473   1.159   2.007   3.477  0.1401  0.0927  0.7817
 4935SOL    MW419474   1.115   2.080   3.459 -0.1462  0.4155  0.0094
 4936SOL     OW19475   0.214   3.010   3.624  0.3138  0.3655 -0.3211
 4936SOL    HW219476   0.275   3.083   3.614 -0.5602  0.9604 -1.5238
 4936SOL    HW319477   0.137   3.048   3.667  0.0025  0.0775 -0.6105
 4936SOL    MW419478   0.212   3.024   3.628 -0.0031  0.1145 -0.3156
 4937SOL     OW19479   2.735   3.085   4.625 -0.2158  0.2812  0.1195
 4937SOL    HW219480   2.685   3.129   4.693 -0.2249 -0.5419  0.6620
 4937SOL    HW319481   2.697   2.997   4.620  1.6089 -0.6160  1.0611
 4937SOL    MW419482   2.723   3.079   4.633 -0.4106 -0.6754 -0.1869
 4938SOL     OW19483   4.248   3.931   1.770  0.6338  0.3684  0.4707
 4938SOL    HW219484   4.307   3.894   1.836  2.4590  0.0256 -1.2469
 4938SOL    HW319485   4.210   3.855   1.726  0.9977  0.5511 -0.1758
 4938SOL    MW419486   4.251   3.916   1.773 -0.2263 -0.4787  0.6906
 4939SOL     OW19487   1.674   5.837   5.190  0.1588 -0.0519 -0.4446
 4939SOL    HW219488   1.747   5.776   5.199  0.1438 -0.0903 -0.5888
 4939SOL    HW319489   1.596   5.782   5.189  0.0130  0.0748  1.2589
 4939SOL    MW419490   1.673   5.822   5.191 -0.0508 -0.1253  0.5395
 4940SOL     OW19491   0.819   6.399   6.243 -0.6161  0.1519 -0.2202
 4940SOL    HW219492   0.904   6.412   6.284  0.0963 -0.7225 -1.3551
 4940SOL    HW319493   0.822   6.452   6.164 -0.8506 -0.4014 -0.6075
 4940SOL    MW419494   0.831   6.408   6.238  0.4768  1.0250  0.3442
 4941SOL     OW19495   3.719   5.780   5.958  0.2010 -0.3502 -0.9232
 4941SOL    HW219496   3.700   5.764   5.865  0.7864 -0.3386 -1.0500
 4941SOL    HW319497   3.702   5.696   6.000  1.7641 -0.9108 -1.3465
 4941SOL    MW419498   3.714   5.766   5.951 -0.0968 -0.5199  0.5457
 4942SOL     OW19499   5.487   4.075   0.974  0.3014 -0.9985  0.2581
 4942SOL    HW219500   5.544   4.024   1.032 -0.5195 -0.8219  1.2559
 4942SOL    HW319501   5.464   4.014   0.904  1.0719 -1.3165  0.2768
 4942SOL    MW419502   5.491   4.060   0.972 -0.5252  0.1123  0.3240
 4943SOL     OW19503   2.576   6.430   3.274 -0.1161  0.0728  0.7002
 4943SOL    HW219504   2.658   6.380   3.278 -0.9047 -1.2067  1.7994
 4943SOL    HW319505   2.539   6.408   3.188  1.1441  1.4750 -0.2446
 4943SOL    MW419506   2.582   6.420   3.263  0.1123  0.2722 -0.4731
 4944SOL     OW19507   3.073   3.146   5.046  0.0868  0.1133  0.4735
 4944SOL    HW219508   3.103   3.132   4.956  1.9747  0.3494  1.0405
 4944SOL    HW319509   3.045   3.059   5.075 -1.7747  0.2444 -0.7142
 4944SOL    MW419510   3.073   3.133   5.038 -0.8417  0.2316  0.8227
 4945SOL     OW19511   5.954   2.181   5.593  0.0328 -0.0620  0.1989
 4945SOL    HW219512   5.877   2.184   5.649 -1.4725 -2.6710 -1.5102
 4945SOL    HW319513   5.919   2.190   5.504  1.6263 -1.5867 -0.6383
 4945SOL    MW419514   5.939   2.183   5.588  0.2715 -0.2101 -0.2285
 4946SOL     OW19515   6.028   1.592   3.599  0.1447  0.2682 -0.0627
 4946SOL    HW219516   6.034   1.672   3.652 -3.8113  1.7219 -1.4556
 4946SOL    HW319517   5.978   1.531   3.652  0.1398  0.0115 -0.3596
 4946SOL    MW419518   6.022   1.595   3.613 -0.2132 -0.9202  0.1690
 4947SOL     OW19519   4.728   2.781   1.814  0.0334  0.2233 -0.5775
 4947SOL    HW219520   4.697   2.817   1.897 -1.5360  1.4096 -1.6131
 4947SOL    HW319521   4.651   2.738   1.777  0.9748 -1.1399 -0.9972
 4947SOL    MW419522   4.714   2.780   1.820 -0.4791  0.2097 -0.4397
 4948SOL     OW19523   5.170   3.279   2.133  0.7591  0.1536  0.9237
 4948SOL    HW219524   5.149   3.357   2.082  1.8112 -1.0591 -1.5350
 4948SOL    HW319525   5.135   3.206   2.081  2.5913 -1.2239  1.4973
 4948SOL    MW419526   5.162   3.279   2.119  0.0792  0.3104  0.0304
 4949SOL     OW19527   2.085   2.822   3.448 -0.2806  0.0813 -0.5161
 4949SOL    HW219528   2.003   2.775   3.442 -0.0394 -0.3122 -0.7321
 4949SOL    HW319529   2.068   2.905   3.404 -0.3075 -0.3458 -1.3210
 4949SOL    MW419530   2.072   2.827   3.442 -0.5663  0.1031 -0.5355
 4950SOL     OW19531   0.752   4.547   0.301 -0.7033  0.5120 -0.3874
 4950SOL    HW219532   0.764   4.453   0.306  0.2833  0.6482 -0.0061
 4950SOL    HW319533   0.718   4.572   0.387  2.4828  0.9457  0.8719
 4950SOL    MW419534   0.749   4.538   0.313 -0.7099 -0.3335 -0.0210
 4951SOL     OW19535   4.882   5.815   2.144 -0.3133 -0.0671 -0.2998
 4951SOL    HW219536   4.949   5.792   2.081  0.5069 -0.9175  0.8415
 4951SOL    HW319537   4.930   5.852   2.218 -1.0674 -0.8231  0.5976
 4951SOL    MW419538   4.897   5.817   2.146 -0.2329 -0.4276 -0.5289
 4952SOL     OW19539   0.396   1.964   0.857  0.5600  0.1934 -0.1145
 4952SOL    HW219540   0.430   1.982   0.944  0.1465 -0.3555  0.1710
 4952SOL    HW319541   0.374   2.050   0.821 -0.2683  0.3569  0.7474
 4952SOL    MW419542   0.397   1.978   0.864  0.5425  0.0884 -0.2879
 4953SOL     OW19543   2.569   4.901   3.621  0.1393  0.6088  0.5670
 4953SOL    HW219544   2.640   4.920   3.560  1.4060  0.2042  1.8465
 4953SOL    HW319545   2.606   4.835   3.680 -1.8213 -0.7245  0.3747
 4953SOL    MW419546   2.584   4.895   3.621  0.0592  0.3183 -0.5259
 4954SOL     OW19547   4.862   3.865   6.174  0.0544  0.0666 -0.6271
 4954SOL    HW219548   4.803   3.939   6.192  0.5601  0.4479 -0.4982
 4954SOL    HW319549   4.928   3.870   6.243 -1.5350 -2.3211  1.2165
 4954SOL    MW419550   4.862   3.876   6.185  0.4084  0.3760 -0.1566
 4955SOL     OW19551   5.172   2.130   6.285  0.3102  0.2570  0.5039
 4955SOL    HW219552   5.180   2.223   6.267  1.4662  0.1506  0.3729
 4955SOL    HW319553   5.110   2.124   6.357 -1.0517  0.9942 -0.5566
 4955SOL    MW419554   5.165   2.141   6.292 -0.2058 -0.3512 -0.3391
 4956SOL     OW19555   2.407   2.683   0.148 -0.3362 -0.1037 -0.0772
 4956SOL    HW219556   2.462   2.679   0.226  1.1877  0.9859 -1.0407
 4956SOL    HW319557   2.318   2.683   0.182  0.2204 -1.8302  1.5401
 4956SOL    MW419558   2.403   2.683   0.163 -0.0223 -0.1844 -1.2772
 4957SOL     OW19559   2.913   2.496   1.791 -0.3659 -0.4038  0.0329
 4957SOL    HW219560   2.863   2.543   1.857 -1.2181 -0.1841 -0.7478
 4957SOL    HW319561   2.992   2.548   1.777 -0.3654 -0.2552  0.5928
 4957SOL    MW419562   2.917   2.509   1.798 -0.5781  0.2374  0.5215
 4958SOL     OW19563   0.096   3.832   1.037 -0.3979 -0.3262 -0.3299
 4958SOL    HW219564   0.070   3.913   1.081  1.2140  2.1405 -3.5620
 4958SOL    HW319565   0.188   3.820   1.060  0.1094  0.2967 -1.9312
 4958SOL    MW419566   0.104   3.841   1.046 -0.1979  0.0816 -0.5714
 4959SOL     OW19567   2.254   0.942   0.604  0.3823 -0.0932 -0.5134
 4959SOL    HW219568   2.284   0.921   0.693 -0.1005  0.1135 -0.2980
 4959SOL    HW319569   2.251   1.038   0.603 -0.3586 -0.1130 -0.4999
 4959SOL    MW419570   2.258   0.952   0.616 -0.1955  0.0209 -0.2255
 4960SOL     OW19571   0.729   5.308   5.900 -0.2808  0.0951  0.1045
 4960SOL    HW219572   0.675   5.236   5.930 -1.5274  0.3386 -1.4224
 4960SOL    HW319573   0.709   5.380   5.961  1.3417 -0.9127  1.9347
 4960SOL    MW419574   0.719   5.308   5.912  0.3999 -0.2212  0.4175
 4961SOL     OW19575   3.149   4.049   0.029  0.5396  0.1577 -0.1650
 4961SOL    HW219576   3.228   3.996   0.039  0.8337  0.9843  2.5681
 4961SOL    HW319577   3.178   4.126  -0.020  1.2120 -0.0023 -0.0361
 4961SOL    MW419578   3.163   4.052   0.024  0.6674  0.0237  0.0018
 4962SOL     OW19579   0.742   2.244   5.420 -0.1842 -0.5469 -0.5723
 4962SOL    HW219580   0.650   2.269   5.409 -0.2050 -1.1668 -2.1310
 4962SOL    HW319581   0.745   2.152   5.391  1.0026 -0.3949 -0.9666
 4962SOL    MW419582   0.730   2.235   5.414 -0.4853 -0.4887 -0.8589
 4963SOL     OW19583   2.469   0.214   2.914  0.0185 -0.2186 -0.2968
 4963SOL    HW219584   2.397   0.268   2.946 -0.1044  0.1760 -1.1787
 4963SOL    HW319585   2.477   0.239   2.821  0.6577 -0.9537 -0.4483
 4963SOL    MW419586   2.460   0.224   2.906 -0.0336  1.0148 -0.4875
 4964SOL     OW19587   0.410   5.632   2.668 -0.0002  0.2360 -0.1446
 4964SOL    HW219588   0.495   5.620   2.709 -0.4480 -1.6520  0.3866
 4964SOL    HW319589   0.428   5.672   2.583  1.5141 -0.8639 -0.3792
 4964SOL    MW419590   0.423   5.635   2.662  0.3014 -0.3036 -0.0629
 4965SOL     OW19591   4.464   6.012   3.390 -0.1384  0.9557 -0.0400
 4965SOL    HW219592   4.457   5.926   3.348 -1.3011  2.0332 -2.2581
 4965SOL    HW319593   4.558   6.027   3.397  0.0898 -0.2853 -0.0572
 4965SOL    MW419594   4.475   6.002   3.385 -0.4142  0.0138 -0.5933
 4966SOL     OW19595   3.015   1.890   1.227 -0.3350  0.0448  0.0234
 4966SOL    HW219596   3.032   1.940   1.307 -3.2578  0.4008  0.5337
 4966SOL    HW319597   3.016   1.955   1.157  0.0798  0.1016  0.0812
 4966SOL    MW419598   3.017   1.905   1.229 -0.0595  0.0033 -0.5450
 4967SOL     OW19599   3.792   1.067   4.905 -0.2897 -0.9925  0.1909
 4967SOL    HW219600   3.821   1.153   4.934  0.9544 -0.2444 -2.8641
 4967SOL    HW319601   3.873   1.018   4.889 -0.9610 -2.3375  0.6774
 4967SOL    MW419602   3.806   1.072   4.907 -0.0418  0.2754 -0.4051
 4968SOL     OW19603   1.454   3.444   0.094 -0.4228  0.2976 -0.1071
 4968SOL    HW219604   1.511   3.376   0.058 -1.7373 -0.7827 -0.2475
 4968SOL    HW319605   1.462   3.435   0.188 -0.8196 -0.2814 -0.1212
 4968SOL    MW419606   1.463   3.434   0.101  0.0213 -0.2227  0.2390
 4969SOL     OW19607   2.026   5.015   3.332  0.1741 -0.1775  0.3939
 4969SOL    HW219608   1.980   4.950   3.385 -1.4824  0.5873 -0.0303
 4969SOL    HW319609   2.116   5.015   3.366 -0.2992 -1.2372  1.7339
 4969SOL    MW419610   2.032   5.006   3.344  0.7094 -0.0503 -0.2121
 4970SOL     OW19611   4.127   2.256   1.593 -0.0318  0.7016 -0.2698
 4970SOL    HW219612   4.065   2.319   1.558 -0.7868 -1.1383 -2.4827
 4970SOL    HW319613   4.196   2.250   1.527  0.4432 -0.1933  0.2778
 4970SOL    MW419614   4.128   2.263   1.580  0.1595  0.2550 -0.6487
 4971SOL     OW19615   0.277   0.816   3.219  0.6187  0.3985 -0.0062
 4971SOL    HW219616   0.274   0.790   3.311  1.8098  0.0711 -0.0424
 4971SOL    HW319617   0.227   0.897   3.216  0.7593  0.5378  0.9717
 4971SOL    MW419618   0.270   0.823   3.231  0.3031  0.4541 -0.0857
 4972SOL     OW19619   3.922   0.264   0.683 -0.6306  0.1531 -0.1445
 4972SOL    HW219620   3.902   0.171   0.697 -1.2578  0.1117 -1.1756
 4972SOL    HW319621   3.840   0.301   0.651 -1.1491  1.6545  2.6722
 4972SOL    MW419622   3.909   0.256   0.681  0.3741 -0.2539  0.3331
 4973SOL     OW19623   0.436   3.058   5.984 -0.1201  0.1716  0.0470
 4973SOL    HW219624   0.350   3.097   5.972  0.5364  1.0698 -2.1117
 4973SOL    HW319625   0.461   3.025   5.897  0.7404 -2.2125  1.0995
 4973SOL    MW419626   0.428   3.059   5.971 -0.3264  0.0261  0.6290
 4974SOL     OW19627   5.988   2.930   2.030  0.5888  0.5139  0.9237
 4974SOL    HW219628   6.023   2.868   2.094 -1.6207 -1.6515  0.2167
 4974SOL    HW319629   5.893   2.921   2.038  0.2212  0.7532 -2.0633
 4974SOL    MW419630   5.980   2.921   2.039 -0.0126 -0.0697  0.2628
 4975SOL     OW19631   2.728   5.778   1.879 -0.7478 -0.0240 -0.0190
 4975SOL    HW219632   2.698   5.868   1.882 -0.6910  0.0285 -0.7308
 4975SOL    HW319633   2.735   5.758   1.785  0.6243 -0.2928  0.1131
 4975SOL    MW419634   2.725   5.787   1.867 -0.2086  0.0350 -0.7464
 4976SOL     OW19635   3.236   2.461   0.702 -0.0467  0.5608  0.1768
 4976SOL    HW219636   3.217   2.555   0.702  0.0789  0.6038  1.4486
 4976SOL    HW319637   3.330   2.456   0.720  0.2515  0.2132 -1.3451
 4976SOL    MW419638   3.246   2.473   0.704 -0.2242  0.0075  0.0831
 4977SOL     OW19639   6.361   3.472   1.942 -0.0868 -0.5616 -1.1698
 4977SOL    HW219640   6.369   3.531   2.016  0.3795 -0.6078 -1.1788
 4977SOL    HW319641   6.410   3.515   1.872 -2.4466  0.6499 -2.1978
 4977SOL    MW419642   6.369   3.485   1.942 -0.4019 -0.6183  0.2496
 4978SOL     OW19643   3.768   2.646   4.304 -0.1720 -0.0361  0.4817
 4978SOL    HW219644   3.851   2.692   4.294 -0.0713 -0.5747 -1.7117
 4978SOL    HW319645   3.719   2.698   4.368  1.4548  0.8238  1.0863
 4978SOL    MW419646   3.772   2.659   4.311 -0.0197  0.1678  0.2321
 4979SOL     OW19647   3.293   6.403   3.171  0.2140  0.4351  0.4037
 4979SOL    HW219648   3.263   6.340   3.237  0.8931  2.1477  2.4701
 4979SOL    HW319649   3.213   6.440   3.135 -0.1737 -0.3463  0.4456
 4979SOL    MW419650   3.278   6.400   3.175  0.0477 -0.6107  0.5823
 4980SOL     OW19651   2.091   2.175   5.782 -0.3378  0.1119  0.0618
 4980SOL    HW219652   2.129   2.103   5.832  1.0013  0.4311 -0.4386
 4980SOL    HW319653   2.044   2.132   5.710 -1.3175 -0.3048  0.9298
 4980SOL    MW419654   2.090   2.160   5.779 -0.2418 -0.0759 -0.2053
 4981SOL     OW19655   4.012   2.193   3.036 -0.1850 -0.4700 -0.5973
 4981SOL    HW219656   3.989   2.100   3.030  1.5154 -0.8758 -1.5367
 4981SOL    HW319657   3.974   2.222   3.119 -0.9864 -1.9280 -0.4258
 4981SOL    MW419658   4.004   2.185   3.046 -0.3619  0.1272 -0.2977
 4982SOL     OW19659   2.741   6.145   4.666 -0.0748 -0.3458  0.4036
 4982SOL    HW219660   2.684   6.081   4.709 -2.1556  1.0110 -0.1628
 4982SOL    HW319661   2.811   6.160   4.729  0.3153 -2.9089  0.6665
 4982SOL    MW419662   2.743   6.139   4.680 -0.1107 -0.6187 -0.2439
 4983SOL     OW19663   2.445   6.267   5.516  0.3776  0.1583  0.3988
 4983SOL    HW219664   2.439   6.237   5.607  2.1366 -0.7071  0.2633
 4983SOL    HW319665   2.394   6.203   5.466  0.1247  0.1495  0.6640
 4983SOL    MW419666   2.437   6.254   5.522 -0.6802 -0.1955  0.1105
 4984SOL     OW19667   3.164   3.997   4.861 -0.2907 -0.2656  0.4921
 4984SOL    HW219668   3.233   4.059   4.885 -0.1312 -0.4347  0.4668
 4984SOL    HW319669   3.101   4.051   4.813  0.5536 -0.3939 -0.8176
 4984SOL    MW419670   3.165   4.013   4.857 -0.5926  0.4873  0.0440
 4985SOL     OW19671   0.251   3.577   0.741  0.2896 -0.2571 -0.1670
 4985SOL    HW219672   0.172   3.523   0.745 -1.0074  1.4456 -1.0284
 4985SOL    HW319673   0.313   3.534   0.799 -1.8832 -0.7136  1.9773
 4985SOL    MW419674   0.249   3.565   0.749 -0.1297 -0.1414 -0.0442
 4986SOL     OW19675   6.341   0.400   2.005 -0.1355 -0.4439  0.2613
 4986SOL    HW219676   6.307   0.312   1.994 -1.3878 -0.5721  3.9753
 4986SOL    HW319677   6.389   0.398   2.088  2.4987  1.7026 -1.0150
 4986SOL    MW419678   6.343   0.388   2.014 -0.3452 -0.0640  0.8785
 4987SOL     OW19679   1.698   1.645   0.618 -0.7826 -0.0154  0.1222
 4987SOL    HW219680   1.652   1.573   0.662  0.4582  0.6130  2.6851
 4987SOL    HW319681   1.709   1.616   0.528 -0.5212 -2.9623  1.0057
 4987SOL    MW419682   1.693   1.632   0.612  0.1049  0.1274  0.1147
 4988SOL     OW19683   1.232   1.320   5.506 -0.1344 -0.2044 -0.1868
 4988SOL    HW219684   1.300   1.269   5.461  0.4464  0.5152 -0.1368
 4988SOL    HW319685   1.226   1.401   5.457 -0.0342  0.2803  0.5834
 4988SOL    MW419686   1.240   1.324   5.494  0.3305 -0.4785 -0.3110
 4989SOL     OW19687   1.802   4.956   4.795 -0.2138 -0.2120 -0.3565
 4989SOL    HW219688   1.796   5.006   4.713 -1.1586 -2.4639 -1.7801
 4989SOL    HW319689   1.826   5.021   4.861  0.0983  1.8055 -2.3114
 4989SOL    MW419690   1.804   4.972   4.793  0.4119 -0.1367  0.0694
 4990SOL     OW19691   4.027   3.336   3.547 -0.1699 -0.1090  0.2243
 4990SOL    HW219692   4.086   3.277   3.502 -0.0640 -0.8035  1.2304
 4990SOL    HW319693   3.947   3.334   3.495  0.1136 -0.4851 -0.2106
 4990SOL    MW419694   4.024   3.328   3.534  0.0719 -0.0155  0.2213
 4991SOL     OW19695   6.189   0.217   4.457  0.3384 -0.3915  0.7253
 4991SOL    HW219696   6.164   0.237   4.547 -0.1551 -0.4596  0.6069
 4991SOL    HW319697   6.164   0.125   4.445  0.0024 -0.2569  0.3851
 4991SOL    MW419698   6.182   0.207   4.467 -0.3003 -0.1881 -0.3937
 4992SOL     OW19699   3.699   2.119   1.997  0.4790 -0.0201  0.0792
 4992SOL    HW219700   3.657   2.035   2.017  0.2526 -0.0982 -0.6982
 4992SOL    HW319701   3.642   2.160   1.932 -0.0709  1.2936  1.3291
 4992SOL    MW419702   3.686   2.113   1.991  0.9744  0.6748 -0.1386
 4993SOL     OW19703   2.200   5.068   4.555 -0.1624 -0.1666 -0.0777
 4993SOL    HW219704   2.211   5.101   4.644  0.3984 -0.1588 -0.1460
 4993SOL    HW319705   2.193   4.973   4.565 -2.5831 -0.0122  0.1949
 4993SOL    MW419706   2.201   5.060   4.568 -0.4554 -0.1128 -0.0012
 4994SOL     OW19707   5.635   0.030   5.561  0.0962 -0.1114  0.1007
 4994SOL    HW219708   5.639   0.107   5.618  2.2231 -0.9956  1.2691
 4994SOL    HW319709   5.721   0.028   5.518  0.6091 -2.4618  1.0532
 4994SOL    MW419710   5.647   0.040   5.563 -0.2579  0.1307  0.2548
 4995SOL     OW19711   2.094   5.387   6.111 -0.4606  0.0597  0.0382
 4995SOL    HW219712   2.129   5.446   6.044  0.8215 -0.4124  0.2618
 4995SOL    HW319713   2.031   5.332   6.064 -0.4522  0.5114 -0.5164
 4995SOL    MW419714   2.090   5.387   6.096  0.2068 -0.3651 -0.4227
 4996SOL     OW19715   2.883   2.365   5.439  0.2595  0.6171 -0.0308
 4996SOL    HW219716   2.976   2.340   5.435 -0.1223 -1.1714  1.1923
 4996SOL    HW319717   2.860   2.356   5.532 -0.8981  2.0297 -0.1519
 4996SOL    MW419718   2.892   2.360   5.451 -0.5008  0.1867 -0.2066
 4997SOL     OW19719   0.883   5.869   3.843 -0.1653 -0.2028 -0.0517
 4997SOL    HW219720   0.935   5.941   3.809 -0.6340  0.0877 -0.1526
 4997SOL    HW319721   0.836   5.906   3.917 -1.2412 -0.1085 -0.7621
 4997SOL    MW419722   0.884   5.883   3.848  0.6982 -0.1283 -0.1100
 4998SOL     OW19723   2.699   4.028   2.958  0.3102 -0.1486 -0.0921
 4998SOL    HW219724   2.792   4.027   2.937  0.2387 -1.0212 -0.3958
 4998SOL    HW319725   2.681   3.941   2.994 -0.4261 -0.0528 -0.2106
 4998SOL    MW419726   2.709   4.016   2.960 -0.3958  0.4696  0.5195
 4999SOL     OW19727   4.500   3.181   1.834  0.0020  0.4105 -0.0086
 4999SOL    HW219728   4.441   3.142   1.899  0.0817  0.4566  0.0909
 4999SOL    HW319729   4.546   3.107   1.796 -1.3798  0.1795 -1.3394
 4999SOL    MW419730   4.498   3.166   1.838 -0.1483 -0.0068  0.5337
 5000SOL     OW19731   3.926   2.654   1.613 -0.4189  0.1721  0.2795
 5000SOL    HW219732   3.942   2.563   1.587  0.2537  0.2461  0.4142
 5000SOL    HW319733   3.847   2.679   1.565 -0.2830 -0.3035 -0.2026
 5000SOL    MW419734   3.918   2.645   1.603  0.3746 -0.0649 -0.7053
 5001SOL     OW19735   5.136   0.442   3.183 -0.1117 -0.9141 -0.2964
 5001SOL    HW219736   5.221   0.397   3.182  0.8805  0.8584 -0.5751
 5001SOL    HW319737   5.118   0.461   3.091 -0.1529 -0.1778 -0.1494
 5001SOL    MW419738   5.145   0.439   3.170  0.2488  0.1552  0.0526
 5002SOL     OW19739   3.459   2.184   4.425  0.1941  0.1837 -0.1499
 5002SOL    HW219740   3.385   2.128   4.449  0.2386  0.2822  0.2222
 5002SOL    HW319741   3.497   2.141   4.349 -2.0605  1.7465 -2.2795
 5002SOL    MW419742   3.454   2.171   4.418  0.1236  0.1117  0.2050
 5003SOL     OW19743   2.821   5.936   2.752 -0.3783  0.1779 -0.0244
 5003SOL    HW219744   2.830   6.019   2.799 -0.1180  0.4763 -0.5954
 5003SOL    HW319745   2.855   5.954   2.664 -1.5630 -0.1651 -0.5694
 5003SOL    MW419746   2.827   5.950   2.746 -0.0857  1.0685 -0.1590
 5004SOL     OW19747   2.902   5.507   5.993 -0.2749 -0.1481  0.0351
 5004SOL    HW219748   2.876   5.533   6.081 -0.3004  1.7682 -0.4799
 5004SOL    HW319749   2.821   5.483   5.949 -0.6898  1.7529 -0.3143
 5004SOL    MW419750   2.888   5.507   5.998  0.0672 -0.8438  0.5612
 5005SOL     OW19751   1.597   2.143   3.098  0.2583 -0.1877  0.1226
 5005SOL    HW219752   1.560   2.222   3.138 -0.3626  0.3481 -1.4245
 5005SOL    HW319753   1.664   2.114   3.160  0.1937  1.3002  0.9414
 5005SOL    MW419754   1.601   2.150   3.111  0.3028  0.0913  0.0481
 5006SOL     OW19755   3.787   3.341   5.580 -0.2289 -0.8865 -0.4939
 5006SOL    HW219756   3.732   3.389   5.518 -0.1545 -1.4933 -1.0427
 5006SOL    HW319757   3.839   3.283   5.526 -1.4385 -2.7491  0.2323
 5006SOL    MW419758   3.787   3.340   5.565 -0.2768  0.4559 -0.1892
 5007SOL     OW19759   0.307   3.150   2.360  0.1767  0.6137 -0.6026
 5007SOL    HW219760   0.303   3.212   2.433  0.3811 -0.4103  0.3146
 5007SOL    HW319761   0.243   3.082   2.384  0.8720 -0.1723 -0.9564
 5007SOL    MW419762   0.298   3.149   2.373  0.1272 -0.5379  0.7957
 5008SOL     OW19763   0.622   0.240   2.416 -0.2760  0.3693 -0.2598
 5008SOL    HW219764   0.701   0.293   2.410  0.0790 -0.0450  0.5878
 5008SOL    HW319765   0.564   0.275   2.348 -0.2148  2.1205  0.5353
 5008SOL    MW419766   0.625   0.252   2.406  0.0120 -0.4225 -0.4349
 5009SOL     OW19767   5.116   1.696   1.537 -0.1119  0.6832 -0.3524
 5009SOL    HW219768   5.052   1.625   1.538  0.1273  0.4578 -0.9062
 5009SOL    HW319769   5.200   1.654   1.556  0.4576  0.3605 -3.1112
 5009SOL    MW419770   5.119   1.681   1.540 -0.2777 -0.1856 -0.0379
 5010SOL     OW19771   5.467   6.303   2.643  0.6744 -0.7544  0.0228
 5010SOL    HW219772   5.473   6.353   2.561  0.2067  1.1717  1.0908
 5010SOL    HW319773   5.557   6.276   2.660  0.9283 -0.3750 -0.6548
 5010SOL    MW419774   5.480   6.306   2.634  0.3310  0.6001 -0.0710
 5011SOL     OW19775   0.178   4.557   5.171 -0.9920  0.2084 -0.0457
 5011SOL    HW219776   0.099   4.525   5.128 -0.8997 -1.1357  0.7434
 5011SOL    HW319777   0.248   4.503   5.134 -0.2275  2.1388 -1.5961
 5011SOL    MW419778   0.177   4.546   5.160 -0.0216 -1.0702 -0.1546
 5012SOL     OW19779   2.701   5.058   4.086 -0.4121 -0.3927  0.1808
 5012SOL    HW219780   2.616   5.060   4.130 -0.2621 -0.9860  0.5086
 5012SOL    HW319781   2.764   5.042   4.156 -0.0579 -0.2146 -0.0975
 5012SOL    MW419782   2.698   5.056   4.101  0.2991 -0.7075  0.4115
 5013SOL     OW19783   2.305   3.201   0.332  0.2592 -0.1982  0.3781
 5013SOL    HW219784   2.358   3.186   0.254 -0.3593 -1.7214  0.2134
 5013SOL    HW319785   2.298   3.115   0.374 -0.3871  0.3611  1.4864
 5013SOL    MW419786   2.311   3.188   0.328 -0.1123  0.0111  0.3630
 5014SOL     OW19787   1.712   4.642   6.187 -0.0560 -0.2644  0.2005
 5014SOL    HW219788   1.740   4.619   6.276 -0.6973 -0.1341  0.4431
 5014SOL    HW319789   1.776   4.706   6.158 -0.1304  0.0833  0.7742
 5014SOL    MW419790   1.724   4.647   6.195  0.1567 -0.1382 -0.5426
 5015SOL     OW19791   1.149   2.345   1.324  0.0687 -0.3379  0.1964
 5015SOL    HW219792   1.153   2.312   1.414 -1.4294  0.2128  0.4902
 5015SOL    HW319793   1.230   2.395   1.314  0.7868 -1.3234  0.8520
 5015SOL    MW419794   1.160   2.348   1.335  0.8673 -0.3401  0.0886
 5016SOL     OW19795   1.590   1.784   1.417 -0.5224  0.0213 -0.0117
 5016SOL    HW219796   1.671   1.753   1.377 -0.5497 -0.5420  0.3528
 5016SOL    HW319797   1.611   1.872   1.448 -0.4503  0.3997 -1.0840
 5016SOL    MW419798   1.603   1.791   1.416 -0.7316  0.2323  0.6205
 5017SOL     OW19799   3.342   0.853   2.769  0.3877 -0.0470 -0.0104
 5017SOL    HW219800   3.273   0.823   2.828 -0.1081  1.8800  0.4675
 5017SOL    HW319801   3.424   0.830   2.813  0.0482 -0.6403  0.3309
 5017SOL    MW419802   3.344   0.846   2.782  0.0107 -0.1914 -0.0999
 5018SOL     OW19803   5.486   3.219   5.453 -0.0096  0.1683  0.1572
 5018SOL    HW219804   5.450   3.210   5.364  1.8097 -1.4564 -0.4873
 5018SOL    HW319805   5.471   3.311   5.476 -1.0834  0.4710 -1.5772
 5018SOL    MW419806   5.479   3.230   5.444 -0.1322  0.2643  1.0770
 5019SOL     OW19807   1.142   2.999   4.594  0.0192 -0.5879 -0.6966
 5019SOL    HW219808   1.152   3.087   4.557 -0.0206  0.6059  1.9574
 5019SOL    HW319809   1.048   2.982   4.589  0.1522 -1.0433 -2.3059
 5019SOL    MW419810   1.131   3.008   4.588  0.2726  0.4854 -0.1842
 5020SOL     OW19811   3.683   1.844   3.037 -0.1355  0.5769  0.1748
 5020SOL    HW219812   3.639   1.864   3.119  1.9444  2.6884  0.8558
 5020SOL    HW319813   3.674   1.924   2.985  0.8521  0.1945 -0.6031
 5020SOL    MW419814   3.676   1.857   3.041 -0.1935  0.0009  0.0226
 5021SOL     OW19815   5.321   5.042   2.411  0.1943 -0.4948 -0.0933
 5021SOL    HW219816   5.352   5.132   2.416  1.1055 -0.7999 -0.1014
 5021SOL    HW319817   5.344   5.014   2.323  0.0593 -0.7914 -0.0352
 5021SOL    MW419818   5.328   5.050   2.400  0.2502 -0.4696 -0.1101
 5022SOL     OW19819   3.228   2.727   0.671  0.2551 -0.3159 -0.5442
 5022SOL    HW219820   3.141   2.765   0.659  0.7982  0.4800 -2.2987
 5022SOL    HW319821   3.256   2.703   0.583  1.9010 -0.3683 -0.0373
 5022SOL    MW419822   3.220   2.729   0.658  0.2603  0.3823  0.0131
 5023SOL     OW19823   2.147   1.573   1.585  0.3612 -0.1430  0.1636
 5023SOL    HW219824   2.052   1.574   1.575  0.2795 -0.7482  0.7659
 5023SOL    HW319825   2.167   1.484   1.615  0.9857  0.3186  1.1973
 5023SOL    MW419826   2.137   1.561   1.588  0.2407 -0.7276  0.1072
 5024SOL     OW19827   5.766   1.168   3.851  0.0047  0.5697 -0.2399
 5024SOL    HW219828   5.718   1.157   3.769  1.4719  0.0936 -1.0665
 5024SOL    HW319829   5.776   1.079   3.885  0.8348  0.5853 -0.4111
 5024SOL    MW419830   5.761   1.155   3.844 -0.5419  0.0214 -1.1890
 5025SOL     OW19831   0.206   0.447   4.202  0.0360 -0.0032 -0.4501
 5025SOL    HW219832   0.192   0.507   4.129 -1.5678 -0.5555 -0.6266
 5025SOL    HW319833   0.226   0.503   4.276 -1.8351  0.8028 -0.5106
 5025SOL    MW419834   0.207   0.462   4.202  0.7696 -0.7325  0.5388
 5026SOL     OW19835   2.035   3.051   3.302  0.0820 -0.2033 -0.1994
 5026SOL    HW219836   1.990   3.010   3.229  0.0231  0.1226 -0.3474
 5026SOL    HW319837   2.113   3.090   3.263  0.3554 -0.5374  0.0115
 5026SOL    MW419838   2.039   3.051   3.287  0.0860 -0.8700 -0.0715
 5027SOL     OW19839   3.683   5.162   5.102 -0.0437 -0.3465  0.2046
 5027SOL    HW219840   3.673   5.205   5.186 -0.9419 -1.8082  0.8713
 5027SOL    HW319841   3.732   5.082   5.121  0.9329 -0.0471 -0.8919
 5027SOL    MW419842   3.688   5.157   5.115 -0.1656 -0.4061 -0.4770
 5028SOL     OW19843   1.754   5.999   5.415 -0.3337  0.0925 -0.4556
 5028SOL    HW219844   1.763   6.088   5.380  0.5771  0.2220  0.0858
 5028SOL    HW319845   1.727   5.947   5.339 -0.3977  0.7412 -0.8887
 5028SOL    MW419846   1.752   6.004   5.400 -0.1194 -0.2967  0.9624
 5029SOL     OW19847   4.103   1.360   5.572 -0.0243  0.2514  0.0756
 5029SOL    HW219848   4.138   1.341   5.485 -0.4951 -0.7056  0.0842
 5029SOL    HW319849   4.125   1.284   5.625  0.9518  1.1534  1.0331
 5029SOL    MW419850   4.110   1.348   5.567  0.3762  0.1365  0.1981
 5030SOL     OW19851   4.480   5.463   5.776  0.1818 -0.4851  0.4797
 5030SOL    HW219852   4.537   5.468   5.700  1.0723 -0.7833  1.1050
 5030SOL    HW319853   4.421   5.390   5.757 -0.3954  0.1994 -0.4283
 5030SOL    MW419854   4.480   5.454   5.764 -0.3698 -0.2566  0.3662
 5031SOL     OW19855   2.858   0.226   3.591  0.6990 -0.2517  0.0529
 5031SOL    HW219856   2.892   0.265   3.672  0.5509 -1.8191  0.9079
 5031SOL    HW319857   2.774   0.189   3.616  0.0305  0.3886 -1.1647
 5031SOL    MW419858   2.852   0.226   3.605  0.4170 -0.2331 -0.2243
 5032SOL     OW19859   4.232   1.114   0.974  0.6181  0.2260 -0.1148
 5032SOL    HW219860   4.159   1.053   0.969  0.3144  0.6444 -1.0022
 5032SOL    HW319861   4.294   1.083   0.908  0.3604  0.9934 -0.7336
 5032SOL    MW419862   4.231   1.102   0.964 -0.0139 -0.3746 -0.3571
 5033SOL     OW19863   3.206   2.145   0.904  0.4475 -0.1096  0.5798
 5033SOL    HW219864   3.182   2.194   0.826 -1.4760  0.5537  1.5199
 5033SOL    HW319865   3.288   2.185   0.933  0.8851  0.0019 -0.7550
 5033SOL    MW419866   3.213   2.157   0.898 -0.7715  0.5471 -0.0839
 5034SOL     OW19867   5.621   1.848   0.410 -0.7741  0.1556  0.4906
 5034SOL    HW219868   5.649   1.836   0.501  0.6801  0.7689  0.1451
 5034SOL    HW319869   5.668   1.780   0.362 -0.7156  0.5161  0.0384
 5034SOL    MW419870   5.631   1.837   0.416  0.3392  0.2051  0.3647
 5035SOL     OW19871   2.965   3.701   5.863  0.7964 -0.2501 -1.0856
 5035SOL    HW219872   2.997   3.780   5.906 -1.3494 -0.3595  0.9112
 5035SOL    HW319873   3.042   3.646   5.852  1.5747  0.0466  2.1103
 5035SOL    MW419874   2.979   3.704   5.867  0.3854  0.7398  0.1404
 5036SOL     OW19875   2.233   5.061   0.517 -0.0078 -0.5287  0.4045
 5036SOL    HW219876   2.183   5.134   0.479 -0.7095 -0.5135  1.3289
 5036SOL    HW319877   2.324   5.088   0.508 -0.2733  0.7368  1.2182
 5036SOL    MW419878   2.238   5.074   0.511 -0.3982  0.0300 -0.1800
 5037SOL     OW19879   0.105   0.966   1.275  0.4132 -0.1071 -0.4829
 5037SOL    HW219880   0.028   0.981   1.330 -0.8762  0.5812 -2.3452
 5037SOL    HW319881   0.167   0.920   1.331 -1.0194  0.0917  1.3454
 5037SOL    MW419882   0.103   0.962   1.289 -0.0840  0.1538  0.3096
 5038SOL     OW19883   4.425   5.774   0.846 -0.7032 -0.5406  0.0223
 5038SOL    HW219884   4.383   5.792   0.930 -1.5264 -0.4422 -0.4039
 5038SOL    HW319885   4.453   5.860   0.814 -1.3650 -0.4399 -0.3047
 5038SOL    MW419886   4.423   5.788   0.853  0.9290 -0.1889  0.2117
 5039SOL     OW19887   0.951   3.730   2.228  0.2122 -0.3001 -0.0008
 5039SOL    HW219888   0.924   3.776   2.148  0.1613 -0.7726 -0.2611
 5039SOL    HW319889   0.915   3.642   2.217  1.6208 -0.8664 -0.2206
 5039SOL    MW419890   0.942   3.725   2.216 -0.3406  0.2479  0.3970
 5040SOL     OW19891   1.003   4.538   5.262 -0.3134 -0.2300  0.1620
 5040SOL    HW219892   1.028   4.453   5.226 -0.2946  0.3224 -1.1898
 5040SOL    HW319893   0.908   4.535   5.267 -0.4250  0.1094 -1.1457
 5040SOL    MW419894   0.994   4.526   5.258  0.7116  0.2506  0.3217
 5041SOL     OW19895   0.437   4.257   2.181 -0.7227 -0.6447 -0.5155
 5041SOL    HW219896   0.412   4.344   2.212  0.0847 -0.7028  0.3432
 5041SOL    HW319897   0.525   4.244   2.216 -0.9584 -1.9294 -0.3729
 5041SOL    MW419898   0.445   4.267   2.189  0.0870  0.2882 -0.2289
 5042SOL     OW19899   4.822   0.778   3.032 -0.0607 -0.2715 -0.0716
 5042SOL    HW219900   4.916   0.792   3.032 -0.3780  2.5373  0.3645
 5042SOL    HW319901   4.803   0.744   3.119  0.4265  0.4926  0.3459
 5042SOL    MW419902   4.832   0.775   3.043  0.4961 -0.8166  0.0365
 5043SOL     OW19903   2.563   2.066   6.075 -0.4575  0.1685  0.2901
 5043SOL    HW219904   2.625   2.138   6.059 -0.6668 -0.1296 -2.0972
 5043SOL    HW319905   2.615   2.001   6.123  0.1381  1.2606  1.1895
 5043SOL    MW419906   2.578   2.067   6.079 -0.4147 -0.1732 -0.1255
 5044SOL     OW19907   5.697   1.733   1.287  0.1154  0.0223 -0.0365
 5044SOL    HW219908   5.662   1.805   1.339  1.1991  1.9927 -1.8591
 5044SOL    HW319909   5.786   1.761   1.264  0.5593 -1.8912 -0.8773
 5044SOL    MW419910   5.704   1.746   1.291 -0.8457 -0.6704  0.0812
 5045SOL     OW19911   3.269   5.991   6.309  0.3512  0.2379 -0.2646
 5045SOL    HW219912   3.208   5.926   6.275  0.6685  0.5271 -1.4503
 5045SOL    HW319913   3.273   6.058   6.241 -0.1338  1.6265  1.0065
 5045SOL    MW419914   3.262   5.992   6.296 -0.2315 -0.1009 -0.3604
 5046SOL     OW19915   2.592   3.556   3.374 -0.3181  0.3468  0.0303
 5046SOL    HW219916   2.646   3.529   3.300 -0.0959 -1.3657  0.7593
 5046SOL    HW319917   2.512   3.505   3.364 -0.0351 -0.3723  1.2795
 5046SOL    MW419918   2.589   3.546   3.363  0.0078 -0.0877 -0.3987
 5047SOL     OW19919   3.363   1.649   3.528  0.2319  0.0335 -0.1257
 5047SOL    HW219920   3.447   1.612   3.501  0.8945 -0.0797  1.9275
 5047SOL    HW319921   3.312   1.655   3.447  1.8040 -0.9429 -1.2380
 5047SOL    MW419922   3.367   1.645   3.514 -0.0438 -0.1716  0.5706
 5048SOL     OW19923   1.796   1.902   4.715  0.5094  0.5062  0.0828
 5048SOL    HW219924   1.883   1.863   4.705  0.0355 -0.2136 -1.6836
 5048SOL    HW319925   1.738   1.846   4.664 -1.1384  0.6221  1.6985
 5048SOL    MW419926   1.800   1.890   4.707 -0.6076  0.0883  0.0539
 5049SOL     OW19927   6.424   4.745   4.599  0.3168  0.1980 -0.5962
 5049SOL    HW219928   6.410   4.652   4.620  0.0381  0.1230 -1.0847
 5049SOL    HW319929   6.425   4.789   4.683 -0.7430 -0.0878 -0.4201
 5049SOL    MW419930   6.422   4.738   4.613 -0.2506  0.1438  0.0061
 5050SOL     OW19931   5.719   5.977   4.340  0.6997 -0.1126  0.3447
 5050SOL    HW219932   5.741   6.065   4.371 -2.3127  0.7787  0.3018
 5050SOL    HW319933   5.725   5.983   4.245  1.4368 -0.2568  0.3778
 5050SOL    MW419934   5.723   5.990   4.331  0.2938 -0.2315 -0.4973
 5051SOL     OW19935   3.173   1.849   5.198 -0.3774  0.9667 -0.1860
 5051SOL    HW219936   3.082   1.871   5.215 -0.9270 -1.2845  0.0703
 5051SOL    HW319937   3.176   1.829   5.105  0.0788  1.8604 -0.3815
 5051SOL    MW419938   3.161   1.850   5.188  0.4336 -0.3633 -0.0026
 5052SOL     OW19939   5.729   4.808   2.164  0.2396 -0.2131  0.3022
 5052SOL    HW219940   5.767   4.883   2.209  0.0132 -0.3604  0.7508
 5052SOL    HW319941   5.723   4.741   2.231  1.0651 -0.8663 -0.2556
 5052SOL    MW419942   5.733   4.809   2.179  0.3227  0.2391  0.7305
 5053SOL     OW19943   3.717   0.844   0.786  0.1132  0.0661  0.0757
 5053SOL    HW219944   3.781   0.781   0.818  0.4847  0.5139  0.2301
 5053SOL    HW319945   3.633   0.810   0.817  0.2647 -0.5641 -0.1941
 5053SOL    MW419946   3.714   0.832   0.795  0.2155 -0.0888  0.3630
 5054SOL     OW19947   4.023   4.270   6.310  0.2772 -1.0634  0.1773
 5054SOL    HW219948   4.051   4.182   6.284 -0.2679 -1.4682  0.9219
 5054SOL    HW319949   3.929   4.273   6.292  0.3409 -0.5356 -0.0976
 5054SOL    MW419950   4.015   4.259   6.305  0.2354 -0.9224 -0.4481
 5055SOL     OW19951   0.808   1.809   5.610 -0.4131  0.0855 -0.0140
 5055SOL    HW219952   0.786   1.795   5.703  0.5269  0.4187  0.2644
 5055SOL    HW319953   0.723   1.820   5.567 -0.8243  0.8280  0.9538
 5055SOL    MW419954   0.794   1.809   5.617  0.4547  0.1151 -0.6186
 5056SOL     OW19955   1.308   0.612   2.989  0.1927  0.0417 -0.0090
 5056SOL    HW219956   1.293   0.626   3.082 -0.5948  0.2450 -0.1608
 5056SOL    HW319957   1.224   0.580   2.955 -0.0380  1.5196 -0.9387
 5056SOL    MW419958   1.295   0.610   2.997 -0.3515  0.1838 -0.7066
 5057SOL     OW19959   2.349   3.525   1.051 -0.0772  0.7696 -0.0170
 5057SOL    HW219960   2.382   3.611   1.026 -0.3995  1.1846  0.9005
 5057SOL    HW319961   2.270   3.544   1.102  0.6190  0.0296  1.4301
 5057SOL    MW419962   2.343   3.539   1.055  0.1934 -0.1843  0.2802
 5058SOL     OW19963   0.676   5.955   3.285  0.3381  0.0400  0.2788
 5058SOL    HW219964   0.596   6.007   3.289  0.4714  0.2396  0.3630
 5058SOL    HW319965   0.708   5.965   3.196  1.4029  1.6751  0.8063
 5058SOL    MW419966   0.669   5.963   3.274 -0.3285  0.0040  0.2366
 5059SOL     OW19967   4.865   6.347   1.516 -0.2639 -0.2574  0.0437
 5059SOL    HW219968   4.791   6.316   1.463  0.0171 -1.2814  0.2153
 5059SOL    HW319969   4.942   6.330   1.461 -0.1657  1.0445 -0.2421
 5059SOL    MW419970   4.866   6.340   1.501 -0.3397 -0.1310  0.7425
 5060SOL     OW19971   6.378   4.539   0.413  0.3016  0.7688 -0.2724
 5060SOL    HW219972   6.386   4.578   0.326  1.7618 -0.0938 -0.5526
 5060SOL    HW319973   6.337   4.454   0.397 -1.1397  1.3522  0.1262
 5060SOL    MW419974   6.374   4.533   0.399  0.1631  0.4493  0.8696
 5061SOL     OW19975   3.390   5.351   5.315  0.0409  0.1048 -0.0254
 5061SOL    HW219976   3.408   5.268   5.360 -0.4726  0.7823  1.4675
 5061SOL    HW319977   3.295   5.362   5.321  0.0228  0.4904 -0.8148
 5061SOL    MW419978   3.380   5.341   5.322 -0.3205  0.0434  0.2445
 5062SOL     OW19979   4.975   3.043   0.211  0.0811 -0.1430  0.2604
 5062SOL    HW219980   4.909   3.028   0.279 -1.8504  1.9445 -1.0157
 5062SOL    HW319981   4.959   2.975   0.146 -0.4202 -0.0042  0.2379
 5062SOL    MW419982   4.964   3.032   0.212 -0.0899  0.2411 -0.6594
 5063SOL     OW19983   3.678   5.830   0.861 -0.1542 -0.7851  0.4981
 5063SOL    HW219984   3.718   5.841   0.774  1.0565  1.6309  1.2590
 5063SOL    HW319985   3.597   5.781   0.845 -0.1927 -0.0050 -2.0492
 5063SOL    MW419986   3.673   5.825   0.847 -0.1427 -0.2449  0.4918
 5064SOL     OW19987   5.471   4.663   4.527 -0.3841  0.0648 -0.3619
 5064SOL    HW219988   5.564   4.686   4.531 -0.6265  1.0418 -0.0071
 5064SOL    HW319989   5.453   4.648   4.434 -0.1380  1.0525 -0.5744
 5064SOL    MW419990   5.481   4.664   4.516 -0.2166  0.9599 -0.5520
 5065SOL     OW19991   1.970   3.952   2.761 -0.1261  0.0209  0.4928
 5065SOL    HW219992   1.990   3.909   2.678  2.9086  0.5562  0.8414
 5065SOL    HW319993   2.021   4.033   2.759 -0.8613  0.5844  2.4230
 5065SOL    MW419994   1.979   3.957   2.750 -0.0338 -0.1397  0.2892
 5066SOL     OW19995   4.012   0.668   0.477  0.2380 -0.0165  0.6497
 5066SOL    HW219996   3.988   0.610   0.405 -0.7154  2.5850 -1.2809
 5066SOL    HW319997   3.935   0.724   0.490  2.0695  2.8384  0.2567
 5066SOL    MW419998   3.998   0.668   0.469 -0.0555 -0.3037  0.4149
 5067SOL     OW19999   0.497   6.383   4.240 -0.2489  0.0424 -0.2900
 5067SOL    HW220000   0.421   6.438   4.256 -1.7933 -1.6389 -1.5394
 5067SOL    HW320001   0.492   6.315   4.307  0.6340  0.3789  0.1310
 5067SOL    MW420002   0.487   6.382   4.251  0.2490  0.4756  0.2752
 5068SOL     OW20003   5.186   0.102   2.389 -0.4504  0.5385 -0.0307
 5068SOL    HW220004   5.134   0.174   2.424 -0.5889  1.1289 -1.3930
 5068SOL    HW320005   5.155   0.025   2.436 -0.3899  1.3386  1.3548
 5068SOL    MW420006   5.175   0.101   2.400  0.7019 -0.1538 -0.3070
 5069SOL     OW20007   4.901   4.260   3.493 -0.5508  0.4415 -0.0407
 5069SOL    HW220008   4.903   4.317   3.570 -0.1492 -0.1964  0.4277
 5069SOL    HW320009   4.834   4.298   3.437 -0.8623  0.9046  0.6375
 5069SOL    MW420010   4.892   4.272   3.496 -0.9280  0.0600 -0.4420
 5070SOL     OW20011   4.421   2.713   5.056  0.0867  0.1916  0.6905
 5070SOL    HW220012   4.517   2.708   5.051  0.1959  0.7882  1.9443
 5070SOL    HW320013   4.402   2.715   5.150 -1.1108  0.9605  0.4470
 5070SOL    MW420014   4.431   2.712   5.068 -0.5887 -0.3806 -0.5069
 5071SOL     OW20015   0.644   5.912   5.429 -0.2977  0.1356 -0.5834
 5071SOL    HW220016   0.564   5.934   5.478  0.3253 -0.3955  0.7255
 5071SOL    HW320017   0.617   5.843   5.368 -0.8011 -0.1684 -0.0262
 5071SOL    MW420018   0.630   5.906   5.428 -0.3188 -0.0351  0.0521
 5072SOL     OW20019   1.560   1.541   3.993  0.0819  0.1019  0.1121
 5072SOL    HW220020   1.584   1.460   3.947  0.5904 -0.3257  1.0898
 5072SOL    HW320021   1.602   1.610   3.943 -1.6066 -0.0561 -1.6198
 5072SOL    MW420022   1.569   1.539   3.981  0.6023  0.7341  0.7514
 5073SOL     OW20023   4.904   5.542   1.084 -0.0681 -0.0695 -0.2322
 5073SOL    HW220024   4.963   5.607   1.046 -0.4157  1.4985  1.7497
 5073SOL    HW320025   4.817   5.567   1.052 -0.1177 -0.0004 -0.0436
 5073SOL    MW420026   4.900   5.554   1.075  0.2473  0.0649  0.5655
 5074SOL     OW20027   5.081   2.467   3.157  0.6729 -0.0819  0.1768
 5074SOL    HW220028   5.038   2.402   3.212  1.1966 -1.9168 -1.4619
 5074SOL    HW320029   5.169   2.431   3.142  0.6305  0.4549 -1.6298
 5074SOL    MW420030   5.087   2.454   3.162 -0.1690 -0.1991 -0.9413
 5075SOL     OW20031   1.918   1.600   2.172 -0.2376  0.5818  0.2335
 5075SOL    HW220032   1.975   1.524   2.186  0.0688  0.6057 -0.8008
 5075SOL    HW320033   1.880   1.586   2.086  0.4652  1.9923 -0.3400
 5075SOL    MW420034   1.921   1.588   2.163 -0.2065 -0.1914 -0.0707
 5076SOL     OW20035   5.292   3.952   6.034 -0.2189 -0.0014 -0.2919
 5076SOL    HW220036   5.342   3.980   5.958 -0.2719  1.1384  0.0721
 5076SOL    HW320037   5.202   3.946   6.002 -0.2108  0.2757 -0.3656
 5076SOL    MW420038   5.286   3.955   6.020  1.3609  0.2380 -0.5625
 5077SOL     OW20039   5.434   0.678   5.500  0.2190 -0.0179  0.8392
 5077SOL    HW220040   5.452   0.639   5.414  0.3285  1.3518  0.2104
 5077SOL    HW320041   5.344   0.711   5.492 -0.1115 -0.7130  1.5890
 5077SOL    MW420042   5.424   0.677   5.488 -0.5989  0.2162 -0.5128
 5078SOL     OW20043   5.413   5.593   6.034  0.1323 -0.2620  0.2760
 5078SOL    HW220044   5.395   5.533   6.107 -0.2110  0.9156  1.1870
 5078SOL    HW320045   5.329   5.636   6.018 -0.0421 -1.1787 -1.4791
 5078SOL    MW420046   5.399   5.590   6.042 -0.3542  0.3154  0.3217
 5079SOL     OW20047   3.255   4.897   4.115  0.3211 -0.1589 -0.0982
 5079SOL    HW220048   3.172   4.852   4.096  0.3216 -0.2419  0.0965
 5079SOL    HW320049   3.273   4.876   4.206  0.8701 -0.6416 -0.3145
 5079SOL    MW420050   3.246   4.888   4.124 -0.2745  0.0205  0.0400
 5080SOL     OW20051   5.236   6.154   2.946 -0.0104 -0.5921 -0.1695
 5080SOL    HW220052   5.265   6.110   3.026 -2.0139  1.6650  1.9565
 5080SOL    HW320053   5.144   6.174   2.961 -0.7544 -0.8633 -3.4942
 5080SOL    MW420054   5.228   6.151   2.958  0.6612 -0.2324 -0.4409
 5081SOL     OW20055   5.186   5.022   3.759 -0.2758  0.0704 -0.0169
 5081SOL    HW220056   5.137   5.030   3.677  0.8711  0.4215 -0.6804
 5081SOL    HW320057   5.277   5.013   3.733 -0.0324 -1.3757  1.1776
 5081SOL    MW420058   5.192   5.022   3.745 -0.1016  0.0552  0.3187
 5082SOL     OW20059   5.468   6.249   5.414  0.1169 -0.0456 -0.0037
 5082SOL    HW220060   5.518   6.320   5.456 -0.7443  0.1801  0.6778
 5082SOL    HW320061   5.378   6.265   5.441 -0.2722 -0.6758 -0.8937
 5082SOL    MW420062   5.463   6.261   5.423  0.2853  0.2968 -0.0919
 5083SOL     OW20063   3.484   0.330   3.747 -0.6000  0.0608  0.0293
 5083SOL    HW220064   3.513   0.303   3.660 -3.7170  0.8087 -1.3757
 5083SOL    HW320065   3.528   0.269   3.806 -0.7945 -2.5813 -2.3234
 5083SOL    MW420066   3.493   0.318   3.743 -0.2085 -0.6173  0.4753
 5084SOL     OW20067   0.889   5.678   5.958 -0.1687  0.0744 -0.4389
 5084SOL    HW220068   0.960   5.719   6.008 -1.1882  0.3427  0.8442
 5084SOL    HW320069   0.928   5.598   5.922  0.1168 -1.3296  2.6219
 5084SOL    MW420070   0.903   5.673   5.960 -0.7464  0.3534  0.7890
 5085SOL     OW20071   0.970   5.055   4.208  0.2145 -0.1393 -0.3403
 5085SOL    HW220072   0.937   5.136   4.247  0.7993  0.0165 -0.1427
 5085SOL    HW320073   0.917   5.041   4.130 -1.9171 -1.1813  1.2067
 5085SOL    MW420074   0.959   5.064   4.203  0.0429  0.4775 -0.3390
 5086SOL     OW20075   6.016   1.372   2.666  0.3727  0.1171  0.5618
 5086SOL    HW220076   6.005   1.429   2.590  0.6756 -0.0968  0.3534
 5086SOL    HW320077   6.066   1.425   2.729 -0.6628  0.6187  0.9844
 5086SOL    MW420078   6.021   1.386   2.664 -0.2876  0.4530 -0.1928
 5087SOL     OW20079   0.832   3.121   0.898  0.7252  0.0589  0.2002
 5087SOL    HW220080   0.911   3.071   0.920 -0.2048 -2.7394 -2.1897
 5087SOL    HW320081   0.864   3.210   0.883  3.0856 -0.5445  1.1695
 5087SOL    MW420082   0.847   3.126   0.899  1.0202  0.0313  0.2832
 5088SOL     OW20083   0.257   5.260   1.656 -0.5996  0.2803 -0.5203
 5088SOL    HW220084   0.285   5.350   1.637  3.2044 -0.1209  1.9924
 5088SOL    HW320085   0.309   5.206   1.597 -1.1945 -0.3543 -0.4688
 5088SOL    MW420086   0.267   5.265   1.646 -0.4220  0.1688 -0.8695
 5089SOL     OW20087   5.927   1.392   6.007 -0.1525 -0.6728  0.4113
 5089SOL    HW220088   5.905   1.414   5.916  0.0484  2.1881  0.9384
 5089SOL    HW320089   6.005   1.337   5.999  1.6461  1.8529 -1.2163
 5089SOL    MW420090   5.935   1.388   5.994  0.6355 -0.1573  0.1738
 5090SOL     OW20091   6.421   1.588   1.419 -0.2214 -0.2199  0.7049
 5090SOL    HW220092   6.479   1.600   1.344  0.2502 -1.0132  0.9276
 5090SOL    HW320093   6.368   1.511   1.397 -1.1379  0.4433  0.5430
 5090SOL    MW420094   6.422   1.579   1.406 -0.4628 -0.2525 -0.2275
 5091SOL     OW20095   5.040   4.524   2.567 -0.0017  0.8069  0.5185
 5091SOL    HW220096   5.015   4.487   2.482  1.2595  0.8574  0.1011
 5091SOL    HW320097   4.991   4.473   2.631 -1.3500  1.0955 -0.2603
 5091SOL    MW420098   5.031   4.512   2.564  0.1331  0.0893 -0.3874
 5092SOL     OW20099   3.336   5.891   4.151 -0.3290 -0.3975  0.0026
 5092SOL    HW220100   3.324   5.812   4.098  2.7333 -0.0345 -1.4603
 5092SOL    HW320101   3.329   5.860   4.242  1.3875 -2.5522 -0.5050
 5092SOL    MW420102   3.334   5.877   4.156  0.1856  0.1299  0.0376
 5093SOL     OW20103   2.372   0.393   1.509  0.3123  0.6572  0.2354
 5093SOL    HW220104   2.458   0.415   1.544  0.8806 -0.7201 -0.1991
 5093SOL    HW320105   2.316   0.384   1.586  1.1933 -0.8936  0.7425
 5093SOL    MW420106   2.376   0.395   1.524  0.0182  0.1863  0.4394
 5094SOL     OW20107   1.721   2.775   2.940  0.4139  0.3237 -0.1888
 5094SOL    HW220108   1.750   2.698   2.892  3.3616  1.4660 -0.4601
 5094SOL    HW320109   1.738   2.754   3.032 -1.3267 -0.3183  0.0062
 5094SOL    MW420110   1.727   2.762   2.946  0.7278  0.4872  0.4407
 5095SOL     OW20111   3.134   0.197   4.530 -0.1898 -0.4122  0.2738
 5095SOL    HW220112   3.229   0.199   4.521 -0.1637  0.9795  0.5737
 5095SOL    HW320113   3.104   0.144   4.456  0.7625  0.1612 -0.5556
 5095SOL    MW420114   3.143   0.190   4.519 -0.4836 -0.1466 -1.1247
 5096SOL     OW20115   5.880   6.259   0.729  0.5168 -0.0502 -0.0517
 5096SOL    HW220116   5.921   6.208   0.660 -0.3783  0.4891 -1.0077
 5096SOL    HW320117   5.849   6.338   0.686 -0.2181  0.2246  0.9320
 5096SOL    MW420118   5.881   6.263   0.714 -0.0932 -0.1160 -0.0756
 5097SOL     OW20119   0.279   0.165   5.372  0.0547  0.0961  0.2201
 5097SOL    HW220120   0.243   0.077   5.387 -0.3539  0.2906  0.3752
 5097SOL    HW320121   0.214   0.209   5.318  1.1294 -0.3090 -1.4499
 5097SOL    MW420122   0.266   0.159   5.367 -0.4524 -0.4820  0.1367
 5098SOL     OW20123   0.637   5.760   2.511  0.1358  0.1506 -0.0830
 5098SOL    HW220124   0.707   5.739   2.573 -1.0164  2.2307  2.1554
 5098SOL    HW320125   0.618   5.853   2.528 -3.4554 -0.4167 -0.1579
 5098SOL    MW420126   0.643   5.770   2.522 -0.2960 -0.1129  0.4870
 5099SOL     OW20127   5.526   5.012   1.925  0.5355  0.2923 -0.3108
 5099SOL    HW220128   5.534   4.917   1.924  0.1534  0.2612 -1.3076
 5099SOL    HW320129   5.456   5.031   1.862  2.6211  1.4247 -2.4380
 5099SOL    MW420130   5.518   5.002   1.917  0.2819 -0.5720  0.2939
 5100SOL     OW20131   2.255   1.285   5.538  0.8819 -0.2418  0.0570
 5100SOL    HW220132   2.255   1.220   5.609 -0.5884  0.1926  0.4856
 5100SOL    HW320133   2.268   1.369   5.583 -1.2254  0.1650 -0.0137
 5100SOL    MW420134   2.257   1.287   5.554 -0.1996  0.0449 -0.2321
 5101SOL     OW20135   3.350   1.097   4.282  0.1922  0.0562  0.0142
 5101SOL    HW220136   3.328   1.070   4.372  0.4837  1.2798  0.4694
 5101SOL    HW320137   3.265   1.118   4.243  0.1272  0.2611  0.2586
 5101SOL    MW420138   3.336   1.096   4.289 -0.2419 -0.5488 -0.3656
 5102SOL     OW20139   1.812   4.484   1.228  0.0172 -0.0040 -0.2555
 5102SOL    HW220140   1.726   4.443   1.223  0.5609 -1.0616 -1.3127
 5102SOL    HW320141   1.870   4.423   1.183  1.0945  1.3126 -0.7084
 5102SOL    MW420142   1.808   4.471   1.222 -0.1470 -0.3596 -0.6521
 5103SOL     OW20143   0.135   4.328   4.336 -0.4167 -0.1333 -0.5652
 5103SOL    HW220144   0.097   4.347   4.251 -0.5948  0.2111 -0.4118
 5103SOL    HW320145   0.229   4.343   4.325 -0.3916 -0.4519 -0.7982
 5103SOL    MW420146   0.142   4.332   4.324  0.2211 -0.4361 -0.1573
 5104SOL     OW20147   3.816   2.970   5.353 -0.0619 -0.0984 -0.0888
 5104SOL    HW220148   3.747   2.963   5.419 -0.4149 -0.8803 -0.5260
 5104SOL    HW320149   3.872   2.894   5.369  0.4598  0.2993 -0.0119
 5104SOL    MW420150   3.814   2.959   5.364  0.3430 -0.4413 -0.1365
 5105SOL     OW20151   4.159   1.110   4.416  0.3308 -0.3917  0.2410
 5105SOL    HW220152   4.093   1.139   4.479  1.5528  2.7723  0.2182
 5105SOL    HW320153   4.111   1.104   4.333 -0.4029 -0.4391  0.6534
 5105SOL    MW420154   4.144   1.113   4.414 -0.7255  0.2759  0.3097
 5106SOL     OW20155   3.417   0.214   3.132  0.2697 -0.3338  0.4795
 5106SOL    HW220156   3.372   0.140   3.174 -0.6015 -0.6248 -0.8888
 5106SOL    HW320157   3.505   0.212   3.168  0.6711 -2.8332 -0.3906
 5106SOL    MW420158   3.423   0.204   3.142  0.4267  0.1530 -0.1210
 5107SOL     OW20159   5.338   3.521   2.970  0.4354  0.0091  0.1446
 5107SOL    HW220160   5.251   3.503   2.936  0.4734  0.2650 -0.0919
 5107SOL    HW320161   5.393   3.452   2.932  0.1586 -0.7713  1.1071
 5107SOL    MW420162   5.334   3.509   2.961  0.8106 -0.1287  1.0227
 5108SOL     OW20163   1.564   3.503   0.895 -0.4404  0.0575  0.3614
 5108SOL    HW220164   1.479   3.468   0.918 -0.7438  0.8693  0.4996
 5108SOL    HW320165   1.548   3.595   0.874  0.8402  1.1504  3.5174
 5108SOL    MW420166   1.551   3.510   0.895 -0.4995 -0.0201 -0.2153
 5109SOL     OW20167   0.810   3.577   1.620  0.1413  0.5723  0.2972
 5109SOL    HW220168   0.738   3.623   1.662  0.3865  1.5081 -0.2838
 5109SOL    HW320169   0.778   3.556   1.533 -0.4469 -1.5548  0.9564
 5109SOL    MW420170   0.796   3.580   1.614 -0.6590  0.0452  0.1292
 5110SOL     OW20171   5.412   5.857   0.357 -0.8457  0.2676 -0.3373
 5110SOL    HW220172   5.479   5.924   0.374  0.3342 -1.4885  2.6589
 5110SOL    HW320173   5.449   5.804   0.286  0.1374  0.3438  0.1074
 5110SOL    MW420174   5.426   5.859   0.350 -0.0884  0.1193 -0.2413
 5111SOL     OW20175   4.125   5.446   0.279  0.4915  0.1470  0.4444
 5111SOL    HW220176   4.178   5.518   0.246 -1.1648  0.6626 -1.2676
 5111SOL    HW320177   4.146   5.373   0.221  0.2375  0.0005  0.5392
 5111SOL    MW420178   4.135   5.446   0.267  0.2697  0.8306  0.0837
 5112SOL     OW20179   0.494   4.204   4.692  0.2773 -0.5756  0.0494
 5112SOL    HW220180   0.405   4.196   4.657  0.7921  0.7739 -1.7177
 5112SOL    HW320181   0.551   4.173   4.622  1.2193 -2.2944  1.4981
 5112SOL    MW420182   0.489   4.199   4.678  0.3402 -0.4489 -0.5732
 5113SOL     OW20183   2.187   6.297   0.867 -0.1735 -0.1696  0.4788
 5113SOL    HW220184   2.206   6.303   0.773 -1.4214  0.6819  0.2487
 5113SOL    HW320185   2.271   6.276   0.907  0.7762  1.2389 -0.6584
 5113SOL    MW420186   2.200   6.295   0.860  0.1323  0.2156 -0.0404
 5114SOL     OW20187   1.608   5.036   0.077  0.3496  0.2319  0.5845
 5114SOL    HW220188   1.571   4.997  -0.002 -0.1346  0.0453  0.9013
 5114SOL    HW320189   1.549   5.010   0.147 -0.0340  1.5948  0.8031
 5114SOL    MW420190   1.595   5.028   0.076  0.0017 -0.1776  0.0856
 5115SOL     OW20191   2.496   0.474   1.262 -0.2301 -0.7727 -0.1846
 5115SOL    HW220192   2.433   0.482   1.333 -0.3061  0.0724 -0.3295
 5115SOL    HW320193   2.546   0.556   1.265  0.4837 -1.1870 -0.4287
 5115SOL    MW420194   2.495   0.486   1.272 -0.4935  0.4998  0.1849
 5116SOL     OW20195   0.895   1.391   5.018  0.0368 -0.0008 -0.1176
 5116SOL    HW220196   0.968   1.448   5.042  0.5444 -0.6088 -0.1792
 5116SOL    HW320197   0.822   1.423   5.069  1.0910 -1.2773  2.3561
 5116SOL    MW420198   0.895   1.403   5.028  0.1188 -0.4402  0.3239
 5117SOL     OW20199   3.287   3.983   5.348 -0.0183  0.1142 -0.9264
 5117SOL    HW220200   3.367   4.008   5.303 -0.2844 -0.2832 -1.6203
 5117SOL    HW320201   3.317   3.952   5.434  0.5485  0.1718 -1.0979
 5117SOL    MW420202   3.302   3.982   5.354  0.6411  0.2667 -0.0837
 5118SOL     OW20203   5.166   3.088   2.533 -0.1639  0.3513 -0.8247
 5118SOL    HW220204   5.125   3.159   2.482  1.2221  1.4037 -0.5481
 5118SOL    HW320205   5.253   3.122   2.555  1.0222 -1.9091 -1.6934
 5118SOL    MW420206   5.172   3.102   2.529 -0.2011 -0.9485  0.1720
 5119SOL     OW20207   4.868   5.799   3.488 -0.0593  0.0382  0.4787
 5119SOL    HW220208   4.916   5.753   3.420  0.7833  1.0753  0.3363
 5119SOL    HW320209   4.816   5.732   3.532 -0.2602 -0.7155 -0.8842
 5119SOL    MW420210   4.867   5.784   3.485 -0.0824  0.0742  0.0369
 5120SOL     OW20211   1.023   5.294   4.585 -0.0823 -1.2004  0.6184
 5120SOL    HW220212   1.004   5.301   4.491 -1.5239  1.5845  1.0154
 5120SOL    HW320213   1.099   5.351   4.599 -0.2469 -1.1174  1.2153
 5120SOL    MW420214   1.030   5.303   4.575 -0.4465 -0.5562  0.4382
 5121SOL     OW20215   2.814   4.554   1.699 -0.2577  0.1117 -0.1767
 5121SOL    HW220216   2.777   4.638   1.671 -0.7616 -0.5346 -1.5634
 5121SOL    HW320217   2.812   4.557   1.794 -0.4980  1.5702 -0.2030
 5121SOL    MW420218   2.809   4.566   1.708  0.2779 -0.4424  0.3391
 5122SOL     OW20219   2.888   4.669   5.114 -0.0427 -0.0630  0.0856
 5122SOL    HW220220   2.982   4.651   5.110 -0.2618 -1.5793  1.0493
 5122SOL    HW320221   2.869   4.710   5.030  0.9289 -2.5779 -1.4846
 5122SOL    MW420222   2.898   4.672   5.103  0.1712  0.3186 -0.1832
 5123SOL     OW20223   0.993   6.185   3.059 -0.1115  0.0639  0.5904
 5123SOL    HW220224   0.946   6.101   3.059  0.6322 -0.3746  1.4461
 5123SOL    HW320225   0.976   6.222   3.145  1.0293 -0.0649  0.8840
 5123SOL    MW420226   0.985   6.179   3.070 -0.2180 -0.3958 -0.2618
 5124SOL     OW20227   4.982   6.251   4.865  0.0032  0.2763  0.1814
 5124SOL    HW220228   5.003   6.335   4.906  0.6889 -1.1135  2.9658
 5124SOL    HW320229   5.040   6.246   4.790  2.8232  0.7162  2.1730
 5124SOL    MW420230   4.992   6.262   4.861  0.1611  0.0982  0.0846
 5125SOL     OW20231   0.511   4.783   6.093  0.1397  0.0315 -0.4915
 5125SOL    HW220232   0.597   4.761   6.056  0.9248 -1.1782  1.8551
 5125SOL    HW320233   0.453   4.715   6.059  0.8586 -1.1072  0.4883
 5125SOL    MW420234   0.515   4.771   6.083  0.5138  0.1465 -0.4955
 5126SOL     OW20235   1.249   2.852   3.474 -0.3273 -0.0098  0.4141
 5126SOL    HW220236   1.324   2.830   3.530 -0.4266 -1.0692  0.1575
 5126SOL    HW320237   1.288   2.874   3.390 -0.2926 -0.5050  0.2969
 5126SOL    MW420238   1.264   2.852   3.471  0.1882  0.6266  0.0369
 5127SOL     OW20239   4.420   1.797   5.179  0.2687  0.2522 -0.4409
 5127SOL    HW220240   4.507   1.778   5.144  1.5961  0.8413  2.2808
 5127SOL    HW320241   4.408   1.735   5.251 -1.3769  0.5070 -0.4436
 5127SOL    MW420242   4.429   1.786   5.184 -0.0244 -0.2610  0.0822
 5128SOL     OW20243   2.768   1.462   6.226  0.0464  0.1720 -0.2060
 5128SOL    HW220244   2.712   1.420   6.161 -0.2476  1.6978 -0.9806
 5128SOL    HW320245   2.832   1.395   6.249  1.7415  0.2464 -3.9418
 5128SOL    MW420246   2.769   1.448   6.220  0.0180 -0.4903  0.0009
 5129SOL     OW20247   3.936   5.069   0.428 -0.0504 -0.3902 -0.3768
 5129SOL    HW220248   3.992   5.127   0.480 -1.5337  0.6901  0.0677
 5129SOL    HW320249   3.939   4.985   0.474  0.1715  0.0282  0.3831
 5129SOL    MW420250   3.944   5.065   0.441  0.3190  0.0352  0.0689
 5130SOL     OW20251   2.072   3.418   0.808 -0.3214  0.4434 -0.6135
 5130SOL    HW220252   2.152   3.368   0.826 -0.8005  0.3391  1.5474
 5130SOL    HW320253   2.012   3.353   0.770 -1.2181 -1.0696  2.8882
 5130SOL    MW420254   2.075   3.403   0.806 -0.2586 -0.2413  0.3270
 5131SOL     OW20255   2.502   2.281   3.356  0.0705 -0.0780  0.0024
 5131SOL    HW220256   2.440   2.345   3.390 -0.7416 -0.0703 -1.4034
 5131SOL    HW320257   2.564   2.332   3.304  0.3941 -0.2418  0.2292
 5131SOL    MW420258   2.502   2.296   3.353 -0.0876  0.6231  0.6794
 5132SOL     OW20259   2.405   1.828   1.476  0.9423 -0.0383  0.1954
 5132SOL    HW220260   2.373   1.912   1.442 -0.3134 -0.9623 -1.0422
 5132SOL    HW320261   2.356   1.816   1.558  0.7814  0.2290  0.1408
 5132SOL    MW420262   2.394   1.838   1.482 -0.1136 -0.1055  0.5960
 5133SOL     OW20263   1.170   3.566   4.199 -0.0998 -0.0545 -0.5278
 5133SOL    HW220264   1.176   3.660   4.218  0.9177 -0.2047 -0.0482
 5133SOL    HW320265   1.078   3.545   4.213 -0.1366  0.6611  0.3971
 5133SOL    MW420266   1.159   3.576   4.203 -0.4088  0.3069 -0.1099
 5134SOL     OW20267   4.891   0.837   6.394 -0.2144  0.1045  0.8116
 5134SOL    HW220268   4.838   0.761   6.374 -3.3499  2.3135 -0.0894
 5134SOL    HW320269   4.867   0.860   6.484 -1.4653  1.5265  0.1595
 5134SOL    MW420270   4.881   0.830   6.403 -0.0157 -0.0461  0.0522
 5135SOL     OW20271   6.180   2.245   1.967  0.1913 -0.7222 -0.7423
 5135SOL    HW220272   6.151   2.301   2.039  0.9343 -2.0213  0.6061
 5135SOL    HW320273   6.212   2.307   1.901 -0.8140  0.5133 -0.1405
 5135SOL    MW420274   6.180   2.261   1.967 -0.0204  0.1327  0.1206
 5136SOL     OW20275   0.210   0.645   4.033 -0.1392 -0.1000  0.2418
 5136SOL    HW220276   0.300   0.656   4.003  0.1940  0.7221  1.4627
 5136SOL    HW320277   0.157   0.657   3.954  0.7063  1.7757 -0.1122
 5136SOL    MW420278   0.215   0.648   4.019  0.5935 -0.0586 -0.0510
 5137SOL     OW20279   3.347   5.239   1.132  0.3932 -0.7941  0.3442
 5137SOL    HW220280   3.295   5.234   1.052  1.2016 -0.5945 -0.2069
 5137SOL    HW320281   3.408   5.311   1.116  0.5273 -0.7225  1.1644
 5137SOL    MW420282   3.348   5.248   1.119 -0.5415  0.1547 -0.0148
 5138SOL     OW20283   5.041   1.135   6.333 -0.6397 -0.2985 -0.7622
 5138SOL    HW220284   5.010   1.221   6.306  0.8266  0.9906  1.3217
 5138SOL    HW320285   5.082   1.098   6.255  1.0295  2.0523 -1.0953
 5138SOL    MW420286   5.042   1.142   6.319 -0.0998  0.3913 -0.2651
 5139SOL     OW20287   6.270   5.102   5.410  1.0097 -0.3362 -0.4660
 5139SOL    HW220288   6.280   5.029   5.471 -0.9461 -1.8959 -1.8692
 5139SOL    HW320289   6.354   5.106   5.364  0.7594 -2.6937 -1.3109
 5139SOL    MW420290   6.283   5.093   5.412  0.1563 -0.1431  0.2783
 5140SOL     OW20291   5.516   2.567   1.229 -0.1466 -0.7121  0.3027
 5140SOL    HW220292   5.453   2.538   1.295  0.8975  0.0090  1.6847
 5140SOL    HW320293   5.485   2.529   1.147 -1.4502 -1.7095  1.2199
 5140SOL    MW420294   5.504   2.558   1.227  0.2208  0.4863 -0.0981
 5141SOL     OW20295   1.732   0.263   0.989  0.3353 -0.5843  0.0422
 5141SOL    HW220296   1.745   0.330   0.922 -1.9452  0.7785  0.8644
 5141SOL    HW320297   1.800   0.281   1.054 -0.1738  0.8889  0.1994
 5141SOL    MW420298   1.743   0.274   0.988  0.2199 -0.0427  0.1240
 5142SOL     OW20299   2.281   6.111   3.325  0.6081  0.2285 -0.5998
 5142SOL    HW220300   2.351   6.056   3.291  0.4387  0.9461 -2.1626
 5142SOL    HW320301   2.237   6.055   3.390  0.1043 -1.7167 -2.4902
 5142SOL    MW420302   2.284   6.096   3.329 -0.4915 -0.1108 -0.1145
 5143SOL     OW20303   0.945   5.291   1.136  0.3514 -0.0836  0.0607
 5143SOL    HW220304   0.948   5.195   1.131  0.6180 -0.0242 -1.7785
 5143SOL    HW320305   0.856   5.311   1.164  0.7841 -0.8606  2.2177
 5143SOL    MW420306   0.934   5.281   1.139  0.4456  0.4961  0.5890
 5144SOL     OW20307   0.601   1.163   5.097 -0.1048 -0.0287  0.1398
 5144SOL    HW220308   0.661   1.141   5.026  0.6418  1.7515  0.1709
 5144SOL    HW320309   0.615   1.095   5.162  0.4185 -0.7527 -0.7089
 5144SOL    MW420310   0.611   1.151   5.096  0.2694 -0.1510 -0.1973
 5145SOL     OW20311   0.497   6.248   2.573 -0.0628  0.7848  0.1686
 5145SOL    HW220312   0.492   6.285   2.484 -0.1361 -1.0731 -0.6440
 5145SOL    HW320313   0.484   6.323   2.631 -2.1156  1.7596 -1.4186
 5145SOL    MW420314   0.495   6.263   2.569 -0.4061 -0.3706 -0.6045
 5146SOL     OW20315   0.609   3.421   6.284  0.1760 -0.2704 -0.3098
 5146SOL    HW220316   0.600   3.332   6.316 -2.3813  0.4111  1.1718
 5146SOL    HW320317   0.689   3.454   6.325 -0.9429 -0.6863  2.4093
 5146SOL    MW420318   0.618   3.414   6.293  0.0801 -0.1460 -0.0303
 5147SOL     OW20319   4.059   2.362   0.225 -0.2975 -0.1885  0.3382
 5147SOL    HW220320   4.096   2.276   0.246  1.4470  0.2781 -0.6254
 5147SOL    HW320321   4.009   2.348   0.145  0.6550 -0.1679 -0.2717
 5147SOL    MW420322   4.057   2.349   0.217 -0.9493  0.1165  0.0933
 5148SOL     OW20323   0.238   0.253   3.894  0.1770  0.0740  0.4071
 5148SOL    HW220324   0.168   0.263   3.959 -1.0426 -0.1690 -0.8102
 5148SOL    HW320325   0.210   0.308   3.820  0.9602 -0.5191 -0.3523
 5148SOL    MW420326   0.225   0.262   3.893  0.1740  0.1677  0.4653
 5149SOL     OW20327   4.253   4.239   5.323  0.3162  0.1269  0.2695
 5149SOL    HW220328   4.261   4.215   5.231  0.5028 -0.5614  0.4524
 5149SOL    HW320329   4.161   4.220   5.345 -0.2472  2.0967 -0.2466
 5149SOL    MW420330   4.242   4.233   5.314 -0.3749  0.1809 -0.2496
 5150SOL     OW20331   2.808   2.583   0.520  0.1339 -0.4333 -0.4423
 5150SOL    HW220332   2.761   2.540   0.591 -1.5761 -0.6915 -1.6657
 5150SOL    HW320333   2.870   2.517   0.489  0.2377 -0.6424  0.1971
 5150SOL    MW420334   2.810   2.569   0.525  0.2928  0.0035  0.8250
 5151SOL     OW20335   6.382   5.687   3.929 -0.8327 -0.4654  0.0992
 5151SOL    HW220336   6.389   5.599   3.966 -2.8272 -0.4496  0.6382
 5151SOL    HW320337   6.433   5.742   3.988 -0.8012 -1.0382  0.6153
 5151SOL    MW420338   6.389   5.683   3.941  0.4235 -0.2884 -0.1524
 5152SOL     OW20339   3.926   3.405   1.833 -0.0139 -0.6732  0.5190
 5152SOL    HW220340   3.892   3.494   1.829  0.2791 -0.5514  0.6944
 5152SOL    HW320341   3.849   3.350   1.841 -0.2297 -0.4793 -0.2017
 5152SOL    MW420342   3.912   3.410   1.834  0.9023 -0.0025  0.0539
 5153SOL     OW20343   1.120   3.364   3.855  0.1850  0.5076  0.4135
 5153SOL    HW220344   1.151   3.315   3.778  1.3305  1.7794  0.0383
 5153SOL    HW320345   1.151   3.312   3.929  1.3474  0.6062  0.0211
 5153SOL    MW420346   1.128   3.350   3.855  0.2382  0.3350 -0.6760
 5154SOL     OW20347   0.104   2.126   5.069  0.0762  0.5329  0.1464
 5154SOL    HW220348   0.065   2.090   4.990 -2.3902 -1.1049  1.9296
 5154SOL    HW320349   0.043   2.194   5.097 -0.0342 -0.0706  1.4676
 5154SOL    MW420350   0.090   2.130   5.063  0.3673 -0.4671 -0.4027
 5155SOL     OW20351   1.830   5.917   4.539 -0.2265 -0.0844 -0.1321
 5155SOL    HW220352   1.836   6.006   4.505  0.5322 -0.3251 -0.6589
 5155SOL    HW320353   1.741   5.889   4.518 -0.1219  0.1694 -0.9368
 5155SOL    MW420354   1.819   5.925   4.532  0.2574  0.5822  0.2167
 5156SOL     OW20355   2.210   5.170   3.911 -0.1380  0.7250  0.2678
 5156SOL    HW220356   2.248   5.225   3.979  0.0780  0.9602 -0.0398
 5156SOL    HW320357   2.283   5.119   3.877 -0.1085  1.0879 -0.2385
 5156SOL    MW420358   2.225   5.171   3.915  0.4347  0.2384  0.6912
 5157SOL     OW20359   0.445   5.443   0.578  0.7604  0.5396  0.3135
 5157SOL    HW220360   0.391   5.449   0.499  1.6394  0.4985 -0.3130
 5157SOL    HW320361   0.531   5.417   0.546  1.3121  1.1882  1.2145
 5157SOL    MW420362   0.449   5.440   0.563 -0.6158  0.2497 -0.2250
 5158SOL     OW20363   1.101   3.064   3.242  0.4190  0.6593  0.3742
 5158SOL    HW220364   1.140   2.983   3.210  0.3747  0.3839  1.0175
 5158SOL    HW320365   1.007   3.045   3.247  0.3784  0.8327  0.2816
 5158SOL    MW420366   1.094   3.051   3.238  0.1986  0.5199  0.0650
 5159SOL     OW20367   6.236   5.988   0.540  0.2170 -0.2658  0.0377
 5159SOL    HW220368   6.150   6.028   0.534 -1.6427 -3.5646  2.0406
 5159SOL    HW320369   6.272   6.021   0.623  0.2708 -0.0168 -0.0829
 5159SOL    MW420370   6.230   5.998   0.550  0.2462 -0.6092  0.3991
 5160SOL     OW20371   4.991   1.405   5.605  0.1416  0.6270  0.0111
 5160SOL    HW220372   5.010   1.465   5.677  0.2318 -0.3135  0.7965
 5160SOL    HW320373   4.971   1.322   5.648  0.5119 -0.0439 -1.0654
 5160SOL    MW420374   4.991   1.402   5.620 -0.4955 -0.2686  0.0013
 5161SOL     OW20375   0.745   5.304   3.236 -0.0519 -0.2854 -0.1189
 5161SOL    HW220376   0.745   5.358   3.315  1.5202 -0.0858 -0.2201
 5161SOL    HW320377   0.799   5.228   3.260 -1.4308 -1.3447 -0.2919
 5161SOL    MW420378   0.752   5.301   3.250 -0.0406 -0.8234 -0.0296
 5162SOL     OW20379   3.551   1.587   0.009 -0.1841  0.1597  0.7242
 5162SOL    HW220380   3.505   1.505  -0.009 -0.2539  0.3444  0.0263
 5162SOL    HW320381   3.483   1.653   0.013  0.0324  0.4874 -0.6519
 5162SOL    MW420382   3.536   1.585   0.007  0.0298  0.1847  0.8041
 5163SOL     OW20383   2.458   0.937   5.675 -0.6265  0.5204  0.0128
 5163SOL    HW220384   2.488   0.909   5.761  1.5317  0.0992 -0.7920
 5163SOL    HW320385   2.461   0.857   5.621 -1.3022  0.9021 -0.6153
 5163SOL    MW420386   2.463   0.922   5.679  0.6897  0.3030  0.0498
 5164SOL     OW20387   3.532   4.248   0.345 -0.7299 -0.3857 -0.4313
 5164SOL    HW220388   3.540   4.343   0.331  0.6517 -0.3881  0.0894
 5164SOL    HW320389   3.448   4.224   0.307  0.0644  0.6019 -2.9927
 5164SOL    MW420390   3.522   4.257   0.338  0.0731  0.1119 -0.5242
 5165SOL     OW20391   6.255   5.819   2.596  0.0852 -0.1884  0.0842
 5165SOL    HW220392   6.189   5.866   2.647 -0.1755 -0.3777 -0.0767
 5165SOL    HW320393   6.311   5.778   2.663  0.9127  1.1406  0.2416
 5165SOL    MW420394   6.254   5.820   2.612  0.6146  0.4720  0.5541
 5166SOL     OW20395   0.033   6.064   2.165  0.4698  0.0819 -0.1881
 5166SOL    HW220396  -0.007   6.040   2.249  0.5515  0.0866 -0.1470
 5166SOL    HW320397   0.115   6.013   2.163 -0.8266 -2.1139 -1.5166
 5166SOL    MW420398   0.039   6.054   2.176 -0.1479  0.4328 -0.5089
 5167SOL     OW20399   1.639   2.032   6.195 -0.6990  0.1301  0.0369
 5167SOL    HW220400   1.553   1.991   6.198 -0.3360 -0.6761 -0.2146
 5167SOL    HW320401   1.623   2.119   6.156 -1.2865 -0.3066 -0.7316
 5167SOL    MW420402   1.626   2.038   6.190 -0.3797 -0.5032 -0.0461
 5168SOL     OW20403   1.542   4.862   1.268  0.2774  0.5540  0.3389
 5168SOL    HW220404   1.623   4.840   1.314  0.7393  0.8067 -0.3470
 5168SOL    HW320405   1.533   4.794   1.201 -0.9501 -0.4299  1.4444
 5168SOL    MW420406   1.551   4.850   1.265  0.6240 -0.1161  0.3059
 5169SOL     OW20407   4.354   1.966   3.452  0.4008  0.4381 -0.4372
 5169SOL    HW220408   4.426   1.961   3.514  0.2336  1.6655 -0.1094
 5169SOL    HW320409   4.386   2.023   3.382  0.1744  0.0212 -0.8855
 5169SOL    MW420410   4.367   1.973   3.451  0.1483 -0.0533  0.3310
 5170SOL     OW20411   4.128   1.550   5.155 -0.3145  0.0688 -0.0187
 5170SOL    HW220412   4.037   1.533   5.181 -1.3436  0.7755 -2.7806
 5170SOL    HW320413   4.154   1.471   5.106 -0.9388  1.3596 -2.6378
 5170SOL    MW420414   4.119   1.537   5.152  0.6351  0.1866 -0.0431
 5171SOL     OW20415   3.700   3.834   4.065 -0.4668  0.7276  0.4304
 5171SOL    HW220416   3.628   3.787   4.109  0.4885 -0.1960  1.0593
 5171SOL    HW320417   3.761   3.854   4.135  0.7242 -0.0871 -0.3371
 5171SOL    MW420418   3.698   3.830   4.080 -0.4423 -0.5861  0.3793
 5172SOL     OW20419   1.317   2.693   5.231  0.1829  0.3179  0.4484
 5172SOL    HW220420   1.329   2.606   5.192 -1.7019  0.2606 -0.1057
 5172SOL    HW320421   1.406   2.725   5.245  0.9304 -1.5876  0.4266
 5172SOL    MW420422   1.330   2.686   5.228 -0.0772 -0.3329 -0.1918
 5173SOL     OW20423   4.345   5.378   1.758 -0.1770  0.2285 -0.2773
 5173SOL    HW220424   4.265   5.329   1.742  0.4396 -0.7995 -0.2987
 5173SOL    HW320425   4.315   5.464   1.788 -1.2803 -0.6443  1.2539
 5173SOL    MW420426   4.331   5.383   1.760  0.4750  0.2291 -0.2361
 5174SOL     OW20427   5.063   5.772   1.900  0.3744 -0.3309 -0.1895
 5174SOL    HW220428   5.072   5.809   1.813 -0.2823  0.5322  0.0994
 5174SOL    HW320429   5.047   5.679   1.885  1.3525 -0.3968 -0.9403
 5174SOL    MW420430   5.062   5.764   1.886 -0.1044 -0.2103  0.2129
 5175SOL     OW20431   4.652   3.357   6.181  0.5101  0.8296  0.1670
 5175SOL    HW220432   4.576   3.305   6.152  1.4472 -0.5033  0.0086
 5175SOL    HW320433   4.681   3.403   6.103  1.4265 -0.7040 -0.4421
 5175SOL    MW420434   4.645   3.356   6.167  0.3145  0.2303  0.4684
 5176SOL     OW20435   5.396   2.073   3.187 -0.4480 -0.5061 -0.4183
 5176SOL    HW220436   5.489   2.052   3.195 -0.5345 -0.4326  1.1168
 5176SOL    HW320437   5.351   1.988   3.193 -0.4673 -0.5920 -1.6544
 5176SOL    MW420438   5.402   2.059   3.189  0.3603  0.3823 -0.0177
 5177SOL     OW20439   3.964   2.327   5.459  0.2983  0.7504  0.0911
 5177SOL    HW220440   3.898   2.291   5.518  1.3100 -2.2753 -0.4587
 5177SOL    HW320441   3.915   2.386   5.401 -1.5849 -0.0548  0.7920
 5177SOL    MW420442   3.948   2.330   5.459  0.1647  0.8013  0.0056
 5178SOL     OW20443   0.481   3.072   5.112 -0.0414  0.3009  0.2740
 5178SOL    HW220444   0.561   3.099   5.159  0.6606 -1.3888  0.1359
 5178SOL    HW320445   0.438   3.154   5.089  1.1904  1.2435  1.1584
 5178SOL    MW420446   0.486   3.086   5.115 -0.3103 -0.4524 -0.1430
 5179SOL     OW20447   6.048   2.910   2.557  0.1062 -0.1065  0.1155
 5179SOL    HW220448   6.087   2.968   2.492 -0.1661 -1.4862 -1.3454
 5179SOL    HW320449   6.078   2.943   2.641  2.1872  0.4960 -0.8159
 5179SOL    MW420450   6.057   2.922   2.560 -0.3830  0.5626 -0.2599
 5180SOL     OW20451   0.525   2.415   0.607  0.4019  0.5947  0.2505
 5180SOL    HW220452   0.476   2.353   0.661  1.2157 -1.0986 -0.8605
 5180SOL    HW320453   0.458   2.472   0.568 -0.4033  0.1572  0.9687
 5180SOL    MW420454   0.510   2.415   0.609 -0.2586 -0.2096 -0.6760
 5181SOL     OW20455   1.982   4.821   0.773  0.0111 -0.1913  0.2856
 5181SOL    HW220456   2.013   4.795   0.859 -0.9140 -0.6701  0.4922
 5181SOL    HW320457   1.975   4.917   0.778  1.5358 -0.0607  0.1826
 5181SOL    MW420458   1.985   4.831   0.785 -0.0231  0.2626  0.0696
 5182SOL     OW20459   0.992   4.956   1.896 -0.4662  0.3849 -0.4984
 5182SOL    HW220460   0.951   4.921   1.816  0.7205  0.8316 -1.3304
 5182SOL    HW320461   1.085   4.962   1.874  0.0216 -0.3387  1.2416
 5182SOL    MW420462   0.999   4.952   1.882  0.0320  0.6431 -0.5029
 5183SOL     OW20463   5.607   0.240   6.397  0.1730  0.8147 -0.1657
 5183SOL    HW220464   5.602   0.335   6.410 -0.3897  0.6768  0.7483
 5183SOL    HW320465   5.549   0.223   6.323 -1.0403  1.0172  0.6971
 5183SOL    MW420466   5.599   0.250   6.389 -0.2618  0.0502  0.4912
 5184SOL     OW20467   3.986   3.188   5.450  0.0074  0.0118 -0.1947
 5184SOL    HW220468   3.926   3.117   5.427 -1.4425  1.3791 -0.8008
 5184SOL    HW320469   3.997   3.237   5.369  1.0498  0.4373  0.1940
 5184SOL    MW420470   3.979   3.185   5.436 -0.2147 -0.1846  0.5606
 5185SOL     OW20471   0.872   4.307   0.712  0.3457  0.5793  0.4022
 5185SOL    HW220472   0.811   4.274   0.778 -0.1456  0.9127  0.1299
 5185SOL    HW320473   0.848   4.260   0.632  1.7433 -0.7352  0.7029
 5185SOL    MW420474   0.861   4.296   0.710 -0.2311 -0.4166  0.1430
 5186SOL     OW20475   3.051   1.775   2.630  1.0125  0.6010  0.3157
 5186SOL    HW220476   3.052   1.709   2.699 -0.2779  0.9491  0.7003
 5186SOL    HW320477   2.959   1.780   2.603  1.5223  0.2179 -1.6890
 5186SOL    MW420478   3.039   1.767   2.635 -0.5989 -0.1632 -0.8246
 5187SOL     OW20479   4.075   2.778   0.035  0.1568  0.2371  0.4019
 5187SOL    HW220480   4.074   2.867   0.070 -2.2297  0.5910 -0.3887
 5187SOL    HW320481   3.999   2.736   0.074 -0.0943 -0.7006 -1.0040
 5187SOL    MW420482   4.065   2.784   0.045  0.6577 -0.0432  0.5717
 5188SOL     OW20483   3.729   4.261   5.319  0.3845 -0.4939  0.2380
 5188SOL    HW220484   3.666   4.222   5.258  2.4725 -1.9783 -1.1567
 5188SOL    HW320485   3.689   4.252   5.405 -1.3424 -1.2548 -0.6074
 5188SOL    MW420486   3.716   4.254   5.322  0.1340 -0.0440 -0.1886
 5189SOL     OW20487   1.987   0.567   2.064  0.3511 -0.4385  0.6490
 5189SOL    HW220488   2.056   0.507   2.095  0.1999 -0.9795 -0.0423
 5189SOL    HW320489   2.018   0.597   1.978 -0.6962 -1.4172 -0.0995
 5189SOL    MW420490   2.001   0.563   2.057  0.0904 -0.0315 -0.3884
 5190SOL     OW20491   3.124   3.329   2.989  0.2730  0.2791  0.0681
 5190SOL    HW220492   3.157   3.239   2.979 -0.9981  0.0227 -2.4895
 5190SOL    HW320493   3.204   3.382   2.994  1.1851 -0.6557 -2.4943
 5190SOL    MW420494   3.139   3.324   2.988  0.2894  1.1583 -0.3684
 5191SOL     OW20495   1.216   5.252   5.034 -0.0366 -0.1150 -0.8747
 5191SOL    HW220496   1.222   5.188   4.963 -0.1855  0.8367 -1.7557
 5191SOL    HW320497   1.170   5.205   5.104 -0.5167 -0.8480 -1.6586
 5191SOL    MW420498   1.211   5.237   5.034  0.1938  0.2952  0.2873
 5192SOL     OW20499   3.399   3.914   0.040 -0.8524  0.6810  0.1873
 5192SOL    HW220500   3.457   3.868   0.102 -0.3240 -0.2757 -0.9817
 5192SOL    HW320501   3.436   4.002   0.034  1.3500 -0.2562 -1.5079
 5192SOL    MW420502   3.412   3.919   0.048  0.3245  0.2619 -0.0028
 5193SOL     OW20503   1.545   2.384   2.806  0.1964  0.0460 -0.5004
 5193SOL    HW220504   1.626   2.430   2.826 -0.0191  0.3750 -0.3899
 5193SOL    HW320505   1.531   2.399   2.713 -0.7892  1.6677 -0.1215
 5193SOL    MW420506   1.554   2.392   2.797 -0.1398 -0.6635  0.0838
 5194SOL     OW20507   1.977   3.657   0.902  0.4943 -0.0158 -0.4636
 5194SOL    HW220508   2.021   3.663   0.987 -0.5874  0.5097  0.0916
 5194SOL    HW320509   2.004   3.572   0.867 -0.4582 -1.1142  1.2647
 5194SOL    MW420510   1.986   3.646   0.909  0.8479 -0.4912  0.5817
 5195SOL     OW20511   3.200   6.344   0.287 -0.7730  0.4753 -0.1245
 5195SOL    HW220512   3.288   6.362   0.321 -1.0514  1.3499  0.1775
 5195SOL    HW320513   3.195   6.395   0.206 -1.1705  0.8253  0.1176
 5195SOL    MW420514   3.211   6.353   0.281  0.3126  0.1209 -0.1254
 5196SOL     OW20515   2.305   0.829   4.789 -0.1017  0.4092 -0.1983
 5196SOL    HW220516   2.269   0.852   4.703 -0.3495  0.4784 -0.0762
 5196SOL    HW320517   2.265   0.744   4.810 -0.5055  0.6774  0.1196
 5196SOL    MW420518   2.295   0.820   4.780 -0.3394 -0.1469  0.2163
 5197SOL     OW20519   5.553   4.228   4.499  0.0314  0.0727  0.4813
 5197SOL    HW220520   5.581   4.289   4.567 -3.1606  0.8916  1.2286
 5197SOL    HW320521   5.459   4.245   4.489 -0.1588 -1.9338 -2.2132
 5197SOL    MW420522   5.544   4.238   4.507  0.0946  0.0090 -0.0040
 5198SOL     OW20523   0.238   0.285   0.465  0.0454  0.0022 -0.1020
 5198SOL    HW220524   0.253   0.235   0.545 -0.6084  0.0701  0.0671
 5198SOL    HW320525   0.150   0.321   0.475  0.6955  1.6294  0.0041
 5198SOL    MW420526   0.228   0.283   0.477  0.3572 -0.3159  0.5848
 5199SOL     OW20527   3.889   3.837   4.929 -0.1278 -0.0977 -0.0463
 5199SOL    HW220528   3.806   3.871   4.964  0.1522  0.9435 -0.3790
 5199SOL    HW320529   3.895   3.873   4.841  0.4098 -0.6445 -0.2393
 5199SOL    MW420530   3.879   3.846   4.922  0.1076  0.1337  0.3662
 5200SOL     OW20531   2.547   3.349   2.928 -0.3276 -0.3464 -0.1052
 5200SOL    HW220532   2.462   3.313   2.952 -0.8559  0.4901 -0.6874
 5200SOL    HW320533   2.531   3.442   2.912  0.5760 -0.2833 -0.7510
 5200SOL    MW420534   2.534   3.356   2.929 -0.0256  0.1058  0.1706
 5201SOL     OW20535   4.912   0.021   5.165  0.2187 -0.1365 -0.0781
 5201SOL    HW220536   4.966   0.018   5.085 -1.1900 -1.7374 -1.0489
 5201SOL    HW320537   4.954  -0.043   5.223 -0.2272 -0.9109 -0.5849
 5201SOL    MW420538   4.925   0.012   5.162  0.1732  1.1201  0.2768
 5202SOL     OW20539   2.153   1.996   4.371 -0.0299  0.2813 -0.0986
 5202SOL    HW220540   2.112   2.065   4.423  1.1322  0.5822  0.4540
 5202SOL    HW320541   2.096   1.985   4.295 -0.2546  1.8202 -0.1731
 5202SOL    MW420542   2.140   2.003   4.368 -0.1243  0.2049  0.2254
 5203SOL     OW20543   0.266   5.432   0.361 -0.1267 -0.0975 -0.1306
 5203SOL    HW220544   0.260   5.523   0.331  0.3142  0.4419  1.3312
 5203SOL    HW320545   0.297   5.384   0.284 -1.6539  0.7399 -1.3254
 5203SOL    MW420546   0.270   5.438   0.347  0.8730  0.7599  0.1902
 5204SOL     OW20547   4.948   0.506   3.382  0.4976  0.4866 -0.0091
 5204SOL    HW220548   4.864   0.498   3.337  0.1802  1.5834  0.3500
 5204SOL    HW320549   5.012   0.472   3.320 -0.2652 -1.0936 -0.0042
 5204SOL    MW420550   4.945   0.500   3.368  0.4748  0.3729 -0.0454
 5205SOL     OW20551   6.049   0.535   2.059  0.2204  0.0528  0.4397
 5205SOL    HW220552   6.089   0.607   2.011 -1.2698 -0.0741 -1.0807
 5205SOL    HW320553   6.111   0.462   2.049 -0.5185 -0.2848 -2.2587
 5205SOL    MW420554   6.063   0.535   2.051  0.1293  0.3966 -0.2430
 5206SOL     OW20555   4.764   2.981   4.841 -0.0049 -0.1490  1.0424
 5206SOL    HW220556   4.741   3.004   4.931 -0.0490  1.7713  0.5664
 5206SOL    HW320557   4.837   3.038   4.818 -0.7405  0.2259 -0.5223
 5206SOL    MW420558   4.770   2.991   4.850 -0.2181 -0.0540 -0.7365
 5207SOL     OW20559   4.544   6.411   1.605  0.2837  0.3636  0.5081
 5207SOL    HW220560   4.453   6.439   1.615  0.0922 -0.4172  1.0275
 5207SOL    HW320561   4.581   6.474   1.543 -0.9906 -0.1579 -0.8343
 5207SOL    MW420562   4.537   6.423   1.598  0.2428  0.6011  0.0942
 5208SOL     OW20563   3.289   4.761   5.319  0.1263 -0.2938  0.3123
 5208SOL    HW220564   3.370   4.738   5.363  0.4752  0.2978 -0.0045
 5208SOL    HW320565   3.222   4.710   5.364  0.3812  0.7361  1.9566
 5208SOL    MW420566   3.291   4.751   5.331 -0.1637  0.4854  0.5183
 5209SOL     OW20567   4.716   0.750   1.847  0.7117  0.6814  0.2158
 5209SOL    HW220568   4.783   0.687   1.819 -0.0797  0.1744 -0.6182
 5209SOL    HW320569   4.642   0.734   1.788 -0.1791  1.1704  1.1612
 5209SOL    MW420570   4.715   0.740   1.835  0.3748  0.5149  0.2583
 5210SOL     OW20571   5.830   2.484   2.854  0.3625  0.4573 -0.1537
 5210SOL    HW220572   5.911   2.500   2.904  0.9947  1.2491 -1.3856
 5210SOL    HW320573   5.770   2.552   2.882 -0.8768 -1.5817  2.6552
 5210SOL    MW420574   5.833   2.495   2.864 -0.1973  0.7725 -0.0540
 5211SOL     OW20575   2.202   0.392   6.295 -0.1178 -0.0607 -0.4628
 5211SOL    HW220576   2.246   0.308   6.291 -2.0320 -1.1143 -0.4478
 5211SOL    HW320577   2.112   0.374   6.268 -0.9299  1.7307  0.7927
 5211SOL    MW420578   2.196   0.379   6.291 -0.1601  0.3457 -0.1255
 5212SOL     OW20579   4.243   4.528   5.281 -0.2177 -0.0488  0.1455
 5212SOL    HW220580   4.228   4.435   5.292 -0.2918 -0.4580 -2.6957
 5212SOL    HW320581   4.316   4.548   5.340 -1.0203 -1.5578  1.7541
 5212SOL    MW420582   4.250   4.519   5.291 -0.3269  0.0337 -0.6678
 5213SOL     OW20583   5.281   3.120   0.713 -0.3573  0.1748 -0.2523
 5213SOL    HW220584   5.287   3.198   0.768  3.1473  0.0029 -0.1557
 5213SOL    HW320585   5.308   3.048   0.770 -1.1000 -0.7495 -1.0202
 5213SOL    MW420586   5.285   3.121   0.727  0.0520 -0.6834  0.6828
 5214SOL     OW20587   1.263   5.662   5.715  0.0283 -0.2061  0.1123
 5214SOL    HW220588   1.339   5.705   5.754 -0.1698 -0.1036  0.3958
 5214SOL    HW320589   1.225   5.612   5.788 -1.3473  1.3486  0.5359
 5214SOL    MW420590   1.268   5.661   5.730 -0.2397  0.0278  0.7265
 5215SOL     OW20591   5.259   4.914   2.738  0.1795  0.1742  0.0693
 5215SOL    HW220592   5.309   4.992   2.762  0.1542  0.1622  0.1620
 5215SOL    HW320593   5.168   4.941   2.748  0.1662  0.2236 -0.1889
 5215SOL    MW420594   5.254   4.928   2.742 -0.0985 -0.0356  0.4839
 5216SOL     OW20595   5.373   2.771   4.161 -0.1307 -0.0730  0.1028
 5216SOL    HW220596   5.351   2.691   4.113  1.0987 -0.4394  0.1176
 5216SOL    HW320597   5.342   2.754   4.250  1.6499 -1.2719  0.5442
 5216SOL    MW420598   5.366   2.758   4.167  0.1700  0.4200 -0.5461
 5217SOL     OW20599   4.840   1.210   1.142 -0.0179 -0.3563  0.2594
 5217SOL    HW220600   4.925   1.167   1.144  0.2580  0.1965  1.0181
 5217SOL    HW320601   4.858   1.299   1.112 -0.4620 -0.4933 -0.4467
 5217SOL    MW420602   4.853   1.216   1.138  0.5016  0.1223  0.2600
 5218SOL     OW20603   1.609   4.426   5.869  0.7214  0.0450  0.6069
 5218SOL    HW220604   1.695   4.421   5.910  0.6246 -0.7095  0.7337
 5218SOL    HW320605   1.557   4.481   5.928  1.0313  0.2756  0.6696
 5218SOL    MW420606   1.614   4.433   5.882  0.6587 -0.4357 -0.3207
 5219SOL     OW20607   5.800   4.272   2.759 -0.5041 -0.1954  0.4969
 5219SOL    HW220608   5.802   4.318   2.843 -1.4338  0.5024  0.1467
 5219SOL    HW320609   5.777   4.339   2.695  1.7686 -0.3494 -0.5867
 5219SOL    MW420610   5.797   4.287   2.762 -0.4503 -0.2366  0.3206
 5220SOL     OW20611   6.248   0.955   2.643 -0.3401  0.5785  0.4685
 5220SOL    HW220612   6.193   0.876   2.648 -2.9986  2.3011  0.2326
 5220SOL    HW320613   6.328   0.930   2.689  0.8009 -3.5989 -3.0852
 5220SOL    MW420614   6.251   0.941   2.650  0.0792 -0.0376  0.6269
 5221SOL     OW20615   5.892   2.918   4.549 -0.0612  0.1351  0.3657
 5221SOL    HW220616   5.828   2.849   4.533 -1.4733  1.8081 -1.8214
 5221SOL    HW320617   5.965   2.899   4.490  1.1535 -1.2626  2.2023
 5221SOL    MW420618   5.893   2.907   4.539  0.4784  0.1227  0.2899
 5222SOL     OW20619   1.819   6.336   3.098  0.2015 -0.1245 -0.1854
 5222SOL    HW220620   1.851   6.419   3.134  2.2323 -0.6825 -0.5879
 5222SOL    HW320621   1.820   6.350   3.003 -1.2255 -0.0270 -0.2087
 5222SOL    MW420622   1.824   6.349   3.090 -0.1054 -0.2593 -0.0488
 5223SOL     OW20623   2.098   5.819   0.918 -0.2354 -0.3832  0.4893
 5223SOL    HW220624   2.039   5.770   0.975  0.4775 -1.4500  0.3416
 5223SOL    HW320625   2.055   5.904   0.906 -1.8904 -1.2314  0.1354
 5223SOL    MW420626   2.084   5.824   0.924 -0.0329  0.4262  0.9930
 5224SOL     OW20627   1.141   4.080   3.574  0.2246  0.2842  0.4383
 5224SOL    HW220628   1.150   4.169   3.539 -0.1542  0.1579  0.0192
 5224SOL    HW320629   1.090   4.033   3.509  0.9086 -0.4079  0.3903
 5224SOL    MW420630   1.135   4.086   3.561 -0.4574  0.0357  0.3203
 5225SOL     OW20631   3.096   4.536   1.649  0.4600  0.0650 -0.0361
 5225SOL    HW220632   3.004   4.518   1.670  0.9949 -0.6128  1.9170
 5225SOL    HW320633   3.095   4.624   1.612 -1.0104 -0.0440 -0.3137
 5225SOL    MW420634   3.083   4.545   1.647  0.4861 -0.2704 -0.0348
 5226SOL     OW20635   2.349   6.326   4.851  0.2023  0.9746 -0.0752
 5226SOL    HW220636   2.346   6.332   4.755  0.0678 -0.1997 -0.1703
 5226SOL    HW320637   2.363   6.415   4.881 -1.8897  1.7154 -1.0908
 5226SOL    MW420638   2.350   6.338   4.842  0.4197  0.4771  0.3571
 5227SOL     OW20639   1.257   5.175   3.314 -0.0298 -0.5965  0.0586
 5227SOL    HW220640   1.312   5.189   3.391  0.4228  2.2602 -0.6374
 5227SOL    HW320641   1.179   5.229   3.330  0.3008  0.4677 -1.6374
 5227SOL    MW420642   1.254   5.184   3.326  0.7629  0.0169 -0.3595
 5228SOL     OW20643   4.393   2.233   0.464  0.1142 -0.5967 -0.4784
 5228SOL    HW220644   4.471   2.178   0.471  0.8343 -0.2239 -3.6384
 5228SOL    HW320645   4.426   2.316   0.427 -1.7593 -0.6025 -2.3441
 5228SOL    MW420646   4.408   2.237   0.460 -0.1551 -0.1858  0.3399
 5229SOL     OW20647   5.924   6.213   2.929 -0.3413  0.1201 -0.4823
 5229SOL    HW220648   5.989   6.283   2.927  1.4280 -1.3923  0.6155
 5229SOL    HW320649   5.968   6.141   2.975 -1.9218 -1.8583 -1.8921
 5229SOL    MW420650   5.938   6.213   2.934 -0.2926  0.1328 -0.0114
 5230SOL     OW20651   3.131   2.849   2.987  0.0363  0.0069 -0.4877
 5230SOL    HW220652   3.108   2.850   3.079 -0.7992  0.9072 -0.6878
 5230SOL    HW320653   3.152   2.758   2.968 -0.3287 -0.2816  0.4578
 5230SOL    MW420654   3.131   2.837   2.996  0.0352  0.2238 -0.0992
 5231SOL     OW20655   1.491   4.087   3.285  0.5327 -0.0647  0.0815
 5231SOL    HW220656   1.477   4.025   3.213 -0.3183  1.1910 -0.8760
 5231SOL    HW320657   1.442   4.049   3.359 -1.8239  0.4602 -1.0966
 5231SOL    MW420658   1.482   4.073   3.286  0.0147  0.3651  0.4023
 5232SOL     OW20659   2.002   5.636   0.434  0.3518  0.1883  0.0797
 5232SOL    HW220660   2.066   5.570   0.462 -0.0339 -0.7279 -1.1439
 5232SOL    HW320661   1.935   5.586   0.388  0.6839  1.5432 -2.0021
 5232SOL    MW420662   2.002   5.621   0.432 -0.3986 -0.1107 -0.0241
 5233SOL     OW20663   5.540   2.897   4.861  0.3543 -0.4118 -0.5901
 5233SOL    HW220664   5.495   2.922   4.941 -0.3868 -0.6264 -0.9353
 5233SOL    HW320665   5.621   2.856   4.891  0.3118 -0.0470  0.0328
 5233SOL    MW420666   5.545   2.895   4.875 -0.2029  0.3380 -0.8173
 5234SOL     OW20667   4.795   4.463   3.652 -0.2064 -0.4672  0.9389
 5234SOL    HW220668   4.791   4.555   3.626 -2.1117 -0.6665  0.3939
 5234SOL    HW320669   4.812   4.465   3.746 -0.8620  0.4535  1.0482
 5234SOL    MW420670   4.797   4.475   3.661 -0.2121  0.0325 -0.0994
 5235SOL     OW20671   0.581   4.960   1.029 -0.0353  0.7135  0.4471
 5235SOL    HW220672   0.622   5.033   0.983  0.2126 -0.5995 -1.5566
 5235SOL    HW320673   0.505   4.938   0.975  0.5314 -1.2018  0.3806
 5235SOL    MW420674   0.576   4.967   1.016  0.1212  0.0762  0.7296
 5236SOL     OW20675   0.033   5.157   1.823 -0.3192  0.9461 -0.0749
 5236SOL    HW220676  -0.057   5.186   1.804 -0.1497  1.6839  0.2566
 5236SOL    HW320677   0.088   5.214   1.770 -0.0541  0.2288 -0.5889
 5236SOL    MW420678   0.028   5.168   1.813  0.5125  0.0159  0.0045
 5237SOL     OW20679   2.578   6.260   4.482  0.2832  1.0273  0.1519
 5237SOL    HW220680   2.649   6.295   4.428 -0.1600  1.0842 -0.4015
 5237SOL    HW320681   2.623   6.220   4.557  0.9809 -0.0731 -0.8165
 5237SOL    MW420682   2.594   6.259   4.485 -0.2243 -0.1621  0.3835
 5238SOL     OW20683   0.399   3.392   3.770  1.1064 -0.0456  0.1389
 5238SOL    HW220684   0.479   3.369   3.816  1.0072  0.2704  0.4743
 5238SOL    HW320685   0.426   3.458   3.706  1.0715  0.2335  0.4127
 5238SOL    MW420686   0.413   3.398   3.767 -0.2560 -0.5653 -0.1796
 5239SOL     OW20687   2.666   1.105   3.287  0.0548 -0.3926  0.3559
 5239SOL    HW220688   2.670   1.169   3.358  1.0255  0.2656 -0.2694
 5239SOL    HW320689   2.713   1.029   3.321  0.0727 -0.2698  0.6116
 5239SOL    MW420690   2.673   1.104   3.301 -0.3274  0.4874  0.4474
 5240SOL     OW20691   0.982   4.830   2.974 -0.1273  0.2268  1.1618
 5240SOL    HW220692   1.034   4.904   2.944  0.0250 -0.2409  0.2402
 5240SOL    HW320693   0.923   4.867   3.040  0.8725  0.9016  1.6962
 5240SOL    MW420694   0.981   4.844   2.979  0.5035  0.3739  0.8032
 5241SOL     OW20695   4.765   5.494   0.741  0.3103  0.1833 -0.4337
 5241SOL    HW220696   4.791   5.586   0.727 -0.2545  0.3476 -0.4173
 5241SOL    HW320697   4.723   5.493   0.826  0.0627 -0.0392 -0.5569
 5241SOL    MW420698   4.763   5.506   0.750 -0.4808  0.2475 -0.1340
 5242SOL     OW20699   0.958   4.765   2.095  0.2711 -0.1738  0.0658
 5242SOL    HW220700   1.017   4.699   2.057 -0.1094  0.5433 -1.8917
 5242SOL    HW320701   0.972   4.843   2.042 -0.4529  0.8539  1.3357
 5242SOL    MW420702   0.968   4.766   2.083 -0.1342  0.1674  0.2245
 5243SOL     OW20703   5.161   2.339   1.553 -0.1475 -0.0106 -0.3167
 5243SOL    HW220704   5.220   2.383   1.492  1.6031  0.2401  1.4731
 5243SOL    HW320705   5.161   2.248   1.525  0.5349  0.1245 -0.7683
 5243SOL    MW420706   5.169   2.333   1.541  0.3471  0.2545  0.6019
 5244SOL     OW20707   6.282   5.446   5.244 -0.2788  0.6502 -0.2991
 5244SOL    HW220708   6.190   5.471   5.252 -0.0591  1.8567 -1.1409
 5244SOL    HW320709   6.319   5.461   5.331 -1.4656 -2.6868  0.8932
 5244SOL    MW420710   6.275   5.452   5.257 -0.1533 -0.1800  0.1573
 5245SOL     OW20711   0.949   1.506   5.664 -0.3961 -0.7621 -0.4241
 5245SOL    HW220712   1.032   1.509   5.711  0.7080  1.4168 -2.3432
 5245SOL    HW320713   0.951   1.423   5.617 -0.0988 -1.4775  0.7858
 5245SOL    MW420714   0.960   1.495   5.664  0.0925 -0.4004  0.0740
 5246SOL     OW20715   0.280   2.513   2.540  0.1250  0.0989  0.1232
 5246SOL    HW220716   0.245   2.462   2.467  0.9858 -1.3415  0.6814
 5246SOL    HW320717   0.365   2.543   2.511 -0.7919  2.1608 -0.5904
 5246SOL    MW420718   0.286   2.510   2.527 -0.2802  0.6874  0.5542
 5247SOL     OW20719   4.150   5.272   0.512  0.2163 -0.6301 -0.6012
 5247SOL    HW220720   4.171   5.335   0.443 -0.8388 -0.7166 -1.0200
 5247SOL    HW320721   4.223   5.279   0.574  0.5632  0.3391 -1.0988
 5247SOL    MW420722   4.162   5.281   0.511 -0.3342  0.4947 -0.5522
 5248SOL     OW20723   0.897   5.570   1.792  0.4333  0.3598 -0.5578
 5248SOL    HW220724   0.924   5.654   1.828  2.8740 -0.1788 -0.9405
 5248SOL    HW320725   0.872   5.518   1.868 -0.0678  1.0676 -0.2235
 5248SOL    MW420726   0.897   5.574   1.806 -0.1342 -0.7306  0.5831
 5249SOL     OW20727   5.097   0.022   3.722  0.1787 -0.2667  0.1911
 5249SOL    HW220728   5.128   0.107   3.691 -0.5603 -0.3072 -0.6991
 5249SOL    HW320729   5.014   0.041   3.765 -0.2541 -0.5864 -0.4789
 5249SOL    MW420730   5.090   0.036   3.723 -0.2071 -0.2632 -0.0332
 5250SOL     OW20731   0.222   3.379   2.202 -0.4829  0.1341  0.1876
 5250SOL    HW220732   0.242   3.286   2.213  0.2839  0.4533  1.8046
 5250SOL    HW320733   0.238   3.417   2.289 -0.3626  1.8524 -0.5527
 5250SOL    MW420734   0.226   3.371   2.215 -0.6612 -0.1064  0.4288
 5251SOL     OW20735   0.935   5.447   0.910 -0.0542 -0.0835 -0.1372
 5251SOL    HW220736   0.953   5.536   0.939 -3.6438  0.3137  1.3532
 5251SOL    HW320737   0.954   5.392   0.986  1.0636 -0.4919 -0.6904
 5251SOL    MW420738   0.940   5.451   0.924 -0.4759  0.7453 -0.2318
 5252SOL     OW20739   2.698   3.074   2.009  0.0581  0.0761 -0.6241
 5252SOL    HW220740   2.611   3.076   1.970 -0.2014 -0.2674 -0.0738
 5252SOL    HW320741   2.687   3.117   2.094  0.5333  0.4794 -0.7619
 5252SOL    MW420742   2.686   3.080   2.015  0.0555  0.0068 -0.5900
 5253SOL     OW20743   2.906   4.715   3.588 -0.0098  0.3173  0.1763
 5253SOL    HW220744   2.919   4.791   3.645 -0.0192 -0.6393  1.5088
 5253SOL    HW320745   2.968   4.650   3.621 -0.6483 -0.5769 -0.3397
 5253SOL    MW420746   2.916   4.717   3.600  0.0657 -0.2801  0.1577
 5254SOL     OW20747   3.350   1.662   2.327 -0.1106 -0.0138  0.0111
 5254SOL    HW220748   3.331   1.731   2.264 -0.8144  0.4510  0.7108
 5254SOL    HW320749   3.444   1.645   2.318  0.5363  2.4694  1.2357
 5254SOL    MW420750   3.360   1.669   2.318  0.0294  0.8827 -0.5720
 5255SOL     OW20751   2.792   4.540   2.469 -0.7847 -0.2008 -0.2718
 5255SOL    HW220752   2.748   4.610   2.420 -2.0049  0.1403  1.2770
 5255SOL    HW320753   2.819   4.478   2.401 -1.3090  0.8646 -1.5075
 5255SOL    MW420754   2.790   4.541   2.453  0.1755  0.1330  0.1231
 5256SOL     OW20755   4.436   2.817   4.314  0.2321  0.5552 -0.0071
 5256SOL    HW220756   4.376   2.796   4.385 -3.4883  2.9412 -2.1432
 5256SOL    HW320757   4.480   2.897   4.342  0.2500  0.4157  0.3714
 5256SOL    MW420758   4.434   2.824   4.327 -0.0947 -0.0518  0.1966
 5257SOL     OW20759   4.668   0.057   2.139 -0.0327 -0.1968 -0.5812
 5257SOL    HW220760   4.575   0.056   2.118 -0.0737 -1.3027 -0.4025
 5257SOL    HW320761   4.702  -0.025   2.103  1.3200  1.1298 -2.5385
 5257SOL    MW420762   4.661   0.046   2.131 -0.1125 -0.2541  0.1438
 5258SOL     OW20763   5.094   3.114   4.973 -0.2547  0.4333  0.1715
 5258SOL    HW220764   5.074   3.028   4.937  0.6064  0.6758 -0.9227
 5258SOL    HW320765   5.153   3.096   5.046  0.1744  0.1156 -0.2507
 5258SOL    MW420766   5.099   3.100   4.978  0.7424 -0.2328  0.0379
 5259SOL     OW20767   1.166   5.625   5.447  0.2986  0.2526 -0.4123
 5259SOL    HW220768   1.226   5.635   5.521  0.4791 -1.4285 -0.2943
 5259SOL    HW320769   1.079   5.623   5.486  0.1175  2.4054 -0.5593
 5259SOL    MW420770   1.162   5.626   5.462  1.1365  0.1115  0.1882
 5260SOL     OW20771   5.616   4.565   3.467 -0.0304 -0.3707  0.2695
 5260SOL    HW220772   5.659   4.502   3.524  0.8071 -0.8992 -0.8982
 5260SOL    HW320773   5.597   4.640   3.523  4.5095  0.9155  0.4624
 5260SOL    MW420774   5.619   4.567   3.482 -0.1931  0.3539 -0.5435
 5261SOL     OW20775   4.557   2.343   2.513 -0.7258 -0.4047  0.0479
 5261SOL    HW220776   4.488   2.282   2.538  0.3131 -1.6955 -0.1678
 5261SOL    HW320777   4.638   2.304   2.547 -0.1408  1.3990  0.8804
 5261SOL    MW420778   4.559   2.330   2.521  0.5833  0.3687  0.0966
 5262SOL     OW20779   5.004   4.708   5.870 -0.2561 -0.2905 -0.6251
 5262SOL    HW220780   5.004   4.650   5.794 -1.6239 -1.6630  0.3516
 5262SOL    HW320781   4.911   4.716   5.893  0.2000 -1.9655  2.3356
 5262SOL    MW420782   4.992   4.701   5.863 -1.0925  0.4438  0.3880
 5263SOL     OW20783   4.213   2.267   5.584  0.0246 -0.2165 -0.1425
 5263SOL    HW220784   4.242   2.314   5.663  1.4580 -1.2963  0.0183
 5263SOL    HW320785   4.144   2.322   5.547  0.5712  1.2180  0.8840
 5263SOL    MW420786   4.208   2.281   5.590  0.4888 -0.8930 -0.4873
 5264SOL     OW20787   4.652   1.851   3.876 -0.1442 -0.4692 -0.6008
 5264SOL    HW220788   4.744   1.876   3.886 -0.0911 -0.9100  0.0642
 5264SOL    HW320789   4.612   1.872   3.960 -0.5795 -0.5746 -0.7819
 5264SOL    MW420790   4.659   1.857   3.888 -0.3982 -0.3149 -0.5342
 5265SOL     OW20791   0.032   1.158   6.201  0.4580  0.0779  0.2878
 5265SOL    HW220792  -0.061   1.172   6.220  0.1470 -1.0127 -0.2903
 5265SOL    HW320793   0.053   1.224   6.136  0.7517  1.8965  2.1364
 5265SOL    MW420794   0.022   1.168   6.195 -0.2469  0.1581  0.7986
 5266SOL     OW20795   2.012   0.761   6.280  0.0366 -0.1193 -0.5015
 5266SOL    HW220796   2.015   0.683   6.225  1.3488 -0.3091 -0.1765
 5266SOL    HW320797   1.919   0.783   6.283 -0.1661 -0.5872 -2.0954
 5266SOL    MW420798   2.000   0.754   6.273 -0.0290  0.1075  0.0486
 5267SOL     OW20799   3.937   1.019   5.963  0.1705  0.2899  0.2788
 5267SOL    HW220800   3.947   1.113   5.951  2.3988 -0.1896 -2.3941
 5267SOL    HW320801   4.025   0.983   5.954 -0.6266 -2.1075  1.0921
 5267SOL    MW420802   3.950   1.026   5.960 -0.1841 -0.1938 -0.1664
 5268SOL     OW20803   5.794   3.397   6.238 -0.3965 -0.0603  0.3433
 5268SOL    HW220804   5.874   3.371   6.284 -0.3369 -2.1331 -0.8054
 5268SOL    HW320805   5.726   3.392   6.305 -0.0275 -1.3174  0.6678
 5268SOL    MW420806   5.796   3.393   6.253 -0.3963 -0.2774  0.1463
 5269SOL     OW20807   3.425   0.881   6.315 -0.2337  0.3786 -0.1277
 5269SOL    HW220808   3.353   0.847   6.262  1.2811 -0.6489 -1.6292
 5269SOL    HW320809   3.428   0.975   6.294 -1.1346  0.4312 -0.0404
 5269SOL    MW420810   3.416   0.889   6.305  0.3549 -0.1400 -0.3629
 5270SOL     OW20811   1.163   2.968   0.702 -0.3048  0.5533 -0.0840
 5270SOL    HW220812   1.146   3.060   0.723 -1.6871  0.1969  0.4316
 5270SOL    HW320813   1.254   2.968   0.670 -0.0687  1.9888  0.4888
 5270SOL    MW420814   1.173   2.980   0.700  0.0340  0.3789  0.1217
 5271SOL     OW20815   0.832   1.932   5.922  0.5051  0.0977 -0.0461
 5271SOL    HW220816   0.758   1.872   5.931 -0.2334  1.1003  0.7335
 5271SOL    HW320817   0.908   1.880   5.946 -0.2354 -0.2824  1.5767
 5271SOL    MW420818   0.832   1.917   5.926 -0.7331 -0.4341  0.1209
 5272SOL     OW20819   5.612   5.671   3.397  0.1085  1.1650  0.1412
 5272SOL    HW220820   5.583   5.636   3.481 -0.7895 -1.8630 -1.2932
 5272SOL    HW320821   5.705   5.692   3.410  0.3660 -0.6139  1.5312
 5272SOL    MW420822   5.621   5.669   3.410 -0.2379  0.1846  0.0432
 5273SOL     OW20823   3.925   4.049   1.070  0.2845  0.4726 -0.9032
 5273SOL    HW220824   3.986   4.009   1.008  3.3470 -1.0271  2.6959
 5273SOL    HW320825   3.972   4.124   1.105 -1.3912  1.3409 -0.4212
 5273SOL    MW420826   3.939   4.054   1.066 -0.2959 -0.1102  0.3270
 5274SOL     OW20827   4.097   5.790   4.784  0.1776  0.4724  0.3958
 5274SOL    HW220828   4.090   5.786   4.688 -0.7721 -0.6116  0.4879
 5274SOL    HW320829   4.054   5.711   4.814  0.4373  0.8206  1.7418
 5274SOL    MW420830   4.091   5.779   4.775  0.5384 -0.3540  0.5358
 5275SOL     OW20831   1.899   0.662   0.995 -0.0864 -0.2021 -0.0939
 5275SOL    HW220832   1.901   0.614   1.078 -0.8697  0.3313  0.2504
 5275SOL    HW320833   1.840   0.736   1.012  1.6878  1.3312 -0.3832
 5275SOL    MW420834   1.891   0.666   1.008  0.3223 -0.4100  0.4462
 5276SOL     OW20835   1.923   2.305   2.953 -0.1234  0.1399 -0.0357
 5276SOL    HW220836   1.862   2.242   2.915  0.6300 -0.6201  0.0042
 5276SOL    HW320837   1.885   2.328   3.038  0.3074 -1.3369  0.5779
 5276SOL    MW420838   1.910   2.300   2.959  0.7035 -0.1801  0.3856
 5277SOL     OW20839   0.482   3.957   3.350 -0.1867  0.2933 -0.2154
 5277SOL    HW220840   0.474   3.896   3.277  3.1124  0.1782 -0.6042
 5277SOL    HW320841   0.444   3.910   3.424 -3.4745  0.3584 -1.6830
 5277SOL    MW420842   0.476   3.943   3.350  0.7300  0.0766  0.1468
 5278SOL     OW20843   4.826   0.390   4.227 -0.5598 -0.3377  0.4761
 5278SOL    HW220844   4.805   0.483   4.220  0.8187 -0.0412 -0.0305
 5278SOL    HW320845   4.845   0.377   4.320  0.9191  0.2966  0.2904
 5278SOL    MW420846   4.826   0.401   4.238 -0.2276  0.5726 -0.5421
 5279SOL     OW20847   1.737   0.685   4.087  0.8505 -0.0133 -0.2812
 5279SOL    HW220848   1.656   0.732   4.110  2.2950  1.4341  2.3706
 5279SOL    HW320849   1.739   0.611   4.148  1.1994 -0.4429 -0.8078
 5279SOL    MW420850   1.726   0.682   4.098 -0.1786 -0.1895  0.0495
 5280SOL     OW20851   6.223   2.715   3.762 -0.0435  0.4037  0.3450
 5280SOL    HW220852   6.196   2.629   3.731  0.3327 -0.5290  2.3990
 5280SOL    HW320853   6.226   2.769   3.684 -1.0644 -1.2366 -0.8997
 5280SOL    MW420854   6.220   2.711   3.748 -0.8650 -0.0622 -0.3839
 5281SOL     OW20855   2.332   1.633   3.961  0.2744 -0.5952 -0.1710
 5281SOL    HW220856   2.358   1.548   3.925 -0.2755 -0.3369 -1.1971
 5281SOL    HW320857   2.413   1.670   3.996  1.5572  0.4414 -3.7935
 5281SOL    MW420858   2.346   1.627   3.961  0.6395  0.2689  0.7207
 5282SOL     OW20859   1.148   2.554   4.981  0.4789  0.5586 -0.3368
 5282SOL    HW220860   1.238   2.585   4.991  0.5241  0.4637 -0.4518
 5282SOL    HW320861   1.123   2.580   4.892  1.0589 -1.1096 -1.0317
 5282SOL    MW420862   1.156   2.561   4.971 -0.1210  0.2112 -0.1513
 5283SOL     OW20863   1.861   3.379   3.009  0.1908 -0.1338 -0.4689
 5283SOL    HW220864   1.795   3.448   3.006  1.3020  0.9400 -0.9299
 5283SOL    HW320865   1.887   3.375   3.101  0.4219  0.3630 -0.5090
 5283SOL    MW420866   1.855   3.387   3.021 -0.7946  0.4990 -0.5122
 5284SOL     OW20867   6.313   3.962   2.376  0.0180 -0.4296  0.5544
 5284SOL    HW220868   6.229   3.986   2.416 -0.7951 -0.2305 -1.1777
 5284SOL    HW320869   6.291   3.891   2.316  1.2566 -0.9622  0.6999
 5284SOL    MW420870   6.299   3.956   2.373  0.5467 -0.2494 -0.0624
 5285SOL     OW20871   3.598   1.404   3.104 -0.0961 -0.2798  0.2102
 5285SOL    HW220872   3.678   1.358   3.132 -0.6118 -0.6754  1.0529
 5285SOL    HW320873   3.614   1.424   3.011  1.5072  0.7688  0.6690
 5285SOL    MW420874   3.611   1.400   3.095 -0.2896  0.6661  0.2075
 5286SOL     OW20875   4.793   5.569   2.218 -0.0659  0.6123 -0.9803
 5286SOL    HW220876   4.845   5.516   2.157 -1.4741 -0.5941 -1.1775
 5286SOL    HW320877   4.812   5.659   2.193  1.8178  0.2286 -1.1262
 5286SOL    MW420878   4.802   5.574   2.207 -0.1555 -0.1270 -0.2959
 5287SOL     OW20879   2.439   1.414   0.722 -0.1565 -0.0554 -0.6861
 5287SOL    HW220880   2.430   1.503   0.686  0.8816  0.3373 -0.0005
 5287SOL    HW320881   2.440   1.427   0.817  0.9729 -0.6943 -0.5996
 5287SOL    MW420882   2.438   1.428   0.730  0.1720 -0.1456 -0.5371
 5288SOL     OW20883   4.911   0.797   3.334  0.4336 -1.2448  0.3849
 5288SOL    HW220884   4.916   0.708   3.370 -0.2896 -0.7491  1.8163
 5288SOL    HW320885   4.818   0.809   3.314  0.4120 -0.5743  0.8660
 5288SOL    MW420886   4.899   0.787   3.336 -0.3661 -0.3990  0.2827
 5289SOL     OW20887   0.150   2.114   3.186 -0.2510 -0.4227  0.0041
 5289SOL    HW220888   0.061   2.077   3.183  0.1364 -1.4400  0.4187
 5289SOL    HW320889   0.154   2.159   3.270 -1.2803  2.1213 -1.2046
 5289SOL    MW420890   0.139   2.115   3.197  0.2867 -0.1351  0.2124
 5290SOL     OW20891   4.353   5.139   4.995 -0.3937 -0.8123 -0.4981
 5290SOL    HW220892   4.313   5.226   4.994 -1.1773 -1.1630 -0.3047
 5290SOL    HW320893   4.445   5.155   5.015 -0.7320 -0.1009  0.5481
 5290SOL    MW420894   4.360   5.152   4.998  0.2822 -0.0473  0.2855
 5291SOL     OW20895   2.340   6.089   6.147  0.1829  0.2417  0.0072
 5291SOL    HW220896   2.394   6.014   6.123 -0.5758 -0.1307 -0.5558
 5291SOL    HW320897   2.250   6.056   6.146 -0.3081  1.4678 -1.6027
 5291SOL    MW420898   2.335   6.075   6.144  0.0809 -0.0916 -0.4039
 5292SOL     OW20899   5.732   3.629   0.166 -0.6563 -0.4989  0.2425
 5292SOL    HW220900   5.648   3.674   0.161  0.4060  1.4932 -1.0262
 5292SOL    HW320901   5.755   3.631   0.259 -0.9383  1.0917  0.3081
 5292SOL    MW420902   5.724   3.635   0.178  0.4070  0.1345  0.3417
 5293SOL     OW20903   1.031   6.137   6.047  0.2381  0.0699 -0.3089
 5293SOL    HW220904   0.969   6.102   5.983 -0.5895 -2.2173  1.6219
 5293SOL    HW320905   1.101   6.175   5.993 -1.5975  0.5376 -2.5393
 5293SOL    MW420906   1.032   6.137   6.031  0.5200 -0.3542  0.0859
 5294SOL     OW20907   0.889   1.133   5.911  0.8317 -0.7613 -0.0470
 5294SOL    HW220908   0.931   1.048   5.900  1.3369 -0.3731 -1.2866
 5294SOL    HW320909   0.835   1.143   5.833 -0.8350 -0.8035  1.0391
 5294SOL    MW420910   0.887   1.123   5.899 -0.0016  0.8582  0.0013
 5295SOL     OW20911   5.654   3.616   0.530  0.2697 -0.2447  0.1999
 5295SOL    HW220912   5.596   3.692   0.532  0.5307 -0.0033 -0.7521
 5295SOL    HW320913   5.689   3.610   0.619 -0.7980 -0.0781  0.6405
 5295SOL    MW420914   5.651   3.625   0.542 -0.3454 -0.7621  0.5735
 5296SOL     OW20915   3.906   3.025   3.279 -0.3321 -0.6980 -0.4783
 5296SOL    HW220916   3.851   2.948   3.264 -0.8437 -0.0540 -2.1060
 5296SOL    HW320917   3.937   3.015   3.370 -1.5790 -2.0448 -0.1632
 5296SOL    MW420918   3.903   3.013   3.289  0.0023 -0.2331 -0.1539
 5297SOL     OW20919   3.520   4.610   5.418 -0.0190  0.1135 -0.3405
 5297SOL    HW220920   3.485   4.643   5.501 -0.4801  2.3168 -1.3549
 5297SOL    HW320921   3.615   4.606   5.432 -0.2627 -2.6216  1.2813
 5297SOL    MW420922   3.528   4.614   5.431 -0.1532  0.3115 -0.3067
 5298SOL     OW20923   1.225   3.341   6.391  0.1878  0.5256  0.0553
 5298SOL    HW220924   1.276   3.266   6.423  0.4380  0.2862 -0.8789
 5298SOL    HW320925   1.191   3.383   6.471 -1.0392 -1.3108  0.5513
 5298SOL    MW420926   1.227   3.337   6.406  0.3934  0.8660  0.0477
 5299SOL     OW20927   5.691   2.181   0.708 -0.2925 -0.1715 -0.4250
 5299SOL    HW220928   5.596   2.168   0.711 -0.1274 -1.8823 -1.5247
 5299SOL    HW320929   5.723   2.141   0.789 -0.2875 -2.2273 -1.3812
 5299SOL    MW420930   5.683   2.174   0.719 -0.4376 -0.1458 -0.2356
 5300SOL     OW20931   0.627   2.678   5.270 -0.0160  0.1175  0.1048
 5300SOL    HW220932   0.606   2.627   5.192 -0.9142  1.6065 -0.6748
 5300SOL    HW320933   0.721   2.691   5.266 -0.1633  0.9615 -1.2597
 5300SOL    MW420934   0.636   2.673   5.259 -0.4735 -0.4706 -0.2623
 5301SOL     OW20935   0.962   3.578   3.470  0.2050  0.4427  0.2861
 5301SOL    HW220936   0.978   3.652   3.411 -0.2705  1.6883  1.6634
 5301SOL    HW320937   0.984   3.612   3.557 -1.2899 -0.6209  1.1160
 5301SOL    MW420938   0.967   3.592   3.473  0.3109 -0.2664 -0.7660
 5302SOL     OW20939   4.075   3.728   6.039  0.7418 -0.2513 -0.2046
 5302SOL    HW220940   4.030   3.801   5.996  1.7895 -0.1709 -1.2244
 5302SOL    HW320941   4.147   3.706   5.980  1.5360 -0.9236  0.9530
 5302SOL    MW420942   4.079   3.735   6.026  0.3466  0.3903 -0.3629
 5303SOL     OW20943   3.993   6.096   3.850 -0.0377 -0.6281  0.2940
 5303SOL    HW220944   3.992   6.052   3.765 -0.1832 -0.1555  0.0441
 5303SOL    HW320945   3.962   6.185   3.831 -2.1376 -1.1220  1.1884
 5303SOL    MW420946   3.989   6.102   3.836 -0.6310  0.0625 -0.5629
 5304SOL     OW20947   3.210   6.053   4.779 -0.2206 -0.0781 -0.1370
 5304SOL    HW220948   3.134   6.000   4.803  0.6672 -0.1318  2.9226
 5304SOL    HW320949   3.285   6.003   4.811  0.9739  1.0592 -1.0438
 5304SOL    MW420950   3.210   6.039   4.786  0.1540  0.1136  0.1357
 5305SOL     OW20951   4.589   2.061   1.179  0.4913  0.1488 -0.0909
 5305SOL    HW220952   4.562   2.152   1.166 -0.9416 -0.1796  0.4592
 5305SOL    HW320953   4.670   2.068   1.230 -1.3171  1.1275  2.9175
 5305SOL    MW420954   4.596   2.074   1.184 -0.1441 -0.0491 -0.3953
 5306SOL     OW20955   1.212   6.043   1.201 -0.0403 -0.3061  0.1726
 5306SOL    HW220956   1.172   6.114   1.151 -1.1409 -0.3350  0.9843
 5306SOL    HW320957   1.300   6.074   1.220 -1.0910  1.7179  2.1568
 5306SOL    MW420958   1.218   6.056   1.197 -0.0824 -0.2951  0.4247
 5307SOL     OW20959   2.835   4.580   0.562 -0.5386  0.1655 -0.0115
 5307SOL    HW220960   2.808   4.648   0.500  1.4307  0.5199 -0.5621
 5307SOL    HW320961   2.805   4.611   0.647  1.3278  2.3725 -0.0820
 5307SOL    MW420962   2.827   4.593   0.565  0.4099  0.1954 -0.1609
 5308SOL     OW20963   1.067   3.932   5.414 -0.2459 -0.1313  0.3587
 5308SOL    HW220964   1.084   3.912   5.507  1.4929  1.3213  0.4146
 5308SOL    HW320965   1.028   4.019   5.416  0.2723  0.1199 -0.2876
 5308SOL    MW420966   1.064   3.941   5.427  0.5517 -0.5732  0.2196
 5309SOL     OW20967   0.382   3.610   3.953  0.6212 -0.5554 -0.1538
 5309SOL    HW220968   0.292   3.643   3.961  0.8068  0.2543 -1.2151
 5309SOL    HW320969   0.376   3.539   3.890  0.9238  0.4060 -1.3008
 5309SOL    MW420970   0.369   3.605   3.946 -0.2381  0.1539  0.5949
 5310SOL     OW20971   6.370   3.101   6.004 -0.1228  0.0030 -1.0495
 5310SOL    HW220972   6.328   3.056   5.931 -3.2803  1.6690 -0.4412
 5310SOL    HW320973   6.328   3.187   6.006  0.8830  0.5348  1.8184
 5310SOL    MW420974   6.359   3.106   5.994  0.3509 -0.3672 -0.0419
 5311SOL     OW20975   2.750   1.350   1.850 -0.2167  0.4360  0.1171
 5311SOL    HW220976   2.713   1.302   1.924  0.2326 -0.1570 -0.0352
 5311SOL    HW320977   2.754   1.441   1.880  0.0225  0.1943  0.8445
 5311SOL    MW420978   2.745   1.356   1.864  0.5619 -0.2306  0.2995
 5312SOL     OW20979   4.011   6.380   5.849 -0.4733 -0.1978 -0.2199
 5312SOL    HW220980   3.958   6.307   5.880  1.1200 -2.0531 -1.6628
 5312SOL    HW320981   3.974   6.403   5.764 -0.4505  0.1204 -0.1464
 5312SOL    MW420982   3.999   6.374   5.842  1.0228 -0.4113  0.4119
 5313SOL     OW20983   3.796   1.075   0.443  0.0020  0.1813  0.1009
 5313SOL    HW220984   3.811   1.152   0.388 -0.5824  1.1862  1.3036
 5313SOL    HW320985   3.862   1.082   0.512 -0.6571  0.1412  0.7497
 5313SOL    MW420986   3.807   1.086   0.445 -0.6496  0.2405  0.3497
 5314SOL     OW20987   5.050   5.609   5.881  0.1750 -0.2859  0.2909
 5314SOL    HW220988   4.956   5.589   5.883  0.1132 -0.0670  2.8774
 5314SOL    HW320989   5.092   5.524   5.867 -0.3905 -0.3066 -1.4425
 5314SOL    MW420990   5.043   5.595   5.880 -0.3030 -0.1046 -0.7649
 5315SOL     OW20991   3.793   3.646   0.268 -0.7951  0.4162  0.4479
 5315SOL    HW220992   3.728   3.717   0.275  0.0073  1.1370  0.8877
 5315SOL    HW320993   3.873   3.684   0.304  0.4370  0.2293 -1.9032
 5315SOL    MW420994   3.795   3.661   0.274  0.1551 -0.0313 -0.2697
 5316SOL     OW20995   6.251   5.761   5.465  0.0300 -0.1404 -0.6069
 5316SOL    HW220996   6.264   5.798   5.552  0.6338  1.0151 -1.1662
 5316SOL    HW320997   6.159   5.780   5.444 -0.8771 -2.6205  0.7414
 5316SOL    MW420998   6.241   5.769   5.474 -0.1944 -0.0079  1.2395
 5317SOL     OW20999   4.514   1.391   2.976  0.2955  0.0017 -0.5551
 5317SOL    HW221000   4.546   1.453   2.911  0.7458 -1.5471 -1.8884
 5317SOL    HW321001   4.531   1.433   3.061 -3.7018  3.7984 -1.2833
 5317SOL    MW421002   4.520   1.405   2.979  0.8485 -0.1273  0.4067
 5318SOL     OW21003   1.696   0.397   5.882 -0.4537 -0.1898  0.4628
 5318SOL    HW221004   1.743   0.342   5.820  1.0544 -1.4858  2.6260
 5318SOL    HW321005   1.603   0.384   5.860  0.0211  0.5858 -2.3926
 5318SOL    MW421006   1.690   0.388   5.871 -0.0925  0.0655 -0.4909
 5319SOL     OW21007   6.349   3.348   6.271  0.0455  0.1836  0.3449
 5319SOL    HW221008   6.269   3.357   6.323  0.6934  0.7683  1.2888
 5319SOL    HW321009   6.327   3.386   6.186 -0.0323  2.5287  1.3255
 5319SOL    MW421010   6.335   3.354   6.267  0.4833 -0.7814 -0.0108
 5320SOL     OW21011   1.841   5.024   1.142  0.2052  0.6902 -0.2177
 5320SOL    HW221012   1.841   4.928   1.142 -0.4589  0.6794  0.4523
 5320SOL    HW321013   1.786   5.048   1.216  0.9414  1.5969  0.0562
 5320SOL    MW421014   1.834   5.015   1.152 -0.0683 -0.2702 -0.0194
 5321SOL     OW21015   5.352   1.920   0.436  0.1545  0.1738  0.2817
 5321SOL    HW221016   5.434   1.878   0.409 -0.2500 -1.4682  1.4077
 5321SOL    HW321017   5.309   1.945   0.354  0.7469 -1.0308 -0.4219
 5321SOL    MW421018   5.357   1.917   0.422 -0.2540  0.5850 -0.0109
 5322SOL     OW21019   6.350   3.650   0.344  0.3380 -0.2362  0.2812
 5322SOL    HW221020   6.410   3.578   0.324 -0.0609 -0.2913 -0.8410
 5322SOL    HW321021   6.341   3.696   0.261  0.3096  0.9036  0.9071
 5322SOL    MW421022   6.357   3.646   0.330 -0.0519 -0.0123  0.2938
 5323SOL     OW21023   3.746   1.981   3.641  0.0255  0.4903  0.3324
 5323SOL    HW221024   3.820   2.038   3.663  2.4041 -1.2596 -2.4617
 5323SOL    HW321025   3.746   1.977   3.546 -2.8977 -0.6598  0.2936
 5323SOL    MW421026   3.756   1.988   3.632  0.5349  0.1232  0.6836
 5324SOL     OW21027   6.096   4.829   3.131 -0.2608 -0.8222 -0.2481
 5324SOL    HW221028   6.049   4.905   3.166 -0.1660 -0.4583 -0.9030
 5324SOL    HW321029   6.037   4.792   3.066 -0.2712 -1.2629  0.0130
 5324SOL    MW421030   6.082   4.834   3.127 -0.1064 -0.1261  0.4147
 5325SOL     OW21031   2.930   5.692   3.472 -0.6291 -0.2798  0.9103
 5325SOL    HW221032   2.912   5.716   3.380 -2.1927 -1.3519  0.8913
 5325SOL    HW321033   2.922   5.597   3.474  1.7246 -0.5184  1.7284
 5325SOL    MW421034   2.926   5.683   3.460 -0.1696 -0.0512  0.5586
 5326SOL     OW21035   5.885   5.662   2.572  0.3806  0.0762 -0.0576
 5326SOL    HW221036   5.870   5.574   2.606  2.6151 -0.2303  0.2624
 5326SOL    HW321037   5.964   5.654   2.519 -0.0007  1.6806 -0.9254
 5326SOL    MW421038   5.893   5.649   2.570 -0.1298  0.1900 -0.1352
 5327SOL     OW21039   3.405   4.319   2.265 -0.4247 -0.1931  0.3233
 5327SOL    HW221040   3.366   4.395   2.222  0.5611 -0.1031 -0.4524
 5327SOL    HW321041   3.497   4.319   2.236 -0.0132 -0.7929  1.5318
 5327SOL    MW421042   3.412   4.329   2.255 -0.3960  0.7455  0.2789
 5328SOL     OW21043   0.308   1.803   5.808  0.7635  0.4554  0.1677
 5328SOL    HW221044   0.355   1.735   5.758 -0.5027  0.1508 -0.6484
 5328SOL    HW321045   0.376   1.842   5.864  1.3370 -2.1856  1.4784
 5328SOL    MW421046   0.323   1.799   5.808 -0.1955 -0.1662 -0.2666
 5329SOL     OW21047   2.112   1.245   6.083 -0.2263  0.2101  0.3869
 5329SOL    HW221048   2.136   1.200   6.002 -0.9673 -1.6821  1.1767
 5329SOL    HW321049   2.196   1.263   6.126  0.2465  2.0485 -1.1428
 5329SOL    MW421050   2.126   1.242   6.078 -0.8011 -0.4277  0.0552
 5330SOL     OW21051   1.273   5.031   3.075 -0.0246  0.8697  0.4031
 5330SOL    HW221052   1.354   4.981   3.080 -1.0125 -0.7527  0.9825
 5330SOL    HW321053   1.257   5.060   3.165 -0.6781  0.1572  0.5287
 5330SOL    MW421054   1.282   5.028   3.087 -0.0319  0.4842 -0.5230
 5331SOL     OW21055   0.236   0.969   5.740  0.6629  0.1595 -0.3118
 5331SOL    HW221056   0.215   0.912   5.814 -1.3997  1.9205  0.5623
 5331SOL    HW321057   0.176   0.941   5.671  2.0607 -0.9737 -1.1179
 5331SOL    MW421058   0.225   0.957   5.741  0.5504 -0.0066 -0.0058
 5332SOL     OW21059   2.696   6.194   4.053  0.0265 -0.0517  0.5500
 5332SOL    HW221060   2.791   6.196   4.069  0.1820  0.5056 -0.3804
 5332SOL    HW321061   2.668   6.284   4.067 -0.1909 -0.0024 -0.1861
 5332SOL    MW421062   2.705   6.206   4.057 -0.0784  0.2772 -0.2361
 5333SOL     OW21063   5.500   1.277   0.426  0.9842  0.1715 -0.5403
 5333SOL    HW221064   5.483   1.368   0.449  1.6082  0.1499  0.0313
 5333SOL    HW321065   5.511   1.278   0.331 -1.7885  0.2320 -0.9393
 5333SOL    MW421066   5.499   1.289   0.416  0.1356  0.7507 -0.3755
 5334SOL     OW21067   4.538   4.126   5.227 -0.6027  0.0714 -0.3562
 5334SOL    HW221068   4.455   4.104   5.185 -1.2698  0.9025  0.4929
 5334SOL    HW321069   4.597   4.054   5.203 -0.5587  1.0461 -3.6934
 5334SOL    MW421070   4.535   4.114   5.219 -0.0905  0.2477 -0.8746
 5335SOL     OW21071   0.919   0.713   1.884  0.9818  0.1543  0.0530
 5335SOL    HW221072   0.922   0.759   1.800  2.4373  0.1423  0.0695
 5335SOL    HW321073   1.009   0.718   1.917  0.4560  0.0906  1.5785
 5335SOL    MW421074   0.931   0.720   1.877 -0.1670  0.1920  1.1406
 5336SOL     OW21075   2.864   3.557   2.860 -0.5150 -0.0536 -0.2091
 5336SOL    HW221076   2.774   3.580   2.838 -0.2052 -1.4233 -3.4276
 5336SOL    HW321077   2.906   3.641   2.879 -2.1842  0.7086  0.3048
 5336SOL    MW421078   2.858   3.571   2.860 -0.6891 -0.2940 -0.0622
 5337SOL     OW21079   4.300   4.668   3.188  0.2740  0.4462  0.0102
 5337SOL    HW221080   4.313   4.751   3.233  0.5952  2.5053 -3.5513
 5337SOL    HW321081   4.226   4.684   3.129  1.9868 -0.8370 -2.6727
 5337SOL    MW421082   4.292   4.681   3.186  0.0877 -0.5513  0.0411
 5338SOL     OW21083   6.426   0.612   2.764 -0.3393 -0.6511 -0.1581
 5338SOL    HW221084   6.406   0.563   2.843  1.7680 -0.2545  0.6910
 5338SOL    HW321085   6.444   0.701   2.794 -2.5186  0.3186 -1.4921
 5338SOL    MW421086   6.426   0.617   2.778 -0.1799 -0.0323  0.0965
 5339SOL     OW21087   0.984   5.108   1.523  0.6268  0.2824  0.2854
 5339SOL    HW221088   0.974   5.027   1.573 -0.7661 -0.1444 -0.6184
 5339SOL    HW321089   1.052   5.089   1.459  0.2663 -0.2202  0.0406
 5339SOL    MW421090   0.991   5.095   1.521  0.1138 -0.5940  0.2577
 5340SOL     OW21091   3.347   0.753   2.507 -0.2066 -0.2741  0.0091
 5340SOL    HW221092   3.438   0.754   2.477 -0.3950 -0.8988 -0.6204
 5340SOL    HW321093   3.350   0.792   2.594  0.2493  2.2540 -1.0501
 5340SOL    MW421094   3.359   0.758   2.515 -0.0068 -0.3263  0.3349
 5341SOL     OW21095   0.771   6.287   3.822 -0.7682  0.2640 -0.6282
 5341SOL    HW221096   0.761   6.380   3.803 -2.6563  0.2885  0.2470
 5341SOL    HW321097   0.691   6.247   3.787  0.4007 -1.1819 -1.7666
 5341SOL    MW421098   0.759   6.294   3.815 -0.1117  0.4461 -0.0483
 5342SOL     OW21099   2.096   2.104   0.162 -0.2114  0.6096 -0.4915
 5342SOL    HW221100   2.186   2.073   0.152 -0.8822 -0.8594 -2.5135
 5342SOL    HW321101   2.105   2.197   0.182  1.7706  0.1489  1.0643
 5342SOL    MW421102   2.109   2.112   0.163  0.2763  0.0319  0.3232
 5343SOL     OW21103   3.078   1.498   0.574 -0.0128 -0.0433 -0.6281
 5343SOL    HW221104   3.017   1.550   0.626 -1.2608  0.0240 -2.1079
 5343SOL    HW321105   3.128   1.448   0.639 -0.3028  1.3267  0.7159
 5343SOL    MW421106   3.077   1.498   0.590  0.1770 -0.3019  0.7242
 5344SOL     OW21107   1.664   2.760   4.191 -0.0924 -0.0149 -0.7797
 5344SOL    HW221108   1.714   2.751   4.110 -1.1805  0.4468 -1.5224
 5344SOL    HW321109   1.669   2.853   4.213  1.6097 -0.3955  0.6392
 5344SOL    MW421110   1.671   2.771   4.183 -0.0772 -0.4567 -0.0332
 5345SOL     OW21111   6.371   0.320   1.662  0.2224  0.4161  0.3102
 5345SOL    HW221112   6.408   0.264   1.729  0.6896 -1.6688 -1.5652
 5345SOL    HW321113   6.288   0.278   1.638 -1.7175  3.0060  1.8834
 5345SOL    MW421114   6.365   0.307   1.667 -0.0692  0.2025 -0.4940
 5346SOL     OW21115   3.977   1.093   0.657 -0.3434  0.2051 -0.4653
 5346SOL    HW221116   4.069   1.102   0.632  0.1364  0.5183  1.3083
 5346SOL    HW321117   3.951   1.181   0.684  0.1019 -0.6098  3.0162
 5346SOL    MW421118   3.986   1.106   0.657  0.2825 -0.7554  0.3736
 5347SOL     OW21119   4.442   3.751   0.222  0.0558 -0.3769 -0.0858
 5347SOL    HW221120   4.468   3.687   0.288 -1.0085  0.6536  1.3954
 5347SOL    HW321121   4.518   3.758   0.164  1.2598 -0.8464  1.3852
 5347SOL    MW421122   4.456   3.743   0.223  0.2068  0.2882  0.2687
 5348SOL     OW21123   4.455   6.299   1.969  0.4101  0.0251  0.3779
 5348SOL    HW221124   4.396   6.343   1.907 -1.3113 -1.0658  1.1672
 5348SOL    HW321125   4.436   6.206   1.959  0.5559 -0.2193  2.0711
 5348SOL    MW421126   4.445   6.293   1.960  0.0485 -0.2031 -0.5781
 5349SOL     OW21127   1.705   4.277   2.312  0.4776 -0.3508 -0.3506
 5349SOL    HW221128   1.743   4.358   2.345  1.2672 -1.0120  0.4141
 5349SOL    HW321129   1.614   4.279   2.341  0.5416  0.1866 -0.1885
 5349SOL    MW421130   1.698   4.288   2.320 -0.6204  0.0707 -0.4771
 5350SOL     OW21131   2.844   4.720   0.812  1.1373 -0.4192  0.7194
 5350SOL    HW221132   2.773   4.712   0.876 -0.2512  1.0203 -0.5357
 5350SOL    HW321133   2.890   4.637   0.817 -1.4470 -1.9801  0.6981
 5350SOL    MW421134   2.840   4.708   0.821 -0.4608  0.1442  0.0470
 5351SOL     OW21135   4.399   5.961   4.382  0.3479 -0.7561  0.2155
 5351SOL    HW221136   4.366   6.000   4.463  0.7660 -2.2822  1.1535
 5351SOL    HW321137   4.482   6.006   4.366  0.1461 -0.2784  0.4957
 5351SOL    MW421138   4.405   5.972   4.390 -0.1875  0.2847  0.6272
 5352SOL     OW21139   0.092   5.350   3.766  0.1768  0.0804 -0.4780
 5352SOL    HW221140   0.136   5.265   3.758  0.2434  0.1600 -0.9441
 5352SOL    HW321141   0.046   5.344   3.850  0.2343 -0.3906 -0.4741
 5352SOL    MW421142   0.092   5.338   3.776 -0.3674 -0.7852  0.0386
 5353SOL     OW21143   3.772   2.462   4.889  0.0368  0.0145  0.1072
 5353SOL    HW221144   3.697   2.423   4.845  2.4373 -0.3428 -4.1178
 5353SOL    HW321145   3.841   2.465   4.823  2.9436  2.9228  2.8860
 5353SOL    MW421146   3.771   2.457   4.875 -0.6604 -0.0928  0.1669
 5354SOL     OW21147   0.694   0.254   5.687  0.3743 -0.2269 -0.3056
 5354SOL    HW221148   0.641   0.268   5.609  1.3565 -2.4124 -1.4522
 5354SOL    HW321149   0.633   0.220   5.752 -0.0494 -0.4740 -0.8320
 5354SOL    MW421150   0.679   0.252   5.685 -0.9846  0.6788 -0.0701
 5355SOL     OW21151   3.219   4.550   1.028  0.7673 -0.0387 -1.2424
 5355SOL    HW221152   3.171   4.538   0.946  0.2669 -1.5867 -0.7542
 5355SOL    HW321153   3.257   4.638   1.021 -0.5640  0.4793 -2.4523
 5355SOL    MW421154   3.218   4.560   1.016  0.2061  0.7026  0.1985
 5356SOL     OW21155   3.251   3.578   4.874 -0.1173  0.3338 -0.4720
 5356SOL    HW221156   3.252   3.507   4.939  0.0327  1.3489  0.6661
 5356SOL    HW321157   3.342   3.584   4.845  0.0615  0.6671  0.1305
 5356SOL    MW421158   3.263   3.569   4.879 -0.0222  0.2478  0.1135
 5357SOL     OW21159   0.870   5.972   5.898  0.3700  0.3171  0.1543
 5357SOL    HW221160   0.820   6.003   5.822 -1.0125 -1.4446  0.2731
 5357SOL    HW321161   0.809   5.914   5.945  1.6350  0.3058  1.8749
 5357SOL    MW421162   0.856   5.968   5.894  0.0826 -0.4766  0.1670
 5358SOL     OW21163   0.296   1.368   0.678  0.2860 -0.0537 -0.4973
 5358SOL    HW221164   0.255   1.452   0.656  1.8571  0.1918 -2.8417
 5358SOL    HW321165   0.381   1.392   0.716 -0.1425 -0.6093  0.9044
 5358SOL    MW421166   0.302   1.382   0.680  0.2926  0.5660  0.5684
 5359SOL     OW21167   1.091   3.274   1.158 -0.3553 -0.0219  0.2485
 5359SOL    HW221168   1.176   3.300   1.122 -0.2179 -0.4726  0.2469
 5359SOL    HW321169   1.072   3.190   1.117 -1.6611  0.9063 -1.1691
 5359SOL    MW421170   1.100   3.266   1.148  0.1151  0.1457 -0.1323
 5360SOL     OW21171   3.730   2.817   1.477 -0.0304  0.3919  0.5315
 5360SOL    HW221172   3.658   2.849   1.532  0.1916  1.4312  0.2450
 5360SOL    HW321173   3.764   2.896   1.435  0.9018 -0.1710  0.2131
 5360SOL    MW421174   3.725   2.832   1.479 -0.2817  0.5015 -0.2198
 5361SOL     OW21175   2.697   1.075   3.812  0.1329  0.1427 -0.2443
 5361SOL    HW221176   2.613   1.044   3.845 -0.1024 -1.5309 -2.1807
 5361SOL    HW321177   2.760   1.008   3.840 -0.1488 -1.6227 -3.2927
 5361SOL    MW421178   2.694   1.062   3.820 -0.3289  0.0468 -0.2447
 5362SOL     OW21179   3.703   3.802   6.017 -0.2092 -0.0628  0.1779
 5362SOL    HW221180   3.670   3.735   6.077 -2.6383  0.3652 -0.5489
 5362SOL    HW321181   3.651   3.791   5.937 -0.0080  2.0411 -0.3066
 5362SOL    MW421182   3.692   3.792   6.014 -0.5099 -0.1768 -0.3328
 5363SOL     OW21183   3.971   5.594   3.321 -0.2030 -0.0785 -0.3530
 5363SOL    HW221184   3.890   5.595   3.269  0.3268  0.2090 -1.1867
 5363SOL    HW321185   4.031   5.652   3.275 -0.2044  1.4336  1.4196
 5363SOL    MW421186   3.968   5.602   3.308  0.3051  0.1941  0.1480
 5364SOL     OW21187   6.317   4.444   5.229  0.3957 -0.4135 -0.3166
 5364SOL    HW221188   6.258   4.450   5.304  1.7063  0.8454  0.6665
 5364SOL    HW321189   6.267   4.479   5.155 -0.2707  0.1107  0.3739
 5364SOL    MW421190   6.302   4.449   5.229 -0.4838  0.0378 -0.2825
 5365SOL     OW21191   2.952   0.454   1.810  0.0029 -0.1359  0.4092
 5365SOL    HW221192   2.865   0.481   1.839 -0.4904 -1.0824 -0.1331
 5365SOL    HW321193   2.984   0.397   1.881  0.0917  0.0419  0.5118
 5365SOL    MW421194   2.944   0.450   1.823  0.2760  0.4137  0.4583
 5366SOL     OW21195   5.196   4.594   5.195 -0.0343 -0.2118 -0.3883
 5366SOL    HW221196   5.128   4.633   5.250  0.9480  0.3769  0.4440
 5366SOL    HW321197   5.194   4.644   5.114  0.4129  0.8059  0.2136
 5366SOL    MW421198   5.187   4.606   5.192  0.2503 -1.0474  0.4355
 5367SOL     OW21199   6.368   6.053   2.890  0.2066 -0.4186 -0.3135
 5367SOL    HW221200   6.282   6.012   2.883 -0.2960  0.5330 -0.0031
 5367SOL    HW321201   6.382   6.096   2.806  0.3219 -0.4705 -0.3211
 5367SOL    MW421202   6.359   6.053   2.878  0.0837  0.0905 -0.0169
 5368SOL     OW21203   2.054   2.563   3.710 -0.2221  0.3953 -0.6317
 5368SOL    HW221204   2.096   2.648   3.725  1.5636 -0.2110 -1.8512
 5368SOL    HW321205   2.090   2.533   3.627  1.8910 -3.0804  1.3252
 5368SOL    MW421206   2.064   2.571   3.701 -0.1287  0.2503  0.0656
 5369SOL     OW21207   4.533   1.071   2.154  0.5577  0.0824 -0.6528
 5369SOL    HW221208   4.613   1.028   2.123  1.4912  0.7660  0.7336
 5369SOL    HW321209   4.465   1.041   2.093  1.7172 -1.0767 -1.4296
 5369SOL    MW421210   4.534   1.061   2.142  0.4197 -0.0845  0.2920
 5370SOL     OW21211   5.003   2.936   3.332  0.1964 -0.0919 -0.4622
 5370SOL    HW221212   5.032   3.027   3.320 -0.4501 -0.1246 -2.7130
 5370SOL    HW321213   5.040   2.911   3.417  0.9601  2.0431 -0.0810
 5370SOL    MW421214   5.012   2.945   3.342  0.4483 -0.3053  0.3315
 5371SOL     OW21215   1.727   0.720   6.034 -0.3010 -0.0471 -0.1351
 5371SOL    HW221216   1.635   0.695   6.023 -0.4537  0.7807 -0.8232
 5371SOL    HW321217   1.772   0.681   5.959  0.0325 -0.9291  0.4943
 5371SOL    MW421218   1.721   0.711   6.023  0.1131 -0.3110  0.0948
 5372SOL     OW21219   5.414   5.770   5.477  0.2463 -0.4210  0.0136
 5372SOL    HW221220   5.327   5.769   5.515  0.1858  0.5699 -0.0815
 5372SOL    HW321221   5.415   5.694   5.418 -0.9802  0.2534 -0.9188
 5372SOL    MW421222   5.403   5.760   5.474 -0.1970  0.3385 -0.0090
 5373SOL     OW21223   4.941   0.465   3.814 -0.0191 -0.1017  0.3251
 5373SOL    HW221224   4.984   0.414   3.883 -0.2168  1.2940  1.5264
 5373SOL    HW321225   4.936   0.405   3.740  2.8586 -0.7431  0.5275
 5373SOL    MW421226   4.946   0.450   3.814 -0.2909  0.6930 -0.3168
 5374SOL     OW21227   4.959   1.039   4.163  0.6514  0.0528  0.5509
 5374SOL    HW221228   4.895   1.102   4.196  0.9435  0.5442  0.1871
 5374SOL    HW321229   4.922   1.008   4.080  1.2337  0.9263 -0.0615
 5374SOL    MW421230   4.946   1.043   4.156 -0.6862 -0.4372  0.1097
 5375SOL     OW21231   3.797   5.718   4.243 -0.4193 -0.2809 -0.6960
 5375SOL    HW221232   3.885   5.745   4.217 -0.4045 -0.1989 -0.5614
 5375SOL    HW321233   3.754   5.799   4.270  0.4568 -0.6501  2.2308
 5375SOL    MW421234   3.803   5.732   4.243 -0.6394  0.3026 -0.2804
 5376SOL     OW21235   2.627   1.626   4.348  0.6088  0.8050 -0.2064
 5376SOL    HW221236   2.720   1.618   4.328  0.7169  2.2937 -0.4328
 5376SOL    HW321237   2.613   1.720   4.360 -0.6200  0.5060  1.0287
 5376SOL    MW421238   2.637   1.638   4.347  0.1205  0.4088  0.2956
 5377SOL     OW21239   3.918   0.462   2.603  0.0862  1.2928 -0.1145
 5377SOL    HW221240   3.950   0.376   2.631  1.4479  1.4724 -1.0445
 5377SOL    HW321241   3.885   0.502   2.683 -1.0480 -0.2751  0.2521
 5377SOL    MW421242   3.918   0.456   2.617 -0.3771 -0.0662  0.5637
 5378SOL     OW21243   1.528   4.671   4.264 -0.1115 -0.5993 -0.3776
 5378SOL    HW221244   1.561   4.665   4.353 -0.9489 -1.6620 -0.1090
 5378SOL    HW321245   1.463   4.742   4.267  0.4863 -0.0513 -0.3564
 5378SOL    MW421246   1.523   4.679   4.276  0.2972  0.2849  0.7493
 5379SOL     OW21247   3.193   5.975   1.030  0.6273 -0.2273  0.0472
 5379SOL    HW221248   3.175   5.881   1.032  0.2367 -0.1550 -0.0206
 5379SOL    HW321249   3.289   5.982   1.028  0.7072 -0.6052  1.6074
 5379SOL    MW421250   3.203   5.964   1.030  0.3254  0.3438 -0.1580
 5380SOL     OW21251   1.481   0.795   4.190 -0.4160 -0.0565 -0.0950
 5380SOL    HW221252   1.459   0.805   4.283 -1.9916 -2.1395 -0.1728
 5380SOL    HW321253   1.518   0.880   4.165 -1.4247  1.0982  2.0354
 5380SOL    MW421254   1.483   0.808   4.199  0.3987 -0.0415 -0.1104
 5381SOL     OW21255   2.967   4.844   5.584  0.2724  0.0503 -0.7604
 5381SOL    HW221256   2.876   4.836   5.554 -0.1825 -1.0439  0.8119
 5381SOL    HW321257   2.997   4.754   5.595  0.6389  0.3819  1.3163
 5381SOL    MW421258   2.959   4.831   5.581  0.0032 -0.2709 -0.3915
 5382SOL     OW21259   4.086   3.252   2.477 -0.6254 -0.1745  0.2078
 5382SOL    HW221260   4.042   3.335   2.496 -0.1534 -0.0770  0.9606
 5382SOL    HW321261   4.172   3.261   2.519 -0.3384 -0.8068 -0.2310
 5382SOL    MW421262   4.092   3.264   2.485 -0.7316  0.5092 -0.4088
 5383SOL     OW21263   2.911   1.888   0.619 -0.1167  0.0792 -0.0541
 5383SOL    HW221264   2.869   1.971   0.594 -0.3401 -0.0953 -0.2620
 5383SOL    HW321265   2.908   1.889   0.715  1.7913  1.2810  0.0525
 5383SOL    MW421266   2.905   1.899   0.629 -0.1710  0.2142  0.0771
 5384SOL     OW21267   5.910   2.135   1.151 -0.0872  0.3709  0.4140
 5384SOL    HW221268   5.887   2.043   1.162 -0.6738  0.4456 -0.1408
 5384SOL    HW321269   5.874   2.179   1.228 -0.4698  0.2513  0.3033
 5384SOL    MW421270   5.902   2.129   1.163  0.1764 -0.0703 -0.3451
 5385SOL     OW21271   1.524   1.217   2.886 -0.3056  0.0502 -0.2936
 5385SOL    HW221272   1.504   1.286   2.823 -2.2584 -2.3443 -2.5325
 5385SOL    HW321273   1.591   1.164   2.843 -0.4850 -0.7284  0.3685
 5385SOL    MW421274   1.530   1.219   2.872  0.2046 -0.1416 -0.2889
 5386SOL     OW21275   1.510   0.438   0.483 -0.9685 -0.8125  0.2606
 5386SOL    HW221276   1.499   0.529   0.458  0.0882 -0.1984  1.8316
 5386SOL    HW321277   1.462   0.430   0.566 -4.0182 -2.6465 -1.4602
 5386SOL    MW421278   1.502   0.449   0.491 -0.1345  0.0185  0.0630
 5387SOL     OW21279   2.793   3.275   0.341  0.1056  0.0139 -0.4211
 5387SOL    HW221280   2.839   3.338   0.286  1.1499 -0.1498  0.2496
 5387SOL    HW321281   2.775   3.322   0.423 -2.1273  0.5131 -1.1197
 5387SOL    MW421282   2.797   3.289   0.345 -0.9445  0.1545 -0.4489
 5388SOL     OW21283   5.939   3.151   1.496 -0.0747  0.5185  0.0539
 5388SOL    HW221284   6.000   3.103   1.440 -0.8799  0.7914 -1.0783
 5388SOL    HW321285   5.856   3.151   1.448 -1.1585 -0.3354  1.8156
 5388SOL    MW421286   5.936   3.144   1.482 -0.9045  0.0299  0.5683
 5389SOL     OW21287   2.795   2.200   5.712 -0.3584 -0.1610 -0.2368
 5389SOL    HW221288   2.796   2.174   5.619  3.4023 -0.1118 -0.3289
 5389SOL    HW321289   2.814   2.119   5.759  1.0002  0.4150  0.2316
 5389SOL    MW421290   2.797   2.186   5.706 -0.0111 -0.1235 -0.0491
 5390SOL     OW21291   5.437   3.161   2.213  0.0050  0.1419  0.1002
 5390SOL    HW221292   5.359   3.202   2.175 -0.4008 -0.6303  0.0857
 5390SOL    HW321293   5.480   3.117   2.140  0.6994  0.9317  0.0248
 5390SOL    MW421294   5.433   3.161   2.198 -0.5482 -0.4526  0.1955
 5391SOL     OW21295   4.095   4.253   3.735 -0.3807  0.2020  0.3083
 5391SOL    HW221296   4.069   4.206   3.655  0.3950 -0.3600  0.3751
 5391SOL    HW321297   4.085   4.188   3.805  2.5107 -0.5079  0.1538
 5391SOL    MW421298   4.090   4.238   3.734 -0.8310 -0.2602  0.8102
 5392SOL     OW21299   5.723   0.377   2.301  0.2028 -0.7481 -0.5071
 5392SOL    HW221300   5.763   0.454   2.261  0.2162 -0.4355  0.0932
 5392SOL    HW321301   5.633   0.404   2.322  0.0002 -1.1085 -0.8899
 5392SOL    MW421302   5.716   0.391   2.299 -0.5160  0.2302  0.2091
 5393SOL     OW21303   6.418   0.711   0.354 -0.0693 -0.1287  0.0842
 5393SOL    HW221304   6.474   0.636   0.375 -0.7517 -0.5879  0.3271
 5393SOL    HW321305   6.363   0.681   0.282  2.3738  1.5052 -2.6387
 5393SOL    MW421306   6.418   0.697   0.347  0.0619 -0.0215 -0.1989
 5394SOL     OW21307   6.343   6.324   0.900 -0.2483  0.4953  0.2056
 5394SOL    HW221308   6.378   6.309   0.987  0.5223 -0.9349 -0.3234
 5394SOL    HW321309   6.374   6.411   0.876 -1.9000  1.6475  1.9960
 5394SOL    MW421310   6.352   6.334   0.908 -0.1775 -0.0141 -0.2049
 5395SOL     OW21311   2.588   3.928   5.361  0.8042 -0.1775  0.1001
 5395SOL    HW221312   2.681   3.923   5.385  1.1818 -1.6117 -1.5100
 5395SOL    HW321313   2.543   3.884   5.433  1.4956 -0.6862  0.2366
 5395SOL    MW421314   2.594   3.922   5.374 -0.0076  0.4348 -0.2119
 5396SOL     OW21315   5.364   5.348   1.852  0.1728 -0.1536  0.3402
 5396SOL    HW221316   5.335   5.437   1.874  0.0561  0.2825 -1.4009
 5396SOL    HW321317   5.459   5.353   1.853  0.1688 -0.0896  0.5055
 5396SOL    MW421318   5.373   5.361   1.855  0.5228  0.3233 -0.2312
 5397SOL     OW21319   5.749   4.631   4.615  0.3130 -0.0278 -0.0705
 5397SOL    HW221320   5.719   4.542   4.633  0.9338 -0.4022 -0.8430
 5397SOL    HW321321   5.791   4.659   4.696 -0.4439 -0.1908  0.3903
 5397SOL    MW421322   5.751   4.623   4.628  0.4827  0.2866 -0.5365
 5398SOL     OW21323   0.388   2.751   2.860 -0.5519 -0.1039  0.0952
 5398SOL    HW221324   0.394   2.794   2.775 -0.8690 -0.3694 -0.0633
 5398SOL    HW321325   0.380   2.823   2.923  1.4879  0.1823  0.0864
 5398SOL    MW421326   0.388   2.766   2.857  0.3530 -0.4542  0.1413
 5399SOL     OW21327   4.245   6.289   4.763  0.4251 -0.2365  1.0554
 5399SOL    HW221328   4.298   6.215   4.732 -1.0778 -1.1188  0.4706
 5399SOL    HW321329   4.239   6.348   4.688  0.8608  0.0424  1.2351
 5399SOL    MW421330   4.251   6.287   4.749 -0.5318  0.1694 -0.0107
 5400SOL     OW21331   3.781   0.913   4.407 -0.1677  0.0292  0.1799
 5400SOL    HW221332   3.703   0.899   4.353 -0.7166 -0.2595  1.0260
 5400SOL    HW321333   3.764   0.995   4.453  0.9360  1.0441 -1.1463
 5400SOL    MW421334   3.768   0.922   4.406  0.3532  0.8291 -0.3111
 5401SOL     OW21335   2.376   6.053   4.943 -0.5275  0.8787  0.2092
 5401SOL    HW221336   2.347   6.138   4.910 -0.7222  0.6682 -0.1642
 5401SOL    HW321337   2.297   6.013   4.980 -1.0674 -0.2794 -2.0366
 5401SOL    MW421338   2.361   6.059   4.944 -0.2757 -0.6280  0.5418
 5402SOL     OW21339   4.324   0.553   0.135  0.4484 -0.7361 -0.4253
 5402SOL    HW221340   4.309   0.542   0.229 -0.2107  0.4369 -0.3741
 5402SOL    HW321341   4.280   0.478   0.095  2.4690 -2.3949  0.2895
 5402SOL    MW421342   4.316   0.541   0.142  0.6140 -0.1309 -0.3491
 5403SOL     OW21343   4.116   4.977   4.575  1.0009  0.6663 -0.1547
 5403SOL    HW221344   4.022   4.992   4.569  0.5885 -0.7586  1.6845
 5403SOL    HW321345   4.154   5.040   4.514 -1.2250 -0.1886 -2.6456
 5403SOL    MW421346   4.109   4.987   4.566 -0.4199 -0.4516 -0.5569
 5404SOL     OW21347   3.543   1.508   1.805  0.2059 -0.2414  0.3240
 5404SOL    HW221348   3.467   1.517   1.862 -0.3438 -1.0860 -0.2549
 5404SOL    HW321349   3.543   1.416   1.779  2.4177 -0.7236  1.6740
 5404SOL    MW421350   3.533   1.497   1.809 -0.1322 -0.3360 -0.2219
 5405SOL     OW21351   0.148   5.615   5.812 -0.4244  0.2862  0.3444
 5405SOL    HW221352   0.165   5.528   5.777  0.9065  0.7879 -0.3119
 5405SOL    HW321353   0.230   5.641   5.853 -0.2737  1.8728 -0.8934
 5405SOL    MW421354   0.161   5.607   5.813  0.4544  0.5441 -0.2351
 5406SOL     OW21355   3.398   5.036   3.053 -0.4337  0.0211  0.2298
 5406SOL    HW221356   3.306   5.017   3.073 -0.2211 -2.8077 -0.9365
 5406SOL    HW321357   3.448   4.979   3.112  0.4876 -0.1510 -0.6843
 5406SOL    MW421358   3.392   5.026   3.063 -0.8450 -0.7133 -0.7313
 5407SOL     OW21359   4.274   4.341   4.039 -0.1022 -0.2716 -0.3170
 5407SOL    HW221360   4.188   4.306   4.014 -0.8566  0.1657  1.4810
 5407SOL    HW321361   4.332   4.265   4.037 -0.5235 -0.5762 -1.5566
 5407SOL    MW421362   4.270   4.326   4.036 -0.0267 -0.2304  0.1533
 5408SOL     OW21363   3.754   3.445   4.402 -0.1255 -0.0598  0.3448
 5408SOL    HW221364   3.767   3.393   4.481 -0.7272 -1.8736 -0.6957
 5408SOL    HW321365   3.689   3.397   4.351  1.6798 -0.0511 -2.1666
 5408SOL    MW421366   3.747   3.432   4.406 -0.3322  0.3522  0.6619
 5409SOL     OW21367   0.859   3.477   5.861  0.0570 -0.3917 -0.5396
 5409SOL    HW221368   0.952   3.473   5.883  0.0151  0.3595 -0.1919
 5409SOL    HW321369   0.828   3.387   5.872  0.7547 -0.6633 -0.7327
 5409SOL    MW421370   0.867   3.465   5.866 -0.0483 -0.7835 -0.6750
 5410SOL     OW21371   2.779   0.872   4.270 -0.2000 -0.1630 -0.2432
 5410SOL    HW221372   2.835   0.935   4.316 -0.2246 -0.4610  0.1998
 5410SOL    HW321373   2.841   0.815   4.225 -0.1512 -0.3653  0.0782
 5410SOL    MW421374   2.795   0.873   4.270 -0.0069 -0.2537 -0.1984
 5411SOL     OW21375   5.039   1.401   5.896 -0.3117  0.5367  0.1434
 5411SOL    HW221376   4.980   1.382   5.969 -1.0625  1.4360 -0.2210
 5411SOL    HW321377   5.119   1.432   5.938 -0.9432  1.6161  0.5891
 5411SOL    MW421378   5.042   1.403   5.911  0.0614  0.0106  0.0909
 5412SOL     OW21379   1.981   2.339   5.077  0.1995 -0.1151 -0.0509
 5412SOL    HW221380   2.072   2.362   5.057  0.6368 -1.2502  0.5353
 5412SOL    HW321381   1.944   2.418   5.115  1.2895  0.0073  0.8012
 5412SOL    MW421382   1.988   2.352   5.079  0.3896  0.7736 -0.5669
 5413SOL     OW21383   3.106   1.134   1.913  0.3029 -0.1175 -0.0318
 5413SOL    HW221384   3.023   1.094   1.938 -0.3180  1.1058 -0.0293
 5413SOL    HW321385   3.096   1.155   1.820 -1.1230  3.8018  0.8125
 5413SOL    MW421386   3.093   1.132   1.904  0.7348 -0.2367  0.7318
 5414SOL     OW21387   0.155   4.040   4.411 -0.2268 -0.1197  0.2708
 5414SOL    HW221388   0.247   4.014   4.407  0.1361  1.0298  0.5865
 5414SOL    HW321389   0.156   4.131   4.382 -1.1530  0.1461  1.0357
 5414SOL    MW421390   0.168   4.049   4.407 -0.0055 -0.4801  0.0862
 5415SOL     OW21391   2.925   5.955   5.139 -0.7150  0.4007 -0.4069
 5415SOL    HW221392   2.868   5.916   5.073 -2.2121  2.3619 -0.3410
 5415SOL    HW321393   2.930   5.889   5.208 -0.3828 -1.0403 -1.7442
 5415SOL    MW421394   2.918   5.941   5.140 -0.8620  0.6444  0.5732
 5416SOL     OW21395   2.123   2.213   3.984  0.0054 -0.0846  0.2549
 5416SOL    HW221396   2.112   2.305   4.011  0.7516  0.0639  0.0553
 5416SOL    HW321397   2.169   2.218   3.900  1.4713 -0.6818  0.9955
 5416SOL    MW421398   2.127   2.226   3.977  0.0737 -0.3023  0.5935
 5417SOL     OW21399   2.254   5.709   2.587  0.5077 -0.2579  0.3309
 5417SOL    HW221400   2.318   5.743   2.526  1.5042 -0.3649  1.2880
 5417SOL    HW321401   2.229   5.624   2.551 -0.4965  0.5504 -1.0032
 5417SOL    MW421402   2.259   5.702   2.574  0.5960  0.4552  0.5216
 5418SOL     OW21403   1.907   4.540   1.468 -0.0857  0.7094 -0.0136
 5418SOL    HW221404   1.874   4.517   1.381 -1.6142 -0.1730  0.7562
 5418SOL    HW321405   1.974   4.607   1.452  0.0329  0.1848 -1.8888
 5418SOL    MW421406   1.911   4.546   1.455  0.3145  0.3792  0.1061
 5419SOL     OW21407   1.136   4.585   1.937  0.0423  0.8776  0.2733
 5419SOL    HW221408   1.102   4.503   1.973  0.5556  1.0588  1.2040
 5419SOL    HW321409   1.130   4.574   1.842  2.5814 -1.3196  0.2565
 5419SOL    MW421410   1.131   4.572   1.929 -0.5296  0.3243 -0.5103
 5420SOL     OW21411   4.885   2.817   4.450  0.1839 -0.4114  0.5285
 5420SOL    HW221412   4.931   2.737   4.427  0.4976 -0.1931  0.3933
 5420SOL    HW321413   4.943   2.888   4.422  0.4274 -0.1336  1.6475
 5420SOL    MW421414   4.899   2.816   4.443  0.4326  0.1863 -0.0748
 5421SOL     OW21415   2.712   3.457   3.633  0.2298  0.6030  0.1946
 5421SOL    HW221416   2.680   3.472   3.544  1.4126  3.1388  0.0940
 5421SOL    HW321417   2.737   3.544   3.665  0.3033 -0.2744  2.8514
 5421SOL    MW421418   2.711   3.471   3.626  0.2218  0.7993  0.2248
 5422SOL     OW21419   1.075   4.886   3.428  0.6348  0.5893  0.0467
 5422SOL    HW221420   0.991   4.930   3.413 -0.4762 -1.5257 -0.2259
 5422SOL    HW321421   1.113   4.932   3.503 -0.9566  1.3215  0.4364
 5422SOL    MW421422   1.069   4.898   3.436 -0.2150  0.8527  0.0611
 5423SOL     OW21423   5.565   1.775   1.702 -0.0826  0.1781 -0.1621
 5423SOL    HW221424   5.565   1.829   1.781  0.7345  0.6379 -0.4582
 5423SOL    HW321425   5.596   1.690   1.731 -1.4216 -0.1711  0.3179
 5423SOL    MW421426   5.569   1.771   1.716 -0.8456  0.4050 -0.1004
 5424SOL     OW21427   4.300   5.279   3.662 -0.4807  0.0821 -0.5201
 5424SOL    HW221428   4.276   5.264   3.754  1.9318  0.1059  0.1863
 5424SOL    HW321429   4.223   5.320   3.624 -1.7868 -0.5112  1.3335
 5424SOL    MW421430   4.287   5.283   3.669  0.0842  0.5784  0.0874
 5425SOL     OW21431   5.626   2.820   4.070  0.0480  0.4309  0.0070
 5425SOL    HW221432   5.682   2.793   4.142  0.8183 -0.9289 -1.0482
 5425SOL    HW321433   5.539   2.786   4.091 -0.7956  3.5329  2.2267
 5425SOL    MW421434   5.622   2.812   4.082 -0.6249 -0.0364 -0.2741
 5426SOL     OW21435   2.367   1.936   5.654 -0.2534  0.1002  0.0005
 5426SOL    HW221436   2.367   2.031   5.646  1.0405  0.1425  0.2019
 5426SOL    HW321437   2.433   1.918   5.721 -0.9432 -0.9086  0.4244
 5426SOL    MW421438   2.376   1.946   5.662  0.2855 -0.1392  0.1478
 5427SOL     OW21439   2.697   5.077   4.762 -0.3247  0.3444  0.4406
 5427SOL    HW221440   2.638   5.004   4.744  1.2227 -1.0909  0.9771
 5427SOL    HW321441   2.777   5.056   4.714  0.2998  1.4710  0.9645
 5427SOL    MW421442   2.699   5.065   4.753  0.0567 -0.4612 -0.1722
 5428SOL     OW21443   4.503   1.910   4.412  0.2115  0.7297  0.7744
 5428SOL    HW221444   4.487   1.818   4.432  0.8705 -0.3041 -2.7613
 5428SOL    HW321445   4.596   1.923   4.432  0.3741  0.2961  0.3282
 5428SOL    MW421446   4.513   1.899   4.417 -0.1395 -0.0395 -0.2750
 5429SOL     OW21447   1.894   3.938   6.087  0.0874 -0.2487 -0.1212
 5429SOL    HW221448   1.806   3.944   6.051 -0.5809 -1.0018  1.3140
 5429SOL    HW321449   1.908   4.023   6.130  0.3616  0.1372 -0.9445
 5429SOL    MW421450   1.885   3.950   6.088  0.2674 -0.2599  0.3780
 5430SOL     OW21451   3.822   1.794   6.094  0.5786 -0.4209 -0.2901
 5430SOL    HW221452   3.806   1.719   6.151 -1.1942  0.3696  0.3129
 5430SOL    HW321453   3.774   1.774   6.014  3.2084 -1.6171 -1.7325
 5430SOL    MW421454   3.814   1.782   6.091  0.2208 -0.1084 -0.4534
 5431SOL     OW21455   4.221   2.527   2.328 -0.6585 -0.1977 -0.4931
 5431SOL    HW221456   4.129   2.508   2.308 -0.9129  0.1157  0.3382
 5431SOL    HW321457   4.270   2.482   2.259 -1.4523  0.0599 -1.2545
 5431SOL    MW421458   4.215   2.518   2.316  0.2559 -0.2967  0.7286
 5432SOL     OW21459   3.656   5.666   6.341 -0.3024 -0.0877 -0.1615
 5432SOL    HW221460   3.739   5.651   6.387 -0.0882  1.7721  0.1470
 5432SOL    HW321461   3.664   5.617   6.259  1.9241  1.5451 -1.0137
 5432SOL    MW421462   3.668   5.658   6.336  0.0126  0.1291 -0.4383
 5433SOL     OW21463   0.353   4.399   3.916 -0.3172  0.2428 -0.3800
 5433SOL    HW221464   0.417   4.330   3.935  1.1765  1.2496 -1.5525
 5433SOL    HW321465   0.317   4.375   3.831  0.6096  1.1557 -1.0541
 5433SOL    MW421466   0.356   4.387   3.907 -0.1794 -0.2334  0.2336
 5434SOL     OW21467   2.603   6.204   0.846  0.7512  0.0363  0.2485
 5434SOL    HW221468   2.661   6.129   0.861  0.4489 -0.1381  0.5376
 5434SOL    HW321469   2.549   6.210   0.925  0.3711  0.1966 -0.0182
 5434SOL    MW421470   2.604   6.195   0.858  0.4819  0.1090 -0.0274
 5435SOL     OW21471   0.436   0.748   1.954  0.4135  0.6505 -0.5958
 5435SOL    HW221472   0.385   0.765   2.033  0.1626  0.6684 -0.7604
 5435SOL    HW321473   0.412   0.819   1.894  0.1046  0.2649 -0.9299
 5435SOL    MW421474   0.426   0.760   1.957  0.3438  0.6902 -0.1178
 5436SOL     OW21475   1.354   3.103   4.873 -0.4422 -0.2876  0.2642
 5436SOL    HW221476   1.439   3.092   4.914  0.1178 -0.2863 -0.8572
 5436SOL    HW321477   1.346   3.028   4.814 -0.6285  0.4131 -0.6177
 5436SOL    MW421478   1.364   3.091   4.871 -0.1222  0.1394 -0.2981
 5437SOL     OW21479   1.797   1.902   3.651  0.6003 -0.0857  0.3853
 5437SOL    HW221480   1.852   1.866   3.582  0.1516 -1.1403  0.5529
 5437SOL    HW321481   1.843   1.980   3.681  1.6803 -0.5897  0.0923
 5437SOL    MW421482   1.810   1.908   3.646  0.0590  0.1370 -0.6194
 5438SOL     OW21483   2.876   0.664   4.592 -0.5164  0.3688  0.4372
 5438SOL    HW221484   2.937   0.737   4.598 -1.2659  0.9993  0.6851
 5438SOL    HW321485   2.918   0.601   4.535  0.5386  0.6098  0.9300
 5438SOL    MW421486   2.889   0.666   4.586  0.4359 -0.0142  0.3371
 5439SOL     OW21487   3.877   3.471   6.013  0.3763 -0.0782 -1.1484
 5439SOL    HW221488   3.930   3.405   5.968 -0.9957 -1.3840 -0.9045
 5439SOL    HW321489   3.936   3.546   6.022  2.2047 -1.4734 -0.8257
 5439SOL    MW421490   3.892   3.472   6.008 -0.4980 -0.0427  0.0038
 5440SOL     OW21491   1.541   4.112   0.078 -0.4160 -0.5753  0.3931
 5440SOL    HW221492   1.511   4.194   0.117 -0.1059 -0.8643  1.2430
 5440SOL    HW321493   1.501   4.044   0.131  1.6281 -0.9756  1.4917
 5440SOL    MW421494   1.532   4.114   0.090  0.0327  0.4336  0.2547
 5441SOL     OW21495   4.364   0.993   4.096  0.0626  0.6798 -0.3252
 5441SOL    HW221496   4.332   1.083   4.102 -0.8737  0.5331 -2.1670
 5441SOL    HW321497   4.299   0.941   4.143  0.4403  0.9206  0.4762
 5441SOL    MW421498   4.351   0.998   4.103  0.5090 -0.4865  0.0699
 5442SOL     OW21499   0.884   2.961   4.513  0.4994  0.3309  0.4325
 5442SOL    HW221500   0.843   3.047   4.524 -1.1543 -0.2164 -0.9500
 5442SOL    HW321501   0.816   2.898   4.536  0.7342 -0.6161 -1.2726
 5442SOL    MW421502   0.870   2.964   4.517  0.4053 -0.2690 -0.2532
 5443SOL     OW21503   4.841   5.913   6.126 -0.1960 -0.3113 -0.1353
 5443SOL    HW221504   4.860   6.002   6.096  0.4473 -0.7583 -1.1153
 5443SOL    HW321505   4.925   5.867   6.121  0.1802 -0.2190  3.2574
 5443SOL    MW421506   4.854   5.919   6.121 -0.7851  0.0056  0.1958
 5444SOL     OW21507   1.242   5.249   1.869  0.1124  0.7537 -0.3513
 5444SOL    HW221508   1.267   5.157   1.869 -0.4960  0.5715  1.0436
 5444SOL    HW321509   1.163   5.252   1.815  1.3507  0.8585 -2.2694
 5444SOL    MW421510   1.235   5.237   1.862 -0.1993  0.1394 -0.0497
 5445SOL     OW21511   3.765   4.417   3.548  0.0364 -0.0166  0.0645
 5445SOL    HW221512   3.754   4.385   3.458 -0.3225  0.7703 -0.1821
 5445SOL    HW321513   3.858   4.440   3.554  0.1493 -0.4578  0.0254
 5445SOL    MW421514   3.776   4.416   3.537 -0.5777 -0.3963 -0.3899
 5446SOL     OW21515   6.264   5.139   2.322 -0.1236 -0.4081  0.1718
 5446SOL    HW221516   6.340   5.150   2.380  1.2966  1.5211 -1.9003
 5446SOL    HW321517   6.299   5.099   2.243 -1.7672 -1.6928  0.0414
 5446SOL    MW421518   6.278   5.135   2.319 -0.3886  0.1126 -0.5729
 5447SOL     OW21519   1.344   3.026   1.560 -0.1539  0.4512  0.2815
 5447SOL    HW221520   1.310   2.962   1.623  0.0246  1.0009  0.9481
 5447SOL    HW321521   1.278   3.028   1.490  0.9934 -2.2921 -1.0538
 5447SOL    MW421522   1.331   3.018   1.559 -0.3981  0.3621  0.1294
 5448SOL     OW21523   5.975   2.590   2.336 -0.2212  0.4703  0.1056
 5448SOL    HW221524   5.957   2.559   2.425 -1.5384 -1.7482 -0.8714
 5448SOL    HW321525   6.026   2.520   2.296 -2.1975  0.0074 -1.7931
 5448SOL    MW421526   5.980   2.576   2.342 -0.4664  0.2249 -0.1522
 5449SOL     OW21527   2.335   6.352   6.046 -0.2173  0.0786 -0.1253
 5449SOL    HW221528   2.289   6.399   6.116 -0.9189  0.5221 -0.8739
 5449SOL    HW321529   2.331   6.260   6.073 -1.2693  0.1456 -0.0143
 5449SOL    MW421530   2.328   6.346   6.059 -0.8145 -0.1799  0.4011
 5450SOL     OW21531   0.290   6.181   1.774  0.0122 -0.5206 -0.0961
 5450SOL    HW221532   0.350   6.132   1.717 -1.3415  0.9774 -2.9806
 5450SOL    HW321533   0.345   6.208   1.848  3.1821  1.1958 -2.7995
 5450SOL    MW421534   0.305   6.178   1.776  0.1533 -0.1659 -0.1686
 5451SOL     OW21535   5.922   0.073   5.771 -0.8171 -0.2912 -0.2191
 5451SOL    HW221536   5.957  -0.010   5.741  0.6093  0.7015 -1.4725
 5451SOL    HW321537   5.886   0.114   5.692 -1.3855  0.3514  0.3509
 5451SOL    MW421538   5.922   0.068   5.757 -0.2406  0.5686  0.4703
 5452SOL     OW21539   2.602   4.638   4.824 -0.2396 -0.0514  0.5123
 5452SOL    HW221540   2.648   4.571   4.772 -1.1932  0.1666 -0.6510
 5452SOL    HW321541   2.513   4.638   4.789 -0.6435  0.8001  1.5071
 5452SOL    MW421542   2.597   4.629   4.812 -0.2944 -0.3961 -0.4859
 5453SOL     OW21543   4.033   4.110   3.977 -0.0835 -0.1212 -0.3232
 5453SOL    HW221544   3.988   4.039   3.932  1.0368  0.6051 -2.7751
 5453SOL    HW321545   4.100   4.067   4.029 -0.8934 -0.9578  0.0608
 5453SOL    MW421546   4.036   4.095   3.978  1.4093  0.0975 -1.0163
 5454SOL     OW21547   2.444   3.630   3.902  0.0157  0.5333 -0.0280
 5454SOL    HW221548   2.505   3.691   3.862  0.0336  0.9798  0.6699
 5454SOL    HW321549   2.486   3.604   3.984  1.2246 -2.4225 -1.4448
 5454SOL    MW421550   2.457   3.634   3.907  0.1153  0.2481 -0.1520
 5455SOL     OW21551   0.599   3.231   3.930  0.5025  0.4324 -0.0886
 5455SOL    HW221552   0.554   3.147   3.921 -0.4619  0.8308  0.8091
 5455SOL    HW321553   0.691   3.211   3.915  0.1834 -0.6361 -0.7073
 5455SOL    MW421554   0.605   3.217   3.927  0.3693 -0.3311 -0.2568
 5456SOL     OW21555   0.250   6.329   2.185  0.2728  0.5860  0.3000
 5456SOL    HW221556   0.198   6.308   2.263  0.7914  0.9194  0.7423
 5456SOL    HW321557   0.200   6.398   2.142 -1.0801 -0.9878 -0.7900
 5456SOL    MW421558   0.237   6.335   2.190  0.4342  0.4089  0.3123
 5457SOL     OW21559   5.790   6.358   4.042 -0.5449 -0.0307 -0.5535
 5457SOL    HW221560   5.788   6.384   3.950 -1.5278 -0.5912 -0.7031
 5457SOL    HW321561   5.724   6.289   4.049  0.7011 -1.2134  0.2088
 5457SOL    MW421562   5.781   6.352   4.030  0.4871 -0.4639 -0.0474
 5458SOL     OW21563   1.445   5.627   5.041 -0.3979 -0.2731 -0.4237
 5458SOL    HW221564   1.482   5.562   5.101  0.6163 -0.3107 -1.0682
 5458SOL    HW321565   1.403   5.691   5.098  2.2477  0.7726  0.5005
 5458SOL    MW421566   1.445   5.627   5.056 -0.0161 -0.1222 -0.3591
 5459SOL     OW21567   0.385   2.524   0.971 -0.4715  0.6064 -0.0975
 5459SOL    HW221568   0.332   2.453   1.006 -1.1485  1.5612  0.8747
 5459SOL    HW321569   0.475   2.497   0.989 -0.7328  0.1290  0.5542
 5459SOL    MW421570   0.390   2.511   0.978 -0.1362  0.1543 -0.2763
 5460SOL     OW21571   4.486   2.626   1.740 -0.2106  0.3609 -0.5929
 5460SOL    HW221572   4.392   2.611   1.752  0.1342 -0.6640  1.2673
 5460SOL    HW321573   4.519   2.544   1.704  0.1777  0.1463  0.2217
 5460SOL    MW421574   4.478   2.613   1.737 -0.5976  0.9141 -0.0548
 5461SOL     OW21575   1.385   0.187   2.338 -0.2997  0.5193 -0.2756
 5461SOL    HW221576   1.472   0.152   2.318 -0.7926 -1.5026  0.8966
 5461SOL    HW321577   1.398   0.238   2.419 -0.4656 -1.2885  0.9532
 5461SOL    MW421578   1.398   0.189   2.346  0.3930  0.0255  0.2537
 5462SOL     OW21579   4.974   4.078   1.990 -0.0385 -0.0892 -0.1383
 5462SOL    HW221580   5.056   4.044   2.026 -0.0810  0.0279  0.0686
 5462SOL    HW321581   4.997   4.104   1.901  0.2967  0.4929  0.1100
 5462SOL    MW421582   4.988   4.077   1.983  0.2248 -0.1868 -0.1643
 5463SOL     OW21583   4.757   0.844   0.226  0.5170  0.4327  0.1000
 5463SOL    HW221584   4.676   0.797   0.205  0.7717 -0.2165  0.5382
 5463SOL    HW321585   4.731   0.907   0.293 -0.0936  1.8349 -1.3831
 5463SOL    MW421586   4.743   0.846   0.232 -0.1741  0.1899 -0.6334
 5464SOL     OW21587   3.315   2.740   2.001  0.0373  0.1190  0.0720
 5464SOL    HW221588   3.279   2.800   2.066  1.1639  1.0743 -0.1598
 5464SOL    HW321589   3.407   2.732   2.023 -0.0182 -1.2565 -0.1289
 5464SOL    MW421590   3.322   2.747   2.012  0.5168 -0.6442  0.7411
 5465SOL     OW21591   2.643   5.058   1.648  0.3508  0.4438  0.1262
 5465SOL    HW221592   2.599   5.008   1.717  1.0107 -0.6743 -0.2400
 5465SOL    HW321593   2.578   5.063   1.577 -0.2464  1.4006  0.7145
 5465SOL    MW421594   2.628   5.053   1.648  0.2329  0.1035 -0.1822
 5466SOL     OW21595   5.705   4.019   5.978  0.0633  0.2983  0.5432
 5466SOL    HW221596   5.721   3.958   5.906  1.2022  2.2639 -0.9920
 5466SOL    HW321597   5.629   4.070   5.950 -1.0421 -0.5302  1.9209
 5466SOL    MW421598   5.697   4.018   5.965  0.2412 -0.3281  0.5804
 5467SOL     OW21599   0.031   5.763   2.818  0.5119 -0.5551 -0.3531
 5467SOL    HW221600   0.063   5.801   2.900  0.4063 -0.0132 -0.5638
 5467SOL    HW321601   0.052   5.670   2.826 -1.8569 -1.0529  1.4818
 5467SOL    MW421602   0.038   5.756   2.830  0.5730  0.0692 -0.0902
 5468SOL     OW21603   3.834   4.751   4.442  0.2289 -0.1469  0.7811
 5468SOL    HW221604   3.799   4.841   4.441 -1.3516 -0.7420  0.2133
 5468SOL    HW321605   3.891   4.747   4.365 -0.8485 -0.0416 -0.0517
 5468SOL    MW421606   3.837   4.763   4.432 -0.5597  0.4640  0.4228
 5469SOL     OW21607   3.020   6.187   1.049  0.3235  0.4107 -0.4878
 5469SOL    HW221608   3.027   6.213   0.957  2.2890  1.8680  0.0104
 5469SOL    HW321609   3.087   6.119   1.060  1.5334  1.6655  0.2701
 5469SOL    MW421610   3.030   6.181   1.038  0.1001 -0.3805 -0.4304
 5470SOL     OW21611   4.810   3.649   0.487 -0.0137 -0.2270  0.1004
 5470SOL    HW221612   4.840   3.662   0.397 -0.8119  0.1879 -0.1153
 5470SOL    HW321613   4.809   3.554   0.498  1.8673 -0.2627  0.3038
 5470SOL    MW421614   4.814   3.638   0.477  0.0670 -0.3036 -0.5238
 5471SOL     OW21615   0.960   3.048   5.343 -0.0866 -0.3062  0.1746
 5471SOL    HW221616   0.952   2.974   5.403 -0.7786  0.0792  0.5737
 5471SOL    HW321617   1.026   3.104   5.383  0.8047 -0.9300 -0.3826
 5471SOL    MW421618   0.967   3.046   5.356  0.4234 -0.2685  0.5319
 5472SOL     OW21619   4.631   3.001   4.435  0.4277 -0.8653  0.0458
 5472SOL    HW221620   4.716   2.970   4.466  0.0737  0.2900  2.4773
 5472SOL    HW321621   4.601   3.060   4.504 -2.0394 -0.6833 -1.0688
 5472SOL    MW421622   4.638   3.005   4.448  0.3759  0.1559 -0.3955
 5473SOL     OW21623   1.241   6.236   3.962 -0.6443 -0.2046 -0.4526
 5473SOL    HW221624   1.332   6.264   3.968 -0.2148 -1.7404  0.7430
 5473SOL    HW321625   1.191   6.304   4.007  0.0533  0.0702 -0.0890
 5473SOL    MW421626   1.246   6.248   3.969 -0.0472 -0.2888 -0.3793
 5474SOL     OW21627   5.356   2.352   2.141 -0.2509  0.0530 -1.2334
 5474SOL    HW221628   5.374   2.292   2.214 -0.8640  0.9826 -0.2731
 5474SOL    HW321629   5.431   2.344   2.083  0.9667  0.3628  0.2457
 5474SOL    MW421630   5.368   2.343   2.143  0.1930 -0.6783 -0.2023
 5475SOL     OW21631   0.875   0.963   3.451 -0.4527 -0.2307 -0.0973
 5475SOL    HW221632   0.963   0.946   3.485  0.3363  2.2817 -0.6920
 5475SOL    HW321633   0.827   0.998   3.526  0.3510  2.2798 -0.6414
 5475SOL    MW421634   0.880   0.965   3.465  0.1317  0.0352  0.0556
 5476SOL     OW21635   4.427   6.344   2.956 -0.1582  0.1041  0.1099
 5476SOL    HW221636   4.507   6.397   2.959 -0.1924  0.6464 -3.5630
 5476SOL    HW321637   4.458   6.254   2.945 -0.0989 -0.0775  1.6308
 5476SOL    MW421638   4.442   6.339   2.955 -0.4127  0.6341  0.5320
 5477SOL     OW21639   5.604   2.429   2.488  0.1658  0.1563  0.5292
 5477SOL    HW221640   5.522   2.479   2.492  0.2306  0.2575  0.5955
 5477SOL    HW321641   5.631   2.435   2.397  0.0093 -0.0210  0.4713
 5477SOL    MW421642   5.597   2.437   2.477  0.0155  0.0225  0.1483
 5478SOL     OW21643   6.316   0.454   4.774 -0.8346 -0.0103  0.3890
 5478SOL    HW221644   6.274   0.521   4.721  1.0341  0.6822 -0.2821
 5478SOL    HW321645   6.382   0.501   4.825  0.0421 -1.2275  0.4230
 5478SOL    MW421646   6.319   0.469   4.774 -0.1845 -0.3349 -0.0051
 5479SOL     OW21647   5.990   1.772   3.797 -0.3444 -1.1010 -0.0296
 5479SOL    HW221648   5.962   1.699   3.853 -1.5865  0.2391  1.1842
 5479SOL    HW321649   5.908   1.814   3.770  0.2823  2.3540  2.7803
 5479SOL    MW421650   5.975   1.768   3.801  0.0782 -0.1871  0.1299
 5480SOL     OW21651   3.536   6.280   3.127  0.1051  0.0781 -0.3610
 5480SOL    HW221652   3.516   6.193   3.161  0.9051 -0.5054 -1.3270
 5480SOL    HW321653   3.451   6.324   3.122 -0.2504 -0.4721  0.5697
 5480SOL    MW421654   3.523   6.275   3.131  0.3063  0.3222  0.2341
 5481SOL     OW21655   0.895   4.800   3.841 -0.4483 -0.3074  0.7324
 5481SOL    HW221656   0.961   4.865   3.862 -1.0672  0.0789  1.5238
 5481SOL    HW321657   0.917   4.771   3.753  1.0166 -0.4912  1.1380
 5481SOL    MW421658   0.906   4.804   3.832 -0.1656 -0.5421  0.0936
 5482SOL     OW21659   2.826   5.374   4.682  0.0548  0.2983  0.5123
 5482SOL    HW221660   2.766   5.371   4.608  0.2203 -2.0614  0.4107
 5482SOL    HW321661   2.857   5.464   4.684 -1.2836  0.8447 -1.1966
 5482SOL    MW421662   2.822   5.386   4.673  0.6926  0.1045 -0.4784
 5483SOL     OW21663   0.344   1.207   5.072  0.1581 -0.3125  0.1163
 5483SOL    HW221664   0.436   1.188   5.087  0.2758 -0.3982 -0.7099
 5483SOL    HW321665   0.342   1.252   4.988 -0.3797  1.1385  0.8688
 5483SOL    MW421666   0.356   1.211   5.063  0.1064 -0.0225 -0.0248
 5484SOL     OW21667   5.555   4.499   4.942  0.1043 -0.2316  0.3321
 5484SOL    HW221668   5.497   4.575   4.936 -0.2945 -0.6432 -2.2149
 5484SOL    HW321669   5.622   4.525   5.005 -0.4423  1.9507  0.0957
 5484SOL    MW421670   5.556   4.513   4.950  0.3146 -0.5595 -0.2816
 5485SOL     OW21671   2.757   0.255   0.645 -0.0562  0.0997 -0.1583
 5485SOL    HW221672   2.736   0.287   0.733  0.8769 -0.7466  0.3932
 5485SOL    HW321673   2.747   0.160   0.652  1.3823 -0.0980 -0.5789
 5485SOL    MW421674   2.753   0.247   0.658 -0.1996  0.0353 -0.0573
 5486SOL     OW21675   5.580   3.276   3.325 -0.4665 -0.5427 -0.3649
 5486SOL    HW221676   5.497   3.312   3.294 -0.1662  0.0206 -0.5336
 5486SOL    HW321677   5.640   3.287   3.251 -0.0661 -0.3038 -0.0121
 5486SOL    MW421678   5.577   3.282   3.311  0.1727 -0.2931  0.2721
 5487SOL     OW21679   0.152   4.232   3.729  0.0885 -0.0832 -0.1659
 5487SOL    HW221680   0.089   4.174   3.688 -2.0145  2.3973 -0.7099
 5487SOL    HW321681   0.192   4.280   3.657  0.2620  0.5705  0.3473
 5487SOL    MW421682   0.149   4.231   3.714  0.8238  0.0191  0.3556
 5488SOL     OW21683   2.983   4.865   1.066 -0.3462 -0.1870  0.0787
 5488SOL    HW221684   2.925   4.941   1.066  1.6767  1.4626 -0.8625
 5488SOL    HW321685   2.945   4.806   1.002  0.1471  1.8482 -2.2446
 5488SOL    MW421686   2.970   4.868   1.058  0.1357  0.2482  0.6082
 5489SOL     OW21687   0.855   5.951   4.375 -0.3505 -0.6488 -0.2467
 5489SOL    HW221688   0.887   5.954   4.465  3.0332 -1.9304 -1.2675
 5489SOL    HW321689   0.776   5.897   4.379 -2.7219  2.5701  2.4273
 5489SOL    MW421690   0.849   5.945   4.388  0.2323 -0.0066 -0.1293
 5490SOL     OW21691   4.330   3.692   3.034 -0.1616  0.4724 -0.0938
 5490SOL    HW221692   4.377   3.773   3.056 -0.0863  0.6985 -1.0710
 5490SOL    HW321693   4.244   3.702   3.075  0.2334  0.5447  0.7506
 5490SOL    MW421694   4.325   3.704   3.042 -0.3919  0.7640 -0.0200
 5491SOL     OW21695   0.919   3.458   4.513  0.4286 -0.4783 -0.7328
 5491SOL    HW221696   0.943   3.473   4.422  1.9365  0.0522 -0.2835
 5491SOL    HW321697   0.996   3.415   4.551  0.3038  0.3871  0.5624
 5491SOL    MW421698   0.932   3.454   4.506  0.5545  0.0801  0.5503
 5492SOL     OW21699   5.654   3.575   1.786 -0.5218  0.1796  0.0606
 5492SOL    HW221700   5.692   3.553   1.701  0.3522  1.3169  0.1413
 5492SOL    HW321701   5.695   3.513   1.847  1.0028  1.1630  0.0906
 5492SOL    MW421702   5.665   3.564   1.783 -0.4334 -0.2367 -0.2805
 5493SOL     OW21703   4.490   5.919   0.564  0.5246 -0.1954 -0.0716
 5493SOL    HW221704   4.577   5.946   0.595  2.1603 -2.7709 -2.0174
 5493SOL    HW321705   4.499   5.826   0.546 -3.2037 -0.9544  1.2332
 5493SOL    MW421706   4.503   5.911   0.566 -0.3294 -0.5254  0.1192
 5494SOL     OW21707   4.821   4.670   2.258 -0.4140 -0.2971  1.0093
 5494SOL    HW221708   4.912   4.660   2.284 -0.5208  0.9434  1.9225
 5494SOL    HW321709   4.817   4.630   2.171  1.1740  0.3332  0.6085
 5494SOL    MW421710   4.832   4.663   2.250 -0.4551  0.7989 -0.0624
 5495SOL     OW21711   4.327   5.607   0.146  0.0083  0.0863 -0.5380
 5495SOL    HW221712   4.418   5.635   0.162  0.6407 -1.2402 -1.6005
 5495SOL    HW321713   4.336   5.526   0.095 -1.7863 -0.0767 -0.6400
 5495SOL    MW421714   4.340   5.600   0.142 -0.1660  0.5168 -0.5140
 5496SOL     OW21715   4.534   3.034   0.468  0.2084 -0.6851  0.4997
 5496SOL    HW221716   4.529   3.071   0.556 -1.7190  0.8652 -0.1974
 5496SOL    HW321717   4.493   2.947   0.476 -0.8164 -0.1720  0.9590
 5496SOL    MW421718   4.528   3.027   0.481 -0.1166  0.2387  0.3676
 5497SOL     OW21719   5.802   1.181   5.714 -0.1784  0.3587 -0.2189
 5497SOL    HW221720   5.895   1.197   5.727 -0.0493  0.4649 -1.1745
 5497SOL    HW321721   5.778   1.122   5.785  0.5666  0.4964  0.1625
 5497SOL    MW421722   5.811   1.175   5.725 -0.2290 -0.6739 -0.9062
 5498SOL     OW21723   2.584   1.930   2.940 -0.0086  0.0774  0.2029
 5498SOL    HW221724   2.591   1.905   2.848  1.2219 -0.1047  0.3327
 5498SOL    HW321725   2.537   2.014   2.938  0.3125  0.2491 -0.6179
 5498SOL    MW421726   2.579   1.938   2.928  0.0998  0.5329  0.1113
 5499SOL     OW21727   0.357   4.966   0.246  0.1142  0.5845 -0.4502
 5499SOL    HW221728   0.268   4.955   0.213  0.1921 -1.2012 -0.1741
 5499SOL    HW321729   0.411   4.914   0.186  0.8438  0.8245 -0.0124
 5499SOL    MW421730   0.353   4.958   0.234  0.2070  0.1735 -0.2962
 5500SOL     OW21731   0.062   5.893   1.236  0.8055 -0.0958  0.7004
 5500SOL    HW221732   0.044   5.811   1.281  0.0337  0.3987  1.3178
 5500SOL    HW321733   0.127   5.870   1.170 -0.6632 -1.5589 -0.3073
 5500SOL    MW421734   0.068   5.879   1.233  0.1071  0.2981 -0.2533
 5501SOL     OW21735   1.236   6.078   4.637 -0.3062  0.2313 -0.5843
 5501SOL    HW221736   1.224   6.044   4.548  0.2201 -0.9483 -0.2163
 5501SOL    HW321737   1.331   6.076   4.650 -0.3031  1.3293 -0.3434
 5501SOL    MW421738   1.247   6.074   4.627  0.0825  0.0929  0.1153
 5502SOL     OW21739   0.822   2.409   3.933  0.3997  0.7311  0.4569
 5502SOL    HW221740   0.743   2.460   3.915 -0.0193 -0.7286 -2.4315
 5502SOL    HW321741   0.889   2.446   3.875  0.9147 -0.1259  0.4794
 5502SOL    MW421742   0.821   2.420   3.923  0.0512  0.6884  0.1156
 5503SOL     OW21743   4.509   3.358   2.760  0.6668 -0.2684 -0.5277
 5503SOL    HW221744   4.556   3.403   2.689 -1.5441 -1.0504 -2.6294
 5503SOL    HW321745   4.419   3.391   2.754  0.4860 -0.0150  2.2934
 5503SOL    MW421746   4.503   3.368   2.750 -0.0211  0.2563 -0.1775
 5504SOL     OW21747   1.505   1.108   0.224  0.1876  1.1295  0.3771
 5504SOL    HW221748   1.428   1.086   0.277 -1.8854  3.1149 -1.5856
 5504SOL    HW321749   1.565   1.151   0.285 -0.6550  0.4181  1.7548
 5504SOL    MW421750   1.503   1.110   0.239  0.6042 -0.1342  0.1107
 5505SOL     OW21751   2.507   4.751   2.129 -0.0549 -0.7059  0.2715
 5505SOL    HW221752   2.481   4.828   2.179 -0.2274 -0.6354  0.0729
 5505SOL    HW321753   2.430   4.729   2.077 -0.2081 -1.3578  0.7570
 5505SOL    MW421754   2.494   4.758   2.129 -0.7620  0.0296 -0.6870
 5506SOL     OW21755   1.353   0.161   3.702 -0.4891  0.2025 -0.1520
 5506SOL    HW221756   1.285   0.098   3.678 -1.2798  0.5780  1.0111
 5506SOL    HW321757   1.308   0.223   3.760  0.9411  0.2230  0.9880
 5506SOL    MW421758   1.338   0.161   3.706  0.1242 -0.3964  0.3619
 5507SOL     OW21759   4.606   4.214   6.408 -0.0219  0.4046  0.0313
 5507SOL    HW221760   4.577   4.293   6.362 -1.3392 -1.1338 -1.9180
 5507SOL    HW321761   4.555   4.213   6.489  0.3128  1.7193  0.2829
 5507SOL    MW421762   4.596   4.224   6.413 -0.5078  0.2470  0.0921
 5508SOL     OW21763   4.412   1.671   3.617  0.2694  0.0563  0.5298
 5508SOL    HW221764   4.366   1.690   3.535 -1.1708 -1.1684  1.0002
 5508SOL    HW321765   4.403   1.751   3.669  0.0307  0.3731  0.0098
 5508SOL    MW421766   4.404   1.684   3.613  0.6942 -0.3889  0.5343
 5509SOL     OW21767   4.514   3.821   6.232 -0.4460 -0.3886 -0.1049
 5509SOL    HW221768   4.525   3.755   6.163  0.6964 -0.2886 -0.0309
 5509SOL    HW321769   4.420   3.820   6.251 -0.5954 -1.2662 -0.8240
 5509SOL    MW421770   4.503   3.812   6.225 -0.0052 -0.3891  0.0012
 5510SOL     OW21771   3.387   5.463   2.907 -0.1476 -0.2537  0.1594
 5510SOL    HW221772   3.481   5.462   2.892 -0.1653 -1.2148  0.0864
 5510SOL    HW321773   3.372   5.396   2.973 -0.5632  1.2001  1.6183
 5510SOL    MW421774   3.397   5.454   2.914 -0.8758  0.2183 -0.5885
 5511SOL     OW21775   3.869   2.154   4.457  0.4295  0.1567 -0.3962
 5511SOL    HW221776   3.910   2.238   4.436  1.2574 -0.5242 -1.6890
 5511SOL    HW321777   3.875   2.147   4.552  0.6007  1.4357 -0.3005
 5511SOL    MW421778   3.876   2.164   4.466  0.0751  0.1147 -0.3624
 5512SOL     OW21779   1.443   0.851   5.149 -0.1006  0.9016 -0.6026
 5512SOL    HW221780   1.443   0.947   5.152  0.6567  0.8829  0.4371
 5512SOL    HW321781   1.522   0.826   5.196 -0.7031 -0.2609 -0.1907
 5512SOL    MW421782   1.454   0.861   5.155 -0.4061  0.0536  0.0462
 5513SOL     OW21783   5.228   1.823   2.429  0.1138 -0.7524  0.1438
 5513SOL    HW221784   5.138   1.826   2.395  0.0853  0.3385  0.2725
 5513SOL    HW321785   5.227   1.883   2.503  0.3523 -2.5679  1.6877
 5513SOL    MW421786   5.216   1.831   2.434  0.0277  0.2137 -0.6190
 5514SOL     OW21787   4.631   4.548   4.369 -0.4095  0.0327 -0.0823
 5514SOL    HW221788   4.544   4.547   4.409 -0.9743 -2.3891 -1.1898
 5514SOL    HW321789   4.636   4.634   4.326 -1.1077  1.3271  2.2531
 5514SOL    MW421790   4.620   4.559   4.368  0.0442  0.1653  0.8405
 5515SOL     OW21791   1.922   1.161   1.818  0.1804 -0.4302  0.1451
 5515SOL    HW221792   1.980   1.237   1.828 -0.1008 -0.2248  0.2378
 5515SOL    HW321793   1.934   1.134   1.727 -2.0071  1.6366 -0.8816
 5515SOL    MW421794   1.932   1.168   1.808  0.0730 -0.6193 -0.0612
 5516SOL     OW21795   5.333   2.391   3.673  0.6889 -0.2406 -0.2498
 5516SOL    HW221796   5.254   2.339   3.686 -0.0635  1.1421  0.8880
 5516SOL    HW321797   5.335   2.409   3.579 -0.9699  0.6336 -0.1527
 5516SOL    MW421798   5.323   2.386   3.662 -0.4190 -0.1181  0.2151
 5517SOL     OW21799   0.633   1.586   4.739  0.0226 -0.7240  0.4386
 5517SOL    HW221800   0.619   1.517   4.674 -0.7642  0.3270 -0.5637
 5517SOL    HW321801   0.723   1.573   4.769  0.8769 -0.5057 -1.8213
 5517SOL    MW421802   0.643   1.575   4.734 -0.5142 -0.3480  0.7388
 5518SOL     OW21803   5.156   4.052   0.286 -0.3650 -0.5079  0.7288
 5518SOL    HW221804   5.063   4.035   0.301 -0.1999 -2.0708  0.1464
 5518SOL    HW321805   5.166   4.146   0.302 -2.2368 -0.1166 -0.1471
 5518SOL    MW421806   5.145   4.062   0.290  0.1083  0.8662  0.5497
 5519SOL     OW21807   0.630   0.640   3.522 -0.2100 -0.5268 -0.2998
 5519SOL    HW221808   0.712   0.601   3.492 -0.4861 -1.7357  0.4376
 5519SOL    HW321809   0.623   0.722   3.472  1.0341 -0.7871 -0.9582
 5519SOL    MW421810   0.640   0.646   3.511  0.0303  0.1593  0.1748
 5520SOL     OW21811   1.403   5.269   5.740 -0.2185 -0.2067  0.0334
 5520SOL    HW221812   1.432   5.308   5.822 -0.3700 -1.0993  0.5191
 5520SOL    HW321813   1.476   5.214   5.712 -0.2031  0.0186 -0.3873
 5520SOL    MW421814   1.417   5.267   5.747 -0.2552 -0.0693 -0.5575
 5521SOL     OW21815   6.124   1.727   5.773  0.2569  0.0438  0.3523
 5521SOL    HW221816   6.217   1.745   5.789  0.2937  0.7980 -0.6372
 5521SOL    HW321817   6.119   1.632   5.767  1.3065  0.0747 -1.4893
 5521SOL    MW421818   6.136   1.717   5.775 -0.2250 -0.0650  0.1348
 5522SOL     OW21819   2.303   1.575   1.359 -0.2334 -0.1418  0.3650
 5522SOL    HW221820   2.351   1.656   1.374  0.1443  0.0277 -1.5087
 5522SOL    HW321821   2.245   1.567   1.435 -0.1658  1.7814  0.6687
 5522SOL    MW421822   2.302   1.584   1.371  0.0042  0.0234 -0.4530
 5523SOL     OW21823   3.501   1.695   4.811  0.4085  0.5150  0.5070
 5523SOL    HW221824   3.452   1.767   4.771  1.5528  1.3015  0.4892
 5523SOL    HW321825   3.490   1.622   4.751  1.3015  1.3984 -0.7623
 5523SOL    MW421826   3.493   1.695   4.798 -0.0791  0.3925  0.1517
 5524SOL     OW21827   0.448   2.738   4.565 -0.4427  0.1066 -0.0999
 5524SOL    HW221828   0.538   2.748   4.596 -0.9108  2.4968  0.6975
 5524SOL    HW321829   0.435   2.644   4.558  2.7468 -0.3158 -2.1764
 5524SOL    MW421830   0.458   2.727   4.568  0.2069  0.2807 -0.4333
 5525SOL     OW21831   5.683   5.495   6.311 -0.5323 -0.4920 -1.0933
 5525SOL    HW221832   5.756   5.435   6.298 -0.5156 -0.8949  0.6413
 5525SOL    HW321833   5.624   5.449   6.371 -1.4768  0.4341 -1.2845
 5525SOL    MW421834   5.685   5.481   6.317  0.3894 -0.0510  0.2467
 5526SOL     OW21835   3.287   2.858   1.281  0.2638  0.0434 -0.3245
 5526SOL    HW221836   3.279   2.818   1.367  0.5734  1.4653  0.4079
 5526SOL    HW321837   3.206   2.835   1.236 -0.3881  0.1614  0.7475
 5526SOL    MW421838   3.275   2.850   1.286  0.2103  0.0399 -0.1829
 5527SOL     OW21839   0.996   2.065   5.572 -0.3915  0.3076  0.4408
 5527SOL    HW221840   0.981   1.971   5.578 -0.6394  0.2664 -0.5753
 5527SOL    HW321841   0.929   2.104   5.627 -0.7416 -0.0850  0.2932
 5527SOL    MW421842   0.985   2.058   5.580  0.2532 -0.5178  0.0952
 5528SOL     OW21843   3.040   5.496   5.639  0.5070 -0.3116 -0.1764
 5528SOL    HW221844   2.971   5.431   5.658  0.8966 -0.6441  0.1333
 5528SOL    HW321845   2.993   5.579   5.630  0.0358 -0.5810 -0.2340
 5528SOL    MW421846   3.024   5.498   5.641 -0.1369 -0.2874 -0.1098
 5529SOL     OW21847   2.464   4.905   1.814  0.3435  0.0911  0.1954
 5529SOL    HW221848   2.375   4.873   1.797 -0.1911  1.6598 -0.2144
 5529SOL    HW321849   2.489   4.864   1.896 -0.2377 -1.3864 -0.3292
 5529SOL    MW421850   2.455   4.896   1.823 -0.5863 -0.0061  0.1946
 5530SOL     OW21851   2.433   0.505   2.626 -0.2406  0.4138  0.3786
 5530SOL    HW221852   2.363   0.487   2.564  1.0664  0.5066 -1.1814
 5530SOL    HW321853   2.433   0.429   2.685 -1.2863  0.1643  0.0714
 5530SOL    MW421854   2.424   0.492   2.626 -0.2416 -0.0314 -0.2267
 5531SOL     OW21855   2.987   2.993   4.533  0.1190  0.2722 -0.4928
 5531SOL    HW221856   2.919   3.042   4.580  0.0441 -0.5501  0.2760
 5531SOL    HW321857   3.008   2.919   4.590 -0.1877 -0.9355 -1.8849
 5531SOL    MW421858   2.981   2.990   4.547  0.2182  0.1551  0.4151
 5532SOL     OW21859   1.679   1.861   5.773  0.2343 -0.5053 -0.0481
 5532SOL    HW221860   1.736   1.798   5.730  1.3933  1.1777 -1.1013
 5532SOL    HW321861   1.736   1.908   5.834 -0.6991 -0.7303  1.0400
 5532SOL    MW421862   1.694   1.859   5.775  0.0186 -0.5451 -0.1317
 5533SOL     OW21863   0.582   4.437   3.140 -0.1061 -0.0936  0.4194
 5533SOL    HW221864   0.574   4.403   3.051  0.7378 -2.0108  1.0357
 5533SOL    HW321865   0.554   4.365   3.197 -1.4129  1.3597  1.7224
 5533SOL    MW421866   0.577   4.423   3.136  0.0659 -0.0652 -0.5605
 5534SOL     OW21867   3.517   5.014   4.531  0.1718 -0.2732 -0.0040
 5534SOL    HW221868   3.605   5.053   4.530  0.0393  0.0348  0.3550
 5534SOL    HW321869   3.533   4.920   4.526  0.5748 -0.2859  1.2197
 5534SOL    MW421870   3.531   5.006   4.530 -0.5338  0.2724 -0.4575
 5535SOL     OW21871   1.636   2.215   0.770  0.5630 -0.4549 -0.2668
 5535SOL    HW221872   1.558   2.251   0.728 -0.4865 -1.2340  0.9123
 5535SOL    HW321873   1.701   2.211   0.701 -0.6307 -0.3188 -1.4484
 5535SOL    MW421874   1.634   2.219   0.755 -0.2958 -0.0186  0.4066
 5536SOL     OW21875   3.564   0.517   0.685  0.4197  0.1633  0.4523
 5536SOL    HW221876   3.494   0.520   0.620  0.1996  0.2432  0.6931
 5536SOL    HW321877   3.537   0.449   0.747 -0.2936  1.3763  1.5109
 5536SOL    MW421878   3.551   0.508   0.685  0.3324 -0.2305 -0.1314
 5537SOL     OW21879   1.449   0.655   6.018 -0.4806 -0.1266 -0.5071
 5537SOL    HW221880   1.432   0.711   6.093 -0.5579 -0.4917 -0.2480
 5537SOL    HW321881   1.372   0.664   5.962 -0.5209 -0.0253 -0.4336
 5537SOL    MW421882   1.436   0.663   6.020 -0.5462  0.1234 -0.2711
 5538SOL     OW21883   0.414   1.978   1.413 -0.1297  0.5576  0.2722
 5538SOL    HW221884   0.475   1.911   1.444  0.7493  0.1488 -2.1224
 5538SOL    HW321885   0.350   1.987   1.484  0.1582 -2.2639  1.0182
 5538SOL    MW421886   0.413   1.970   1.426  0.8768 -0.7218 -0.0337
 5539SOL     OW21887   2.014   4.200   1.939  0.4652  0.0206  0.1809
 5539SOL    HW221888   2.042   4.278   1.987 -0.6287 -0.3311  1.4504
 5539SOL    HW321889   1.994   4.231   1.851 -0.9320  1.3831  0.9433
 5539SOL    MW421890   2.015   4.214   1.933  0.2502 -0.5709  0.0820
 5540SOL     OW21891   6.151   1.012   3.180  0.2279 -0.3684 -0.1093
 5540SOL    HW221892   6.207   1.088   3.194 -0.0604 -0.2666  0.5043
 5540SOL    HW321893   6.211   0.938   3.177  0.5106 -0.1226 -0.7272
 5540SOL    MW421894   6.166   1.012   3.181 -0.1245  0.3034 -0.1908
 5541SOL     OW21895   6.164   1.414   0.311 -0.6654  0.1830 -0.0318
 5541SOL    HW221896   6.193   1.410   0.402 -0.8174  2.6484  0.1944
 5541SOL    HW321897   6.243   1.433   0.261 -1.0158  1.7968 -0.0214
 5541SOL    MW421898   6.178   1.416   0.317  0.3258 -0.1973 -0.1165
 5542SOL     OW21899   5.339   2.512   1.439  0.0026  0.3028 -0.0756
 5542SOL    HW221900   5.394   2.561   1.500  0.0004 -0.0866  0.2403
 5542SOL    HW321901   5.265   2.570   1.421  0.6198  0.9188 -0.6697
 5542SOL    MW421902   5.337   2.526   1.445  0.9343  0.2282  0.3738
 5543SOL     OW21903   4.666   0.073   2.928 -0.2934  0.3320  0.4172
 5543SOL    HW221904   4.722   0.044   2.856 -1.5541 -2.4574  0.4441
 5543SOL    HW321905   4.708   0.038   3.007 -0.4283  0.9335  0.7649
 5543SOL    MW421906   4.679   0.064   2.929  0.2807  0.3990 -0.7278
 5544SOL     OW21907   3.952   2.153   3.728 -0.6446  0.3425  0.4956
 5544SOL    HW221908   3.952   2.126   3.820 -1.5988 -0.3507  0.3034
 5544SOL    HW321909   3.921   2.243   3.730 -2.4768 -0.2635  0.7159
 5544SOL    MW421910   3.948   2.161   3.741 -0.0490 -0.4708 -0.0850
 5545SOL     OW21911   2.705   2.691   1.130  0.3320 -0.7170  0.6318
 5545SOL    HW221912   2.698   2.651   1.043 -0.0926  3.9410 -1.7707
 5545SOL    HW321913   2.614   2.707   1.156  0.5257  0.4104  0.6219
 5545SOL    MW421914   2.692   2.688   1.122  0.6280 -0.0739  0.4388
 5546SOL     OW21915   3.543   1.836   5.426 -0.3115 -0.1968 -0.2703
 5546SOL    HW221916   3.452   1.809   5.433 -1.4263  2.4910 -2.6610
 5546SOL    HW321917   3.593   1.755   5.441 -2.9289 -1.4533  2.5648
 5546SOL    MW421918   3.538   1.822   5.429 -0.9215  0.8264  0.0496
 5547SOL     OW21919   1.821   0.348   1.951  0.1058  0.1329  0.4423
 5547SOL    HW221920   1.851   0.425   1.999  0.4917 -0.2249  0.7801
 5547SOL    HW321921   1.864   0.274   1.994  0.6125 -0.1777 -0.5656
 5547SOL    MW421922   1.830   0.348   1.963 -0.4117  0.4224  0.5724
 5548SOL     OW21923   6.423   4.702   3.461  0.2484  0.2978 -0.6236
 5548SOL    HW221924   6.467   4.779   3.424 -0.1413  0.4614 -0.7517
 5548SOL    HW321925   6.450   4.701   3.553 -0.3932  1.0714 -0.4093
 5548SOL    MW421926   6.433   4.712   3.468 -0.4389  0.1785 -0.4357
 5549SOL     OW21927   1.813   6.435   1.200  0.1612  0.9367  0.3515
 5549SOL    HW221928   1.851   6.522   1.197 -2.4876  2.1800  0.1243
 5549SOL    HW321929   1.751   6.437   1.274  1.7805 -1.5985  1.9644
 5549SOL    MW421930   1.810   6.447   1.209 -0.6276 -0.2389  0.5562
 5550SOL     OW21931   2.893   0.019   2.596 -0.3242 -0.4275 -0.2791
 5550SOL    HW221932   2.956   0.052   2.660 -0.3187  0.1028 -0.5557
 5550SOL    HW321933   2.886   0.089   2.531 -0.7875 -0.7118 -0.5382
 5550SOL    MW421934   2.901   0.032   2.596  0.5851 -0.8754  0.3128
 5551SOL     OW21935   1.674   2.747   5.639  0.2112  0.0623 -0.3428
 5551SOL    HW221936   1.618   2.670   5.638  0.3922 -0.0791  0.0196
 5551SOL    HW321937   1.616   2.820   5.619 -0.4956  0.1616  1.7885
 5551SOL    MW421938   1.659   2.747   5.636  0.1327 -0.0298  0.0365
 5552SOL     OW21939   2.426   2.575   3.576  0.5842 -0.3667 -0.0821
 5552SOL    HW221940   2.430   2.651   3.518  0.1579 -0.9121 -0.8451
 5552SOL    HW321941   2.336   2.545   3.570  0.7418 -0.9125  0.2298
 5552SOL    MW421942   2.415   2.581   3.567 -0.0215  0.0718 -0.1117
 5553SOL     OW21943   4.637   6.419   3.394  0.0338 -0.5931 -0.0404
 5553SOL    HW221944   4.719   6.377   3.421  0.2416  0.7255  1.5497
 5553SOL    HW321945   4.579   6.347   3.369  0.9849 -1.6756  0.7978
 5553SOL    MW421946   4.640   6.404   3.394  0.0995 -0.1203  0.5093
 5554SOL     OW21947   5.090   4.735   4.736 -0.7146 -0.0309  0.4931
 5554SOL    HW221948   5.006   4.688   4.738 -1.0773  0.6320  2.4108
 5554SOL    HW321949   5.156   4.666   4.744 -0.9497 -0.6695 -2.0416
 5554SOL    MW421950   5.088   4.719   4.737  0.9053  0.1514 -0.5725
 5555SOL     OW21951   6.149   6.069   0.136 -0.6974  0.3038  0.0066
 5555SOL    HW221952   6.144   6.083   0.041 -0.8604 -0.4160 -0.0924
 5555SOL    HW321953   6.188   5.982   0.146  0.0802  0.7024  0.6175
 5555SOL    MW421954   6.154   6.060   0.125 -0.2160 -0.3552  0.3522
 5556SOL     OW21955   3.386   2.205   6.305 -0.8184  0.0010  0.1794
 5556SOL    HW221956   3.348   2.170   6.386 -0.3979  1.4518  1.0442
 5556SOL    HW321957   3.404   2.128   6.251 -3.5551 -0.8639  0.3350
 5556SOL    MW421958   3.383   2.190   6.309 -0.2624 -0.1452 -0.0480
 5557SOL     OW21959   1.602   3.935   6.055 -0.2239  0.5377  0.4673
 5557SOL    HW221960   1.553   4.000   6.106 -1.4648 -0.1660  0.2243
 5557SOL    HW321961   1.575   3.949   5.965  0.1453  0.2292  0.3038
 5557SOL    MW421962   1.592   3.945   6.050 -0.5199  0.2571 -0.5076
 5558SOL     OW21963   1.264   5.420   5.292 -0.6445  0.2279  0.0058
 5558SOL    HW221964   1.223   5.495   5.335 -0.1453 -0.3074  1.4944
 5558SOL    HW321965   1.280   5.357   5.363  1.9519  0.0659 -0.6015
 5558SOL    MW421966   1.261   5.421   5.307  0.9239  0.4796  0.2051
 5559SOL     OW21967   5.458   4.823   4.074  0.1621  0.2335  0.1203
 5559SOL    HW221968   5.371   4.784   4.069  0.5241 -0.4315 -2.6514
 5559SOL    HW321969   5.451   4.890   4.142 -1.6368 -1.7800  2.0809
 5559SOL    MW421970   5.446   4.826   4.083 -0.4083 -0.0283 -0.1188
 5560SOL     OW21971   2.147   1.444   3.401  0.7919  0.3509  0.2518
 5560SOL    HW221972   2.166   1.493   3.482  1.0098  1.2641 -0.3427
 5560SOL    HW321973   2.063   1.401   3.419  0.4344  1.1949  0.6808
 5560SOL    MW421974   2.138   1.445   3.414  0.3334 -0.1295  0.4444
 5561SOL     OW21975   4.311   1.610   0.051  0.0169 -0.3075  0.4937
 5561SOL    HW221976   4.307   1.529   0.000  0.1768 -1.4312  2.1982
 5561SOL    HW321977   4.397   1.647   0.029  0.1023 -0.7890 -0.0118
 5561SOL    MW421978   4.322   1.604   0.041 -0.2610 -0.4375 -0.1833
 5562SOL     OW21979   2.059   6.303   6.043 -0.1014  1.2241  0.2634
 5562SOL    HW221980   2.085   6.309   6.135  1.4851  1.5548 -0.1690
 5562SOL    HW321981   2.000   6.378   6.030 -0.8949  0.7819  1.1500
 5562SOL    MW421982   2.055   6.314   6.054 -0.0791 -0.1446 -0.3184
 5563SOL     OW21983   1.763   1.059   2.860 -0.5274 -0.4416 -0.0725
 5563SOL    HW221984   1.748   0.968   2.835 -1.3638 -0.1530 -0.6547
 5563SOL    HW321985   1.781   1.103   2.777 -0.1659 -0.0668  0.2025
 5563SOL    MW421986   1.764   1.053   2.846  0.0255  0.0665 -0.5781
 5564SOL     OW21987   2.210   4.727   3.106 -0.1210 -0.3402  0.1644
 5564SOL    HW221988   2.137   4.788   3.092  0.0344 -0.4362 -1.1182
 5564SOL    HW321989   2.171   4.640   3.096 -0.1938 -0.4680  1.3131
 5564SOL    MW421990   2.195   4.724   3.103 -0.0703  0.6351 -0.2520
 5565SOL     OW21991   4.993   1.864   6.121 -0.4296 -0.1660 -0.6513
 5565SOL    HW221992   4.964   1.909   6.042 -3.1325  3.8091  2.2357
 5565SOL    HW321993   5.078   1.902   6.141  0.8198 -2.0165 -2.0355
 5565SOL    MW421994   5.000   1.875   6.113 -0.2728  0.1221 -0.7094
 5566SOL     OW21995   1.942   2.443   4.000  0.1812 -0.1024  0.1546
 5566SOL    HW221996   1.926   2.424   4.093 -0.3961 -1.9650 -0.2893
 5566SOL    HW321997   1.892   2.523   3.983 -0.5284 -0.3066  1.2074
 5566SOL    MW421998   1.933   2.451   4.010 -0.4587  0.1361  0.2998
 5567SOL     OW21999   3.272   2.344   0.431 -0.0150  0.1134  0.7121
 5567SOL    HW222000   3.186   2.350   0.389  0.8321  0.5624 -1.0643
 5567SOL    HW322001   3.268   2.408   0.502 -0.7162  1.1491 -0.2104
 5567SOL    MW422002   3.260   2.353   0.434 -0.3864 -0.5693 -0.2115
 5568SOL     OW22003   4.397   0.068   1.235  0.1332  0.6290 -0.6139
 5568SOL    HW222004   4.452   0.046   1.160  0.2705  1.6686 -0.8334
 5568SOL    HW322005   4.386  -0.015   1.281  1.5891  0.3263 -0.7531
 5568SOL    MW422006   4.403   0.054   1.231 -0.0875  0.6368 -0.1872
 5569SOL     OW22007   2.942   5.509   2.764 -0.2539 -0.0942 -0.4505
 5569SOL    HW222008   2.945   5.558   2.682 -0.3285 -0.2012 -0.5180
 5569SOL    HW322009   2.887   5.433   2.745  0.1858 -0.4121 -0.4553
 5569SOL    MW422010   2.935   5.506   2.751 -0.3932  0.9501  0.5886
 5570SOL     OW22011   2.800   2.230   4.777  0.3598  0.2477 -0.3865
 5570SOL    HW222012   2.729   2.218   4.715  0.1785  1.7829 -0.5337
 5570SOL    HW322013   2.880   2.213   4.727  0.1992  1.1516 -0.9705
 5570SOL    MW422014   2.801   2.227   4.762 -0.0036 -0.3114  0.2316
 5571SOL     OW22015   0.605   0.516   0.972  0.4717  0.4224  0.3874
 5571SOL    HW222016   0.527   0.551   0.929 -1.9486 -0.1747  3.8796
 5571SOL    HW322017   0.616   0.428   0.935 -1.4186 -0.0363  0.8206
 5571SOL    MW422018   0.596   0.509   0.961  0.1739 -0.3005  0.0593
 5572SOL     OW22019   3.473   0.744   0.877  0.3647 -0.0204 -0.3800
 5572SOL    HW222020   3.462   0.688   0.801 -1.0221 -0.0105 -0.2158
 5572SOL    HW322021   3.492   0.684   0.949 -0.9804 -0.2993 -0.2298
 5572SOL    MW422022   3.474   0.729   0.877  0.3540 -0.4914  0.0112
 5573SOL     OW22023   2.267   3.221   2.951 -0.1435  0.2820  0.1881
 5573SOL    HW222024   2.296   3.187   2.867 -0.1575  0.6077  0.0484
 5573SOL    HW322025   2.198   3.284   2.929 -0.8053 -0.3157  0.4987
 5573SOL    MW422026   2.262   3.225   2.937 -0.7721  0.7225  0.4762
 5574SOL     OW22027   0.850   2.882   4.863 -0.0371  0.6152 -0.1924
 5574SOL    HW222028   0.759   2.911   4.868  0.0219  0.6092  1.5909
 5574SOL    HW322029   0.883   2.889   4.953  1.6419  0.3344 -0.7367
 5574SOL    MW422030   0.843   2.887   4.876 -0.1985  0.2479  0.3277
 5575SOL     OW22031   5.151   4.458   0.592  0.6121  0.3957 -0.6980
 5575SOL    HW222032   5.188   4.544   0.571  0.6213  0.8132  0.8606
 5575SOL    HW322033   5.067   4.478   0.634  0.0592 -0.4147 -1.3976
 5575SOL    MW422034   5.145   4.472   0.595 -0.4652  0.0833 -0.3790
 5576SOL     OW22035   0.416   0.827   6.202  0.4049 -0.3241 -0.3219
 5576SOL    HW222036   0.478   0.850   6.271 -0.8786  2.3276  0.1083
 5576SOL    HW322037   0.432   0.892   6.133 -1.1762 -0.2207 -0.6317
 5576SOL    MW422038   0.426   0.839   6.202 -0.0306 -0.2028 -0.1046
 5577SOL     OW22039   4.354   2.739   5.311 -0.0800 -0.3201  0.0524
 5577SOL    HW222040   4.430   2.743   5.368  1.3385  2.2376 -1.8279
 5577SOL    HW322041   4.302   2.816   5.335 -0.3661 -0.2100 -0.8673
 5577SOL    MW422042   4.357   2.750   5.322 -0.2526 -0.1460  0.1533
 5578SOL     OW22043   3.277   0.690   3.189  0.4000 -0.3912 -0.3949
 5578SOL    HW222044   3.288   0.750   3.116  0.8603  0.6881  0.5206
 5578SOL    HW322045   3.183   0.671   3.192  0.4113 -0.6573 -1.3995
 5578SOL    MW422046   3.266   0.695   3.180  0.3335 -0.3443  0.9147
 5579SOL     OW22047   0.874   0.542   3.438  0.0123 -0.5221 -0.5273
 5579SOL    HW222048   0.942   0.492   3.482 -1.0037 -1.0673  0.4728
 5579SOL    HW322049   0.873   0.507   3.348  0.4294 -1.1380 -0.2995
 5579SOL    MW422050   0.883   0.531   3.432  0.5036  0.0868  0.1072
 5580SOL     OW22051   3.330   4.276   2.534 -0.1691  0.2109  0.0107
 5580SOL    HW222052   3.274   4.349   2.558 -1.7721 -0.8928 -0.2277
 5580SOL    HW322053   3.354   4.293   2.443 -0.7637  0.3149 -0.1312
 5580SOL    MW422054   3.326   4.288   2.525  0.9700  0.1529 -0.0693
 5581SOL     OW22055   4.300   3.727   0.822 -0.0684  0.2903 -0.2952
 5581SOL    HW222056   4.361   3.658   0.796 -0.0571  0.0855  0.2452
 5581SOL    HW322057   4.240   3.736   0.748 -0.3606 -0.6383 -0.1921
 5581SOL    MW422058   4.300   3.719   0.809 -0.3807 -0.3920 -0.0427
 5582SOL     OW22059   4.879   5.353   0.346  0.2937  0.1888  0.0443
 5582SOL    HW222060   4.941   5.425   0.356 -0.5943  1.0153 -0.2459
 5582SOL    HW322061   4.806   5.377   0.403  0.0386 -0.5520  0.0324
 5582SOL    MW422062   4.878   5.366   0.355 -0.5588 -0.0745  0.1077
 5583SOL     OW22063   6.099   2.216   6.203  0.3502 -0.4948  0.4535
 5583SOL    HW222064   6.112   2.234   6.110 -0.3051 -0.8034  0.2943
 5583SOL    HW322065   6.062   2.297   6.238  0.5331 -0.4015  0.4321
 5583SOL    MW422066   6.096   2.229   6.195 -0.9059  0.4160  0.1115
 5584SOL     OW22067   3.380   0.830   5.695  0.1645 -0.0791  0.2271
 5584SOL    HW222068   3.460   0.874   5.668 -0.0301 -0.3579 -0.8657
 5584SOL    HW322069   3.385   0.826   5.791  0.5307  1.6526  0.3216
 5584SOL    MW422070   3.391   0.836   5.704 -0.0003 -0.0727 -0.1278
 5585SOL     OW22071   2.264   6.251   0.096 -0.0397  0.4420 -0.1588
 5585SOL    HW222072   2.358   6.268   0.096  0.2148 -0.8304  0.9789
 5585SOL    HW322073   2.230   6.308   0.165  0.0108  0.3483 -0.0558
 5585SOL    MW422074   2.272   6.261   0.105 -0.2645 -0.0492 -0.0954
 5586SOL     OW22075   5.635   6.023   1.105 -0.2623 -0.3382  0.4939
 5586SOL    HW222076   5.629   6.019   1.010  0.1233 -0.1753  0.4609
 5586SOL    HW322077   5.728   6.033   1.123 -0.5303  2.2634  0.7764
 5586SOL    MW422078   5.646   6.024   1.095  0.0245  0.6122  0.1960
 5587SOL     OW22079   2.259   4.297   1.365 -0.5964  0.0110 -0.4557
 5587SOL    HW222080   2.318   4.229   1.399  0.3746  0.9811 -0.1451
 5587SOL    HW322081   2.315   4.353   1.312 -1.6405 -0.1203 -1.7537
 5587SOL    MW422082   2.274   4.295   1.363  0.1349 -0.2155  0.2236
 5588SOL     OW22083   2.762   4.863   1.344  0.1948 -0.0224  0.3700
 5588SOL    HW222084   2.737   4.955   1.354 -0.1034  0.2687 -2.2891
 5588SOL    HW322085   2.841   4.866   1.290  1.9999 -1.2672  2.7484
 5588SOL    MW422086   2.769   4.876   1.338  0.6947 -0.3281  0.5460
 5589SOL     OW22087   0.624   3.516   1.385  0.4553 -0.2748  0.6715
 5589SOL    HW222088   0.656   3.491   1.298  2.5501 -0.0428  1.3114
 5589SOL    HW322089   0.561   3.448   1.408 -1.3690  0.4829 -1.6233
 5589SOL    MW422090   0.620   3.504   1.377  0.0956  0.0425  1.0655
 5590SOL     OW22091   3.651   2.621   5.109  0.0018 -0.5667 -0.0190
 5590SOL    HW222092   3.698   2.565   5.047  1.4804 -0.6825  1.1581
 5590SOL    HW322093   3.677   2.589   5.195 -1.5767 -0.0499  0.6931
 5590SOL    MW422094   3.661   2.610   5.112  0.0303  0.1334  0.1126
 5591SOL     OW22095   1.916   4.905   4.337 -0.1079 -0.0089 -0.5281
 5591SOL    HW222096   1.866   4.865   4.408 -1.3025  1.6073 -0.3995
 5591SOL    HW322097   1.942   4.832   4.281 -1.2197 -1.0560  0.2908
 5591SOL    MW422098   1.913   4.890   4.339 -0.1731 -0.1934  0.6048
 5592SOL     OW22099   4.259   0.030   1.565 -1.2434 -0.3850  0.2566
 5592SOL    HW222100   4.197   0.017   1.494 -1.6845 -1.7491  0.8652
 5592SOL    HW322101   4.212   0.002   1.644 -0.1653 -0.5852  0.8483
 5592SOL    MW422102   4.245   0.025   1.566  0.2273 -0.0700  0.1160
 5593SOL     OW22103   6.208   5.943   5.159  0.2154  0.4961  0.1533
 5593SOL    HW222104   6.175   5.974   5.074  0.2861 -0.8738 -0.4083
 5593SOL    HW322105   6.243   5.856   5.140  0.2921  0.1930  1.5886
 5593SOL    MW422106   6.208   5.936   5.145  0.1525 -0.5264 -0.1400
 5594SOL     OW22107   0.078   5.477   6.109 -0.3405  0.1288  0.2285
 5594SOL    HW222108   0.015   5.536   6.067 -0.4432  0.0845  0.3192
 5594SOL    HW322109   0.055   5.390   6.076 -1.0707 -0.0452  1.1456
 5594SOL    MW422110   0.066   5.473   6.099  0.0424 -0.5204 -0.2500
 5595SOL     OW22111   2.850   3.665   6.153  0.1164 -0.7908 -0.1591
 5595SOL    HW222112   2.790   3.707   6.092 -0.6228 -0.0723  1.0177
 5595SOL    HW322113   2.901   3.737   6.190  1.0498 -1.2909 -0.4463
 5595SOL    MW422114   2.849   3.680   6.150 -0.2092 -0.4124 -0.4255
 5596SOL     OW22115   3.726   2.490   3.377  0.1263  0.3528 -0.1817
 5596SOL    HW222116   3.810   2.443   3.376  1.3468  2.4190 -0.6598
 5596SOL    HW322117   3.667   2.432   3.425  1.9191 -1.0073  0.5090
 5596SOL    MW422118   3.730   2.476   3.383 -0.3183  0.4989 -0.1384
 5597SOL     OW22119   4.441   6.245   3.743  0.4768  0.3622  0.5432
 5597SOL    HW222120   4.479   6.332   3.732 -1.0977  1.2481  1.6562
 5597SOL    HW322121   4.350   6.255   3.715 -0.0987 -0.5372  1.9638
 5597SOL    MW422122   4.434   6.258   3.738  0.0201  0.2501  0.3451
 5598SOL     OW22123   3.069   3.819   6.320  0.7703 -0.1899 -0.2026
 5598SOL    HW222124   3.099   3.747   6.376 -0.4923  1.4466  2.8014
 5598SOL    HW322125   3.089   3.898   6.369 -2.8569  1.2333 -0.7207
 5598SOL    MW422126   3.075   3.820   6.334  0.0067  0.6965 -0.0492
 5599SOL     OW22127   0.769   6.058   5.631 -0.6254 -0.0436 -0.4486
 5599SOL    HW222128   0.861   6.051   5.603 -0.6851  1.8998 -1.2950
 5599SOL    HW322129   0.724   5.993   5.577  0.0478  0.0359 -1.1426
 5599SOL    MW422130   0.775   6.048   5.620  0.4174 -0.1022  0.3717
 5600SOL     OW22131   2.245   4.077   0.850 -0.6943 -0.1144  0.0578
 5600SOL    HW222132   2.204   4.159   0.875 -0.3881  0.1066 -0.1710
 5600SOL    HW322133   2.173   4.024   0.815 -1.1917 -0.5185  1.5862
 5600SOL    MW422134   2.230   4.081   0.849 -0.2132  0.3340 -0.2286
 5601SOL     OW22135   2.541   5.655   5.989  0.2789  0.4007 -0.2885
 5601SOL    HW222136   2.579   5.599   5.921 -0.7432 -1.4935  0.5968
 5601SOL    HW322137   2.597   5.641   6.065  0.2482  0.9217 -0.1674
 5601SOL    MW422138   2.553   5.646   5.990  0.0289 -0.5981 -0.5204
 5602SOL     OW22139   6.231   4.532   2.159  0.0585  0.3000 -0.1124
 5602SOL    HW222140   6.159   4.589   2.185  0.9731  0.3232  2.7331
 5602SOL    HW322141   6.302   4.592   2.136 -0.4685  0.2648 -2.0189
 5602SOL    MW422142   6.231   4.547   2.159  0.3836  0.4088 -0.1718
 5603SOL     OW22143   5.872   6.052   0.129 -0.4639 -0.1332  0.4089
 5603SOL    HW222144   5.855   6.012   0.043 -0.9184 -2.3091  1.4542
 5603SOL    HW322145   5.968   6.060   0.133 -0.4967  2.8054 -1.4280
 5603SOL    MW422146   5.883   6.048   0.118 -0.0868  0.0969  0.1375
 5604SOL     OW22147   0.109   2.057   4.623  0.4740 -0.2737 -0.2963
 5604SOL    HW222148   0.054   2.070   4.546  1.9799  2.9347 -0.9831
 5604SOL    HW322149   0.122   1.962   4.628 -1.4549 -0.7358 -2.6595
 5604SOL    MW422150   0.104   2.046   4.614 -0.5475  0.0135 -0.3109
 5605SOL     OW22151   0.244   0.742   3.481  0.1318 -0.5176  0.0021
 5605SOL    HW222152   0.172   0.805   3.484 -0.8583 -1.4781 -1.8504
 5605SOL    HW322153   0.308   0.776   3.544 -0.2825  2.3787 -0.9772
 5605SOL    MW422154   0.243   0.755   3.490  0.3872  0.6502 -0.2971
 5606SOL     OW22155   3.780   6.350   0.993 -0.0468 -0.6348 -0.2945
 5606SOL    HW222156   3.743   6.291   1.060 -1.4394 -0.2081 -0.6477
 5606SOL    HW322157   3.739   6.322   0.911  0.8097 -0.4497 -0.7901
 5606SOL    MW422158   3.770   6.339   0.991 -0.0038  0.4751  0.7186
 5607SOL     OW22159   1.961   2.068   3.297  0.2124  0.7075 -0.3754
 5607SOL    HW222160   2.009   2.031   3.223 -0.5339 -1.0059 -0.0355
 5607SOL    HW322161   1.959   1.998   3.362  1.6415  2.4573  1.6958
 5607SOL    MW422162   1.967   2.054   3.295  0.8954  0.1459  0.4732
 5608SOL     OW22163   1.469   0.715   0.447  0.3040 -0.0716 -0.4160
 5608SOL    HW222164   1.431   0.795   0.411  0.3994 -0.7303 -2.0847
 5608SOL    HW322165   1.519   0.744   0.522 -1.2327  1.1821  0.1955
 5608SOL    MW422166   1.470   0.729   0.452  0.3618  0.1740  0.1722
 5609SOL     OW22167   3.904   4.032   2.085  0.0170 -0.7003  0.0975
 5609SOL    HW222168   3.918   4.066   1.997  0.1162 -1.3489 -0.1396
 5609SOL    HW322169   3.813   4.000   2.084  0.0360 -0.7583  0.2118
 5609SOL    MW422170   3.894   4.032   2.074  0.4262 -0.2878  0.3991
 5610SOL     OW22171   4.958   2.838   2.103 -0.2765 -0.5666  0.2261
 5610SOL    HW222172   5.052   2.836   2.119  0.3136  0.3211 -2.4710
 5610SOL    HW322173   4.931   2.926   2.127  0.0511 -0.1329 -0.9125
 5610SOL    MW422174   4.967   2.849   2.108 -0.4080 -0.6820 -0.7516
 5611SOL     OW22175   5.450   6.246   6.266 -0.3123 -0.2914 -0.3410
 5611SOL    HW222176   5.406   6.253   6.181 -1.2113 -0.5196  0.0857
 5611SOL    HW322177   5.381   6.265   6.329  0.5254  0.6365  0.3220
 5611SOL    MW422178   5.435   6.250   6.263 -0.0551 -1.0157 -0.5784
 5612SOL     OW22179   5.529   1.513   2.460  0.2496  0.1345  0.6152
 5612SOL    HW222180   5.435   1.524   2.474 -0.3437 -1.3713 -1.5986
 5612SOL    HW322181   5.547   1.561   2.379  1.1761 -0.3891  0.4946
 5612SOL    MW422182   5.519   1.521   2.451 -0.3097 -0.4604 -0.1868
 5613SOL     OW22183   2.381   3.010   4.800  0.4831 -0.2925 -0.1898
 5613SOL    HW222184   2.454   3.072   4.795  1.2249 -1.1519 -0.2600
 5613SOL    HW322185   2.379   2.981   4.891 -1.0025  1.1421  0.2863
 5613SOL    MW422186   2.390   3.014   4.811 -0.2836  0.2757 -0.1415
 5614SOL     OW22187   0.527   2.183   3.787 -0.3327 -0.1945  0.3070
 5614SOL    HW222188   0.461   2.125   3.749  0.4298 -0.3819 -0.8109
 5614SOL    HW322189   0.589   2.123   3.829 -1.4042  0.0320  2.3400
 5614SOL    MW422190   0.527   2.167   3.788  0.3147  0.5641  0.4213
 5615SOL     OW22191   1.609   3.525   4.276 -0.1629 -0.6391 -0.0859
 5615SOL    HW222192   1.612   3.580   4.198 -1.2082  1.3163  1.1633
 5615SOL    HW322193   1.515   3.515   4.295  0.0658 -0.3593  1.3490
 5615SOL    MW422194   1.597   3.531   4.268 -0.7088 -0.0716  0.0975
 5616SOL     OW22195   2.645   6.391   0.426 -0.2964  0.0091 -0.0534
 5616SOL    HW222196   2.692   6.418   0.347 -1.4971 -0.3918 -0.9304
 5616SOL    HW322197   2.636   6.296   0.418 -0.3825 -0.0427  0.6034
 5616SOL    MW422198   2.650   6.382   0.415 -0.3517 -0.5398  0.4191
 5617SOL     OW22199   4.453   6.000   1.949  0.4466  0.4860  0.3922
 5617SOL    HW222200   4.430   5.964   2.034  0.1001  1.3215  0.6524
 5617SOL    HW322201   4.549   5.991   1.944  0.3758 -0.4852  0.4332
 5617SOL    MW422202   4.463   5.994   1.959  0.7381  0.1862 -0.3813
 5618SOL     OW22203   2.617   0.638   0.787  0.1706  0.2236  0.4531
 5618SOL    HW222204   2.552   0.585   0.741  2.5712 -0.5209 -2.3656
 5618SOL    HW322205   2.592   0.728   0.769 -0.4803 -0.0410  0.0179
 5618SOL    MW422206   2.605   0.643   0.778  0.3869 -0.5202  0.5681
 5619SOL     OW22207   4.344   2.178   4.285  0.3876  0.1651  0.3228
 5619SOL    HW222208   4.339   2.151   4.377 -0.7318  1.3795  0.6331
 5619SOL    HW322209   4.280   2.124   4.241 -0.1003  0.5807  0.5155
 5619SOL    MW422210   4.335   2.167   4.292  0.0166  0.5333 -1.2301
 5620SOL     OW22211   2.259   3.986   5.596  0.6007  0.2535 -0.0858
 5620SOL    HW222212   2.324   3.937   5.647 -0.0756 -0.0602  0.5005
 5620SOL    HW322213   2.276   3.961   5.505 -0.2179 -1.7143  0.2542
 5620SOL    MW422214   2.270   3.976   5.591 -0.4271  0.1695 -0.3587
 5621SOL     OW22215   4.168   5.473   3.057 -0.0250 -0.2416 -0.2563
 5621SOL    HW222216   4.126   5.559   3.064  0.6705  0.0264  1.1710
 5621SOL    HW322217   4.226   5.470   3.133  0.1089 -1.9061 -0.4042
 5621SOL    MW422218   4.170   5.484   3.068 -0.2199 -0.8643 -0.1640
 5622SOL     OW22219   3.940   4.397   2.041 -0.0155  0.0613  0.4779
 5622SOL    HW222220   3.889   4.375   1.964 -1.7302 -0.7835  1.7974
 5622SOL    HW322221   3.939   4.493   2.044 -3.2265  0.0788  1.5025
 5622SOL    MW422222   3.933   4.407   2.031 -0.5022  0.0473 -0.1030
 5623SOL     OW22223   5.396   4.741   5.340 -0.4163  0.1087 -0.6619
 5623SOL    HW222224   5.333   4.680   5.301  0.3259 -1.1492  0.0607
 5623SOL    HW322225   5.344   4.792   5.402 -1.0399  0.2183 -1.2603
 5623SOL    MW422226   5.381   4.740   5.343  0.2019  0.0312 -0.4962
 5624SOL     OW22227   4.409   5.961   6.283  0.6747  0.6065 -0.4450
 5624SOL    HW222228   4.475   5.893   6.278 -0.9723 -1.2220  1.0197
 5624SOL    HW322229   4.356   5.938   6.360 -0.9393  2.6308 -0.8450
 5624SOL    MW422230   4.411   5.949   6.293  0.3858 -0.9605  0.1324
 5625SOL     OW22231   4.337   1.094   2.749  0.2436 -0.4596 -0.1766
 5625SOL    HW222232   4.333   1.135   2.836 -0.1300  0.3576 -0.5662
 5625SOL    HW322233   4.284   1.015   2.758 -0.4513  0.0231  0.1427
 5625SOL    MW422234   4.329   1.089   2.762  0.6399  0.1787 -0.2205
 5626SOL     OW22235   1.829   5.275   6.074 -0.0686 -0.4382  0.3320
 5626SOL    HW222236   1.835   5.346   6.010  1.9554 -1.0574 -0.2650
 5626SOL    HW322237   1.793   5.317   6.152 -0.1295  0.9496 -0.3934
 5626SOL    MW422238   1.825   5.290   6.076  0.9344  0.9409  0.0848
 5627SOL     OW22239   6.261   4.371   3.523  0.7867  0.0808  0.0895
 5627SOL    HW222240   6.347   4.396   3.491  0.5412  0.7754 -0.0433
 5627SOL    HW322241   6.243   4.431   3.595  0.5026 -0.2048  0.2623
 5627SOL    MW422242   6.270   4.382   3.528  0.4621 -0.0421  0.1372
 5628SOL     OW22243   5.673   2.036   3.250  0.4280 -0.1198  0.0222
 5628SOL    HW222244   5.725   2.116   3.259  2.4940 -1.4122  0.0999
 5628SOL    HW322245   5.704   1.996   3.169 -0.9557 -0.6064 -0.2959
 5628SOL    MW422246   5.684   2.042   3.240  0.1865 -0.4915 -0.5177
 5629SOL     OW22247   4.919   3.671   5.859  0.5514 -0.1514 -0.7169
 5629SOL    HW222248   4.873   3.619   5.925  0.2496 -0.4041 -1.1205
 5629SOL    HW322249   4.918   3.760   5.895  0.6062 -0.3264 -0.2704
 5629SOL    MW422250   4.912   3.676   5.873  0.1157  0.3008  0.0868
 5630SOL     OW22251   2.952   1.595   2.119  0.7100  0.1915  0.0971
 5630SOL    HW222252   2.987   1.645   2.193  2.3207  0.7420 -0.9741
 5630SOL    HW322253   3.020   1.531   2.099  0.7658  0.7000 -1.4976
 5630SOL    MW422254   2.965   1.593   2.126  0.0632  0.0952 -0.2088
 5631SOL     OW22255   3.120   4.914   3.099 -0.1879 -0.3435  0.2538
 5631SOL    HW222256   3.119   4.819   3.111 -0.5827 -0.1575  1.9652
 5631SOL    HW322257   3.092   4.927   3.008 -3.1539 -1.7601  0.8522
 5631SOL    MW422258   3.117   4.903   3.089 -0.2272  0.6328  0.4425
 5632SOL     OW22259   2.488   3.349   3.812  0.6701 -0.6007 -0.0678
 5632SOL    HW222260   2.548   3.397   3.755 -1.2667  0.0956 -1.6615
 5632SOL    HW322261   2.446   3.417   3.865  2.2388 -1.2149  2.0960
 5632SOL    MW422262   2.490   3.365   3.812  0.1728 -0.3560  0.0466
 5633SOL     OW22263   3.645   3.088   2.077 -0.4925  0.0479 -0.4606
 5633SOL    HW222264   3.689   3.006   2.095 -0.9953  0.0164  0.7156
 5633SOL    HW322265   3.691   3.153   2.130 -0.0822  0.5415 -1.3989
 5633SOL    MW422266   3.657   3.086   2.086 -0.3326  1.0406  0.1687
 5634SOL     OW22267   5.150   4.100   0.946  0.3057  0.0017 -0.3505
 5634SOL    HW222268   5.205   4.136   1.015  1.8258 -2.1195 -0.3383
 5634SOL    HW322269   5.062   4.100   0.984  0.5994  1.6163  0.4169
 5634SOL    MW422270   5.146   4.105   0.960  0.4937  0.3778 -0.5809
 5635SOL     OW22271   3.688   2.500   5.351  0.0009 -0.0402 -0.5774
 5635SOL    HW222272   3.696   2.412   5.316  0.9488  0.2149 -1.0074
 5635SOL    HW322273   3.594   2.509   5.371 -0.2093 -0.9039 -1.1340
 5635SOL    MW422274   3.676   2.490   5.349 -0.1213  0.6054 -0.3467
 5636SOL     OW22275   3.690   5.291   2.299  0.3597 -0.8170  0.4256
 5636SOL    HW222276   3.707   5.250   2.214 -1.5389 -0.0584 -0.3862
 5636SOL    HW322277   3.597   5.273   2.316  0.3301  0.3155  1.6174
 5636SOL    MW422278   3.680   5.283   2.290  0.4631  0.0724  0.0426
 5637SOL     OW22279   3.822   2.690   5.520 -0.2419 -0.0464  0.1235
 5637SOL    HW222280   3.759   2.626   5.487  0.9030 -0.8799 -0.4875
 5637SOL    HW322281   3.898   2.682   5.463  0.9141  0.0714  1.5638
 5637SOL    MW422282   3.824   2.681   5.508 -0.0660 -0.1057  0.0743
 5638SOL     OW22283   3.023   3.675   3.880 -0.5938  0.4961 -0.1691
 5638SOL    HW222284   3.023   3.747   3.943  2.6869  0.0991  0.4410
 5638SOL    HW322285   2.956   3.699   3.816 -0.8435  3.1588  0.9760
 5638SOL    MW422286   3.014   3.688   3.880 -0.1614  0.3304 -0.0297
 5639SOL     OW22287   2.648   5.605   0.400  0.4203  0.1610 -0.0415
 5639SOL    HW222288   2.698   5.612   0.319  1.3005  1.3372  0.5806
 5639SOL    HW322289   2.712   5.582   0.466  0.0234  0.9643  0.6391
 5639SOL    MW422290   2.663   5.603   0.398 -0.5826 -0.1485 -0.1357
 5640SOL     OW22291   5.897   4.808   1.306 -0.1681 -0.0412  0.4287
 5640SOL    HW222292   5.977   4.799   1.358  1.6853  2.3278 -1.7225
 5640SOL    HW322293   5.851   4.882   1.347 -0.6076 -0.5385  0.8517
 5640SOL    MW422294   5.901   4.817   1.319 -0.5392 -0.4443  0.1151
 5641SOL     OW22295   1.809   2.523   2.792  0.2616  0.0912 -0.5838
 5641SOL    HW222296   1.882   2.472   2.826 -0.1275  0.2441  0.5287
 5641SOL    HW322297   1.847   2.575   2.721  1.2544  0.2433  0.0380
 5641SOL    MW422298   1.823   2.523   2.787 -0.2471  0.3461 -0.2458
 5642SOL     OW22299   1.519   3.488   3.261  0.8479 -0.2410  0.0080
 5642SOL    HW222300   1.512   3.454   3.172  1.6387  0.8982 -0.5144
 5642SOL    HW322301   1.600   3.539   3.261  0.2423  0.7739  1.0361
 5642SOL    MW422302   1.529   3.490   3.250 -0.4383  0.6033 -0.0413
 5643SOL     OW22303   1.070   1.042   0.221 -0.9397  0.0845 -0.0219
 5643SOL    HW222304   1.043   1.040   0.129 -0.4092 -1.1747 -0.1751
 5643SOL    HW322305   1.130   1.116   0.227 -0.0529 -0.5271 -0.9767
 5643SOL    MW422306   1.074   1.051   0.210 -0.0499 -0.1240  0.1063
 5644SOL     OW22307   4.033   0.993   2.153  0.1761  0.2763  0.3929
 5644SOL    HW222308   4.008   1.083   2.173  1.8435  0.7661  0.4280
 5644SOL    HW322309   4.023   0.986   2.058 -0.2443  0.4060  0.4277
 5644SOL    MW422310   4.029   1.004   2.143  0.4647  0.4198 -0.1497
 5645SOL     OW22311   6.288   3.004   1.602 -0.2398  0.0728  0.2032
 5645SOL    HW222312   6.302   2.918   1.640  0.0008  0.6666  1.5089
 5645SOL    HW322313   6.228   3.047   1.662 -1.0606  0.5262 -0.8978
 5645SOL    MW422314   6.282   2.998   1.615  0.5262 -0.2698  0.1507
 5646SOL     OW22315   1.759   3.705   5.644  0.0579 -0.0126  0.0665
 5646SOL    HW222316   1.840   3.756   5.646  0.4332 -0.5878  1.8601
 5646SOL    HW322317   1.693   3.763   5.683 -0.2889  0.2608 -0.9019
 5646SOL    MW422318   1.761   3.719   5.650  0.0336 -0.2593 -0.7342
 5647SOL     OW22319   0.416   1.105   3.490  0.6896  0.0739  0.2147
 5647SOL    HW222320   0.477   1.047   3.444  1.0233  0.2081  0.4868
 5647SOL    HW322321   0.472   1.165   3.539  0.3629  1.1989 -0.7473
 5647SOL    MW422322   0.432   1.105   3.490 -0.0861 -0.5881 -0.4149
 5648SOL     OW22323   0.802   5.115   6.239 -0.2126  0.3703  1.0663
 5648SOL    HW222324   0.872   5.105   6.303  0.0227 -0.1729  0.7384
 5648SOL    HW322325   0.731   5.059   6.271 -0.5261  0.9721  1.4333
 5648SOL    MW422326   0.802   5.106   6.251 -0.3382 -0.1208  0.2552
 5649SOL     OW22327   6.138   1.417   3.866  0.4435 -0.2546  0.5319
 5649SOL    HW222328   6.181   1.340   3.829  1.0962  0.3057  0.0959
 5649SOL    HW322329   6.210   1.477   3.885 -0.1555  0.9555 -0.7978
 5649SOL    MW422330   6.153   1.415   3.863 -0.0539  0.0563 -0.1395
 5650SOL     OW22331   3.564   2.489   4.177  0.7353  0.4822  0.0789
 5650SOL    HW222332   3.613   2.442   4.110  0.4548  0.5352 -0.1629
 5650SOL    HW322333   3.629   2.544   4.220  1.1838 -0.4987  0.7082
 5650SOL    MW422334   3.579   2.490   4.174 -0.1711 -0.1395  0.2112
 5651SOL     OW22335   0.543   4.403   4.876 -0.4050  0.1023 -0.6213
 5651SOL    HW222336   0.517   4.360   4.795  0.1458 -1.9800  0.2430
 5651SOL    HW322337   0.639   4.403   4.874 -0.3235 -1.5649  0.7482
 5651SOL    MW422338   0.552   4.397   4.865  0.5718 -0.2129 -0.1098
 5652SOL     OW22339   3.967   3.724   4.161  0.0636 -0.7165 -0.3131
 5652SOL    HW222340   3.999   3.635   4.151 -1.2081 -1.2059 -0.1448
 5652SOL    HW322341   3.989   3.766   4.078 -1.5881 -1.9252 -1.4106
 5652SOL    MW422342   3.974   3.718   4.149  0.0892  0.2223 -0.0425
 5653SOL     OW22343   5.137   1.988   5.294 -0.1620 -0.5221 -0.1573
 5653SOL    HW222344   5.078   2.061   5.273  0.5107  0.0815  0.0152
 5653SOL    HW322345   5.081   1.922   5.334 -0.7895 -0.1173 -0.3596
 5653SOL    MW422346   5.122   1.989   5.296  0.5371 -0.0922  0.5352
 5654SOL     OW22347   5.015   0.609   1.453 -0.1997  0.1125  0.0894
 5654SOL    HW222348   5.041   0.556   1.378 -1.2601  0.6802 -0.7028
 5654SOL    HW322349   5.071   0.686   1.449 -0.5090  0.3171 -0.3438
 5654SOL    MW422350   5.026   0.612   1.442 -0.6016 -0.1019 -0.1608
 5655SOL     OW22351   1.533   3.383   2.546 -0.2988  0.0737 -0.0276
 5655SOL    HW222352   1.438   3.395   2.552 -0.1285  1.8578 -0.4378
 5655SOL    HW322353   1.570   3.452   2.599  0.7919 -0.0684 -0.5734
 5655SOL    MW422354   1.525   3.393   2.554  0.4624  0.2855  0.1057
 5656SOL     OW22355   3.331   1.037   2.087  0.3609  0.5571  0.0094
 5656SOL    HW222356   3.310   1.091   2.164 -0.1942  0.6815 -0.2234
 5656SOL    HW322357   3.267   1.063   2.021  1.4641  1.1796 -0.8492
 5656SOL    MW422358   3.320   1.047   2.089  0.1095  0.9774 -0.1945
 5657SOL     OW22359   0.114   5.875   4.651 -0.4246 -0.0693  0.3174
 5657SOL    HW222360   0.020   5.861   4.642 -0.3915 -0.2555  0.2603
 5657SOL    HW322361   0.143   5.807   4.712 -0.1376 -0.7461 -0.5465
 5657SOL    MW422362   0.106   5.864   4.658  0.4870  0.2097 -0.5572
 5658SOL     OW22363   1.787   0.860   5.700 -0.0122  0.1100 -0.5672
 5658SOL    HW222364   1.830   0.866   5.615  1.2199  0.9878  0.0912
 5658SOL    HW322365   1.711   0.918   5.692 -0.4901 -0.5962 -1.3774
 5658SOL    MW422366   1.782   0.868   5.688  0.1966  0.0779 -0.7403
 5659SOL     OW22367   1.269   2.463   4.612 -0.1471  0.2257  0.1187
 5659SOL    HW222368   1.355   2.431   4.642 -0.3401 -1.8817 -1.3478
 5659SOL    HW322369   1.287   2.502   4.527 -0.6451 -0.3998 -0.2841
 5659SOL    MW422370   1.283   2.464   4.605 -0.1542  0.5754 -0.0354
 5660SOL     OW22371   0.451   5.407   5.726  0.8520 -0.5245 -0.2244
 5660SOL    HW222372   0.424   5.407   5.818  1.0097  1.7167 -0.1364
 5660SOL    HW322373   0.512   5.333   5.719 -0.9421 -2.2092  0.8738
 5660SOL    MW422374   0.455   5.397   5.737  0.0678  0.5420  0.2592
 5661SOL     OW22375   4.854   3.081   3.993  0.2061 -0.0073  0.6803
 5661SOL    HW222376   4.853   3.004   4.049  0.1832 -0.0109  0.6749
 5661SOL    HW322377   4.767   3.084   3.954 -0.1370  0.6117  1.4810
 5661SOL    MW422378   4.842   3.072   3.995  0.9024 -0.2552  0.4126
 5662SOL     OW22379   4.520   1.322   2.036 -0.3785 -0.5493 -0.0119
 5662SOL    HW222380   4.465   1.368   2.099  0.9687 -0.0271  0.8361
 5662SOL    HW322381   4.536   1.237   2.077  2.1080  0.4897  1.3814
 5662SOL    MW422382   4.515   1.317   2.050 -0.4554  0.6787 -0.4440
 5663SOL     OW22383   1.467   0.443   2.786  0.3419  0.3838  0.1846
 5663SOL    HW222384   1.397   0.402   2.735  1.3515 -0.0363 -0.9137
 5663SOL    HW322385   1.423   0.515   2.833 -0.7159  0.5168 -0.9412
 5663SOL    MW422386   1.452   0.447   2.786  0.2620  0.5561  0.9580
 5664SOL     OW22387   1.418   5.261   2.931 -0.0063 -0.3620 -0.1896
 5664SOL    HW222388   1.348   5.206   2.964  1.6696 -1.7652  1.2025
 5664SOL    HW322389   1.389   5.287   2.843 -2.5413 -0.2725  0.5978
 5664SOL    MW422390   1.405   5.257   2.924  0.1346 -0.1067  0.1295
 5665SOL     OW22391   2.307   4.325   2.589 -0.6749  0.3988 -0.4864
 5665SOL    HW222392   2.401   4.320   2.571 -0.7105 -0.7002 -0.4098
 5665SOL    HW322393   2.295   4.412   2.628  0.4208  0.2997  0.1190
 5665SOL    MW422394   2.318   4.336   2.592 -0.5955 -0.1642  0.1138
 5666SOL     OW22395   1.543   1.901   0.754 -0.7159  0.7121 -0.7013
 5666SOL    HW222396   1.594   1.923   0.676  0.9980 -0.9660 -0.1255
 5666SOL    HW322397   1.478   1.971   0.760  1.0233  2.5573 -1.9008
 5666SOL    MW422398   1.541   1.913   0.744  0.7444 -0.0561 -0.0709
 5667SOL     OW22399   2.640   3.236   1.243  0.4603 -0.0282  0.0329
 5667SOL    HW222400   2.610   3.218   1.332  0.6612  1.5181  0.4400
 5667SOL    HW322401   2.731   3.205   1.243 -0.6018 -3.6637 -0.8700
 5667SOL    MW422402   2.648   3.229   1.255  0.2452 -0.1484 -0.4075
 5668SOL     OW22403   0.577   2.595   1.699 -0.0641 -0.3593  0.1556
 5668SOL    HW222404   0.582   2.612   1.793  1.3129 -0.1978  0.0709
 5668SOL    HW322405   0.647   2.533   1.681 -1.9381 -2.4633 -0.3778
 5668SOL    MW422406   0.587   2.589   1.709 -0.4180  0.3276 -0.0394
 5669SOL     OW22407   2.268   5.918   4.044 -0.2146 -0.2239  0.3654
 5669SOL    HW222408   2.352   5.962   4.031 -1.2509  1.4576 -1.1759
 5669SOL    HW322409   2.291   5.832   4.078  2.1363  0.1296 -0.1366
 5669SOL    MW422410   2.282   5.913   4.046 -0.1576 -0.9961 -0.6232
 5670SOL     OW22411   0.436   5.724   3.435 -0.2466 -0.4264  0.6287
 5670SOL    HW222412   0.365   5.781   3.464  0.3697  1.1991 -0.8436
 5670SOL    HW322413   0.515   5.776   3.450  0.3799 -1.0995 -0.2856
 5670SOL    MW422414   0.437   5.738   3.441  0.2855  0.1852 -0.2158
 5671SOL     OW22415   4.750   1.052   3.471  0.5861 -0.1989 -0.3092
 5671SOL    HW222416   4.697   0.974   3.491  0.9339 -0.5470 -0.7210
 5671SOL    HW322417   4.833   1.017   3.439 -0.1862  0.2687 -3.1104
 5671SOL    MW422418   4.754   1.037   3.469 -0.0481  0.1452  0.2173
 5672SOL     OW22419   1.110   2.381   3.460  0.2963 -0.3433 -0.2584
 5672SOL    HW222420   1.059   2.405   3.383 -0.3851 -1.9138 -0.3418
 5672SOL    HW322421   1.125   2.286   3.451 -0.7716 -0.8119  2.0748
 5672SOL    MW422422   1.105   2.371   3.449  0.4541  0.3120  0.3533
 5673SOL     OW22423   4.059   4.296   0.369  0.3592 -0.1742  0.1084
 5673SOL    HW222424   4.017   4.345   0.440 -0.5318  1.6819 -1.6331
 5673SOL    HW322425   4.119   4.236   0.415 -0.9003  0.2358  2.4587
 5673SOL    MW422426   4.062   4.295   0.385 -0.3565 -0.7496  0.1883
 5674SOL     OW22427   0.705   2.090   3.329  0.3282 -0.3784 -0.7012
 5674SOL    HW222428   0.747   2.092   3.416  0.1375  3.2295 -0.5321
 5674SOL    HW322429   0.762   2.033   3.277  0.9854 -1.8967  1.4798
 5674SOL    MW422430   0.718   2.083   3.334  0.6348  0.1504  0.1823
 5675SOL     OW22431   5.783   0.778   0.325 -0.0179  0.2500  0.2777
 5675SOL    HW222432   5.833   0.766   0.245 -2.0891  1.8591 -1.3606
 5675SOL    HW322433   5.710   0.835   0.300 -1.4200 -0.1538  3.0423
 5675SOL    MW422434   5.780   0.784   0.311  0.6535 -0.3204 -0.5883
 5676SOL     OW22435   4.102   0.834   3.335 -0.3197 -0.0057 -0.1467
 5676SOL    HW222436   4.087   0.891   3.260 -0.7971 -0.4317 -0.3819
 5676SOL    HW322437   4.153   0.761   3.300 -0.4640 -0.1596 -0.0395
 5676SOL    MW422438   4.107   0.832   3.321 -0.2368 -0.2374 -0.4362
 5677SOL     OW22439   5.063   5.721   0.557  0.5090  0.4072 -0.3126
 5677SOL    HW222440   5.037   5.783   0.489  2.7336 -0.5914 -2.1787
 5677SOL    HW322441   5.147   5.754   0.588  0.7153 -0.5386  0.1715
 5677SOL    MW422442   5.070   5.734   0.552  0.1642 -0.0215 -0.5741
 5678SOL     OW22443   3.074   0.036   2.269  0.3856  0.2128 -0.4220
 5678SOL    HW222444   3.026   0.104   2.316  1.5487 -0.0792  1.2831
 5678SOL    HW322445   3.059  -0.043   2.320 -0.4156 -0.7171 -2.0162
 5678SOL    MW422446   3.066   0.035   2.282 -0.0236 -0.2749 -0.2395
 5679SOL     OW22447   4.433   3.807   3.390 -0.4273 -0.4687 -0.3065
 5679SOL    HW222448   4.473   3.845   3.468  0.8353 -0.7161 -0.7989
 5679SOL    HW322449   4.486   3.728   3.373 -2.2443 -1.8175  0.0284
 5679SOL    MW422450   4.446   3.801   3.398  0.4671 -0.4064 -0.7234
 5680SOL     OW22451   1.700   3.352   5.268  0.1571 -0.2888  0.2483
 5680SOL    HW222452   1.639   3.320   5.202  1.8200 -1.4650 -0.8138
 5680SOL    HW322453   1.710   3.445   5.250 -1.0474 -0.1562  0.2304
 5680SOL    MW422454   1.693   3.360   5.257 -0.4169 -0.3382  0.6510
 5681SOL     OW22455   1.003   3.793   0.666  0.5634 -0.2121 -0.4808
 5681SOL    HW222456   1.027   3.700   0.668  0.3479 -0.2861 -1.2436
 5681SOL    HW322457   1.074   3.836   0.715  0.2786 -0.8508  0.5263
 5681SOL    MW422458   1.016   3.786   0.673  0.3181 -0.1897 -0.3553
 5682SOL     OW22459   4.825   1.731   0.972  0.1182 -0.1577 -0.2013
 5682SOL    HW222460   4.887   1.735   1.045  0.7098  0.5650 -0.7220
 5682SOL    HW322461   4.822   1.820   0.938 -0.8358 -0.2948 -0.5061
 5682SOL    MW422462   4.833   1.743   0.977  0.0380  0.0981 -0.0682
 5683SOL     OW22463   4.690   6.179   1.368  0.0796 -0.1410  0.2974
 5683SOL    HW222464   4.651   6.203   1.284 -2.6518  0.2528  1.5651
 5683SOL    HW322465   4.714   6.087   1.358 -1.5016 -0.5024 -0.5155
 5683SOL    MW422466   4.688   6.170   1.356 -0.0338 -0.1621  0.0519
 5684SOL     OW22467   1.238   3.528   4.562 -0.2365 -0.5924 -0.4572
 5684SOL    HW222468   1.240   3.612   4.516  0.0325 -0.7627 -0.7649
 5684SOL    HW322469   1.256   3.464   4.494 -0.2769 -0.8855 -0.1907
 5684SOL    MW422470   1.241   3.531   4.547  0.1633  0.0417  0.3755
 5685SOL     OW22471   0.140   5.808   5.132 -0.0371  0.3066  0.4585
 5685SOL    HW222472   0.120   5.893   5.092 -1.3343 -0.8229 -1.4173
 5685SOL    HW322473   0.224   5.783   5.095 -0.5910 -0.1080 -0.5571
 5685SOL    MW422474   0.148   5.816   5.122  0.6377  0.3714 -0.1865
 5686SOL     OW22475   5.683   1.162   3.556 -0.3437 -0.5420  0.6350
 5686SOL    HW222476   5.768   1.195   3.526 -1.1846  0.7946 -0.4320
 5686SOL    HW322477   5.646   1.118   3.479 -1.0785 -0.1359  0.7468
 5686SOL    MW422478   5.690   1.161   3.542 -0.2462  0.5411 -0.1639
 5687SOL     OW22479   0.693   2.876   2.689 -0.4760  0.2029  0.9185
 5687SOL    HW222480   0.721   2.876   2.780 -0.4606  1.5193  0.9260
 5687SOL    HW322481   0.601   2.901   2.692 -0.1476  1.5312  0.5012
 5687SOL    MW422482   0.685   2.879   2.701  0.5342  0.4011 -0.2869
 5688SOL     OW22483   5.592   3.157   4.798 -0.0426  0.2966  0.3021
 5688SOL    HW222484   5.575   3.063   4.805  3.2515 -0.4019  0.6920
 5688SOL    HW322485   5.571   3.178   4.707  2.5771 -1.7360 -0.9140
 5688SOL    MW422486   5.587   3.147   4.787  0.0876  0.3666  0.3712
 5689SOL     OW22487   4.594   2.431   3.266  0.3158 -0.4574 -0.5573
 5689SOL    HW222488   4.673   2.486   3.258  0.9399 -1.0989  0.8815
 5689SOL    HW322489   4.527   2.490   3.299  0.8228 -0.4160  0.4102
 5689SOL    MW422490   4.596   2.446   3.269  0.2864  0.3218 -0.0164
 5690SOL     OW22491   5.178   5.611   1.643 -0.0055  0.0109 -0.1781
 5690SOL    HW222492   5.248   5.669   1.671  0.1898 -0.0516 -0.5328
 5690SOL    HW322493   5.153   5.564   1.722 -2.5902  3.0411  0.9956
 5690SOL    MW422494   5.184   5.612   1.657  0.1928 -0.4683 -0.3693
 5691SOL     OW22495   4.455   5.511   3.660 -0.1835  0.1602 -0.5486
 5691SOL    HW222496   4.400   5.433   3.654 -1.9781  1.3743 -0.4336
 5691SOL    HW322497   4.495   5.519   3.573  0.1315 -0.9383 -0.5204
 5691SOL    MW422498   4.453   5.501   3.648 -0.0019  0.7523 -1.1934
 5692SOL     OW22499   1.208   6.148   5.721 -0.3005 -0.6389 -0.3197
 5692SOL    HW222500   1.165   6.063   5.724  2.2646 -2.0664 -1.5743
 5692SOL    HW322501   1.246   6.159   5.808 -0.3823 -0.9031 -0.2505
 5692SOL    MW422502   1.207   6.138   5.733  0.0910 -0.0520  0.1016
 5693SOL     OW22503   1.114   0.080   3.431  0.3333  0.2555  0.4482
 5693SOL    HW222504   1.104   0.023   3.507  2.5642 -1.3599 -0.3686
 5693SOL    HW322505   1.066   0.035   3.361  0.0363  0.6715  0.3791
 5693SOL    MW422506   1.106   0.066   3.431  0.5575 -0.2055 -0.0754
 5694SOL     OW22507   4.302   4.610   2.478 -0.3848  0.1811  0.1707
 5694SOL    HW222508   4.290   4.630   2.571  0.3572 -0.6803  0.4716
 5694SOL    HW322509   4.394   4.631   2.461 -0.2813 -0.4981 -0.1402
 5694SOL    MW422510   4.313   4.615   2.488  0.1939 -0.0333  0.0114
 5695SOL     OW22511   6.391   0.589   2.469 -0.3543  0.4216 -0.3197
 5695SOL    HW222512   6.414   0.681   2.479 -1.9033  0.8605 -0.5206
 5695SOL    HW322513   6.378   0.558   2.559  0.9997  0.1487 -0.1999
 5695SOL    MW422514   6.392   0.597   2.483 -0.0809  0.4000  0.1985
 5696SOL     OW22515   4.263   3.498   6.086 -0.5412 -0.3554 -0.1418
 5696SOL    HW222516   4.233   3.562   6.151  0.6311 -0.3833  0.4592
 5696SOL    HW322517   4.334   3.543   6.039 -1.2262 -0.4201 -1.2659
 5696SOL    MW422518   4.268   3.512   6.088 -0.5043 -0.7178  0.2535
 5697SOL     OW22519   4.752   4.832   5.642  0.4032  0.0730 -0.3706
 5697SOL    HW222520   4.770   4.796   5.729  1.0299  0.3277 -0.3885
 5697SOL    HW322521   4.656   4.832   5.636  0.3668 -1.7042 -0.4241
 5697SOL    MW422522   4.742   4.827   5.653 -0.1735 -0.4043 -0.0715
 5698SOL     OW22523   2.289   1.473   4.632 -0.7664  0.3137 -0.5024
 5698SOL    HW222524   2.258   1.563   4.623 -3.0104 -0.1917  1.0187
 5698SOL    HW322525   2.383   1.480   4.643 -0.8058  2.4128 -1.1557
 5698SOL    MW422526   2.297   1.486   4.633  0.4366  0.7290  0.5417
 5699SOL     OW22527   2.782   1.149   1.053 -0.4417 -0.6291 -0.6896
 5699SOL    HW222528   2.826   1.222   1.097 -0.2693 -0.4141 -1.2109
 5699SOL    HW322529   2.830   1.137   0.971 -0.6789 -1.1091 -0.7633
 5699SOL    MW422530   2.794   1.157   1.048 -0.4646  0.5254 -0.0808
 5700SOL     OW22531   4.930   0.284   3.589  0.3838  0.3335 -0.1785
 5700SOL    HW222532   4.847   0.322   3.558 -0.2953 -0.8086  0.1470
 5700SOL    HW322533   4.987   0.285   3.512  0.9004  3.1988  0.1388
 5700SOL    MW422534   4.926   0.289   3.575  0.4651 -0.7017  0.4195
 5701SOL     OW22535   0.213   3.638   4.235  0.1305  0.2924 -0.5116
 5701SOL    HW222536   0.131   3.588   4.240 -0.1896  0.7678 -0.9203
 5701SOL    HW322537   0.282   3.571   4.239 -0.2350 -0.0285  1.0617
 5701SOL    MW422538   0.211   3.622   4.236  0.5736 -0.1578  0.0834
 5702SOL     OW22539   2.768   5.045   1.098  0.0477 -0.1965  0.1519
 5702SOL    HW222540   2.695   4.988   1.072  0.3573 -1.1529  1.3086
 5702SOL    HW322541   2.776   5.107   1.025 -1.9891  0.0256  0.0515
 5702SOL    MW422542   2.759   5.045   1.085  0.6336 -0.2303 -0.6495
 5703SOL     OW22543   0.548   4.214   4.003  0.5443 -0.3186  0.3509
 5703SOL    HW222544   0.613   4.232   4.071  1.7499 -1.7887 -0.3403
 5703SOL    HW322545   0.600   4.189   3.927 -0.7878  0.7816 -0.9800
 5703SOL    MW422546   0.563   4.213   4.002 -0.2139  0.7901  0.4254
 5704SOL     OW22547   0.669   1.585   5.437 -0.7081 -0.3742  0.3132
 5704SOL    HW222548   0.634   1.495   5.437 -0.7611 -0.4107 -1.7613
 5704SOL    HW322549   0.753   1.578   5.481 -1.9777 -0.8333  2.8436
 5704SOL    MW422550   0.676   1.572   5.443  0.0859  0.8422 -0.1932
 5705SOL     OW22551   1.373   4.094   2.782  0.3940  0.4306  0.1289
 5705SOL    HW222552   1.340   4.025   2.723 -1.5538  1.2309  0.2022
 5705SOL    HW322553   1.458   4.118   2.746 -0.7175  0.8841 -2.4052
 5705SOL    MW422554   1.380   4.088   2.769 -1.3979 -0.1396 -0.0840
 5706SOL     OW22555   4.196   3.477   3.882 -0.4548  0.1320  0.0237
 5706SOL    HW222556   4.212   3.531   3.959  0.3820 -1.0402  0.6936
 5706SOL    HW322557   4.109   3.440   3.897 -0.0029 -0.6630  0.7759
 5706SOL    MW422558   4.187   3.479   3.894  0.3652 -0.4084  0.0512
 5707SOL     OW22559   1.473   5.005   4.589 -0.3074  0.1978 -0.3745
 5707SOL    HW222560   1.484   4.995   4.684 -1.2265  2.7579  0.0753
 5707SOL    HW322561   1.563   5.011   4.556  0.0840 -2.1305  0.0732
 5707SOL    MW422562   1.486   5.005   4.597 -0.1535  0.1612 -0.2827
 5708SOL     OW22563   1.361   1.569   5.144  0.0323 -0.1315 -0.0685
 5708SOL    HW222564   1.401   1.486   5.171 -0.9211 -0.0258  1.8588
 5708SOL    HW322565   1.280   1.543   5.099 -0.4492 -0.2709  0.8501
 5708SOL    MW422566   1.355   1.555   5.142  0.4584 -0.5333  0.3832
 5709SOL     OW22567   0.680   5.994   4.005 -0.0122 -0.2658 -1.0101
 5709SOL    HW222568   0.720   6.072   4.044 -0.4919 -0.9036  0.8289
 5709SOL    HW322569   0.640   6.026   3.924  1.2340  1.0524 -1.1491
 5709SOL    MW422570   0.680   6.009   3.999 -0.3081  0.3246 -0.1599
 5710SOL     OW22571   2.053   6.264   1.147 -0.4511  0.2268  0.5287
 5710SOL    HW222572   1.985   6.331   1.147 -1.5539 -0.7369 -2.3890
 5710SOL    HW322573   2.096   6.274   1.062 -0.0037 -2.1046  0.4162
 5710SOL    MW422574   2.050   6.274   1.136 -0.1550 -0.3615  0.1626
 5711SOL     OW22575   4.951   0.585   5.561 -0.2587  0.4132  0.5228
 5711SOL    HW222576   4.952   0.501   5.607 -4.0149 -0.6568 -0.9186
 5711SOL    HW322577   4.915   0.565   5.475  2.1488  3.0431 -1.2764
 5711SOL    MW422578   4.946   0.572   5.556  0.1859  0.1296  0.2346
 5712SOL     OW22579   1.401   1.311   3.631  0.3962  0.7134  0.1451
 5712SOL    HW222580   1.380   1.396   3.668 -1.4022  0.9359 -1.2614
 5712SOL    HW322581   1.327   1.290   3.574  0.2255 -2.3201  1.2842
 5712SOL    MW422582   1.389   1.319   3.628 -0.1388 -0.0424  0.3318
 5713SOL     OW22583   4.917   1.167   1.542 -0.5257 -0.3194  0.6604
 5713SOL    HW222584   4.884   1.250   1.509  2.2446  0.4611 -0.3769
 5713SOL    HW322585   4.858   1.145   1.615 -2.8465  1.2069 -0.6472
 5713SOL    MW422586   4.904   1.175   1.548  0.4559  0.4660  0.1307
 5714SOL     OW22587   1.968   5.217   4.499 -0.6184  0.1760 -0.0967
 5714SOL    HW222588   2.045   5.163   4.518 -0.2024  1.8600  3.9353
 5714SOL    HW322589   1.985   5.253   4.412  3.8181  1.3953  1.0240
 5714SOL    MW422590   1.981   5.215   4.490  0.0240  0.0160  0.1258
 5715SOL     OW22591   5.942   1.179   1.025  0.0308 -0.3644 -0.0175
 5715SOL    HW222592   5.970   1.140   1.108  1.5510 -0.2370 -0.4433
 5715SOL    HW322593   6.003   1.145   0.960 -0.2998  0.5854 -0.8589
 5715SOL    MW422594   5.954   1.170   1.027 -0.2185 -0.1376  0.1026
 5716SOL     OW22595   5.333   1.839   2.183  0.1012 -0.4781  0.0985
 5716SOL    HW222596   5.309   1.854   2.274 -2.3604  0.8241 -0.6754
 5716SOL    HW322597   5.261   1.788   2.147 -0.2262  1.0992 -1.6736
 5716SOL    MW422598   5.320   1.835   2.190  0.0041  0.4210  0.2676
 5717SOL     OW22599   2.938   5.454   3.068 -0.3560 -0.3568 -0.0844
 5717SOL    HW222600   2.938   5.486   2.978 -1.6109  2.2171  0.7059
 5717SOL    HW322601   2.850   5.418   3.080 -0.4232 -0.0827  0.2706
 5717SOL    MW422602   2.926   5.454   3.058  0.5298  0.3503 -0.6103
 5718SOL     OW22603   2.669   4.688   6.194 -0.3321 -0.6677  0.3075
 5718SOL    HW222604   2.764   4.677   6.199 -0.1686  0.3677 -0.1804
 5718SOL    HW322605   2.639   4.677   6.285  0.8650  3.7550  1.5218
 5718SOL    MW422606   2.678   4.685   6.207 -0.4696  0.1453 -0.1177
 5719SOL     OW22607   1.550   0.153   2.856 -0.0201  0.0997  0.1121
 5719SOL    HW222608   1.542   0.235   2.809  0.8183 -0.2267 -0.6353
 5719SOL    HW322609   1.627   0.111   2.818 -1.5149 -1.9111 -0.8780
 5719SOL    MW422610   1.559   0.158   2.845  0.8132  0.4714 -0.5667
 5720SOL     OW22611   4.344   0.427   2.274 -0.5948  0.2093  0.4711
 5720SOL    HW222612   4.392   0.484   2.214 -1.1780  1.6033  1.2841
 5720SOL    HW322613   4.319   0.484   2.347  0.6644 -1.5337  2.4103
 5720SOL    MW422614   4.347   0.442   2.276  0.4254 -0.0337 -0.6579
 5721SOL     OW22615   5.552   0.580   5.741 -0.0145  0.1372 -0.2085
 5721SOL    HW222616   5.530   0.515   5.674  1.0872 -0.0232 -0.4378
 5721SOL    HW322617   5.485   0.647   5.732 -1.1644 -0.9383  0.0058
 5721SOL    MW422618   5.540   0.580   5.731  0.1029  0.1142  0.3399
 5722SOL     OW22619   1.300   1.425   0.742  0.6720  0.1201  0.6293
 5722SOL    HW222620   1.358   1.497   0.716  1.2426 -0.9940 -1.4878
 5722SOL    HW322621   1.214   1.450   0.709  0.8441 -0.0944  0.0062
 5722SOL    MW422622   1.296   1.438   0.734  0.9648  0.0290 -0.2180
 5723SOL     OW22623   3.130   0.655   3.995  0.6800  0.1006 -0.2845
 5723SOL    HW222624   3.138   0.605   3.913 -0.1697 -1.7132  0.6748
 5723SOL    HW322625   3.147   0.591   4.064 -1.0985  0.9567  1.0400
 5723SOL    MW422626   3.133   0.640   3.993  0.9998  0.0412  0.4752
 5724SOL     OW22627   3.069   0.611   0.971 -0.0096 -0.2477 -0.2179
 5724SOL    HW222628   3.058   0.534   0.917 -1.8198 -1.0561  1.1910
 5724SOL    HW322629   2.980   0.643   0.987  0.6665  2.0869 -0.6538
 5724SOL    MW422630   3.056   0.605   0.966  0.5518  0.1328  0.0607
 5725SOL     OW22631   1.033   5.334   3.864  0.0338  0.0181  0.3488
 5725SOL    HW222632   1.079   5.361   3.943 -1.6025  2.3762  0.6075
 5725SOL    HW322633   1.097   5.345   3.794  0.5762  0.9280  0.9741
 5725SOL    MW422634   1.048   5.339   3.865  0.6401 -0.3665  0.0877
 5726SOL     OW22635   0.743   5.528   5.163 -0.4089  0.5071 -0.3658
 5726SOL    HW222636   0.813   5.476   5.123  0.6256  0.2393  1.6558
 5726SOL    HW322637   0.662   5.493   5.125  0.4667  0.0136 -1.8583
 5726SOL    MW422638   0.742   5.517   5.152  0.1887  0.2635 -0.0111
 5727SOL     OW22639   3.506   6.179   4.115 -0.1358  0.0507 -0.1466
 5727SOL    HW222640   3.441   6.171   4.044  0.7141  0.4456 -0.9887
 5727SOL    HW322641   3.535   6.089   4.130 -2.8291 -0.5576  2.1666
 5727SOL    MW422642   3.501   6.166   4.107 -0.0214 -0.5166  0.3395
 5728SOL     OW22643   5.408   3.359   0.209 -0.1612 -0.5552  0.0516
 5728SOL    HW222644   5.416   3.294   0.279  1.3787 -0.5742 -0.1067
 5728SOL    HW322645   5.375   3.437   0.253 -1.2124 -1.1724  0.3998
 5728SOL    MW422646   5.405   3.361   0.224 -0.1021  0.0646  1.0360
 5729SOL     OW22647   6.287   5.109   4.667  0.2009 -0.7875 -0.0169
 5729SOL    HW222648   6.212   5.074   4.715 -1.2682  0.1334 -1.5383
 5729SOL    HW322649   6.276   5.075   4.578  1.3200 -0.2454 -0.3771
 5729SOL    MW422650   6.276   5.100   4.662 -0.6598  0.3965 -0.1592
 5730SOL     OW22651   4.007   1.271   5.983 -0.5442  0.0710 -0.1058
 5730SOL    HW222652   3.986   1.283   6.076  0.4959  0.2485  0.1175
 5730SOL    HW322653   4.097   1.301   5.975 -0.2899 -0.8797 -0.9765
 5730SOL    MW422654   4.016   1.277   5.994  0.0167  0.4571 -0.3952
 5731SOL     OW22655   6.056   6.431   2.398  0.2757 -0.0012 -0.2235
 5731SOL    HW222656   6.123   6.417   2.332  0.0462  0.8181 -0.6375
 5731SOL    HW322657   5.975   6.397   2.358  0.2793 -0.1995 -0.0642
 5731SOL    MW422658   6.054   6.425   2.384  1.0071  0.0083  0.2681
 5732SOL     OW22659   6.291   0.079   5.984  0.4038 -0.5631  0.6786
 5732SOL    HW222660   6.204   0.119   5.990  0.7265  0.1539  0.6209
 5732SOL    HW322661   6.340   0.116   6.056  0.6853 -0.9263  0.6788
 5732SOL    MW422662   6.286   0.089   5.994  0.2737  0.4918  0.9461
 5733SOL     OW22663   3.156   0.347   2.676 -0.0401 -0.0818 -0.5221
 5733SOL    HW222664   3.182   0.388   2.593 -0.8725  0.6462 -0.4410
 5733SOL    HW322665   3.184   0.409   2.743  1.4066 -1.0671 -0.1822
 5733SOL    MW422666   3.163   0.361   2.674  0.0673 -0.1869 -0.4055
 5734SOL     OW22667   0.618   1.092   2.847 -0.3416  0.2860  0.0256
 5734SOL    HW222668   0.660   1.164   2.800 -1.4717  1.0139  0.1016
 5734SOL    HW322669   0.643   1.105   2.938  0.3675 -0.0811 -0.1053
 5734SOL    MW422670   0.627   1.103   2.853  0.0894 -0.2677 -0.0976
 5735SOL     OW22671   5.073   5.809   4.680  0.0599  0.0260  0.1005
 5735SOL    HW222672   5.050   5.748   4.611 -1.4230  0.5047  0.1450
 5735SOL    HW322673   5.119   5.880   4.634  0.3851 -0.3583 -0.1745
 5735SOL    MW422674   5.076   5.810   4.665  0.3349  0.1145  0.0754
 5736SOL     OW22675   1.578   2.796   5.303 -0.3639  0.1095 -0.0608
 5736SOL    HW222676   1.660   2.756   5.333  0.0786  0.8394 -0.2773
 5736SOL    HW322677   1.562   2.866   5.366  1.4880  2.8041 -2.3461
 5736SOL    MW422678   1.587   2.800   5.315  0.1904 -0.2364 -0.6392
 5737SOL     OW22679   4.472   1.265   5.927  0.2920  0.5978  0.0737
 5737SOL    HW222680   4.534   1.252   5.999  0.2356  0.2415  0.0580
 5737SOL    HW322681   4.501   1.347   5.885 -1.0441  2.1031  1.9173
 5737SOL    MW422682   4.484   1.274   5.931  0.4637  0.2438  0.5692
 5738SOL     OW22683   4.697   1.846   2.417  0.5581 -0.0515  0.3181
 5738SOL    HW222684   4.633   1.855   2.487  0.0442  2.1618 -0.3277
 5738SOL    HW322685   4.672   1.766   2.371 -1.7867  0.7379  0.0945
 5738SOL    MW422686   4.685   1.837   2.420  0.2602 -0.7855 -0.6284
 5739SOL     OW22687   1.990   3.202   5.878  0.1970  0.4141 -0.2776
 5739SOL    HW222688   1.993   3.272   5.813 -2.1093 -0.0476 -0.9785
 5739SOL    HW322689   2.025   3.242   5.958 -1.2175  2.4818 -0.5965
 5739SOL    MW422690   1.995   3.217   5.880 -0.3836  0.8666  0.1750
 5740SOL     OW22691   0.322   0.447   3.148  0.0494 -0.3036 -0.2259
 5740SOL    HW222692   0.344   0.452   3.241  0.5119 -1.7019 -0.2307
 5740SOL    HW322693   0.227   0.457   3.144  0.2416  2.5975  0.0978
 5740SOL    MW422694   0.313   0.449   3.159 -0.3091 -0.1405 -0.3702
 5741SOL     OW22695   5.398   3.171   1.509  0.5364 -0.0078  0.0143
 5741SOL    HW222696   5.491   3.191   1.496  0.1484  1.2677 -1.0834
 5741SOL    HW322697   5.361   3.253   1.543 -0.1777 -0.4998  0.4289
 5741SOL    MW422698   5.406   3.185   1.511  0.6042  0.0140  0.5100
 5742SOL     OW22699   0.089   0.596   1.871  0.2913 -0.2544  0.6228
 5742SOL    HW222700   0.030   0.524   1.891  0.9740 -0.9412  0.2003
 5742SOL    HW322701   0.154   0.559   1.811 -0.3484  1.1397 -1.0360
 5742SOL    MW422702   0.090   0.582   1.865 -0.3918 -0.0882 -0.5799
 5743SOL     OW22703   2.097   0.838   5.909  0.4909  0.4225  0.1922
 5743SOL    HW222704   2.149   0.869   5.984  1.8541 -0.9828 -0.1173
 5743SOL    HW322705   2.010   0.874   5.924  1.1757  1.6462  1.5177
 5743SOL    MW422706   2.093   0.846   5.921  0.0669 -0.0683  0.0828
 5744SOL     OW22707   0.241   2.581   3.624 -0.4911 -0.3846  0.1197
 5744SOL    HW222708   0.307   2.515   3.603 -0.0186 -0.3294  1.3489
 5744SOL    HW322709   0.290   2.654   3.661 -1.2332 -0.4173  1.2373
 5744SOL    MW422710   0.256   2.582   3.626 -0.4782  0.4197 -0.1809
 5745SOL     OW22711   0.457   5.396   5.055  0.3282  0.3743  0.0612
 5745SOL    HW222712   0.470   5.313   5.009 -0.6907  1.2134 -1.8590
 5745SOL    HW322713   0.365   5.395   5.081  0.8079  0.0540  1.9104
 5745SOL    MW422714   0.447   5.385   5.053 -0.1348  0.3973  0.1028
 5746SOL     OW22715   2.308   4.369   5.085  0.3647  0.5347 -0.2469
 5746SOL    HW222716   2.302   4.276   5.065  0.7297  0.6852 -1.1214
 5746SOL    HW322717   2.297   4.375   5.180 -1.0379 -0.2630 -0.3345
 5746SOL    MW422718   2.306   4.358   5.094 -0.0543  0.3090  0.2410
 5747SOL     OW22719   4.695   0.563   6.099  0.2908  0.4785 -0.6469
 5747SOL    HW222720   4.638   0.490   6.123  0.7495 -0.0845 -1.2460
 5747SOL    HW322721   4.775   0.522   6.068  0.5661  1.2404 -0.9641
 5747SOL    MW422722   4.698   0.548   6.098 -0.3402 -0.1264 -0.2447
 5748SOL     OW22723   5.464   3.737   0.142 -0.2912 -0.4129  0.3631
 5748SOL    HW222724   5.442   3.822   0.180  0.4855 -0.2655  0.4884
 5748SOL    HW322725   5.388   3.715   0.089 -2.1804 -1.4168  3.2585
 5748SOL    MW422726   5.451   3.746   0.140 -0.2048  0.1006 -0.1284
 5749SOL     OW22727   1.266   3.227   0.436 -0.1305 -0.1563  0.1473
 5749SOL    HW222728   1.176   3.217   0.467 -0.2773  0.7590  0.0398
 5749SOL    HW322729   1.320   3.207   0.512 -0.4532  0.3637  0.5201
 5749SOL    MW422730   1.261   3.223   0.450 -0.0793 -0.0930 -0.1284
 5750SOL     OW22731   4.416   6.319   4.184 -0.0532  0.1860 -0.6284
 5750SOL    HW222732   4.341   6.296   4.239  1.2099  0.0358  1.1326
 5750SOL    HW322733   4.390   6.400   4.140 -1.1525  0.2829  0.1562
 5750SOL    MW422734   4.402   6.327   4.185 -0.3935  0.0487 -0.2934
 5751SOL     OW22735   4.577   1.847   0.233  0.3675 -0.3113 -0.6201
 5751SOL    HW222736   4.663   1.811   0.253  0.2717 -0.1201  0.1629
 5751SOL    HW322737   4.521   1.819   0.305  0.7287  2.9973  1.1435
 5751SOL    MW422738   4.581   1.839   0.245  0.4110 -0.4693 -0.8410
 5752SOL     OW22739   2.812   4.387   0.065  0.1739  0.0971 -0.2265
 5752SOL    HW222740   2.791   4.352   0.152 -0.3388  1.6507  0.3071
 5752SOL    HW322741   2.825   4.310   0.010  0.6318 -0.9165  1.2552
 5752SOL    MW422742   2.811   4.372   0.069 -0.3076  0.4058  0.3459
 5753SOL     OW22743   0.114   4.939   3.358 -0.0260 -0.0601  0.4828
 5753SOL    HW222744   0.087   4.989   3.281  0.1347  0.2353  0.6180
 5753SOL    HW322745   0.115   5.003   3.429  2.3699  0.2761  0.2308
 5753SOL    MW422746   0.110   4.954   3.357 -0.2032 -0.2928 -0.4422
 5754SOL     OW22747   3.552   3.385   2.804 -0.3050 -0.1108 -0.2747
 5754SOL    HW222748   3.485   3.412   2.867 -0.2609 -1.8827  0.5979
 5754SOL    HW322749   3.506   3.324   2.746  0.7607 -2.3061  1.0682
 5754SOL    MW422750   3.537   3.381   2.804  0.6077 -0.3185  0.2606
 5755SOL     OW22751   5.979   1.997   2.830 -0.1248 -0.1738  0.1866
 5755SOL    HW222752   6.024   2.065   2.880  1.5271 -0.8248 -0.3317
 5755SOL    HW322753   5.980   2.028   2.740 -0.7566 -0.1816  0.1743
 5755SOL    MW422754   5.985   2.010   2.825 -0.0102 -0.1545  0.3394
 5756SOL     OW22755   4.886   6.307   4.451 -0.2489  0.0830  0.6599
 5756SOL    HW222756   4.800   6.324   4.412 -0.1810 -0.7278  0.1458
 5756SOL    HW322757   4.941   6.281   4.378  0.6631  1.3782  0.8575
 5756SOL    MW422758   4.882   6.306   4.437 -0.3940 -0.5523 -0.8511
 5757SOL     OW22759   3.777   4.067   6.146  0.2706 -0.1454  0.3334
 5757SOL    HW222760   3.765   3.993   6.087  1.2087 -1.1394  1.3463
 5757SOL    HW322761   3.700   4.122   6.132 -1.0910 -1.9368  0.4551
 5757SOL    MW422762   3.766   4.065   6.137  0.0343  0.0702 -0.3097
 5758SOL     OW22763   1.943   5.712   2.637 -0.6292  0.1201  0.0338
 5758SOL    HW222764   1.952   5.762   2.556  2.3105 -0.1420  0.0992
 5758SOL    HW322765   2.001   5.637   2.626 -1.2237 -0.6605  1.8462
 5758SOL    MW422766   1.952   5.709   2.625  0.4609  0.2360  0.6110
 5759SOL     OW22767   4.460   1.103   1.728 -0.0987  0.2994  0.4789
 5759SOL    HW222768   4.432   1.066   1.645  0.6678 -1.5248  0.9913
 5759SOL    HW322769   4.479   1.195   1.708  0.9168 -0.2969 -1.5788
 5759SOL    MW422770   4.459   1.110   1.714 -0.2506  0.3685  0.2056
 5760SOL     OW22771   6.289   2.419   6.382 -0.5302 -0.3702 -0.0222
 5760SOL    HW222772   6.341   2.415   6.462 -0.4977 -1.7535 -0.0905
 5760SOL    HW322773   6.209   2.371   6.404 -0.2938 -1.2228 -0.9613
 5760SOL    MW422774   6.285   2.412   6.396  0.4940 -0.9138 -0.1786
 5761SOL     OW22775   1.249   3.593   1.637 -0.6070  0.1248  0.3395
 5761SOL    HW222776   1.217   3.589   1.727 -3.3926 -0.5951 -0.6096
 5761SOL    HW322777   1.242   3.504   1.604  1.2501  0.1878 -0.3878
 5761SOL    MW422778   1.244   3.581   1.645 -0.2992  0.8478  0.4961
 5762SOL     OW22779   5.264   5.296   1.026  0.4074 -0.3273  0.8017
 5762SOL    HW222780   5.306   5.210   1.029  0.5628 -0.3968 -1.6114
 5762SOL    HW322781   5.277   5.326   0.936 -2.6461  0.7047  0.6075
 5762SOL    MW422782   5.271   5.289   1.014 -0.0989 -0.7317  0.5651
 5763SOL     OW22783   3.888   4.057   0.662 -0.2245 -0.1650  0.4891
 5763SOL    HW222784   3.885   4.149   0.690  0.6211 -0.1033  0.4084
 5763SOL    HW322785   3.839   4.056   0.580  0.3968  0.3718  0.0967
 5763SOL    MW422786   3.881   4.069   0.655 -0.2475 -0.3137 -0.2342
 5764SOL     OW22787   2.153   4.345   5.471  0.6417 -0.1982  0.8777
 5764SOL    HW222788   2.117   4.271   5.422  1.2675  0.9037 -1.3758
 5764SOL    HW322789   2.188   4.306   5.551  2.3712 -2.6491 -0.9244
 5764SOL    MW422790   2.153   4.330   5.475 -0.7825  0.6382 -0.2596
 5765SOL     OW22791   3.223   0.615   0.138  0.5336 -0.4162 -0.1300
 5765SOL    HW222792   3.308   0.599   0.097  0.5062 -1.9079  0.3407
 5765SOL    HW322793   3.169   0.651   0.067  1.3778 -0.0033 -0.5830
 5765SOL    MW422794   3.227   0.617   0.123 -0.3127 -0.1446 -1.0561
 5766SOL     OW22795   6.015   6.311   6.171  1.0504  0.1746 -0.5679
 5766SOL    HW222796   6.004   6.277   6.082 -0.5468 -0.0324 -0.3391
 5766SOL    HW322797   5.926   6.333   6.198  1.5530  0.5201  0.8695
 5766SOL    MW422798   6.001   6.309   6.163 -0.3392 -0.1813  0.5323
 5767SOL     OW22799   1.878   6.205   4.127 -0.3386 -0.5195  0.2829
 5767SOL    HW222800   1.906   6.176   4.040  1.3393 -0.2336  0.6907
 5767SOL    HW322801   1.807   6.267   4.109 -0.0714 -0.5169 -0.8763
 5767SOL    MW422802   1.872   6.209   4.113  0.8831  0.6382  0.4840
 5768SOL     OW22803   3.946   4.383   4.953  0.4290 -0.1423  0.3323
 5768SOL    HW222804   3.969   4.376   4.860  0.0459  0.6406  0.1733
 5768SOL    HW322805   3.933   4.292   4.981  0.9623 -0.4155 -0.2701
 5768SOL    MW422806   3.947   4.370   4.944  0.3606  0.0576 -0.0654
 5769SOL     OW22807   6.021   0.276   0.879 -0.2063 -0.1179  0.3209
 5769SOL    HW222808   5.944   0.327   0.851  1.9817  1.1833 -4.2640
 5769SOL    HW322809   6.012   0.192   0.834  1.0630  0.0935 -0.3593
 5769SOL    MW422810   6.009   0.272   0.869 -0.2465  0.2115 -0.2476
 5770SOL     OW22811   3.258   6.160   3.951  0.1874 -0.0581 -0.1648
 5770SOL    HW222812   3.234   6.106   4.027  1.3526 -1.3257 -0.6586
 5770SOL    HW322813   3.249   6.101   3.876  1.0122  0.5776 -0.7764
 5770SOL    MW422814   3.253   6.145   3.951 -0.0253 -0.7386 -0.4160
 5771SOL     OW22815   0.109   5.730   0.128  0.7269  0.0755 -0.2532
 5771SOL    HW222816   0.090   5.637   0.136 -1.7383  0.6259  1.6245
 5771SOL    HW322817   0.163   5.750   0.205  2.5302 -0.0216 -1.4432
 5771SOL    MW422818   0.114   5.720   0.139 -0.0463  0.1880 -0.0488
 5772SOL     OW22819   2.889   0.868   5.493 -0.0493 -0.0758  0.3162
 5772SOL    HW222820   2.913   0.905   5.579  1.4684  0.6658 -0.3819
 5772SOL    HW322821   2.846   0.940   5.448 -0.3262 -0.2854  0.2476
 5772SOL    MW422822   2.887   0.882   5.499 -0.2075 -0.1105  0.0423
 5773SOL     OW22823   0.517   6.218   5.336  0.1210  0.1855  0.1777
 5773SOL    HW222824   0.508   6.296   5.391  0.2238 -0.2900  0.8816
 5773SOL    HW322825   0.611   6.208   5.323  0.1636 -0.2939  0.7951
 5773SOL    MW422826   0.528   6.227   5.342  0.1834 -0.2582 -0.0140
 5774SOL     OW22827   1.170   1.986   1.397  0.3009 -0.1453 -0.1174
 5774SOL    HW222828   1.128   1.905   1.427  0.8818  0.0182  1.2064
 5774SOL    HW322829   1.119   2.013   1.320 -0.2307 -1.4693 -0.2483
 5774SOL    MW422830   1.158   1.979   1.391  0.0740 -0.1578 -0.4974
 5775SOL     OW22831   5.030   5.632   4.447 -0.7239 -1.1759  0.1390
 5775SOL    HW222832   5.086   5.555   4.455 -1.0752 -1.5987 -1.2878
 5775SOL    HW322833   4.943   5.597   4.428 -0.9014 -0.4239 -0.4704
 5775SOL    MW422834   5.026   5.618   4.446 -0.3522  0.2010 -0.3604
 5776SOL     OW22835   1.309   5.546   0.199  0.7646  0.1593 -0.4736
 5776SOL    HW222836   1.278   5.501   0.278  1.2202  1.6014  0.5592
 5776SOL    HW322837   1.289   5.638   0.214  0.0497  0.3814 -2.4468
 5776SOL    MW422838   1.302   5.552   0.211 -0.2979 -0.0115  0.4575
 5777SOL     OW22839   0.420   3.655   6.302  0.1927  0.0128  0.2616
 5777SOL    HW222840   0.335   3.647   6.259  1.1502  3.4536 -2.6995
 5777SOL    HW322841   0.464   3.572   6.283 -1.4598 -0.7107 -0.6146
 5777SOL    MW422842   0.415   3.643   6.294 -0.1172  0.1980  0.9440
 5778SOL     OW22843   5.611   4.057   3.913 -0.1712 -0.2849 -0.4670
 5778SOL    HW222844   5.573   4.121   3.853  2.0579  1.2238 -0.3836
 5778SOL    HW322845   5.553   4.057   3.989 -1.2574  0.1876 -1.2728
 5778SOL    MW422846   5.598   4.065   3.915 -0.5650 -0.3321 -0.8179
 5779SOL     OW22847   3.572   2.355   3.568 -0.2083  0.1195 -0.1790
 5779SOL    HW222848   3.509   2.301   3.519  0.0615  1.4281 -2.0983
 5779SOL    HW322849   3.527   2.439   3.578  0.6518  0.5958 -0.2512
 5779SOL    MW422850   3.558   2.359   3.563  0.0173  0.1022  0.1314
 5780SOL     OW22851   4.490   0.606   4.888  0.1849  0.2493  0.2532
 5780SOL    HW222852   4.539   0.528   4.862  1.0133  0.5233  0.9633
 5780SOL    HW322853   4.398   0.579   4.880  0.4499 -0.9179  0.8289
 5780SOL    MW422854   4.484   0.592   4.883  0.2734  0.0574  0.6772
 5781SOL     OW22855   1.292   0.162   1.724 -0.1479 -0.5639 -0.2886
 5781SOL    HW222856   1.254   0.075   1.735 -0.7664 -0.3102 -0.3602
 5781SOL    HW322857   1.249   0.215   1.791  2.5501 -0.9979  1.9946
 5781SOL    MW422858   1.281   0.158   1.734 -0.0729  0.1815  0.4824
 5782SOL     OW22859   4.193   0.874   4.593 -0.2309 -0.7022 -0.1949
 5782SOL    HW222860   4.211   0.948   4.534 -0.1414 -0.0607  0.6159
 5782SOL    HW322861   4.240   0.896   4.674 -2.2724 -0.3517  0.9865
 5782SOL    MW422862   4.201   0.887   4.596  0.2224  0.0598 -0.2660
 5783SOL     OW22863   0.017   5.862   6.315  0.2687  0.4043 -0.1368
 5783SOL    HW222864   0.029   5.848   6.409  2.6397  2.5262  0.0004
 5783SOL    HW322865   0.092   5.817   6.275 -1.1926 -1.2306 -1.1530
 5783SOL    MW422866   0.029   5.854   6.322 -0.4488 -0.0789 -0.1364
 5784SOL     OW22867   0.790   1.431   4.336 -0.2914 -0.2418  0.2339
 5784SOL    HW222868   0.705   1.471   4.319  0.4855  0.7285 -1.7713
 5784SOL    HW322869   0.849   1.505   4.348  0.7176 -0.7929 -1.0655
 5784SOL    MW422870   0.786   1.446   4.335  0.5781 -0.0345  0.0179
 5785SOL     OW22871   3.944   0.200   4.168  0.1179 -0.4647 -0.0535
 5785SOL    HW222872   3.875   0.189   4.234  0.6742 -0.1306  0.5935
 5785SOL    HW322873   3.973   0.111   4.148 -0.9546 -0.6628 -0.8350
 5785SOL    MW422874   3.938   0.187   4.174  0.1441  0.0418  0.2002
 5786SOL     OW22875   4.311   3.361   0.099  0.0949  0.1477  0.4940
 5786SOL    HW222876   4.394   3.402   0.073  0.1186 -0.4322 -0.4047
 5786SOL    HW322877   4.293   3.298   0.029  0.2259 -1.6148  1.9717
 5786SOL    MW422878   4.319   3.358   0.086  0.3398 -0.9869  0.2408
 5787SOL     OW22879   3.934   2.401   2.556  0.4166 -0.0820 -0.4697
 5787SOL    HW222880   3.875   2.404   2.632 -1.8288  1.8617 -2.1235
 5787SOL    HW322881   3.914   2.318   2.513 -0.3845  0.0837 -0.4320
 5787SOL    MW422882   3.924   2.390   2.560 -1.4130 -0.1283  0.8152
 5788SOL     OW22883   3.539   3.770   0.237 -0.3567 -0.6787  0.2634
 5788SOL    HW222884   3.506   3.791   0.324 -3.0883  0.1701 -0.8576
 5788SOL    HW322885   3.523   3.676   0.227  1.1605 -1.0442  1.1110
 5788SOL    MW422886   3.532   3.761   0.247  0.8850  0.3811  0.3501
 5789SOL     OW22887   5.561   2.208   1.113  0.8291  0.0185  0.1999
 5789SOL    HW222888   5.633   2.245   1.163  0.2462 -0.3092  1.3204
 5789SOL    HW322889   5.488   2.203   1.175  0.1002 -0.4758 -0.6613
 5789SOL    MW422890   5.561   2.212   1.128 -0.0668  0.5420  0.0098
 5790SOL     OW22891   5.394   0.121   0.689  0.3725 -0.4309  0.5048
 5790SOL    HW222892   5.311   0.163   0.665  0.8566  0.9233  1.1612
 5790SOL    HW322893   5.395   0.123   0.784  0.7432 -1.3019  0.5310
 5790SOL    MW422894   5.383   0.127   0.698 -0.1284  0.3473 -0.1538
 5791SOL     OW22895   1.580   2.125   4.167 -0.8653 -0.4362  0.0153
 5791SOL    HW222896   1.649   2.112   4.232 -1.2320 -0.0965  0.4726
 5791SOL    HW322897   1.617   2.189   4.106 -0.4156 -0.9601 -0.2752
 5791SOL    MW422898   1.594   2.132   4.167  0.4232 -0.6133 -0.3980
 5792SOL     OW22899   5.104   4.981   0.527 -0.0415 -0.5097 -0.0001
 5792SOL    HW222900   5.124   5.038   0.453  0.3156 -0.5603  0.0555
 5792SOL    HW322901   5.161   5.013   0.598 -0.1085 -0.6987  0.1405
 5792SOL    MW422902   5.114   4.993   0.527 -0.3854 -0.3519 -0.6198
 5793SOL     OW22903   2.124   4.964   5.743  0.4481 -0.1573 -0.3713
 5793SOL    HW222904   2.158   5.004   5.822  1.5074  0.8580 -1.3093
 5793SOL    HW322905   2.150   4.872   5.749 -0.5104 -0.3606  0.9860
 5793SOL    MW422906   2.132   4.957   5.754  0.1891 -0.0412 -0.0205
 5794SOL     OW22907   0.764   2.242   0.005  0.2840  0.0532  0.6995
 5794SOL    HW222908   0.853   2.267  -0.020  1.0132 -1.5489  1.5364
 5794SOL    HW322909   0.715   2.242  -0.077  0.6889  2.2478  0.4115
 5794SOL    MW422910   0.769   2.245  -0.009  0.3102 -0.1240 -0.2722
 5795SOL     OW22911   4.249   1.641   5.861  0.1297 -0.0533 -0.4341
 5795SOL    HW222912   4.278   1.712   5.918  1.2148 -0.3065 -0.6449
 5795SOL    HW322913   4.220   1.684   5.780  0.1751  0.1847 -0.3230
 5795SOL    MW422914   4.249   1.656   5.858  0.0733  0.4268 -0.1764
 5796SOL     OW22915   2.455   5.819   2.451 -0.2245 -0.1152 -0.2002
 5796SOL    HW222916   2.471   5.745   2.393  2.6179  0.2568 -0.0605
 5796SOL    HW322917   2.498   5.795   2.533  0.1451  1.3906  0.0757
 5796SOL    MW422918   2.463   5.806   2.454 -0.1679  0.0372 -0.4652
 5797SOL     OW22919   5.078   5.155   0.299  0.2749  0.2789  0.3172
 5797SOL    HW222920   5.131   5.205   0.237 -1.2637  0.4720 -0.8810
 5797SOL    HW322921   5.025   5.220   0.344  0.7897  0.0519  1.2928
 5797SOL    MW422922   5.078   5.170   0.297  0.1280  0.1623 -0.3223
 5798SOL     OW22923   0.053   4.074   2.850  0.2245 -0.2093  0.7486
 5798SOL    HW222924   0.025   4.163   2.869  1.6052  0.6059 -0.7585
 5798SOL    HW322925   0.139   4.066   2.890  1.2821  0.0985 -1.3017
 5798SOL    MW422926   0.061   4.084   2.857 -0.0224 -0.2279  0.2310
 5799SOL     OW22927   4.236   2.296   4.579 -0.1357  0.3122 -0.3028
 5799SOL    HW222928   4.144   2.323   4.589  0.1285  0.9933  0.4631
 5799SOL    HW322929   4.233   2.202   4.566 -0.9750  0.3994 -0.8085
 5799SOL    MW422930   4.223   2.287   4.578  0.2478 -0.3340  0.3820
 5800SOL     OW22931   2.080   5.450   3.188 -0.4772 -0.0759  0.0118
 5800SOL    HW222932   2.018   5.515   3.221 -0.5543 -0.0115 -0.2498
 5800SOL    HW322933   2.115   5.490   3.108  0.4072  0.1881  0.5099
 5800SOL    MW422934   2.077   5.464   3.182 -0.4788 -0.0476 -0.2376
 5801SOL     OW22935   1.871   2.552   5.218 -0.0933  0.1467  0.1898
 5801SOL    HW222936   1.900   2.605   5.292  1.2656 -0.5688  0.2194
 5801SOL    HW322937   1.791   2.510   5.248 -0.7624  1.5643  0.4382
 5801SOL    MW422938   1.865   2.553   5.232  0.5439  0.4807 -0.2500
 5802SOL     OW22939   3.820   3.720   4.387 -0.2426 -0.1408  0.1195
 5802SOL    HW222940   3.804   3.627   4.401 -0.1660 -0.2049 -0.2128
 5802SOL    HW322941   3.866   3.724   4.303 -2.1997  0.3657 -0.9795
 5802SOL    MW422942   3.824   3.709   4.378  0.4798  0.4906  0.4468
 5803SOL     OW22943   0.961   2.165   1.918  0.1776 -0.6548 -0.0616
 5803SOL    HW222944   0.943   2.200   2.005  1.9770 -0.5391  0.2842
 5803SOL    HW322945   1.003   2.080   1.934  1.1342 -0.3337 -0.7932
 5803SOL    MW422946   0.964   2.158   1.932  0.5136  0.5423 -0.1594
 5804SOL     OW22947   0.224   5.899   3.534  0.1552 -0.6097 -0.2431
 5804SOL    HW222948   0.259   5.982   3.566  1.2830 -1.0558 -0.2825
 5804SOL    HW322949   0.211   5.846   3.613 -0.6912 -0.3679 -0.2048
 5804SOL    MW422950   0.227   5.903   3.549  0.1774  0.1948  0.0990
 5805SOL     OW22951   3.791   5.296   3.185 -0.2397  0.5565  0.3374
 5805SOL    HW222952   3.797   5.275   3.092  0.9031  1.3442  0.2061
 5805SOL    HW322953   3.773   5.390   3.188  1.8454  0.9900  0.8779
 5805SOL    MW422954   3.790   5.306   3.173  1.0092  0.1452 -0.3340
 5806SOL     OW22955   6.247   6.397   2.214 -0.3365  0.2198 -0.4493
 5806SOL    HW222956   6.283   6.476   2.173  0.7623  0.7433  1.4239
 5806SOL    HW322957   6.262   6.328   2.150  2.1915  0.8181 -0.6128
 5806SOL    MW422958   6.254   6.399   2.200 -0.0611 -0.0581  0.1326
 5807SOL     OW22959   4.029   1.976   1.565  0.1532  0.1615 -0.0587
 5807SOL    HW222960   4.056   2.058   1.605  1.1001 -1.4201  2.8641
 5807SOL    HW322961   3.992   1.925   1.638  0.1246 -2.2215 -1.6248
 5807SOL    MW422962   4.027   1.980   1.580 -0.3913  0.0004 -0.5779
 5808SOL     OW22963   5.396   0.193   6.202 -0.0699  0.1429 -0.0737
 5808SOL    HW222964   5.331   0.125   6.185 -0.9435  1.0300 -0.3496
 5808SOL    HW322965   5.352   0.275   6.180  1.2891  0.7371 -0.7076
 5808SOL    MW422966   5.382   0.195   6.197 -0.0956  0.5125  0.6747
 5809SOL     OW22967   1.107   5.610   3.958  0.5372 -0.2720  0.0073
 5809SOL    HW222968   1.189   5.624   3.911  0.9305  0.9327  1.0208
 5809SOL    HW322969   1.043   5.593   3.888  0.9864  2.0453 -1.0761
 5809SOL    MW422970   1.109   5.610   3.942  0.3010 -0.1264  0.9321
 5810SOL     OW22971   4.821   2.146   2.916 -0.1999 -0.4972 -0.9967
 5810SOL    HW222972   4.893   2.084   2.927 -0.7887 -0.8415  1.5930
 5810SOL    HW322973   4.858   2.230   2.945 -0.3775 -0.3206 -1.2736
 5810SOL    MW422974   4.836   2.149   2.921 -0.9467 -0.6339  0.5239
 5811SOL     OW22975   4.622   2.070   0.421  0.1567  0.2571 -0.6766
 5811SOL    HW222976   4.674   2.140   0.382  0.1001  0.0801 -1.0708
 5811SOL    HW322977   4.634   1.995   0.362  1.3253 -0.4859  0.4514
 5811SOL    MW422978   4.630   2.069   0.408  0.4401  0.5174 -0.0691
 5812SOL     OW22979   5.703   3.674   2.763 -0.0048 -0.4259 -0.0079
 5812SOL    HW222980   5.690   3.597   2.707  1.5353 -0.7115 -0.0289
 5812SOL    HW322981   5.797   3.694   2.754 -0.3834  1.4992 -0.0535
 5812SOL    MW422982   5.714   3.666   2.754  0.0040 -0.7512  0.0974
 5813SOL     OW22983   0.821   4.531   4.630 -0.0143 -0.2377  0.3759
 5813SOL    HW222984   0.863   4.481   4.561 -0.2361  0.9164 -0.6284
 5813SOL    HW322985   0.853   4.621   4.618 -2.1938  0.5538  0.0031
 5813SOL    MW422986   0.831   4.536   4.620  0.3478 -0.7006  0.3248
 5814SOL     OW22987   5.090   3.500   2.563  0.0607 -0.1069  0.5511
 5814SOL    HW222988   5.070   3.453   2.482  0.6592 -0.0835  0.3859
 5814SOL    HW322989   5.034   3.459   2.629  0.4602 -0.9587  0.3800
 5814SOL    MW422990   5.080   3.488   2.561 -0.2912 -0.2748 -0.4159
 5815SOL     OW22991   1.340   0.497   4.669 -0.2113  0.5181  0.7834
 5815SOL    HW222992   1.310   0.483   4.759 -0.0971 -0.7384  0.6425
 5815SOL    HW322993   1.414   0.437   4.658 -1.1625 -0.4905 -0.5982
 5815SOL    MW422994   1.346   0.487   4.679 -0.0884  0.2011  0.0512
 5816SOL     OW22995   5.815   6.172   3.294 -0.4267  0.1010 -0.6082
 5816SOL    HW222996   5.862   6.114   3.234 -0.1719  0.3826 -0.6833
 5816SOL    HW322997   5.786   6.114   3.365  0.6719  0.0352 -0.1916
 5816SOL    MW422998   5.818   6.157   3.296  0.0643 -0.0518  0.7727
 5817SOL     OW22999   4.346   4.954   5.796  0.2611 -0.0686  0.7458
 5817SOL    HW223000   4.267   4.906   5.770 -0.1372  1.0611 -0.2104
 5817SOL    HW323001   4.323   5.046   5.787  2.4250  0.3324 -2.0216
 5817SOL    MW423002   4.333   4.959   5.792 -0.0166 -0.1297 -0.6853
 5818SOL     OW23003   1.586   6.356   3.333  0.1782  0.1428  0.3069
 5818SOL    HW223004   1.564   6.442   3.369 -0.2785 -0.3153  1.1634
 5818SOL    HW323005   1.680   6.346   3.350  0.2524  0.5072  0.1194
 5818SOL    MW423006   1.595   6.366   3.340 -0.0433  0.2079 -0.3971
 5819SOL     OW23007   1.930   1.006   4.547 -0.1684  0.1836 -0.1661
 5819SOL    HW223008   1.873   1.082   4.560 -0.8662 -0.1760 -1.0192
 5819SOL    HW323009   1.876   0.944   4.500  1.3066  0.3046 -2.1417
 5819SOL    MW423010   1.916   1.008   4.543  0.3053  0.2628  0.2316
 5820SOL     OW23011   3.847   5.273   0.677 -0.2643  0.1055 -0.1000
 5820SOL    HW223012   3.790   5.199   0.657 -0.5852  1.0657 -3.4044
 5820SOL    HW323013   3.919   5.235   0.728 -1.5122 -2.0145  0.1843
 5820SOL    MW423014   3.849   5.258   0.681  0.8543  0.0895 -0.3139
 5821SOL     OW23015   4.414   4.036   2.695 -0.2096  0.0005  0.2410
 5821SOL    HW223016   4.363   4.089   2.635  1.4842 -0.0113 -1.3070
 5821SOL    HW323017   4.393   3.946   2.672 -0.2862 -0.0057  0.3340
 5821SOL    MW423018   4.405   4.031   2.684  0.6960 -0.0988 -0.8435
 5822SOL     OW23019   6.142   3.279   6.007  0.0585  0.1737 -0.0638
 5822SOL    HW223020   6.113   3.285   6.098 -2.0667 -0.3626 -0.6510
 5822SOL    HW323021   6.091   3.208   5.970  0.6080  0.6280 -1.7938
 5822SOL    MW423022   6.132   3.271   6.014 -0.2730 -0.1902  0.2351
 5823SOL     OW23023   5.564   1.656   2.220 -0.9491 -0.2160 -0.0924
 5823SOL    HW223024   5.494   1.706   2.178 -2.1123 -1.3365  0.4321
 5823SOL    HW323025   5.645   1.693   2.185 -1.7896  1.2895 -0.5191
 5823SOL    MW423026   5.566   1.667   2.210 -0.1723 -0.4472 -0.0844
 5824SOL     OW23027   2.580   1.729   4.038  0.3823  0.4744  0.0463
 5824SOL    HW223028   2.612   1.813   4.073 -0.4256  1.7235 -2.0455
 5824SOL    HW323029   2.630   1.717   3.957  0.9541 -1.4561  0.6249
 5824SOL    MW423030   2.591   1.739   4.032  0.2860 -0.5139 -0.4537
 5825SOL     OW23031   2.847   3.979   5.465  0.3691  0.4220 -0.4206
 5825SOL    HW223032   2.897   3.901   5.488  0.4781  0.1882 -1.4002
 5825SOL    HW323033   2.801   4.003   5.545 -0.0482 -0.9380 -0.2335
 5825SOL    MW423034   2.847   3.972   5.478 -0.3470  0.1268 -0.1757
 5826SOL     OW23035   1.112   4.164   1.855  0.0574 -0.2202 -0.3040
 5826SOL    HW223036   1.161   4.197   1.780 -0.3205  1.0726 -0.0107
 5826SOL    HW323037   1.136   4.223   1.927 -2.2216  0.7361 -0.2563
 5826SOL    MW423038   1.122   4.176   1.854  0.6231 -0.6670  0.5548
 5827SOL     OW23039   1.716   0.982   0.783  0.0784  0.3472 -0.0522
 5827SOL    HW223040   1.701   0.895   0.746 -1.4991  1.1497 -1.4710
 5827SOL    HW323041   1.801   1.010   0.748  0.4495 -0.4860  0.1734
 5827SOL    MW423042   1.725   0.974   0.773 -0.1140  0.2655  0.4932
 5828SOL     OW23043   6.408   0.702   0.900  0.5962 -0.0935 -0.2270
 5828SOL    HW223044   6.360   0.620   0.903 -0.5506  0.5239 -1.0323
 5828SOL    HW323045   6.462   0.696   0.821  1.1663 -0.4075  0.1777
 5828SOL    MW423046   6.409   0.691   0.890  0.3925  0.3062  0.2484
 5829SOL     OW23047   4.730   4.078   0.376  0.1958  0.0706 -0.5244
 5829SOL    HW223048   4.689   4.158   0.408  1.3999  0.6050 -0.2375
 5829SOL    HW323049   4.820   4.083   0.410  0.3184 -1.3500 -0.5925
 5829SOL    MW423050   4.737   4.089   0.385 -0.1820  0.1737 -0.0860
 5830SOL     OW23051   3.878   1.342   6.231 -0.0663 -0.0963  0.4532
 5830SOL    HW223052   3.948   1.352   6.296  1.9823 -0.0306 -1.6218
 5830SOL    HW323053   3.830   1.265   6.260  2.4228 -1.6772  0.6817
 5830SOL    MW423054   3.881   1.333   6.244 -0.2648 -0.0460 -0.1567
 5831SOL     OW23055   1.243   6.400   1.225 -0.0595 -0.1640 -0.2674
 5831SOL    HW223056   1.328   6.410   1.182 -0.2098 -1.8891 -1.0594
 5831SOL    HW323057   1.209   6.489   1.232  1.4164  0.4703 -0.7557
 5831SOL    MW423058   1.250   6.413   1.220 -0.5044 -0.1613  0.3774
 5832SOL     OW23059   5.871   0.938   2.216 -0.4004  0.7155  0.0818
 5832SOL    HW223060   5.807   0.900   2.275  0.0030 -0.4365 -0.2051
 5832SOL    HW323061   5.840   0.915   2.128  1.2685 -1.3857 -0.0360
 5832SOL    MW423062   5.859   0.930   2.212  0.4751  0.9056  0.1147
 5833SOL     OW23063   3.524   3.851   3.108 -0.5761  0.4725 -0.3147
 5833SOL    HW223064   3.531   3.899   3.191  0.7196 -0.5583  0.2051
 5833SOL    HW323065   3.538   3.917   3.040 -2.6246  1.5285  0.2046
 5833SOL    MW423066   3.527   3.866   3.110  0.9692  0.1129 -0.0972
 5834SOL     OW23067   4.168   5.358   2.009 -0.1694 -0.0159  0.3850
 5834SOL    HW223068   4.175   5.269   1.976 -0.2343  0.2080 -0.2337
 5834SOL    HW323069   4.076   5.382   1.997 -0.2062  0.0498  0.7754
 5834SOL    MW423070   4.157   5.349   2.003  0.2334 -0.2211 -0.0500
 5835SOL     OW23071   0.165   0.441   6.377 -0.7996 -0.0414  0.1899
 5835SOL    HW223072   0.253   0.477   6.391 -0.5064 -0.8822  0.6331
 5835SOL    HW323073   0.155   0.438   6.282  0.0884 -0.8998  0.1015
 5835SOL    MW423074   0.176   0.445   6.366 -0.0532  0.1462  0.0202
 5836SOL     OW23075   4.226   2.985   5.401  0.1373 -0.8662  0.0591
 5836SOL    HW223076   4.169   3.003   5.327  1.0659 -0.6664 -0.6352
 5836SOL    HW323077   4.173   3.005   5.478  0.1092  2.0694 -0.5707
 5836SOL    MW423078   4.212   2.990   5.401 -0.1721  0.3480  0.0860
 5837SOL     OW23079   2.298   1.765   4.402 -0.3369  0.0182 -0.1530
 5837SOL    HW223080   2.246   1.837   4.368 -0.2199  0.2440  0.1407
 5837SOL    HW323081   2.388   1.784   4.375 -0.7852 -2.2332 -3.9189
 5837SOL    MW423082   2.303   1.777   4.394  0.0577 -0.2690  0.0509
 5838SOL     OW23083   1.939   4.694   4.184  0.1681  0.0230  0.2882
 5838SOL    HW223084   1.924   4.744   4.104 -0.1242  1.1075  1.0022
 5838SOL    HW323085   1.870   4.627   4.184  0.2009 -0.0085 -0.3832
 5838SOL    MW423086   1.928   4.691   4.174 -0.0726 -0.6392 -0.7133
 5839SOL     OW23087   1.890   4.829   6.094 -0.1687  0.1974 -0.1045
 5839SOL    HW223088   1.863   4.907   6.045  0.8712  1.0196  0.5881
 5839SOL    HW323089   1.970   4.856   6.139 -0.2562 -1.0256  0.8186
 5839SOL    MW423090   1.897   4.843   6.093 -0.0778  0.1386  0.5130
 5840SOL     OW23091   1.728   3.636   0.640  0.0158 -0.0829 -0.3705
 5840SOL    HW223092   1.729   3.629   0.736  0.4034  2.5392 -0.1043
 5840SOL    HW323093   1.641   3.672   0.620  0.5507  1.0095 -0.8124
 5840SOL    MW423094   1.717   3.640   0.650 -0.1582 -0.0386 -0.5308
 5841SOL     OW23095   5.265   1.293   2.177 -0.7379  0.1132 -0.4073
 5841SOL    HW223096   5.220   1.352   2.237  0.5884 -0.3615  1.1148
 5841SOL    HW323097   5.345   1.267   2.223 -1.2304 -2.8610 -1.0096
 5841SOL    MW423098   5.270   1.298   2.191  0.0981  0.1565 -0.3387
 5842SOL     OW23099   4.875   0.620   0.887  0.0866  0.3010 -0.8158
 5842SOL    HW223100   4.818   0.674   0.941 -1.0387 -0.8119 -0.8378
 5842SOL    HW323101   4.859   0.650   0.797 -1.2381 -0.6361 -0.9257
 5842SOL    MW423102   4.865   0.631   0.882 -0.4530  0.5933  0.7935
 5843SOL     OW23103   3.489   5.441   3.357  0.4997 -0.8559 -0.2947
 5843SOL    HW223104   3.535   5.382   3.416 -1.4161 -0.4348  1.7387
 5843SOL    HW323105   3.452   5.384   3.290  2.9487 -1.3119 -1.3580
 5843SOL    MW423106   3.490   5.426   3.356  0.4681 -0.1162  0.3744
 5844SOL     OW23107   6.356   5.437   1.065 -0.0949 -0.7169 -0.2855
 5844SOL    HW223108   6.296   5.378   1.019  0.4022 -1.1304 -0.4170
 5844SOL    HW323109   6.335   5.524   1.031 -0.2836 -0.9187 -0.6967
 5844SOL    MW423110   6.345   5.441   1.054  0.4841  0.5741 -0.1833
 5845SOL     OW23111   5.273   1.275   4.078 -0.1872  0.1360  0.7038
 5845SOL    HW223112   5.343   1.285   4.014 -0.7202  1.7777  0.3234
 5845SOL    HW323113   5.275   1.182   4.101  0.5109 -0.3604 -1.1360
 5845SOL    MW423114   5.282   1.264   4.072 -0.1599  0.7122 -0.3625
 5846SOL     OW23115   5.390   5.375   6.259  0.4507 -0.6057 -0.4255
 5846SOL    HW223116   5.307   5.359   6.214  0.8500 -0.4646 -1.2385
 5846SOL    HW323117   5.373   5.449   6.316  0.0702 -0.4330 -0.7563
 5846SOL    MW423118   5.377   5.382   6.260  0.9235  0.6538  0.1604
 5847SOL     OW23119   3.798   5.659   3.547 -0.4961 -0.2728  0.2577
 5847SOL    HW223120   3.719   5.685   3.499 -1.5348 -3.6457 -0.1246
 5847SOL    HW323121   3.865   5.649   3.479 -0.4131  0.2091  0.2641
 5847SOL    MW423122   3.796   5.661   3.532  0.4961  0.0828  0.3501
 5848SOL     OW23123   1.724   5.034   5.986  0.3694  0.0146 -0.2512
 5848SOL    HW223124   1.674   5.058   5.907 -0.4523 -0.4300  0.1208
 5848SOL    HW323125   1.755   5.117   6.021  0.4039  0.2492 -0.8304
 5848SOL    MW423126   1.721   5.048   5.980  0.0599 -0.1496 -0.2600
 5849SOL     OW23127   5.708   5.343   3.559 -0.7901  0.1088 -0.2077
 5849SOL    HW223128   5.796   5.376   3.542 -0.2464  0.1379  2.3062
 5849SOL    HW323129   5.664   5.414   3.606 -1.5305 -0.6196  0.2262
 5849SOL    MW423130   5.714   5.357   3.563 -0.6858 -0.0589 -0.1424
 5850SOL     OW23131   2.247   5.786   6.124  0.2652  0.3997 -0.5198
 5850SOL    HW223132   2.183   5.849   6.157  1.0531  2.0276 -1.9622
 5850SOL    HW323133   2.299   5.762   6.201 -2.2694 -1.3346  0.7928
 5850SOL    MW423134   2.246   5.791   6.139  0.1743 -0.1117  0.7658
 5851SOL     OW23135   4.929   1.223   0.239  0.0150 -0.1071 -0.3367
 5851SOL    HW223136   4.856   1.192   0.185 -0.9756  0.2381  0.7541
 5851SOL    HW323137   4.999   1.160   0.224 -0.7188 -0.7932 -0.9440
 5851SOL    MW423138   4.928   1.211   0.230 -0.2507  0.6114  0.1354
 5852SOL     OW23139   6.405   5.492   5.516  0.7646 -0.0323 -0.2499
 5852SOL    HW223140   6.468   5.430   5.553  0.5007 -0.5177 -0.5971
 5852SOL    HW323141   6.451   5.575   5.514  0.9961 -0.1367  0.5752
 5852SOL    MW423142   6.419   5.494   5.520 -0.7442  0.0311  0.4909
 5853SOL     OW23143   4.346   3.319   2.062 -0.1200 -0.5964 -0.5754
 5853SOL    HW223144   4.378   3.316   1.972 -0.7919 -0.0258 -0.8486
 5853SOL    HW323145   4.263   3.368   2.056  0.4686  0.6167  0.5374
 5853SOL    MW423146   4.339   3.325   2.049 -0.0565  0.1682 -0.4593
 5854SOL     OW23147   3.567   4.136   4.838  0.3724 -0.2664 -0.2653
 5854SOL    HW223148   3.599   4.227   4.838  0.5790 -0.3360  0.1495
 5854SOL    HW323149   3.523   4.126   4.754 -0.5679  0.5394  0.1108
 5854SOL    MW423150   3.566   4.147   4.827 -0.0144 -0.0477  0.0082
 5855SOL     OW23151   2.889   0.169   5.206  0.6300 -0.4513 -0.2333
 5855SOL    HW223152   2.915   0.196   5.118 -0.3989 -1.9426 -1.0327
 5855SOL    HW323153   2.890   0.073   5.202  0.0677 -0.5333  1.2354
 5855SOL    MW423154   2.893   0.160   5.194  0.3180 -0.6597  0.0949
 5856SOL     OW23155   1.897   2.898   3.816 -0.4403  0.0767 -0.3934
 5856SOL    HW223156   1.967   2.861   3.762 -1.0628 -2.0614  0.1838
 5856SOL    HW323157   1.935   2.978   3.851  1.2766 -0.3706 -1.0747
 5856SOL    MW423158   1.911   2.904   3.813  0.3038 -0.2242 -0.1452
 5857SOL     OW23159   2.660   3.239   3.260  0.1142 -0.3362  0.2715
 5857SOL    HW223160   2.648   3.164   3.202  0.7677 -1.2141  1.2317
 5857SOL    HW323161   2.655   3.202   3.349  0.8891  0.6835  0.7594
 5857SOL    MW423162   2.658   3.224   3.264  0.4020 -0.6106 -0.4950
 5858SOL     OW23163   4.007   6.016   0.420  0.2073 -0.7067  0.3089
 5858SOL    HW223164   4.097   6.037   0.445  0.5823 -1.7970 -0.0484
 5858SOL    HW323165   4.015   5.934   0.370 -0.9831 -0.8250  0.2877
 5858SOL    MW423166   4.020   6.008   0.417 -0.3052  0.1636 -0.1903
 5859SOL     OW23167   4.869   3.777   2.106  0.0230 -0.0264 -0.8426
 5859SOL    HW223168   4.964   3.785   2.116 -0.2417  1.7865  0.4637
 5859SOL    HW323169   4.842   3.717   2.175 -0.0427  1.2983  0.3115
 5859SOL    MW423170   4.878   3.770   2.116  0.3792  0.0539  0.9682
 5860SOL     OW23171   3.994   4.875   4.986 -0.2012 -0.5132 -0.1438
 5860SOL    HW223172   3.979   4.807   4.920 -1.0664  0.3565 -0.8800
 5860SOL    HW323173   4.080   4.853   5.023 -0.3887 -1.9067 -0.4613
 5860SOL    MW423174   4.003   4.863   4.982  0.0532 -0.3396  0.0420
 5861SOL     OW23175   1.739   4.182   3.297 -0.2438 -0.7098  0.7534
 5861SOL    HW223176   1.788   4.100   3.310  0.5725  0.1439  4.3777
 5861SOL    HW323177   1.647   4.156   3.302 -0.0107 -1.5187  1.0654
 5861SOL    MW423178   1.733   4.168   3.300  0.6254 -0.0806  0.4072
 5862SOL     OW23179   2.475   0.062   2.594  0.4504 -0.2778  0.1402
 5862SOL    HW223180   2.442  -0.010   2.647 -0.5912 -0.0788 -0.1931
 5862SOL    HW323181   2.417   0.136   2.617 -0.2720 -0.2904 -1.5174
 5862SOL    MW423182   2.463   0.062   2.604  0.5337 -0.2502  0.3961
 5863SOL     OW23183   2.324   0.850   3.213  0.1491 -0.1758  0.3572
 5863SOL    HW223184   2.252   0.900   3.174 -1.3105 -0.4366  2.5336
 5863SOL    HW323185   2.390   0.845   3.144 -1.4240  1.0893 -1.3388
 5863SOL    MW423186   2.323   0.856   3.199  0.2082  0.1639 -0.6843
 5864SOL     OW23187   3.882   5.409   0.404  0.0907 -0.3542  0.3236
 5864SOL    HW223188   3.912   5.360   0.480  2.2410 -0.6440 -0.6384
 5864SOL    HW323189   3.962   5.441   0.363 -0.9737 -0.4180 -1.9612
 5864SOL    MW423190   3.897   5.407   0.409  0.6904 -0.2858 -0.2940
 5865SOL     OW23191   2.454   0.956   0.399  0.3934  0.0655 -0.1309
 5865SOL    HW223192   2.383   0.969   0.462  0.7514  1.2341  0.0650
 5865SOL    HW323193   2.534   0.968   0.451  0.8228 -2.5035 -0.0564
 5865SOL    MW423194   2.455   0.959   0.414  0.2926  0.6356 -0.1164
 5866SOL     OW23195   6.244   2.520   0.440 -0.4397  0.0561 -0.0205
 5866SOL    HW223196   6.228   2.428   0.460  1.4370 -0.1867  0.5808
 5866SOL    HW323197   6.310   2.547   0.503  0.0396  1.4320 -1.0652
 5866SOL    MW423198   6.251   2.511   0.451  0.6578 -0.0312 -0.0964
 5867SOL     OW23199   1.788   3.894   2.273  0.0664  0.2794  0.9699
 5867SOL    HW223200   1.815   3.969   2.327 -0.3455  1.9422 -0.9830
 5867SOL    HW323201   1.692   3.899   2.272  0.0708  0.2996  0.0952
 5867SOL    MW423202   1.779   3.905   2.280 -0.2768  0.0727 -0.0175
 5868SOL     OW23203   6.349   5.711   5.994 -0.2358 -0.4644  0.3647
 5868SOL    HW223204   6.419   5.712   5.929  1.0293 -2.9118  1.5464
 5868SOL    HW323205   6.287   5.777   5.964  1.4781  0.2139 -1.9549
 5868SOL    MW423206   6.350   5.720   5.982 -0.3307  0.4623 -0.3688
 5869SOL     OW23207   2.873   0.868   3.887 -0.7515  0.3431 -0.2893
 5869SOL    HW223208   2.966   0.885   3.904 -0.6755 -1.4653  1.5168
 5869SOL    HW323209   2.869   0.774   3.868 -2.0929  0.5936 -1.3728
 5869SOL    MW423210   2.885   0.858   3.887  0.0711  0.0124 -1.3375
 5870SOL     OW23211   1.869   1.113   2.325 -0.0907  0.4961  0.0964
 5870SOL    HW223212   1.881   1.085   2.235  0.1944 -1.4242  0.6792
 5870SOL    HW323213   1.780   1.085   2.347  0.0610  0.3909  0.5964
 5870SOL    MW423214   1.859   1.106   2.316  0.2060 -0.3004 -0.2255
 5871SOL     OW23215   3.249   5.605   3.448  0.4300  0.3843  0.5643
 5871SOL    HW223216   3.330   5.554   3.450  0.2648 -0.0515 -1.8783
 5871SOL    HW323217   3.180   5.541   3.435  0.1411  1.0617 -1.7232
 5871SOL    MW423218   3.250   5.590   3.447  0.6437  0.6309  0.3101
 5872SOL     OW23219   1.539   4.059   1.958 -0.3496 -0.4357 -0.1195
 5872SOL    HW223220   1.621   4.052   2.006  0.6266 -2.7309 -1.9387
 5872SOL    HW323221   1.565   4.084   1.870 -1.4628 -1.9873 -0.9360
 5872SOL    MW423222   1.553   4.061   1.953 -0.3834 -0.2988 -0.3257
 5873SOL     OW23223   3.307   5.870   3.341 -0.3476  0.0486  0.0338
 5873SOL    HW223224   3.275   5.798   3.394 -2.8712  1.3427  0.3902
 5873SOL    HW323225   3.284   5.847   3.251 -2.5420  1.0179  0.2979
 5873SOL    MW423226   3.300   5.858   3.336 -0.1701  0.5329  0.1349
 5874SOL     OW23227   5.983   0.887   1.719  0.3888 -0.1415 -0.0943
 5874SOL    HW223228   6.063   0.938   1.708  0.1766  0.7554  2.1664
 5874SOL    HW323229   5.993   0.815   1.655  1.2749  1.9187 -2.4467
 5874SOL    MW423230   5.995   0.884   1.709  0.3809  0.3074  0.1495
 5875SOL     OW23231   2.870   0.594   4.114  0.0716 -0.3349  0.0299
 5875SOL    HW223232   2.921   0.637   4.045 -0.3861 -0.8259 -0.6326
 5875SOL    HW323233   2.779   0.601   4.084  0.1042 -4.0627 -1.5255
 5875SOL    MW423234   2.865   0.601   4.101  0.2071  0.3358 -0.1548
 5876SOL     OW23235   1.775   5.407   3.510  0.2735 -0.2449  0.0608
 5876SOL    HW223236   1.757   5.409   3.416 -1.2690  1.4251  0.3374
 5876SOL    HW323237   1.705   5.459   3.549  0.4844 -1.4900  2.2262
 5876SOL    MW423238   1.764   5.414   3.503 -0.0212  0.2201  0.4231
 5877SOL     OW23239   2.980   1.215   5.320  0.1460 -0.0885 -0.5565
 5877SOL    HW223240   2.980   1.165   5.239  2.3666 -0.4355 -0.3956
 5877SOL    HW323241   2.987   1.307   5.293  3.0316 -0.2911 -0.8380
 5877SOL    MW423242   2.981   1.221   5.306  0.5207 -0.1189 -0.8784
 5878SOL     OW23243   5.979   1.290   0.564 -0.7970 -0.4529 -0.3415
 5878SOL    HW223244   5.920   1.365   0.569  1.9039  1.7177  0.8827
 5878SOL    HW323245   6.066   1.327   0.554  1.0815 -3.1745  3.4115
 5878SOL    MW423246   5.982   1.305   0.563  0.8661 -0.0733 -0.7144
 5879SOL     OW23247   4.740   5.796   3.159  0.2184 -0.3811  0.3696
 5879SOL    HW223248   4.735   5.738   3.082 -1.3673 -0.1564  0.2747
 5879SOL    HW323249   4.654   5.789   3.200  0.0264  1.8061  0.4324
 5879SOL    MW423250   4.728   5.787   3.154  0.7288 -0.0216  0.3925
 5880SOL     OW23251   1.314   0.016   4.501  0.5960 -0.0260  0.4408
 5880SOL    HW223252   1.271  -0.062   4.466  1.3854 -0.0921 -0.4011
 5880SOL    HW323253   1.326   0.073   4.425 -0.0120  0.9567  1.0444
 5880SOL    MW423254   1.310   0.013   4.487 -0.1779  0.6440 -0.3981
 5881SOL     OW23255   1.190   0.711   0.492  0.2195 -0.0630 -0.7439
 5881SOL    HW223256   1.165   0.630   0.536  0.3562  0.2572 -0.0626
 5881SOL    HW323257   1.285   0.712   0.494  0.2040  1.0036  0.9390
 5881SOL    MW423258   1.199   0.701   0.498 -0.3205 -0.0688 -0.2863
 5882SOL     OW23259   3.646   5.352   0.277 -0.4962 -0.3312  0.6100
 5882SOL    HW223260   3.580   5.415   0.303 -0.6711 -0.0192 -0.5202
 5882SOL    HW323261   3.727   5.382   0.318 -0.2082  1.6077 -1.1836
 5882SOL    MW423262   3.648   5.364   0.286  0.2619  0.7852  0.3454
 5883SOL     OW23263   2.955   6.229   4.814 -0.2132  0.0608  0.0752
 5883SOL    HW223264   2.973   6.322   4.804 -3.0334  0.6425 -0.5106
 5883SOL    HW323265   3.029   6.195   4.865  1.6775  2.2535 -1.0374
 5883SOL    MW423266   2.967   6.237   4.819  0.1524 -0.0008  0.0319
 5884SOL     OW23267   3.356   0.750   2.044  0.0766  0.5631  0.2974
 5884SOL    HW223268   3.377   0.840   2.071  0.6595  1.3668 -2.4634
 5884SOL    HW323269   3.434   0.700   2.067 -0.3060  0.6847  1.9898
 5884SOL    MW423270   3.369   0.756   2.051 -0.1090  0.0789  0.3812
 5885SOL     OW23271   1.190   4.719   5.888  1.2866  0.1189  0.4209
 5885SOL    HW223272   1.098   4.711   5.862  1.4846  1.4875 -0.8101
 5885SOL    HW323273   1.192   4.801   5.939  2.0248  0.7490 -0.5998
 5885SOL    MW423274   1.178   4.729   5.891 -0.0513 -0.5226  0.0769
 5886SOL     OW23275   5.987   5.666   0.211 -0.0501  0.2505  0.0359
 5886SOL    HW223276   6.004   5.591   0.155  0.1208  0.7896 -0.6499
 5886SOL    HW323277   5.986   5.630   0.300  0.3182 -0.5114 -0.2585
 5886SOL    MW423278   5.989   5.652   0.216  0.3766 -0.2351 -0.4806
 5887SOL     OW23279   4.968   3.519   1.791 -0.5545 -0.8333 -0.1973
 5887SOL    HW223280   5.046   3.514   1.846 -0.2266 -2.5484 -0.7337
 5887SOL    HW323281   4.997   3.484   1.706 -1.7462 -0.9076 -0.5941
 5887SOL    MW423282   4.982   3.514   1.787 -0.0801 -0.4998  0.3387
 5888SOL     OW23283   5.388   3.760   4.001 -0.1708  0.0573  0.0247
 5888SOL    HW223284   5.374   3.814   3.924  0.5831  2.1387  1.2717
 5888SOL    HW323285   5.480   3.733   3.996 -0.2899 -0.3346 -0.1072
 5888SOL    MW423286   5.398   3.763   3.990 -0.4397  0.0818 -0.1581
 5889SOL     OW23287   6.003   5.124   1.062  0.2823  0.7606 -0.1612
 5889SOL    HW223288   6.058   5.175   1.002  0.4240  0.3620 -0.3785
 5889SOL    HW323289   6.036   5.035   1.053 -1.2273  0.2796 -1.2779
 5889SOL    MW423290   6.015   5.119   1.053  0.0518  0.1056 -0.0361
 5890SOL     OW23291   4.154   6.064   5.098  0.2670 -0.1634 -0.3570
 5890SOL    HW223292   4.148   6.096   5.188  1.3090  0.0476 -0.3470
 5890SOL    HW323293   4.091   6.116   5.049 -0.4548 -0.4233  0.2920
 5890SOL    MW423294   4.145   6.075   5.103  0.1129 -0.1506 -0.4594
 5891SOL     OW23295   2.024   5.372   1.115  0.6301 -1.0119  0.3516
 5891SOL    HW223296   2.085   5.442   1.091  0.0069 -0.3808  0.5777
 5891SOL    HW323297   1.976   5.408   1.189 -3.2340  0.3931 -2.5331
 5891SOL    MW423298   2.026   5.386   1.122  0.1998  0.2516 -0.3671
 5892SOL     OW23299   0.284   3.035   0.652  0.0417 -0.4736 -0.0893
 5892SOL    HW223300   0.283   3.075   0.739 -0.5187 -0.9175  0.1174
 5892SOL    HW323301   0.229   2.957   0.661 -0.0338 -0.5167 -0.8467
 5892SOL    MW423302   0.276   3.030   0.664 -0.4923  0.0853  0.1334
 5893SOL     OW23303   3.487   5.955   6.071  0.5190  0.0529  0.5487
 5893SOL    HW223304   3.419   5.889   6.083 -0.0757  0.0924 -2.1096
 5893SOL    HW323305   3.570   5.906   6.078  0.3185 -0.0557  3.4165
 5893SOL    MW423306   3.489   5.940   6.073 -0.2234  0.0327  0.3222
 5894SOL     OW23307   5.890   4.419   1.874 -0.6691 -0.2266  0.2545
 5894SOL    HW223308   5.918   4.472   1.799 -0.2504 -3.2144 -1.8738
 5894SOL    HW323309   5.970   4.375   1.904 -1.2834 -1.0127  0.8041
 5894SOL    MW423310   5.905   4.420   1.868  0.0827  0.7952  0.2401
 5895SOL     OW23311   3.970   0.964   1.867 -0.2384 -0.1859 -0.4092
 5895SOL    HW223312   3.936   1.044   1.826 -0.9560  0.1022  0.6904
 5895SOL    HW323313   3.909   0.896   1.840  0.2714 -0.3421 -1.2006
 5895SOL    MW423314   3.957   0.966   1.858 -0.9685 -0.2803 -0.2750
 5896SOL     OW23315   1.137   0.550   1.132  0.4228 -0.7479  0.2928
 5896SOL    HW223316   1.130   0.455   1.127 -0.1800 -0.7477  0.9021
 5896SOL    HW323317   1.054   0.582   1.097 -0.1553 -0.5158  1.7948
 5896SOL    MW423318   1.125   0.542   1.127  0.1604 -0.4371 -0.3658
 5897SOL     OW23319   1.879   1.011   5.067  0.3848  0.8851  0.5681
 5897SOL    HW223320   1.914   0.924   5.089 -3.2743 -0.8034  0.3752
 5897SOL    HW323321   1.918   1.031   4.982  2.8077  0.4247  1.4738
 5897SOL    MW423322   1.889   1.002   5.059  0.1647 -0.4219  0.8465
 5898SOL     OW23323   5.424   1.621   4.051 -0.2309 -0.3851 -0.0508
 5898SOL    HW223324   5.332   1.597   4.043 -0.9917  2.2606 -0.1726
 5898SOL    HW323325   5.470   1.565   3.988 -2.2282  0.4558 -2.3975
 5898SOL    MW423326   5.418   1.611   4.042  0.7654  0.4456 -0.1002
 5899SOL     OW23327   3.154   0.282   3.988 -0.2900 -0.2532  0.6842
 5899SOL    HW223328   3.210   0.214   4.025 -0.3127 -1.1452 -0.8857
 5899SOL    HW323329   3.137   0.341   4.062  1.5128 -0.7440  1.5487
 5899SOL    MW423330   3.160   0.281   4.003  0.1708  0.2138 -0.4067
 5900SOL     OW23331   3.558   0.082   2.052 -0.0038 -0.5240  0.2554
 5900SOL    HW223332   3.630   0.130   2.010  0.9258 -0.8736  1.4116
 5900SOL    HW323333   3.544   0.007   1.995 -0.7133  0.4875 -0.9683
 5900SOL    MW423334   3.566   0.079   2.039 -0.3448 -0.0547  0.1346
 5901SOL     OW23335   3.683   3.710   1.183  0.2280 -0.0036  0.5006
 5901SOL    HW223336   3.639   3.773   1.239  1.7983  0.0612  1.7323
 5901SOL    HW323337   3.708   3.761   1.105 -2.0644 -0.1235 -0.3709
 5901SOL    MW423338   3.681   3.725   1.180  0.3745 -0.0592 -0.5155
 5902SOL     OW23339   6.255   0.950   0.373  0.0400 -0.0349 -0.2104
 5902SOL    HW223340   6.304   0.869   0.386 -1.0193 -0.4653  1.4341
 5902SOL    HW323341   6.301   0.995   0.302  2.2465 -0.8334  0.6248
 5902SOL    MW423342   6.267   0.945   0.365 -0.0725 -0.4909 -0.3546
 5903SOL     OW23343   1.498   5.489   1.302  0.0178  0.0414 -0.1933
 5903SOL    HW223344   1.564   5.527   1.244  0.0421 -0.6772 -0.6485
 5903SOL    HW323345   1.419   5.540   1.287  0.8819  2.0916  1.6471
 5903SOL    MW423346   1.496   5.501   1.293  0.0103 -0.0139 -0.4294
 5904SOL     OW23347   6.396   2.159   2.094  0.2751 -0.4147  0.0229
 5904SOL    HW223348   6.362   2.104   2.165  1.3748 -0.0859  0.8230
 5904SOL    HW323349   6.317   2.190   2.049 -0.6005  1.1468  2.4362
 5904SOL    MW423350   6.381   2.156   2.098  0.2866 -0.2705  0.1147
 5905SOL     OW23351   0.760   0.926   3.710 -0.5340 -0.2829  0.0522
 5905SOL    HW223352   0.721   0.958   3.791 -0.6242 -0.9707  0.2823
 5905SOL    HW323353   0.700   0.857   3.680 -2.1277  1.8776 -2.1559
 5905SOL    MW423354   0.747   0.921   3.716 -0.0866 -0.1707  0.0392
 5906SOL     OW23355   1.075   0.039   2.319 -0.7519 -0.4010  0.4716
 5906SOL    HW223356   1.020   0.110   2.286  2.8814  1.5166 -2.1108
 5906SOL    HW323357   1.102   0.069   2.406 -0.1128  0.9306 -0.1553
 5906SOL    MW423358   1.071   0.052   2.326 -0.0243  0.0355 -0.4231
 5907SOL     OW23359   5.125   5.994   5.815 -0.4091 -0.0912  0.1720
 5907SOL    HW223360   5.165   5.947   5.888 -0.7913  0.3909  0.7008
 5907SOL    HW323361   5.197   6.013   5.755 -0.0427 -0.2069  0.5791
 5907SOL    MW423362   5.139   5.990   5.817  0.1835  0.0149 -0.4997
 5908SOL     OW23363   2.563   0.099   6.119 -0.3440  0.1113 -0.1270
 5908SOL    HW223364   2.467   0.098   6.112 -0.3366  0.0333 -0.2099
 5908SOL    HW323365   2.592   0.148   6.042 -0.1221 -2.9627 -2.2020
 5908SOL    MW423366   2.554   0.105   6.108 -0.0677 -0.7389  0.2156
 5909SOL     OW23367   2.167   5.356   0.482 -0.0585 -0.4205  0.6475
 5909SOL    HW223368   2.174   5.407   0.563 -0.8103  1.0313 -0.1630
 5909SOL    HW323369   2.255   5.359   0.444 -0.3211  1.1920  0.1019
 5909SOL    MW423370   2.180   5.363   0.488 -0.1573 -0.1604  0.0835
 5910SOL     OW23371   1.418   3.325   1.421  0.3238  0.1279 -0.4372
 5910SOL    HW223372   1.425   3.258   1.353  0.9137 -0.8457  0.5551
 5910SOL    HW323373   1.431   3.408   1.374 -1.2198 -0.3624 -1.8244
 5910SOL    MW423374   1.421   3.327   1.406  0.2680  0.5911  0.4141
 5911SOL     OW23375   3.842   0.079   1.624  0.3512 -0.0250 -0.1883
 5911SOL    HW223376   3.893   0.139   1.678  1.6363 -0.8998 -0.3820
 5911SOL    HW323377   3.877  -0.008   1.645 -1.6840 -0.7612  0.3274
 5911SOL    MW423378   3.853   0.076   1.634 -0.1286  0.5925  0.0456
 5912SOL     OW23379   1.903   5.155   4.960  0.0287 -0.5814 -0.2353
 5912SOL    HW223380   1.959   5.116   5.027  0.2307  0.1808  0.0569
 5912SOL    HW323381   1.959   5.222   4.919 -0.9588  0.8971  0.7444
 5912SOL    MW423382   1.918   5.159   4.964  0.2335  0.3277  0.1489
 5913SOL     OW23383   5.377   5.028   1.673 -0.0593 -0.3651  0.0889
 5913SOL    HW223384   5.322   5.099   1.641 -1.6305 -2.1948 -1.5324
 5913SOL    HW323385   5.423   4.996   1.594 -1.9810 -3.2608  0.0002
 5913SOL    MW423386   5.376   5.033   1.658  0.1742 -0.0729 -0.1061
 5914SOL     OW23387   1.837   6.346   6.388  0.0841 -0.2476  0.0592
 5914SOL    HW223388   1.831   6.441   6.385  0.5052 -0.2193  0.0860
 5914SOL    HW323389   1.750   6.316   6.363 -0.6521  0.1692  1.9190
 5914SOL    MW423390   1.824   6.354   6.384  0.4707  0.2763  0.3015
 5915SOL     OW23391   1.712   5.598   1.137 -0.3202  0.1521 -1.0504
 5915SOL    HW223392   1.785   5.656   1.158  0.2599 -0.2932 -1.8034
 5915SOL    HW323393   1.671   5.639   1.061  0.5202 -0.7725 -2.0294
 5915SOL    MW423394   1.716   5.611   1.130  0.1064 -0.1815  0.6053
 5916SOL     OW23395   5.933   0.990   0.121  0.6075 -0.1372  0.0748
 5916SOL    HW223396   6.016   1.020   0.083  1.0147 -1.8874 -0.4916
 5916SOL    HW323397   5.936   0.895   0.114 -0.4278 -0.3964  2.1963
 5916SOL    MW423398   5.945   0.981   0.115  0.4067 -0.5969  0.1579
 5917SOL     OW23399   1.549   4.733   2.420 -0.0501 -0.4606 -0.3762
 5917SOL    HW223400   1.454   4.735   2.433  0.0056  0.3234 -0.0409
 5917SOL    HW323401   1.561   4.678   2.342 -0.9019  0.6121 -1.3099
 5917SOL    MW423402   1.538   4.726   2.411 -0.3324  0.4993 -0.1291
 5918SOL     OW23403   0.275   2.413   0.379 -0.3637 -0.1839 -0.3988
 5918SOL    HW223404   0.204   2.362   0.418  0.2602 -0.7765 -0.0089
 5918SOL    HW323405   0.336   2.347   0.345 -0.0275  0.3118 -0.7819
 5918SOL    MW423406   0.274   2.397   0.379  0.1900  0.0748  0.1907
 5919SOL     OW23407   0.848   4.612   1.784  0.0407  0.6832 -0.9020
 5919SOL    HW223408   0.913   4.551   1.748  0.5164  1.0347 -0.6559
 5919SOL    HW323409   0.773   4.557   1.807  0.7011  0.0903 -0.1017
 5919SOL    MW423410   0.847   4.597   1.782 -0.5731  0.1033 -0.1646
 5920SOL     OW23411   4.506   1.426   4.007  0.6701 -0.0439 -0.3037
 5920SOL    HW223412   4.480   1.496   4.067 -0.4041  0.0356 -0.8377
 5920SOL    HW323413   4.600   1.417   4.020  0.5179  0.2478  1.0819
 5920SOL    MW423414   4.515   1.434   4.016  0.0295 -0.6527 -0.1822
 5921SOL     OW23415   3.851   0.458   1.122  0.0718  0.3280  0.0310
 5921SOL    HW223416   3.945   0.456   1.143 -0.1891 -0.6372  1.2280
 5921SOL    HW323417   3.825   0.367   1.120 -1.2632  0.6078  1.8868
 5921SOL    MW423418   3.860   0.446   1.125  0.6193  0.1313  0.2254
 5922SOL     OW23419   1.768   3.480   1.085 -0.3700  0.0764  0.2619
 5922SOL    HW223420   1.843   3.486   1.026 -0.7170  0.6816 -0.1362
 5922SOL    HW323421   1.693   3.504   1.030 -1.0230 -1.6532  0.3432
 5922SOL    MW423422   1.768   3.484   1.070 -0.1832  0.3952 -0.3360
 5923SOL     OW23423   5.705   0.558   2.883 -0.6693  0.1104  0.3150
 5923SOL    HW223424   5.744   0.473   2.861 -0.6689  0.3603 -0.7160
 5923SOL    HW323425   5.724   0.613   2.807  0.2295  1.3520  1.3980
 5923SOL    MW423426   5.713   0.554   2.870  0.0078 -0.5894 -0.4712
 5924SOL     OW23427   4.190   5.397   4.309 -0.1445  0.0387 -0.1198
 5924SOL    HW223428   4.188   5.405   4.214 -2.1636 -0.5333 -0.1638
 5924SOL    HW323429   4.188   5.303   4.326  1.0371  0.1063  0.5052
 5924SOL    MW423430   4.189   5.385   4.299  0.6443  0.0860  0.1603
 5925SOL     OW23431   3.236   3.824   1.389 -0.0288  0.1941 -0.6677
 5925SOL    HW223432   3.198   3.891   1.333 -0.4086 -0.2990 -1.0069
 5925SOL    HW323433   3.166   3.802   1.451  0.4734  0.9282  0.1830
 5925SOL    MW423434   3.221   3.830   1.390  0.1228 -1.0389  0.2805
 5926SOL     OW23435   0.638   6.199   0.923  0.5117 -0.3615 -0.4898
 5926SOL    HW223436   0.732   6.209   0.910  0.6919 -0.5046  0.5949
 5926SOL    HW323437   0.622   6.236   1.010 -0.5499  0.2906 -0.9342
 5926SOL    MW423438   0.648   6.205   0.933 -0.1440 -0.6250 -0.3141
 5927SOL     OW23439   5.159   2.494   1.006 -0.1952 -0.1662  0.0583
 5927SOL    HW223440   5.251   2.470   1.011  0.1957  1.3131  0.6590
 5927SOL    HW323441   5.156   2.568   0.945 -1.6468 -2.8542 -3.4691
 5927SOL    MW423442   5.171   2.501   0.999 -0.0164  0.5196 -0.6782
 5928SOL     OW23443   0.732   6.129   0.564 -0.3705 -0.1970 -0.0546
 5928SOL    HW223444   0.787   6.065   0.519 -0.7128  0.6390 -1.7955
 5928SOL    HW323445   0.748   6.115   0.657  2.4780 -0.2451 -0.4789
 5928SOL    MW423446   0.741   6.119   0.570 -0.1208  0.3452 -0.5585
 5929SOL     OW23447   6.215   3.468   1.247 -0.2425 -0.3281 -0.5139
 5929SOL    HW223448   6.160   3.516   1.185 -0.8222 -1.0005 -0.5432
 5929SOL    HW323449   6.159   3.455   1.324 -0.4197 -1.6982 -0.8452
 5929SOL    MW423450   6.201   3.472   1.249  0.4807  0.1587 -0.2693
 5930SOL     OW23451   0.824   4.098   1.986  0.5603  0.2007  0.1058
 5930SOL    HW223452   0.909   4.136   2.009  0.9899 -0.8746  0.3516
 5930SOL    HW323453   0.767   4.119   2.060  1.3241 -1.2892  1.1703
 5930SOL    MW423454   0.828   4.106   1.999  0.2452  0.1983 -0.2533
 5931SOL     OW23455   1.541   3.792   1.110 -0.3039 -0.3645 -0.0714
 5931SOL    HW223456   1.520   3.883   1.134  2.3948  0.9379 -2.1001
 5931SOL    HW323457   1.634   3.795   1.088 -0.4138 -3.4273 -1.2943
 5931SOL    MW423458   1.551   3.805   1.110  0.5911  0.4882 -0.0773
 5932SOL     OW23459   5.329   5.012   0.731  0.8243  0.0259  0.8519
 5932SOL    HW223460   5.384   4.933   0.722  2.2774  1.0788  0.1203
 5932SOL    HW323461   5.366   5.075   0.670 -0.9049  0.9916  0.7344
 5932SOL    MW423462   5.341   5.010   0.722  0.1700  0.1317  0.1235
 5933SOL     OW23463   5.358   3.770   4.972 -0.0605  1.0918  0.0337
 5933SOL    HW223464   5.380   3.766   4.879 -0.5852  1.0265 -0.0904
 5933SOL    HW323465   5.270   3.734   4.977 -0.0768  1.1989  0.5438
 5933SOL    MW423466   5.349   3.764   4.960  0.2737 -0.4462 -0.3756
 5934SOL     OW23467   0.578   1.647   0.599  0.2364  0.1071  0.2577
 5934SOL    HW223468   0.568   1.582   0.669 -1.6333 -0.1756 -0.2177
 5934SOL    HW323469   0.663   1.627   0.560  0.0419 -1.5927  0.6080
 5934SOL    MW423470   0.588   1.636   0.603  0.4638  0.3048  0.8154
 5935SOL     OW23471   2.607   5.774   3.175 -0.5328 -0.6412  0.1152
 5935SOL    HW223472   2.700   5.753   3.173 -0.2443  0.1598  2.4875
 5935SOL    HW323473   2.562   5.690   3.167  0.4491 -1.3197  1.5171
 5935SOL    MW423474   2.613   5.760   3.173  0.0964 -0.6409 -0.3323
 5936SOL     OW23475   2.387   5.690   6.343  0.3604  0.1720  0.7202
 5936SOL    HW223476   2.335   5.681   6.423  0.7297  0.6300  1.0162
 5936SOL    HW323477   2.459   5.748   6.367  0.5420  0.2220  0.0858
 5936SOL    MW423478   2.389   5.696   6.356 -0.3192 -0.1558  0.1581
 5937SOL     OW23479   1.933   1.853   2.272 -0.1094 -0.1194 -0.2843
 5937SOL    HW223480   1.929   1.761   2.245  1.7932  0.0996 -1.4978
 5937SOL    HW323481   1.939   1.902   2.190 -0.4178  1.0587  0.3744
 5937SOL    MW423482   1.933   1.847   2.257 -0.8240  0.7993 -0.0212
 5938SOL     OW23483   6.143   2.011   4.871  0.0875  0.0381  0.7614
 5938SOL    HW223484   6.227   2.051   4.848 -0.5232  0.6946 -0.3874
 5938SOL    HW323485   6.119   2.052   4.955  1.4414 -1.0051  1.6965
 5938SOL    MW423486   6.151   2.022   4.879  0.0112  0.5692  0.5093
 5939SOL     OW23487   3.270   1.846   2.130  0.0266 -0.1924 -0.5485
 5939SOL    HW223488   3.355   1.880   2.104  0.3226 -0.1438  0.4584
 5939SOL    HW323489   3.219   1.845   2.049  0.1916  2.0976 -0.7412
 5939SOL    MW423490   3.274   1.851   2.116 -0.0223  0.2841  0.1234
 5940SOL     OW23491   4.845   3.673   5.008  0.2045  0.8276  0.4034
 5940SOL    HW223492   4.751   3.686   5.005  0.2408  1.4959  1.7812
 5940SOL    HW323493   4.862   3.607   4.940 -1.4003 -0.2272  0.9694
 5940SOL    MW423494   4.835   3.666   4.998  0.2392 -0.7928  0.4991
 5941SOL     OW23495   4.648   3.653   4.728  0.0756 -0.3730  0.2289
 5941SOL    HW223496   4.640   3.567   4.688 -2.6599 -0.5769  1.0694
 5941SOL    HW323497   4.631   3.714   4.656  0.7229 -0.5277 -0.0720
 5941SOL    MW423498   4.645   3.650   4.713  0.4086  0.6019 -0.0040
 5942SOL     OW23499   4.152   1.176   2.535 -0.4486 -0.0073  0.3717
 5942SOL    HW223500   4.175   1.121   2.461  1.2788  1.8514 -0.5646
 5942SOL    HW323501   4.212   1.149   2.605 -0.5517 -0.2448  0.3675
 5942SOL    MW423502   4.163   1.165   2.535 -0.0576  0.3036  0.1270
 5943SOL     OW23503   3.437   4.798   5.633 -0.0831 -0.2969 -0.2369
 5943SOL    HW223504   3.483   4.862   5.688  0.3697 -0.2425 -0.6720
 5943SOL    HW323505   3.390   4.743   5.694 -1.5155  1.2372  0.1170
 5943SOL    MW423506   3.437   4.799   5.648  0.2716 -0.0111  0.3747
 5944SOL     OW23507   5.662   1.124   5.126  0.1975  0.7784  0.3223
 5944SOL    HW223508   5.682   1.072   5.047 -2.8245  0.6446 -0.4799
 5944SOL    HW323509   5.652   1.058   5.195 -2.6499  0.2259 -0.4832
 5944SOL    MW423510   5.664   1.108   5.124  0.2439  0.0836 -0.2206
 5945SOL     OW23511   0.501   1.390   5.757 -0.7167  0.6951  0.1455
 5945SOL    HW223512   0.490   1.338   5.836  1.4226  0.5967  0.4420
 5945SOL    HW323513   0.443   1.350   5.693  0.1502 -1.5010  0.6463
 5945SOL    MW423514   0.492   1.378   5.759 -0.8378 -0.1021 -0.3055
 5946SOL     OW23515   3.860   1.970   1.079 -0.3656 -0.1377  1.0640
 5946SOL    HW223516   3.798   1.985   1.150  0.2352 -2.6021  2.2429
 5946SOL    HW323517   3.939   1.939   1.123  1.3676  1.8178 -0.4705
 5946SOL    MW423518   3.862   1.968   1.094  0.3043 -0.3200  0.0767
 5947SOL     OW23519   3.777   6.200   2.024  0.0218  0.4015  0.3635
 5947SOL    HW223520   3.684   6.209   2.002  0.0670 -0.6464 -0.2972
 5947SOL    HW323521   3.777   6.156   2.109 -0.0909 -0.5196 -0.0966
 5947SOL    MW423522   3.764   6.196   2.032 -0.2864 -0.1674 -0.0701
 5948SOL     OW23523   5.309   5.791   3.516 -0.4767 -0.0093 -0.2362
 5948SOL    HW223524   5.226   5.801   3.562  0.4992 -0.6363  1.7945
 5948SOL    HW323525   5.297   5.715   3.460 -0.4524 -1.9075  2.1824
 5948SOL    MW423526   5.297   5.782   3.515  0.2732 -0.2163 -0.1683
 5949SOL     OW23527   2.463   6.148   5.762 -0.6085 -0.0099 -0.3651
 5949SOL    HW223528   2.482   6.055   5.768  3.3153  0.5397 -1.3250
 5949SOL    HW323529   2.546   6.191   5.787 -2.0697  3.2124 -0.5564
 5949SOL    MW423530   2.477   6.142   5.766  0.4205 -0.5994 -0.3217
 5950SOL     OW23531   3.228   0.018   6.201  0.3787 -0.0779  0.9375
 5950SOL    HW223532   3.159   0.074   6.163  1.3936 -0.2707 -1.3856
 5950SOL    HW323533   3.306   0.039   6.150  2.3999  0.8461  4.1012
 5950SOL    MW423534   3.229   0.028   6.189 -0.2191 -0.5696 -0.6000
 5951SOL     OW23535   1.955   0.081   0.361  0.2769  0.0679  0.1365
 5951SOL    HW223536   1.897   0.108   0.291  0.5283  0.2275 -0.0097
 5951SOL    HW323537   2.041   0.071   0.320  0.6199  1.0137  0.5859
 5951SOL    MW423538   1.959   0.083   0.347 -0.2133  0.2150 -0.3479
 5952SOL     OW23539   0.818   0.498   0.193  0.1550 -0.2862 -0.2501
 5952SOL    HW223540   0.736   0.548   0.191  0.6472  0.5277 -1.1985
 5952SOL    HW323541   0.792   0.408   0.171 -0.5412 -0.1234 -0.1015
 5952SOL    MW423542   0.804   0.492   0.190  0.9543  1.3016 -0.6531
 5953SOL     OW23543   4.304   2.739   3.615  0.0801  0.6710  0.0658
 5953SOL    HW223544   4.301   2.711   3.706 -1.1021  0.9047  0.1067
 5953SOL    HW323545   4.378   2.799   3.611  0.1743  0.6200  0.8546
 5953SOL    MW423546   4.314   2.743   3.626  0.1431 -0.2628  0.9869
 5954SOL     OW23547   1.263   3.938   1.866 -0.3337  0.2393  0.3035
 5954SOL    HW223548   1.345   3.967   1.826 -0.7765 -1.6300 -2.2472
 5954SOL    HW323549   1.208   4.017   1.868  1.0652  1.2283  0.8576
 5954SOL    MW423550   1.266   3.952   1.861 -0.2917  0.3444 -0.0805
 5955SOL     OW23551   3.222   2.496   2.092  0.2704  0.1584 -0.0838
 5955SOL    HW223552   3.265   2.574   2.059 -0.8988  1.2430  0.8521
 5955SOL    HW323553   3.176   2.525   2.171  0.4401 -1.6438  0.7432
 5955SOL    MW423554   3.222   2.510   2.098 -0.3485  0.2181 -0.3496
 5956SOL     OW23555   1.021   3.675   0.939  0.1787  0.3483 -0.0214
 5956SOL    HW223556   1.104   3.714   0.909  0.3859  0.1531  0.2913
 5956SOL    HW323557   1.026   3.680   1.034  0.7285 -1.4920  0.0765
 5956SOL    MW423558   1.033   3.681   0.947 -0.1340 -0.2623 -0.0872
 5957SOL     OW23559   5.289   2.710   4.423  0.0387 -0.8055  0.0155
 5957SOL    HW223560   5.232   2.773   4.467 -0.6936 -1.3574 -0.1345
 5957SOL    HW323561   5.351   2.683   4.491  0.2279 -0.0986  0.1386
 5957SOL    MW423562   5.290   2.715   4.438 -0.2324 -0.4985  0.6246
 5958SOL     OW23563   6.144   2.121   4.364  0.3629 -0.1499 -0.3868
 5958SOL    HW223564   6.120   2.029   4.378 -0.3991  0.2406  1.1158
 5958SOL    HW323565   6.061   2.169   4.372  1.0085  0.8398  0.8317
 5958SOL    MW423566   6.130   2.115   4.367 -0.4918 -0.3103 -0.4351
 5959SOL     OW23567   2.369   6.391   2.346  0.4961 -0.5433 -0.0255
 5959SOL    HW223568   2.444   6.398   2.287  0.4258  0.0166 -0.0505
 5959SOL    HW323569   2.401   6.424   2.430 -0.3482  1.9332 -0.5987
 5959SOL    MW423570   2.383   6.396   2.349  0.1834  0.1738 -0.5348
 5960SOL     OW23571   1.007   5.952   2.312  0.2563 -0.3015 -0.4827
 5960SOL    HW223572   1.036   5.907   2.233 -0.9444 -0.8417 -0.6267
 5960SOL    HW323573   1.065   5.919   2.381  1.5611  0.4492 -1.1645
 5960SOL    MW423574   1.019   5.942   2.311 -0.8350  0.3771 -0.0612
 5961SOL     OW23575   2.200   1.105   4.442 -0.1963 -0.5293  0.8638
 5961SOL    HW223576   2.248   1.176   4.400 -0.6051  2.1401  4.4474
 5961SOL    HW323577   2.110   1.117   4.412 -0.1707  0.2021  1.0499
 5961SOL    MW423578   2.194   1.116   4.432  0.1130 -0.8101  0.5279
 5962SOL     OW23579   4.483   5.018   4.480 -0.1214 -0.5737 -0.3570
 5962SOL    HW223580   4.524   5.031   4.394 -1.5972  0.5977 -0.9414
 5962SOL    HW323581   4.389   5.026   4.462 -0.4416 -0.0948  1.4171
 5962SOL    MW423582   4.476   5.021   4.466  0.0588 -0.7881 -0.4456
 5963SOL     OW23583   1.523   2.800   5.877 -0.3129  0.3013 -0.4529
 5963SOL    HW223584   1.512   2.893   5.894 -0.6688  0.9371 -3.6102
 5963SOL    HW323585   1.590   2.795   5.809 -0.9903 -1.6489 -1.0619
 5963SOL    MW423586   1.530   2.811   5.870  0.0753  0.1367 -0.0457
 5964SOL     OW23587   0.768   2.311   5.029  0.0318 -0.2602  0.4440
 5964SOL    HW223588   0.681   2.307   5.070 -0.0143 -2.8530  0.2710
 5964SOL    HW323589   0.774   2.400   4.994 -2.9228 -0.2352 -0.3040
 5964SOL    MW423590   0.757   2.322   5.030  0.8792 -0.3249 -0.1747
 5965SOL     OW23591   4.309   2.255   1.383  0.4679 -0.0680 -0.4084
 5965SOL    HW223592   4.373   2.197   1.424  0.3417  0.4451  0.5489
 5965SOL    HW323593   4.341   2.266   1.293  1.2921 -0.4412 -0.1710
 5965SOL    MW423594   4.322   2.249   1.376 -0.0203  0.5100  0.0827
 5966SOL     OW23595   5.098   1.355   1.112 -0.1843  0.1618  0.2943
 5966SOL    HW223596   5.119   1.302   1.189  0.8857  0.1369  0.0017
 5966SOL    HW323597   5.145   1.437   1.126 -0.7463  0.5183  0.1104
 5966SOL    MW423598   5.107   1.359   1.124  0.1269  0.3113 -0.3026
 5967SOL     OW23599   5.052   6.170   5.300  0.2713  0.4559 -0.0159
 5967SOL    HW223600   5.120   6.212   5.247 -0.2978  0.3716 -0.8309
 5967SOL    HW323601   5.054   6.078   5.273 -0.0388  0.4139  0.1052
 5967SOL    MW423602   5.062   6.163   5.290 -0.2840  0.6178 -0.3707
 5968SOL     OW23603   3.098   0.874   4.156  0.5373  0.0364  0.0665
 5968SOL    HW223604   3.135   0.837   4.236  0.0796  0.6891  0.5828
 5968SOL    HW323605   3.099   0.801   4.094  0.3472 -0.6451  0.8393
 5968SOL    MW423606   3.103   0.859   4.158 -0.1849  0.1599  0.0202
 5969SOL     OW23607   3.052   1.807   4.467  0.2447  0.0585  0.5740
 5969SOL    HW223608   3.038   1.795   4.373  1.4846 -0.0840  0.3933
 5969SOL    HW323609   2.966   1.833   4.501 -0.5778 -1.3682 -0.3358
 5969SOL    MW423610   3.038   1.809   4.459  0.4475  0.1872 -0.4599
 5970SOL     OW23611   0.295   5.550   1.187  0.4203 -0.3680 -0.5400
 5970SOL    HW223612   0.206   5.545   1.222  0.4425 -2.0502 -0.6416
 5970SOL    HW323613   0.312   5.462   1.153  2.5023 -0.3781  0.4100
 5970SOL    MW423614   0.285   5.537   1.187  0.3501  0.1528  0.5356
 5971SOL     OW23615   4.227   3.043   4.076  0.1038  0.4217 -0.1239
 5971SOL    HW223616   4.132   3.042   4.086  0.1262  1.2337  0.2957
 5971SOL    HW323617   4.242   3.086   3.992  0.0969  0.1911 -0.2431
 5971SOL    MW423618   4.217   3.049   4.067  0.1027 -0.3853 -0.2841
 5972SOL     OW23619   6.255   6.059   5.440  0.1779  0.4501  0.0187
 5972SOL    HW223620   6.238   6.025   5.528 -0.8647  0.4487 -0.1682
 5972SOL    HW323621   6.316   5.996   5.401  0.0548  0.0434  0.4813
 5972SOL    MW423622   6.261   6.046   5.446  0.1413 -0.2817  1.0529
 5973SOL     OW23623   4.287   5.176   3.279  0.2908 -0.1913  0.3639
 5973SOL    HW223624   4.325   5.102   3.326 -0.2592 -1.6972 -1.4579
 5973SOL    HW323625   4.199   5.185   3.314  0.8078  0.5363  1.5532
 5973SOL    MW423626   4.281   5.168   3.290 -0.2356  0.2276  0.3396
 5974SOL     OW23627   1.360   1.223   1.703 -0.4313  0.2087  0.2094
 5974SOL    HW223628   1.426   1.154   1.713 -1.4813 -0.8814 -0.1930
 5974SOL    HW323629   1.403   1.289   1.649  1.0346  0.4973  1.6466
 5974SOL    MW423630   1.375   1.223   1.697 -0.4468 -0.6842 -0.3179
 5975SOL     OW23631   3.247   5.980   3.746  0.4344 -0.3330  0.0691
 5975SOL    HW223632   3.187   5.907   3.735  1.7393 -1.5050  0.4414
 5975SOL    HW323633   3.213   6.048   3.687 -0.6528 -1.3194 -0.4846
 5975SOL    MW423634   3.235   5.980   3.737  0.3759  0.1021  0.7722
 5976SOL     OW23635   4.961   4.579   1.119 -0.0722  0.2654  0.2559
 5976SOL    HW223636   5.019   4.642   1.161  0.2960 -1.2006  2.0419
 5976SOL    HW323637   4.960   4.504   1.178 -2.3117 -0.5034 -0.6704
 5976SOL    MW423638   4.969   4.577   1.132 -0.2442  0.1956 -0.0949
 5977SOL     OW23639   3.763   3.731   1.535 -0.4162 -0.2348  0.2436
 5977SOL    HW223640   3.823   3.764   1.602 -0.8294 -1.5160  1.2617
 5977SOL    HW323641   3.719   3.657   1.575  0.0246 -1.6788 -1.7666
 5977SOL    MW423642   3.765   3.726   1.549  0.0210 -0.5123 -0.2593
 5978SOL     OW23643   3.032   1.378   4.443 -0.1769 -0.2694 -0.0162
 5978SOL    HW223644   3.101   1.372   4.377  1.2121  1.9892  1.1193
 5978SOL    HW323645   3.079   1.399   4.524 -2.0486 -0.6373  1.2159
 5978SOL    MW423646   3.048   1.380   4.445  0.2201  0.1380 -0.4793
 5979SOL     OW23647   4.899   2.476   2.274  0.1724  0.3956 -0.7184
 5979SOL    HW223648   4.863   2.391   2.298  2.1173 -0.0302  0.9663
 5979SOL    HW323649   4.926   2.466   2.183  0.0256 -0.6677 -0.6586
 5979SOL    MW423650   4.897   2.463   2.266 -0.4674 -0.1671  0.8577
 5980SOL     OW23651   1.270   4.863   3.790 -0.4500 -0.1192 -0.1680
 5980SOL    HW223652   1.253   4.829   3.877  0.6763  0.6930  0.3854
 5980SOL    HW323653   1.331   4.800   3.751 -0.3926 -0.1073 -0.0983
 5980SOL    MW423654   1.276   4.850   3.796  0.7956  0.1126 -0.0811
 5981SOL     OW23655   3.353   5.621   4.656  0.2466 -0.2421  0.1886
 5981SOL    HW223656   3.314   5.549   4.705  0.3060 -0.2415  0.2370
 5981SOL    HW323657   3.440   5.588   4.631 -0.1622 -0.6166 -0.7752
 5981SOL    MW423658   3.359   5.607   4.659  0.1968 -0.3336  0.0552
 5982SOL     OW23659   4.980   3.835   5.616  0.1727  0.2598  0.5197
 5982SOL    HW223660   5.020   3.796   5.538 -0.0991  0.5752  0.2221
 5982SOL    HW323661   4.987   3.766   5.683 -0.6298 -0.4443 -0.0974
 5982SOL    MW423662   4.987   3.821   5.615 -0.1696  0.1531  0.6366
 5983SOL     OW23663   0.073   6.321   1.725  0.1832 -0.1324 -0.2698
 5983SOL    HW223664   0.024   6.316   1.808 -1.9293  3.3309 -1.0891
 5983SOL    HW323665   0.155   6.275   1.742 -1.0766 -1.4709  2.9883
 5983SOL    MW423666   0.077   6.314   1.738  0.0056  0.8104  0.4880
 5984SOL     OW23667   0.205   1.136   1.891 -0.3582  0.4054  0.0069
 5984SOL    HW223668   0.148   1.067   1.854 -1.4477  0.2426  1.8732
 5984SOL    HW323669   0.286   1.090   1.913 -0.5705  0.0093 -0.0192
 5984SOL    MW423670   0.208   1.121   1.889 -0.2745  0.7189  0.2673
 5985SOL     OW23671   5.506   0.849   5.221 -0.4826  0.3571  0.2909
 5985SOL    HW223672   5.435   0.906   5.192 -1.2217  0.2875  1.8275
 5985SOL    HW323673   5.495   0.768   5.171 -2.9502 -0.5282  2.0664
 5985SOL    MW423674   5.495   0.846   5.211 -0.5202 -0.2368 -0.4264
 5986SOL     OW23675   2.691   3.638   5.743  0.3297  0.0876 -0.2107
 5986SOL    HW223676   2.768   3.665   5.793 -0.0525 -0.0906  0.4937
 5986SOL    HW323677   2.682   3.545   5.761  0.9634 -0.2952 -1.6989
 5986SOL    MW423678   2.700   3.629   5.752  0.2513  0.3121  0.6674
 5987SOL     OW23679   4.891   5.006   0.167  0.6924  0.0663 -0.0178
 5987SOL    HW223680   4.819   5.030   0.225  0.3490 -0.1866 -0.3363
 5987SOL    HW323681   4.966   5.056   0.200  0.5235 -0.1322  0.6858
 5987SOL    MW423682   4.892   5.016   0.179  0.0126  0.1332 -0.4644
 5988SOL     OW23683   0.444   1.795   4.685 -0.2598 -0.3020  0.0379
 5988SOL    HW223684   0.405   1.707   4.686  0.8197 -0.8630 -1.6950
 5988SOL    HW323685   0.528   1.784   4.730 -0.4923  0.0457  0.5576
 5988SOL    MW423686   0.450   1.782   4.691 -0.1996 -0.5988 -0.0408
 5989SOL     OW23687   3.175   2.662   4.942 -0.2932 -0.2692 -0.1421
 5989SOL    HW223688   3.258   2.704   4.966 -0.7138  0.4550  0.1020
 5989SOL    HW323689   3.168   2.675   4.848  0.6107 -1.7256 -0.4392
 5989SOL    MW423690   3.185   2.669   4.933 -0.6385  0.2838 -0.3317
 5990SOL     OW23691   2.871   5.444   0.942 -0.1618 -0.1474  0.5614
 5990SOL    HW223692   2.779   5.460   0.922  0.2091  0.5047 -0.7229
 5990SOL    HW323693   2.869   5.380   1.014 -1.6023 -0.1309  0.5698
 5990SOL    MW423694   2.859   5.438   0.949  0.5677  0.9225 -0.2305
 5991SOL     OW23695   2.090   4.963   6.242  0.2452 -0.2381 -0.6064
 5991SOL    HW223696   2.173   4.922   6.269  0.1415 -0.4045 -0.5369
 5991SOL    HW323697   2.069   5.022   6.314 -0.0928 -0.7706 -0.2581
 5991SOL    MW423698   2.098   4.965   6.255 -0.4054 -0.4663 -0.5058
 5992SOL     OW23699   0.937   0.966   1.204  0.0295 -0.4370  0.1593
 5992SOL    HW223700   0.853   1.006   1.223 -0.1202 -1.1475  1.0628
 5992SOL    HW323701   0.998   1.009   1.264  0.0093 -1.0087  0.5973
 5992SOL    MW423702   0.934   0.977   1.215  0.3190 -0.1115 -0.3392
 5993SOL     OW23703   1.097   0.457   0.570  0.1691 -0.1128  0.1419
 5993SOL    HW223704   1.178   0.423   0.608 -0.4572 -2.0951 -0.1450
 5993SOL    HW323705   1.028   0.402   0.610 -1.1378  1.9910  0.9560
 5993SOL    MW423706   1.098   0.445   0.581 -0.3684 -0.4767  0.2576
 5994SOL     OW23707   5.473   5.984   4.517 -0.2678 -0.4915  0.6312
 5994SOL    HW223708   5.525   5.960   4.593 -0.1068 -1.5999  0.1855
 5994SOL    HW323709   5.536   5.992   4.446 -0.6591 -1.7895  0.1003
 5994SOL    MW423710   5.488   5.982   4.518  0.0681 -0.2806  0.1878
 5995SOL     OW23711   4.676   6.137   4.672  0.8046 -0.1366 -0.0144
 5995SOL    HW223712   4.676   6.092   4.588 -1.6313 -0.9911  0.3458
 5995SOL    HW323713   4.716   6.075   4.733 -0.6484 -1.0321  0.0800
 5995SOL    MW423714   4.681   6.123   4.669  0.1002  0.0662 -0.4767
 5996SOL     OW23715   1.601   3.096   1.901 -0.0656 -0.3533  0.9582
 5996SOL    HW223716   1.531   3.130   1.846  0.4521 -2.3560 -1.0438
 5996SOL    HW323717   1.557   3.067   1.981 -1.6268 -1.8357 -0.3679
 5996SOL    MW423718   1.586   3.097   1.904  0.9093  0.3763  0.4511
 5997SOL     OW23719   2.962   4.975   0.722  0.1140 -0.0551 -0.4062
 5997SOL    HW223720   3.031   4.909   0.727 -1.0138 -1.1789  1.8025
 5997SOL    HW323721   2.889   4.931   0.678  0.1038  0.4845 -0.9513
 5997SOL    MW423722   2.962   4.960   0.717  0.4102  0.5990 -0.0076
 5998SOL     OW23723   2.505   1.236   1.096  0.2034 -0.1008  0.3828
 5998SOL    HW223724   2.593   1.200   1.104  0.1041 -0.2316  0.9262
 5998SOL    HW323725   2.452   1.184   1.156 -0.0795  0.5111  0.6697
 5998SOL    MW423726   2.509   1.224   1.105 -0.3659  0.2706  0.3611
 5999SOL     OW23727   2.519   2.409   4.948  0.2340  0.7342 -0.0331
 5999SOL    HW223728   2.528   2.487   5.002  0.6365  2.4034 -2.3322
 5999SOL    HW323729   2.533   2.441   4.858 -0.4185 -1.8467 -1.1392
 5999SOL    MW423730   2.522   2.424   4.943 -0.1016 -0.2132  0.9546
 6000SOL     OW23731   5.411   1.562   3.222  0.0738 -0.0576  0.0769
 6000SOL    HW223732   5.503   1.537   3.222 -0.0314 -0.4582 -0.4160
 6000SOL    HW323733   5.409   1.646   3.268  0.4978 -0.6816  1.2727
 6000SOL    MW423734   5.423   1.570   3.228 -0.2689 -0.0245 -0.7937
 6001SOL     OW23735   0.663   0.903   6.344  0.2807 -0.1359  0.3798
 6001SOL    HW223736   0.682   0.889   6.251 -1.0213 -0.5415  0.1557
 6001SOL    HW323737   0.745   0.881   6.388  1.5012  1.8163 -0.7850
 6001SOL    MW423738   0.676   0.898   6.337  0.4292  0.0311  0.0858
 6002SOL     OW23739   5.302   4.062   3.108  0.3766  0.6230  0.4618
 6002SOL    HW223740   5.209   4.045   3.124 -0.6527  4.6638 -0.2683
 6002SOL    HW323741   5.338   4.080   3.195  0.4443 -0.5153  0.6915
 6002SOL    MW423742   5.294   4.062   3.122 -0.1059 -0.2610  0.0963
 6003SOL     OW23743   0.545   5.080   5.973  0.7502 -0.1209  0.5469
 6003SOL    HW223744   0.561   4.986   5.985  0.6963 -0.0673  1.0614
 6003SOL    HW323745   0.556   5.095   5.879 -0.6482 -0.9015  0.2317
 6003SOL    MW423746   0.549   5.070   5.962  0.6195 -0.8753 -0.2726
 6004SOL     OW23747   1.033   5.340   3.392  0.2930  0.4467  0.4318
 6004SOL    HW223748   1.033   5.429   3.427 -1.9443 -0.4078  2.9850
 6004SOL    HW323749   0.987   5.288   3.459 -1.0764 -2.0886 -2.2562
 6004SOL    MW423750   1.027   5.345   3.406 -0.6328 -0.7748  0.0160
 6005SOL     OW23751   5.561   2.262   6.410 -0.3320 -0.0251  0.3379
 6005SOL    HW223752   5.602   2.205   6.475 -0.1260 -0.6947 -0.3622
 6005SOL    HW323753   5.495   2.311   6.459  0.9915  0.7603  1.3950
 6005SOL    MW423754   5.557   2.261   6.425  0.4265 -0.7531  0.0497
 6006SOL     OW23755   3.760   2.131   1.553 -0.0688 -0.4041 -0.5616
 6006SOL    HW223756   3.818   2.160   1.623 -1.0928 -1.6229  0.8551
 6006SOL    HW323757   3.818   2.091   1.488  0.7198 -1.2774  0.6482
 6006SOL    MW423758   3.775   2.130   1.553  0.0209  0.0820  0.1335
 6007SOL     OW23759   4.877   4.130   2.718  0.1584 -0.1644  0.0501
 6007SOL    HW223760   4.913   4.066   2.779  0.4459  1.4497  1.6625
 6007SOL    HW323761   4.932   4.207   2.729  0.2222  0.1832 -2.3069
 6007SOL    MW423762   4.889   4.131   2.728 -0.6019 -0.0054  0.4513
 6008SOL     OW23763   1.255   4.417   1.244 -0.1356 -0.4539 -0.1962
 6008SOL    HW223764   1.202   4.369   1.308  0.7457 -0.5244  0.5062
 6008SOL    HW323765   1.240   4.509   1.266 -1.8280 -0.3521 -1.5452
 6008SOL    MW423766   1.246   4.423   1.255  0.2664 -0.6136 -0.1288
 6009SOL     OW23767   1.808   3.612   5.323  0.3721  0.2310 -0.2885
 6009SOL    HW223768   1.850   3.644   5.243 -0.4522  0.0346 -0.8049
 6009SOL    HW323769   1.776   3.692   5.366  2.1572  0.5043  0.6595
 6009SOL    MW423770   1.810   3.627   5.318  0.2868  0.5677  0.0716
 6010SOL     OW23771   3.281   4.779   2.484  0.1570 -0.1488  0.3705
 6010SOL    HW223772   3.327   4.840   2.425  0.5711 -0.4501  0.3793
 6010SOL    HW323773   3.276   4.698   2.435  2.0110 -0.9269  1.3615
 6010SOL    MW423774   3.286   4.777   2.470 -0.6175  0.7010 -0.4651
 6011SOL     OW23775   3.477   3.885   0.506 -0.4180  0.1607  0.0662
 6011SOL    HW223776   3.478   3.827   0.582 -0.9039 -1.7985 -1.3748
 6011SOL    HW323777   3.389   3.923   0.506 -0.5968 -0.2513  0.1601
 6011SOL    MW423778   3.466   3.883   0.516 -0.2255 -1.0093  0.1240
 6012SOL     OW23779   0.566   3.841   6.089  0.7208  0.1340 -0.0196
 6012SOL    HW223780   0.579   3.773   6.023  2.3454 -0.2833  0.6821
 6012SOL    HW323781   0.536   3.793   6.167 -1.0157  0.6018 -0.3695
 6012SOL    MW423782   0.564   3.825   6.091 -0.4916  0.2949  0.0759
 6013SOL     OW23783   5.287   0.440   1.517 -0.2631 -0.1844  0.6277
 6013SOL    HW223784   5.294   0.504   1.587  1.3868  0.7511 -0.3046
 6013SOL    HW323785   5.236   0.483   1.449 -0.8040 -0.6108  0.7586
 6013SOL    MW423786   5.281   0.454   1.517 -0.1621  0.3674  0.3287
 6014SOL     OW23787   1.110   2.526   1.938 -0.2387 -0.1991 -0.4220
 6014SOL    HW223788   1.096   2.478   1.857  1.7449  0.8885 -1.4697
 6014SOL    HW323789   1.136   2.459   2.002  0.6305 -0.7723 -1.3500
 6014SOL    MW423790   1.111   2.511   1.936  0.1575 -0.2848 -0.1096
 6015SOL     OW23791   5.659   1.537   1.801 -0.4051 -0.2229 -0.7115
 6015SOL    HW223792   5.649   1.466   1.738 -1.6399  0.8682 -1.7798
 6015SOL    HW323793   5.623   1.502   1.882 -1.3567 -0.7030 -1.3257
 6015SOL    MW423794   5.653   1.523   1.803  0.3369 -0.1920  0.1067
 6016SOL     OW23795   0.047   2.133   3.754 -0.1280 -0.0289 -0.2165
 6016SOL    HW223796   0.047   2.229   3.750 -2.3530 -0.0017 -0.4315
 6016SOL    HW323797  -0.004   2.105   3.678 -1.3916 -1.2861  1.0267
 6016SOL    MW423798   0.040   2.142   3.744 -0.5543  0.3868  0.1929
 6017SOL     OW23799   4.663   6.409   5.050  0.1737 -0.0731 -0.6090
 6017SOL    HW223800   4.741   6.398   5.105 -0.5702  0.6587  0.6365
 6017SOL    HW323801   4.605   6.339   5.078 -0.2149  0.3117 -0.4463
 6017SOL    MW423802   4.666   6.398   5.061  0.0296 -0.5728 -0.3897
 6018SOL     OW23803   0.809   2.168   5.751  0.0891  0.1616 -0.3293
 6018SOL    HW223804   0.808   2.245   5.808 -1.6914  0.9785 -1.3854
 6018SOL    HW323805   0.820   2.094   5.811  0.6195  1.1362  0.8271
 6018SOL    MW423806   0.811   2.169   5.766  0.2232  0.0838 -0.1098
 6019SOL     OW23807   1.079   2.761   2.085  0.3624  0.5629 -0.3076
 6019SOL    HW223808   1.113   2.683   2.041 -0.3723  0.5224 -0.8315
 6019SOL    HW323809   1.157   2.808   2.113  0.8299 -0.0311 -0.5735
 6019SOL    MW423810   1.094   2.757   2.083 -0.3435 -0.6909 -0.4326
 6020SOL     OW23811   0.305   2.560   1.639 -0.0614  0.6048 -0.2170
 6020SOL    HW223812   0.399   2.574   1.634 -0.2817  2.1704 -0.4144
 6020SOL    HW323813   0.282   2.517   1.556  0.2496  1.7432 -0.9119
 6020SOL    MW423814   0.314   2.556   1.627  0.6208 -0.1218 -0.3958
 6021SOL     OW23815   0.653   2.229   1.188 -0.3003  0.1446 -0.1958
 6021SOL    HW223816   0.582   2.278   1.230 -0.5824 -0.6538  0.2733
 6021SOL    HW323817   0.712   2.207   1.260 -0.2215 -0.2840 -0.3907
 6021SOL    MW423818   0.652   2.233   1.203 -0.1092  0.0432  0.3410
 6022SOL     OW23819   2.429   0.689   0.459  0.1819 -0.0460 -0.1142
 6022SOL    HW223820   2.443   0.779   0.428 -1.8177 -0.3867 -2.3537
 6022SOL    HW323821   2.509   0.642   0.434  1.2219  1.0511  1.0330
 6022SOL    MW423822   2.441   0.695   0.451 -0.3480  0.1926 -0.0541
 6023SOL     OW23823   5.952   5.010   3.339 -0.2229  0.0676  0.4124
 6023SOL    HW223824   5.869   4.962   3.340 -1.0598  1.4496 -0.3083
 6023SOL    HW323825   6.013   4.951   3.383 -0.9890 -2.0091 -1.1012
 6023SOL    MW423826   5.949   4.996   3.345 -0.0018 -0.2739 -0.4817
 6024SOL     OW23827   2.591   0.580   4.078  0.3699 -0.0337 -0.1552
 6024SOL    HW223828   2.533   0.652   4.054  1.0356 -0.1404 -2.2770
 6024SOL    HW323829   2.558   0.505   4.030  1.3480 -0.4623 -0.1820
 6024SOL    MW423830   2.579   0.580   4.068 -0.4887  0.4889 -0.2614
 6025SOL     OW23831   1.805   0.556   4.730  0.4942  0.8996 -0.4003
 6025SOL    HW223832   1.732   0.545   4.790 -0.1103 -1.3377 -1.4502
 6025SOL    HW323833   1.766   0.589   4.649  0.8900  1.1372 -0.5035
 6025SOL    MW423834   1.790   0.559   4.727  0.1851  0.1730  0.1899
 6026SOL     OW23835   0.348   5.606   4.074  0.1158 -0.1876 -0.2266
 6026SOL    HW223836   0.336   5.587   3.980  0.7616 -1.1653 -0.1272
 6026SOL    HW323837   0.368   5.700   4.077 -1.8688  0.3036 -0.8692
 6026SOL    MW423838   0.349   5.616   4.062  0.2505 -0.1736  0.1384
 6027SOL     OW23839   5.977   2.821   0.166  1.0394 -0.3810 -0.0704
 6027SOL    HW223840   5.885   2.847   0.172  1.2995  1.6989 -2.8856
 6027SOL    HW323841   5.991   2.765   0.242 -1.9411  1.0216  1.7107
 6027SOL    MW423842   5.967   2.817   0.177 -0.0301 -0.4996  0.4572
 6028SOL     OW23843   3.394   3.150   6.098 -0.2338  0.0396  0.2019
 6028SOL    HW223844   3.360   3.239   6.102 -0.1065  0.0335  2.8798
 6028SOL    HW323845   3.321   3.095   6.126 -0.1534 -0.6864 -0.9346
 6028SOL    MW423846   3.380   3.154   6.102  0.5331  0.3920  0.4855
 6029SOL     OW23847   1.448   4.201   6.104 -0.4758  0.1848 -0.2997
 6029SOL    HW223848   1.357   4.174   6.087 -0.6640 -0.7362  1.8403
 6029SOL    HW323849   1.495   4.180   6.024 -1.6503 -1.8097 -0.5280
 6029SOL    MW423850   1.442   4.195   6.092  0.1549 -0.0936 -0.2164
 6030SOL     OW23851   6.152   4.093   3.835  0.2552  0.1499 -0.4065
 6030SOL    HW223852   6.190   4.107   3.922 -0.8552  0.8415 -0.0053
 6030SOL    HW323853   6.090   4.022   3.848  0.2706  0.0865 -0.6874
 6030SOL    MW423854   6.148   4.086   3.848 -0.5855  0.2922 -0.4341
 6031SOL     OW23855   1.203   2.815   1.224  0.1547  0.4671 -0.2724
 6031SOL    HW223856   1.177   2.897   1.267  0.4592  0.4888 -0.1286
 6031SOL    HW323857   1.231   2.759   1.296  1.4342  0.7766 -0.5062
 6031SOL    MW423858   1.203   2.819   1.239  0.1854 -0.0788  0.0420
 6032SOL     OW23859   2.694   6.332   5.859 -0.5484 -0.1349 -0.3154
 6032SOL    HW223860   2.642   6.411   5.874 -0.5573 -0.1814 -0.0911
 6032SOL    HW323861   2.727   6.309   5.946 -1.4156 -0.9827 -0.2037
 6032SOL    MW423862   2.692   6.340   5.873  0.2353  0.3939 -0.6543
 6033SOL     OW23863   5.899   2.603   5.652  0.0767 -0.9039  0.6303
 6033SOL    HW223864   5.979   2.634   5.610  0.8145 -0.8380  2.0203
 6033SOL    HW323865   5.836   2.674   5.637  0.2910 -0.9135 -0.3932
 6033SOL    MW423866   5.901   2.617   5.645  0.1099  0.2411 -0.4249
 6034SOL     OW23867   3.335   3.374   5.667 -0.5141 -0.1495 -0.5209
 6034SOL    HW223868   3.310   3.375   5.575 -0.4204  1.2093 -0.5572
 6034SOL    HW323869   3.373   3.287   5.682 -0.0819 -0.2062 -1.8749
 6034SOL    MW423870   3.336   3.363   5.657 -0.2329 -0.2472 -0.0096
 6035SOL     OW23871   2.143   5.573   2.951 -0.1686  0.0896  0.4160
 6035SOL    HW223872   2.160   5.500   2.891 -0.1700  0.1439  0.3495
 6035SOL    HW323873   2.212   5.637   2.931 -0.0419  0.0179  0.6173
 6035SOL    MW423874   2.155   5.571   2.940 -0.4167  0.0802  0.0160
 6036SOL     OW23875   4.244   4.172   0.806  0.0825  0.9222  0.1685
 6036SOL    HW223876   4.329   4.152   0.765 -0.3073 -0.8112  0.1743
 6036SOL    HW323877   4.205   4.087   0.824 -1.6033  1.7002  0.3239
 6036SOL    MW423878   4.250   4.158   0.803 -0.1203 -0.0619  1.1870
 6037SOL     OW23879   1.506   5.963   3.927 -0.8361  0.3898 -0.1146
 6037SOL    HW223880   1.521   6.050   3.888 -1.8160  0.7681  0.3328
 6037SOL    HW323881   1.411   5.957   3.936 -0.6576  0.4606  2.5189
 6037SOL    MW423882   1.496   5.974   3.923  0.1494  1.1469  0.0908
 6038SOL     OW23883   4.964   2.403   4.666  0.2928 -0.3558 -0.5392
 6038SOL    HW223884   4.893   2.461   4.695  0.1634  0.2707 -2.0048
 6038SOL    HW323885   4.975   2.425   4.573  3.9491  1.2175  0.1019
 6038SOL    MW423886   4.956   2.414   4.657 -0.3313  1.0848  0.5049
 6039SOL     OW23887   5.119   2.234   3.704 -0.3061  0.3505  0.2051
 6039SOL    HW223888   5.096   2.176   3.776 -2.2951  0.7530 -0.0517
 6039SOL    HW323889   5.038   2.242   3.653  1.0653 -0.1185 -2.2229
 6039SOL    MW423890   5.105   2.227   3.707  0.7005  0.1955  0.8458
 6040SOL     OW23891   3.626   0.369   0.228  0.4608  0.1264  0.8890
 6040SOL    HW223892   3.642   0.316   0.306  1.3276 -1.3934 -0.2630
 6040SOL    HW323893   3.683   0.330   0.161 -1.1095  0.6536 -0.8233
 6040SOL    MW423894   3.636   0.357   0.229 -0.1908  0.0420 -0.0073
 6041SOL     OW23895   1.995   5.217   3.716 -0.0005  0.2300 -0.2699
 6041SOL    HW223896   1.933   5.158   3.674 -0.4389  0.2449  0.3269
 6041SOL    HW323897   2.052   5.160   3.767 -0.1548  0.2861 -0.0317
 6041SOL    MW423898   1.994   5.202   3.718 -0.3936 -0.2418  0.1309
 6042SOL     OW23899   1.691   0.562   2.651 -0.0620 -0.4808 -0.0833
 6042SOL    HW223900   1.672   0.542   2.559  0.2051 -0.8854 -0.0580
 6042SOL    HW323901   1.640   0.497   2.700  2.2422 -2.4216 -0.0473
 6042SOL    MW423902   1.682   0.550   2.645 -0.0533  0.1694  0.2506
 6043SOL     OW23903   5.565   2.715   1.896  0.3006 -0.3092  0.3820
 6043SOL    HW223904   5.631   2.772   1.936 -0.3786  1.2254 -0.5933
 6043SOL    HW323905   5.488   2.724   1.952 -0.0931  0.4604 -0.2691
 6043SOL    MW423906   5.563   2.723   1.909 -0.1441 -0.7827 -0.7920
 6044SOL     OW23907   0.077   3.042   5.649 -0.5255 -0.4034  0.0788
 6044SOL    HW223908   0.149   2.981   5.663  0.0965  0.4640  0.7994
 6044SOL    HW323909   0.001   3.000   5.691 -0.4112 -1.2351 -0.5248
 6044SOL    MW423910   0.076   3.028   5.656  0.2010  0.7910 -0.3872
 6045SOL     OW23911   4.513   0.569   5.499 -0.4424  0.7572  0.3787
 6045SOL    HW223912   4.599   0.532   5.476 -0.4674  1.6671 -1.3636
 6045SOL    HW323913   4.458   0.493   5.517  0.4146  0.0991  0.2871
 6045SOL    MW423914   4.517   0.554   5.498 -0.0818  0.2966 -0.2468
 6046SOL     OW23915   4.662   3.790   5.362 -0.0122 -0.4570  0.7453
 6046SOL    HW223916   4.665   3.837   5.445  0.0114 -0.8067  0.9418
 6046SOL    HW323917   4.687   3.700   5.384  0.9547 -0.3408  0.2103
 6046SOL    MW423918   4.666   3.784   5.376  0.3469 -0.5455  0.0206
 6047SOL     OW23919   3.189   0.954   0.224 -0.8533 -0.0852  0.2174
 6047SOL    HW223920   3.278   0.950   0.189 -0.9620  0.6919 -0.1713
 6047SOL    HW323921   3.138   0.897   0.168 -0.6604 -0.3042  0.2625
 6047SOL    MW423922   3.194   0.946   0.212  0.4135  0.0837 -0.4433
 6048SOL     OW23923   4.414   4.519   1.496  0.1499 -0.3480 -0.8075
 6048SOL    HW223924   4.475   4.537   1.425 -0.6174  1.7875 -0.9736
 6048SOL    HW323925   4.470   4.505   1.573  0.9052 -1.0260 -1.4627
 6048SOL    MW423926   4.429   4.519   1.497  0.7164  0.0613  0.4026
 6049SOL     OW23927   6.169   1.246   5.961 -0.1493 -0.5996  0.2986
 6049SOL    HW223928   6.217   1.324   5.934  0.4373 -1.6681 -2.0352
 6049SOL    HW323929   6.195   1.232   6.052  1.5898  0.5912  0.0399
 6049SOL    MW423930   6.179   1.254   5.969 -0.0349 -0.4489  0.2080
 6050SOL     OW23931   0.040   5.618   0.546 -0.0169  0.1791 -0.7303
 6050SOL    HW223932   0.002   5.545   0.497  0.8561 -0.3178 -0.6928
 6050SOL    HW323933   0.033   5.591   0.638 -1.2067  0.8933 -0.5901
 6050SOL    MW423934   0.034   5.605   0.552 -0.4051  0.2981 -0.3982
 6051SOL     OW23935   3.424   2.606   3.516  0.4262  0.4560  0.3858
 6051SOL    HW223936   3.432   2.673   3.449 -0.2679 -0.4676 -0.6390
 6051SOL    HW323937   3.336   2.571   3.505  0.9206 -0.9046  0.6284
 6051SOL    MW423938   3.413   2.610   3.506 -0.0795 -0.2225  0.0145
 6052SOL     OW23939   3.235   1.983   2.581  0.2846 -0.4424  0.0018
 6052SOL    HW223940   3.178   1.910   2.601  0.5029 -0.3523  0.9966
 6052SOL    HW323941   3.324   1.947   2.590  0.4421 -0.8729 -2.5718
 6052SOL    MW423942   3.239   1.969   2.585  0.4197  0.3896  0.1096
 6053SOL     OW23943   4.953   1.738   0.572  0.3596 -0.2173 -0.1986
 6053SOL    HW223944   5.034   1.788   0.576 -0.2351  0.7222  0.6642
 6053SOL    HW323945   4.945   1.697   0.658  1.1000 -2.2724 -1.0619
 6053SOL    MW423946   4.962   1.740   0.584 -0.2782 -0.3341 -0.1822
 6054SOL     OW23947   1.628   0.030   2.265 -0.4943  0.4896 -0.4630
 6054SOL    HW223948   1.591  -0.034   2.205  0.7162 -0.5814 -0.1113
 6054SOL    HW323949   1.705   0.064   2.221 -1.0352  1.6256 -0.5797
 6054SOL    MW423950   1.633   0.026   2.251 -0.6696  0.2663  0.3681
 6055SOL     OW23951   3.836   1.646   0.626  0.0351  0.3207  0.5198
 6055SOL    HW223952   3.927   1.667   0.648 -0.1741  1.7230  0.1423
 6055SOL    HW323953   3.830   1.551   0.637  2.4500 -0.3599 -2.5110
 6055SOL    MW423954   3.848   1.636   0.630  0.2575  0.7541 -0.3989
 6056SOL     OW23955   6.277   3.335   5.418 -0.2646 -0.0127 -0.6777
 6056SOL    HW223956   6.342   3.372   5.358  2.2697 -0.6953  1.4901
 6056SOL    HW323957   6.273   3.242   5.395 -0.9594  0.1355 -1.1896
 6056SOL    MW423958   6.285   3.328   5.407  0.4420 -0.0696 -0.1816
 6057SOL     OW23959   1.476   0.475   2.183 -0.2484 -0.0564 -0.0704
 6057SOL    HW223960   1.530   0.521   2.118  0.7941 -2.5150 -1.0806
 6057SOL    HW323961   1.448   0.395   2.138 -0.3712 -1.3501  2.1737
 6057SOL    MW423962   1.479   0.471   2.168 -0.3715  0.3636  0.1441
 6058SOL     OW23963   5.585   0.463   1.985 -0.8065 -0.8746 -0.0868
 6058SOL    HW223964   5.514   0.417   2.029 -1.3050  0.0275  0.0742
 6058SOL    HW323965   5.548   0.548   1.960  1.2727  1.4438  3.7120
 6058SOL    MW423966   5.571   0.469   1.988 -0.8071  0.3111 -0.0640
 6059SOL     OW23967   6.348   2.318   1.058 -0.0566 -0.2470 -0.3597
 6059SOL    HW223968   6.287   2.271   1.115  1.2429 -1.6351 -0.0652
 6059SOL    HW323969   6.307   2.314   0.971 -1.7059  1.2770  0.3050
 6059SOL    MW423970   6.334   2.311   1.054  0.7673 -0.3048  0.6061
 6060SOL     OW23971   3.676   0.861   5.706 -0.0473 -0.0585 -0.2703
 6060SOL    HW223972   3.648   0.912   5.782 -0.3006 -0.6161  0.0149
 6060SOL    HW323973   3.703   0.926   5.642 -1.0281  0.4596 -0.1724
 6060SOL    MW423974   3.676   0.876   5.708  0.3207  0.7731  0.1664
 6061SOL     OW23975   1.296   5.227   0.586  0.7937 -0.0041  0.2776
 6061SOL    HW223976   1.383   5.263   0.605  1.4762 -0.3808 -1.8499
 6061SOL    HW323977   1.304   5.192   0.498 -1.6523  0.2701 -0.1059
 6061SOL    MW423978   1.309   5.227   0.577  0.2788 -0.0683  0.0358
 6062SOL     OW23979   3.316   0.072   1.910  0.0027  0.0365  0.4635
 6062SOL    HW223980   3.323   0.099   1.819 -1.1992 -0.0875  0.3221
 6062SOL    HW323981   3.402   0.093   1.948  0.2335  0.8643 -0.4827
 6062SOL    MW423982   3.328   0.078   1.903 -0.1880 -0.0061  0.3095
 6063SOL     OW23983   4.089   2.984   5.155 -0.5184 -0.1165 -0.7874
 6063SOL    HW223984   4.064   3.075   5.139  0.3444  0.3671  0.4468
 6063SOL    HW323985   4.159   2.967   5.091  0.6335  0.7309  0.1959
 6063SOL    MW423986   4.095   2.994   5.144  0.0606 -0.1945  0.2245
 6064SOL     OW23987   4.599   0.189   0.124  0.1615  0.6843  0.5312
 6064SOL    HW223988   4.586   0.284   0.132 -1.0324  0.6849 -0.8543
 6064SOL    HW323989   4.649   0.179   0.043 -0.9689  0.0975 -0.1238
 6064SOL    MW423990   4.604   0.201   0.114 -0.3592 -0.1188  0.6505
 6065SOL     OW23991   5.340   2.027   0.161 -0.1311 -0.2475 -0.4608
 6065SOL    HW223992   5.292   2.101   0.124 -0.7568 -0.4475 -0.0803
 6065SOL    HW323993   5.306   1.951   0.114  0.9579 -0.2493 -1.2908
 6065SOL    MW423994   5.329   2.027   0.150 -0.4237  0.1637  0.5754
 6066SOL     OW23995   0.125   0.058   4.480 -0.2569 -0.1258  0.2817
 6066SOL    HW223996   0.176  -0.004   4.533 -0.9171 -0.2892  0.7403
 6066SOL    HW323997   0.047   0.008   4.453 -0.4883  0.3137  0.1258
 6066SOL    MW423998   0.121   0.043   4.483  0.1917 -0.1490  0.7488
 6067SOL     OW23999   4.214   5.481   5.512 -0.1056  0.1108  0.4149
 6067SOL    HW224000   4.176   5.441   5.434 -0.9567  0.4515  0.6392
 6067SOL    HW324001   4.287   5.534   5.479 -0.0090 -0.3169 -0.0656
 6067SOL    MW424002   4.219   5.483   5.497  0.6095 -0.5583 -0.0694
 6068SOL     OW24003   1.219   1.392   2.557 -0.0333 -0.2767 -0.3323
 6068SOL    HW224004   1.283   1.402   2.628 -0.7977  0.3131  0.3029
 6068SOL    HW324005   1.247   1.454   2.490 -0.5754  0.8392  0.4412
 6068SOL    MW424006   1.231   1.402   2.558 -0.3232 -0.1395  0.1280
 6069SOL     OW24007   5.828   0.648   2.581  0.2456 -0.2537 -0.1840
 6069SOL    HW224008   5.875   0.565   2.570 -1.2704 -1.2239  0.3166
 6069SOL    HW324009   5.893   0.708   2.616  1.3193 -1.3016 -0.3276
 6069SOL    MW424010   5.843   0.645   2.584 -0.2911 -0.8533 -0.1037
 6070SOL     OW24011   6.166   1.464   1.165  0.1959  0.3582 -0.1681
 6070SOL    HW224012   6.170   1.472   1.069  0.5492  0.3321 -0.1592
 6070SOL    HW324013   6.081   1.424   1.182  0.4338 -0.3067 -0.5156
 6070SOL    MW424014   6.155   1.460   1.154 -0.1086  0.0658  0.4570
 6071SOL     OW24015   5.923   5.989   1.059  0.1220  0.3070 -0.2084
 6071SOL    HW224016   5.982   5.934   1.110  0.6618  1.7263  0.7757
 6071SOL    HW324017   5.901   5.936   0.982  1.1038 -1.0136  0.3801
 6071SOL    MW424018   5.928   5.975   1.055 -0.2003  0.0060 -0.2527
 6072SOL     OW24019   2.733   2.292   6.311  0.5971 -0.2843  0.0478
 6072SOL    HW224020   2.650   2.330   6.340 -0.0207 -1.3222 -0.2961
 6072SOL    HW324021   2.723   2.283   6.217  0.7806 -1.1057  0.0924
 6072SOL    MW424022   2.720   2.296   6.303 -0.1375  0.5254  0.0731
 6073SOL     OW24023   5.522   4.739   3.667  0.6799  0.2323 -0.0779
 6073SOL    HW224024   5.570   4.789   3.733  1.3942  1.0388 -1.1853
 6073SOL    HW324025   5.487   4.664   3.715 -0.4983  1.8025  1.6635
 6073SOL    MW424026   5.524   4.736   3.682  0.0475 -0.5000  0.2802
 6074SOL     OW24027   2.665   2.030   3.315  0.3302  0.4928  0.3325
 6074SOL    HW224028   2.614   1.957   3.280  0.4627  0.0421  1.0602
 6074SOL    HW324029   2.600   2.093   3.347  0.2009 -0.3354  1.7839
 6074SOL    MW424030   2.650   2.029   3.315 -0.8264  0.3516  0.7949
 6075SOL     OW24031   3.977   2.402   3.622  0.0766  0.0850 -0.6639
 6075SOL    HW224032   3.912   2.472   3.622  0.5227  0.5756 -3.1867
 6075SOL    HW324033   4.049   2.437   3.675 -0.1004  1.1594 -1.1117
 6075SOL    MW424034   3.978   2.416   3.629 -0.4975  0.3528  0.1690
 6076SOL     OW24035   5.402   3.573   1.925  0.6199  0.0519  0.0626
 6076SOL    HW224036   5.374   3.663   1.944 -1.3146  0.0634 -2.3341
 6076SOL    HW324037   5.485   3.583   1.878  1.0904  0.4789  0.9581
 6076SOL    MW424038   5.409   3.586   1.921 -0.1809  0.6751  0.3486
 6077SOL     OW24039   5.244   4.158   3.963 -0.0386 -0.2310  0.4494
 6077SOL    HW224040   5.296   4.238   3.959  1.1034 -0.8720  1.7608
 6077SOL    HW324041   5.196   4.157   3.880  2.4416  0.1337 -1.1212
 6077SOL    MW424042   5.245   4.169   3.951  0.1208  0.1148 -0.2232
 6078SOL     OW24043   3.567   2.261   1.793 -0.6779  0.5839 -0.6984
 6078SOL    HW224044   3.615   2.325   1.740  1.1755 -0.5471 -0.4578
 6078SOL    HW324045   3.533   2.198   1.729 -0.9403  0.7983 -0.7738
 6078SOL    MW424046   3.568   2.261   1.777 -0.2597  0.1737  0.2122
 6079SOL     OW24047   2.482   0.406   3.886  0.4595  0.5353 -0.0461
 6079SOL    HW224048   2.387   0.398   3.873  0.4481 -2.3194  1.1378
 6079SOL    HW324049   2.509   0.473   3.822 -2.4010  1.9319  0.0566
 6079SOL    MW424050   2.473   0.414   3.876 -0.0084 -0.2477 -0.4225
 6080SOL     OW24051   3.073   4.597   5.692 -0.1916  0.2947  0.0579
 6080SOL    HW224052   3.013   4.529   5.723  1.4116 -0.4287  1.7327
 6080SOL    HW324053   3.090   4.573   5.601  0.2327 -1.5152  0.5666
 6080SOL    MW424054   3.067   4.585   5.684 -0.2181  0.0516  0.3289
 6081SOL     OW24055   4.849   3.070   2.159 -0.2778  0.0276  0.7465
 6081SOL    HW224056   4.851   3.166   2.156  0.2851  0.0758  2.0247
 6081SOL    HW324057   4.838   3.049   2.252  0.6847 -1.1589  0.6231
 6081SOL    MW424058   4.848   3.080   2.171  0.5562  0.7048 -0.3174
 6082SOL     OW24059   3.880   2.314   2.123 -0.3841 -0.4472 -0.2999
 6082SOL    HW224060   3.876   2.280   2.212  2.1425 -0.7314 -0.1965
 6082SOL    HW324061   3.803   2.278   2.079  0.4108 -3.7030  0.6922
 6082SOL    MW424062   3.870   2.305   2.129 -0.6887 -0.3007  0.0358
 6083SOL     OW24063   1.151   0.054   3.108  0.4897  0.0526  0.1223
 6083SOL    HW224064   1.190   0.136   3.138  1.6748 -0.4412 -0.0107
 6083SOL    HW324065   1.070   0.080   3.065  1.8344  1.4191 -1.8053
 6083SOL    MW424066   1.146   0.068   3.106 -0.2050 -0.1059  0.5096
 6084SOL     OW24067   5.354   2.567   3.905 -0.2184 -0.0083 -0.6955
 6084SOL    HW224068   5.437   2.593   3.866  0.1557 -0.1820 -0.0307
 6084SOL    HW324069   5.326   2.491   3.853  0.2179 -0.1752 -0.6909
 6084SOL    MW424070   5.361   2.561   3.893 -0.5327 -0.2287 -0.5951
 6085SOL     OW24071   5.886   2.237   4.342 -0.0758  0.0722  0.0578
 6085SOL    HW224072   5.859   2.258   4.253 -2.5245  0.2744  0.7858
 6085SOL    HW324073   5.895   2.322   4.385 -0.2760 -0.0682  0.3782
 6085SOL    MW424074   5.884   2.251   4.336  0.5154 -0.1018  0.3869
 6086SOL     OW24075   0.547   3.740   4.558  0.1798  0.0704  0.2416
 6086SOL    HW224076   0.616   3.794   4.520  1.0552  0.3304  2.0603
 6086SOL    HW324077   0.588   3.654   4.569 -0.7114 -0.5780 -1.2030
 6086SOL    MW424078   0.561   3.735   4.555 -0.0048  0.3013 -0.1271
 6087SOL     OW24079   5.742   3.333   1.898  0.4081  0.1203 -0.4246
 6087SOL    HW224080   5.790   3.333   1.980 -0.7924 -0.8955  0.3098
 6087SOL    HW324081   5.782   3.262   1.847 -0.8922 -1.3873  0.5755
 6087SOL    MW424082   5.754   3.324   1.902  0.1537 -0.5140  0.3264
 6088SOL     OW24083   1.256   3.201   1.995  0.3051 -0.4852  0.1802
 6088SOL    HW224084   1.288   3.231   1.910 -1.7116  0.2772 -0.3554
 6088SOL    HW324085   1.271   3.276   2.053 -0.8229  0.0469 -0.1765
 6088SOL    MW424086   1.262   3.215   1.992 -0.6650  0.8851  0.2748
 6089SOL     OW24087   6.038   5.455   0.055  0.2808 -0.4839 -0.2089
 6089SOL    HW224088   6.127   5.462   0.020  0.6262 -1.0225  0.5135
 6089SOL    HW324089   5.987   5.415  -0.015  0.7089 -0.5620 -0.4772
 6089SOL    MW424090   6.043   5.451   0.041 -0.8567  0.3124  0.4880
 6090SOL     OW24091   2.239   4.912   0.173 -0.3041 -0.1540 -0.2136
 6090SOL    HW224092   2.229   5.007   0.176  1.0262 -0.0088  0.2306
 6090SOL    HW324093   2.220   4.883   0.262 -0.7568 -0.3210 -0.3600
 6090SOL    MW424094   2.235   4.921   0.185  0.8320  0.1657  0.5967
 6091SOL     OW24095   5.897   1.400   3.753 -0.0724  0.7188 -0.2365
 6091SOL    HW224096   5.851   1.317   3.768 -2.4989  1.8797 -0.7899
 6091SOL    HW324097   5.982   1.389   3.797 -0.1888 -2.1289 -0.5230
 6091SOL    MW424098   5.902   1.388   3.761 -0.2059 -0.1199 -0.3914
 6092SOL     OW24099   3.591   0.643   0.302 -0.2954 -0.1556 -0.2876
 6092SOL    HW224100   3.668   0.658   0.356 -0.7908 -0.0031  0.3799
 6092SOL    HW324101   3.604   0.556   0.264  0.7017  0.2938 -1.0288
 6092SOL    MW424102   3.603   0.634   0.304  0.3084 -0.2104 -0.4587
 6093SOL     OW24103   1.424   2.065   4.595 -0.0018  0.0468 -0.1082
 6093SOL    HW224104   1.400   2.108   4.513 -1.0883 -0.2515  0.0332
 6093SOL    HW324105   1.496   2.006   4.572  0.0748  0.3780 -0.7280
 6093SOL    MW424106   1.430   2.063   4.581 -0.7077 -0.0602  0.2878
 6094SOL     OW24107   4.429   4.421   1.770 -0.4431  0.3174  0.1235
 6094SOL    HW224108   4.337   4.434   1.747 -0.1706 -0.0267 -1.2520
 6094SOL    HW324109   4.429   4.348   1.832 -1.0146 -0.3948 -0.6922
 6094SOL    MW424110   4.417   4.413   1.775 -0.1208  0.2392 -0.0122
 6095SOL     OW24111   6.177   1.614   4.121 -0.0902 -0.1038  0.4665
 6095SOL    HW224112   6.128   1.579   4.195  1.6165 -1.5397  0.9817
 6095SOL    HW324113   6.269   1.602   4.145  0.5196  0.4540 -1.4002
 6095SOL    MW424114   6.183   1.608   4.134  0.4254  0.2352 -0.1015
 6096SOL     OW24115   1.065   1.243   4.364  0.0283 -0.0353  0.0785
 6096SOL    HW224116   1.068   1.320   4.421 -1.2703  1.5995 -1.9497
 6096SOL    HW324117   1.092   1.276   4.279 -0.4188 -1.8775 -0.8072
 6096SOL    MW424118   1.069   1.258   4.361 -0.0217 -0.7217 -0.1187
 6097SOL     OW24119   4.559   5.498   4.974 -0.3879  0.4943 -0.2331
 6097SOL    HW224120   4.606   5.570   4.932  0.2838  0.8291  1.0529
 6097SOL    HW324121   4.581   5.422   4.920  1.3892  0.7072  0.1144
 6097SOL    MW424122   4.568   5.497   4.961  0.3785  0.3090  0.1124
 6098SOL     OW24123   5.116   2.048   1.576 -0.3946  0.1457  0.0776
 6098SOL    HW224124   5.154   2.001   1.650 -1.1304 -0.4546  0.0854
 6098SOL    HW324125   5.144   1.999   1.499 -2.2516 -1.1465  0.1558
 6098SOL    MW424126   5.125   2.036   1.575  0.3271 -0.4432 -0.1651
 6099SOL     OW24127   3.701   1.658   2.113  0.6187 -0.3452 -0.3940
 6099SOL    HW224128   3.754   1.580   2.097 -0.5874 -1.0407 -1.1740
 6099SOL    HW324129   3.757   1.731   2.086  1.3413 -1.0233 -0.7849
 6099SOL    MW424130   3.715   1.658   2.107  0.1888  0.8568 -0.6353
 6100SOL     OW24131   2.081   6.268   3.232  0.4696 -0.5884  0.0559
 6100SOL    HW224132   2.152   6.210   3.257  0.4290 -0.6995 -0.0865
 6100SOL    HW324133   2.035   6.222   3.162  0.2906 -0.4935  0.1085
 6100SOL    MW424134   2.084   6.254   3.226 -0.5051 -0.2994 -0.1736
 6101SOL     OW24135   1.737   3.018   4.631  0.1209  0.4756  0.2427
 6101SOL    HW224136   1.754   3.112   4.633 -0.8091  0.6810 -0.4921
 6101SOL    HW324137   1.721   2.994   4.722 -1.9205  1.5034  0.2087
 6101SOL    MW424138   1.737   3.027   4.643 -0.3568 -0.1439 -0.3992
 6102SOL     OW24139   6.093   3.242   5.689 -0.0055 -0.7340 -0.3139
 6102SOL    HW224140   6.110   3.154   5.724  0.5674 -0.5995 -0.2434
 6102SOL    HW324141   6.169   3.293   5.716 -1.0810  0.2136  1.0348
 6102SOL    MW424142   6.105   3.237   5.697 -0.1022 -0.3063  0.1534
 6103SOL     OW24143   1.988   3.583   3.909 -0.0894 -0.5165  0.0224
 6103SOL    HW224144   1.973   3.677   3.922 -0.8740 -0.6461  0.0917
 6103SOL    HW324145   1.984   3.546   3.997 -0.5159 -0.7089 -0.0719
 6103SOL    MW424146   1.985   3.591   3.922  0.3864 -0.3958 -0.2491
 6104SOL     OW24147   2.563   4.267   0.268 -0.7035  0.0362 -0.4816
 6104SOL    HW224148   2.606   4.268   0.354  0.5755  0.7429 -1.1065
 6104SOL    HW324149   2.538   4.358   0.252  0.6753  0.2667 -1.6002
 6104SOL    MW424150   2.565   4.279   0.277 -0.0404 -0.4409 -1.3565
 6105SOL     OW24151   4.033   4.449   5.577  0.2661 -0.0525  0.5190
 6105SOL    HW224152   3.989   4.366   5.556 -1.4574  1.1984 -1.1434
 6105SOL    HW324153   3.981   4.485   5.650 -1.3087  1.1946 -1.1262
 6105SOL    MW424154   4.020   4.443   5.584  0.0521  0.0550  0.0827
 6106SOL     OW24155   5.097   2.532   2.468 -0.5406  0.0765  0.3528
 6106SOL    HW224156   5.080   2.621   2.498 -2.9190 -1.0550  2.8337
 6106SOL    HW324157   5.027   2.514   2.405 -0.0517 -0.0616 -0.1635
 6106SOL    MW424158   5.085   2.542   2.464 -0.2570 -0.0832  0.5131
 6107SOL     OW24159   0.199   2.812   5.338  0.0084  0.4853  0.3795
 6107SOL    HW224160   0.287   2.782   5.359 -0.3314 -0.0384  1.1243
 6107SOL    HW324161   0.195   2.901   5.373  0.2982  0.5769  0.1805
 6107SOL    MW424162   0.210   2.820   5.346 -0.0429  0.5094  0.1483
 6108SOL     OW24163   1.259   1.210   5.746  0.2762 -0.3318  0.2589
 6108SOL    HW224164   1.355   1.201   5.752  0.4346  0.3719 -0.9384
 6108SOL    HW324165   1.245   1.275   5.677 -1.0953 -1.4265 -0.5634
 6108SOL    MW424166   1.270   1.217   5.737  0.0574  0.3841  0.1721
 6109SOL     OW24167   4.616   5.589   1.042  0.1910  0.1106  0.0818
 6109SOL    HW224168   4.546   5.595   0.977 -0.6384  0.0824  0.9652
 6109SOL    HW324169   4.595   5.511   1.093  0.8355  0.1414  0.3983
 6109SOL    MW424170   4.604   5.580   1.040  0.3393 -0.1387  0.3961
 6110SOL     OW24171   0.610   4.482   0.855 -0.0395  0.2575 -0.1295
 6110SOL    HW224172   0.525   4.467   0.814  0.2688  2.1527 -1.5958
 6110SOL    HW324173   0.646   4.394   0.869 -1.1974 -0.5173 -1.7515
 6110SOL    MW424174   0.604   4.468   0.851 -0.5564  0.1605 -0.3777
 6111SOL     OW24175   4.690   5.565   0.013 -0.2245  0.2674  0.0045
 6111SOL    HW224176   4.770   5.613   0.034 -0.2550 -0.1727  1.1720
 6111SOL    HW324177   4.702   5.478   0.051 -1.5355  0.4082  0.8312
 6111SOL    MW424178   4.702   5.560   0.021  0.2278  0.0217 -0.2049
 6112SOL     OW24179   0.095   3.988   2.549 -0.5085 -0.6230  0.3640
 6112SOL    HW224180   0.021   3.982   2.489 -0.4470 -0.5541  0.2821
 6112SOL    HW324181   0.058   3.963   2.634 -0.8890  0.5009  0.5452
 6112SOL    MW424182   0.080   3.984   2.552  0.0642  0.1013 -0.6688
 6113SOL     OW24183   6.142   0.756   5.435  0.5006 -0.1627  0.1679
 6113SOL    HW224184   6.218   0.807   5.465  1.7990 -2.0854  0.2950
 6113SOL    HW324185   6.092   0.817   5.381  2.0857  1.1798  0.1492
 6113SOL    MW424186   6.145   0.771   5.432  0.4635 -0.0242  0.5215
 6114SOL     OW24187   0.556   0.334   2.999  0.4693 -0.1751  0.5351
 6114SOL    HW224188   0.570   0.240   3.008  0.8016  0.0425  2.6888
 6114SOL    HW324189   0.502   0.342   2.920  0.6941 -2.1216  0.1177
 6114SOL    MW424190   0.551   0.323   2.990  0.7573  0.0857  0.2837
 6115SOL     OW24191   5.722   3.611   6.069  0.2386 -1.1665  0.5337
 6115SOL    HW224192   5.739   3.523   6.103 -0.1960 -1.0197  1.1518
 6115SOL    HW324193   5.806   3.640   6.034  0.1239 -2.2846 -0.7626
 6115SOL    MW424194   5.735   3.603   6.069 -0.0611 -1.1535  0.1927
 6116SOL     OW24195   1.028   4.174   6.187 -0.1307 -0.0123  0.1020
 6116SOL    HW224196   0.955   4.112   6.198  0.4113 -0.1844  3.8217
 6116SOL    HW324197   1.081   4.135   6.117 -0.1506 -3.5545  1.8114
 6116SOL    MW424198   1.025   4.161   6.179  0.2578 -0.0872 -0.2826
 6117SOL     OW24199   1.712   5.982   6.355  0.3220  0.0030  0.1952
 6117SOL    HW224200   1.655   6.053   6.328 -0.5406 -0.0966  1.6343
 6117SOL    HW324201   1.655   5.922   6.403  1.5346 -0.3414  1.2788
 6117SOL    MW424202   1.697   5.983   6.358 -0.0437  0.5173  0.3408
 6118SOL     OW24203   4.677   2.684   5.034  0.1501  0.6826  0.3893
 6118SOL    HW224204   4.715   2.630   5.103  0.8180  2.2750  1.3207
 6118SOL    HW324205   4.714   2.648   4.953  0.0994 -0.6181  0.9128
 6118SOL    MW424206   4.687   2.672   5.033  0.2322 -0.1761  0.0038
 6119SOL     OW24207   3.255   3.422   0.815 -0.0214 -0.2564 -0.2978
 6119SOL    HW224208   3.341   3.407   0.776 -0.0179 -0.5114 -0.1887
 6119SOL    HW324209   3.193   3.391   0.749 -0.0314 -0.0788 -0.3737
 6119SOL    MW424210   3.258   3.416   0.801 -0.4120  0.2231 -0.6350
 6120SOL     OW24211   1.498   5.486   5.565  0.2195 -0.2694  0.2617
 6120SOL    HW224212   1.467   5.576   5.553  0.9524  0.0660  0.7742
 6120SOL    HW324213   1.450   5.453   5.640 -0.5940 -0.5707 -0.3817
 6120SOL    MW424214   1.488   5.494   5.573 -0.0848  0.7092 -0.1655
 6121SOL     OW24215   0.830   5.927   3.055 -0.1571 -0.2926  0.3252
 6121SOL    HW224216   0.851   5.834   3.063 -3.2201 -1.1190 -0.1060
 6121SOL    HW324217   0.801   5.938   2.964  2.0519  1.5958 -0.2523
 6121SOL    MW424218   0.829   5.916   3.044  0.2511  0.4783  0.3198
 6122SOL     OW24219   2.838   1.255   1.588  0.3160  0.7205  0.1112
 6122SOL    HW224220   2.809   1.289   1.673  0.0744  2.0593 -0.4867
 6122SOL    HW324221   2.824   1.327   1.527  1.1410  0.0152 -0.9512
 6122SOL    MW424222   2.832   1.269   1.591 -0.3949  0.2387 -0.4940
 6123SOL     OW24223   3.528   1.191   0.170 -0.2680  0.1581  0.0818
 6123SOL    HW224224   3.511   1.097   0.184 -0.0607 -0.2076 -1.7987
 6123SOL    HW324225   3.500   1.233   0.251 -0.7691 -1.4889  0.8083
 6123SOL    MW424226   3.522   1.184   0.182  0.1962  0.1127 -0.3358
 6124SOL     OW24227   3.933   1.940   0.094 -0.0948 -0.5139  0.7527
 6124SOL    HW224228   3.958   1.853   0.064  0.3074  0.1010 -0.7708
 6124SOL    HW324229   3.837   1.938   0.097 -0.1485 -0.6783 -0.4352
 6124SOL    MW424230   3.924   1.929   0.090  0.1135  0.1916 -0.4510
 6125SOL     OW24231   5.475   5.125   3.169  0.0079  0.3429 -0.4697
 6125SOL    HW224232   5.502   5.190   3.233  0.1330  0.3767 -0.5565
 6125SOL    HW324233   5.553   5.072   3.152 -0.4329 -0.7033  0.6157
 6125SOL    MW424234   5.489   5.126   3.175 -0.3632  0.2599  0.1350
 6126SOL     OW24235   2.735   2.307   1.200  0.2651  0.2752 -0.1269
 6126SOL    HW224236   2.660   2.365   1.213 -0.6581 -0.3303 -2.3325
 6126SOL    HW324237   2.727   2.241   1.269 -1.4547  0.0278 -0.5188
 6126SOL    MW424238   2.724   2.306   1.210  0.0180 -0.1478 -0.4002
 6127SOL     OW24239   1.878   5.878   4.814  0.2112 -0.2093 -0.2071
 6127SOL    HW224240   1.828   5.797   4.825 -2.8250  1.5208 -0.2541
 6127SOL    HW324241   1.870   5.899   4.721 -0.1839  0.7845  0.0347
 6127SOL    MW424242   1.870   5.870   4.804 -0.0349 -0.2206 -0.1664
 6128SOL     OW24243   0.756   2.672   3.182 -0.3575 -0.2078  0.0451
 6128SOL    HW224244   0.711   2.712   3.256 -0.4644 -0.9747  0.4016
 6128SOL    HW324245   0.834   2.632   3.220 -0.2356 -0.3174 -0.3125
 6128SOL    MW424246   0.761   2.672   3.197  0.3643 -0.3374  0.5165
 6129SOL     OW24247   5.708   2.895   0.149  0.3920 -0.0230 -0.2563
 6129SOL    HW224248   5.675   2.813   0.112 -2.9126  0.0755  2.0463
 6129SOL    HW324249   5.699   2.959   0.079  0.3393 -1.0732 -1.2296
 6129SOL    MW424250   5.702   2.893   0.135 -0.0458  0.0749 -0.7151
 6130SOL     OW24251   4.885   2.755   5.457  0.7345 -0.2122  0.2216
 6130SOL    HW224252   4.943   2.689   5.420  0.3978 -0.2638 -0.2173
 6130SOL    HW324253   4.903   2.834   5.406  1.2420  0.0825  0.8413
 6130SOL    MW424254   4.895   2.757   5.445 -0.2491  0.0021  0.1874
 6131SOL     OW24255   2.683   2.338   0.373  0.5299  0.2349  0.7840
 6131SOL    HW224256   2.767   2.348   0.327  0.1075 -0.4249 -0.1904
 6131SOL    HW324257   2.670   2.420   0.420  0.8825  1.0542 -0.5041
 6131SOL    MW424258   2.692   2.350   0.373 -0.0982 -0.4443  0.7029
 6132SOL     OW24259   4.677   3.222   0.105  0.5386  0.4994  0.0614
 6132SOL    HW224260   4.754   3.218   0.048  0.9795  0.8811  0.6158
 6132SOL    HW324261   4.632   3.303   0.079  0.6166  0.5558  0.1018
 6132SOL    MW424262   4.681   3.232   0.094  0.4339 -0.3814 -0.2492
 6133SOL     OW24263   4.854   3.400   3.816 -0.4824 -0.5776  0.2797
 6133SOL    HW224264   4.905   3.413   3.736 -0.8018  1.5085  0.3571
 6133SOL    HW324265   4.913   3.351   3.873 -0.0814 -1.6933 -1.0458
 6133SOL    MW424266   4.869   3.395   3.813  0.5392 -0.2055  0.2114
 6134SOL     OW24267   5.992   0.918   5.263  0.2499  0.2944  0.8102
 6134SOL    HW224268   6.050   0.895   5.190  0.2518 -0.2928  0.9903
 6134SOL    HW324269   5.909   0.875   5.243  0.4422 -0.4143  1.4596
 6134SOL    MW424270   5.989   0.909   5.251 -0.4044 -0.0964 -0.1746
 6135SOL     OW24271   1.154   5.198   5.838 -0.4454 -0.5010  0.6757
 6135SOL    HW224272   1.165   5.199   5.933 -1.2945  2.5021  0.8722
 6135SOL    HW324273   1.236   5.235   5.805 -1.1405  0.9837  0.5102
 6135SOL    MW424274   1.167   5.203   5.846 -0.2736 -0.1771  0.0331
 6136SOL     OW24275   3.271   3.666   5.590  0.1188  0.2642  0.1850
 6136SOL    HW224276   3.235   3.619   5.665  0.4306  0.9976  0.8117
 6136SOL    HW324277   3.294   3.753   5.625  1.6548  0.1222 -0.3952
 6136SOL    MW424278   3.269   3.671   5.605 -0.4628  0.0392  0.0542
 6137SOL     OW24279   2.124   2.505   2.587  0.0619 -0.3165  0.2305
 6137SOL    HW224280   2.215   2.533   2.596  0.1448  0.8735 -2.9009
 6137SOL    HW324281   2.130   2.418   2.546 -0.2073 -0.3485  0.2561
 6137SOL    MW424282   2.137   2.497   2.583  0.2437 -0.3553 -0.7231
 6138SOL     OW24283   3.445   3.121   4.378  0.0298 -0.8370 -0.4712
 6138SOL    HW224284   3.350   3.130   4.381  0.1166 -0.1651  1.7725
 6138SOL    HW324285   3.476   3.205   4.344 -0.1441 -0.6146 -0.0936
 6138SOL    MW424286   3.437   3.133   4.374 -0.2211 -0.0771 -0.1296
 6139SOL     OW24287   2.033   1.857   6.149  0.5478 -0.1879 -0.1627
 6139SOL    HW224288   1.950   1.861   6.100  2.2167 -0.3662 -3.2548
 6139SOL    HW324289   2.032   1.936   6.204 -1.2341  0.3063 -0.8214
 6139SOL    MW424290   2.022   1.868   6.150 -0.0612  0.0676  0.3362
 6140SOL     OW24291   2.771   2.560   2.738  0.3849  0.1082 -0.0647
 6140SOL    HW224292   2.855   2.539   2.696 -0.4047 -1.0288 -1.1175
 6140SOL    HW324293   2.732   2.475   2.758 -0.3394  0.6301  0.8058
 6140SOL    MW424294   2.777   2.546   2.735  0.2151  0.3264 -0.6537
 6141SOL     OW24295   4.883   2.417   3.960  0.0516 -0.0601 -0.5206
 6141SOL    HW224296   4.856   2.327   3.938  1.0619 -0.1751 -1.3735
 6141SOL    HW324297   4.905   2.456   3.876  0.4181  0.7220 -0.0661
 6141SOL    MW424298   4.882   2.410   3.946 -0.5611 -0.2220 -0.4946
 6142SOL     OW24299   5.004   6.121   0.787 -0.7638  0.1535 -0.1799
 6142SOL    HW224300   5.046   6.120   0.701 -2.0816 -0.8790 -0.8486
 6142SOL    HW324301   4.945   6.196   0.784  0.6234  1.3524  0.6116
 6142SOL    MW424302   5.002   6.131   0.776  0.0541 -0.0857 -0.0759
 6143SOL     OW24303   4.014   2.669   3.027 -0.2604  0.3449 -0.0374
 6143SOL    HW224304   3.931   2.635   3.062 -0.8004  1.1203 -0.5336
 6143SOL    HW324305   4.020   2.758   3.062  0.1980  0.4142 -0.2897
 6143SOL    MW424306   4.004   2.676   3.036 -0.1247 -0.1972 -0.1348
 6144SOL     OW24307   5.125   6.335   1.297 -0.1973  0.0811 -0.2787
 6144SOL    HW224308   5.177   6.316   1.376  2.8750  0.1106 -2.1288
 6144SOL    HW324309   5.122   6.252   1.250  1.7170  0.9594 -2.0774
 6144SOL    MW424310   5.132   6.322   1.301  0.2210 -0.1604  0.0507
 6145SOL     OW24311   1.971   6.182   0.179 -0.2924  0.0945  0.0582
 6145SOL    HW224312   1.987   6.102   0.130  0.8069  0.4474 -0.1884
 6145SOL    HW324313   1.912   6.233   0.122 -1.8556 -0.9423  0.6812
 6145SOL    MW424314   1.965   6.178   0.165  0.3744 -0.2423  0.6584
 6146SOL     OW24315   5.156   0.180   1.371 -0.1435  0.3978  0.1383
 6146SOL    HW224316   5.138   0.186   1.465  1.0667 -3.1033  0.7315
 6146SOL    HW324317   5.124   0.093   1.346  1.3582  0.4427 -2.2363
 6146SOL    MW424318   5.149   0.169   1.380  0.4394 -0.4999 -0.1791
 6147SOL     OW24319   5.629   0.975   0.180  0.0374  0.6676 -0.3353
 6147SOL    HW224320   5.539   1.005   0.197 -0.2820  0.4531 -1.5811
 6147SOL    HW324321   5.627   0.942   0.091  1.4142  0.8336 -0.4494
 6147SOL    MW424322   5.617   0.975   0.171  0.0668 -0.0945  0.2056
 6148SOL     OW24323   5.240   3.521   4.184 -0.0638 -0.2966 -0.6520
 6148SOL    HW224324   5.173   3.458   4.209  0.6584 -0.6365  0.4757
 6148SOL    HW324325   5.222   3.539   4.091 -1.9717 -0.0447 -0.2927
 6148SOL    MW424326   5.228   3.515   4.175  0.5941  0.3742  0.2547
 6149SOL     OW24327   0.677   4.649   3.599 -0.2066  0.6268  0.1192
 6149SOL    HW224328   0.586   4.672   3.582  0.2696  0.8076 -2.4849
 6149SOL    HW324329   0.671   4.574   3.659 -2.1122  0.0680 -0.6778
 6149SOL    MW424330   0.664   4.642   3.605 -0.6924  0.3195 -0.3010
 6150SOL     OW24331   3.498   3.687   4.218 -0.5984 -0.3161  0.2123
 6150SOL    HW224332   3.454   3.603   4.213 -1.8139  0.1771  1.7117
 6150SOL    HW324333   3.519   3.698   4.311  2.0747 -0.1775 -0.3299
 6150SOL    MW424334   3.495   3.678   4.229  0.4072  0.3050 -0.1105
 6151SOL     OW24335   0.376   0.795   0.086  0.0732  0.1150 -0.3772
 6151SOL    HW224336   0.368   0.889   0.072 -2.6223 -0.1991 -1.5556
 6151SOL    HW324337   0.301   0.757   0.040  2.9333 -2.9604 -3.1094
 6151SOL    MW424338   0.365   0.802   0.078 -0.1935 -0.9740  0.1697
 6152SOL     OW24339   5.660   2.147   4.485  0.4096  0.3370  0.3526
 6152SOL    HW224340   5.727   2.168   4.420 -0.1553 -1.8963 -1.0675
 6152SOL    HW324341   5.578   2.173   4.444  0.1744  0.4117  0.8638
 6152SOL    MW424342   5.658   2.153   4.471  0.3086  0.2037  0.0265
 6153SOL     OW24343   4.923   5.430   5.013 -0.5989 -0.7298  0.6715
 6153SOL    HW224344   4.972   5.387   5.083  3.5022  1.0366 -0.8691
 6153SOL    HW324345   4.914   5.520   5.042  1.2381  0.0472 -0.9830
 6153SOL    MW424346   4.928   5.436   5.026 -0.1791  0.0400 -0.3054
 6154SOL     OW24347   4.153   5.190   1.154  0.1793 -0.0876 -0.7803
 6154SOL    HW224348   4.126   5.100   1.138  0.3780 -0.3331  0.2066
 6154SOL    HW324349   4.087   5.243   1.109  0.7550 -0.7153 -2.4474
 6154SOL    MW424350   4.141   5.185   1.146 -0.0422 -0.0416  0.2117
 6155SOL     OW24351   1.134   2.685   5.429 -0.6056  0.2673  0.5380
 6155SOL    HW224352   1.055   2.652   5.386 -0.4242 -0.1453  0.5180
 6155SOL    HW324353   1.197   2.696   5.358 -0.5458  0.3078  0.5973
 6155SOL    MW424354   1.131   2.682   5.414  0.7477  0.2530  0.0093
 6156SOL     OW24355   2.792   5.301   1.618  0.2298  0.1112 -0.1383
 6156SOL    HW224356   2.732   5.370   1.644  0.9306  0.1438  1.5344
 6156SOL    HW324357   2.758   5.221   1.659  0.4880 -0.1589 -0.4374
 6156SOL    MW424358   2.780   5.299   1.627 -0.3017  0.4662 -0.9312
 6157SOL     OW24359   5.285   5.632   2.759  0.3315  0.4870 -0.0179
 6157SOL    HW224360   5.193   5.659   2.760 -0.6576 -2.3857 -1.0710
 6157SOL    HW324361   5.327   5.689   2.695 -1.0296  1.0254 -0.4579
 6157SOL    MW424362   5.278   5.643   2.751  0.2463  0.0145  0.5366
 6158SOL     OW24363   6.089   4.776   6.420 -0.7024 -0.5097  0.6588
 6158SOL    HW224364   6.004   4.740   6.396 -1.7305  2.2860 -0.1947
 6158SOL    HW324365   6.151   4.732   6.362 -1.9157 -0.7626 -0.4863
 6158SOL    MW424366   6.086   4.765   6.409 -0.2605  0.0702  0.2697
 6159SOL     OW24367   5.973   5.714   4.697  0.0756  0.4375  0.1883
 6159SOL    HW224368   5.932   5.708   4.784  1.6480 -0.1454  0.9289
 6159SOL    HW324369   5.950   5.633   4.653  0.6874 -0.0455  0.7361
 6159SOL    MW424370   5.965   5.703   4.703  0.3453  0.1422 -0.0164
 6160SOL     OW24371   5.299   0.751   2.134 -0.3617  0.3626 -0.5457
 6160SOL    HW224372   5.223   0.802   2.107 -0.6276  0.7093  0.7912
 6160SOL    HW324373   5.316   0.778   2.224 -0.1274 -1.4535  0.0045
 6160SOL    MW424374   5.291   0.761   2.142 -0.2810  0.7336  0.1504
 6161SOL     OW24375   3.431   4.103   4.595  0.3782  0.1217 -0.0732
 6161SOL    HW224376   3.384   4.021   4.605  0.5985 -0.1695 -1.2336
 6161SOL    HW324377   3.364   4.171   4.603 -0.1524 -0.2618 -1.0708
 6161SOL    MW424378   3.416   4.101   4.598  0.6155  0.2036  0.3918
 6162SOL     OW24379   3.791   2.954   2.846  0.2448  0.6758 -0.0996
 6162SOL    HW224380   3.746   3.025   2.892  0.7862  0.6162  0.5470
 6162SOL    HW324381   3.856   2.999   2.791 -1.8297  0.9042 -2.5782
 6162SOL    MW424382   3.793   2.970   2.845  0.3852 -0.8474 -0.0349
 6163SOL     OW24383   0.338   4.893   3.655 -0.5280 -0.7736 -0.0161
 6163SOL    HW224384   0.412   4.890   3.715 -0.4626  1.1453  0.0571
 6163SOL    HW324385   0.284   4.818   3.680  1.2371 -2.0806  0.0780
 6163SOL    MW424386   0.340   4.883   3.666 -0.8283 -1.2222 -0.8221
 6164SOL     OW24387   3.226   5.869   5.289 -0.2374 -0.5626 -0.2197
 6164SOL    HW224388   3.148   5.816   5.306  0.1937 -0.4514  2.5600
 6164SOL    HW324389   3.293   5.832   5.346  1.0178  0.9199 -0.6777
 6164SOL    MW424390   3.225   5.857   5.299 -0.1933  0.4990  0.2399
 6165SOL     OW24391   3.727   4.931   5.457 -0.7548 -0.5635  0.3736
 6165SOL    HW224392   3.788   4.996   5.491 -2.9655  1.9207 -0.0262
 6165SOL    HW324393   3.749   4.923   5.364  0.6215 -1.7729  0.7728
 6165SOL    MW424394   3.738   4.939   5.449  0.3695 -0.2243  0.0378
 6166SOL     OW24395   3.286   4.870   2.752 -0.3437 -0.5809 -0.0743
 6166SOL    HW224396   3.378   4.886   2.772 -0.1319 -0.9817 -0.6977
 6166SOL    HW324397   3.287   4.836   2.663 -0.9747 -1.9065  0.3988
 6166SOL    MW424398   3.298   4.868   2.743 -0.2127 -0.1487  0.5043
 6167SOL     OW24399   5.366   1.604   3.674  0.0911 -0.7362  0.2972
 6167SOL    HW224400   5.460   1.587   3.676  0.5023  1.3367  1.4975
 6167SOL    HW324401   5.326   1.518   3.690  1.6767 -1.9224 -1.6192
 6167SOL    MW424402   5.373   1.590   3.677  0.2252 -0.0734  0.3257
 6168SOL     OW24403   1.283   2.077   0.780  0.6243 -0.1185  0.2429
 6168SOL    HW224404   1.240   2.099   0.863  1.6786  0.1913  0.7233
 6168SOL    HW324405   1.218   2.097   0.713 -0.9713 -2.1348  1.0708
 6168SOL    MW424406   1.269   2.082   0.782  0.2891 -0.6748  0.0141
 6169SOL     OW24407   5.964   3.687   3.552  0.0136  0.2502 -0.2640
 6169SOL    HW224408   5.905   3.646   3.615 -0.9066 -0.1347 -1.3404
 6169SOL    HW324409   5.927   3.665   3.466 -0.7058  3.6056 -0.9362
 6169SOL    MW424410   5.951   3.678   3.549  0.0447 -0.1358  0.5828
 6170SOL     OW24411   1.475   3.578   1.282  0.4318 -0.6150  0.3309
 6170SOL    HW224412   1.478   3.658   1.231  1.0099 -0.9962 -0.2543
 6170SOL    HW324413   1.565   3.565   1.312  0.1647 -0.5803  1.1497
 6170SOL    MW424414   1.487   3.587   1.279 -0.3931  0.7282  0.3886
 6171SOL     OW24415   1.902   6.188   1.890  0.2353  0.3699 -0.1122
 6171SOL    HW224416   1.932   6.169   1.979 -1.3641  1.5668  0.7169
 6171SOL    HW324417   1.820   6.236   1.901 -0.6869 -0.5699 -2.2589
 6171SOL    MW424418   1.895   6.192   1.903 -0.1816  0.0474 -0.0910
 6172SOL     OW24419   0.147   2.629   2.913  0.2875  0.7067  0.0951
 6172SOL    HW224420   0.142   2.547   2.864 -1.0275  1.7897 -1.7279
 6172SOL    HW324421   0.231   2.668   2.885  0.2152  0.6524 -0.2056
 6172SOL    MW424422   0.158   2.623   2.903 -0.8380 -0.1072 -0.1672
 6173SOL     OW24423   0.027   5.056   3.120 -0.5113 -1.2123 -0.4540
 6173SOL    HW224424  -0.052   5.083   3.167 -0.2159 -0.5921 -0.2911
 6173SOL    HW324425   0.009   4.967   3.091 -0.5633 -1.7774  1.1812
 6173SOL    MW424426   0.014   5.048   3.122 -0.2927  0.1660  0.0481
 6174SOL     OW24427   4.641   2.896   2.093 -0.0636 -0.1168  0.7488
 6174SOL    HW224428   4.716   2.954   2.100 -1.0880  1.0701  2.4590
 6174SOL    HW324429   4.576   2.932   2.153 -1.2490 -2.2747  0.8705
 6174SOL    MW424430   4.642   2.908   2.101  0.2743 -1.2325  0.0951
 6175SOL     OW24431   1.772   6.284   5.324  0.3571 -0.0418  0.0980
 6175SOL    HW224432   1.804   6.367   5.358 -1.3475  0.0573  1.5718
 6175SOL    HW324433   1.731   6.307   5.240  0.3044  0.5260  0.2742
 6175SOL    MW424434   1.771   6.298   5.317  0.0988 -0.6729 -0.5192
 6176SOL     OW24435   0.426   4.367   1.066 -0.3089  0.1550  0.5023
 6176SOL    HW224436   0.450   4.450   1.025  1.0689 -1.4924 -2.3310
 6176SOL    HW324437   0.497   4.348   1.127  1.1746 -0.4106 -1.2855
 6176SOL    MW424438   0.438   4.375   1.069 -0.1968 -0.4780  0.1066
 6177SOL     OW24439   4.979   5.945   2.401 -0.4731 -0.3260 -0.3992
 6177SOL    HW224440   4.914   6.010   2.377  0.4004  0.5648 -0.4220
 6177SOL    HW324441   4.938   5.894   2.471 -1.2958  0.0150 -0.6225
 6177SOL    MW424442   4.965   5.947   2.407 -0.0244 -0.3397 -0.3657
 6178SOL     OW24443   2.112   6.378   5.549 -0.5853  0.0719  0.2046
 6178SOL    HW224444   2.169   6.420   5.613  2.0525 -2.0060 -0.6154
 6178SOL    HW324445   2.070   6.307   5.598 -0.4237 -0.0517  0.1602
 6178SOL    MW424446   2.114   6.374   5.564 -0.6259 -0.0253 -0.4438
 6179SOL     OW24447   2.729   4.779   2.331  0.2935  0.8192 -0.2154
 6179SOL    HW224448   2.681   4.813   2.406 -0.6067 -0.6022 -0.1133
 6179SOL    HW324449   2.666   4.781   2.259  0.8122  1.1211 -0.6744
 6179SOL    MW424450   2.714   4.784   2.331  0.5373 -0.0617 -0.1033
 6180SOL     OW24451   2.368   0.440   1.000  0.3280 -0.1508 -0.4811
 6180SOL    HW224452   2.308   0.515   1.003 -0.0073 -0.4476  0.4141
 6180SOL    HW324453   2.414   0.443   1.083  2.1144  0.5063 -1.4437
 6180SOL    MW424454   2.366   0.450   1.011  0.4090  0.2351 -0.2767
 6181SOL     OW24455   0.993   4.678   3.580  0.1614  0.1342 -0.2094
 6181SOL    HW224456   1.065   4.619   3.601  0.5699  0.2327 -1.2537
 6181SOL    HW324457   1.033   4.745   3.523 -1.1950 -1.1484 -2.8453
 6181SOL    MW424458   1.008   4.679   3.575 -0.0842 -0.1110  0.0332
 6182SOL     OW24459   4.661   2.645   6.116 -0.0700  0.5073  0.1478
 6182SOL    HW224460   4.738   2.602   6.080 -0.7260 -1.4080  0.9350
 6182SOL    HW324461   4.588   2.586   6.096 -1.3792  2.2876 -0.6157
 6182SOL    MW424462   4.662   2.632   6.108 -0.5966 -0.0141 -0.1086
 6183SOL     OW24463   2.675   2.390   0.690  0.3248  0.3697 -0.4946
 6183SOL    HW224464   2.596   2.335   0.698  0.6984 -0.1281 -0.1483
 6183SOL    HW324465   2.745   2.336   0.726  0.6726  1.1489  0.0242
 6183SOL    MW424466   2.674   2.375   0.696 -0.0049 -0.3675  0.1957
 6184SOL     OW24467   4.171   0.973   0.157  0.2106  0.2572  0.0770
 6184SOL    HW224468   4.089   1.021   0.146  0.0275 -0.4957 -2.5862
 6184SOL    HW324469   4.149   0.883   0.133  1.8336  0.0914 -0.9687
 6184SOL    MW424470   4.157   0.967   0.152  0.5962  0.2664 -0.6751
 6185SOL     OW24471   2.826   4.084   4.980 -0.2485  0.6001  0.1304
 6185SOL    HW224472   2.861   4.146   5.044 -1.6671  0.2919  1.2577
 6185SOL    HW324473   2.852   3.998   5.014  0.4406  0.4968 -0.6309
 6185SOL    MW424474   2.834   4.081   4.993 -0.4278 -0.0637  0.2651
 6186SOL     OW24475   2.310   1.201   2.420 -0.2179 -1.0038 -0.0446
 6186SOL    HW224476   2.359   1.271   2.462  2.4895 -0.4457 -3.6287
 6186SOL    HW324477   2.329   1.123   2.473 -1.9576  0.5128  3.0551
 6186SOL    MW424478   2.319   1.200   2.433 -0.7270  0.2342  0.5811
 6187SOL     OW24479   4.767   0.338   5.827  0.0359  0.4288  0.1598
 6187SOL    HW224480   4.681   0.301   5.811  0.5415 -0.3485 -0.9016
 6187SOL    HW324481   4.828   0.274   5.789  1.0247  1.4393 -0.0077
 6187SOL    MW424482   4.764   0.325   5.820  0.0050 -0.6270 -0.0455
 6188SOL     OW24483   4.164   3.621   5.319 -0.0604  0.4667 -0.0654
 6188SOL    HW224484   4.114   3.606   5.399  1.6992 -2.9097  0.6060
 6188SOL    HW324485   4.239   3.673   5.347  0.3065 -0.3095  0.4452
 6188SOL    MW424486   4.167   3.626   5.334  0.1952 -0.1316  0.8240
 6189SOL     OW24487   2.471   5.519   3.115 -0.3599  0.4816  0.0140
 6189SOL    HW224488   2.405   5.566   3.063  0.6875  1.4856 -0.4571
 6189SOL    HW324489   2.421   5.477   3.185 -1.6948 -0.0983 -1.2331
 6189SOL    MW424490   2.455   5.520   3.117  0.0124  0.0858 -0.0090
 6190SOL     OW24491   1.923   4.214   6.166 -0.2929 -0.2847  0.7142
 6190SOL    HW224492   1.894   4.200   6.256  0.6318 -0.6950  0.9562
 6190SOL    HW324493   2.006   4.260   6.174 -0.4238  0.0821  0.0569
 6190SOL    MW424494   1.930   4.218   6.179 -0.7023  0.0044 -0.3011
 6191SOL     OW24495   0.260   6.313   1.058  0.1168 -0.3369  0.0826
 6191SOL    HW224496   0.259   6.386   1.120  1.5123  0.4142 -0.7299
 6191SOL    HW324497   0.184   6.260   1.083 -0.8774  1.3180  0.7803
 6191SOL    MW424498   0.250   6.316   1.069 -0.7313  0.2255  0.3321
 6192SOL     OW24499   6.390   2.074   5.972 -0.5109 -0.2564  0.1387
 6192SOL    HW224500   6.390   2.069   5.876 -2.7089 -2.6597  0.1659
 6192SOL    HW324501   6.463   2.018   5.999 -0.1462  0.0919 -0.1203
 6192SOL    MW424502   6.400   2.066   5.963  0.0454  0.2478 -0.7048
 6193SOL     OW24503   0.719   3.951   0.381  0.0151 -0.0546  0.2863
 6193SOL    HW224504   0.630   3.916   0.386 -0.2576  0.5464 -0.2019
 6193SOL    HW324505   0.775   3.873   0.380 -0.6156 -0.5418 -1.6926
 6193SOL    MW424506   0.715   3.936   0.382 -0.3109 -0.8869  0.2744
 6194SOL     OW24507   0.333   1.828   4.944 -0.2958  0.4960  0.0601
 6194SOL    HW224508   0.415   1.800   4.984 -1.0085  0.9456  1.9355
 6194SOL    HW324509   0.353   1.835   4.851  1.6156  0.0120  0.3904
 6194SOL    MW424510   0.346   1.825   4.937  0.6497 -0.3775  0.1636
 6195SOL     OW24511   5.061   2.591   5.282 -0.2613 -0.0442 -0.0502
 6195SOL    HW224512   5.122   2.632   5.221 -0.3510  1.3944  0.7836
 6195SOL    HW324513   5.110   2.517   5.319  1.2045  1.3890  0.9997
 6195SOL    MW424514   5.075   2.586   5.279  0.3414  0.1238 -0.3933
 6196SOL     OW24515   4.721   5.063   0.373 -0.2876 -0.0425  0.3047
 6196SOL    HW224516   4.649   5.127   0.375 -0.5023 -0.0592 -2.3624
 6196SOL    HW324517   4.678   4.978   0.386 -1.1065 -0.2015 -2.6935
 6196SOL    MW424518   4.706   5.060   0.375 -0.1315  0.7417  0.4555
 6197SOL     OW24519   4.704   2.997   5.101 -0.2091 -0.5782  0.2546
 6197SOL    HW224520   4.619   3.028   5.134 -0.2722 -1.4826  0.9869
 6197SOL    HW324521   4.698   2.901   5.106  1.0011 -0.6433  0.6818
 6197SOL    MW424522   4.692   2.988   5.106  0.1696 -1.0897  0.1561
 6198SOL     OW24523   1.156   2.698   0.069 -0.1313 -0.1870  0.7647
 6198SOL    HW224524   1.238   2.687   0.020 -0.4492 -1.5104  0.4924
 6198SOL    HW324525   1.087   2.688   0.004 -0.5320  1.5359  0.8815
 6198SOL    MW424526   1.158   2.695   0.054  0.4264 -0.0569  0.1263
 6199SOL     OW24527   4.837   3.505   5.671 -0.0138  0.0549 -0.1845
 6199SOL    HW224528   4.863   3.572   5.734  1.2037 -1.4372  0.9906
 6199SOL    HW324529   4.909   3.502   5.608  0.1451 -0.4397  0.0179
 6199SOL    MW424530   4.850   3.513   5.671  0.2667  0.0998  0.9653
 6200SOL     OW24531   4.659   4.267   4.268 -0.0855 -0.0594 -0.1589
 6200SOL    HW224532   4.614   4.245   4.350 -0.0463  0.5427  0.0301
 6200SOL    HW324533   4.658   4.363   4.265  1.1745 -0.0265 -0.1506
 6200SOL    MW424534   4.653   4.277   4.279 -0.0571  0.4214 -0.1964
 6201SOL     OW24535   4.283   4.714   1.940  0.8205  0.4293 -0.1451
 6201SOL    HW224536   4.309   4.702   1.849  2.1713 -1.4616  0.4307
 6201SOL    HW324537   4.228   4.638   1.961 -0.2355  1.3009  0.3960
 6201SOL    MW424538   4.279   4.702   1.931  0.1833 -0.1238  0.1315
 6202SOL     OW24539   3.963   2.406   4.411  0.4080 -0.2439  0.5014
 6202SOL    HW224540   3.884   2.458   4.423  0.4525 -0.0713  0.0609
 6202SOL    HW324541   4.028   2.468   4.380  1.0285 -0.1655  1.8652
 6202SOL    MW424542   3.961   2.421   4.409 -0.5182 -0.3484 -0.2118
 6203SOL     OW24543   1.867   3.700   5.024 -0.2873 -0.6647  0.1972
 6203SOL    HW224544   1.921   3.771   4.991  0.5623 -0.8709  1.0984
 6203SOL    HW324545   1.899   3.622   4.978  0.5565 -0.8680  1.0763
 6203SOL    MW424546   1.878   3.699   5.014 -0.3779  0.5917 -0.4322
 6204SOL     OW24547   2.570   1.215   4.773  0.7179 -0.1561 -0.6664
 6204SOL    HW224548   2.524   1.154   4.830 -1.4679  1.8206 -0.1468
 6204SOL    HW324549   2.568   1.173   4.687  1.9812 -2.1152  0.1853
 6204SOL    MW424550   2.564   1.201   4.769  0.0890  0.0435  0.4306
 6205SOL     OW24551   5.320   3.000   3.167  0.7774  0.3044 -0.1993
 6205SOL    HW224552   5.263   2.926   3.146  0.7260  0.0063  0.9428
 6205SOL    HW324553   5.349   3.033   3.082 -1.4271  0.7298 -0.8443
 6205SOL    MW424554   5.317   2.995   3.153  0.0134 -0.0552 -0.2909
 6206SOL     OW24555   5.626   0.565   3.845 -0.1586  0.1263  0.0061
 6206SOL    HW224556   5.602   0.490   3.792  0.2415 -1.3032  1.7504
 6206SOL    HW324557   5.667   0.626   3.784 -2.3006 -0.1495 -1.8303
 6206SOL    MW424558   5.628   0.563   3.830  0.3937 -0.0051  0.0011
 6207SOL     OW24559   3.566   5.091   6.311  0.5719 -0.1097  0.1658
 6207SOL    HW224560   3.618   5.023   6.353  0.2094 -1.1257 -0.9933
 6207SOL    HW324561   3.598   5.173   6.351  1.7500 -0.8504  0.8145
 6207SOL    MW424562   3.577   5.093   6.322  0.0528 -0.0098  0.5833
 6208SOL     OW24563   2.185   1.964   5.924 -0.1810 -0.3354 -0.0109
 6208SOL    HW224564   2.232   1.885   5.897  1.6569  0.3351  1.0412
 6208SOL    HW324565   2.139   1.939   6.004  1.6015 -0.0192  1.1724
 6208SOL    MW424566   2.185   1.950   5.931 -0.7204  0.3263 -0.1966
 6209SOL     OW24567   1.685   5.228   4.022 -0.2904 -0.0052  0.6371
 6209SOL    HW224568   1.598   5.218   3.984  0.2496 -1.2181 -0.3402
 6209SOL    HW324569   1.692   5.156   4.085  0.7604 -1.2345 -0.8218
 6209SOL    MW424570   1.674   5.217   4.025 -0.1736 -0.3169  0.0756
 6210SOL     OW24571   5.905   2.041   4.682  0.3238 -0.1587 -0.2955
 6210SOL    HW224572   5.967   2.017   4.750 -2.0032 -1.2398  1.5923
 6210SOL    HW324573   5.819   2.024   4.720 -1.1645 -2.7962 -4.1460
 6210SOL    MW424574   5.902   2.036   4.696  0.2427  0.2466 -0.0349
 6211SOL     OW24575   3.196   6.222   5.848 -0.2908  0.2108 -0.6251
 6211SOL    HW224576   3.115   6.200   5.801 -1.0750 -1.8188  1.4962
 6211SOL    HW324577   3.266   6.187   5.794 -1.0396 -0.5994 -1.0962
 6211SOL    MW424578   3.194   6.215   5.835  0.2794 -0.0842  0.8777
 6212SOL     OW24579   4.428   0.825   2.989 -0.0521 -0.3674  0.1031
 6212SOL    HW224580   4.462   0.738   2.972  0.7424 -0.3463  1.4300
 6212SOL    HW324581   4.499   0.884   2.962 -0.3925 -0.1425 -0.3220
 6212SOL    MW424582   4.442   0.821   2.983  0.0570 -0.1249  0.3291
 6213SOL     OW24583   0.089   1.097   3.658  0.6718  0.1934  0.1749
 6213SOL    HW224584   0.154   1.072   3.724  0.7640 -0.0433 -0.0035
 6213SOL    HW324585   0.056   1.181   3.688  1.6543  0.7219 -0.1636
 6213SOL    MW424586   0.093   1.104   3.670 -0.1033  0.6128  0.2587
 6214SOL     OW24587   3.387   5.048   3.867  0.5042 -0.1850 -0.1045
 6214SOL    HW224588   3.381   5.053   3.772 -0.7894  2.5358  0.0328
 6214SOL    HW324589   3.358   4.959   3.888 -0.1448 -0.5233 -2.2000
 6214SOL    MW424590   3.382   5.037   3.857 -0.3183 -0.3228  0.4531
 6215SOL     OW24591   2.867   5.928   6.079  0.0103  0.1248 -0.4350
 6215SOL    HW224592   2.878   5.950   5.986  0.9544 -0.6822 -0.5397
 6215SOL    HW324593   2.931   5.858   6.094 -0.9170 -0.5462  0.5537
 6215SOL    MW424594   2.877   5.921   6.068 -0.2955 -0.2334  0.5285
 6216SOL     OW24595   4.684   1.547   2.799 -0.3651  0.8041 -0.4694
 6216SOL    HW224596   4.769   1.538   2.755 -0.2988  0.5133 -0.2805
 6216SOL    HW324597   4.687   1.633   2.841 -0.2230  0.8561 -0.5869
 6216SOL    MW424598   4.695   1.557   2.798  0.2974  0.0639 -0.1376
 6217SOL     OW24599   2.970   2.514   0.018  0.1811  0.0914  0.4021
 6217SOL    HW224600   2.995   2.603  -0.005 -0.9855  0.0446 -1.1792
 6217SOL    HW324601   3.015   2.459  -0.046 -1.7967 -0.1617 -0.8712
 6217SOL    MW424602   2.979   2.518   0.007  0.0751  0.0352  0.1406
 6218SOL     OW24603   4.728   5.626   4.123  0.2081 -0.4576 -0.3045
 6218SOL    HW224604   4.670   5.549   4.122  0.7360 -0.8614 -1.1318
 6218SOL    HW324605   4.674   5.697   4.088 -0.7811 -0.0526  1.9196
 6218SOL    MW424606   4.713   5.625   4.118  0.2197  0.2415 -0.3733
 6219SOL     OW24607   4.994   4.666   1.822  0.3662 -0.2395 -0.0812
 6219SOL    HW224608   4.935   4.740   1.808  0.3056 -0.2329  0.1952
 6219SOL    HW324609   4.949   4.591   1.783  0.6162 -0.0527 -0.7304
 6219SOL    MW424610   4.980   4.666   1.815  0.1080 -0.4158  0.1866
 6220SOL     OW24611   6.017   0.161   0.488  0.3911  0.2624 -0.0731
 6220SOL    HW224612   6.024   0.257   0.479  0.3591  0.3414  0.7119
 6220SOL    HW324613   6.093   0.136   0.540  0.6327 -0.2006 -0.6400
 6220SOL    MW424614   6.028   0.171   0.494  0.1217  0.6639  0.0425
 6221SOL     OW24615   0.306   0.845   1.398  0.4323 -0.0592 -0.4906
 6221SOL    HW224616   0.348   0.912   1.452  2.4492 -0.5834 -1.3257
 6221SOL    HW324617   0.305   0.767   1.454 -1.4427  0.4546  0.2897
 6221SOL    MW424618   0.311   0.843   1.413 -0.1004  0.1457  0.2542
 6222SOL     OW24619   5.950   5.903   2.667  0.1706 -0.2051 -0.2555
 6222SOL    HW224620   5.909   5.820   2.640 -0.9859  0.3577 -0.2518
 6222SOL    HW324621   5.976   5.944   2.585 -2.6247  1.1304 -0.5946
 6222SOL    MW424622   5.948   5.897   2.653  0.4764 -0.8405  0.2401
 6223SOL     OW24623   3.955   4.627   1.367  0.3752 -0.3737 -0.0796
 6223SOL    HW224624   3.934   4.549   1.317 -0.4761 -0.6374  0.6585
 6223SOL    HW324625   3.955   4.598   1.459 -1.0495  0.6826  0.2973
 6223SOL    MW424626   3.952   4.613   1.373  0.0303 -0.1746 -0.6261
 6224SOL     OW24627   4.875   4.493   3.161 -0.2702  0.0897 -0.0958
 6224SOL    HW224628   4.958   4.445   3.169 -0.8034 -1.2071 -1.8704
 6224SOL    HW324629   4.818   4.452   3.226  0.3867  0.8653  1.0061
 6224SOL    MW424630   4.879   4.481   3.171 -0.5306 -0.2255 -0.3040
 6225SOL     OW24631   3.416   3.035   4.635  0.0083 -0.3619 -0.3261
 6225SOL    HW224632   3.500   3.025   4.678  0.3271 -0.7028 -1.0189
 6225SOL    HW324633   3.434   3.085   4.556 -0.4232 -0.4912 -0.5153
 6225SOL    MW424634   3.429   3.040   4.630 -0.3539 -0.6986 -0.2846
 6226SOL     OW24635   3.272   5.333   0.575 -0.0461 -0.6487  0.4687
 6226SOL    HW224636   3.358   5.352   0.612  0.2231 -0.2024 -0.3629
 6226SOL    HW324637   3.273   5.238   0.559 -0.1091 -0.8205  1.4248
 6226SOL    MW424638   3.283   5.323   0.578 -0.7610  0.0458  0.1397
 6227SOL     OW24639   0.540   1.456   0.777 -0.0014 -0.1388  0.0065
 6227SOL    HW224640   0.586   1.464   0.861 -0.7542  0.1307  0.3992
 6227SOL    HW324641   0.592   1.393   0.727 -0.0034 -0.9421  0.9934
 6227SOL    MW424642   0.553   1.449   0.782  0.3361  0.3376  0.4885
 6228SOL     OW24643   1.942   1.674   4.257  0.0896 -0.4311  0.3386
 6228SOL    HW224644   1.856   1.638   4.233 -0.6570  0.9900  0.7807
 6228SOL    HW324645   1.950   1.656   4.350  0.5035 -0.9971  0.1982
 6228SOL    MW424646   1.932   1.667   4.266  0.6718 -0.4828  0.0559
 6229SOL     OW24647   4.930   1.571   1.873  0.2737 -0.5406 -0.1198
 6229SOL    HW224648   4.905   1.503   1.934  0.6319 -1.5936 -1.1174
 6229SOL    HW324649   4.974   1.525   1.802  0.4482  0.7165 -0.8589
 6229SOL    MW424650   4.932   1.556   1.871 -0.1279  0.0426 -0.0699
 6230SOL     OW24651   0.592   3.137   6.358 -0.1631 -0.2032  0.0980
 6230SOL    HW224652   0.657   3.067   6.358 -0.0585 -0.1050  0.1629
 6230SOL    HW324653   0.516   3.099   6.402  0.5364  0.3231  1.8229
 6230SOL    MW424654   0.590   3.123   6.363  0.0977  0.2946 -0.0542
 6231SOL     OW24655   0.382   6.282   0.823  0.5541  0.2668 -0.2560
 6231SOL    HW224656   0.342   6.305   0.907 -1.2328  1.5971 -1.3866
 6231SOL    HW324657   0.452   6.222   0.845 -0.3986 -0.0704  2.1170
 6231SOL    MW424658   0.386   6.277   0.837 -0.1100  0.4615  0.2861
 6232SOL     OW24659   2.727   4.460   3.257  0.5490  0.0875 -0.2696
 6232SOL    HW224660   2.713   4.545   3.215 -1.6899 -1.0298 -1.9431
 6232SOL    HW324661   2.723   4.480   3.351  1.6920  2.0382 -0.5711
 6232SOL    MW424662   2.725   4.474   3.264  0.0061  0.7221  0.2029
 6233SOL     OW24663   5.584   5.510   3.178 -0.1013  0.5993 -0.0303
 6233SOL    HW224664   5.500   5.537   3.141 -0.4607  0.0205  0.3493
 6233SOL    HW324665   5.602   5.574   3.246 -0.5439  0.3753  0.3041
 6233SOL    MW424666   5.575   5.522   3.182  0.2889  0.0183 -0.0409
 6234SOL     OW24667   1.461   2.877   0.621  0.1278  0.1406  0.2922
 6234SOL    HW224668   1.485   2.964   0.590  1.0354  0.0537  0.7044
 6234SOL    HW324669   1.493   2.875   0.712  0.4061 -0.7236  0.1852
 6234SOL    MW424670   1.469   2.888   0.629  0.2709 -0.2515 -0.0595
 6235SOL     OW24671   6.240   5.528   2.715  0.0123 -0.0913 -0.1906
 6235SOL    HW224672   6.160   5.499   2.673 -1.1618  2.0981  0.3649
 6235SOL    HW324673   6.308   5.517   2.648 -1.0242 -0.6115 -1.1907
 6235SOL    MW424674   6.239   5.523   2.701  0.1246 -0.1912  0.1106
 6236SOL     OW24675   0.170   4.699   0.734 -0.3445  0.0042 -0.0081
 6236SOL    HW224676   0.076   4.687   0.743 -0.2586 -1.0446 -0.3407
 6236SOL    HW324677   0.196   4.634   0.668  0.6811 -0.0608  0.4443
 6236SOL    MW424678   0.161   4.689   0.726  0.2427  0.2258  0.3353
 6237SOL     OW24679   2.813   3.126   5.476 -0.7803  0.3571 -0.1640
 6237SOL    HW224680   2.789   3.037   5.449 -0.9661 -0.1725  1.5985
 6237SOL    HW324681   2.789   3.181   5.402  0.0196 -1.1373 -1.5877
 6237SOL    MW424682   2.806   3.121   5.463  0.2618 -0.8558  0.3542
 6238SOL     OW24683   0.781   5.838   3.598  0.6398  0.1091 -0.3455
 6238SOL    HW224684   0.818   5.913   3.551 -1.4360  0.3800 -1.6727
 6238SOL    HW324685   0.812   5.849   3.688  2.0614  1.3952 -0.9403
 6238SOL    MW424686   0.790   5.849   3.604  0.5978 -0.1177  0.3938
 6239SOL     OW24687   4.342   4.594   2.786 -0.4845  0.1038 -0.9211
 6239SOL    HW224688   4.287   4.668   2.811 -0.5110 -0.5533  1.1962
 6239SOL    HW324689   4.283   4.519   2.785  0.0100 -0.2999 -0.5312
 6239SOL    MW424690   4.327   4.594   2.789  0.4618  0.0741  0.3931
 6240SOL     OW24691   3.121   1.214   3.935  0.0085 -0.3796 -0.1903
 6240SOL    HW224692   3.037   1.214   3.889  0.0454 -1.5637 -0.2777
 6240SOL    HW324693   3.167   1.137   3.903  0.9659  0.0195  0.1731
 6240SOL    MW424694   3.116   1.204   3.925  0.0565 -0.6061 -0.0617
 6241SOL     OW24695   2.409   1.350   3.102  0.3502 -0.0325 -0.0595
 6241SOL    HW224696   2.434   1.325   3.013 -0.3123  1.1301 -0.6076
 6241SOL    HW324697   2.330   1.300   3.120 -0.4356  0.8961 -0.7810
 6241SOL    MW424698   2.402   1.340   3.093 -0.2672 -0.0274  0.1843
 6242SOL     OW24699   0.550   5.966   2.299  0.2168 -0.2112  0.3859
 6242SOL    HW224700   0.587   6.038   2.248  0.1694  0.1689  0.8818
 6242SOL    HW324701   0.616   5.897   2.293  0.7179  0.2308  0.7285
 6242SOL    MW424702   0.564   5.966   2.292 -0.2511 -0.0780 -0.4758
 6243SOL     OW24703   2.538   4.562   5.497 -0.0697 -0.4884 -0.5477
 6243SOL    HW224704   2.470   4.626   5.475  1.2245  0.8221 -0.9092
 6243SOL    HW324705   2.541   4.563   5.593  0.1544  0.2343 -0.5592
 6243SOL    MW424706   2.529   4.571   5.507  0.0777 -0.0844  0.3487
 6244SOL     OW24707   1.124   0.865   5.446 -0.7626 -0.0974  0.5916
 6244SOL    HW224708   1.095   0.892   5.534 -1.5000  0.6926  0.1263
 6244SOL    HW324709   1.042   0.851   5.398 -0.3653 -0.7963  0.1085
 6244SOL    MW424710   1.109   0.867   5.451 -0.4732 -0.2357 -0.2570
 6245SOL     OW24711   0.708   1.474   0.985 -0.2427  0.3077  0.4792
 6245SOL    HW224712   0.685   1.531   1.059  0.1201 -0.3487  1.1142
 6245SOL    HW324713   0.748   1.397   1.026  2.1443  0.9306 -0.5224
 6245SOL    MW424714   0.710   1.471   1.000 -0.6137  0.5357  0.1435
 6246SOL     OW24715   5.472   3.874   1.252  0.2528  0.2360 -0.5421
 6246SOL    HW224716   5.393   3.917   1.284 -1.4094 -1.3061 -2.3098
 6246SOL    HW324717   5.490   3.805   1.316  0.6779  1.1078  0.2953
 6246SOL    MW424718   5.464   3.870   1.264 -0.0043  0.1195  0.1321
 6247SOL     OW24719   5.813   4.898   0.720 -0.0818 -0.4419 -0.3050
 6247SOL    HW224720   5.824   4.806   0.695 -1.4608 -0.4869 -0.8271
 6247SOL    HW324721   5.753   4.896   0.794  1.9386 -0.1114  1.4342
 6247SOL    MW424722   5.807   4.885   0.726  0.2440  0.3814 -0.3641
 6248SOL     OW24723   5.490   5.164   0.566  0.7777  0.4139  0.1135
 6248SOL    HW224724   5.438   5.224   0.514 -0.4516  0.5442  1.4474
 6248SOL    HW324725   5.530   5.105   0.501 -0.3147  0.8558 -1.0028
 6248SOL    MW424726   5.489   5.164   0.551 -0.6156 -0.3884 -0.1267
 6249SOL     OW24727   3.508   6.371   5.112 -0.2285 -0.0399  0.2536
 6249SOL    HW224728   3.502   6.459   5.149 -0.0531 -0.5030  1.4114
 6249SOL    HW324729   3.587   6.374   5.057 -0.4558  0.6382 -0.0489
 6249SOL    MW424730   3.518   6.383   5.110  0.0458 -0.1511  0.0301
 6250SOL     OW24731   5.944   3.840   4.456 -0.3131 -0.8947 -0.0367
 6250SOL    HW224732   6.032   3.806   4.440  0.3956  0.3188  1.1094
 6250SOL    HW324733   5.954   3.898   4.531 -2.0430 -0.4899 -0.0819
 6250SOL    MW424734   5.957   3.843   4.464  0.1340  0.0774  0.2758
 6251SOL     OW24735   5.725   3.911   4.893 -0.2760  0.4065 -0.2435
 6251SOL    HW224736   5.667   3.904   4.816  0.1786 -1.0057 -0.4873
 6251SOL    HW324737   5.668   3.943   4.963 -0.9050  0.8739 -0.9558
 6251SOL    MW424738   5.710   3.914   4.892 -0.3809  0.0042 -0.2591
 6252SOL     OW24739   4.160   0.259   4.345  0.1798 -0.3392  0.2195
 6252SOL    HW224740   4.111   0.187   4.385  0.5730  0.3578  2.1087
 6252SOL    HW324741   4.117   0.276   4.262 -2.0088 -0.5770  1.2451
 6252SOL    MW424742   4.148   0.252   4.340 -0.5522  0.1556 -0.1613
 6253SOL     OW24743   4.747   0.521   3.196 -0.2215  0.2334  0.1233
 6253SOL    HW224744   4.708   0.437   3.220  0.6021  0.1121  1.1517
 6253SOL    HW324745   4.697   0.586   3.245  0.0867  0.1921  0.4982
 6253SOL    MW424746   4.735   0.519   3.206 -0.1734  0.1746  0.0110
 6254SOL     OW24747   0.947   3.883   4.220  0.7591 -0.1883  0.1586
 6254SOL    HW224748   1.036   3.872   4.255  0.5262 -1.6820  0.3431
 6254SOL    HW324749   0.943   3.823   4.146 -0.4617 -1.0844  0.8992
 6254SOL    MW424750   0.959   3.873   4.215  0.1872  0.5999 -0.0846
 6255SOL     OW24751   2.355   1.303   4.357  0.0372 -0.1837  0.3894
 6255SOL    HW224752   2.385   1.329   4.445 -1.3212 -0.8704  1.0758
 6255SOL    HW324753   2.301   1.377   4.328 -1.0428 -0.7407  0.9288
 6255SOL    MW424754   2.352   1.316   4.365  0.7524 -0.6551 -0.4075
 6256SOL     OW24755   0.941   2.399   3.238 -0.0584 -0.5866  0.3893
 6256SOL    HW224756   0.899   2.362   3.161  0.6067 -0.9188  0.1812
 6256SOL    HW324757   1.010   2.455   3.203 -2.2769  2.5486  0.5954
 6256SOL    MW424758   0.944   2.402   3.223 -0.2904 -0.0541  0.1140
 6257SOL     OW24759   0.122   3.055   4.842 -0.0593 -0.0017  0.2360
 6257SOL    HW224760   0.215   3.050   4.820 -0.0088  1.2780  0.0593
 6257SOL    HW324761   0.077   3.020   4.764  0.2373  1.0927 -0.4546
 6257SOL    MW424762   0.128   3.050   4.829  0.1912 -0.3192  0.6014
 6258SOL     OW24763   1.230   4.081   2.343  0.1139  0.1601  0.5230
 6258SOL    HW224764   1.210   3.988   2.352  0.5104  0.1944  1.9456
 6258SOL    HW324765   1.151   4.126   2.373  0.3199  0.2740  0.9073
 6258SOL    MW424766   1.217   4.075   2.348  0.3974 -0.4397 -0.5465
 6259SOL     OW24767   1.224   5.592   1.667 -0.0813  0.0607 -0.1616
 6259SOL    HW224768   1.182   5.509   1.689 -0.4141  0.7134  1.9863
 6259SOL    HW324769   1.157   5.641   1.619  0.5950 -1.3637 -2.7090
 6259SOL    MW424770   1.209   5.588   1.664  0.2405  0.1046  0.3064
 6260SOL     OW24771   3.939   0.574   5.590 -0.0629  0.4122  0.0248
 6260SOL    HW224772   4.015   0.590   5.646  0.2713 -2.2807  0.4983
 6260SOL    HW324773   3.864   0.585   5.648  0.0799  1.0837  0.0845
 6260SOL    MW424774   3.939   0.577   5.605 -0.2913 -0.5990 -0.5580
 6261SOL     OW24775   4.111   1.764   0.691 -0.0836 -0.3363 -0.7463
 6261SOL    HW224776   4.140   1.843   0.645  0.3599  0.0097  0.1016
 6261SOL    HW324777   4.133   1.781   0.783  0.6396 -1.7170 -0.6407
 6261SOL    MW424778   4.118   1.777   0.697  0.1569  0.5368  0.2226
 6262SOL     OW24779   5.952   4.647   5.745 -0.6819 -0.0871  0.3169
 6262SOL    HW224780   5.911   4.582   5.802 -1.6603  0.2824  0.0400
 6262SOL    HW324781   5.879   4.692   5.703  0.0088  0.5332 -0.2359
 6262SOL    MW424782   5.937   4.644   5.747  0.1991 -0.4966 -0.4393
 6263SOL     OW24783   5.303   2.945   4.618  0.3112  0.1899 -0.4321
 6263SOL    HW224784   5.299   3.041   4.618 -0.6696  0.2100 -2.4015
 6263SOL    HW324785   5.380   2.924   4.564  0.3477 -0.1307 -0.2585
 6263SOL    MW424786   5.313   2.955   4.611  0.1311  0.1606  0.2792
 6264SOL     OW24787   2.568   6.243   6.240  0.2607  0.4400  0.2908
 6264SOL    HW224788   2.596   6.322   6.194 -0.8709  2.4475  2.7996
 6264SOL    HW324789   2.494   6.210   6.189 -0.7915  2.4314  0.4349
 6264SOL    MW424790   2.562   6.249   6.227 -0.3424 -0.1069  0.4219
 6265SOL     OW24791   0.202   1.595   3.262 -0.7491 -0.2076  0.3568
 6265SOL    HW224792   0.255   1.675   3.264 -1.8340  0.5755 -0.8027
 6265SOL    HW324793   0.261   1.527   3.295  0.5198  0.8781  0.4376
 6265SOL    MW424794   0.217   1.597   3.266 -0.8303 -0.2880  0.0526
 6266SOL     OW24795   6.411   5.121   4.272  0.2092 -0.5059  0.8302
 6266SOL    HW224796   6.378   5.038   4.308 -0.7728 -0.1395  0.8246
 6266SOL    HW324797   6.332   5.175   4.262  0.5620 -0.2886 -1.0846
 6266SOL    MW424798   6.396   5.117   4.276 -0.3635  0.7249 -0.6468
 6267SOL     OW24799   4.507   2.476   1.469 -0.1134 -0.8609 -0.3408
 6267SOL    HW224800   4.474   2.531   1.398 -0.2082  0.0624  0.4139
 6267SOL    HW324801   4.441   2.406   1.477  0.8323 -2.0937 -2.4075
 6267SOL    MW424802   4.494   2.474   1.461  0.3134 -0.2415  0.5282
 6268SOL     OW24803   2.297   4.032   2.765  0.1937  0.3949 -0.5823
 6268SOL    HW224804   2.280   4.089   2.690  0.2992  0.6946 -0.3812
 6268SOL    HW324805   2.386   4.000   2.752  0.0579  0.1086 -0.8044
 6268SOL    MW424806   2.306   4.035   2.754 -0.2845  0.2830 -0.7518
 6269SOL     OW24807   0.388   5.166   4.501  0.2075 -0.4388 -0.2816
 6269SOL    HW224808   0.418   5.242   4.551 -1.9629 -0.5201  1.3183
 6269SOL    HW324809   0.306   5.194   4.461 -0.9032 -2.0395  0.7662
 6269SOL    MW424810   0.381   5.179   4.503  0.2629 -0.1533  0.4967
 6270SOL     OW24811   4.863   3.127   6.080 -0.5379  0.0792 -0.3330
 6270SOL    HW224812   4.861   3.189   6.006  1.8507 -0.6781 -1.1146
 6270SOL    HW324813   4.786   3.071   6.065 -1.9868  1.9553 -0.3480
 6270SOL    MW424814   4.852   3.128   6.068 -0.0378 -0.3808 -0.0324
 6271SOL     OW24815   5.168   3.183   3.619  0.0743  0.1755 -0.4129
 6271SOL    HW224816   5.188   3.176   3.526 -0.2905 -1.1024 -0.4086
 6271SOL    HW324817   5.251   3.166   3.663  0.2530  0.8055 -0.4980
 6271SOL    MW424818   5.181   3.180   3.612 -0.5348  0.8354 -0.3488
 6272SOL     OW24819   5.988   1.528   4.345  0.2086  0.2640 -0.8058
 6272SOL    HW224820   5.937   1.601   4.309  0.2278  0.8253  0.2809
 6272SOL    HW324821   6.011   1.556   4.433 -1.6299 -1.9268  0.4868
 6272SOL    MW424822   5.984   1.541   4.352  0.3246  0.2073 -0.2119
 6273SOL     OW24823   2.408   2.331   4.570 -0.1498 -0.5642  0.3539
 6273SOL    HW224824   2.342   2.292   4.627  1.1325  0.0820  2.3802
 6273SOL    HW324825   2.381   2.423   4.561 -0.2841 -0.6363  0.0095
 6273SOL    MW424826   2.396   2.338   4.576 -0.1364 -0.1645 -0.1555
 6274SOL     OW24827   1.288   3.952   5.259  0.2960 -0.2998  0.5566
 6274SOL    HW224828   1.214   3.916   5.308  0.9829 -1.3567  0.8406
 6274SOL    HW324829   1.328   4.014   5.319 -1.3377  1.6032 -0.1978
 6274SOL    MW424830   1.283   3.955   5.273  0.0496  0.0601 -0.0584
 6275SOL     OW24831   1.062   2.348   4.448 -0.0996 -0.0716  0.4899
 6275SOL    HW224832   1.100   2.367   4.363 -0.3528  0.2100  0.4393
 6275SOL    HW324833   1.125   2.381   4.512 -0.2644  0.4074  0.4063
 6275SOL    MW424834   1.075   2.355   4.445  0.0454  0.0126  0.0177
 6276SOL     OW24835   6.071   2.153   5.106  0.6965  0.4203 -0.4447
 6276SOL    HW224836   6.135   2.209   5.149  0.6188 -0.1053  0.3826
 6276SOL    HW324837   6.007   2.132   5.175  1.1985 -1.3799 -0.4642
 6276SOL    MW424838   6.071   2.158   5.121 -0.2596  0.1044  0.3071
 6277SOL     OW24839   4.003   3.284   6.368 -0.2870 -0.1677  0.1119
 6277SOL    HW224840   3.929   3.297   6.309 -0.5300  0.7808  0.6227
 6277SOL    HW324841   4.057   3.362   6.356  1.7652 -1.7268 -1.8179
 6277SOL    MW424842   4.000   3.296   6.358 -0.2769  0.5964 -0.1258
 6278SOL     OW24843   5.575   3.980   1.592  0.3044 -0.7514 -0.3668
 6278SOL    HW224844   5.567   3.886   1.577 -0.7753 -0.4774 -1.6025
 6278SOL    HW324845   5.593   4.018   1.506 -0.7310  0.3238 -0.1388
 6278SOL    MW424846   5.576   3.973   1.579 -0.1672  0.5792  0.3566
 6279SOL     OW24847   1.796   4.110   5.836 -0.4633 -0.4838 -0.0602
 6279SOL    HW224848   1.702   4.118   5.824 -0.3262 -0.8148 -1.6837
 6279SOL    HW324849   1.833   4.132   5.750  0.9721  0.1283  0.6796
 6279SOL    MW424850   1.789   4.114   5.823  0.5575 -0.2203 -0.1718
 6280SOL     OW24851   3.077   5.785   6.249 -0.0060 -0.3497  0.4568
 6280SOL    HW224852   3.039   5.782   6.337 -0.7460  0.4055  0.1785
 6280SOL    HW324853   3.115   5.698   6.237  0.1962 -0.4335  1.5564
 6280SOL    MW424854   3.077   5.773   6.259  0.5844  0.1668 -0.6031
 6281SOL     OW24855   2.190   0.933   6.161  0.2440 -0.1587 -0.3306
 6281SOL    HW224856   2.133   0.873   6.210 -1.9703  1.6051 -0.6307
 6281SOL    HW324857   2.175   1.018   6.201  2.0180  0.5310 -1.0541
 6281SOL    MW424858   2.180   0.936   6.173 -0.0195  0.4006 -0.2058
 6282SOL     OW24859   2.497   3.134   0.664  0.3909  0.0331  0.9156
 6282SOL    HW224860   2.440   3.200   0.624  0.7069 -0.2356  0.0128
 6282SOL    HW324861   2.555   3.106   0.593  0.2261 -1.2514  1.2713
 6282SOL    MW424862   2.497   3.139   0.649  0.5150  0.1078  0.1752
 6283SOL     OW24863   4.126   3.337   1.123  0.0701 -0.4102 -0.0495
 6283SOL    HW224864   4.125   3.321   1.217 -1.5948 -0.1819  0.0045
 6283SOL    HW324865   4.109   3.430   1.114 -0.2473 -0.5123 -0.5756
 6283SOL    MW424866   4.124   3.347   1.134  0.1535  0.0417  0.2445
 6284SOL     OW24867   5.329   4.557   4.762  0.3350 -0.0960  0.8631
 6284SOL    HW224868   5.378   4.580   4.683 -2.0761 -0.9045 -0.9915
 6284SOL    HW324869   5.345   4.463   4.774 -0.6946 -0.3698  0.2339
 6284SOL    MW424870   5.338   4.547   4.753  0.1444 -0.4432  0.4727
 6285SOL     OW24871   3.376   1.893   2.854 -1.0198  0.2698  0.8275
 6285SOL    HW224872   3.417   1.820   2.902 -0.4858 -0.1380 -0.1979
 6285SOL    HW324873   3.436   1.909   2.781 -1.4978  1.2812  0.6455
 6285SOL    MW424874   3.390   1.885   2.851  0.2627 -0.6256 -0.5876
 6286SOL     OW24875   0.402   1.487   5.224  0.2381 -0.0395 -0.1901
 6286SOL    HW224876   0.496   1.478   5.241  0.0777 -0.8765  0.3345
 6286SOL    HW324877   0.361   1.430   5.290 -0.6742  0.9012  0.0667
 6286SOL    MW424878   0.409   1.478   5.235  0.4213  0.6433 -0.1336
 6287SOL     OW24879   3.929   2.591   2.291 -0.2614  0.6168  0.0763
 6287SOL    HW224880   3.914   2.497   2.284 -0.0469  0.6083 -0.3192
 6287SOL    HW324881   3.932   2.608   2.385 -2.1704  0.5413  0.1909
 6287SOL    MW424882   3.928   2.581   2.302  0.3839  0.1719 -0.1397
 6288SOL     OW24883   0.757   1.886   1.989  0.2326  0.1932  0.2067
 6288SOL    HW224884   0.764   1.942   1.911  0.3421  1.4565  1.0995
 6288SOL    HW324885   0.829   1.913   2.045 -0.0497 -0.4711  0.9052
 6288SOL    MW424886   0.767   1.897   1.986 -0.2534 -0.7437 -0.4672
 6289SOL     OW24887   4.069   1.121   3.643  0.7321  0.6625 -0.1020
 6289SOL    HW224888   4.160   1.102   3.619  0.6454  0.7649 -0.5129
 6289SOL    HW324889   4.017   1.071   3.580  0.4799 -0.7458  1.1571
 6289SOL    MW424890   4.074   1.112   3.631  0.4646 -0.1505  0.3017
 6290SOL     OW24891   5.891   2.371   0.551  0.5330  0.5596 -0.0110
 6290SOL    HW224892   5.866   2.292   0.599  2.4598 -0.9758 -1.3660
 6290SOL    HW324893   5.814   2.391   0.497  1.2095 -2.9450 -2.7248
 6290SOL    MW424894   5.878   2.363   0.550 -0.4808  0.4478 -0.4947
 6291SOL     OW24895   0.482   1.493   2.616 -0.2495  0.1621 -0.1048
 6291SOL    HW224896   0.570   1.527   2.603  0.0077 -0.9861 -1.5425
 6291SOL    HW324897   0.492   1.398   2.623 -1.3527  0.0263 -0.0640
 6291SOL    MW424898   0.495   1.485   2.615 -0.2684 -0.2519 -1.0798
 6292SOL     OW24899   3.553   6.267   2.855 -0.0415  0.3631 -0.5482
 6292SOL    HW224900   3.569   6.358   2.830  0.5050  0.3960 -0.1041
 6292SOL    HW324901   3.574   6.263   2.948 -0.9235 -0.0241 -0.3537
 6292SOL    MW424902   3.558   6.278   2.864  0.4475  0.3075 -0.1751
 6293SOL     OW24903   4.797   2.372   4.238 -0.0524 -0.4024  0.6242
 6293SOL    HW224904   4.734   2.302   4.255 -1.3535  1.1768  2.8811
 6293SOL    HW324905   4.789   2.389   4.144  1.4530 -4.2024 -0.3834
 6293SOL    MW424906   4.787   2.365   4.228  0.3355  0.3940  0.6178
 6294SOL     OW24907   4.241   2.112   0.911 -0.6579  0.2262 -0.3217
 6294SOL    HW224908   4.183   2.162   0.968 -2.2560 -1.3085 -0.5269
 6294SOL    HW324909   4.203   2.119   0.824 -1.6962 -2.3333 -0.1476
 6294SOL    MW424910   4.228   2.119   0.907  0.5689 -0.0668 -0.5274
 6295SOL     OW24911   0.261   3.885   1.753  0.4469 -0.2040 -0.5471
 6295SOL    HW224912   0.229   3.972   1.774  2.5335 -0.1082  3.4319
 6295SOL    HW324913   0.357   3.895   1.749  0.7685 -2.2484  0.3462
 6295SOL    MW424914   0.270   3.898   1.755 -0.3944  0.1108  0.8201
 6296SOL     OW24915   3.444   1.668   2.997  0.4891  0.9240 -0.4920
 6296SOL    HW224916   3.537   1.687   3.004  0.8669 -0.7340 -0.6203
 6296SOL    HW324917   3.434   1.627   2.911 -0.1411 -0.0192  0.0114
 6296SOL    MW424918   3.455   1.665   2.986  0.0112 -0.1690 -0.2754
 6297SOL     OW24919   3.201   4.034   4.442 -0.1998  0.8281 -0.0936
 6297SOL    HW224920   3.242   3.956   4.404 -1.2621 -0.1934  0.7488
 6297SOL    HW324921   3.107   4.019   4.432 -0.4371  3.0737 -1.9139
 6297SOL    MW424922   3.194   4.022   4.436 -0.4606 -0.0797  0.1159
 6298SOL     OW24923   4.978   2.350   2.644  0.6067  0.2594  0.5666
 6298SOL    HW224924   4.951   2.399   2.722  2.2491  1.6844  0.3135
 6298SOL    HW324925   4.999   2.418   2.580 -1.7855 -0.8779 -1.5677
 6298SOL    MW424926   4.977   2.366   2.646  0.0679  1.2642 -0.0859
 6299SOL     OW24927   3.575   1.005   3.943  0.3885 -0.4502  0.5444
 6299SOL    HW224928   3.485   0.985   3.917  0.4889 -0.5836  0.2881
 6299SOL    HW324929   3.627   0.988   3.864  0.5263  0.5111  0.4106
 6299SOL    MW424930   3.570   1.000   3.929 -0.0848 -0.3767  0.3871
 6300SOL     OW24931   5.207   3.670   3.601  0.0863 -0.0301  0.1319
 6300SOL    HW224932   5.147   3.743   3.618  1.1992  1.1023 -0.7077
 6300SOL    HW324933   5.216   3.668   3.506  1.1924 -0.3529  0.2358
 6300SOL    MW424934   5.200   3.679   3.591 -0.2687  0.4801 -0.4264
 6301SOL     OW24935   4.965   1.456   1.623 -0.0342  0.0833  0.1601
 6301SOL    HW224936   4.963   1.368   1.660 -0.3898  0.1603  0.3295
 6301SOL    HW324937   4.894   1.457   1.559 -1.7473  1.0142  1.9576
 6301SOL    MW424938   4.955   1.444   1.619 -0.6971 -0.2070 -0.4712
 6302SOL     OW24939   3.035   4.747   3.348 -0.4307 -0.0836 -0.4880
 6302SOL    HW224940   2.982   4.724   3.424  1.4514  0.1625  0.9735
 6302SOL    HW324941   3.049   4.663   3.303 -0.8501 -0.3694 -0.0997
 6302SOL    MW424942   3.030   4.733   3.352 -0.1493 -0.4343 -0.9826
 6303SOL     OW24943   5.863   5.741   3.493  0.2896  0.3986  0.4030
 6303SOL    HW224944   5.903   5.743   3.407 -0.8418 -0.2210 -0.1597
 6303SOL    HW324945   5.837   5.832   3.509  0.5381  0.5228  0.1068
 6303SOL    MW424946   5.865   5.754   3.484  0.1777  0.4615 -0.2342
 6304SOL     OW24947   4.167   1.643   4.385 -0.0161 -0.1493  0.1469
 6304SOL    HW224948   4.137   1.729   4.412 -0.2574  0.0805 -0.8377
 6304SOL    HW324949   4.201   1.603   4.466 -3.2111 -0.5558  1.4221
 6304SOL    MW424950   4.168   1.649   4.399 -0.8561  0.0650 -0.0021
 6305SOL     OW24951   4.823   5.449   5.942 -0.1778 -0.3313 -0.2434
 6305SOL    HW224952   4.771   5.530   5.949  0.0977 -0.0740 -1.0838
 6305SOL    HW324953   4.811   5.406   6.026 -1.1868  0.0718 -0.1685
 6305SOL    MW424954   4.814   5.454   5.954  0.2371 -0.1308  0.0270
 6306SOL     OW24955   1.784   5.824   3.758 -0.2721  0.3395 -0.3582
 6306SOL    HW224956   1.753   5.889   3.821  0.2831  0.1775  0.0831
 6306SOL    HW324957   1.791   5.873   3.676  0.4772  0.9312  0.0491
 6306SOL    MW424958   1.781   5.839   3.755 -1.2142  0.1938 -0.3935
 6307SOL     OW24959   5.024   4.131   1.722 -0.1996 -0.1333  1.0141
 6307SOL    HW224960   4.987   4.049   1.692 -0.4144  0.2261  0.2592
 6307SOL    HW324961   5.105   4.140   1.671 -0.1016  0.0474  1.2022
 6307SOL    MW424962   5.030   4.122   1.711  0.2645  0.0007  0.6673
 6308SOL     OW24963   1.487   3.014   4.489  0.7903 -0.3496 -0.0113
 6308SOL    HW224964   1.451   3.086   4.540 -0.5393 -1.8697  1.3222
 6308SOL    HW324965   1.578   3.006   4.521 -0.2235 -1.7949  2.9407
 6308SOL    MW424966   1.494   3.022   4.500 -0.3704 -0.1965  0.2971
 6309SOL     OW24967   4.813   5.326   4.172 -0.0329 -0.1356  0.2734
 6309SOL    HW224968   4.718   5.328   4.177 -0.3277 -2.7453 -1.8571
 6309SOL    HW324969   4.841   5.294   4.257 -1.0512  0.5385  0.8829
 6309SOL    MW424970   4.804   5.322   4.184 -0.2106 -0.3557  0.0574
 6310SOL     OW24971   3.271   0.755   4.809  0.1703  0.5364  0.1158
 6310SOL    HW224972   3.347   0.762   4.867  1.5755  0.3951 -1.6047
 6310SOL    HW324973   3.218   0.832   4.829  0.2493  0.1399  2.0263
 6310SOL    MW424974   3.274   0.766   4.819  0.7234  0.6304 -0.6066
 6311SOL     OW24975   1.542   1.751   6.223  0.1673  0.1545 -0.5007
 6311SOL    HW224976   1.628   1.726   6.188  0.5906 -0.8373  1.1511
 6311SOL    HW324977   1.482   1.739   6.149  1.6364  2.5180 -2.2091
 6311SOL    MW424978   1.545   1.746   6.209  0.6320 -0.1796  0.3348
 6312SOL     OW24979   1.254   3.391   5.321 -0.0616 -0.0531  0.2742
 6312SOL    HW224980   1.250   3.397   5.416  0.0614  0.5579  0.2439
 6312SOL    HW324981   1.294   3.306   5.304  2.4422  0.9280  0.8241
 6312SOL    MW424982   1.258   3.381   5.331  0.3458 -0.0512  0.3260
 6313SOL     OW24983   3.852   0.171   1.119 -0.3416  0.1520 -0.2954
 6313SOL    HW224984   3.875   0.155   1.210 -1.6802 -1.3873 -0.1886
 6313SOL    HW324985   3.790   0.101   1.097 -1.1163  1.3035 -1.9736
 6313SOL    MW424986   3.847   0.159   1.128  0.2778  0.4890  0.3973
 6314SOL     OW24987   6.385   2.140   4.829 -0.0865 -0.1021  0.4004
 6314SOL    HW224988   6.436   2.110   4.754 -1.0890 -0.4165 -0.1749
 6314SOL    HW324989   6.377   2.234   4.817 -0.5367 -0.1974 -0.0879
 6314SOL    MW424990   6.391   2.148   4.818  0.7744  0.1726 -0.4945
 6315SOL     OW24991   4.673   5.218   1.613  0.4148 -0.4080  0.0996
 6315SOL    HW224992   4.620   5.188   1.687 -1.0220 -1.2415 -1.2012
 6315SOL    HW324993   4.667   5.314   1.616  0.1201 -0.4470  0.8687
 6315SOL    MW424994   4.665   5.227   1.623 -0.1081 -0.0634  1.0821
 6316SOL     OW24995   3.131   0.219   1.146  0.3010  0.2621 -0.4833
 6316SOL    HW224996   3.106   0.308   1.172  0.3300  0.6611 -1.7598
 6316SOL    HW324997   3.226   0.217   1.154  0.2440  0.1153  0.2151
 6316SOL    MW424998   3.140   0.230   1.151 -0.5939  0.0427  0.2185
 6317SOL     OW24999   3.517   3.981   3.356 -0.2682 -0.0470  0.3599
 6317SOL    HW225000   3.481   4.068   3.370 -0.1423 -0.2351  2.0002
 6317SOL    HW325001   3.598   3.980   3.406 -0.4553 -1.2252  0.6723
 6317SOL    MW425002   3.523   3.992   3.364 -0.1773  0.3878  0.0441
 6318SOL     OW25003   5.412   0.679   6.112  0.1799  0.0472  0.1920
 6318SOL    HW225004   5.374   0.593   6.127  0.4207  0.0864  1.0602
 6318SOL    HW325005   5.349   0.740   6.151  0.8768  0.1413  1.2181
 6318SOL    MW425006   5.398   0.676   6.119 -0.1994  0.7871 -0.8788
 6319SOL     OW25007   4.439   1.537   2.244 -0.1351  0.4024 -0.5473
 6319SOL    HW225008   4.426   1.508   2.334  1.1172 -2.3312 -1.1492
 6319SOL    HW325009   4.382   1.613   2.235 -3.3728 -1.5862  1.3860
 6319SOL    MW425010   4.430   1.543   2.254  0.5321 -0.7027 -0.3918
 6320SOL     OW25011   0.914   0.923   4.273  0.3780 -0.3654 -0.1854
 6320SOL    HW225012   0.960   0.880   4.201  1.3793 -1.8806  1.2892
 6320SOL    HW325013   0.832   0.875   4.282  0.1191  0.0118 -0.4784
 6320SOL    MW425014   0.909   0.911   4.265  0.0874 -0.5504 -0.0983
 6321SOL     OW25015   2.905   4.785   2.894  0.2663 -0.2719  0.3594
 6321SOL    HW225016   2.928   4.751   2.808 -3.5827 -3.7484  0.3826
 6321SOL    HW325017   2.948   4.726   2.956  0.2560  0.1013  0.7293
 6321SOL    MW425018   2.914   4.773   2.891 -0.4711  0.5022  0.0512
 6322SOL     OW25019   0.673   5.277   2.974 -0.2647  0.7215  0.6984
 6322SOL    HW225020   0.709   5.353   2.929  2.2156  0.1035  1.4977
 6322SOL    HW325021   0.691   5.292   3.066 -0.1010 -0.6127  0.9170
 6322SOL    MW425022   0.680   5.289   2.980 -0.5025 -0.4409  0.5721
 6323SOL     OW25023   3.225   6.086   0.207  0.3330  0.0226 -0.3337
 6323SOL    HW225024   3.204   6.179   0.210 -0.7272 -0.1621 -1.4954
 6323SOL    HW325025   3.142   6.043   0.187  0.9890 -1.1026 -0.7192
 6323SOL    MW425026   3.211   6.092   0.205  0.3877  0.0640 -0.3162
 6324SOL     OW25027   5.793   0.357   1.458  0.2062 -0.1063  0.2094
 6324SOL    HW225028   5.814   0.326   1.370  0.3374 -0.8995  0.5079
 6324SOL    HW325029   5.702   0.328   1.472  0.4424 -0.6660  0.6191
 6324SOL    MW425030   5.784   0.349   1.448  0.4502 -0.0101 -0.5169
 6325SOL     OW25031   5.355   4.808   3.037 -0.4220 -0.7044 -0.0640
 6325SOL    HW225032   5.316   4.743   2.978  0.7965  0.8492 -2.7488
 6325SOL    HW325033   5.431   4.841   2.990  1.7223 -0.5735  3.1731
 6325SOL    MW425034   5.360   4.803   3.023  0.0536  0.0611 -0.2706
 6326SOL     OW25035   4.521   1.908   0.973  0.3989  0.3744 -0.2333
 6326SOL    HW225036   4.535   1.958   1.053  1.8141  0.3678 -0.4556
 6326SOL    HW325037   4.484   1.971   0.911  2.0943  1.1642 -0.4898
 6326SOL    MW425038   4.518   1.923   0.975  0.5116 -0.1016  0.0085
 6327SOL     OW25039   1.804   5.409   3.859 -0.1628 -0.2827  0.0100
 6327SOL    HW225040   1.881   5.375   3.814  0.7873  2.0397 -0.2589
 6327SOL    HW325041   1.771   5.334   3.910  0.9217 -1.9416 -1.5834
 6327SOL    MW425042   1.809   5.394   3.860  0.2615  0.1415 -0.0190
 6328SOL     OW25043   5.858   6.027   1.810 -0.1854 -0.6064  0.1023
 6328SOL    HW225044   5.857   5.944   1.857 -1.2378 -1.4041 -1.2370
 6328SOL    HW325045   5.773   6.030   1.766  0.7692  0.0173 -1.7932
 6328SOL    MW425046   5.846   6.016   1.810 -0.2489 -0.1477 -0.1388
 6329SOL     OW25047   4.140   2.497   0.575  0.1280 -1.0715  0.1632
 6329SOL    HW225048   4.138   2.585   0.537  0.0144 -0.8079  0.7696
 6329SOL    HW325049   4.161   2.439   0.502 -2.8220 -0.9099 -0.9560
 6329SOL    MW425050   4.142   2.501   0.560 -0.3592  0.2663  0.0523
 6330SOL     OW25051   0.254   3.431   3.350 -0.0064 -0.3076  0.1109
 6330SOL    HW225052   0.211   3.441   3.265 -1.0974 -1.9167  0.4175
 6330SOL    HW325053   0.186   3.394   3.406  1.5919 -2.4206  0.7807
 6330SOL    MW425054   0.239   3.427   3.346  0.4781 -0.5387  0.2291
 6331SOL     OW25055   6.018   5.569   5.267 -0.0818  0.0675  0.0192
 6331SOL    HW225056   6.004   5.661   5.290 -0.4630  0.0014  0.0518
 6331SOL    HW325057   5.972   5.520   5.336 -1.1796 -0.1370 -0.8298
 6331SOL    MW425058   6.010   5.574   5.279 -0.1995 -0.8903  0.0860
 6332SOL     OW25059   1.517   6.378   1.101  0.0869  0.3450 -0.6952
 6332SOL    HW225060   1.535   6.347   1.190  1.9686  1.9968 -0.4248
 6332SOL    HW325061   1.478   6.302   1.057  0.5541 -1.0165  1.0834
 6332SOL    MW425062   1.514   6.364   1.107 -0.4175  0.3498 -0.0564
 6333SOL     OW25063   5.477   0.403   5.933 -0.8709  0.0435 -0.4627
 6333SOL    HW225064   5.385   0.420   5.952 -1.7106  0.2391 -3.9670
 6333SOL    HW325065   5.500   0.466   5.865  1.6055 -0.6335 -0.3726
 6333SOL    MW425066   5.468   0.414   5.926 -0.7242 -0.5186 -0.3287
 6334SOL     OW25067   4.231   0.785   5.051 -0.0022  0.3557 -0.2564
 6334SOL    HW225068   4.189   0.865   5.018 -0.5920 -0.2974 -1.1241
 6334SOL    HW325069   4.267   0.811   5.135 -0.9280  1.3204 -0.1266
 6334SOL    MW425070   4.230   0.799   5.057 -0.6854 -0.0885  0.1603
 6335SOL     OW25071   2.832   6.140   3.546 -0.1044  0.2015 -0.0069
 6335SOL    HW225072   2.789   6.055   3.538 -1.0440  0.6460  0.2239
 6335SOL    HW325073   2.787   6.183   3.619  1.8233  0.0453  1.3598
 6335SOL    MW425074   2.820   6.134   3.554 -0.2336 -0.4151  1.0372
 6336SOL     OW25075   3.667   1.878   1.624 -0.4594  0.0106  0.4433
 6336SOL    HW225076   3.689   1.967   1.596 -1.8491  0.4592  0.6782
 6336SOL    HW325077   3.741   1.850   1.678  0.9599  0.2184 -1.2946
 6336SOL    MW425078   3.680   1.886   1.627  0.5236 -0.1610  0.7163
 6337SOL     OW25079   1.003   4.468   0.924 -0.2962 -0.1340  0.1757
 6337SOL    HW225080   0.961   4.439   0.842  0.6938  0.0223 -0.4029
 6337SOL    HW325081   1.081   4.413   0.931 -0.1405  0.1686  0.7863
 6337SOL    MW425082   1.008   4.457   0.914  0.5219 -0.8459  0.3768
 6338SOL     OW25083   4.032   5.970   5.565 -0.6008 -0.0757  0.4666
 6338SOL    HW225084   4.061   6.019   5.642  1.7452 -0.0047 -0.3862
 6338SOL    HW325085   4.072   6.016   5.492 -3.6790  0.5471 -1.0057
 6338SOL    MW425086   4.041   5.983   5.566  0.3064 -0.3543 -0.0439
 6339SOL     OW25087   3.487   6.112   0.042 -0.3122  0.3292 -0.1285
 6339SOL    HW225088   3.500   6.112   0.137 -1.0831  0.1531 -0.0225
 6339SOL    HW325089   3.403   6.069   0.028 -0.1457  0.2266 -0.9057
 6339SOL    MW425090   3.478   6.106   0.052 -0.0356 -0.4947  0.9267
 6340SOL     OW25091   6.118   2.680   1.047 -0.2221 -0.1958  0.2655
 6340SOL    HW225092   6.208   2.672   1.078 -0.3578 -0.6525  0.5599
 6340SOL    HW325093   6.087   2.763   1.084  0.0056 -0.1455  0.3472
 6340SOL    MW425094   6.126   2.690   1.056 -0.0204  0.3313 -0.7748
 6341SOL     OW25095   2.331   3.643   6.008 -0.8955 -0.3203  0.0484
 6341SOL    HW225096   2.417   3.672   6.038 -0.1391 -3.1014  0.8426
 6341SOL    HW325097   2.275   3.650   6.085 -0.0957 -3.0467  0.9974
 6341SOL    MW425098   2.335   3.648   6.022 -0.0845 -0.3409  1.1080
 6342SOL     OW25099   5.823   3.116   1.760 -0.1075 -0.0008 -0.0983
 6342SOL    HW225100   5.868   3.130   1.677 -0.7885  1.4299 -0.2637
 6342SOL    HW325101   5.762   3.045   1.743  0.5645 -0.4973 -0.4785
 6342SOL    MW425102   5.821   3.108   1.747 -0.0957 -0.2171 -0.2769
 6343SOL     OW25103   4.206   5.751   3.548  0.6326  0.4711 -0.4785
 6343SOL    HW225104   4.203   5.844   3.523  1.1717  0.8403  0.7668
 6343SOL    HW325105   4.298   5.727   3.535  1.0068  0.7670  1.4022
 6343SOL    MW425106   4.218   5.760   3.543  0.1169  0.0446  0.0899
 6344SOL     OW25107   2.235   4.003   3.030 -0.3082  0.3210 -0.0807
 6344SOL    HW225108   2.281   4.063   3.088 -0.2985 -0.1352  0.3969
 6344SOL    HW325109   2.256   4.033   2.942  0.3899  0.5026  0.1405
 6344SOL    MW425110   2.244   4.015   3.026 -0.3024  0.8067 -0.3011
 6345SOL     OW25111   2.882   0.389   4.965  0.1211  0.4394 -0.6418
 6345SOL    HW225112   2.851   0.387   4.875  0.6802 -1.1547 -0.8251
 6345SOL    HW325113   2.978   0.382   4.958  0.1918  0.5581  0.0634
 6345SOL    MW425114   2.891   0.388   4.952 -0.1557  0.2705 -0.1100
 6346SOL     OW25115   0.541   2.664   5.739 -0.3513  0.4179 -0.2014
 6346SOL    HW225116   0.535   2.713   5.657 -2.4346  0.6640  0.0276
 6346SOL    HW325117   0.617   2.700   5.783 -0.2545  1.5513 -1.2318
 6346SOL    MW425118   0.550   2.675   5.734  0.0214  1.0577  0.6426
 6347SOL     OW25119   4.401   4.824   4.125  0.2616 -0.3199 -0.0868
 6347SOL    HW225120   4.343   4.825   4.201  0.1916  2.2645 -0.0822
 6347SOL    HW325121   4.391   4.736   4.088 -1.9934 -0.6635  1.1622
 6347SOL    MW425122   4.392   4.813   4.130  0.1060  0.4845 -0.4108
 6348SOL     OW25123   1.010   0.413   3.186  0.1047  0.1208  0.5252
 6348SOL    HW225124   1.069   0.341   3.209 -0.3045 -0.9722 -1.6195
 6348SOL    HW325125   0.926   0.371   3.167 -0.9378  1.4811  1.8592
 6348SOL    MW425126   1.007   0.398   3.187  0.1245  0.0759  0.0584
 6349SOL     OW25127   1.658   0.978   2.465  0.2816  0.2811  0.4763
 6349SOL    HW225128   1.685   0.886   2.461  0.2171  0.2785 -0.0708
 6349SOL    HW325129   1.565   0.976   2.445  0.4812  0.5434 -0.5763
 6349SOL    MW425130   1.649   0.965   2.462 -0.1212  0.9754  0.3612
 6350SOL     OW25131   2.089   4.091   3.594  0.3054 -0.0047 -0.2104
 6350SOL    HW225132   2.023   4.145   3.550  0.5550  0.0979 -0.4642
 6350SOL    HW325133   2.168   4.101   3.540  0.3276 -0.7035 -0.3137
 6350SOL    MW425134   2.091   4.099   3.581  0.9743 -0.3535 -0.0739
 6351SOL     OW25135   3.994   5.775   2.652 -0.2284 -0.3440  0.2230
 6351SOL    HW225136   4.043   5.780   2.570 -1.4835 -1.0337 -0.5954
 6351SOL    HW325137   4.006   5.685   2.682  0.8508  0.1071  1.2243
 6351SOL    MW425138   4.002   5.764   2.645 -0.3368 -0.5449  0.2593
 6352SOL     OW25139   2.289   2.457   0.427 -0.1922  0.1432 -0.0517
 6352SOL    HW225140   2.255   2.448   0.516 -0.9511  0.8259 -0.2601
 6352SOL    HW325141   2.236   2.396   0.374  1.6895 -1.9203  0.2825
 6352SOL    MW425142   2.277   2.448   0.432 -0.0584  0.3572 -0.7144
 6353SOL     OW25143   1.058   0.849   4.042  0.5194  0.2712  0.0881
 6353SOL    HW225144   1.104   0.767   4.057 -0.5753 -0.3056  0.4328
 6353SOL    HW325145   1.119   0.917   4.068 -0.2762 -0.5171  4.8521
 6353SOL    MW425146   1.072   0.847   4.047 -0.3045  0.1107  0.2455
 6354SOL     OW25147   3.508   0.100   0.893 -0.3930 -0.0031  0.0141
 6354SOL    HW225148   3.572   0.116   0.824 -0.4671 -0.1563 -0.0915
 6354SOL    HW325149   3.479   0.010   0.877  0.2175 -0.3392  0.7523
 6354SOL    MW425150   3.513   0.090   0.882  0.4395 -0.1318 -0.6423
 6355SOL     OW25151   1.954   0.415   4.089  0.3351  0.2625  0.0486
 6355SOL    HW225152   1.863   0.386   4.104  0.9822 -1.1229  1.6166
 6355SOL    HW325153   1.969   0.480   4.157  1.4641 -1.8305  1.9226
 6355SOL    MW425154   1.944   0.420   4.100 -0.6126 -0.0183  0.1680
 6356SOL     OW25155   2.658   4.717   2.810  0.6867  0.4652 -0.1879
 6356SOL    HW225156   2.745   4.732   2.848  0.3787 -1.1694  1.3328
 6356SOL    HW325157   2.597   4.743   2.880 -0.0355  0.7002 -0.8883
 6356SOL    MW425158   2.661   4.723   2.825 -0.6705 -0.1104 -1.1672
 6357SOL     OW25159   2.213   0.234   1.311  0.6596 -0.0317 -0.9555
 6357SOL    HW225160   2.256   0.199   1.233  1.0630 -1.4627 -0.1239
 6357SOL    HW325161   2.284   0.276   1.360  0.8888 -1.3054 -0.1787
 6357SOL    MW425162   2.228   0.235   1.307  0.2885 -0.2042 -0.0878
 6358SOL     OW25163   0.863   3.829   1.327 -0.1052 -0.7304  0.5313
 6358SOL    HW225164   0.874   3.907   1.273  0.1360 -0.5526  0.8351
 6358SOL    HW325165   0.772   3.802   1.313  0.3343 -1.4893 -1.0293
 6358SOL    MW425166   0.853   3.835   1.318  0.6986 -0.0821 -0.8974
 6359SOL     OW25167   2.019   3.445   3.517  0.1183 -0.2397  0.7047
 6359SOL    HW225168   1.958   3.447   3.591  0.0043 -0.0328  0.6049
 6359SOL    HW325169   2.099   3.485   3.551  0.9350 -2.3945  1.4890
 6359SOL    MW425170   2.021   3.451   3.532  0.1113 -0.0673  0.7160
 6360SOL     OW25171   3.013   5.024   6.199  0.1162  0.2522 -0.3917
 6360SOL    HW225172   3.097   5.057   6.231 -0.4022  2.7378 -1.3580
 6360SOL    HW325173   3.000   5.069   6.116 -2.0304 -0.2834 -0.4046
 6360SOL    MW425174   3.023   5.035   6.193 -0.1117  0.2912 -0.2817
 6361SOL     OW25175   5.878   6.294   1.477 -0.0556  0.2127 -0.2569
 6361SOL    HW225176   5.894   6.259   1.390  0.1108 -0.5660  0.0694
 6361SOL    HW325177   5.784   6.284   1.491 -0.1987  1.0503 -0.6417
 6361SOL    MW425178   5.868   6.288   1.468  0.5725 -0.4107  0.8114
 6362SOL     OW25179   4.424   3.116   5.607  0.0961  0.0809 -0.1774
 6362SOL    HW225180   4.499   3.152   5.559  0.0212 -1.9143 -1.9306
 6362SOL    HW325181   4.348   3.158   5.568  0.1901  2.3498  1.8170
 6362SOL    MW425182   4.424   3.126   5.596  0.3882 -0.2378  0.3066
 6363SOL     OW25183   3.079   0.992   4.865 -0.1683 -0.6146  0.3554
 6363SOL    HW225184   3.093   1.084   4.841  1.2298 -1.3791 -2.0932
 6363SOL    HW325185   2.984   0.983   4.873 -0.3689  0.8516 -0.1521
 6363SOL    MW425186   3.068   1.003   4.863  0.9355 -0.1545  0.6072
 6364SOL     OW25187   1.814   1.250   1.084 -0.0329  0.4361  0.5606
 6364SOL    HW225188   1.782   1.333   1.118  0.8222  1.1992 -0.4434
 6364SOL    HW325189   1.796   1.254   0.990  0.4398 -0.3266  0.4300
 6364SOL    MW425190   1.807   1.261   1.076  0.0962  0.1212  0.2490
 6365SOL     OW25191   0.657   2.169   4.622 -0.2607 -0.3860 -0.2655
 6365SOL    HW225192   0.751   2.152   4.631 -0.2384  0.4473  1.5192
 6365SOL    HW325193   0.652   2.245   4.564  0.1599 -0.3660 -0.2816
 6365SOL    MW425194   0.669   2.177   4.615 -0.5334 -0.4840  0.4755
 6366SOL     OW25195   4.623   0.281   5.488  0.1487  0.0905  0.1746
 6366SOL    HW225196   4.571   0.317   5.560 -1.2150 -0.8487 -0.2929
 6366SOL    HW325197   4.559   0.266   5.418  0.6689 -2.7687  0.1780
 6366SOL    MW425198   4.608   0.284   5.488  0.1321 -0.0299  0.3977
 6367SOL     OW25199   1.188   4.396   4.599 -0.2883  0.2732  0.1452
 6367SOL    HW225200   1.095   4.389   4.624  0.3947 -0.3796  2.9485
 6367SOL    HW325201   1.203   4.490   4.588 -0.9864  0.5131  1.0970
 6367SOL    MW425202   1.178   4.408   4.601 -0.0264  0.7898 -0.0440
 6368SOL     OW25203   0.763   4.815   3.162  0.0944  0.4941  0.0605
 6368SOL    HW225204   0.791   4.734   3.206 -1.0094 -0.0271 -0.1561
 6368SOL    HW325205   0.697   4.786   3.099  0.5968  1.4236 -0.9130
 6368SOL    MW425206   0.758   4.800   3.160 -0.3119  0.6754  0.1611
 6369SOL     OW25207   0.968   0.985   1.832  0.1830 -0.6027 -0.0835
 6369SOL    HW225208   0.985   1.071   1.794 -1.9202  0.2679  0.7818
 6369SOL    HW325209   0.993   0.994   1.924 -2.2781 -0.0591  0.6115
 6369SOL    MW425210   0.974   0.998   1.839 -0.2112 -0.1402  0.0633
 6370SOL     OW25211   3.764   4.955   4.200  0.1097 -0.1165 -0.8295
 6370SOL    HW225212   3.691   5.012   4.223 -1.2315 -1.2841 -1.9768
 6370SOL    HW325213   3.728   4.866   4.209  1.5503 -0.7392 -0.9238
 6370SOL    MW425214   3.750   4.951   4.204 -0.5938  0.0414  0.7425
 6371SOL     OW25215   0.701   5.243   4.167 -0.0582  0.1783  0.0935
 6371SOL    HW225216   0.666   5.257   4.079 -0.8457 -0.7068  0.2531
 6371SOL    HW325217   0.671   5.155   4.191 -0.2609  0.5956  1.4376
 6371SOL    MW425218   0.692   5.233   4.158  0.6348 -0.1919  0.0654
 6372SOL     OW25219   1.394   0.137   0.755  0.6754 -0.3938  0.3521
 6372SOL    HW225220   1.478   0.092   0.745 -0.0851 -1.6292 -0.8862
 6372SOL    HW325221   1.344   0.082   0.815  0.1270 -0.6346 -0.3165
 6372SOL    MW425222   1.399   0.124   0.761  0.4984 -0.2196 -0.0026
 6373SOL     OW25223   5.802   0.205   6.211  0.5576  0.3730  0.2595
 6373SOL    HW225224   5.783   0.287   6.166 -0.4917  0.5058  0.9016
 6373SOL    HW325225   5.740   0.203   6.284  0.9791 -0.7051  0.6095
 6373SOL    MW425226   5.791   0.215   6.215 -0.4726  0.1164  0.5084
 6374SOL     OW25227   6.172   2.979   3.588  0.6579 -0.4364  0.4462
 6374SOL    HW225228   6.084   3.005   3.618 -0.3843 -3.0243 -0.0857
 6374SOL    HW325229   6.171   2.994   3.494  0.3083 -1.6089  0.2488
 6374SOL    MW425230   6.160   2.985   3.580 -0.3497 -0.2783  0.1601
 6375SOL     OW25231   4.781   1.413   2.081  0.1066  0.0076 -0.3798
 6375SOL    HW225232   4.705   1.383   2.032 -0.5762 -1.2070  1.3022
 6375SOL    HW325233   4.746   1.478   2.142 -0.1105 -2.1252  1.9268
 6375SOL    MW425234   4.767   1.418   2.083  0.3569 -0.2345  0.5166
 6376SOL     OW25235   2.575   2.744   3.786  0.2429 -0.0244 -0.5080
 6376SOL    HW225236   2.632   2.689   3.839  1.0290  1.7695  0.6149
 6376SOL    HW325237   2.549   2.689   3.713  0.1085 -2.2094  1.0891
 6376SOL    MW425238   2.579   2.730   3.783 -0.4482 -0.4713  0.3551
 6377SOL     OW25239   1.012   1.495   6.093  0.2336  0.2417  0.1853
 6377SOL    HW225240   0.973   1.501   6.180  0.7842 -0.2413  0.4703
 6377SOL    HW325241   1.054   1.409   6.091 -0.9542 -0.3467 -1.0511
 6377SOL    MW425242   1.013   1.484   6.104 -0.5148  0.0991  0.2549
 6378SOL     OW25243   1.477   5.789   5.465 -0.2373  0.3794  0.3613
 6378SOL    HW225244   1.568   5.762   5.480  0.2357  0.3814 -2.0309
 6378SOL    HW325245   1.472   5.877   5.501  0.8138  0.5078  0.2241
 6378SOL    MW425246   1.489   5.797   5.472  0.6419 -0.0295  0.5525
 6379SOL     OW25247   0.531   1.427   4.539 -0.1061 -0.3497  0.1207
 6379SOL    HW225248   0.529   1.335   4.564 -0.2838 -0.3476  0.1155
 6379SOL    HW325249   0.517   1.426   4.444  0.0914 -0.3285  0.0902
 6379SOL    MW425250   0.529   1.415   4.530  0.1030  0.3225 -0.6910
 6380SOL     OW25251   3.643   4.518   1.555  0.1172 -0.3599 -0.3334
 6380SOL    HW225252   3.696   4.497   1.478  2.5336  0.0195  1.1318
 6380SOL    HW325253   3.607   4.434   1.583 -0.2176 -0.6024 -1.4633
 6380SOL    MW425254   3.646   4.504   1.549  0.1339  0.0125 -0.2442
 6381SOL     OW25255   3.344   6.309   4.292 -0.3867 -0.0852  0.2057
 6381SOL    HW225256   3.402   6.254   4.240  0.9671 -0.2352  1.7865
 6381SOL    HW325257   3.308   6.250   4.358 -1.0559  0.3641  0.2535
 6381SOL    MW425258   3.347   6.294   4.294  0.4164  0.0779 -0.4300
 6382SOL     OW25259   3.061   2.444   6.021  0.3844 -0.0244 -0.6231
 6382SOL    HW225260   3.134   2.469   5.964  1.3908  0.4507  0.8264
 6382SOL    HW325261   3.011   2.525   6.032  0.8734  0.1788  0.1297
 6382SOL    MW425262   3.064   2.458   6.015  0.0174 -0.2431 -0.5316
 6383SOL     OW25263   4.521   1.266   4.264 -0.3042 -0.1198  0.4473
 6383SOL    HW225264   4.611   1.234   4.256 -0.1683  0.5608 -1.2395
 6383SOL    HW325265   4.495   1.287   4.174 -1.9324  0.2900  0.9769
 6383SOL    MW425266   4.529   1.265   4.251 -0.1514  0.5799 -0.4247
 6384SOL     OW25267   5.662   4.842   2.562 -0.0934 -0.2753 -0.0930
 6384SOL    HW225268   5.701   4.929   2.568 -0.3394 -0.2484  1.6712
 6384SOL    HW325269   5.578   4.850   2.607 -1.0787 -0.9470 -1.7022
 6384SOL    MW425270   5.656   4.854   2.569 -0.2371  0.3274 -0.0451
 6385SOL     OW25271   2.938   5.133   2.872  0.5404 -0.2184 -0.2039
 6385SOL    HW225272   2.935   5.162   2.964  1.5504 -0.4213 -0.0964
 6385SOL    HW325273   2.866   5.180   2.830  0.1196 -0.0558  0.6737
 6385SOL    MW425274   2.928   5.143   2.879  0.1433  0.5525  0.2507
 6386SOL     OW25275   0.416   2.400   6.308  0.1089  0.1139  0.3477
 6386SOL    HW225276   0.418   2.471   6.371 -1.4570 -0.2077  0.7885
 6386SOL    HW325277   0.388   2.323   6.358  0.3281 -0.4971 -0.4309
 6386SOL    MW425278   0.413   2.399   6.323  1.0984  0.2105  0.6451
 6387SOL     OW25279   2.838   3.026   2.894  0.5577 -0.1873  0.2481
 6387SOL    HW225280   2.796   3.092   2.840  1.2374  0.3785  0.3881
 6387SOL    HW325281   2.932   3.035   2.875  0.6059 -1.6058 -0.2711
 6387SOL    MW425282   2.845   3.036   2.885 -0.2050  0.3759 -0.0551
 6388SOL     OW25283   4.084   5.446   3.575 -0.0888 -0.0287 -0.4524
 6388SOL    HW225284   4.108   5.526   3.530  0.6653  0.1151  0.1928
 6388SOL    HW325285   4.064   5.473   3.664  0.9430 -0.6564 -0.0136
 6388SOL    MW425286   4.084   5.460   3.581 -0.1855 -0.6178  0.1485
 6389SOL     OW25287   0.339   2.195   5.868 -0.4644  0.5669  0.0655
 6389SOL    HW225288   0.262   2.209   5.924  1.1356 -0.6932  2.7611
 6389SOL    HW325289   0.391   2.275   5.879 -0.3587  0.5090 -0.0209
 6389SOL    MW425290   0.336   2.208   5.877 -0.2786 -0.1213 -0.4814
 6390SOL     OW25291   4.342   2.020   6.249 -0.4158  0.4806  0.5460
 6390SOL    HW225292   4.438   2.025   6.248 -0.3848 -0.0418  0.3137
 6390SOL    HW325293   4.323   1.934   6.210 -1.0260  1.2757 -0.9893
 6390SOL    MW425294   4.352   2.009   6.243 -0.3750  0.2602  0.6101
 6391SOL     OW25295   5.486   4.110   0.624  0.9180  0.3875 -0.2542
 6391SOL    HW225296   5.405   4.145   0.660  1.2158 -1.0810  2.0894
 6391SOL    HW325297   5.552   4.131   0.690  2.3761  1.0437 -1.8421
 6391SOL    MW425298   5.484   4.117   0.638 -0.5408 -0.2716 -0.1368
 6392SOL     OW25299   4.769   5.786   1.688 -0.2820 -1.1637 -0.1398
 6392SOL    HW225300   4.743   5.696   1.706 -1.9418 -0.7973 -0.4744
 6392SOL    HW325301   4.709   5.814   1.618  1.7590 -0.5452 -1.7387
 6392SOL    MW425302   4.758   5.778   1.681 -0.4374 -0.0088 -0.4886
 6393SOL     OW25303   0.367   5.078   5.400 -0.2860  0.3143  0.2505
 6393SOL    HW225304   0.420   5.153   5.372 -0.6564  0.0128 -1.3518
 6393SOL    HW325305   0.277   5.104   5.383 -0.3617 -0.9179 -1.5276
 6393SOL    MW425306   0.362   5.091   5.394 -0.2867 -0.0972  0.4318
 6394SOL     OW25307   1.351   4.420   6.291 -0.1470  0.5366  0.3141
 6394SOL    HW225308   1.401   4.374   6.224 -0.8980  0.8938 -0.5113
 6394SOL    HW325309   1.286   4.357   6.321  0.7389  0.0897  1.3494
 6394SOL    MW425310   1.349   4.406   6.286 -0.3338 -0.8662 -0.4815
 6395SOL     OW25311   2.971   1.449   3.187 -0.1009 -0.2529 -0.2076
 6395SOL    HW225312   3.016   1.517   3.135 -0.1222 -1.6617 -2.1949
 6395SOL    HW325313   2.971   1.484   3.276  1.6171  1.4774 -0.7878
 6395SOL    MW425314   2.977   1.463   3.192  0.0815  0.5957 -0.0276
 6396SOL     OW25315   5.470   3.420   0.542  0.5427  0.2080  0.6913
 6396SOL    HW225316   5.388   3.463   0.569 -0.5083  0.8640 -2.9677
 6396SOL    HW325317   5.525   3.492   0.511 -0.1703 -0.6356 -2.9708
 6396SOL    MW425318   5.466   3.435   0.541 -0.4025 -0.2489  0.0803
 6397SOL     OW25319   0.734   1.303   6.094  0.7866 -0.2916  0.2736
 6397SOL    HW225320   0.742   1.376   6.034  1.5607  0.8345  1.6679
 6397SOL    HW325321   0.773   1.229   6.048  0.0619  0.1799 -1.1334
 6397SOL    MW425322   0.740   1.303   6.080 -0.1020  1.0907  0.3192
 6398SOL     OW25323   1.036   5.864   6.139  0.7055 -0.1522  0.0753
 6398SOL    HW225324   1.007   5.952   6.116  0.9027 -0.2392 -0.4973
 6398SOL    HW325325   0.981   5.841   6.214 -1.3237 -0.6296 -1.4677
 6398SOL    MW425326   1.025   5.873   6.146 -0.1741 -0.3755  0.4218
 6399SOL     OW25327   6.079   0.027   2.886  0.3524 -0.3895 -0.2934
 6399SOL    HW225328   6.015   0.067   2.827  0.9706 -0.2776 -0.8937
 6399SOL    HW325329   6.144   0.096   2.901  1.1615 -0.9927 -0.9354
 6399SOL    MW425330   6.079   0.041   2.880 -0.4134 -0.3694 -0.1903
 6400SOL     OW25331   6.289   1.534   3.550  0.2988 -0.3545  0.3027
 6400SOL    HW225332   6.320   1.445   3.536 -0.2203 -0.9659  2.5670
 6400SOL    HW325333   6.194   1.528   3.548  0.2245  0.5941 -1.6253
 6400SOL    MW425334   6.280   1.522   3.548 -0.3217 -0.5752  0.1049
 6401SOL     OW25335   1.185   1.319   4.907 -0.5032 -0.4018  0.0246
 6401SOL    HW225336   1.193   1.401   4.857 -0.3759  0.4751  1.4397
 6401SOL    HW325337   1.127   1.264   4.854 -0.3176  0.4718 -1.1138
 6401SOL    MW425338   1.179   1.323   4.893 -0.3598 -0.5582 -0.2596
 6402SOL     OW25339   0.653   4.011   2.968 -0.4614  0.7526 -0.1707
 6402SOL    HW225340   0.742   4.010   3.002  0.0581 -0.0697 -1.4849
 6402SOL    HW325341   0.636   4.103   2.949 -0.1149  0.9887  0.5909
 6402SOL    MW425342   0.662   4.023   2.970 -0.1224 -0.4723  0.5348
 6403SOL     OW25343   1.361   1.519   4.189  0.5422  0.5520  0.5476
 6403SOL    HW225344   1.351   1.613   4.206  2.2512  0.7541  0.5973
 6403SOL    HW325345   1.429   1.514   4.123 -1.6150 -0.5523 -1.7742
 6403SOL    MW425346   1.368   1.531   4.183  0.1458  0.1529 -0.9047
 6404SOL     OW25347   0.239   2.363   1.842 -0.2555 -0.0165 -0.0790
 6404SOL    HW225348   0.320   2.313   1.832 -0.5085 -0.5699  0.5786
 6404SOL    HW325349   0.239   2.424   1.768 -0.0866 -1.1689 -1.0452
 6404SOL    MW425350   0.250   2.365   1.831  0.5461 -0.1958 -0.6039
 6405SOL     OW25351   5.197   6.028   0.294 -0.4922 -0.3465  0.8374
 6405SOL    HW225352   5.155   6.047   0.210  1.3449  0.1672 -0.0257
 6405SOL    HW325353   5.256   5.955   0.274 -1.4234 -1.5093  2.1704
 6405SOL    MW425354   5.199   6.021   0.280  0.4199  0.0638 -0.3574
 6406SOL     OW25355   1.943   1.067   2.070  0.4314  0.0302  0.2383
 6406SOL    HW225356   2.022   1.013   2.070 -0.6233 -1.5838 -0.7946
 6406SOL    HW325357   1.924   1.082   1.977 -0.2858  0.6912  0.4763
 6406SOL    MW425358   1.951   1.062   2.057  0.3566  0.4371  0.2931
 6407SOL     OW25359   3.601   4.003   2.877  0.2649 -0.1954 -0.4330
 6407SOL    HW225360   3.598   3.930   2.815  1.8121 -1.2565  0.6578
 6407SOL    HW325361   3.557   4.075   2.832 -1.6601 -1.8902 -1.3959
 6407SOL    MW425362   3.595   4.003   2.863  0.4272 -0.3407 -0.1914
 6408SOL     OW25363   0.284   2.543   5.493  0.0279 -0.5536 -0.2837
 6408SOL    HW225364   0.248   2.542   5.582 -0.7803  2.7929 -0.4276
 6408SOL    HW325365   0.208   2.532   5.436  0.1680 -0.1574 -0.5502
 6408SOL    MW425366   0.269   2.541   5.497 -0.1426  0.0744 -0.3551
 6409SOL     OW25367   3.423   5.229   4.941 -0.2739  0.8275 -0.3887
 6409SOL    HW225368   3.419   5.141   4.903 -1.1521  0.6408  0.1081
 6409SOL    HW325369   3.490   5.223   5.009 -0.9872  0.2755  0.2802
 6409SOL    MW425370   3.431   5.217   4.945 -0.5640  0.4088 -0.5629
 6410SOL     OW25371   2.988   4.089   3.150  0.2240 -0.2890  0.4727
 6410SOL    HW225372   2.975   4.135   3.067 -1.3097 -1.3900  0.0709
 6410SOL    HW325373   3.077   4.055   3.144  0.4989  0.5090 -0.2652
 6410SOL    MW425374   2.998   4.091   3.138  0.7883  0.0503 -0.1673
 6411SOL     OW25375   0.669   1.269   1.883 -0.3035 -0.8962 -0.2018
 6411SOL    HW225376   0.689   1.176   1.871  2.2687 -0.1894 -2.4351
 6411SOL    HW325377   0.737   1.300   1.944 -0.7419 -0.3418  0.0080
 6411SOL    MW425378   0.681   1.260   1.889  0.3704  0.1552  0.4422
 6412SOL     OW25379   2.456   5.145   0.990 -0.4974  0.4568  0.0294
 6412SOL    HW225380   2.391   5.193   0.940  1.4345 -0.8208 -4.1731
 6412SOL    HW325381   2.539   5.162   0.945  1.3604 -1.5216  2.3791
 6412SOL    MW425382   2.458   5.154   0.978  0.7279  0.1458  0.1505
 6413SOL     OW25383   4.910   6.143   3.731 -0.3080 -0.0439 -0.5847
 6413SOL    HW225384   4.904   6.202   3.807 -0.3980  1.8963 -2.0248
 6413SOL    HW325385   4.821   6.108   3.722 -0.1736 -0.7173  0.4948
 6413SOL    MW425386   4.898   6.146   3.740 -0.0951 -0.3315  0.6778
 6414SOL     OW25387   3.590   0.726   2.852 -0.1727 -0.4433  0.4945
 6414SOL    HW225388   3.678   0.688   2.847 -0.8647 -2.1275  0.5802
 6414SOL    HW325389   3.586   0.766   2.939  0.8476  0.5850  0.0980
 6414SOL    MW425390   3.601   0.726   2.863  0.2032  0.4295 -0.0600
 6415SOL     OW25391   6.277   3.596   3.416 -0.5631  0.3890  0.0358
 6415SOL    HW225392   6.258   3.637   3.501  0.3555  0.3345  0.2816
 6415SOL    HW325393   6.305   3.508   3.439  0.4302  0.6219 -0.2641
 6415SOL    MW425394   6.278   3.590   3.430  0.2330  0.8336 -0.1626
 6416SOL     OW25395   2.032   0.696   4.864  0.3299 -0.4848 -0.5081
 6416SOL    HW225396   1.965   0.668   4.802  0.9665 -1.1775 -0.9109
 6416SOL    HW325397   2.032   0.791   4.858 -3.0026 -0.1798  2.0845
 6416SOL    MW425398   2.023   0.705   4.855 -0.2686  0.3181 -0.0490
 6417SOL     OW25399   0.769   6.272   4.916 -0.0204 -0.2003 -0.0251
 6417SOL    HW225400   0.789   6.300   4.826  2.9356  0.4465  0.7256
 6417SOL    HW325401   0.734   6.350   4.958  0.1998 -0.0212 -0.1703
 6417SOL    MW425402   0.767   6.286   4.909  0.2173  0.4293 -0.0528
 6418SOL     OW25403   1.070   0.500   1.671 -0.3880  0.2480 -0.4439
 6418SOL    HW225404   1.133   0.447   1.622  0.7201  1.4383 -0.3716
 6418SOL    HW325405   0.985   0.479   1.633  0.4032  1.1075 -2.9215
 6418SOL    MW425406   1.067   0.490   1.660 -0.1201 -1.1224 -0.5902
 6419SOL     OW25407   0.029   5.291   1.441  0.2493  0.2243  0.1346
 6419SOL    HW225408   0.098   5.268   1.502 -0.7788  1.4984  1.8711
 6419SOL    HW325409  -0.036   5.222   1.451 -0.8583  1.4490  2.1213
 6419SOL    MW425410   0.029   5.279   1.450 -0.3453  0.0317  0.2409
 6420SOL     OW25411   3.721   5.687   1.889 -0.7124 -0.2052  0.2104
 6420SOL    HW225412   3.630   5.663   1.872 -0.9190 -0.2694  1.2825
 6420SOL    HW325413   3.760   5.699   1.803 -1.2624 -1.9194 -0.3270
 6420SOL    MW425414   3.714   5.685   1.876  0.2655  0.1114  0.1988
 6421SOL     OW25415   2.245   0.125   1.055 -0.2675 -0.3330  0.5985
 6421SOL    HW225416   2.335   0.133   1.022  0.2730  1.3989  2.3258
 6421SOL    HW325417   2.195   0.189   1.004 -0.1777 -0.1671  0.7171
 6421SOL    MW425418   2.251   0.135   1.044  0.1034 -0.5055 -0.0269
 6422SOL     OW25419   2.960   2.056   6.087 -0.7015  0.0644 -0.0077
 6422SOL    HW225420   3.039   2.110   6.082 -0.4453 -0.3908 -1.3445
 6422SOL    HW325421   2.976   1.996   6.160 -0.8383  1.5118  1.2597
 6422SOL    MW425422   2.972   2.055   6.096 -0.2813 -0.2029 -0.0800
 6423SOL     OW25423   1.758   2.271   1.027  0.3988  0.1177 -0.2134
 6423SOL    HW225424   1.719   2.252   0.942 -2.3492 -0.8349  1.1460
 6423SOL    HW325425   1.798   2.188   1.055 -1.0578 -0.3647  0.5297
 6423SOL    MW425426   1.758   2.258   1.020 -0.8152 -0.2821 -0.5323
 6424SOL     OW25427   1.652   0.283   3.102  0.3142  0.0544  0.2274
 6424SOL    HW225428   1.624   0.367   3.137  0.2497  0.2305 -0.2445
 6424SOL    HW325429   1.609   0.276   3.017  1.0922 -0.0151 -0.1719
 6424SOL    MW425430   1.643   0.293   3.095  0.8021  0.4447 -0.4212
 6425SOL     OW25431   2.309   4.612   6.177 -0.1111  0.1425 -0.7046
 6425SOL    HW225432   2.301   4.679   6.244 -0.9241 -1.9190  1.4020
 6425SOL    HW325433   2.391   4.567   6.198  0.0863  0.0161 -1.6738
 6425SOL    MW425434   2.319   4.614   6.188 -0.3204  0.2736  0.3809
 6426SOL     OW25435   5.948   5.730   3.184  0.2517 -0.2643 -0.2777
 6426SOL    HW225436   6.044   5.738   3.185  0.4305 -1.9588  1.5289
 6426SOL    HW325437   5.929   5.680   3.105  0.9376 -0.7547 -0.1383
 6426SOL    MW425438   5.958   5.725   3.173 -0.0452  0.0053 -0.1424
 6427SOL     OW25439   3.273   2.049   3.822  0.7211 -0.4159  0.4641
 6427SOL    HW225440   3.217   1.987   3.776  2.0937 -1.0669 -0.4237
 6427SOL    HW325441   3.361   2.029   3.790  1.4107  0.8403  1.4827
 6427SOL    MW425442   3.278   2.039   3.811 -0.4063  0.3377 -0.2386
 6428SOL     OW25443   5.511   0.398   3.640 -0.1545 -0.5977 -0.4882
 6428SOL    HW225444   5.500   0.322   3.583  1.9518 -0.0770 -1.6666
 6428SOL    HW325445   5.466   0.469   3.594  3.0050  0.2441 -2.5386
 6428SOL    MW425446   5.504   0.397   3.626 -0.2604  0.2082 -0.3522
 6429SOL     OW25447   0.584   0.101   0.657 -0.4323  0.3792 -0.0877
 6429SOL    HW225448   0.550   0.102   0.747  0.0530  0.0897  0.1042
 6429SOL    HW325449   0.569   0.189   0.624  0.9768  1.0173  0.8909
 6429SOL    MW425450   0.577   0.113   0.665  0.1997  0.0964  0.4838
 6430SOL     OW25451   1.863   6.371   3.431 -0.3277 -0.3632 -0.0926
 6430SOL    HW225452   1.931   6.339   3.371 -0.9927  0.1237 -1.1417
 6430SOL    HW325453   1.898   6.454   3.464  0.0557 -0.6459  0.2152
 6430SOL    MW425454   1.877   6.378   3.427 -0.3956  0.0742 -0.5270
 6431SOL     OW25455   2.233   5.179   4.806 -0.2961 -0.3374 -0.4542
 6431SOL    HW225456   2.323   5.209   4.820 -0.3865  0.4550 -1.4904
 6431SOL    HW325457   2.180   5.258   4.809 -0.9899 -0.8128  0.2429
 6431SOL    MW425458   2.238   5.193   4.808 -0.3593  1.1083  0.8815
 6432SOL     OW25459   0.894   3.589   3.039  0.3976 -0.0873  0.6433
 6432SOL    HW225460   0.946   3.627   2.969 -1.4013 -1.0750 -1.3247
 6432SOL    HW325461   0.927   3.632   3.119  2.6270  0.9327 -0.7367
 6432SOL    MW425462   0.905   3.600   3.041  0.6661  0.1341 -0.6498
 6433SOL     OW25463   4.749   5.331   6.199 -0.1347  0.3264 -0.0852
 6433SOL    HW225464   4.808   5.394   6.240  0.0005 -0.0678  0.3291
 6433SOL    HW325465   4.795   5.248   6.203 -0.6130  0.0618  0.0088
 6433SOL    MW425466   4.762   5.328   6.205  0.2283  0.0357 -0.2152
 6434SOL     OW25467   3.120   2.668   1.721 -0.1230  0.7115  0.0300
 6434SOL    HW225468   3.099   2.733   1.787 -1.6955 -0.7424  1.0679
 6434SOL    HW325469   3.191   2.616   1.759 -0.7026  0.1699  0.3825
 6434SOL    MW425470   3.127   2.669   1.734  0.0888  0.4265  0.0021
 6435SOL     OW25471   0.841   1.050   0.897  0.2330  0.2043  0.0284
 6435SOL    HW225472   0.921   1.093   0.927  0.4973  1.3850 -2.1521
 6435SOL    HW325473   0.775   1.119   0.898  0.1385  0.1671 -1.5188
 6435SOL    MW425474   0.843   1.065   0.901 -0.1566 -0.5370  0.0920
 6436SOL     OW25475   3.808   1.363   0.689 -0.1521  0.0437  0.2224
 6436SOL    HW225476   3.738   1.304   0.718  0.9035 -2.0813 -1.2842
 6436SOL    HW325477   3.875   1.355   0.756 -0.3216  0.1093  0.4007
 6436SOL    MW425478   3.807   1.354   0.701 -0.4264 -0.0396 -0.7319
 6437SOL     OW25479   4.836   5.833   4.309 -0.0381  0.6087  0.3732
 6437SOL    HW225480   4.798   5.774   4.244 -0.5727  0.8231  0.4833
 6437SOL    HW325481   4.880   5.900   4.258  0.2876  0.3000  0.2436
 6437SOL    MW425482   4.837   5.834   4.294  0.2257 -0.6527 -0.5981
 6438SOL     OW25483   4.891   5.471   2.471  0.0969  0.1427 -0.2964
 6438SOL    HW225484   4.861   5.380   2.472 -0.4655  0.2966 -1.3687
 6438SOL    HW325485   4.861   5.505   2.387 -0.0978  1.4550  0.2800
 6438SOL    MW425486   4.883   5.463   2.460  0.0529  0.7002  0.0359
 6439SOL     OW25487   6.028   1.830   0.932 -0.4384  0.2858  0.4055
 6439SOL    HW225488   6.002   1.892   0.864 -0.5461  0.1837  0.3523
 6439SOL    HW325489   6.118   1.854   0.954 -0.0157 -0.3725 -0.5440
 6439SOL    MW425490   6.036   1.841   0.926 -0.2424  0.3310  0.1248
 6440SOL     OW25491   5.895   5.900   5.564 -0.0617  0.4776 -0.2436
 6440SOL    HW225492   5.943   5.887   5.482 -1.2104 -1.2298 -0.6862
 6440SOL    HW325493   5.809   5.861   5.548 -1.4602  2.9247  0.7266
 6440SOL    MW425494   5.890   5.893   5.551 -0.0250 -0.6886  0.3416
 6441SOL     OW25495   0.577   5.685   0.376  0.8251 -0.0497  0.3681
 6441SOL    HW225496   0.575   5.628   0.299  1.0320 -2.7331  2.2174
 6441SOL    HW325497   0.487   5.716   0.385  0.9317  0.8338 -1.2748
 6441SOL    MW425498   0.565   5.682   0.367 -0.1827 -0.0881 -0.3081
 6442SOL     OW25499   4.550   1.837   4.139 -0.0807  0.2764 -0.6484
 6442SOL    HW225500   4.534   1.891   4.217  1.0372 -0.8503  0.4178
 6442SOL    HW325501   4.486   1.766   4.146 -1.0511  1.0135 -1.6506
 6442SOL    MW425502   4.539   1.834   4.151  0.0816  0.4804 -0.0303
 6443SOL     OW25503   3.842   2.761   4.802 -0.5582 -0.0554 -1.1595
 6443SOL    HW225504   3.899   2.723   4.868  0.0388  0.3804 -1.4091
 6443SOL    HW325505   3.758   2.718   4.815 -0.4759  0.0939 -0.0622
 6443SOL    MW425506   3.839   2.750   4.812  0.0796 -0.7364 -0.8689
 6444SOL     OW25507   4.309   0.789   5.318 -0.1531 -0.1836 -0.2134
 6444SOL    HW225508   4.400   0.760   5.307 -0.2049 -0.6999  0.6494
 6444SOL    HW325509   4.315   0.884   5.328  0.1198  0.0203 -1.9393
 6444SOL    MW425510   4.322   0.797   5.318  0.0284 -0.3313  0.1257
 6445SOL     OW25511   3.328   3.178   5.252  0.5470  0.0815  0.4765
 6445SOL    HW225512   3.285   3.225   5.324  0.0648 -0.2277  0.3926
 6445SOL    HW325513   3.286   3.212   5.173  0.3612 -0.3132  0.4022
 6445SOL    MW425514   3.317   3.189   5.251 -0.5025  0.3856 -0.3031
 6446SOL     OW25515   2.925   3.399   6.129 -0.4788  0.2436  0.0680
 6446SOL    HW225516   2.842   3.353   6.115 -0.0493  0.1813 -2.9473
 6446SOL    HW325517   2.903   3.491   6.119 -0.0926  0.1775 -1.7342
 6446SOL    MW425518   2.911   3.405   6.126 -0.4165  0.1789 -0.3743
 6447SOL     OW25519   0.314   2.030   3.706 -0.4880 -0.0456 -0.0009
 6447SOL    HW225520   0.230   2.060   3.741 -0.9072 -0.4458 -0.6473
 6447SOL    HW325521   0.292   1.958   3.647  0.4082 -0.9197  0.6943
 6447SOL    MW425522   0.300   2.024   3.703 -0.1769  0.4875  0.4712
 6448SOL     OW25523   3.878   2.237   5.041 -0.5594  0.2203  0.1476
 6448SOL    HW225524   3.831   2.308   4.998  0.5555  0.4051 -0.8259
 6448SOL    HW325525   3.823   2.213   5.115 -1.6698  1.1026 -0.3620
 6448SOL    MW425526   3.864   2.243   5.045  0.0223  0.1111 -0.8850
 6449SOL     OW25527   5.271   2.873   2.164  0.2287 -0.0479  0.0645
 6449SOL    HW225528   5.311   2.873   2.251 -0.7997 -0.9926  0.5601
 6449SOL    HW325529   5.296   2.788   2.127 -0.8233 -0.4069  0.1593
 6449SOL    MW425530   5.280   2.861   2.171  0.4835 -0.0014  0.0458
 6450SOL     OW25531   4.804   0.037   1.773 -0.2692 -0.4718 -0.2338
 6450SOL    HW225532   4.785  -0.040   1.827  1.4044 -1.4839 -1.0219
 6450SOL    HW325533   4.806   0.003   1.683 -1.3075  0.8577 -0.7891
 6450SOL    MW425534   4.802   0.022   1.768 -0.0887 -0.0525  0.0952
 6451SOL     OW25535   4.813   1.955   3.565 -0.3934 -0.8365  0.3041
 6451SOL    HW225536   4.718   1.943   3.573 -0.5806 -1.0548 -1.7376
 6451SOL    HW325537   4.827   2.048   3.584 -0.8732 -0.9967  1.5250
 6451SOL    MW425538   4.802   1.966   3.569 -0.6046  0.3838  0.5045
 6452SOL     OW25539   1.730   6.438   1.950 -0.1777 -0.0877  0.1790
 6452SOL    HW225540   1.680   6.486   1.884  0.7731 -0.0673 -0.5497
 6452SOL    HW325541   1.668   6.376   1.988 -1.2121  1.1481  0.5517
 6452SOL    MW425542   1.716   6.436   1.946 -0.3685 -0.0389  0.3508
 6453SOL     OW25543   3.912   1.494   2.080 -0.6887 -0.2573 -0.7528
 6453SOL    HW225544   3.989   1.549   2.094 -1.6763  0.5769  2.0012
 6453SOL    HW325545   3.930   1.415   2.131 -2.6845  1.1067  2.3426
 6453SOL    MW425546   3.925   1.491   2.088  0.0014  0.3522 -0.2222
 6454SOL     OW25547   3.604   5.022   1.753 -0.2860  0.0930  0.6583
 6454SOL    HW225548   3.667   4.949   1.762 -0.6422 -0.0662  2.1595
 6454SOL    HW325549   3.563   5.007   1.668  2.4270  0.8016 -0.9047
 6454SOL    MW425550   3.607   5.010   1.743  0.3920  0.5946 -0.3291
 6455SOL     OW25551   3.449   5.278   1.496  0.1256  0.4349 -0.5518
 6455SOL    HW225552   3.460   5.183   1.485  0.3619  0.5638 -1.6037
 6455SOL    HW325553   3.502   5.300   1.572  0.3866 -0.2289 -0.5329
 6455SOL    MW425554   3.458   5.268   1.504 -0.1587  0.2829  0.1605
 6456SOL     OW25555   1.393   2.762   4.535  0.2354 -0.1082  0.1940
 6456SOL    HW225556   1.354   2.741   4.450  0.2662  0.6074 -0.0008
 6456SOL    HW325557   1.430   2.849   4.523 -0.4970  0.3570  1.1901
 6456SOL    MW425558   1.393   2.771   4.522  0.3277  0.0280  0.6636
 6457SOL     OW25559   2.080   0.325   0.926  0.8596 -0.7195  0.0260
 6457SOL    HW225560   2.158   0.379   0.920  0.3713 -0.0033 -0.0080
 6457SOL    HW325561   2.046   0.343   1.014  0.7133 -1.0005  0.0277
 6457SOL    MW425562   2.086   0.334   0.937 -0.7483  0.1840  0.1431
 6458SOL     OW25563   4.911   2.858   0.940 -0.1438  0.1644 -0.2982
 6458SOL    HW225564   4.848   2.805   0.891 -1.1174  1.4743 -0.5208
 6458SOL    HW325565   4.895   2.836   1.032 -0.2856 -0.1937 -0.4088
 6458SOL    MW425566   4.901   2.848   0.946 -0.1063  0.0982 -0.0404
 6459SOL     OW25567   4.103   3.878   5.125 -0.4454  0.3121  0.1797
 6459SOL    HW225568   4.019   3.848   5.091 -0.4435  0.7454 -0.2114
 6459SOL    HW325569   4.122   3.817   5.197 -0.0862 -1.0793 -1.0343
 6459SOL    MW425570   4.095   3.866   5.130 -0.1656 -0.0082 -0.4237
 6460SOL     OW25571   4.435   3.517   3.713  0.1597  0.3396  0.4118
 6460SOL    HW225572   4.340   3.525   3.722  0.0484  2.6541 -1.5707
 6460SOL    HW325573   4.470   3.589   3.766  0.6953  0.3669  0.0326
 6460SOL    MW425574   4.427   3.528   3.721 -0.6602 -0.0411 -0.0942
 6461SOL     OW25575   4.898   3.132   0.918  0.3238  0.0811  0.0892
 6461SOL    HW225576   4.901   3.036   0.915 -2.2876 -0.0877  0.4010
 6461SOL    HW325577   4.953   3.155   0.993  0.8243 -1.1945  0.1345
 6461SOL    MW425578   4.905   3.122   0.928 -0.3076  0.1391 -0.6291
 6462SOL     OW25579   3.748   1.601   6.264  0.1252  0.1258  0.1157
 6462SOL    HW225580   3.677   1.602   6.328 -1.0288 -0.7606 -1.0806
 6462SOL    HW325581   3.781   1.511   6.267 -0.0233  0.0406 -0.5887
 6462SOL    MW425582   3.743   1.589   6.273  0.0693 -0.6630 -0.5796
 6463SOL     OW25583   0.107   2.679   1.811 -0.4107 -0.9064 -0.3389
 6463SOL    HW225584   0.181   2.666   1.751 -0.2829  2.6114 -1.1519
 6463SOL    HW325585   0.148   2.703   1.894 -0.6377 -1.1046 -0.1686
 6463SOL    MW425586   0.122   2.681   1.814  0.1804 -0.1564  0.0849
 6464SOL     OW25587   2.705   5.787   1.044 -0.4089  0.3406 -0.3323
 6464SOL    HW225588   2.787   5.739   1.041 -0.2234  0.6122  0.3034
 6464SOL    HW325589   2.663   5.758   1.125 -1.9222 -1.3729 -1.6358
 6464SOL    MW425590   2.710   5.777   1.054  0.1223 -0.6091 -0.1031
 6465SOL     OW25591   0.983   2.658   2.789  0.1828  0.1601  0.0830
 6465SOL    HW225592   1.026   2.726   2.738 -0.0380 -0.0491 -0.3905
 6465SOL    HW325593   0.898   2.647   2.747  1.5414 -3.0233 -2.2715
 6465SOL    MW425594   0.977   2.665   2.777  0.2101 -0.3161 -0.4379
 6466SOL     OW25595   4.242   3.824   6.246 -0.3552  0.8248 -0.5166
 6466SOL    HW225596   4.217   3.787   6.331 -0.1947  2.0551  0.1012
 6466SOL    HW325597   4.185   3.781   6.183 -0.4957 -0.0968  0.2231
 6466SOL    MW425598   4.231   3.814   6.249 -0.3657 -0.0435  0.2166
 6467SOL     OW25599   5.968   5.283   4.423  0.3079  0.3195 -0.6799
 6467SOL    HW225600   5.941   5.193   4.404  0.0277  0.4466 -0.8906
 6467SOL    HW325601   5.902   5.338   4.379 -3.0472  0.6844  4.0147
 6467SOL    MW425602   5.956   5.279   4.415  0.0001 -0.6074 -0.9390
 6468SOL     OW25603   5.201   1.686   3.440 -0.0663 -0.4871  0.2280
 6468SOL    HW225604   5.265   1.649   3.500 -0.4472  0.4709  1.2688
 6468SOL    HW325605   5.122   1.698   3.494 -0.2057  1.0464 -0.2705
 6468SOL    MW425606   5.199   1.683   3.455  0.0090 -0.3814 -0.3604
 6469SOL     OW25607   2.898   3.833   5.065  0.5591 -0.3640 -0.4402
 6469SOL    HW225608   2.812   3.797   5.086 -1.2720  2.8636 -1.6800
 6469SOL    HW325609   2.927   3.782   4.989 -1.8410  0.5187 -2.0697
 6469SOL    MW425610   2.891   3.821   5.057  0.3310 -0.2262  0.4238
 6470SOL     OW25611   0.290   4.618   1.668 -0.2492  0.6030  0.1145
 6470SOL    HW225612   0.243   4.538   1.645 -1.9106  1.3641  0.7442
 6470SOL    HW325613   0.379   4.603   1.635 -0.6759 -1.2351 -0.3349
 6470SOL    MW425614   0.296   4.606   1.661  0.2238  0.0610 -0.1899
 6471SOL     OW25615   2.395   3.118   5.274 -0.0166  0.0142 -0.3772
 6471SOL    HW225616   2.352   3.042   5.313  0.4140 -0.3848 -0.6718
 6471SOL    HW325617   2.410   3.177   5.348 -1.6302  0.4556 -0.3469
 6471SOL    MW425618   2.391   3.116   5.289 -0.2909  0.2775 -0.4925
 6472SOL     OW25619   2.577   4.856   0.989 -0.0806 -0.2791  0.0132
 6472SOL    HW225620   2.605   4.768   1.013  1.2060  0.0959 -0.0037
 6472SOL    HW325621   2.492   4.867   1.032  0.7128 -0.7603  1.8384
 6472SOL    MW425622   2.570   4.846   0.998  0.1733 -0.4112 -0.4274
 6473SOL     OW25623   4.830   0.886   2.246 -0.1428 -0.2597 -0.1591
 6473SOL    HW225624   4.823   0.883   2.341  0.7398 -0.3857 -0.0893
 6473SOL    HW325625   4.831   0.979   2.225  0.2388 -0.2229  0.0082
 6473SOL    MW425626   4.830   0.898   2.256  0.5621 -0.3518 -0.1135
 6474SOL     OW25627   5.354   5.587   1.979  0.4253 -0.1691 -0.2089
 6474SOL    HW225628   5.312   5.625   2.056  1.6503 -0.8550  0.8273
 6474SOL    HW325629   5.386   5.662   1.930 -1.0507  0.3173 -0.4911
 6474SOL    MW425630   5.352   5.602   1.983  0.6843 -0.0641 -0.1751
 6475SOL     OW25631   4.069   2.068   4.927 -0.3267  0.3318 -0.5132
 6475SOL    HW225632   4.080   1.988   4.978 -1.2263  0.0037 -0.8114
 6475SOL    HW325633   4.012   2.123   4.982 -0.2952  0.4780 -0.6257
 6475SOL    MW425634   4.063   2.065   4.941 -0.4907 -0.8412  0.0723
 6476SOL     OW25635   0.322   2.115   2.213  0.1227 -0.2135 -0.4202
 6476SOL    HW225636   0.357   2.028   2.195  3.2486  0.9408 -0.3954
 6476SOL    HW325637   0.246   2.122   2.155  1.5030 -1.9111 -2.5783
 6476SOL    MW425638   0.316   2.104   2.203 -0.0187  0.1972 -0.3990
 6477SOL     OW25639   3.983   1.909   3.062 -0.4359  0.3416 -0.3751
 6477SOL    HW225640   3.992   1.911   3.157 -3.5425  0.6546  0.0267
 6477SOL    HW325641   3.952   1.821   3.042 -0.2668  0.4291 -1.0563
 6477SOL    MW425642   3.980   1.898   3.072 -0.1806 -0.2056  0.3710
 6478SOL     OW25643   0.032   0.399   0.692 -0.0854  0.3250  0.3818
 6478SOL    HW225644  -0.055   0.432   0.670 -0.3731 -0.2750  0.5895
 6478SOL    HW325645   0.018   0.347   0.772  0.8628  2.2402  1.8798
 6478SOL    MW425646   0.019   0.396   0.700 -0.0185  0.0031 -0.4954
 6479SOL     OW25647   0.650   5.368   1.149  0.1468 -0.1396 -0.1242
 6479SOL    HW225648   0.578   5.358   1.087  0.7293 -0.0225 -0.8321
 6479SOL    HW325649   0.632   5.304   1.218 -0.6270 -0.1073 -0.2888
 6479SOL    MW425650   0.638   5.359   1.150  0.2877  0.0684  0.1376
 6480SOL     OW25651   4.824   2.207   2.350 -0.0839  0.2785 -0.0700
 6480SOL    HW225652   4.913   2.182   2.329  0.1024  0.8815 -0.0346
 6480SOL    HW325653   4.813   2.185   2.443  0.4028  1.2060  0.2219
 6480SOL    MW425654   4.834   2.201   2.360 -0.2985  0.0959  0.3290
 6481SOL     OW25655   0.553   3.667   1.696  0.2545  0.7011 -0.1313
 6481SOL    HW225656   0.555   3.621   1.780  0.6865 -1.5032 -1.2721
 6481SOL    HW325657   0.466   3.647   1.660 -0.4125  2.6586  0.2741
 6481SOL    MW425658   0.542   3.658   1.702 -0.3775  0.0884  0.1263
 6482SOL     OW25659   5.003   4.991   2.803  0.4707 -0.2041 -0.3022
 6482SOL    HW225660   4.972   4.929   2.737 -0.7599 -0.0371  0.0952
 6482SOL    HW325661   4.963   5.074   2.779  0.6031  0.0211  0.2434
 6482SOL    MW425662   4.994   4.994   2.791  0.8656  0.3445 -0.0387
 6483SOL     OW25663   0.300   1.794   0.111  0.5498 -0.2161  0.6774
 6483SOL    HW225664   0.292   1.777   0.017  0.9691  2.7275  0.0096
 6483SOL    HW325665   0.375   1.741   0.138  2.1226  0.8490 -1.2854
 6483SOL    MW425666   0.309   1.785   0.102 -0.1455 -0.0197  0.3928
 6484SOL     OW25667   4.552   1.212   5.577  0.4717 -0.0246 -0.0094
 6484SOL    HW225668   4.491   1.166   5.636 -0.4402  1.1232 -0.0310
 6484SOL    HW325669   4.619   1.146   5.558 -1.1869 -1.6337 -0.6680
 6484SOL    MW425670   4.553   1.197   5.582  0.4244  0.0299 -1.1028
 6485SOL     OW25671   1.295   4.469   2.862 -0.0005  0.2847  0.3779
 6485SOL    HW225672   1.235   4.403   2.896  0.4109  0.4865  1.5380
 6485SOL    HW325673   1.243   4.549   2.857 -0.5593 -0.1383 -1.2315
 6485SOL    MW425674   1.280   4.470   2.866 -0.4691  0.3653 -0.1694
 6486SOL     OW25675   4.328   3.561   2.759 -0.1148  0.0310  0.1785
 6486SOL    HW225676   4.236   3.590   2.758 -0.1408 -0.0590 -0.1090
 6486SOL    HW325677   4.362   3.592   2.843 -0.7968 -1.1438  0.9198
 6486SOL    MW425678   4.320   3.569   2.770  0.4770  0.4211 -1.1700
 6487SOL     OW25679   1.691   3.427   5.560  0.2124 -0.6461 -0.1676
 6487SOL    HW225680   1.701   3.520   5.579 -1.2602 -0.3381 -0.8251
 6487SOL    HW325681   1.698   3.421   5.465  1.8169 -1.4311 -0.0373
 6487SOL    MW425682   1.693   3.439   5.550  0.3334  0.7934  0.0750
 6488SOL     OW25683   3.214   0.627   5.258  0.3916 -0.2014 -0.6213
 6488SOL    HW225684   3.139   0.628   5.199  0.2072 -0.4400 -0.3873
 6488SOL    HW325685   3.207   0.709   5.307 -1.1524 -1.3554  1.2193
 6488SOL    MW425686   3.203   0.638   5.257  0.2243 -0.0095  0.1827
 6489SOL     OW25687   0.411   2.023   0.501  0.0692 -0.5912 -0.2184
 6489SOL    HW225688   0.481   2.042   0.439  0.2180  0.5793  0.2893
 6489SOL    HW325689   0.331   2.048   0.455  0.2592  1.3449  0.4305
 6489SOL    MW425690   0.410   2.029   0.487 -0.1515  0.1597  0.3232
 6490SOL     OW25691   5.258   1.538   2.504  0.2829  0.3772 -0.2153
 6490SOL    HW225692   5.246   1.633   2.498 -0.7809  0.2845  0.0847
 6490SOL    HW325693   5.196   1.502   2.441  0.4375 -0.1286 -0.0837
 6490SOL    MW425694   5.248   1.546   2.495 -0.6898 -0.0695 -0.0912
 6491SOL     OW25695   0.416   3.334   5.051  0.2624  0.0401  0.2383
 6491SOL    HW225696   0.480   3.337   5.122  2.0136  1.5755 -1.2824
 6491SOL    HW325697   0.332   3.354   5.093  1.1664  0.4633  1.9249
 6491SOL    MW425698   0.413   3.337   5.066 -0.3046 -0.2516  0.4697
 6492SOL     OW25699   3.832   3.077   6.080  0.0266  0.2295  0.3485
 6492SOL    HW225700   3.922   3.052   6.061 -0.0445  0.7767 -0.7933
 6492SOL    HW325701   3.798   3.006   6.135  0.3784 -1.2725 -1.2833
 6492SOL    MW425702   3.839   3.064   6.085  0.1532 -0.2636 -0.2328
 6493SOL     OW25703   4.308   3.070   4.487 -0.6160  0.2688 -0.3544
 6493SOL    HW225704   4.251   3.030   4.553 -0.0820  1.4713  0.8690
 6493SOL    HW325705   4.257   3.064   4.406 -0.9797 -1.9126 -0.0440
 6493SOL    MW425706   4.293   3.064   4.485  0.0065  0.4445 -0.1788
 6494SOL     OW25707   4.471   0.759   2.497 -0.1745  0.2536  0.0722
 6494SOL    HW225708   4.557   0.733   2.465 -0.3429 -1.5678  0.9637
 6494SOL    HW325709   4.489   0.830   2.559  0.3945  1.7726 -1.7539
 6494SOL    MW425710   4.484   0.765   2.501  0.4766  0.5279  0.0509
 6495SOL     OW25711   4.612   4.204   5.470  0.2239 -0.0016 -0.0748
 6495SOL    HW225712   4.654   4.121   5.494  1.6136  0.5894 -0.3860
 6495SOL    HW325713   4.574   4.187   5.384  0.7821 -0.2328 -0.2823
 6495SOL    MW425714   4.612   4.191   5.462  0.4608 -0.8552  0.1354
 6496SOL     OW25715   6.343   1.606   3.811 -0.2362  0.0605  0.1981
 6496SOL    HW225716   6.304   1.693   3.818  1.9619  1.1959 -0.6630
 6496SOL    HW325717   6.328   1.581   3.720  2.2089  1.2037 -0.6110
 6496SOL    MW425718   6.336   1.614   3.800  0.5979 -0.3668 -0.0418
 6497SOL     OW25719   6.034   0.712   4.123  0.0874 -0.5636 -0.5425
 6497SOL    HW225720   6.104   0.746   4.179  0.0561 -0.4978 -0.5437
 6497SOL    HW325721   5.956   0.717   4.177 -0.2618  1.0612 -1.1485
 6497SOL    MW425722   6.033   0.717   4.138 -0.0732  0.8125  0.3191
 6498SOL     OW25723   0.190   2.363   2.292 -0.7041 -0.4969  0.1437
 6498SOL    HW225724   0.255   2.294   2.278 -0.2777 -0.4701  1.7498
 6498SOL    HW325725   0.213   2.431   2.230 -0.4332 -1.3246 -0.6872
 6498SOL    MW425726   0.201   2.363   2.282  0.2883  0.3311 -0.4918
 6499SOL     OW25727   1.639   1.529   3.381 -0.6992  1.0115 -0.2659
 6499SOL    HW225728   1.653   1.435   3.390  2.6222  1.4692  0.5027
 6499SOL    HW325729   1.629   1.561   3.470 -0.7865  1.5107 -0.4496
 6499SOL    MW425730   1.639   1.521   3.394 -0.2858 -0.9514 -0.2191
 6500SOL     OW25731   1.194   0.867   1.477  0.0120 -0.1981 -0.0329
 6500SOL    HW225732   1.202   0.951   1.432  0.9593  0.1848  0.8431
 6500SOL    HW325733   1.233   0.804   1.416 -2.9448 -0.4845 -1.8584
 6500SOL    MW425734   1.200   0.870   1.463 -0.5181  0.1076  0.1945
 6501SOL     OW25735   6.164   0.969   3.466  0.0889 -0.2231  0.0284
 6501SOL    HW225736   6.129   0.880   3.469 -0.6306  0.0449 -0.0993
 6501SOL    HW325737   6.144   0.999   3.377 -0.4084  0.3481  0.3232
 6501SOL    MW425738   6.156   0.961   3.454 -0.5064 -0.0119  0.0646
 6502SOL     OW25739   5.059   4.596   5.600  0.7120  0.0496 -0.2978
 6502SOL    HW225740   5.012   4.514   5.589  0.9227 -0.1897  0.5512
 6502SOL    HW325741   5.045   4.643   5.517  2.4808 -1.7931 -1.7269
 6502SOL    MW425742   5.051   4.592   5.587 -0.3722 -0.1455 -0.5345
 6503SOL     OW25743   4.349   4.064   1.038  0.5063 -0.0648 -0.1181
 6503SOL    HW225744   4.297   4.124   0.985 -0.4404 -0.5370  0.2635
 6503SOL    HW325745   4.285   4.012   1.086  1.3335 -0.1909  0.8906
 6503SOL    MW425746   4.334   4.065   1.037  0.5615 -0.6610  0.3633
 6504SOL     OW25747   1.265   5.504   5.967  0.0619  0.6369 -0.0840
 6504SOL    HW225748   1.200   5.511   6.038 -0.2005 -0.0610 -0.2368
 6504SOL    HW325749   1.343   5.468   6.009  0.0339  0.5923 -0.0694
 6504SOL    MW425750   1.266   5.500   5.982  0.0426 -0.2750  0.3224
 6505SOL     OW25751   0.469   5.914   0.554 -0.3437 -0.1718 -0.4591
 6505SOL    HW225752   0.548   5.951   0.513  0.3757 -1.5676 -0.3765
 6505SOL    HW325753   0.415   5.991   0.574  0.4449  0.7243 -1.6257
 6505SOL    MW425754   0.472   5.929   0.551 -0.0259 -0.1584  0.5443
 6506SOL     OW25755   4.381   3.745   5.423 -0.3353  0.1252 -0.6360
 6506SOL    HW225756   4.420   3.660   5.441 -0.0570  0.6125  1.1727
 6506SOL    HW325757   4.445   3.789   5.367 -1.0808 -1.2841 -2.7786
 6506SOL    MW425758   4.394   3.740   5.418  0.2539  0.2977 -0.3164
 6507SOL     OW25759   5.925   1.394   1.282  0.2449 -0.5504 -0.4726
 6507SOL    HW225760   5.889   1.460   1.341 -0.4504 -1.4090  0.0679
 6507SOL    HW325761   5.860   1.324   1.279  0.1285 -0.4352 -2.4647
 6507SOL    MW425762   5.912   1.394   1.289 -0.7765  0.0948 -0.1798
 6508SOL     OW25763   6.013   3.299   4.071  0.2948 -0.4781  0.0062
 6508SOL    HW225764   5.918   3.284   4.069 -0.2287  1.9786  1.9195
 6508SOL    HW325765   6.043   3.249   4.147  0.5169 -1.0256 -0.4333
 6508SOL    MW425766   6.004   3.290   4.080 -0.5523 -0.6372 -0.1184
 6509SOL     OW25767   5.384   3.862   3.738  0.0949 -0.0775 -0.0721
 6509SOL    HW225768   5.339   3.785   3.703  0.2502 -1.5326  2.6583
 6509SOL    HW325769   5.364   3.932   3.675 -0.4197 -2.2000 -2.4273
 6509SOL    MW425770   5.375   3.861   3.725 -0.2234 -0.2471 -0.4432
 6510SOL     OW25771   0.744   3.221   2.540 -0.3376  0.0618  0.4746
 6510SOL    HW225772   0.756   3.128   2.517  1.6658  0.4945 -0.5165
 6510SOL    HW325773   0.701   3.258   2.463 -2.3033 -0.2407  1.3812
 6510SOL    MW425774   0.740   3.213   2.527  0.3387  0.0635  0.1879
 6511SOL     OW25775   4.152   0.426   1.117  0.7344 -0.0389  0.1967
 6511SOL    HW225776   4.158   0.349   1.061  1.7388  0.7263 -0.8071
 6511SOL    HW325777   4.218   0.411   1.185  0.9616 -0.0521 -0.0236
 6511SOL    MW425778   4.162   0.414   1.119 -0.2729  0.2723  0.2596
 6512SOL     OW25779   5.349   0.989   1.305 -0.8183 -0.6398  0.5090
 6512SOL    HW225780   5.427   0.979   1.360 -0.7028 -0.0160  0.4682
 6512SOL    HW325781   5.380   0.973   1.216 -0.5789  0.3243  0.4146
 6512SOL    MW425782   5.363   0.985   1.300 -0.5282  0.2835 -0.5103
 6513SOL     OW25783   2.000   6.153   5.109 -0.3518 -0.7453  0.1568
 6513SOL    HW225784   2.037   6.226   5.159  0.2858 -0.8010 -0.2217
 6513SOL    HW325785   1.905   6.163   5.118 -0.3260  0.8329 -0.8576
 6513SOL    MW425786   1.992   6.164   5.117 -0.3189 -0.1286 -0.0476
 6514SOL     OW25787   6.088   3.721   1.143 -0.4826  0.0149 -0.5019
 6514SOL    HW225788   6.107   3.780   1.216 -1.0660  1.1991 -1.2712
 6514SOL    HW325789   6.168   3.721   1.091  0.1126 -1.2242  0.3670
 6514SOL    MW425790   6.101   3.729   1.146 -0.1408 -0.0499 -0.4944
 6515SOL     OW25791   6.082   2.331   0.891 -0.1684 -0.6594 -0.0099
 6515SOL    HW225792   6.048   2.366   0.808  0.3229 -0.9660 -0.3442
 6515SOL    HW325793   6.048   2.390   0.958  1.1966  0.8871 -0.6149
 6515SOL    MW425794   6.073   2.343   0.889  0.3210 -0.3634 -0.2661
 6516SOL     OW25795   1.178   1.741   3.694  0.1836  0.4030 -0.3894
 6516SOL    HW225796   1.237   1.798   3.646  1.4656  0.8087  1.5234
 6516SOL    HW325797   1.100   1.794   3.711 -0.4030  0.1601 -2.1581
 6516SOL    MW425798   1.175   1.755   3.690 -0.0713 -0.4162  0.5917
 6517SOL     OW25799   4.171   2.636   3.879 -0.0657  0.4536  0.1500
 6517SOL    HW225800   4.135   2.551   3.905  0.1906 -0.0816 -1.1866
 6517SOL    HW325801   4.224   2.663   3.954  0.6552 -1.0278  0.2099
 6517SOL    MW425802   4.173   2.628   3.892 -0.2382  0.1047 -0.5117
 6518SOL     OW25803   0.416   0.972   1.789 -0.0440  0.6593 -0.0860
 6518SOL    HW225804   0.511   0.981   1.801  0.6636 -2.8707 -1.7662
 6518SOL    HW325805   0.400   1.012   1.703  0.2260 -0.1093 -0.5003
 6518SOL    MW425806   0.426   0.979   1.779  0.1570 -0.1931  0.3671
 6519SOL     OW25807   6.229   5.804   0.163 -0.7638 -0.1880 -0.3423
 6519SOL    HW225808   6.156   5.768   0.215 -0.2669  0.1157  0.5903
 6519SOL    HW325809   6.308   5.776   0.209 -0.3150  0.3400 -0.7694
 6519SOL    MW425810   6.229   5.796   0.176  0.7911  0.1136  0.1704
 6520SOL     OW25811   3.389   3.581   5.342  0.5001 -0.0039 -0.1528
 6520SOL    HW225812   3.344   3.587   5.427 -0.0717  1.1040 -0.5166
 6520SOL    HW325813   3.349   3.505   5.299  1.4673 -1.1694  0.9347
 6520SOL    MW425814   3.378   3.572   5.348  0.4183 -0.7093  0.2206
 6521SOL     OW25815   4.898   0.298   5.247  0.0047 -0.1480 -0.7859
 6521SOL    HW225816   4.940   0.287   5.332  0.9063 -0.8772 -1.3053
 6521SOL    HW325817   4.863   0.212   5.225 -1.6676  0.4108 -0.4395
 6521SOL    MW425818   4.899   0.285   5.255  0.1978  0.2424  0.1917
 6522SOL     OW25819   4.246   5.428   4.675 -0.3607 -0.1000 -0.4067
 6522SOL    HW225820   4.166   5.418   4.623  0.1882  0.5916 -1.4044
 6522SOL    HW325821   4.266   5.339   4.705 -1.8654 -0.1861  0.4362
 6522SOL    MW425822   4.238   5.415   4.673  0.2453 -0.0647  0.6381
 6523SOL     OW25823   0.394   5.763   5.030 -0.0330  0.5510 -0.1110
 6523SOL    HW225824   0.415   5.856   5.021  1.5266  0.2351 -0.1603
 6523SOL    HW325825   0.429   5.739   5.116  0.7680 -0.2488 -0.6325
 6523SOL    MW425826   0.401   5.772   5.040  0.5130 -0.5309 -0.3385
 6524SOL     OW25827   4.432   0.940   1.452  0.0621 -0.6611 -0.7816
 6524SOL    HW225828   4.351   0.946   1.402 -0.2231  0.4453 -0.2044
 6524SOL    HW325829   4.499   0.977   1.394 -0.0036 -0.7342 -0.9037
 6524SOL    MW425830   4.430   0.945   1.438 -0.3071  0.2521 -0.4382
 6525SOL     OW25831   5.833   1.979   5.946 -0.7266 -0.6064 -0.1172
 6525SOL    HW225832   5.875   1.977   6.031 -1.0576 -2.3100  0.0370
 6525SOL    HW325833   5.848   1.892   5.909  0.0541  0.3114 -2.1297
 6525SOL    MW425834   5.840   1.968   5.952 -0.2936  0.2538 -0.5118
 6526SOL     OW25835   0.743   2.893   3.001  0.2301  0.0170 -0.0206
 6526SOL    HW225836   0.792   2.839   3.063 -2.4253 -0.2269  2.0228
 6526SOL    HW325837   0.777   2.981   3.014  1.6012 -0.4520 -0.2605
 6526SOL    MW425838   0.754   2.897   3.011  0.0590 -0.4518 -0.5193
 6527SOL     OW25839   0.281   3.042   1.540  0.6998  0.1303  0.1161
 6527SOL    HW225840   0.209   3.100   1.565 -0.0302 -0.9048  0.4825
 6527SOL    HW325841   0.238   2.963   1.507  1.6687 -0.2520 -0.2649
 6527SOL    MW425842   0.266   3.039   1.539  0.6656 -0.5775 -0.2779
 6528SOL     OW25843   5.103   2.674   1.394  0.0267 -0.2636  0.2489
 6528SOL    HW225844   5.081   2.693   1.486 -1.1445  0.8212 -0.2278
 6528SOL    HW325845   5.024   2.634   1.358 -0.1623  0.9314 -0.7262
 6528SOL    MW425846   5.090   2.671   1.402 -0.2001  0.0058 -0.2944
 6529SOL     OW25847   1.389   3.955   0.237 -0.2950  0.6926 -0.2464
 6529SOL    HW225848   1.422   3.940   0.326 -1.0495  2.3129  0.3428
 6529SOL    HW325849   1.358   3.869   0.208  1.7011 -0.2648  0.2858
 6529SOL    MW425850   1.390   3.942   0.245 -0.4828 -0.0703  0.1723
 6530SOL     OW25851   0.510   6.387   2.327 -0.4199 -0.1192 -0.0865
 6530SOL    HW225852   0.429   6.431   2.304 -0.0734  0.0758 -0.9757
 6530SOL    HW325853   0.568   6.457   2.358 -0.3844 -0.1699 -0.0380
 6530SOL    MW425854   0.507   6.402   2.328 -0.0625 -0.0514  0.0703
 6531SOL     OW25855   5.478   5.119   5.475 -0.3430  0.2798  0.2229
 6531SOL    HW225856   5.422   5.060   5.525 -0.8202  1.1777  0.7808
 6531SOL    HW325857   5.480   5.199   5.527 -0.7071  1.1856 -1.1028
 6531SOL    MW425858   5.471   5.122   5.488 -0.0608  0.2060 -0.2991
 6532SOL     OW25859   4.979   4.084   1.253  0.1889  0.4380  0.7648
 6532SOL    HW225860   4.930   4.048   1.178 -2.3395  2.2327  1.4441
 6532SOL    HW325861   4.933   4.051   1.330  0.0465  2.1237  1.4436
 6532SOL    MW425862   4.966   4.075   1.253 -0.2552  0.4595  0.4541
 6533SOL     OW25863   3.485   3.716   0.717 -0.2138  0.1906  0.5488
 6533SOL    HW225864   3.543   3.736   0.791  0.2809  0.5154  0.0760
 6533SOL    HW325865   3.481   3.621   0.716 -0.2055  0.1802  0.9803
 6533SOL    MW425866   3.492   3.706   0.727 -0.8733  0.2029  0.5283
 6534SOL     OW25867   4.576   5.769   4.505  0.1349  0.2749 -0.2018
 6534SOL    HW225868   4.505   5.732   4.558  0.4476 -0.1864 -0.0984
 6534SOL    HW325869   4.536   5.842   4.458 -0.2294  0.4874  0.4271
 6534SOL    MW425870   4.562   5.773   4.506 -0.1914 -0.5893 -0.2152
 6535SOL     OW25871   0.811   0.130   3.574  0.2281  0.2724 -0.3784
 6535SOL    HW225872   0.727   0.175   3.577 -0.2276 -0.6076  0.5080
 6535SOL    HW325873   0.845   0.136   3.663  1.4927  1.3060 -0.8974
 6535SOL    MW425874   0.804   0.137   3.586  0.1391 -0.4290  0.2872
 6536SOL     OW25875   1.469   0.517   3.785  0.0334  0.2572  0.0955
 6536SOL    HW225876   1.448   0.599   3.830 -0.5507  0.8644 -1.2369
 6536SOL    HW325877   1.555   0.492   3.820 -0.3407  0.7485  1.4455
 6536SOL    MW425878   1.478   0.524   3.796 -0.4724 -0.2150 -0.3566
 6537SOL     OW25879   6.314   0.468   3.006  0.1349 -0.0234 -0.1227
 6537SOL    HW225880   6.352   0.478   3.094 -1.6545 -1.0282  0.8393
 6537SOL    HW325881   6.322   0.374   2.988 -0.7437 -0.0463 -0.4191
 6537SOL    MW425882   6.320   0.457   3.015  0.6006 -0.1689  0.1556
 6538SOL     OW25883   5.431   5.533   5.339  0.3984 -0.1300 -0.4966
 6538SOL    HW225884   5.360   5.469   5.347  0.6920 -0.5792 -1.3662
 6538SOL    HW325885   5.503   5.484   5.300  0.7847  0.6202 -0.7461
 6538SOL    MW425886   5.431   5.518   5.335  0.3035 -0.3051  0.2434
 6539SOL     OW25887   5.771   3.569   3.724  0.2704  0.2234  0.0313
 6539SOL    HW225888   5.717   3.645   3.701 -1.1456 -1.1429 -1.4012
 6539SOL    HW325889   5.722   3.525   3.794  0.0275 -0.4523 -0.5488
 6539SOL    MW425890   5.757   3.573   3.730 -0.4286 -0.2746 -0.0773
 6540SOL     OW25891   0.605   1.811   1.512 -0.0403 -0.2917  0.1920
 6540SOL    HW225892   0.538   1.767   1.563  0.2049 -0.7770  0.0957
 6540SOL    HW325893   0.687   1.769   1.538  0.0395 -0.9146 -0.9756
 6540SOL    MW425894   0.607   1.800   1.522  0.0906  0.1383  0.0372
 6541SOL     OW25895   5.766   3.609   4.414  0.4426  0.3966 -0.2646
 6541SOL    HW225896   5.813   3.688   4.439 -0.5547  0.5759  1.1694
 6541SOL    HW325897   5.677   3.639   4.396 -0.2263 -0.5109  1.3502
 6541SOL    MW425898   5.761   3.623   4.415  0.6107 -0.1458  0.2469
 6542SOL     OW25899   6.178   3.548   5.741  0.2597 -0.1861  0.3881
 6542SOL    HW225900   6.251   3.602   5.710  0.9839 -0.9470  0.7480
 6542SOL    HW325901   6.121   3.538   5.664  1.0076 -0.3602 -0.1519
 6542SOL    MW425902   6.180   3.554   5.727  0.3028 -0.0488 -0.3434
 6543SOL     OW25903   3.658   2.040   4.262  0.0470  0.0568  0.2011
 6543SOL    HW225904   3.722   2.074   4.325  1.5720 -1.9332 -0.1597
 6543SOL    HW325905   3.627   1.959   4.302 -1.4364  0.4125 -0.1711
 6543SOL    MW425906   3.662   2.034   4.276 -0.1100 -0.2329  0.9288
 6544SOL     OW25907   3.898   4.454   6.105  0.5668  0.2194 -0.4536
 6544SOL    HW225908   3.972   4.475   6.162  0.3719 -1.2539  0.3946
 6544SOL    HW325909   3.917   4.366   6.073 -1.1731 -0.5100  0.4099
 6544SOL    MW425910   3.910   4.445   6.108 -1.1915  0.8538  0.5105
 6545SOL     OW25911   1.304   0.807   4.429 -0.1183  0.0838  0.0482
 6545SOL    HW225912   1.320   0.782   4.520 -0.0512 -0.3855 -0.0868
 6545SOL    HW325913   1.283   0.900   4.433  0.9295  0.3137  0.4215
 6545SOL    MW425914   1.303   0.816   4.442  0.0800  0.3246  0.1865
 6546SOL     OW25915   0.623   1.545   3.730  0.2022 -0.0486 -0.0262
 6546SOL    HW225916   0.676   1.495   3.668 -0.6873 -0.4373 -0.4955
 6546SOL    HW325917   0.536   1.548   3.690 -0.0666  0.8165  0.5886
 6546SOL    MW425918   0.618   1.539   3.716 -0.3332 -0.7428  0.0274
 6547SOL     OW25919   4.233   0.199   2.925  0.0076 -1.0630 -0.0650
 6547SOL    HW225920   4.164   0.241   2.872  0.0470  0.0487  0.7491
 6547SOL    HW325921   4.312   0.208   2.872 -0.2536 -1.3534 -0.5122
 6547SOL    MW425922   4.234   0.206   2.911 -0.1370  0.1538  0.2633
 6548SOL     OW25923   1.190   2.793   3.083  0.6218 -0.0180  0.2283
 6548SOL    HW225924   1.285   2.795   3.096  0.6903  1.3208 -0.2565
 6548SOL    HW325925   1.173   2.707   3.044  1.7338 -0.0013 -0.3416
 6548SOL    MW425926   1.201   2.782   3.079  0.0633  0.6561 -0.0522
 6549SOL     OW25927   4.927   2.117   4.740  0.0178 -0.2164  0.0543
 6549SOL    HW225928   4.953   2.101   4.831 -0.3333 -1.1191  0.0113
 6549SOL    HW325929   4.959   2.205   4.720  1.1087 -0.4490  0.6966
 6549SOL    MW425930   4.935   2.126   4.749  0.2851  0.0159 -0.7190
 6550SOL     OW25931   2.425   5.843   2.060 -0.4051  0.0652 -0.2813
 6550SOL    HW225932   2.483   5.904   2.015  1.3467 -0.4185  1.1613
 6550SOL    HW325933   2.387   5.895   2.132 -1.0504  0.1312 -0.6606
 6550SOL    MW425934   2.428   5.858   2.064  0.2053 -0.1605 -0.2664
 6551SOL     OW25935   3.828   2.883   5.849 -0.0196  0.2926 -0.6631
 6551SOL    HW225936   3.810   2.976   5.835  0.6119  0.6700  0.8504
 6551SOL    HW325937   3.742   2.843   5.860 -0.2519  0.8161 -0.5854
 6551SOL    MW425938   3.814   2.890   5.848  0.0854  0.5384 -0.1218
 6552SOL     OW25939   4.058   0.207   3.725  0.1628  0.1074  0.4058
 6552SOL    HW225940   3.988   0.184   3.664  0.6398 -1.3506  0.3737
 6552SOL    HW325941   4.139   0.196   3.674  0.4596  1.2622  0.5968
 6552SOL    MW425942   4.060   0.203   3.710 -0.4154 -0.8678 -0.6206
 6553SOL     OW25943   1.520   2.325   1.421  0.0491  0.0410 -0.3093
 6553SOL    HW225944   1.588   2.322   1.353  0.2580  0.3182 -0.1175
 6553SOL    HW325945   1.569   2.340   1.502 -0.1678 -0.6101 -0.0534
 6553SOL    MW425946   1.536   2.326   1.423 -0.0023 -0.3140 -0.9819
 6554SOL     OW25947   5.964   2.737   1.386  0.4876 -0.0257  0.3882
 6554SOL    HW225948   5.916   2.726   1.468  0.4270  0.8188  0.4761
 6554SOL    HW325949   6.001   2.826   1.392  0.4830  0.0396 -0.4965
 6554SOL    MW425950   5.963   2.748   1.398 -0.2272 -0.2837 -0.0486
 6555SOL     OW25951   5.750   2.988   0.579 -0.5263 -0.3383  0.4148
 6555SOL    HW225952   5.771   3.048   0.508 -0.6305 -1.5736 -0.7045
 6555SOL    HW325953   5.680   2.933   0.543 -0.3459 -1.2020  1.3525
 6555SOL    MW425954   5.743   2.988   0.565 -0.2156  0.3600 -0.1351
 6556SOL     OW25955   0.515   5.318   5.332 -0.0743  0.0127 -0.0458
 6556SOL    HW225956   0.467   5.342   5.252 -0.5800 -0.6672  0.0525
 6556SOL    HW325957   0.489   5.385   5.396 -1.6067 -0.8528  0.2733
 6556SOL    MW425958   0.505   5.330   5.330 -0.1481  0.1612 -0.0733
 6557SOL     OW25959   2.882   4.945   0.011  0.2751 -0.3558 -0.1081
 6557SOL    HW225960   2.938   4.896   0.071  0.5731  0.6544  0.4578
 6557SOL    HW325961   2.937   4.958  -0.066  2.4553  3.9873  1.8276
 6557SOL    MW425962   2.897   4.940   0.009  0.5604 -0.1175 -0.1262
 6558SOL     OW25963   1.442   0.232   5.001 -0.0883 -0.1180  0.1992
 6558SOL    HW225964   1.455   0.151   4.951  2.6292  0.8663 -0.8894
 6558SOL    HW325965   1.506   0.227   5.072  1.1726  1.6479 -0.7390
 6558SOL    MW425966   1.452   0.220   5.004  0.6447  0.2735  0.3274
 6559SOL     OW25967   4.195   4.447   4.296  0.1493  0.7764  0.2731
 6559SOL    HW225968   4.101   4.458   4.278 -0.1573 -0.9418  0.6723
 6559SOL    HW325969   4.230   4.410   4.215  0.0799 -0.4877  0.8072
 6559SOL    MW425970   4.187   4.444   4.283  0.3276  0.1751 -0.0799
 6560SOL     OW25971   4.675   2.265   5.762 -0.0781 -0.5188 -0.0321
 6560SOL    HW225972   4.641   2.178   5.784  0.2796 -0.2706  1.6946
 6560SOL    HW325973   4.597   2.318   5.748 -0.3979 -0.5013  1.6033
 6560SOL    MW425974   4.660   2.260   5.763  0.3963  0.5037  0.0970
 6561SOL     OW25975   2.266   0.149   5.150  0.3895  0.1372 -0.2992
 6561SOL    HW225976   2.300   0.234   5.177  0.3494  1.1026 -3.0118
 6561SOL    HW325977   2.171   0.162   5.146  0.1495 -0.7586  1.4126
 6561SOL    MW425978   2.258   0.162   5.153  0.2454  0.3799  0.2579
 6562SOL     OW25979   6.098   5.794   0.866 -0.0667  0.6506 -0.6038
 6562SOL    HW225980   6.167   5.779   0.930 -1.5806 -2.2396  0.5423
 6562SOL    HW325981   6.143   5.791   0.781  1.1761 -2.2355  0.0400
 6562SOL    MW425982   6.113   5.792   0.863  0.3887 -0.4660  0.4155
 6563SOL     OW25983   6.350   3.109   4.101  0.0828  0.1123  0.2817
 6563SOL    HW225984   6.329   3.019   4.126  0.1637 -0.1697 -0.6430
 6563SOL    HW325985   6.445   3.115   4.113  0.0265  0.1850  0.6898
 6563SOL    MW425986   6.360   3.098   4.106 -0.4514 -0.1790 -0.3699
 6564SOL     OW25987   2.533   6.011   3.932  0.2534 -0.2337  0.2684
 6564SOL    HW225988   2.593   6.058   3.990  0.5073 -1.0260  0.6740
 6564SOL    HW325989   2.580   5.930   3.910  0.6035  0.5065 -1.9111
 6564SOL    MW425990   2.547   6.006   3.937  0.2103 -0.1378 -0.1596
 6565SOL     OW25991   4.002   1.958   5.490 -0.1812  0.3466  0.2629
 6565SOL    HW225992   4.066   1.904   5.537  0.5709  0.1198 -0.9708
 6565SOL    HW325993   3.985   1.911   5.409 -2.9003 -0.2164  1.0559
 6565SOL    MW425994   4.008   1.945   5.485  0.2534  0.6840  0.2260
 6566SOL     OW25995   2.382   4.779   3.957  0.1809 -0.1252  0.0612
 6566SOL    HW225996   2.372   4.790   4.051  1.6930  0.3646  0.1921
 6566SOL    HW325997   2.319   4.711   3.934 -2.1866  1.6364  0.9377
 6566SOL    MW425998   2.373   4.772   3.966 -0.3490  0.1156 -0.1607
 6567SOL     OW25999   4.205   1.084   5.385  0.4454 -0.1684  0.1710
 6567SOL    HW226000   4.288   1.092   5.338  1.4711 -1.0729  1.7459
 6567SOL    HW326001   4.138   1.091   5.317  1.8064  0.1675 -1.1922
 6567SOL    MW426002   4.207   1.086   5.370  0.1557  0.0450  0.3700
 6568SOL     OW26003   6.235   4.917   4.469 -0.2914  0.2860 -0.1374
 6568SOL    HW226004   6.160   4.929   4.526  0.0728 -1.0008  0.6417
 6568SOL    HW326005   6.287   4.848   4.510  1.0677  0.7988 -0.9161
 6568SOL    MW426006   6.232   4.909   4.482 -0.1917  0.3273  0.1042
 6569SOL     OW26007   0.412   6.310   3.925 -0.2479  0.1761  0.0726
 6569SOL    HW226008   0.321   6.327   3.900 -0.1810 -0.9544 -1.0579
 6569SOL    HW326009   0.405   6.236   3.986 -0.0380 -0.7260 -0.9552
 6569SOL    MW426010   0.399   6.302   3.930 -0.2604 -0.3692 -0.3812
 6570SOL     OW26011   3.310   0.851   3.604 -0.0759 -0.2294 -0.0989
 6570SOL    HW226012   3.330   0.775   3.550  0.8091 -0.2709  0.2724
 6570SOL    HW326013   3.217   0.867   3.590  0.1937 -0.0656 -1.8516
 6570SOL    MW426014   3.300   0.843   3.595  0.1493 -0.4266 -0.4651
 6571SOL     OW26015   5.697   4.635   2.379 -0.5828 -0.4071  0.6142
 6571SOL    HW226016   5.661   4.700   2.439 -1.4325 -0.6278  0.3614
 6571SOL    HW326017   5.621   4.600   2.333  0.1390  0.8786 -1.7578
 6571SOL    MW426018   5.682   4.639   2.380  0.4942  0.8783  0.2209
 6572SOL     OW26019   5.900   1.682   5.348 -0.4531  0.0326  0.5699
 6572SOL    HW226020   5.872   1.725   5.429 -1.9270 -0.4857  0.3764
 6572SOL    HW326021   5.982   1.725   5.324 -1.7328  2.5775  0.4920
 6572SOL    MW426022   5.907   1.693   5.355 -0.2009 -0.0152  0.1430
 6573SOL     OW26023   1.283   2.954   2.472  0.1300  0.5940 -0.2053
 6573SOL    HW226024   1.275   3.033   2.420  0.6046 -0.4843 -2.0064
 6573SOL    HW326025   1.336   2.895   2.419  0.2710 -0.7479  1.3243
 6573SOL    MW426026   1.289   2.956   2.458  0.1659 -0.0448 -0.2830
 6574SOL     OW26027   0.807   1.480   5.895  0.1778  0.1430  0.2617
 6574SOL    HW226028   0.839   1.484   5.805 -0.2080 -2.4365 -0.0641
 6574SOL    HW326029   0.884   1.501   5.949  1.1764 -1.0902 -0.6336
 6574SOL    MW426030   0.822   1.484   5.891 -0.0158 -0.3032 -0.0655
 6575SOL     OW26031   6.117   4.317   1.980 -0.0770 -1.0167 -0.5758
 6575SOL    HW226032   6.111   4.228   2.013  0.7452 -0.7942  0.2134
 6575SOL    HW326033   6.146   4.369   2.056 -0.7390 -0.0497 -0.9645
 6575SOL    MW426034   6.120   4.312   1.994  0.0630 -0.0254 -0.4179
 6576SOL     OW26035   2.737   3.478   3.171  0.1748  0.5448  0.2267
 6576SOL    HW226036   2.702   3.390   3.163  0.9374  0.2488  0.0469
 6576SOL    HW326037   2.716   3.520   3.087 -0.4960  0.6503  0.4468
 6576SOL    MW426038   2.730   3.472   3.159  0.1972  0.1173 -0.0205
 6577SOL     OW26039   1.454   4.238   1.448  0.2756  0.0308 -0.1480
 6577SOL    HW226040   1.524   4.300   1.470  1.0690 -1.4369  1.7280
 6577SOL    HW326041   1.492   4.182   1.381  0.4547 -0.0306  0.0071
 6577SOL    MW426042   1.468   4.239   1.442 -0.4727 -0.6495 -0.0618
 6578SOL     OW26043   3.165   4.462   2.658  0.2080  0.6078 -0.6488
 6578SOL    HW226044   3.108   4.528   2.619 -0.3812 -0.7904 -2.2837
 6578SOL    HW326045   3.105   4.404   2.706  0.3957 -0.0801 -1.2248
 6578SOL    MW426046   3.149   4.463   2.659 -0.3530 -0.2556  0.7968
 6579SOL     OW26047   0.466   2.349   3.443  0.0705  0.1595 -0.1943
 6579SOL    HW226048   0.434   2.392   3.364  1.5264 -0.2642 -1.0387
 6579SOL    HW326049   0.559   2.371   3.448 -0.1349  0.7941  1.8282
 6579SOL    MW426050   0.474   2.357   3.433  0.0425  0.3026  0.4707
 6580SOL     OW26051   3.691   3.155   4.080 -0.2510 -0.2667 -0.6396
 6580SOL    HW226052   3.630   3.181   4.011  0.5703 -2.4197 -2.2687
 6580SOL    HW326053   3.647   3.084   4.127 -0.4930  0.6816  0.6263
 6580SOL    MW426054   3.677   3.149   4.077 -0.3551  0.1603  0.6015
 6581SOL     OW26055   3.600   3.931   2.468  0.0796 -0.3363 -1.5128
 6581SOL    HW226056   3.664   3.998   2.444 -0.4348  0.5364 -0.5368
 6581SOL    HW326057   3.575   3.891   2.385  1.2861 -0.1487 -1.9925
 6581SOL    MW426058   3.605   3.934   2.454 -0.3992 -0.3279 -0.0968
 6582SOL     OW26059   0.588   3.489   2.426 -0.1347  0.3184 -0.4280
 6582SOL    HW226060   0.629   3.553   2.485  2.0175 -0.3781 -1.0709
 6582SOL    HW326061   0.570   3.538   2.346  0.4939  0.4022 -0.5262
 6582SOL    MW426062   0.591   3.504   2.424 -0.1537 -0.1082 -0.1642
 6583SOL     OW26063   2.491   1.537   2.076 -0.4616 -0.0653  0.1186
 6583SOL    HW226064   2.582   1.538   2.105 -0.8454 -1.1253  1.4585
 6583SOL    HW326065   2.493   1.581   1.991  0.9915  1.6512  0.9607
 6583SOL    MW426066   2.504   1.543   2.069  0.0953  0.1597  0.2137
 6584SOL     OW26067   0.204   2.197   6.293  0.5165  0.2728 -0.0534
 6584SOL    HW226068   0.128   2.142   6.313  1.0499 -0.2890  0.4896
 6584SOL    HW326069   0.274   2.135   6.272  0.7576  0.7928 -0.8166
 6584SOL    MW426070   0.203   2.182   6.293 -0.2795 -0.4526 -0.0066
 6585SOL     OW26071   0.916   2.391   5.245 -0.1166 -0.2015  0.4766
 6585SOL    HW226072   0.872   2.373   5.162  1.7516  0.2945 -0.6908
 6585SOL    HW326073   0.889   2.320   5.302  0.1524 -1.7273 -1.2056
 6585SOL    MW426074   0.907   2.380   5.241  0.1309 -0.3342 -0.4014
 6586SOL     OW26075   4.117   2.900   3.109  0.2529  0.3063  0.2440
 6586SOL    HW226076   4.070   2.950   3.175  1.8031  1.7730  0.3306
 6586SOL    HW326077   4.200   2.877   3.151  0.4735 -0.3910 -0.5507
 6586SOL    MW426078   4.122   2.904   3.123 -0.1450 -0.2643 -0.0520
 6587SOL     OW26079   4.264   1.798   6.090  0.1465 -0.1018 -0.0265
 6587SOL    HW226080   4.193   1.735   6.101  0.2133 -0.1667  0.0387
 6587SOL    HW326081   4.344   1.745   6.097  0.2014 -0.0271 -0.0855
 6587SOL    MW426082   4.266   1.782   6.092 -0.1401 -0.6691 -0.0782
 6588SOL     OW26083   4.596   0.838   3.534  0.0013 -0.2202  0.5479
 6588SOL    HW226084   4.646   0.818   3.613  1.7145  0.9197 -0.1687
 6588SOL    HW326085   4.506   0.818   3.557  0.7971 -3.0143  1.7195
 6588SOL    MW426086   4.591   0.833   3.547  0.3594  0.6412 -0.2503
 6589SOL     OW26087   2.058   3.802   5.883  0.2235 -0.2463  0.1983
 6589SOL    HW226088   2.144   3.828   5.915 -0.1709  3.2661 -1.1700
 6589SOL    HW326089   1.996   3.842   5.944 -0.4643 -0.2745 -0.4613
 6589SOL    MW426090   2.061   3.811   5.896 -0.6278 -0.3157  0.0335
 6590SOL     OW26091   3.683   0.219   5.398 -0.0487 -0.4942 -0.4079
 6590SOL    HW226092   3.703   0.311   5.384 -0.5219 -0.4089 -0.5369
 6590SOL    HW326093   3.650   0.215   5.488  0.3068 -0.5939 -0.2808
 6590SOL    MW426094   3.681   0.230   5.408 -0.0695  0.1132  0.4427
 6591SOL     OW26095   2.896   3.481   0.181  0.0991 -0.2200  0.5946
 6591SOL    HW226096   2.939   3.428   0.114  0.5640  0.8465  0.0332
 6591SOL    HW326097   2.842   3.543   0.133  0.6095  0.7097  1.1905
 6591SOL    MW426098   2.894   3.482   0.166 -0.0607 -0.4678  0.0824
 6592SOL     OW26099   2.610   6.025   1.955 -0.2880  0.3165  0.4515
 6592SOL    HW226100   2.596   6.084   1.881 -0.7514 -0.4216 -0.0662
 6592SOL    HW326101   2.663   6.076   2.017  0.3278  0.8535 -0.4944
 6592SOL    MW426102   2.615   6.040   1.953  0.2782 -0.1708 -0.0298
 6593SOL     OW26103   2.827   6.224   2.808  1.0702 -0.0107 -0.0652
 6593SOL    HW226104   2.815   6.316   2.786 -0.1921 -0.0470  0.4019
 6593SOL    HW326105   2.903   6.222   2.866  1.2444  0.6933 -0.2610
 6593SOL    MW426106   2.835   6.236   2.813 -0.3129 -0.8349  0.1767
 6594SOL     OW26107   4.276   3.232   4.767  0.3385 -0.2233  0.1560
 6594SOL    HW226108   4.349   3.259   4.711 -0.5460  1.4350 -0.2695
 6594SOL    HW326109   4.240   3.155   4.724  1.3416 -0.5793 -0.0614
 6594SOL    MW426110   4.281   3.226   4.754  0.5020  0.4119  0.1965
 6595SOL     OW26111   0.514   6.349   3.284  0.1184  0.2464  0.0523
 6595SOL    HW226112   0.463   6.420   3.324 -1.3893 -0.5211 -0.4715
 6595SOL    HW326113   0.575   6.323   3.353  0.1772  1.5189  0.5219
 6595SOL    MW426114   0.515   6.355   3.299  0.5304  0.0689  0.1984
 6596SOL     OW26115   4.205   5.210   0.142 -1.0013 -0.0268  0.0852
 6596SOL    HW226116   4.228   5.122   0.173 -1.8519  0.1542  1.3361
 6596SOL    HW326117   4.285   5.244   0.103  0.1419 -0.3502  2.0190
 6596SOL    MW426118   4.219   5.203   0.141 -1.0184 -0.1966  0.1490
 6597SOL     OW26119   0.542   1.104   4.274  0.3920 -0.4670  0.5134
 6597SOL    HW226120   0.633   1.118   4.250  0.0435  0.0670 -0.5242
 6597SOL    HW326121   0.504   1.056   4.200 -0.8086  1.5839 -0.2684
 6597SOL    MW426122   0.549   1.099   4.261  0.1079  0.0910 -0.1912
 6598SOL     OW26123   4.023   3.984   0.088  0.0063 -0.0767  0.1318
 6598SOL    HW226124   4.078   4.062   0.094 -1.3360  0.9815 -0.7760
 6598SOL    HW326125   3.986   3.974   0.176 -2.7004  2.5641 -0.5718
 6598SOL    MW426126   4.025   3.993   0.100 -0.4085  0.0950 -0.3657
 6599SOL     OW26127   6.132   5.944   5.985  0.1281 -0.0819  0.1491
 6599SOL    HW226128   6.092   5.867   6.024  0.4549 -0.0019  0.6497
 6599SOL    HW326129   6.060   6.008   5.979  0.0441 -0.1400  0.4974
 6599SOL    MW426130   6.117   5.943   5.989  0.0663 -0.0922  0.2344
 6600SOL     OW26131   2.713   4.103   0.806  0.3161 -0.5584  0.0453
 6600SOL    HW226132   2.758   4.082   0.887  0.5741  2.0022  0.6599
 6600SOL    HW326133   2.780   4.145   0.751 -0.6971  1.2011  0.0676
 6600SOL    MW426134   2.728   4.106   0.809  0.0564  0.3175 -0.7660
 6601SOL     OW26135   4.824   3.296   1.156 -0.0416  0.0953  0.1818
 6601SOL    HW226136   4.889   3.260   1.216 -0.5256  1.2724  1.4808
 6601SOL    HW326137   4.740   3.279   1.198 -0.3362  1.8204  0.3842
 6601SOL    MW426138   4.821   3.289   1.169 -0.2704 -0.2676  0.0763
 6602SOL     OW26139   2.020   2.635   2.366  0.2865  0.0992 -0.0859
 6602SOL    HW226140   2.074   2.712   2.344 -0.0196  0.3947  0.1822
 6602SOL    HW326141   2.076   2.584   2.425  0.3489  0.3111  0.0428
 6602SOL    MW426142   2.035   2.639   2.371 -0.0320 -0.3129 -0.5309
 6603SOL     OW26143   0.901   2.322   4.683 -0.0084  0.3359 -0.4509
 6603SOL    HW226144   0.989   2.319   4.720 -0.2351  1.2866  0.1925
 6603SOL    HW326145   0.915   2.327   4.588  0.6238  0.2397 -0.3689
 6603SOL    MW426146   0.914   2.322   4.675 -0.5197 -0.2820  0.1992
 6604SOL     OW26147   6.056   0.773   2.743 -0.0794  0.4398  0.0403
 6604SOL    HW226148   6.023   0.856   2.777 -1.0029 -0.5000  1.5406
 6604SOL    HW326149   6.067   0.718   2.820  0.9839 -0.6886 -0.8760
 6604SOL    MW426150   6.053   0.777   2.758 -0.3061  0.0610 -0.3673
 6605SOL     OW26151   2.454   3.664   5.396 -0.7103 -0.1632 -0.5262
 6605SOL    HW226152   2.392   3.666   5.324  0.7003  1.3120 -1.7809
 6605SOL    HW326153   2.402   3.640   5.472 -2.8780  1.2630 -1.4747
 6605SOL    MW426154   2.439   3.661   5.397 -0.0833 -0.4358  0.6486
 6606SOL     OW26155   1.401   0.498   5.531  0.4031 -0.2638  0.0947
 6606SOL    HW226156   1.419   0.586   5.498  1.6957 -0.6372 -0.2827
 6606SOL    HW326157   1.444   0.495   5.617  3.5646 -1.5786 -1.3563
 6606SOL    MW426158   1.409   0.509   5.538 -0.1402  0.4430 -0.0207
 6607SOL     OW26159   1.556   1.648   4.534 -0.4692  0.7176 -0.1598
 6607SOL    HW226160   1.465   1.673   4.552 -0.5167  0.2477  0.2784
 6607SOL    HW326161   1.557   1.553   4.547  0.0775  0.7208 -0.1900
 6607SOL    MW426162   1.544   1.639   4.538 -0.0713  0.3585 -0.0584
 6608SOL     OW26163   4.291   6.342   5.449  0.3478 -0.3290 -0.6527
 6608SOL    HW226164   4.264   6.378   5.365  2.6081  0.4819 -1.1054
 6608SOL    HW326165   4.386   6.331   5.441  0.6081 -0.3589  1.7346
 6608SOL    MW426166   4.300   6.346   5.437 -0.0614 -0.0466 -0.0728
 6609SOL     OW26167   2.081   1.340   4.212 -0.4621  0.2040  0.2137
 6609SOL    HW226168   2.139   1.415   4.201 -0.1673 -0.0182  0.2607
 6609SOL    HW326169   2.006   1.360   4.156 -0.3253  0.4729  0.1254
 6609SOL    MW426170   2.079   1.352   4.203  0.0802  0.0835 -0.0525
 6610SOL     OW26171   1.185   5.087   3.601 -0.2373 -0.6925  0.0026
 6610SOL    HW226172   1.193   5.033   3.680  0.5282  0.3307  0.6458
 6610SOL    HW326173   1.092   5.108   3.595 -0.2989 -0.7578  0.6527
 6610SOL    MW426174   1.174   5.083   3.610 -0.1526 -0.4049 -0.3838
 6611SOL     OW26175   4.068   6.367   1.022 -0.5299  0.4579  0.4009
 6611SOL    HW226176   4.109   6.429   0.962  1.2858  0.1557  1.2651
 6611SOL    HW326177   3.979   6.398   1.032  0.7583  4.1431  2.3226
 6611SOL    MW426178   4.062   6.379   1.015  0.1399 -0.0547  0.5073
 6612SOL     OW26179   4.998   0.605   2.368 -0.0423 -0.0306 -0.0049
 6612SOL    HW226180   4.986   0.698   2.349 -2.1676  0.8532  4.4158
 6612SOL    HW326181   5.039   0.604   2.455 -0.8395 -3.2206  0.4377
 6612SOL    MW426182   5.002   0.617   2.377  0.5311 -0.5337 -0.9366
 6613SOL     OW26183   5.448   4.765   4.969 -0.3308 -0.6880  0.6016
 6613SOL    HW226184   5.503   4.823   4.917 -1.2312  0.7343  1.1693
 6613SOL    HW326185   5.359   4.783   4.940 -0.6467 -1.6021  0.9726
 6613SOL    MW426186   5.444   4.775   4.959 -0.4478  0.0192 -0.2486
 6614SOL     OW26187   3.415   4.259   3.644  0.3977  0.3835  0.5473
 6614SOL    HW226188   3.349   4.328   3.647 -0.9300 -0.7309 -1.0918
 6614SOL    HW326189   3.371   4.182   3.680  0.7352 -0.4151 -0.7016
 6614SOL    MW426190   3.401   4.258   3.649 -0.2132  0.0992 -0.1785
 6615SOL     OW26191   4.669   1.743   1.661 -0.0203  0.1460  0.2428
 6615SOL    HW226192   4.683   1.691   1.740 -1.2381  0.4647  0.6815
 6615SOL    HW326193   4.594   1.799   1.681  0.6677  1.4131 -0.5542
 6615SOL    MW426194   4.661   1.744   1.674  0.1230  0.2398  0.2606
 6616SOL     OW26195   1.360   4.923   4.348 -0.0113 -0.3907 -0.6102
 6616SOL    HW226196   1.318   4.989   4.294 -1.8873 -1.7654 -0.9199
 6616SOL    HW326197   1.374   4.966   4.432 -3.2818 -0.2001 -0.0539
 6616SOL    MW426198   1.356   4.937   4.352 -0.5995 -0.0771 -0.4513
 6617SOL     OW26199   4.124   1.684   2.026  0.4005 -0.7058 -0.3643
 6617SOL    HW226200   4.146   1.720   1.940  2.2391 -2.9170 -0.9150
 6617SOL    HW326201   4.186   1.725   2.086 -1.3832  1.4372  0.1628
 6617SOL    MW426202   4.135   1.694   2.023 -0.4395 -0.2045 -0.5817
 6618SOL     OW26203   3.181   4.567   6.315 -0.9638  0.2943  1.0068
 6618SOL    HW226204   3.239   4.631   6.274 -1.0301 -0.3908 -0.2277
 6618SOL    HW326205   3.230   4.484   6.311 -2.0111 -0.3149 -0.1375
 6618SOL    MW426206   3.195   4.564   6.309 -0.0837 -0.5545 -0.5610
 6619SOL     OW26207   6.392   4.688   0.171 -0.5181  0.3947  0.1795
 6619SOL    HW226208   6.362   4.652   0.087 -2.2576  0.1143  0.8782
 6619SOL    HW326209   6.329   4.758   0.191 -0.5922 -0.0555  1.6070
 6619SOL    MW426210   6.380   4.693   0.163 -0.4984  0.1708 -0.2444
 6620SOL     OW26211   3.462   4.517   2.957 -0.2801  0.2684  0.0681
 6620SOL    HW226212   3.444   4.429   2.923 -3.1600  1.0248 -0.6654
 6620SOL    HW326213   3.376   4.559   2.961  1.0704  3.3416 -0.3579
 6620SOL    MW426214   3.448   4.511   2.953 -0.5406 -0.2807 -0.1295
 6621SOL     OW26215   3.414   4.579   4.735  0.6305 -0.4184 -0.4161
 6621SOL    HW226216   3.386   4.544   4.819  0.5205  2.3432  0.8193
 6621SOL    HW326217   3.492   4.528   4.712  0.9380 -0.9417  1.6119
 6621SOL    MW426218   3.421   4.568   4.743  0.2760 -0.2199  0.0922
 6622SOL     OW26219   0.913   1.014   4.531 -0.3258  0.0906 -0.2351
 6622SOL    HW226220   0.905   0.971   4.446  0.3003 -2.3783  0.8640
 6622SOL    HW326221   0.912   0.942   4.594  0.2247  1.7704  1.7857
 6622SOL    MW426222   0.912   0.999   4.528 -0.1241  0.2671 -0.2587
 6623SOL     OW26223   3.744   4.259   2.675 -0.3921 -0.8575 -0.4251
 6623SOL    HW226224   3.658   4.273   2.714  0.1530 -0.4412  0.6993
 6623SOL    HW326225   3.784   4.346   2.674  0.5891 -1.2731  0.5362
 6623SOL    MW426226   3.738   4.273   2.680  0.6775 -0.2204 -0.7602
 6624SOL     OW26227   3.643   0.684   2.036 -0.5214 -0.2396 -0.0357
 6624SOL    HW226228   3.649   0.772   2.075 -0.6901  0.3317 -1.2439
 6624SOL    HW326229   3.646   0.625   2.111 -0.7840  0.8100  0.8418
 6624SOL    MW426230   3.644   0.688   2.051 -0.2041  0.1668 -0.1415
 6625SOL     OW26231   6.123   5.923   2.882  0.4183 -0.2503 -0.0791
 6625SOL    HW226232   6.049   5.926   2.822  0.6122 -0.6579 -0.3507
 6625SOL    HW326233   6.139   5.829   2.896  0.5578 -0.1632  0.3826
 6625SOL    MW426234   6.115   5.911   2.876  0.4196 -0.7384 -0.1680
 6626SOL     OW26235   0.027   3.227   1.844 -0.1969 -0.4298  0.0693
 6626SOL    HW226236  -0.018   3.306   1.875  0.2951  0.1283 -0.6153
 6626SOL    HW326237   0.009   3.224   1.750  1.1666 -0.2072 -0.2175
 6626SOL    MW426238   0.019   3.237   1.836  0.2549  0.4602 -1.0493
 6627SOL     OW26239   4.384   2.164   2.603  0.1493  0.1410  0.3965
 6627SOL    HW226240   4.429   2.080   2.600 -0.2499 -0.0612 -0.9123
 6627SOL    HW326241   4.294   2.142   2.626 -0.7361 -0.2528 -2.8166
 6627SOL    MW426242   4.378   2.150   2.605 -0.3070 -0.6022  0.2830
 6628SOL     OW26243   6.422   3.675   2.652  0.3095 -0.1502 -0.1267
 6628SOL    HW226244   6.511   3.710   2.649 -0.0188  0.6757 -0.5750
 6628SOL    HW326245   6.370   3.748   2.687 -0.2133 -0.5774 -0.0145
 6628SOL    MW426246   6.427   3.689   2.657  0.7915  0.1061 -0.4244
 6629SOL     OW26247   3.832   6.195   6.179  0.5044  0.1674 -0.1722
 6629SOL    HW226248   3.737   6.193   6.171  0.4824  1.3706 -0.3647
 6629SOL    HW326249   3.862   6.112   6.140 -0.4128  0.1100 -0.7708
 6629SOL    MW426250   3.824   6.184   6.173 -0.3772  0.5090 -0.4590
 6630SOL     OW26251   0.270   0.176   3.164  0.1963  0.0464  0.4086
 6630SOL    HW226252   0.290   0.269   3.157 -2.2369  0.6056 -0.1310
 6630SOL    HW326253   0.290   0.153   3.254  0.8063  1.0805  0.5510
 6630SOL    MW426254   0.275   0.185   3.175 -0.0135  0.1719  0.3059
 6631SOL     OW26255   5.108   2.733   3.139  0.5690  0.3219 -0.7860
 6631SOL    HW226256   5.050   2.779   3.199  1.2712 -1.2087  1.1656
 6631SOL    HW326257   5.088   2.640   3.153  2.2591 -0.1535 -1.3610
 6631SOL    MW426258   5.097   2.727   3.149  0.3911  0.0830  0.3400
 6632SOL     OW26259   2.496   2.770   5.502  0.2168 -0.4394 -0.0631
 6632SOL    HW226260   2.545   2.724   5.570 -0.5720 -1.5653 -0.2243
 6632SOL    HW326261   2.457   2.845   5.547 -0.0882 -1.0291  0.6869
 6632SOL    MW426262   2.497   2.774   5.517 -0.2659  0.0696 -0.5398
 6633SOL     OW26263   1.065   2.922   0.199 -0.8111 -0.2936  0.5143
 6633SOL    HW226264   1.076   2.868   0.277  0.8161 -0.4422  0.2183
 6633SOL    HW326265   1.092   2.865   0.127 -1.0083  0.2755 -0.0204
 6633SOL    MW426266   1.070   2.907   0.199 -0.0156 -0.5418 -0.5412
 6634SOL     OW26267   0.758   3.223   1.465  0.3413 -0.4238 -0.6763
 6634SOL    HW226268   0.835   3.280   1.461  1.3720 -1.7255 -0.5019
 6634SOL    HW326269   0.701   3.264   1.530 -0.1076  1.6951 -2.3292
 6634SOL    MW426270   0.761   3.236   1.473  0.3269 -0.2937  0.2374
 6635SOL     OW26271   3.185   2.332   1.255 -0.0945 -0.0264  0.0618
 6635SOL    HW226272   3.227   2.246   1.251  0.7046  0.4005 -1.8767
 6635SOL    HW326273   3.256   2.395   1.243 -0.7515  0.9112  0.8229
 6635SOL    MW426274   3.200   2.329   1.253 -0.1295  0.5897 -0.0698
 6636SOL     OW26275   6.233   4.114   5.330  0.4092  0.1183 -0.0409
 6636SOL    HW226276   6.298   4.168   5.374  1.0084 -1.3758  0.9847
 6636SOL    HW326277   6.224   4.036   5.386 -3.3016  0.8700  0.6594
 6636SOL    MW426278   6.240   4.110   5.343 -0.0094 -0.0036 -0.3514
 6637SOL     OW26279   2.518   1.081   6.167 -0.0069 -0.5381  0.5281
 6637SOL    HW226280   2.573   1.101   6.243  1.4443 -1.9742 -0.0922
 6637SOL    HW326281   2.491   0.990   6.181 -1.7187 -0.0660  0.4755
 6637SOL    MW426282   2.522   1.072   6.179 -0.4334  0.6149  0.1335
 6638SOL     OW26283   2.071   1.941   0.413 -0.2151  0.4117 -0.0584
 6638SOL    HW226284   2.116   1.982   0.486  0.4472  0.7375 -0.6315
 6638SOL    HW326285   2.109   1.982   0.335 -0.6888 -0.1394 -0.5949
 6638SOL    MW426286   2.082   1.952   0.412  0.4850  0.0401 -0.3856
 6639SOL     OW26287   3.459   3.077   0.728  0.8478 -0.1847 -0.2193
 6639SOL    HW226288   3.501   3.124   0.800  1.0982 -0.6860 -0.0270
 6639SOL    HW326289   3.410   3.007   0.771  0.3115  0.0241 -0.4869
 6639SOL    MW426290   3.458   3.074   0.743  0.3651  0.1963  0.0624
 6640SOL     OW26291   4.216   2.319   4.945  0.3791 -0.1419  0.0568
 6640SOL    HW226292   4.180   2.365   4.869  1.4527 -0.4459 -0.6533
 6640SOL    HW326293   4.165   2.238   4.950  0.5550 -0.3043 -0.5918
 6640SOL    MW426294   4.205   2.315   4.935  1.0086  0.8510  0.3032
 6641SOL     OW26295   5.160   4.851   3.232  0.3329  0.0625  0.6182
 6641SOL    HW226296   5.110   4.909   3.176 -1.1860 -2.6581 -1.0656
 6641SOL    HW326297   5.238   4.828   3.181 -0.2925 -1.2133  0.1834
 6641SOL    MW426298   5.164   4.855   3.218 -0.3180 -0.5255  0.3906
 6642SOL     OW26299   3.059   2.882   3.249 -0.0173 -0.3668  0.3240
 6642SOL    HW226300   3.067   2.970   3.287  2.4534 -0.8883  1.2138
 6642SOL    HW326301   3.003   2.834   3.311 -0.0931  0.1600  0.6688
 6642SOL    MW426302   3.053   2.887   3.262 -0.1935 -0.7772  0.5859
 6643SOL     OW26303   3.769   1.063   6.260  0.2328 -0.4756  0.1855
 6643SOL    HW226304   3.676   1.069   6.239  0.4559  2.2649 -0.4202
 6643SOL    HW326305   3.810   1.028   6.180 -0.2257 -1.2835  0.3043
 6643SOL    MW426306   3.762   1.059   6.246 -0.6493 -0.0223 -0.0544
 6644SOL     OW26307   5.983   0.426   0.531 -0.5224  0.2318 -0.4467
 6644SOL    HW226308   5.966   0.429   0.625 -0.0883 -0.8062 -0.3164
 6644SOL    HW326309   5.908   0.469   0.491 -0.6128  0.8693  0.3847
 6644SOL    MW426310   5.971   0.432   0.538 -1.0011 -0.1786 -0.1845
 6645SOL     OW26311   3.731   0.261   2.485  0.0001  0.3633  0.2959
 6645SOL    HW226312   3.653   0.315   2.470 -0.2500  0.1828  0.9126
 6645SOL    HW326313   3.800   0.323   2.505 -0.1157  0.4913  0.2990
 6645SOL    MW426314   3.730   0.276   2.486  0.0293 -0.2585  0.3096
 6646SOL     OW26315   5.245   0.898   6.199 -0.4910 -0.1244 -0.0865
 6646SOL    HW226316   5.316   0.959   6.219  0.5686 -0.6951 -1.8600
 6646SOL    HW326317   5.247   0.835   6.271  0.9264 -0.2151 -0.1683
 6646SOL    MW426318   5.255   0.898   6.211  0.7178  0.0288  0.1126
 6647SOL     OW26319   0.971   3.907   5.887  0.7372  0.4046 -0.1302
 6647SOL    HW226320   1.048   3.948   5.925  0.2823  0.5336  0.6850
 6647SOL    HW326321   0.942   3.844   5.953  0.9520 -0.6520 -1.0249
 6647SOL    MW426322   0.977   3.904   5.901 -0.4480 -0.2250  0.2838
 6648SOL     OW26323   5.121   2.691   0.214  0.1280 -0.2197  0.0530
 6648SOL    HW226324   5.061   2.723   0.146  2.6187  0.6214 -1.9254
 6648SOL    HW326325   5.141   2.768   0.266  1.0650 -0.0157 -0.5960
 6648SOL    MW426326   5.115   2.705   0.212  0.4649  0.7598  0.1239
 6649SOL     OW26327   5.055   0.274   1.948  0.0484 -0.2899 -0.3397
 6649SOL    HW226328   4.965   0.299   1.924 -0.0040 -1.1610 -1.1069
 6649SOL    HW326329   5.044   0.208   2.017  0.0464 -1.0903 -1.0808
 6649SOL    MW426330   5.042   0.268   1.954  0.1449  0.5656  0.4000
 6650SOL     OW26331   0.338   1.709   5.378 -0.0496  0.0653 -0.4340
 6650SOL    HW226332   0.307   1.780   5.323  3.3176  1.0270 -1.2960
 6650SOL    HW326333   0.369   1.642   5.317 -0.5744 -0.9648  0.3794
 6650SOL    MW426334   0.338   1.709   5.363  0.1228  0.2182 -0.1760
 6651SOL     OW26335   5.530   3.992   5.070  0.1652  0.1327 -0.5714
 6651SOL    HW226336   5.494   4.080   5.065 -0.3665  0.1476  1.8883
 6651SOL    HW326337   5.454   3.935   5.067  0.2346 -0.0535  0.5945
 6651SOL    MW426338   5.515   3.996   5.069  0.6873  0.2047  0.0069
 6652SOL     OW26339   1.851   2.375   0.286 -0.6563  0.3262  0.1992
 6652SOL    HW226340   1.844   2.319   0.364 -1.0613 -0.4943 -0.4052
 6652SOL    HW326341   1.812   2.458   0.313  0.3666  0.4941  1.2569
 6652SOL    MW426342   1.845   2.378   0.300 -0.1651 -0.4196  0.2070
 6653SOL     OW26343   4.819   1.713   5.551  0.2381  0.1767  0.4061
 6653SOL    HW226344   4.787   1.625   5.571  0.6464  0.2000  1.1681
 6653SOL    HW326345   4.819   1.759   5.634 -1.6575  1.4793 -0.2401
 6653SOL    MW426346   4.815   1.707   5.564  0.1632 -0.1176 -0.3121
 6654SOL     OW26347   1.078   4.618   0.550  0.3771  0.1660 -0.3539
 6654SOL    HW226348   1.115   4.648   0.633 -0.5199 -1.5381  0.7071
 6654SOL    HW326349   1.129   4.541   0.526 -1.0493 -0.9459  0.0289
 6654SOL    MW426350   1.089   4.612   0.558 -0.2476  0.0154 -0.2148
 6655SOL     OW26351   1.774   1.604   4.686  0.1843  0.3655 -0.1894
 6655SOL    HW226352   1.704   1.630   4.627  1.8377  2.7047 -1.3046
 6655SOL    HW326353   1.848   1.583   4.629  0.8424 -0.5982  0.9708
 6655SOL    MW426354   1.775   1.605   4.671 -0.0859 -0.1068  0.6703
 6656SOL     OW26355   2.205   2.391   0.710 -0.7617  0.1010 -0.3071
 6656SOL    HW226356   2.287   2.347   0.734  0.3547  3.3787  2.8725
 6656SOL    HW326357   2.136   2.329   0.733  0.7189 -1.7767 -0.7015
 6656SOL    MW426358   2.207   2.377   0.716  0.5996 -0.0756  0.1764
 6657SOL     OW26359   2.812   2.456   3.503  0.5775  0.1559 -0.0636
 6657SOL    HW226360   2.749   2.440   3.573 -0.4318  2.2196 -0.4202
 6657SOL    HW326361   2.759   2.458   3.423  1.2735  0.7219 -0.5231
 6657SOL    MW426362   2.797   2.454   3.501 -0.3290 -0.2563 -0.2354
 6658SOL     OW26363   5.190   6.186   2.273  0.5395  0.0105  0.5149
 6658SOL    HW226364   5.179   6.096   2.240  1.2414  0.1067 -0.0110
 6658SOL    HW326365   5.234   6.232   2.202 -0.6162  1.0157  0.4257
 6658SOL    MW426366   5.195   6.180   2.259  0.5117  0.4511 -1.4339
 6659SOL     OW26367   0.192   2.673   0.301 -0.5641  0.2773 -0.1271
 6659SOL    HW226368   0.241   2.595   0.328 -2.6574 -2.0988 -2.6058
 6659SOL    HW326369   0.139   2.695   0.378  0.4219 -0.4076  0.7852
 6659SOL    MW426370   0.191   2.666   0.315 -0.1836  0.1467  0.0902
 6660SOL     OW26371   4.882   5.404   5.447  0.6085 -0.2315 -0.9576
 6660SOL    HW226372   4.804   5.453   5.473 -1.0413 -3.1951  0.2369
 6660SOL    HW326373   4.932   5.393   5.528 -1.0890 -3.6669 -0.1556
 6660SOL    MW426374   4.878   5.409   5.461 -0.3438  0.3117  0.6822
 6661SOL     OW26375   0.125   1.785   4.627  0.1680 -0.7235  0.0506
 6661SOL    HW226376   0.113   1.783   4.532  1.8867  2.2422 -0.3717
 6661SOL    HW326377   0.193   1.719   4.643  1.4018  0.1854 -1.1499
 6661SOL    MW426378   0.133   1.776   4.616 -0.0502 -0.0264  0.6284
 6662SOL     OW26379   2.979   2.940   0.368  0.1325 -0.2079 -0.1351
 6662SOL    HW226380   3.032   2.888   0.307  1.4151  1.8056 -0.8309
 6662SOL    HW326381   2.967   2.883   0.444 -0.2079 -2.2287 -1.6186
 6662SOL    MW426382   2.984   2.925   0.370  0.0458 -0.6626 -0.2916
 6663SOL     OW26383   1.605   5.043   3.796  0.6564  0.0880  0.4025
 6663SOL    HW226384   1.662   5.029   3.871  1.3852  0.4322 -0.0728
 6663SOL    HW326385   1.663   5.078   3.728 -0.2506  1.1342  0.1278
 6663SOL    MW426386   1.620   5.046   3.797  0.1518  0.6879 -0.1918
 6664SOL     OW26387   1.024   4.205   4.775  0.0219  0.7005  0.3152
 6664SOL    HW226388   0.973   4.125   4.791 -0.0825  0.4323 -1.2062
 6664SOL    HW326389   1.095   4.200   4.838  0.2133 -0.7879  0.0281
 6664SOL    MW426390   1.026   4.193   4.785  0.3909  0.3133 -0.0120
 6665SOL     OW26391   3.129   6.141   5.117  0.5348 -0.3869 -0.3503
 6665SOL    HW226392   3.078   6.065   5.147  0.4435  0.3517  1.4467
 6665SOL    HW326393   3.220   6.112   5.123  0.5165 -0.2499  0.6609
 6665SOL    MW426394   3.134   6.127   5.121 -0.1570 -0.2263  0.4030
 6666SOL     OW26395   5.333   1.476   4.287 -0.1782 -0.5286 -0.0508
 6666SOL    HW226396   5.387   1.540   4.240 -1.5710  0.2625 -0.6332
 6666SOL    HW326397   5.327   1.401   4.227 -0.5281 -0.2206 -0.4044
 6666SOL    MW426398   5.340   1.474   4.273  0.0104  0.4268 -0.0423
 6667SOL     OW26399   5.295   0.178   5.516 -0.3582  0.2040  0.3256
 6667SOL    HW226400   5.289   0.083   5.531  0.9743  0.3372  2.0631
 6667SOL    HW326401   5.325   0.186   5.425 -1.7441 -0.9732 -0.2770
 6667SOL    MW426402   5.298   0.166   5.506  0.2567  0.0924 -0.0082
 6668SOL     OW26403   2.777   1.757   0.061 -0.6031 -0.0868  0.0023
 6668SOL    HW226404   2.872   1.752   0.051 -0.6589 -1.0513 -0.1601
 6668SOL    HW326405   2.749   1.817  -0.007 -0.1872 -0.4238 -0.4729
 6668SOL    MW426406   2.786   1.764   0.051 -0.2115 -0.0488 -0.3067
 6669SOL     OW26407   4.658   0.376   2.619  0.1557  0.1587  0.5564
 6669SOL    HW226408   4.635   0.335   2.536  1.3555  1.0350 -0.2371
 6669SOL    HW326409   4.614   0.322   2.685 -1.8212  0.1460 -0.6823
 6669SOL    MW426410   4.649   0.363   2.617 -0.3858 -0.1576 -0.4987
 6670SOL     OW26411   1.877   2.372   5.561  0.5265  0.3652 -0.1639
 6670SOL    HW226412   1.933   2.297   5.540  1.3893  1.5454 -2.2903
 6670SOL    HW326413   1.933   2.449   5.549 -0.5416  1.4354  1.2755
 6670SOL    MW426414   1.892   2.372   5.557 -0.6368 -0.5273 -0.2183
 6671SOL     OW26415   6.215   5.164   3.275  0.0159  0.0945 -0.0199
 6671SOL    HW226416   6.146   5.165   3.208  1.9019  0.7017 -2.0851
 6671SOL    HW326417   6.246   5.255   3.278 -0.4926  0.2655  2.3078
 6671SOL    MW426418   6.210   5.176   3.267  0.2510  0.3885  0.5837
 6672SOL     OW26419   2.152   3.001   4.668 -0.0648  0.4565  0.1866
 6672SOL    HW226420   2.144   3.090   4.633 -0.8651  0.7694  1.1264
 6672SOL    HW326421   2.217   3.008   4.738 -0.8429  0.5256  0.9213
 6672SOL    MW426422   2.159   3.014   4.673 -0.4738  0.7915  0.7297
 6673SOL     OW26423   2.544   4.019   0.574 -0.0225 -0.4178  0.0333
 6673SOL    HW226424   2.607   4.064   0.630 -0.7192 -0.2203  0.6830
 6673SOL    HW326425   2.518   3.942   0.623  1.9868 -2.2133 -1.5394
 6673SOL    MW426426   2.549   4.015   0.588  0.0466 -0.0486 -0.6302
 6674SOL     OW26427   6.090   5.319   0.298 -0.7703 -0.6871  0.2795
 6674SOL    HW226428   6.086   5.326   0.203  0.1279 -3.4012 -0.0273
 6674SOL    HW326429   5.998   5.318   0.326 -1.0778 -1.4334 -0.7224
 6674SOL    MW426430   6.077   5.320   0.289 -0.0628 -1.0750  0.3574
 6675SOL     OW26431   5.485   1.931   1.909  0.2071 -0.4056 -0.2170
 6675SOL    HW226432   5.491   2.013   1.861 -0.3213 -0.6993 -0.7914
 6675SOL    HW326433   5.393   1.906   1.902  0.3633 -1.0378 -0.0345
 6675SOL    MW426434   5.474   1.939   1.902  0.1772  0.4490 -0.2439
 6676SOL     OW26435   3.817   5.904   3.071 -0.1422  0.0686 -0.1553
 6676SOL    HW226436   3.744   5.862   3.026 -2.1639  2.2445  0.8762
 6676SOL    HW326437   3.827   5.989   3.029  0.8496  0.3814  0.6518
 6676SOL    MW426438   3.809   5.910   3.060  0.6371  0.6340 -0.2570
 6677SOL     OW26439   5.803   1.012   4.270  0.4934  0.2970  0.2542
 6677SOL    HW226440   5.882   1.020   4.217  0.6053  0.6079  0.4658
 6677SOL    HW326441   5.809   0.925   4.309  0.2120 -0.1007 -0.5530
 6677SOL    MW426442   5.814   1.002   4.268  0.0887  0.3703 -0.4544
 6678SOL     OW26443   3.414   2.754   5.027 -0.0172 -0.8262 -0.5204
 6678SOL    HW226444   3.489   2.711   5.067 -0.0288 -1.9275 -1.6345
 6678SOL    HW326445   3.376   2.806   5.098  0.9442 -1.3876  0.4321
 6678SOL    MW426446   3.419   2.755   5.042 -0.0219  0.3157 -0.3169
 6679SOL     OW26447   3.415   3.585   2.109 -0.0112  0.1017 -0.3946
 6679SOL    HW226448   3.330   3.547   2.090 -0.4388  0.4234  0.7544
 6679SOL    HW326449   3.467   3.512   2.143 -0.5983  0.3518  1.1213
 6679SOL    MW426450   3.411   3.570   2.111 -0.5867 -0.1542  0.4317
 6680SOL     OW26451   4.989   1.177   3.719 -0.0708 -0.3244 -0.1185
 6680SOL    HW226452   4.893   1.169   3.714 -0.1857  0.2464  0.8102
 6680SOL    HW326453   5.021   1.130   3.642 -1.1889  1.1607 -1.5788
 6680SOL    MW426454   4.980   1.170   3.708 -0.0747 -0.2287  0.5466
 6681SOL     OW26455   5.627   1.301   6.061  0.1397  0.0100 -0.0678
 6681SOL    HW226456   5.569   1.275   5.990 -0.4811  1.1336  0.0131
 6681SOL    HW326457   5.713   1.309   6.020  0.1439 -1.0699 -0.3122
 6681SOL    MW426458   5.631   1.299   6.046 -0.2359 -0.4820  0.0505
 6682SOL     OW26459   0.899   6.031   3.441  0.4949 -0.1688  0.0238
 6682SOL    HW226460   0.963   5.978   3.394  0.7615  0.1639  0.0078
 6682SOL    HW326461   0.817   6.017   3.393  1.3740  2.8225 -2.7805
 6682SOL    MW426462   0.896   6.023   3.428 -0.0619  0.6159  0.8334
 6683SOL     OW26463   1.673   5.355   4.888 -0.0162  0.1083  0.4383
 6683SOL    HW226464   1.718   5.289   4.941  0.1952  0.3213  0.5281
 6683SOL    HW326465   1.686   5.326   4.798  0.6824  0.3976  0.4404
 6683SOL    MW426466   1.681   5.342   4.883 -0.1052 -0.0225  0.2564
 6684SOL     OW26467   4.769   0.889   1.300  0.6173 -0.3332  0.5814
 6684SOL    HW226468   4.762   0.798   1.329  0.8948 -0.8464 -0.8797
 6684SOL    HW326469   4.798   0.884   1.209 -1.2076  1.1397 -0.1661
 6684SOL    MW426470   4.772   0.877   1.291 -0.0840 -0.0545 -0.0631
 6685SOL     OW26471   5.106   3.481   5.535  0.3579  0.3308  0.1473
 6685SOL    HW226472   5.158   3.413   5.579 -0.0659 -1.0719 -1.4350
 6685SOL    HW326473   5.164   3.516   5.468  0.5128  1.4525  0.8426
 6685SOL    MW426474   5.120   3.477   5.532  0.5143  0.3673 -0.2264
 6686SOL     OW26475   1.333   1.890   1.783 -0.4084  0.1779 -0.2944
 6686SOL    HW226476   1.238   1.900   1.792 -0.3771 -0.5657  1.2545
 6686SOL    HW326477   1.352   1.808   1.829  0.8278 -0.3813 -1.7495
 6686SOL    MW426478   1.323   1.880   1.790  0.3053  0.3083 -0.0247
 6687SOL     OW26479   6.178   4.729   0.645 -0.7855 -0.3108  0.3197
 6687SOL    HW226480   6.240   4.774   0.587 -0.9727 -0.4570  0.0028
 6687SOL    HW326481   6.148   4.654   0.595 -0.8439 -0.5213  0.6648
 6687SOL    MW426482   6.182   4.725   0.631 -0.1085 -0.3383 -0.0528
 6688SOL     OW26483   0.987   4.509   1.431  0.1777 -0.0277 -0.2259
 6688SOL    HW226484   1.000   4.418   1.402  0.6001  0.0461 -0.2766
 6688SOL    HW326485   0.944   4.552   1.357 -1.9096 -0.6758  0.5484
 6688SOL    MW426486   0.983   4.502   1.418 -0.4368 -0.9683 -0.1497
 6689SOL     OW26487   1.862   2.110   1.408 -0.0805  0.0945  0.2908
 6689SOL    HW226488   1.808   2.078   1.335 -0.1712 -0.8723  0.7648
 6689SOL    HW326489   1.906   2.187   1.373 -0.3038 -0.2187 -0.7180
 6689SOL    MW426490   1.860   2.116   1.394 -0.4509  0.3759  0.1317
 6690SOL     OW26491   1.611   1.650   2.291  0.3795  0.6192  0.1727
 6690SOL    HW226492   1.627   1.602   2.210  1.2613  1.1935 -0.0032
 6690SOL    HW326493   1.617   1.742   2.265  1.1292  0.8066  0.9788
 6690SOL    MW426494   1.614   1.656   2.277  0.0786  0.4556 -1.1207
 6691SOL     OW26495   3.111   2.266   3.697  0.2123  0.0360  0.2190
 6691SOL    HW226496   3.188   2.216   3.721  0.2145 -1.0897 -1.8877
 6691SOL    HW326497   3.046   2.245   3.764  1.7930  1.3953  2.3130
 6691SOL    MW426498   3.112   2.257   3.709 -0.0725  0.1421  0.0433
 6692SOL     OW26499   4.647   3.275   3.466 -0.1753 -0.0849  0.7315
 6692SOL    HW226500   4.714   3.338   3.443 -0.1887 -0.4970 -0.4757
 6692SOL    HW326501   4.696   3.201   3.503 -0.0705  0.1387  1.0427
 6692SOL    MW426502   4.663   3.273   3.468  0.2648  0.0715  0.6445
 6693SOL     OW26503   5.269   5.316   5.275 -0.1014  0.5769  0.4989
 6693SOL    HW226504   5.314   5.255   5.332  2.5720  1.4816 -0.4788
 6693SOL    HW326505   5.304   5.298   5.188 -3.4797 -0.2576 -0.8550
 6693SOL    MW426506   5.279   5.306   5.271  0.1671  0.1428 -0.4042
 6694SOL     OW26507   0.099   0.323   5.166 -0.1723 -0.2387 -0.1985
 6694SOL    HW226508   0.089   0.276   5.083 -0.8774  1.3911 -1.0802
 6694SOL    HW326509   0.022   0.299   5.217 -1.3388  1.0768 -1.2572
 6694SOL    MW426510   0.087   0.314   5.161  0.3391  0.2277 -0.1336
 6695SOL     OW26511   5.617   4.040   5.428  0.8160 -0.0643  0.4240
 6695SOL    HW226512   5.587   4.120   5.385  2.0502  0.4808  0.5513
 6695SOL    HW326513   5.545   3.978   5.415 -0.6781  1.4071  1.3459
 6695SOL    MW426514   5.603   4.042   5.420 -0.0986 -0.4602  0.4008
 6696SOL     OW26515   5.602   4.229   5.656  0.0419 -0.0450  0.1729
 6696SOL    HW226516   5.692   4.255   5.678  0.8292 -2.9479  0.8360
 6696SOL    HW326517   5.612   4.177   5.576 -1.1645  0.2285 -0.1658
 6696SOL    MW426518   5.615   4.225   5.648  0.0318  0.2741  0.0919
 6697SOL     OW26519   4.768   2.557   4.799  0.2242  0.1683  0.1876
 6697SOL    HW226520   4.827   2.627   4.772  0.3374  0.8226  2.0211
 6697SOL    HW326521   4.708   2.546   4.725  1.1770  1.0987 -0.7585
 6697SOL    MW426522   4.768   2.565   4.785 -0.5410 -0.5268 -0.1912
 6698SOL     OW26523   4.711   2.124   1.608 -0.0456  0.1214 -0.2597
 6698SOL    HW226524   4.772   2.066   1.654  0.9637 -0.1347 -1.8246
 6698SOL    HW326525   4.757   2.208   1.602  0.5446 -0.2845 -2.1189
 6698SOL    MW426526   4.725   2.128   1.613  0.5318  0.5934  0.2515
 6699SOL     OW26527   2.454   1.409   0.193  0.3520  0.5347 -0.1088
 6699SOL    HW226528   2.502   1.430   0.113 -0.1401 -0.7153 -0.7397
 6699SOL    HW326529   2.457   1.314   0.200 -2.1913  0.3679 -0.2806
 6699SOL    MW426530   2.461   1.399   0.184  0.1776  0.2238 -0.0200
 6700SOL     OW26531   1.399   2.238   4.346  0.2003  0.1186 -0.2035
 6700SOL    HW226532   1.455   2.200   4.279 -1.4998 -2.2998 -0.4071
 6700SOL    HW326533   1.330   2.284   4.297 -0.2153 -0.3781 -0.0964
 6700SOL    MW426534   1.397   2.239   4.331  0.0062 -0.5788  0.8147
 6701SOL     OW26535   3.751   1.254   5.757  0.5575  0.1886 -0.2664
 6701SOL    HW226536   3.799   1.184   5.713  0.5665  0.4676 -0.7149
 6701SOL    HW326537   3.676   1.272   5.700  1.2549  1.4150 -0.8506
 6701SOL    MW426538   3.748   1.247   5.744  0.7184 -0.0786 -0.2613
 6702SOL     OW26539   3.684   2.315   1.122 -0.0631 -0.0869 -0.0353
 6702SOL    HW226540   3.614   2.338   1.182  1.3133 -1.4083  2.2304
 6702SOL    HW326541   3.739   2.254   1.171  1.4383 -0.8738 -2.4931
 6702SOL    MW426542   3.682   2.310   1.136  0.1926  0.2363 -0.2255
 6703SOL     OW26543   3.582   2.058   5.807  0.2644 -0.0390 -0.1053
 6703SOL    HW226544   3.660   2.010   5.778 -0.4318 -0.1797 -1.9320
 6703SOL    HW326545   3.510   1.996   5.795 -0.3829  0.7592 -0.4898
 6703SOL    MW426546   3.582   2.043   5.801 -0.2913 -0.0772  0.0104
 6704SOL     OW26547   5.188   3.585   3.916 -0.1510 -0.1951 -0.3521
 6704SOL    HW226548   5.230   3.664   3.949 -1.1191  0.1422  0.1094
 6704SOL    HW326549   5.095   3.609   3.907 -1.3274 -2.3374  3.5495
 6704SOL    MW426550   5.181   3.599   3.919 -0.0158 -0.0497 -0.5233
 6705SOL     OW26551   4.927   1.905   2.012  0.5359  0.3856 -0.0180
 6705SOL    HW226552   4.893   1.994   2.018 -0.4849 -0.0645  2.2570
 6705SOL    HW326553   4.939   1.889   1.919  0.1159  2.6591 -0.5085
 6705SOL    MW426554   4.924   1.914   2.001  0.2443 -0.1615  0.4178
 6706SOL     OW26555   4.677   4.758   0.778 -0.0560  0.2880  0.5365
 6706SOL    HW226556   4.606   4.704   0.743  0.9438  0.6794 -2.3866
 6706SOL    HW326557   4.642   4.847   0.777 -0.8353  0.0738  2.9705
 6706SOL    MW426558   4.663   4.763   0.773 -0.5134  0.1531  0.0092
 6707SOL     OW26559   6.261   1.019   5.491  0.0738  0.3093  0.3150
 6707SOL    HW226560   6.249   1.030   5.396 -1.6318 -0.3319  0.4349
 6707SOL    HW326561   6.342   0.968   5.498  0.2214  0.3522 -0.7811
 6707SOL    MW426562   6.270   1.014   5.479  0.2410 -0.0519  0.3268
 6708SOL     OW26563   3.187   0.880   5.375  0.5411  0.3222 -0.4806
 6708SOL    HW226564   3.145   0.921   5.299 -1.3799 -1.2864 -0.3839
 6708SOL    HW326565   3.125   0.895   5.447  0.9600 -0.6139  0.0874
 6708SOL    MW426566   3.173   0.888   5.374 -0.3851 -0.3592 -0.4336
 6709SOL     OW26567   0.485   3.903   2.271  0.3684 -0.2040 -0.2978
 6709SOL    HW226568   0.472   3.945   2.186  0.1498  0.3409  0.0001
 6709SOL    HW326569   0.533   3.967   2.323 -0.2733 -0.1672  0.2766
 6709SOL    MW426570   0.489   3.917   2.267  0.5031  0.1777  0.4912
 6710SOL     OW26571   3.955   3.554   1.418  0.0443  0.5551 -0.3919
 6710SOL    HW226572   3.895   3.626   1.439  1.8867  1.6848  1.3366
 6710SOL    HW326573   4.038   3.579   1.458  0.6415 -2.8360  0.8325
 6710SOL    MW426574   3.958   3.567   1.426 -0.2473  0.2101 -0.2928
 6711SOL     OW26575   0.021   0.850   2.446 -0.0251  0.3691  0.2459
 6711SOL    HW226576  -0.031   0.921   2.484 -1.2129 -0.0479 -0.5647
 6711SOL    HW326577   0.015   0.864   2.351 -2.1300 -2.0337 -0.0793
 6711SOL    MW426578   0.014   0.861   2.438 -0.0855 -0.1861 -0.3192
 6712SOL     OW26579   5.229   5.025   6.001  0.3379  0.0889  0.4025
 6712SOL    HW226580   5.266   4.962   5.938  0.2546  0.4080  0.0309
 6712SOL    HW326581   5.140   5.039   5.970  0.9930  1.9951 -0.7672
 6712SOL    MW426582   5.222   5.018   5.988  0.9826 -0.5284 -0.1429
 6713SOL     OW26583   0.102   3.951   5.314 -0.1764 -0.3062  0.2499
 6713SOL    HW226584   0.076   3.918   5.228 -0.4596 -1.1352  0.6421
 6713SOL    HW326585   0.020   3.962   5.361  0.0052 -0.2377  0.5512
 6713SOL    MW426586   0.088   3.948   5.309 -0.5732 -0.6761  0.0876
 6714SOL     OW26587   2.097   0.475   5.713 -0.6178 -0.3795  0.5011
 6714SOL    HW226588   2.023   0.533   5.728 -0.1184  0.1551  0.9746
 6714SOL    HW326589   2.161   0.501   5.779  0.3212 -0.2548 -0.4226
 6714SOL    MW426590   2.096   0.486   5.723  0.1328  0.6307 -0.1106
 6715SOL     OW26591   2.965   4.317   5.086 -0.1774 -0.0962 -0.0518
 6715SOL    HW226592   2.885   4.331   5.137 -0.2858  0.8368 -0.4434
 6715SOL    HW326593   3.034   4.310   5.151 -0.4680 -0.0643  0.2640
 6715SOL    MW426594   2.964   4.318   5.102 -0.7132 -0.5117 -0.0028
 6716SOL     OW26595   4.145   2.559   4.281  0.1356  0.4893 -0.2685
 6716SOL    HW226596   4.207   2.590   4.347 -0.2596 -2.0397  1.4133
 6716SOL    HW326597   4.196   2.498   4.228 -1.1260 -3.0778  2.2782
 6716SOL    MW426598   4.160   2.555   4.283  0.0614 -0.2764  0.9476
 6717SOL     OW26599   4.967   4.304   2.315 -0.2472  0.1886  0.0823
 6717SOL    HW226600   4.975   4.220   2.361  0.3325  0.5722  0.7107
 6717SOL    HW326601   4.961   4.281   2.223  2.5635 -0.4787 -0.0238
 6717SOL    MW426602   4.967   4.290   2.309  1.1125  0.0310  0.1142
 6718SOL     OW26603   3.033   0.789   6.412 -0.3198  0.3225 -0.1442
 6718SOL    HW226604   2.944   0.822   6.424  0.1723  1.1671  1.5881
 6718SOL    HW326605   3.049   0.795   6.318 -1.4695  1.8282 -0.2734
 6718SOL    MW426606   3.023   0.794   6.401 -1.1319  0.4102 -0.9837
 6719SOL     OW26607   0.576   3.371   5.279  0.5909  0.0824 -0.1627
 6719SOL    HW226608   0.653   3.423   5.255  0.0541  0.9479 -0.0490
 6719SOL    HW326609   0.546   3.409   5.361  0.8409 -1.1403  0.5191
 6719SOL    MW426610   0.583   3.383   5.286  0.1830 -0.3684 -0.2135
 6720SOL     OW26611   3.354   2.793   4.509  0.2058 -0.0418  0.1236
 6720SOL    HW226612   3.310   2.825   4.431  0.6295 -1.3111 -0.6607
 6720SOL    HW326613   3.369   2.871   4.562 -0.0012  0.8511 -1.1023
 6720SOL    MW426614   3.350   2.807   4.506 -0.0115 -0.1405  0.5081
 6721SOL     OW26615   0.020   1.779   5.857  0.1874 -0.9061  0.1186
 6721SOL    HW226616   0.047   1.688   5.850  0.6613 -0.6542 -2.9610
 6721SOL    HW326617   0.101   1.828   5.863  0.0839 -0.5855 -0.8890
 6721SOL    MW426618   0.034   1.773   5.857 -0.6737 -0.2402 -0.4891
 6722SOL     OW26619   2.578   5.768   2.707  0.1263  0.0998  0.6665
 6722SOL    HW226620   2.659   5.815   2.728  0.4827  0.1959 -0.8278
 6722SOL    HW326621   2.607   5.679   2.688  0.1639  0.5400 -1.6025
 6722SOL    MW426622   2.593   5.763   2.708  0.4112 -0.2604  0.1755
 6723SOL     OW26623   6.406   3.249   1.565 -0.1781  0.4571  0.2726
 6723SOL    HW226624   6.380   3.157   1.555  1.6808 -0.1940  1.0050
 6723SOL    HW326625   6.435   3.275   1.478  1.4576 -0.4034  0.5206
 6723SOL    MW426626   6.406   3.240   1.552  0.0395  0.2304  0.1248
 6724SOL     OW26627   0.262   0.091   1.247  0.0330 -0.8340 -0.2040
 6724SOL    HW226628   0.196   0.059   1.309  0.2455  0.0467  0.5025
 6724SOL    HW326629   0.329   0.131   1.302  1.2244 -1.7950 -0.9172
 6724SOL    MW426630   0.262   0.092   1.262  0.6608 -0.8772  0.1929
 6725SOL     OW26631   1.561   2.571   6.135  0.0248 -0.1920  0.0693
 6725SOL    HW226632   1.617   2.497   6.110  0.1441  0.0304 -0.3336
 6725SOL    HW326633   1.620   2.647   6.136  0.5091 -0.5018  3.1338
 6725SOL    MW426634   1.576   2.571   6.132  0.5977  0.1131  0.5557
 6726SOL     OW26635   4.815   1.380   2.411 -0.3743  0.1548 -0.3663
 6726SOL    HW226636   4.811   1.413   2.501 -3.8339  0.9128 -0.6834
 6726SOL    HW326637   4.744   1.317   2.405  1.1329 -1.5269 -2.0651
 6726SOL    MW426638   4.805   1.376   2.422  0.3733 -0.6688 -0.0955
 6727SOL     OW26639   3.329   1.292   1.470  0.3062  0.8313  0.0426
 6727SOL    HW226640   3.406   1.255   1.427  0.3306  0.7153  0.1847
 6727SOL    HW326641   3.361   1.373   1.510  0.1970  1.1303 -0.4723
 6727SOL    MW426642   3.343   1.298   1.470  0.1411  0.4903 -0.6271
 6728SOL     OW26643   1.424   0.897   3.768 -0.5039 -0.0193  0.3322
 6728SOL    HW226644   1.401   0.816   3.813  1.6760 -0.4774  0.7232
 6728SOL    HW326645   1.519   0.901   3.772 -0.2551  0.5201 -3.2606
 6728SOL    MW426646   1.433   0.887   3.775 -0.3852  0.5516  0.0143
 6729SOL     OW26647   4.162   3.103   2.880  0.2100  0.1733 -0.1606
 6729SOL    HW226648   4.248   3.066   2.859  0.1199 -0.2530  0.2140
 6729SOL    HW326649   4.122   3.039   2.939 -0.6839 -0.0183 -0.9448
 6729SOL    MW426650   4.168   3.090   2.885 -0.2642 -0.2558 -0.0032
 6730SOL     OW26651   1.919   5.169   5.352 -0.8664  0.0332 -0.5053
 6730SOL    HW226652   1.959   5.117   5.282  1.3149 -3.0826  2.7090
 6730SOL    HW326653   1.827   5.176   5.326 -0.8863 -3.7501 -2.2538
 6730SOL    MW426654   1.912   5.163   5.339 -0.0714 -0.0336  0.3684
 6731SOL     OW26655   0.483   1.377   4.248  0.0476 -0.0664 -0.1573
 6731SOL    HW226656   0.388   1.376   4.259  0.0534 -0.1142 -0.1122
 6731SOL    HW326657   0.508   1.285   4.239  0.2300 -0.1475  1.0244
 6731SOL    MW426658   0.474   1.364   4.248 -0.4225  0.4198  0.7681
 6732SOL     OW26659   0.075   6.334   3.608  0.2681 -0.3390 -0.2498
 6732SOL    HW226660   0.077   6.425   3.578  1.1127 -0.1539  0.3339
 6732SOL    HW326661   0.074   6.341   3.704  0.6841 -0.9455 -0.1981
 6732SOL    MW426662   0.075   6.347   3.617  0.0151 -0.0158  0.1204
 6733SOL     OW26663   1.903   0.339   1.679 -0.4346 -0.2118 -0.1102
 6733SOL    HW226664   1.920   0.245   1.675 -0.9759 -0.3410  0.4815
 6733SOL    HW326665   1.850   0.350   1.758  0.1898  0.6757  0.1919
 6733SOL    MW426666   1.898   0.328   1.689  0.3748 -0.1851  0.1337
 6734SOL     OW26667   1.018   4.459   6.151  0.2133 -0.0016  0.2366
 6734SOL    HW226668   0.973   4.378   6.176 -0.4757  0.0465 -0.8116
 6734SOL    HW326669   1.107   4.431   6.130  0.7445 -0.0953  2.3436
 6734SOL    MW426670   1.024   4.444   6.152 -0.3523  0.4197 -0.2004
 6735SOL     OW26671   4.702   1.610   2.247 -0.0346  0.4035 -0.1813
 6735SOL    HW226672   4.722   1.552   2.321 -2.5000  0.9609  1.0520
 6735SOL    HW326673   4.610   1.592   2.228 -1.0578  4.0234  0.4814
 6735SOL    MW426674   4.692   1.600   2.255 -0.8435 -0.0061 -0.3505
 6736SOL     OW26675   3.800   4.485   5.166 -0.1710 -0.4712  0.0515
 6736SOL    HW226676   3.809   4.412   5.228 -0.3194 -0.6601 -0.1490
 6736SOL    HW326677   3.850   4.458   5.089  1.9395  0.7189  0.9139
 6736SOL    MW426678   3.808   4.472   5.164 -0.9767  0.6345  0.0187
 6737SOL     OW26679   4.785   1.762   2.939 -0.4039 -0.3624 -0.2092
 6737SOL    HW226680   4.848   1.697   2.970 -0.2205 -0.3406 -0.5319
 6737SOL    HW326681   4.745   1.796   3.019  0.7208  0.3681  0.0664
 6737SOL    MW426682   4.788   1.758   2.954  0.2582 -0.0982  0.2427
 6738SOL     OW26683   5.068   4.216   3.743  0.4001 -0.1959 -0.1312
 6738SOL    HW226684   5.113   4.300   3.733 -0.5152  0.5120  1.3744
 6738SOL    HW326685   5.105   4.161   3.674  0.9235  1.4807 -1.2619
 6738SOL    MW426686   5.079   4.220   3.732  0.3330  0.3483 -0.3734
 6739SOL     OW26687   4.860   5.078   0.629 -0.2858 -0.1065  0.2466
 6739SOL    HW226688   4.827   5.085   0.540  1.9118  0.9469 -0.5577
 6739SOL    HW326689   4.942   5.029   0.621  0.2181  0.4566  1.5902
 6739SOL    MW426690   4.866   5.072   0.616 -0.2022 -0.3038 -0.2289
 6740SOL     OW26691   2.725   1.488   0.149 -0.2034  0.0723  0.1154
 6740SOL    HW226692   2.688   1.538   0.222  1.6747  1.1904  0.3650
 6740SOL    HW326693   2.751   1.554   0.085 -0.9328 -0.8433 -1.1599
 6740SOL    MW426694   2.724   1.503   0.150 -0.7803  0.0196  0.3250
 6741SOL     OW26695   1.669   1.117   1.289 -0.1181  0.2492 -0.2625
 6741SOL    HW226696   1.730   1.153   1.224  0.0783  4.3703  1.8384
 6741SOL    HW326697   1.583   1.147   1.260 -0.1551  1.1596  0.7472
 6741SOL    MW426698   1.666   1.126   1.276 -0.0861 -0.1218  0.3621
 6742SOL     OW26699   4.333   2.419   4.113 -0.4573  0.1325 -0.0786
 6742SOL    HW226700   4.350   2.347   4.174  0.9222  0.6771  0.2235
 6742SOL    HW326701   4.418   2.436   4.072 -0.7740  1.5152 -0.2157
 6742SOL    MW426702   4.347   2.412   4.116  0.3968  0.3482 -0.3635
 6743SOL     OW26703   3.424   3.741   3.527  0.1955 -0.2628 -0.2136
 6743SOL    HW226704   3.439   3.806   3.458 -0.2101  0.0999  0.0315
 6743SOL    HW326705   3.330   3.724   3.523  0.5081 -1.9442 -1.2489
 6743SOL    MW426706   3.413   3.747   3.517  0.3112 -0.0129  0.4684
 6744SOL     OW26707   6.095   3.411   4.520 -0.0227  0.4130 -0.1956
 6744SOL    HW226708   6.121   3.496   4.484  0.1120  0.8327  0.8575
 6744SOL    HW326709   6.071   3.359   4.443  2.2639  0.5641 -1.0854
 6744SOL    MW426710   6.095   3.416   4.505  0.0338 -0.6450 -0.1638
 6745SOL     OW26711   4.098   0.729   2.259 -0.2843 -0.6524 -0.9521
 6745SOL    HW226712   4.191   0.751   2.268 -0.6190  0.3293  0.7622
 6745SOL    HW326713   4.060   0.805   2.215 -0.1858 -1.3363 -2.2398
 6745SOL    MW426714   4.105   0.742   2.254  0.5973  0.6446  0.2403
 6746SOL     OW26715   1.042   2.311   2.388 -0.1440 -0.1142 -1.1085
 6746SOL    HW226716   1.103   2.346   2.323 -0.3898 -0.2372 -1.4097
 6746SOL    HW326717   1.070   2.350   2.471 -0.7199  1.1940 -1.5078
 6746SOL    MW426718   1.054   2.321   2.390 -0.2880 -0.0557  0.1039
 6747SOL     OW26719   5.551   3.537   4.757  0.1199 -0.1340  0.1386
 6747SOL    HW226720   5.569   3.631   4.762  1.6221 -0.2710 -1.5325
 6747SOL    HW326721   5.630   3.499   4.718 -0.1329 -2.2220  1.4708
 6747SOL    MW426722   5.564   3.544   4.752  0.5177  0.0311  0.8812
 6748SOL     OW26723   1.401   3.594   2.345 -0.4991  0.5082 -0.3662
 6748SOL    HW226724   1.445   3.526   2.396 -1.0415  1.4786  1.4850
 6748SOL    HW326725   1.374   3.550   2.265 -0.0084 -1.2159  0.3606
 6748SOL    MW426726   1.404   3.579   2.341  0.1900 -0.1736 -0.3397
 6749SOL     OW26727   2.496   5.579   5.288 -0.0864 -0.1350 -0.4954
 6749SOL    HW226728   2.475   5.490   5.317  1.1787 -0.9130 -1.8552
 6749SOL    HW326729   2.501   5.573   5.193  1.2071  1.1317 -0.5360
 6749SOL    MW426730   2.494   5.567   5.279 -0.4407 -0.4375 -0.0176
 6750SOL     OW26731   4.055   4.928   1.140  0.2814  0.2938 -0.3945
 6750SOL    HW226732   3.975   4.910   1.188  0.6714  1.0685  0.5782
 6750SOL    HW326733   4.123   4.879   1.186  0.3041 -0.7844 -1.5226
 6750SOL    MW426734   4.053   4.919   1.152 -0.3653  0.3472  0.3720
 6751SOL     OW26735   2.459   4.824   1.383 -0.6448  0.0139 -0.0427
 6751SOL    HW226736   2.551   4.844   1.362 -0.4984 -1.8953 -1.4753
 6751SOL    HW326737   2.426   4.905   1.422  1.1708  1.3602 -1.0947
 6751SOL    MW426738   2.467   4.837   1.385  0.2909 -0.0970 -0.4664
 6752SOL     OW26739   2.766   0.387   4.710  0.5671  0.0091 -0.3050
 6752SOL    HW226740   2.765   0.324   4.639  0.5107 -0.6463  0.2729
 6752SOL    HW326741   2.806   0.466   4.671 -0.6618  0.1136 -1.4132
 6752SOL    MW426742   2.771   0.389   4.696 -0.4655  0.0079  0.4010
 6753SOL     OW26743   3.250   0.977   3.931  0.1509 -0.5929 -0.0014
 6753SOL    HW226744   3.249   0.896   3.880  1.7839 -1.1059  0.7010
 6753SOL    HW326745   3.225   0.950   4.019 -0.0456 -0.1925  0.0670
 6753SOL    MW426746   3.246   0.963   3.936 -0.8035 -0.5317 -0.1702
 6754SOL     OW26747   5.498   2.543   0.527  0.5678  0.9004  0.2267
 6754SOL    HW226748   5.571   2.554   0.465 -0.6725 -0.3071 -1.5152
 6754SOL    HW326749   5.463   2.632   0.536  1.0543  1.1820 -0.4412
 6754SOL    MW426750   5.503   2.556   0.520  0.2610 -0.2321  0.1665
 6755SOL     OW26751   5.051   2.522   0.431 -0.5802 -0.0333 -0.0596
 6755SOL    HW226752   5.040   2.563   0.346  1.7629  0.0699 -0.3767
 6755SOL    HW326753   5.135   2.476   0.425 -0.9051 -0.9848  1.8190
 6755SOL    MW426754   5.061   2.521   0.419  0.0613 -0.1450  0.0662
 6756SOL     OW26755   1.045   3.641   3.732  0.1701  0.2075 -0.3168
 6756SOL    HW226756   1.066   3.564   3.784  0.1361 -0.6239 -1.5017
 6756SOL    HW326757   1.128   3.667   3.692 -0.2434 -0.6946 -1.8394
 6756SOL    MW426758   1.059   3.635   3.734  0.2555 -0.1703 -0.1565
 6757SOL     OW26759   0.642   3.209   1.214 -0.2893 -0.2128  0.3135
 6757SOL    HW226760   0.685   3.184   1.296 -0.5869  0.1351  0.5765
 6757SOL    HW326761   0.549   3.198   1.232 -0.3575 -0.0973  0.0305
 6757SOL    MW426762   0.636   3.204   1.227  0.0711  0.0581  0.0093
 6758SOL     OW26763   2.457   5.030   3.846 -0.1345 -0.9025  0.4529
 6758SOL    HW226764   2.503   5.010   3.764 -0.7358 -0.3060 -0.0445
 6758SOL    HW326765   2.423   4.946   3.876  0.1665 -1.1381  0.1457
 6758SOL    MW426766   2.459   5.016   3.839  0.1154  0.4287  0.2457
 6759SOL     OW26767   4.211   0.662   1.783  0.0701 -0.3494 -0.2986
 6759SOL    HW226768   4.156   0.691   1.711 -1.6261 -3.4374 -0.4420
 6759SOL    HW326769   4.155   0.602   1.833  1.7310  0.3219  2.6104
 6759SOL    MW426770   4.197   0.658   1.780 -0.4805 -0.4960 -0.2234
 6760SOL     OW26771   2.007   0.458   5.396  0.0290  0.6964 -0.7463
 6760SOL    HW226772   2.076   0.524   5.389 -1.1533  1.8798 -1.6026
 6760SOL    HW326773   2.003   0.438   5.489  1.1325  1.0248 -0.6093
 6760SOL    MW426774   2.015   0.464   5.407  0.5158  0.3040 -0.3179
 6761SOL     OW26775   3.007   0.866   6.019 -0.2507  0.2015 -0.5101
 6761SOL    HW226776   2.958   0.929   6.072  0.3535 -1.5199  2.3236
 6761SOL    HW326777   2.960   0.784   6.031  0.4806 -0.4428 -1.9191
 6761SOL    MW426778   2.995   0.864   6.028  0.2721 -0.2844  0.5649
 6762SOL     OW26779   5.794   0.965   2.962  0.4726  0.1275 -0.1826
 6762SOL    HW226780   5.706   0.954   2.927  0.0751 -1.5080  1.1752
 6762SOL    HW326781   5.803   0.895   3.027  2.5832  0.5811  0.1010
 6762SOL    MW426782   5.783   0.954   2.966  0.1475  0.5587  0.2215
 6763SOL     OW26783   0.344   2.123   2.545 -0.5950  0.1011  0.3939
 6763SOL    HW226784   0.251   2.144   2.536 -0.3602  0.9233 -0.2879
 6763SOL    HW326785   0.385   2.206   2.572  0.2554  0.3999 -1.6301
 6763SOL    MW426786   0.337   2.137   2.547 -0.2269  0.2940  0.0697
 6764SOL     OW26787   1.516   0.371   4.095 -0.7513 -0.3945 -0.0605
 6764SOL    HW226788   1.543   0.317   4.021 -1.5733  0.7473 -1.2454
 6764SOL    HW326789   1.420   0.371   4.092 -0.7988 -0.1778  0.9017
 6764SOL    MW426790   1.507   0.364   4.085  0.1292  0.5479 -0.1678
 6765SOL     OW26791   5.334   5.783   0.634 -0.0222 -0.1263 -0.3180
 6765SOL    HW226792   5.367   5.826   0.555 -2.6427  3.1954  0.1310
 6765SOL    HW326793   5.353   5.845   0.705 -0.5241 -1.5312  1.1079
 6765SOL    MW426794   5.341   5.797   0.633 -0.0751 -0.0704  0.0930
 6766SOL     OW26795   4.036   4.670   4.038 -0.2783 -0.4291  0.2325
 6766SOL    HW226796   4.023   4.760   4.010 -1.4151  0.0337  2.0798
 6766SOL    HW326797   3.971   4.620   3.989 -0.9577  0.0708  0.6063
 6766SOL    MW426798   4.026   4.675   4.028  0.8704  0.0067 -0.4437
 6767SOL     OW26799   4.761   1.701   4.240 -0.6914  0.3798 -0.0906
 6767SOL    HW226800   4.690   1.754   4.204 -1.2548 -0.3853 -0.1276
 6767SOL    HW326801   4.824   1.693   4.168 -1.0340  0.2277 -0.3737
 6767SOL    MW426802   4.760   1.707   4.226 -0.0032 -0.1146 -0.2802
 6768SOL     OW26803   4.548   3.098   4.693 -0.3482  0.1019 -0.3088
 6768SOL    HW226804   4.500   3.016   4.684 -1.7249  0.9067 -0.5794
 6768SOL    HW326805   4.614   3.080   4.760 -1.0191 -1.0364  0.0792
 6768SOL    MW426806   4.551   3.085   4.700  0.1010 -0.0939 -0.1748
 6769SOL     OW26807   4.325   0.079   3.450 -0.0923 -0.5293 -0.0827
 6769SOL    HW226808   4.262   0.109   3.384  0.6434  1.3084 -0.0227
 6769SOL    HW326809   4.383   0.020   3.402  0.9833  1.4730 -1.4035
 6769SOL    MW426810   4.324   0.075   3.435  0.4334  0.4596 -0.5074
 6770SOL     OW26811   5.817   0.613   1.333  0.9936 -0.4174 -0.0410
 6770SOL    HW226812   5.846   0.626   1.243 -2.0816 -0.7035 -1.1591
 6770SOL    HW326813   5.815   0.518   1.344  0.5759 -0.3962  0.0585
 6770SOL    MW426814   5.821   0.602   1.323  0.4428  0.3184 -0.4181
 6771SOL     OW26815   5.926   4.578   1.180  0.0614  0.7297  0.2555
 6771SOL    HW226816   5.960   4.520   1.248  0.9864  2.4249  1.3303
 6771SOL    HW326817   5.904   4.659   1.226 -3.3479  0.5525 -0.8065
 6771SOL    MW426818   5.928   4.581   1.195  0.2381  0.3382 -0.1652
 6772SOL     OW26819   0.082   2.955   0.054 -0.4317  1.0406  0.3308
 6772SOL    HW226820   0.081   3.001  -0.029 -1.4754  1.3750  0.5150
 6772SOL    HW326821   0.148   2.887   0.043 -0.4858  1.1482 -0.7305
 6772SOL    MW426822   0.090   2.952   0.042 -0.1499 -0.2367  0.3032
 6773SOL     OW26823   5.794   0.180   4.464  0.6692 -0.3962  0.1793
 6773SOL    HW226824   5.806   0.094   4.506  1.6285 -0.6823 -0.6227
 6773SOL    HW326825   5.706   0.176   4.427 -0.8999  0.4633  3.4114
 6773SOL    MW426826   5.784   0.168   4.465 -0.5066  0.0941 -0.1134
 6774SOL     OW26827   1.544   2.298   5.777 -0.7446 -0.9532  0.1833
 6774SOL    HW226828   1.632   2.281   5.810 -0.6380 -1.3940 -0.3134
 6774SOL    HW326829   1.514   2.214   5.742 -0.5175 -0.3408 -1.5965
 6774SOL    MW426830   1.552   2.285   5.777  0.0831  0.4779 -0.2381
 6775SOL     OW26831   2.722   3.921   0.044 -0.2219  0.1853 -0.2096
 6775SOL    HW226832   2.805   3.934   0.089  0.0039  1.0643 -0.8537
 6775SOL    HW326833   2.656   3.924   0.113  0.1941  0.5793  0.1774
 6775SOL    MW426834   2.725   3.923   0.059  0.3162  0.0018  0.0775
 6776SOL     OW26835   0.097   0.153   1.839 -0.8967  0.0249  0.3265
 6776SOL    HW226836   0.110   0.070   1.793 -1.3347 -1.1164  2.1553
 6776SOL    HW326837   0.186   0.183   1.859 -0.7330  0.0796 -0.4340
 6776SOL    MW426838   0.110   0.146   1.835  0.3865  0.1044 -0.0667
 6777SOL     OW26839   4.647   3.717   0.035 -0.3380 -0.6448 -0.0477
 6777SOL    HW226840   4.595   3.749  -0.038 -0.1654  1.3858  0.6313
 6777SOL    HW326841   4.712   3.786   0.049 -0.1107 -1.1752  1.7440
 6777SOL    MW426842   4.649   3.730   0.027  0.3026 -0.1496 -0.1597
 6778SOL     OW26843   5.999   0.644   1.548 -0.5217  0.8990  0.0186
 6778SOL    HW226844   6.056   0.600   1.611 -1.4100  0.7503  0.7465
 6778SOL    HW326845   5.942   0.575   1.515  0.4300  0.8245 -1.5434
 6778SOL    MW426846   5.999   0.629   1.552  0.7003  0.0021 -0.1140
 6779SOL     OW26847   0.312   0.297   1.953 -0.4190  0.4822  0.3724
 6779SOL    HW226848   0.401   0.263   1.957  0.0853  1.7713  0.5729
 6779SOL    HW326849   0.315   0.365   1.886 -1.1429  0.8358  0.6931
 6779SOL    MW426850   0.324   0.301   1.945  0.4002  0.4108  0.2564
 6780SOL     OW26851   0.777   1.477   0.311 -0.6814 -0.3465  0.1608
 6780SOL    HW226852   0.776   1.381   0.319  0.1134 -0.4398 -0.6775
 6780SOL    HW326853   0.851   1.495   0.253 -1.4132  0.7216 -0.4704
 6780SOL    MW426854   0.787   1.467   0.305 -0.5980 -0.9997  1.2406
 6781SOL     OW26855   5.314   2.496   3.414 -0.2354 -0.7000 -0.0623
 6781SOL    HW226856   5.334   2.464   3.326  2.3953 -1.4090  0.7068
 6781SOL    HW326857   5.345   2.587   3.414 -2.2963  0.0463 -0.4858
 6781SOL    MW426858   5.321   2.504   3.403  0.4265 -0.5926 -1.0613
 6782SOL     OW26859   5.177   1.686   1.998 -0.1056 -0.3975  0.5976
 6782SOL    HW226860   5.241   1.628   1.956 -0.7651 -1.2404  0.7303
 6782SOL    HW326861   5.092   1.651   1.972 -0.5269  0.5634  0.6302
 6782SOL    MW426862   5.174   1.674   1.989 -0.0415 -0.0161 -0.3604
 6783SOL     OW26863   6.216   3.756   2.227 -0.3044 -0.8436 -0.1549
 6783SOL    HW226864   6.159   3.747   2.303 -0.0520 -0.6352  0.0624
 6783SOL    HW326865   6.288   3.694   2.243 -0.8109 -1.5972 -0.7495
 6783SOL    MW426866   6.218   3.747   2.239  0.0794  0.4491  0.8321
 6784SOL     OW26867   2.839   2.633   5.489  0.3079 -0.0954  0.3716
 6784SOL    HW226868   2.860   2.545   5.456  1.6666  0.0268  0.8769
 6784SOL    HW326869   2.866   2.631   5.581 -1.3352  0.2992  0.9044
 6784SOL    MW426870   2.845   2.621   5.497  0.9884 -0.2273 -0.3276
 6785SOL     OW26871   2.945   2.058   4.186  0.0506 -0.5221  0.3530
 6785SOL    HW226872   2.933   2.070   4.280 -0.3099  0.9833  0.1349
 6785SOL    HW326873   3.031   2.093   4.168 -0.7563  1.2644 -0.2004
 6785SOL    MW426874   2.954   2.064   4.196  0.3794 -0.1096 -0.7681
 6786SOL     OW26875   0.361   1.751   0.481 -0.1455 -0.0178  0.3685
 6786SOL    HW226876   0.376   1.846   0.488 -0.0480  0.0265 -0.3280
 6786SOL    HW326877   0.441   1.712   0.517  0.1956  0.1847 -0.1411
 6786SOL    MW426878   0.374   1.758   0.487 -0.2998  0.0048 -0.0978
 6787SOL     OW26879   5.461   3.757   2.660 -0.0379  0.1693  0.3167
 6787SOL    HW226880   5.409   3.776   2.739 -0.3863 -0.3298  0.2153
 6787SOL    HW326881   5.548   3.735   2.694 -0.2777 -0.3812  0.5923
 6787SOL    MW426882   5.465   3.757   2.675 -0.3056 -0.9261 -0.7761
 6788SOL     OW26883   3.535   1.318   5.589 -0.1874  0.0440 -0.1593
 6788SOL    HW226884   3.472   1.248   5.574 -0.6713  0.1690  1.1838
 6788SOL    HW326885   3.535   1.369   5.507 -0.5584 -0.9304 -0.7783
 6788SOL    MW426886   3.527   1.316   5.576  0.2371  0.0130  0.0601
 6789SOL     OW26887   2.118   5.039   1.473  0.3619 -0.1360  0.4567
 6789SOL    HW226888   2.109   5.063   1.381  1.3225 -0.6418  0.2100
 6789SOL    HW326889   2.070   5.106   1.521 -0.2030  0.0966 -0.4152
 6789SOL    MW426890   2.111   5.051   1.468  0.0987  0.3481  1.0726
 6790SOL     OW26891   5.105   1.708   0.214 -0.4690 -0.0007 -0.1710
 6790SOL    HW226892   5.144   1.726   0.128 -0.8833  1.7447 -0.0253
 6790SOL    HW326893   5.180   1.700   0.272 -0.2157 -0.1583 -0.5148
 6790SOL    MW426894   5.120   1.709   0.210  0.2168  0.4621  0.2951
 6791SOL     OW26895   2.718   1.458   2.228 -0.4402 -0.0921  0.5753
 6791SOL    HW226896   2.687   1.513   2.299  0.7908  0.8741  0.3986
 6791SOL    HW326897   2.795   1.503   2.194 -0.1827 -1.2427 -0.4608
 6791SOL    MW426898   2.724   1.471   2.233  0.1460  0.1647  0.0802
 6792SOL     OW26899   2.237   0.637   0.672 -0.3976  0.2294  0.5590
 6792SOL    HW226900   2.162   0.593   0.633 -0.6932  1.1398  0.0711
 6792SOL    HW326901   2.281   0.680   0.599  0.3988  0.0067  0.8951
 6792SOL    MW426902   2.233   0.637   0.657 -0.1156 -0.1377  0.1020
 6793SOL     OW26903   6.004   2.474   6.124  0.4514 -0.2340 -0.1165
 6793SOL    HW226904   5.911   2.490   6.141  0.3827 -1.1225  0.3907
 6793SOL    HW326905   6.032   2.549   6.070 -1.3053 -1.4253 -2.9412
 6793SOL    MW426906   5.995   2.486   6.119  0.2237  0.7825 -0.6386
 6794SOL     OW26907   2.978   5.156   2.135  0.2489  0.2563 -0.5519
 6794SOL    HW226908   3.027   5.107   2.201  1.2343  1.6562 -0.2002
 6794SOL    HW326909   2.955   5.091   2.069  0.5099 -0.8890  0.4458
 6794SOL    MW426910   2.981   5.141   2.135 -0.0940  0.7886  0.0753
 6795SOL     OW26911   0.563   5.472   3.654  0.6558  0.4540 -0.1862
 6795SOL    HW226912   0.531   5.391   3.613  1.0445  0.6673 -0.9203
 6795SOL    HW326913   0.489   5.502   3.708  0.8620 -0.9281  0.9166
 6795SOL    MW426914   0.549   5.465   3.656  0.0680  0.0352  0.1277
 6796SOL     OW26915   5.520   5.139   6.171 -1.2270 -0.6972  0.2963
 6796SOL    HW226916   5.503   5.151   6.078 -0.2224 -0.0059  0.1830
 6796SOL    HW326917   5.476   5.213   6.213  1.6420  1.3776 -0.0396
 6796SOL    MW426918   5.512   5.151   6.164  0.2286 -0.2080  0.4581
 6797SOL     OW26919   3.081   3.541   0.388  0.0802 -0.3944  0.0027
 6797SOL    HW226920   3.137   3.468   0.361  0.9234  0.4425 -0.5592
 6797SOL    HW326921   3.006   3.538   0.329 -0.4030 -1.4097  0.6397
 6797SOL    MW426922   3.078   3.531   0.377  0.4666 -0.6837  0.4842
 6798SOL     OW26923   0.652   6.333   1.174 -0.0434  0.1291 -0.0325
 6798SOL    HW226924   0.593   6.326   1.249 -1.2053 -1.0219 -1.0102
 6798SOL    HW326925   0.713   6.403   1.198 -1.7617  1.3430  1.0503
 6798SOL    MW426926   0.652   6.341   1.187  0.3105  0.0458  1.1569
 6799SOL     OW26927   4.170   6.059   1.949 -0.0604 -0.1598  0.2790
 6799SOL    HW226928   4.150   5.968   1.972  1.6619 -0.8144 -0.6785
 6799SOL    HW326929   4.264   6.061   1.936 -0.0382  1.8172  0.3872
 6799SOL    MW426930   4.180   6.047   1.950  0.4708  0.1402  0.3729
 6800SOL     OW26931   0.878   0.423   3.865 -0.3977 -0.2616  0.5850
 6800SOL    HW226932   0.799   0.458   3.824 -0.7305 -0.7614  0.7958
 6800SOL    HW326933   0.950   0.457   3.811 -0.8479 -1.3623 -0.7546
 6800SOL    MW426934   0.877   0.432   3.852  0.3406 -0.3861 -0.3020
 6801SOL     OW26935   1.070   5.839   3.339  0.2012 -0.3504 -0.4059
 6801SOL    HW226936   1.162   5.863   3.327 -0.0916  1.4043  0.5660
 6801SOL    HW326937   1.069   5.791   3.422  0.2007 -0.0990 -0.2593
 6801SOL    MW426938   1.082   5.836   3.348 -0.2501  0.3240  0.2277
 6802SOL     OW26939   5.837   1.892   2.531 -0.2246 -0.4669 -0.1661
 6802SOL    HW226940   5.867   1.907   2.441 -1.6388  0.3685 -0.5427
 6802SOL    HW326941   5.794   1.974   2.556 -0.7472 -1.0377  0.8912
 6802SOL    MW426942   5.835   1.905   2.522 -0.1041 -0.3642 -0.4040
 6803SOL     OW26943   6.138   3.425   0.438 -0.7085 -0.0870 -0.5814
 6803SOL    HW226944   6.055   3.469   0.417 -1.0474 -0.0398  0.7773
 6803SOL    HW326945   6.182   3.484   0.499 -1.8569 -2.1961  2.5210
 6803SOL    MW426946   6.133   3.439   0.443 -0.1267 -0.0862 -0.1040
 6804SOL     OW26947   4.354   2.304   3.582 -0.4017  0.4836 -0.7050
 6804SOL    HW226948   4.342   2.287   3.675 -2.6623 -1.3332 -1.2147
 6804SOL    HW326949   4.444   2.334   3.574  0.0324  0.1548  1.9760
 6804SOL    MW426950   4.364   2.306   3.593  0.1359  0.2086 -0.8743
 6805SOL     OW26951   5.748   5.037   2.778  0.0498  0.7328 -0.0287
 6805SOL    HW226952   5.666   4.989   2.765  0.0754  0.7806 -0.3685
 6805SOL    HW326953   5.742   5.111   2.719  0.0400  1.1158  0.4476
 6805SOL    MW426954   5.736   5.040   2.768  0.0402 -0.3841 -0.0042
 6806SOL     OW26955   0.724   3.137   5.210  0.3308 -0.3925 -0.2588
 6806SOL    HW226956   0.805   3.113   5.255  0.4107 -1.0662 -0.7642
 6806SOL    HW326957   0.688   3.208   5.264  0.2695 -1.3723  1.0526
 6806SOL    MW426958   0.729   3.143   5.223 -0.4051  0.2005  0.1058
 6807SOL     OW26959   3.031   3.422   0.648 -0.2710 -0.3030  0.0228
 6807SOL    HW226960   3.057   3.463   0.565 -0.9579 -1.1730 -0.6516
 6807SOL    HW326961   2.936   3.426   0.647 -0.3408 -1.5715  0.0980
 6807SOL    MW426962   3.022   3.428   0.637  0.0077  0.5229 -0.5368
 6808SOL     OW26963   4.673   4.512   1.267  0.0380  0.1185 -0.4043
 6808SOL    HW226964   4.731   4.554   1.330  1.8135  1.7555 -2.9165
 6808SOL    HW326965   4.693   4.419   1.275 -0.2710  0.1887  1.8120
 6808SOL    MW426966   4.684   4.505   1.276  0.2808 -0.2086 -0.5528
 6809SOL     OW26967   1.367   1.833   1.198  0.4912  0.1516 -0.6195
 6809SOL    HW226968   1.330   1.905   1.147  1.5272 -0.1243 -1.7992
 6809SOL    HW326969   1.400   1.874   1.278  0.9680  0.9633 -1.2262
 6809SOL    MW426970   1.366   1.848   1.202 -0.2862 -0.1545 -0.5384
 6810SOL     OW26971   0.095   4.266   1.968  0.5322 -0.0504 -0.2297
 6810SOL    HW226972   0.081   4.256   2.062 -0.8260  1.1972 -0.2656
 6810SOL    HW326973   0.120   4.357   1.956 -0.3609  0.0966 -1.1654
 6810SOL    MW426974   0.097   4.276   1.979 -0.6838 -0.3431 -0.0555
 6811SOL     OW26975   5.732   5.988   3.506 -0.4324  0.1354 -0.4181
 6811SOL    HW226976   5.651   5.947   3.537 -0.1000  1.2057  2.1592
 6811SOL    HW326977   5.758   6.046   3.578  3.5775 -1.5099 -0.2968
 6811SOL    MW426978   5.725   5.990   3.520  0.2124  0.2489  0.2638
 6812SOL     OW26979   2.663   6.224   2.514  0.0057 -0.1330  0.0759
 6812SOL    HW226980   2.720   6.292   2.551 -1.3833  0.1518  1.7685
 6812SOL    HW326981   2.609   6.194   2.587 -1.2918 -1.1583 -1.2384
 6812SOL    MW426982   2.664   6.229   2.528  0.3118 -0.3881  0.3562
 6813SOL     OW26983   3.375   4.158   1.896  0.4875 -0.0331  0.1287
 6813SOL    HW226984   3.297   4.173   1.843  0.7490 -0.2923 -0.3324
 6813SOL    HW326985   3.424   4.240   1.892  0.1403  0.2027  0.5926
 6813SOL    MW426986   3.371   4.171   1.889  0.0474 -0.3089  0.3415
 6814SOL     OW26987   3.969   5.371   6.377  0.2372 -0.1631  0.3019
 6814SOL    HW226988   4.001   5.433   6.312 -0.2036  1.4769  1.5869
 6814SOL    HW326989   3.875   5.388   6.382  0.1897 -0.5894  1.0399
 6814SOL    MW426990   3.960   5.381   6.369  0.5036 -0.5681 -0.4245
 6815SOL     OW26991   1.009   2.352   1.738 -0.4172 -0.1314 -0.5275
 6815SOL    HW226992   1.069   2.308   1.678  2.1748  1.0017  1.0361
 6815SOL    HW326993   0.980   2.283   1.798 -1.4130 -0.8659 -1.8234
 6815SOL    MW426994   1.013   2.338   1.738 -0.4749  0.4590  0.1556
 6816SOL     OW26995   5.867   3.911   2.530 -0.0131 -0.2607  0.3808
 6816SOL    HW226996   5.778   3.930   2.560 -0.1590 -1.2740  0.6182
 6816SOL    HW326997   5.855   3.875   2.442 -0.0968 -2.8381  1.3582
 6816SOL    MW426998   5.854   3.909   2.522  0.1923  0.2679  0.3484
 6817SOL     OW26999   1.668   6.221   2.511 -0.1156 -0.3004  0.1072
 6817SOL    HW227000   1.693   6.147   2.455  0.0909 -0.5356  0.5019
 6817SOL    HW327001   1.595   6.262   2.465 -0.2510 -0.7682 -0.1037
 6817SOL    MW427002   1.662   6.216   2.497 -0.6824  0.1695  0.1249
 6818SOL     OW27003   2.451   2.456   0.993 -0.9119 -0.2662 -0.2242
 6818SOL    HW227004   2.375   2.509   0.970 -0.3252  0.5866 -0.2232
 6818SOL    HW327005   2.523   2.494   0.944 -0.6228 -1.5746 -0.8656
 6818SOL    MW427006   2.451   2.468   0.984 -0.1478  0.2739  0.2601
 6819SOL     OW27007   3.516   5.361   4.420  0.9683  0.2962  0.1558
 6819SOL    HW227008   3.509   5.405   4.506 -0.6698  0.0987  0.1523
 6819SOL    HW327009   3.504   5.432   4.357 -3.3097 -0.1841  0.1417
 6819SOL    MW427010   3.514   5.376   4.423  0.1416  0.5781  0.1715
 6820SOL     OW27011   5.378   0.296   4.351  0.5076 -0.3162 -0.2015
 6820SOL    HW227012   5.290   0.271   4.321  0.0844  0.4876  0.3163
 6820SOL    HW327013   5.432   0.219   4.335  0.5979  0.3258 -3.9970
 6820SOL    MW427014   5.373   0.283   4.345 -0.2630  0.5878  0.7685
 6821SOL     OW27015   4.711   0.979   4.487  0.0499 -0.2694 -0.3120
 6821SOL    HW227016   4.691   0.997   4.579 -1.2499  0.2925 -0.6733
 6821SOL    HW327017   4.627   0.989   4.442  0.6750 -0.4765 -1.5759
 6821SOL    MW427018   4.697   0.983   4.493 -0.4310 -0.3243  0.2401
 6822SOL     OW27019   0.634   3.019   3.669  0.7428  0.7018  0.2489
 6822SOL    HW227020   0.693   3.094   3.680  0.0023  1.2157  0.7713
 6822SOL    HW327021   0.675   2.948   3.719  0.3204  1.3912  1.6044
 6822SOL    MW427022   0.647   3.020   3.677 -0.1424  0.3885 -0.2664
 6823SOL     OW27023   0.948   5.068   0.397 -0.1099 -0.2598 -0.0598
 6823SOL    HW227024   0.969   4.976   0.383  0.3142  0.0210 -1.4366
 6823SOL    HW327025   0.984   5.113   0.321  0.2883  1.1429  0.9156
 6823SOL    MW427026   0.955   5.062   0.385 -0.0644  1.0558 -0.2172
 6824SOL     OW27027   4.862   3.393   2.753  0.5208  0.1228  0.4605
 6824SOL    HW227028   4.829   3.323   2.809 -0.2293  0.6694  0.7150
 6824SOL    HW327029   4.902   3.456   2.814  3.5817 -1.2578  0.0795
 6824SOL    MW427030   4.863   3.392   2.768  0.6899 -0.6530  0.1785
 6825SOL     OW27031   3.126   0.949   1.612 -0.3243  0.1420 -0.4215
 6825SOL    HW227032   3.111   1.043   1.623 -1.2325  0.0255 -0.6117
 6825SOL    HW327033   3.051   0.907   1.654 -0.1800 -0.4952 -0.7793
 6825SOL    MW427034   3.114   0.956   1.619  0.0777  0.2459 -0.9076
 6826SOL     OW27035   1.909   5.663   3.286  0.3930 -0.1030  0.1391
 6826SOL    HW227036   1.939   5.645   3.375  0.6185 -2.1014 -0.2871
 6826SOL    HW327037   1.814   5.672   3.294  0.0410 -2.9148  0.3135
 6826SOL    MW427038   1.900   5.661   3.298 -0.3515  0.2671 -0.2776
 6827SOL     OW27039   3.365   6.120   2.133  0.8665 -0.3162  0.0711
 6827SOL    HW227040   3.386   6.166   2.214 -1.0125  0.3706  0.2287
 6827SOL    HW327041   3.295   6.172   2.093 -2.1158 -3.4523  0.7370
 6827SOL    MW427042   3.359   6.133   2.138 -0.9140  0.1382  0.4367
 6828SOL     OW27043   2.956   4.907   3.780  0.3134  0.2134 -0.3472
 6828SOL    HW227044   3.045   4.873   3.784  0.2763  0.2333  1.0846
 6828SOL    HW327045   2.966   5.002   3.781  0.2617  0.2275  1.2076
 6828SOL    MW427046   2.969   4.915   3.781 -0.5875  0.4786 -0.0602
 6829SOL     OW27047   0.244   1.083   3.231  0.3489  0.2972 -0.4279
 6829SOL    HW227048   0.311   1.092   3.300  1.2395  2.7067 -1.4737
 6829SOL    HW327049   0.295   1.075   3.150 -0.4302  4.1351 -1.4886
 6829SOL    MW427050   0.260   1.083   3.229 -0.5274  0.2065 -0.1043
 6830SOL     OW27051   4.476   3.069   5.271 -0.0709 -0.2168  0.4729
 6830SOL    HW227052   4.400   3.038   5.321  0.0598 -0.2380  0.6596
 6830SOL    HW327053   4.439   3.101   5.189 -0.1346 -1.5549 -0.0442
 6830SOL    MW427054   4.461   3.069   5.267  0.6034 -0.3558 -0.1193
 6831SOL     OW27055   0.573   5.660   4.583  0.4738  0.5136 -0.3077
 6831SOL    HW227056   0.588   5.665   4.677 -0.8843 -0.5368 -0.0155
 6831SOL    HW327057   0.635   5.594   4.552 -0.8350 -1.0715  0.2993
 6831SOL    MW427058   0.584   5.652   4.591 -0.2655  0.3226  0.0764
 6832SOL     OW27059   4.669   4.600   1.606 -0.4413 -0.3048  0.1953
 6832SOL    HW227060   4.718   4.622   1.527 -1.1491 -2.6226 -0.9859
 6832SOL    HW327061   4.720   4.530   1.648 -1.9168 -1.7358 -0.2887
 6832SOL    MW427062   4.682   4.594   1.601  0.2312  0.3839 -0.2953
 6833SOL     OW27063   3.947   3.782   1.166 -0.3801 -0.3922 -0.0349
 6833SOL    HW227064   3.877   3.719   1.177  0.0295 -0.7218  0.7545
 6833SOL    HW327065   3.903   3.867   1.164 -0.8687 -0.6475 -0.4308
 6833SOL    MW427066   3.932   3.785   1.167  0.1710 -0.5184  0.5750
 6834SOL     OW27067   0.412   1.286   6.024 -0.0049  0.0276  0.5068
 6834SOL    HW227068   0.466   1.354   6.064 -1.6548  1.2699  0.7070
 6834SOL    HW327069   0.323   1.307   6.050 -0.6024 -2.1448  0.4545
 6834SOL    MW427070   0.408   1.297   6.033  0.6273 -0.5391  0.5398
 6835SOL     OW27071   3.465   3.803   3.781 -0.2070  0.2508  0.3338
 6835SOL    HW227072   3.552   3.774   3.810 -0.3592 -2.2440 -1.3157
 6835SOL    HW327073   3.455   3.763   3.694 -3.5513 -0.7612  1.0489
 6835SOL    MW427074   3.475   3.794   3.773  0.2221 -0.3056  0.4066
 6836SOL     OW27075   5.944   1.568   0.377 -1.2097  0.3341 -0.5091
 6836SOL    HW227076   5.983   1.652   0.404 -1.7051 -0.1884  2.0993
 6836SOL    HW327077   6.020   1.513   0.357 -0.6331  0.2338  1.6671
 6836SOL    MW427078   5.959   1.572   0.378 -0.4385  0.1000 -0.1432
 6837SOL     OW27079   4.900   0.081   4.164  0.5135  0.1078 -0.1093
 6837SOL    HW227080   4.811   0.084   4.197  0.1414  0.9025 -1.1375
 6837SOL    HW327081   4.919   0.171   4.137  0.0625 -0.7777 -3.8950
 6837SOL    MW427082   4.891   0.094   4.165 -0.2686 -0.1149 -0.3995
 6838SOL     OW27083   0.801   5.722   4.979  0.1242  0.1059  0.1701
 6838SOL    HW227084   0.770   5.658   5.043 -0.9687  2.0914  1.7703
 6838SOL    HW327085   0.774   5.807   5.015 -0.5341  1.3688 -2.9479
 6838SOL    MW427086   0.793   5.725   4.992  0.5127 -0.9131 -0.5780
 6839SOL     OW27087   2.927   6.421   2.012  0.6918  0.0203 -0.2234
 6839SOL    HW227088   2.958   6.423   2.102 -1.7719  0.9663  0.6947
 6839SOL    HW327089   2.941   6.509   1.979  1.1351 -0.1906 -0.6084
 6839SOL    MW427090   2.933   6.433   2.019 -0.2648 -0.3066 -0.0750
 6840SOL     OW27091   1.472   5.038   2.491 -0.0499 -0.4800  0.9206
 6840SOL    HW227092   1.424   5.046   2.409 -0.9650 -0.4601  1.4441
 6840SOL    HW327093   1.410   4.997   2.551  0.2541  0.4619  1.8993
 6840SOL    MW427094   1.457   5.034   2.488 -0.1135 -0.6212 -0.0789
 6841SOL     OW27095   6.044   4.234   3.594  0.2960 -0.1869 -0.3278
 6841SOL    HW227096   6.063   4.141   3.601  0.0934 -0.2969 -1.2061
 6841SOL    HW327097   6.127   4.274   3.568  0.1136 -0.2719 -1.0633
 6841SOL    MW427098   6.057   4.227   3.592 -0.1640  0.9369 -0.1376
 6842SOL     OW27099   2.263   1.212   5.075  0.4498 -0.3036 -0.0773
 6842SOL    HW227100   2.308   1.168   5.004 -1.3211 -1.6225 -0.4560
 6842SOL    HW327101   2.278   1.156   5.151 -0.0638 -0.4575 -0.0845
 6842SOL    MW427102   2.271   1.199   5.076 -0.1207  0.2303  0.1119
 6843SOL     OW27103   4.986   1.990   1.111 -0.3373  0.4830  0.0063
 6843SOL    HW227104   5.027   1.903   1.118 -0.8241  0.2702  0.3180
 6843SOL    HW327105   4.944   1.990   1.025  0.2075  0.6522 -0.2587
 6843SOL    MW427106   4.986   1.978   1.101 -0.2148 -0.1724 -0.3930
 6844SOL     OW27107   2.182   4.958   4.228  0.3482  0.4693 -0.0883
 6844SOL    HW227108   2.140   5.024   4.173 -0.3658 -0.9951 -1.4090
 6844SOL    HW327109   2.123   4.947   4.302  1.0289  2.0596  0.7304
 6844SOL    MW427110   2.169   4.965   4.230 -0.4861 -0.0358  0.1371
 6845SOL     OW27111   1.228   4.188   0.231  0.7863 -0.2431 -0.1123
 6845SOL    HW227112   1.213   4.192   0.136  0.5808 -1.2497 -0.1255
 6845SOL    HW327113   1.276   4.107   0.244 -1.0794 -1.2399  0.8837
 6845SOL    MW427114   1.232   4.178   0.220 -0.4207  0.2086 -0.9952
 6846SOL     OW27115   6.130   4.803   0.256 -0.4356  0.1666 -0.1325
 6846SOL    HW227116   6.102   4.805   0.164  0.4804 -0.3087 -0.4356
 6846SOL    HW327117   6.049   4.818   0.306 -0.8813  0.8121 -1.0184
 6846SOL    MW427118   6.115   4.805   0.250  0.4402 -0.4886  0.4914
 6847SOL     OW27119   0.089   4.614   2.210 -0.2204  0.1745 -0.4338
 6847SOL    HW227120   0.087   4.710   2.209  0.6155  0.2051 -1.5787
 6847SOL    HW327121   0.081   4.590   2.118 -1.0590 -0.8864 -0.0952
 6847SOL    MW427122   0.088   4.624   2.198 -0.4974  0.0397 -1.1689
 6848SOL     OW27123   4.556   1.750   6.400 -0.8728  0.0600  0.3057
 6848SOL    HW227124   4.561   1.785   6.489 -0.5017 -1.4151  0.8855
 6848SOL    HW327125   4.628   1.688   6.394 -0.5357  0.5630 -1.2384
 6848SOL    MW427126   4.566   1.747   6.411  0.2497 -0.2124 -0.1735
 6849SOL     OW27127   2.099   2.465   5.725  0.3937 -0.6584  0.4410
 6849SOL    HW227128   2.054   2.381   5.730 -0.9721 -0.0369 -0.7202
 6849SOL    HW327129   2.029   2.531   5.725  1.3538  0.4065 -0.0158
 6849SOL    MW427130   2.084   2.463   5.725  0.0555  0.0551  0.2583
 6850SOL     OW27131   6.342   1.298   2.662 -0.5276  0.1644 -0.3379
 6850SOL    HW227132   6.434   1.279   2.682 -0.6438  0.0812  0.1138
 6850SOL    HW327133   6.343   1.322   2.569  0.0869  1.1233 -0.0923
 6850SOL    MW427134   6.354   1.299   2.652  0.0458 -0.0760 -0.3567
 6851SOL     OW27135   3.319   0.110   5.547  0.0683  0.2858  0.3326
 6851SOL    HW227136   3.253   0.175   5.525 -0.0871  0.4341  1.1963
 6851SOL    HW327137   3.295   0.080   5.634 -1.0361 -2.4090 -0.7969
 6851SOL    MW427138   3.307   0.115   5.555 -0.5725  0.6573 -0.1931
 6852SOL     OW27139   1.904   3.368   3.781 -0.2886  0.0044 -0.2084
 6852SOL    HW227140   1.932   3.448   3.825 -1.4492  0.3065  0.0146
 6852SOL    HW327141   1.956   3.299   3.822 -0.4311  0.4481  0.7604
 6852SOL    MW427142   1.914   3.369   3.793 -0.1508 -0.2891  0.1998
 6853SOL     OW27143   2.115   3.197   5.505  0.0117 -0.2147 -0.3801
 6853SOL    HW227144   2.203   3.190   5.542 -0.0786 -0.9786 -0.2781
 6853SOL    HW327145   2.125   3.251   5.427  0.6683 -0.7272 -0.6613
 6853SOL    MW427146   2.128   3.203   5.500 -0.6870  0.1481 -0.1738
 6854SOL     OW27147   1.242   2.190   2.827  0.2855 -0.4315  0.4591
 6854SOL    HW227148   1.204   2.138   2.756 -0.2331  2.3021 -1.4279
 6854SOL    HW327149   1.170   2.201   2.889 -1.2456  1.9609 -1.5157
 6854SOL    MW427150   1.227   2.185   2.826 -0.7833 -0.8140 -0.1726
 6855SOL     OW27151   0.474   4.003   1.032  0.1431  0.0169  0.0137
 6855SOL    HW227152   0.506   3.961   0.952  1.7010  0.9541  0.0988
 6855SOL    HW327153   0.410   4.067   1.000 -0.9470 -1.1601 -0.2539
 6855SOL    MW427154   0.470   4.006   1.017 -0.1118  0.2824 -0.5151
 6856SOL     OW27155   0.905   3.294   0.055 -0.0356  0.0415  0.4625
 6856SOL    HW227156   0.960   3.342   0.117  1.4508 -1.8699  0.7141
 6856SOL    HW327157   0.907   3.347  -0.025  1.7733  0.3005  0.6288
 6856SOL    MW427158   0.913   3.307   0.053  0.1980 -0.4884 -0.5433
 6857SOL     OW27159   1.466   3.401   2.991  0.0885 -0.6131  0.1574
 6857SOL    HW227160   1.495   3.447   2.912  1.1167  0.3427  1.0630
 6857SOL    HW327161   1.424   3.321   2.958 -0.5519  0.3141 -1.4012
 6857SOL    MW427162   1.464   3.396   2.976  0.2532 -0.0935 -0.1003
 6858SOL     OW27163   3.351   1.093   5.534 -0.3168 -0.8344 -0.2674
 6858SOL    HW227164   3.328   1.004   5.559 -0.2370 -1.5134 -2.4382
 6858SOL    HW327165   3.396   1.084   5.450  0.5635  1.1730 -0.0699
 6858SOL    MW427166   3.354   1.080   5.526 -0.4505 -0.4395  0.1276
 6859SOL     OW27167   1.383   4.334   5.274  0.3857 -0.7951  0.0537
 6859SOL    HW227168   1.440   4.287   5.214 -2.4103 -3.6943 -0.6084
 6859SOL    HW327169   1.295   4.313   5.245 -1.0994  1.9899  2.0707
 6859SOL    MW427170   1.379   4.325   5.262  0.2805 -0.3073 -0.3083
 6860SOL     OW27171   0.326   2.896   5.680  0.3138 -0.1770  0.1862
 6860SOL    HW227172   0.364   2.982   5.700  2.4227 -0.7905 -0.8860
 6860SOL    HW327173   0.374   2.866   5.603 -0.4450 -2.3026  0.4694
 6860SOL    MW427174   0.337   2.904   5.672 -0.1296  0.2918  1.0227
 6861SOL     OW27175   4.260   1.289   0.236 -0.0204 -0.0878 -0.3255
 6861SOL    HW227176   4.298   1.373   0.263  0.4453  0.0515 -1.3674
 6861SOL    HW327177   4.310   1.223   0.285  0.7283  0.1637 -0.7253
 6861SOL    MW427178   4.272   1.292   0.247 -0.1973 -0.8480  0.7509
 6862SOL     OW27179   1.861   3.010   3.533  0.0794 -0.3106  0.1493
 6862SOL    HW227180   1.928   3.074   3.509  0.0502 -0.0737  0.6881
 6862SOL    HW327181   1.848   3.023   3.627 -0.9708 -0.1277 -0.0079
 6862SOL    MW427182   1.868   3.020   3.542  0.0736 -0.2139  0.1471
 6863SOL     OW27183   4.825   4.044   1.485 -0.1245  0.1562  0.4565
 6863SOL    HW227184   4.771   3.991   1.426 -0.7420 -0.9464  1.9524
 6863SOL    HW327185   4.858   3.982   1.550  1.5627  1.1113  0.5795
 6863SOL    MW427186   4.822   4.029   1.486  0.3164  0.2491 -0.1189
 6864SOL     OW27187   5.725   1.841   2.056 -0.3065 -0.1262 -0.2286
 6864SOL    HW227188   5.632   1.860   2.051 -0.3319 -0.2302 -0.1672
 6864SOL    HW327189   5.761   1.869   1.972 -0.3833 -0.0313 -0.2285
 6864SOL    MW427190   5.718   1.847   2.045 -0.3625 -0.3548 -0.0247
 6865SOL     OW27191   4.445   2.356   4.758  0.2231  0.1519 -0.3940
 6865SOL    HW227192   4.365   2.319   4.720 -0.2394 -0.4261  1.0776
 6865SOL    HW327193   4.451   2.317   4.845  0.5568  2.3788  0.6585
 6865SOL    MW427194   4.435   2.346   4.764  0.3750  0.2447  0.5366
 6866SOL     OW27195   4.181   5.311   5.267  0.0733  0.1876 -0.5399
 6866SOL    HW227196   4.192   5.322   5.173 -1.1341 -1.8531 -0.9815
 6866SOL    HW327197   4.096   5.268   5.277  1.2417 -1.9517  1.2388
 6866SOL    MW427198   4.172   5.306   5.256  0.3928  0.5447  0.6050
 6867SOL     OW27199   1.561   5.972   4.572  0.0583  0.1460  0.3456
 6867SOL    HW227200   1.542   5.892   4.620  1.4704 -0.1852  0.3829
 6867SOL    HW327201   1.602   6.030   4.636 -0.2190  0.6062  0.1168
 6867SOL    MW427202   1.564   5.969   4.586  0.3203 -0.1002 -0.2327
 6868SOL     OW27203   1.889   5.007   2.095 -0.3082 -0.1251  0.2468
 6868SOL    HW227204   1.811   4.980   2.143  0.6349 -1.0643  1.3003
 6868SOL    HW327205   1.891   5.103   2.105 -0.7580 -0.1903  1.1010
 6868SOL    MW427206   1.879   5.016   2.103  0.5116 -0.1762 -0.1161
 6869SOL     OW27207   3.525   4.117   1.224 -0.0803  0.3261 -0.4170
 6869SOL    HW227208   3.442   4.134   1.180 -0.6194 -1.5506 -0.2272
 6869SOL    HW327209   3.511   4.033   1.268  1.1285  1.1096  1.6008
 6869SOL    MW427210   3.512   4.108   1.224 -0.3958 -0.1421  0.1827
 6870SOL     OW27211   0.514   0.810   5.376 -0.1665  0.2647 -0.4217
 6870SOL    HW227212   0.568   0.732   5.387 -0.3330 -0.0313 -1.6336
 6870SOL    HW327213   0.466   0.796   5.294 -0.1274  1.6826 -0.7177
 6870SOL    MW427214   0.515   0.798   5.367 -0.1736  0.1987 -1.0041
 6871SOL     OW27215   5.717   5.413   1.504 -0.4054 -0.4937  0.5746
 6871SOL    HW227216   5.681   5.356   1.436 -0.7928  0.3996  0.0035
 6871SOL    HW327217   5.673   5.385   1.585  0.2328 -1.7200  0.5153
 6871SOL    MW427218   5.706   5.402   1.506  0.1187  0.7551 -0.1120
 6872SOL     OW27219   4.835   2.687   5.810  0.3809 -0.3514  0.4108
 6872SOL    HW227220   4.866   2.691   5.720 -0.2213 -0.5236  0.1906
 6872SOL    HW327221   4.806   2.776   5.830  0.5333 -0.3086  0.4409
 6872SOL    MW427222   4.835   2.699   5.801 -0.0963 -0.0059  0.0669
 6873SOL     OW27223   2.831   0.652   1.473 -0.0210  0.4442  0.3553
 6873SOL    HW227224   2.858   0.560   1.483 -0.9809  0.1142 -0.0062
 6873SOL    HW327225   2.860   0.676   1.385 -0.8646  0.0900 -0.0317
 6873SOL    MW427226   2.839   0.643   1.462  0.8958  0.3948 -0.0212
 6874SOL     OW27227   2.815   1.144   5.030 -0.0254  0.0025  0.3411
 6874SOL    HW227228   2.774   1.130   5.115 -1.3924  2.2816  0.1518
 6874SOL    HW327229   2.760   1.095   4.969  0.2242 -0.6252  0.6119
 6874SOL    MW427230   2.802   1.136   5.033  0.3190  0.0531  0.4000
 6875SOL     OW27231   2.487   1.248   2.833  0.4308 -0.7709  0.3770
 6875SOL    HW227232   2.581   1.233   2.830  0.7870  1.2757 -1.0730
 6875SOL    HW327233   2.468   1.301   2.755 -1.2982  1.8723  2.3835
 6875SOL    MW427234   2.497   1.253   2.822 -0.5152 -0.4528  0.0782
 6876SOL     OW27235   5.879   1.211   4.752 -0.1795 -0.5669  0.2399
 6876SOL    HW227236   5.876   1.175   4.663 -0.5721  1.8796 -0.8227
 6876SOL    HW327237   5.936   1.287   4.745 -1.5099  0.6322  1.6773
 6876SOL    MW427238   5.886   1.216   4.739  0.5645  0.6279  0.3148
 6877SOL     OW27239   5.277   0.192   0.034 -0.4544  0.4998  0.1117
 6877SOL    HW227240   5.349   0.169   0.093 -2.0083 -1.1344  1.4609
 6877SOL    HW327241   5.312   0.176  -0.054  0.8772 -0.0991  0.7233
 6877SOL    MW427242   5.291   0.187   0.030 -0.2171 -0.3287  0.0489
 6878SOL     OW27243   0.603   0.908   3.373 -0.3716  0.2053  0.0966
 6878SOL    HW227244   0.696   0.925   3.385 -0.1016 -0.3609 -1.0590
 6878SOL    HW327245   0.588   0.919   3.279 -1.4290  0.0896  0.2333
 6878SOL    MW427246   0.613   0.912   3.362 -0.2639 -0.2279 -0.4182
 6879SOL     OW27247   2.781   6.044   1.147  0.0923 -0.2720 -1.0338
 6879SOL    HW227248   2.853   6.077   1.094  1.1515 -0.9644 -0.0720
 6879SOL    HW327249   2.748   5.968   1.098 -0.1436  0.1780 -1.5850
 6879SOL    MW427250   2.786   6.038   1.134 -0.1194 -0.4469 -0.2268
 6880SOL     OW27251   2.600   3.147   5.694 -0.3339 -0.4991 -0.0255
 6880SOL    HW227252   2.674   3.140   5.633  1.1281  0.3159  1.5493
 6880SOL    HW327253   2.617   3.080   5.760 -0.4856  0.2944  0.8436
 6880SOL    MW427254   2.612   3.137   5.694 -0.0299  0.0202 -0.1596
 6881SOL     OW27255   1.594   0.591   1.937  0.9189  0.2206  0.3442
 6881SOL    HW227256   1.504   0.583   1.908  1.1405 -0.1043 -0.2667
 6881SOL    HW327257   1.635   0.507   1.913  1.8497  1.0345 -1.0555
 6881SOL    MW427258   1.588   0.579   1.930  0.4978 -0.0957 -0.0427
 6882SOL     OW27259   1.372   0.972   0.631 -0.2141  0.2800 -0.6649
 6882SOL    HW227260   1.369   1.055   0.583  0.9257  0.3599 -0.6323
 6882SOL    HW327261   1.354   0.996   0.722  0.6444  0.5947 -0.5637
 6882SOL    MW427262   1.369   0.986   0.637  0.5830  0.2228  0.1428
 6883SOL     OW27263   1.817   4.476   3.279 -0.3006  0.0687  0.1879
 6883SOL    HW227264   1.730   4.515   3.280 -0.1008  0.6667 -1.6650
 6883SOL    HW327265   1.801   4.383   3.267 -0.7141  0.2959 -1.3019
 6883SOL    MW427266   1.803   4.469   3.278  0.6888 -0.1277 -0.3185
 6884SOL     OW27267   4.668   4.047   6.185 -0.4625  0.1856 -0.2178
 6884SOL    HW227268   4.616   3.968   6.201 -0.1876  0.4163  2.1456
 6884SOL    HW327269   4.665   4.095   6.268  1.2774  1.5490 -0.8814
 6884SOL    MW427270   4.660   4.043   6.198  0.3160 -0.1858 -0.1372
 6885SOL     OW27271   4.450   0.046   2.573 -0.0462  0.4429  0.2693
 6885SOL    HW227272   4.411   0.056   2.487 -0.1742 -0.0959  0.2626
 6885SOL    HW327273   4.393  -0.017   2.619  0.8652 -0.4496  0.2131
 6885SOL    MW427274   4.437   0.039   2.568 -0.1284 -0.0254  0.3682
 6886SOL     OW27275   1.412   6.248   3.534  0.5441  0.1701 -0.0810
 6886SOL    HW227276   1.333   6.243   3.481  0.8797 -0.0126 -0.5691
 6886SOL    HW327277   1.466   6.315   3.492 -1.4167  4.1654  3.0856
 6886SOL    MW427278   1.409   6.256   3.522  0.5875 -0.0285  0.3116
 6887SOL     OW27279   5.943   5.596   0.482 -0.8548  0.0426  0.0533
 6887SOL    HW227280   6.025   5.627   0.522 -0.1199 -2.3659  0.5446
 6887SOL    HW327281   5.903   5.541   0.549 -1.5185 -0.9742 -1.1382
 6887SOL    MW427282   5.949   5.593   0.496 -0.5690  0.4049 -0.2763
 6888SOL     OW27283   3.685   4.091   1.716  0.2086  0.2088 -0.0240
 6888SOL    HW227284   3.663   4.025   1.782 -0.0561 -0.7959 -1.0822
 6888SOL    HW327285   3.721   4.040   1.643  0.3563  1.2813 -0.7114
 6888SOL    MW427286   3.687   4.075   1.715 -0.4854  0.1343 -0.2326
 6889SOL     OW27287   0.616   5.618   3.945 -0.3256 -0.4239  0.1057
 6889SOL    HW227288   0.568   5.535   3.942  0.5879 -0.9551 -0.2165
 6889SOL    HW327289   0.638   5.630   4.038  0.8349 -1.3246 -0.0272
 6889SOL    MW427290   0.613   5.609   3.957  0.4607 -0.2127  0.0886
 6890SOL     OW27291   4.452   1.191   3.712 -0.1132  0.0582  0.1466
 6890SOL    HW227292   4.394   1.260   3.744  0.0595  0.1926  0.1724
 6890SOL    HW327293   4.414   1.110   3.746  0.1926  0.2170  0.8852
 6890SOL    MW427294   4.440   1.190   3.720 -0.4244 -0.0252  0.1239
 6891SOL     OW27295   3.469   2.546   2.960 -0.1794  0.3371  0.8439
 6891SOL    HW227296   3.380   2.579   2.967 -0.4988 -0.0799 -0.8532
 6891SOL    HW327297   3.465   2.478   2.893  1.2329 -0.3826  1.4326
 6891SOL    MW427298   3.457   2.541   2.952 -0.2777 -0.1801 -0.7469
 6892SOL     OW27299   5.339   2.364   3.165 -0.1594 -0.6157  0.6105
 6892SOL    HW227300   5.359   2.356   3.071 -1.9976 -1.7866  0.2771
 6892SOL    HW327301   5.392   2.296   3.206  2.5856  1.4812  0.8218
 6892SOL    MW427302   5.349   2.354   3.158  0.2739 -0.3532 -0.2236
 6893SOL     OW27303   0.449   6.438   2.788  0.2362 -0.6801 -0.3341
 6893SOL    HW227304   0.444   6.526   2.752  2.7207 -0.8381 -1.2010
 6893SOL    HW327305   0.500   6.448   2.868 -0.9658 -1.1222  0.5335
 6893SOL    MW427306   0.455   6.451   2.794  0.1991 -0.6633 -0.5724
 6894SOL     OW27307   1.685   5.049   4.228  0.5019  0.1565 -0.2467
 6894SOL    HW227308   1.644   4.979   4.177 -2.8064  0.6105  1.4758
 6894SOL    HW327309   1.755   5.006   4.277  0.2352 -1.3698 -1.1515
 6894SOL    MW427310   1.689   5.034   4.228  0.0383  0.6043 -0.2288
 6895SOL     OW27311   5.686   4.434   4.012 -0.2747 -0.0237  0.6362
 6895SOL    HW227312   5.683   4.377   4.089  0.5233  0.2988  0.9112
 6895SOL    HW327313   5.775   4.426   3.979  0.4191  2.3378  1.6970
 6895SOL    MW427314   5.697   4.425   4.018 -0.5262  0.1795  0.4283
 6896SOL     OW27315   4.027   3.000   4.400  0.1552 -0.2573 -0.1422
 6896SOL    HW227316   4.024   2.936   4.329 -1.0121 -2.8336  2.0203
 6896SOL    HW327317   3.939   3.038   4.402  1.2699  2.9266 -2.4683
 6896SOL    MW427318   4.015   2.996   4.391  0.7445 -0.4156  0.0762
 6897SOL     OW27319   5.095   3.971   6.342  0.2658 -0.3576 -0.4033
 6897SOL    HW227320   5.174   4.017   6.311  1.4086  0.2320  3.0133
 6897SOL    HW327321   5.055   4.031   6.404 -1.6400 -1.5942 -0.3649
 6897SOL    MW427322   5.100   3.985   6.346  0.3887 -0.6752 -0.0699
 6898SOL     OW27323   5.446   3.036   1.759  0.2899 -0.5187  0.2970
 6898SOL    HW227324   5.368   3.015   1.811 -0.3282  3.0008  1.0232
 6898SOL    HW327325   5.412   3.080   1.681  1.4383 -2.3135 -1.3112
 6898SOL    MW427326   5.431   3.039   1.756  0.2206 -0.2631 -0.3783
 6899SOL     OW27327   5.829   1.833   0.083 -0.0260 -0.1517  0.2598
 6899SOL    HW227328   5.852   1.798  -0.003 -1.8282 -1.5028  0.2839
 6899SOL    HW327329   5.792   1.919   0.064  1.5777  0.5121 -0.0717
 6899SOL    MW427330   5.827   1.840   0.069  0.1727 -0.1304 -0.1482
 6900SOL     OW27331   1.518   1.488   4.869  0.7801  0.4862  0.7977
 6900SOL    HW227332   1.549   1.473   4.780  1.0155 -1.2337  1.1203
 6900SOL    HW327333   1.587   1.541   4.910  2.4520 -1.6187  0.9156
 6900SOL    MW427334   1.532   1.493   4.863 -0.5860  0.3655 -0.9226
 6901SOL     OW27335   1.042   3.436   0.247 -0.0802  0.3460 -0.2420
 6901SOL    HW227336   1.037   3.383   0.326  0.0285  2.0667  0.9942
 6901SOL    HW327337   1.050   3.526   0.280 -1.8236  1.3046 -2.2086
 6901SOL    MW427338   1.043   3.441   0.262  0.1146  0.1962 -0.3058
 6902SOL     OW27339   0.765   3.133   4.195  0.2491  0.6015  0.2010
 6902SOL    HW227340   0.704   3.059   4.197  0.9236  0.0271  1.9722
 6902SOL    HW327341   0.774   3.155   4.103 -1.3561 -0.3681 -0.2211
 6902SOL    MW427342   0.758   3.126   4.183 -0.6721 -0.2901 -0.8276
 6903SOL     OW27343   3.835   5.173   6.191  0.4757  0.0555  0.0898
 6903SOL    HW227344   3.865   5.210   6.274  0.4192 -1.8998  1.0398
 6903SOL    HW327345   3.787   5.095   6.215  0.6113 -0.6770 -1.8081
 6903SOL    MW427346   3.833   5.168   6.205 -0.1482  0.1206 -0.2106
 6904SOL     OW27347   3.291   3.084   2.985 -0.4923 -0.3706  0.1929
 6904SOL    HW227348   3.373   3.050   2.952 -1.4186 -1.2336 -1.3177
 6904SOL    HW327349   3.231   3.010   2.983 -2.1813  0.9348 -1.8209
 6904SOL    MW427350   3.294   3.070   2.980 -0.1259 -0.4711 -0.2106
 6905SOL     OW27351   0.451   1.887   2.427  0.0271 -0.1286 -0.1864
 6905SOL    HW227352   0.493   1.917   2.346  1.2355 -0.0730  0.4259
 6905SOL    HW327353   0.427   1.968   2.473 -0.7534 -0.1606 -0.5247
 6905SOL    MW427354   0.454   1.902   2.422 -0.2101 -0.4337  0.3782
 6906SOL     OW27355   2.484   1.557   5.870  0.0544 -0.2562  0.0340
 6906SOL    HW227356   2.523   1.583   5.786 -0.0639 -1.4637 -0.4083
 6906SOL    HW327357   2.416   1.623   5.885  0.8782  0.6830 -0.2011
 6906SOL    MW427358   2.480   1.569   5.861  0.1863  0.4476 -0.5710
 6907SOL     OW27359   1.238   5.087   4.148 -0.1834  0.3518  0.0700
 6907SOL    HW227360   1.155   5.083   4.195  0.4089  0.1198  1.1456
 6907SOL    HW327361   1.248   5.179   4.124 -0.9184  0.3177 -0.4173
 6907SOL    MW427362   1.228   5.099   4.151 -0.1097  0.4043  0.0405
 6908SOL     OW27363   2.951   1.607   5.478  0.0163 -0.1745 -0.5955
 6908SOL    HW227364   3.038   1.588   5.514  0.4380 -0.2179 -1.5921
 6908SOL    HW327365   2.954   1.572   5.389 -0.0430  2.2847 -1.6399
 6908SOL    MW427366   2.963   1.600   5.471  0.4007 -0.2091  0.1709
 6909SOL     OW27367   4.076   3.873   2.216  0.0956 -0.3365  0.3829
 6909SOL    HW227368   4.003   3.916   2.172  2.7906  2.0086 -2.2149
 6909SOL    HW327369   4.089   3.923   2.297  0.8012  1.4524 -0.7733
 6909SOL    MW427370   4.068   3.885   2.221  0.7394 -0.0879 -0.1903
 6910SOL     OW27371   1.131   5.409   2.292  0.7915  0.2953 -0.2301
 6910SOL    HW227372   1.173   5.465   2.357  1.9627  1.4593 -1.9024
 6910SOL    HW327373   1.160   5.320   2.314  0.2321  0.5158  1.4794
 6910SOL    MW427374   1.140   5.405   2.303 -0.3496 -0.2317 -0.5763
 6911SOL     OW27375   2.286   6.060   5.365  0.1681 -0.3236  0.5088
 6911SOL    HW227376   2.198   6.022   5.362 -0.4935  1.2117 -0.9346
 6911SOL    HW327377   2.343   5.985   5.383 -1.3181 -1.5514  0.3519
 6911SOL    MW427378   2.282   6.045   5.367  0.5865 -0.1667 -0.1675
 6912SOL     OW27379   1.980   5.363   0.267  0.3574  0.2893  0.3130
 6912SOL    HW227380   2.069   5.362   0.302  0.9939  1.7160 -1.1382
 6912SOL    HW327381   1.989   5.401   0.180 -1.8585  1.9245  0.7134
 6912SOL    MW427382   1.993   5.368   0.260  0.2090 -0.7055  0.0496
 6913SOL     OW27383   2.629   3.390   5.834 -0.1005 -0.4464  0.1284
 6913SOL    HW227384   2.613   3.311   5.782  0.0147 -1.9056  2.1663
 6913SOL    HW327385   2.554   3.396   5.893  0.5895  0.0997  0.9916
 6913SOL    MW427386   2.617   3.380   5.835  0.0712 -0.0342 -0.4148
 6914SOL     OW27387   6.120   6.295   2.658 -0.2616  0.0771  0.3689
 6914SOL    HW227388   6.094   6.344   2.737  1.6530 -0.4651  1.3910
 6914SOL    HW327389   6.089   6.349   2.585 -0.8391  1.3003  1.4724
 6914SOL    MW427390   6.112   6.309   2.659  0.1527  0.0194 -0.4619
 6915SOL     OW27391   4.000   3.567   4.897  0.3059 -0.0581 -0.0374
 6915SOL    HW227392   3.959   3.481   4.901 -0.2366  0.1628 -0.6472
 6915SOL    HW327393   3.928   3.628   4.883  0.7772  0.3881 -0.5957
 6915SOL    MW427394   3.985   3.563   4.895  0.4680  0.1045 -0.7681
 6916SOL     OW27395   6.190   2.585   1.355 -0.2087 -0.6363 -0.6348
 6916SOL    HW227396   6.162   2.495   1.368 -0.9383 -0.0987  1.9724
 6916SOL    HW327397   6.109   2.636   1.356  0.2849  0.1820 -0.9730
 6916SOL    MW427398   6.176   2.580   1.357  0.0712 -0.3774  0.1929
 6917SOL     OW27399   1.185   5.967   4.362 -0.0039 -0.3744  0.2055
 6917SOL    HW227400   1.113   5.914   4.328 -2.0907  2.9390 -1.0993
 6917SOL    HW327401   1.262   5.939   4.311 -1.2827 -1.2206 -1.3489
 6917SOL    MW427402   1.186   5.956   4.351  0.3333 -0.2646  0.1747
 6918SOL     OW27403   5.511   1.224   4.538  0.1594 -0.4825  0.2350
 6918SOL    HW227404   5.465   1.308   4.535 -1.1591 -1.1741  0.5255
 6918SOL    HW327405   5.526   1.208   4.631  0.8853 -0.3292  0.1515
 6918SOL    MW427406   5.507   1.233   4.550  0.2932  0.3360  0.5056
 6919SOL     OW27407   2.592   4.113   5.129  1.2850  0.3749 -0.1491
 6919SOL    HW227408   2.649   4.066   5.068 -0.2665 -0.9372 -0.6466
 6919SOL    HW327409   2.571   4.049   5.197  1.3397  1.2093  0.6769
 6919SOL    MW427410   2.597   4.099   5.130 -0.0288 -0.6000 -0.3667
 6920SOL     OW27411   2.132   1.700   4.738 -0.3473  0.0499 -0.4070
 6920SOL    HW227412   2.127   1.791   4.769 -0.9940 -0.0743 -0.1287
 6920SOL    HW327413   2.087   1.650   4.806 -1.1938 -0.3123 -1.2126
 6920SOL    MW427414   2.125   1.706   4.751  0.3182 -0.3876  0.0125
 6921SOL     OW27415   2.152   5.931   5.120 -0.1903 -0.2368 -0.1119
 6921SOL    HW227416   2.133   5.892   5.035 -1.8537 -1.7387  0.8700
 6921SOL    HW327417   2.083   5.997   5.132 -0.6150 -0.7785  0.4960
 6921SOL    MW427418   2.140   5.934   5.111 -0.2962 -0.2915 -0.5877
 6922SOL     OW27419   2.700   4.942   3.345 -0.6259 -0.2551 -0.3314
 6922SOL    HW227420   2.780   4.994   3.332 -1.9887  1.9234 -0.6274
 6922SOL    HW327421   2.697   4.883   3.270 -0.2915  1.0452 -1.4096
 6922SOL    MW427422   2.710   4.941   3.333 -0.3816 -0.7471  0.4540
 6923SOL     OW27423   4.733   4.360   2.440  0.3681 -0.2365 -0.1729
 6923SOL    HW227424   4.811   4.344   2.388 -0.3531 -0.6694 -1.1549
 6923SOL    HW327425   4.696   4.272   2.455 -0.7286  0.0708 -0.9979
 6923SOL    MW427426   4.738   4.346   2.435  0.0047 -0.6587 -0.0712
 6924SOL     OW27427   3.322   5.770   2.396 -0.3029 -0.1910 -0.0737
 6924SOL    HW227428   3.258   5.703   2.369 -0.8323 -0.8840  2.6384
 6924SOL    HW327429   3.383   5.723   2.452  2.1226  0.6807 -1.8379
 6924SOL    MW427430   3.321   5.755   2.400  0.6494  0.0078 -0.0126
 6925SOL     OW27431   5.341   0.868   3.074 -0.3101  0.1535  0.3004
 6925SOL    HW227432   5.399   0.802   3.036  0.5735  0.6430  0.7512
 6925SOL    HW327433   5.390   0.950   3.065 -1.2635  0.7067  0.0100
 6925SOL    MW427434   5.355   0.870   3.068 -0.1675 -0.1553 -0.0115
 6926SOL     OW27435   0.249   4.334   5.973  0.0713 -0.6210 -0.2563
 6926SOL    HW227436   0.277   4.380   6.052  2.3610 -1.7231 -0.3523
 6926SOL    HW327437   0.257   4.399   5.903 -1.7159  0.2818  0.3066
 6926SOL    MW427438   0.253   4.349   5.974  0.5907 -0.2595 -0.7803
 6927SOL     OW27439   2.779   0.708   1.940  0.4180 -0.6647 -0.2902
 6927SOL    HW227440   2.828   0.735   1.863 -0.0150 -0.5354 -0.5221
 6927SOL    HW327441   2.836   0.731   2.014  0.4728 -0.0133 -0.5290
 6927SOL    MW427442   2.793   0.715   1.940  0.7344 -0.1938 -0.3326
 6928SOL     OW27443   0.683   3.398   5.596  0.4063 -0.2427  0.0800
 6928SOL    HW227444   0.605   3.447   5.623  1.3253  0.9068  0.8087
 6928SOL    HW327445   0.747   3.466   5.574  1.3114 -1.1478 -0.1745
 6928SOL    MW427446   0.681   3.414   5.597 -0.1715 -0.4708  0.0053
 6929SOL     OW27447   5.867   3.999   1.622  0.3328 -0.9770  0.2161
 6929SOL    HW227448   5.773   3.984   1.625  0.3222 -1.2641 -0.9952
 6929SOL    HW327449   5.898   3.979   1.710 -0.7575 -0.7127  0.6656
 6929SOL    MW427450   5.859   3.994   1.634 -0.2964 -0.4635 -0.0070
 6930SOL     OW27451   0.996   1.756   5.418  0.6217  0.2040  0.0975
 6930SOL    HW227452   0.931   1.778   5.484  2.1272  2.1496  1.0269
 6930SOL    HW327453   0.954   1.778   5.335 -0.1898  0.6802  0.6149
 6930SOL    MW427454   0.982   1.762   5.416  0.0305 -0.1711  0.5369
 6931SOL     OW27455   3.465   4.872   3.322 -0.2869 -0.1586 -0.0068
 6931SOL    HW227456   3.387   4.888   3.375 -0.0633 -0.5164  0.4404
 6931SOL    HW327457   3.513   4.955   3.324  0.2965 -0.4926  1.3386
 6931SOL    MW427458   3.461   4.885   3.329 -0.0967  0.6901  0.0053
 6932SOL     OW27459   1.606   0.146   6.082 -0.3987  0.6256  0.0988
 6932SOL    HW227460   1.582   0.078   6.019 -2.4233 -0.6116  2.0721
 6932SOL    HW327461   1.533   0.208   6.079 -1.4154 -0.3677  2.3920
 6932SOL    MW427462   1.593   0.145   6.073  0.6019  0.1237 -0.2934
 6933SOL     OW27463   2.143   1.831   5.537  0.0458 -0.1742  0.4753
 6933SOL    HW227464   2.223   1.869   5.573 -0.2862  0.3083  0.7131
 6933SOL    HW327465   2.146   1.853   5.444 -0.2638  0.6723  0.6528
 6933SOL    MW427466   2.154   1.839   5.529  0.2058 -0.1159  0.4266
 6934SOL     OW27467   2.914   1.059   4.415 -0.4129 -0.3815 -0.2313
 6934SOL    HW227468   2.966   1.107   4.351 -0.9928 -0.1599 -0.5398
 6934SOL    HW327469   2.868   1.126   4.465  0.2902 -0.5317  0.6577
 6934SOL    MW427470   2.915   1.074   4.413  0.7470  0.1217 -0.4146
 6935SOL     OW27471   5.615   1.756   2.868 -0.8620  0.3348 -0.0837
 6935SOL    HW227472   5.615   1.726   2.777 -1.3399  0.0500  0.0073
 6935SOL    HW327473   5.661   1.840   2.865  0.2449 -0.2668 -0.3807
 6935SOL    MW427474   5.621   1.763   2.855  0.0682  0.9143  0.5661
 6936SOL     OW27475   5.067   3.029   4.355 -0.3580 -0.0917  0.6213
 6936SOL    HW227476   5.070   2.999   4.264  0.6658 -3.0307  1.5399
 6936SOL    HW327477   5.140   3.091   4.362  0.0663 -0.4650 -0.3432
 6936SOL    MW427478   5.077   3.033   4.344  0.0395  0.0761  0.0809
 6937SOL     OW27479   0.393   0.174   6.110  0.3245  0.0744  0.0663
 6937SOL    HW227480   0.442   0.249   6.077  0.0522  0.2003 -0.0564
 6937SOL    HW327481   0.448   0.138   6.180  0.7011  0.0665 -0.2344
 6937SOL    MW427482   0.407   0.179   6.115 -0.0054  0.5460  0.2281
 6938SOL     OW27483   2.873   4.903   4.530 -0.2638 -0.0487 -0.3046
 6938SOL    HW227484   2.867   4.917   4.435 -0.4755 -0.8348 -0.4139
 6938SOL    HW327485   2.967   4.902   4.548 -0.2272  0.9118 -0.3709
 6938SOL    MW427486   2.885   4.905   4.520  0.2003  0.3016 -0.3786
 6939SOL     OW27487   5.017   4.876   4.409 -0.0425  0.1600  0.1880
 6939SOL    HW227488   5.076   4.948   4.425 -1.0939  1.0732  0.0926
 6939SOL    HW327489   4.929   4.913   4.421 -0.6641 -0.6586 -1.4689
 6939SOL    MW427490   5.013   4.890   4.412 -0.4820 -0.3012  0.5136
 6940SOL     OW27491   5.436   1.969   4.216  0.1352 -0.0688 -0.0901
 6940SOL    HW227492   5.453   1.956   4.122  0.1079 -0.4004 -0.0497
 6940SOL    HW327493   5.512   1.929   4.259  0.2778  0.3135  0.0239
 6940SOL    MW427494   5.448   1.962   4.209 -0.0213  0.2290  0.3053
 6941SOL     OW27495   1.854   5.258   2.641 -0.0661 -0.4092  0.1793
 6941SOL    HW227496   1.833   5.301   2.725  0.2539 -0.8832  0.5033
 6941SOL    HW327497   1.787   5.291   2.581  1.1523  1.9062 -0.0417
 6941SOL    MW427498   1.842   5.268   2.644 -0.1916 -0.0461  0.2399
 6942SOL     OW27499   2.777   5.075   2.575  0.1893 -0.9521 -0.1990
 6942SOL    HW227500   2.759   5.095   2.483  0.5469 -1.5315 -0.4021
 6942SOL    HW327501   2.726   4.996   2.593  0.1246 -0.8441  0.0985
 6942SOL    MW427502   2.768   5.067   2.565 -0.0187  0.2440 -0.4279
 6943SOL     OW27503   4.195   0.533   2.484 -0.0708 -0.5811  0.1379
 6943SOL    HW227504   4.262   0.522   2.552 -0.4890 -0.8403  0.5175
 6943SOL    HW327505   4.117   0.493   2.522 -1.0949  1.8165  0.6887
 6943SOL    MW427506   4.194   0.526   2.498  0.8636  0.2562 -0.1691
 6944SOL     OW27507   2.520   4.889   4.703  0.2679  0.0742  0.2265
 6944SOL    HW227508   2.528   4.807   4.654 -1.4821 -0.6633  1.0916
 6944SOL    HW327509   2.437   4.881   4.750  0.2744  2.1657  0.6952
 6944SOL    MW427510   2.510   4.877   4.703 -0.0388 -0.0380  0.1020
 6945SOL     OW27511   3.036   5.637   1.607 -0.2720 -0.1661  0.1457
 6945SOL    HW227512   3.023   5.717   1.658  0.4391  0.7688 -1.0873
 6945SOL    HW327513   3.121   5.649   1.564  0.6226 -2.2695  1.1403
 6945SOL    MW427514   3.046   5.649   1.608 -0.0768 -0.3637 -0.3126
 6946SOL     OW27515   0.530   1.623   1.795 -0.4555  0.0796  0.4913
 6946SOL    HW227516   0.459   1.580   1.842 -0.8895  0.0780 -0.1560
 6946SOL    HW327517   0.605   1.616   1.854 -1.0641  0.3722  1.3241
 6946SOL    MW427518   0.531   1.616   1.809  0.6090  0.2377  0.8131
 6947SOL     OW27519   5.312   1.394   0.246  0.4454 -0.3682 -0.5756
 6947SOL    HW227520   5.240   1.411   0.184  1.6461 -2.3734 -2.6785
 6947SOL    HW327521   5.268   1.373   0.328 -1.3570 -0.7848 -1.5909
 6947SOL    MW427522   5.296   1.394   0.249  0.0509 -0.7911 -0.1876
 6948SOL     OW27523   4.735   0.216   0.552  0.8240  0.0694 -0.4252
 6948SOL    HW227524   4.788   0.281   0.506  1.7632 -1.6766 -1.9922
 6948SOL    HW327525   4.718   0.148   0.486 -0.1851 -1.2237  1.0852
 6948SOL    MW427526   4.740   0.216   0.537 -0.0492  0.0819  0.5263
 6949SOL     OW27527   5.996   3.415   3.328 -0.1458 -0.0465  0.0167
 6949SOL    HW227528   6.085   3.378   3.325 -0.4796 -0.8699  0.0034
 6949SOL    HW327529   5.968   3.400   3.418 -0.4203 -0.1537 -0.0865
 6949SOL    MW427530   6.004   3.408   3.339 -0.6466 -0.2808  0.4633
 6950SOL     OW27531   2.699   1.972   4.890 -0.2361  0.4773 -0.0503
 6950SOL    HW227532   2.748   2.038   4.841 -0.0545  0.6308  0.3389
 6950SOL    HW327533   2.664   2.018   4.966  2.7002 -0.5363  2.1023
 6950SOL    MW427534   2.701   1.987   4.893  0.4233 -0.0866  0.1290
 6951SOL     OW27535   0.292   4.446   5.716  0.3495 -0.1366  0.7239
 6951SOL    HW227536   0.231   4.518   5.699  1.7681  1.3723  1.6578
 6951SOL    HW327537   0.289   4.392   5.637 -2.2533 -0.2181  0.7986
 6951SOL    MW427538   0.284   4.449   5.703  0.1047  0.0426 -0.0301
 6952SOL     OW27539   4.753   6.349   6.203  0.8632 -0.0163  0.1218
 6952SOL    HW227540   4.701   6.281   6.246 -0.8232  1.3051  0.2974
 6952SOL    HW327541   4.712   6.359   6.117  2.0193 -0.2109 -0.4667
 6952SOL    MW427542   4.741   6.341   6.197  0.2498 -0.0075  0.1169
 6953SOL     OW27543   0.567   5.002   3.398 -0.4782 -0.1755 -0.1125
 6953SOL    HW227544   0.513   5.071   3.438 -1.0591 -0.7522  0.1131
 6953SOL    HW327545   0.606   5.044   3.321 -2.1702 -0.0640 -0.9473
 6953SOL    MW427546   0.565   5.017   3.394  0.2598 -0.2493  0.6153
 6954SOL     OW27547   2.502   1.198   5.385 -0.0492  0.4364 -0.1242
 6954SOL    HW227548   2.513   1.239   5.299  0.6392 -1.3448 -0.9535
 6954SOL    HW327549   2.428   1.244   5.424 -1.8723 -0.1357 -2.6081
 6954SOL    MW427550   2.494   1.209   5.378  0.6101  0.1142 -0.3928
 6955SOL     OW27551   5.439   5.701   4.261 -0.0301  0.1752  0.6887
 6955SOL    HW227552   5.414   5.611   4.284  0.9454 -0.1283  0.5806
 6955SOL    HW327553   5.524   5.714   4.303 -0.3203  1.1751  1.0004
 6955SOL    MW427554   5.447   5.691   4.270 -0.0368  0.4521 -0.1892
 6956SOL     OW27555   2.197   4.645   4.322 -0.1480 -0.2406  0.3185
 6956SOL    HW227556   2.114   4.666   4.278 -0.5769 -0.9834  0.7469
 6956SOL    HW327557   2.261   4.702   4.280 -0.8445  0.2336 -0.1358
 6956SOL    MW427558   2.194   4.655   4.310 -0.2458 -0.3723  0.1210
 6957SOL     OW27559   5.980   5.130   2.035  0.3270 -0.4355  0.2911
 6957SOL    HW227560   6.011   5.052   1.989 -0.5843 -1.2588  1.0336
 6957SOL    HW327561   5.897   5.152   1.992  0.4316 -0.0499  0.2827
 6957SOL    MW427562   5.973   5.123   2.023  0.0015 -0.0984  0.4146
 6958SOL     OW27563   2.209   2.159   3.724  0.2914  0.2487  0.6033
 6958SOL    HW227564   2.247   2.222   3.664 -3.0611  2.2171  0.2654
 6958SOL    HW327565   2.243   2.074   3.697  2.6455  1.5926 -0.8660
 6958SOL    MW427566   2.218   2.156   3.713  0.3605 -0.3559 -0.1645
 6959SOL     OW27567   2.823   2.170   2.081 -0.6348 -0.4046 -0.6525
 6959SOL    HW227568   2.900   2.220   2.054 -0.6220  0.6343  1.1452
 6959SOL    HW327569   2.856   2.081   2.093  0.4924  0.1553  0.7476
 6959SOL    MW427570   2.837   2.165   2.079  0.2829 -0.2653  0.1265
 6960SOL     OW27571   1.514   4.412   0.497  0.2545 -0.0989  0.2982
 6960SOL    HW227572   1.599   4.372   0.476  0.3397  0.8048 -1.2567
 6960SOL    HW327573   1.537   4.496   0.537  0.0903 -0.1112  0.4177
 6960SOL    MW427574   1.528   4.418   0.499 -0.2156  0.1031  0.2837
 6961SOL     OW27575   2.780   0.893   6.382 -0.2685 -0.4394 -0.2876
 6961SOL    HW227576   2.746   0.822   6.436  0.6816  1.0798  2.5039
 6961SOL    HW327577   2.731   0.970   6.410  1.0646  0.6202 -0.7577
 6961SOL    MW427578   2.769   0.894   6.393  0.2530 -0.4458 -0.1456
 6962SOL     OW27579   4.558   1.536   5.808 -0.1717  0.4029  0.5897
 6962SOL    HW227580   4.580   1.495   5.725 -2.6733  0.5151 -0.2106
 6962SOL    HW327581   4.600   1.622   5.804  0.9795 -0.1613  0.1344
 6962SOL    MW427582   4.566   1.542   5.797 -0.2007 -0.1092 -0.1838
 6963SOL     OW27583   1.965   1.623   1.008  0.1245  0.2445 -0.1637
 6963SOL    HW227584   1.916   1.683   1.063  0.3626  0.2354  0.0592
 6963SOL    HW327585   1.970   1.668   0.923 -0.0212  0.3718 -0.1057
 6963SOL    MW427586   1.959   1.637   1.004 -0.1233  0.0371 -1.1732
 6964SOL     OW27587   4.966   1.663   5.864  0.5383  0.4049  0.2255
 6964SOL    HW227588   5.003   1.580   5.895  0.9495  0.0960 -1.0455
 6964SOL    HW327589   5.029   1.729   5.893  1.2870  0.0447 -0.5196
 6964SOL    MW427590   4.979   1.661   5.872  0.1000 -0.4924 -0.6518
 6965SOL     OW27591   2.655   3.834   3.856 -0.2773 -0.1027 -0.3258
 6965SOL    HW227592   2.615   3.875   3.933 -0.9551 -0.2818 -0.5779
 6965SOL    HW327593   2.688   3.908   3.804  1.2214 -0.0219  0.6738
 6965SOL    MW427594   2.654   3.849   3.859  0.2267  0.5649 -0.7205
 6966SOL     OW27595   5.756   3.731   5.414 -0.5180 -0.1668  0.2448
 6966SOL    HW227596   5.705   3.804   5.379 -0.3992 -0.2931 -0.2020
 6966SOL    HW327597   5.736   3.658   5.356 -1.3151 -0.7354  1.2024
 6966SOL    MW427598   5.747   3.731   5.402  0.1085 -0.1131 -0.4129
 6967SOL     OW27599   5.848   2.688   1.645  0.1475  0.5321  0.6733
 6967SOL    HW227600   5.779   2.746   1.677  0.2125  0.4002  1.0558
 6967SOL    HW327601   5.929   2.729   1.674  0.2339  0.6918  0.2157
 6967SOL    MW427602   5.849   2.701   1.653 -0.7512  1.0663 -0.1142
 6968SOL     OW27603   5.446   4.173   3.356  0.1740 -0.2424 -0.3049
 6968SOL    HW227604   5.522   4.115   3.367 -1.2615 -2.4809 -1.4632
 6968SOL    HW327605   5.470   4.229   3.283  0.9100 -0.5769 -0.3379
 6968SOL    MW427606   5.459   4.172   3.348 -0.0983  0.2919  0.1842
 6969SOL     OW27607   4.078   2.998   5.653 -0.0171 -0.1558  0.1308
 6969SOL    HW227608   3.996   3.034   5.685 -0.3169 -1.9833  1.6342
 6969SOL    HW327609   4.063   2.903   5.653  1.8273 -0.4762 -0.3355
 6969SOL    MW427610   4.065   2.990   5.657 -0.2012  0.5826 -0.4016
 6970SOL     OW27611   2.410   3.571   2.835  0.2741  0.1577  0.6060
 6970SOL    HW227612   2.491   3.616   2.809  0.9943 -0.8628  1.0337
 6970SOL    HW327613   2.379   3.528   2.756  0.6562 -0.2056  0.6511
 6970SOL    MW427614   2.416   3.572   2.821 -0.4211  0.0714  0.8761
 6971SOL     OW27615   0.644   0.986   2.200  0.1780 -0.0889  0.2464
 6971SOL    HW227616   0.630   1.007   2.292 -1.7379  1.9769 -0.3988
 6971SOL    HW327617   0.651   0.891   2.197 -2.1755 -0.4235  2.2996
 6971SOL    MW427618   0.643   0.977   2.211  0.1784  0.2176  0.3292
 6972SOL     OW27619   4.795   0.058   5.473 -1.1455 -0.5786 -0.4907
 6972SOL    HW227620   4.725   0.121   5.488 -0.5605  0.2462 -1.1293
 6972SOL    HW327621   4.873   0.112   5.457 -0.7422 -1.4436 -1.5670
 6972SOL    MW427622   4.796   0.074   5.473 -0.0108 -0.0262 -0.3831
 6973SOL     OW27623   4.232   4.469   4.767  0.1222  0.0364 -0.1958
 6973SOL    HW227624   4.266   4.483   4.855  0.9097 -0.2704 -0.4405
 6973SOL    HW327625   4.203   4.378   4.766 -0.0126  0.0791 -0.2126
 6973SOL    MW427626   4.233   4.459   4.778  0.4587 -0.1549  0.4985
 6974SOL     OW27627   3.636   5.797   1.469 -0.4679  0.4825  0.1844
 6974SOL    HW227628   3.649   5.752   1.386  0.9494  1.3009 -0.0798
 6974SOL    HW327629   3.607   5.729   1.530 -0.5975 -0.3122 -0.7486
 6974SOL    MW427630   3.634   5.782   1.466 -0.0384 -0.0132  0.4500
 6975SOL     OW27631   0.830   6.080   1.247 -0.1012 -0.1485  0.1289
 6975SOL    HW227632   0.802   6.001   1.202  0.3523 -0.9250  1.1598
 6975SOL    HW327633   0.753   6.137   1.247  0.0019  0.0439 -1.9321
 6975SOL    MW427634   0.816   6.077   1.241 -0.6251  0.0268  0.4685
 6976SOL     OW27635   4.067   2.594   4.929 -0.1713 -0.0253  0.1669
 6976SOL    HW227636   4.073   2.525   4.995 -0.3146 -0.6386 -0.4474
 6976SOL    HW327637   4.158   2.615   4.908 -0.1272  0.0057  0.3835
 6976SOL    MW427638   4.080   2.587   4.935  0.2954 -0.2359  0.0203
 6977SOL     OW27639   3.225   6.115   5.443  0.6101 -0.4817  0.4379
 6977SOL    HW227640   3.217   6.039   5.386  0.5911  0.0358 -0.2603
 6977SOL    HW327641   3.290   6.171   5.400 -0.1427  0.3757  0.3968
 6977SOL    MW427642   3.233   6.113   5.430  0.2744  0.4081 -0.4584
 6978SOL     OW27643   0.551   6.360   1.452  0.7632 -0.3539  0.3256
 6978SOL    HW227644   0.502   6.441   1.436  1.2885 -0.2414 -0.7935
 6978SOL    HW327645   0.484   6.291   1.447  0.1210  0.0482  2.3294
 6978SOL    MW427646   0.535   6.361   1.449  0.6299  0.0355 -0.0896
 6979SOL     OW27647   5.359   0.461   0.023 -0.4820 -0.4558 -0.2705
 6979SOL    HW227648   5.342   0.368   0.034  0.2901 -0.5888 -0.1318
 6979SOL    HW327649   5.403   0.487   0.104 -0.0489 -0.1348 -0.6081
 6979SOL    MW427650   5.363   0.452   0.035 -0.2330  0.8463  0.1547
 6980SOL     OW27651   0.503   1.401   3.954  0.6726  0.1931 -0.8285
 6980SOL    HW227652   0.510   1.486   3.911  0.7255  1.2767  1.1873
 6980SOL    HW327653   0.542   1.415   4.041  2.8461 -2.4957 -1.2073
 6980SOL    MW427654   0.509   1.414   3.960 -0.2825  0.8761  0.7449
 6981SOL     OW27655   1.324   5.671   1.918 -0.0938  0.0580  0.3905
 6981SOL    HW227656   1.276   5.603   1.964 -0.6010  0.2437  0.1369
 6981SOL    HW327657   1.284   5.675   1.831  1.7582 -1.2603 -0.5896
 6981SOL    MW427658   1.313   5.662   1.913  0.5127 -0.3631  0.2323
 6982SOL     OW27659   4.937   3.012   3.736  0.3117  0.3128  0.0649
 6982SOL    HW227660   5.017   3.064   3.729  0.3776  0.1526 -0.3718
 6982SOL    HW327661   4.908   3.026   3.826  0.9403  0.2122  0.2926
 6982SOL    MW427662   4.944   3.020   3.747  0.5795 -0.1779 -0.1375
 6983SOL     OW27663   2.107   4.184   4.863  0.0573  0.0013  0.1019
 6983SOL    HW227664   2.192   4.195   4.821 -0.0456 -2.7718 -1.0148
 6983SOL    HW327665   2.044   4.208   4.795 -0.0531 -1.7099 -0.4558
 6983SOL    MW427666   2.110   4.189   4.848  0.0433  0.1583 -0.4837
 6984SOL     OW27667   5.040   3.278   3.969  0.8434  0.3445 -0.1634
 6984SOL    HW227668   4.994   3.196   3.986  0.2147  0.5933 -0.6433
 6984SOL    HW327669   5.130   3.252   3.950  0.7284 -0.2054  0.0555
 6984SOL    MW427670   5.046   3.264   3.969  0.7741 -0.4047 -0.0839
 6985SOL     OW27671   0.811   3.608   6.333  0.3792  0.5926 -0.2547
 6985SOL    HW227672   0.753   3.680   6.358  1.5633  0.9123  1.7027
 6985SOL    HW327673   0.897   3.633   6.366  1.2116 -0.8728 -1.2059
 6985SOL    MW427674   0.814   3.621   6.341 -0.1022  0.1229  0.2808
 6986SOL     OW27675   0.771   4.362   2.611 -0.9252  0.5198 -0.3667
 6986SOL    HW227676   0.733   4.439   2.654  2.0524  0.8081  2.1399
 6986SOL    HW327677   0.826   4.398   2.541 -0.9073  0.5394 -0.3426
 6986SOL    MW427678   0.773   4.377   2.608 -0.2243 -0.5252 -0.3821
 6987SOL     OW27679   3.725   6.344   4.024  0.0918 -0.0163 -0.0780
 6987SOL    HW227680   3.659   6.276   4.038 -0.6372  0.3183 -1.6575
 6987SOL    HW327681   3.676   6.417   3.986  1.0938  0.8818  0.3079
 6987SOL    MW427682   3.710   6.345   4.021 -0.2044 -0.2543 -0.3080
 6988SOL     OW27683   0.672   4.270   1.474 -0.0109  0.4517  0.5990
 6988SOL    HW227684   0.694   4.288   1.565  2.5637  0.2571  0.0897
 6988SOL    HW327685   0.607   4.200   1.478 -0.7984  1.2256  2.2680
 6988SOL    MW427686   0.666   4.263   1.486  0.6508 -0.0407 -0.3508
 6989SOL     OW27687   4.959   5.899   0.359 -0.5432  0.3291 -0.5503
 6989SOL    HW227688   5.036   5.952   0.340 -0.3974  0.2100 -0.2811
 6989SOL    HW327689   4.895   5.962   0.394 -0.2310  0.2603  0.1543
 6989SOL    MW427690   4.961   5.915   0.361 -0.4008 -0.5583  0.2121
 6990SOL     OW27691   5.386   0.809   2.657  0.9005  0.5056  0.3069
 6990SOL    HW227692   5.403   0.836   2.567  2.0861 -1.1892 -0.0294
 6990SOL    HW327693   5.401   0.714   2.657  0.2099  0.3559  2.1340
 6990SOL    MW427694   5.390   0.800   2.645 -0.0822  0.1159  0.6178
 6991SOL     OW27695   1.380   0.759   4.692  0.3960 -0.2550 -0.1440
 6991SOL    HW227696   1.457   0.787   4.741 -0.3487  0.4938  0.6429
 6991SOL    HW327697   1.385   0.663   4.693  0.8163 -0.2392  0.7549
 6991SOL    MW427698   1.391   0.750   4.699  0.0011 -0.1389  0.5151
 6992SOL     OW27699   2.754   5.623   0.150 -0.1703 -0.4036 -0.3885
 6992SOL    HW227700   2.846   5.632   0.125 -0.0011 -3.3433 -1.2193
 6992SOL    HW327701   2.710   5.697   0.107  1.8022  1.2848  0.3360
 6992SOL    MW427702   2.760   5.634   0.141 -0.2684 -0.0072  0.0478
 6993SOL     OW27703   0.843   1.575   6.311 -0.7372 -0.2761 -0.7928
 6993SOL    HW227704   0.789   1.514   6.361 -0.9272 -0.5464 -1.3223
 6993SOL    HW327705   0.889   1.626   6.378 -1.0041 -0.6141 -0.3426
 6993SOL    MW427706   0.842   1.574   6.326 -0.0939 -0.4167  0.4399
 6994SOL     OW27707   2.218   0.576   3.596  0.4800  0.6359 -0.1310
 6994SOL    HW227708   2.258   0.515   3.534  0.2444 -0.4334  0.7487
 6994SOL    HW327709   2.175   0.642   3.540 -0.3149 -0.6693 -1.1233
 6994SOL    MW427710   2.218   0.577   3.580 -0.1004  0.1318 -0.3412
 6995SOL     OW27711   3.889   4.052   4.722 -0.7187  0.2312  0.0063
 6995SOL    HW227712   3.800   4.058   4.688 -0.9226  0.0853  0.5001
 6995SOL    HW327713   3.930   3.981   4.673 -1.2873 -0.5739  0.6645
 6995SOL    MW427714   3.883   4.044   4.711 -0.0540  0.0404  0.7559
 6996SOL     OW27715   0.589   1.321   5.422 -0.1710  0.1816 -0.1119
 6996SOL    HW227716   0.640   1.249   5.385 -0.3237  0.9950 -2.0277
 6996SOL    HW327717   0.523   1.278   5.476  1.1577 -0.9862  0.6645
 6996SOL    MW427718   0.587   1.306   5.424  0.5900  0.4407  0.5702
 6997SOL     OW27719   5.462   0.337   2.799  0.0630 -0.0414  0.5235
 6997SOL    HW227720   5.542   0.301   2.835  0.0546 -1.3282 -0.6695
 6997SOL    HW327721   5.393   0.307   2.858  0.2193 -0.8584  0.3069
 6997SOL    MW427722   5.463   0.329   2.812 -0.0973 -0.3286 -0.0310
 6998SOL     OW27723   3.830   0.093   3.587  0.4724 -0.4094  0.0530
 6998SOL    HW227724   3.837   0.048   3.503 -0.8479  0.4407 -0.5433
 6998SOL    HW327725   3.828   0.023   3.652  0.2069 -1.1371 -0.7220
 6998SOL    MW427726   3.831   0.078   3.585 -0.2750  0.0324 -0.4847
 6999SOL     OW27727   6.082   1.193   1.447  0.1870 -0.0955  0.3240
 6999SOL    HW227728   6.017   1.164   1.510  0.9755 -0.6758  0.8887
 6999SOL    HW327729   6.045   1.274   1.411  0.2809  1.0018  2.4847
 6999SOL    MW427730   6.069   1.200   1.451 -0.4290 -0.1536  0.0245
 7000SOL     OW27731   2.384   3.789   4.721  0.1511 -0.3853 -0.2343
 7000SOL    HW227732   2.470   3.766   4.686  1.7516  2.0739  1.7280
 7000SOL    HW327733   2.358   3.867   4.671  0.2464  0.3009  0.7414
 7000SOL    MW427734   2.392   3.797   4.710 -0.4493  0.5249  0.5964
 7001SOL     OW27735   2.460   5.862   5.393  0.3747  0.5264 -0.1727
 7001SOL    HW227736   2.433   5.787   5.340 -1.4134  1.4519 -0.6515
 7001SOL    HW327737   2.532   5.901   5.343 -1.0113  1.1476 -1.7995
 7001SOL    MW427738   2.466   5.858   5.379 -0.5710  0.0614  0.3147
 7002SOL     OW27739   0.698   2.312   0.361  0.0512  0.4332 -0.4735
 7002SOL    HW227740   0.709   2.392   0.309 -1.4467  0.5031 -0.7496
 7002SOL    HW327741   0.636   2.338   0.430  1.4480  0.1473  0.9293
 7002SOL    MW427742   0.691   2.326   0.363 -0.0063  0.0884 -0.0174
 7003SOL     OW27743   1.091   4.294   5.191  0.4162  0.6566  0.6736
 7003SOL    HW227744   1.091   4.258   5.102  3.7013  0.4930  0.6294
 7003SOL    HW327745   1.033   4.236   5.240  1.1800 -1.3309 -0.6461
 7003SOL    MW427746   1.083   4.282   5.186  0.2910 -0.5132  0.1675
 7004SOL     OW27747   3.253   3.843   4.652 -0.2285 -0.0229  0.0073
 7004SOL    HW227748   3.200   3.888   4.718 -0.9855 -2.6087  1.2601
 7004SOL    HW327749   3.192   3.783   4.609  0.9429 -0.5891 -0.9138
 7004SOL    MW427750   3.238   3.841   4.655 -0.2857  0.0165  0.2283
 7005SOL     OW27751   0.208   5.264   5.042 -0.0813  0.0927 -0.4218
 7005SOL    HW227752   0.275   5.204   5.010 -0.5091 -0.4436 -0.3428
 7005SOL    HW327753   0.144   5.269   4.970 -0.5383 -0.3282 -0.0552
 7005SOL    MW427754   0.208   5.256   5.028  0.4585  0.1040  0.4457
 7006SOL     OW27755   1.661   3.143   0.824  0.2656 -0.1215 -0.2987
 7006SOL    HW227756   1.627   3.160   0.912 -0.4953 -1.2544 -0.3510
 7006SOL    HW327757   1.668   3.048   0.819  0.6527 -0.0513 -1.3386
 7006SOL    MW427758   1.658   3.133   0.835 -0.3008  0.0430  0.1676
 7007SOL     OW27759   5.852   2.509   2.583 -0.0369 -0.1258  0.1694
 7007SOL    HW227760   5.763   2.489   2.554 -0.4510  1.3844  0.3420
 7007SOL    HW327761   5.850   2.495   2.677  0.5534 -2.2788 -0.0768
 7007SOL    MW427762   5.840   2.504   2.591  0.7164 -0.2480 -0.1607
 7008SOL     OW27763   1.796   1.230   2.638 -0.2421  0.7132  0.0629
 7008SOL    HW227764   1.743   1.201   2.564  0.7278 -1.1654  0.0518
 7008SOL    HW327765   1.884   1.240   2.603  0.0235  0.8115  0.7409
 7008SOL    MW427766   1.800   1.228   2.624 -0.0309 -0.5586 -0.2571
 7009SOL     OW27767   0.781   5.440   1.511  0.5597  0.2532  0.0082
 7009SOL    HW227768   0.734   5.518   1.481  0.1717  0.0807  0.1501
 7009SOL    HW327769   0.787   5.451   1.606 -0.7807 -0.5628  0.2146
 7009SOL    MW427770   0.775   5.452   1.520  0.0615  0.0145 -0.4948
 7010SOL     OW27771   4.476   3.024   2.893 -0.7106 -0.2829  0.5415
 7010SOL    HW227772   4.446   2.933   2.888 -0.3887 -0.3120 -2.3355
 7010SOL    HW327773   4.567   3.021   2.865 -0.9868  1.0142 -0.6319
 7010SOL    MW427774   4.484   3.012   2.889  1.0779  0.2293 -0.2388
 7011SOL     OW27775   5.857   2.170   5.302  0.2984 -0.2902  0.0810
 7011SOL    HW227776   5.804   2.247   5.319 -0.1226 -0.3844 -0.7513
 7011SOL    HW327777   5.794   2.098   5.295  0.3226 -0.1587 -2.4846
 7011SOL    MW427778   5.842   2.171   5.304  0.1846  0.5416 -0.1952
 7012SOL     OW27779   4.852   3.910   0.717 -0.3573  0.8210 -0.8828
 7012SOL    HW227780   4.834   3.857   0.640 -0.3425  1.0141 -1.0221
 7012SOL    HW327781   4.787   3.883   0.781  1.7039 -1.7993  0.2693
 7012SOL    MW427782   4.841   3.900   0.715 -0.0304  0.3267 -0.3024
 7013SOL     OW27783   5.877   4.329   4.494 -0.1393  0.1238  0.4417
 7013SOL    HW227784   5.907   4.275   4.421  1.9717  2.6256 -0.6888
 7013SOL    HW327785   5.800   4.375   4.461  0.0829  0.3337  0.2143
 7013SOL    MW427786   5.871   4.328   4.480 -0.0164 -0.4472 -0.6163
 7014SOL     OW27787   3.586   3.167   0.954 -0.5338 -0.0408  0.2421
 7014SOL    HW227788   3.621   3.254   0.973  1.8289 -0.0149 -3.2383
 7014SOL    HW327789   3.632   3.109   1.014  0.5747  0.7279  0.1548
 7014SOL    MW427790   3.596   3.171   0.964 -0.4436  0.3601 -0.0923
 7015SOL     OW27791   5.116   5.497   0.389  0.7327  0.0877 -0.2197
 7015SOL    HW227792   5.112   5.578   0.440  0.8340  0.0643 -0.1730
 7015SOL    HW327793   5.196   5.454   0.420 -0.1977 -0.8501  1.0037
 7015SOL    MW427794   5.126   5.502   0.400  0.4849  0.2773  0.5539
 7016SOL     OW27795   4.677   4.728   2.618  0.2940 -0.3939 -0.0533
 7016SOL    HW227796   4.643   4.805   2.663  0.6769 -1.2293  1.7678
 7016SOL    HW327797   4.767   4.750   2.595  0.4159 -0.3099  0.5024
 7016SOL    MW427798   4.684   4.741   2.621 -0.6016  0.7379 -0.6620
 7017SOL     OW27799   5.237   6.323   0.014 -0.1838  0.3582  0.6459
 7017SOL    HW227800   5.151   6.292  -0.016  0.5489 -1.6144  0.4689
 7017SOL    HW327801   5.226   6.418   0.021 -1.9186  0.3395 -0.8883
 7017SOL    MW427802   5.224   6.331   0.011 -0.1945  0.2241  0.0525
 7018SOL     OW27803   0.251   3.584   1.344 -0.4297 -0.1994 -1.4620
 7018SOL    HW227804   0.272   3.651   1.278 -1.9421  1.6068 -0.2111
 7018SOL    HW327805   0.156   3.572   1.337 -0.6758  0.2227  0.4957
 7018SOL    MW427806   0.241   3.592   1.334 -0.3838 -0.2038  0.3982
 7019SOL     OW27807   5.229   5.886   2.141  0.4603 -0.5749  0.0991
 7019SOL    HW227808   5.323   5.903   2.134  0.1578  0.9140 -0.7655
 7019SOL    HW327809   5.202   5.868   2.051 -0.1688 -0.4972  0.2725
 7019SOL    MW427810   5.238   5.886   2.128 -0.3802  0.4577  0.0569
 7020SOL     OW27811   5.792   5.533   3.868 -0.2449  0.3122 -0.6248
 7020SOL    HW227812   5.863   5.528   3.804 -0.2869 -0.1175 -0.6433
 7020SOL    HW327813   5.798   5.621   3.904  0.3584  0.2533 -0.5644
 7020SOL    MW427814   5.802   5.544   3.864  0.5379  0.6642  0.2377
 7021SOL     OW27815   1.618   5.707   3.264 -0.4331 -0.1133 -0.2146
 7021SOL    HW227816   1.604   5.613   3.259  3.1237 -0.7326 -1.4118
 7021SOL    HW327817   1.609   5.738   3.174 -3.3008  1.0983  0.3983
 7021SOL    MW427818   1.615   5.699   3.251 -0.2007 -0.0097 -0.2921
 7022SOL     OW27819   3.420   1.293   3.993  0.3198  0.5822 -0.5853
 7022SOL    HW227820   3.423   1.200   3.968 -0.1471  1.1561 -3.1005
 7022SOL    HW327821   3.501   1.308   4.042  1.0148 -0.8825 -1.2230
 7022SOL    MW427822   3.431   1.282   3.996  0.1148 -0.0767  0.0165
 7023SOL     OW27823   6.226   2.995   0.689  0.1243 -0.8037  0.2235
 7023SOL    HW227824   6.246   3.059   0.621 -1.5377 -0.3458  0.1124
 7023SOL    HW327825   6.242   2.910   0.648  0.7063 -0.4940 -0.1951
 7023SOL    MW427826   6.231   2.992   0.675 -0.2587  0.3909  0.5766
 7024SOL     OW27827   4.405   4.334   2.313 -0.3375 -0.4401  0.0757
 7024SOL    HW227828   4.344   4.299   2.249 -0.9154  0.5863  0.0440
 7024SOL    HW327829   4.404   4.429   2.298 -4.5220  0.6939  4.9035
 7024SOL    MW427830   4.397   4.342   2.303  0.2308  0.0324 -0.4152
 7025SOL     OW27831   1.745   0.722   2.357 -0.1084  0.1244 -0.6418
 7025SOL    HW227832   1.840   0.723   2.366 -0.1930  2.7632  0.8545
 7025SOL    HW327833   1.720   0.630   2.371  2.0652 -0.3168  0.6468
 7025SOL    MW427834   1.754   0.710   2.360  0.2944 -0.2743 -0.8779
 7026SOL     OW27835   1.056   3.521   2.493  0.0111 -0.2711  0.4777
 7026SOL    HW227836   1.005   3.518   2.412  0.1300  0.1920  0.3854
 7026SOL    HW327837   1.037   3.607   2.531  1.2182  0.1770  0.1150
 7026SOL    MW427838   1.047   3.532   2.487  0.1020 -0.0849  0.1115
 7027SOL     OW27839   4.928   2.983   5.679 -0.4305  0.4343 -0.9775
 7027SOL    HW227840   5.020   2.954   5.684 -0.0918  1.4375 -1.1500
 7027SOL    HW327841   4.886   2.918   5.622 -0.1413 -0.7783  0.1255
 7027SOL    MW427842   4.935   2.970   5.672 -0.4048  0.2253 -0.0839
 7028SOL     OW27843   1.522   4.154   5.845  0.4978  0.4847 -0.1153
 7028SOL    HW227844   1.548   4.245   5.829  2.4113 -0.2840 -1.6837
 7028SOL    HW327845   1.491   4.123   5.760  0.8419 -0.6378  0.1575
 7028SOL    MW427846   1.521   4.162   5.832 -0.4265  0.2960  0.8800
 7029SOL     OW27847   2.557   1.920   4.417 -0.4584 -0.6546  0.0167
 7029SOL    HW227848   2.534   1.983   4.484  0.1761 -0.4344  0.0367
 7029SOL    HW327849   2.579   1.973   4.340 -1.2554 -0.9056 -0.3931
 7029SOL    MW427850   2.557   1.935   4.415 -0.4961 -0.2300 -0.1695
 7030SOL     OW27851   5.227   6.125   2.659 -0.0720  0.3757  0.1044
 7030SOL    HW227852   5.303   6.179   2.637 -0.6098  0.6791 -1.0790
 7030SOL    HW327853   5.227   6.121   2.755  0.6221  1.5530  0.1707
 7030SOL    MW427854   5.237   6.132   2.669 -0.1985 -0.8279 -0.3833
 7031SOL     OW27855   2.675   1.448   3.236 -0.2760 -0.2020 -0.1871
 7031SOL    HW227856   2.608   1.384   3.212  0.1035  0.1094 -2.3156
 7031SOL    HW327857   2.758   1.404   3.219  0.1027 -0.4547  2.0730
 7031SOL    MW427858   2.677   1.434   3.230 -0.5836 -0.1483  0.4226
 7032SOL     OW27859   3.619   0.497   4.530  0.5968 -0.6442  0.0255
 7032SOL    HW227860   3.599   0.481   4.622  3.1874 -0.3220  0.7347
 7032SOL    HW327861   3.714   0.488   4.524  1.0327  3.0746 -1.8297
 7032SOL    MW427862   3.629   0.494   4.541  0.3530  0.1787  0.6359
 7033SOL     OW27863   0.289   5.104   2.079 -0.2090 -0.3731 -0.5505
 7033SOL    HW227864   0.302   5.010   2.088 -3.0035 -0.8823 -1.0297
 7033SOL    HW327865   0.329   5.142   2.157  0.6541 -1.9677 -0.1835
 7033SOL    MW427866   0.296   5.097   2.091  0.0851 -0.0921  0.4242
 7034SOL     OW27867   6.013   4.908   4.670 -0.1213  0.7188 -0.3797
 7034SOL    HW227868   5.925   4.943   4.683  0.3044  0.8189  3.2209
 7034SOL    HW327869   5.999   4.815   4.654 -0.9440  0.3790  1.8622
 7034SOL    MW427870   6.000   4.901   4.670 -0.2009 -0.0833 -0.3526
 7035SOL     OW27871   2.627   4.204   3.177  0.4105 -0.1501  0.0507
 7035SOL    HW227872   2.671   4.289   3.178 -2.5011  1.5783 -2.1085
 7035SOL    HW327873   2.668   4.156   3.105  0.9539  0.1014  0.1925
 7035SOL    MW427874   2.638   4.209   3.168 -0.2473 -0.0831  0.1588
 7036SOL     OW27875   2.141   2.649   4.934  0.5722 -0.3266 -0.2934
 7036SOL    HW227876   2.048   2.640   4.911  0.0911 -0.9993  1.6664
 7036SOL    HW327877   2.175   2.560   4.933  0.8419 -0.2339  0.2922
 7036SOL    MW427878   2.133   2.636   4.931 -0.3763 -0.2977 -0.1735
 7037SOL     OW27879   2.608   3.216   2.242 -0.4088 -0.3279 -0.4324
 7037SOL    HW227880   2.661   3.295   2.256 -1.8858  0.5586  0.3693
 7037SOL    HW327881   2.532   3.247   2.193 -1.5745 -1.0062  0.8892
 7037SOL    MW427882   2.605   3.231   2.238 -0.5983  0.2605 -0.0230
 7038SOL     OW27883   1.873   2.444   6.015 -0.3721 -0.1662 -0.1591
 7038SOL    HW227884   1.957   2.413   6.051  0.5674 -0.1088 -2.1914
 7038SOL    HW327885   1.895   2.525   5.970 -2.1847  1.7277  2.0849
 7038SOL    MW427886   1.887   2.450   6.014  0.4323 -0.1605  1.0552
 7039SOL     OW27887   2.659   0.585   0.330 -0.2513  0.0477  0.4133
 7039SOL    HW227888   2.692   0.601   0.241  0.2902 -0.3586  0.5363
 7039SOL    HW327889   2.729   0.537   0.373 -0.6849 -0.1310  0.9309
 7039SOL    MW427890   2.672   0.581   0.324 -0.4581  0.0288  0.3544
 7040SOL     OW27891   4.612   4.803   0.394  0.1023 -0.2614 -0.0686
 7040SOL    HW227892   4.567   4.723   0.367 -0.9975  0.7066 -1.2149
 7040SOL    HW327893   4.705   4.783   0.386 -0.1691 -1.1735 -1.0985
 7040SOL    MW427894   4.618   4.790   0.390  0.2196  0.6724  0.1057
 7041SOL     OW27895   0.135   1.269   0.011  0.5626 -0.4905  0.1954
 7041SOL    HW227896   0.205   1.204   0.012 -0.3441 -1.4798 -0.0122
 7041SOL    HW327897   0.101   1.266  -0.079  1.6061  1.4847 -0.3276
 7041SOL    MW427898   0.140   1.260  -0.001  0.9824 -0.1844  0.6056
 7042SOL     OW27899   6.213   4.764   5.781  0.7386 -0.2425  0.1669
 7042SOL    HW227900   6.127   4.725   5.762  0.0085  1.2567  0.2269
 7042SOL    HW327901   6.193   4.843   5.831  2.1914 -0.0761  0.5223
 7042SOL    MW427902   6.199   4.769   5.785 -0.1762 -0.1169 -0.7855
 7043SOL     OW27903   1.919   5.138   0.397 -0.1168  0.1796 -0.1440
 7043SOL    HW227904   1.935   5.069   0.332 -0.8367  0.0010 -0.1420
 7043SOL    HW327905   1.922   5.219   0.347 -1.9708 -0.0332 -0.6821
 7043SOL    MW427906   1.921   5.140   0.382  0.0862  0.2476 -0.0442
 7044SOL     OW27907   3.528   5.632   1.659 -0.4518 -0.1886  0.4378
 7044SOL    HW227908   3.490   5.667   1.739 -1.4226 -0.7213  0.2260
 7044SOL    HW327909   3.453   5.596   1.611  0.1457 -0.0788 -0.6002
 7044SOL    MW427910   3.513   5.632   1.663  0.0127 -0.0847 -0.2755
 7045SOL     OW27911   4.308   4.410   5.955 -0.4629 -0.0696  0.6700
 7045SOL    HW227912   4.278   4.440   6.041 -0.6885 -1.5343  1.1228
 7045SOL    HW327913   4.248   4.452   5.893 -0.0040  1.3881  1.1552
 7045SOL    MW427914   4.296   4.420   5.958  0.0953 -0.2166 -0.5965
 7046SOL     OW27915   6.116   4.743   5.294 -0.4307 -0.1932 -0.1407
 7046SOL    HW227916   6.097   4.832   5.323 -0.6881  0.2453 -1.5804
 7046SOL    HW327917   6.201   4.722   5.333  0.1540  1.1024 -0.6853
 7046SOL    MW427918   6.125   4.752   5.303 -0.5243  0.5505  0.2111
 7047SOL     OW27919   3.579   5.701   3.373 -0.3152 -0.0237  1.0392
 7047SOL    HW227920   3.555   5.611   3.396  0.1860 -0.4995 -0.2177
 7047SOL    HW327921   3.496   5.749   3.374 -0.6245 -0.5607  1.4423
 7047SOL    MW427922   3.565   5.695   3.376  0.1878  0.2048  0.4468
 7048SOL     OW27923   1.245   5.602   2.720 -0.9128 -0.7962 -0.6084
 7048SOL    HW227924   1.321   5.612   2.777 -0.3459 -0.8167 -1.3400
 7048SOL    HW327925   1.176   5.652   2.764 -0.4870 -0.7863  0.0744
 7048SOL    MW427926   1.246   5.610   2.733 -0.3722  0.5400  0.6468
 7049SOL     OW27927   3.521   6.160   2.405  0.2024 -0.1850  0.2656
 7049SOL    HW227928   3.448   6.104   2.431 -0.3491  0.7853  0.8856
 7049SOL    HW327929   3.493   6.249   2.429  1.1532  0.3313 -0.4587
 7049SOL    MW427930   3.508   6.165   2.412  0.0466  0.6228 -0.3170
 7050SOL     OW27931   0.824   5.806   6.317  0.2423  0.0981 -0.3264
 7050SOL    HW227932   0.879   5.807   6.395  0.8796  2.5076 -0.7271
 7050SOL    HW327933   0.735   5.816   6.350  0.3870 -0.1745  0.1574
 7050SOL    MW427934   0.819   5.808   6.331 -0.1994 -0.4618  0.0062
 7051SOL     OW27935   5.612   1.975   5.373 -0.1889  0.0728  0.7444
 7051SOL    HW227936   5.602   1.899   5.316 -0.2386 -0.1948  1.1113
 7051SOL    HW327937   5.523   1.996   5.400 -0.0983 -0.2442  1.3027
 7051SOL    MW427938   5.599   1.968   5.369 -0.0711  0.1975  0.1318
 7052SOL     OW27939   1.747   5.065   4.552 -0.1738  0.7594  0.3712
 7052SOL    HW227940   1.836   5.080   4.520 -0.9683 -0.1146 -2.5277
 7052SOL    HW327941   1.723   5.148   4.593  2.2210  0.7375  2.0779
 7052SOL    MW427942   1.756   5.078   4.554  0.1956  0.2997 -0.2039
 7053SOL     OW27943   3.554   0.531   6.049 -0.1208 -0.0577 -0.2650
 7053SOL    HW227944   3.541   0.486   5.966 -0.1116 -0.3018 -0.1350
 7053SOL    HW327945   3.644   0.509   6.074  0.0080  0.3351 -0.3854
 7053SOL    MW427946   3.564   0.522   6.042  0.1590  0.0164  0.0677
 7054SOL     OW27947   0.560   4.256   5.593 -0.1250  0.5526  0.3437
 7054SOL    HW227948   0.475   4.253   5.549 -0.8976 -0.3570  1.8204
 7054SOL    HW327949   0.538   4.265   5.685  1.3395 -0.8233  0.8655
 7054SOL    MW427950   0.546   4.257   5.599 -0.4105 -0.4270  0.0001
 7055SOL     OW27951   2.427   0.097   3.935  0.0187  0.0946 -0.0792
 7055SOL    HW227952   2.389   0.018   3.898  0.1450  0.2529 -0.5451
 7055SOL    HW327953   2.359   0.164   3.922 -0.5215 -0.1457  1.2267
 7055SOL    MW427954   2.413   0.096   3.929  0.1058  0.2030  0.1471
 7056SOL     OW27955   0.664   4.122   5.367 -0.1868  0.1743 -0.8188
 7056SOL    HW227956   0.643   4.176   5.443 -1.1530  0.5656 -1.3435
 7056SOL    HW327957   0.623   4.167   5.293 -0.7580 -1.0922 -1.3138
 7056SOL    MW427958   0.656   4.135   5.367  0.3701  0.4894 -0.2914
 7057SOL     OW27959   2.830   4.832   1.609 -0.2609  0.3015 -0.7891
 7057SOL    HW227960   2.766   4.898   1.635 -0.3931 -0.2549  0.3363
 7057SOL    HW327961   2.836   4.841   1.514  1.2319  3.3343 -0.5332
 7057SOL    MW427962   2.822   4.842   1.600 -0.4580  0.4855  0.1059
 7058SOL     OW27963   1.756   4.592   2.919 -0.0579 -0.0149 -0.4493
 7058SOL    HW227964   1.692   4.615   2.851 -0.0904  0.9000 -0.1272
 7058SOL    HW327965   1.710   4.606   3.001  0.4212  0.2615 -0.2221
 7058SOL    MW427966   1.742   4.597   2.921 -0.0217 -0.1712 -0.4179
 7059SOL     OW27967   4.783   1.203   4.305 -0.2092  0.3114 -0.1946
 7059SOL    HW227968   4.779   1.139   4.376 -3.7897  1.3552  0.7848
 7059SOL    HW327969   4.809   1.285   4.348 -0.9971  0.6406 -0.3293
 7059SOL    MW427970   4.786   1.205   4.320  0.0466 -0.1882  0.0842
 7060SOL     OW27971   2.651   3.038   0.446 -0.0600 -0.5024 -0.2778
 7060SOL    HW227972   2.720   3.090   0.407 -2.0479  1.1922 -1.7952
 7060SOL    HW327973   2.648   2.957   0.395 -1.1926  0.7701 -2.3602
 7060SOL    MW427974   2.659   3.034   0.434 -0.1447 -0.3679 -0.4826
 7061SOL     OW27975   1.887   0.869   1.323  0.5602  0.3390  0.1231
 7061SOL    HW227976   1.911   0.777   1.308  0.3204  0.3697 -0.5067
 7061SOL    HW327977   1.820   0.887   1.256  0.5050  0.9301  0.3333
 7061SOL    MW427978   1.881   0.859   1.312 -0.2913 -0.4951  0.0349
 7062SOL     OW27979   2.640   3.033   3.101 -0.1196 -0.4999  0.5188
 7062SOL    HW227980   2.698   3.033   3.025 -0.4888 -1.7254  0.2190
 7062SOL    HW327981   2.659   2.951   3.146 -0.3294 -0.0633  1.4283
 7062SOL    MW427982   2.650   3.022   3.097 -0.3291  0.3645  0.0605
 7063SOL     OW27983   4.716   4.240   1.190 -0.2434  0.5119  0.6419
 7063SOL    HW227984   4.655   4.179   1.231 -1.3057  0.9947 -0.1665
 7063SOL    HW327985   4.775   4.185   1.139 -1.8137  0.1562 -0.8986
 7063SOL    MW427986   4.715   4.225   1.189 -0.0460 -0.2491 -0.1005
 7064SOL     OW27987   1.374   5.683   3.852 -0.1528 -0.0598  0.5372
 7064SOL    HW227988   1.408   5.773   3.853  1.4504 -0.6070  2.7193
 7064SOL    HW327989   1.446   5.631   3.819 -0.6905 -0.6817  0.3351
 7064SOL    MW427990   1.388   5.688   3.848 -0.5787  0.3353 -0.5936
 7065SOL     OW27991   2.705   6.257   3.762  0.0136 -0.0667 -0.2995
 7065SOL    HW227992   2.629   6.210   3.727  0.9109 -0.7675 -1.3517
 7065SOL    HW327993   2.720   6.217   3.848 -0.8355  0.1330 -0.0406
 7065SOL    MW427994   2.697   6.246   3.769 -0.4686  0.8313  0.2197
 7066SOL     OW27995   5.066   5.351   1.193  0.6303 -0.2958 -0.4560
 7066SOL    HW227996   5.124   5.334   1.118  0.5733 -0.7938 -0.3901
 7066SOL    HW327997   5.007   5.421   1.162  2.2856  1.3962  0.0258
 7066SOL    MW427998   5.066   5.358   1.179 -0.0646 -0.2690 -0.2452
 7067SOL     OW27999   1.178   2.347   4.191 -0.2836  0.0322 -0.1934
 7067SOL    HW228000   1.121   2.286   4.146 -1.5812  0.6274  0.5907
 7067SOL    HW328001   1.197   2.415   4.127 -0.4726 -0.1597 -0.4504
 7067SOL    MW428002   1.173   2.348   4.177  0.1536 -0.0117  0.1477
 7068SOL     OW28003   5.772   4.510   2.620  0.5902 -0.2667  1.0618
 7068SOL    HW228004   5.768   4.554   2.535  0.8373 -0.2935  1.0364
 7068SOL    HW328005   5.711   4.559   2.676  0.4552 -0.2279  0.8806
 7068SOL    MW428006   5.763   4.522   2.616 -0.0827  0.5924 -0.0430
 7069SOL     OW28007   5.398   0.562   0.983 -0.0475 -0.8003  0.3835
 7069SOL    HW228008   5.420   0.630   0.919 -0.1528 -0.4830  0.6790
 7069SOL    HW328009   5.462   0.574   1.053 -0.4439 -0.6156  0.7159
 7069SOL    MW428010   5.409   0.573   0.984  0.0201 -0.2469  0.4622
 7070SOL     OW28011   2.752   5.526   3.826  0.3538 -0.1445 -0.1263
 7070SOL    HW228012   2.846   5.525   3.845  0.3435 -0.8015 -0.0700
 7070SOL    HW328013   2.714   5.466   3.890 -0.3123  1.2349  0.8163
 7070SOL    MW428014   2.759   5.518   3.837  0.1316  0.7245  0.5363
 7071SOL     OW28015   3.991   5.097   1.906  0.0838  0.3140  0.1436
 7071SOL    HW228016   4.011   5.004   1.895 -0.5996  0.2002 -0.2408
 7071SOL    HW328017   4.039   5.141   1.836  0.7031  0.2978  0.5516
 7071SOL    MW428018   4.000   5.091   1.895  0.1075 -0.2140  0.3223
 7072SOL     OW28019   4.805   5.739   4.962  0.1446  0.1532  0.2829
 7072SOL    HW228020   4.766   5.708   4.880 -0.0072  1.7616 -0.3007
 7072SOL    HW328021   4.786   5.833   4.963  1.3018  0.4033  1.5227
 7072SOL    MW428022   4.797   5.748   4.951  0.1016  0.0429 -0.0188
 7073SOL     OW28023   5.645   6.192   5.689 -0.4107  0.1961  0.1531
 7073SOL    HW228024   5.617   6.116   5.639  2.9667 -1.6056  0.6726
 7073SOL    HW328025   5.638   6.266   5.628  1.7161 -1.5775 -2.4529
 7073SOL    MW428026   5.640   6.192   5.675 -0.7740 -0.6064 -0.0891
 7074SOL     OW28027   3.605   6.379   4.373  0.6098 -0.9672  0.4829
 7074SOL    HW228028   3.514   6.394   4.346  0.6871 -0.8159  0.3021
 7074SOL    HW328029   3.599   6.358   4.466  0.3575 -1.2988  0.3934
 7074SOL    MW428030   3.592   6.378   4.382 -0.6587 -0.3941 -0.0055
 7075SOL     OW28031   4.524   3.078   3.270 -0.6382 -0.0174 -0.0659
 7075SOL    HW228032   4.499   3.140   3.200  2.2654  0.5875 -0.6751
 7075SOL    HW328033   4.560   3.133   3.339 -2.4314 -0.7175  1.5147
 7075SOL    MW428034   4.525   3.094   3.270 -0.0329 -0.8736 -0.0517
 7076SOL     OW28035   0.263   1.941   5.240  0.0768 -0.4050 -0.3456
 7076SOL    HW228036   0.203   1.963   5.169  0.9747  1.4848 -0.5757
 7076SOL    HW328037   0.262   2.017   5.298  2.6302 -0.0587 -0.6339
 7076SOL    MW428038   0.255   1.954   5.239  0.0233 -0.5129 -0.0756
 7077SOL     OW28039   3.332   5.058   0.693 -0.4743  0.7323  0.7412
 7077SOL    HW228040   3.427   5.056   0.707 -0.3767  0.8597  0.1434
 7077SOL    HW328041   3.310   4.968   0.671 -0.6437  0.5109  1.7626
 7077SOL    MW428042   3.342   5.046   0.692 -0.1509 -0.5157 -0.2923
 7078SOL     OW28043   3.351   5.905   1.896 -0.9856  0.4123 -0.4033
 7078SOL    HW228044   3.267   5.941   1.865 -1.4978 -0.1099  0.3347
 7078SOL    HW328045   3.371   5.955   1.975 -0.0434  1.2567 -1.1490
 7078SOL    MW428046   3.342   5.916   1.902 -0.3640 -0.0762 -0.3292
 7079SOL     OW28047   4.556   0.645   4.475  0.5180  0.3267 -0.5079
 7079SOL    HW228048   4.584   0.703   4.546 -2.4630 -0.2843  1.3463
 7079SOL    HW328049   4.469   0.678   4.450 -0.6652 -2.4456 -0.3463
 7079SOL    MW428050   4.548   0.657   4.481  0.3290  0.2597  0.6951
 7080SOL     OW28051   3.532   1.370   4.385 -0.5015  0.5419  0.2708
 7080SOL    HW228052   3.463   1.316   4.347  0.9226 -1.8415  0.8644
 7080SOL    HW328053   3.597   1.307   4.418  1.5009  2.6340  0.6087
 7080SOL    MW428054   3.532   1.354   4.385 -0.0433 -0.3954  0.2267
 7081SOL     OW28055   6.234   2.265   4.578  0.2629 -0.4355  0.0108
 7081SOL    HW228056   6.160   2.273   4.638  1.3726  1.8763  1.1951
 7081SOL    HW328057   6.201   2.211   4.506 -2.7499  0.9657  0.1931
 7081SOL    MW428058   6.220   2.259   4.576 -0.6081  0.2988 -0.1038
 7082SOL     OW28059   1.064   5.683   5.111  0.8335  0.1694 -0.1485
 7082SOL    HW228060   0.982   5.718   5.075  0.4761 -0.4031  0.0994
 7082SOL    HW328061   1.099   5.629   5.040  1.3279  0.9191 -0.4892
 7082SOL    MW428062   1.058   5.680   5.097 -0.1785  0.1962  0.1309
 7083SOL     OW28063   1.694   0.612   6.400 -0.1145  0.1633 -0.5750
 7083SOL    HW228064   1.706   0.706   6.407 -0.2797  0.0884  0.9809
 7083SOL    HW328065   1.748   0.575   6.470 -0.4244 -0.8752 -0.8585
 7083SOL    MW428066   1.703   0.619   6.410 -0.7371  0.6598  0.4219
 7084SOL     OW28067   0.718   1.863   4.832 -0.2092  0.8334 -0.3514
 7084SOL    HW228068   0.771   1.822   4.763  0.1290  0.4397  0.1361
 7084SOL    HW328069   0.761   1.946   4.848 -0.5889  1.1595 -0.9715
 7084SOL    MW428070   0.731   1.868   4.825  0.4886  0.0454 -0.7484
 7085SOL     OW28071   3.191   0.447   2.089 -0.8461  0.2160  0.5254
 7085SOL    HW228072   3.242   0.392   2.148  0.2430  1.7204  1.0533
 7085SOL    HW328073   3.207   0.536   2.119  0.2667  1.1227 -2.3970
 7085SOL    MW428074   3.199   0.451   2.101 -0.0485 -0.0295 -0.1449
 7086SOL     OW28075   1.341   1.301   0.977  0.1706  0.1084 -0.1917
 7086SOL    HW228076   1.424   1.255   0.967 -0.3925 -0.7265 -1.3106
 7086SOL    HW328077   1.330   1.349   0.895 -0.0233  0.9555  0.3161
 7086SOL    MW428078   1.350   1.302   0.965 -0.0883  0.3745  0.2045
 7087SOL     OW28079   3.028   0.917   0.649  0.1616 -0.5873 -0.1895
 7087SOL    HW228080   3.122   0.937   0.654  0.1899 -0.1664 -1.8282
 7087SOL    HW328081   2.995   0.933   0.737  1.4737  0.0801  0.2013
 7087SOL    MW428082   3.036   0.921   0.661 -0.6211  0.3872 -0.3411
 7088SOL     OW28083   4.420   4.268   1.979  0.0379  0.3294 -0.4872
 7088SOL    HW228084   4.417   4.172   1.973 -2.3459 -0.0057  2.8140
 7088SOL    HW328085   4.496   4.286   2.034  0.6780  0.3937 -1.3772
 7088SOL    MW428086   4.429   4.258   1.986 -0.2758 -0.6967 -0.1031
 7089SOL     OW28087   5.683   1.651   4.560  0.4044 -0.0293 -0.2695
 7089SOL    HW228088   5.712   1.601   4.484 -3.3443 -0.9851 -1.3110
 7089SOL    HW328089   5.692   1.742   4.534 -0.5821 -0.3423 -1.8226
 7089SOL    MW428090   5.688   1.656   4.547  0.4184  0.4121 -0.0209
 7090SOL     OW28091   4.224   0.999   2.340  0.0091 -0.4503 -0.3999
 7090SOL    HW228092   4.305   0.986   2.289 -0.0637 -0.0645 -0.6180
 7090SOL    HW328093   4.157   1.015   2.274 -0.3125 -1.0644 -0.2349
 7090SOL    MW428094   4.226   0.999   2.324 -0.5395  0.0582  0.3021
 7091SOL     OW28095   2.236   1.107   0.005 -0.8558 -0.2722  0.4082
 7091SOL    HW228096   2.219   1.015   0.027 -1.9794 -0.0111  0.7436
 7091SOL    HW328097   2.151   1.150   0.020 -0.0436  1.0364  1.4532
 7091SOL    MW428098   2.222   1.101   0.010  0.0586  0.0221  0.5593
 7092SOL     OW28099   2.127   6.339   5.269  0.1900  0.1781  0.1072
 7092SOL    HW228100   2.198   6.396   5.240 -1.5148  2.8543  0.7361
 7092SOL    HW328101   2.144   6.324   5.362  1.1809 -1.2564 -0.2858
 7092SOL    MW428102   2.138   6.345   5.278 -0.2624 -0.4234 -0.1071
 7093SOL     OW28103   1.112   0.700   2.104 -0.0120 -0.0140  0.1537
 7093SOL    HW228104   1.047   0.752   2.153  0.2396  0.8493 -0.4081
 7093SOL    HW328105   1.189   0.756   2.100 -0.3475  0.3927 -2.1138
 7093SOL    MW428106   1.113   0.714   2.110 -0.3962  0.4185 -0.2476
 7094SOL     OW28107   6.143   4.907   1.925  0.8958 -0.3290 -0.6765
 7094SOL    HW228108   6.136   4.931   1.833  0.0090  1.1665 -0.2589
 7094SOL    HW328109   6.082   4.833   1.936 -0.2687  0.5589 -0.9687
 7094SOL    MW428110   6.134   4.900   1.914 -0.2076  0.8010 -0.4052
 7095SOL     OW28111   5.298   4.080   2.701 -0.0117  1.0487  0.0211
 7095SOL    HW228112   5.370   4.070   2.763  0.8041 -0.4675 -1.1090
 7095SOL    HW328113   5.224   4.037   2.744  1.0312 -1.7436 -0.7424
 7095SOL    MW428114   5.297   4.073   2.715  0.3647  0.0094  0.0717
 7096SOL     OW28115   4.177   6.144   0.681 -0.1993  0.3425 -0.2037
 7096SOL    HW228116   4.112   6.166   0.747  0.6577  1.0420  0.4314
 7096SOL    HW328117   4.202   6.054   0.701 -2.4178 -0.7102 -1.7141
 7096SOL    MW428118   4.172   6.135   0.692  0.0333 -0.2301  0.0309
 7097SOL     OW28119   4.888   4.344   0.555  0.0510 -0.0641  0.0068
 7097SOL    HW228120   4.954   4.274   0.548 -1.1163 -1.1614 -0.4440
 7097SOL    HW328121   4.903   4.399   0.479  0.7364 -0.0325  0.1552
 7097SOL    MW428122   4.899   4.342   0.544  0.6852 -0.1492 -0.2705
 7098SOL     OW28123   1.237   1.082   4.075  0.4766  0.2221 -0.4191
 7098SOL    HW228124   1.266   1.082   3.983 -1.7059 -0.6690 -1.1642
 7098SOL    HW328125   1.183   1.160   4.083  1.5703  0.9253  0.4738
 7098SOL    MW428126   1.234   1.092   4.064 -0.8119  0.2118  0.1219
 7099SOL     OW28127   1.523   5.327   0.805 -0.8109 -0.1393 -0.0012
 7099SOL    HW228128   1.585   5.354   0.873 -1.8205 -0.0093  0.9007
 7099SOL    HW328129   1.559   5.246   0.771  0.5382  0.6216 -0.4250
 7099SOL    MW428130   1.536   5.320   0.810 -0.1975  0.1854 -0.3516
 7100SOL     OW28131   3.153   2.316   5.421  0.8347  0.5535  0.2066
 7100SOL    HW228132   3.201   2.305   5.504 -1.8486 -0.9448  1.7274
 7100SOL    HW328133   3.165   2.232   5.376 -0.3811  0.0884  0.6929
 7100SOL    MW428134   3.161   2.303   5.426  0.0937  0.8222 -0.2786
 7101SOL     OW28135   3.072   2.161   4.705 -0.0169 -0.1486  0.3763
 7101SOL    HW228136   3.121   2.128   4.780  1.3610 -1.2019 -0.9211
 7101SOL    HW328137   3.091   2.255   4.703  2.0752 -0.5371 -0.1279
 7101SOL    MW428138   3.081   2.169   4.715  0.7013 -0.1670 -0.5664
 7102SOL     OW28139   0.808   3.037   0.431 -0.2167  0.2494 -0.3404
 7102SOL    HW228140   0.775   3.063   0.345  0.4414  0.0031 -0.6738
 7102SOL    HW328141   0.732   3.044   0.488 -0.5384  0.9229 -0.8305
 7102SOL    MW428142   0.794   3.041   0.427  0.2035 -0.4858 -0.2809
 7103SOL     OW28143   3.645   0.438   2.199  0.6005 -0.0166 -0.2348
 7103SOL    HW228144   3.693   0.379   2.141 -0.5645 -2.1944  0.8572
 7103SOL    HW328145   3.705   0.454   2.272  1.0330  0.4121 -0.6791
 7103SOL    MW428146   3.659   0.432   2.201  0.1806 -0.8847 -0.1788
 7104SOL     OW28147   0.221   4.792   5.478  0.2650 -0.0477  1.1290
 7104SOL    HW228148   0.272   4.715   5.454  0.4870  0.8830 -1.9141
 7104SOL    HW328149   0.273   4.866   5.446 -1.4717  1.1253  0.8635
 7104SOL    MW428150   0.235   4.792   5.470  0.4642  0.1294  0.4433
 7105SOL     OW28151   4.628   4.115   2.530  0.5600 -0.5185  1.1530
 7105SOL    HW228152   4.570   4.088   2.602  0.5452  1.2865  1.8715
 7105SOL    HW328153   4.713   4.077   2.553  0.1012 -1.6543  1.0467
 7105SOL    MW428154   4.632   4.107   2.543  0.8002 -0.4783 -0.2578
 7106SOL     OW28155   1.967   3.449   4.881 -0.5362 -0.5415 -0.4226
 7106SOL    HW228156   2.053   3.450   4.840 -0.7764  1.8996 -1.0398
 7106SOL    HW328157   1.976   3.390   4.956  1.6283 -0.4233 -0.5343
 7106SOL    MW428158   1.979   3.441   4.886  0.1368  0.3112 -0.3590
 7107SOL     OW28159   5.588   2.601   5.824 -0.2935 -0.1010  0.1378
 7107SOL    HW228160   5.620   2.551   5.899  0.7608 -0.4926 -0.5531
 7107SOL    HW328161   5.565   2.687   5.861  0.8520 -0.0570  0.8002
 7107SOL    MW428162   5.589   2.606   5.839 -0.0657 -0.5537  0.3122
 7108SOL     OW28163   2.208   0.227   4.878  0.2434  0.6440  0.0671
 7108SOL    HW228164   2.274   0.276   4.828  1.1135  1.5095  1.9602
 7108SOL    HW328165   2.255   0.192   4.953 -1.3621  0.9440  1.2731
 7108SOL    MW428166   2.223   0.229   4.881  0.3862 -0.9332  0.0444
 7109SOL     OW28167   0.985   3.257   0.477  0.3194  0.6461 -0.5197
 7109SOL    HW228168   0.946   3.171   0.458 -0.6385  1.4034 -2.1519
 7109SOL    HW328169   0.915   3.305   0.522  1.3526  0.1294  1.8070
 7109SOL    MW428170   0.970   3.252   0.480  0.4063  0.1067 -0.2322
 7110SOL     OW28171   0.788   4.338   2.252 -0.6764  0.1415 -0.0715
 7110SOL    HW228172   0.867   4.341   2.306 -1.2426 -0.7482  0.8481
 7110SOL    HW328173   0.773   4.428   2.226 -0.3187  0.5780  1.1670
 7110SOL    MW428174   0.796   4.350   2.256  0.1148  0.6438 -0.3938
 7111SOL     OW28175   0.469   5.249   3.522 -0.1161  0.5617  0.0716
 7111SOL    HW228176   0.422   5.320   3.479  0.7425  0.2744 -1.3959
 7111SOL    HW328177   0.408   5.216   3.588 -1.6270  0.7785 -1.1739
 7111SOL    MW428178   0.455   5.254   3.525  0.0081 -0.6502 -0.0954
 7112SOL     OW28179   5.690   4.021   3.463 -0.1033 -0.1707  0.4583
 7112SOL    HW228180   5.692   3.976   3.379 -0.1642 -1.2391  1.0174
 7112SOL    HW328181   5.732   4.106   3.445  0.2535 -0.5411 -0.5484
 7112SOL    MW428182   5.696   4.026   3.450  0.3626 -0.4812 -0.1116
 7113SOL     OW28183   4.535   2.875   1.173 -0.0883  0.3319  0.3373
 7113SOL    HW228184   4.512   2.812   1.105 -0.5999  1.8048 -0.8989
 7113SOL    HW328185   4.557   2.955   1.126  1.3556  0.8672  1.8272
 7113SOL    MW428186   4.535   2.878   1.158 -0.1559  0.0650  0.7305
 7114SOL     OW28187   3.491   1.252   3.342 -0.5874  0.2512  0.2739
 7114SOL    HW228188   3.474   1.299   3.260  0.0963 -0.1284 -0.0912
 7114SOL    HW328189   3.417   1.275   3.399 -1.6174 -0.2815 -0.8001
 7114SOL    MW428190   3.479   1.261   3.339  0.3131  0.0185 -0.5703
 7115SOL     OW28191   4.955   2.556   4.404 -0.2909  0.4511 -0.3066
 7115SOL    HW228192   4.883   2.512   4.358  0.1229  1.8987 -2.4660
 7115SOL    HW328193   5.018   2.577   4.335  1.3814  0.8145  1.2779
 7115SOL    MW428194   4.954   2.553   4.389  0.6041  0.0365 -0.2510
 7116SOL     OW28195   0.853   0.450   5.072  0.0061 -0.2011  0.1403
 7116SOL    HW228196   0.829   0.536   5.106  1.5212 -0.3491  1.7559
 7116SOL    HW328197   0.869   0.397   5.150  2.2448 -0.9893 -0.7601
 7116SOL    MW428198   0.852   0.455   5.086  0.3945 -0.3723  0.0109
 7117SOL     OW28199   2.055   5.955   1.814  0.2814  0.4523  0.3534
 7117SOL    HW228200   2.007   6.038   1.820 -0.8509  0.0259 -1.7616
 7117SOL    HW328201   2.140   5.978   1.778 -0.0581  0.7177 -0.2993
 7117SOL    MW428202   2.060   5.969   1.810 -0.6765  0.1625 -0.2553
 7118SOL     OW28203   4.308   5.238   5.739 -0.0746 -0.4717  0.0253
 7118SOL    HW228204   4.218   5.220   5.769  0.4761 -2.7014  0.5680
 7118SOL    HW328205   4.298   5.265   5.648 -1.4444  1.8372  0.7660
 7118SOL    MW428206   4.295   5.239   5.731  0.7578 -0.1415 -0.4322
 7119SOL     OW28207   0.311   1.549   4.674 -0.3434 -0.4000 -0.0428
 7119SOL    HW228208   0.321   1.518   4.764 -1.1529 -0.7172 -0.0571
 7119SOL    HW328209   0.390   1.519   4.630 -0.0939 -0.5265  0.4782
 7119SOL    MW428210   0.323   1.541   4.680 -0.0354  0.1199 -0.0678
 7120SOL     OW28211   5.428   5.875   5.204  0.4907  0.3699 -0.3908
 7120SOL    HW228212   5.400   5.966   5.216  1.0817  0.3301  1.7907
 7120SOL    HW328213   5.412   5.834   5.290  1.6195 -1.1950 -0.8874
 7120SOL    MW428214   5.422   5.882   5.217 -0.3577  0.8346 -0.0877
 7121SOL     OW28215   4.051   5.082   4.832 -0.1068  0.2072 -0.3974
 7121SOL    HW228216   4.075   5.046   4.747  1.9892 -0.5672  0.4597
 7121SOL    HW328217   4.026   5.006   4.885  0.9800  0.3725  0.3877
 7121SOL    MW428218   4.051   5.067   4.828  0.0993  0.0416  1.0703
 7122SOL     OW28219   2.334   2.213   5.631 -0.4553  0.0339 -0.5812
 7122SOL    HW228220   2.346   2.306   5.650 -1.4361  0.5407 -2.2446
 7122SOL    HW328221   2.253   2.190   5.677 -0.4787  0.1218 -0.5784
 7122SOL    MW428222   2.325   2.222   5.639 -0.4827  0.4642 -0.3539
 7123SOL     OW28223   1.797   5.568   4.297  0.3495  0.0607  0.5587
 7123SOL    HW228224   1.736   5.619   4.351 -0.2187  0.9931 -0.9011
 7123SOL    HW328225   1.823   5.628   4.227  0.8392 -1.2039 -0.3830
 7123SOL    MW428226   1.793   5.583   4.295 -0.3122  0.3470 -0.1722
 7124SOL     OW28227   1.653   3.285   6.419  0.7761 -0.4125 -0.1417
 7124SOL    HW228228   1.682   3.245   6.501 -0.5791  1.7403  1.5082
 7124SOL    HW328229   1.726   3.341   6.393  1.1003 -0.8860 -0.2678
 7124SOL    MW428230   1.666   3.287   6.427 -0.0124  0.1973 -0.2748
 7125SOL     OW28231   4.366   4.592   3.995 -0.2225 -0.3008 -0.6867
 7125SOL    HW228232   4.382   4.500   4.016 -2.1108 -0.5389 -0.1116
 7125SOL    HW328233   4.270   4.599   3.989 -0.4454  2.3285  2.7246
 7125SOL    MW428234   4.355   4.581   3.997  0.3743 -0.1332 -0.1554
 7126SOL     OW28235   3.366   3.700   2.838 -0.2611 -0.2538  0.1360
 7126SOL    HW228236   3.442   3.719   2.783 -1.4459  0.2089 -1.4059
 7126SOL    HW328237   3.344   3.785   2.877 -0.5531 -0.1916 -0.1648
 7126SOL    MW428238   3.373   3.714   2.836  0.3898  0.1542  0.3298
 7127SOL     OW28239   1.473   1.495   1.638  0.1642 -0.4002  0.6831
 7127SOL    HW228240   1.560   1.515   1.672  2.2032 -2.0194 -3.0164
 7127SOL    HW328241   1.436   1.581   1.615  1.8241  0.2080  0.1364
 7127SOL    MW428242   1.479   1.509   1.639 -0.1366 -0.2268 -0.3244
 7128SOL     OW28243   4.856   0.284   6.091 -0.3872  0.1437  0.7939
 7128SOL    HW228244   4.783   0.245   6.139 -0.9504  0.9984  0.6379
 7128SOL    HW328245   4.822   0.303   6.004  0.3376 -0.4397  0.3631
 7128SOL    MW428246   4.842   0.281   6.086  0.5459 -0.5262  0.3353
 7129SOL     OW28247   2.392   5.800   1.702  0.6858  0.0767  0.3284
 7129SOL    HW228248   2.340   5.871   1.667  0.1747 -0.0920  0.7352
 7129SOL    HW328249   2.354   5.781   1.788  0.8803 -0.6119  0.2748
 7129SOL    MW428250   2.380   5.807   1.709 -0.1014 -0.9471 -0.4428
 7130SOL     OW28251   5.369   6.376   3.149  0.0097 -0.5211 -0.0498
 7130SOL    HW228252   5.428   6.316   3.193  0.9187  0.2542 -0.1795
 7130SOL    HW328253   5.409   6.391   3.063  0.8592  1.7226  0.6573
 7130SOL    MW428254   5.382   6.370   3.143 -0.2151  0.3143  0.2285
 7131SOL     OW28255   0.875   2.222   2.170 -1.0412 -0.4689 -0.0855
 7131SOL    HW228256   0.781   2.223   2.188 -0.8656  0.7129  0.9478
 7131SOL    HW328257   0.914   2.263   2.248  0.2743 -0.4292 -0.7435
 7131SOL    MW428258   0.867   2.228   2.183 -0.2911  0.2081  0.1776
 7132SOL     OW28259   4.866   1.537   0.290 -0.8888 -0.3801  0.1766
 7132SOL    HW228260   4.881   1.445   0.314 -0.1490 -0.3234 -0.0432
 7132SOL    HW328261   4.951   1.579   0.300 -0.9225  0.0038 -0.9241
 7132SOL    MW428262   4.879   1.530   0.294  0.1914 -0.0236 -0.3956
 7133SOL     OW28263   2.197   0.672   0.952  0.9443 -0.2544  0.4472
 7133SOL    HW228264   2.207   0.678   0.857  0.7686 -0.5046  0.4122
 7133SOL    HW328265   2.103   0.687   0.967  0.6171 -2.0759  0.4209
 7133SOL    MW428266   2.186   0.675   0.942  0.8213  0.0032 -0.3271
 7134SOL     OW28267   0.774   5.033   2.889 -0.1285  0.1513 -0.2659
 7134SOL    HW228268   0.855   5.056   2.843 -1.4968 -0.7833 -3.4168
 7134SOL    HW328269   0.739   5.117   2.918  1.7928  0.5905  1.0504
 7134SOL    MW428270   0.780   5.047   2.887  0.1050 -0.0541 -0.2310
 7135SOL     OW28271   4.206   0.924   1.272 -0.0372  0.0662 -0.2849
 7135SOL    HW228272   4.284   0.932   1.216  0.0567  1.9977  0.0623
 7135SOL    HW328273   4.138   0.892   1.212  0.6246 -0.1542 -0.9502
 7135SOL    MW428274   4.207   0.921   1.256 -0.1011  0.1320 -0.0510
 7136SOL     OW28275   0.433   2.967   1.999 -0.3090 -0.1437  0.3182
 7136SOL    HW228276   0.435   2.974   1.904 -1.9351 -0.7027  0.2072
 7136SOL    HW328277   0.444   3.057   2.030  1.4520 -0.1013 -0.3277
 7136SOL    MW428278   0.434   2.980   1.991  0.3909  0.0833 -0.7850
 7137SOL     OW28279   1.207   5.939   1.633  0.2200  0.2107 -0.2972
 7137SOL    HW228280   1.298   5.918   1.610  0.1212  0.4163 -0.8989
 7137SOL    HW328281   1.214   5.991   1.713  0.7929  2.0377 -1.4701
 7137SOL    MW428282   1.220   5.943   1.640  0.2032  0.2438 -0.4842
 7138SOL     OW28283   2.666   0.378   3.033 -0.0428 -0.3477  0.0527
 7138SOL    HW228284   2.595   0.314   3.032 -0.2947 -0.1411 -2.1834
 7138SOL    HW328285   2.702   0.374   2.944  0.3529  2.1451  0.0329
 7138SOL    MW428286   2.661   0.369   3.021  0.1428  0.5978 -0.2590
 7139SOL     OW28287   6.171   2.790   2.208  0.3356  0.3392 -0.2503
 7139SOL    HW228288   6.131   2.725   2.266  0.7995  1.4656  1.3851
 7139SOL    HW328289   6.247   2.744   2.171 -0.2504 -0.5541 -0.3842
 7139SOL    MW428290   6.176   2.775   2.211  0.1610  0.2229  0.4942
 7140SOL     OW28291   6.282   2.839   5.237  0.6589 -0.2357 -0.0163
 7140SOL    HW228292   6.325   2.904   5.293  0.7739  0.5543 -0.9813
 7140SOL    HW328293   6.241   2.891   5.168 -0.5092 -1.0992  0.0050
 7140SOL    MW428294   6.283   2.855   5.235 -0.5267  0.3964 -0.4961
 7141SOL     OW28295   5.444   6.328   3.504 -0.0378  0.3164 -0.5452
 7141SOL    HW228296   5.477   6.302   3.590 -1.0869  0.5832 -0.0391
 7141SOL    HW328297   5.457   6.251   3.449 -0.3538 -0.2558  0.1488
 7141SOL    MW428298   5.450   6.314   3.508  0.2420 -0.2332  0.2921
 7142SOL     OW28299   2.141   5.134   5.513 -0.3934  0.5017 -0.5185
 7142SOL    HW228300   2.050   5.139   5.483 -0.4132  0.4155 -0.4740
 7142SOL    HW328301   2.142   5.060   5.574 -0.3910  0.7746 -0.1846
 7142SOL    MW428302   2.129   5.125   5.517  0.8682 -0.5349 -0.2183
 7143SOL     OW28303   1.792   0.482   0.804 -0.0730  0.2506 -0.6716
 7143SOL    HW228304   1.863   0.445   0.751  1.3307 -1.6774  2.3031
 7143SOL    HW328305   1.835   0.537   0.868 -0.9302 -1.9745  2.0498
 7143SOL    MW428306   1.807   0.484   0.805  0.3878 -0.0075  0.1925
 7144SOL     OW28307   3.345   6.264   1.528  0.5822 -0.2767  0.2389
 7144SOL    HW228308   3.338   6.345   1.577  0.6132 -0.9375  1.3657
 7144SOL    HW328309   3.375   6.199   1.592  0.8517 -1.1129 -0.7023
 7144SOL    MW428310   3.348   6.266   1.543 -0.1119 -0.3830  0.5532
 7145SOL     OW28311   0.471   0.718   0.447  0.6179  0.4884  0.5820
 7145SOL    HW228312   0.541   0.728   0.382  1.0822  0.5226  1.0781
 7145SOL    HW328313   0.515   0.729   0.531  0.4052 -1.4845  0.9986
 7145SOL    MW428314   0.486   0.720   0.449 -0.1528  0.1703  0.0447
 7146SOL     OW28315   4.443   4.952   0.561  0.5106 -0.5091  0.1831
 7146SOL    HW228316   4.397   5.012   0.501 -1.4077 -0.8531  1.2162
 7146SOL    HW328317   4.493   4.894   0.503 -1.1021 -0.7002 -1.1235
 7146SOL    MW428318   4.443   4.952   0.545 -0.3523  0.2770  0.0339
 7147SOL     OW28319   2.059   4.205   2.675 -0.6127  0.4932 -0.5878
 7147SOL    HW228320   2.056   4.235   2.766 -0.2334 -2.8302  0.6390
 7147SOL    HW328321   2.140   4.244   2.640 -0.1995  0.9688  0.8150
 7147SOL    MW428322   2.070   4.214   2.682 -0.2694 -0.8715 -0.7712
 7148SOL     OW28323   2.559   3.406   0.248  0.1658 -0.5239  0.4128
 7148SOL    HW228324   2.631   3.346   0.267 -0.5974 -1.8615 -0.7638
 7148SOL    HW328325   2.480   3.357   0.270 -0.5683 -0.6989 -2.2566
 7148SOL    MW428326   2.558   3.392   0.254 -0.1601  0.1465 -0.1557
 7149SOL     OW28327   3.576   6.125   5.309  0.3427  0.1239 -0.3049
 7149SOL    HW228328   3.561   6.056   5.374  1.4529  1.8731  1.9683
 7149SOL    HW328329   3.536   6.203   5.349  0.8076  1.2084 -1.8813
 7149SOL    MW428330   3.568   6.126   5.323  0.5109 -0.1788 -0.3623
 7150SOL     OW28331   1.184   4.012   1.469  0.1683 -0.3259  0.7797
 7150SOL    HW228332   1.209   3.940   1.412  1.6421 -0.7974  1.9705
 7150SOL    HW328333   1.135   3.970   1.540  0.5372 -0.0883  1.1770
 7150SOL    MW428334   1.181   3.997   1.471 -0.0288 -0.5796  0.0677
 7151SOL     OW28335   5.601   1.274   0.763 -0.3578  0.2267 -0.0549
 7151SOL    HW228336   5.606   1.198   0.704  2.2310  0.9488 -0.9027
 7151SOL    HW328337   5.647   1.343   0.715  1.8710  0.8547  2.7410
 7151SOL    MW428338   5.608   1.273   0.749 -0.4934 -0.1710  1.1063
 7152SOL     OW28339   1.157   4.454   3.652 -0.1138 -0.0965  0.1726
 7152SOL    HW228340   1.092   4.405   3.703  1.4431 -1.0380  1.3439
 7152SOL    HW328341   1.164   4.406   3.570 -0.8087 -0.0581  0.0860
 7152SOL    MW428342   1.149   4.441   3.648 -0.3807  0.2563  0.4072
 7153SOL     OW28343   6.406   6.424   0.195  0.3856 -0.6487 -0.3217
 7153SOL    HW228344   6.414   6.369   0.117 -1.7575 -0.8178 -0.4755
 7153SOL    HW328345   6.345   6.378   0.251  1.2021 -0.0761  1.0833
 7153SOL    MW428346   6.399   6.411   0.192  0.4884 -0.5533  0.2947
 7154SOL     OW28347   6.121   0.134   1.271  0.1956  0.8078  0.0710
 7154SOL    HW228348   6.034   0.138   1.230  0.2024  1.5256  0.1139
 7154SOL    HW328349   6.104   0.143   1.364  0.3436  1.3783  0.0459
 7154SOL    MW428350   6.107   0.136   1.278  0.8547 -0.1331  0.0679
 7155SOL     OW28351   4.210   5.993   3.979  0.0440  0.2522  0.5092
 7155SOL    HW228352   4.153   6.038   3.917 -2.3836 -0.6170  1.9655
 7155SOL    HW328353   4.296   6.033   3.967 -0.2113 -0.0042 -3.5069
 7155SOL    MW428354   4.214   6.004   3.970  0.6714 -0.1568 -0.0312
 7156SOL     OW28355   4.812   2.605   3.240 -0.8297  0.3290  0.6350
 7156SOL    HW228356   4.790   2.684   3.289  0.7018  0.5211  1.0463
 7156SOL    HW328357   4.866   2.554   3.300  0.4561  0.2212 -0.5766
 7156SOL    MW428358   4.816   2.608   3.254  0.8775 -0.2586  0.1987
 7157SOL     OW28359   5.266   1.309   5.527 -0.2250 -0.1548  0.2145
 7157SOL    HW228360   5.216   1.240   5.572 -1.8370  0.2920 -0.8231
 7157SOL    HW328361   5.208   1.385   5.529  0.7886  0.6471 -0.2635
 7157SOL    MW428362   5.252   1.310   5.533 -0.0842 -0.2703 -0.1138
 7158SOL     OW28363   2.058   4.414   5.886  0.1237  0.2307  0.2588
 7158SOL    HW228364   2.101   4.498   5.869 -2.1164  0.7800 -3.6933
 7158SOL    HW328365   1.974   4.437   5.925 -0.0181 -0.2935  0.2747
 7158SOL    MW428366   2.053   4.428   5.889  0.0599  0.5520  0.1491
 7159SOL     OW28367   3.684   5.569   2.598  0.2377 -0.4771 -0.8762
 7159SOL    HW228368   3.698   5.663   2.585  3.5430 -0.6143  0.5903
 7159SOL    HW328369   3.755   5.527   2.548  0.8955 -1.9469  1.1587
 7159SOL    MW428370   3.695   5.576   2.589  0.2603 -0.4255  0.1346
 7160SOL     OW28371   1.144   0.861   4.798 -0.2650 -0.3024  0.2406
 7160SOL    HW228372   1.228   0.843   4.756 -0.4839 -0.5060 -0.1178
 7160SOL    HW328373   1.158   0.839   4.890 -0.1148 -0.9866  0.0628
 7160SOL    MW428374   1.157   0.856   4.804  0.4364 -0.3729 -0.2447
 7161SOL     OW28375   5.970   4.595   1.657  0.2408 -0.3049 -0.3222
 7161SOL    HW228376   6.001   4.575   1.568 -0.7264  1.6877 -1.1732
 7161SOL    HW328377   6.038   4.651   1.695  0.9261 -1.6212  0.4400
 7161SOL    MW428378   5.983   4.600   1.650 -0.4669  1.0660 -0.4800
 7162SOL     OW28379   0.090   0.422   3.689  0.1219  0.2019 -0.4104
 7162SOL    HW228380   0.004   0.419   3.731  0.5217 -1.8374  0.3821
 7162SOL    HW328381   0.090   0.504   3.640 -1.3696  1.3820  1.4361
 7162SOL    MW428382   0.079   0.433   3.688 -0.1291 -0.3626 -0.2847
 7163SOL     OW28383   5.711   4.867   3.397 -0.2567  0.3555  0.2086
 7163SOL    HW228384   5.617   4.884   3.404 -0.4811 -0.2758 -1.0201
 7163SOL    HW328385   5.724   4.783   3.442 -0.5582 -0.3007 -0.8724
 7163SOL    MW428386   5.701   4.858   3.404 -0.5007 -0.2721  0.0977
 7164SOL     OW28387   4.610   0.053   5.963  0.1413  0.2387 -0.1083
 7164SOL    HW228388   4.618   0.006   5.880  0.6535 -2.5122  1.3650
 7164SOL    HW328389   4.532   0.015   6.004  0.7316  0.4636  1.2697
 7164SOL    MW428390   4.601   0.042   5.957 -0.5296  0.5102 -0.4204
 7165SOL     OW28391   3.932   5.735   1.666  0.1940  0.0402 -0.9022
 7165SOL    HW228392   4.020   5.707   1.687  0.1638  0.3882 -0.2950
 7165SOL    HW328393   3.941   5.782   1.583  0.5055 -0.2932 -1.0575
 7165SOL    MW428394   3.945   5.738   1.658 -0.0488 -0.2389  0.2338
 7166SOL     OW28395   4.840   5.795   0.126  0.0553 -0.5911 -0.1385
 7166SOL    HW228396   4.904   5.843   0.074  0.7293 -0.8397  0.4382
 7166SOL    HW328397   4.852   5.827   0.215 -1.1395 -0.1117 -0.1346
 7166SOL    MW428398   4.850   5.805   0.131 -0.1833 -0.8048 -0.0063
 7167SOL     OW28399   3.963   5.634   2.238 -0.7777 -0.0685 -0.0270
 7167SOL    HW228400   3.885   5.686   2.220 -0.9094 -0.3725 -0.3482
 7167SOL    HW328401   3.966   5.570   2.168 -0.8739 -0.7910  0.6150
 7167SOL    MW428402   3.953   5.632   2.227  0.1638 -0.6702  0.4171
 7168SOL     OW28403   2.752   4.248   1.225 -0.5097 -0.0157  0.4175
 7168SOL    HW228404   2.794   4.167   1.252 -0.0592 -0.4045 -1.2864
 7168SOL    HW328405   2.773   4.311   1.294  4.8140  0.4582 -1.1861
 7168SOL    MW428406   2.760   4.246   1.237  0.1680  0.8169  0.3725
 7169SOL     OW28407   3.424   0.137   6.006 -0.4159 -0.6215  0.2383
 7169SOL    HW228408   3.398   0.211   6.061 -1.5109  0.7350 -1.9317
 7169SOL    HW328409   3.347   0.121   5.950  0.7349 -1.6698 -1.1269
 7169SOL    MW428410   3.410   0.144   6.006 -0.4294 -0.2738  0.0300
 7170SOL     OW28411   4.843   2.733   0.506  0.4610 -0.5668 -0.3818
 7170SOL    HW228412   4.819   2.826   0.503 -0.1461 -0.5675  2.3870
 7170SOL    HW328413   4.937   2.733   0.525  0.3111 -0.5174  0.3597
 7170SOL    MW428414   4.852   2.745   0.508  0.5811 -0.3796  0.0432
 7171SOL     OW28415   0.981   1.198   0.591 -0.2116  0.4106  0.3182
 7171SOL    HW228416   0.947   1.210   0.502 -0.5369  0.0842  0.3951
 7171SOL    HW328417   1.013   1.108   0.592  3.8731  1.6393 -0.8228
 7171SOL    MW428418   0.980   1.188   0.579  0.1212  0.2288 -0.4258
 7172SOL     OW28419   1.856   5.808   1.680  0.1942  0.3675 -0.1298
 7172SOL    HW228420   1.940   5.819   1.723 -0.2438  0.4577  0.7239
 7172SOL    HW328421   1.810   5.890   1.696  0.1642  0.5445 -1.0973
 7172SOL    MW428422   1.861   5.820   1.688 -0.0668 -0.0643  0.6857
 7173SOL     OW28423   5.294   1.056   2.004  0.3630 -0.1404  0.6180
 7173SOL    HW228424   5.296   1.145   2.041 -0.3410 -0.3209  1.0879
 7173SOL    HW328425   5.205   1.025   2.020  0.5408 -0.8496  0.2478
 7173SOL    MW428426   5.283   1.064   2.011  0.1521 -0.7860 -0.0049
 7174SOL     OW28427   3.924   6.193   1.387 -0.2584  0.0246  0.4388
 7174SOL    HW228428   3.840   6.185   1.342 -0.6463 -2.7099  1.4686
 7174SOL    HW328429   3.968   6.266   1.344 -1.1556 -1.4860 -3.3895
 7174SOL    MW428430   3.919   6.202   1.376  0.2845 -0.2920  0.7214
 7175SOL     OW28431   0.952   1.884   6.340 -0.2554  0.7056  0.5735
 7175SOL    HW228432   1.027   1.837   6.378 -0.3440 -0.8201 -1.0036
 7175SOL    HW328433   0.908   1.923   6.415  0.4896 -0.8111  1.8745
 7175SOL    MW428434   0.956   1.883   6.355 -0.4599 -0.4920  0.5275
 7176SOL     OW28435   0.140   4.406   1.572  0.4163 -0.3960  0.1499
 7176SOL    HW228436   0.048   4.429   1.584  0.4342 -0.2703  0.0437
 7176SOL    HW328437   0.146   4.317   1.606 -0.3183 -1.4465 -2.2904
 7176SOL    MW428438   0.128   4.397   1.578  0.5256  1.0047  0.0548
 7177SOL     OW28439   5.270   2.054   5.044  0.4633  0.7954  0.6977
 7177SOL    HW228440   5.265   2.041   5.139 -0.9251 -1.0864  0.4179
 7177SOL    HW328441   5.194   2.108   5.023  1.9110  3.0331  0.8486
 7177SOL    MW428442   5.259   2.059   5.054  0.2554 -0.6446 -0.1088
 7178SOL     OW28443   5.996   3.060   5.900  0.0940 -0.4113 -0.2908
 7178SOL    HW228444   5.966   2.973   5.874 -0.5526 -0.4743  0.6164
 7178SOL    HW328445   5.920   3.116   5.889  0.1566 -0.2055  0.2757
 7178SOL    MW428446   5.982   3.056   5.895  0.1097 -0.5183  0.0096
 7179SOL     OW28447   3.395   1.202   0.878 -0.0869 -0.6231  0.0759
 7179SOL    HW228448   3.375   1.219   0.970  1.5288  0.7099  0.2256
 7179SOL    HW328449   3.482   1.163   0.879 -0.3267 -1.2260 -0.8637
 7179SOL    MW428450   3.404   1.199   0.890  0.2977 -0.6671 -0.0653
 7180SOL     OW28451   4.677   5.119   3.132 -0.3294  0.0030  0.3123
 7180SOL    HW228452   4.687   5.024   3.131 -1.5308 -0.1658 -1.9098
 7180SOL    HW328453   4.652   5.140   3.222  0.2227 -1.7335  0.9030
 7180SOL    MW428454   4.675   5.109   3.144  0.3336  0.1572  0.3901
 7181SOL     OW28455   5.703   4.155   0.826 -0.0666  0.8510  0.5099
 7181SOL    HW228456   5.635   4.123   0.885 -0.4856  1.5320  0.4041
 7181SOL    HW328457   5.780   4.166   0.883 -0.8648  2.9394  1.2993
 7181SOL    MW428458   5.704   4.152   0.842 -0.0229  0.7404  0.0668
 7182SOL     OW28459   1.659   5.160   1.333 -0.5648  0.4366 -0.1073
 7182SOL    HW228460   1.581   5.173   1.279 -1.0319 -0.7837  0.2209
 7182SOL    HW328461   1.628   5.107   1.407 -0.0205  2.3214  1.5564
 7182SOL    MW428462   1.644   5.155   1.335 -0.0810  0.2603 -0.0358
 7183SOL     OW28463   2.006   2.982   5.376 -0.1064  0.0183 -0.1814
 7183SOL    HW228464   1.934   2.999   5.316 -2.6562 -0.7038  2.4654
 7183SOL    HW328465   2.025   3.067   5.416  0.3551  0.1646 -0.7092
 7183SOL    MW428466   1.999   2.995   5.374  0.6000 -0.2006 -0.0373
 7184SOL     OW28467   0.115   4.719   3.713  0.2556 -0.0342  0.2196
 7184SOL    HW228468   0.053   4.790   3.728 -0.3302 -0.3266 -0.7783
 7184SOL    HW328469   0.087   4.650   3.773 -0.5964 -0.2895 -0.4634
 7184SOL    MW428470   0.103   4.719   3.723 -0.2713 -0.0137  0.8155
 7185SOL     OW28471   5.439   0.565   0.259  0.0526 -0.2217  0.0196
 7185SOL    HW228472   5.375   0.510   0.305 -1.1187 -0.1177 -1.4045
 7185SOL    HW328473   5.415   0.654   0.282 -0.0990 -0.1970 -0.2270
 7185SOL    MW428474   5.427   0.569   0.268  0.0160 -0.0617  0.7664
 7186SOL     OW28475   3.501   6.080   0.322 -0.4520 -0.0550  0.1406
 7186SOL    HW228476   3.540   6.002   0.282 -0.4709  0.2827 -0.5528
 7186SOL    HW328477   3.409   6.075   0.297 -0.2772  0.6676 -0.7047
 7186SOL    MW428478   3.494   6.069   0.314  0.1930 -0.4372 -0.4412
 7187SOL     OW28479   0.464   4.665   4.071  0.4134  0.6770 -0.2517
 7187SOL    HW228480   0.450   4.742   4.127  0.6076  1.6470 -1.5001
 7187SOL    HW328481   0.502   4.700   3.991 -0.1462 -0.6471 -1.1295
 7187SOL    MW428482   0.467   4.680   4.068  0.2217  0.1421 -0.1856
 7188SOL     OW28483   5.734   3.153   2.585 -0.1792 -0.3475  0.8701
 7188SOL    HW228484   5.800   3.189   2.527 -1.4755  1.4721  0.4334
 7188SOL    HW328485   5.784   3.117   2.659  1.3096  0.6454  0.3917
 7188SOL    MW428486   5.749   3.153   2.587  0.2602  0.0818 -0.8777
 7189SOL     OW28487   3.617   1.750   1.150  1.2843 -0.1235 -0.1660
 7189SOL    HW228488   3.557   1.676   1.154  0.0860  0.5663 -3.0786
 7189SOL    HW328489   3.689   1.721   1.095  1.1901  0.5914 -0.6827
 7189SOL    MW428490   3.618   1.737   1.144  0.1112 -0.0431  0.0800
 7190SOL     OW28491   4.088   2.153   5.231  0.0543  0.0168 -0.0449
 7190SOL    HW228492   4.070   2.191   5.316 -0.2991 -0.6897  0.2005
 7190SOL    HW328493   4.043   2.069   5.231  0.1874 -0.0705 -0.8645
 7190SOL    MW428494   4.080   2.147   5.242 -0.7630  0.0659 -0.2737
 7191SOL     OW28495   5.517   3.826   2.397 -0.1384  0.1193  0.2131
 7191SOL    HW228496   5.457   3.758   2.367  1.8159 -1.8878  0.5739
 7191SOL    HW328497   5.506   3.829   2.492 -1.4771  1.6238  0.0410
 7191SOL    MW428498   5.508   3.817   2.405 -0.0161  0.0883 -0.1577
 7192SOL     OW28499   1.840   1.463   5.580 -0.3776  0.3014  0.3182
 7192SOL    HW228500   1.751   1.444   5.549 -0.2124  1.6984 -1.1455
 7192SOL    HW328501   1.895   1.452   5.503  0.6081  0.2818  1.0161
 7192SOL    MW428502   1.835   1.459   5.566 -0.1063 -0.3319  0.3103
 7193SOL     OW28503   2.015   3.074   0.326  0.0402  0.0060 -0.3130
 7193SOL    HW228504   2.010   3.030   0.411 -1.1864 -0.6250 -0.6814
 7193SOL    HW328505   2.077   3.146   0.340  1.0054 -0.9792  0.6880
 7193SOL    MW428506   2.022   3.078   0.339 -0.0790 -0.3427 -0.7230
 7194SOL     OW28507   1.924   2.460   0.902  0.4113  0.1956  0.4557
 7194SOL    HW228508   1.894   2.474   0.813  1.1900 -0.0784  0.1369
 7194SOL    HW328509   1.871   2.387   0.935  1.3088 -0.8936 -0.4122
 7194SOL    MW428510   1.913   2.452   0.895 -0.0565 -0.7234 -0.5693
 7195SOL     OW28511   5.189   6.249   3.545 -0.3454 -0.0044 -0.5535
 7195SOL    HW228512   5.144   6.312   3.600  1.1009 -0.0379  0.7294
 7195SOL    HW328513   5.272   6.291   3.521  0.1246 -0.9364 -0.6413
 7195SOL    MW428514   5.194   6.263   3.549 -0.2868  0.2843  0.3168
 7196SOL     OW28515   0.947   5.090   2.546  0.3884  0.3547  0.2419
 7196SOL    HW228516   0.862   5.066   2.509  0.0080  1.1419  0.5767
 7196SOL    HW328517   1.011   5.057   2.483 -0.1634 -0.1916 -0.0463
 7196SOL    MW428518   0.944   5.082   2.533  0.0469  0.0490  0.2120
 7197SOL     OW28519   4.239   3.080   1.425 -0.5399  0.0815 -0.1478
 7197SOL    HW228520   4.198   3.166   1.432 -0.1210  0.3031 -0.3261
 7197SOL    HW328521   4.286   3.082   1.341 -1.6943 -0.8433 -0.8403
 7197SOL    MW428522   4.240   3.091   1.415 -0.2468  0.0814  0.3829
 7198SOL     OW28523   4.408   1.330   0.619 -0.1522 -0.5700  0.4483
 7198SOL    HW228524   4.358   1.248   0.618 -1.1124 -0.0798  2.5181
 7198SOL    HW328525   4.343   1.398   0.605  0.2140 -0.0399  1.2367
 7198SOL    MW428526   4.393   1.328   0.617  0.1821  0.5449  0.4386
 7199SOL     OW28527   1.530   6.045   5.903 -0.4181 -0.5075 -0.1188
 7199SOL    HW228528   1.520   5.956   5.869  1.3548 -0.9551  0.4115
 7199SOL    HW328529   1.569   6.094   5.831 -0.8939 -0.2944 -0.2316
 7199SOL    MW428530   1.534   6.040   5.889 -0.1173 -0.1425 -0.1663
 7200SOL     OW28531   1.696   4.968   0.475 -0.6735 -0.5538  0.2658
 7200SOL    HW228532   1.764   5.031   0.450 -1.4258 -0.3808 -1.4834
 7200SOL    HW328533   1.740   4.883   0.474 -0.3319 -0.3735 -0.1762
 7200SOL    MW428534   1.711   4.965   0.472  0.1114 -0.4889  0.9383
 7201SOL     OW28535   2.599   6.030   2.326  0.4498  0.0067  0.2223
 7201SOL    HW228536   2.625   6.090   2.396 -0.7171  0.9861 -0.1615
 7201SOL    HW328537   2.535   5.971   2.368 -0.9393  1.1608 -0.1966
 7201SOL    MW428538   2.594   6.030   2.341 -0.2333  0.0498  0.3433
 7202SOL     OW28539   4.904   5.482   1.536 -0.2524 -0.6251  0.2266
 7202SOL    HW228540   4.859   5.518   1.459 -1.0479 -1.4910  0.2695
 7202SOL    HW328541   4.975   5.543   1.553  0.0570 -0.5194 -1.3248
 7202SOL    MW428542   4.907   5.495   1.528  0.5515  0.2817 -0.5835
 7203SOL     OW28543   0.765   1.249   4.576 -0.0991 -0.0764  0.1394
 7203SOL    HW228544   0.829   1.183   4.546 -0.4920 -0.9265  1.0931
 7203SOL    HW328545   0.754   1.307   4.501  2.0698  0.3164  0.0661
 7203SOL    MW428546   0.772   1.248   4.562 -0.3807 -0.3671 -0.0696
 7204SOL     OW28547   5.189   1.043   5.618  0.2524 -0.6993  0.0988
 7204SOL    HW228548   5.178   0.957   5.579 -0.6378  0.0715 -1.4611
 7204SOL    HW328549   5.102   1.065   5.653  0.3770 -0.2934  0.1642
 7204SOL    MW428550   5.176   1.035   5.618 -0.1896 -0.0073  0.7076
 7205SOL     OW28551   0.826   1.890   3.108 -0.3198  0.6767 -0.0374
 7205SOL    HW228552   0.878   1.810   3.103 -0.3033  0.6838  0.0168
 7205SOL    HW328553   0.751   1.873   3.050 -0.7212  0.3184  0.5705
 7205SOL    MW428554   0.823   1.877   3.100  0.2418  0.0299 -0.5481
 7206SOL     OW28555   5.024   1.706   5.372 -0.5008 -0.1997 -0.0348
 7206SOL    HW228556   4.947   1.711   5.429 -0.4782 -1.7857  0.1768
 7206SOL    HW328557   5.093   1.671   5.428 -0.1815 -0.7399 -0.7537
 7206SOL    MW428558   5.023   1.702   5.387  0.0941  0.2026 -0.0056
 7207SOL     OW28559   0.014   2.659   2.165  0.1309  0.0005 -0.0223
 7207SOL    HW228560   0.033   2.591   2.100 -0.4142  0.7168 -0.9758
 7207SOL    HW328561   0.072   2.731   2.142 -0.5109  0.4984 -0.1236
 7207SOL    MW428562   0.024   2.660   2.153 -0.0562  0.0361 -0.0379
 7208SOL     OW28563   4.105   4.813   0.256  0.3045 -0.6679 -0.4149
 7208SOL    HW228564   4.135   4.725   0.278  0.8927 -0.0905  1.2687
 7208SOL    HW328565   4.135   4.868   0.329 -0.8174  0.7758 -0.9784
 7208SOL    MW428566   4.113   4.809   0.268 -0.1579 -0.1516  0.0919
 7209SOL     OW28567   0.449   2.423   1.375  0.1800  0.0423 -0.8819
 7209SOL    HW228568   0.405   2.492   1.325 -0.2376  1.6970  1.6353
 7209SOL    HW328569   0.379   2.378   1.421  0.5642 -1.4469 -1.6829
 7209SOL    MW428570   0.434   2.426   1.374 -0.3720 -0.1950  0.4106
 7210SOL     OW28571   1.828   3.908   3.962 -0.0258  0.0796  0.5947
 7210SOL    HW228572   1.804   4.001   3.960  0.8054  0.3054 -1.7092
 7210SOL    HW328573   1.853   3.888   3.872 -0.0737 -2.3720  1.0655
 7210SOL    MW428574   1.828   3.918   3.950 -0.2087  0.6402 -0.5400
 7211SOL     OW28575   4.840   1.039   5.937 -0.1999  0.1109  0.0721
 7211SOL    HW228576   4.783   0.962   5.928  0.8229 -0.7222  0.6146
 7211SOL    HW328577   4.891   1.022   6.016 -1.7217  2.5187  1.7134
 7211SOL    MW428578   4.839   1.027   5.946  0.1848  0.1051 -0.9955
 7212SOL     OW28579   2.193   2.686   4.376 -0.4567  0.4985  0.1745
 7212SOL    HW228580   2.235   2.654   4.456  1.2833 -1.3305 -1.3650
 7212SOL    HW328581   2.242   2.645   4.305 -3.7005 -0.3020 -1.8225
 7212SOL    MW428582   2.205   2.676   4.377  0.3775  1.0083 -0.1155
 7213SOL     OW28583   1.901   0.109   5.416 -0.1587 -0.2074 -0.5896
 7213SOL    HW228584   1.969   0.062   5.464  0.8025  0.2463 -1.4743
 7213SOL    HW328585   1.948   0.159   5.349 -1.3241  0.4568 -0.9499
 7213SOL    MW428586   1.916   0.110   5.413 -0.1978  0.4972  0.4618
 7214SOL     OW28587   4.029   0.496   3.288  0.1956  0.1891 -0.1428
 7214SOL    HW228588   3.950   0.530   3.247  1.1409  0.8583 -1.4868
 7214SOL    HW328589   4.098   0.511   3.224  1.0759 -2.2660  0.0974
 7214SOL    MW428590   4.027   0.502   3.274  0.0845 -0.4578  0.5688
 7215SOL     OW28591   4.782   5.018   4.532 -0.4696 -0.3403  0.1026
 7215SOL    HW228592   4.831   5.029   4.614 -0.9970  1.3626  0.2133
 7215SOL    HW328593   4.691   5.033   4.555 -0.8562 -1.6361 -0.4752
 7215SOL    MW428594   4.777   5.021   4.545  0.4361  0.8114  0.0398
 7216SOL     OW28595   4.536   1.441   5.140 -0.3511 -0.0563  0.1424
 7216SOL    HW228596   4.470   1.449   5.071 -1.0686  1.5039  0.9515
 7216SOL    HW328597   4.488   1.406   5.215  0.7389 -3.2594 -0.4751
 7216SOL    MW428598   4.521   1.437   5.141 -0.4084  0.1694  0.1285
 7217SOL     OW28599   5.989   3.839   4.862 -0.6256 -0.3516 -0.3211
 7217SOL    HW228600   5.897   3.864   4.863  0.0178  2.4205  1.1106
 7217SOL    HW328601   6.030   3.900   4.801  0.6326  0.4321  1.2053
 7217SOL    MW428602   5.982   3.851   4.854 -0.1217  0.7408 -0.8962
 7218SOL     OW28603   1.287   3.666   3.324  0.1358 -0.1529  0.3424
 7218SOL    HW228604   1.275   3.682   3.418  2.6030  2.8108  0.3205
 7218SOL    HW328605   1.370   3.617   3.319  2.8172  3.9363 -0.2301
 7218SOL    MW428606   1.296   3.661   3.336 -0.1727  0.2545  0.2991
 7219SOL     OW28607   0.505   3.540   4.867 -0.1935  0.3315  0.0197
 7219SOL    HW228608   0.488   3.468   4.927  0.1793  2.1457  2.4259
 7219SOL    HW328609   0.598   3.559   4.877 -0.0563  0.5258 -1.3509
 7219SOL    MW428610   0.515   3.533   4.876 -0.3844 -0.3576  0.3626
 7220SOL     OW28611   4.492   2.444   5.606 -0.3855  0.0621 -0.1108
 7220SOL    HW228612   4.446   2.390   5.541 -2.3831  2.2028 -0.6064
 7220SOL    HW328613   4.533   2.514   5.555  0.0644  0.4338  0.7280
 7220SOL    MW428614   4.492   2.446   5.591 -0.1571  0.3042 -0.2722
 7221SOL     OW28615   4.729   2.494   1.889  0.3275  0.0235 -0.0700
 7221SOL    HW228616   4.636   2.474   1.889  0.2869  0.1819  0.7345
 7221SOL    HW328617   4.733   2.590   1.887  0.4531  0.0402  0.6454
 7221SOL    MW428618   4.717   2.504   1.889  0.4436 -0.3238 -0.3258
 7222SOL     OW28619   1.433   2.781   2.850  0.3302 -0.6287 -0.0119
 7222SOL    HW228620   1.441   2.862   2.799 -1.8325  1.0751  2.1401
 7222SOL    HW328621   1.515   2.774   2.898  0.1059  0.9892  0.6678
 7222SOL    MW428622   1.445   2.791   2.849  0.2407  0.1297  0.0065
 7223SOL     OW28623   3.678   4.607   2.288 -0.1654 -0.2914  0.3306
 7223SOL    HW228624   3.691   4.512   2.288 -0.1754 -0.2982 -0.4258
 7223SOL    HW328625   3.596   4.620   2.240 -0.3005  0.0902  0.6514
 7223SOL    MW428626   3.669   4.596   2.282 -0.4918  0.0103 -0.2333
 7224SOL     OW28627   2.057   3.510   0.531  0.0224 -0.2937 -0.1694
 7224SOL    HW228628   1.979   3.459   0.509 -1.0751  0.8713  0.8443
 7224SOL    HW328629   2.075   3.486   0.622 -0.8095  1.4053  0.4947
 7224SOL    MW428630   2.049   3.500   0.540 -0.3016  0.0625  0.2845
 7225SOL     OW28631   3.036   0.876   4.593  0.4578 -0.4308  0.0182
 7225SOL    HW228632   2.985   0.931   4.534 -1.0284 -1.5263  0.2165
 7225SOL    HW328633   3.027   0.918   4.678  2.1151  0.8257 -0.3926
 7225SOL    MW428634   3.028   0.889   4.596  0.6044  0.1475 -0.0806
 7226SOL     OW28635   3.382   5.259   6.141  0.3244 -0.2632 -0.0016
 7226SOL    HW228636   3.321   5.320   6.098  0.7390 -0.3720 -0.7654
 7226SOL    HW328637   3.327   5.184   6.165 -0.3445  0.7037  1.6314
 7226SOL    MW428638   3.367   5.257   6.138 -0.3672 -0.0186  0.7011
 7227SOL     OW28639   1.410   0.085   0.165  0.1837 -0.5034 -0.4079
 7227SOL    HW228640   1.404   0.175   0.196 -0.6498 -0.5132 -0.5212
 7227SOL    HW328641   1.473   0.088   0.093  0.0979  0.0009 -0.4606
 7227SOL    MW428642   1.418   0.097   0.160 -0.2683 -0.4202 -0.0239
 7228SOL     OW28643   2.283   2.000   4.058 -0.0719 -0.3025  0.3229
 7228SOL    HW228644   2.228   1.925   4.034  0.4079 -0.1787 -1.2934
 7228SOL    HW328645   2.229   2.077   4.038  0.1302 -0.2020  0.1577
 7228SOL    MW428646   2.269   2.000   4.052  0.2862 -0.9392 -0.0314
 7229SOL     OW28647   0.511   0.107   0.151  0.1176  0.2639  0.3444
 7229SOL    HW228648   0.534   0.020   0.184 -1.3679 -1.8846 -3.6487
 7229SOL    HW328649   0.418   0.117   0.173  0.3536  1.0768  1.0601
 7229SOL    MW428650   0.501   0.097   0.158 -0.2272  0.1869  0.0643
 7230SOL     OW28651   6.399   6.237   2.655  0.0854  0.2357  0.1848
 7230SOL    HW228652   6.309   6.263   2.676  0.6385  1.1085  1.7077
 7230SOL    HW328653   6.452   6.280   2.723  1.7519  0.5649 -1.2437
 7230SOL    MW428654   6.394   6.246   2.667  0.2779 -0.0771  0.0978
 7231SOL     OW28655   0.701   2.533   2.691 -0.3053  0.4033 -0.1279
 7231SOL    HW228656   0.614   2.571   2.680  0.0159  1.4187  0.7332
 7231SOL    HW328657   0.737   2.530   2.602 -0.9087  0.7363 -0.3861
 7231SOL    MW428658   0.694   2.538   2.677  0.2593  0.5525 -0.2103
 7232SOL     OW28659   1.639   5.034   3.336 -0.2182 -0.1250 -0.0896
 7232SOL    HW228660   1.590   4.998   3.410  0.6050 -1.0652  0.0145
 7232SOL    HW328661   1.577   5.095   3.294 -0.8594  0.0449  1.0665
 7232SOL    MW428662   1.624   5.037   3.340  0.4632  0.5625 -0.5074
 7233SOL     OW28663   3.349   0.524   4.456  0.0830  0.4298 -0.1620
 7233SOL    HW228664   3.440   0.542   4.482 -0.0294 -1.1865  1.5320
 7233SOL    HW328665   3.308   0.490   4.535 -1.7810  0.2745 -1.1485
 7233SOL    MW428666   3.356   0.522   4.469  0.1033  0.6911  0.2380
 7234SOL     OW28667   1.960   4.568   2.727  0.1659 -0.0376  0.0856
 7234SOL    HW228668   1.933   4.509   2.656  2.8062 -1.4562  0.1378
 7234SOL    HW328669   1.886   4.566   2.788 -1.2081 -0.6281 -1.4977
 7234SOL    MW428670   1.946   4.560   2.726  0.5107 -0.0322  0.3623
 7235SOL     OW28671   3.025   6.285   0.765  0.4289 -0.0134  0.4004
 7235SOL    HW228672   3.022   6.207   0.709  1.2604 -0.1114  0.4727
 7235SOL    HW328673   2.947   6.335   0.742  1.9299  1.1900 -2.6402
 7235SOL    MW428674   3.015   6.281   0.755  0.5676  0.1664  0.5988
 7236SOL     OW28675   0.467   1.168   2.070  0.4895  0.1859  0.1393
 7236SOL    HW228676   0.539   1.207   2.020  0.2099  0.4667 -0.0410
 7236SOL    HW328677   0.507   1.093   2.113  0.6945 -0.1543 -0.6304
 7236SOL    MW428678   0.482   1.163   2.069  0.0050 -0.5706 -0.0160
 7237SOL     OW28679   1.991   5.926   2.432  0.4792  0.0125  0.3696
 7237SOL    HW228680   1.999   6.021   2.435  0.2167  0.0269  0.6423
 7237SOL    HW328681   1.915   5.910   2.376  1.8065 -0.1001 -1.4930
 7237SOL    MW428682   1.982   5.936   2.425 -0.5183  0.2283 -0.0605
 7238SOL     OW28683   4.135   3.024   6.084 -0.1446 -0.0172  0.3786
 7238SOL    HW228684   4.109   2.935   6.110  0.4417 -0.3518 -0.1265
 7238SOL    HW328685   4.175   3.012   5.997 -0.3419  0.7891  0.1706
 7238SOL    MW428686   4.137   3.010   6.076  0.1239 -0.4221  0.3472
 7239SOL     OW28687   0.983   1.968   2.189 -0.4596  0.2005 -0.4423
 7239SOL    HW228688   0.920   1.922   2.244 -1.2438 -0.6504 -1.9743
 7239SOL    HW328689   0.953   2.059   2.190 -0.0305  0.3487  1.0785
 7239SOL    MW428690   0.971   1.974   2.196 -0.4261 -0.1433 -0.4705
 7240SOL     OW28691   2.927   3.181   1.277  0.7557  0.7176  0.3893
 7240SOL    HW228692   3.021   3.165   1.276  0.9157  1.6042 -0.5686
 7240SOL    HW328693   2.915   3.259   1.222 -0.6017  0.2175 -0.0749
 7240SOL    MW428694   2.937   3.189   1.269  0.0953  0.0773  0.2660
 7241SOL     OW28695   2.655   4.555   3.920 -0.6276 -0.1307 -0.0760
 7241SOL    HW228696   2.673   4.647   3.935 -1.2918  0.1795 -1.0836
 7241SOL    HW328697   2.594   4.554   3.846  1.9347 -1.5044 -2.3230
 7241SOL    MW428698   2.649   4.567   3.912  0.3595 -0.0726  0.0895
 7242SOL     OW28699   3.724   4.819   0.747  0.3113 -0.3185 -0.3919
 7242SOL    HW228700   3.816   4.840   0.766 -0.2666 -0.1232  2.7913
 7242SOL    HW328701   3.690   4.783   0.829 -2.6304  0.2019 -1.2588
 7242SOL    MW428702   3.732   4.817   0.761 -0.0796  0.3424  0.0635
 7243SOL     OW28703   4.559   1.385   0.048 -0.4910 -0.0485 -0.2727
 7243SOL    HW228704   4.526   1.399   0.137 -0.6071 -1.9135  0.0342
 7243SOL    HW328705   4.483   1.400  -0.008 -0.8262 -0.3756  0.0866
 7243SOL    MW428706   4.545   1.389   0.053 -0.7092 -0.4409 -0.1008
 7244SOL     OW28707   4.767   2.041   4.420 -0.2097 -0.1610 -0.2515
 7244SOL    HW228708   4.861   2.037   4.404  0.0181  0.1163  0.9175
 7244SOL    HW328709   4.755   2.119   4.473 -1.3947  0.9876 -2.1089
 7244SOL    MW428710   4.778   2.050   4.425  0.3775  0.5816  0.1861
 7245SOL     OW28711   0.167   1.828   2.327 -0.1187  0.0804 -0.5869
 7245SOL    HW228712   0.183   1.755   2.267  0.5753 -1.6198  1.5652
 7245SOL    HW328713   0.255   1.857   2.352 -0.4060  0.2797  0.1904
 7245SOL    MW428714   0.181   1.822   2.322  0.0347 -0.1285 -0.7580
 7246SOL     OW28715   3.420   0.900   3.021  0.0098  0.1869  0.0878
 7246SOL    HW228716   3.464   0.925   3.102  0.5841 -0.0826 -0.1385
 7246SOL    HW328717   3.407   0.983   2.975 -0.3634  0.3473  0.4686
 7246SOL    MW428718   3.424   0.915   3.026 -0.2646 -0.2672  0.1487
 7247SOL     OW28719   3.551   1.131   1.410  0.4342 -0.4964  0.5501
 7247SOL    HW228720   3.637   1.156   1.445  0.7614 -1.7006  0.6532
 7247SOL    HW328721   3.527   1.053   1.460 -0.1582 -0.8781 -0.3075
 7247SOL    MW428722   3.559   1.124   1.421  0.2148 -0.5281  0.0563
 7248SOL     OW28723   6.120   3.740   1.957 -0.6003 -0.0595 -0.3413
 7248SOL    HW228724   6.152   3.734   2.047  2.2535 -0.4520 -1.2929
 7248SOL    HW328725   6.105   3.649   1.930  1.0914 -0.1801 -1.0286
 7248SOL    MW428726   6.122   3.727   1.965  0.3012  0.5111  0.1368
 7249SOL     OW28727   6.207   4.739   1.328 -0.0515 -0.3155 -0.0343
 7249SOL    HW228728   6.239   4.827   1.351 -0.2974 -0.3394  0.4027
 7249SOL    HW328729   6.161   4.752   1.245  0.2061 -0.0923 -0.1454
 7249SOL    MW428730   6.205   4.752   1.320 -0.0372 -0.5725 -0.3909
 7250SOL     OW28731   1.853   5.517   0.777 -0.3654 -0.1899  0.1519
 7250SOL    HW228732   1.800   5.483   0.850  0.0790  0.9455  1.0374
 7250SOL    HW328733   1.931   5.461   0.777 -0.0227  0.2541  1.0597
 7250SOL    MW428734   1.857   5.505   0.787  0.4093 -0.2560  0.1882
 7251SOL     OW28735   3.063   2.231   0.635  0.0705 -0.4667  0.2454
 7251SOL    HW228736   3.080   2.169   0.564  1.8933  1.1854 -0.8545
 7251SOL    HW328737   3.131   2.297   0.627 -0.9519  0.9539  2.2364
 7251SOL    MW428738   3.074   2.232   0.624  0.5366 -0.2877 -0.0808
 7252SOL     OW28739   0.092   5.067   0.919 -0.1300  0.2891  0.3699
 7252SOL    HW228740   0.058   4.982   0.945  1.9124 -0.3456  1.1846
 7252SOL    HW328741   0.084   5.122   0.997 -0.3189  0.4784  0.2189
 7252SOL    MW428742   0.087   5.063   0.933 -0.0486 -0.1884 -0.4948
 7253SOL     OW28743   0.940   0.048   1.973  0.5129 -0.1110  0.3607
 7253SOL    HW228744   0.921   0.096   2.053 -0.5176  0.9606 -0.5021
 7253SOL    HW328745   0.862  -0.004   1.955 -0.2376  1.4604 -1.1891
 7253SOL    MW428746   0.927   0.047   1.981  0.0579 -0.0448  0.0330
 7254SOL     OW28747   5.454   0.765   3.928 -0.0386 -0.0130  0.0082
 7254SOL    HW228748   5.460   0.776   4.022  0.1664 -1.3188  0.1662
 7254SOL    HW328749   5.508   0.688   3.909 -1.0383 -0.5034 -1.0071
 7254SOL    MW428750   5.462   0.756   3.938  0.3550 -0.3794 -0.0707
 7255SOL     OW28751   5.580   0.324   1.154  0.2440 -0.6014  0.3714
 7255SOL    HW228752   5.518   0.257   1.185  0.4921 -0.7068  0.6373
 7255SOL    HW328753   5.563   0.328   1.060  1.1140 -1.9797  0.1246
 7255SOL    MW428754   5.569   0.315   1.146  0.2391 -1.1423 -0.4399
 7256SOL     OW28755   0.829   1.960   4.206 -0.2399  1.1484  0.2307
 7256SOL    HW228756   0.893   1.898   4.173 -0.7321 -0.2410  1.7495
 7256SOL    HW328757   0.856   1.976   4.297 -0.3813  2.8460  0.0177
 7256SOL    MW428758   0.841   1.954   4.214  0.0652 -0.3337  0.2494
 7257SOL     OW28759   3.465   0.856   5.363 -0.0618 -0.1968 -0.3103
 7257SOL    HW228760   3.374   0.878   5.379  0.4239  0.1192  2.5451
 7257SOL    HW328761   3.463   0.766   5.329 -1.4150 -0.1128 -0.4843
 7257SOL    MW428762   3.453   0.847   5.361 -0.3444  0.6560 -0.0779
 7258SOL     OW28763   6.145   0.739   1.912 -0.4441  0.2697 -0.0767
 7258SOL    HW228764   6.071   0.791   1.881 -0.4587  1.7324  2.1719
 7258SOL    HW328765   6.202   0.801   1.956  0.6807 -1.2768  0.7623
 7258SOL    MW428766   6.142   0.754   1.914 -0.1885  0.1655  0.2598
 7259SOL     OW28767   6.114   2.962   1.374 -0.0474 -0.2350  0.5388
 7259SOL    HW228768   6.161   2.968   1.458 -1.9634 -2.9739  1.9681
 7259SOL    HW328769   6.180   2.985   1.308  1.9416  0.6057  2.6631
 7259SOL    MW428770   6.129   2.966   1.377  0.4865 -0.2741 -0.1757
 7260SOL     OW28771   3.459   6.103   1.707 -0.0092 -0.4421 -0.0275
 7260SOL    HW228772   3.430   6.028   1.760  1.0542 -1.5221 -0.9054
 7260SOL    HW328773   3.537   6.071   1.662 -0.1340  0.8797 -1.2395
 7260SOL    MW428774   3.466   6.089   1.708 -0.2785 -0.1962  0.1642
 7261SOL     OW28775   3.445   6.389   0.382 -0.0204  0.4602  0.1928
 7261SOL    HW228776   3.431   6.482   0.396  1.5954  0.7266  0.1688
 7261SOL    HW328777   3.488   6.384   0.296  1.0078 -0.1879  0.7251
 7261SOL    MW428778   3.449   6.400   0.372 -0.1355 -0.0641 -0.0495
 7262SOL     OW28779   0.854   2.020   0.143  0.0612  0.2684  0.0367
 7262SOL    HW228780   0.819   2.086   0.084  0.8532 -1.8037 -2.9578
 7262SOL    HW328781   0.901   2.070   0.210 -1.4675  2.7431 -0.6225
 7262SOL    MW428782   0.856   2.035   0.144  0.4221 -0.2145  0.1140
 7263SOL     OW28783   3.718   5.841   2.584  0.1891  0.5109  0.2512
 7263SOL    HW228784   3.808   5.827   2.615  0.0670  0.0338  0.4046
 7263SOL    HW328785   3.702   5.934   2.597  1.5931  1.2079 -2.1829
 7263SOL    MW428786   3.728   5.851   2.590 -0.1473 -0.3819 -0.1714
 7264SOL     OW28787   4.020   5.764   0.307 -0.3759 -0.0516  0.1166
 7264SOL    HW228788   4.079   5.736   0.377 -0.2769  1.1296  0.5272
 7264SOL    HW328789   3.933   5.740   0.338 -0.1221 -2.2062 -0.6835
 7264SOL    MW428790   4.016   5.757   0.320  0.4047  0.3657 -0.6016
 7265SOL     OW28791   4.799   3.966   0.108  0.0871  0.2319  0.2730
 7265SOL    HW228792   4.839   4.041   0.063 -0.6635 -0.2150 -1.2249
 7265SOL    HW328793   4.741   4.006   0.173 -0.3434  0.9864 -0.5424
 7265SOL    MW428794   4.797   3.982   0.111 -0.6185 -0.4376  0.3183
 7266SOL     OW28795   5.985   6.066   2.198 -0.4991  0.2729 -0.2356
 7266SOL    HW228796   6.042   6.079   2.122  0.1202 -3.8930 -0.7631
 7266SOL    HW328797   6.044   6.073   2.273  0.7355 -2.9815 -0.7268
 7266SOL    MW428798   6.001   6.068   2.198  0.1033  1.1178 -0.1630
 7267SOL     OW28799   3.720   2.629   3.880  0.1520 -0.2282  0.3734
 7267SOL    HW228800   3.800   2.671   3.911 -0.7560  1.7239  0.2396
 7267SOL    HW328801   3.719   2.647   3.786 -0.0529 -0.9477  0.2315
 7267SOL    MW428802   3.730   2.637   3.871 -0.3283  0.3047  0.2828
 7268SOL     OW28803   3.692   4.801   2.983 -0.3831 -0.4938 -0.2719
 7268SOL    HW228804   3.712   4.853   3.062  1.6258 -0.4836 -0.7484
 7268SOL    HW328805   3.706   4.710   3.010 -0.9758 -0.5888 -0.2710
 7268SOL    MW428806   3.696   4.796   2.997  0.0009 -0.1742 -0.1236
 7269SOL     OW28807   6.001   5.519   1.101  0.0696  0.2412  0.2160
 7269SOL    HW228808   5.938   5.586   1.128 -0.3486 -0.3816  0.8125
 7269SOL    HW328809   6.009   5.530   1.007 -1.4975 -0.1502  0.0181
 7269SOL    MW428810   5.994   5.529   1.092  0.0466 -0.6664  0.6459
 7270SOL     OW28811   4.811   1.984   0.601  0.2585  0.2007  0.5173
 7270SOL    HW228812   4.860   1.909   0.566  1.2610  1.3996 -0.8249
 7270SOL    HW328813   4.759   2.015   0.527 -1.8861 -0.4654  1.6672
 7270SOL    MW428814   4.811   1.978   0.586 -0.6181 -0.2515  0.0345
 7271SOL     OW28815   5.731   4.720   4.144  0.2624  0.0276  0.0169
 7271SOL    HW228816   5.653   4.762   4.108 -0.1819 -0.7288  0.0879
 7271SOL    HW328817   5.780   4.691   4.067 -0.7464 -1.6960 -0.0347
 7271SOL    MW428818   5.727   4.722   4.129 -0.8175 -0.3225  0.0000
 7272SOL     OW28819   1.231   2.416   2.192  0.2880  0.3618 -0.1707
 7272SOL    HW228820   1.219   2.489   2.252  0.8036  0.5074 -0.2394
 7272SOL    HW328821   1.318   2.382   2.212  0.0673 -0.2044 -0.1725
 7272SOL    MW428822   1.241   2.421   2.202  0.4993  0.2969  0.0771
 7273SOL     OW28823   0.543   6.302   0.505 -0.1907 -0.4556 -0.5720
 7273SOL    HW228824   0.613   6.246   0.538 -0.3221  0.1781  0.8431
 7273SOL    HW328825   0.547   6.381   0.559 -0.3024  0.7345 -2.2233
 7273SOL    MW428826   0.552   6.305   0.516  0.3074 -0.2386 -0.3516
 7274SOL     OW28827   1.129   2.938   6.320 -0.0170  0.4168 -0.1070
 7274SOL    HW228828   1.171   2.884   6.253  2.0502  2.1461 -0.3244
 7274SOL    HW328829   1.102   3.017   6.274 -1.2965  0.4166  0.5694
 7274SOL    MW428830   1.131   2.941   6.305  0.5269  0.1894 -0.1237
 7275SOL     OW28831   3.468   3.393   6.333 -0.2903 -0.1275 -0.2458
 7275SOL    HW228832   3.537   3.341   6.293 -0.8047 -1.0010 -0.0211
 7275SOL    HW328833   3.388   3.366   6.289 -0.6905 -0.1835  0.4900
 7275SOL    MW428834   3.466   3.383   6.322  0.0078 -0.2845 -0.2610
 7276SOL     OW28835   1.412   5.925   0.012 -0.3729 -0.1134 -0.2657
 7276SOL    HW228836   1.406   5.905  -0.081  2.3902  2.5455 -1.1776
 7276SOL    HW328837   1.387   6.017   0.019  0.6095  0.0694  1.4171
 7276SOL    MW428838   1.408   5.935   0.001  0.0275  0.3225 -0.0377
 7277SOL     OW28839   5.636   2.912   3.027  0.0098 -0.3559  0.0924
 7277SOL    HW228840   5.571   2.965   2.981 -0.6081 -1.5384 -0.4359
 7277SOL    HW328841   5.611   2.916   3.119 -0.2414 -0.0255  0.0089
 7277SOL    MW428842   5.624   2.919   3.033 -0.0094 -0.4391  0.2196
 7278SOL     OW28843   4.550   4.542   5.954  0.0950  0.2178 -0.0290
 7278SOL    HW228844   4.463   4.501   5.960 -0.1236  0.6073 -0.4628
 7278SOL    HW328845   4.572   4.537   5.862  0.2306  0.7386 -0.0290
 7278SOL    MW428846   4.541   4.536   5.943  0.1960 -0.4424 -0.2082
 7279SOL     OW28847   0.170   3.543   3.074  0.0126 -0.1106  0.0435
 7279SOL    HW228848   0.130   3.623   3.109  0.9851 -0.7803  3.0145
 7279SOL    HW328849   0.098   3.480   3.071  0.2375 -0.8302  3.8026
 7279SOL    MW428850   0.155   3.545   3.078 -0.3885 -0.3247  0.7231
 7280SOL     OW28851   4.439   1.624   0.953  0.1639 -0.6340  0.2686
 7280SOL    HW228852   4.462   1.592   0.865 -0.8168 -0.4080 -0.0818
 7280SOL    HW328853   4.499   1.697   0.968  0.0559 -0.3984 -0.4028
 7280SOL    MW428854   4.450   1.629   0.943  0.2090 -0.1039 -0.3083
 7281SOL     OW28855   1.503   1.134   3.252  0.2805  0.2524  0.0166
 7281SOL    HW228856   1.502   1.051   3.204 -1.8130 -0.7987  1.7246
 7281SOL    HW328857   1.421   1.177   3.227 -0.0036  0.4727  1.2873
 7281SOL    MW428858   1.492   1.129   3.242  0.2236 -0.3308  0.4405
 7282SOL     OW28859   1.334   3.706   5.651 -0.3006 -0.3072 -0.4738
 7282SOL    HW228860   1.241   3.729   5.642 -0.1051  0.9073  0.3308
 7282SOL    HW328861   1.370   3.713   5.563 -0.5717  1.1788 -0.5017
 7282SOL    MW428862   1.326   3.710   5.638 -0.0967 -0.1668  0.2661
 7283SOL     OW28863   0.962   3.309   5.555  0.5842  0.3265 -0.3447
 7283SOL    HW228864   1.023   3.254   5.605  0.0917 -0.4123 -0.5497
 7283SOL    HW328865   0.876   3.288   5.590  0.4322  1.3723 -0.0581
 7283SOL    MW428866   0.959   3.299   5.566 -0.0908  0.1343 -0.0469
 7284SOL     OW28867   3.819   2.710   0.605  0.4236  0.0391 -0.1675
 7284SOL    HW228868   3.901   2.758   0.597 -0.1857  0.9848 -1.0764
 7284SOL    HW328869   3.768   2.761   0.669  0.3871 -0.3260  0.1005
 7284SOL    MW428870   3.823   2.723   0.613 -0.2238 -0.2364 -0.5737
 7285SOL     OW28871   1.381   2.381   0.623  0.4398  0.7892 -0.3266
 7285SOL    HW228872   1.431   2.452   0.583  0.4755  0.3616 -1.0385
 7285SOL    HW328873   1.365   2.319   0.553  0.4700  0.0438  0.3071
 7285SOL    MW428874   1.385   2.382   0.609  0.3871 -0.2127  0.3388
 7286SOL     OW28875   4.672   3.763   2.669 -0.5739 -0.9199  0.2949
 7286SOL    HW228876   4.594   3.763   2.613 -0.6525  1.0236  0.3458
 7286SOL    HW328877   4.647   3.815   2.745  0.9724  0.3447 -0.0092
 7286SOL    MW428878   4.659   3.770   2.672 -0.6095  0.6934  0.1529
 7287SOL     OW28879   5.086   1.421   0.095 -0.2214 -0.7413  0.4497
 7287SOL    HW228880   5.030   1.351   0.130 -1.1174  0.1922  0.9625
 7287SOL    HW328881   5.036   1.501   0.111 -0.0044 -0.1225 -1.6572
 7287SOL    MW428882   5.072   1.423   0.102 -0.5006 -0.1734 -0.3038
 7288SOL     OW28883   1.635   5.512   2.326  0.3609 -0.4548  0.6252
 7288SOL    HW228884   1.652   5.420   2.350 -1.7902 -1.1643 -0.3197
 7288SOL    HW328885   1.542   5.514   2.303  0.6583  1.6895 -0.6767
 7288SOL    MW428886   1.625   5.500   2.326  0.0491  0.0918  0.2224
 7289SOL     OW28887   4.822   0.379   2.296 -0.3045  0.1214 -0.1147
 7289SOL    HW228888   4.891   0.446   2.292  1.7694 -1.8876  0.0186
 7289SOL    HW328889   4.811   0.350   2.206 -1.4093  0.7819 -0.2135
 7289SOL    MW428890   4.829   0.384   2.284  0.6651  0.3309  0.3598
 7290SOL     OW28891   1.241   4.395   0.462  0.4066  0.4922 -0.1531
 7290SOL    HW228892   1.333   4.415   0.446  1.6352 -3.1309  1.3638
 7290SOL    HW328893   1.225   4.315   0.412 -1.3817  0.0685  1.0028
 7290SOL    MW428894   1.251   4.387   0.453  0.0252 -0.0030 -0.0740
 7291SOL     OW28895   1.961   5.870   1.437 -0.5452  0.2294 -0.1274
 7291SOL    HW228896   1.907   5.853   1.514 -2.1253 -0.8331 -1.4231
 7291SOL    HW328897   1.936   5.958   1.408 -0.8001  0.1594 -0.1132
 7291SOL    MW428898   1.951   5.880   1.443  0.0947  0.1228 -0.7678
 7292SOL     OW28899   3.975   0.587   4.187  0.1512  0.1759  0.4781
 7292SOL    HW228900   3.910   0.606   4.119 -0.4844  0.8932  1.2591
 7292SOL    HW328901   3.925   0.590   4.269  0.9447 -0.4767  0.9916
 7292SOL    MW428902   3.960   0.590   4.188 -0.0254  0.4588 -0.0464
 7293SOL     OW28903   1.180   0.599   2.555 -0.8426 -0.6341 -0.5421
 7293SOL    HW228904   1.198   0.573   2.464  2.3207 -1.6661  0.2576
 7293SOL    HW328905   1.265   0.626   2.589 -2.4044  2.3643  1.3982
 7293SOL    MW428906   1.193   0.599   2.547 -0.2971 -0.8064  0.2341
 7294SOL     OW28907   4.678   3.516   4.286  0.1778  0.0201  0.0671
 7294SOL    HW228908   4.625   3.460   4.228  1.4302 -0.9701 -0.1538
 7294SOL    HW328909   4.728   3.571   4.226  1.6572 -1.1726  0.1542
 7294SOL    MW428910   4.678   3.516   4.270  0.1019  0.3513 -0.3511
 7295SOL     OW28911   3.609   2.683   2.517  0.3892  0.1305  0.2013
 7295SOL    HW228912   3.577   2.729   2.596 -0.1420  0.5279 -0.2311
 7295SOL    HW328913   3.618   2.592   2.545  0.6797  0.3514  0.8598
 7295SOL    MW428914   3.606   2.677   2.531 -0.0954  0.2423 -0.3304
 7296SOL     OW28915   4.151   2.972   4.753  0.0294  0.1267  0.5695
 7296SOL    HW228916   4.195   2.957   4.837 -0.6825 -1.4627  0.6899
 7296SOL    HW328917   4.113   2.888   4.731 -0.0781  0.6118 -1.2068
 7296SOL    MW428918   4.152   2.959   4.762  0.1026 -0.0329 -0.1295
 7297SOL     OW28919   5.047   3.962   4.303 -0.3234 -0.1917  0.1419
 7297SOL    HW228920   4.968   3.942   4.353 -1.4768 -1.1562 -1.9126
 7297SOL    HW328921   5.101   3.883   4.312 -0.4381 -0.2829  0.0370
 7297SOL    MW428922   5.044   3.949   4.311  0.4728  0.6051  0.0817
 7298SOL     OW28923   1.548   2.354   4.566  0.5682 -0.3141  0.4456
 7298SOL    HW228924   1.623   2.302   4.593  0.5517 -0.1934  0.7332
 7298SOL    HW328925   1.509   2.306   4.494  0.4310 -0.8094  0.8443
 7298SOL    MW428926   1.553   2.341   4.560 -0.4930  0.6750  0.3611
 7299SOL     OW28927   4.100   6.338   0.499  0.2004  0.7625  0.7134
 7299SOL    HW228928   4.025   6.339   0.559 -1.2378  0.2538 -0.9725
 7299SOL    HW328929   4.160   6.274   0.536 -0.7619  0.2734  1.4752
 7299SOL    MW428930   4.098   6.330   0.512  0.3015  0.5308 -0.4038
 7300SOL     OW28931   5.718   6.262   5.197  0.0874  0.1466 -0.4490
 7300SOL    HW228932   5.801   6.225   5.167  0.9312  2.0582 -0.6080
 7300SOL    HW328933   5.715   6.242   5.290  1.0676  0.6501 -0.2978
 7300SOL    MW428934   5.728   6.254   5.205  0.0505 -0.4320 -0.4156
 7301SOL     OW28935   3.464   1.462   3.778 -0.0231 -0.2371 -0.3667
 7301SOL    HW228936   3.526   1.524   3.817  1.7011 -1.7142 -0.6031
 7301SOL    HW328937   3.463   1.389   3.839 -2.8909  0.4067  0.4766
 7301SOL    MW428938   3.472   1.461   3.791  0.1219 -0.0651  0.0429
 7302SOL     OW28939   1.229   5.976   3.957  0.4274  0.6635 -0.1930
 7302SOL    HW228940   1.178   5.948   4.032 -1.2947  0.7944 -1.2686
 7302SOL    HW328941   1.220   6.071   3.955 -0.7355  0.5669 -1.3262
 7302SOL    MW428942   1.221   5.985   3.966 -0.2875 -0.6450  0.2699
 7303SOL     OW28943   5.460   2.253   4.262 -0.2242 -0.5675  0.1390
 7303SOL    HW228944   5.436   2.180   4.205 -0.6107 -0.6886  0.4553
 7303SOL    HW328945   5.495   2.320   4.202 -1.4645 -0.3368 -0.3488
 7303SOL    MW428946   5.461   2.253   4.246 -0.0103 -0.1713  0.0333
 7304SOL     OW28947   1.089   4.721   0.829  0.1284 -0.1545 -0.5062
 7304SOL    HW228948   1.060   4.642   0.876  1.2056 -1.4036 -1.8659
 7304SOL    HW328949   1.010   4.776   0.825 -1.2442 -2.0700 -1.3566
 7304SOL    MW428950   1.075   4.718   0.835 -0.4524  0.0616 -0.4691
 7305SOL     OW28951   3.820   1.534   1.824  0.6677  0.0002 -0.5846
 7305SOL    HW228952   3.731   1.514   1.852  0.3189 -0.8397 -2.1781
 7305SOL    HW328953   3.875   1.503   1.895 -0.3121  1.1363  0.7340
 7305SOL    MW428954   3.815   1.527   1.837 -0.3719 -0.3099  0.1521
 7306SOL     OW28955   4.131   0.981   3.090  0.0882 -0.0483  0.1655
 7306SOL    HW228956   4.144   1.074   3.073  3.0083  0.1051  2.4124
 7306SOL    HW328957   4.219   0.944   3.088 -0.9508 -2.7165 -0.1934
 7306SOL    MW428958   4.144   0.988   3.087  0.0736  0.3127 -0.5301
 7307SOL     OW28959   1.639   4.399   1.545  0.0690  0.0979  0.4770
 7307SOL    HW228960   1.713   4.381   1.487 -2.3963 -0.6081 -2.7844
 7307SOL    HW328961   1.667   4.369   1.631  3.4357 -0.3113 -0.6199
 7307SOL    MW428962   1.653   4.393   1.549  0.5927 -0.1461  0.1783
 7308SOL     OW28963   5.968   1.030   2.775  0.0306  0.6357 -0.4135
 7308SOL    HW228964   5.890   1.030   2.719 -0.3132 -1.5424 -0.0168
 7308SOL    HW328965   5.933   1.026   2.864  0.5718 -0.4949 -0.2408
 7308SOL    MW428966   5.953   1.030   2.780 -0.4067 -0.8415 -0.4880
 7309SOL     OW28967   0.851   2.306   2.788 -0.0853  0.3202 -0.2760
 7309SOL    HW228968   0.937   2.326   2.752  0.2733  0.1623  0.4820
 7309SOL    HW328969   0.800   2.386   2.776  0.2247  0.4765 -0.5484
 7309SOL    MW428970   0.855   2.319   2.781 -0.3336  0.2902  0.5070
 7310SOL     OW28971   0.367   0.106   3.442  0.3416 -0.1741 -0.1342
 7310SOL    HW228972   0.282   0.128   3.479  0.7383  3.4040 -0.9609
 7310SOL    HW328973   0.420   0.081   3.518 -0.6090  0.6378  0.8350
 7310SOL    MW428974   0.363   0.106   3.457  0.3803 -0.2712  0.4930
 7311SOL     OW28975   0.141   5.257   4.475 -0.1612  0.5728 -0.2115
 7311SOL    HW228976   0.085   5.213   4.411  1.3815 -1.4265 -0.2916
 7311SOL    HW328977   0.104   5.345   4.483 -2.0898 -0.0306 -1.7069
 7311SOL    MW428978   0.129   5.263   4.468  0.5589  0.6597  0.0949
 7312SOL     OW28979   4.663   6.419   4.314 -0.5039  0.3505 -0.0736
 7312SOL    HW228980   4.579   6.389   4.278  0.0056 -0.3912 -0.6821
 7312SOL    HW328981   4.640   6.496   4.365 -1.5041  0.4176 -0.5800
 7312SOL    MW428982   4.649   6.425   4.316  0.1356  0.0981 -0.3911
 7313SOL     OW28983   3.152   2.577   0.978 -0.2489  0.2573  0.1026
 7313SOL    HW228984   3.075   2.524   1.000  1.4074 -1.9568  1.0079
 7313SOL    HW328985   3.204   2.520   0.921  0.5534  1.8689 -0.8354
 7313SOL    MW428986   3.149   2.562   0.973 -0.4172  0.2723  0.0586
 7314SOL     OW28987   1.852   4.929   0.168 -0.1852  0.2935  0.3756
 7314SOL    HW228988   1.770   4.971   0.142  0.9658  2.0244 -0.6520
 7314SOL    HW328989   1.917   4.966   0.108  1.1733 -1.8800  0.4218
 7314SOL    MW428990   1.849   4.940   0.156  0.3478 -0.5461 -0.7085
 7315SOL     OW28991   0.577   5.058   4.341  0.4465  0.9594 -0.9270
 7315SOL    HW228992   0.503   5.095   4.389 -0.6170 -0.7400 -1.1823
 7315SOL    HW328993   0.616   4.994   4.401 -1.6246 -2.0683 -2.5839
 7315SOL    MW428994   0.573   5.055   4.355  0.1863 -0.4076 -0.3238
 7316SOL     OW28995   0.035   3.910   3.462 -0.4974 -0.0861 -0.2902
 7316SOL    HW228996  -0.021   3.964   3.518 -1.3637 -0.5246 -0.7058
 7316SOL    HW328997   0.050   3.964   3.385  1.5363  0.9285  0.7343
 7316SOL    MW428998   0.030   3.924   3.459  0.2150 -0.0397 -0.5237
 7317SOL     OW28999   5.145   3.501   1.995 -0.3095  0.6131  0.1236
 7317SOL    HW229000   5.127   3.574   2.054  1.5091  0.4310  0.9849
 7317SOL    HW329001   5.226   3.525   1.950  0.1655 -0.7269  0.2153
 7317SOL    MW429002   5.154   3.513   1.997 -0.5056 -0.1005  0.2486
 7318SOL     OW29003   5.723   3.068   4.142  0.1816 -0.1789 -0.4120
 7318SOL    HW229004   5.667   2.990   4.142  1.3320 -1.0442  0.1322
 7318SOL    HW329005   5.726   3.095   4.233  0.8944 -0.3418 -0.3803
 7318SOL    MW429006   5.716   3.061   4.154  0.0599  0.3508  0.1802
 7319SOL     OW29007   4.078   1.657   0.303 -0.3305  0.0751 -0.3206
 7319SOL    HW229008   4.067   1.650   0.208 -2.7257 -0.7905 -0.0420
 7319SOL    HW329009   4.060   1.569   0.336 -1.4696  0.7892  1.0689
 7319SOL    MW429010   4.075   1.644   0.295  0.1135 -0.3107  0.2432
 7320SOL     OW29011   5.595   2.443   1.969 -0.6704  0.1662 -0.1173
 7320SOL    HW229012   5.570   2.381   1.900  1.7631 -1.7899  0.6085
 7320SOL    HW329013   5.572   2.529   1.933 -1.7699 -0.9375 -2.2854
 7320SOL    MW429014   5.588   2.446   1.955  0.7271  0.3657  0.3482
 7321SOL     OW29015   1.577   4.851   4.054  0.2261  0.3017  0.3198
 7321SOL    HW229016   1.609   4.810   3.973 -1.6504  0.4769 -0.5671
 7321SOL    HW329017   1.539   4.778   4.104 -2.2426  0.7006 -0.8269
 7321SOL    MW429018   1.576   4.836   4.050 -0.6695 -0.4761 -0.2231
 7322SOL     OW29019   5.452   4.393   2.483  0.3922 -0.0278  0.9632
 7322SOL    HW229020   5.532   4.345   2.466  0.7644  0.8159  0.2053
 7322SOL    HW329021   5.428   4.430   2.397 -1.4371 -1.1935  0.9057
 7322SOL    MW429022   5.459   4.392   2.469 -0.0613  0.2557 -0.6883
 7323SOL     OW29023   3.316   3.170   1.530 -0.4061  0.4892  0.4700
 7323SOL    HW229024   3.317   3.266   1.531 -0.9305  0.5100 -0.2698
 7323SOL    HW329025   3.287   3.147   1.442 -0.6523 -0.3491  0.7577
 7323SOL    MW429026   3.312   3.180   1.519  0.0460  0.0874 -0.4567
 7324SOL     OW29027   5.738   2.250   2.277 -0.1485  0.4188 -0.3307
 7324SOL    HW229028   5.756   2.294   2.194 -0.1554  1.2237  0.0800
 7324SOL    HW329029   5.688   2.173   2.253  1.5803 -0.4808 -1.2683
 7324SOL    MW429030   5.734   2.246   2.263  0.3134 -0.3039  0.3577
 7325SOL     OW29031   1.966   1.828   3.447 -0.3791  0.0304  0.5480
 7325SOL    HW229032   1.929   1.756   3.396 -0.2425 -0.8193  1.6250
 7325SOL    HW329033   2.061   1.818   3.439 -0.3305  1.0274 -0.5554
 7325SOL    MW429034   1.973   1.817   3.439  0.0359 -0.3647  0.6209
 7326SOL     OW29035   1.616   5.578   3.745  0.2795 -0.2109  0.0823
 7326SOL    HW229036   1.673   5.511   3.784  1.4332  0.6357 -0.1171
 7326SOL    HW329037   1.664   5.660   3.754 -0.9363  0.5499 -0.0458
 7326SOL    MW429038   1.630   5.580   3.751  0.1277  0.0485 -0.1772
 7327SOL     OW29039   5.063   6.388   3.254 -0.0625 -0.5703  0.0636
 7327SOL    HW229040   5.151   6.371   3.220  0.4276 -0.6279  1.2975
 7327SOL    HW329041   5.045   6.314   3.312 -0.6183 -0.1878  0.3877
 7327SOL    MW429042   5.072   6.376   3.257 -0.4791  0.3545 -0.3542
 7328SOL     OW29043   1.654   2.033   1.607  0.7858 -0.4617 -0.3126
 7328SOL    HW229044   1.574   2.070   1.571 -0.2103 -1.7986  0.4120
 7328SOL    HW329045   1.725   2.082   1.565 -0.4040  1.2239 -0.4518
 7328SOL    MW429046   1.653   2.044   1.597 -0.9456  0.4668  0.0109
 7329SOL     OW29047   3.065   6.079   0.528 -0.2486  0.1395  0.1640
 7329SOL    HW229048   3.156   6.082   0.559 -0.4840  0.7550  0.8248
 7329SOL    HW329049   3.026   6.008   0.579  0.7872 -2.8437 -2.8272
 7329SOL    MW429050   3.072   6.070   0.539  0.3357 -0.1469  0.4833
 7330SOL     OW29051   1.407   0.062   4.750 -0.2472 -0.4243  0.3974
 7330SOL    HW229052   1.442   0.148   4.729 -0.2325 -0.1503  1.5062
 7330SOL    HW329053   1.365   0.033   4.668  0.5000  0.2440 -0.2401
 7330SOL    MW429054   1.406   0.069   4.736 -0.1250  0.1142  0.5626
 7331SOL     OW29055   4.455   2.092   3.227 -0.0310  0.7060 -0.6272
 7331SOL    HW229056   4.378   2.142   3.199 -1.1883  0.6399  2.1430
 7331SOL    HW329057   4.529   2.150   3.206 -1.0997  2.2432 -0.3829
 7331SOL    MW429058   4.455   2.107   3.220 -0.2316 -0.2408 -0.3422
 7332SOL     OW29059   2.885   2.049   2.453 -0.3369 -0.1119 -0.0999
 7332SOL    HW229060   2.827   1.987   2.409 -0.6253  0.3441 -0.3682
 7332SOL    HW329061   2.844   2.135   2.439 -0.4704  0.0367  1.1170
 7332SOL    MW429062   2.872   2.052   2.445 -0.3410  0.1013  0.2822
 7333SOL     OW29063   4.542   3.357   0.871  0.4051  0.2877  0.1464
 7333SOL    HW229064   4.600   3.295   0.915 -1.1920 -0.3629  1.3935
 7333SOL    HW329065   4.460   3.310   0.859 -0.1382  1.4405 -0.9021
 7333SOL    MW429066   4.539   3.343   0.875 -0.5500  0.6070  0.3762
 7334SOL     OW29067   2.217   0.631   5.446  0.3037 -0.6096 -0.0379
 7334SOL    HW229068   2.211   0.700   5.380  2.5092  0.3379  0.6297
 7334SOL    HW329069   2.192   0.673   5.528  0.5105 -0.9237  0.1912
 7334SOL    MW429070   2.213   0.646   5.448 -0.6414 -0.2235  0.1095
 7335SOL     OW29071   3.803   5.299   4.427 -0.1302 -0.3807  0.1313
 7335SOL    HW229072   3.833   5.323   4.339  0.9685 -0.1270  0.5633
 7335SOL    HW329073   3.713   5.331   4.430 -0.2899 -0.6615 -1.0074
 7335SOL    MW429074   3.795   5.307   4.416  0.5045 -0.0804  0.6712
 7336SOL     OW29075   3.438   4.983   1.530  0.2495 -0.2627  0.5616
 7336SOL    HW229076   3.348   4.981   1.564  1.2606  0.0252  3.4795
 7336SOL    HW329077   3.461   4.891   1.516 -0.5213 -0.3312 -0.3476
 7336SOL    MW429078   3.429   4.971   1.533  0.0200 -0.0383  0.1708
 7337SOL     OW29079   4.560   0.818   6.007 -0.4771 -0.1560  0.6148
 7337SOL    HW229080   4.549   0.821   5.912  0.3121  0.6341  0.5320
 7337SOL    HW329081   4.592   0.730   6.025 -1.0977 -0.4658  0.2038
 7337SOL    MW429082   4.563   0.807   5.997  0.3926  0.5586  0.1997
 7338SOL     OW29083   6.122   3.905   0.723  0.1091  0.4492 -0.3130
 7338SOL    HW229084   6.213   3.917   0.750  0.5782 -2.9068  0.0958
 7338SOL    HW329085   6.073   3.909   0.805 -0.2347  2.5537 -0.5655
 7338SOL    MW429086   6.128   3.907   0.738 -0.3343 -0.2065  0.0783
 7339SOL     OW29087   3.791   0.240   0.046  0.4021 -0.2017 -0.2853
 7339SOL    HW229088   3.878   0.222   0.011  0.2103  0.5566 -1.2164
 7339SOL    HW329089   3.732   0.224  -0.027 -0.1524  0.1465  0.0769
 7339SOL    MW429090   3.795   0.236   0.032  0.1491 -0.2396  0.4588
 7340SOL     OW29091   3.074   4.043   1.722 -0.0057 -0.3438  0.1650
 7340SOL    HW229092   3.007   4.065   1.658  0.7645  0.4814 -0.3938
 7340SOL    HW329093   3.029   4.042   1.806 -0.5369  1.2298 -0.0660
 7340SOL    MW429094   3.060   4.046   1.724 -0.1686 -0.5324  0.0085
 7341SOL     OW29095   5.805   3.246   5.738 -0.9454 -0.0988  0.1552
 7341SOL    HW229096   5.736   3.311   5.752  0.6533  1.8560 -0.5239
 7341SOL    HW329097   5.885   3.291   5.766  0.5922 -0.8089 -2.7284
 7341SOL    MW429098   5.807   3.261   5.744 -0.5690 -0.0607 -0.2529
 7342SOL     OW29099   3.582   2.054   0.401 -0.6250  0.3024 -1.3737
 7342SOL    HW229100   3.589   2.121   0.333  0.3253 -0.2470 -1.8398
 7342SOL    HW329101   3.669   2.014   0.404 -1.1942 -0.9914 -1.1986
 7342SOL    MW429102   3.594   2.057   0.392  0.7078 -0.0121  0.1248
 7343SOL     OW29103   3.331   6.118   2.956  0.3736  0.1774 -0.0825
 7343SOL    HW229104   3.349   6.053   3.024  0.2286 -0.5746 -0.7447
 7343SOL    HW329105   3.408   6.176   2.957 -0.6507  1.6658  2.3310
 7343SOL    MW429106   3.344   6.117   2.965  0.0061 -0.0443 -0.2002
 7344SOL     OW29107   4.995   0.100   2.862 -0.6856  0.0063  0.3512
 7344SOL    HW229108   4.937   0.176   2.871 -0.3687  0.2737  0.1132
 7344SOL    HW329109   4.948   0.041   2.804 -1.8911 -0.8994  2.1513
 7344SOL    MW429110   4.981   0.102   2.856  0.6977  0.2444  0.0517
 7345SOL     OW29111   3.699   3.390   0.261  0.3553 -0.0766  0.3098
 7345SOL    HW229112   3.613   3.413   0.226  0.4450  0.8007  0.6549
 7345SOL    HW329113   3.743   3.473   0.274  0.6778 -0.4338  1.6264
 7345SOL    MW429114   3.694   3.404   0.258 -0.5134  0.3439 -0.1319
 7346SOL     OW29115   5.948   4.975   2.272  0.1853 -0.5159 -0.2424
 7346SOL    HW229116   5.957   5.038   2.200  0.0953  0.2823  0.4436
 7346SOL    HW329117   6.031   4.981   2.319 -0.2383 -0.1255  0.4593
 7346SOL    MW429118   5.960   4.984   2.269  0.5954  0.3608  0.5384
 7347SOL     OW29119   3.645   4.356   5.812  0.3935 -0.3871  0.1065
 7347SOL    HW229120   3.669   4.293   5.744  1.5990  0.6492 -0.4748
 7347SOL    HW329121   3.717   4.419   5.812  0.0053  0.0953  1.7868
 7347SOL    MW429122   3.657   4.356   5.803  0.1305  0.0530  0.1504
 7348SOL     OW29123   4.235   3.695   5.793  0.1408  0.4539 -0.3184
 7348SOL    HW229124   4.280   3.614   5.767 -0.9106  0.6358 -3.0286
 7348SOL    HW329125   4.288   3.765   5.757 -1.0910  0.7524 -1.6627
 7348SOL    MW429126   4.248   3.693   5.785 -0.2929 -0.5832  0.2211
 7349SOL     OW29127   0.725   3.458   1.133  0.0314  0.2714  0.2043
 7349SOL    HW229128   0.767   3.456   1.047 -1.7144  1.0691 -0.7215
 7349SOL    HW329129   0.705   3.367   1.154 -0.3082  0.1464 -0.6532
 7349SOL    MW429130   0.728   3.446   1.125  0.0117  0.2557 -0.4604
 7350SOL     OW29131   5.301   4.246   1.112 -0.0195  0.4914 -0.0201
 7350SOL    HW229132   5.295   4.225   1.205  2.1168  0.4640  0.1580
 7350SOL    HW329133   5.381   4.202   1.083 -0.2399  1.1444 -1.6962
 7350SOL    MW429134   5.311   4.237   1.120 -0.5146 -0.2813 -0.1737
 7351SOL     OW29135   1.640   2.365   1.982 -0.5014 -0.2508 -0.1632
 7351SOL    HW229136   1.733   2.364   2.004 -0.9538 -1.2196  1.9970
 7351SOL    HW329137   1.597   2.331   2.061 -2.6336 -0.4493 -1.3471
 7351SOL    MW429138   1.647   2.360   1.995  0.1710 -0.3380 -0.4768
 7352SOL     OW29139   1.417   0.707   2.680  0.0371  0.2013 -0.1067
 7352SOL    HW229140   1.440   0.799   2.692  0.7597 -0.1546  1.5384
 7352SOL    HW329141   1.500   0.660   2.689 -0.6477 -0.7747  1.6035
 7352SOL    MW429142   1.431   0.713   2.683  0.1578  0.3957 -0.1426
 7353SOL     OW29143   3.742   2.645   0.957  0.3816  0.6289  0.4637
 7353SOL    HW229144   3.772   2.567   0.909  0.1316  0.1884  1.0205
 7353SOL    HW329145   3.701   2.700   0.890  0.5591  0.2835  0.0680
 7353SOL    MW429146   3.741   2.642   0.941  0.2963  0.0427 -0.0697
 7354SOL     OW29147   3.384   0.515   0.477  0.4532 -0.2424  0.0707
 7354SOL    HW229148   3.379   0.597   0.428  0.9648  0.1878  0.7259
 7354SOL    HW329149   3.305   0.467   0.452 -0.5851  1.0551  0.7386
 7354SOL    MW429150   3.373   0.519   0.468 -0.2473  0.2671  0.3451
 7355SOL     OW29151   1.870   6.164   4.409 -0.3914  0.3290  0.0795
 7355SOL    HW229152   1.870   6.156   4.313  0.4334 -0.9958  0.1554
 7355SOL    HW329153   1.920   6.243   4.427 -1.1864  0.9995 -0.5971
 7355SOL    MW429154   1.876   6.173   4.398 -1.1209 -0.2189 -0.3125
 7356SOL     OW29155   5.172   5.707   5.625  0.1075 -0.4965 -0.3052
 7356SOL    HW229156   5.246   5.650   5.646 -0.2419 -0.8986 -0.1510
 7356SOL    HW329157   5.113   5.697   5.699 -0.8404 -1.4169 -1.1594
 7356SOL    MW429158   5.174   5.698   5.637  0.5942  0.2112 -0.2335
 7357SOL     OW29159   1.144   6.059   0.592 -0.3271  0.0951  0.1973
 7357SOL    HW229160   1.218   6.017   0.549 -1.0360 -0.4202 -0.5615
 7357SOL    HW329161   1.168   6.151   0.599 -0.2016  0.1945 -1.3328
 7357SOL    MW429162   1.157   6.065   0.588 -0.2381  0.0428 -0.4454
 7358SOL     OW29163   5.151   0.225   3.384  0.3469  0.3597 -0.1939
 7358SOL    HW229164   5.155   0.285   3.310  3.1592  1.5034  0.7257
 7358SOL    HW329165   5.116   0.144   3.348  1.6370  0.8469 -2.7936
 7358SOL    MW429166   5.147   0.223   3.370 -0.0617  0.2079 -0.2025
 7359SOL     OW29167   2.948   4.765   6.058 -0.3752 -0.6958 -0.0986
 7359SOL    HW229168   3.026   4.759   6.003 -0.5009  0.7822 -0.4836
 7359SOL    HW329169   2.969   4.833   6.123 -1.8653  0.8808 -1.1798
 7359SOL    MW429170   2.961   4.774   6.059 -0.3311  0.1040  0.8340
 7360SOL     OW29171   4.610   2.486   2.981 -0.8986 -0.2968 -0.2348
 7360SOL    HW229172   4.613   2.556   2.915 -1.7043  1.1241  1.1730
 7360SOL    HW329173   4.537   2.431   2.953 -0.3566 -0.5010 -1.2807
 7360SOL    MW429174   4.601   2.488   2.968  0.1938  0.1942  0.0540
 7361SOL     OW29175   4.839   1.173   2.639  0.6853  0.2125 -0.3013
 7361SOL    HW229176   4.795   1.190   2.556  1.1217  3.7398  0.0565
 7361SOL    HW329177   4.932   1.181   2.618  0.9167 -1.0145  0.1681
 7361SOL    MW429178   4.845   1.176   2.625 -0.3364  0.3644 -0.6569
 7362SOL     OW29179   1.461   1.675   5.787 -0.4525 -0.6218 -0.7548
 7362SOL    HW229180   1.532   1.735   5.811  1.7459 -2.9789 -1.0151
 7362SOL    HW329181   1.469   1.665   5.692 -0.8081 -1.2886 -0.7167
 7362SOL    MW429182   1.471   1.682   5.778 -0.2260 -0.2689 -0.2997
 7363SOL     OW29183   0.391   0.839   1.119 -0.0738  0.3302 -0.4640
 7363SOL    HW229184   0.315   0.864   1.066 -0.1848 -3.1642 -2.2268
 7363SOL    HW329185   0.357   0.837   1.209 -2.1427 -1.0418 -1.1873
 7363SOL    MW429186   0.376   0.842   1.124 -0.2024  0.2359  0.4830
 7364SOL     OW29187   5.694   4.475   4.337  0.2386 -0.0035  0.3915
 7364SOL    HW229188   5.725   4.505   4.251 -1.6099 -0.5747 -0.5148
 7364SOL    HW329189   5.608   4.515   4.347 -0.4502 -1.5830  1.0512
 7364SOL    MW429190   5.687   4.484   4.327 -0.0144 -0.1891 -0.1973
 7365SOL     OW29191   3.262   0.086   4.847  0.5186 -0.4984 -0.0575
 7365SOL    HW229192   3.174   0.080   4.809  0.7577  0.4209 -0.7844
 7365SOL    HW329193   3.317   0.117   4.775  1.1619  0.3834  0.7919
 7365SOL    MW429194   3.258   0.089   4.832 -0.4320  0.1801 -0.2522
 7366SOL     OW29195   2.489   1.706   1.847  0.0370 -0.0686  0.4497
 7366SOL    HW229196   2.558   1.772   1.838 -0.1131  0.1260  0.7371
 7366SOL    HW329197   2.517   1.635   1.789  0.2999  0.1607  0.2926
 7366SOL    MW429198   2.502   1.705   1.838 -0.5489 -0.6826  0.2644
 7367SOL     OW29199   5.704   3.330   1.164  0.0279  0.1728  0.1909
 7367SOL    HW229200   5.630   3.338   1.104  0.1336 -0.2990 -0.0025
 7367SOL    HW329201   5.764   3.270   1.121  0.3740  0.2907  0.5016
 7367SOL    MW429202   5.702   3.323   1.150  0.0722 -0.2469 -0.7279
 7368SOL     OW29203   2.461   2.669   4.230 -0.0038 -0.3923 -0.2693
 7368SOL    HW229204   2.502   2.616   4.298 -1.4946 -1.2958 -0.0252
 7368SOL    HW329205   2.405   2.608   4.183 -2.0706  0.9874  0.2593
 7368SOL    MW429206   2.459   2.654   4.233  0.3160 -0.4368 -0.3568
 7369SOL     OW29207   0.040   2.821   1.014  0.2907  0.6754 -0.1465
 7369SOL    HW229208   0.028   2.733   1.051  0.4603  0.4731 -0.5568
 7369SOL    HW329209  -0.002   2.880   1.076  1.2004  0.4216  0.7342
 7369SOL    MW429210   0.033   2.817   1.027  0.0049 -0.3384 -0.0243
 7370SOL     OW29211   2.633   2.288   4.263  0.5725 -0.3473  0.4510
 7370SOL    HW229212   2.685   2.310   4.186 -0.2802 -0.3052 -0.1335
 7370SOL    HW329213   2.546   2.270   4.228  0.5075 -1.7504  1.2333
 7370SOL    MW429214   2.628   2.288   4.248  0.3944 -0.0583 -0.2527
 7371SOL     OW29215   5.343   2.712   0.051  0.1187 -0.5431 -0.2087
 7371SOL    HW229216   5.369   2.801   0.072  1.2891 -1.1238  0.9465
 7371SOL    HW329217   5.270   2.693   0.109 -1.3785  0.2629 -1.7572
 7371SOL    MW429218   5.337   2.721   0.061 -0.3566  0.3877  0.4577
 7372SOL     OW29219   5.458   3.519   3.658 -0.2271 -0.1107  0.4480
 7372SOL    HW229220   5.375   3.553   3.691  0.2040  0.2098  1.2422
 7372SOL    HW329221   5.505   3.490   3.736  1.5935  2.3633  0.4061
 7372SOL    MW429222   5.454   3.520   3.673 -0.5392  0.6230 -0.6296
 7373SOL     OW29223   3.820   4.851   3.256  0.2799 -0.3897  0.3976
 7373SOL    HW229224   3.753   4.803   3.305 -1.7467  1.8024 -0.0732
 7373SOL    HW329225   3.880   4.883   3.324 -0.0190 -1.0622  0.9969
 7373SOL    MW429226   3.819   4.849   3.272 -0.0634 -0.2960 -0.3773
 7374SOL     OW29227   3.811   5.793   5.669  0.7631 -0.6870 -0.0319
 7374SOL    HW229228   3.770   5.776   5.584 -0.7780  0.6423  0.3964
 7374SOL    HW329229   3.873   5.864   5.652  0.4941 -0.4579 -0.0565
 7374SOL    MW429230   3.814   5.800   5.655  0.8271  0.4931  0.0998
 7375SOL     OW29231   3.573   2.760   5.819 -0.7887  0.0954  0.2782
 7375SOL    HW229232   3.485   2.759   5.856 -1.5685 -0.0309 -1.4759
 7375SOL    HW329233   3.588   2.669   5.792 -0.1513  0.1365  0.4738
 7375SOL    MW429234   3.563   2.748   5.820  0.1379 -0.0235 -0.5920
 7376SOL     OW29235   3.322   0.993   0.664 -0.0432 -0.3061  0.9500
 7376SOL    HW229236   3.351   1.032   0.746  0.3799 -1.8670  1.5890
 7376SOL    HW329237   3.390   1.016   0.601  0.4310 -0.3881  1.4228
 7376SOL    MW429238   3.335   1.001   0.666  1.0584 -0.3314 -0.2862
 7377SOL     OW29239   4.403   1.345   5.359  0.4985  0.0195  0.5756
 7377SOL    HW229240   4.356   1.294   5.293  0.0250 -0.3494  1.1739
 7377SOL    HW329241   4.467   1.284   5.395 -0.5345 -0.4157  1.7797
 7377SOL    MW429242   4.405   1.330   5.355  0.0311 -0.4098 -0.2001
 7378SOL     OW29243   6.371   6.126   3.799 -0.2558  0.6110 -0.3687
 7378SOL    HW229244   6.325   6.046   3.770  0.0786  0.3556 -0.1963
 7378SOL    HW329245   6.306   6.172   3.852  0.2212 -0.6152  1.3863
 7378SOL    MW429246   6.356   6.121   3.802  0.3116 -0.5088 -0.1800
 7379SOL     OW29247   3.087   5.327   3.237  0.2767 -0.1393 -0.3447
 7379SOL    HW229248   3.048   5.379   3.167 -2.9658 -1.1354  0.5383
 7379SOL    HW329249   3.051   5.363   3.317  0.3609 -1.7857  0.4853
 7379SOL    MW429250   3.077   5.338   3.238 -0.2854  0.4860  0.4773
 7380SOL     OW29251   0.201   0.993   4.920  0.0676 -0.4605  0.1541
 7380SOL    HW229252   0.154   1.069   4.885  0.3535 -1.3402 -2.3360
 7380SOL    HW329253   0.264   1.030   4.983 -0.8882  1.1595  0.2067
 7380SOL    MW429254   0.203   1.008   4.924  0.2807 -0.5336 -1.0590
 7381SOL     OW29255   1.784   4.204   0.036 -0.1842 -0.0777 -0.4486
 7381SOL    HW229256   1.703   4.162   0.065  0.2161  0.3292  1.3768
 7381SOL    HW329257   1.761   4.296   0.025 -0.5580 -0.3570 -2.4699
 7381SOL    MW429258   1.770   4.211   0.038 -0.0265  0.6759 -0.3319
 7382SOL     OW29259   5.324   4.043   2.353  0.3113 -0.0634 -0.0785
 7382SOL    HW229260   5.383   3.970   2.372  0.4464 -0.0809 -0.5637
 7382SOL    HW329261   5.272   4.052   2.433  0.7050 -0.2980  0.2072
 7382SOL    MW429262   5.325   4.034   2.366  0.0503 -0.4522  0.2720
 7383SOL     OW29263   2.462   6.169   5.187 -0.0143  0.1597  0.3102
 7383SOL    HW229264   2.443   6.141   5.098 -1.5233 -2.1023  1.2097
 7383SOL    HW329265   2.386   6.138   5.238 -0.8311  4.2161  1.9253
 7383SOL    MW429266   2.449   6.161   5.182 -0.1797  0.6912  0.2713
 7384SOL     OW29267   1.661   0.853   1.906  0.0894 -0.2887  0.6384
 7384SOL    HW229268   1.668   0.759   1.922  1.8843 -0.1687  0.8076
 7384SOL    HW329269   1.649   0.891   1.993 -0.2930 -0.3316  0.6057
 7384SOL    MW429270   1.660   0.845   1.920  0.2672 -0.4800 -0.6017
 7385SOL     OW29271   3.162   6.258   1.942  0.1521  0.0660 -0.0729
 7385SOL    HW229272   3.086   6.306   1.975  1.2842  0.8988  1.4611
 7385SOL    HW329273   3.222   6.327   1.913 -0.2090 -0.6057 -2.6812
 7385SOL    MW429274   3.160   6.274   1.942  0.1826  0.7075  0.0124
 7386SOL     OW29275   0.426   4.542   2.503 -0.7394  0.2794 -0.3812
 7386SOL    HW229276   0.513   4.562   2.537 -0.3911 -0.9661 -0.4585
 7386SOL    HW329277   0.372   4.617   2.527 -0.0024  0.3898  1.0209
 7386SOL    MW429278   0.431   4.554   2.510 -0.4778 -0.3848  0.1572
 7387SOL     OW29279   1.020   4.994   5.737  0.0215  0.0877  0.3987
 7387SOL    HW229280   0.968   5.023   5.662 -1.3270  0.7092  1.5359
 7387SOL    HW329281   1.057   5.074   5.773 -2.2546  0.3060  2.4762
 7387SOL    MW429282   1.018   5.008   5.732  0.1206  0.0179  0.3292
 7388SOL     OW29283   4.740   3.639   1.895 -0.6388  0.3558 -0.4698
 7388SOL    HW229284   4.824   3.615   1.856  0.3934  1.2419  1.0759
 7388SOL    HW329285   4.762   3.707   1.959 -1.9691 -2.0051  2.7377
 7388SOL    MW429286   4.754   3.645   1.898 -0.4082  0.1667  0.1589
 7389SOL     OW29287   4.417   4.240   0.206 -0.0300  0.2298  0.2793
 7389SOL    HW229288   4.326   4.246   0.178  0.1114  0.2229 -0.2011
 7389SOL    HW329289   4.423   4.155   0.250 -0.1259 -0.0290 -0.1947
 7389SOL    MW429290   4.406   4.229   0.208 -0.3416 -0.5568 -0.1106
 7390SOL     OW29291   1.809   2.745   3.457  0.4360  0.2807  0.1315
 7390SOL    HW229292   1.819   2.827   3.506 -0.0854 -0.1297  0.9326
 7390SOL    HW329293   1.751   2.692   3.510  0.0889 -0.2933 -0.7999
 7390SOL    MW429294   1.803   2.749   3.470  0.0288  0.0954  0.0003
 7391SOL     OW29295   5.539   2.489   4.095 -0.3473 -0.3355 -0.3216
 7391SOL    HW229296   5.468   2.515   4.036 -0.4127 -1.8274 -0.9434
 7391SOL    HW329297   5.601   2.443   4.039  0.8652  0.4580  0.3251
 7391SOL    MW429298   5.538   2.486   4.080  0.0093  0.0988 -0.3052
 7392SOL     OW29299   4.860   2.603   1.277  0.4268  0.7038 -0.6060
 7392SOL    HW229300   4.809   2.608   1.358  1.4470 -0.7072  0.1716
 7392SOL    HW329301   4.832   2.521   1.236  0.8787  0.7365 -0.9897
 7392SOL    MW429302   4.850   2.593   1.282  0.2926  0.0443 -0.7623
 7393SOL     OW29303   3.333   4.259   4.322  0.0036  0.0229 -0.0438
 7393SOL    HW229304   3.276   4.202   4.374  0.4247 -2.5407 -2.2015
 7393SOL    HW329305   3.368   4.202   4.254  2.5026  2.3281 -0.8313
 7393SOL    MW429306   3.330   4.244   4.320  1.2952 -0.0620  0.5809
 7394SOL     OW29307   4.882   0.350   2.776 -0.4420  0.4979 -0.2037
 7394SOL    HW229308   4.957   0.364   2.719 -0.8159 -0.1568 -0.8649
 7394SOL    HW329309   4.806   0.361   2.719 -0.8225  0.0320  0.2084
 7394SOL    MW429310   4.882   0.353   2.761 -0.1850 -0.3186  0.0934
 7395SOL     OW29311   4.789   3.413   4.533  0.7055 -0.0186 -0.4959
 7395SOL    HW229312   4.699   3.407   4.563  1.5588 -1.9543  1.9697
 7395SOL    HW329313   4.793   3.355   4.456  0.2672 -1.5677  0.6097
 7395SOL    MW429314   4.778   3.405   4.527 -0.4500 -0.1084  0.0405
 7396SOL     OW29315   1.265   6.274   1.464 -0.0113  0.8307 -0.6872
 7396SOL    HW229316   1.187   6.219   1.470  0.0444  0.9379  1.6275
 7396SOL    HW329317   1.253   6.323   1.382 -1.4439 -0.5066 -1.3222
 7396SOL    MW429318   1.253   6.273   1.454  0.1469 -0.1048  0.2295
 7397SOL     OW29319   4.233   6.033   2.640 -0.4214 -0.2362 -0.5031
 7397SOL    HW229320   4.143   6.055   2.616 -1.0685 -1.7276  0.4028
 7397SOL    HW329321   4.226   5.999   2.729  1.1409  0.2253 -0.1738
 7397SOL    MW429322   4.220   6.032   2.649  0.9245  0.1698 -0.0200
 7398SOL     OW29323   5.537   0.472   5.290 -0.1221  0.0042  0.3262
 7398SOL    HW229324   5.498   0.420   5.219  1.4396  0.2667 -0.7875
 7398SOL    HW329325   5.631   0.456   5.282  0.4400  3.0608 -0.1460
 7398SOL    MW429326   5.545   0.463   5.279 -0.5335  0.2195  0.2506
 7399SOL     OW29327   0.576   0.283   3.578 -0.0338  0.2603 -0.6320
 7399SOL    HW229328   0.517   0.321   3.512 -1.4138 -1.0207 -0.1847
 7399SOL    HW329329   0.559   0.334   3.657  0.9774  1.2132 -0.9948
 7399SOL    MW429330   0.566   0.295   3.580 -0.8040  0.5096  0.4957
 7400SOL     OW29331   4.993   5.896   2.996 -0.5154  0.0071 -0.2651
 7400SOL    HW229332   5.027   5.905   3.085  1.3357 -1.7957 -0.7157
 7400SOL    HW329333   4.994   5.985   2.960 -0.7503  0.6692  1.3085
 7400SOL    MW429334   4.997   5.909   3.003  0.2635 -0.2405 -0.2343
 7401SOL     OW29335   1.213   0.600   5.845 -0.4541  0.4000 -0.5157
 7401SOL    HW229336   1.181   0.600   5.755  1.4118 -3.0731 -1.3604
 7401SOL    HW329337   1.135   0.587   5.898 -1.2514 -1.3402 -1.9974
 7401SOL    MW429338   1.199   0.598   5.840 -0.3988  0.4258  0.4324
 7402SOL     OW29339   5.334   0.755   6.418 -0.4779 -0.0619 -0.1039
 7402SOL    HW229340   5.260   0.767   6.478 -1.8795  0.0179 -1.7812
 7402SOL    HW329341   5.349   0.661   6.417 -1.0827 -0.1593 -0.3535
 7402SOL    MW429342   5.326   0.744   6.426  0.6005  0.0034  0.0383
 7403SOL     OW29343   2.055   3.830   3.318 -0.3015 -0.3881 -0.5191
 7403SOL    HW229344   2.110   3.818   3.396  0.8862  1.0301 -1.0840
 7403SOL    HW329345   2.067   3.750   3.267  0.3406 -0.5695 -0.0920
 7403SOL    MW429346   2.064   3.818   3.321  0.1081 -0.2130  0.0393
 7404SOL     OW29347   5.276   3.454   5.275  0.6716 -0.5419  0.1164
 7404SOL    HW229348   5.327   3.534   5.266  0.1851 -0.2058  0.3033
 7404SOL    HW329349   5.189   3.477   5.242 -0.3430 -0.0967  2.8832
 7404SOL    MW429350   5.271   3.468   5.269  0.3883 -0.1056  0.1368
 7405SOL     OW29351   0.865   2.949   1.483  0.0969  0.2511 -0.0460
 7405SOL    HW229352   0.795   2.891   1.513  0.5946 -0.2418  0.1768
 7405SOL    HW329353   0.819   3.025   1.446 -0.5559 -0.1878 -0.1540
 7405SOL    MW429354   0.850   2.952   1.482 -0.1439  0.2164  0.4472
 7406SOL     OW29355   1.206   0.520   2.291  0.2628  0.2024 -0.8434
 7406SOL    HW229356   1.179   0.586   2.228  1.2911  1.7809  0.2852
 7406SOL    HW329357   1.299   0.508   2.275  0.5552  0.6857  0.3822
 7406SOL    MW429358   1.215   0.527   2.281 -0.0940 -0.1075  0.2976
 7407SOL     OW29359   1.114   4.865   2.360 -0.1859  0.1418 -0.3482
 7407SOL    HW229360   1.168   4.793   2.395 -0.6329 -1.0154 -1.9363
 7407SOL    HW329361   1.092   4.838   2.271 -1.7107  1.5225 -0.4450
 7407SOL    MW429362   1.118   4.852   2.353  0.2451 -0.2313  0.1486
 7408SOL     OW29363   0.616   5.213   1.408 -0.3212  0.4496 -0.5474
 7408SOL    HW229364   0.674   5.282   1.441  0.8571 -1.3478  1.3807
 7408SOL    HW329365   0.572   5.180   1.486  0.2999 -1.9849 -1.1524
 7408SOL    MW429366   0.618   5.218   1.422  0.1135  0.1921 -0.0858
 7409SOL     OW29367   6.240   6.259   0.347 -0.0272 -0.4809  0.2845
 7409SOL    HW229368   6.250   6.183   0.289 -1.2104  0.7239 -1.5910
 7409SOL    HW329369   6.145   6.275   0.349 -0.0649 -0.7210  2.9347
 7409SOL    MW429370   6.229   6.251   0.339 -0.2537  0.1644  0.1029
 7410SOL     OW29371   1.357   1.857   0.247 -0.7582  0.4587  0.2497
 7410SOL    HW229372   1.347   1.952   0.246  0.1658  0.5643  0.1522
 7410SOL    HW329373   1.416   1.838   0.174 -3.1191 -0.4823 -1.5738
 7410SOL    MW429374   1.363   1.867   0.237  0.1110  0.3002 -0.3913
 7411SOL     OW29375   6.034   6.329   5.148  0.7851 -0.1561  0.4470
 7411SOL    HW229376   6.124   6.305   5.126 -0.5989 -2.9046 -3.4069
 7411SOL    HW329377   6.009   6.269   5.218  1.5769 -0.0947  0.7938
 7411SOL    MW429378   6.043   6.318   5.154  0.0129 -0.0198 -0.3678
 7412SOL     OW29379   3.452   0.458   5.794 -0.2752 -0.1708 -1.0912
 7412SOL    HW229380   3.472   0.374   5.752  0.1813  0.3337 -1.9286
 7412SOL    HW329381   3.515   0.519   5.756 -0.3683  0.4852 -0.2338
 7412SOL    MW429382   3.463   0.455   5.783 -0.0050 -0.0217 -0.0942
 7413SOL     OW29383   2.736   2.083   5.456  0.3449 -0.0165 -0.5536
 7413SOL    HW229384   2.751   2.129   5.374  2.2108  0.4503  0.0004
 7413SOL    HW329385   2.730   1.990   5.431 -1.3780  0.2843 -1.4317
 7413SOL    MW429386   2.737   2.077   5.442  0.5303 -0.1314 -0.2732
 7414SOL     OW29387   2.874   2.267   0.828  0.3747  0.5158 -0.2103
 7414SOL    HW229388   2.912   2.311   0.904  0.2075 -0.1945  0.2961
 7414SOL    HW329389   2.949   2.237   0.777  0.4888  1.2294 -0.4811
 7414SOL    MW429390   2.889   2.269   0.831 -0.5560  0.4991  0.0415
 7415SOL     OW29391   3.236   5.849   0.440 -0.5625  0.3543 -0.0338
 7415SOL    HW229392   3.257   5.798   0.361 -0.4603  0.1272  0.1374
 7415SOL    HW329393   3.191   5.927   0.408 -3.2961 -1.1436 -0.1312
 7415SOL    MW429394   3.233   5.852   0.425 -0.5487  0.1628 -0.0123
 7416SOL     OW29395   4.799   0.568   0.260 -0.5822  0.0037  0.1276
 7416SOL    HW229396   4.800   0.663   0.273 -1.8475 -0.2404  2.5624
 7416SOL    HW329397   4.830   0.532   0.343  3.0966 -1.7737 -1.7619
 7416SOL    MW429398   4.803   0.576   0.273 -0.2054  0.1100  0.1015
 7417SOL     OW29399   0.612   0.931   5.785  0.7507 -0.1128 -0.3829
 7417SOL    HW229400   0.636   0.936   5.878  1.4045 -0.6654 -0.5116
 7417SOL    HW329401   0.627   1.019   5.752  1.1441 -0.0713 -0.1041
 7417SOL    MW429402   0.617   0.943   5.793 -0.4085  0.4235  0.4008
 7418SOL     OW29403   4.746   1.669   6.182 -0.1974 -0.5279  0.0418
 7418SOL    HW229404   4.760   1.614   6.259  0.6793 -0.5209 -0.1080
 7418SOL    HW329405   4.832   1.705   6.161 -0.5887  0.1713 -0.4192
 7418SOL    MW429406   4.759   1.666   6.189  0.4161 -0.0202  0.6947
 7419SOL     OW29407   1.756   5.398   5.642 -0.7611  0.3454 -0.4749
 7419SOL    HW229408   1.679   5.449   5.614 -0.7966 -0.2965 -1.6149
 7419SOL    HW329409   1.821   5.414   5.573  0.0188  0.6132  0.3122
 7419SOL    MW429410   1.754   5.407   5.629 -0.3701  0.3283  0.6143
 7420SOL     OW29411   5.223   0.489   2.215  0.5226  0.5968  0.6882
 7420SOL    HW229412   5.140   0.501   2.261  0.5183  1.3670  0.5050
 7420SOL    HW329413   5.240   0.574   2.174  0.6502  0.0056 -0.5272
 7420SOL    MW429414   5.215   0.502   2.216 -0.2536  0.3148  0.2733
 7421SOL     OW29415   4.199   4.090   3.112 -0.2247  0.0062  0.8062
 7421SOL    HW229416   4.198   4.177   3.073  0.5990 -0.2838  0.0906
 7421SOL    HW329417   4.161   4.033   3.045 -0.2391 -0.2726  1.0472
 7421SOL    MW429418   4.194   4.094   3.098 -0.2372 -0.2047  0.3755
 7422SOL     OW29419   3.760   1.624   5.457 -0.5311  0.1040  0.1346
 7422SOL    HW229420   3.803   1.623   5.372 -1.1124  0.2699 -0.1658
 7422SOL    HW329421   3.827   1.593   5.518  0.0155  0.3814 -0.3189
 7422SOL    MW429422   3.775   1.620   5.454  0.1911 -0.2477 -0.3231
 7423SOL     OW29423   5.676   2.907   1.691  0.4789 -0.1167  0.1653
 7423SOL    HW229424   5.594   2.948   1.716 -0.6263 -1.4700 -1.0619
 7423SOL    HW329425   5.676   2.908   1.595  1.9824  0.0121  0.1369
 7423SOL    MW429426   5.665   2.913   1.682  0.0792 -0.7121 -0.4362
 7424SOL     OW29427   5.106   6.217   4.620 -0.2495  0.3978 -0.1049
 7424SOL    HW229428   5.135   6.138   4.574 -0.9837  1.4007 -2.4300
 7424SOL    HW329429   5.020   6.237   4.582 -0.0087  2.4230  0.2839
 7424SOL    MW429430   5.098   6.209   4.609  0.2248  0.0281  0.0316
 7425SOL     OW29431   1.124   0.648   3.208 -0.3047  0.0218 -0.0885
 7425SOL    HW229432   1.094   0.559   3.191  0.2507 -0.2209  0.1706
 7425SOL    HW329433   1.046   0.703   3.194 -0.2964 -0.3288 -1.6896
 7425SOL    MW429434   1.110   0.644   3.204  0.3142  0.1859  0.7027
 7426SOL     OW29435   4.358   2.657   1.290 -0.0864  0.2214 -0.0808
 7426SOL    HW229436   4.403   2.726   1.241 -1.0012  0.7623 -0.1806
 7426SOL    HW329437   4.309   2.704   1.357  0.4317 -0.4444  0.7933
 7426SOL    MW429438   4.357   2.672   1.293  0.1523  0.3530 -0.5706
 7427SOL     OW29439   1.942   2.048   5.105 -0.0590  0.0347  0.4219
 7427SOL    HW229440   1.950   2.142   5.089  0.8071 -0.0340  0.4306
 7427SOL    HW329441   1.848   2.035   5.122 -0.5050  0.6238 -1.3247
 7427SOL    MW429442   1.930   2.059   5.105  0.3863 -0.1658  0.1997
 7428SOL     OW29443   0.303   0.069   5.736 -0.4654  0.0949 -0.1904
 7428SOL    HW229444   0.248   0.044   5.811  0.1682 -1.5726 -0.2420
 7428SOL    HW329445   0.267   0.021   5.662 -0.6924  1.2447 -0.8533
 7428SOL    MW429446   0.291   0.060   5.736  0.1722  0.1437 -0.1672
 7429SOL     OW29447   5.516   6.088   2.868  0.1027  0.1644  0.3198
 7429SOL    HW229448   5.567   6.142   2.929 -0.8235  0.1376  1.1506
 7429SOL    HW329449   5.429   6.127   2.870  0.0039  0.0181 -0.8315
 7429SOL    MW429450   5.511   6.101   2.877  0.3708 -0.3863 -0.5198
 7430SOL     OW29451   4.087   1.320   3.123  0.3426 -0.1284 -0.4085
 7430SOL    HW229452   4.087   1.394   3.183  1.2068 -0.9147  0.5798
 7430SOL    HW329453   4.178   1.291   3.120  0.3096 -0.1616 -2.0434
 7430SOL    MW429454   4.099   1.326   3.130 -0.0670 -0.2806 -0.3225
 7431SOL     OW29455   0.858   2.969   2.500  0.3273  0.0018 -0.4576
 7431SOL    HW229456   0.942   2.948   2.541 -0.0634  0.6782  0.7431
 7431SOL    HW329457   0.793   2.935   2.561 -0.2718  0.7062 -0.6908
 7431SOL    MW429458   0.861   2.962   2.514  0.0307 -0.0093  0.0991
 7432SOL     OW29459   5.524   5.666   0.190 -0.4698 -0.3950 -0.4873
 7432SOL    HW229460   5.543   5.601   0.257  0.9525 -0.4155 -0.8937
 7432SOL    HW329461   5.608   5.685   0.149 -1.2392 -0.0474 -1.9783
 7432SOL    MW429462   5.538   5.660   0.194 -0.6542  0.0826  0.6129
 7433SOL     OW29463   0.502   4.311   0.191  0.0200 -0.5065 -0.0341
 7433SOL    HW229464   0.592   4.328   0.217 -0.5044  0.6534  1.1676
 7433SOL    HW329465   0.509   4.256   0.114  1.7361 -1.6956  0.8933
 7433SOL    MW429466   0.515   4.306   0.185 -0.8275  0.1137  0.0681
 7434SOL     OW29467   1.343   3.002   0.286 -0.0657  0.6140 -0.3001
 7434SOL    HW229468   1.336   3.081   0.340 -0.4397 -0.3773  1.1625
 7434SOL    HW329469   1.254   2.967   0.283  0.3168 -0.4650  0.2270
 7434SOL    MW429470   1.330   3.008   0.293 -0.7807 -0.0451 -0.3692
 7435SOL     OW29471   1.942   4.223   0.729 -0.1082  0.3634  0.2831
 7435SOL    HW229472   1.991   4.283   0.672 -0.4849  0.2651 -0.1445
 7435SOL    HW329473   1.976   4.241   0.817 -0.5687  1.5604  0.2313
 7435SOL    MW429474   1.953   4.234   0.733 -0.8132 -0.2258  0.3966
 7436SOL     OW29475   5.467   1.550   1.339  0.4904 -0.0145  0.3669
 7436SOL    HW229476   5.426   1.582   1.419 -1.7624 -0.9274 -0.3418
 7436SOL    HW329477   5.547   1.603   1.330  1.3357 -0.5182  3.6445
 7436SOL    MW429478   5.472   1.561   1.348 -0.7469 -0.2156 -0.1186
 7437SOL     OW29479   1.231   4.198   4.951 -0.4673  0.5156 -0.4617
 7437SOL    HW229480   1.315   4.155   4.969 -1.8510 -0.9922  3.3526
 7437SOL    HW329481   1.244   4.288   4.979 -0.2601  0.1452  0.6747
 7437SOL    MW429482   1.244   4.204   4.957  0.1638 -0.0488  0.1039
 7438SOL     OW29483   0.707   6.297   5.789  0.4878  0.0048  0.3258
 7438SOL    HW229484   0.695   6.249   5.707 -1.6097  0.8336  0.0630
 7438SOL    HW329485   0.795   6.334   5.783 -0.0927  1.2018 -2.2444
 7438SOL    MW429486   0.717   6.296   5.778  0.2514  0.2400  0.5076
 7439SOL     OW29487   4.812   4.924   2.360  0.0624 -0.2236  0.2078
 7439SOL    HW229488   4.812   4.829   2.358  1.2003 -0.2284 -0.3673
 7439SOL    HW329489   4.733   4.947   2.409 -0.3333 -1.4477  0.1804
 7439SOL    MW429490   4.802   4.915   2.366  0.2021 -0.2874 -0.0033
 7440SOL     OW29491   0.174   1.363   2.059  0.2230  0.0610  0.2701
 7440SOL    HW229492   0.082   1.387   2.044  0.3457 -0.2165 -1.0826
 7440SOL    HW329493   0.191   1.294   1.995  1.3606  0.0448  0.5698
 7440SOL    MW429494   0.164   1.357   2.048  0.2136 -0.4040  0.5387
 7441SOL     OW29495   0.083   2.085   1.016 -0.1223 -0.0490 -0.2284
 7441SOL    HW229496   0.017   2.017   1.026  0.8879 -0.7043  3.2551
 7441SOL    HW329497   0.040   2.166   1.042  0.0633 -0.2789  0.8439
 7441SOL    MW429498   0.069   2.086   1.021  1.1620 -0.2847 -0.3374
 7442SOL     OW29499   4.577   1.972   5.515  0.8059  0.2460 -0.2082
 7442SOL    HW229500   4.604   1.930   5.433 -0.5561  0.5277 -0.8241
 7442SOL    HW329501   4.538   2.055   5.488 -1.1676 -0.3813  0.5456
 7442SOL    MW429502   4.576   1.977   5.500 -0.1065  0.1668 -0.2068
 7443SOL     OW29503   3.490   2.373   4.728  0.1769  0.1457 -0.7754
 7443SOL    HW229504   3.508   2.279   4.737 -0.3193 -0.1874 -2.7073
 7443SOL    HW329505   3.462   2.383   4.637 -0.0339  2.1430 -0.5344
 7443SOL    MW429506   3.489   2.362   4.717 -0.5961 -0.2295  0.2679
 7444SOL     OW29507   5.429   3.041   2.897  0.3608 -0.0079 -0.6017
 7444SOL    HW229508   5.336   3.024   2.881 -0.1101  2.5538 -0.9774
 7444SOL    HW329509   5.474   2.993   2.827 -0.7911  0.1223 -1.4583
 7444SOL    MW429510   5.423   3.032   2.886 -0.6207 -0.6932 -0.2492
 7445SOL     OW29511   0.766   0.444   1.588  0.1593  0.3492 -0.1004
 7445SOL    HW229512   0.764   0.366   1.643 -0.5602  0.3324 -0.1381
 7445SOL    HW329513   0.712   0.508   1.635  0.3132  0.6437 -0.3234
 7445SOL    MW429514   0.758   0.442   1.602 -0.2623  0.2542  0.8583
 7446SOL     OW29515   4.485   2.327   1.173 -0.3470 -0.1752 -0.5842
 7446SOL    HW229516   4.437   2.364   1.099 -1.7997 -0.6993  0.0436
 7446SOL    HW329517   4.571   2.368   1.170 -0.9403  1.0440 -1.5881
 7446SOL    MW429518   4.490   2.337   1.163 -0.1807  0.0184 -0.1391
 7447SOL     OW29519   1.188   2.189   6.017 -0.9837  0.2662 -0.1267
 7447SOL    HW229520   1.184   2.129   5.942 -1.6524  0.2187 -0.0555
 7447SOL    HW329521   1.258   2.250   5.993 -1.2366  0.2972 -0.8303
 7447SOL    MW429522   1.197   2.189   6.004  0.1051 -0.4189 -0.6544
 7448SOL     OW29523   5.559   0.681   4.571  0.1784  0.2448 -0.2538
 7448SOL    HW229524   5.594   0.751   4.517  0.9209  1.2321  1.4235
 7448SOL    HW329525   5.467   0.703   4.583  0.3668  0.8587  0.1192
 7448SOL    MW429526   5.552   0.693   4.565 -0.1555  0.1534 -0.5437
 7449SOL     OW29527   5.801   2.445   5.435 -0.3319  0.4047 -0.0454
 7449SOL    HW229528   5.764   2.515   5.381  0.8210  0.4040 -0.8660
 7449SOL    HW329529   5.845   2.491   5.507 -0.4932  0.4776  0.0058
 7449SOL    MW429530   5.802   2.460   5.437  0.5942 -0.3944  0.2972
 7450SOL     OW29531   2.357   4.803   2.878 -0.4953  0.5820  0.3608
 7450SOL    HW229532   2.312   4.766   2.954  0.4507 -1.9012 -0.1694
 7450SOL    HW329533   2.335   4.744   2.806  1.6890  0.6139 -0.4105
 7450SOL    MW429534   2.348   4.790   2.879  0.3819  0.0886 -0.0027
 7451SOL     OW29535   5.652   1.783   4.019  0.2586 -0.2727  0.2610
 7451SOL    HW229536   5.646   1.866   4.067 -1.2421  0.3101 -0.8682
 7451SOL    HW329537   5.572   1.736   4.043  1.5409 -1.8756  1.6519
 7451SOL    MW429538   5.641   1.788   4.028  1.0093  0.3035  0.8931
 7452SOL     OW29539   4.555   3.419   1.711  0.2079  0.5937  0.0389
 7452SOL    HW229540   4.534   3.333   1.748 -0.8730 -0.0899 -1.9858
 7452SOL    HW329541   4.482   3.475   1.738  0.7064  0.7950  1.0149
 7452SOL    MW429542   4.543   3.415   1.719 -0.2105  0.3270  0.3625
 7453SOL     OW29543   0.489   4.214   5.877  0.0470 -0.7231 -0.3095
 7453SOL    HW229544   0.407   4.250   5.911 -0.1450  0.4521 -1.8852
 7453SOL    HW329545   0.469   4.123   5.856 -0.5037 -0.7747  0.3991
 7453SOL    MW429546   0.476   4.207   5.879  0.2183 -0.4524 -0.3009
 7454SOL     OW29547   6.206   4.132   3.081 -0.0059 -0.3765 -0.2535
 7454SOL    HW229548   6.137   4.097   3.137 -0.7044  1.2036 -0.0617
 7454SOL    HW329549   6.225   4.218   3.117  0.6202  0.0485 -1.5277
 7454SOL    MW429550   6.199   4.139   3.093 -0.2190  0.2549  0.0779
 7455SOL     OW29551   0.431   4.136   4.312  0.7305 -0.3117  0.4368
 7455SOL    HW229552   0.450   4.217   4.264 -2.9652  0.1900 -0.4927
 7455SOL    HW329553   0.407   4.074   4.244 -1.7924 -0.4678  1.3784
 7455SOL    MW429554   0.430   4.139   4.297 -0.4523  0.5001  0.0377
 7456SOL     OW29555   5.679   4.088   0.374  0.3481 -0.5450 -0.1976
 7456SOL    HW229556   5.678   4.033   0.452 -1.3415 -0.3337 -0.0341
 7456SOL    HW329557   5.609   4.052   0.319 -1.0822  1.6435  0.0952
 7456SOL    MW429558   5.670   4.076   0.377  0.1007 -0.1204 -0.6358
 7457SOL     OW29559   2.364   0.383   5.530 -0.2473 -0.6084  0.6916
 7457SOL    HW229560   2.360   0.387   5.434 -0.7377 -0.0400  0.7295
 7457SOL    HW329561   2.283   0.423   5.559 -0.3499 -1.2788  1.3488
 7457SOL    MW429562   2.353   0.389   5.521  0.2829 -0.1543  0.1266
 7458SOL     OW29563   6.018   4.889   5.945  0.2103  0.0572 -0.4082
 7458SOL    HW229564   6.087   4.949   5.973 -0.4778  1.4675 -1.5831
 7458SOL    HW329565   5.979   4.932   5.869 -1.7018 -0.8999 -0.0191
 7458SOL    MW429566   6.022   4.902   5.939  0.4937  0.5364  0.2830
 7459SOL     OW29567   1.843   0.133   0.620  0.4319  0.3148  0.1270
 7459SOL    HW229568   1.919   0.130   0.679  0.0685  3.3331  0.9077
 7459SOL    HW329569   1.877   0.101   0.537  1.5382 -1.9437  1.3432
 7459SOL    MW429570   1.858   0.129   0.617 -0.6486  0.2902  0.5475
 7460SOL     OW29571   5.214   1.824   3.770 -0.1700  0.1249 -0.5245
 7460SOL    HW229572   5.133   1.832   3.720 -0.8869  0.4044  0.6440
 7460SOL    HW329573   5.266   1.760   3.722 -0.2878  1.3089 -2.3217
 7460SOL    MW429574   5.210   1.817   3.757  0.1150 -0.1156 -0.3341
 7461SOL     OW29575   1.544   1.954   3.323  0.1232  0.2090  0.5045
 7461SOL    HW229576   1.621   1.916   3.282 -0.8545 -1.2292 -0.0904
 7461SOL    HW329577   1.483   1.968   3.251 -0.1374  1.4789  0.9437
 7461SOL    MW429578   1.546   1.951   3.308 -0.6747  0.2631 -0.1120
 7462SOL     OW29579   1.166   2.343   6.400  0.6586 -0.0312  0.3849
 7462SOL    HW229580   1.118   2.399   6.461  0.0123 -0.8000  0.5958
 7462SOL    HW329581   1.098   2.303   6.346  1.1669 -0.0359 -0.2630
 7462SOL    MW429582   1.150   2.345   6.401 -0.2882 -0.3185 -0.1341
 7463SOL     OW29583   2.030   1.058   4.149  0.8159 -0.6135  0.0897
 7463SOL    HW229584   2.050   1.150   4.170  0.2461 -0.8968  2.1795
 7463SOL    HW329585   2.106   1.027   4.101  2.2589  0.2734  1.6695
 7463SOL    MW429586   2.043   1.066   4.146 -0.1334  0.2153  0.4528
 7464SOL     OW29587   1.601   1.092   5.421 -0.2549  0.4048  0.0722
 7464SOL    HW229588   1.650   1.017   5.387 -1.0194  0.1166 -0.4031
 7464SOL    HW329589   1.559   1.059   5.500  1.4821  1.0599  1.3427
 7464SOL    MW429590   1.602   1.078   5.427  0.2613 -0.4592  0.2736
 7465SOL     OW29591   4.211   4.736   1.270 -0.1902  0.6123 -0.3857
 7465SOL    HW229592   4.270   4.687   1.213  0.4363  0.1095  0.6526
 7465SOL    HW329593   4.138   4.677   1.287  0.4884  0.0444  0.7372
 7465SOL    MW429594   4.209   4.722   1.265 -0.2651 -0.7360  0.1071
 7466SOL     OW29595   4.601   0.379   1.318  0.3352 -0.0288 -0.4583
 7466SOL    HW229596   4.641   0.293   1.327  1.6049  0.6300  0.4934
 7466SOL    HW329597   4.507   0.363   1.327  0.5960 -1.2389  0.3509
 7466SOL    MW429598   4.594   0.365   1.320  0.4566 -0.0479 -0.1397
 7467SOL     OW29599   6.373   1.292   1.489 -0.3097 -0.4343  0.0356
 7467SOL    HW229600   6.291   1.257   1.456 -0.9682 -2.1594  3.1688
 7467SOL    HW329601   6.436   1.276   1.418 -2.2048 -0.8563 -1.6480
 7467SOL    MW429602   6.371   1.285   1.475  0.4388  0.0007  0.1750
 7468SOL     OW29603   2.180   1.622   2.848  0.1177 -0.7905  0.3509
 7468SOL    HW229604   2.207   1.537   2.812 -0.9549 -1.4692  1.0951
 7468SOL    HW329605   2.258   1.654   2.892  0.3849 -1.6592  0.5399
 7468SOL    MW429606   2.194   1.615   2.849  0.0951  0.3342 -0.1726
 7469SOL     OW29607   0.437   5.701   5.814 -0.3325  0.2121 -0.8052
 7469SOL    HW229608   0.475   5.746   5.889 -0.5613 -1.5509  0.4380
 7469SOL    HW329609   0.511   5.685   5.755  0.7151 -1.9318  0.9329
 7469SOL    MW429610   0.452   5.705   5.816  0.1900  0.3470  1.1704
 7470SOL     OW29611   4.991   3.536   0.120  0.2867  0.3107 -0.2282
 7470SOL    HW229612   5.026   3.461   0.168  0.8817  0.6795 -0.0636
 7470SOL    HW329613   4.956   3.499   0.039 -2.7453 -0.6300  1.3785
 7470SOL    MW429614   4.991   3.521   0.116  0.2275  0.5240 -0.4357
 7471SOL     OW29615   0.044   0.927   2.798  0.3567  0.2637  0.0787
 7471SOL    HW229616   0.114   0.930   2.733 -1.3274 -0.1487 -1.8891
 7471SOL    HW329617   0.060   1.002   2.855  1.8892  0.6669 -0.8276
 7471SOL    MW429618   0.055   0.937   2.797 -0.6194  0.1306 -0.1339
 7472SOL     OW29619   0.846   5.603   3.804 -0.0890 -0.1387 -0.5492
 7472SOL    HW229620   0.770   5.593   3.861 -0.9154  0.7955 -1.4398
 7472SOL    HW329621   0.865   5.697   3.806  1.4117 -0.4253  0.0880
 7472SOL    MW429622   0.838   5.614   3.812  0.4116 -0.4770  0.3353
 7473SOL     OW29623   3.576   2.262   0.194  0.1624  0.1806 -0.4861
 7473SOL    HW229624   3.595   2.306   0.111 -2.8336  0.6097 -1.0517
 7473SOL    HW329625   3.568   2.333   0.258  0.6223 -0.0072 -0.2110
 7473SOL    MW429626   3.578   2.277   0.192  0.2241  0.0534  0.0255
 7474SOL     OW29627   6.268   0.258   5.278 -0.3993 -0.1363  0.0088
 7474SOL    HW229628   6.187   0.241   5.229 -0.2003  0.5274 -0.5676
 7474SOL    HW329629   6.263   0.351   5.301  0.4754  0.0674 -0.5621
 7474SOL    MW429630   6.257   0.268   5.274 -0.2499 -0.2873  0.2512
 7475SOL     OW29631   5.731   3.675   0.792  0.1663  0.7039  0.4777
 7475SOL    HW229632   5.820   3.641   0.802 -0.6044 -1.2953  1.2234
 7475SOL    HW329633   5.717   3.730   0.869  0.6629  0.7835  0.5116
 7475SOL    MW429634   5.741   3.678   0.804  0.5701 -0.0946  0.2218
 7476SOL     OW29635   4.781   3.609   6.113  0.8267 -0.1904 -0.2903
 7476SOL    HW229636   4.845   3.552   6.156  2.0579  0.8970 -0.6368
 7476SOL    HW329637   4.811   3.698   6.131 -0.4532  0.3473 -0.6757
 7476SOL    MW429638   4.793   3.613   6.121  0.8845  0.5613  0.7477
 7477SOL     OW29639   2.496   3.839   5.696 -0.0211 -0.1246 -0.2519
 7477SOL    HW229640   2.567   3.775   5.691 -0.2465 -0.3163 -1.2216
 7477SOL    HW329641   2.467   3.836   5.787  1.6045  0.3920  0.3153
 7477SOL    MW429642   2.502   3.830   5.707  0.0338  0.2786  0.3620
 7478SOL     OW29643   0.128   0.703   5.815 -0.0265 -0.1207  0.3226
 7478SOL    HW229644   0.051   0.646   5.807 -0.6669  0.6232  1.0367
 7478SOL    HW329645   0.173   0.671   5.893  0.8852 -1.1131 -0.5820
 7478SOL    MW429646   0.123   0.691   5.824 -0.6060  0.3613  0.0670
 7479SOL     OW29647   5.512   0.353   5.561 -0.1892  0.5613 -0.0597
 7479SOL    HW229648   5.504   0.402   5.480  0.1600  1.9682  0.7363
 7479SOL    HW329649   5.450   0.281   5.551 -1.2861  1.5916 -0.9359
 7479SOL    MW429650   5.503   0.350   5.549  0.0008  0.0734 -0.1194
 7480SOL     OW29651   1.497   2.900   6.317 -0.0290  0.0495 -0.0692
 7480SOL    HW229652   1.425   2.869   6.262 -1.0238  0.8242  0.7932
 7480SOL    HW329653   1.460   2.969   6.371  1.0933 -0.2380  1.1328
 7480SOL    MW429654   1.483   2.905   6.317  0.0656  0.0959 -0.1479
 7481SOL     OW29655   0.437   3.291   2.946  0.2910 -0.3380 -0.0474
 7481SOL    HW229656   0.528   3.319   2.931 -0.2718  0.7410 -1.6862
 7481SOL    HW329657   0.384   3.354   2.898 -1.4064 -0.4797  1.5275
 7481SOL    MW429658   0.442   3.303   2.938  0.3428  0.4469  0.1051
 7482SOL     OW29659   3.381   1.729   6.196  0.3765 -0.2463  0.1983
 7482SOL    HW229660   3.450   1.794   6.181  0.6531 -0.7578 -0.8502
 7482SOL    HW329661   3.357   1.740   6.288  0.2598  1.4860 -0.0083
 7482SOL    MW429662   3.387   1.739   6.206  0.0644 -0.0674 -0.3831
 7483SOL     OW29663   1.281   4.722   5.083 -0.3162  0.4083 -0.0645
 7483SOL    HW229664   1.276   4.669   5.163 -2.5258  0.8150  0.1404
 7483SOL    HW329665   1.313   4.807   5.113 -1.5244  0.6876  0.5027
 7483SOL    MW429666   1.284   4.726   5.097  0.4993  0.5139  0.0475
 7484SOL     OW29667   1.905   2.338   3.418  0.0776 -0.5976  0.0306
 7484SOL    HW229668   1.849   2.349   3.496 -2.1077 -0.9652 -1.3983
 7484SOL    HW329669   1.902   2.244   3.401  1.7741 -0.7286  0.3161
 7484SOL    MW429670   1.897   2.327   3.426  0.6158 -0.1304 -0.2102
 7485SOL     OW29671   4.028   5.547   6.160  0.2004  0.2376  0.1971
 7485SOL    HW229672   4.009   5.629   6.207  1.4861 -0.3934  1.9304
 7485SOL    HW329673   4.123   5.541   6.163  0.1602 -0.9352 -0.6305
 7485SOL    MW429674   4.038   5.557   6.167 -0.0751 -0.0693  0.0386
 7486SOL     OW29675   3.009   2.862   5.040  0.0382 -0.4848 -0.0736
 7486SOL    HW229676   3.068   2.798   5.000 -0.9572 -0.9473 -0.8109
 7486SOL    HW329677   2.977   2.819   5.119 -1.0412 -1.1404 -0.8394
 7486SOL    MW429678   3.013   2.848   5.045 -0.4673 -0.4988 -0.0547
 7487SOL     OW29679   3.277   1.606   1.852 -0.5854  0.1354 -0.2774
 7487SOL    HW229680   3.333   1.678   1.825  0.8619 -0.7898  0.0983
 7487SOL    HW329681   3.211   1.599   1.783 -0.1965  1.2118 -0.7827
 7487SOL    MW429682   3.275   1.614   1.840 -0.2155  0.2772  0.0053
 7488SOL     OW29683   0.529   3.828   3.924  0.3664 -0.0222  0.4169
 7488SOL    HW229684   0.491   3.740   3.936  0.4993 -0.2604 -0.8516
 7488SOL    HW329685   0.606   3.814   3.870  0.0054  0.9680 -0.3752
 7488SOL    MW429686   0.534   3.814   3.919  0.1959 -0.1442 -0.2352
 7489SOL     OW29687   6.040   2.798   1.794 -0.1393  0.2595 -0.5142
 7489SOL    HW229688   6.133   2.774   1.793 -0.3230 -0.8648  1.7768
 7489SOL    HW329689   6.031   2.856   1.870 -1.1139  1.3292 -1.4166
 7489SOL    MW429690   6.051   2.802   1.804  0.4213  0.0285 -0.2790
 7490SOL     OW29691   1.189   5.096   4.811  0.4467 -0.1643 -0.1711
 7490SOL    HW229692   1.133   5.093   4.733 -0.2459 -0.3315  0.3292
 7490SOL    HW329693   1.270   5.053   4.783  0.5692  0.6231 -1.0800
 7490SOL    MW429694   1.193   5.090   4.797  0.5359  0.4040 -0.0586
 7491SOL     OW29695   0.993   2.632   6.002  0.3028  0.2703  0.5950
 7491SOL    HW229696   1.010   2.592   5.916 -0.4427  2.5709 -0.7038
 7491SOL    HW329697   1.067   2.605   6.056  2.2584  0.9383 -1.5788
 7491SOL    MW429698   1.005   2.623   5.998 -0.0364 -0.1458 -0.1850
 7492SOL     OW29699   4.393   2.580   3.078  0.5229  0.0233  0.0516
 7492SOL    HW229700   4.485   2.555   3.090 -0.0952 -0.7546  5.0757
 7492SOL    HW329701   4.344   2.499   3.089 -0.8754  0.9451  0.8493
 7492SOL    MW429702   4.399   2.566   3.081 -0.1509 -0.1550 -0.5616
 7493SOL     OW29703   0.857   1.237   3.942 -0.3068 -0.3637  0.1435
 7493SOL    HW229704   0.860   1.224   4.036 -0.4273 -0.4383  0.1380
 7493SOL    HW329705   0.858   1.332   3.931  1.5403 -0.3568  0.1416
 7493SOL    MW429706   0.857   1.248   3.953  0.4683 -0.3137 -0.2625
 7494SOL     OW29707   3.351   4.962   2.238 -0.1837  0.2011  0.1198
 7494SOL    HW229708   3.397   5.036   2.277 -0.8503  0.3811  0.5866
 7494SOL    HW329709   3.407   4.934   2.165  1.4064 -0.5041  1.5314
 7494SOL    MW429710   3.365   4.968   2.234  0.2696  0.0343 -0.3668
 7495SOL     OW29711   4.140   0.426   4.038 -0.0417 -0.4044  0.3752
 7495SOL    HW229712   4.089   0.489   4.089 -0.2712 -1.8163  1.9997
 7495SOL    HW329713   4.075   0.364   4.005  0.1874  0.1178 -1.1209
 7495SOL    MW429714   4.124   0.426   4.040 -0.7224 -1.0142  0.1280
 7496SOL     OW29715   5.539   4.349   0.418 -0.6598  0.0139  0.2918
 7496SOL    HW229716   5.608   4.293   0.383 -1.3579 -1.1563  0.7336
 7496SOL    HW329717   5.476   4.288   0.456 -1.8941  1.0558 -0.0124
 7496SOL    MW429718   5.539   4.333   0.418  0.1576 -0.0185 -0.6208
 7497SOL     OW29719   5.094   0.066   4.932 -0.4093  0.3444 -0.0879
 7497SOL    HW229720   5.159   0.033   4.994 -2.5369 -0.6493  1.7668
 7497SOL    HW329721   5.106   0.161   4.933  1.0627  0.1763  0.1032
 7497SOL    MW429722   5.104   0.075   4.940  0.0011 -0.2560  0.4759
 7498SOL     OW29723   1.672   3.194   1.510  0.1796 -0.5986 -0.1855
 7498SOL    HW229724   1.577   3.190   1.505 -0.0149  0.9615  1.1767
 7498SOL    HW329725   1.699   3.105   1.535 -0.5431 -2.0001 -3.7972
 7498SOL    MW429726   1.663   3.182   1.513 -0.2402  0.0799 -0.2916
 7499SOL     OW29727   4.868   4.469   3.927 -0.0040 -0.0325  0.0999
 7499SOL    HW229728   4.856   4.562   3.943  2.2183  0.5027 -0.9867
 7499SOL    HW329729   4.900   4.434   4.010  0.7117  0.4948  0.0514
 7499SOL    MW429730   4.870   4.476   3.940  0.0162 -0.1810 -0.3910
 7500SOL     OW29731   4.754   3.377   1.957  0.0912  0.1846 -0.0516
 7500SOL    HW229732   4.682   3.377   1.894  0.6866  1.6131 -0.7842
 7500SOL    HW329733   4.782   3.468   1.961  1.9564 -0.3461  0.0901
 7500SOL    MW429734   4.748   3.389   1.949 -0.4204 -0.7034  0.0917
 7501SOL     OW29735   4.525   0.717   5.723 -0.6944 -0.0554 -0.1235
 7501SOL    HW229736   4.512   0.671   5.639 -0.4966 -0.5399  0.1066
 7501SOL    HW329737   4.620   0.721   5.733 -0.7186  0.0501  0.0534
 7501SOL    MW429738   4.536   0.711   5.713  0.5597  0.0673  0.0687
 7502SOL     OW29739   1.965   5.319   4.219 -0.2144 -0.0228  0.3593
 7502SOL    HW229740   1.881   5.361   4.238  0.2690  0.0262  2.6008
 7502SOL    HW329741   2.029   5.390   4.225  0.0351 -0.0185 -1.5257
 7502SOL    MW429742   1.963   5.334   4.222 -0.4390  0.0517  0.0173
 7503SOL     OW29743   4.836   1.988   5.646 -0.1301 -0.0735 -0.7290
 7503SOL    HW229744   4.871   2.070   5.611 -1.3257  0.9525  0.3751
 7503SOL    HW329745   4.746   1.984   5.614 -0.4688 -0.3196  0.2154
 7503SOL    MW429746   4.829   1.998   5.637  0.1812  0.0771  0.2605
 7504SOL     OW29747   3.808   4.568   5.728  0.0852 -0.6830 -0.0692
 7504SOL    HW229748   3.806   4.584   5.634 -1.4016 -1.7385 -0.2667
 7504SOL    HW329749   3.756   4.639   5.766  0.3317 -0.4936 -0.0842
 7504SOL    MW429750   3.801   4.579   5.721  1.2076 -0.6772  0.2730
 7505SOL     OW29751   2.656   2.595   0.870 -0.0401 -0.4472 -0.0205
 7505SOL    HW229752   2.619   2.672   0.827  1.2484  1.0325  1.3908
 7505SOL    HW329753   2.690   2.542   0.798 -0.1506  0.7339 -0.9809
 7505SOL    MW429754   2.655   2.598   0.855  0.0749  0.0543  0.1877
 7506SOL     OW29755   1.965   6.134   5.646  0.2583  0.2472  0.2560
 7506SOL    HW229756   1.986   6.071   5.577 -1.2588  0.3285 -0.3272
 7506SOL    HW329757   2.038   6.128   5.707  1.3899 -0.2073 -1.0899
 7506SOL    MW429758   1.977   6.125   5.645  0.1383 -0.6015 -0.1606
 7507SOL     OW29759   6.391   0.715   4.917  0.2101  0.4559  0.6827
 7507SOL    HW229760   6.436   0.796   4.893 -0.5299  0.2870 -1.4851
 7507SOL    HW329761   6.451   0.672   4.979  0.7718  2.4572  1.6048
 7507SOL    MW429762   6.405   0.720   4.922  0.3871  0.0690  0.0079
 7508SOL     OW29763   5.982   2.472   3.343 -0.8952  0.0197 -0.7856
 7508SOL    HW229764   5.950   2.556   3.311  0.9275  1.5404  1.1220
 7508SOL    HW329765   6.073   2.488   3.365 -1.3788 -1.4497  2.9388
 7508SOL    MW429766   5.990   2.485   3.342 -0.3142 -0.3695  0.0706
 7509SOL     OW29767   2.758   0.190   5.590 -0.2245 -0.0534 -0.0106
 7509SOL    HW229768   2.755   0.120   5.525  0.7240 -3.4442  3.2556
 7509SOL    HW329769   2.671   0.188   5.630 -0.5974  1.5836 -0.6742
 7509SOL    MW429770   2.746   0.180   5.587  0.0225  0.7877 -0.3169
 7510SOL     OW29771   4.308   4.105   5.068 -0.1908  0.0454  0.2103
 7510SOL    HW229772   4.309   4.121   4.973  0.6052 -0.6934  0.0871
 7510SOL    HW329773   4.243   4.036   5.079 -1.4103  1.1689  0.4019
 7510SOL    MW429774   4.299   4.098   5.057 -0.2236 -0.7030 -0.1866
 7511SOL     OW29775   0.578   2.925   4.188 -0.1918  0.4085 -0.4027
 7511SOL    HW229776   0.633   2.851   4.165 -0.4134  0.4059 -0.9490
 7511SOL    HW329777   0.535   2.949   4.106 -0.6277  0.7201 -0.0867
 7511SOL    MW429778   0.580   2.919   4.174  0.8112 -0.5812  0.6394
 7512SOL     OW29779   5.718   3.340   0.226 -0.7753  0.1359  0.3013
 7512SOL    HW229780   5.628   3.336   0.194 -1.0508 -0.2237  1.0738
 7512SOL    HW329781   5.741   3.432   0.223 -1.2718  0.2633  0.3537
 7512SOL    MW429782   5.709   3.351   0.221  0.2855  0.2037 -0.1192
 7513SOL     OW29783   4.146   2.053   0.646  0.0416 -0.3917  0.1833
 7513SOL    HW229784   4.136   2.084   0.556  1.7657  1.3454  0.5152
 7513SOL    HW329785   4.066   2.081   0.690 -0.7888 -1.2076 -0.7717
 7513SOL    MW429786   4.134   2.061   0.640  0.7401  0.6979 -0.3436
 7514SOL     OW29787   1.686   2.604   0.305 -0.0518 -0.2647 -0.6733
 7514SOL    HW229788   1.609   2.554   0.278 -0.2164 -0.3603 -0.0239
 7514SOL    HW329789   1.655   2.694   0.314 -0.2491 -0.4195  0.2534
 7514SOL    MW429790   1.672   2.609   0.302 -0.6933 -0.3301 -0.2301
 7515SOL     OW29791   5.609   2.829   2.347  0.3118  0.1383  0.7978
 7515SOL    HW229792   5.689   2.855   2.394  0.2128 -0.1059  1.1056
 7515SOL    HW329793   5.619   2.735   2.334  0.0615  0.1016  0.8662
 7515SOL    MW429794   5.621   2.820   2.352 -0.3262  0.5316  0.0521
 7516SOL     OW29795   0.076   5.968   0.462 -0.1190 -0.2133 -0.6009
 7516SOL    HW229796   0.120   6.037   0.512  1.0970 -1.1472 -0.3073
 7516SOL    HW329797  -0.017   5.979   0.482  0.2972 -0.4808  1.8467
 7516SOL    MW429798   0.070   5.979   0.472 -0.0529 -0.6670  0.1642
 7517SOL     OW29799   3.518   2.496   0.741 -0.4340  0.5975  0.2489
 7517SOL    HW229800   3.524   2.401   0.745 -3.7603  0.1728 -1.6713
 7517SOL    HW329801   3.577   2.521   0.670 -0.9455 -0.2421 -0.4817
 7517SOL    MW429802   3.527   2.487   0.732  0.4957 -0.3657 -0.3467
 7518SOL     OW29803   1.540   4.386   1.199 -0.1506 -0.3804 -0.0294
 7518SOL    HW229804   1.558   4.294   1.177  2.4956  0.0295  0.0370
 7518SOL    HW329805   1.452   4.386   1.237  0.2582 -3.0857  1.1202
 7518SOL    MW429806   1.531   4.374   1.201 -0.2616 -0.5422 -0.0721
 7519SOL     OW29807   2.535   1.708   1.156 -0.0779 -0.7120  0.3368
 7519SOL    HW229808   2.630   1.710   1.160  0.0342  0.4348 -1.4997
 7519SOL    HW329809   2.515   1.625   1.112  0.1756 -0.4032 -0.3903
 7519SOL    MW429810   2.545   1.697   1.151  0.2495  0.0267  0.0541
 7520SOL     OW29811   4.047   3.606   2.275  0.5535 -0.1470  0.0913
 7520SOL    HW229812   4.043   3.580   2.367 -0.7097 -0.4777 -0.0422
 7520SOL    HW329813   4.043   3.701   2.276  1.5428 -0.0976  0.4118
 7520SOL    MW429814   4.046   3.615   2.287  0.2115  0.1618 -0.3720
 7521SOL     OW29815   1.905   3.032   2.067  0.6186  0.0188  0.1244
 7521SOL    HW229816   1.844   2.959   2.052 -0.0367  0.7366 -0.7597
 7521SOL    HW329817   1.949   3.008   2.149 -1.3801 -0.1742  1.2285
 7521SOL    MW429818   1.903   3.019   2.076 -0.4136  0.2388 -0.6189
 7522SOL     OW29819   4.129   5.446   0.773 -0.1636  0.1146 -0.4352
 7522SOL    HW229820   4.092   5.508   0.835  1.3161  1.0897 -0.4666
 7522SOL    HW329821   4.129   5.492   0.689  0.9598  0.1238 -0.4550
 7522SOL    MW429822   4.124   5.460   0.770 -0.5020 -0.0356 -0.2758
 7523SOL     OW29823   6.042   2.047   0.750  0.3300  0.1564  0.3403
 7523SOL    HW229824   6.058   2.126   0.802 -0.0317 -0.6163  1.6720
 7523SOL    HW329825   6.123   2.033   0.702  0.7286  0.8210  0.7923
 7523SOL    MW429826   6.055   2.056   0.750  0.1454  0.2730 -0.0859
 7524SOL     OW29827   4.773   2.278   5.045  0.0160 -0.1417 -0.2785
 7524SOL    HW229828   4.692   2.284   4.996  0.3460 -0.5463 -0.8896
 7524SOL    HW329829   4.773   2.355   5.102 -2.2657 -1.6578  2.0223
 7524SOL    MW429830   4.762   2.289   5.046  0.2182 -0.3015  0.5183
 7525SOL     OW29831   5.202   6.284   1.547 -0.6100 -0.0761  0.1191
 7525SOL    HW229832   5.165   6.266   1.634  0.0234 -1.5987  0.1033
 7525SOL    HW329833   5.272   6.347   1.563 -0.4746 -0.3717  0.7306
 7525SOL    MW429834   5.206   6.290   1.561  0.0728 -0.5249  0.0428
 7526SOL     OW29835   4.858   5.775   0.760 -0.7242 -0.1067 -0.0519
 7526SOL    HW229836   4.922   5.752   0.693 -1.7578 -1.1491 -0.7140
 7526SOL    HW329837   4.911   5.797   0.837  0.4279 -1.1155 -0.5225
 7526SOL    MW429838   4.874   5.775   0.761  0.5425 -0.2331  0.3680
 7527SOL     OW29839   0.741   0.247   4.881 -0.5703  0.4149 -0.0242
 7527SOL    HW229840   0.787   0.252   4.798 -0.9241 -0.3104 -0.2645
 7527SOL    HW329841   0.768   0.327   4.928  1.1572 -0.1370 -0.0271
 7527SOL    MW429842   0.751   0.258   4.877 -0.0122  0.3290 -0.6703
 7528SOL     OW29843   5.990   1.918   6.160 -0.1030 -0.6502  0.0035
 7528SOL    HW229844   6.061   1.982   6.149 -1.6932  1.1729 -0.0717
 7528SOL    HW329845   6.027   1.837   6.124  1.2011  0.7589 -2.1419
 7528SOL    MW429846   6.004   1.916   6.154 -0.0652 -0.0246 -0.2772
 7529SOL     OW29847   1.105   5.409   3.081 -0.5879  0.8057 -0.3354
 7529SOL    HW229848   1.048   5.333   3.090  1.5934 -0.7033  1.8841
 7529SOL    HW329849   1.053   5.482   3.116 -1.9278 -0.0417 -0.4623
 7529SOL    MW429850   1.090   5.409   3.087 -0.1353  0.7044  0.2252
 7530SOL     OW29851   2.950   2.115   1.412  1.1154 -0.0204  0.1773
 7530SOL    HW229852   2.866   2.099   1.455  0.9855  0.4211  0.0910
 7530SOL    HW329853   2.986   2.192   1.457  0.4526  1.1679 -1.2446
 7530SOL    MW429854   2.944   2.123   1.424 -0.6099  0.1766  0.4738
 7531SOL     OW29855   2.064   2.805   4.143 -0.6681 -0.1744 -0.3889
 7531SOL    HW229856   2.086   2.749   4.218 -0.8703  1.2272  0.7569
 7531SOL    HW329857   2.028   2.884   4.182  0.9111  1.3643 -1.8721
 7531SOL    MW429858   2.062   2.808   4.158 -0.3392  0.2558  0.0920
 7532SOL     OW29859   3.579   5.545   4.200  0.3906 -0.0640  0.2637
 7532SOL    HW229860   3.629   5.484   4.146 -0.7673 -0.6032 -0.2344
 7532SOL    HW329861   3.644   5.608   4.231  1.1850 -0.0423 -1.3263
 7532SOL    MW429862   3.594   5.546   4.197 -0.1562 -0.0371 -0.6502
 7533SOL     OW29863   0.968   4.071   2.956  0.1024 -0.3428  0.2960
 7533SOL    HW229864   1.001   4.156   2.984 -2.7667  0.5886  1.2510
 7533SOL    HW329865   0.924   4.089   2.872 -2.3238 -0.3015  1.4699
 7533SOL    MW429866   0.966   4.085   2.949 -0.3917  0.1526 -0.0557
 7534SOL     OW29867   4.123   1.322   6.368 -0.3853  0.4106 -0.3043
 7534SOL    HW229868   4.151   1.237   6.332  2.1593  0.3298  1.5453
 7534SOL    HW329869   4.146   1.317   6.460 -5.2375  1.1479  1.1970
 7534SOL    MW429870   4.130   1.310   6.375  0.7188 -0.1819 -0.2300
 7535SOL     OW29871   2.893   0.317   4.158  0.0201 -0.4161 -0.4356
 7535SOL    HW229872   2.889   0.412   4.168 -1.1023 -0.5183  0.3269
 7535SOL    HW329873   2.809   0.294   4.118 -0.4323 -1.2277  0.9111
 7535SOL    MW429874   2.881   0.327   4.154 -0.1789 -0.2247  0.5957
 7536SOL     OW29875   6.076   6.391   4.379  0.1404  0.1339 -0.0599
 7536SOL    HW229876   6.006   6.328   4.393  0.6815 -0.2436  0.9975
 7536SOL    HW329877   6.071   6.411   4.285 -0.7726 -0.5958 -0.1824
 7536SOL    MW429878   6.066   6.385   4.368  0.5701  0.2253 -0.6731
 7537SOL     OW29879   4.083   0.380   2.177 -0.1312 -0.6894  0.2021
 7537SOL    HW229880   4.166   0.409   2.214  0.0279  1.7692 -1.8247
 7537SOL    HW329881   4.021   0.449   2.202 -0.8791 -1.0109 -0.7272
 7537SOL    MW429882   4.086   0.393   2.185 -0.1359  0.4926 -0.3269
 7538SOL     OW29883   0.865   1.720   1.615  0.5081 -0.3059  0.0130
 7538SOL    HW229884   0.869   1.644   1.673  0.5919  0.8109  1.5342
 7538SOL    HW329885   0.930   1.701   1.547  0.2260 -1.7643  0.1122
 7538SOL    MW429886   0.874   1.708   1.613 -0.2332 -0.0014 -0.3915
 7539SOL     OW29887   4.409   4.542   4.549 -0.3761  0.4241  0.2817
 7539SOL    HW229888   4.360   4.489   4.611 -1.1532  0.3791 -0.3600
 7539SOL    HW329889   4.378   4.632   4.563 -1.6289  0.2298 -1.0013
 7539SOL    MW429890   4.399   4.547   4.559  0.3385  0.3706  0.2187
 7540SOL     OW29891   1.209   6.383   0.893 -0.1157  0.5717 -0.1728
 7540SOL    HW229892   1.170   6.372   0.980  1.2857  0.2633  0.4472
 7540SOL    HW329893   1.265   6.306   0.882 -1.6070 -0.3205 -2.1244
 7540SOL    MW429894   1.211   6.372   0.903 -0.6388 -0.2753  0.1472
 7541SOL     OW29895   3.496   2.953   1.574  0.4867  0.4014 -0.0397
 7541SOL    HW229896   3.454   3.037   1.556  1.7477  1.1066  0.1865
 7541SOL    HW329897   3.510   2.953   1.669  0.0428 -0.2894  0.0312
 7541SOL    MW429898   3.493   2.965   1.585 -0.0031  0.0797 -0.6442
 7542SOL     OW29899   5.782   5.037   4.756  0.2627  0.4250  0.4609
 7542SOL    HW229900   5.772   5.018   4.850  0.1581  0.8262  0.5350
 7542SOL    HW329901   5.694   5.027   4.720  0.5801 -1.2963  0.0939
 7542SOL    MW429902   5.769   5.033   4.764 -0.3748  0.1671  0.1920
 7543SOL     OW29903   5.154   0.536   3.566  0.8036 -0.0221  0.0994
 7543SOL    HW229904   5.234   0.548   3.516  0.6432  0.5320 -0.0331
 7543SOL    HW329905   5.084   0.553   3.503  0.6009  0.7073  0.5188
 7543SOL    MW429906   5.155   0.540   3.551 -0.5579  0.2826  0.1654
 7544SOL     OW29907   0.125   2.955   2.415  0.0386  0.2714 -0.6171
 7544SOL    HW229908   0.125   2.869   2.457  3.4295 -0.2504 -1.3477
 7544SOL    HW329909   0.033   2.971   2.394 -1.1591 -1.7092  2.3041
 7544SOL    MW429910   0.113   2.945   2.418  0.3404  0.2259 -0.1182
 7545SOL     OW29911   2.018   4.289   1.197  0.9529 -0.1284  0.2267
 7545SOL    HW229912   2.089   4.255   1.251 -0.2210  0.9654  2.6237
 7545SOL    HW329913   1.950   4.221   1.201  0.8728 -0.0576  0.0916
 7545SOL    MW429914   2.018   4.275   1.205  0.0343 -0.3804  0.1262
 7546SOL     OW29915   1.122   3.380   3.360 -0.1794  0.0749 -0.2440
 7546SOL    HW229916   1.092   3.305   3.412  0.9624 -0.1660  0.1045
 7546SOL    HW329917   1.075   3.455   3.395 -0.2708 -0.2669  0.3729
 7546SOL    MW429918   1.112   3.380   3.371  0.5339  0.1650 -0.2088
 7547SOL     OW29919   3.425   6.145   1.285  0.0935 -0.1511 -0.3053
 7547SOL    HW229920   3.392   6.056   1.297  1.0209 -0.3147  1.4469
 7547SOL    HW329921   3.415   6.186   1.371  1.3733  0.8250 -0.5874
 7547SOL    MW429922   3.419   6.139   1.298 -0.2185 -0.2796 -0.4926
 7548SOL     OW29923   0.814   2.989   6.059  0.1419  0.4496 -0.6896
 7548SOL    HW229924   0.798   3.078   6.027 -0.0093  0.2223 -1.2540
 7548SOL    HW329925   0.748   2.976   6.127 -1.6898 -0.2232 -2.5067
 7548SOL    MW429926   0.803   2.999   6.064  0.1770 -0.4000  0.5811
 7549SOL     OW29927   3.601   4.300   4.437 -0.5317 -0.0398 -0.3745
 7549SOL    HW229928   3.662   4.227   4.427 -0.3835 -0.0385  0.4080
 7549SOL    HW329929   3.515   4.263   4.414 -0.4811 -0.5067  0.1529
 7549SOL    MW429930   3.597   4.285   4.433  0.0706  0.0708  0.2685
 7550SOL     OW29931   4.767   1.273   5.114  0.2406 -0.3292  0.0226
 7550SOL    HW229932   4.833   1.296   5.179 -0.9880 -2.0416  2.0179
 7550SOL    HW329933   4.704   1.345   5.117  0.6510  0.0327  0.0588
 7550SOL    MW429934   4.768   1.285   5.123  0.3811  0.4109 -0.1239
 7551SOL     OW29935   5.906   2.403   5.846  0.5170  0.0256 -0.5901
 7551SOL    HW229936   5.902   2.474   5.781  1.5059 -0.5051 -1.2685
 7551SOL    HW329937   5.911   2.448   5.930  0.9190  0.7648 -0.9971
 7551SOL    MW429938   5.906   2.419   5.848  0.3645  0.6327  0.4695
 7552SOL     OW29939   1.567   5.285   4.416 -0.6728  0.2604  0.5439
 7552SOL    HW229940   1.566   5.334   4.333  2.1573  0.4156  0.5131
 7552SOL    HW329941   1.600   5.199   4.392 -0.4530  0.0952  1.4205
 7552SOL    MW429942   1.571   5.280   4.402  0.3602 -0.0727 -0.7370
 7553SOL     OW29943   4.050   3.375   2.102  0.0045 -0.6708 -0.4270
 7553SOL    HW229944   4.057   3.453   2.157 -0.6163 -1.2004  0.4437
 7553SOL    HW329945   4.035   3.408   2.014 -0.8121  0.1963  0.0179
 7553SOL    MW429946   4.049   3.389   2.098  0.4942  0.9686 -0.3351
 7554SOL     OW29947   3.014   3.074   1.556  0.6093 -0.1633 -0.2115
 7554SOL    HW229948   2.962   3.145   1.519 -0.4911 -0.2013  1.1929
 7554SOL    HW329949   3.104   3.107   1.553  0.2711  0.7462 -0.8077
 7554SOL    MW429950   3.019   3.088   1.551  0.0007  0.4106  0.0568
 7555SOL     OW29951   4.569   5.362   4.631  0.2212 -0.1167 -0.6883
 7555SOL    HW229952   4.618   5.316   4.699  0.1830  0.8491  0.0085
 7555SOL    HW329953   4.477   5.345   4.651  0.2267 -0.6636 -1.1001
 7555SOL    MW429954   4.563   5.354   4.642 -0.3864 -0.6778 -0.2021
 7556SOL     OW29955   0.296   3.704   5.968 -0.1086 -0.6138  0.0587
 7556SOL    HW229956   0.259   3.617   5.952  2.7734 -2.0514  0.4952
 7556SOL    HW329957   0.365   3.713   5.902 -1.1854  2.0009 -0.8572
 7556SOL    MW429958   0.300   3.694   5.957 -0.0454 -0.2500  0.2229
 7557SOL     OW29959   0.966   5.420   5.811  0.3319  0.3034  0.2569
 7557SOL    HW229960   0.886   5.382   5.847  0.6439 -0.6670 -0.0479
 7557SOL    HW329961   1.032   5.351   5.821  1.5747  1.6353  2.0201
 7557SOL    MW429962   0.964   5.406   5.817  0.2452 -0.4500  0.2410
 7558SOL     OW29963   5.231   1.818   0.662 -0.0083 -0.1134 -0.3154
 7558SOL    HW229964   5.265   1.854   0.580 -0.2193 -1.6823 -1.1252
 7558SOL    HW329965   5.308   1.783   0.706 -0.0801 -0.5474 -0.5261
 7558SOL    MW429966   5.246   1.818   0.657  0.2026  0.0551 -0.4152
 7559SOL     OW29967   1.340   3.029   3.796 -0.3555  0.2380  0.2973
 7559SOL    HW229968   1.394   3.056   3.870 -0.1249 -1.1268  0.6560
 7559SOL    HW329969   1.320   3.111   3.749 -0.6534  1.1556  1.9491
 7559SOL    MW429970   1.344   3.044   3.799 -0.3587  0.2273  0.6349
 7560SOL     OW29971   4.817   2.924   2.401 -0.3435 -0.8108 -0.4517
 7560SOL    HW229972   4.903   2.899   2.435 -0.5818 -1.1829 -0.1205
 7560SOL    HW329973   4.791   2.852   2.344 -0.5769 -0.8438 -0.3052
 7560SOL    MW429974   4.825   2.911   2.398  0.2541 -0.4860  0.2622
 7561SOL     OW29975   5.943   5.469   5.528 -0.0045  0.2059 -0.3904
 7561SOL    HW229976   5.930   5.539   5.592 -1.6796 -1.1238  0.8450
 7561SOL    HW329977   6.017   5.420   5.561 -0.4381 -0.0770  0.1804
 7561SOL    MW429978   5.951   5.472   5.541 -0.2014 -0.4041 -0.1151
 7562SOL     OW29979   1.047   3.398   5.117  0.4337  0.1562 -0.4520
 7562SOL    HW229980   1.112   3.411   5.186  0.1804 -0.3820 -0.1060
 7562SOL    HW329981   1.093   3.346   5.051 -0.1861 -1.9695  0.6796
 7562SOL    MW429982   1.062   3.393   5.117 -0.1724  0.3541  0.3426
 7563SOL     OW29983   3.130   5.478   0.838 -0.4227 -0.1024  0.1730
 7563SOL    HW229984   3.040   5.451   0.855 -0.5380  0.1036 -0.1017
 7563SOL    HW329985   3.181   5.397   0.845 -1.1288 -1.0386 -3.4253
 7563SOL    MW429986   3.125   5.464   0.841  0.1464 -0.0970 -0.4672
 7564SOL     OW29987   5.749   2.861   6.099  0.2822  0.1021  0.1611
 7564SOL    HW229988   5.777   2.952   6.105 -0.1257  0.1380  1.9032
 7564SOL    HW329989   5.792   2.828   6.020  1.0731  1.5757 -0.0550
 7564SOL    MW429990   5.758   2.869   6.089 -0.3620  0.2088 -0.2781
 7565SOL     OW29991   5.991   3.433   4.776 -0.2757  0.4133  0.1429
 7565SOL    HW229992   5.971   3.344   4.806 -0.7542  0.3203 -0.4412
 7565SOL    HW329993   6.039   3.421   4.694 -1.1330  0.6935 -0.4152
 7565SOL    MW429994   5.995   3.419   4.769 -0.7635 -0.8318  0.3112
 7566SOL     OW29995   2.323   4.759   5.504  0.2411 -0.3327 -0.1450
 7566SOL    HW229996   2.319   4.814   5.426  0.9273 -0.6914 -0.4348
 7566SOL    HW329997   2.376   4.808   5.566 -0.4920  0.0565  0.1918
 7566SOL    MW429998   2.329   4.772   5.502  0.3081 -0.7015 -0.5371
 7567SOL     OW29999   1.433   1.910   2.877  0.3928 -0.3946  0.1414
 7567SOL    HW230000   1.517   1.863   2.873  0.2559 -0.5741 -0.9192
 7567SOL    HW330001   1.371   1.852   2.832  0.1465  0.6357 -0.8927
 7567SOL    MW430002   1.436   1.896   2.871  0.3900  0.3291  0.2311
 7568SOL     OW30003   2.028   2.953   4.904 -0.0470 -0.8234  0.1233
 7568SOL    HW230004   2.051   2.968   4.812  1.5601 -1.3092  0.4082
 7568SOL    HW330005   2.084   3.014   4.952 -0.3080 -1.1222  0.8192
 7568SOL    MW430006   2.039   2.963   4.898 -0.6026 -0.1175  0.0741
 7569SOL     OW30007   0.522   3.281   1.652 -0.3510  0.1909  0.2912
 7569SOL    HW230008   0.522   3.191   1.683  1.8474 -0.3117 -0.9008
 7569SOL    HW330009   0.434   3.313   1.669 -1.0454 -2.0153  1.1948
 7569SOL    MW430010   0.511   3.273   1.658 -0.1096  0.5468  0.0390
 7570SOL     OW30011   3.978   2.929   1.192  0.0269 -0.3989  0.4305
 7570SOL    HW230012   3.943   2.841   1.179 -1.2100  0.2166 -0.7448
 7570SOL    HW330013   3.984   2.940   1.287 -0.8529 -1.3644  0.6112
 7570SOL    MW430014   3.974   2.919   1.203  0.0674 -0.1697 -0.6850
 7571SOL     OW30015   3.134   1.282   5.566 -0.3709  0.2880 -0.3875
 7571SOL    HW230016   3.092   1.258   5.484 -0.6806  0.4107 -0.2658
 7571SOL    HW330017   3.205   1.219   5.577 -1.8663 -1.3342  0.5087
 7571SOL    MW430018   3.138   1.270   5.557  0.2039  0.1397  0.2391
 7572SOL     OW30019   5.139   3.316   0.224 -0.1655 -0.1979  0.2779
 7572SOL    HW230020   5.233   3.336   0.226  0.0133 -1.0532  0.5273
 7572SOL    HW330021   5.133   3.231   0.180 -0.7949 -0.3228  0.5987
 7572SOL    MW430022   5.151   3.308   0.218 -0.1105  0.1827 -0.4430
 7573SOL     OW30023   3.510   1.314   4.865  0.6939 -0.6678  0.1073
 7573SOL    HW230024   3.472   1.377   4.804  0.9952  0.4914  1.0766
 7573SOL    HW330025   3.514   1.232   4.816 -0.5624 -0.1679 -0.8828
 7573SOL    MW430026   3.506   1.311   4.851 -0.9648 -0.0151 -0.1415
 7574SOL     OW30027   6.261   2.712   3.164 -0.0906 -0.1092 -0.0483
 7574SOL    HW230028   6.303   2.635   3.203  1.0172  0.0872 -0.8061
 7574SOL    HW330029   6.179   2.678   3.127  0.8413 -1.1429 -1.2297
 7574SOL    MW430030   6.256   2.697   3.164  0.1516 -0.4999  0.2935
 7575SOL     OW30031   6.348   0.821   3.166 -0.5160 -0.0866  0.0643
 7575SOL    HW230032   6.409   0.832   3.239  0.8255  1.5374 -1.1941
 7575SOL    HW330033   6.404   0.794   3.093 -1.2977  1.2942 -1.0920
 7575SOL    MW430034   6.363   0.819   3.166  0.8900 -0.0209  0.0139
 7576SOL     OW30035   2.370   4.385   4.614  0.4620  0.0317  1.3623
 7576SOL    HW230036   2.283   4.377   4.575  1.5121 -0.1098 -1.1461
 7576SOL    HW330037   2.373   4.475   4.648  0.3657  1.2028 -1.4583
 7576SOL    MW430038   2.359   4.396   4.614  0.0997 -0.2510 -0.3626
 7577SOL     OW30039   5.311   1.550   2.961  0.0412  0.4001 -0.4898
 7577SOL    HW230040   5.333   1.541   3.054 -0.4688 -0.2896 -0.4244
 7577SOL    HW330041   5.385   1.510   2.915 -1.3375 -2.7807 -0.2464
 7577SOL    MW430042   5.324   1.543   2.967 -0.1516  0.1145 -0.3538
 7578SOL     OW30043   2.227   3.507   4.716  0.1348 -0.1971  0.1063
 7578SOL    HW230044   2.275   3.590   4.723  1.0919 -0.5860 -1.2650
 7578SOL    HW330045   2.243   3.463   4.799 -0.3314  0.9496  0.8237
 7578SOL    MW430046   2.236   3.512   4.728  0.5434 -0.0470 -0.2732
 7579SOL     OW30047   0.427   4.756   0.067  0.0900  0.5881 -0.2379
 7579SOL    HW230048   0.396   4.696   0.136  1.9153  0.2623  0.3740
 7579SOL    HW330049   0.498   4.707   0.024  1.6033  2.2539  0.2476
 7579SOL    MW430050   0.432   4.741   0.071 -0.3417 -0.4168 -0.1176
 7580SOL     OW30051   1.953   0.395   4.911  0.0080 -0.5716 -0.0355
 7580SOL    HW230052   1.940   0.450   4.834 -1.3092  2.0306  1.8702
 7580SOL    HW330053   2.039   0.355   4.898  0.3059  0.6480 -2.3348
 7580SOL    MW430054   1.963   0.397   4.899 -0.0094 -0.0129 -0.0262
 7581SOL     OW30055   0.604   0.490   3.775 -0.2183  0.3360 -0.1175
 7581SOL    HW230056   0.560   0.540   3.843 -2.0377 -0.3385 -0.7190
 7581SOL    HW330057   0.614   0.552   3.703 -1.1082  0.2580 -0.3225
 7581SOL    MW430058   0.599   0.505   3.774 -0.6357  0.4699  0.0194
 7582SOL     OW30059   5.636   5.907   2.677 -0.3689 -0.0826  0.3146
 7582SOL    HW230060   5.598   5.978   2.729 -3.2701 -0.2492 -1.3973
 7582SOL    HW330061   5.697   5.952   2.618 -0.6465  0.7329  0.6284
 7582SOL    MW430062   5.639   5.922   2.676 -0.2523  0.5402  0.5456
 7583SOL     OW30063   6.179   5.196   1.508 -0.0540 -0.0987 -0.0173
 7583SOL    HW230064   6.142   5.250   1.578  1.0501  1.9490 -0.9426
 7583SOL    HW330065   6.137   5.228   1.428  1.0854 -0.1687 -0.6625
 7583SOL    MW430066   6.168   5.207   1.507 -0.1346  0.6958 -0.4019
 7584SOL     OW30067   1.282   4.147   0.638 -0.2098 -0.0228  0.3266
 7584SOL    HW230068   1.267   4.230   0.594  1.2104 -0.4391 -1.0273
 7584SOL    HW330069   1.196   4.123   0.675 -1.3026  0.6927 -1.6219
 7584SOL    MW430070   1.268   4.155   0.637 -0.0839  0.0309  0.9568
 7585SOL     OW30071   3.443   1.326   0.408 -0.1102  0.0947 -0.2820
 7585SOL    HW230072   3.366   1.377   0.384  0.9377  1.7010 -0.4192
 7585SOL    HW330073   3.513   1.391   0.417  1.2441 -1.3040 -0.1836
 7585SOL    MW430074   3.442   1.342   0.406  0.5186 -0.1680 -0.3991
 7586SOL     OW30075   4.674   1.664   0.472 -0.3423  0.1544  0.0888
 7586SOL    HW230076   4.744   1.712   0.517 -1.6127  0.7702  1.4729
 7586SOL    HW330077   4.721   1.605   0.412  1.2833  2.1651 -0.7273
 7586SOL    MW430078   4.690   1.662   0.470  0.4402  0.7044 -0.2883
 7587SOL     OW30079   0.897   0.516   0.904  0.2701 -0.0526  0.4182
 7587SOL    HW230080   0.806   0.537   0.922  0.2085  1.0630 -1.0528
 7587SOL    HW330081   0.894   0.459   0.827  0.8420  0.9618 -0.3815
 7587SOL    MW430082   0.885   0.511   0.896  0.3489  0.5561 -0.1725
 7588SOL     OW30083   3.621   2.635   1.874 -0.3178  0.8917 -0.0568
 7588SOL    HW230084   3.579   2.721   1.867 -0.3792  0.9227  0.6477
 7588SOL    HW330085   3.592   2.601   1.958 -0.5665  0.0239 -0.4845
 7588SOL    MW430086   3.612   2.642   1.884  0.0042  0.0675 -0.0402
 7589SOL     OW30087   1.500   4.820   2.789 -0.4035  0.2537  0.0394
 7589SOL    HW230088   1.548   4.748   2.749 -1.7917 -0.0730 -1.1066
 7589SOL    HW330089   1.547   4.898   2.761  1.0369 -0.1445  1.1829
 7589SOL    MW430090   1.512   4.821   2.780 -0.3002  0.0514  1.0489
 7590SOL     OW30091   2.161   5.511   1.785  0.2510 -0.0331  0.2551
 7590SOL    HW230092   2.210   5.558   1.852  0.4447 -1.9206  1.5199
 7590SOL    HW330093   2.222   5.444   1.754 -0.9933 -1.4563  0.7735
 7590SOL    MW430094   2.175   5.508   1.790 -0.2288  0.7376 -0.0411
 7591SOL     OW30095   0.627   4.090   4.931  0.2711  0.1292 -0.5711
 7591SOL    HW230096   0.709   4.055   4.896  0.0131  0.6365 -1.7417
 7591SOL    HW330097   0.594   4.147   4.862 -0.8119  0.3412  0.0926
 7591SOL    MW430098   0.633   4.093   4.917 -0.1614 -0.3813 -0.0818
 7592SOL     OW30099   0.270   2.560   4.200  0.2056  0.4553 -0.0106
 7592SOL    HW230100   0.238   2.645   4.231  0.4926  0.6630 -0.2741
 7592SOL    HW330101   0.356   2.579   4.163  1.1721 -0.2972  1.7488
 7592SOL    MW430102   0.277   2.574   4.199 -0.3248 -0.7449  0.6909
 7593SOL     OW30103   4.127   2.513   1.213 -0.0661  0.3428  0.4062
 7593SOL    HW230104   4.210   2.558   1.227  1.0452 -1.2869 -0.5508
 7593SOL    HW330105   4.068   2.580   1.178  0.6658  1.6493  1.5751
 7593SOL    MW430106   4.130   2.528   1.210  0.5265  0.1302  0.3495
 7594SOL     OW30107   5.203   3.718   6.401  0.5968  0.0478 -0.1049
 7594SOL    HW230108   5.158   3.801   6.390  2.1491  1.3243  2.4183
 7594SOL    HW330109   5.138   3.660   6.440  0.1166  0.7423  0.1382
 7594SOL    MW430110   5.188   3.721   6.404  0.1675  0.1559 -0.0405
 7595SOL     OW30111   1.182   3.820   4.352  0.2415  0.0528 -0.2205
 7595SOL    HW230112   1.146   3.877   4.420  0.4319 -0.1939  0.0942
 7595SOL    HW330113   1.277   3.831   4.359  0.4189 -1.8827  1.2948
 7595SOL    MW430114   1.190   3.829   4.362 -0.0417  1.0772  0.1996
 7596SOL     OW30115   1.584   1.202   0.883  0.0274 -0.4189  0.0493
 7596SOL    HW230116   1.607   1.119   0.842 -0.6661 -0.1116 -1.0185
 7596SOL    HW330117   1.588   1.266   0.812 -0.6361  0.2359  0.5807
 7596SOL    MW430118   1.587   1.200   0.868 -1.1545 -0.0132  0.0243
 7597SOL     OW30119   6.391   1.215   4.867  0.2912  0.0100 -0.6257
 7597SOL    HW230120   6.429   1.299   4.842  1.8747 -0.0801  1.2469
 7597SOL    HW330121   6.374   1.223   4.961 -1.7270 -0.9883 -0.8538
 7597SOL    MW430122   6.394   1.227   4.876 -0.3989 -0.1987 -0.5524
 7598SOL     OW30123   1.595   0.052   0.363 -0.4850 -0.5041 -0.1095
 7598SOL    HW230124   1.647   0.131   0.371 -1.1672 -0.2163  2.2873
 7598SOL    HW330125   1.539   0.067   0.287  0.9575  0.3202 -1.0515
 7598SOL    MW430126   1.594   0.064   0.354  0.2349  0.4186  0.4904
 7599SOL     OW30127   0.161   3.657   3.557 -0.1132 -0.2063 -0.4831
 7599SOL    HW230128   0.159   3.600   3.480  0.7946  0.8021 -1.2785
 7599SOL    HW330129   0.089   3.718   3.543 -0.7596 -0.8099  0.1184
 7599SOL    MW430130   0.151   3.657   3.545 -0.2360 -0.6497 -1.0166
 7600SOL     OW30131   4.884   0.248   1.230  0.4088 -0.1377  0.0053
 7600SOL    HW230132   4.834   0.275   1.153 -1.3390 -1.1074  0.7285
 7600SOL    HW330133   4.952   0.314   1.239 -0.7969  1.3129 -1.0029
 7600SOL    MW430134   4.886   0.260   1.221 -0.2246 -0.1199 -0.6452
 7601SOL     OW30135   4.664   3.865   1.309 -0.0171 -0.7676 -0.2957
 7601SOL    HW230136   4.726   3.834   1.243 -0.3226 -1.3789 -0.3009
 7601SOL    HW330137   4.647   3.788   1.364  0.0189 -0.3410  0.3277
 7601SOL    MW430138   4.670   3.850   1.307 -0.3550  0.5047 -0.2185
 7602SOL     OW30139   0.075   5.349   3.344  0.1767 -0.3984  0.4973
 7602SOL    HW230140   0.146   5.405   3.375  0.5853 -0.9876  0.6546
 7602SOL    HW330141   0.030   5.401   3.278  0.7387 -0.0072  0.4152
 7602SOL    MW430142   0.078   5.363   3.340  0.5875 -0.0577  0.5422
 7603SOL     OW30143   1.736   6.107   3.242  0.3457 -0.0886  0.0199
 7603SOL    HW230144   1.772   6.192   3.218  2.0563 -0.7794 -0.0089
 7603SOL    HW330145   1.813   6.051   3.254 -0.6994 -1.3636  1.0721
 7603SOL    MW430146   1.751   6.111   3.240 -0.4553  0.1332 -0.4415
 7604SOL     OW30147   4.293   5.438   4.998  0.4919  0.2538  0.3757
 7604SOL    HW230148   4.233   5.464   4.929  0.7952  1.3440  0.5079
 7604SOL    HW330149   4.378   5.471   4.969  0.6443  0.5964  1.2014
 7604SOL    MW430150   4.297   5.446   4.985  0.0240 -0.1946  0.6481
 7605SOL     OW30151   5.303   1.044   5.125  0.5936  0.1831  0.2891
 7605SOL    HW230152   5.325   1.124   5.078  1.5061  0.2075  0.7418
 7605SOL    HW330153   5.239   1.072   5.191  1.0687  0.5858  0.5841
 7605SOL    MW430154   5.297   1.058   5.128  0.1106 -0.1989  0.2288
 7606SOL     OW30155   5.341   2.892   1.494  0.2328 -0.1950 -0.2984
 7606SOL    HW230156   5.270   2.866   1.435 -0.6030  0.7914  0.2313
 7606SOL    HW330157   5.339   2.988   1.491  2.0560 -0.1493 -0.8574
 7606SOL    MW430158   5.331   2.901   1.486  0.0334  0.2550  0.3556
 7607SOL     OW30159   1.909   4.730   0.505 -0.2341  0.1017 -0.1705
 7607SOL    HW230160   1.989   4.754   0.459 -1.4504  0.3037 -2.2894
 7607SOL    HW330161   1.925   4.757   0.596  2.9056 -1.8677  0.0258
 7607SOL    MW430162   1.922   4.737   0.511 -0.2462 -0.2772  0.0151
 7608SOL     OW30163   5.346   0.358   3.916  0.2677 -0.0952 -0.1531
 7608SOL    HW230164   5.411   0.288   3.922 -1.6108 -1.8564  0.8086
 7608SOL    HW330165   5.310   0.350   3.827 -0.6341 -1.0395  0.2812
 7608SOL    MW430166   5.350   0.348   3.905 -0.9633  0.1883  0.8821
 7609SOL     OW30167   3.876   6.366   0.106  0.2879 -0.5707  0.9484
 7609SOL    HW230168   3.924   6.347   0.025 -0.7036  2.3232 -0.4473
 7609SOL    HW330169   3.942   6.401   0.165  0.1242  4.2682 -1.2692
 7609SOL    MW430170   3.891   6.368   0.103 -0.6225  0.3828 -0.5303
 7610SOL     OW30171   4.437   3.204   5.024  0.1808 -0.4056 -0.0946
 7610SOL    HW230172   4.523   3.244   5.009  0.3061 -0.7794 -0.3745
 7610SOL    HW330173   4.400   3.193   4.936  0.8160 -2.3856 -0.1563
 7610SOL    MW430174   4.443   3.208   5.010  0.3481 -0.5334 -0.3555
 7611SOL     OW30175   0.971   1.233   5.559  0.3291 -0.0799  0.3549
 7611SOL    HW230176   0.941   1.193   5.478  2.5941 -1.5020  0.1349
 7611SOL    HW330177   1.065   1.245   5.547  0.8847 -1.0446  2.9989
 7611SOL    MW430178   0.980   1.229   5.547  0.1936  0.4002  0.5188
 7612SOL     OW30179   4.739   4.019   2.225  0.6208 -0.4001  0.1350
 7612SOL    HW230180   4.779   4.008   2.311 -1.5520 -1.8281  1.0411
 7612SOL    HW330181   4.795   3.967   2.166  0.9503 -1.1517  1.0824
 7612SOL    MW430182   4.752   4.011   2.228  0.0764 -0.1899  0.4548
 7613SOL     OW30183   5.503   3.423   6.375 -0.0521 -0.0573  0.3266
 7613SOL    HW230184   5.465   3.423   6.463  2.4198 -0.8431  1.4944
 7613SOL    HW330185   5.513   3.515   6.353 -2.3505  0.1728  0.0357
 7613SOL    MW430186   5.500   3.435   6.384 -0.2115 -0.1250  0.2861
 7614SOL     OW30187   2.607   1.749   3.215 -0.4505 -0.1236  0.3544
 7614SOL    HW230188   2.606   1.784   3.127 -0.4637  0.7007  0.6755
 7614SOL    HW330189   2.610   1.654   3.203  0.7303 -0.0047 -0.5351
 7614SOL    MW430190   2.607   1.741   3.202  0.2635  0.6341  0.1791
 7615SOL     OW30191   0.677   0.350   2.121  0.4706 -0.0441 -0.2368
 7615SOL    HW230192   0.750   0.398   2.080 -0.5788  1.0374 -0.9095
 7615SOL    HW330193   0.639   0.412   2.183  1.9829 -1.6347  2.4504
 7615SOL    MW430194   0.682   0.365   2.124 -0.4943 -0.4023  0.1462
 7616SOL     OW30195   0.630   1.362   2.356 -0.4051  0.2633  0.3564
 7616SOL    HW230196   0.680   1.324   2.284 -1.1091  0.8298 -0.4656
 7616SOL    HW330197   0.687   1.355   2.432  0.7709  0.5584 -0.4728
 7616SOL    MW430198   0.644   1.356   2.356  1.0095 -0.0761 -0.3523
 7617SOL     OW30199   6.023   5.727   6.099  0.7458 -0.0924  0.5183
 7617SOL    HW230200   6.079   5.710   6.175 -0.2140 -1.3356  0.9707
 7617SOL    HW330201   6.036   5.651   6.042 -0.6566 -0.5271  0.7498
 7617SOL    MW430202   6.032   5.715   6.102  0.1998 -0.0955 -0.4814
 7618SOL     OW30203   6.239   5.732   3.255 -0.0070  0.0633  1.0716
 7618SOL    HW230204   6.288   5.676   3.195  0.4065 -0.9434  2.3121
 7618SOL    HW330205   6.283   5.817   3.249 -0.5882  0.2677 -0.7593
 7618SOL    MW430206   6.251   5.736   3.247 -0.6368  0.5312 -0.1119
 7619SOL     OW30207   1.839   5.579   4.936  0.0839  0.1713  0.2427
 7619SOL    HW230208   1.790   5.499   4.913  0.1851 -0.1237  1.0329
 7619SOL    HW330209   1.904   5.587   4.866 -0.0693 -0.3157  0.0348
 7619SOL    MW430210   1.841   5.569   4.923 -0.2247  0.0806 -0.4555
 7620SOL     OW30211   6.192   5.657   2.947  0.2980 -0.3471 -0.2748
 7620SOL    HW230212   6.228   5.596   2.883  1.6515 -1.5759  1.5849
 7620SOL    HW330213   6.099   5.632   2.953  0.2622 -0.5351 -1.3679
 7620SOL    MW430214   6.184   5.645   2.939 -0.2166 -0.0835 -0.3351
 7621SOL     OW30215   2.274   0.266   2.667  0.0891  0.1715 -0.5402
 7621SOL    HW230216   2.236   0.230   2.747  0.5037  0.1300 -0.3592
 7621SOL    HW330217   2.200   0.276   2.607 -0.1564 -0.1881 -0.2969
 7621SOL    MW430218   2.259   0.262   2.670  0.4644  0.2705 -0.4288
 7622SOL     OW30219   3.592   0.116   2.718 -0.1825  0.1039  0.0202
 7622SOL    HW230220   3.655   0.140   2.650  2.0432 -0.5904  1.7347
 7622SOL    HW330221   3.531   0.056   2.674  0.7572  0.2187 -1.5217
 7622SOL    MW430222   3.592   0.111   2.703 -0.2931  0.1421 -0.3890
 7623SOL     OW30223   0.867   3.137   2.976  0.2475 -0.7031  0.5656
 7623SOL    HW230224   0.881   3.201   3.045  3.8033 -0.3193 -0.3090
 7623SOL    HW330225   0.860   3.189   2.895  1.4327 -1.3078  0.0517
 7623SOL    MW430226   0.868   3.152   2.974  0.2460 -0.2952  0.0007
 7624SOL     OW30227   2.264   5.885   4.626 -0.4209 -0.1562  0.1920
 7624SOL    HW230228   2.231   5.852   4.543  0.4422 -2.0719  0.5623
 7624SOL    HW330229   2.247   5.979   4.623  2.7569  0.5448 -3.6736
 7624SOL    MW430230   2.257   5.893   4.615 -0.2544 -0.1823  0.6814
 7625SOL     OW30231   3.761   3.069   4.383 -0.2838  0.1748 -0.7908
 7625SOL    HW230232   3.697   3.021   4.330 -0.1793 -0.6107 -0.2141
 7625SOL    HW330233   3.727   3.066   4.472  0.8307 -0.7479 -0.3721
 7625SOL    MW430234   3.748   3.063   4.388  0.4297  0.3783 -0.5456
 7626SOL     OW30235   3.086   3.152   2.757 -0.1760  0.1922  0.2388
 7626SOL    HW230236   3.180   3.135   2.759  0.0613  1.4013  0.2604
 7626SOL    HW330237   3.055   3.109   2.677  0.4649  0.1152  0.0286
 7626SOL    MW430238   3.094   3.144   2.747  0.4672 -0.1631  0.0396
 7627SOL     OW30239   5.352   5.435   4.317 -0.8175  0.3984 -0.0419
 7627SOL    HW230240   5.276   5.414   4.371 -0.6053 -0.3750 -0.0395
 7627SOL    HW330241   5.423   5.383   4.354 -0.4229  0.6569 -0.4237
 7627SOL    MW430242   5.352   5.426   4.329  0.4641 -0.3261 -0.9364
 7628SOL     OW30243   3.409   3.835   6.176  0.1055  0.2941 -0.3421
 7628SOL    HW230244   3.367   3.843   6.262 -0.0025  1.7463 -0.5015
 7628SOL    HW330245   3.492   3.791   6.194  0.0108  0.4301  0.4776
 7628SOL    MW430246   3.414   3.830   6.190 -0.3445 -0.0337  0.1423
 7629SOL     OW30247   0.669   3.589   4.230  0.4813 -0.0472 -0.7293
 7629SOL    HW230248   0.649   3.594   4.137 -0.2140 -0.1350 -0.5837
 7629SOL    HW330249   0.670   3.681   4.259 -0.0847 -0.0640 -0.6567
 7629SOL    MW430250   0.667   3.602   4.222 -0.1233 -0.2358 -0.0165
 7630SOL     OW30251   0.331   0.535   2.873  0.0858 -0.1261 -0.3463
 7630SOL    HW230252   0.416   0.578   2.860  0.0367  0.3887  0.9194
 7630SOL    HW330253   0.331   0.509   2.965 -1.2592  0.1541 -0.2540
 7630SOL    MW430254   0.343   0.537   2.883 -0.7631  0.3792  0.2129
 7631SOL     OW30255   4.973   4.094   0.546  0.4084 -0.0415 -0.4500
 7631SOL    HW230256   5.068   4.094   0.558  0.5569  1.4427 -1.3393
 7631SOL    HW330257   4.939   4.043   0.620  1.8919 -0.6251 -0.1420
 7631SOL    MW430258   4.981   4.087   0.557 -0.3678 -0.3862 -0.6878
 7632SOL     OW30259   1.168   6.017   0.888  0.2705 -0.2325 -0.2280
 7632SOL    HW230260   1.206   5.933   0.913 -1.0809 -1.4680 -2.0669
 7632SOL    HW330261   1.160   6.013   0.793  0.2681  2.0631 -0.3998
 7632SOL    MW430262   1.172   6.006   0.879  0.6206 -0.0893 -0.1819
 7633SOL     OW30263   4.358   3.238   2.549  0.4309 -0.2825  0.2128
 7633SOL    HW230264   4.402   3.247   2.465 -0.0724  2.7647  0.1843
 7633SOL    HW330265   4.420   3.274   2.613 -0.0453 -0.5913  0.8618
 7633SOL    MW430266   4.372   3.244   2.546 -0.0288 -0.1148  0.4513
 7634SOL     OW30267   1.368   2.524   1.288 -0.0043  0.1540 -0.7221
 7634SOL    HW230268   1.304   2.561   1.349  1.2601  0.7264  0.3040
 7634SOL    HW330269   1.428   2.474   1.344  0.1970 -0.7668 -1.7167
 7634SOL    MW430270   1.367   2.522   1.304 -0.0134  0.7127  0.3581
 7635SOL     OW30271   3.425   0.259   0.070 -0.6457 -0.0554  0.5429
 7635SOL    HW230272   3.491   0.315   0.111 -1.2516  1.1368 -0.0414
 7635SOL    HW330273   3.474   0.204   0.009  0.1269 -1.1128  2.0810
 7635SOL    MW430274   3.440   0.259   0.067 -0.1418  0.1762 -0.3553
 7636SOL     OW30275   1.078   0.515   2.861  0.2929  0.3879 -0.2082
 7636SOL    HW230276   1.050   0.460   2.934  1.1673  1.3020  0.8559
 7636SOL    HW330277   1.011   0.582   2.853 -1.8634 -1.8250 -2.8157
 7636SOL    MW430278   1.066   0.517   2.869 -0.0617  0.2529 -0.1822
 7637SOL     OW30279   2.740   0.329   3.285  0.7000  0.1548 -1.1508
 7637SOL    HW230280   2.678   0.273   3.330 -0.0952  1.7026 -0.2606
 7637SOL    HW330281   2.707   0.334   3.195  0.4528 -0.3239 -1.0877
 7637SOL    MW430282   2.728   0.322   3.279  0.4484  0.6126 -0.5317
 7638SOL     OW30283   2.785   2.663   4.954  0.2286  0.1279 -0.0204
 7638SOL    HW230284   2.818   2.574   4.964  0.3130  0.1326 -0.2510
 7638SOL    HW330285   2.860   2.719   4.977  0.0727  0.1431  0.4699
 7638SOL    MW430286   2.799   2.659   4.959 -0.4175  0.6849 -0.2772
 7639SOL     OW30287   5.002   5.264   5.224 -0.4564 -0.3716 -0.0143
 7639SOL    HW230288   5.092   5.288   5.245 -0.6765  0.8223 -0.3729
 7639SOL    HW330289   4.950   5.298   5.297 -0.6823 -0.5614 -0.0853
 7639SOL    MW430290   5.007   5.271   5.236  0.6018 -0.4813  0.3177
 7640SOL     OW30291   1.416   2.183   0.427 -0.6014  0.1380 -0.9198
 7640SOL    HW230292   1.419   2.201   0.333 -1.2978 -0.5138 -1.0763
 7640SOL    HW330293   1.342   2.124   0.438  0.3536 -0.9571 -0.1431
 7640SOL    MW430294   1.407   2.178   0.416 -0.3756 -0.0081 -0.4034
 7641SOL     OW30295   5.216   0.143   5.907 -0.0411  0.1807  0.1080
 7641SOL    HW230296   5.200   0.237   5.897 -0.1385  0.0287 -1.4375
 7641SOL    HW330297   5.287   0.124   5.846 -0.4275 -0.8552 -0.0467
 7641SOL    MW430298   5.223   0.153   5.898 -0.3884  0.6459  0.1349
 7642SOL     OW30299   5.758   2.645   6.273 -0.1222  0.4597 -0.1188
 7642SOL    HW230300   5.760   2.732   6.234  0.1907  0.7585  0.5459
 7642SOL    HW330301   5.840   2.639   6.323  0.5241 -0.7340 -1.2588
 7642SOL    MW430302   5.769   2.655   6.275 -0.2082 -0.3622 -0.8259
 7643SOL     OW30303   1.480   5.593   1.567  0.1504  0.3029  0.1004
 7643SOL    HW230304   1.386   5.599   1.585  0.0016  2.1074 -1.0157
 7643SOL    HW330305   1.485   5.568   1.475  0.8275 -1.4310  0.5600
 7643SOL    MW430306   1.468   5.591   1.557  0.2388  0.0239  0.3664
 7644SOL     OW30307   1.071   3.475   2.821  0.0265  0.1586  0.1216
 7644SOL    HW230308   1.000   3.414   2.804  0.4612 -0.5475  0.7933
 7644SOL    HW330309   1.096   3.460   2.912 -0.5922  2.1323  0.6622
 7644SOL    MW430310   1.065   3.465   2.831  0.8698  0.0934  0.3483
 7645SOL     OW30311   2.211   2.195   4.703  0.0081 -0.2726  0.0858
 7645SOL    HW230312   2.229   2.101   4.697 -1.2821 -0.6356  1.5919
 7645SOL    HW330313   2.119   2.204   4.679 -0.6482  0.2296  2.5519
 7645SOL    MW430314   2.202   2.184   4.699  0.2119 -0.4235 -0.2821
 7646SOL     OW30315   4.474   0.725   1.689 -0.1209  0.6846 -0.0551
 7646SOL    HW230316   4.382   0.715   1.714  0.0388  0.3754  0.4138
 7646SOL    HW330317   4.474   0.800   1.629 -0.7868  0.1919 -0.6924
 7646SOL    MW430318   4.462   0.734   1.684 -0.0632  0.3497  0.1687
 7647SOL     OW30319   1.043   6.272   4.759  0.5887  0.5130  0.0410
 7647SOL    HW230320   1.117   6.211   4.759  0.0911 -0.1092 -0.4088
 7647SOL    HW330321   1.073   6.346   4.812  1.2262 -0.1025  0.5710
 7647SOL    MW430322   1.057   6.274   4.766 -0.6273  0.3616  0.0685
 7648SOL     OW30323   5.936   3.113   3.696 -0.7630  0.4529  0.0081
 7648SOL    HW230324   5.920   3.188   3.638 -1.7714 -0.2624 -0.6533
 7648SOL    HW330325   6.003   3.145   3.756 -1.0520  1.8403 -0.3574
 7648SOL    MW430326   5.943   3.127   3.696 -0.5840 -0.6971 -0.1981
 7649SOL     OW30327   4.381   5.907   5.437 -0.3879  0.1711 -0.2892
 7649SOL    HW230328   4.377   5.889   5.531 -1.0462  1.1075 -0.1207
 7649SOL    HW330329   4.464   5.951   5.425 -1.0695  1.6472  0.1727
 7649SOL    MW430330   4.391   5.910   5.448 -0.7438 -0.0516  0.1171
 7650SOL     OW30331   3.832   2.373   0.877 -0.5577 -0.0385 -0.6190
 7650SOL    HW230332   3.770   2.355   0.948 -0.4361  0.7258 -0.3183
 7650SOL    HW330333   3.853   2.286   0.842  0.6737 -0.5999  1.3749
 7650SOL    MW430334   3.827   2.359   0.882 -0.1407  0.4084 -0.1576
 7651SOL     OW30335   0.071   3.366   0.758 -0.1320 -0.4386 -0.0791
 7651SOL    HW230336   0.059   3.321   0.674 -1.5849  0.3184 -0.3209
 7651SOL    HW330337   0.127   3.309   0.809 -1.1227 -2.0582 -0.7240
 7651SOL    MW430338   0.077   3.353   0.753  0.3994 -0.2180  0.1660
 7652SOL     OW30339   3.219   3.136   1.283 -0.0925  0.1249 -0.3526
 7652SOL    HW230340   3.250   3.047   1.265  0.5740  0.7572 -2.6728
 7652SOL    HW330341   3.255   3.189   1.212 -1.3943  2.0671  0.3500
 7652SOL    MW430342   3.228   3.131   1.271  0.0781  0.4060 -0.3469
 7653SOL     OW30343   6.367   6.260   1.965 -0.0475 -0.6715 -0.4048
 7653SOL    HW230344   6.283   6.217   1.953 -0.6390  0.3286 -0.0431
 7653SOL    HW330345   6.419   6.198   2.016 -0.2992 -1.5975 -1.2527
 7653SOL    MW430346   6.363   6.246   1.970  0.0306  0.2242  0.2523
 7654SOL     OW30347   4.214   4.276   4.502 -0.1326  0.1495 -0.5719
 7654SOL    HW230348   4.215   4.358   4.452 -0.9219  0.6257  0.1610
 7654SOL    HW330349   4.306   4.252   4.510  0.0432  0.2183 -1.9713
 7654SOL    MW430350   4.226   4.284   4.496 -0.0929  0.4866  0.0229
 7655SOL     OW30351   2.856   6.331   6.104 -0.2225  0.4570 -0.3378
 7655SOL    HW230352   2.903   6.413   6.089 -0.8120  0.7161 -0.8693
 7655SOL    HW330353   2.871   6.311   6.196  0.0851  1.0656 -0.2468
 7655SOL    MW430354   2.864   6.340   6.114  0.4024 -0.0231  0.0359
 7656SOL     OW30355   5.477   4.131   5.880  0.0290  0.2209  0.0748
 7656SOL    HW230356   5.502   4.163   5.794 -2.5078  0.1407 -0.7688
 7656SOL    HW330357   5.475   4.209   5.936  0.3047  0.4994 -0.3033
 7656SOL    MW430358   5.480   4.145   5.876  0.2279  0.0046 -1.0003
 7657SOL     OW30359   1.904   5.277   2.109 -0.2158 -0.1344  0.5043
 7657SOL    HW230360   1.915   5.335   2.033 -0.0609 -1.4878 -0.5437
 7657SOL    HW330361   1.929   5.331   2.184  0.6493  0.9264 -0.5060
 7657SOL    MW430362   1.909   5.292   2.109  0.2780  0.1925 -0.5097
 7658SOL     OW30363   1.994   5.093   4.058 -0.0806  0.0445  0.3511
 7658SOL    HW230364   2.071   5.111   4.004 -0.6515  1.4574 -0.0409
 7658SOL    HW330365   1.990   5.166   4.119  0.4326 -1.4137  2.2370
 7658SOL    MW430366   2.004   5.105   4.059  0.2967 -0.3446 -0.2667
 7659SOL     OW30367   2.010   5.681   4.458 -0.3268 -0.1797  0.3059
 7659SOL    HW230368   1.965   5.765   4.463 -0.8139 -0.3931 -0.3087
 7659SOL    HW330369   1.961   5.632   4.392  1.8634  0.2219 -1.7674
 7659SOL    MW430370   1.998   5.686   4.450  0.4184  0.1604 -0.7840
 7660SOL     OW30371   4.102   0.789   3.783  0.3134 -0.1845 -0.4128
 7660SOL    HW230372   4.155   0.710   3.797  0.3616  0.0550  0.9060
 7660SOL    HW330373   4.027   0.758   3.732 -2.7507 -2.5228  4.6622
 7660SOL    MW430374   4.099   0.774   3.778 -0.4233  0.0136 -0.4062
 7661SOL     OW30375   5.559   2.455   5.212 -0.0795  0.1444 -0.1046
 7661SOL    HW230376   5.521   2.541   5.227  0.2160  0.3143 -0.3351
 7661SOL    HW330377   5.486   2.402   5.178 -1.1053 -0.5886  2.8973
 7661SOL    MW430378   5.544   2.459   5.209  0.4480  0.4676 -0.4131
 7662SOL     OW30379   2.976   1.254   6.267  0.2775  0.7538  0.2973
 7662SOL    HW230380   2.950   1.240   6.358 -0.8234 -0.5525 -0.1818
 7662SOL    HW330381   2.936   1.181   6.219  0.2660  1.7808 -1.3358
 7662SOL    MW430382   2.967   1.242   6.273  0.1189  0.1029  0.3202
 7663SOL     OW30383   5.902   2.048   0.499  0.1009  0.0663  0.1755
 7663SOL    HW230384   5.817   2.053   0.544  0.0491 -2.2372  0.4363
 7663SOL    HW330385   5.966   2.047   0.570  0.1961 -0.5050  0.0873
 7663SOL    MW430386   5.899   2.049   0.515 -0.1998 -0.0997 -0.2231
 7664SOL     OW30387   5.616   6.337   1.028  0.1394  0.2935 -0.0901
 7664SOL    HW230388   5.702   6.372   1.054  0.1405  0.2657 -0.0573
 7664SOL    HW330389   5.636   6.258   0.978  0.1767  0.7828 -0.8717
 7664SOL    MW430390   5.630   6.332   1.025  0.0750 -0.0659  0.5985
 7665SOL     OW30391   1.362   4.185   2.119  0.2300 -0.5737  0.1840
 7665SOL    HW230392   1.313   4.131   2.181  0.8029 -0.6244  0.5980
 7665SOL    HW330393   1.433   4.128   2.090 -0.0537 -0.5634 -0.5550
 7665SOL    MW430394   1.365   4.170   2.123  0.2503  0.1415 -0.0737
 7666SOL     OW30395   3.071   1.723   0.069 -0.1217  0.3452 -0.1406
 7666SOL    HW230396   3.108   1.635   0.061  0.6065  0.6364 -0.0696
 7666SOL    HW330397   3.051   1.733   0.162 -0.6780  0.0765 -0.2255
 7666SOL    MW430398   3.073   1.713   0.080 -0.3155  0.4643  0.0599
 7667SOL     OW30399   6.389   1.525   0.192 -0.3075 -0.0509  0.0301
 7667SOL    HW230400   6.385   1.620   0.194 -1.7287 -0.0902  1.0189
 7667SOL    HW330401   6.398   1.503   0.100  1.8059  1.0521 -0.0832
 7667SOL    MW430402   6.390   1.535   0.180 -0.2480 -0.1118 -0.5459
 7668SOL     OW30403   1.329   1.946   3.143  0.1492 -0.5538 -0.3215
 7668SOL    HW230404   1.370   1.969   3.059  1.1872 -0.5355  0.1803
 7668SOL    HW330405   1.273   2.021   3.163  0.9911  0.0837 -0.3109
 7668SOL    MW430406   1.327   1.959   3.134 -0.0452 -0.7362  0.2908
 7669SOL     OW30407   2.336   4.308   2.915 -0.0137 -0.6519  0.1951
 7669SOL    HW230408   2.339   4.254   2.994 -0.4189 -0.5416  0.2853
 7669SOL    HW330409   2.365   4.250   2.845 -1.1217 -1.1919  0.1709
 7669SOL    MW430410   2.341   4.293   2.916  0.1704 -0.1137 -0.1241
 7670SOL     OW30411   4.357   3.453   5.751 -0.5051  0.0120  0.1360
 7670SOL    HW230412   4.316   3.367   5.740 -0.1572  0.1084 -2.6528
 7670SOL    HW330413   4.442   3.433   5.790  0.0456 -1.1138 -1.5059
 7670SOL    MW430414   4.363   3.439   5.754  0.2808  0.7886 -0.2002
 7671SOL     OW30415   4.652   3.421   2.547 -0.2924 -0.2691 -0.0883
 7671SOL    HW230416   4.637   3.329   2.524 -3.1017  0.0145  0.2226
 7671SOL    HW330417   4.730   3.420   2.602  0.2323 -2.3396 -0.7857
 7671SOL    MW430418   4.660   3.409   2.551 -0.3131  0.0126  0.6072
 7672SOL     OW30419   3.170   1.435   2.313  0.8410 -0.3083 -0.1319
 7672SOL    HW230420   3.163   1.431   2.218  0.4484  0.7906 -0.1615
 7672SOL    HW330421   3.235   1.503   2.330 -0.7631  1.1486  0.3987
 7672SOL    MW430422   3.177   1.443   2.303  0.2570  0.3438  0.0628
 7673SOL     OW30423   3.843   3.352   4.626 -0.1044 -0.1813  0.4841
 7673SOL    HW230424   3.936   3.374   4.619  0.3536 -1.7540  1.1473
 7673SOL    HW330425   3.827   3.340   4.720 -1.1193  0.5519  0.4307
 7673SOL    MW430426   3.853   3.353   4.637 -0.4782 -0.2586  0.1242
 7674SOL     OW30427   5.577   3.426   3.890 -0.1031 -0.5277 -0.3692
 7674SOL    HW230428   5.562   3.444   3.983 -0.5017  0.5720 -0.6320
 7674SOL    HW330429   5.596   3.332   3.886  0.4748 -0.4754  0.8852
 7674SOL    MW430430   5.577   3.416   3.902  0.4250  1.1321 -0.0296
 7675SOL     OW30431   1.803   3.884   5.373  0.1286  0.1679 -0.2786
 7675SOL    HW230432   1.732   3.913   5.429 -0.4690 -1.7841  0.0716
 7675SOL    HW330433   1.883   3.911   5.418 -0.2915 -2.2862  2.1883
 7675SOL    MW430434   1.804   3.891   5.386 -0.0334 -0.1558 -0.4958
 7676SOL     OW30435   0.360   3.383   4.621 -0.0147  0.4119 -0.2859
 7676SOL    HW230436   0.408   3.305   4.593  0.0613 -0.0129  0.9455
 7676SOL    HW330437   0.416   3.423   4.688 -1.0152  0.3142  0.6411
 7676SOL    MW430438   0.374   3.378   4.626 -0.6550  0.0707 -0.0989
 7677SOL     OW30439   1.888   4.527   2.127  0.2194 -0.0650  0.7988
 7677SOL    HW230440   1.980   4.512   2.147 -0.0860  0.0946  2.4343
 7677SOL    HW330441   1.887   4.551   2.034  2.0762  2.0606  1.2501
 7677SOL    MW430442   1.900   4.528   2.117  0.1722  0.0059  0.0784
 7678SOL     OW30443   5.424   1.193   5.894 -0.5871  0.2297 -0.1342
 7678SOL    HW230444   5.426   1.240   5.811 -2.4484  1.3111  0.3680
 7678SOL    HW330445   5.418   1.101   5.869  0.4325  0.4226 -1.1616
 7678SOL    MW430446   5.423   1.187   5.880 -0.2363 -0.7675 -1.0283
 7679SOL     OW30447   0.720   3.650   3.771 -0.6046 -0.0455 -0.1396
 7679SOL    HW230448   0.768   3.716   3.720  0.5807 -0.5153  0.3516
 7679SOL    HW330449   0.634   3.646   3.728 -0.0012  0.3305 -1.4486
 7679SOL    MW430450   0.715   3.658   3.758 -0.4270 -0.1596  0.0338
 7680SOL     OW30451   1.823   2.086   4.336  0.0481 -0.1851  0.8707
 7680SOL    HW230452   1.853   2.100   4.246 -0.5155 -1.4464  0.4726
 7680SOL    HW330453   1.892   2.126   4.390 -0.3876  2.0000 -0.1200
 7680SOL    MW430454   1.836   2.093   4.332 -0.2419  0.0175 -0.0228
 7681SOL     OW30455   3.541   0.226   5.670  0.2186 -0.5283  0.0994
 7681SOL    HW230456   3.472   0.184   5.619 -0.5456 -3.2630  3.0570
 7681SOL    HW330457   3.587   0.154   5.713  0.8828  1.4588  3.0470
 7681SOL    MW430458   3.538   0.211   5.669  0.5465  0.2841 -0.3500
 7682SOL     OW30459   0.507   6.026   4.916 -0.2512  0.0603  0.3345
 7682SOL    HW230460   0.589   6.026   4.967  0.4148  1.9052 -0.6296
 7682SOL    HW330461   0.533   6.060   4.830 -1.4567 -2.4393 -1.0980
 7682SOL    MW430462   0.522   6.031   4.911 -0.3687  0.0934 -0.5167
 7683SOL     OW30463   1.697   4.164   4.007 -0.3162 -0.5422  0.1654
 7683SOL    HW230464   1.609   4.198   3.994  0.9330  3.4467  0.7339
 7683SOL    HW330465   1.708   4.159   4.102  0.3027 -0.2238  0.1172
 7683SOL    MW430466   1.687   4.168   4.017  0.1171 -0.2590 -0.3814
 7684SOL     OW30467   4.024   4.911   5.372  0.8166 -0.2617  0.5935
 7684SOL    HW230468   4.013   4.824   5.334  0.1249 -0.9006  2.1581
 7684SOL    HW330469   4.119   4.926   5.372  0.8360 -0.1394 -1.4859
 7684SOL    MW430470   4.035   4.901   5.367 -0.1817  0.5937  0.1139
 7685SOL     OW30471   4.508   2.854   5.712  0.3329 -0.2647 -0.9621
 7685SOL    HW230472   4.482   2.947   5.707  1.0768  0.0283  0.3420
 7685SOL    HW330473   4.425   2.807   5.717 -0.0372  0.4863  0.5071
 7685SOL    MW430474   4.494   2.860   5.712  0.3297  0.3068 -0.1026
 7686SOL     OW30475   1.668   2.188   5.473  0.1019 -0.1203  0.8428
 7686SOL    HW230476   1.684   2.098   5.447 -1.0740  0.2595 -1.5047
 7686SOL    HW330477   1.754   2.222   5.499  1.3362 -0.8948 -1.8303
 7686SOL    MW430478   1.681   2.181   5.473  0.2114 -0.5767  0.1971
 7687SOL     OW30479   1.930   1.719   0.743  0.2550  0.0216  0.3639
 7687SOL    HW230480   1.989   1.703   0.669 -0.1152  0.2780  0.0101
 7687SOL    HW330481   1.844   1.690   0.712 -0.0954  1.0727  0.3371
 7687SOL    MW430482   1.927   1.713   0.729  0.1532 -0.4160 -0.3015
 7688SOL     OW30483   5.490   5.824   1.477  0.1053 -0.0128  0.1166
 7688SOL    HW230484   5.488   5.747   1.419  0.4340 -0.4578  0.6833
 7688SOL    HW330485   5.555   5.802   1.544  2.5034  1.9860 -1.3586
 7688SOL    MW430486   5.498   5.811   1.478 -0.1274 -0.0484  0.5579
 7689SOL     OW30487   3.873   6.130   5.817 -0.4266  0.1359 -0.0383
 7689SOL    HW230488   3.861   6.135   5.722  1.0596  0.9130 -0.2299
 7689SOL    HW330489   3.789   6.158   5.854 -0.6306  1.0627 -1.1462
 7689SOL    MW430490   3.861   6.135   5.810 -0.3178 -0.3104  0.3447
 7690SOL     OW30491   5.788   6.172   3.738  0.5743  0.3179 -0.2067
 7690SOL    HW230492   5.871   6.206   3.705  1.5493  0.7053  2.3944
 7690SOL    HW330493   5.813   6.122   3.816 -1.8037  2.5050  2.1344
 7690SOL    MW430494   5.802   6.170   3.744 -0.0646 -0.1331 -0.6122
 7691SOL     OW30495   0.027   5.238   5.967  0.7791 -0.2395  0.1313
 7691SOL    HW230496  -0.005   5.295   5.898 -0.0524  0.5413  1.1430
 7691SOL    HW330497   0.100   5.190   5.926 -1.2302 -1.6376 -2.0400
 7691SOL    MW430498   0.033   5.239   5.952 -0.5824 -0.2147 -0.1838
 7692SOL     OW30499   5.941   4.135   0.391  0.5728  0.6478  0.2127
 7692SOL    HW230500   5.987   4.075   0.334  0.6843  2.2951 -1.5212
 7692SOL    HW330501   5.853   4.097   0.401  1.0458 -0.4493  0.2571
 7692SOL    MW430502   5.935   4.122   0.385  0.1723  0.0216  0.5157
 7693SOL     OW30503   4.422   1.985   0.705 -0.4319 -0.9915 -0.0958
 7693SOL    HW230504   4.340   1.998   0.657  0.1796 -1.9927 -1.5109
 7693SOL    HW330505   4.462   2.072   0.708 -1.8066 -0.3817  1.1509
 7693SOL    MW430506   4.416   1.998   0.699  0.1414  0.4815 -0.0414
 7694SOL     OW30507   6.235   3.210   2.564  0.2073 -0.0773  0.5708
 7694SOL    HW230508   6.244   3.142   2.497  0.7580 -0.3269  0.8900
 7694SOL    HW330509   6.141   3.221   2.574  0.0563  1.2729 -1.5601
 7694SOL    MW430510   6.224   3.202   2.556  0.3386  0.1788  0.2758
 7695SOL     OW30511   4.642   5.252   5.373 -0.1382 -0.4193  0.6882
 7695SOL    HW230512   4.719   5.218   5.419  0.4565 -0.8302 -0.5781
 7695SOL    HW330513   4.666   5.340   5.347 -0.0913 -0.5614  0.2560
 7695SOL    MW430514   4.655   5.259   5.376  0.1011 -0.1679 -0.0190
 7696SOL     OW30515   2.770   1.602   2.845  0.0882 -0.0164  0.4588
 7696SOL    HW230516   2.789   1.688   2.883  0.2961  0.0887  0.1266
 7696SOL    HW330517   2.674   1.600   2.838 -0.0532 -0.5143  2.0549
 7696SOL    MW430518   2.760   1.613   2.849  0.8482 -0.1767 -0.3067
 7697SOL     OW30519   5.231   4.714   0.551  0.7953 -0.4516 -0.0029
 7697SOL    HW230520   5.175   4.790   0.570 -0.0030 -1.0726  0.2173
 7697SOL    HW330521   5.308   4.726   0.607  0.5869  0.0975  0.1717
 7697SOL    MW430522   5.234   4.726   0.561 -0.4287  0.4301  0.1683
 7698SOL     OW30523   6.149   1.994   5.652  0.3724 -0.4399 -0.0258
 7698SOL    HW230524   6.082   2.061   5.642  0.2557 -0.5987 -0.3444
 7698SOL    HW330525   6.100   1.914   5.670  0.5614 -0.2408  1.4720
 7698SOL    MW430526   6.134   1.992   5.653 -0.3110 -0.3815  0.5909
 7699SOL     OW30527   3.839   1.268   3.198  0.6620  0.0564 -0.3468
 7699SOL    HW230528   3.808   1.178   3.189  0.1670  0.0209  1.4567
 7699SOL    HW330529   3.931   1.264   3.171  0.8494 -1.1626  0.3880
 7699SOL    MW430530   3.847   1.255   3.193 -0.4799  0.5958 -0.6951
 7700SOL     OW30531   4.478   0.795   0.127  0.1240 -0.9021  0.2113
 7700SOL    HW230532   4.427   0.714   0.121  0.9418 -1.3279 -2.5084
 7700SOL    HW330533   4.488   0.824   0.036  0.2319  2.0591  1.0678
 7700SOL    MW430534   4.473   0.788   0.114 -0.0731 -0.0580 -0.5103
 7701SOL     OW30535   3.497   5.627   0.793  0.1865 -0.5625  0.2759
 7701SOL    HW230536   3.499   5.544   0.743  2.0252  0.3880 -1.3764
 7701SOL    HW330537   3.422   5.674   0.758  0.4353 -0.6445 -0.3915
 7701SOL    MW430538   3.488   5.622   0.782 -0.3774 -0.8617  0.0474
 7702SOL     OW30539   6.196   3.773   3.216 -0.1595 -0.0253 -0.2443
 7702SOL    HW230540   6.193   3.714   3.291  2.1924  0.2545  0.1506
 7702SOL    HW330541   6.289   3.780   3.194 -0.5024  2.2562 -1.2989
 7702SOL    MW430542   6.208   3.767   3.223  0.5919 -0.3654 -0.3405
 7703SOL     OW30543   0.651   1.392   3.473 -0.1150  0.1775 -0.2740
 7703SOL    HW230544   0.667   1.482   3.447  1.3260  0.0425  0.0195
 7703SOL    HW330545   0.725   1.343   3.437 -0.1949 -0.6631  0.6539
 7703SOL    MW430546   0.663   1.397   3.465  0.4911 -0.4262  0.4193
 7704SOL     OW30547   2.143   5.844   5.863  0.4131  0.5919  0.1386
 7704SOL    HW230548   2.139   5.939   5.869  0.5920  0.6947 -1.1189
 7704SOL    HW330549   2.153   5.814   5.953 -0.9538  1.6867  0.6656
 7704SOL    MW430550   2.144   5.852   5.876  0.0780  0.7753 -0.4192
 7705SOL     OW30551   0.072   2.427   3.780 -0.4413 -0.6484  0.1500
 7705SOL    HW230552   0.101   2.492   3.717 -2.3726 -0.3825 -0.5385
 7705SOL    HW330553   0.141   2.424   3.846  0.6575  0.5544 -0.9038
 7705SOL    MW430554   0.085   2.435   3.780  0.3158  0.3019 -0.2066
 7706SOL     OW30555   4.422   5.683   2.988  0.7117  0.3774 -0.0023
 7706SOL    HW230556   4.513   5.657   2.971  0.5816 -0.4122  0.4664
 7706SOL    HW330557   4.370   5.625   2.933  0.4828  0.7740 -0.2061
 7706SOL    MW430558   4.427   5.672   2.978 -0.7053 -0.0621  0.2650
 7707SOL     OW30559   0.578   2.770   1.295  0.0823  0.1673  0.2372
 7707SOL    HW230560   0.607   2.687   1.260 -2.0115 -1.2895  1.6941
 7707SOL    HW330561   0.605   2.835   1.230  3.1042 -1.3904 -0.2262
 7707SOL    MW430562   0.585   2.768   1.282  0.7643  0.1419  0.0639
 7708SOL     OW30563   2.877   3.884   4.696  0.0130 -0.5573 -0.7856
 7708SOL    HW230564   2.893   3.972   4.732 -0.0360 -0.9930  0.3335
 7708SOL    HW330565   2.905   3.891   4.605 -0.1483  0.6722 -0.7650
 7708SOL    MW430566   2.883   3.897   4.689  0.2403 -0.1638 -0.1595
 7709SOL     OW30567   1.166   3.665   0.401  0.5058  0.1432 -0.3899
 7709SOL    HW230568   1.074   3.687   0.390  0.6851  0.7860 -0.6202
 7709SOL    HW330569   1.169   3.615   0.483  0.0799  0.9174  0.1171
 7709SOL    MW430570   1.154   3.661   0.411 -0.2396  0.7906  0.5926
 7710SOL     OW30571   3.834   6.298   3.761  0.1029 -0.0174  0.2765
 7710SOL    HW230572   3.777   6.313   3.837 -0.8620  3.3896 -0.9398
 7710SOL    HW330573   3.779   6.253   3.697  0.1523 -0.6294  0.6556
 7710SOL    MW430574   3.820   6.294   3.763  0.2525 -0.8858  0.6504
 7711SOL     OW30575   1.814   4.108   1.294  0.0289  0.1033  0.3712
 7711SOL    HW230576   1.867   4.141   1.367  0.1643 -1.6133  1.0851
 7711SOL    HW330577   1.862   4.031   1.262 -0.4946  0.3020 -0.9634
 7711SOL    MW430578   1.828   4.102   1.299  0.1415  0.3142  0.0993
 7712SOL     OW30579   0.290   1.868   3.262 -0.0819  0.3226 -0.1613
 7712SOL    HW230580   0.248   1.953   3.258 -0.2349  0.2388 -0.3121
 7712SOL    HW330581   0.318   1.850   3.172 -1.8279 -0.6909 -0.5355
 7712SOL    MW430582   0.288   1.877   3.249 -0.3619  0.3234 -0.6506
 7713SOL     OW30583   2.276   3.114   3.192  0.4030  0.2640  0.5179
 7713SOL    HW230584   2.326   3.034   3.174 -0.6297 -0.6173  1.4094
 7713SOL    HW330585   2.276   3.161   3.108  0.8230 -0.7816 -0.0981
 7713SOL    MW430586   2.283   3.110   3.178 -0.0512 -0.0941  0.0918
 7714SOL     OW30587   4.362   5.171   4.692  0.1882  0.0786 -0.5590
 7714SOL    HW230588   4.360   5.127   4.777  1.2508  0.3688 -0.3673
 7714SOL    HW330589   4.397   5.105   4.631  1.6973  0.5858 -0.2882
 7714SOL    MW430590   4.366   5.157   4.695  0.0904  0.7122  0.5423
 7715SOL     OW30591   6.160   1.320   4.305  0.6460 -0.3135  0.2189
 7715SOL    HW230592   6.085   1.376   4.322  0.4156 -0.3929 -0.5061
 7715SOL    HW330593   6.148   1.245   4.363  0.7787  0.2163  0.9401
 7715SOL    MW430594   6.149   1.317   4.315 -0.8281 -0.5249  0.6333
 7716SOL     OW30595   3.993   3.439   4.221 -0.1611  0.3870  0.0518
 7716SOL    HW230596   3.909   3.446   4.266  0.2309 -0.8103  1.0200
 7716SOL    HW330597   3.995   3.350   4.185  0.7459  0.3281  0.1989
 7716SOL    MW430598   3.983   3.428   4.223 -0.1588 -0.2573 -0.3399
 7717SOL     OW30599   4.637   3.914   1.850 -0.6066 -0.8946  0.4367
 7717SOL    HW230600   4.609   3.868   1.771 -2.3017  0.7593  0.0012
 7717SOL    HW330601   4.666   4.000   1.819  0.6698 -0.9401  1.4172
 7717SOL    MW430602   4.637   3.919   1.836 -0.2540  0.2240  0.2269
 7718SOL     OW30603   5.807   5.445   0.669 -0.3373  0.4481 -0.4139
 7718SOL    HW230604   5.740   5.460   0.736  0.2072  1.4614 -0.0687
 7718SOL    HW330605   5.806   5.351   0.655  1.0062 -0.1377  2.6167
 7718SOL    MW430606   5.798   5.435   0.676  0.5341 -0.1318 -0.4174
 7719SOL     OW30607   3.027   4.140   5.669  0.7581 -0.2278  0.1769
 7719SOL    HW230608   2.994   4.190   5.595 -1.3857 -1.5396  0.1518
 7719SOL    HW330609   2.966   4.067   5.677  2.8521 -1.9876  1.1609
 7719SOL    MW430610   3.015   4.137   5.660 -0.0552  0.1396 -0.1155
 7720SOL     OW30611   3.743   0.549   3.807  0.2728  0.1320  0.4432
 7720SOL    HW230612   3.827   0.520   3.772 -0.2465  0.4319 -1.1435
 7720SOL    HW330613   3.705   0.470   3.846  0.3660 -0.5456 -0.7753
 7720SOL    MW430614   3.749   0.534   3.807 -0.0940  0.3356 -0.4363
 7721SOL     OW30615   2.762   2.258   6.026 -0.6812  0.4702  0.3024
 7721SOL    HW230616   2.772   2.336   5.971  1.0435 -1.2823 -2.0914
 7721SOL    HW330617   2.845   2.211   6.015 -1.9579 -2.1116  0.9864
 7721SOL    MW430618   2.775   2.262   6.017 -0.4292 -0.1684 -0.6940
 7722SOL     OW30619   4.190   1.272   4.720  0.0543  0.3473  0.0698
 7722SOL    HW230620   4.245   1.331   4.667 -1.3365  1.6305 -0.0088
 7722SOL    HW330621   4.250   1.237   4.786  1.4307  0.0745 -1.2620
 7722SOL    MW430622   4.205   1.275   4.722  0.1691 -0.5171 -0.3435
 7723SOL     OW30623   1.364   4.725   0.796 -0.2575  0.0607  0.0405
 7723SOL    HW230624   1.271   4.732   0.820 -0.5374 -0.3196 -0.8774
 7723SOL    HW330625   1.395   4.648   0.843 -0.4282  0.1506  0.3029
 7723SOL    MW430626   1.356   4.716   0.805 -0.0339  0.2202 -0.8111
 7724SOL     OW30627   0.944   6.083   1.903 -0.1738 -0.8599 -0.0619
 7724SOL    HW230628   0.928   6.145   1.832 -1.9069 -0.5062  0.5933
 7724SOL    HW330629   0.985   6.135   1.972 -0.5418 -0.6951  0.0359
 7724SOL    MW430630   0.948   6.098   1.903 -0.4268 -0.5930  0.2352
 7725SOL     OW30631   4.069   1.499   3.823  0.5129  0.4697 -0.8005
 7725SOL    HW230632   4.161   1.474   3.815  0.4345 -0.1788  0.0600
 7725SOL    HW330633   4.026   1.458   3.748  0.9438  0.8927 -1.2840
 7725SOL    MW430634   4.075   1.490   3.812 -0.2581  0.2625 -0.0538
 7726SOL     OW30635   6.129   6.306   1.593 -0.0492  0.6152  0.2316
 7726SOL    HW230636   6.044   6.279   1.558 -0.8038  0.5173  2.0458
 7726SOL    HW330637   6.158   6.231   1.645  0.6676  1.0335  0.4497
 7726SOL    MW430638   6.122   6.292   1.595 -0.3144  0.2430  0.4558
 7727SOL     OW30639   3.183   3.125   4.790  0.4645 -0.3849 -0.3747
 7727SOL    HW230640   3.257   3.089   4.742  0.6259  0.4628 -0.7842
 7727SOL    HW330641   3.175   3.215   4.758 -0.4661 -0.3249 -0.0205
 7727SOL    MW430642   3.191   3.132   4.779  0.7052 -0.0289  0.4589
 7728SOL     OW30643   1.740   0.730   4.503 -0.1607  0.0154  0.0308
 7728SOL    HW230644   1.816   0.676   4.482 -1.0147 -0.6698 -1.4558
 7728SOL    HW330645   1.728   0.785   4.426 -2.9196 -1.9923 -1.1488
 7728SOL    MW430646   1.748   0.730   4.490 -0.3172 -0.2182 -0.7640
 7729SOL     OW30647   1.742   3.126   0.225 -0.4567 -0.1386 -0.1305
 7729SOL    HW230648   1.701   3.137   0.311  0.6453 -0.7238  0.5036
 7729SOL    HW330649   1.836   3.125   0.244 -0.1398  0.9723 -1.5046
 7729SOL    MW430650   1.749   3.127   0.239 -0.0040  0.4051 -0.1074
 7730SOL     OW30651   4.125   0.097   6.069  0.3856  0.5786  0.0023
 7730SOL    HW230652   4.109   0.187   6.095  0.0687  0.8703 -1.1703
 7730SOL    HW330653   4.070   0.084   5.992  0.2077 -0.7065  0.3231
 7730SOL    MW430654   4.116   0.107   6.063 -0.0338 -0.5344 -0.4834
 7731SOL     OW30655   3.438   3.702   4.523 -0.3236 -0.1649 -0.0492
 7731SOL    HW230656   3.387   3.761   4.578  0.3422  1.0919 -0.7573
 7731SOL    HW330657   3.472   3.636   4.583 -0.4541  0.5961  0.8768
 7731SOL    MW430658   3.435   3.701   4.538  0.6003 -0.7244  0.2447
 7732SOL     OW30659   4.474   0.234   2.786  0.1593 -0.1408 -0.4568
 7732SOL    HW230660   4.437   0.185   2.712 -1.2646 -0.4098  0.3976
 7732SOL    HW330661   4.527   0.169   2.832 -1.9551 -1.0684  0.8375
 7732SOL    MW430662   4.476   0.219   2.782  0.2208  0.3907 -0.1497
 7733SOL     OW30663   0.085   6.303   4.134 -0.7228 -0.3337  0.3374
 7733SOL    HW230664   0.045   6.264   4.211 -0.4179  1.4306  1.4526
 7733SOL    HW330665   0.165   6.252   4.119 -2.2176 -2.5542 -0.6500
 7733SOL    MW430666   0.090   6.291   4.142 -0.3429 -0.0376 -0.3123
 7734SOL     OW30667   0.360   3.761   1.157  0.5322  0.3538  0.1463
 7734SOL    HW230668   0.390   3.848   1.131 -1.1189  0.5193 -1.3832
 7734SOL    HW330669   0.413   3.701   1.104  1.6280  0.3755  1.1573
 7734SOL    MW430670   0.371   3.764   1.146  0.1375 -0.1915 -0.3233
 7735SOL     OW30671   2.199   4.214   0.396  0.4820 -0.3835  0.3812
 7735SOL    HW230672   2.145   4.288   0.369 -2.4129 -1.8670  1.7189
 7735SOL    HW330673   2.272   4.255   0.444  0.7525  1.6916 -1.6135
 7735SOL    MW430674   2.202   4.230   0.399 -0.7006  0.1862  0.1754
 7736SOL     OW30675   2.639   5.767   1.353  0.1843 -0.1491  0.2400
 7736SOL    HW230676   2.563   5.708   1.347  0.4048 -0.5211  0.9639
 7736SOL    HW330677   2.600   5.855   1.356 -0.1922 -0.3048 -0.0003
 7736SOL    MW430678   2.624   5.771   1.353 -0.8443  0.1367  0.1143
 7737SOL     OW30679   2.204   3.028   5.831  0.3945  0.3628 -0.5005
 7737SOL    HW230680   2.182   2.959   5.894 -0.8807  0.6999 -0.5411
 7737SOL    HW330681   2.137   3.095   5.845  2.1098  2.0371  0.1713
 7737SOL    MW430682   2.192   3.028   5.842  0.5415 -0.1333  0.2004
 7738SOL     OW30683   3.209   5.276   3.951  0.0260  0.3008 -0.3311
 7738SOL    HW230684   3.223   5.261   4.045  1.7897  0.1097 -0.5825
 7738SOL    HW330685   3.272   5.219   3.908 -0.6989  0.4528 -1.6478
 7738SOL    MW430686   3.219   5.267   3.958  0.5147  0.0144  0.0861
 7739SOL     OW30687   2.011   4.929   3.075 -0.2333  0.1552 -0.0480
 7739SOL    HW230688   2.033   4.975   3.156  0.5939  0.5011 -0.4554
 7739SOL    HW330689   2.034   4.991   3.006  1.4760 -1.0881 -0.6393
 7739SOL    MW430690   2.017   4.943   3.076 -0.0100 -0.3284  0.3826
 7740SOL     OW30691   2.859   4.035   1.009 -0.5240  0.4008 -0.2298
 7740SOL    HW230692   2.930   4.094   1.036 -0.3052  0.1030 -0.1457
 7740SOL    HW330693   2.847   3.976   1.083 -0.7515  0.3466 -0.3080
 7740SOL    MW430694   2.867   4.035   1.022  0.6542 -0.2439 -0.4479
 7741SOL     OW30695   2.014   1.460   3.058 -0.7140 -0.0290  0.4603
 7741SOL    HW230696   1.954   1.443   2.986 -1.2024  1.3212  0.5199
 7741SOL    HW330697   2.097   1.482   3.016 -0.5936 -0.6760  0.3517
 7741SOL    MW430698   2.017   1.461   3.043 -0.1962 -0.3081 -0.2909
 7742SOL     OW30699   2.571   2.635   5.755  0.4154  0.2248  0.3847
 7742SOL    HW230700   2.648   2.581   5.772 -0.6721 -1.9647 -1.1462
 7742SOL    HW330701   2.497   2.579   5.780 -0.7464  1.1128 -0.9496
 7742SOL    MW430702   2.572   2.620   5.760  0.4640  0.9767  0.1880
 7743SOL     OW30703   5.670   1.143   2.059  0.2245  0.1774  0.1095
 7743SOL    HW230704   5.674   1.048   2.044 -0.3309  0.3799 -1.5800
 7743SOL    HW330705   5.762   1.171   2.058  0.3514  0.1159 -3.2984
 7743SOL    MW430706   5.683   1.134   2.057 -0.0258  0.5436  0.5868
 7744SOL     OW30707   4.194   6.299   3.582 -0.0465  0.6278 -0.5802
 7744SOL    HW230708   4.217   6.357   3.510  0.9850  0.3208 -0.5209
 7744SOL    HW330709   4.159   6.357   3.650  1.0551  1.2111 -0.4886
 7744SOL    MW430710   4.193   6.314   3.582 -0.2672  0.0652  0.2740
 7745SOL     OW30711   1.265   3.434   5.614  0.1551 -0.5094  0.2292
 7745SOL    HW230712   1.325   3.507   5.624  1.6952 -1.8595  1.2993
 7745SOL    HW330713   1.213   3.433   5.694  0.5979 -0.9701  0.5165
 7745SOL    MW430714   1.266   3.443   5.626 -0.7574  0.0395  0.3913
 7746SOL     OW30715   0.695   1.518   5.158 -0.0762 -0.1683 -0.1948
 7746SOL    HW230716   0.665   1.594   5.108 -2.0556 -1.4451 -1.0839
 7746SOL    HW330717   0.695   1.547   5.249 -0.9775  0.8500 -0.4926
 7746SOL    MW430718   0.691   1.532   5.163 -0.4540 -0.3391  0.7267
 7747SOL     OW30719   3.716   4.525   3.078 -0.1315  0.0003  0.2865
 7747SOL    HW230720   3.756   4.456   3.025 -0.0979  0.3374 -0.1395
 7747SOL    HW330721   3.622   4.518   3.061 -0.1907 -0.3474  0.7442
 7747SOL    MW430722   3.709   4.515   3.069 -0.1057 -0.6781  0.2445
 7748SOL     OW30723   2.767   1.434   3.683  0.1717 -0.0558 -0.3258
 7748SOL    HW230724   2.831   1.430   3.612  0.9079  0.3254  0.2986
 7748SOL    HW330725   2.804   1.377   3.751 -0.5077 -0.3935 -0.2266
 7748SOL    MW430726   2.781   1.426   3.683  0.2136 -0.2645  0.3567
 7749SOL     OW30727   1.697   4.244   4.561  0.2570  0.3879  0.4384
 7749SOL    HW230728   1.789   4.224   4.580  0.5330  1.5351  0.3415
 7749SOL    HW330729   1.648   4.185   4.618  1.0172 -1.2102 -0.4631
 7749SOL    MW430730   1.703   4.233   4.571 -0.1764 -0.0262  0.0531
 7750SOL     OW30731   4.020   1.257   3.952 -0.0868 -0.1111 -0.0117
 7750SOL    HW230732   4.019   1.350   3.929 -3.7426 -0.0810 -0.3967
 7750SOL    HW330733   3.980   1.214   3.876 -0.5348 -1.6863  1.0723
 7750SOL    MW430734   4.014   1.264   3.939  0.4283 -0.3958  0.6048
 7751SOL     OW30735   4.784   1.007   5.523  0.1465 -0.0217 -0.0480
 7751SOL    HW230736   4.795   0.933   5.584  1.0997 -0.1756 -0.3939
 7751SOL    HW330737   4.856   0.997   5.461 -1.1242 -0.1885 -1.5478
 7751SOL    MW430738   4.795   0.996   5.523 -0.0753  0.2190 -0.0680
 7752SOL     OW30739   3.998   2.222   5.957  0.2034 -0.5106  0.0548
 7752SOL    HW230740   3.990   2.134   5.918  0.1833 -0.8598  0.8270
 7752SOL    HW330741   4.090   2.229   5.982  0.2465 -0.2351 -0.1823
 7752SOL    MW430742   4.009   2.211   5.955 -0.0165  0.2586  0.1669
 7753SOL     OW30743   0.043   5.459   0.103 -0.1764  0.0495  0.0168
 7753SOL    HW230744   0.049   5.378   0.153 -0.8204 -0.3232 -0.4958
 7753SOL    HW330745  -0.015   5.438   0.030 -0.2558  0.9424 -0.1858
 7753SOL    MW430746   0.036   5.446   0.100  0.1244 -0.1088 -0.4655
 7754SOL     OW30747   2.792   5.553   5.370 -0.1620  0.0927  0.0607
 7754SOL    HW230748   2.698   5.566   5.362 -0.1206  0.5232  0.2202
 7754SOL    HW330749   2.809   5.558   5.464  0.1431  1.0065 -0.0238
 7754SOL    MW430750   2.782   5.556   5.382  0.7394  0.3019  0.5157
 7755SOL     OW30751   1.811   2.262   5.825 -0.4557  0.4234 -0.7231
 7755SOL    HW230752   1.846   2.301   5.745 -2.0448  1.7356 -0.8300
 7755SOL    HW330753   1.838   2.322   5.894 -2.1126  1.2792 -0.7675
 7755SOL    MW430754   1.819   2.275   5.824 -0.1299  0.0560  0.7728
 7756SOL     OW30755   4.899   2.431   2.918 -0.8844 -0.0200 -0.1738
 7756SOL    HW230756   4.956   2.467   2.986  0.3546  0.8904 -1.6114
 7756SOL    HW330757   4.811   2.461   2.942 -0.3168  1.2630  0.4271
 7756SOL    MW430758   4.895   2.440   2.930 -0.1827 -0.2174  0.6924
 7757SOL     OW30759   5.432   3.523   4.493 -0.0815 -0.0322 -0.5092
 7757SOL    HW230760   5.470   3.557   4.574  0.4389 -0.6140 -0.5035
 7757SOL    HW330761   5.402   3.601   4.446 -0.0534  0.3366  0.0729
 7757SOL    MW430762   5.433   3.538   4.498 -0.7814 -0.6243  0.0231
 7758SOL     OW30763   1.739   3.266   4.026  0.2053  0.4325  0.3055
 7758SOL    HW230764   1.759   3.249   3.934  0.5071  1.2212  0.2206
 7758SOL    HW330765   1.652   3.307   4.024 -0.4924 -0.9821  0.5044
 7758SOL    MW430766   1.730   3.269   4.014  0.0330 -0.2300  0.3776
 7759SOL     OW30767   0.035   0.251   5.613  0.4868 -0.0237  0.6273
 7759SOL    HW230768  -0.027   0.324   5.603 -0.1034 -0.6078 -0.2231
 7759SOL    HW330769  -0.021   0.175   5.627  1.0906 -0.3456  1.3468
 7759SOL    MW430770   0.019   0.251   5.613  0.1279 -0.0170  0.6892
 7760SOL     OW30771   1.176   5.018   1.336 -0.0704  0.0570 -0.5349
 7760SOL    HW230772   1.161   4.926   1.314 -1.3615  0.0685  0.2230
 7760SOL    HW330773   1.255   5.041   1.287 -0.0409 -1.2917 -1.1780
 7760SOL    MW430774   1.185   5.009   1.326  0.5739  0.2189 -0.6742
 7761SOL     OW30775   2.326   4.849   6.330  0.2596  0.2033  0.1101
 7761SOL    HW230776   2.408   4.894   6.311  1.0274 -1.0144  0.4444
 7761SOL    HW330777   2.300   4.880   6.416 -0.3269  1.5568 -0.5243
 7761SOL    MW430778   2.333   4.859   6.339  0.1494 -0.8063  0.1169
 7762SOL     OW30779   5.542   2.043   3.702  0.3045 -0.2975  0.2722
 7762SOL    HW230780   5.586   2.122   3.671 -1.7807  0.3031 -1.3589
 7762SOL    HW330781   5.483   2.019   3.631  0.5399 -3.1002  0.9006
 7762SOL    MW430782   5.540   2.050   3.688 -0.4659 -0.2918 -0.0676
 7763SOL     OW30783   3.411   0.277   2.179  0.5625  0.0368 -0.2824
 7763SOL    HW230784   3.488   0.333   2.191  0.6629 -0.5889  2.8540
 7763SOL    HW330785   3.446   0.198   2.137  0.8846  1.1976 -2.3288
 7763SOL    MW430786   3.426   0.274   2.175  0.0317  1.1468 -0.8347
 7764SOL     OW30787   3.381   1.852   5.762  0.1154 -0.1035 -0.2594
 7764SOL    HW230788   3.414   1.762   5.762  0.3776 -0.0142 -1.2759
 7764SOL    HW330789   3.345   1.864   5.850  0.5819 -1.0140  0.0672
 7764SOL    MW430790   3.381   1.842   5.774 -0.4104  0.6103  0.0203
 7765SOL     OW30791   0.823   0.037   5.489 -0.7003  0.4358 -0.3237
 7765SOL    HW230792   0.855   0.037   5.399  0.9455 -4.5256  0.0036
 7765SOL    HW330793   0.730   0.017   5.481 -0.3758 -0.9517 -0.9868
 7765SOL    MW430794   0.815   0.035   5.476 -0.4072 -0.1958  0.1059
 7766SOL     OW30795   4.036   4.056   1.409  0.1429  0.3741 -0.0758
 7766SOL    HW230796   3.941   4.053   1.421  0.1006  1.0804 -0.2020
 7766SOL    HW330797   4.050   4.123   1.343  0.7196  0.1216 -0.2163
 7766SOL    MW430798   4.025   4.064   1.402  0.0646 -0.0760  0.0336
 7767SOL     OW30799   0.599   0.087   5.923  0.1583  0.0041 -0.3061
 7767SOL    HW230800   0.630   0.016   5.867 -0.2463 -1.0661  0.7688
 7767SOL    HW330801   0.505   0.070   5.932 -0.4932  2.1355 -2.0388
 7767SOL    MW430802   0.590   0.075   5.917 -0.0771 -1.0986  0.5048
 7768SOL     OW30803   4.770   3.325   2.221  0.4814 -0.0293  0.5102
 7768SOL    HW230804   4.765   3.356   2.130  1.6509  0.4792  0.5950
 7768SOL    HW330805   4.680   3.301   2.243  0.2814 -0.8272 -1.0117
 7768SOL    MW430806   4.757   3.326   2.212 -0.0256  0.2228 -0.4461
 7769SOL     OW30807   1.435   4.973   0.925  0.0510 -0.0631  0.5357
 7769SOL    HW230808   1.438   4.879   0.905  1.6065 -0.0487  0.5352
 7769SOL    HW330809   1.342   4.995   0.925 -0.2527 -1.1455 -1.5512
 7769SOL    MW430810   1.423   4.964   0.922 -0.3855 -0.0544 -0.2085
 7770SOL     OW30811   1.286   5.180   5.497 -0.0511 -0.5930  0.2314
 7770SOL    HW230812   1.291   5.094   5.538 -1.3554  0.0975  1.9285
 7770SOL    HW330813   1.323   5.240   5.561  0.4644  0.1843 -0.7598
 7770SOL    MW430814   1.291   5.177   5.511  0.0341 -0.2079  0.0513
 7771SOL     OW30815   5.790   5.972   6.303 -0.5583  0.0171  0.7805
 7771SOL    HW230816   5.871   6.000   6.262 -0.6321 -0.6853  0.1377
 7771SOL    HW330817   5.810   5.887   6.341 -0.9678 -0.1228  0.6889
 7771SOL    MW430818   5.803   5.965   6.303 -0.0984  0.4891 -0.3479
 7772SOL     OW30819   2.901   3.072   5.968 -0.5452 -0.2291 -0.0501
 7772SOL    HW230820   2.983   3.063   6.016  0.8353  0.5414 -2.1146
 7772SOL    HW330821   2.893   3.165   5.950 -1.4600 -0.3965 -0.5720
 7772SOL    MW430822   2.911   3.083   5.972 -0.3096  0.2223 -0.1670
 7773SOL     OW30823   6.317   0.236   3.336 -0.0135 -0.5085 -0.0443
 7773SOL    HW230824   6.257   0.198   3.272 -0.6628 -1.3687  1.0367
 7773SOL    HW330825   6.260   0.272   3.404  0.6686 -0.3233  0.4395
 7773SOL    MW430826   6.302   0.236   3.337 -0.7166  0.0546  0.3230
 7774SOL     OW30827   1.227   1.563   5.388 -0.1005  0.5177  0.0314
 7774SOL    HW230828   1.156   1.624   5.369 -0.4531  0.2001  0.2999
 7774SOL    HW330829   1.281   1.563   5.309 -0.7661  0.2592 -0.4299
 7774SOL    MW430830   1.225   1.571   5.375  0.2886 -0.3588  0.0104
 7775SOL     OW30831   5.441   2.940   5.112  0.0505 -0.0009  0.4152
 7775SOL    HW230832   5.386   2.869   5.146  0.0512 -0.9829 -1.5090
 7775SOL    HW330833   5.403   3.020   5.150 -0.9688 -0.8785  1.3183
 7775SOL    MW430834   5.429   2.941   5.122  0.3010  0.6747 -0.0633
 7776SOL     OW30835   1.704   0.547   5.480  0.5384  0.0337  0.4396
 7776SOL    HW230836   1.749   0.473   5.520  2.5215  1.0355  0.2211
 7776SOL    HW330837   1.689   0.608   5.552  0.3830  0.1017  0.3500
 7776SOL    MW430838   1.708   0.546   5.495 -0.0073 -0.2917 -0.3942
 7777SOL     OW30839   4.545   4.831   1.757 -0.6810  0.2404 -0.2555
 7777SOL    HW230840   4.458   4.865   1.734 -0.4030  0.0487 -1.6557
 7777SOL    HW330841   4.567   4.772   1.685 -0.0327 -0.9006  0.8400
 7777SOL    MW430842   4.536   4.827   1.745  1.0950 -0.1812 -0.6980
 7778SOL     OW30843   3.774   0.836   0.089 -0.5388  0.1401  0.0160
 7778SOL    HW230844   3.825   0.834   0.170 -1.4624 -0.0395  0.6011
 7778SOL    HW330845   3.690   0.874   0.114 -0.4924  0.9754 -1.0602
 7778SOL    MW430846   3.770   0.840   0.103  0.0485 -0.3726 -0.0192
 7779SOL     OW30847   6.199   4.107   0.170 -0.7536 -0.4713  0.2897
 7779SOL    HW230848   6.134   4.152   0.116 -1.3171  1.5409  2.4701
 7779SOL    HW330849   6.155   4.027   0.199 -0.4166 -1.6221 -2.1517
 7779SOL    MW430850   6.185   4.103   0.167  0.3177  0.0185 -0.1378
 7780SOL     OW30851   0.929   5.183   3.595 -0.0797 -0.1291  0.1666
 7780SOL    HW230852   0.884   5.234   3.662 -0.5191 -0.4484  0.1118
 7780SOL    HW330853   0.877   5.104   3.585 -0.1667  0.0294 -0.7391
 7780SOL    MW430854   0.916   5.179   3.603 -0.7083  0.4809  0.2965
 7781SOL     OW30855   2.701   2.870   2.212  0.1205 -0.3614 -0.5700
 7781SOL    HW230856   2.628   2.809   2.214  1.1541 -1.6476 -0.9530
 7781SOL    HW330857   2.691   2.917   2.129 -0.0148 -0.8306 -0.8173
 7781SOL    MW430858   2.690   2.868   2.201  0.4915  0.1397 -0.0822
 7782SOL     OW30859   3.297   3.873   4.230 -0.4649 -0.2867 -0.1620
 7782SOL    HW230860   3.374   3.816   4.231 -0.5625 -0.4084  0.5505
 7782SOL    HW330861   3.328   3.954   4.189 -0.0997 -0.5219 -0.3634
 7782SOL    MW430862   3.312   3.876   4.224  0.6740  0.5325 -0.2567
 7783SOL     OW30863   2.733   0.222   1.949 -0.0118  0.7082  0.0972
 7783SOL    HW230864   2.701   0.178   1.870 -1.7107 -0.5534  1.4122
 7783SOL    HW330865   2.720   0.158   2.019  1.3178  1.8472  1.4482
 7783SOL    MW430866   2.727   0.208   1.947  0.5329  0.0468  0.4219
 7784SOL     OW30867   1.933   1.152   0.415  0.1958 -0.1722  0.0552
 7784SOL    HW230868   1.959   1.102   0.337 -2.2520  0.1232 -1.0497
 7784SOL    HW330869   1.990   1.229   0.415  0.7227 -0.5396 -1.0231
 7784SOL    MW430870   1.944   1.155   0.404 -0.0299 -0.0365 -0.5044
 7785SOL     OW30871   0.273   0.648   4.418 -0.7740 -0.2739 -0.2054
 7785SOL    HW230872   0.182   0.632   4.443 -0.1596 -0.5328  2.0438
 7785SOL    HW330873   0.285   0.742   4.433 -0.7591 -0.1601 -0.8934
 7785SOL    MW430874   0.262   0.659   4.423  0.6027  0.0574  0.2721
 7786SOL     OW30875   0.889   1.860   5.166 -0.0199  0.1186  0.1973
 7786SOL    HW230876   0.827   1.928   5.193 -0.0530  0.9618 -1.8104
 7786SOL    HW330877   0.946   1.903   5.103  2.3211 -0.7873  1.5662
 7786SOL    MW430878   0.889   1.874   5.161  0.3644  0.1858  0.1896
 7787SOL     OW30879   5.331   2.186   2.377 -0.4680  0.5508 -0.1971
 7787SOL    HW230880   5.370   2.262   2.422  1.9587  0.3278 -1.7303
 7787SOL    HW330881   5.396   2.116   2.388 -1.6032 -0.6269 -0.7787
 7787SOL    MW430882   5.345   2.187   2.384  0.1257  0.2019 -0.6159
 7788SOL     OW30883   3.019   0.157   6.076  0.5746  0.6072 -0.2841
 7788SOL    HW230884   3.018   0.243   6.118  0.9825  0.7306 -0.5268
 7788SOL    HW330885   3.010   0.176   5.982 -1.1076  0.2968 -0.2125
 7788SOL    MW430886   3.018   0.171   6.069 -0.3942 -0.4573 -0.6298
 7789SOL     OW30887   4.840   3.470   3.397  0.6061  0.4191  0.5035
 7789SOL    HW230888   4.902   3.466   3.470 -1.2579  1.4897  2.2229
 7789SOL    HW330889   4.803   3.558   3.401 -2.1672 -0.6508  0.5635
 7789SOL    MW430890   4.844   3.481   3.407  0.2615 -0.3097  0.6294
 7790SOL     OW30891   2.645   4.116   4.537 -0.3251 -0.1501  0.5921
 7790SOL    HW230892   2.674   4.195   4.491  0.3974 -0.7351  0.0158
 7790SOL    HW330893   2.640   4.143   4.629  0.3210  0.4576  0.4615
 7790SOL    MW430894   2.648   4.130   4.543 -0.3369 -0.2150 -0.3700
 7791SOL     OW30895   0.260   3.411   5.426  0.7753  0.7421  0.5745
 7791SOL    HW230896   0.213   3.482   5.383  1.5806  1.1847  0.4152
 7791SOL    HW330897   0.217   3.402   5.511  0.0912  0.8079  0.2507
 7791SOL    MW430898   0.248   3.419   5.431 -0.5437 -0.0888  0.1361
 7792SOL     OW30899   4.057   2.295   1.060 -0.4648 -0.3944  0.1858
 7792SOL    HW230900   4.082   2.372   1.111  1.9647 -0.1650 -1.1707
 7792SOL    HW330901   3.996   2.327   0.994  0.7612  0.4840 -0.5568
 7792SOL    MW430902   4.052   2.309   1.058  0.0420 -0.3705  0.1423
 7793SOL     OW30903   0.298   2.821   5.071  0.1278 -0.2131 -0.5133
 7793SOL    HW230904   0.335   2.910   5.065 -0.9024  0.2763  0.0894
 7793SOL    HW330905   0.252   2.820   5.155 -0.3152 -1.1496 -0.7537
 7793SOL    MW430906   0.297   2.833   5.081  0.0205 -1.0312  1.0212
 7794SOL     OW30907   2.408   4.741   3.303 -0.8330  0.5671  0.1775
 7794SOL    HW230908   2.343   4.747   3.234 -0.0535  1.2687 -0.5207
 7794SOL    HW330909   2.359   4.751   3.384 -1.7068  0.1077 -0.2835
 7794SOL    MW430910   2.393   4.743   3.305 -0.0766  0.1928 -0.1988
 7795SOL     OW30911   4.040   1.396   0.427 -0.5922 -0.5324 -0.3448
 7795SOL    HW230912   4.108   1.336   0.396 -0.0071  0.0394 -0.2139
 7795SOL    HW330913   4.073   1.429   0.510 -2.6295 -2.8341  1.5067
 7795SOL    MW430914   4.053   1.393   0.434  0.4314 -0.4447  0.8241
 7796SOL     OW30915   4.275   3.365   3.225 -0.6183 -0.1567  0.3531
 7796SOL    HW230916   4.332   3.410   3.287  0.6459 -3.6973  2.0490
 7796SOL    HW330917   4.332   3.339   3.153 -0.8587 -0.6620  0.3330
 7796SOL    MW430918   4.290   3.367   3.224  0.5145  0.5048 -0.4374
 7797SOL     OW30919   6.068   0.611   2.978 -0.0840  0.5517 -0.1119
 7797SOL    HW230920   6.155   0.575   2.997 -0.3337  0.4742  0.9030
 7797SOL    HW330921   6.013   0.534   2.965 -0.4705  0.5461  1.4021
 7797SOL    MW430922   6.072   0.596   2.979 -0.3091  0.4118  0.3239
 7798SOL     OW30923   2.531   5.239   2.440  0.3163  0.2225  0.2030
 7798SOL    HW230924   2.474   5.165   2.463  0.4518  0.3976  1.1453
 7798SOL    HW330925   2.590   5.204   2.374  0.7994 -0.7120  1.0989
 7798SOL    MW430926   2.531   5.224   2.434  0.5178 -0.3088  0.2170
 7799SOL     OW30927   3.563   0.533   1.057  0.2476 -0.0511 -0.1980
 7799SOL    HW230928   3.510   0.477   1.001 -1.0504  2.0778 -1.2422
 7799SOL    HW330929   3.651   0.496   1.051 -0.3265 -1.3146 -1.7149
 7799SOL    MW430930   3.567   0.521   1.049  0.1905  0.1565 -0.0701
 7800SOL     OW30931   4.791   4.982   1.474  0.2463 -0.0965 -0.3518
 7800SOL    HW230932   4.752   5.036   1.543 -1.1315 -1.6821  0.1891
 7800SOL    HW330933   4.851   5.041   1.428 -0.1955  1.5067  1.0179
 7800SOL    MW430934   4.794   4.997   1.477 -0.1640  0.4160 -0.8840
 7801SOL     OW30935   5.708   3.440   2.607  0.3172  0.0820 -0.2352
 7801SOL    HW230936   5.706   3.447   2.512 -0.7153  1.6193 -0.1355
 7801SOL    HW330937   5.708   3.346   2.624  2.5235 -0.2525 -1.7365
 7801SOL    MW430938   5.708   3.428   2.597 -0.6392  0.1164  0.6279
 7802SOL     OW30939   2.867   4.354   2.259 -0.2165 -0.5525  0.1092
 7802SOL    HW230940   2.934   4.298   2.220 -1.6376 -1.0694 -1.7295
 7802SOL    HW330941   2.803   4.368   2.189 -1.3256  1.0821  1.3663
 7802SOL    MW430942   2.867   4.348   2.245  0.2853  0.2950  0.2889
 7803SOL     OW30943   2.522   4.974   6.151 -0.7219 -0.3479 -0.0643
 7803SOL    HW230944   2.468   5.026   6.091 -1.3095  1.4070  1.8841
 7803SOL    HW330945   2.576   4.920   6.093 -1.0569  1.4287 -2.1710
 7803SOL    MW430946   2.522   4.974   6.135 -0.2995 -0.3969 -0.0101
 7804SOL     OW30947   5.104   1.733   1.143 -0.0571 -0.9474 -0.9355
 7804SOL    HW230948   5.186   1.685   1.141  1.8115  1.2811  4.0839
 7804SOL    HW330949   5.053   1.691   1.213 -0.4015  1.2648  0.2704
 7804SOL    MW430950   5.108   1.721   1.152  0.1260 -0.3917 -0.5010
 7805SOL     OW30951   4.382   6.062   4.656  0.1835 -0.1672 -0.5567
 7805SOL    HW230952   4.471   6.096   4.648  0.0122  0.5659  0.5673
 7805SOL    HW330953   4.378   6.024   4.744 -0.8315  0.4679 -0.3148
 7805SOL    MW430954   4.393   6.061   4.666  0.1173  0.2770  0.2207
 7806SOL     OW30955   1.451   0.402   6.149 -0.0522  0.1815 -0.3125
 7806SOL    HW230956   1.466   0.479   6.095 -0.8265  0.9389  0.5208
 7806SOL    HW330957   1.433   0.437   6.237 -0.2969 -0.9451  0.1065
 7806SOL    MW430958   1.451   0.417   6.154 -0.2075 -0.1313  0.0068
 7807SOL     OW30959   6.154   0.458   6.057 -0.0414 -0.0818 -0.6445
 7807SOL    HW230960   6.181   0.456   6.149 -1.9282  0.6755 -0.0171
 7807SOL    HW330961   6.121   0.370   6.040 -1.5161  0.2872  0.0600
 7807SOL    MW430962   6.153   0.447   6.067  0.4132 -0.6727  0.2108
 7808SOL     OW30963   6.298   3.475   2.474 -0.8124 -0.2090  0.1006
 7808SOL    HW230964   6.265   3.395   2.517  1.6698 -1.3260  0.1538
 7808SOL    HW330965   6.355   3.515   2.540  0.0131  0.1742 -0.8191
 7808SOL    MW430966   6.301   3.469   2.489  0.5826  0.4051  0.1173
 7809SOL     OW30967   0.118   3.057   3.118 -0.0697  0.3769  0.7058
 7809SOL    HW230968   0.198   3.051   3.067 -0.2467 -0.3779  0.5038
 7809SOL    HW330969   0.133   3.001   3.194 -0.4280  0.1706  0.6294
 7809SOL    MW430970   0.130   3.049   3.122 -0.3257 -0.6747 -0.2855
 7810SOL     OW30971   6.234   1.098   0.057 -0.0413  0.1793  0.5894
 7810SOL    HW230972   6.300   1.116   0.123 -0.9117 -0.1120  1.5728
 7810SOL    HW330973   6.255   1.010   0.025  0.1177  0.1418  0.7978
 7810SOL    MW430974   6.245   1.089   0.061 -0.0675 -0.1315 -0.3987
 7811SOL     OW30975   6.153   5.405   4.896 -0.0489 -0.6807 -0.0217
 7811SOL    HW230976   6.091   5.432   4.828 -0.9029 -3.0955 -0.2784
 7811SOL    HW330977   6.222   5.471   4.892 -1.2777  0.6045 -1.5530
 7811SOL    MW430978   6.154   5.418   4.886  0.4876  0.3256 -0.3523
 7812SOL     OW30979   3.196   5.039   0.366  0.0289  0.3859  0.7695
 7812SOL    HW230980   3.285   5.004   0.360 -0.6419 -1.2028 -0.5135
 7812SOL    HW330981   3.195   5.111   0.303 -0.1631 -1.0016 -0.8902
 7812SOL    MW430982   3.208   5.044   0.357 -0.1486  0.5437 -0.0471
 7813SOL     OW30983   5.026   4.822   4.122 -0.3032 -0.4674 -0.3958
 7813SOL    HW230984   5.014   4.831   4.217 -0.0143 -1.7087 -0.2208
 7813SOL    HW330985   5.024   4.912   4.089 -0.0824  0.0131  0.8239
 7813SOL    MW430986   5.024   4.835   4.130 -0.3016 -0.3308 -0.3226
 7814SOL     OW30987   4.621   2.668   2.773 -0.3201 -0.3140  0.5167
 7814SOL    HW230988   4.615   2.627   2.686  1.2199  1.2922 -0.4216
 7814SOL    HW330989   4.533   2.703   2.788 -0.5043 -0.2268 -0.6137
 7814SOL    MW430990   4.609   2.667   2.763  0.6194 -0.3153 -0.4945
 7815SOL     OW30991   3.910   1.665   2.947 -0.2689  0.3141 -0.4882
 7815SOL    HW230992   3.877   1.710   2.868  0.7738  1.8516 -0.1024
 7815SOL    HW330993   3.960   1.591   2.913  0.2278  1.0003 -1.2964
 7815SOL    MW430994   3.912   1.661   2.932  0.1930  0.1758 -0.3636
 7816SOL     OW30995   6.300   4.110   4.465 -0.5499  0.3996  0.4580
 7816SOL    HW230996   6.390   4.078   4.456 -0.9251 -0.9339  1.1743
 7816SOL    HW330997   6.307   4.205   4.454  0.5824  0.1283 -2.1201
 7816SOL    MW430998   6.313   4.118   4.462  0.3696  0.6876  0.6914
 7817SOL     OW30999   3.170   4.695   5.079 -0.4047 -0.0856  0.0879
 7817SOL    HW231000   3.224   4.730   5.150  0.8352 -1.4132 -0.1487
 7817SOL    HW331001   3.183   4.756   5.007  1.0181 -0.5077 -0.0403
 7817SOL    MW431002   3.179   4.708   5.079  0.5386 -0.0135  0.0459
 7818SOL     OW31003   2.004   4.119   5.377 -0.0206  0.1872  0.4456
 7818SOL    HW231004   1.940   4.139   5.445  1.1110  0.3002  1.4945
 7818SOL    HW331005   1.971   4.165   5.299 -0.8088  0.8546  1.1562
 7818SOL    MW431006   1.991   4.128   5.376 -0.3023  0.1132 -0.8473
 7819SOL     OW31007   0.730   4.151   1.737  0.5318  0.4699  0.0746
 7819SOL    HW231008   0.770   4.134   1.822  1.2429  0.0555 -0.3259
 7819SOL    HW331009   0.762   4.080   1.681 -0.0472  0.6505 -0.4987
 7819SOL    MW431010   0.740   4.139   1.741  0.6965  0.3263  0.2040
 7820SOL     OW31011   5.873   3.192   0.423 -0.5567  0.1284 -0.1379
 7820SOL    HW231012   5.881   3.261   0.489 -0.1387 -0.1931  0.1511
 7820SOL    HW331013   5.815   3.230   0.356  1.2647  1.5650 -1.0170
 7820SOL    MW431014   5.866   3.206   0.422 -0.1784 -0.0060  0.0731
 7821SOL     OW31015   5.643   2.541   3.195 -0.0136  0.1388 -0.0253
 7821SOL    HW231016   5.667   2.449   3.198  0.7814  0.3469  0.3737
 7821SOL    HW331017   5.591   2.550   3.115 -0.7139 -0.7876  0.3155
 7821SOL    MW431018   5.640   2.530   3.185  0.9020  0.2391  0.4936
 7822SOL     OW31019   5.809   5.030   4.302  0.1691 -0.5745  0.0514
 7822SOL    HW231020   5.829   5.021   4.209 -0.3298  0.3206 -0.1500
 7822SOL    HW331021   5.829   4.944   4.339 -1.4587 -1.5744 -1.2145
 7822SOL    MW431022   5.814   5.017   4.295 -0.8483  0.2764 -0.2783
 7823SOL     OW31023   0.987   2.672   1.027  0.3133 -0.3648 -0.2262
 7823SOL    HW231024   0.998   2.589   1.074  2.9039 -0.1425 -0.2596
 7823SOL    HW331025   1.077   2.698   1.004 -0.3656  2.6703  0.1713
 7823SOL    MW431026   1.001   2.664   1.030  0.4217 -0.6103  0.2536
 7824SOL     OW31027   4.982   3.442   4.206  0.5390 -0.0775 -0.2217
 7824SOL    HW231028   4.927   3.369   4.235  0.7919  0.0207  0.5262
 7824SOL    HW331029   5.005   3.420   4.116  0.2674 -0.7146 -0.1434
 7824SOL    MW431030   4.978   3.429   4.198 -0.6418 -0.0502 -0.2234
 7825SOL     OW31031   5.737   4.371   3.634  1.0546 -0.4463 -0.2132
 7825SOL    HW231032   5.801   4.335   3.572  0.1445  0.7883 -1.9950
 7825SOL    HW331033   5.782   4.370   3.718  3.6320  0.7466 -1.4436
 7825SOL    MW431034   5.752   4.366   3.637 -0.3123 -0.4429  0.3300
 7826SOL     OW31035   4.351   3.240   6.175 -0.2401  0.2837 -0.2507
 7826SOL    HW231036   4.277   3.189   6.144  0.1820  0.6868 -2.0237
 7826SOL    HW331037   4.332   3.330   6.148  0.5992  0.4959 -0.1775
 7826SOL    MW431038   4.339   3.245   6.168  0.2776  0.0782 -0.4435
 7827SOL     OW31039   3.852   5.626   0.920  0.1966 -0.3879 -0.8210
 7827SOL    HW231040   3.807   5.542   0.929  1.1929 -0.7769  1.0584
 7827SOL    HW331041   3.781   5.691   0.924 -0.3797 -1.0452  0.4103
 7827SOL    MW431042   3.836   5.623   0.922 -0.2176  0.1952  0.2197
 7828SOL     OW31043   3.213   4.963   5.575 -0.3252 -0.1538 -0.1413
 7828SOL    HW231044   3.134   4.908   5.579  0.1218 -0.7660  0.3636
 7828SOL    HW331045   3.284   4.902   5.559 -0.0124  0.4627 -1.2034
 7828SOL    MW431046   3.212   4.948   5.573 -0.3854  0.3674  0.0254
 7829SOL     OW31047   1.531   1.388   4.595 -0.3879  0.0141 -0.1863
 7829SOL    HW231048   1.597   1.322   4.577  0.4701 -0.1577  2.9129
 7829SOL    HW331049   1.455   1.339   4.624 -0.7524  0.3133 -0.6246
 7829SOL    MW431050   1.530   1.373   4.597 -0.2202  0.4884 -0.0509
 7830SOL     OW31051   4.912   4.544   4.638  0.2236 -0.2883 -0.4628
 7830SOL    HW231052   4.902   4.574   4.548 -0.0353  2.0465  0.2814
 7830SOL    HW331053   4.832   4.493   4.655  0.4338 -1.0464 -1.6212
 7830SOL    MW431054   4.900   4.541   4.629 -0.1802  1.1841  0.0296
 7831SOL     OW31055   1.429   1.264   6.034  0.0694  0.3162 -0.2119
 7831SOL    HW231056   1.440   1.310   6.118 -0.9492  0.2381 -0.0160
 7831SOL    HW331057   1.481   1.185   6.043  2.2667  1.6017 -0.7363
 7831SOL    MW431058   1.437   1.260   6.047  0.0888 -0.4470  0.4778
 7832SOL     OW31059   2.698   3.995   5.968  0.1701 -0.5276  0.3410
 7832SOL    HW231060   2.651   4.070   6.004  0.7137 -0.6601  1.3892
 7832SOL    HW331061   2.711   4.017   5.876  0.4197  0.7262  0.6489
 7832SOL    MW431062   2.694   4.008   5.961  0.2429  0.1799  0.3745
 7833SOL     OW31063   6.428   3.541   2.212  0.1230 -0.4226 -0.2066
 7833SOL    HW231064   6.399   3.488   2.287 -0.4845  0.3600  0.1351
 7833SOL    HW331065   6.502   3.493   2.176 -1.5794 -2.5790 -1.1323
 7833SOL    MW431066   6.434   3.527   2.217  0.2561  0.2511 -0.0194
 7834SOL     OW31067   2.261   1.787   1.733 -0.3082  0.2405  0.8404
 7834SOL    HW231068   2.340   1.759   1.779 -0.3838 -0.3505  0.6134
 7834SOL    HW331069   2.227   1.708   1.693 -0.1884  0.7639 -0.3307
 7834SOL    MW431070   2.267   1.773   1.734  0.2464  0.2328 -0.5506
 7835SOL     OW31071   2.776   5.917   0.380 -0.4635 -0.3035 -0.6182
 7835SOL    HW231072   2.819   5.831   0.373  0.8544  0.3062 -0.2687
 7835SOL    HW331073   2.848   5.980   0.376 -1.4393  0.8072 -1.1207
 7835SOL    MW431074   2.791   5.914   0.378  0.3949  0.0810 -0.8491
 7836SOL     OW31075   2.188   5.667   5.227 -0.4035  0.1566  0.3273
 7836SOL    HW231076   2.253   5.663   5.297  0.5065 -1.0746 -0.5437
 7836SOL    HW331077   2.189   5.758   5.198 -0.1317  0.4712  1.2848
 7836SOL    MW431078   2.196   5.678   5.232 -0.4050 -0.5869 -0.2621
 7837SOL     OW31079   4.362   4.815   0.978  0.1148 -0.2709 -0.1054
 7837SOL    HW231080   4.278   4.770   0.967 -0.3133  0.6957 -0.9691
 7837SOL    HW331081   4.416   4.753   1.026 -1.2169 -0.7665  0.8312
 7837SOL    MW431082   4.358   4.801   0.983 -0.2400 -0.1368 -0.2574
 7838SOL     OW31083   5.936   0.380   5.479 -1.0011 -0.2418  0.0886
 7838SOL    HW231084   5.876   0.347   5.546 -0.2566  0.8768  1.3420
 7838SOL    HW331085   5.879   0.399   5.404 -1.7291 -2.2969  0.0638
 7838SOL    MW431086   5.920   0.378   5.478  0.0443 -0.5606 -0.3902
 7839SOL     OW31087   1.891   1.074   6.405  0.3317  0.1576  0.5321
 7839SOL    HW231088   1.859   1.164   6.399 -0.6545 -0.0787  1.8399
 7839SOL    HW331089   1.825   1.022   6.359  1.3016  0.1417 -0.9307
 7839SOL    MW431090   1.878   1.079   6.398 -0.1538  0.2462  0.2950
 7840SOL     OW31091   5.361   1.561   4.840  0.2497  0.4288 -0.0801
 7840SOL    HW231092   5.267   1.548   4.832  0.3181  0.0655 -0.3181
 7840SOL    HW331093   5.397   1.526   4.758  0.8145 -1.6585  0.9903
 7840SOL    MW431094   5.353   1.555   4.828  0.0800 -0.1145 -0.5604
 7841SOL     OW31095   5.020   3.848   3.724  0.5379  0.2562  0.1704
 7841SOL    HW231096   4.972   3.805   3.795  0.9761 -1.6729 -0.6390
 7841SOL    HW331097   5.108   3.861   3.759  0.7928 -0.8228 -0.0332
 7841SOL    MW431098   5.025   3.844   3.738  0.2767 -0.6340 -0.4421
 7842SOL     OW31099   2.847   4.919   5.234  0.1054 -0.2329  0.2314
 7842SOL    HW231100   2.936   4.939   5.262  0.2584  0.9087 -0.9538
 7842SOL    HW331101   2.853   4.834   5.191  0.7300  0.0748 -0.2976
 7842SOL    MW431102   2.860   4.910   5.232 -0.1214  0.2175  0.1087
 7843SOL     OW31103   4.402   0.671   1.311  0.1075 -0.3335  0.3535
 7843SOL    HW231104   4.446   0.735   1.366  2.0634  0.4989 -1.9795
 7843SOL    HW331105   4.473   0.632   1.258 -1.1649 -3.5179  0.7460
 7843SOL    MW431106   4.417   0.674   1.311 -0.4645 -0.4555  0.1726
 7844SOL     OW31107   4.861   1.460   4.416 -0.5870  0.7962 -0.2577
 7844SOL    HW231108   4.954   1.478   4.429 -0.7573 -0.0121  2.5391
 7844SOL    HW331109   4.839   1.508   4.335  1.4705  3.8174  0.7832
 7844SOL    MW431110   4.870   1.469   4.407  0.4351 -0.0638  0.3545
 7845SOL     OW31111   6.396   4.030   1.189 -0.6699 -0.4093 -0.2198
 7845SOL    HW231112   6.409   3.987   1.273  2.4538 -0.7054 -0.7353
 7845SOL    HW331113   6.458   4.103   1.190 -1.2370  0.1396 -1.9217
 7845SOL    MW431114   6.406   4.034   1.200  0.1822 -0.0304  0.3783
 7846SOL     OW31115   4.064   3.655   2.764 -0.3568  0.6447 -0.0190
 7846SOL    HW231116   4.023   3.714   2.701  0.1954  1.9766  0.8237
 7846SOL    HW331117   4.027   3.681   2.848 -0.2888 -0.4017  0.3511
 7846SOL    MW431118   4.054   3.666   2.767 -0.0504  0.1634 -0.2020
 7847SOL     OW31119   5.493   3.454   2.169  0.6286  0.1589  0.2184
 7847SOL    HW231120   5.512   3.361   2.182  0.2992  0.0866  0.1929
 7847SOL    HW331121   5.455   3.460   2.082 -0.5340  0.1325  0.7057
 7847SOL    MW431122   5.490   3.443   2.160 -0.2395  0.1977  0.2601
 7848SOL     OW31123   1.463   4.029   2.471  0.4239 -0.0231  0.4705
 7848SOL    HW231124   1.490   3.977   2.395  1.9652  1.0504  0.2414
 7848SOL    HW331125   1.383   4.073   2.442  0.0607 -0.9335  0.0702
 7848SOL    MW431126   1.456   4.028   2.457 -0.7139 -0.6937  0.5489
 7849SOL     OW31127   4.322   6.121   2.262  0.3763 -0.4056  0.6969
 7849SOL    HW231128   4.366   6.206   2.260  0.5542 -0.4788  1.2818
 7849SOL    HW331129   4.231   6.141   2.283  0.2813 -0.3083  0.1888
 7849SOL    MW431130   4.316   6.135   2.265  0.5160  0.2413  0.0953
 7850SOL     OW31131   2.388   2.412   2.546 -0.0494  0.3374 -0.0768
 7850SOL    HW231132   2.329   2.339   2.527  0.4517 -0.3048  0.7163
 7850SOL    HW331133   2.425   2.437   2.461 -0.3298 -0.2521 -0.3782
 7850SOL    MW431134   2.385   2.406   2.533  0.0547 -0.5452  0.2863
 7851SOL     OW31135   5.543   0.276   4.820  0.3987  0.2540 -0.0054
 7851SOL    HW231136   5.515   0.332   4.747  1.7370 -0.5683 -1.2297
 7851SOL    HW331137   5.513   0.189   4.795 -0.4890  0.2022  1.2161
 7851SOL    MW431138   5.535   0.272   4.807  0.2186 -0.3630 -0.3494
 7852SOL     OW31139   6.111   3.857   6.103 -0.4285  0.1527 -0.0696
 7852SOL    HW231140   6.144   3.771   6.127  0.2671  0.3326 -0.3580
 7852SOL    HW331141   6.042   3.875   6.167 -0.4598 -0.5370  0.0983
 7852SOL    MW431142   6.106   3.848   6.115 -0.3337 -0.4249 -0.3991
 7853SOL     OW31143   4.845   2.501   6.400 -0.2752 -0.0686  0.3227
 7853SOL    HW231144   4.802   2.508   6.486 -2.0385  1.8006 -0.5933
 7853SOL    HW331145   4.854   2.592   6.372  0.0964 -0.6500 -1.5352
 7853SOL    MW431146   4.840   2.514   6.408  0.1265 -0.1561 -0.3116
 7854SOL     OW31147   4.572   6.298   5.736  0.9512 -0.1291 -0.2764
 7854SOL    HW231148   4.486   6.338   5.735  1.0421  0.1131  0.6191
 7854SOL    HW331149   4.557   6.210   5.771  1.3620  0.7248  2.2245
 7854SOL    MW431150   4.559   6.291   5.740  0.1537 -0.5094  0.7233
 7855SOL     OW31151   3.157   3.228   4.501 -0.5590  0.4018 -0.1516
 7855SOL    HW231152   3.139   3.283   4.577  0.4208  1.1412 -0.4341
 7855SOL    HW331153   3.114   3.145   4.520 -2.4984  1.3937  0.0915
 7855SOL    MW431154   3.149   3.224   4.513  0.3368 -0.9826 -0.1384
 7856SOL     OW31155   1.295   3.457   1.054 -0.0813  0.2683 -0.3839
 7856SOL    HW231156   1.362   3.487   1.117 -0.2835 -0.9538  0.4505
 7856SOL    HW331157   1.221   3.515   1.069 -0.7019 -0.9396  1.6606
 7856SOL    MW431158   1.294   3.469   1.065 -0.2344 -0.0998  0.5253
 7857SOL     OW31159   1.790   0.768   0.262  0.7424  0.0758 -0.5774
 7857SOL    HW231160   1.837   0.851   0.256 -1.4126  1.3589 -0.7627
 7857SOL    HW331161   1.702   0.788   0.231 -0.0610 -2.1159  0.1098
 7857SOL    MW431162   1.785   0.782   0.257 -0.6996  0.3091  0.2459
 7858SOL     OW31163   3.041   4.284   1.023  0.3949 -0.1601 -0.1984
 7858SOL    HW231164   3.132   4.270   1.048  0.6714  1.1232 -0.4138
 7858SOL    HW331165   3.001   4.327   1.098  0.5692  1.3332 -0.9133
 7858SOL    MW431166   3.047   4.288   1.036 -0.5463 -0.1463  0.3209
 7859SOL     OW31167   2.506   3.958   4.074 -0.0053  0.1946  0.0741
 7859SOL    HW231168   2.512   3.891   4.142 -0.1313  0.0641 -0.0434
 7859SOL    HW331169   2.574   4.021   4.097  0.1075  0.0314  0.1903
 7859SOL    MW431170   2.516   3.957   4.086 -0.1606  0.1817 -0.0080
 7860SOL     OW31171   0.815   3.062   5.702 -0.0925 -0.5294  0.5556
 7860SOL    HW231172   0.720   3.064   5.686 -0.0383 -1.2079  0.0835
 7860SOL    HW331173   0.841   2.974   5.674  0.9847  0.2588 -1.0667
 7860SOL    MW431174   0.806   3.050   5.696  0.8937  0.0094 -0.4876
 7861SOL     OW31175   3.268   1.747   5.449  1.0070 -0.0211  0.5950
 7861SOL    HW231176   3.253   1.667   5.499 -0.2132  0.0969  0.4514
 7861SOL    HW331177   3.259   1.721   5.357  2.1459 -0.0101  0.4588
 7861SOL    MW431178   3.265   1.733   5.444  0.7328 -0.6335 -0.0502
 7862SOL     OW31179   5.099   1.329   0.833  0.0897 -0.4840 -0.3212
 7862SOL    HW231180   5.108   1.335   0.928  1.3047  0.2329 -0.4609
 7862SOL    HW331181   5.058   1.411   0.807  1.8576  0.3559 -0.6152
 7862SOL    MW431182   5.095   1.340   0.842 -0.7130  0.0104 -0.2254
 7863SOL     OW31183   5.068   3.781   1.368  0.3566  0.5640  0.1403
 7863SOL    HW231184   5.154   3.766   1.408  0.5867  0.1859 -0.4780
 7863SOL    HW331185   5.083   3.769   1.274 -0.5586 -0.4285  0.0958
 7863SOL    MW431186   5.081   3.777   1.361  0.2995 -0.0659 -0.4331
 7864SOL     OW31187   6.417   4.174   2.223 -0.1667 -0.0223 -0.6997
 7864SOL    HW231188   6.389   4.103   2.281  0.5110 -0.4755 -0.9161
 7864SOL    HW331189   6.438   4.247   2.282  2.8599 -1.2372 -0.1019
 7864SOL    MW431190   6.416   4.174   2.239 -0.0852 -0.6458 -0.0884
 7865SOL     OW31191   0.898   1.474   4.757 -0.4581  0.2372 -0.0933
 7865SOL    HW231192   0.901   1.447   4.848 -0.9077  0.2661 -0.0683
 7865SOL    HW331193   0.864   1.398   4.710 -0.9425  0.4737 -0.1326
 7865SOL    MW431194   0.894   1.460   4.762 -0.3208  0.1609 -0.3118
 7866SOL     OW31195   6.392   2.582   1.147 -0.2108 -0.0348 -0.7971
 7866SOL    HW231196   6.385   2.488   1.129 -0.4791 -0.3182  0.6854
 7866SOL    HW331197   6.349   2.594   1.232  0.3543  1.3379 -0.6740
 7866SOL    MW431198   6.385   2.571   1.156 -0.9712  0.5184 -0.2514
 7867SOL     OW31199   0.605   3.898   2.688  0.4640 -0.0359 -0.6863
 7867SOL    HW231200   0.529   3.955   2.679  0.8400  0.2102 -2.6902
 7867SOL    HW331201   0.648   3.928   2.768  0.1486  1.9000 -1.1996
 7867SOL    MW431202   0.600   3.909   2.698  0.2656 -0.0118  0.2991
 7868SOL     OW31203   6.347   6.287   4.435  0.1548 -0.2919 -0.3766
 7868SOL    HW231204   6.364   6.194   4.422  3.0966  0.2953 -1.4701
 7868SOL    HW331205   6.270   6.305   4.381  0.9260 -1.6756 -2.0265
 7868SOL    MW431206   6.339   6.278   4.426 -0.5274  0.2196  0.4955
 7869SOL     OW31207   1.846   0.681   3.591  0.8988  0.3759  0.2163
 7869SOL    HW231208   1.816   0.624   3.661  1.5312 -1.0420 -0.6269
 7869SOL    HW331209   1.848   0.625   3.513 -0.9446  2.1799 -1.2539
 7869SOL    MW431210   1.842   0.666   3.590  0.0796 -0.0817 -0.4978
 7870SOL     OW31211   3.117   2.151   1.794  0.2472  0.1527  0.2223
 7870SOL    HW231212   3.060   2.178   1.722  0.2570 -0.6976 -0.1084
 7870SOL    HW331213   3.094   2.211   1.866 -0.1863  0.6119 -0.2908
 7870SOL    MW431214   3.106   2.163   1.794  0.3738 -0.4051  0.3124
 7871SOL     OW31215   0.170   5.666   4.835  0.6638  0.2931  0.0302
 7871SOL    HW231216   0.222   5.701   4.907  1.3675  0.4126 -0.5311
 7871SOL    HW331217   0.220   5.590   4.804 -0.7407 -1.1456  1.1196
 7871SOL    MW431218   0.183   5.660   4.840 -0.0043  0.2913  0.0089
 7872SOL     OW31219   1.617   3.435   4.694  0.3286 -0.4117 -0.5932
 7872SOL    HW231220   1.622   3.501   4.624  0.1702 -1.1589 -1.3208
 7872SOL    HW331221   1.708   3.410   4.710  0.3770 -0.1376 -0.4177
 7872SOL    MW431222   1.630   3.441   4.687  0.6194  0.2068 -0.0083
 7873SOL     OW31223   0.204   2.780   5.899 -0.7241 -0.5966  0.1314
 7873SOL    HW231224   0.253   2.817   5.826 -1.4227  2.2237  0.9911
 7873SOL    HW331225   0.258   2.707   5.929 -0.9904 -2.7641 -3.8798
 7873SOL    MW431226   0.218   2.775   5.893  0.7409  0.2575  0.0090
 7874SOL     OW31227   2.686   2.600   6.201 -0.5896  0.1714  0.2953
 7874SOL    HW231228   2.666   2.598   6.108  2.2639 -0.3114 -0.4101
 7874SOL    HW331229   2.715   2.512   6.222 -0.8319  0.3666  1.5742
 7874SOL    MW431230   2.687   2.588   6.191  0.2958  0.1739 -0.0926
 7875SOL     OW31231   3.033   0.491   1.216 -0.1279 -0.0629  0.1461
 7875SOL    HW231232   3.034   0.529   1.128 -0.9777 -1.0836 -0.3169
 7875SOL    HW331233   3.112   0.526   1.258  1.0155 -0.5996 -1.4654
 7875SOL    MW431234   3.043   0.501   1.210 -0.3544 -0.1929  0.3313
 7876SOL     OW31235   4.520   2.902   3.678  0.6089 -0.0031  0.3120
 7876SOL    HW231236   4.528   2.947   3.762 -2.3332  2.1175 -0.3778
 7876SOL    HW331237   4.590   2.939   3.625 -0.0163  1.7442  0.6408
 7876SOL    MW431238   4.530   2.913   3.682 -0.3804 -0.0966  0.2678
 7877SOL     OW31239   4.899   1.647   1.301 -0.0655  0.0338 -0.2606
 7877SOL    HW231240   4.830   1.710   1.321 -0.2969 -0.0287 -0.8465
 7877SOL    HW331241   4.854   1.564   1.289  0.0983  0.0078 -0.7217
 7877SOL    MW431242   4.884   1.644   1.302  0.5315 -0.0350  0.7554
 7878SOL     OW31243   5.449   5.744   2.580  0.5439  0.3343 -0.2581
 7878SOL    HW231244   5.387   5.790   2.524 -0.5029 -0.7650 -0.0328
 7878SOL    HW331245   5.501   5.814   2.620 -0.4261  1.2676 -0.5749
 7878SOL    MW431246   5.448   5.760   2.578  0.4631 -0.3698 -0.3161
 7879SOL     OW31247   2.929   5.997   4.398  0.1825  0.1886 -0.0218
 7879SOL    HW231248   2.962   5.922   4.448  1.6798 -0.0915 -1.3528
 7879SOL    HW331249   2.946   6.073   4.454 -1.8293 -0.4424  1.5737
 7879SOL    MW431250   2.936   5.997   4.412  0.1489  0.4851  0.2263
 7880SOL     OW31251   6.186   3.441   0.157 -0.5408  0.0804 -0.1171
 7880SOL    HW231252   6.203   3.434   0.251 -0.3126  0.5226 -0.1247
 7880SOL    HW331253   6.228   3.522   0.131 -1.5512  0.5420 -0.3816
 7880SOL    MW431254   6.194   3.451   0.166 -0.3009  0.0905 -0.9595
 7881SOL     OW31255   0.564   1.834   3.710 -0.1533  0.2548 -0.5571
 7881SOL    HW231256   0.515   1.850   3.629  0.1615 -0.6392 -0.9443
 7881SOL    HW331257   0.601   1.747   3.698 -0.4243 -0.0534  0.7350
 7881SOL    MW431258   0.563   1.825   3.697 -0.3752 -1.0018 -0.4133
 7882SOL     OW31259   2.741   4.463   3.532 -0.1264 -0.0181 -0.2087
 7882SOL    HW231260   2.668   4.457   3.594  0.0077 -0.7121 -0.1186
 7882SOL    HW331261   2.779   4.550   3.549  0.4098 -0.5045  1.2523
 7882SOL    MW431262   2.736   4.474   3.543  0.7260 -0.2071 -0.1044
 7883SOL     OW31263   0.653   1.666   4.081 -0.0577  0.2020 -0.8080
 7883SOL    HW231264   0.564   1.678   4.048 -0.8954 -0.4399  1.0990
 7883SOL    HW331265   0.645   1.677   4.176  2.3186  2.4637 -0.7734
 7883SOL    MW431266   0.640   1.669   4.089  0.2835 -0.0271 -0.1093
 7884SOL     OW31267   6.147   0.152   1.558 -0.0091  0.1207 -0.5894
 7884SOL    HW231268   6.158   0.058   1.570  2.4328  0.3958 -0.2326
 7884SOL    HW331269   6.072   0.174   1.614  1.0076 -1.2239  1.4314
 7884SOL    MW431270   6.138   0.143   1.567  0.2425  0.0786 -0.7661
 7885SOL     OW31271   0.182   1.942   6.081  0.4144  0.0424 -0.3574
 7885SOL    HW231272   0.189   1.910   6.171 -0.8893  1.9403  0.4685
 7885SOL    HW331273   0.271   1.972   6.060  0.8400 -0.8529  0.0924
 7885SOL    MW431274   0.195   1.942   6.090 -0.2670 -0.0164 -0.0023
 7886SOL     OW31275   6.143   0.284   3.558  0.5720 -0.1357 -0.6021
 7886SOL    HW231276   6.054   0.318   3.560  0.7647  0.4459 -1.4936
 7886SOL    HW331277   6.140   0.206   3.613 -0.2568  0.4146  0.1573
 7886SOL    MW431278   6.131   0.278   3.565  0.2350  0.0098 -0.2440
 7887SOL     OW31279   3.058   5.723   5.932 -0.1993 -0.4243  0.0363
 7887SOL    HW231280   2.990   5.655   5.931 -2.0929  1.3669 -0.6641
 7887SOL    HW331281   3.025   5.789   5.871  0.8547  1.7847  1.7580
 7887SOL    MW431282   3.044   5.723   5.924  0.2528 -0.2393 -0.0290
 7888SOL     OW31283   2.268   5.545   5.959 -0.1048 -0.1859  0.2713
 7888SOL    HW231284   2.337   5.491   5.998  1.1314  0.7979 -0.4960
 7888SOL    HW331285   2.283   5.632   5.995 -0.7363  0.1115 -0.1852
 7888SOL    MW431286   2.279   5.549   5.969 -0.3894 -0.2662 -0.3613
 7889SOL     OW31287   3.822   1.300   0.302  0.2646 -0.0216  0.6587
 7889SOL    HW231288   3.777   1.376   0.265  2.0521 -0.1416 -2.0539
 7889SOL    HW331289   3.886   1.337   0.363 -0.2106  0.4854  0.8517
 7889SOL    MW431290   3.825   1.315   0.305 -0.3881 -0.0534  0.3941
 7890SOL     OW31291   3.668   4.130   3.616  0.0114  0.0470  0.4599
 7890SOL    HW231292   3.598   4.195   3.626 -0.3151 -0.4003  1.1840
 7890SOL    HW331293   3.749   4.180   3.624 -0.1834  0.7213 -1.2808
 7890SOL    MW431294   3.669   4.146   3.618 -0.8044  0.4962 -0.4767
 7891SOL     OW31295   5.487   1.798   5.933  0.2759 -0.1204  0.4737
 7891SOL    HW231296   5.534   1.738   5.991 -0.1572 -0.4083  0.5309
 7891SOL    HW331297   5.536   1.880   5.938  2.2842 -1.1113 -1.4112
 7891SOL    MW431298   5.499   1.801   5.941  0.8021 -0.5213 -0.1155
 7892SOL     OW31299   0.129   1.337   4.564  0.5119  0.4424 -0.5660
 7892SOL    HW231300   0.162   1.422   4.591  0.3174  0.9452 -1.8366
 7892SOL    HW331301   0.035   1.341   4.583  0.5879  0.3351 -0.1775
 7892SOL    MW431302   0.121   1.349   4.570  0.1866  0.3508  0.1814
 7893SOL     OW31303   2.651   3.708   5.143  0.3037  0.3714  0.0403
 7893SOL    HW231304   2.597   3.754   5.079  0.9675  1.6448  0.3717
 7893SOL    HW331305   2.610   3.728   5.227 -0.2718 -0.8874  0.0813
 7893SOL    MW431306   2.638   3.717   5.145 -0.6566  0.1545 -0.1044
 7894SOL     OW31307   4.108   6.403   3.043 -0.3054  0.1811 -0.1892
 7894SOL    HW231308   4.163   6.462   2.993  2.3042  0.0518  2.3139
 7894SOL    HW331309   4.149   6.317   3.032 -0.0194  0.0559  1.6402
 7894SOL    MW431310   4.121   6.399   3.035 -0.2590  0.3692  0.2975
 7895SOL     OW31311   0.784   3.809   4.440  0.1264  0.3673 -0.7016
 7895SOL    HW231312   0.824   3.815   4.353  1.6777  0.1894 -0.0375
 7895SOL    HW331313   0.852   3.839   4.500 -1.5640  2.4188  0.3298
 7895SOL    MW431314   0.798   3.814   4.436  0.3262 -0.4017  0.6265
 7896SOL     OW31315   3.535   3.437   6.018  0.2291  0.0515 -0.0893
 7896SOL    HW231316   3.531   3.355   5.969 -0.6299  0.5203 -0.8420
 7896SOL    HW331317   3.626   3.466   6.009  0.6242 -0.9980  0.4955
 7896SOL    MW431318   3.546   3.430   6.010  0.3839  0.2329 -0.0391
 7897SOL     OW31319   2.637   1.084   1.550  0.3343  0.4379 -0.2252
 7897SOL    HW231320   2.714   1.141   1.548  0.2835  0.5227  0.1203
 7897SOL    HW331321   2.646   1.029   1.472  0.4316  0.8532 -0.5086
 7897SOL    MW431322   2.649   1.084   1.540 -0.0109  0.5078  0.0220
 7898SOL     OW31323   5.964   1.332   5.101 -0.0743 -0.3263  0.4591
 7898SOL    HW231324   5.875   1.343   5.067 -0.4188  1.6042  1.7762
 7898SOL    HW331325   5.953   1.281   5.181 -0.2116  0.9571  1.2926
 7898SOL    MW431326   5.951   1.327   5.107 -0.9996 -0.0434 -0.3367
 7899SOL     OW31327   0.254   1.101   4.617  0.6989 -0.2141  0.0283
 7899SOL    HW231328   0.337   1.114   4.663  0.5718  1.3931 -0.1504
 7899SOL    HW331329   0.220   1.189   4.604 -0.5045 -0.7939 -0.9022
 7899SOL    MW431330   0.261   1.114   4.621 -0.3595 -0.3359 -0.0210
 7900SOL     OW31331   1.675   1.913   4.972 -0.1483 -0.1078 -0.4224
 7900SOL    HW231332   1.697   1.934   4.882  1.7285  0.1878  0.0733
 7900SOL    HW331333   1.674   1.997   5.017 -1.4600 -0.2075 -0.2013
 7900SOL    MW431334   1.678   1.927   4.966 -0.2946 -0.1961  0.6004
 7901SOL     OW31335   3.130   1.131   1.284 -0.4840  0.0718 -0.1015
 7901SOL    HW231336   3.177   1.165   1.360 -0.0974  2.2425 -1.2433
 7901SOL    HW331337   3.113   1.039   1.306 -1.2220  0.8347  2.9874
 7901SOL    MW431338   3.134   1.123   1.297 -0.3497  0.3294 -0.3194
 7902SOL     OW31339   6.036   5.198   3.043 -0.2864  0.2179  0.7952
 7902SOL    HW231340   6.053   5.174   2.952  0.9603  2.1210  0.4689
 7902SOL    HW331341   5.962   5.259   3.038  1.5388  2.5873  0.6304
 7902SOL    MW431342   6.029   5.203   3.031  0.0679 -0.1603 -0.1128
 7903SOL     OW31343   1.663   4.646   2.649  0.2882  0.0708 -0.2503
 7903SOL    HW231344   1.622   4.674   2.566  1.7029  1.4241 -0.5542
 7903SOL    HW331345   1.617   4.566   2.673 -1.2771  0.5459 -1.4917
 7903SOL    MW431346   1.652   4.640   2.641 -0.0553 -0.0492 -0.4154
 7904SOL     OW31347   3.765   3.959   6.404  0.1348  0.1372  0.5201
 7904SOL    HW231348   3.777   3.997   6.318  1.2776  2.0795  1.4627
 7904SOL    HW331349   3.844   3.984   6.452 -1.2078  0.6055  2.6334
 7904SOL    MW431350   3.777   3.967   6.399  0.3210 -0.4092 -0.1976
 7905SOL     OW31351   3.396   4.440   3.964 -0.2194 -0.2900  0.0795
 7905SOL    HW231352   3.363   4.351   3.951  1.5398 -1.2733  1.7345
 7905SOL    HW331353   3.488   4.435   3.939 -0.0262  0.9897  0.4895
 7905SOL    MW431354   3.404   4.427   3.959 -0.0877 -0.3127  0.4264
 7906SOL     OW31355   2.282   5.506   3.352 -0.4190  0.2105 -0.3461
 7906SOL    HW231356   2.270   5.436   3.416  0.8372  1.2419  1.0837
 7906SOL    HW331357   2.206   5.499   3.294 -0.3655 -2.2651 -0.2064
 7906SOL    MW431358   2.270   5.496   3.353 -0.0742  0.3006  0.0924
 7907SOL     OW31359   6.306   0.216   2.890  0.0493 -0.2332  0.1990
 7907SOL    HW231360   6.375   0.170   2.937  1.2884  0.1817 -1.1126
 7907SOL    HW331361   6.343   0.231   2.803 -1.5260  0.4423 -0.3946
 7907SOL    MW431362   6.320   0.212   2.884  0.3232  0.1216  0.2190
 7908SOL     OW31363   1.839   1.316   4.359  0.5230  0.9614  0.7865
 7908SOL    HW231364   1.780   1.383   4.325  0.5082  0.4606 -0.2177
 7908SOL    HW331365   1.924   1.335   4.320  0.8481  1.2095  1.5993
 7908SOL    MW431366   1.842   1.327   4.349  0.0900 -0.3719 -0.0963
 7909SOL     OW31367   3.798   3.381   3.400 -0.1830 -0.0182 -0.2553
 7909SOL    HW231368   3.744   3.459   3.416 -0.2584 -0.4036  1.6484
 7909SOL    HW331369   3.739   3.319   3.359 -0.3688  0.6102 -0.9526
 7909SOL    MW431370   3.783   3.383   3.397 -0.1015  0.1617 -0.2804
 7910SOL     OW31371   0.049   0.196   4.095 -0.0909  0.2307  0.0026
 7910SOL    HW231372   0.112   0.135   4.132 -0.0537  0.7979  0.8896
 7910SOL    HW331373  -0.010   0.140   4.043  0.4229 -0.4515  0.1356
 7910SOL    MW431374   0.049   0.180   4.093  0.3653 -0.2609 -0.5456
 7911SOL     OW31375   1.502   4.899   3.542 -0.2308  0.5128 -0.4381
 7911SOL    HW231376   1.568   4.830   3.543 -2.4228 -1.6968 -0.8943
 7911SOL    HW331377   1.514   4.944   3.626  0.7531 -0.9062  0.2301
 7911SOL    MW431378   1.513   4.896   3.553 -0.0980  0.3815  0.3154
 7912SOL     OW31379   1.358   4.614   5.353 -0.4253 -0.4129  0.3742
 7912SOL    HW231380   1.347   4.519   5.359 -1.4349 -0.2689  1.2253
 7912SOL    HW331381   1.365   4.642   5.444 -1.1075  0.4163  0.1841
 7912SOL    MW431382   1.357   4.605   5.366 -0.1943 -0.1651 -0.4535
 7913SOL     OW31383   2.531   5.720   5.639 -0.2327  1.1454 -0.2717
 7913SOL    HW231384   2.523   5.790   5.703 -0.1207  1.2530 -0.3737
 7913SOL    HW331385   2.511   5.761   5.555 -0.8235  0.9026 -0.2543
 7913SOL    MW431386   2.527   5.735   5.636  0.3183 -0.4648 -0.8383
 7914SOL     OW31387   1.505   1.360   6.292 -0.2745 -0.5746 -0.2353
 7914SOL    HW231388   1.469   1.443   6.323 -0.1112 -0.9280  0.9454
 7914SOL    HW331389   1.579   1.342   6.350 -0.8745 -1.9865  0.1474
 7914SOL    MW431390   1.510   1.369   6.304  0.2791 -0.3052 -0.2882
 7915SOL     OW31391   4.398   2.763   0.723  0.3454  0.0632 -0.3236
 7915SOL    HW231392   4.453   2.731   0.794  0.5878  0.4569 -0.3293
 7915SOL    HW331393   4.418   2.706   0.649 -0.3112 -0.6919  0.0721
 7915SOL    MW431394   4.408   2.751   0.722  0.2289  0.2303  0.7362
 7916SOL     OW31395   6.099   3.449   2.743  0.0938  0.1757 -0.6413
 7916SOL    HW231396   6.046   3.528   2.741  1.2884  0.9974 -1.6037
 7916SOL    HW331397   6.048   3.387   2.794 -0.5193  1.8163  0.8481
 7916SOL    MW431398   6.086   3.451   2.749 -0.3549 -0.0852  0.6214
 7917SOL     OW31399   5.617   3.359   0.761 -0.0441 -0.1149 -0.0843
 7917SOL    HW231400   5.552   3.384   0.696 -0.2017  1.2120  0.5584
 7917SOL    HW331401   5.606   3.422   0.832  1.7995  0.0081  0.1421
 7917SOL    MW431402   5.607   3.370   0.762 -0.0595 -0.5795 -0.2003
 7918SOL     OW31403   4.690   4.895   3.334 -0.3689  0.6383 -0.0701
 7918SOL    HW231404   4.723   4.967   3.388  2.3960  2.2483 -3.4642
 7918SOL    HW331405   4.765   4.838   3.320 -0.6982  0.7059 -2.6678
 7918SOL    MW431406   4.704   4.897   3.339 -0.3052 -0.1205  0.1191
 7919SOL     OW31407   0.884   6.106   0.140  0.0318 -0.3869 -0.0149
 7919SOL    HW231408   0.909   6.132   0.052  0.1526  1.7025  0.5716
 7919SOL    HW331409   0.928   6.169   0.198 -0.3293 -1.4654  1.5116
 7919SOL    MW431410   0.893   6.118   0.136  0.1366  0.0519 -0.5007
 7920SOL     OW31411   5.723   2.868   2.088 -0.3974  0.2974 -0.2578
 7920SOL    HW231412   5.684   2.953   2.069  0.7220  0.7876 -0.4426
 7920SOL    HW331413   5.694   2.847   2.176 -2.1172  0.0323 -0.8561
 7920SOL    MW431414   5.714   2.876   2.097  0.4588 -0.2791 -0.2995
 7921SOL     OW31415   2.008   2.233   4.497 -0.0408  0.1068  0.1805
 7921SOL    HW231416   1.919   2.215   4.527 -0.5680 -1.3174 -1.9855
 7921SOL    HW331417   1.999   2.310   4.440 -0.5044 -1.6482 -2.2906
 7921SOL    MW431418   1.995   2.241   4.493 -0.4221  0.0504  0.4173
 7922SOL     OW31419   3.615   1.997   0.051  0.1830  0.5435  0.5595
 7922SOL    HW231420   3.587   2.088   0.061  0.4042  0.6561  0.1545
 7922SOL    HW331421   3.594   1.974  -0.039  0.6557  0.3783  0.4851
 7922SOL    MW431422   3.609   2.006   0.040 -0.1570  0.4087 -0.1116
 7923SOL     OW31423   3.596   1.270   6.003  0.2754  0.4527 -0.0769
 7923SOL    HW231424   3.654   1.282   5.928  1.0862  0.4930  0.5417
 7923SOL    HW331425   3.568   1.358   6.026  0.3064  0.4721 -0.1125
 7923SOL    MW431426   3.600   1.283   5.996 -0.1353  0.0388  0.2364
 7924SOL     OW31427   3.818   0.540   1.611 -0.6354 -0.0381  0.3431
 7924SOL    HW231428   3.754   0.543   1.540  0.2184 -0.0852 -0.4507
 7924SOL    HW331429   3.893   0.493   1.574  0.5077  1.4284  0.6779
 7924SOL    MW431430   3.819   0.534   1.597 -0.4269 -0.3277  0.8304
 7925SOL     OW31431   4.201   5.482   2.335 -0.5741 -0.6052  0.2925
 7925SOL    HW231432   4.178   5.575   2.338  1.4256 -0.0820  2.4817
 7925SOL    HW331433   4.222   5.466   2.244  0.8990  1.6318  0.1590
 7925SOL    MW431434   4.200   5.492   2.324  0.5917  0.2733  0.4574
 7926SOL     OW31435   5.124   5.307   6.140  0.3225 -0.2531  0.1906
 7926SOL    HW231436   5.125   5.228   6.193 -0.5742  0.0485  0.6673
 7926SOL    HW331437   5.056   5.362   6.179 -1.3533 -0.5859 -2.0769
 7926SOL    MW431438   5.115   5.304   6.152 -0.1734 -0.0470  0.5919
 7927SOL     OW31439   2.013   3.140   3.932  0.3519  0.1812  0.3059
 7927SOL    HW231440   2.037   3.153   4.023 -0.5727  2.2857  0.3072
 7927SOL    HW331441   2.096   3.124   3.887  1.0530  1.0811  1.2355
 7927SOL    MW431442   2.027   3.140   3.938 -0.4846  0.2445 -0.1883
 7928SOL     OW31443   6.337   1.977   3.139  0.6032  0.2588 -0.1562
 7928SOL    HW231444   6.347   1.996   3.046  1.3282  0.0444 -0.1302
 7928SOL    HW331445   6.348   1.882   3.146  0.1290  0.2212  0.0958
 7928SOL    MW431446   6.340   1.967   3.128  0.5063  0.5651 -0.5090
 7929SOL     OW31447   2.436   2.596   3.155 -0.2576 -0.4154 -0.0918
 7929SOL    HW231448   2.434   2.688   3.128  0.8508 -0.1155  0.7547
 7929SOL    HW331449   2.368   2.589   3.222 -0.4212 -0.2405 -0.2403
 7929SOL    MW431450   2.427   2.607   3.161 -0.3705  0.4579  0.2953
 7930SOL     OW31451   2.002   5.982   6.415  0.1762 -0.2364 -0.1213
 7930SOL    HW231452   2.006   5.913   6.482  1.2693  0.2608  0.3480
 7930SOL    HW331453   1.908   5.995   6.400 -0.1053 -0.2167  1.4815
 7930SOL    MW431454   1.990   5.974   6.422  0.7059  0.0191  0.0608
 7931SOL     OW31455   6.099   5.901   1.274 -0.7355  0.3720  0.0471
 7931SOL    HW231456   6.068   5.935   1.357  2.1296  1.7244  0.6882
 7931SOL    HW331457   6.136   5.815   1.296 -0.3833  0.5346  0.0983
 7931SOL    MW431458   6.100   5.894   1.288  0.0473 -0.6536  0.2118
 7932SOL     OW31459   4.471   5.162   4.205  0.0505 -0.2661 -0.0347
 7932SOL    HW231460   4.477   5.120   4.120  2.0434  0.4550 -0.2974
 7932SOL    HW331461   4.483   5.255   4.188 -0.7225  0.0341  0.9211
 7932SOL    MW431462   4.473   5.169   4.192  0.0975  0.0734 -0.4969
 7933SOL     OW31463   0.031   0.942   1.770  0.1633  0.0779  0.0294
 7933SOL    HW231464  -0.058   0.962   1.799 -1.3956 -1.9136 -2.8490
 7933SOL    HW331465   0.039   0.847   1.783  1.9660  0.2316  0.3217
 7933SOL    MW431466   0.020   0.932   1.776  0.3898  0.1110  0.1058
 7934SOL     OW31467   3.574   4.244   6.063  0.3428  0.0425 -0.3048
 7934SOL    HW231468   3.529   4.167   6.028  0.1810 -0.0815  0.1613
 7934SOL    HW331469   3.617   4.283   5.988 -0.7612  0.3194 -0.8087
 7934SOL    MW431470   3.574   4.239   6.049  0.1527  0.2566 -0.1489
 7935SOL     OW31471   0.796   4.544   2.992 -0.3550 -0.0210 -0.3569
 7935SOL    HW231472   0.738   4.541   3.068 -0.3541  1.7244 -0.2352
 7935SOL    HW331473   0.788   4.634   2.960  2.8613  0.5825  0.1694
 7935SOL    MW431474   0.788   4.556   2.998 -1.2684  0.1738  0.5040
 7936SOL     OW31475   5.534   1.816   3.399 -0.1481 -0.2426 -0.1061
 7936SOL    HW231476   5.488   1.862   3.468 -1.3308 -0.7239 -0.5386
 7936SOL    HW331477   5.580   1.884   3.351 -1.2754  0.4179 -0.2933
 7936SOL    MW431478   5.534   1.831   3.401 -0.5299  0.0169 -0.0494
 7937SOL     OW31479   3.966   0.100   4.532  0.5913 -0.3850 -0.3571
 7937SOL    HW231480   3.921   0.017   4.520  1.8445 -1.0274 -0.8332
 7937SOL    HW331481   3.956   0.120   4.625 -1.9413  0.2848 -0.7037
 7937SOL    MW431482   3.959   0.092   4.543  0.0670 -0.8962 -0.5220
 7938SOL     OW31483   4.073   0.038   0.259 -0.5280  0.2484  0.1038
 7938SOL    HW231484   4.167   0.043   0.248 -0.6311  0.9994 -0.4830
 7938SOL    HW331485   4.061  -0.017   0.337  0.3138 -2.4593 -1.5239
 7938SOL    MW431486   4.083   0.031   0.267 -0.3333 -0.1518  0.0136
 7939SOL     OW31487   1.237   2.645   2.596  0.2791  0.2089  0.4924
 7939SOL    HW231488   1.320   2.602   2.577  0.8180  0.7596  1.5550
 7939SOL    HW331489   1.255   2.701   2.671 -0.5512  1.8752 -0.5061
 7939SOL    MW431490   1.250   2.646   2.603 -0.3669  0.4413  0.1122
 7940SOL     OW31491   2.643   3.109   3.497  0.2462 -0.4621 -0.5108
 7940SOL    HW231492   2.649   3.016   3.517 -2.4260 -0.4967  0.5703
 7940SOL    HW331493   2.721   3.147   3.538  0.9282 -2.0915 -0.2167
 7940SOL    MW431494   2.654   3.102   3.505 -0.0861  0.0959 -0.1335
 7941SOL     OW31495   2.515   5.757   4.378  0.0890 -0.5178 -0.5608
 7941SOL    HW231496   2.420   5.757   4.370  0.0224 -0.3234  0.1724
 7941SOL    HW331497   2.540   5.849   4.368  0.0872 -0.4024  0.3986
 7941SOL    MW431498   2.506   5.769   4.376  0.1734  0.2609 -0.1810
 7942SOL     OW31499   1.449   4.375   0.142  0.2216  0.5061  0.0301
 7942SOL    HW231500   1.425   4.390   0.051 -0.5893 -0.2977  0.0980
 7942SOL    HW331501   1.370   4.338   0.182  0.5189  0.9710  1.0969
 7942SOL    MW431502   1.435   4.372   0.136  0.3966  0.0977  0.0807
 7943SOL     OW31503   0.418   4.677   3.507 -0.1779  0.2845  0.0905
 7943SOL    HW231504   0.371   4.760   3.506  2.0156  1.5827 -1.0862
 7943SOL    HW331505   0.397   4.636   3.423  0.5933  0.7729 -0.3500
 7943SOL    MW431506   0.409   4.682   3.496 -1.5103  0.8911  0.3850
 7944SOL     OW31507   3.228   0.779   6.138 -0.4714  0.1291 -0.5665
 7944SOL    HW231508   3.157   0.829   6.095 -1.5332 -1.9035 -1.3176
 7944SOL    HW331509   3.298   0.778   6.073 -0.4007  0.7305 -0.5041
 7944SOL    MW431510   3.228   0.786   6.124 -0.4090 -0.1724  0.4185
 7945SOL     OW31511   0.122   5.202   6.367  0.2180 -0.0323 -0.0227
 7945SOL    HW231512   0.056   5.269   6.351  0.1823 -0.0647 -0.0131
 7945SOL    HW331513   0.176   5.237   6.438  0.6944  0.3369 -0.5630
 7945SOL    MW431514   0.120   5.215   6.374  0.6382 -0.0547  0.1913
 7946SOL     OW31515   4.138   0.459   3.040  0.2021 -0.2760 -0.2121
 7946SOL    HW231516   4.119   0.366   3.036 -0.1045 -0.1779 -1.1380
 7946SOL    HW331517   4.232   0.466   3.021  0.4349 -0.4577  0.7885
 7946SOL    MW431518   4.148   0.448   3.037  0.4929  0.4614  0.4397
 7947SOL     OW31519   0.844   1.620   0.530  0.0812 -0.6512  0.2337
 7947SOL    HW231520   0.907   1.692   0.538 -0.7962  0.3365 -1.1850
 7947SOL    HW331521   0.859   1.585   0.442  0.5407 -2.2850  0.9289
 7947SOL    MW431522   0.854   1.625   0.519 -0.3037 -0.2646  0.5290
 7948SOL     OW31523   4.826   6.305   3.948  0.0195 -0.1796 -0.4534
 7948SOL    HW231524   4.826   6.372   3.880  0.2625 -0.0350 -0.3107
 7948SOL    HW331525   4.851   6.352   4.028  1.8106 -0.7433 -0.6525
 7948SOL    MW431526   4.829   6.320   3.950  0.4311  0.3786 -0.4097
 7949SOL     OW31527   0.937   4.171   5.410  0.1402 -0.3861  0.1328
 7949SOL    HW231528   0.845   4.150   5.394 -0.7312  2.5082  0.8203
 7949SOL    HW331529   0.940   4.197   5.502  1.6511 -0.3316  0.0979
 7949SOL    MW431530   0.925   4.171   5.420 -0.8709  0.1168 -0.6148
 7950SOL     OW31531   1.216   5.472   4.647  0.1030 -0.3111 -0.3062
 7950SOL    HW231532   1.223   5.471   4.742  0.1183  0.8422 -0.2917
 7950SOL    HW331533   1.307   5.473   4.616  0.0991  0.9134 -0.3037
 7950SOL    MW431534   1.229   5.472   4.655 -0.1228 -0.7986  0.3616
 7951SOL     OW31535   2.139   1.286   0.855 -0.1132 -0.2427 -0.2526
 7951SOL    HW231536   2.176   1.302   0.941  0.5557  0.9467 -0.7282
 7951SOL    HW331537   2.196   1.219   0.816 -2.4957 -3.5577  1.4797
 7951SOL    MW431538   2.151   1.279   0.861 -0.0433  0.0441  0.1037
 7952SOL     OW31539   6.365   1.302   3.469  0.3805 -1.0922  0.0806
 7952SOL    HW231540   6.457   1.331   3.472 -0.3260  1.2639  1.5594
 7952SOL    HW331541   6.361   1.245   3.393  2.8360 -0.3611 -0.7078
 7952SOL    MW431542   6.377   1.299   3.460 -0.6667 -0.4905 -0.5421
 7953SOL     OW31543   5.981   1.872   4.447  0.2761  0.3525 -0.4261
 7953SOL    HW231544   6.020   1.817   4.514 -1.1848  0.7528  0.8036
 7953SOL    HW331545   5.922   1.931   4.494 -0.3926  1.0224 -1.9968
 7953SOL    MW431546   5.978   1.873   4.462 -0.1793 -0.0155  0.3286
 7954SOL     OW31547   0.253   6.312   4.675 -0.4097 -0.1587  0.1987
 7954SOL    HW231548   0.282   6.358   4.754 -1.1337  0.1701  0.2835
 7954SOL    HW331549   0.187   6.250   4.707  0.0748 -0.7964 -0.0079
 7954SOL    MW431550   0.248   6.310   4.690 -0.4234  0.1381 -0.4545
 7955SOL     OW31551   6.166   4.570   3.679  0.1670 -0.0978  0.3004
 7955SOL    HW231552   6.073   4.582   3.662  0.2474 -1.2545 -1.1885
 7955SOL    HW331553   6.207   4.653   3.655 -0.2613 -0.2506 -1.0106
 7955SOL    MW431554   6.159   4.582   3.674 -0.5079 -0.1879 -0.1425
 7956SOL     OW31555   0.833   0.147   3.283  0.0268  0.5392 -0.2340
 7956SOL    HW231556   0.820   0.140   3.377  0.4559 -2.2893 -0.3102
 7956SOL    HW331557   0.766   0.209   3.254 -0.7803  0.6746  1.7875
 7956SOL    MW431558   0.822   0.155   3.291  0.4341  0.1175  0.8228
 7957SOL     OW31559   0.353   4.784   5.063  0.4514  0.0578  0.2813
 7957SOL    HW231560   0.371   4.735   4.983  1.7849  1.9908 -0.6962
 7957SOL    HW331561   0.284   4.735   5.107  2.1847 -3.0494 -0.2240
 7957SOL    MW431562   0.346   4.771   5.058  0.1636  0.0037 -0.4100
 7958SOL     OW31563   5.759   0.492   4.253  0.1863 -0.5120 -0.0907
 7958SOL    HW231564   5.729   0.457   4.168  1.3968 -0.1841 -0.6726
 7958SOL    HW331565   5.820   0.425   4.286  1.5177  0.4188 -0.6004
 7958SOL    MW431566   5.763   0.478   4.246  0.1728  0.1515 -0.3021
 7959SOL     OW31567   3.630   2.175   3.778 -0.1971  0.0460 -0.2130
 7959SOL    HW231568   3.600   2.244   3.718 -1.1054 -0.3422 -0.2317
 7959SOL    HW331569   3.663   2.106   3.721  1.0608  0.6095 -0.1824
 7959SOL    MW431570   3.630   2.175   3.763  0.1946 -0.2106 -0.1112
 7960SOL     OW31571   5.668   3.918   6.242 -0.3464  0.4095  0.3371
 7960SOL    HW231572   5.685   3.917   6.148  0.6765 -0.6653  0.5196
 7960SOL    HW331573   5.618   3.838   6.259 -1.2047  0.9822  0.6109
 7960SOL    MW431574   5.663   3.908   6.232  0.0766  0.0494 -0.1482
 7961SOL     OW31575   4.172   1.085   5.672 -0.4797  0.8034 -0.4954
 7961SOL    HW231576   4.079   1.062   5.671  0.1101 -2.0333  0.3231
 7961SOL    HW331577   4.198   1.080   5.580 -1.0974  1.5729 -0.7232
 7961SOL    MW431578   4.163   1.081   5.659 -0.3106  0.5271  0.2301
 7962SOL     OW31579   1.797   0.822   2.725 -0.1031 -0.3381  0.4203
 7962SOL    HW231580   1.873   0.802   2.780 -1.0302  1.4101  2.4815
 7962SOL    HW331581   1.762   0.736   2.701  2.2829 -1.1799 -0.3335
 7962SOL    MW431582   1.803   0.808   2.729 -0.0039  0.0333 -0.4916
 7963SOL     OW31583   2.368   3.754   3.062  0.0470 -0.2749  0.2080
 7963SOL    HW231584   2.349   3.724   2.973  0.8845  2.5939 -1.0521
 7963SOL    HW331585   2.325   3.840   3.067 -3.5948 -1.9832  4.1054
 7963SOL    MW431586   2.359   3.762   3.051  0.0702 -0.2173 -0.3204
 7964SOL     OW31587   2.580   5.359   4.468 -0.2400 -0.1991  0.1450
 7964SOL    HW231588   2.519   5.417   4.514 -3.2885 -1.4195 -2.0339
 7964SOL    HW331589   2.553   5.271   4.494 -0.4822 -0.8231 -2.0552
 7964SOL    MW431590   2.568   5.355   4.477  0.3881  0.7199 -0.2306
 7965SOL     OW31591   2.860   5.956   5.487 -0.0935 -0.2171  0.0778
 7965SOL    HW231592   2.790   5.955   5.422 -0.5229 -1.6337  0.5127
 7965SOL    HW331593   2.894   6.045   5.485 -2.0214  0.5675 -0.0279
 7965SOL    MW431594   2.855   5.967   5.479  0.0570 -0.1308  0.2909
 7966SOL     OW31595   0.124   4.352   2.632 -0.4607 -0.4657 -0.2021
 7966SOL    HW231596   0.218   4.341   2.619 -0.3120 -0.7721  0.9594
 7966SOL    HW331597   0.088   4.361   2.544  0.6020 -0.7632 -0.6844
 7966SOL    MW431598   0.132   4.352   2.619  0.1336  0.0645 -0.7142
 7967SOL     OW31599   4.398   2.402   6.355  0.2504 -0.0441 -0.3469
 7967SOL    HW231600   4.392   2.497   6.363  0.7067 -0.0216 -0.2551
 7967SOL    HW331601   4.307   2.373   6.345 -0.0165  0.2972  0.8792
 7967SOL    MW431602   4.385   2.411   6.355  0.5303 -0.4717 -0.2717
 7968SOL     OW31603   4.618   1.153   0.982  0.0760  0.4768 -0.7209
 7968SOL    HW231604   4.675   1.108   0.920 -0.2762 -1.5129  0.3324
 7968SOL    HW331605   4.678   1.203   1.038  0.4108  2.1565 -2.4514
 7968SOL    MW431606   4.633   1.154   0.981  0.0973 -0.1661  0.0700
 7969SOL     OW31607   0.392   2.462   4.478  0.1254 -0.1017  0.4094
 7969SOL    HW231608   0.339   2.389   4.509 -0.9253  0.3857 -0.1841
 7969SOL    HW331609   0.341   2.501   4.407  1.3451  0.3011 -0.2885
 7969SOL    MW431610   0.379   2.458   4.473  0.0574 -0.2563 -0.1256
 7970SOL     OW31611   4.406   5.412   3.199 -0.0723  0.2827  0.3694
 7970SOL    HW231612   4.425   5.363   3.120 -1.2290 -0.4178  0.5060
 7970SOL    HW331613   4.370   5.347   3.260  1.8946  0.5491  1.9272
 7970SOL    MW431614   4.403   5.397   3.197  0.0285  0.4409  0.0191
 7971SOL     OW31615   2.157   4.783   5.064 -0.3814 -0.5721  0.4270
 7971SOL    HW231616   2.205   4.820   4.990 -0.7626  0.7191  0.7848
 7971SOL    HW331617   2.223   4.733   5.112  0.7563  1.3706  1.0437
 7971SOL    MW431618   2.172   4.781   5.061  0.0768  0.1197  0.5676
 7972SOL     OW31619   0.931   6.291   3.320 -0.0692 -0.3005  0.0046
 7972SOL    HW231620   0.877   6.230   3.370  0.2602  0.3341  1.1655
 7972SOL    HW331621   0.870   6.358   3.290 -0.0342  0.0915  0.7971
 7972SOL    MW431622   0.916   6.292   3.322  0.0420 -0.3637  0.2489
 7973SOL     OW31623   2.230   1.207   3.274 -0.0290  0.4125 -0.2168
 7973SOL    HW231624   2.286   1.159   3.335 -0.8874 -1.3177 -0.7283
 7973SOL    HW331625   2.199   1.282   3.325  0.7062  0.0032  0.8878
 7973SOL    MW431626   2.233   1.211   3.289  0.1047 -0.4501  0.4046
 7974SOL     OW31627   3.232   5.405   4.839 -0.2096 -0.5788 -0.2406
 7974SOL    HW231628   3.299   5.359   4.890 -0.2701  0.0984  0.4599
 7974SOL    HW331629   3.173   5.442   4.905 -1.5099 -1.4930 -0.8540
 7974SOL    MW431630   3.233   5.404   4.855 -0.1160 -0.0171 -0.5662
 7975SOL     OW31631   5.022   2.565   3.441 -0.1715  0.0297 -0.0816
 7975SOL    HW231632   5.107   2.529   3.416 -1.0006 -0.8680 -1.7283
 7975SOL    HW331633   4.994   2.513   3.515 -0.2006 -1.0642 -0.8418
 7975SOL    MW431634   5.030   2.554   3.447 -0.0700 -0.1170 -0.2094
 7976SOL     OW31635   4.861   0.883   2.540 -0.3123  0.1883  0.1133
 7976SOL    HW231636   4.838   0.808   2.595  0.3432  0.0607  0.2279
 7976SOL    HW331637   4.815   0.957   2.579  0.2237  0.1186  0.9110
 7976SOL    MW431638   4.852   0.883   2.552 -0.4804 -0.1981 -0.2652
 7977SOL     OW31639   1.010   0.124   0.175 -0.1697  0.2315 -0.1356
 7977SOL    HW231640   1.027   0.108   0.083 -1.4994  1.3063 -0.5943
 7977SOL    HW331641   0.925   0.168   0.177 -0.0414  0.4746  1.5813
 7977SOL    MW431642   1.001   0.128   0.163  1.2287 -0.3039  0.5851
 7978SOL     OW31643   4.554   4.356   3.067  0.2050  0.9359  0.1097
 7978SOL    HW231644   4.511   4.317   2.991  1.1248 -0.9552  0.4879
 7978SOL    HW331645   4.565   4.448   3.045 -0.8783  0.7266 -1.4152
 7978SOL    MW431646   4.550   4.363   3.054  0.1962  0.2719 -1.1412
 7979SOL     OW31647   1.648   3.220   1.098  0.4343  0.0209 -0.1978
 7979SOL    HW231648   1.701   3.299   1.100  0.2888  0.1419 -0.9477
 7979SOL    HW331649   1.711   3.149   1.105  0.7823  0.1434 -1.7585
 7979SOL    MW431650   1.663   3.221   1.099  0.0306 -0.4384  0.5415
 7980SOL     OW31651   4.285   3.196   0.879  0.5548 -0.3835 -0.0965
 7980SOL    HW231652   4.215   3.216   0.940  2.7054  1.4885  1.9844
 7980SOL    HW331653   4.252   3.224   0.794 -1.4261 -0.2004  0.6980
 7980SOL    MW431654   4.272   3.202   0.876 -0.0571 -0.0299 -0.2036
 7981SOL     OW31655   6.271   0.962   2.048  0.4928  0.0052 -0.5125
 7981SOL    HW231656   6.276   1.056   2.030 -0.3921  0.0879 -0.4065
 7981SOL    HW331657   6.218   0.956   2.128  0.9976 -0.5594 -0.2143
 7981SOL    MW431658   6.264   0.973   2.056  0.2712  0.0197 -0.8234
 7982SOL     OW31659   6.298   5.436   3.600 -0.0149 -0.5625  0.0400
 7982SOL    HW231660   6.383   5.407   3.634  0.4012 -2.1558 -2.1487
 7982SOL    HW331661   6.236   5.415   3.670  1.1698 -0.8322  1.0478
 7982SOL    MW431662   6.301   5.429   3.614 -0.3450  0.5012  0.3482
 7983SOL     OW31663   3.642   6.243   0.779 -0.5873 -0.2416 -0.8334
 7983SOL    HW231664   3.640   6.228   0.684  1.1882 -0.7613 -0.8263
 7983SOL    HW331665   3.616   6.159   0.817 -1.4539  0.0126 -0.8447
 7983SOL    MW431666   3.639   6.230   0.772 -0.2532  0.0583  0.3199
 7984SOL     OW31667   0.136   4.650   2.813 -0.1710  0.7672  0.0699
 7984SOL    HW231668   0.091   4.570   2.786  1.3913  0.3264 -1.3743
 7984SOL    HW331669   0.157   4.695   2.731  1.6571  1.1299  0.6915
 7984SOL    MW431670   0.133   4.645   2.799  0.0998 -0.3715  0.4367
 7985SOL     OW31671   4.061   1.767   3.551  0.0529  0.5722 -0.1452
 7985SOL    HW231672   3.992   1.722   3.600  0.0652  0.6725 -0.0344
 7985SOL    HW331673   4.108   1.818   3.617  2.1272 -1.7677  0.2963
 7985SOL    MW431674   4.058   1.768   3.566  0.5886 -0.0286  0.0984
 7986SOL     OW31675   5.666   3.211   1.427  0.4296 -0.0846 -0.1476
 7986SOL    HW231676   5.648   3.117   1.425  0.3307 -0.0782  0.5203
 7986SOL    HW331677   5.661   3.238   1.335 -2.3373 -0.1806 -0.1061
 7986SOL    MW431678   5.663   3.202   1.414  0.0742  0.3720  0.0611
 7987SOL     OW31679   1.983   4.259   5.146  0.4969  0.5173  0.0781
 7987SOL    HW231680   2.014   4.242   5.057  0.1379 -0.4457  0.1249
 7987SOL    HW331681   1.972   4.354   5.150 -0.7944  0.4625 -1.3576
 7987SOL    MW431682   1.986   4.269   5.135 -0.2242 -0.4777  0.3734
 7988SOL     OW31683   1.733   3.657   3.249 -0.0445  0.0218 -0.4323
 7988SOL    HW231684   1.729   3.744   3.288 -1.8886 -0.2868  0.1351
 7988SOL    HW331685   1.823   3.629   3.263  0.8220  2.1316 -1.3261
 7988SOL    MW431686   1.744   3.665   3.256  0.1101  0.3561 -0.1210
 7989SOL     OW31687   4.415   4.579   1.118  0.9149  0.5064 -0.2917
 7989SOL    HW231688   4.389   4.490   1.092 -1.7743  0.8764  0.8375
 7989SOL    HW331689   4.506   4.569   1.146  0.8874 -1.7706 -0.7424
 7989SOL    MW431690   4.423   4.566   1.118  0.0679 -0.5175 -0.8497
 7990SOL     OW31691   3.102   6.174   3.583 -0.2837  0.0855  0.2680
 7990SOL    HW231692   3.103   6.265   3.614  0.0906  0.9256 -2.0257
 7990SOL    HW331693   3.009   6.152   3.580 -0.3435 -0.1482  2.1208
 7990SOL    MW431694   3.089   6.183   3.587  0.2992  0.1840 -0.4427
 7991SOL     OW31695   2.478   0.915   3.869 -0.3721 -0.3500  0.4214
 7991SOL    HW231696   2.402   0.970   3.889  0.5414  1.1178  0.0338
 7991SOL    HW331697   2.458   0.876   3.784 -0.4569  0.5074  0.0360
 7991SOL    MW431698   2.465   0.917   3.860 -0.5547  0.0966  0.2841
 7992SOL     OW31699   2.902   2.198   3.891  0.1415  0.4967  0.1408
 7992SOL    HW231700   2.933   2.120   3.938 -0.0840  0.8623  0.9012
 7992SOL    HW331701   2.846   2.164   3.822  1.9861 -0.1829 -1.1164
 7992SOL    MW431702   2.899   2.183   3.888  0.1923  0.0393  0.3715
 7993SOL     OW31703   0.763   5.472   4.535 -0.2488 -0.2450 -0.3140
 7993SOL    HW231704   0.831   5.444   4.473  1.6214  1.0476  1.0232
 7993SOL    HW331705   0.810   5.479   4.619 -1.6068  2.3938  0.3198
 7993SOL    MW431706   0.778   5.469   4.538 -0.1477 -0.0383 -0.2699
 7994SOL     OW31707   5.041   0.102   4.567 -0.0457  0.2023  0.2659
 7994SOL    HW231708   5.022   0.133   4.655 -1.1232  2.6996 -0.7447
 7994SOL    HW331709   4.966   0.046   4.545 -0.7169  1.0835  0.2813
 7994SOL    MW431710   5.028   0.098   4.575  0.0604 -0.2677  0.4342
 7995SOL     OW31711   0.611   0.754   1.293 -0.1648  0.4746  0.1124
 7995SOL    HW231712   0.554   0.741   1.217 -1.4942  1.4696  0.8934
 7995SOL    HW331713   0.700   0.742   1.258 -0.7722  0.1022 -1.4102
 7995SOL    MW431714   0.615   0.751   1.278  0.5282  0.2093  0.4755
 7996SOL     OW31715   3.994   4.610   2.466  0.6799 -0.0680 -0.5321
 7996SOL    HW231716   4.055   4.679   2.491  1.8340 -0.4893 -2.0368
 7996SOL    HW331717   4.006   4.600   2.372 -1.4649 -0.4344 -0.8220
 7996SOL    MW431718   4.004   4.618   2.457  0.0179 -0.2111  0.1671
 7997SOL     OW31719   1.276   4.690   2.166  0.1729  0.4934 -0.4821
 7997SOL    HW231720   1.272   4.603   2.205 -1.4519  1.0972  0.8720
 7997SOL    HW331721   1.229   4.682   2.083  0.1852  0.0208 -0.4415
 7997SOL    MW431722   1.269   4.678   2.160 -0.4697  0.3184  1.2309
 7998SOL     OW31723   5.732   2.727   5.352  0.1180 -0.3966 -0.1562
 7998SOL    HW231724   5.732   2.766   5.439 -1.1180  0.5770 -0.5407
 7998SOL    HW331725   5.815   2.754   5.313  0.3580 -0.2272  0.4645
 7998SOL    MW431726   5.743   2.736   5.358  0.4668  0.2460  0.0632
 7999SOL     OW31727   4.291   3.972   1.444 -0.2547 -0.0775 -0.3802
 7999SOL    HW231728   4.207   4.012   1.467 -0.2810 -0.1004 -0.4371
 7999SOL    HW331729   4.357   4.030   1.483 -0.3092 -0.3847  0.1930
 7999SOL    MW431730   4.289   3.985   1.452 -0.2185  0.9238  0.2130
 8000SOL     OW31731   0.084   1.518   5.753 -0.0380  0.8406 -0.2529
 8000SOL    HW231732   0.079   1.560   5.667 -0.7067  0.2501 -0.5095
 8000SOL    HW331733   0.129   1.435   5.737  1.0587  1.3283  0.2112
 8000SOL    MW431734   0.089   1.512   5.740 -0.2092  0.1169  0.3631
 8001SOL     OW31735   4.696   4.364   4.604  0.8134 -0.7352 -0.4788
 8001SOL    HW231736   4.764   4.315   4.559 -0.8295 -1.5194 -2.2488
 8001SOL    HW331737   4.677   4.437   4.545 -0.5450 -1.0903 -0.5049
 8001SOL    MW431738   4.702   4.367   4.591 -0.6588  0.1941 -0.1087
 8002SOL     OW31739   0.323   3.302   6.249 -0.1817 -0.0285 -0.5200
 8002SOL    HW231740   0.284   3.224   6.288  0.7145 -0.4931 -0.5087
 8002SOL    HW331741   0.271   3.375   6.282  0.6913 -0.3651  1.7988
 8002SOL    MW431742   0.311   3.301   6.259 -0.3028  0.0830  0.5761
 8003SOL     OW31743   5.845   4.745   3.010 -0.0879  0.7078 -0.4273
 8003SOL    HW231744   5.841   4.704   3.096  0.6428  2.3079  0.4060
 8003SOL    HW331745   5.801   4.830   3.021 -0.5070  0.7053 -1.7924
 8003SOL    MW431746   5.839   4.751   3.023  0.2549  0.0936 -0.5178
 8004SOL     OW31747   6.301   4.780   2.752  0.2824  0.3018  0.3773
 8004SOL    HW231748   6.349   4.702   2.781  0.6960  0.6545  0.6558
 8004SOL    HW331749   6.212   4.766   2.784 -0.1297 -0.9201 -1.1690
 8004SOL    MW431750   6.296   4.768   2.760 -0.3270  0.2485  0.7888
 8005SOL     OW31751   5.444   3.156   2.511  0.3619 -0.3883 -0.7354
 8005SOL    HW231752   5.446   3.175   2.417  1.9251  1.7755 -0.3233
 8005SOL    HW331753   5.534   3.165   2.540 -0.2672  0.1913  1.1926
 8005SOL    MW431754   5.456   3.159   2.502  0.3712  0.3419 -0.3651
 8006SOL     OW31755   4.211   0.498   3.494  0.1701  0.2825 -0.4689
 8006SOL    HW231756   4.238   0.590   3.489  0.4326  0.1517 -2.9658
 8006SOL    HW331757   4.138   0.491   3.432  1.7969 -1.6379 -2.3673
 8006SOL    MW431758   4.205   0.509   3.485 -0.0585  0.0677  0.4493
 8007SOL     OW31759   6.177   5.541   4.184 -0.3348 -0.4960  1.0616
 8007SOL    HW231760   6.217   5.525   4.099 -0.6999  0.2203  0.7483
 8007SOL    HW331761   6.194   5.461   4.234  0.2874 -0.7375  0.4772
 8007SOL    MW431762   6.185   5.528   4.180 -0.3381  0.4812 -0.1050
 8008SOL     OW31763   1.157   3.331   1.545  0.0093  0.0344 -0.6206
 8008SOL    HW231764   1.118   3.254   1.585  0.9692 -0.2778 -0.2587
 8008SOL    HW331765   1.251   3.311   1.539  0.0395  0.4574 -2.1435
 8008SOL    MW431766   1.165   3.318   1.549  0.3426 -0.4695  0.1599
 8009SOL     OW31767   2.743   2.092   0.494  0.5801 -0.1423  0.0863
 8009SOL    HW231768   2.710   2.038   0.422  0.1968 -1.6196  1.3412
 8009SOL    HW331769   2.707   2.179   0.476  1.5608 -0.1291 -2.2060
 8009SOL    MW431770   2.734   2.097   0.482 -0.0135 -0.1994 -0.1265
 8010SOL     OW31771   0.714   4.562   4.092 -0.3087  0.2622 -0.3536
 8010SOL    HW231772   0.618   4.552   4.091 -0.2035 -0.8683 -1.3030
 8010SOL    HW331773   0.742   4.514   4.170 -0.4907  0.3298 -0.2447
 8010SOL    MW431774   0.705   4.554   4.102 -0.2339 -0.0703 -0.5319
 8011SOL     OW31775   0.344   4.558   5.402  0.0646 -0.1699 -0.1768
 8011SOL    HW231776   0.439   4.563   5.390 -0.1575  1.8593 -1.5577
 8011SOL    HW331777   0.309   4.551   5.313 -1.1342  0.8661  0.1835
 8011SOL    MW431778   0.352   4.557   5.388 -0.3656 -0.0004 -0.3985
 8012SOL     OW31779   6.279   1.568   2.750  0.2922 -0.2181  0.0478
 8012SOL    HW231780   6.226   1.575   2.830 -0.7286 -1.5135 -0.4708
 8012SOL    HW331781   6.290   1.474   2.737  2.6612 -0.0074  0.0402
 8012SOL    MW431782   6.273   1.557   2.759  0.1707 -0.1156 -0.0280
 8013SOL     OW31783   2.514   3.470   4.846  0.2633  0.5592 -0.4586
 8013SOL    HW231784   2.523   3.556   4.887 -2.6399  1.6060 -1.7371
 8013SOL    HW331785   2.429   3.437   4.877  0.1044 -0.6513 -2.0129
 8013SOL    MW431786   2.504   3.477   4.856  0.3514 -0.3958  0.0493
 8014SOL     OW31787   2.122   4.628   0.108  0.7764 -0.6959 -0.1588
 8014SOL    HW231788   2.164   4.707   0.142  0.3458 -0.5812  0.1108
 8014SOL    HW331789   2.115   4.571   0.185 -1.1488 -0.0344  0.1931
 8014SOL    MW431790   2.127   4.631   0.123 -0.0467  0.1848  0.3247
 8015SOL     OW31791   4.714   1.447   5.574 -0.1635  0.1462 -0.5098
 8015SOL    HW231792   4.799   1.423   5.612 -0.3244  1.6108  0.8596
 8015SOL    HW331793   4.672   1.363   5.554  1.0463 -0.6192  0.0555
 8015SOL    MW431794   4.720   1.433   5.576 -0.9192 -0.6070 -0.3996
 8016SOL     OW31795   2.193   4.797   4.564 -0.3697  0.4615  0.2017
 8016SOL    HW231796   2.109   4.804   4.609  0.0514  2.3192  0.7729
 8016SOL    HW331797   2.175   4.742   4.488 -1.4040 -1.6395  1.8807
 8016SOL    MW431798   2.179   4.791   4.560 -0.1443  0.0967  0.3195
 8017SOL     OW31799   1.408   4.946   5.156 -0.0208  0.0651 -0.2282
 8017SOL    HW231800   1.437   5.034   5.133  3.3385 -0.8973 -0.1456
 8017SOL    HW331801   1.433   4.936   5.248 -2.0202 -0.4091  0.3063
 8017SOL    MW431802   1.415   4.957   5.165 -0.2535 -0.5125  0.0897
 8018SOL     OW31803   4.594   3.883   5.846  0.0712 -0.1700 -0.2823
 8018SOL    HW231804   4.616   3.970   5.879 -1.5942  0.1609  0.0552
 8018SOL    HW331805   4.513   3.896   5.796 -0.1607 -1.5156 -0.2894
 8018SOL    MW431806   4.586   3.896   5.844  0.3162  0.1055  0.1897
 8019SOL     OW31807   3.329   4.464   4.983  0.4897 -0.4650  0.6582
 8019SOL    HW231808   3.394   4.495   5.047 -0.4694 -0.3710  1.6136
 8019SOL    HW331809   3.253   4.520   4.997  0.3924 -0.1518 -0.8858
 8019SOL    MW431810   3.327   4.475   4.993 -0.6110 -0.6843  0.1166
 8020SOL     OW31811   6.247   6.089   4.222  0.0451 -0.0014  0.0230
 8020SOL    HW231812   6.324   6.032   4.228 -0.7485 -1.3972 -1.7997
 8020SOL    HW331813   6.175   6.036   4.257 -0.5785  0.1062 -1.0316
 8020SOL    MW431814   6.247   6.074   4.227 -0.0237 -0.3528 -0.2066
 8021SOL     OW31815   0.937   5.347   5.011 -0.2432 -0.1579 -0.4651
 8021SOL    HW231816   0.915   5.266   4.964 -1.5247 -0.3217  0.3647
 8021SOL    HW331817   1.024   5.331   5.046 -0.9984 -1.7429  0.8158
 8021SOL    MW431818   0.945   5.334   5.009 -0.7362  0.3693  0.4964
 8022SOL     OW31819   1.913   2.128   3.755 -0.3381 -0.7891  0.6223
 8022SOL    HW231820   2.008   2.137   3.745 -0.3009 -1.4151  0.3928
 8022SOL    HW331821   1.879   2.215   3.733  0.1165 -0.7867 -0.1182
 8022SOL    MW431822   1.921   2.141   3.751  0.1308  0.4869  0.5495
 8023SOL     OW31823   5.207   1.226   1.367 -0.9226 -0.1305 -0.4186
 8023SOL    HW231824   5.238   1.137   1.348 -1.8698 -0.5842  0.1252
 8023SOL    HW331825   5.190   1.226   1.461 -0.2727  0.8443 -0.2876
 8023SOL    MW431826   5.209   1.214   1.377 -0.0339  0.1022 -0.3441
 8024SOL     OW31827   1.697   3.268   4.416  0.1155 -0.2143  0.5827
 8024SOL    HW231828   1.637   3.324   4.366 -1.1305  0.0389  2.2705
 8024SOL    HW331829   1.756   3.329   4.461  1.3441 -0.4458 -0.6485
 8024SOL    MW431830   1.697   3.283   4.416  0.0257 -0.6397 -0.1887
 8025SOL     OW31831   5.575   3.341   5.108  0.2431 -0.3005  0.3035
 8025SOL    HW231832   5.492   3.301   5.136  0.8469 -1.0501  1.0808
 8025SOL    HW331833   5.558   3.370   5.018 -0.3270 -2.0784 -0.2157
 8025SOL    MW431834   5.562   3.339   5.100 -0.6234 -0.0642 -0.3052
 8026SOL     OW31835   3.006   2.662   3.983  0.0236  0.0275  0.3081
 8026SOL    HW231836   3.078   2.629   3.929 -1.3349 -0.3307 -1.3760
 8026SOL    HW331837   3.015   2.615   4.066  1.6272 -0.1122  0.0738
 8026SOL    MW431838   3.016   2.651   3.987  0.4167 -0.4168 -0.5165
 8027SOL     OW31839   1.182   2.512   6.147 -0.4059 -0.5007 -0.3006
 8027SOL    HW231840   1.236   2.479   6.074 -0.2993 -0.5502 -0.2000
 8027SOL    HW331841   1.180   2.439   6.209 -0.4320 -0.4298 -0.2190
 8027SOL    MW431842   1.189   2.498   6.145 -0.6895 -0.0648  0.3956
 8028SOL     OW31843   1.683   3.596   2.660 -0.0308  0.6591 -0.1287
 8028SOL    HW231844   1.687   3.601   2.756  0.6481 -1.0307 -0.0224
 8028SOL    HW331845   1.675   3.687   2.632 -0.3708  1.1923  1.5329
 8028SOL    MW431846   1.682   3.609   2.669  0.2027 -0.2114  0.1687
 8029SOL     OW31847   4.812   5.204   2.446  0.0002  0.1892  0.5124
 8029SOL    HW231848   4.889   5.161   2.409 -0.9414  0.0119 -1.3536
 8029SOL    HW331849   4.758   5.226   2.370 -0.9295  2.0008  1.6418
 8029SOL    MW431850   4.815   5.201   2.431 -0.2794  0.2120  0.8486
 8030SOL     OW31851   6.199   2.328   5.656 -0.2687 -0.4016  0.0453
 8030SOL    HW231852   6.110   2.295   5.672 -1.4386  2.7788  0.9843
 8030SOL    HW331853   6.245   2.316   5.739 -0.0155 -1.4316 -0.2340
 8030SOL    MW431854   6.193   2.322   5.669  0.1806  0.5753  0.0083
 8031SOL     OW31855   1.392   1.513   0.279 -0.0214  0.4264  0.0028
 8031SOL    HW231856   1.399   1.572   0.204 -2.0294  0.6312 -0.0618
 8031SOL    HW331857   1.339   1.561   0.342  0.6672 -0.2183  1.1116
 8031SOL    MW431858   1.386   1.527   0.277 -0.4616  0.5316  0.3429
 8032SOL     OW31859   4.370   3.266   4.195  0.0143 -0.3634  0.3274
 8032SOL    HW231860   4.316   3.189   4.180 -0.4003 -0.2377  1.1489
 8032SOL    HW331861   4.324   3.315   4.263  0.9212 -0.0235  0.7086
 8032SOL    MW431862   4.357   3.263   4.202  0.5116 -0.0135 -0.6300
 8033SOL     OW31863   1.302   4.721   3.366  0.4748  0.9898  0.3748
 8033SOL    HW231864   1.224   4.776   3.370  0.3988  0.9738 -0.5688
 8033SOL    HW331865   1.375   4.783   3.371  0.3905  1.1447 -0.2157
 8033SOL    MW431866   1.302   4.737   3.367  0.4204  0.6548 -0.4516
 8034SOL     OW31867   4.267   5.510   1.236 -0.0439  0.8466 -0.1211
 8034SOL    HW231868   4.284   5.514   1.330 -1.1468  1.3862  0.0709
 8034SOL    HW331869   4.300   5.424   1.209  0.6649  0.8551  0.6675
 8034SOL    MW431870   4.274   5.499   1.245 -0.1450  0.1419  0.3594
 8035SOL     OW31871   0.112   4.968   4.039  0.1181  0.2069 -0.5171
 8035SOL    HW231872   0.103   4.874   4.023  3.6908 -0.3334 -0.1323
 8035SOL    HW331873   0.081   4.980   4.129 -0.6901 -0.5157 -0.6867
 8035SOL    MW431874   0.107   4.957   4.049 -0.0585  0.0951  0.0460
 8036SOL     OW31875   1.271   4.932   2.665  0.2873 -0.4153 -0.3462
 8036SOL    HW231876   1.342   4.901   2.721  0.0627  0.2044  0.2899
 8036SOL    HW331877   1.220   4.991   2.721 -0.3821 -0.3896 -0.9751
 8036SOL    MW431878   1.274   4.936   2.680  0.1357 -0.3240 -0.4596
 8037SOL     OW31879   3.285   2.899   5.243 -0.1587 -0.2221 -0.2329
 8037SOL    HW231880   3.193   2.874   5.246  0.3427 -2.2727 -0.3994
 8037SOL    HW331881   3.284   2.995   5.235 -2.3025 -0.2960 -1.7926
 8037SOL    MW431882   3.273   2.909   5.242  0.7027 -0.5275  0.3719
 8038SOL     OW31883   6.359   3.499   6.029  0.1411  0.5983  0.2942
 8038SOL    HW231884   6.440   3.497   5.978  0.2361 -0.1479  0.4697
 8038SOL    HW331885   6.290   3.486   5.964  0.2249  0.2859  0.2643
 8038SOL    MW431886   6.361   3.497   6.014 -0.0416 -0.0708  0.3918
 8039SOL     OW31887   4.519   5.296   6.016 -0.0928 -0.0860 -0.1348
 8039SOL    HW231888   4.541   5.331   5.930  0.6512 -1.4139 -0.5235
 8039SOL    HW331889   4.601   5.297   6.064 -0.3538 -0.0226  0.3089
 8039SOL    MW431890   4.532   5.300   6.011 -0.7566  0.0868 -0.4652
 8040SOL     OW31891   5.057   3.895   2.774  0.1406 -0.2595 -0.2295
 8040SOL    HW231892   5.027   3.844   2.699  0.7933  0.5607 -1.0867
 8040SOL    HW331893   5.124   3.841   2.815 -0.5426 -0.9120  0.0535
 8040SOL    MW431894   5.062   3.881   2.770 -0.6032  0.0287 -0.4825
 8041SOL     OW31895   3.039   5.574   4.995  0.1514 -0.1498 -0.2386
 8041SOL    HW231896   3.053   5.651   4.941 -1.3990  0.8340  0.7096
 8041SOL    HW331897   2.952   5.542   4.970 -0.1687 -0.2564  0.9386
 8041SOL    MW431898   3.029   5.580   4.985  0.1474  0.6925  0.0263
 8042SOL     OW31899   5.393   6.396   2.881  0.8344 -0.0533 -0.1655
 8042SOL    HW231900   5.434   6.373   2.797  1.0171 -0.0072 -0.0909
 8042SOL    HW331901   5.318   6.336   2.889  0.9916 -0.2609 -0.2241
 8042SOL    MW431902   5.389   6.385   2.871 -0.7809 -0.2563  0.5505
 8043SOL     OW31903   5.445   1.008   1.760  0.3996 -0.9722  0.1944
 8043SOL    HW231904   5.412   1.006   1.850  0.5104 -2.0332  0.2214
 8043SOL    HW331905   5.530   0.964   1.765  0.2391 -1.3635 -0.4981
 8043SOL    MW431906   5.452   1.002   1.773  0.1726 -0.5155 -0.1050
 8044SOL     OW31907   2.855   5.337   1.189 -0.3765  0.2248 -0.5656
 8044SOL    HW231908   2.863   5.413   1.247  0.4677 -1.6263  1.9425
 8044SOL    HW331909   2.935   5.286   1.205 -1.0388 -1.3482 -1.9432
 8044SOL    MW431910   2.867   5.340   1.199  0.2549  0.1310  0.7551
 8045SOL     OW31911   6.202   0.376   5.636  0.0054 -0.0061  0.0276
 8045SOL    HW231912   6.215   0.460   5.680 -0.2016 -0.0538  0.1805
 8045SOL    HW331913   6.154   0.398   5.556  2.2191  0.3577 -1.2662
 8045SOL    MW431914   6.197   0.390   5.631  0.3830  0.1170 -0.5854
 8046SOL     OW31915   5.952   1.845   1.205 -0.7352  0.8171 -0.0198
 8046SOL    HW231916   6.006   1.773   1.238 -2.6576  0.0812  1.6839
 8046SOL    HW331917   5.956   1.836   1.109  0.3304 -0.5693  0.1258
 8046SOL    MW431918   5.960   1.834   1.197  0.4611 -0.3731  0.2378
 8047SOL     OW31919   3.262   0.471   3.794  0.4618 -0.0998 -0.3803
 8047SOL    HW231920   3.346   0.433   3.771  0.2537 -0.1218 -1.1121
 8047SOL    HW331921   3.221   0.406   3.852  1.1803  0.1711  0.4458
 8047SOL    MW431922   3.267   0.457   3.799  0.2196  0.5287 -0.1345
 8048SOL     OW31923   3.700   0.537   3.532  0.8336 -0.1251  0.2184
 8048SOL    HW231924   3.698   0.528   3.627  0.8592 -3.0135  0.0379
 8048SOL    HW331925   3.617   0.579   3.510  1.3758  1.7555  1.5637
 8048SOL    MW431926   3.689   0.541   3.541 -0.2254 -0.1112  0.4048
 8049SOL     OW31927   3.894   3.268   0.993  0.2753 -0.2619 -0.0025
 8049SOL    HW231928   3.972   3.272   1.048 -0.1879 -0.3183  0.6695
 8049SOL    HW331929   3.821   3.270   1.054 -0.2387 -1.2708 -0.5597
 8049SOL    MW431930   3.894   3.269   1.008  0.1437  0.0426  0.6935
 8050SOL     OW31931   6.116   2.997   2.806 -0.4613  0.6046 -0.2890
 8050SOL    HW231932   6.203   2.971   2.838  0.2058  3.0226  0.0465
 8050SOL    HW331933   6.055   2.942   2.856  0.8294 -1.6727 -1.0544
 8050SOL    MW431934   6.120   2.986   2.817  0.3593 -0.0098  0.1647
 8051SOL     OW31935   1.336   0.714   3.955  0.6395  0.3516  0.1870
 8051SOL    HW231936   1.387   0.726   4.036  0.0229 -0.9119  0.7825
 8051SOL    HW331937   1.273   0.646   3.976 -2.2909  2.7985 -0.0918
 8051SOL    MW431938   1.335   0.707   3.969  0.6220 -0.3831 -0.3865
 8052SOL     OW31939   1.797   2.235   0.531 -0.1312 -0.3650 -0.3682
 8052SOL    HW231940   1.785   2.329   0.543  2.5684  0.1928 -1.2578
 8052SOL    HW331941   1.862   2.210   0.597  1.0525 -1.0180 -1.6978
 8052SOL    MW431942   1.804   2.244   0.541  0.0263 -0.3507 -0.4869
 8053SOL     OW31943   5.333   5.689   4.814  0.0853 -1.0651 -0.1320
 8053SOL    HW231944   5.331   5.683   4.909  0.7230 -0.1038 -0.0514
 8053SOL    HW331945   5.244   5.712   4.789  0.2691  0.2405  0.3599
 8053SOL    MW431946   5.321   5.691   4.823  0.2041 -0.1759 -0.0343
 8054SOL     OW31947   1.070   2.407   0.881 -0.0988  0.3860 -0.1434
 8054SOL    HW231948   1.029   2.331   0.840 -0.1022 -0.3137  1.1284
 8054SOL    HW331949   1.065   2.476   0.814  0.4922 -0.9012 -1.5678
 8054SOL    MW431950   1.064   2.406   0.866 -0.0432  0.1008 -0.1179
 8055SOL     OW31951   3.535   3.375   5.097 -0.0013 -0.1480 -0.1551
 8055SOL    HW231952   3.558   3.298   5.149 -0.5124 -1.5795 -1.9632
 8055SOL    HW331953   3.440   3.371   5.087  0.0787  0.0907 -1.1852
 8055SOL    MW431954   3.525   3.365   5.103 -0.5446  0.6140  0.1228
 8056SOL     OW31955   3.933   2.298   4.155 -0.5369  0.4890  0.1186
 8056SOL    HW231956   3.844   2.309   4.123 -1.2338 -0.6209  1.5362
 8056SOL    HW331957   3.933   2.340   4.241  0.3273  0.5201  0.1145
 8056SOL    MW431958   3.921   2.305   4.162  0.5954  0.2587 -0.1669
 8057SOL     OW31959   3.773   4.347   1.813  0.1860  0.1460  0.0183
 8057SOL    HW231960   3.758   4.261   1.775  2.2741 -0.7701  1.0911
 8057SOL    HW331961   3.809   4.399   1.741  0.9973 -0.5599 -0.0975
 8057SOL    MW431962   3.776   4.343   1.799  0.3275  0.1446  0.6120
 8058SOL     OW31963   4.945   1.786   2.700 -0.0470  0.2812 -0.9390
 8058SOL    HW231964   4.863   1.791   2.749 -1.0933 -1.9669 -2.2759
 8058SOL    HW331965   4.934   1.849   2.629 -0.2526  0.5962 -0.6326
 8058SOL    MW431966   4.933   1.795   2.697 -0.1728 -0.3800  0.2026
 8059SOL     OW31967   0.377   5.710   1.425 -0.3455  0.3555  0.3305
 8059SOL    HW231968   0.348   5.646   1.361 -0.7849  1.3088 -0.4517
 8059SOL    HW331969   0.473   5.703   1.424 -0.3791 -3.1239  3.2670
 8059SOL    MW431970   0.386   5.701   1.417 -0.2377  0.0688 -0.4705
 8060SOL     OW31971   5.114   2.982   6.149 -0.3253  0.1828 -0.5409
 8060SOL    HW231972   5.039   3.034   6.121 -0.0268 -0.0047 -1.7086
 8060SOL    HW331973   5.177   2.989   6.078  0.1885 -0.8302 -0.2068
 8060SOL    MW431974   5.112   2.990   6.136 -0.1446  0.0234  0.6063
 8061SOL     OW31975   5.871   0.400   3.524  0.4570 -0.0837 -0.1563
 8061SOL    HW231976   5.804   0.344   3.562  1.6955 -1.1462  0.5413
 8061SOL    HW331977   5.841   0.417   3.435 -1.2513  0.3685  0.4785
 8061SOL    MW431978   5.859   0.395   3.517 -0.1227 -0.4499  0.2843
 8062SOL     OW31979   1.651   5.150   5.723  0.1122 -0.1283 -0.3297
 8062SOL    HW231980   1.689   5.233   5.696 -0.1862 -0.8980 -3.5365
 8062SOL    HW331981   1.707   5.084   5.682  0.2496 -1.5512  1.9982
 8062SOL    MW431982   1.663   5.152   5.714  0.3644  0.3575 -0.2973
 8063SOL     OW31983   5.141   0.033   6.154  0.2139  0.9325 -0.4998
 8063SOL    HW231984   5.136   0.070   6.066 -0.2346 -0.4335 -1.0724
 8063SOL    HW331985   5.151  -0.061   6.140 -0.0581  0.6699  0.9146
 8063SOL    MW431986   5.142   0.025   6.141 -0.0755 -0.1806 -0.1401
 8064SOL     OW31987   6.089   3.862   1.507  0.2542 -0.1453 -0.4784
 8064SOL    HW231988   6.031   3.931   1.540 -0.3029  0.6991 -3.0103
 8064SOL    HW331989   6.175   3.884   1.543  0.0044  1.6485 -0.8855
 8064SOL    MW431990   6.093   3.874   1.516 -0.7027 -0.6220 -0.2172
 8065SOL     OW31991   2.385   4.010   4.544 -0.1567  0.7164  0.2847
 8065SOL    HW231992   2.335   4.073   4.492  1.0113  2.3700  1.0683
 8065SOL    HW331993   2.474   4.017   4.511  0.5662  1.6101  2.2369
 8065SOL    MW431994   2.390   4.020   4.533 -0.7307  0.3214 -0.3297
 8066SOL     OW31995   2.357   3.110   2.715 -0.0791 -0.5641  0.3753
 8066SOL    HW231996   2.288   3.096   2.650 -1.3755 -0.4355  1.6648
 8066SOL    HW331997   2.431   3.142   2.665 -1.0676 -0.3702 -1.0250
 8066SOL    MW431998   2.358   3.112   2.700 -0.2498  0.6826 -0.1275
 8067SOL     OW31999   0.686   4.750   4.929  0.1054  0.0247  0.5159
 8067SOL    HW232000   0.761   4.744   4.988  0.2302  0.1201  0.3647
 8067SOL    HW332001   0.618   4.699   4.973  0.2077  0.0697  0.7290
 8067SOL    MW432002   0.687   4.742   4.943 -0.4158 -0.0009  0.2256
 8068SOL     OW32003   6.206   2.273   4.008 -0.2481  0.5635  0.0258
 8068SOL    HW232004   6.251   2.191   4.027  0.1603  1.0508  1.2655
 8068SOL    HW332005   6.113   2.250   4.009 -0.0972 -0.1673 -1.1524
 8068SOL    MW432006   6.199   2.259   4.011 -0.3421  0.6830 -0.4343
 8069SOL     OW32007   3.261   5.703   0.198 -0.1204  0.5118  0.2891
 8069SOL    HW232008   3.316   5.631   0.227 -0.6432  0.0092  0.0414
 8069SOL    HW332009   3.278   5.710   0.104 -1.4565 -0.5206 -0.0560
 8069SOL    MW432010   3.270   5.695   0.189  0.2230  0.0894 -0.1693
 8070SOL     OW32011   6.242   5.133   0.677 -0.2813 -0.0687 -0.0862
 8070SOL    HW232012   6.205   5.097   0.597 -1.2834 -0.3191  0.4772
 8070SOL    HW332013   6.204   5.081   0.747 -0.4286  0.9861  0.6376
 8070SOL    MW432014   6.232   5.122   0.676 -0.0657 -0.0050 -0.6591
 8071SOL     OW32015   2.666   2.026   1.382 -0.1624 -0.6240 -0.2416
 8071SOL    HW232016   2.699   1.936   1.386  1.8585  0.0835  3.0344
 8071SOL    HW332017   2.576   2.017   1.351  0.2096 -3.6836 -0.7713
 8071SOL    MW432018   2.659   2.013   1.379 -0.7239 -0.2185 -0.1531
 8072SOL     OW32019   6.345   4.641   0.833 -0.6167 -0.4652  0.1293
 8072SOL    HW232020   6.268   4.675   0.789 -0.3381  0.2579  0.1840
 8072SOL    HW332021   6.311   4.586   0.904 -1.0682 -0.5874 -0.1819
 8072SOL    MW432022   6.331   4.638   0.836 -0.2190  0.3113  0.1821
 8073SOL     OW32023   0.357   1.082   0.033  0.2366  0.0905 -0.0309
 8073SOL    HW232024   0.402   1.132  -0.035  0.7295 -0.0266  0.2044
 8073SOL    HW332025   0.392   1.117   0.116  1.0170 -1.0164  0.1317
 8073SOL    MW432026   0.367   1.094   0.035 -0.4541 -0.1929  0.6541
 8074SOL     OW32027   4.669   3.325   4.955  0.6728 -0.2451  0.4765
 8074SOL    HW232028   4.757   3.299   4.985  1.3566  2.2976  0.8749
 8074SOL    HW332029   4.636   3.382   5.025 -0.8994 -0.3607 -0.1413
 8074SOL    MW432030   4.676   3.329   4.968  0.0232 -0.0783 -0.4061
 8075SOL     OW32031   5.679   4.786   5.272 -0.2790 -0.1939  0.0242
 8075SOL    HW232032   5.593   4.748   5.290  0.0103 -1.2509 -0.7210
 8075SOL    HW332033   5.736   4.710   5.259  0.3208  0.4818 -1.5429
 8075SOL    MW432034   5.675   4.771   5.273 -0.3405  0.6293 -0.2539
 8076SOL     OW32035   2.580   4.526   5.087  0.1984  0.0567  0.2544
 8076SOL    HW232036   2.534   4.442   5.088  0.3504 -0.0284  0.2528
 8076SOL    HW332037   2.584   4.550   4.995  1.0694 -0.4490  0.1450
 8076SOL    MW432038   2.574   4.518   5.075  0.2239  0.3013 -0.0740
 8077SOL     OW32039   2.688   5.348   3.136 -0.2271  0.3700  0.0810
 8077SOL    HW232040   2.698   5.335   3.230  0.5220 -0.0699 -0.0465
 8077SOL    HW332041   2.608   5.400   3.127 -0.5543  0.0330  0.9283
 8077SOL    MW432042   2.679   5.353   3.147 -0.0386 -0.6379 -0.0549
 8078SOL     OW32043   0.959   2.921   5.102 -0.8967 -0.5201 -0.2563
 8078SOL    HW232044   0.939   2.984   5.171 -0.2886 -1.5295  0.8745
 8078SOL    HW332045   1.053   2.933   5.086 -1.5827  2.0832 -3.3883
 8078SOL    MW432046   0.969   2.931   5.109 -0.3273  0.3194  0.2872
 8079SOL     OW32047   1.403   2.639   4.931  0.1935  0.3634 -0.5885
 8079SOL    HW232048   1.452   2.721   4.937  2.1542 -0.6549 -1.3684
 8079SOL    HW332049   1.470   2.574   4.909 -0.3558 -2.3523  4.3767
 8079SOL    MW432050   1.419   2.641   4.929 -0.0635 -0.6667 -0.4567
 8080SOL     OW32051   3.744   6.329   4.933 -0.2177  0.5481 -0.2995
 8080SOL    HW232052   3.770   6.286   5.014  1.2383 -1.5332 -1.7706
 8080SOL    HW332053   3.822   6.376   4.903  0.5461 -1.8078 -2.3255
 8080SOL    MW432054   3.758   6.330   4.940 -0.2812 -0.1633  0.5407
 8081SOL     OW32055   3.487   0.211   5.192  0.0466  0.5223 -0.0547
 8081SOL    HW232056   3.537   0.213   5.274  0.4683  0.2704 -0.2999
 8081SOL    HW332057   3.397   0.225   5.218  0.0530 -0.4946  0.5649
 8081SOL    MW432058   3.482   0.213   5.206 -0.1410 -0.4162 -0.6302
 8082SOL     OW32059   5.670   4.026   2.242  0.5309  0.1249  0.6231
 8082SOL    HW232060   5.620   4.107   2.229  1.4620  0.7052  0.5633
 8082SOL    HW332061   5.621   3.978   2.308  0.6730  1.3587  1.6599
 8082SOL    MW432062   5.657   4.031   2.249 -0.1588  0.0918  0.1529
 8083SOL     OW32063   5.151   1.138   2.614 -0.4472  0.2381  0.5557
 8083SOL    HW232064   5.169   1.049   2.644  0.4739  0.3636  0.3909
 8083SOL    HW332065   5.167   1.193   2.691  0.0787  0.3731  0.3488
 8083SOL    MW432066   5.156   1.134   2.628  0.1256 -0.4227  0.1609
 8084SOL     OW32067   4.422   3.974   1.996  0.4505  0.2729  0.3414
 8084SOL    HW232068   4.440   3.955   2.088 -0.1769 -0.8394  0.2576
 8084SOL    HW332069   4.504   3.955   1.951  0.6970  0.6179  0.6442
 8084SOL    MW432070   4.435   3.969   2.002  0.4495  0.0022 -0.3714
 8085SOL     OW32071   5.777   4.296   1.588  0.4657 -0.3218 -0.4953
 8085SOL    HW232072   5.735   4.296   1.674  0.0702 -0.4781 -0.6868
 8085SOL    HW332073   5.814   4.208   1.580  1.6127  0.0823  0.0421
 8085SOL    MW432074   5.776   4.284   1.599 -0.1837  0.5289 -0.4069
 8086SOL     OW32075   5.657   5.733   4.424  0.5151 -0.3957  0.4969
 8086SOL    HW232076   5.687   5.820   4.397  0.4423 -0.3008  0.7196
 8086SOL    HW332077   5.605   5.749   4.503  0.7308 -0.6726  0.6953
 8086SOL    MW432078   5.654   5.746   4.431  0.3375  0.3704 -0.2345
 8087SOL     OW32079   6.144   2.594   5.860 -0.4233 -0.0288  0.2020
 8087SOL    HW232080   6.094   2.529   5.812  0.0463 -0.8606  0.8091
 8087SOL    HW332081   6.220   2.546   5.894 -0.3619  0.6974  1.1484
 8087SOL    MW432082   6.148   2.579   5.858  0.1270  0.3004  0.2647
 8088SOL     OW32083   1.650   0.241   1.413 -0.5519 -0.2259 -0.3858
 8088SOL    HW232084   1.577   0.304   1.419 -1.9190 -1.4298 -2.7888
 8088SOL    HW332085   1.728   0.296   1.401 -1.3840  1.0398 -0.2403
 8088SOL    MW432086   1.650   0.257   1.412  0.6328 -0.0644  0.0810
 8089SOL     OW32087   5.466   3.854   0.528 -0.0048  0.8166 -0.6184
 8089SOL    HW232088   5.371   3.852   0.518 -0.1662  0.0285  0.8260
 8089SOL    HW332089   5.485   3.940   0.566 -0.1967  0.7349 -0.3422
 8089SOL    MW432090   5.456   3.865   0.532 -0.0507  0.0133 -0.0831
 8090SOL     OW32091   5.230   4.032   4.804  0.6634  0.0264 -0.3540
 8090SOL    HW232092   5.171   4.004   4.874  0.7313  0.4344 -0.1270
 8090SOL    HW332093   5.227   3.962   4.739  1.4729 -0.9022  0.5784
 8090SOL    MW432094   5.222   4.019   4.805 -0.0672  0.6575 -0.2777
 8091SOL     OW32095   1.766   6.054   0.532  0.2325 -0.5252 -0.1229
 8091SOL    HW232096   1.845   6.003   0.517  1.3154  0.8775  0.5311
 8091SOL    HW332097   1.775   6.130   0.473 -1.6699 -1.3478 -1.6005
 8091SOL    MW432098   1.778   6.057   0.522 -0.3045  0.2939  0.0818
 8092SOL     OW32099   5.133   4.204   4.214  0.6026  0.0682  0.1766
 8092SOL    HW232100   5.105   4.118   4.243  0.9802 -0.3155 -0.5705
 8092SOL    HW332101   5.158   4.192   4.122 -0.7003  1.2599 -0.3855
 8092SOL    MW432102   5.133   4.191   4.206 -0.2208  0.2391  0.4321
 8093SOL     OW32103   2.009   5.550   3.992 -0.2244 -0.1108  0.5882
 8093SOL    HW232104   2.031   5.603   3.915  1.0977  0.4042  1.2962
 8093SOL    HW332105   1.948   5.485   3.958  0.2033  0.1906 -0.8735
 8093SOL    MW432106   2.004   5.549   3.977  0.0016  0.7166 -0.6098
 8094SOL     OW32107   3.359   6.278   0.870  0.4112 -0.2409 -0.1495
 8094SOL    HW232108   3.413   6.215   0.918  0.1913 -0.7426 -0.5525
 8094SOL    HW332109   3.294   6.307   0.934 -1.6575 -2.9997 -0.8268
 8094SOL    MW432110   3.358   6.274   0.885  0.2020 -0.1731 -0.4809
 8095SOL     OW32111   2.970   5.411   3.470  0.5264  0.2024  0.1311
 8095SOL    HW232112   2.892   5.359   3.491  0.5437 -0.3285 -1.0415
 8095SOL    HW332113   3.013   5.425   3.554 -0.3162 -0.3479  0.6662
 8095SOL    MW432114   2.965   5.406   3.484  0.3082 -0.4891  0.1258
 8096SOL     OW32115   5.464   0.100   2.415 -0.1359 -0.6213  0.0851
 8096SOL    HW232116   5.483   0.074   2.326  1.0349 -0.1346  0.1837
 8096SOL    HW332117   5.368   0.101   2.419 -0.2095 -0.3268 -1.2523
 8096SOL    MW432118   5.454   0.097   2.404 -0.6156  0.6344  0.0818
 8097SOL     OW32119   5.384   1.269   4.987 -0.0259  0.5781  0.0486
 8097SOL    HW232120   5.424   1.319   5.058  0.1240 -0.5314  0.7642
 8097SOL    HW332121   5.455   1.253   4.925  0.6115 -1.1389  1.1747
 8097SOL    MW432122   5.398   1.274   4.988  0.1741 -0.0051  0.1230
 8098SOL     OW32123   3.184   3.588   0.044  0.0038 -0.2400 -0.1791
 8098SOL    HW232124   3.265   3.568   0.091 -0.3952  0.3479  0.7977
 8098SOL    HW332125   3.157   3.504   0.006 -0.5250 -1.1218  2.0266
 8098SOL    MW432126   3.191   3.574   0.045  0.7772 -0.1372 -0.3096
 8099SOL     OW32127   0.090   6.339   2.414  0.2965 -0.1700 -0.6031
 8099SOL    HW232128   0.086   6.280   2.490 -2.0208  1.7839  0.9570
 8099SOL    HW332129   0.002   6.338   2.378  0.9383  0.2487 -2.2668
 8099SOL    MW432130   0.078   6.331   2.420 -0.3737 -0.3793  0.1031
 8100SOL     OW32131   3.603   1.659   2.600 -0.6101  0.3103  0.3538
 8100SOL    HW232132   3.511   1.639   2.619 -3.0663  6.0184 -2.8318
 8100SOL    HW332133   3.616   1.628   2.510 -1.1127  3.1916 -0.8203
 8100SOL    MW432134   3.592   1.652   2.590  0.2767 -0.3353  0.7390
 8101SOL     OW32135   2.474   1.127   0.183  0.1379 -0.0191 -0.0312
 8101SOL    HW232136   2.490   1.049   0.236  0.2991 -0.3882 -0.6056
 8101SOL    HW332137   2.390   1.109   0.140 -1.9246  1.8513  2.8906
 8101SOL    MW432138   2.465   1.114   0.184  1.0486  0.2631 -0.1022
 8102SOL     OW32139   4.009   1.953   3.335  0.1754  0.3131 -0.2731
 8102SOL    HW232140   4.067   2.020   3.371  0.1550  0.2002 -0.0233
 8102SOL    HW332141   4.008   1.885   3.403  1.1663 -0.5034 -1.0416
 8102SOL    MW432142   4.017   1.953   3.349  0.2507 -0.2850  0.2471
 8103SOL     OW32143   1.490   2.190   0.150  0.3940 -0.8451  0.2795
 8103SOL    HW232144   1.429   2.152   0.088  0.5225 -1.3620  0.4595
 8103SOL    HW332145   1.562   2.224   0.096 -0.8455  1.3630 -0.0780
 8103SOL    MW432146   1.492   2.190   0.135 -0.0067 -0.0773 -0.4097
 8104SOL     OW32147   2.468   3.034   5.969 -0.6447 -0.1929  0.4566
 8104SOL    HW232148   2.431   2.968   6.028  0.4142 -1.0260  0.2264
 8104SOL    HW332149   2.395   3.060   5.913 -1.3786 -0.2587  1.3568
 8104SOL    MW432150   2.454   3.028   5.970 -0.1625  0.0359  0.2405
 8105SOL     OW32151   5.098   2.441   0.005  0.0582  0.6442  0.3355
 8105SOL    HW232152   5.011   2.477  -0.011 -0.0311  0.4716  0.4344
 8105SOL    HW332153   5.131   2.416  -0.081 -0.5518 -0.6002  0.4459
 8105SOL    MW432154   5.091   2.443  -0.008 -0.4018  0.0255 -0.0972
 8106SOL     OW32155   2.051   5.963   4.214 -0.0432 -0.1196 -0.2644
 8106SOL    HW232156   2.029   6.056   4.213 -0.1546 -0.1403 -1.6596
 8106SOL    HW332157   2.109   5.952   4.138 -0.2789 -1.2413 -0.2949
 8106SOL    MW432158   2.056   5.974   4.204  0.2134  0.1600  0.5436
 8107SOL     OW32159   0.086   2.260   0.144 -0.2090 -0.3168 -0.1089
 8107SOL    HW232160   0.150   2.276   0.075 -0.1845 -0.3674 -0.0984
 8107SOL    HW332161   0.073   2.345   0.185  2.0204 -0.7720  1.7631
 8107SOL    MW432162   0.093   2.273   0.140  0.2945 -0.4585 -0.0533
 8108SOL     OW32163   5.003   2.163   0.728 -0.3353 -0.0079  0.0422
 8108SOL    HW232164   4.938   2.105   0.689  0.1133  0.2928 -1.2164
 8108SOL    HW332165   5.041   2.210   0.654 -0.1448  1.3463  0.9535
 8108SOL    MW432166   5.000   2.161   0.713 -0.1857  0.4671 -0.3719
 8109SOL     OW32167   0.866   5.424   2.015 -0.7284 -0.0746 -0.3338
 8109SOL    HW232168   0.958   5.437   1.994 -0.7474  0.9312  0.1371
 8109SOL    HW332169   0.850   5.331   1.996 -0.3539  0.3305 -3.1409
 8109SOL    MW432170   0.876   5.413   2.010  0.2334 -0.2381  0.1485
 8110SOL     OW32171   4.950   3.551   1.491 -0.3284 -0.1244  0.5017
 8110SOL    HW232172   4.865   3.580   1.525 -0.7447 -0.4288 -0.2582
 8110SOL    HW332173   4.982   3.625   1.439 -0.7047 -0.4576 -0.2184
 8110SOL    MW432174   4.943   3.565   1.489 -0.3090  0.0499 -0.9269
 8111SOL     OW32175   3.529   3.064   3.505  0.3424  0.5437  0.0369
 8111SOL    HW232176   3.437   3.089   3.507  0.1209 -0.3107  1.2594
 8111SOL    HW332177   3.559   3.090   3.417 -1.4718 -0.7019 -1.0023
 8111SOL    MW432178   3.521   3.071   3.493 -0.2165  0.6580 -0.6688
 8112SOL     OW32179   5.660   4.490   1.153 -0.2852  0.3106  0.1630
 8112SOL    HW232180   5.752   4.506   1.134 -0.0947  0.3748  1.1351
 8112SOL    HW332181   5.660   4.424   1.222 -0.9871 -0.2027 -0.2990
 8112SOL    MW432182   5.672   4.484   1.159  0.2793 -0.5361 -0.5401
 8113SOL     OW32183   1.986   0.088   2.022 -0.5078 -0.1355  0.0019
 8113SOL    HW232184   2.033   0.050   1.948  0.6174  0.8519  0.1729
 8113SOL    HW332185   1.894   0.074   2.002 -0.2555  0.5715 -1.8660
 8113SOL    MW432186   1.980   0.081   2.010 -0.0190 -0.1589 -0.1600
 8114SOL     OW32187   1.926   1.937   2.550  0.2857 -0.3031  0.7485
 8114SOL    HW232188   2.001   1.995   2.559 -1.3578  1.9214  0.9899
 8114SOL    HW332189   1.922   1.917   2.457 -0.0459  1.3329  0.3940
 8114SOL    MW432190   1.935   1.942   2.539 -0.0741 -0.4262 -0.3192
 8115SOL     OW32191   2.035   4.871   3.720 -0.3593  0.7025 -0.2526
 8115SOL    HW232192   2.126   4.870   3.689 -0.8953  2.2276 -2.0611
 8115SOL    HW332193   1.982   4.868   3.641 -1.8583  1.7205  0.6553
 8115SOL    MW432194   2.040   4.871   3.706 -0.1864 -0.0074 -0.4907
 8116SOL     OW32195   6.344   1.476   2.091  0.5587 -0.1728  0.5931
 8116SOL    HW232196   6.312   1.550   2.039 -0.1987 -0.7371  0.2526
 8116SOL    HW332197   6.348   1.510   2.180 -1.2796 -0.1674  0.7053
 8116SOL    MW432198   6.341   1.490   2.096 -0.3407  0.1270  0.2678
 8117SOL     OW32199   4.585   1.342   1.700  0.0922 -0.5412 -0.0896
 8117SOL    HW232200   4.555   1.342   1.609  1.6861 -1.1674 -0.6507
 8117SOL    HW332201   4.524   1.401   1.745 -0.8215 -0.3355 -1.5140
 8117SOL    MW432202   4.573   1.349   1.694  0.6357  0.2632  0.0341
 8118SOL     OW32203   6.198   2.135   1.234  0.0790  0.5497 -0.3970
 8118SOL    HW232204   6.225   2.046   1.257  0.7741  0.9186  0.2274
 8118SOL    HW332205   6.121   2.122   1.178 -0.0364 -0.4309 -0.0371
 8118SOL    MW432206   6.192   2.122   1.229 -0.2583  0.1124  0.0608
 8119SOL     OW32207   3.182   2.207   6.075 -0.4983  0.0391 -0.2748
 8119SOL    HW232208   3.145   2.286   6.036  1.6981  1.3394  0.1148
 8119SOL    HW332209   3.212   2.234   6.161  1.0080 -0.9907 -0.4341
 8119SOL    MW432210   3.181   2.221   6.081  0.8898 -0.0410  0.7273
 8120SOL     OW32211   0.272   1.609   6.018 -0.4198  0.1856 -0.5838
 8120SOL    HW232212   0.361   1.573   6.018 -0.4657  0.0203  0.7214
 8120SOL    HW332213   0.268   1.662   5.939  0.4229 -0.8024 -1.3221
 8120SOL    MW432214   0.283   1.611   6.008  0.1528 -0.1038  0.2048
 8121SOL     OW32215   2.810   1.473   1.364 -0.2829  0.6467 -0.2349
 8121SOL    HW232216   2.805   1.554   1.314 -0.5006 -1.3766 -3.8956
 8121SOL    HW332217   2.722   1.436   1.358  0.4181 -1.0320 -1.0078
 8121SOL    MW432218   2.798   1.478   1.357 -0.6249 -0.1808  0.7207
 8122SOL     OW32219   0.359   4.537   2.218  0.0144 -0.5406 -0.2452
 8122SOL    HW232220   0.267   4.561   2.216 -0.3732 -1.9892 -1.7706
 8122SOL    HW332221   0.382   4.541   2.311 -1.9987 -1.5828  0.3627
 8122SOL    MW432222   0.350   4.540   2.230  0.0042  0.4992 -0.3278
 8123SOL     OW32223   5.244   1.618   5.532 -0.4105 -0.0574  0.1580
 8123SOL    HW232224   5.280   1.682   5.594 -1.3361 -1.1534  1.9194
 8123SOL    HW332225   5.316   1.601   5.472  0.2861  1.6366  0.4370
 8123SOL    MW432226   5.259   1.624   5.533  0.2022  0.8416 -0.1534
 8124SOL     OW32227   0.530   4.567   4.432  0.1179  0.1949 -0.3735
 8124SOL    HW232228   0.601   4.509   4.460  0.1834  1.1107  1.5570
 8124SOL    HW332229   0.575   4.638   4.386  0.1600 -0.5846 -1.5763
 8124SOL    MW432230   0.546   4.569   4.430 -0.1301 -0.5010 -0.5287
 8125SOL     OW32231   2.199   2.624   3.303  0.3195 -0.2584 -0.1351
 8125SOL    HW232232   2.182   2.698   3.362 -0.2594 -0.4208 -0.0967
 8125SOL    HW332233   2.153   2.646   3.223  1.0688 -0.0616 -0.5251
 8125SOL    MW432234   2.191   2.637   3.300  0.8284 -0.0002 -0.0466
 8126SOL     OW32235   4.909   2.380   0.917 -0.0952 -0.2284  0.0758
 8126SOL    HW232236   4.994   2.423   0.912  0.4588 -0.9620  2.1887
 8126SOL    HW332237   4.909   2.319   0.843  0.5869  0.8137 -0.8086
 8126SOL    MW432238   4.920   2.377   0.906 -0.1088  0.2604 -0.7994
 8127SOL     OW32239   1.706   0.881   3.714 -0.1887  0.1125 -0.2303
 8127SOL    HW232240   1.754   0.902   3.794  0.2724  0.2231 -0.5315
 8127SOL    HW332241   1.745   0.800   3.683 -0.4868 -0.0238 -0.2524
 8127SOL    MW432242   1.717   0.873   3.721  0.6985 -0.0559 -0.1599
 8128SOL     OW32243   2.894   4.557   4.321 -0.2465  0.5313 -0.1970
 8128SOL    HW232244   2.839   4.481   4.336  0.1005  0.4655  0.7696
 8128SOL    HW332245   2.978   4.536   4.362  0.2144  1.0014 -0.8552
 8128SOL    MW432246   2.898   4.544   4.328 -0.0504 -0.6614 -0.0264
 8129SOL     OW32247   5.500   0.195   0.219  0.1402 -0.2525 -0.7694
 8129SOL    HW232248   5.575   0.199   0.161  1.1543 -0.8356  0.4474
 8129SOL    HW332249   5.494   0.103   0.245  0.0530  0.0708  0.4405
 8129SOL    MW432250   5.509   0.183   0.215 -0.5260 -0.0417  0.4035
 8130SOL     OW32251   3.670   3.599   5.010 -0.3801 -0.2943 -0.0265
 8130SOL    HW232252   3.606   3.656   5.053 -0.1153  0.4061 -0.5359
 8130SOL    HW332253   3.640   3.510   5.029 -1.0849  0.0198  0.3648
 8130SOL    MW432254   3.658   3.595   5.018 -0.0783 -0.3169 -0.2673
 8131SOL     OW32255   0.038   4.272   5.063 -0.0984  0.2418 -0.4872
 8131SOL    HW232256   0.032   4.294   5.156  2.0403 -0.1972 -0.1821
 8131SOL    HW332257   0.031   4.356   5.018 -0.5315  0.5331  0.1004
 8131SOL    MW432258   0.036   4.286   5.069 -0.2756  0.2654  0.7534
 8132SOL     OW32259   1.685   4.714   3.852 -0.8447  0.4237 -0.2783
 8132SOL    HW232260   1.693   4.622   3.876 -0.6815  1.5589  5.2023
 8132SOL    HW332261   1.771   4.752   3.868 -1.0425  1.7016 -1.9167
 8132SOL    MW432262   1.697   4.707   3.857 -0.2327 -0.2728  0.0911
 8133SOL     OW32263   0.192   1.629   5.104 -0.1181 -0.4947  0.3640
 8133SOL    HW232264   0.229   1.699   5.051 -1.0894 -1.2747 -1.4676
 8133SOL    HW332265   0.267   1.584   5.141  0.5300  1.3971  1.5063
 8133SOL    MW432266   0.207   1.632   5.102  0.0792  0.2258 -0.1731
 8134SOL     OW32267   4.259   0.816   0.817 -0.0083  0.2445  0.1052
 8134SOL    HW232268   4.247   0.746   0.881 -0.3285  0.6947  0.5444
 8134SOL    HW332269   4.179   0.867   0.822 -0.3303 -0.0990 -1.1516
 8134SOL    MW432270   4.247   0.813   0.827  1.1140 -0.2831  0.5915
 8135SOL     OW32271   6.384   0.215   6.198 -0.1515  0.8421  0.3380
 8135SOL    HW232272   6.391   0.308   6.217  3.3961  0.6806  0.3991
 8135SOL    HW332273   6.454   0.174   6.249  1.9258 -1.1179 -3.6395
 8135SOL    MW432274   6.394   0.222   6.207  0.5292 -0.3369 -0.1219
 8136SOL     OW32275   5.775   1.520   3.445 -0.3964 -0.1989 -0.2511
 8136SOL    HW232276   5.825   1.442   3.467  1.0554  1.3687  2.5280
 8136SOL    HW332277   5.725   1.540   3.524 -0.6816  1.6958 -0.8478
 8136SOL    MW432278   5.775   1.513   3.458 -0.5255 -0.0492 -0.0340
 8137SOL     OW32279   2.942   3.194   4.001 -0.0575 -0.0234  0.8114
 8137SOL    HW232280   2.912   3.261   3.940 -1.7154 -0.7825  0.7403
 8137SOL    HW332281   2.866   3.176   4.057  1.0353 -0.2511  2.2834
 8137SOL    MW432282   2.928   3.200   4.001  0.3154 -0.6539 -0.3025
 8138SOL     OW32283   4.431   0.523   2.640  0.0904  0.5290  0.4393
 8138SOL    HW232284   4.510   0.478   2.609  1.0251  2.2609  0.1986
 8138SOL    HW332285   4.432   0.607   2.595 -1.1046  1.1846  1.5785
 8138SOL    MW432286   4.442   0.528   2.630 -0.0538 -0.3184 -0.5770
 8139SOL     OW32287   2.504   0.939   4.284 -0.2781 -0.2676 -0.4018
 8139SOL    HW232288   2.595   0.907   4.285  0.2994  1.2804 -0.1055
 8139SOL    HW332289   2.507   1.019   4.230 -0.7336  1.6504  2.1996
 8139SOL    MW432290   2.517   0.946   4.277  0.0175  0.5592 -0.6737
 8140SOL     OW32291   3.226   4.929   3.436 -0.1092  0.2117 -0.3536
 8140SOL    HW232292   3.169   5.000   3.467 -1.2269  0.2726 -2.4367
 8140SOL    HW332293   3.167   4.866   3.396  0.7826 -2.3281  2.0023
 8140SOL    MW432294   3.211   4.930   3.435 -0.6447 -0.0780  0.1589
 8141SOL     OW32295   1.548   4.060   1.200  0.2473  0.8275  0.9326
 8141SOL    HW232296   1.638   4.069   1.232  1.5287 -2.7413 -1.0728
 8141SOL    HW332297   1.556   4.065   1.105 -1.7566  0.7575  0.7221
 8141SOL    MW432298   1.561   4.062   1.192  0.0995  0.5935 -0.2679
 8142SOL     OW32299   1.157   0.321   6.302  0.0339  0.4110  0.7633
 8142SOL    HW232300   1.191   0.354   6.385 -0.3549  0.2228  0.9980
 8142SOL    HW332301   1.226   0.340   6.239  1.6800 -2.0975  1.6336
 8142SOL    MW432302   1.170   0.328   6.305 -0.4504 -0.0290 -0.0720
 8143SOL     OW32303   1.278   4.938   5.605  0.2923  0.3587 -0.0571
 8143SOL    HW232304   1.301   4.846   5.621  5.1660  1.0975 -1.1180
 8143SOL    HW332305   1.199   4.953   5.657 -0.8941 -4.4192 -0.0396
 8143SOL    MW432306   1.271   4.928   5.614 -0.2179  0.6881 -0.2518
 8144SOL     OW32307   1.218   5.790   1.098 -0.0536  0.0363 -0.2757
 8144SOL    HW232308   1.219   5.880   1.130  2.5882  0.0884 -0.2554
 8144SOL    HW332309   1.223   5.737   1.178 -0.9335 -0.1116 -0.3153
 8144SOL    MW432310   1.219   5.795   1.113  0.1811 -0.1500  0.3475
 8145SOL     OW32311   3.106   3.034   6.348  0.5635  0.3020 -0.1208
 8145SOL    HW232312   3.160   3.005   6.275  0.2751 -0.5127 -0.0160
 8145SOL    HW332313   3.023   3.060   6.307  0.5436  0.2326 -0.1242
 8145SOL    MW432314   3.102   3.034   6.333 -0.2503  0.1363  0.1105
 8146SOL     OW32315   5.320   6.110   3.789  0.1287 -0.4186 -0.1922
 8146SOL    HW232316   5.388   6.062   3.741 -0.7842 -1.0809 -0.8623
 8146SOL    HW332317   5.258   6.138   3.721 -0.2193  0.2654  0.3920
 8146SOL    MW432318   5.321   6.107   3.773 -0.5565 -0.4381  0.2337
 8147SOL     OW32319   4.640   4.295   4.880 -0.3529 -0.4563 -0.5507
 8147SOL    HW232320   4.690   4.317   4.802 -0.4632 -2.2027 -1.1641
 8147SOL    HW332321   4.658   4.202   4.895 -1.1628 -0.4204  0.8894
 8147SOL    MW432322   4.649   4.285   4.872 -0.7096 -0.0584  0.0863
 8148SOL     OW32323   0.682   2.758   0.061  0.2330  0.2094  0.4808
 8148SOL    HW232324   0.713   2.745  -0.028  1.2564  0.2056  0.8305
 8148SOL    HW332325   0.714   2.845   0.086 -0.9609  0.6677  0.4771
 8148SOL    MW432326   0.690   2.768   0.053 -0.1332 -0.0197 -0.4554
 8149SOL     OW32327   3.406   1.550   0.821  0.1585 -0.3441 -0.4363
 8149SOL    HW232328   3.370   1.469   0.786  1.5240 -1.0631 -0.2309
 8149SOL    HW332329   3.329   1.600   0.848 -0.8086 -0.7660 -2.2435
 8149SOL    MW432330   3.391   1.546   0.820  0.1665 -0.5395  0.3869
 8150SOL     OW32331   5.397   1.985   3.950  0.1887  0.3904 -0.1289
 8150SOL    HW232332   5.458   2.026   3.889 -0.2950  0.6671 -0.4359
 8150SOL    HW332333   5.357   1.914   3.900 -0.6987  1.0333 -0.3730
 8150SOL    MW432334   5.399   1.981   3.935 -1.0912  0.1233  0.1713
 8151SOL     OW32335   3.236   4.227   2.974  0.2023 -0.1139  0.2661
 8151SOL    HW232336   3.151   4.247   2.935  0.4754  2.7466  0.9729
 8151SOL    HW332337   3.247   4.290   3.045  2.3563 -1.2844  1.1007
 8151SOL    MW432338   3.226   4.238   2.978  0.1320 -0.3092  0.2557
 8152SOL     OW32339   5.004   6.208   6.262  0.1912  0.4876 -0.2157
 8152SOL    HW232340   4.928   6.263   6.278  0.2597  0.3819  0.5110
 8152SOL    HW332341   5.000   6.188   6.169  0.5178  2.2409 -0.6464
 8152SOL    MW432342   4.993   6.213   6.252  0.1799 -1.0004  0.1747
 8153SOL     OW32343   5.877   6.424   3.360  0.1191 -0.2662  0.4278
 8153SOL    HW232344   5.855   6.335   3.333  0.8882 -0.2520 -0.2957
 8153SOL    HW332345   5.955   6.447   3.308  1.7815 -0.2696  2.7504
 8153SOL    MW432346   5.885   6.416   3.349 -0.0986 -0.6055  0.0224
 8154SOL     OW32347   1.620   1.275   5.729  0.1299 -0.4854  1.0365
 8154SOL    HW232348   1.640   1.344   5.792 -0.8279 -0.7037  1.5947
 8154SOL    HW332349   1.603   1.321   5.647 -0.1059 -0.0855  1.3069
 8154SOL    MW432350   1.620   1.290   5.727 -0.1846 -0.1122 -0.0938
 8155SOL     OW32351   5.958   3.686   5.898 -0.3959 -0.0716  0.5123
 8155SOL    HW232352   6.019   3.650   5.833  0.5131 -1.0414  1.8537
 8155SOL    HW332353   6.012   3.743   5.952 -0.5847 -1.1631  1.8891
 8155SOL    MW432354   5.973   3.689   5.896  0.7736  0.1239  0.2679
 8156SOL     OW32355   4.528   3.451   4.023  0.0560 -0.6100  0.1171
 8156SOL    HW232356   4.544   3.404   3.941 -1.1222 -0.3584 -0.2593
 8156SOL    HW332357   4.492   3.384   4.081 -1.0394 -0.3319 -0.2249
 8156SOL    MW432358   4.526   3.436   4.020 -0.0948  0.0708  0.2582
 8157SOL     OW32359   1.197   1.791   5.626 -0.2525 -0.2135 -0.0746
 8157SOL    HW232360   1.132   1.756   5.565  0.8939  0.0646 -1.5025
 8157SOL    HW332361   1.252   1.848   5.572  0.2476  0.7783  1.4175
 8157SOL    MW432362   1.196   1.794   5.610  0.2521 -0.3801  0.0882
 8158SOL     OW32363   0.588   5.540   1.844 -0.3909  0.1285  0.4598
 8158SOL    HW232364   0.582   5.499   1.930 -0.3760  1.5199  1.1549
 8158SOL    HW332365   0.650   5.612   1.857 -0.4312  0.3855 -0.7108
 8158SOL    MW432366   0.595   5.544   1.857  0.5296 -0.2576  0.2439
 8159SOL     OW32367   0.652   1.046   3.931  0.1348  0.1476 -0.3216
 8159SOL    HW232368   0.623   1.100   3.858  0.8193 -0.6541 -1.2215
 8159SOL    HW332369   0.724   1.095   3.971  0.9428 -0.2095 -1.3092
 8159SOL    MW432370   0.658   1.059   3.927  0.4873  0.1541  1.0852
 8160SOL     OW32371   1.323   6.218   5.981 -0.2531  0.7011  0.1913
 8160SOL    HW232372   1.400   6.162   5.967 -0.1364  0.6198  1.0905
 8160SOL    HW332373   1.350   6.304   5.948 -0.9508 -0.0653 -2.6093
 8160SOL    MW432374   1.337   6.222   5.975  0.2021 -0.3239  0.0842
 8161SOL     OW32375   1.387   0.069   5.280 -0.0571 -0.1805  0.0758
 8161SOL    HW232376   1.371  -0.025   5.277  0.8041 -0.3430  0.4823
 8161SOL    HW332377   1.471   0.081   5.236  0.5846  0.2149  1.3530
 8161SOL    MW432378   1.396   0.058   5.274  0.0450  0.1054  0.4383
 8162SOL     OW32379   4.086   0.101   2.278  0.4891  0.7848  0.3238
 8162SOL    HW232380   4.092   0.033   2.212  3.3666  0.4520  0.8305
 8162SOL    HW332381   4.087   0.183   2.229 -0.6066  0.5322 -0.1563
 8162SOL    MW432382   4.087   0.103   2.263  0.4365  0.1256  0.2485
 8163SOL     OW32383   2.681   5.775   3.832 -0.1179 -0.4323 -0.1603
 8163SOL    HW232384   2.745   5.812   3.893 -0.4219 -0.2286  0.0353
 8163SOL    HW332385   2.702   5.681   3.829 -0.0199 -0.4198  0.1570
 8163SOL    MW432386   2.692   5.767   3.839  0.5502  0.3691  0.4584
 8164SOL     OW32387   1.327   5.794   5.222 -0.1807  0.0775  0.1229
 8164SOL    HW232388   1.240   5.755   5.219  0.2724 -1.1360  1.5486
 8164SOL    HW332389   1.359   5.774   5.310  1.4324  0.7361 -0.2855
 8164SOL    MW432390   1.320   5.786   5.233  0.1454  0.2342 -0.0586
 8165SOL     OW32391   4.360   5.702   4.706  0.0360 -0.3170  0.3582
 8165SOL    HW232392   4.288   5.761   4.729  0.5856  0.7106 -0.4812
 8165SOL    HW332393   4.321   5.614   4.711 -1.0865  0.1759  0.5875
 8165SOL    MW432394   4.345   5.698   4.709  0.0862  0.1358  0.0625
 8166SOL     OW32395   0.503   6.423   3.680  0.2405  0.3895  0.2691
 8166SOL    HW232396   0.519   6.517   3.689  0.4628  0.2214  1.7360
 8166SOL    HW332397   0.468   6.395   3.764 -1.3017 -0.5762 -0.6375
 8166SOL    MW432398   0.500   6.431   3.692  0.3864  0.7075  0.2057
 8167SOL     OW32399   5.751   5.633   5.177 -0.0963 -0.3443  0.2485
 8167SOL    HW232400   5.758   5.715   5.226 -0.0377  1.5864 -2.7246
 8167SOL    HW332401   5.839   5.597   5.178 -0.0728 -0.2875  1.4232
 8167SOL    MW432402   5.763   5.639   5.183  0.2097  0.2172 -0.1802
 8168SOL     OW32403   0.488   2.109   4.853 -0.6146  0.1715 -0.2358
 8168SOL    HW232404   0.508   2.018   4.874 -0.9781 -0.1563 -1.2091
 8168SOL    HW332405   0.570   2.144   4.817 -0.2202  0.5022  0.9564
 8168SOL    MW432406   0.502   2.102   4.851 -0.9094 -0.5494  0.1595
 8169SOL     OW32407   2.709   4.039   5.698  0.7247  0.4125  0.8390
 8169SOL    HW232408   2.629   3.991   5.677  0.9348  0.8399 -1.1354
 8169SOL    HW332409   2.692   4.128   5.669  1.8277  0.5687  0.6209
 8169SOL    MW432410   2.696   4.044   5.692  0.0943 -0.2241 -0.3098
 8170SOL     OW32411   0.272   5.798   1.057 -0.1405 -0.0545  0.1543
 8170SOL    HW232412   0.353   5.837   1.090 -0.6533  1.2287 -0.0660
 8170SOL    HW332413   0.276   5.707   1.087 -0.0936  0.7641  2.8287
 8170SOL    MW432414   0.284   5.791   1.065  0.0053  0.0214 -0.4137
 8171SOL     OW32415   0.907   3.473   4.240 -0.0600 -0.4993  0.4645
 8171SOL    HW232416   0.823   3.517   4.224 -0.3195 -0.9647  0.5503
 8171SOL    HW332417   0.895   3.385   4.206  1.6623  0.4628 -3.2162
 8171SOL    MW432418   0.894   3.467   4.233  1.3569 -0.1962  0.0515
 8172SOL     OW32419   3.650   5.192   1.300  0.1182  0.5666  0.0890
 8172SOL    HW232420   3.696   5.170   1.381  0.9347  2.4894  0.2013
 8172SOL    HW332421   3.570   5.235   1.329 -0.3649 -0.1567 -0.1375
 8172SOL    MW432422   3.646   5.195   1.314 -0.6897 -0.6438  0.6154
 8173SOL     OW32423   5.672   5.219   2.566  0.0905  0.3938  0.2647
 8173SOL    HW232424   5.602   5.239   2.504 -0.5559  0.4238  0.9851
 8173SOL    HW332425   5.752   5.245   2.521 -0.4744  1.6679 -0.0590
 8173SOL    MW432426   5.673   5.225   2.552 -0.3247  0.1610  0.6243
 8174SOL     OW32427   3.358   2.820   0.088 -0.7439 -0.0735 -0.4803
 8174SOL    HW232428   3.388   2.911   0.089 -1.0546  0.0289  0.1673
 8174SOL    HW332429   3.434   2.769   0.115 -0.7065  0.0412 -0.3692
 8174SOL    MW432430   3.372   2.826   0.092  0.4860 -0.3040 -0.4203
 8175SOL     OW32431   5.828   1.684   6.275 -0.6200 -0.0669  0.6119
 8175SOL    HW232432   5.837   1.589   6.263  0.5845  0.0899  0.0911
 8175SOL    HW332433   5.879   1.721   6.203 -1.9376  0.9907  0.2024
 8175SOL    MW432434   5.836   1.676   6.264  0.2499  0.2338  0.2155
 8176SOL     OW32435   2.419   5.665   3.786  0.3072 -0.4565 -0.0302
 8176SOL    HW232436   2.369   5.715   3.721  0.7847 -0.6715 -0.5746
 8176SOL    HW332437   2.498   5.717   3.799  1.1612 -1.4082 -1.1604
 8176SOL    MW432438   2.423   5.679   3.779  0.1922  0.5109  0.5308
 8177SOL     OW32439   4.060   4.066   2.435  0.2695 -0.1539 -0.5177
 8177SOL    HW232440   4.076   4.116   2.355  0.0729 -0.0892 -0.5178
 8177SOL    HW332441   4.127   4.096   2.496 -1.2633  1.8833  0.2933
 8177SOL    MW432442   4.071   4.077   2.432  0.0265  0.2211  0.3054
 8178SOL     OW32443   3.214   3.696   1.858  0.1114  0.0328 -0.4168
 8178SOL    HW232444   3.149   3.742   1.804  0.3122  1.2080  0.3152
 8178SOL    HW332445   3.247   3.762   1.918  0.9396 -0.9090  0.2021
 8178SOL    MW432446   3.210   3.711   1.859 -0.5559  0.4736 -0.2824
 8179SOL     OW32447   4.047   2.694   3.486  0.4542 -0.1452  0.3174
 8179SOL    HW232448   4.130   2.692   3.533  0.7032 -3.1411 -0.0598
 8179SOL    HW332449   4.063   2.644   3.406 -0.9648  1.7102 -1.2057
 8179SOL    MW432450   4.060   2.687   3.482 -0.7030 -0.3539 -0.2232
 8180SOL     OW32451   4.953   0.134   5.741 -0.1451 -0.1526 -0.0858
 8180SOL    HW232452   5.024   0.145   5.805  0.3661 -0.3264 -0.6176
 8180SOL    HW332453   4.926   0.043   5.749 -0.8120  0.0915  0.6232
 8180SOL    MW432454   4.959   0.124   5.750  0.0214 -0.2656  0.0180
 8181SOL     OW32455   2.364   5.329   4.097 -0.1552  0.3782 -0.2047
 8181SOL    HW232456   2.310   5.384   4.155  0.1363  0.6901 -0.2282
 8181SOL    HW332457   2.404   5.265   4.156  1.4902  1.7422  0.2196
 8181SOL    MW432458   2.362   5.328   4.112  0.5645 -0.1966 -0.1562
 8182SOL     OW32459   1.841   0.493   0.194  0.0720  0.4826  0.0345
 8182SOL    HW232460   1.846   0.584   0.225 -1.3071  0.6399 -0.1385
 8182SOL    HW332461   1.783   0.449   0.257 -2.1494  0.6251 -1.7845
 8182SOL    MW432462   1.834   0.499   0.206 -0.2096  0.3968  0.0110
 8183SOL     OW32463   2.283   5.408   1.444  0.0136  0.5693  0.4765
 8183SOL    HW232464   2.301   5.347   1.372  0.6136 -0.6843  1.6539
 8183SOL    HW332465   2.194   5.440   1.426 -1.0059 -1.9143  0.6560
 8183SOL    MW432466   2.273   5.404   1.432 -0.3460 -1.4040  1.4529
 8184SOL     OW32467   4.056   0.410   1.482 -0.2432 -0.1069  0.0835
 8184SOL    HW232468   4.131   0.400   1.541  0.7361 -0.2947 -1.1489
 8184SOL    HW332469   4.082   0.481   1.423 -2.0982  1.5699  1.1723
 8184SOL    MW432470   4.070   0.418   1.482 -0.2568  0.4050 -0.0178
 8185SOL     OW32471   4.370   2.095   5.200  0.0110 -0.1177 -0.4798
 8185SOL    HW232472   4.383   2.001   5.185  1.0885  0.4231 -3.8006
 8185SOL    HW332473   4.278   2.103   5.223 -0.0183 -1.9992  0.2565
 8185SOL    MW432474   4.360   2.083   5.201 -0.0338  0.1124  0.0699
 8186SOL     OW32475   2.108   3.591   6.397 -0.2451 -0.0535  0.0520
 8186SOL    HW232476   2.177   3.611   6.461 -0.6382  0.0598  0.4441
 8186SOL    HW332477   2.128   3.646   6.322  1.4410 -1.6922 -0.7922
 8186SOL    MW432478   2.120   3.601   6.396  0.1777 -0.1172  0.0858
 8187SOL     OW32479   3.057   0.868   1.329  0.4664 -0.8609  0.4031
 8187SOL    HW232480   3.145   0.852   1.297  0.7736 -0.9346  1.2451
 8187SOL    HW332481   3.069   0.883   1.423  0.0950  2.9071  0.0072
 8187SOL    MW432482   3.070   0.868   1.337 -0.5674  0.3869  0.5167
 8188SOL     OW32483   4.023   4.819   1.829  0.0032 -0.1945 -0.2402
 8188SOL    HW232484   4.004   4.754   1.896 -2.0936  1.3960  0.8390
 8188SOL    HW332485   4.118   4.825   1.826  0.1776 -1.7655  1.1264
 8188SOL    MW432486   4.033   4.811   1.837 -0.2505 -0.0001 -0.2525
 8189SOL     OW32487   2.024   5.283   0.759  0.0946  0.3371  0.0817
 8189SOL    HW232488   2.044   5.257   0.669  0.8752  0.0090  0.3420
 8189SOL    HW332489   1.982   5.207   0.797  0.2442  0.2883  0.1493
 8189SOL    MW432490   2.021   5.270   0.752  0.1330  0.4917  0.4431
 8190SOL     OW32491   4.982   6.122   1.990 -0.4184  0.6978  0.1810
 8190SOL    HW232492   4.950   6.181   2.059 -1.9936  0.8470 -0.6347
 8190SOL    HW332493   4.903   6.079   1.957  0.6670 -1.7112  0.5688
 8190SOL    MW432494   4.967   6.124   1.995 -0.7704 -0.3843 -0.1285
 8191SOL     OW32495   4.880   1.327   4.857 -0.1524  0.0560 -0.5261
 8191SOL    HW232496   4.830   1.408   4.852  0.4873  0.4286 -1.1888
 8191SOL    HW332497   4.883   1.306   4.950  0.1167  1.0824 -0.2931
 8191SOL    MW432498   4.874   1.335   4.868 -0.2240  0.4010  0.0368
 8192SOL     OW32499   1.467   4.657   0.181  0.1173 -0.1159  0.2708
 8192SOL    HW232500   1.435   4.572   0.150  1.1297 -0.4592  0.1180
 8192SOL    HW332501   1.548   4.636   0.228 -0.5175  0.5771  1.7495
 8192SOL    MW432502   1.474   4.643   0.183  0.0473  0.6385 -0.0430
 8193SOL     OW32503   3.182   1.199   6.085  0.3121  0.4376  0.1905
 8193SOL    HW232504   3.138   1.223   6.003  1.1052 -0.0952 -0.3975
 8193SOL    HW332505   3.116   1.218   6.153 -1.5070 -1.8767 -0.7787
 8193SOL    MW432506   3.167   1.205   6.083 -0.3637 -0.2809 -0.5889
 8194SOL     OW32507   2.891   1.531   4.257 -0.6516  0.2318 -0.0151
 8194SOL    HW232508   2.944   1.608   4.237  0.5842 -1.0886 -2.1712
 8194SOL    HW332509   2.943   1.482   4.320 -0.7871  0.4496  0.2707
 8194SOL    MW432510   2.905   1.535   4.262  0.4681 -0.6418 -0.5186
 8195SOL     OW32511   2.935   2.056   2.734 -0.0402  0.1705 -0.0761
 8195SOL    HW232512   2.847   2.090   2.750 -0.1789  0.2531 -0.9565
 8195SOL    HW332513   2.937   2.039   2.640  0.9085  0.2304 -0.0733
 8195SOL    MW432514   2.924   2.058   2.724  0.4899 -0.1671 -0.0680
 8196SOL     OW32515   1.904   4.441   2.480  0.2912  0.1306  0.1896
 8196SOL    HW232516   1.959   4.391   2.420 -0.5924 -2.1959  1.1888
 8196SOL    HW332517   1.898   4.528   2.441  2.6573 -0.2468 -1.1702
 8196SOL    MW432518   1.910   4.446   2.467  0.0388  0.0193  0.4627
 8197SOL     OW32519   3.304   1.201   2.362 -0.0641  0.2929 -0.2688
 8197SOL    HW232520   3.225   1.157   2.392 -0.6050  0.3630 -1.5559
 8197SOL    HW332521   3.282   1.294   2.366  0.4375  0.3889  0.6570
 8197SOL    MW432522   3.291   1.208   2.367  0.5045  0.3628 -0.6571
 8198SOL     OW32523   0.497   3.373   3.213 -0.5009  0.7239 -0.6876
 8198SOL    HW232524   0.468   3.348   3.125 -0.3708 -0.2500 -0.4619
 8198SOL    HW332525   0.417   3.375   3.265 -0.4030 -0.1872 -0.4857
 8198SOL    MW432526   0.483   3.370   3.208  0.1288  0.3784  0.2450
 8199SOL     OW32527   5.326   1.811   2.881  0.0276  0.4544 -0.5257
 8199SOL    HW232528   5.307   1.718   2.893 -2.1670  0.6636 -1.7530
 8199SOL    HW332529   5.420   1.819   2.897  0.1110 -1.7933  0.5038
 8199SOL    MW432530   5.336   1.800   2.885  0.2006  0.3219 -0.2114
 8200SOL     OW32531   2.508   4.473   4.374  0.0115  0.2369 -0.4325
 8200SOL    HW232532   2.466   4.436   4.452  0.6081  0.5068  0.0267
 8200SOL    HW332533   2.596   4.434   4.374  0.4592  1.1955 -0.2520
 8200SOL    MW432534   2.514   4.463   4.384  0.1269  0.0367  0.6567
 8201SOL     OW32535   3.142   0.348   0.794  0.1596  0.1895 -0.2339
 8201SOL    HW232536   3.136   0.271   0.737 -1.2380  1.3272 -1.7329
 8201SOL    HW332537   3.149   0.422   0.734 -0.5268  1.3942  1.0929
 8201SOL    MW432538   3.142   0.348   0.779 -0.0323  0.2197  0.3120
 8202SOL     OW32539   2.379   0.150   0.061  0.1598  0.0921 -0.1301
 8202SOL    HW232540   2.445   0.083   0.082 -0.2225 -0.1358  0.3490
 8202SOL    HW332541   2.406   0.226   0.112  0.6999  0.3742 -0.8158
 8202SOL    MW432542   2.392   0.151   0.070 -0.2161 -0.0171  0.7423
 8203SOL     OW32543   2.273   4.690   2.010  0.3137  0.0847  0.5846
 8203SOL    HW232544   2.190   4.693   2.057 -0.7692  0.1183 -1.2130
 8203SOL    HW332545   2.248   4.689   1.917  2.1467 -3.7041 -0.0931
 8203SOL    MW432546   2.259   4.690   2.004 -0.1104 -0.1412 -0.2728
 8204SOL     OW32547   2.167   1.497   1.110  0.3358  0.2137 -0.1114
 8204SOL    HW232548   2.224   1.561   1.153  2.0682 -0.1010 -1.8051
 8204SOL    HW332549   2.093   1.549   1.078 -2.2540  0.2045  4.8530
 8204SOL    MW432550   2.165   1.513   1.111  0.5216  0.4016 -0.5513
 8205SOL     OW32551   6.185   3.662   4.428 -0.2736  0.1712  0.1575
 8205SOL    HW232552   6.252   3.630   4.368 -0.8876  0.6222 -0.7847
 8205SOL    HW332553   6.233   3.719   4.489 -0.0413  2.1004 -1.6986
 8205SOL    MW432554   6.200   3.666   4.428  0.8351 -0.5981 -0.4642
 8206SOL     OW32555   3.026   0.090   0.418  0.0814 -0.1528 -0.7165
 8206SOL    HW232556   3.080   0.032   0.365  0.0038 -0.5290 -0.3966
 8206SOL    HW332557   2.948   0.105   0.366  0.7974  0.9880 -1.4952
 8206SOL    MW432558   3.023   0.084   0.404 -0.3253 -0.4524  0.0931
 8207SOL     OW32559   5.950   4.019   1.282  0.1200 -0.5224  0.0919
 8207SOL    HW232560   5.984   3.949   1.338  1.9681 -0.7334 -1.2046
 8207SOL    HW332561   6.002   4.096   1.306 -1.1623  0.1687  0.7455
 8207SOL    MW432562   5.962   4.020   1.293  0.2759 -0.2591  0.3358
 8208SOL     OW32563   5.562   4.424   0.891  0.0018  0.1835  0.1519
 8208SOL    HW232564   5.622   4.352   0.875 -0.2713 -0.1352  0.5455
 8208SOL    HW332565   5.587   4.458   0.977  0.7644  1.1988 -0.4397
 8208SOL    MW432566   5.573   4.419   0.900  0.0357 -0.2483  0.2352
 8209SOL     OW32567   6.324   2.365   5.919 -0.5379 -0.7218  0.1545
 8209SOL    HW232568   6.260   2.297   5.941 -0.6557 -0.4759  0.5802
 8209SOL    HW332569   6.409   2.322   5.930 -0.6211 -0.9275 -0.0034
 8209SOL    MW432570   6.327   2.350   5.923 -0.1860 -0.0571 -0.7172
 8210SOL     OW32571   4.343   0.980   1.955  0.6179 -0.0427  0.2577
 8210SOL    HW232572   4.269   0.921   1.938  0.6550 -0.1694  0.5374
 8210SOL    HW332573   4.380   0.997   1.868 -0.4394  0.9513 -0.0289
 8210SOL    MW432574   4.338   0.975   1.941  0.8142  0.1505 -0.4929
 8211SOL     OW32575   2.063   2.720   3.076  0.2219 -0.4504 -0.3149
 8211SOL    HW232576   2.038   2.798   3.027  1.7379  0.0542 -0.3377
 8211SOL    HW332577   2.077   2.653   3.010  0.0723 -0.4117 -0.3860
 8211SOL    MW432578   2.061   2.721   3.061  0.1765  0.0536 -0.0355
 8212SOL     OW32579   4.690   4.746   1.050 -0.3420  0.1201 -0.1955
 8212SOL    HW232580   4.759   4.686   1.078  0.3436  0.7063 -0.5722
 8212SOL    HW332581   4.677   4.726   0.957 -0.9438 -0.2369 -0.0366
 8212SOL    MW432582   4.698   4.735   1.041 -0.1776  0.0080 -0.3461
 8213SOL     OW32583   5.867   2.201   0.255  0.0541  0.7003 -0.1340
 8213SOL    HW232584   5.783   2.162   0.228 -0.2475  1.4584 -0.3107
 8213SOL    HW332585   5.883   2.165   0.342 -0.5566  0.6950 -0.0177
 8213SOL    MW432586   5.858   2.191   0.263  0.0183 -0.1917 -0.7239
 8214SOL     OW32587   4.553   6.196   1.124  0.2676  0.5896  1.0716
 8214SOL    HW232588   4.575   6.140   1.049  1.1967  1.5379  0.6085
 8214SOL    HW332589   4.494   6.143   1.177  1.3788 -0.9758  0.8318
 8214SOL    MW432590   4.548   6.181   1.121 -0.0636  0.3967 -0.0689
 8215SOL     OW32591   0.472   4.850   1.323 -0.6476 -0.3863  0.6643
 8215SOL    HW232592   0.511   4.816   1.404  1.0474 -3.2204 -1.1706
 8215SOL    HW332593   0.542   4.843   1.258 -2.3478  0.5202 -1.3801
 8215SOL    MW432594   0.486   4.845   1.325  0.2526  0.0306  0.2715
 8216SOL     OW32595   3.949   1.904   5.200 -0.3470 -0.3851  0.1906
 8216SOL    HW232596   3.869   1.902   5.149 -0.3075  4.0061 -0.5124
 8216SOL    HW332597   4.017   1.872   5.141 -1.1399 -1.0663 -0.3553
 8216SOL    MW432598   3.948   1.900   5.186  0.2821  0.1966 -0.8120
 8217SOL     OW32599   1.289   2.674   5.866 -0.1262  0.0302  0.0456
 8217SOL    HW232600   1.311   2.582   5.878 -0.0277  0.0332 -0.1203
 8217SOL    HW332601   1.372   2.720   5.875  0.1104 -0.0414 -1.5440
 8217SOL    MW432602   1.303   2.668   5.869 -0.1386 -0.1160  0.2831
 8218SOL     OW32603   3.720   1.951   1.327  0.4642  0.3488  0.7678
 8218SOL    HW232604   3.650   2.015   1.340 -0.4796  0.3477 -3.0312
 8218SOL    HW332605   3.680   1.884   1.272  2.9609 -0.6336  0.0495
 8218SOL    MW432606   3.705   1.951   1.322 -0.2963  0.5451 -0.3223
 8219SOL     OW32607   6.148   1.034   4.340  0.2468  0.0009  0.0120
 8219SOL    HW232608   6.103   1.055   4.258  2.3499  0.2235 -1.1491
 8219SOL    HW332609   6.199   0.955   4.319 -0.9335 -1.3249  1.8209
 8219SOL    MW432610   6.148   1.026   4.326 -0.5548  0.2510  0.0991
 8220SOL     OW32611   2.190   5.368   5.149 -0.0700 -0.3429  0.9083
 8220SOL    HW232612   2.261   5.322   5.193  1.0139  0.2477 -0.1693
 8220SOL    HW332613   2.171   5.443   5.206  2.2025  1.1544 -0.1673
 8220SOL    MW432614   2.197   5.372   5.162 -0.1814 -0.3710  0.5007
 8221SOL     OW32615   0.064   2.870   4.620  0.5935 -0.5263 -0.2649
 8221SOL    HW232616  -0.032   2.863   4.625  0.5462 -0.4094 -1.0224
 8221SOL    HW332617   0.095   2.819   4.696 -0.0593 -0.6709 -0.0865
 8221SOL    MW432618   0.055   2.862   4.631 -0.4376 -1.0070  0.2694
 8222SOL     OW32619   5.889   4.937   1.653  0.4253  0.2377  0.4986
 8222SOL    HW232620   5.833   4.860   1.658 -0.7837  1.1227  1.2454
 8222SOL    HW332621   5.858   4.984   1.575  0.5695  0.4080  0.5415
 8222SOL    MW432622   5.878   4.933   1.643  0.3182 -0.1030 -0.1491
 8223SOL     OW32623   1.528   4.658   1.091 -0.2251  0.5640 -0.1213
 8223SOL    HW232624   1.549   4.565   1.096 -2.3356  0.0793  1.0019
 8223SOL    HW332625   1.577   4.690   1.015  1.9520 -1.0242  0.5001
 8223SOL    MW432626   1.537   4.650   1.082 -0.2657 -0.0249 -0.2818
 8224SOL     OW32627   0.208   1.575   0.316  0.0237 -0.2222 -0.0203
 8224SOL    HW232628   0.210   1.655   0.369 -0.0150 -0.6489  0.6481
 8224SOL    HW332629   0.114   1.553   0.310  0.1149 -1.1336  1.2603
 8224SOL    MW432630   0.196   1.582   0.322 -0.0023  0.0526 -0.0564
 8225SOL     OW32631   4.189   3.111   0.592 -0.0893  0.3914 -1.1899
 8225SOL    HW232632   4.227   3.140   0.509 -0.5463 -0.4547 -1.7084
 8225SOL    HW332633   4.098   3.094   0.571 -0.4810  1.2466 -0.2348
 8225SOL    MW432634   4.182   3.113   0.578 -0.5842  0.0917  0.1537
 8226SOL     OW32635   4.449   5.166   1.423 -0.0916  0.8178  0.0874
 8226SOL    HW232636   4.460   5.095   1.360 -0.4849 -0.8934  1.8584
 8226SOL    HW332637   4.535   5.176   1.464  0.2477  2.1382 -0.8679
 8226SOL    MW432638   4.462   5.158   1.421 -0.2360 -0.2361  0.1330
 8227SOL     OW32639   0.312   0.796   2.223 -0.3136  0.0839 -0.0911
 8227SOL    HW232640   0.314   0.764   2.313 -0.9834  1.1183  0.3137
 8227SOL    HW332641   0.219   0.801   2.201 -0.3625  2.7781  0.3017
 8227SOL    MW432642   0.300   0.793   2.232 -0.3075 -0.2766 -0.9627
 8228SOL     OW32643   4.717   0.451   3.568  0.0075 -0.0688  0.2441
 8228SOL    HW232644   4.767   0.530   3.592 -0.5238  0.7296 -1.1416
 8228SOL    HW332645   4.631   0.465   3.606  0.6838 -1.3186  2.3939
 8228SOL    MW432646   4.713   0.463   3.576 -0.3376 -0.2631  0.3069
 8229SOL     OW32647   0.385   1.807   4.309 -0.2291 -0.4316 -0.4890
 8229SOL    HW232648   0.412   1.883   4.360  0.1637 -0.4441 -0.6794
 8229SOL    HW332649   0.358   1.843   4.224 -1.4631 -0.3411 -0.0777
 8229SOL    MW432650   0.385   1.822   4.304 -0.3830  0.1143 -0.3587
 8230SOL     OW32651   6.157   4.420   3.081  0.0737  0.2277 -0.2318
 8230SOL    HW232652   6.182   4.472   3.157 -0.0456  1.3672 -0.9561
 8230SOL    HW332653   6.142   4.484   3.012 -1.8312 -0.6199 -0.6754
 8230SOL    MW432654   6.158   4.435   3.082  0.9991  0.6483 -0.8498
 8231SOL     OW32655   2.449   4.021   1.143  0.0626  0.5346 -0.1550
 8231SOL    HW232656   2.487   3.935   1.123 -1.3948 -0.2376  0.2239
 8231SOL    HW332657   2.456   4.070   1.061 -0.6572 -0.5764 -0.9170
 8231SOL    MW432658   2.454   4.016   1.130  0.0851 -0.1762  0.2433
 8232SOL     OW32659   0.771   2.567   0.247 -0.5536  0.1321 -0.3714
 8232SOL    HW232660   0.778   2.592   0.339 -0.1849 -0.7361 -0.1493
 8232SOL    HW332661   0.745   2.647   0.202  1.3158  1.1137  0.1864
 8232SOL    MW432662   0.768   2.581   0.253  0.3617 -0.0573 -0.0996
 8233SOL     OW32663   3.544   4.979   2.818 -0.2709 -0.1175 -0.3679
 8233SOL    HW232664   3.505   5.029   2.890 -0.0536  3.8595 -2.7004
 8233SOL    HW332665   3.621   4.937   2.857 -1.7523 -0.5783  2.2922
 8233SOL    MW432666   3.549   4.980   2.833 -0.0847  0.3534 -0.1007
 8234SOL     OW32667   2.545   2.583   1.866 -0.4993 -0.5700 -0.1369
 8234SOL    HW232668   2.501   2.599   1.783  0.1141 -0.9573 -0.5387
 8234SOL    HW332669   2.473   2.568   1.928 -0.9516 -0.5251 -0.6420
 8234SOL    MW432670   2.529   2.583   1.863  1.5530  0.0265 -0.1306
 8235SOL     OW32671   0.685   0.583   5.426 -0.1631 -0.0232 -0.2747
 8235SOL    HW232672   0.731   0.597   5.343 -0.7459 -0.4785 -0.6834
 8235SOL    HW332673   0.669   0.489   5.429 -1.2297  0.1504 -0.2330
 8235SOL    MW432674   0.689   0.573   5.415 -0.1705  0.0998  0.1116
 8236SOL     OW32675   5.823   5.775   1.913  0.0185  0.3169  0.8316
 8236SOL    HW232676   5.856   5.691   1.882  0.9804  0.9779  0.0277
 8236SOL    HW332677   5.826   5.768   2.009  0.1234 -0.5416  0.7762
 8236SOL    MW432678   5.827   5.763   1.922  0.6206 -0.0541  0.3703
 8237SOL     OW32679   1.253   6.143   0.028  0.3211 -0.0651 -0.0636
 8237SOL    HW232680   1.241   6.170   0.119 -1.3099 -1.5662  0.2298
 8237SOL    HW332681   1.165   6.119  -0.002  1.2702 -3.1448 -0.7989
 8237SOL    MW432682   1.240   6.143   0.036 -0.2621  0.2358 -0.0585
 8238SOL     OW32683   2.607   1.898   3.668  0.3476  0.0759  0.0399
 8238SOL    HW232684   2.649   1.854   3.593 -0.4205 -1.9540  0.7152
 8238SOL    HW332685   2.659   1.976   3.682  1.4691 -0.3031 -1.6303
 8238SOL    MW432686   2.619   1.902   3.660 -0.2130 -0.6853  0.1881
 8239SOL     OW32687   4.358   5.174   5.435 -0.2283 -0.0893  0.2936
 8239SOL    HW232688   4.313   5.229   5.372  1.1453 -0.7529 -1.3339
 8239SOL    HW332689   4.450   5.197   5.426  0.2828 -1.9791  0.2010
 8239SOL    MW432690   4.364   5.184   5.426 -0.3242  0.1122 -0.2021
 8240SOL     OW32691   3.152   0.436   5.824  0.1615  0.1368  0.4033
 8240SOL    HW232692   3.141   0.461   5.916 -0.0334  0.5328  0.2741
 8240SOL    HW332693   3.246   0.420   5.815  0.0025 -1.2261  0.9993
 8240SOL    MW432694   3.163   0.437   5.835  0.6008  0.3906  0.1726
 8241SOL     OW32695   1.582   3.021   3.471  0.7335 -0.0634  0.4507
 8241SOL    HW232696   1.675   2.998   3.461  0.3162 -1.5711 -0.2863
 8241SOL    HW332697   1.578   3.114   3.451  1.8207 -0.3709 -1.3921
 8241SOL    MW432698   1.594   3.030   3.467  0.1308 -0.6528 -0.5597
 8242SOL     OW32699   2.917   1.519   3.443  0.0026  0.1312 -0.2410
 8242SOL    HW232700   2.827   1.550   3.452 -0.1933 -0.8153  1.4880
 8242SOL    HW332701   2.966   1.569   3.508  0.5992  0.1234 -0.6773
 8242SOL    MW432702   2.911   1.530   3.452 -0.3576 -0.2522  0.1568
 8243SOL     OW32703   3.539   0.718   1.278 -0.2169  0.0288 -0.3374
 8243SOL    HW232704   3.561   0.637   1.234 -0.7838 -0.6144  0.5359
 8243SOL    HW332705   3.520   0.693   1.368 -1.3814  0.9770 -0.2854
 8243SOL    MW432706   3.539   0.704   1.284  0.1201  0.3778 -0.1854
 8244SOL     OW32707   2.803   3.601   5.417 -0.3206  0.1792 -0.5202
 8244SOL    HW232708   2.715   3.622   5.448 -0.4788  0.1767 -0.9547
 8244SOL    HW332709   2.862   3.646   5.478 -0.6292  0.4678 -0.4327
 8244SOL    MW432710   2.799   3.610   5.429  0.4316 -0.6126 -0.0738
 8245SOL     OW32711   5.463   4.803   6.318 -0.0754 -0.6939 -0.5048
 8245SOL    HW232712   5.491   4.872   6.256  0.1498 -0.3613 -0.0385
 8245SOL    HW332713   5.403   4.847   6.377  0.9348 -0.6127  0.4896
 8245SOL    MW432714   5.459   4.818   6.317  0.4437 -0.3587 -0.2943
 8246SOL     OW32715   5.871   2.965   3.262 -0.1177 -0.1692 -0.1239
 8246SOL    HW232716   5.862   2.879   3.221 -0.3752 -0.1788 -0.0495
 8246SOL    HW332717   5.790   2.977   3.311 -0.9894  0.9905 -1.7455
 8246SOL    MW432718   5.859   2.955   3.263 -0.4423  0.3776  0.6346
 8247SOL     OW32719   5.722   4.987   3.077 -0.1318 -0.1509  1.0861
 8247SOL    HW232720   5.725   4.987   2.982  0.3243 -1.0094  1.0918
 8247SOL    HW332721   5.773   5.063   3.103 -0.1336 -0.0021  0.6521
 8247SOL    MW432722   5.729   4.997   3.068  0.1094  0.9096  0.1920
 8248SOL     OW32723   4.759   2.196   2.648 -0.4854 -0.2778  0.1913
 8248SOL    HW232724   4.779   2.147   2.727 -0.7920  0.6300  0.8450
 8248SOL    HW332725   4.832   2.257   2.638 -0.5782 -0.2089 -0.0817
 8248SOL    MW432726   4.772   2.197   2.657 -0.7495  0.3763  0.1030
 8249SOL     OW32727   0.659   4.849   5.486 -0.4916 -0.4598  0.3908
 8249SOL    HW232728   0.603   4.870   5.411 -0.2594 -1.1909 -0.0064
 8249SOL    HW332729   0.733   4.908   5.478 -0.6507 -0.2773  0.2542
 8249SOL    MW432730   0.661   4.859   5.475  0.4985 -0.8531 -0.1602
 8250SOL     OW32731   5.931   1.270   3.459  0.5636  0.6262  0.1354
 8250SOL    HW232732   5.986   1.257   3.382 -1.0240 -0.7892 -0.8218
 8250SOL    HW332733   5.985   1.239   3.532  1.4656  0.3544 -0.6290
 8250SOL    MW432734   5.945   1.264   3.459  0.3610 -0.0989  0.2217
 8251SOL     OW32735   2.715   4.825   3.897 -0.5523 -0.0939 -0.4237
 8251SOL    HW232736   2.795   4.866   3.863  0.4807 -0.2022  1.7205
 8251SOL    HW332737   2.669   4.896   3.942  0.6949 -0.8992  2.3447
 8251SOL    MW432738   2.720   4.840   3.898  0.4215  0.3111 -0.1538
 8252SOL     OW32739   0.911   3.397   0.872 -0.5551  0.2010 -0.5663
 8252SOL    HW232740   0.944   3.483   0.898  1.2524 -0.5257 -0.3077
 8252SOL    HW332741   0.878   3.410   0.783 -1.0821  1.3310 -0.2281
 8252SOL    MW432742   0.911   3.410   0.864 -0.2098  0.3996 -0.1436
 8253SOL     OW32743   0.540   4.914   5.254 -0.3117  0.1287 -0.0894
 8253SOL    HW232744   0.485   4.979   5.297 -0.4061 -0.9677  1.5368
 8253SOL    HW332745   0.482   4.871   5.191 -0.5360  0.8666 -0.3965
 8253SOL    MW432746   0.525   4.917   5.252  0.3465  0.2416 -0.2560
 8254SOL     OW32747   3.166   0.322   4.970 -0.4489  0.1773 -0.8435
 8254SOL    HW232748   3.171   0.301   5.063  0.3270 -0.0648 -0.9368
 8254SOL    HW332749   3.192   0.242   4.926 -3.4424 -0.6325 -1.3773
 8254SOL    MW432750   3.170   0.309   4.977  0.0082  0.6716  0.7990
 8255SOL     OW32751   5.874   4.597   5.295  0.4159  0.3957  0.1059
 8255SOL    HW232752   5.865   4.564   5.384 -1.4463  1.0174  0.1849
 8255SOL    HW332753   5.965   4.626   5.290  1.2141 -1.7641  1.0244
 8255SOL    MW432754   5.885   4.597   5.306 -0.6973  0.4640 -0.1153
 8256SOL     OW32755   1.513   3.846   2.240  0.5908  0.3099 -0.2702
 8256SOL    HW232756   1.506   3.769   2.297  0.9314  0.1182 -0.4815
 8256SOL    HW332757   1.434   3.845   2.187  1.3816 -0.9002 -1.5025
 8256SOL    MW432758   1.502   3.836   2.241  0.1287  0.5128 -0.1554
 8257SOL     OW32759   1.216   2.853   5.633  0.0439  0.5140 -0.0314
 8257SOL    HW232760   1.222   2.797   5.710  1.0922  1.7793  0.8621
 8257SOL    HW332761   1.196   2.794   5.561 -0.3168 -0.7903  1.0999
 8257SOL    MW432762   1.214   2.838   5.634  0.1180 -0.3173  0.5213
 8258SOL     OW32763   5.818   2.140   1.441  0.3139 -0.5558  0.1836
 8258SOL    HW232764   5.726   2.155   1.467  0.2553 -1.2358  0.4055
 8258SOL    HW332765   5.840   2.056   1.482 -0.1213 -2.3011 -2.8354
 8258SOL    MW432766   5.808   2.131   1.450 -0.0032  0.5284 -0.4309
 8259SOL     OW32767   0.678   3.028   0.690 -0.3876 -0.2581 -0.4163
 8259SOL    HW232768   0.605   2.987   0.737 -0.6430 -0.0364 -0.6226
 8259SOL    HW332769   0.734   3.063   0.759 -0.5039 -0.3775 -0.2598
 8259SOL    MW432770   0.676   3.027   0.706 -0.1441  0.3122 -0.4800
 8260SOL     OW32771   4.221   3.861   1.196 -0.2996  0.4790  0.4795
 8260SOL    HW232772   4.126   3.855   1.194 -0.3349  0.7864 -1.8396
 8260SOL    HW332773   4.241   3.912   1.274 -2.0529  0.8108  0.7407
 8260SOL    MW432774   4.211   3.867   1.206 -0.5006  0.2775  0.5059
 8261SOL     OW32775   3.627   3.096   3.777 -0.3261  0.6371  0.1596
 8261SOL    HW232776   3.604   3.064   3.689  0.9679 -0.8414  0.3186
 8261SOL    HW332777   3.582   3.036   3.837  1.3974 -0.4104  0.4666
 8261SOL    MW432778   3.618   3.084   3.773  0.2453 -0.8354  0.5618
 8262SOL     OW32779   0.884   5.029   3.275  0.1137 -0.5889  0.1734
 8262SOL    HW232780   0.840   4.952   3.238 -0.0388 -0.7776  0.7432
 8262SOL    HW332781   0.928   5.069   3.200 -1.3982 -0.1340 -0.5273
 8262SOL    MW432782   0.884   5.024   3.260  0.4039  0.2448 -0.5425
 8263SOL     OW32783   1.930   0.236   3.499 -0.0653  0.6726 -0.2658
 8263SOL    HW232784   1.888   0.262   3.581  0.1401  0.8930 -0.2287
 8263SOL    HW332785   2.023   0.234   3.519  0.0070  0.9755 -0.5598
 8263SOL    MW432786   1.937   0.239   3.512  0.2147  0.6272  0.5853
 8264SOL     OW32787   2.491   1.531   3.494  0.2172 -0.4242 -0.2427
 8264SOL    HW232788   2.432   1.555   3.423 -0.0106  1.2638  0.4817
 8264SOL    HW332789   2.542   1.610   3.511 -0.5590 -0.3880  2.2766
 8264SOL    MW432790   2.490   1.544   3.487 -0.1781  0.0649  0.6165
 8265SOL     OW32791   1.544   1.325   2.442 -0.0009 -0.2157  0.2166
 8265SOL    HW232792   1.630   1.365   2.429 -0.1112  0.5787  1.7507
 8265SOL    HW332793   1.512   1.363   2.524 -2.1877  0.1547 -0.7463
 8265SOL    MW432794   1.551   1.335   2.451 -0.6914  0.3575 -0.3451
 8266SOL     OW32795   1.019   6.247   1.118 -0.2700 -0.7365  0.3584
 8266SOL    HW232796   0.976   6.187   1.179  0.4288 -1.3926  0.2292
 8266SOL    HW332797   1.011   6.204   1.033 -0.3302 -0.3303  0.1583
 8266SOL    MW432798   1.012   6.233   1.115  0.4129  0.4789  0.1385
 8267SOL     OW32799   2.032   0.261   2.476 -0.1769 -0.8093  0.5010
 8267SOL    HW232800   2.006   0.179   2.518 -1.4143 -1.5513 -1.5352
 8267SOL    HW332801   2.055   0.236   2.387  0.9684  0.8666  0.2732
 8267SOL    MW432802   2.032   0.247   2.470  0.0455  0.4422 -0.2264
 8268SOL     OW32803   4.578   2.022   5.882 -0.1602  0.3108  0.0549
 8268SOL    HW232804   4.492   1.985   5.864  0.5891 -0.8936 -1.2317
 8268SOL    HW332805   4.600   1.992   5.970  0.3239 -2.2430 -0.8504
 8268SOL    MW432806   4.570   2.013   5.891 -0.0705  0.6751 -0.4368
 8269SOL     OW32807   2.992   1.674   5.847 -0.3333  0.6668 -0.3773
 8269SOL    HW232808   3.079   1.652   5.878  0.5959  1.2560 -2.4047
 8269SOL    HW332809   2.946   1.590   5.842 -0.0748  0.4132  1.1576
 8269SOL    MW432810   2.997   1.660   5.851  0.5814 -0.2058 -0.3277
 8270SOL     OW32811   3.133   0.515   6.098  0.4918  0.3281  0.0158
 8270SOL    HW232812   3.178   0.591   6.134  0.1737 -0.1365  1.4598
 8270SOL    HW332813   3.046   0.547   6.075  0.4651  0.4786  0.3248
 8270SOL    MW432814   3.127   0.529   6.100  0.1122 -0.3159 -0.1389
 8271SOL     OW32815   1.451   3.552   5.241 -0.5692 -0.0337  0.6445
 8271SOL    HW232816   1.382   3.499   5.280  1.1150 -2.1280  0.9666
 8271SOL    HW332817   1.438   3.543   5.146 -1.4345  0.5991  0.6954
 8271SOL    MW432818   1.440   3.544   5.234 -0.3672  0.4016 -0.3020
 8272SOL     OW32819   3.456   2.622   0.991  0.1140  0.5300 -0.0517
 8272SOL    HW232820   3.535   2.643   1.041 -0.8413 -0.2613  1.9107
 8272SOL    HW332821   3.488   2.580   0.911  1.6856 -1.2905  1.4428
 8272SOL    MW432822   3.470   2.619   0.987 -0.5836  0.1327 -0.3281
 8273SOL     OW32823   5.058   5.708   6.138 -0.1337 -0.0602  1.0104
 8273SOL    HW232824   5.048   5.662   6.055 -3.2092 -0.6466  1.5666
 8273SOL    HW332825   5.131   5.767   6.124 -1.6036  1.1835 -2.7861
 8273SOL    MW432826   5.066   5.710   6.125 -0.2848 -0.4826  0.2784
 8274SOL     OW32827   0.783   2.482   5.565  0.7108 -0.1291 -0.0158
 8274SOL    HW232828   0.724   2.455   5.635 -0.9824  1.3298 -0.8137
 8274SOL    HW332829   0.781   2.409   5.503 -0.0995 -0.2029  0.0806
 8274SOL    MW432830   0.775   2.468   5.566 -0.0919  0.2996  0.2499
 8275SOL     OW32831   0.377   4.446   0.722  0.0187  0.3665 -0.1136
 8275SOL    HW232832   0.308   4.393   0.682 -0.0813 -0.5337  1.1760
 8275SOL    HW332833   0.388   4.521   0.664 -0.5778 -0.5460 -1.4350
 8275SOL    MW432834   0.370   4.449   0.709  0.2894 -0.5350  0.1981
 8276SOL     OW32835   5.036   0.616   4.442 -0.4123 -0.0856 -0.2342
 8276SOL    HW232836   5.056   0.557   4.370 -0.8206 -1.2591  0.5900
 8276SOL    HW332837   4.989   0.689   4.401 -0.0591 -0.4170 -1.2414
 8276SOL    MW432838   5.032   0.618   4.427 -0.8544 -0.8531  0.0044
 8277SOL     OW32839   0.109   2.726   4.873  0.6036 -0.2340  0.1068
 8277SOL    HW232840   0.182   2.775   4.910  0.4625  0.0245  0.0401
 8277SOL    HW332841   0.068   2.683   4.949  0.3793  0.2105  0.2426
 8277SOL    MW432842   0.113   2.727   4.888 -0.2092  0.0953 -0.3692
 8278SOL     OW32843   0.590   0.117   4.457 -0.1103  0.2417 -0.1147
 8278SOL    HW232844   0.576   0.062   4.379  2.3189 -0.3207 -0.2301
 8278SOL    HW332845   0.543   0.198   4.438  0.0298 -0.0687 -1.9785
 8278SOL    MW432846   0.582   0.120   4.444 -0.3362  0.0181 -0.0624
 8279SOL     OW32847   5.872   1.141   1.625 -0.0816  0.1935 -0.0226
 8279SOL    HW232848   5.871   1.181   1.712 -1.8617  0.2125 -0.0321
 8279SOL    HW332849   5.882   1.047   1.642 -0.0378  0.2321  0.1731
 8279SOL    MW432850   5.873   1.134   1.639 -0.0876  0.0518 -0.3998
 8280SOL     OW32851   3.689   0.715   4.783 -0.1568 -0.0885  0.2253
 8280SOL    HW232852   3.629   0.723   4.709 -1.1510 -0.7945  0.9261
 8280SOL    HW332853   3.776   0.724   4.745 -0.7014  2.8859 -0.5669
 8280SOL    MW432854   3.692   0.717   4.768  0.1762  0.0447  0.2650
 8281SOL     OW32855   6.325   1.984   1.702  0.1404  0.4769  0.4513
 8281SOL    HW232856   6.263   1.981   1.775 -0.6915  0.8686 -0.2356
 8281SOL    HW332857   6.370   1.900   1.707 -0.0388  0.4144  1.2985
 8281SOL    MW432858   6.323   1.972   1.713  0.0880 -0.0502 -0.2606
 8282SOL     OW32859   2.808   2.057   0.020  0.1008  0.0062 -0.3328
 8282SOL    HW232860   2.782   2.145  -0.004 -1.4541 -0.4502 -0.4350
 8282SOL    HW332861   2.808   2.008  -0.063  1.9449  0.1234 -0.4309
 8282SOL    MW432862   2.804   2.062   0.006 -0.0752 -0.1198  0.2724
 8283SOL     OW32863   4.019   0.941   0.894  1.0352 -0.1439 -0.7337
 8283SOL    HW232864   3.943   0.967   0.947  1.5264  0.6717 -0.4049
 8283SOL    HW332865   3.998   0.969   0.805  0.2066 -1.5150 -0.9885
 8283SOL    MW432866   4.006   0.948   0.890 -0.8683  0.2638 -0.0063
 8284SOL     OW32867   0.255   4.745   2.581  0.6111 -0.1435  0.0597
 8284SOL    HW232868   0.294   4.794   2.653 -0.6934 -0.2284  0.8604
 8284SOL    HW332869   0.219   4.811   2.522  1.5249 -0.0788 -0.4366
 8284SOL    MW432870   0.255   4.760   2.583  0.2017 -0.2967  0.3524
 8285SOL     OW32871   4.455   1.671   4.524  0.1239 -0.5248 -0.4565
 8285SOL    HW232872   4.526   1.609   4.507 -0.4686 -1.1255 -0.7777
 8285SOL    HW332873   4.483   1.719   4.602  1.0684 -0.4600 -0.8161
 8285SOL    MW432874   4.468   1.669   4.532  0.1696 -0.2076  0.6782
 8286SOL     OW32875   2.988   5.625   3.940  0.4732 -0.3443  0.1741
 8286SOL    HW232876   2.951   5.700   3.988 -0.0503 -0.7475  0.4018
 8286SOL    HW332877   3.016   5.663   3.856  0.1166  0.0906  0.2424
 8286SOL    MW432878   2.987   5.640   3.935 -0.0222  0.2454 -0.2606
 8287SOL     OW32879   0.883   2.815   5.538 -0.5568  0.5275  0.4253
 8287SOL    HW232880   0.963   2.770   5.565 -0.0270  0.5522 -0.9768
 8287SOL    HW332881   0.826   2.746   5.505 -0.1813  0.7386 -0.7060
 8287SOL    MW432882   0.886   2.800   5.537  0.7142 -0.0955  0.0316
 8288SOL     OW32883   4.623   4.969   2.783 -0.3237 -0.3003 -0.0712
 8288SOL    HW232884   4.673   5.050   2.787 -0.1737 -0.3059 -1.2599
 8288SOL    HW332885   4.656   4.916   2.855  1.0301 -0.0946 -0.5039
 8288SOL    MW432886   4.634   4.973   2.793 -0.2388 -0.9744 -0.1162
 8289SOL     OW32887   5.336   1.784   4.516 -0.0171  0.2250 -0.0049
 8289SOL    HW232888   5.372   1.709   4.564 -0.9872 -0.4416 -0.2944
 8289SOL    HW332889   5.290   1.835   4.583  1.1818  0.9342  0.3153
 8289SOL    MW432890   5.335   1.781   4.531 -0.5050 -0.1832  0.0055
 8290SOL     OW32891   2.619   5.529   1.941  0.2138 -0.1054  0.4679
 8290SOL    HW232892   2.659   5.615   1.932  0.4413 -0.2391  0.1856
 8290SOL    HW332893   2.528   5.547   1.965  0.1465  0.2232 -0.0193
 8290SOL    MW432894   2.612   5.542   1.943 -0.2543 -0.8027  0.0349
 8291SOL     OW32895   5.196   2.141   5.750 -0.0093  0.4184  0.4822
 8291SOL    HW232896   5.284   2.144   5.712 -0.3683 -0.6094 -0.4968
 8291SOL    HW332897   5.138   2.131   5.674 -0.9346  0.5570  1.1563
 8291SOL    MW432898   5.200   2.141   5.735 -0.4172  0.6088  0.2090
 8292SOL     OW32899   5.299   0.726   1.370 -0.1906  0.4605 -0.5523
 8292SOL    HW232900   5.319   0.816   1.346  1.5462  0.2478 -0.0471
 8292SOL    HW332901   5.361   0.673   1.319 -1.6250 -0.5313 -1.3597
 8292SOL    MW432902   5.310   0.731   1.360  0.1300  0.0241  0.3044
 8293SOL     OW32903   6.287   4.847   3.712 -0.2278 -0.3209  0.1825
 8293SOL    HW232904   6.264   4.871   3.802 -1.5231  1.8768 -0.6700
 8293SOL    HW332905   6.262   4.923   3.660 -1.4730 -2.3236 -2.3333
 8293SOL    MW432906   6.281   4.860   3.717 -0.1529  0.8698 -0.0370
 8294SOL     OW32907   1.052   4.621   5.528 -0.0561  0.2118 -0.8924
 8294SOL    HW232908   1.146   4.611   5.545 -0.4278  0.3905  1.5455
 8294SOL    HW332909   1.039   4.579   5.443  2.0527 -0.7425 -0.8086
 8294SOL    MW432910   1.063   4.614   5.519  0.6170 -0.0191 -0.0649
 8295SOL     OW32911   1.975   5.172   0.000 -0.2657 -0.0906  0.0801
 8295SOL    HW232912   2.032   5.247  -0.015  1.2051 -0.9058  1.2720
 8295SOL    HW332913   1.888   5.209   0.014  0.0966  1.2455 -1.0251
 8295SOL    MW432914   1.971   5.187   0.000 -0.0156 -0.3260  0.1135
 8296SOL     OW32915   0.729   6.145   6.186  0.0950 -0.1981 -0.6341
 8296SOL    HW232916   0.769   6.231   6.197  0.5219 -0.2261 -1.8187
 8296SOL    HW332917   0.666   6.139   6.257  0.6172  0.7692 -0.0652
 8296SOL    MW432918   0.726   6.155   6.197 -0.0814 -0.8981  0.4786
 8297SOL     OW32919   4.077   0.567   5.082 -0.0552  0.8836  0.2742
 8297SOL    HW232920   4.043   0.579   5.170 -0.9274  1.4945 -0.1323
 8297SOL    HW332921   4.148   0.632   5.075 -0.2369  1.0962  0.3976
 8297SOL    MW432922   4.082   0.577   5.092 -0.4649  0.0120  0.3350
 8298SOL     OW32923   4.503   1.091   3.247  0.1944 -0.4592  0.3727
 8298SOL    HW232924   4.579   1.141   3.277  0.1243 -0.1260  0.0069
 8298SOL    HW332925   4.439   1.098   3.318  0.2549 -0.1785  0.3998
 8298SOL    MW432926   4.504   1.098   3.260  0.3219 -0.3051  0.2052
 8299SOL     OW32927   3.975   0.858   6.276  0.1278 -0.0337  0.4549
 8299SOL    HW232928   3.881   0.872   6.289  0.0557 -0.6960  0.6573
 8299SOL    HW332929   3.980   0.802   6.198  0.4025  0.7893 -0.1397
 8299SOL    MW432930   3.963   0.852   6.267  0.1691 -0.5749 -0.7817
 8300SOL     OW32931   3.546   0.913   4.220  0.5017  0.4425  0.1901
 8300SOL    HW232932   3.466   0.952   4.256  0.7860  0.5871  0.6858
 8300SOL    HW332933   3.557   0.954   4.135 -1.0811 -1.0938 -0.8220
 8300SOL    MW432934   3.537   0.923   4.214 -0.0532  0.1347 -0.7992
 8301SOL     OW32935   1.915   3.947   4.892 -0.7803  0.6424 -0.1702
 8301SOL    HW232936   1.987   4.008   4.875  0.1899 -0.2842  0.4810
 8301SOL    HW332937   1.872   3.937   4.807 -0.2417  1.3344 -0.5356
 8301SOL    MW432938   1.919   3.954   4.878 -0.1517 -0.4712 -0.0624
 8302SOL     OW32939   4.660   5.942   0.307  0.2069  0.0833 -0.8055
 8302SOL    HW232940   4.660   5.938   0.403  1.4745  0.3818 -0.7790
 8302SOL    HW332941   4.652   6.035   0.287  1.1544  0.1475 -0.9541
 8302SOL    MW432942   4.659   5.954   0.317 -0.0471 -0.3603 -0.3170
 8303SOL     OW32943   3.683   0.578   5.694  0.2151  0.5868 -0.3006
 8303SOL    HW232944   3.677   0.673   5.696  1.6726  0.7024  1.0066
 8303SOL    HW332945   3.659   0.554   5.605 -2.8747  1.9185  0.0468
 8303SOL    MW432946   3.679   0.587   5.683 -0.1523  0.9245  0.1839
 8304SOL     OW32947   0.925   5.812   5.309 -0.5136  0.0866 -0.3546
 8304SOL    HW232948   0.865   5.755   5.357 -1.8272  0.6776 -1.2470
 8304SOL    HW332949   0.980   5.752   5.258  0.0567 -0.4864  0.8958
 8304SOL    MW432950   0.924   5.797   5.309  0.1997  0.3678 -0.1021
 8305SOL     OW32951   2.583   4.221   3.827 -0.2247 -0.3290  0.0768
 8305SOL    HW232952   2.638   4.150   3.792 -0.6905 -1.1957  1.0837
 8305SOL    HW332953   2.497   4.182   3.841 -1.0020  0.8905 -1.0000
 8305SOL    MW432954   2.579   4.207   3.824  0.1192  0.4237  0.1123
 8306SOL     OW32955   3.479   4.850   0.061  0.4702  0.2965 -0.5327
 8306SOL    HW232956   3.409   4.851  -0.004 -0.0658 -0.7277  0.0011
 8306SOL    HW332957   3.532   4.774   0.039 -0.8095 -1.2334  1.2802
 8306SOL    MW432958   3.477   4.840   0.050 -0.1576  0.2303 -0.5072
 8307SOL     OW32959   1.874   1.685   2.652  0.5177 -0.1092  0.0846
 8307SOL    HW232960   1.796   1.659   2.603  0.6143  0.4833 -0.4087
 8307SOL    HW332961   1.898   1.770   2.614  0.8155  0.1835  0.9194
 8307SOL    MW432962   1.867   1.693   2.640 -0.9617 -0.0188 -0.4951
 8308SOL     OW32963   5.308   4.893   0.106  0.1481 -0.1231  0.0360
 8308SOL    HW232964   5.376   4.873   0.171 -0.2860 -1.4537  0.1049
 8308SOL    HW332965   5.250   4.817   0.108 -0.6745  0.4636 -0.8936
 8308SOL    MW432966   5.310   4.880   0.115  0.7405  0.0530  0.5552
 8309SOL     OW32967   6.293   5.897   5.705 -0.1964  0.3950  0.0932
 8309SOL    HW232968   6.387   5.915   5.712  0.2089 -1.1550 -0.8699
 8309SOL    HW332969   6.254   5.947   5.777  1.4307  0.5811  0.9025
 8309SOL    MW432970   6.301   5.906   5.715 -0.0388  0.2526  0.0257
 8310SOL     OW32971   4.124   4.249   1.160  0.1497 -0.0053  0.3419
 8310SOL    HW232972   4.056   4.317   1.162 -0.0215 -0.1011 -0.8686
 8310SOL    HW332973   4.189   4.276   1.224 -1.4579 -0.3823  2.2102
 8310SOL    MW432974   4.123   4.261   1.168 -0.4485 -0.0680  0.3475
 8311SOL     OW32975   1.328   1.785   4.209 -0.5558 -0.1172 -0.0432
 8311SOL    HW232976   1.381   1.834   4.145 -0.1254  0.8090  0.9804
 8311SOL    HW332977   1.238   1.796   4.179 -0.2291 -1.7560 -1.8444
 8311SOL    MW432978   1.323   1.793   4.197 -0.4650  0.3602 -0.5287
 8312SOL     OW32979   3.255   4.371   4.624 -0.7892 -0.8357  0.1480
 8312SOL    HW232980   3.304   4.451   4.645 -0.6583 -0.6248 -0.9178
 8312SOL    HW332981   3.176   4.378   4.677 -0.7786  0.0065  0.0731
 8312SOL    MW432982   3.251   4.383   4.634  0.3829 -0.2436 -0.3870
 8313SOL     OW32983   4.337   2.380   2.103  0.5343 -0.7532 -0.4529
 8313SOL    HW232984   4.376   2.303   2.144 -0.3566 -1.3069 -0.6052
 8313SOL    HW332985   4.355   2.369   2.010  1.5682 -0.0823 -0.3376
 8313SOL    MW432986   4.344   2.368   2.096  0.0872  0.0908  0.0339
 8314SOL     OW32987   1.190   0.967   2.638 -0.2206 -0.1092 -0.0801
 8314SOL    HW232988   1.116   0.909   2.618  0.1347 -0.3871 -0.6345
 8314SOL    HW332989   1.216   0.944   2.727 -0.9194  0.1254  0.1936
 8314SOL    MW432990   1.184   0.956   2.647  0.4697  0.4975  0.2917
 8315SOL     OW32991   2.106   4.276   0.947  0.5772 -0.1378  0.4696
 8315SOL    HW232992   2.080   4.251   1.036  1.4469 -0.3827  0.6705
 8315SOL    HW332993   2.130   4.369   0.955 -0.4489  0.1655  0.2248
 8315SOL    MW432994   2.106   4.285   0.960 -0.5404  0.4549  0.2524
 8316SOL     OW32995   3.324   1.479   3.175 -0.4707  0.6590 -0.3610
 8316SOL    HW232996   3.404   1.508   3.130  0.0984  1.3046  0.9974
 8316SOL    HW332997   3.280   1.422   3.112  2.1290 -1.4834 -0.4627
 8316SOL    MW432998   3.329   1.475   3.161  0.0342  0.1361 -0.1963
 8317SOL     OW32999   3.939   4.133   5.067  0.0891  0.0603 -0.3209
 8317SOL    HW233000   3.965   4.106   5.155 -2.1087  1.9172  1.0219
 8317SOL    HW333001   3.952   4.055   5.013  2.0418 -0.9695  1.4957
 8317SOL    MW433002   3.944   4.119   5.071 -0.3001 -0.0894 -0.4466
 8318SOL     OW33003   4.028   4.116   1.802 -0.1755  0.0970  0.0370
 8318SOL    HW233004   3.960   4.089   1.740  0.0093  1.2790 -0.7059
 8318SOL    HW333005   4.099   4.053   1.788 -1.1700 -1.2983  0.9950
 8318SOL    MW433006   4.028   4.104   1.792  0.4861  0.5340 -0.5203
 8319SOL     OW33007   6.270   4.467   0.005  0.3832 -0.0580 -0.5429
 8319SOL    HW233008   6.360   4.442   0.023  0.0480 -0.7210  0.2580
 8319SOL    HW333009   6.259   4.449  -0.089  0.9278 -0.4367 -0.5399
 8319SOL    MW433010   6.280   4.462  -0.005  0.0560 -0.2759  0.2898
 8320SOL     OW33011   4.352   2.678   6.341 -0.3837 -0.1077 -0.3777
 8320SOL    HW233012   4.263   2.692   6.374  0.7860  3.0115  1.8695
 8320SOL    HW333013   4.354   2.724   6.257 -0.7118  0.3168 -0.1548
 8320SOL    MW433014   4.341   2.686   6.334  0.1238  0.6416 -0.4630
 8321SOL     OW33015   3.826   5.049   4.544 -0.4571 -0.2204  0.8684
 8321SOL    HW233016   3.830   5.128   4.489 -3.6214 -0.7283 -0.2740
 8321SOL    HW333017   3.801   5.082   4.630 -2.4585  0.0469  0.2319
 8321SOL    MW433018   3.823   5.064   4.548  0.0282  0.0432  0.3896
 8322SOL     OW33019   0.309   6.071   5.449 -0.0856  0.5175  0.2905
 8322SOL    HW233020   0.348   6.015   5.516 -0.2779 -1.0122 -0.8337
 8322SOL    HW333021   0.384   6.099   5.396  0.0473  1.6099  1.0105
 8322SOL    MW433022   0.324   6.067   5.451  0.0725 -0.6101 -0.4327
 8323SOL     OW33023   2.679   2.492   3.265 -0.2141  0.2319  0.2679
 8323SOL    HW233024   2.745   2.538   3.214  0.1913 -0.8953 -0.2643
 8323SOL    HW333025   2.598   2.540   3.248  0.1751  0.6866 -0.3417
 8323SOL    MW433026   2.677   2.504   3.256  0.4112  0.3516  0.2547
 8324SOL     OW33027   3.526   5.755   2.216  0.4911  0.3487 -0.3329
 8324SOL    HW233028   3.521   5.662   2.195  1.2273 -0.2145  1.8095
 8324SOL    HW333029   3.456   5.769   2.280 -0.3290  1.5373 -1.4422
 8324SOL    MW433030   3.516   5.744   2.222 -0.3876 -0.0158 -0.4069
 8325SOL     OW33031   6.060   2.050   3.253 -0.2349 -0.3556  0.2095
 8325SOL    HW233032   6.155   2.035   3.253 -0.4756 -2.1009  0.8094
 8325SOL    HW333033   6.023   1.968   3.221 -1.5003  1.0763 -2.3127
 8325SOL    MW433034   6.068   2.037   3.249 -0.5133 -0.6907  0.1585
 8326SOL     OW33035   1.229   3.205   4.064  0.0961  0.0909  0.1869
 8326SOL    HW233036   1.298   3.147   4.095  0.6379  1.2520  1.2465
 8326SOL    HW333037   1.163   3.203   4.134 -0.2564  0.1423 -0.1383
 8326SOL    MW433038   1.229   3.197   4.077  0.0125  0.3013 -0.0352
 8327SOL     OW33039   4.194   1.244   1.867 -0.6463 -0.0637 -0.1301
 8327SOL    HW233040   4.234   1.164   1.901 -0.6394  0.2729  0.6697
 8327SOL    HW333041   4.221   1.246   1.775 -0.4544 -0.8567 -0.1019
 8327SOL    MW433042   4.203   1.234   1.859 -0.0067  0.4128 -0.0138
 8328SOL     OW33043   6.064   1.098   4.933 -0.2031 -0.4928 -0.0787
 8328SOL    HW233044   6.051   1.173   4.992  0.3159 -0.3539 -0.1377
 8328SOL    HW333045   6.032   1.128   4.848 -0.0039 -0.3426 -0.0999
 8328SOL    MW433046   6.058   1.112   4.930 -0.0352 -0.0905  0.1160
 8329SOL     OW33047   5.107   0.184   0.663 -0.2446  0.3248  0.2788
 8329SOL    HW233048   5.071   0.116   0.719  0.0054 -0.1889 -0.1750
 8329SOL    HW333049   5.076   0.266   0.701  0.0426 -0.0066  1.2463
 8329SOL    MW433050   5.098   0.186   0.675  0.0962  0.1113 -0.3583
 8330SOL     OW33051   3.022   4.285   4.456  0.1189  0.0245 -0.3524
 8330SOL    HW233052   3.098   4.337   4.483 -0.4642  0.2846  0.8178
 8330SOL    HW333053   3.050   4.245   4.373  1.7705 -0.3654  0.3396
 8330SOL    MW433054   3.036   4.286   4.449  0.1827 -0.6561  0.0459
 8331SOL     OW33055   3.059   5.138   5.939 -0.3667  0.1987  0.6952
 8331SOL    HW233056   2.989   5.108   5.880  1.1046  1.9875 -2.2316
 8331SOL    HW333057   3.125   5.069   5.935 -0.7304 -0.1760  1.1264
 8331SOL    MW433058   3.059   5.125   5.930 -0.1728  0.3612  0.1949
 8332SOL     OW33059   1.585   3.729   4.944 -0.3978 -0.6083  0.1847
 8332SOL    HW233060   1.672   3.742   4.982  0.1330  1.9544 -1.6258
 8332SOL    HW333061   1.546   3.817   4.943 -1.3030 -0.9288 -2.7881
 8332SOL    MW433062   1.591   3.743   4.949  0.2374 -0.0277 -0.3262
 8333SOL     OW33063   1.698   6.180   5.698  0.3188  0.5156 -0.0143
 8333SOL    HW233064   1.715   6.273   5.716  1.7942 -0.2433  2.9472
 8333SOL    HW333065   1.782   6.146   5.666 -0.0989  0.0767 -0.6713
 8333SOL    MW433066   1.711   6.188   5.696  0.9491  0.1158  0.0430
 8334SOL     OW33067   4.477   2.900   2.578  0.4550  0.4193  0.7836
 8334SOL    HW233068   4.508   2.810   2.566 -0.4724  0.3283 -1.3330
 8334SOL    HW333069   4.386   2.891   2.604  0.3949  0.7514  0.6904
 8334SOL    MW433070   4.469   2.887   2.580 -0.1174 -0.4709  0.1510
 8335SOL     OW33071   1.575   5.806   0.515  0.3415  0.2379 -0.1653
 8335SOL    HW233072   1.650   5.836   0.567  0.4638 -0.4931  0.1009
 8335SOL    HW333073   1.563   5.715   0.542 -2.3714  1.0584  1.8754
 8335SOL    MW433074   1.583   5.798   0.525 -0.1314 -0.1912 -0.2589
 8336SOL     OW33075   6.173   5.063   0.383  0.2269 -0.0065 -0.2885
 8336SOL    HW233076   6.192   5.009   0.306 -1.8837  0.1941 -1.0237
 8336SOL    HW333077   6.131   5.141   0.347  0.2974  0.6438  0.9987
 8336SOL    MW433078   6.170   5.066   0.368 -0.2137 -0.8310 -0.2740
 8337SOL     OW33079   2.576   1.512   1.659 -0.0817 -0.7693  0.3468
 8337SOL    HW233080   2.510   1.465   1.608  1.1255 -0.9750 -1.1262
 8337SOL    HW333081   2.610   1.448   1.721 -0.6472 -0.9077  0.5155
 8337SOL    MW433082   2.572   1.497   1.660  0.1188  0.5082 -0.3537
 8338SOL     OW33083   3.296   5.554   1.476  0.5033  0.0655  0.4651
 8338SOL    HW233084   3.302   5.577   1.383  0.2774 -0.0950  0.4097
 8338SOL    HW333085   3.322   5.462   1.479  0.6456  0.1085  0.5814
 8338SOL    MW433086   3.300   5.545   1.464  0.5575  0.3053  0.1780
 8339SOL     OW33087   4.343   5.505   6.096 -0.2956  0.3089 -0.0793
 8339SOL    HW233088   4.343   5.558   6.017  0.2621 -0.9665 -0.9861
 8339SOL    HW333089   4.373   5.418   6.067  2.0829  0.3307  1.8662
 8339SOL    MW433090   4.347   5.500   6.082 -0.1884  0.0090 -0.3147
 8340SOL     OW33091   0.697   4.292   1.185  0.2460 -0.4794 -0.1032
 8340SOL    HW233092   0.736   4.379   1.188 -2.2414  0.7648 -0.9955
 8340SOL    HW333093   0.675   4.273   1.277 -0.2708  0.4026 -0.0271
 8340SOL    MW433094   0.699   4.301   1.198 -0.0723  0.0422 -0.0095
 8341SOL     OW33095   1.197   5.922   3.685  0.0339  0.6214 -0.2389
 8341SOL    HW233096   1.201   5.953   3.776  1.0638 -1.5633  0.5244
 8341SOL    HW333097   1.176   6.001   3.634 -1.1669  1.7913  1.9269
 8341SOL    MW433098   1.195   5.937   3.690  0.0641 -0.0647  0.2033
 8342SOL     OW33099   3.388   6.131   5.681  0.3432 -0.1501 -0.3961
 8342SOL    HW233100   3.368   6.098   5.593 -0.4363 -0.3913 -0.1375
 8342SOL    HW333101   3.441   6.061   5.721 -0.9713 -0.9477  0.0123
 8342SOL    MW433102   3.392   6.117   5.675  0.1054  1.0437  0.0747
 8343SOL     OW33103   5.221   4.600   2.881  0.3337 -0.4900  0.0280
 8343SOL    HW233104   5.261   4.597   2.794  3.4192 -0.5115  1.3237
 8343SOL    HW333105   5.236   4.513   2.917  0.8456  0.0739  1.2460
 8343SOL    MW433106   5.228   4.589   2.874 -0.2815  0.9375  0.3969
 8344SOL     OW33107   2.063   1.017   5.532 -0.1240  0.0626  0.1955
 8344SOL    HW233108   2.020   1.084   5.586 -0.0308  0.2664  0.0190
 8344SOL    HW333109   2.097   0.954   5.595  0.5779  0.6498  0.4289
 8344SOL    MW433110   2.062   1.018   5.547  0.1529 -0.1200  0.0233
 8345SOL     OW33111   2.764   0.573   1.005 -0.1186  0.3568 -0.0631
 8345SOL    HW233112   2.687   0.601   1.055 -0.1433  0.5975 -0.2322
 8345SOL    HW333113   2.745   0.600   0.915  0.5822  1.2783  0.0564
 8345SOL    MW433114   2.751   0.580   0.999  0.4572  0.6104  0.2622
 8346SOL     OW33115   4.503   5.491   2.083  0.1003 -0.2604  0.3162
 8346SOL    HW233116   4.498   5.501   2.178  2.3883 -0.4077  0.5079
 8346SOL    HW333117   4.596   5.501   2.062 -0.6448  3.6969 -2.3634
 8346SOL    MW433118   4.515   5.494   2.093 -0.4669  0.3364  0.0427
 8347SOL     OW33119   3.784   4.905   6.348  1.7254  0.1095  0.0012
 8347SOL    HW233120   3.751   4.816   6.363  0.0175  0.9046  1.3530
 8347SOL    HW333121   3.831   4.926   6.429  2.1699  0.4043 -0.3368
 8347SOL    MW433122   3.786   4.896   6.361  0.4076  0.4054  0.6945
 8348SOL     OW33123   4.831   1.274   1.825  0.7642 -0.1554 -0.3631
 8348SOL    HW233124   4.799   1.184   1.830 -0.2493  0.1973  3.4792
 8348SOL    HW333125   4.766   1.320   1.773  0.4060 -1.3323 -0.9856
 8348SOL    MW433126   4.818   1.268   1.819  0.4209  0.0330 -0.7018
 8349SOL     OW33127   2.044   1.394   5.412  0.2093 -0.1892  0.5942
 8349SOL    HW233128   2.119   1.362   5.461  0.3036  0.3908  0.8366
 8349SOL    HW333129   2.029   1.328   5.344  0.4718 -0.6765  1.0079
 8349SOL    MW433130   2.052   1.381   5.409 -0.7382  0.0328 -0.2870
 8350SOL     OW33131   4.198   2.489   2.621 -0.1121 -0.0190  0.0275
 8350SOL    HW233132   4.230   2.492   2.531 -0.6433 -1.5166 -0.2401
 8350SOL    HW333133   4.109   2.454   2.613 -0.9037  1.6109  0.9800
 8350SOL    MW433134   4.190   2.485   2.608  0.2980  0.1513 -0.1540
 8351SOL     OW33135   1.076   2.630   2.350  0.8977 -0.4794  0.1898
 8351SOL    HW233136   1.042   2.715   2.323 -0.6444 -1.4393 -1.1094
 8351SOL    HW333137   1.113   2.645   2.437  0.3668  1.4408  0.1215
 8351SOL    MW433138   1.076   2.643   2.358 -0.6029  0.2667 -0.3835
 8352SOL     OW33139   3.853   3.584   3.007  0.1227 -0.1263  0.5711
 8352SOL    HW233140   3.888   3.520   3.069 -0.0944  0.6225  1.4877
 8352SOL    HW333141   3.758   3.583   3.023 -0.0324 -0.4728 -0.2902
 8352SOL    MW433142   3.845   3.575   3.017  0.0846  0.5528 -0.6895
 8353SOL     OW33143   0.922   5.528   5.552 -0.2315  0.5301  0.5754
 8353SOL    HW233144   0.955   5.504   5.639  0.8375  0.4760  0.1757
 8353SOL    HW333145   0.916   5.445   5.505 -1.6596  0.4507  0.8561
 8353SOL    MW433146   0.926   5.514   5.557  0.0281 -0.3079 -0.1726
 8354SOL     OW33147   6.033   1.974   3.508  0.3985  0.0631  0.6269
 8354SOL    HW233148   5.967   1.905   3.513  0.7644 -0.2853  0.6788
 8354SOL    HW333149   6.024   2.010   3.420  0.6296 -0.4733  0.3803
 8354SOL    MW433150   6.023   1.969   3.497  0.3448  0.0275 -0.1040
 8355SOL     OW33151   2.340   0.241   5.988 -0.1513 -0.2997 -0.0834
 8355SOL    HW233152   2.285   0.204   6.056  0.8377  0.7295  1.3195
 8355SOL    HW333153   2.342   0.173   5.920 -0.7829 -1.5547  1.0942
 8355SOL    MW433154   2.333   0.227   5.988  0.1684  0.7481 -0.0829
 8356SOL     OW33155   0.244   0.103   0.244  0.0204 -0.6152  0.0972
 8356SOL    HW233156   0.229   0.144   0.329 -0.2846 -3.2745  1.4085
 8356SOL    HW333157   0.158   0.073   0.215 -0.3175  2.2400 -2.3729
 8356SOL    MW433158   0.231   0.105   0.251  0.3018  0.3782 -0.2293
 8357SOL     OW33159   0.319   2.849   6.340  0.2415 -0.4598  0.0180
 8357SOL    HW233160   0.404   2.833   6.299  0.3057  0.3107 -0.1635
 8357SOL    HW333161   0.257   2.848   6.268  0.4089  1.3283 -0.1892
 8357SOL    MW433162   0.322   2.846   6.325 -0.2975  0.2849 -0.9136
 8358SOL     OW33163   4.063   4.659   4.586  0.6476 -0.4546  0.2708
 8358SOL    HW233164   3.978   4.673   4.545  1.5081 -0.1879 -1.5549
 8358SOL    HW333165   4.045   4.657   4.680 -1.0242  2.2329  0.1128
 8358SOL    MW433166   4.049   4.660   4.593  0.2016  0.4763  0.2232
 8359SOL     OW33167   3.036   4.568   0.127 -0.2870 -0.4739 -0.2196
 8359SOL    HW233168   3.091   4.551   0.051 -0.5115  0.0403 -0.5041
 8359SOL    HW333169   2.960   4.511   0.115  0.1218 -1.0968  0.1140
 8359SOL    MW433170   3.033   4.558   0.115 -0.6940  0.5423  0.6397
 8360SOL     OW33171   4.697   5.713   6.019 -0.6757 -0.7269  0.0487
 8360SOL    HW233172   4.627   5.713   6.084 -1.0520  0.1323 -0.3505
 8360SOL    HW333173   4.750   5.790   6.039 -1.1543 -0.0878 -1.0233
 8360SOL    MW433174   4.695   5.723   6.030  0.3042  0.1154 -0.3943
 8361SOL     OW33175   4.507   0.636   5.169 -0.5468  0.1816  0.4230
 8361SOL    HW233176   4.575   0.571   5.184 -0.2248  0.2361 -0.7056
 8361SOL    HW333177   4.495   0.637   5.074 -1.6086  0.6943  0.5499
 8361SOL    MW433178   4.515   0.628   5.158 -0.2635  0.1352 -0.1125
 8362SOL     OW33179   2.166   3.946   0.496  0.3683  0.4582  0.0256
 8362SOL    HW233180   2.137   3.952   0.588  0.0640  0.5942 -0.0778
 8362SOL    HW333181   2.163   4.036   0.465  1.8281  0.6209  0.2859
 8362SOL    MW433182   2.162   3.959   0.504 -0.0479  0.2258 -0.7573
 8363SOL     OW33183   1.816   4.204   5.557  0.7611  0.3628 -0.0157
 8363SOL    HW233184   1.782   4.276   5.504  1.4630 -0.1297 -1.1771
 8363SOL    HW333185   1.745   4.139   5.558  0.4590  0.6930  0.3036
 8363SOL    MW433186   1.802   4.205   5.550 -0.0280 -0.3368  0.3325
 8364SOL     OW33187   2.861   2.525   1.386 -0.3629 -0.3399 -0.4931
 8364SOL    HW233188   2.799   2.540   1.458  1.9421 -1.3808  1.9066
 8364SOL    HW333189   2.856   2.430   1.371  1.1417 -0.5875  0.3359
 8364SOL    MW433190   2.852   2.514   1.394 -1.0058 -0.4363 -0.5924
 8365SOL     OW33191   4.859   4.422   1.700  0.3585 -0.0047 -0.3648
 8365SOL    HW233192   4.920   4.404   1.628  2.1427  1.2973  0.7296
 8365SOL    HW333193   4.840   4.337   1.737 -0.1417 -0.6429 -1.9874
 8365SOL    MW433194   4.865   4.409   1.695 -0.1810  0.1464  0.4958
 8366SOL     OW33195   3.584   5.992   0.606  0.0593  0.5178  0.8523
 8366SOL    HW233196   3.678   6.009   0.606  0.7732 -2.6812  1.4422
 8366SOL    HW333197   3.553   6.025   0.521  0.9759  4.4659  1.8657
 8366SOL    MW433198   3.592   5.999   0.595  0.3036 -0.5121  0.1986
 8367SOL     OW33199   1.680   4.153   4.289 -0.7671 -0.1293  0.6512
 8367SOL    HW233200   1.730   4.074   4.311  2.1784  1.3101 -0.3001
 8367SOL    HW333201   1.683   4.206   4.369 -0.8993 -0.0870  0.6284
 8367SOL    MW433202   1.687   4.150   4.302 -0.0222  0.1162 -0.1199
 8368SOL     OW33203   1.763   4.195   2.976  0.3601 -0.6382  0.7715
 8368SOL    HW233204   1.857   4.174   2.973  0.5055  0.0053  0.6833
 8368SOL    HW333205   1.743   4.201   3.069  0.5888  0.0090  0.7817
 8368SOL    MW433206   1.773   4.193   2.988 -0.1516  0.2623 -0.4465
 8369SOL     OW33207   0.527   4.970   6.290 -0.6186  0.2366 -0.2398
 8369SOL    HW233208   0.484   4.909   6.350 -3.4164  0.7784 -1.5219
 8369SOL    HW333209   0.533   4.922   6.207  1.6330  0.0871 -0.0487
 8369SOL    MW433210   0.522   4.956   6.287 -0.1083  0.1096 -0.2310
 8370SOL     OW33211   4.346   5.016   1.653 -0.0177  0.3456 -0.3475
 8370SOL    HW233212   4.273   4.995   1.595  1.4577 -2.5321 -1.3433
 8370SOL    HW333213   4.404   5.070   1.598 -1.3231  2.7454  0.4852
 8370SOL    MW433214   4.344   5.020   1.638 -0.2213  0.1473 -0.2058
 8371SOL     OW33215   1.629   5.813   0.922 -0.2278  0.7689  0.2864
 8371SOL    HW233216   1.641   5.880   0.989 -0.8460  0.4717  0.7109
 8371SOL    HW333217   1.701   5.826   0.861 -0.4190  1.9104  0.2825
 8371SOL    MW433218   1.640   5.823   0.923 -0.3285  0.3084 -0.2266
 8372SOL     OW33219   3.126   4.648   0.524 -0.1723  0.1707 -0.4748
 8372SOL    HW233220   3.160   4.590   0.456  0.0393 -0.5676  0.2302
 8372SOL    HW333221   3.031   4.631   0.525 -0.1381 -0.0288 -0.4083
 8372SOL    MW433222   3.118   4.638   0.515 -0.4964  0.0623 -0.5025
 8373SOL     OW33223   0.959   0.758   1.611 -0.3108  0.1505  0.7443
 8373SOL    HW233224   1.031   0.807   1.571 -1.4945  1.5271  0.1929
 8373SOL    HW333225   0.998   0.675   1.637  1.5113  0.9289  0.6494
 8373SOL    MW433226   0.973   0.753   1.609  0.3210  0.4081  0.1011
 8374SOL     OW33227   0.257   2.326   1.175  0.4401  0.2810 -0.1590
 8374SOL    HW233228   0.174   2.343   1.219 -0.0077  0.3260 -0.9928
 8374SOL    HW333229   0.317   2.301   1.245 -0.7061 -1.3712  0.2948
 8374SOL    MW433230   0.254   2.325   1.190 -0.4265  0.0896  0.3231
 8375SOL     OW33231   3.874   1.780   4.726  0.5529 -0.0374  0.1701
 8375SOL    HW233232   3.844   1.746   4.810  0.4197  0.8144  0.4850
 8375SOL    HW333233   3.819   1.737   4.660 -0.2789  0.3191  0.6237
 8375SOL    MW433234   3.863   1.770   4.728  0.3256 -0.6350 -0.4548
 8376SOL     OW33235   2.180   5.520   0.693 -0.0592  0.0022  0.1745
 8376SOL    HW233236   2.161   5.573   0.771  3.1097 -2.0898  2.6763
 8376SOL    HW333237   2.230   5.579   0.636 -0.3978  0.9125  0.7850
 8376SOL    MW433238   2.184   5.535   0.696 -0.0427  0.4947  0.3591
 8377SOL     OW33239   5.998   0.691   4.846  0.1330  0.0788  0.0724
 8377SOL    HW233240   5.941   0.757   4.886 -1.6642 -1.9689  1.1062
 8377SOL    HW333241   5.975   0.692   4.753 -1.8976 -0.9526  0.5303
 8377SOL    MW433242   5.987   0.700   4.839  0.3185 -0.1566  0.2594
 8378SOL     OW33243   3.773   6.105   2.280  0.2738  0.7192  0.4699
 8378SOL    HW233244   3.770   6.018   2.239  0.3372  1.2064 -0.6069
 8378SOL    HW333245   3.684   6.119   2.312  0.1921  0.3636  0.4056
 8378SOL    MW433246   3.761   6.095   2.279  0.0152 -0.5172  0.0154
 8379SOL     OW33247   2.942   4.159   4.686 -0.0488 -0.1988 -0.3342
 8379SOL    HW233248   2.970   4.189   4.600 -1.0807 -0.7112 -0.8584
 8379SOL    HW333249   2.957   4.235   4.743  0.5478  0.1751 -0.9750
 8379SOL    MW433250   2.948   4.173   4.682  0.1757 -0.3617  0.3693
 8380SOL     OW33251   2.190   0.172   3.532  0.4979 -0.3405  0.3570
 8380SOL    HW233252   2.254   0.105   3.510  1.5508 -0.2320  2.7414
 8380SOL    HW333253   2.204   0.188   3.625 -1.2817  1.5542  0.3647
 8380SOL    MW433254   2.201   0.166   3.541 -0.3208  0.4012 -0.3766
 8381SOL     OW33255   5.423   1.440   0.885  0.5444  0.2774  0.0767
 8381SOL    HW233256   5.499   1.393   0.852 -0.1245  0.0303 -1.1684
 8381SOL    HW333257   5.349   1.382   0.867 -0.1073  1.1101 -0.0296
 8381SOL    MW433258   5.423   1.426   0.878  0.4110 -0.0912 -0.2465
 8382SOL     OW33259   3.517   0.440   2.471  0.1553 -0.0463 -0.1603
 8382SOL    HW233260   3.492   0.457   2.561  1.8211 -0.0118  0.3225
 8382SOL    HW333261   3.550   0.523   2.439 -1.2608  0.1883 -1.1367
 8382SOL    MW433262   3.518   0.453   2.478  0.5158  0.1892 -0.4608
 8383SOL     OW33263   5.816   3.621   3.269  0.0508 -0.2797  0.1457
 8383SOL    HW233264   5.874   3.546   3.282 -1.1293 -1.4359 -0.8861
 8383SOL    HW333265   5.773   3.603   3.185 -1.1819  0.9344  0.4778
 8383SOL    MW433266   5.818   3.609   3.259 -0.8315 -0.7136  0.0294
 8384SOL     OW33267   2.304   1.323   3.962  0.0487  1.1324 -0.3507
 8384SOL    HW233268   2.374   1.302   4.023  0.2967 -4.1197 -2.0274
 8384SOL    HW333269   2.338   1.298   3.876 -3.6680 -1.7981 -1.2363
 8384SOL    MW433270   2.317   1.317   3.959  0.1073 -0.6104 -0.4666
 8385SOL     OW33271   0.437   5.945   1.238  0.1794  0.2902  0.1867
 8385SOL    HW233272   0.423   6.029   1.279  0.4432 -0.0497  0.9882
 8385SOL    HW333273   0.398   5.881   1.297  3.2655 -0.5063  1.5828
 8385SOL    MW433274   0.430   5.947   1.251 -0.2107  0.1359  0.2297
 8386SOL     OW33275   2.686   5.289   5.249 -0.2366 -0.0333  0.2645
 8386SOL    HW233276   2.775   5.293   5.284  0.7254 -0.4394 -1.9327
 8386SOL    HW333277   2.691   5.224   5.179 -2.0450  0.5446 -0.4593
 8386SOL    MW433278   2.698   5.281   5.244 -0.7628  0.5703 -0.5572
 8387SOL     OW33279   2.281   4.540   3.854 -0.0062 -0.0263 -0.4950
 8387SOL    HW233280   2.268   4.463   3.910  2.2038 -0.3860 -0.3590
 8387SOL    HW333281   2.198   4.550   3.808 -0.6814 -1.9337  0.1735
 8387SOL    MW433282   2.268   4.531   3.855  0.0802 -0.2655  0.5872
 8388SOL     OW33283   4.603   5.041   6.362 -0.1215 -0.2472  0.1564
 8388SOL    HW233284   4.566   5.009   6.444 -0.2699 -2.2887 -0.6486
 8388SOL    HW333285   4.528   5.069   6.311 -0.1249 -0.0036  0.2930
 8388SOL    MW433286   4.589   5.040   6.366  0.3148 -0.1723 -0.0863
 8389SOL     OW33287   5.540   1.742   6.388  0.7848  0.4247  0.2291
 8389SOL    HW233288   5.546   1.832   6.358  1.5597  0.2030 -0.3135
 8389SOL    HW333289   5.631   1.712   6.393  0.4878 -0.6775 -0.6844
 8389SOL    MW433290   5.553   1.750   6.385  0.0169 -0.0982 -0.5923
 8390SOL     OW33291   5.380   2.430   0.120  0.2897  0.4173  0.0151
 8390SOL    HW233292   5.327   2.428   0.199 -1.5424 -0.5989 -1.1583
 8390SOL    HW333293   5.335   2.492   0.062  0.7134  0.0008 -0.7896
 8390SOL    MW433294   5.367   2.438   0.123  0.4238 -0.8048  0.1553
 8391SOL     OW33295   0.621   2.834   1.560  0.2265  0.0375 -0.1790
 8391SOL    HW233296   0.613   2.749   1.603  0.6123 -1.1470 -2.3078
 8391SOL    HW333297   0.594   2.817   1.469 -2.7202  2.8813 -0.0203
 8391SOL    MW433298   0.616   2.820   1.554 -0.4232 -0.2865  0.0350
 8392SOL     OW33299   5.110   4.749   1.280 -0.0370 -0.3214  0.6210
 8392SOL    HW233300   5.132   4.838   1.253 -2.1157 -0.2362 -1.0804
 8392SOL    HW333301   5.117   4.751   1.376 -0.0113  1.6594  0.6248
 8392SOL    MW433302   5.114   4.761   1.289  0.0189  0.8107 -0.5531
 8393SOL     OW33303   5.205   3.983   2.125 -0.1618 -0.0982 -0.1060
 8393SOL    HW233304   5.257   4.008   2.201 -0.5021  1.5301 -0.3594
 8393SOL    HW333305   5.254   4.017   2.050 -0.0371 -1.3245 -0.5952
 8393SOL    MW433306   5.218   3.991   2.125 -0.1927  0.6761  0.1334
 8394SOL     OW33307   4.716   5.523   1.728  0.4163  0.1197  0.3812
 8394SOL    HW233308   4.791   5.506   1.671  0.8569  2.0473  0.3050
 8394SOL    HW333309   4.734   5.471   1.807  0.8315 -0.9513 -0.3898
 8394SOL    MW433310   4.729   5.514   1.731  0.1264  0.1554  0.0924
 8395SOL     OW33311   1.777   4.894   5.646  0.4348 -0.0866 -0.4199
 8395SOL    HW233312   1.847   4.861   5.702  0.2680  1.4947  0.7862
 8395SOL    HW333313   1.697   4.875   5.693  0.1986  0.1256 -0.7297
 8395SOL    MW433314   1.776   4.887   5.659 -0.0934 -0.2065  0.6449
 8396SOL     OW33315   0.212   1.083   0.694 -0.3166  0.0746 -0.1041
 8396SOL    HW233316   0.143   1.103   0.631  0.4150  1.8264 -0.4142
 8396SOL    HW333317   0.244   1.168   0.723  2.8121 -0.5789 -1.2330
 8396SOL    MW433318   0.207   1.097   0.689 -0.3308 -0.3832 -0.2293
 8397SOL     OW33319   1.608   1.018   1.675  0.3439 -0.1756 -0.2401
 8397SOL    HW233320   1.615   0.973   1.759  1.9419  0.3533 -0.0610
 8397SOL    HW333321   1.635   1.108   1.693  0.3384  0.0414 -1.2462
 8397SOL    MW433322   1.612   1.024   1.688 -0.4356 -0.4114  0.0135
 8398SOL     OW33323   3.609   3.754   2.688 -0.1039  0.0040 -0.3168
 8398SOL    HW233324   3.684   3.695   2.677  0.9065  1.3916 -1.2772
 8398SOL    HW333325   3.613   3.812   2.612 -2.0712  0.2419 -0.2861
 8398SOL    MW433326   3.620   3.754   2.677 -0.0304  0.0939 -0.2368
 8399SOL     OW33327   0.122   5.250   0.496 -0.4081  0.2042  0.0066
 8399SOL    HW233328   0.171   5.320   0.453 -0.4206  0.2815  0.1185
 8399SOL    HW333329   0.033   5.284   0.505 -0.5166  0.0132 -0.3151
 8399SOL    MW433330   0.117   5.264   0.492 -0.7603 -0.3001 -0.2900
 8400SOL     OW33331   2.589   3.209   4.821  0.3332  0.2111 -0.6959
 8400SOL    HW233332   2.563   3.300   4.805 -0.2611 -0.0260 -1.1594
 8400SOL    HW333333   2.670   3.215   4.871 -0.1475  0.9957  0.0096
 8400SOL    MW433334   2.596   3.222   4.825 -0.4957 -0.2434  0.0422
 8401SOL     OW33335   1.737   6.025   5.003  0.7869  0.5108  0.7751
 8401SOL    HW233336   1.714   5.966   5.075 -1.6476 -1.4091 -1.3776
 8401SOL    HW333337   1.783   5.969   4.940  0.3946  1.4121 -0.3589
 8401SOL    MW433338   1.740   6.010   5.004  0.1293  0.4083  0.1742
 8402SOL     OW33339   4.227   5.035   3.010 -0.4080  0.3218 -0.0748
 8402SOL    HW233340   4.178   4.957   3.035  1.6810 -0.9072  0.4438
 8402SOL    HW333341   4.235   5.085   3.091  0.9564 -0.5560  0.3817
 8402SOL    MW433342   4.222   5.031   3.024  0.1312 -0.2151 -0.2740
 8403SOL     OW33343   3.260   3.340   0.337 -0.1098 -0.2274  0.2875
 8403SOL    HW233344   3.214   3.270   0.291  0.2036  0.0139 -0.4109
 8403SOL    HW333345   3.291   3.299   0.418 -0.6745 -0.6609  0.2872
 8403SOL    MW433346   3.258   3.325   0.341 -0.0230 -0.4407  0.1581
 8404SOL     OW33347   6.115   6.010   4.909  0.4944 -0.3581  0.1762
 8404SOL    HW233348   6.093   6.089   4.859  1.8591  0.7480  1.2442
 8404SOL    HW333349   6.149   5.949   4.844  0.3342  0.3019 -0.5388
 8404SOL    MW433350   6.116   6.012   4.894 -0.3514  0.0326 -0.1633
 8405SOL     OW33351   2.482   4.465   2.336  0.4489  0.0665  0.1659
 8405SOL    HW233352   2.538   4.414   2.395 -0.4188 -1.7642 -0.5311
 8405SOL    HW333353   2.509   4.439   2.248 -0.8516 -0.1374 -0.1952
 8405SOL    MW433354   2.493   4.455   2.332 -0.5517 -0.3557 -0.3967
 8406SOL     OW33355   6.025   2.516   5.237  0.2459 -0.3382  0.2278
 8406SOL    HW233356   5.978   2.462   5.300 -1.3687  0.5753 -0.1555
 8406SOL    HW333357   6.114   2.478   5.236 -0.4300 -2.0837  0.9836
 8406SOL    MW433358   6.031   2.504   5.246  0.4807 -0.8410 -0.4008
 8407SOL     OW33359   0.415   0.996   5.985 -0.5052 -0.7379 -0.3179
 8407SOL    HW233360   0.438   1.088   5.997  1.1983 -0.8789 -2.1218
 8407SOL    HW333361   0.436   0.977   5.894 -0.5631 -2.9952  0.0822
 8407SOL    MW433362   0.421   1.005   5.975  0.4206  0.1029  0.0382
 8408SOL     OW33363   3.138   4.704   1.438  0.0721 -0.2256  0.2599
 8408SOL    HW233364   3.129   4.645   1.363  1.0025 -0.7946  0.5785
 8408SOL    HW333365   3.144   4.791   1.399 -1.7150 -0.2620 -0.2035
 8408SOL    MW433366   3.138   4.707   1.423  0.4023 -0.1140 -0.1367
 8409SOL     OW33367   5.121   1.177   6.051 -1.1646 -0.1662 -0.3415
 8409SOL    HW233368   5.071   1.220   5.982 -1.8883 -3.0099 -1.7334
 8409SOL    HW333369   5.212   1.185   6.024 -1.1420  1.4868  0.0958
 8409SOL    MW433370   5.127   1.184   6.039  0.5367 -0.6929 -0.6192
 8410SOL     OW33371   3.898   0.345   4.952 -0.0430 -0.8120  0.0965
 8410SOL    HW233372   3.947   0.361   5.032 -0.5033  1.8592 -0.0669
 8410SOL    HW333373   3.809   0.376   4.971 -0.0582  0.3141 -1.5402
 8410SOL    MW433374   3.893   0.351   4.965 -0.1067 -0.3126 -0.4681
 8411SOL     OW33375   2.677   1.875   6.244 -0.0586 -0.0015 -0.4185
 8411SOL    HW233376   2.718   1.798   6.207  0.3973  0.3751 -0.6986
 8411SOL    HW333377   2.598   1.841   6.288 -1.1066 -0.3612 -2.4460
 8411SOL    MW433378   2.672   1.860   6.245 -0.0374 -0.3437  0.5741
 8412SOL     OW33379   4.075   6.054   6.369 -0.3823  0.1935  0.5701
 8412SOL    HW233380   4.047   5.977   6.319  0.0689  0.9241 -0.8497
 8412SOL    HW333381   3.993   6.095   6.397 -0.6310 -0.5451  0.9474
 8412SOL    MW433382   4.060   6.049   6.366  0.8783  0.3976  0.0731
 8413SOL     OW33383   1.446   1.698   5.504  0.0306  0.2971  0.2939
 8413SOL    HW233384   1.440   1.786   5.468 -1.6341  0.1463  0.0889
 8413SOL    HW333385   1.363   1.656   5.479 -0.3887 -0.4524  2.6047
 8413SOL    MW433386   1.434   1.704   5.496  0.3837 -0.0018  0.2102
 8414SOL     OW33387   5.116   0.424   1.250  0.4324  0.9156 -0.6642
 8414SOL    HW233388   5.155   0.414   1.163 -0.6738  1.3380 -1.2326
 8414SOL    HW333389   5.142   0.344   1.297  2.2205  1.3307 -0.8824
 8414SOL    MW433390   5.124   0.412   1.245 -0.0759 -0.1706  0.3025
 8415SOL     OW33391   6.084   1.152   2.425 -0.3349 -0.2631 -0.2143
 8415SOL    HW233392   6.066   1.058   2.419 -2.4008 -0.0203  1.2163
 8415SOL    HW333393   6.002   1.194   2.397  0.1557  1.0908  0.3254
 8415SOL    MW433394   6.071   1.145   2.420  0.0638 -0.1269 -0.3094
 8416SOL     OW33395   1.168   3.814   4.929 -0.3070 -0.3122 -0.0746
 8416SOL    HW233396   1.163   3.718   4.922 -1.3692 -0.3548  0.9543
 8416SOL    HW333397   1.125   3.834   5.012 -0.0252  1.0683 -0.2360
 8416SOL    MW433398   1.162   3.804   4.939  0.3527 -0.0085  0.8671
 8417SOL     OW33399   5.226   4.331   2.949  0.5242 -0.4412 -0.0027
 8417SOL    HW233400   5.249   4.286   2.868 -0.0809  0.1234 -0.4956
 8417SOL    HW333401   5.170   4.269   2.996 -2.1572  0.5664 -1.6830
 8417SOL    MW433402   5.222   4.317   2.945 -0.6355 -0.4893  0.2417
 8418SOL     OW33403   2.391   1.777   6.148  0.9174  0.4292 -0.4203
 8418SOL    HW233404   2.360   1.728   6.224 -1.2828  1.5670 -0.4978
 8418SOL    HW333405   2.422   1.859   6.184 -2.1466  1.8996 -0.7758
 8418SOL    MW433406   2.391   1.781   6.163 -0.2409  0.3455  0.2464
 8419SOL     OW33407   2.028   4.568   3.744 -0.1150  0.5396  0.5899
 8419SOL    HW233408   2.011   4.661   3.755  0.5359  0.6414  0.8257
 8419SOL    HW333409   2.049   4.558   3.651 -0.6808  0.5389  0.4590
 8419SOL    MW433410   2.029   4.579   3.733 -0.5096  0.4413 -0.6213
 8420SOL     OW33411   5.322   6.279   0.681 -0.5768 -0.0932  0.5157
 8420SOL    HW233412   5.264   6.268   0.606 -0.1434 -1.0718  0.3049
 8420SOL    HW333413   5.339   6.373   0.685  0.8117 -0.1793 -1.7088
 8420SOL    MW433414   5.317   6.290   0.672  0.4443 -0.4674  0.3684
 8421SOL     OW33415   3.262   4.255   1.639  0.3448 -0.6104 -0.4671
 8421SOL    HW233416   3.217   4.172   1.653 -0.2194 -0.0381  1.4684
 8421SOL    HW333417   3.211   4.319   1.689  0.6464  0.9504 -2.0699
 8421SOL    MW433418   3.250   4.253   1.648  0.4564 -0.2280 -0.9702
 8422SOL     OW33419   2.635   0.219   2.435 -0.1573  0.0580  0.1333
 8422SOL    HW233420   2.566   0.172   2.481 -0.3917 -0.9121 -1.1552
 8422SOL    HW333421   2.589   0.282   2.379  0.0747  0.4942  0.4253
 8422SOL    MW433422   2.620   0.221   2.433  0.3150 -0.3200 -0.7795
 8423SOL     OW33423   3.392   5.511   2.189 -0.2914 -0.1484  0.0664
 8423SOL    HW233424   3.299   5.526   2.203 -0.4178 -0.3790 -0.4968
 8423SOL    HW333425   3.429   5.509   2.277 -1.2344 -2.6561  0.4881
 8423SOL    MW433426   3.385   5.512   2.202  0.1051  0.0613  0.5911
 8424SOL     OW33427   3.225   1.720   1.174  0.0387  0.0936 -0.7160
 8424SOL    HW233428   3.148   1.774   1.192  1.2998  1.2001  1.7034
 8424SOL    HW333429   3.295   1.783   1.155  1.5917 -0.5088  2.3603
 8424SOL    MW433430   3.224   1.736   1.174  0.0216 -0.7115  0.5020
 8425SOL     OW33431   6.020   0.502   2.345  0.5220  0.1812  0.3663
 8425SOL    HW233432   6.047   0.522   2.256  0.3993  1.2567  0.5597
 8425SOL    HW333433   6.061   0.569   2.399 -1.7216  1.3321  0.7754
 8425SOL    MW433434   6.029   0.513   2.340  0.0393 -0.4760 -0.6332
 8426SOL     OW33435   6.340   5.645   2.032  0.3389  0.1571  0.0699
 8426SOL    HW233436   6.308   5.712   1.971  0.2610  0.2435  0.2070
 8426SOL    HW333437   6.421   5.614   1.992  0.1054 -0.0413 -0.2685
 8426SOL    MW433438   6.346   5.650   2.018 -0.4345 -0.1168 -0.0696
 8427SOL     OW33439   0.943   2.438   1.138 -0.3481 -0.0536  0.4291
 8427SOL    HW233440   1.011   2.404   1.196 -0.6483  0.2263  0.9473
 8427SOL    HW333441   0.978   2.422   1.050  0.7879  0.8632  0.6816
 8427SOL    MW433442   0.957   2.431   1.134  0.2424 -0.1890  0.0593
 8428SOL     OW33443   2.148   3.690   2.722 -0.7221  0.3572 -0.1523
 8428SOL    HW233444   2.098   3.676   2.803  0.3916  0.0662  0.5113
 8428SOL    HW333445   2.230   3.642   2.736 -0.1560  1.0090 -1.1063
 8428SOL    MW433446   2.153   3.682   2.735 -0.6590 -0.9904 -0.2181
 8429SOL     OW33447   2.240   1.038   3.954  0.2191 -0.2646 -0.5883
 8429SOL    HW233448   2.194   1.004   3.878  1.8794  0.4604 -1.9812
 8429SOL    HW333449   2.260   1.129   3.932  1.2902 -0.2318  0.4153
 8429SOL    MW433450   2.237   1.045   3.941 -0.3158 -0.0868 -0.2710
 8430SOL     OW33451   5.745   3.420   4.201 -0.4097 -0.2733  0.8223
 8430SOL    HW233452   5.650   3.405   4.205 -0.5573  0.3561 -0.0139
 8430SOL    HW333453   5.761   3.485   4.270 -0.4500 -0.9803  1.5095
 8430SOL    MW433454   5.734   3.427   4.210 -0.2104 -0.2955  0.0939
 8431SOL     OW33455   2.785   1.855   4.569 -0.0990  0.0822  0.1204
 8431SOL    HW233456   2.741   1.800   4.634 -0.3153 -1.7532 -1.4889
 8431SOL    HW333457   2.713   1.890   4.516  0.1197  0.9984  0.4134
 8431SOL    MW433458   2.769   1.853   4.571 -0.1244  0.2923  0.0072
 8432SOL     OW33459   0.137   2.800   0.751 -0.9566 -0.0790 -0.1397
 8432SOL    HW233460   0.099   2.796   0.839 -0.0210  0.2090  0.2932
 8432SOL    HW333461   0.202   2.730   0.750 -1.7491 -0.8234 -1.0081
 8432SOL    MW433462   0.140   2.790   0.763  0.4752  0.1168 -0.3005
 8433SOL     OW33463   3.309   1.255   5.020  0.3093 -0.2604  0.7011
 8433SOL    HW233464   3.385   1.287   4.970  0.2649 -1.0394  0.0975
 8433SOL    HW333465   3.342   1.242   5.109  0.5728  0.5216  0.7188
 8433SOL    MW433466   3.323   1.257   5.025  0.5663 -0.0169  0.3545
 8434SOL     OW33467   3.395   2.446   4.463  0.2350  0.7378  0.8136
 8434SOL    HW233468   3.423   2.511   4.399  0.9344  0.5855  0.9550
 8434SOL    HW333469   3.428   2.363   4.429 -1.0929  0.3627  0.3713
 8434SOL    MW433470   3.403   2.444   4.450  0.5978  0.0229  0.4362
 8435SOL     OW33471   5.099   2.305   5.955 -0.4143 -0.3688 -0.4339
 8435SOL    HW233472   5.066   2.219   5.979 -1.4145  0.2277  0.4132
 8435SOL    HW333473   5.161   2.288   5.884 -1.2445 -1.6940 -0.8727
 8435SOL    MW433474   5.103   2.291   5.949  0.2538  0.3151 -0.4878
 8436SOL     OW33475   1.765   0.296   5.585 -0.1390 -0.0190 -0.3024
 8436SOL    HW233476   1.674   0.269   5.576 -0.2716  0.5465 -0.6698
 8436SOL    HW333477   1.811   0.245   5.518 -0.3970  0.6788 -1.0250
 8436SOL    MW433478   1.759   0.286   5.575 -0.4032 -0.8662  0.3162
 8437SOL     OW33479   4.145   5.796   2.427 -0.1758  0.2365  0.0459
 8437SOL    HW233480   4.235   5.798   2.459 -1.1752  0.4929  3.1628
 8437SOL    HW333481   4.117   5.888   2.427 -0.8006  0.0525  0.2169
 8437SOL    MW433482   4.153   5.808   2.431 -0.5683 -0.0025 -0.7819
 8438SOL     OW33483   1.085   0.617   6.123 -0.2428 -0.6463  0.1348
 8438SOL    HW233484   1.043   0.607   6.208  0.4418 -0.5225  0.4986
 8438SOL    HW333485   1.058   0.541   6.072  0.7141 -1.6390  1.0553
 8438SOL    MW433486   1.076   0.606   6.128 -0.5675  0.0761  0.4514
 8439SOL     OW33487   0.416   3.916   5.006 -0.2013  0.2887 -0.0727
 8439SOL    HW233488   0.391   3.851   4.941 -0.4512 -0.0516  0.3597
 8439SOL    HW333489   0.482   3.970   4.963 -0.9840  0.6063 -0.9043
 8439SOL    MW433490   0.421   3.915   4.992 -0.5469 -0.2803  0.3625
 8440SOL     OW33491   0.601   3.800   1.349 -0.0623  0.3279  0.6136
 8440SOL    HW233492   0.538   3.795   1.277 -1.0150  0.8232  1.3967
 8440SOL    HW333493   0.605   3.710   1.383  1.9562 -0.4140 -1.3082
 8440SOL    MW433494   0.593   3.787   1.344  0.4639 -0.3259 -0.2490
 8441SOL     OW33495   6.254   2.308   2.710 -0.4306  0.2376 -0.4987
 8441SOL    HW233496   6.163   2.290   2.686 -0.5479  2.0216 -1.6115
 8441SOL    HW333497   6.249   2.389   2.761  0.6947  2.3031 -3.3343
 8441SOL    MW433498   6.241   2.316   2.713  0.2887  0.8372  0.1754
 8442SOL     OW33499   0.875   2.655   3.541 -0.3907  0.0565 -0.0034
 8442SOL    HW233500   0.960   2.664   3.497 -1.8169  0.3179 -2.8983
 8442SOL    HW333501   0.841   2.572   3.509 -1.5780  0.3389  0.4971
 8442SOL    MW433502   0.882   2.645   3.531 -0.3593 -0.3826 -0.8685
 8443SOL     OW33503   3.698   2.474   1.642 -0.2782 -0.8514  0.0485
 8443SOL    HW233504   3.684   2.537   1.713 -0.1366 -1.8678  0.9881
 8443SOL    HW333505   3.789   2.445   1.653 -0.2694 -1.0641 -0.5239
 8443SOL    MW433506   3.708   2.479   1.653 -0.0799  0.2698  0.6390
 8444SOL     OW33507   2.817   1.682   1.152  0.2663 -0.4635 -0.2408
 8444SOL    HW233508   2.865   1.634   1.084 -0.8607  0.0720 -1.4579
 8444SOL    HW333509   2.859   1.768   1.156 -1.2333  0.4159 -2.1257
 8444SOL    MW433510   2.829   1.687   1.144  0.2987  0.1390  0.3834
 8445SOL     OW33511   2.324   4.269   5.704 -0.6135 -0.2628 -0.1335
 8445SOL    HW233512   2.375   4.268   5.785 -1.5567 -2.1615  0.4807
 8445SOL    HW333513   2.324   4.178   5.674 -2.0020  0.0346 -1.1544
 8445SOL    MW433514   2.331   4.257   5.711 -0.0592  0.1067 -0.1397
 8446SOL     OW33515   4.375   2.860   3.216  0.2133  0.0872  0.5165
 8446SOL    HW233516   4.418   2.848   3.132  1.4661 -0.1779  1.1764
 8446SOL    HW333517   4.415   2.937   3.254  0.0340 -0.0974  1.1001
 8446SOL    MW433518   4.386   2.868   3.210  0.0067  0.0392  0.8402
 8447SOL     OW33519   3.157   2.148   2.359 -0.0883 -0.2342 -0.0090
 8447SOL    HW233520   3.062   2.135   2.364 -0.0561 -0.2424  0.7531
 8447SOL    HW333521   3.192   2.093   2.429  0.4137  0.3840  0.2310
 8447SOL    MW433522   3.149   2.139   2.369  0.2565  0.1727  0.0666
 8448SOL     OW33523   1.118   3.007   2.907  0.3514  0.0039 -0.0748
 8448SOL    HW233524   1.142   2.926   2.953  0.4925  0.3962  0.5563
 8448SOL    HW333525   1.033   3.031   2.945 -0.7349 -0.9756 -1.7635
 8448SOL    MW433526   1.110   2.999   2.918  0.5230  0.0777  0.1088
 8449SOL     OW33527   1.617   5.084   0.726 -0.3498  0.1606  0.2434
 8449SOL    HW233528   1.639   5.022   0.656  0.0881  1.3427 -0.7201
 8449SOL    HW333529   1.551   5.039   0.778 -1.2650 -0.4819 -1.3934
 8449SOL    MW433530   1.612   5.070   0.723 -0.3269  0.7676  0.0859
 8450SOL     OW33531   4.032   2.432   5.181  0.4584  0.0120  0.3076
 8450SOL    HW233532   4.013   2.345   5.147 -0.8209 -0.1385  1.3225
 8450SOL    HW333533   4.122   2.426   5.212  1.2634 -0.1718 -1.9084
 8450SOL    MW433534   4.041   2.420   5.181  0.1450 -0.1899 -0.1856
 8451SOL     OW33535   6.297   4.490   1.262  0.6343  0.7608  0.1757
 8451SOL    HW233536   6.282   4.582   1.281  1.7478  0.6655  1.7466
 8451SOL    HW333537   6.389   4.475   1.286  0.9036 -0.4324 -1.4310
 8451SOL    MW433538   6.308   4.500   1.268 -0.0267  0.3293 -0.4991
 8452SOL     OW33539   3.469   0.833   4.597  0.2326  0.4551 -0.2171
 8452SOL    HW233540   3.405   0.779   4.644  0.1572  1.3240  0.7198
 8452SOL    HW333541   3.416   0.891   4.542  0.2654  0.3022 -0.4085
 8452SOL    MW433542   3.454   0.834   4.596 -0.6661  0.6378  0.2715
 8453SOL     OW33543   2.599   4.557   5.768  0.5703  0.2809 -0.1050
 8453SOL    HW233544   2.690   4.525   5.767  1.0376  1.4183  1.8829
 8453SOL    HW333545   2.603   4.641   5.813 -1.3986  0.7000 -0.6037
 8453SOL    MW433546   2.612   4.564   5.773 -0.4943 -0.5215 -0.0450
 8454SOL     OW33547   5.034   4.166   3.057  0.0901  0.2365  0.4264
 8454SOL    HW233548   5.042   4.217   3.137 -1.0066  0.5399  0.3576
 8454SOL    HW333549   4.940   4.164   3.039 -0.0022 -2.4238  0.8280
 8454SOL    MW433550   5.023   4.172   3.065  0.3550  0.4340 -0.1429
 8455SOL     OW33551   1.237   0.104   0.532  0.2514 -0.8815 -0.2850
 8455SOL    HW233552   1.285   0.145   0.605  0.0695 -1.1907  0.0081
 8455SOL    HW333553   1.295   0.034   0.502  1.8234  1.2237 -2.5523
 8455SOL    MW433554   1.251   0.100   0.538 -0.1179  0.0433  0.0005
 8456SOL     OW33555   1.525   6.023   1.948  0.1907 -0.4395 -0.2182
 8456SOL    HW233556   1.526   5.949   2.010  0.0389 -0.0739  0.2309
 8456SOL    HW333557   1.433   6.029   1.921  0.1506 -0.2497 -0.0450
 8456SOL    MW433558   1.513   6.014   1.953  0.3108 -0.1894  0.1607
 8457SOL     OW33559   0.662   5.693   1.392 -0.1418  0.1937 -0.3338
 8457SOL    HW233560   0.719   5.754   1.437  0.4738  0.3668 -1.3131
 8457SOL    HW333561   0.690   5.696   1.300 -1.9870  0.6009 -0.9340
 8457SOL    MW433562   0.673   5.701   1.386 -0.2957 -0.0627  0.0775
 8458SOL     OW33563   4.534   3.565   3.226  0.1425 -0.4012 -0.0906
 8458SOL    HW233564   4.455   3.579   3.174 -0.3829 -0.3713  0.6953
 8458SOL    HW333565   4.503   3.523   3.306  1.2069 -2.6897 -0.7975
 8458SOL    MW433566   4.520   3.561   3.230 -0.0055 -0.3732  0.0533
 8459SOL     OW33567   3.774   5.624   5.108  0.1328 -0.4714 -0.0769
 8459SOL    HW233568   3.742   5.713   5.095  0.2436 -0.4772 -0.4056
 8459SOL    HW333569   3.696   5.574   5.135  0.1900 -0.1551  0.7044
 8459SOL    MW433570   3.759   5.629   5.110  0.5437 -0.2876 -0.4910
 8460SOL     OW33571   2.916   3.989   4.435 -0.3571 -0.0521  0.8544
 8460SOL    HW233572   2.852   4.054   4.464 -0.4124  0.5507 -0.5153
 8460SOL    HW333573   2.864   3.922   4.391 -0.2322 -0.6794  1.6474
 8460SOL    MW433574   2.901   3.989   4.433 -0.5846 -0.1521  0.3404
 8461SOL     OW33575   3.905   0.206   1.401 -0.3948  0.0830  0.9416
 8461SOL    HW233576   3.886   0.155   1.480  1.7712 -0.8318  0.9312
 8461SOL    HW333577   3.959   0.279   1.432  2.8424 -1.7612  0.0975
 8461SOL    MW433578   3.909   0.209   1.415  0.0266 -0.3736 -0.3174
 8462SOL     OW33579   2.355   1.601   2.302  0.0792 -0.3324  0.2509
 8462SOL    HW233580   2.395   1.590   2.216  1.0230 -0.9576  0.7497
 8462SOL    HW333581   2.301   1.680   2.294 -0.2808 -0.6863 -1.0602
 8462SOL    MW433582   2.353   1.610   2.289 -0.1358 -0.1265  0.3549
 8463SOL     OW33583   0.573   2.561   3.009  0.0040 -0.4010 -0.7608
 8463SOL    HW233584   0.628   2.613   3.068 -0.6731 -0.7228  0.1751
 8463SOL    HW333585   0.504   2.621   2.982 -1.6373 -1.1266  1.4872
 8463SOL    MW433586   0.571   2.576   3.013 -0.1650  0.1428 -0.5050
 8464SOL     OW33587   5.711   1.831   0.680  0.0843 -0.2922  0.5467
 8464SOL    HW233588   5.635   1.783   0.713 -0.1172  0.2978  0.9598
 8464SOL    HW333589   5.737   1.887   0.753 -0.8742  1.6712 -0.5267
 8464SOL    MW433590   5.704   1.832   0.694  0.0338 -0.2103 -0.3995
 8465SOL     OW33591   3.518   6.240   1.947 -0.1212  0.1896  0.3173
 8465SOL    HW233592   3.510   6.186   1.869  0.9164  0.3932  0.0508
 8465SOL    HW333593   3.477   6.189   2.016  2.3494 -1.8026  0.4567
 8465SOL    MW433594   3.512   6.226   1.946 -0.0524  0.5068  0.8118
 8466SOL     OW33595   2.325   0.403   3.404 -0.1739  0.5134 -0.1518
 8466SOL    HW233596   2.264   0.338   3.438  0.2896  0.6076  0.9110
 8466SOL    HW333597   2.411   0.375   3.437  0.2270  0.8915 -0.8461
 8466SOL    MW433598   2.328   0.391   3.413 -0.6293  0.1923 -0.1172
 8467SOL     OW33599   5.874   4.123   3.980 -0.6190 -0.2703  0.5514
 8467SOL    HW233600   5.913   4.037   3.961  0.4719 -0.1185  1.9366
 8467SOL    HW333601   5.780   4.111   3.965 -0.2511 -1.0477 -1.5221
 8467SOL    MW433602   5.867   4.110   3.975 -0.1243  0.2125 -0.2569
 8468SOL     OW33603   0.419   5.721   2.047  0.3114  0.0649  0.1373
 8468SOL    HW233604   0.510   5.745   2.028  0.5602 -1.4085 -0.6719
 8468SOL    HW333605   0.421   5.689   2.137  0.8412 -1.0250 -0.2439
 8468SOL    MW433606   0.431   5.720   2.057 -0.1566 -0.2204  0.2940
 8469SOL     OW33607   5.232   4.388   2.225 -0.2099  0.0824 -0.7394
 8469SOL    HW233608   5.178   4.364   2.301 -0.8857  1.3547 -0.7802
 8469SOL    HW333609   5.178   4.364   2.150 -0.1349  0.0961 -0.7971
 8469SOL    MW433610   5.217   4.381   2.225 -0.5940  0.3088  0.5187
 8470SOL     OW33611   4.405   6.243   1.395 -0.2961  0.0393 -0.0134
 8470SOL    HW233612   4.422   6.277   1.483 -1.6219 -2.9238  1.5423
 8470SOL    HW333613   4.482   6.190   1.375 -0.4387 -0.1013 -0.1851
 8470SOL    MW433614   4.417   6.241   1.404  0.0905  0.3405  0.5051
 8471SOL     OW33615   1.130   1.351   6.402  0.1894  0.6051 -0.3481
 8471SOL    HW233616   1.069   1.301   6.348  1.7049 -0.3725 -1.2452
 8471SOL    HW333617   1.179   1.284   6.451 -0.0632  1.4057  1.0454
 8471SOL    MW433618   1.128   1.335   6.401 -0.1659 -0.3353  0.3960
 8472SOL     OW33619   6.231   3.361   0.933  0.9663  0.1215 -0.1473
 8472SOL    HW233620   6.171   3.396   1.000  1.8191 -0.0310  0.7192
 8472SOL    HW333621   6.313   3.408   0.947  1.4259 -0.5610 -0.5004
 8472SOL    MW433622   6.234   3.372   0.944 -0.6275 -0.1140 -0.0253
 8473SOL     OW33623   2.614   0.727   1.195  0.1633  0.0674 -0.0639
 8473SOL    HW233624   2.655   0.800   1.242  0.3818  1.3895 -2.1941
 8473SOL    HW333625   2.529   0.760   1.167 -0.5596 -1.1776  0.5560
 8473SOL    MW433626   2.609   0.741   1.198 -0.0440 -0.3907  0.1007
 8474SOL     OW33627   2.400   2.946   3.859  0.2452 -0.5908 -0.3147
 8474SOL    HW233628   2.372   2.936   3.950  0.9687 -0.5023 -0.0796
 8474SOL    HW333629   2.441   2.863   3.837  0.3358 -0.5073 -0.4620
 8474SOL    MW433630   2.402   2.934   3.868  0.1341  0.8211  0.1874
 8475SOL     OW33631   6.391   2.059   4.014 -0.3092 -0.0379  0.4849
 8475SOL    HW233632   6.351   1.974   3.995 -0.8129  0.1378  0.7614
 8475SOL    HW333633   6.436   2.083   3.933 -0.1976 -0.5488  0.3943
 8475SOL    MW433634   6.392   2.051   4.001 -0.3606  0.3971 -0.1373
 8476SOL     OW33635   5.767   1.882   4.901  1.0529 -0.2794  0.3384
 8476SOL    HW233636   5.730   1.867   4.987  0.7674 -1.4758  0.0231
 8476SOL    HW333637   5.754   1.800   4.854 -1.5668  1.2182 -1.8805
 8476SOL    MW433638   5.760   1.870   4.906 -0.4651 -0.7962  0.6521
 8477SOL     OW33639   4.321   3.611   1.744  0.0247 -0.1624 -0.1494
 8477SOL    HW233640   4.287   3.646   1.826  1.3576  0.3975  0.1893
 8477SOL    HW333641   4.279   3.525   1.735 -0.1189 -0.2395  1.1200
 8477SOL    MW433642   4.311   3.604   1.754  0.2515 -0.0039 -0.6083
 8478SOL     OW33643   5.255   0.998   4.152 -0.1550 -0.0423  0.0518
 8478SOL    HW233644   5.160   1.003   4.139 -0.1189  1.4087  0.1973
 8478SOL    HW333645   5.272   0.905   4.166 -1.5302 -0.3520 -0.1536
 8478SOL    MW433646   5.245   0.987   4.152  0.5935  0.1506 -0.2621
 8479SOL     OW33647   2.017   0.640   4.505  0.3166  0.2005 -0.3486
 8479SOL    HW233648   2.075   0.716   4.511  0.6218 -0.0263 -0.3844
 8479SOL    HW333649   2.056   0.575   4.563 -0.8635  0.6410  1.0032
 8479SOL    MW433650   2.030   0.642   4.513 -0.1596  0.1027 -0.5859
 8480SOL     OW33651   1.961   2.157   0.726 -0.3004 -0.0190 -0.9889
 8480SOL    HW233652   2.049   2.123   0.707 -0.0024  0.1174  0.0496
 8480SOL    HW333653   1.919   2.087   0.776  0.0874  0.8324  0.6063
 8480SOL    MW433654   1.967   2.143   0.730  0.4612 -0.6067  0.1138
 8481SOL     OW33655   4.523   2.583   2.065 -0.4798 -0.1015  0.2266
 8481SOL    HW233656   4.468   2.515   2.102  0.1206 -0.0513  1.2479
 8481SOL    HW333657   4.554   2.633   2.141  0.4591  0.2526 -0.3681
 8481SOL    MW433658   4.520   2.581   2.080 -0.1001  0.1930  0.1731
 8482SOL     OW33659   3.248   4.206   0.268 -0.1716 -0.1252 -0.1741
 8482SOL    HW233660   3.223   4.142   0.336 -0.3376  0.2819  0.1498
 8482SOL    HW333661   3.232   4.160   0.186 -1.7691  0.0153  0.0170
 8482SOL    MW433662   3.242   4.191   0.266 -0.1458  0.4765 -0.6980
 8483SOL     OW33663   3.887   4.073   2.802  0.2484 -0.4578  0.1311
 8483SOL    HW233664   3.824   4.132   2.761  1.5404  0.4707 -0.6241
 8483SOL    HW333665   3.837   4.027   2.870 -0.9036  1.2321  0.5009
 8483SOL    MW433666   3.872   4.075   2.806 -0.4061 -0.3732 -0.0423
 8484SOL     OW33667   1.060   4.238   1.371  0.5310 -0.8111 -0.0607
 8484SOL    HW233668   1.115   4.189   1.433  0.3668 -0.3654  0.4416
 8484SOL    HW333669   1.014   4.170   1.322  1.1026 -1.1823 -0.1022
 8484SOL    MW433670   1.061   4.223   1.373  0.0756 -0.3508  0.2764
 8485SOL     OW33671   1.649   2.108   3.531 -0.2841  0.2257 -0.2408
 8485SOL    HW233672   1.703   2.035   3.562  1.8971  1.5317 -0.7389
 8485SOL    HW333673   1.608   2.076   3.451 -1.6150 -1.3384  0.9995
 8485SOL    MW433674   1.651   2.094   3.525  0.4566 -0.0956 -0.4824
 8486SOL     OW33675   1.160   1.555   3.489 -0.8191  0.2695  0.6643
 8486SOL    HW233676   1.200   1.605   3.417  1.4607 -0.0336  1.6159
 8486SOL    HW333677   1.173   1.609   3.566  2.2420 -1.8378  1.8256
 8486SOL    MW433678   1.167   1.568   3.489 -0.2736  0.5255 -0.0654
 8487SOL     OW33679   5.033   2.707   6.180 -0.0391 -0.2429 -0.2530
 8487SOL    HW233680   5.050   2.788   6.131  0.6962 -0.8269 -1.0045
 8487SOL    HW333681   4.989   2.650   6.117 -0.8739 -0.3128  0.3793
 8487SOL    MW433682   5.029   2.710   6.165  0.0519  0.4712 -0.2277
 8488SOL     OW33683   0.430   3.471   4.312 -1.0132 -0.1741  0.7541
 8488SOL    HW233684   0.439   3.460   4.406  1.1685 -0.9306  0.5193
 8488SOL    HW333685   0.504   3.527   4.287 -1.3570 -0.2552 -0.5236
 8488SOL    MW433686   0.441   3.477   4.321  0.3416  0.2114 -0.1708
 8489SOL     OW33687   1.578   2.991   2.162  0.5764 -0.2734  0.0668
 8489SOL    HW233688   1.539   2.910   2.194 -1.8586  0.6362 -0.3371
 8489SOL    HW333689   1.647   3.011   2.225 -0.9149 -0.9994  2.0314
 8489SOL    MW433690   1.582   2.983   2.175 -0.5092 -0.1109  0.4232
 8490SOL     OW33691   2.483   5.428   0.634  0.0543 -0.0942  0.5304
 8490SOL    HW233692   2.503   5.341   0.601  0.6350  0.2081  0.0665
 8490SOL    HW333693   2.473   5.482   0.555  0.3831  0.4069  0.8244
 8490SOL    MW433694   2.484   5.424   0.619 -0.2328 -0.3999  0.4510
 8491SOL     OW33695   6.166   2.247   0.468 -0.6712 -0.1479  0.0422
 8491SOL    HW233696   6.075   2.278   0.469 -0.7942 -0.5048  1.2863
 8491SOL    HW333697   6.184   2.231   0.375 -1.8856 -0.1008 -0.2293
 8491SOL    MW433698   6.156   2.249   0.456  0.5117 -0.3143 -0.6377
 8492SOL     OW33699   2.687   6.397   5.410 -0.4294  0.0810 -0.1752
 8492SOL    HW233700   2.661   6.405   5.318  1.3688 -1.9192 -0.9464
 8492SOL    HW333701   2.642   6.318   5.441  1.3356 -1.0609 -0.3395
 8492SOL    MW433702   2.678   6.388   5.402 -0.2123 -0.0776  0.4418
 8493SOL     OW33703   3.412   5.278   2.018 -0.2734  0.0770  0.3748
 8493SOL    HW233704   3.329   5.232   2.008 -0.2926  0.1489  0.1834
 8493SOL    HW333705   3.405   5.323   2.102  0.2687 -1.3128  1.1825
 8493SOL    MW433706   3.400   5.278   2.028  0.0636 -0.4116 -1.2546
 8494SOL     OW33707   1.581   6.229   6.362 -0.1998 -0.0991 -0.2175
 8494SOL    HW233708   1.498   6.268   6.335 -0.5266 -2.1106 -2.4814
 8494SOL    HW333709   1.565   6.199   6.451 -1.7465 -0.0175 -0.4288
 8494SOL    MW433710   1.568   6.230   6.370 -0.7122 -0.2244 -0.1385
 8495SOL     OW33711   3.046   0.116   3.077  0.2939  0.0675  0.1730
 8495SOL    HW233712   3.070   0.208   3.067  1.9234 -0.3115  0.1865
 8495SOL    HW333713   3.029   0.105   3.170  1.5099  0.0710  0.4125
 8495SOL    MW433714   3.047   0.126   3.088  0.5489  0.1108 -0.4375
 8496SOL     OW33715   5.488   1.282   1.390 -0.0099 -0.1653 -0.0087
 8496SOL    HW233716   5.446   1.358   1.350  0.6902 -0.2608 -0.9438
 8496SOL    HW333717   5.416   1.238   1.436 -0.4943  0.8534  0.2596
 8496SOL    MW433718   5.473   1.286   1.391  0.0809 -0.2587  0.2618
 8497SOL     OW33719   1.892   5.069   2.441 -0.1324  0.3175 -0.7655
 8497SOL    HW233720   1.906   5.151   2.488 -0.6599 -0.0812  0.1224
 8497SOL    HW333721   1.910   5.001   2.506  3.2008 -0.3993 -2.2266
 8497SOL    MW433722   1.896   5.071   2.456 -1.0226  0.5332 -0.3549
 8498SOL     OW33723   6.111   1.912   0.130 -0.1891 -0.5960  0.0595
 8498SOL    HW233724   6.126   2.004   0.151  0.5769 -0.6224 -0.3548
 8498SOL    HW333725   6.018   1.908   0.108  0.2608  0.6064 -2.4772
 8498SOL    MW433726   6.101   1.924   0.130  0.3228 -0.4389  0.3050
 8499SOL     OW33727   3.413   2.794   3.295 -0.2276 -0.0832 -0.1414
 8499SOL    HW233728   3.330   2.771   3.252 -0.3042  1.6367 -1.0152
 8499SOL    HW333729   3.392   2.871   3.348  0.7962  0.3625 -0.3598
 8499SOL    MW433730   3.399   2.801   3.296 -0.1276  0.1280  0.2678
 8500SOL     OW33731   6.299   1.391   5.404  0.1644  0.1191  0.3188
 8500SOL    HW233732   6.320   1.446   5.329 -0.3487 -1.1745 -0.8252
 8500SOL    HW333733   6.205   1.403   5.418 -0.0375 -0.7624 -0.2133
 8500SOL    MW433734   6.290   1.400   5.396 -0.6837 -0.4020 -0.2567
 8501SOL     OW33735   6.015   1.092   4.109  0.3591 -0.2124 -0.2344
 8501SOL    HW233736   6.058   1.043   4.039 -0.4793 -0.2572 -0.7282
 8501SOL    HW333737   6.043   1.183   4.095 -1.7800  0.2268 -2.2205
 8501SOL    MW433738   6.025   1.098   4.098  0.5549  0.0902 -0.5512
 8502SOL     OW33739   6.199   1.611   1.770  0.6217  0.4911 -0.8835
 8502SOL    HW233740   6.279   1.658   1.746 -1.2678  2.7721 -3.1853
 8502SOL    HW333741   6.170   1.569   1.689  0.9084 -2.8526  0.5623
 8502SOL    MW433742   6.206   1.612   1.756  0.4848  0.0211  0.1817
 8503SOL     OW33743   0.968   6.128   3.693 -0.9342  0.3176 -0.4286
 8503SOL    HW233744   0.930   6.114   3.606 -1.1450 -2.0304 -0.0372
 8503SOL    HW333745   0.902   6.178   3.741 -1.6793 -0.0627 -1.0385
 8503SOL    MW433746   0.954   6.133   3.688  0.0914  0.4819  0.1204
 8504SOL     OW33747   5.046   0.275   5.501 -0.0011  0.4750 -0.2248
 8504SOL    HW233748   5.006   0.248   5.583 -1.8717 -0.0306 -1.2360
 8504SOL    HW333749   5.134   0.239   5.504 -0.0763  0.3523  1.4801
 8504SOL    MW433750   5.052   0.267   5.512  0.2951  0.0639  0.6037
 8505SOL     OW33751   0.365   4.536   2.924  0.9388  0.6182 -0.0237
 8505SOL    HW233752   0.294   4.592   2.894  2.6696  2.4575 -0.9616
 8505SOL    HW333753   0.337   4.505   3.010 -1.7846 -0.3089 -1.1515
 8505SOL    MW433754   0.352   4.539   2.931  0.1212 -0.6488 -0.5861
 8506SOL     OW33755   3.119   1.705   4.909 -0.1039  0.3336  0.0175
 8506SOL    HW233756   3.143   1.637   4.972 -0.0379 -0.1514 -0.5210
 8506SOL    HW333757   3.024   1.714   4.918  0.1451  1.9028  1.8002
 8506SOL    MW433758   3.110   1.697   4.919 -0.2064 -0.4308  0.1212
 8507SOL     OW33759   5.998   1.679   2.638 -0.8069  0.3716  0.5823
 8507SOL    HW233760   5.930   1.746   2.640 -0.8512  0.3440  0.0307
 8507SOL    HW333761   6.020   1.665   2.730 -1.5969  0.3351  0.7759
 8507SOL    MW433762   5.992   1.686   2.651 -0.2905 -0.3002 -0.3126
 8508SOL     OW33763   6.302   4.217   1.676 -0.3810 -0.5138 -0.1704
 8508SOL    HW233764   6.259   4.215   1.761 -0.5381  0.0760 -0.2333
 8508SOL    HW333765   6.288   4.306   1.644  2.1263  0.1874  0.4636
 8508SOL    MW433766   6.295   4.229   1.683  0.0174  0.1617  0.6244
 8509SOL     OW33767   4.143   4.165   4.767 -0.0697 -0.8361  0.0699
 8509SOL    HW233768   4.183   4.172   4.681 -0.2640  0.1606  0.0477
 8509SOL    HW333769   4.052   4.142   4.750 -0.0872 -0.7273  0.0182
 8509SOL    MW433770   4.137   4.163   4.754  0.0174 -0.1157  0.1772
 8510SOL     OW33771   4.270   1.887   1.438 -0.1311 -0.3512 -0.2218
 8510SOL    HW233772   4.316   1.971   1.431 -1.0331  0.0533 -1.6413
 8510SOL    HW333773   4.202   1.902   1.503 -0.0324 -0.1043 -0.1749
 8510SOL    MW433774   4.267   1.900   1.445  0.0734  0.6270 -0.1758
 8511SOL     OW33775   2.485   6.182   3.638 -0.5819 -0.8885 -0.2092
 8511SOL    HW233776   2.450   6.256   3.589  0.1281  0.9001  1.8047
 8511SOL    HW333777   2.501   6.115   3.573 -2.8041  0.1076 -1.9102
 8511SOL    MW433778   2.482   6.183   3.623  0.3497  0.9277 -0.0985
 8512SOL     OW33779   5.293   1.986   2.658 -0.3240  0.2051 -0.4165
 8512SOL    HW233780   5.254   2.063   2.699  0.1019  0.5984 -0.7363
 8512SOL    HW333781   5.313   1.928   2.731 -1.2244  0.1278 -0.2306
 8512SOL    MW433782   5.291   1.988   2.673 -0.2598  0.4766 -0.3492
 8513SOL     OW33783   1.014   4.861   5.387 -0.0473 -0.2567 -0.0814
 8513SOL    HW233784   1.062   4.802   5.445  2.7789  0.8328 -1.1175
 8513SOL    HW333785   0.996   4.809   5.309  1.0159 -0.2266 -0.3591
 8513SOL    MW433786   1.018   4.847   5.384 -0.0704  0.1203 -0.4415
 8514SOL     OW33787   5.088   5.995   4.940 -0.2397 -0.1961  0.3046
 8514SOL    HW233788   5.082   5.921   4.879  0.7237  0.4855 -0.6348
 8514SOL    HW333789   5.047   6.068   4.893  1.7562  0.6987 -0.1489
 8514SOL    MW433790   5.082   5.995   4.926  0.1535  0.4556 -0.6535
 8515SOL     OW33791   2.352   0.822   3.639 -0.5204 -0.6500 -0.7327
 8515SOL    HW233792   2.298   0.747   3.664  0.4026 -1.2257 -0.4665
 8515SOL    HW333793   2.288   0.886   3.605 -1.7438 -0.1990  2.1462
 8515SOL    MW433794   2.336   0.821   3.637  0.6243  0.2342  0.0705
 8516SOL     OW33795   1.657   1.259   3.488  0.0287  0.0637 -0.1459
 8516SOL    HW233796   1.569   1.271   3.524  0.2876  1.9920 -0.0749
 8516SOL    HW333797   1.645   1.195   3.418 -0.8684 -2.0373  1.7988
 8516SOL    MW433798   1.644   1.252   3.483 -0.8487 -0.2511 -0.2431
 8517SOL     OW33799   4.372   0.232   4.872 -0.2222  0.3262  0.1384
 8517SOL    HW233800   4.332   0.317   4.854 -0.4707  0.0438 -0.6484
 8517SOL    HW333801   4.405   0.202   4.787  1.3196  0.3720  0.6873
 8517SOL    MW433802   4.371   0.239   4.859 -0.4705 -0.3618  0.1027
 8518SOL     OW33803   0.310   0.533   1.116 -0.2957  0.0678  0.0189
 8518SOL    HW233804   0.253   0.607   1.136 -1.6539 -0.6500 -1.0435
 8518SOL    HW333805   0.324   0.538   1.021 -2.0338 -2.1071 -0.4216
 8518SOL    MW433806   0.304   0.544   1.106 -0.2997  0.0009  0.5798
 8519SOL     OW33807   6.025   3.892   0.250  0.0469  0.2971  0.0326
 8519SOL    HW233808   6.011   3.833   0.177 -2.0222  0.5143  0.1897
 8519SOL    HW333809   6.009   3.839   0.328  0.3010  0.5361  0.2493
 8519SOL    MW433810   6.021   3.877   0.251  0.3800  0.1424 -0.3159
 8520SOL     OW33811   3.622   0.042   2.330 -0.0911  0.0613 -0.1222
 8520SOL    HW233812   3.661   0.118   2.373 -1.2074  0.2206  0.6304
 8520SOL    HW333813   3.622   0.065   2.237 -0.0954  0.8237  0.0599
 8520SOL    MW433814   3.627   0.055   2.323 -0.9891 -0.1827  0.0685
 8521SOL     OW33815   1.307   6.035   5.100 -0.3245  0.1081  0.5150
 8521SOL    HW233816   1.324   5.949   5.136  1.5031  0.0408 -0.3922
 8521SOL    HW333817   1.221   6.028   5.058  1.3001 -2.4887 -2.8559
 8521SOL    MW433818   1.298   6.023   5.099 -0.4087 -0.0189  0.4454
 8522SOL     OW33819   3.656   1.309   2.036  0.5009  0.2758 -0.4830
 8522SOL    HW233820   3.724   1.336   1.973 -0.8462  2.3009 -1.1945
 8522SOL    HW333821   3.607   1.241   1.990  1.0776 -0.0802 -0.5871
 8522SOL    MW433822   3.658   1.304   2.022 -0.4615  0.1895 -0.2667
 8523SOL     OW33823   2.326   2.448   5.890 -0.5934 -0.0246  1.0657
 8523SOL    HW233824   2.237   2.462   5.857 -0.5984 -0.1476  1.0281
 8523SOL    HW333825   2.338   2.353   5.888  0.7952  0.0858 -2.2712
 8523SOL    MW433826   2.316   2.437   5.886 -0.1961 -0.2270 -0.2079
 8524SOL     OW33827   1.588   0.169   1.763  0.4613 -0.0879  0.2712
 8524SOL    HW233828   1.626   0.177   1.675 -1.8883 -0.0123 -0.8239
 8524SOL    HW333829   1.494   0.157   1.747 -0.2179  1.1840  2.8151
 8524SOL    MW433830   1.581   0.168   1.749  0.3616 -0.7042 -0.0694
 8525SOL     OW33831   0.884   3.667   4.722  0.0934 -0.5731  0.2212
 8525SOL    HW233832   0.875   3.599   4.655  0.0541 -1.1953  0.8494
 8525SOL    HW333833   0.978   3.673   4.738  0.0858 -0.5858  0.2719
 8525SOL    MW433834   0.895   3.659   4.715  0.4254 -0.1826  0.2343
 8526SOL     OW33835   4.603   1.445   3.231 -0.0268 -0.1440 -0.2532
 8526SOL    HW233836   4.658   1.518   3.259 -1.0787  0.1829  1.0515
 8526SOL    HW333837   4.658   1.368   3.245 -0.3470  0.0390  2.4649
 8526SOL    MW433838   4.618   1.444   3.236  0.5373  0.2177  0.4942
 8527SOL     OW33839   3.903   5.115   0.126 -0.0294  0.4061 -0.0403
 8527SOL    HW233840   3.958   5.193   0.133 -2.7725  2.4568  0.1829
 8527SOL    HW333841   3.918   5.067   0.208  1.0170  1.1552  0.2186
 8527SOL    MW433842   3.912   5.119   0.137  0.1344 -0.6162 -0.0127
 8528SOL     OW33843   5.287   4.084   3.598  0.3230 -0.3726 -0.0631
 8528SOL    HW233844   5.343   4.145   3.645 -0.2528  0.7055 -0.7411
 8528SOL    HW333845   5.297   4.108   3.506 -0.0721 -1.1719 -0.3240
 8528SOL    MW433846   5.296   4.095   3.592 -0.5899 -0.2894  0.1990
 8529SOL     OW33847   5.956   6.329   4.887  0.4166  0.0881 -0.0571
 8529SOL    HW233848   6.044   6.366   4.882  0.5160 -0.0970  0.2948
 8529SOL    HW333849   5.949   6.294   4.976  0.2316 -0.5006 -0.2977
 8529SOL    MW433850   5.966   6.329   4.898  0.2276 -0.3751  0.6897
 8530SOL     OW33851   0.733   4.201   4.203 -0.0785 -0.4698  0.3698
 8530SOL    HW233852   0.810   4.180   4.150  1.0847 -1.4073  2.3084
 8530SOL    HW333853   0.707   4.117   4.242 -1.9138 -0.1109  0.0144
 8530SOL    MW433854   0.740   4.187   4.201 -0.0156  0.5566 -0.2846
 8531SOL     OW33855   3.199   2.748   5.744 -0.0666 -0.4186  0.3737
 8531SOL    HW233856   3.240   2.715   5.824 -0.5030 -0.7101  0.4752
 8531SOL    HW333857   3.266   2.737   5.676  0.5032  0.3211  0.7952
 8531SOL    MW433858   3.213   2.743   5.745  0.6409 -0.3709 -0.0732
 8532SOL     OW33859   6.069   6.399   0.888 -0.3072 -1.4699  0.5454
 8532SOL    HW233860   6.020   6.345   0.825 -1.7130  0.1489  0.1658
 8532SOL    HW333861   6.159   6.366   0.882 -0.5170 -1.8424 -1.8305
 8532SOL    MW433862   6.074   6.387   0.879  0.3701  0.3763 -0.6740
 8533SOL     OW33863   4.146   1.468   2.333 -0.1263  0.0439 -0.4427
 8533SOL    HW233864   4.190   1.448   2.250  0.7257 -1.3443  0.3099
 8533SOL    HW333865   4.204   1.434   2.400 -0.6709  1.4164  0.7662
 8533SOL    MW433866   4.159   1.461   2.331  1.0020  0.6572 -0.2076
 8534SOL     OW33867   1.792   1.232   4.619 -0.0734  0.1368  0.1012
 8534SOL    HW233868   1.851   1.276   4.680  0.5815 -1.5798  0.7487
 8534SOL    HW333869   1.817   1.266   4.533  1.1036  0.2730  0.4869
 8534SOL    MW433870   1.803   1.243   4.616 -0.2847  0.0661  0.5073
 8535SOL     OW33871   5.250   2.464   4.242  0.5448  0.4831  0.5214
 8535SOL    HW233872   5.329   2.427   4.282  2.1485  1.3253 -1.6696
 8535SOL    HW333873   5.195   2.388   4.224  2.3247 -0.5734 -0.8584
 8535SOL    MW433874   5.253   2.449   4.245 -0.0822 -0.1133 -0.1023
 8536SOL     OW33875   1.325   4.935   6.005  0.3332 -0.1557  0.2885
 8536SOL    HW233876   1.390   4.918   6.073 -1.3400  0.0040  2.0496
 8536SOL    HW333877   1.290   5.021   6.026 -0.4778 -0.2608 -0.5540
 8536SOL    MW433878   1.329   4.944   6.017  0.2083  0.2633  0.4118
 8537SOL     OW33879   2.561   4.713   0.655  0.0456 -0.3364  0.3049
 8537SOL    HW233880   2.541   4.621   0.672 -0.8081 -0.3715 -0.7452
 8537SOL    HW333881   2.483   4.760   0.686  0.4233  0.0324  0.7174
 8537SOL    MW433882   2.548   4.707   0.662 -0.3461 -0.3735 -0.2345
 8538SOL     OW33883   1.808   1.681   0.111  0.0809  0.1451  0.1263
 8538SOL    HW233884   1.879   1.672   0.047 -0.7860  1.2513 -1.0483
 8538SOL    HW333885   1.817   1.769   0.145  0.2295 -0.2679  1.1729
 8538SOL    MW433886   1.818   1.691   0.107 -0.3640  0.0263  0.4528
 8539SOL     OW33887   3.628   3.190   5.283 -0.0052 -0.1608 -0.1845
 8539SOL    HW233888   3.549   3.163   5.329 -0.2001 -1.5905 -1.2895
 8539SOL    HW333889   3.691   3.120   5.302  0.6791  0.4657 -0.1116
 8539SOL    MW433890   3.626   3.177   5.292  0.1230 -0.2683 -0.1612
 8540SOL     OW33891   3.786   1.187   1.577  0.0614  0.4583  0.3785
 8540SOL    HW233892   3.797   1.093   1.559 -1.9794  0.2388 -0.0050
 8540SOL    HW333893   3.839   1.230   1.511  1.0892 -0.4231  0.5994
 8540SOL    MW433894   3.794   1.180   1.566 -0.0547 -0.3590  0.0700
 8541SOL     OW33895   2.022   6.091   0.787  0.4117 -0.1815 -0.2491
 8541SOL    HW233896   2.068   6.052   0.713  0.1858 -1.7586  0.4117
 8541SOL    HW333897   2.077   6.166   0.812  0.5972  0.2543 -1.8509
 8541SOL    MW433898   2.035   6.096   0.780 -0.0717 -0.1195 -0.2514
 8542SOL     OW33899   0.167   3.706   5.462 -0.6422  0.3664 -0.0727
 8542SOL    HW233900   0.259   3.712   5.488 -0.6669 -0.9209  0.4353
 8542SOL    HW333901   0.149   3.787   5.415  0.8190  0.5313 -0.3916
 8542SOL    MW433902   0.176   3.717   5.459  0.2088  0.1129  0.3293
 8543SOL     OW33903   6.143   4.257   6.146  0.0120  0.2168  0.4926
 8543SOL    HW233904   6.057   4.232   6.111 -0.7268  0.2742  2.1788
 8543SOL    HW333905   6.189   4.174   6.156 -0.3471  0.0530  0.8148
 8543SOL    MW433906   6.138   4.243   6.142 -0.8291  0.3736 -0.4977
 8544SOL     OW33907   3.549   1.874   2.039 -0.1750 -0.0614 -0.0532
 8544SOL    HW233908   3.569   1.787   2.074 -0.0530  0.0020  0.0386
 8544SOL    HW333909   3.510   1.858   1.954 -2.3968 -0.2979  0.9539
 8544SOL    MW433910   3.547   1.861   2.032 -0.3990 -1.2594 -0.0188
 8545SOL     OW33911   4.364   0.074   0.289 -0.4065 -0.0663 -0.3474
 8545SOL    HW233912   4.376  -0.005   0.342 -0.8639 -1.0539 -1.6441
 8545SOL    HW333913   4.390   0.146   0.346 -0.5609 -1.1034  1.0900
 8545SOL    MW433914   4.369   0.073   0.303 -0.0877 -0.4666  0.0056
 8546SOL     OW33915   4.389   1.447   6.277 -0.0063  0.0900  0.1958
 8546SOL    HW233916   4.305   1.411   6.247 -0.1849  1.6405 -1.3389
 8546SOL    HW333917   4.416   1.506   6.207  2.2134 -0.0808  0.8234
 8546SOL    MW433918   4.382   1.450   6.264  0.0996 -0.8638  0.0706
 8547SOL     OW33919   6.024   0.225   6.010 -0.5859 -0.0015  0.1465
 8547SOL    HW233920   5.963   0.227   5.937  0.6756  1.4031 -0.9095
 8547SOL    HW333921   5.969   0.204   6.086 -2.3470  1.0384 -0.7880
 8547SOL    MW433922   6.009   0.222   6.011 -0.3908 -0.0441 -0.1866
 8548SOL     OW33923   2.336   1.934   4.636  0.4704  0.0474  0.0378
 8548SOL    HW233924   2.337   1.871   4.708 -0.3892 -0.4021 -0.3343
 8548SOL    HW333925   2.309   1.883   4.560  1.2719  0.5381 -0.5961
 8548SOL    MW433926   2.333   1.919   4.636  0.0016 -0.7575 -0.1710
 8549SOL     OW33927   4.256   0.466   4.792  0.2769 -0.7155 -0.3565
 8549SOL    HW233928   4.278   0.446   4.702  1.2990  1.3269 -0.6257
 8549SOL    HW333929   4.164   0.492   4.789  0.5414  0.1849 -0.9787
 8549SOL    MW433930   4.247   0.467   4.780  0.2014 -0.0602  1.1269
 8550SOL     OW33931   0.572   2.539   3.883  0.2962  0.6395  0.6032
 8550SOL    HW233932   0.586   2.601   3.811 -0.5766 -1.3534 -1.4047
 8550SOL    HW333933   0.505   2.479   3.850  2.1670 -2.3220  1.7910
 8550SOL    MW433934   0.565   2.539   3.869 -0.1707 -0.0768 -0.0717
 8551SOL     OW33935   3.594   5.505   4.652  0.5217 -0.2188  0.2694
 8551SOL    HW233936   3.636   5.460   4.725  0.9662  1.5907  1.1682
 8551SOL    HW333937   3.657   5.571   4.624 -0.0502 -0.2164 -1.1221
 8551SOL    MW433938   3.608   5.508   4.658 -0.5472 -0.2243  0.4439
 8552SOL     OW33939   2.199   0.632   2.778 -0.5865 -0.0781  0.2716
 8552SOL    HW233940   2.249   0.581   2.841 -1.5426 -0.7942  0.4773
 8552SOL    HW333941   2.146   0.567   2.731 -2.4521  0.7805  1.0874
 8552SOL    MW433942   2.199   0.617   2.780 -0.2824  0.1763 -0.0187
 8553SOL     OW33943   1.272   5.801   3.041 -0.3060 -0.2402 -0.5878
 8553SOL    HW233944   1.316   5.858   2.978  2.2805 -2.6397 -1.1469
 8553SOL    HW333945   1.286   5.843   3.125 -1.5953  1.6917 -1.2644
 8553SOL    MW433946   1.280   5.814   3.044 -0.6726 -0.1583 -0.7530
 8554SOL     OW33947   0.502   1.639   0.213 -0.0152 -0.5419 -0.0567
 8554SOL    HW233948   0.596   1.628   0.202  0.4904  0.8640  2.1766
 8554SOL    HW333949   0.482   1.596   0.296 -1.4274 -1.0606 -0.6311
 8554SOL    MW433950   0.512   1.632   0.223  0.1666 -0.1855 -0.3063
 8555SOL     OW33951   0.401   4.862   2.215 -0.4920 -0.1301  0.2495
 8555SOL    HW233952   0.351   4.788   2.249 -1.5906  0.3711 -0.2356
 8555SOL    HW333953   0.412   4.842   2.122 -0.5380  0.1785  0.1790
 8555SOL    MW433954   0.396   4.849   2.207 -0.0369 -0.1647 -0.3138
 8556SOL     OW33955   0.686   0.676   2.585  0.1792 -0.2895 -0.1084
 8556SOL    HW233956   0.662   0.746   2.646 -2.3696 -0.6420 -0.5770
 8556SOL    HW333957   0.673   0.595   2.636  0.3708 -0.5070 -0.4051
 8556SOL    MW433958   0.681   0.674   2.600 -0.1634  0.4907  0.3958
 8557SOL     OW33959   1.506   6.160   4.934 -0.0244  0.2794  0.0099
 8557SOL    HW233960   1.430   6.106   4.957 -0.5260  1.1513  0.4743
 8557SOL    HW333961   1.581   6.110   4.964 -0.4908 -0.0213  0.7085
 8557SOL    MW433962   1.506   6.146   4.941 -0.5372 -0.2172  0.2804
 8558SOL     OW33963   2.609   1.351   6.027 -0.0281 -0.3367  0.0857
 8558SOL    HW233964   2.543   1.416   6.003  1.9197  0.9667 -2.1920
 8558SOL    HW333965   2.586   1.274   5.976 -0.8725 -0.6085  0.8383
 8558SOL    MW433966   2.597   1.349   6.017  0.0177 -0.2565  0.6679
 8559SOL     OW33967   3.334   1.691   4.312  0.3228  0.4549  0.6179
 8559SOL    HW233968   3.355   1.717   4.222  1.8074  0.4238  0.9343
 8559SOL    HW333969   3.241   1.712   4.322  0.0383  0.1249 -1.0357
 8559SOL    MW433970   3.325   1.697   4.301  0.1847 -0.8444  0.0749
 8560SOL     OW33971   6.188   5.329   5.574  0.3134  0.0988 -0.4812
 8560SOL    HW233972   6.210   5.240   5.546 -1.2198  0.1368 -1.9658
 8560SOL    HW333973   6.250   5.385   5.528  1.6394 -0.1837  0.8750
 8560SOL    MW433974   6.199   5.325   5.564  0.5964 -0.0877 -0.1968
 8561SOL     OW33975   0.051   3.334   5.637  0.0243 -0.2164 -0.0499
 8561SOL    HW233976   0.057   3.239   5.640 -0.8898 -0.3349 -1.1848
 8561SOL    HW333977  -0.025   3.351   5.581 -2.2322  1.1261  3.0866
 8561SOL    MW433978   0.042   3.324   5.630 -0.3472 -0.0793 -0.1795
 8562SOL     OW33979   2.538   0.830   5.915 -0.1964 -0.1402  0.5096
 8562SOL    HW233980   2.517   0.824   6.008 -0.8798 -1.5758  0.2891
 8562SOL    HW333981   2.587   0.751   5.895  0.1300  0.2490 -0.3217
 8562SOL    MW433982   2.542   0.819   5.925 -0.0930  0.1141  0.1192
 8563SOL     OW33983   4.917   4.790   0.378  0.1864  0.2531 -0.3586
 8563SOL    HW233984   4.960   4.819   0.458 -2.0091  0.7745  0.7153
 8563SOL    HW333985   4.935   4.859   0.314  0.5898  0.6635  0.1877
 8563SOL    MW433986   4.925   4.803   0.380  0.5147  0.4648  0.1834
 8564SOL     OW33987   1.279   6.190   3.063  0.2963 -0.1192 -0.5753
 8564SOL    HW233988   1.192   6.228   3.052  0.2944 -0.0817 -0.4356
 8564SOL    HW333989   1.337   6.266   3.070  0.7540 -0.0665 -3.5942
 8564SOL    MW433990   1.275   6.205   3.063  0.3024  0.0128  0.2179
 8565SOL     OW33991   1.993   4.477   0.569 -0.2878  0.2836  0.1863
 8565SOL    HW233992   2.069   4.501   0.621 -0.0285 -0.1919  0.0405
 8565SOL    HW333993   1.957   4.560   0.538  0.9172  0.4747 -0.7846
 8565SOL    MW433994   1.999   4.491   0.571 -0.7081 -0.0380  0.4568
 8566SOL     OW33995   4.458   2.955   2.298  0.4156 -0.0494  0.3789
 8566SOL    HW233996   4.377   2.911   2.272 -0.0636  1.0939 -0.1108
 8566SOL    HW333997   4.464   2.940   2.392 -0.8662  0.6164  0.5929
 8566SOL    MW433998   4.448   2.947   2.307  0.1455 -0.0614 -0.0738
 8567SOL     OW33999   2.595   1.664   2.410 -0.7934  0.4554 -0.1289
 8567SOL    HW234000   2.507   1.655   2.372 -0.0672  0.6598 -1.9776
 8567SOL    HW334001   2.628   1.746   2.375  0.3261  0.1348  0.1414
 8567SOL    MW434002   2.588   1.673   2.400  0.0763  0.6828 -0.2666
 8568SOL     OW34003   3.842   3.902   3.104 -0.2480 -0.2077  0.4529
 8568SOL    HW234004   3.772   3.840   3.129 -0.5041  0.1183  0.5544
 8568SOL    HW334005   3.922   3.851   3.112 -0.3889 -0.3334  1.2474
 8568SOL    MW434006   3.843   3.887   3.109 -0.0053 -0.3380 -0.0297
 8569SOL     OW34007   5.150   1.399   4.771 -0.0675  0.2669  0.0510
 8569SOL    HW234008   5.071   1.364   4.811  0.4286 -1.2385 -0.2033
 8569SOL    HW334009   5.222   1.355   4.818  0.5627  0.1054 -1.0167
 8569SOL    MW434010   5.149   1.389   4.783 -0.1299 -0.0755 -0.3656
 8570SOL     OW34011   3.585   0.117   6.327  0.2977 -0.0878  0.4262
 8570SOL    HW234012   3.631   0.090   6.248  1.0375  0.6812  0.5852
 8570SOL    HW334013   3.577   0.037   6.379 -0.6140 -0.7032 -0.6144
 8570SOL    MW434014   3.590   0.103   6.323  0.0355  0.2797  0.0252
 8571SOL     OW34015   2.371   4.233   0.625 -0.6269 -0.0182 -0.0024
 8571SOL    HW234016   2.437   4.171   0.593 -0.1405  0.6677 -0.3297
 8571SOL    HW334017   2.318   4.181   0.686 -0.5169 -0.8917 -0.6180
 8571SOL    MW434018   2.373   4.218   0.629 -0.0556 -0.2346  0.5280
 8572SOL     OW34019   3.211   5.512   6.212 -0.2294 -0.1374 -0.1873
 8572SOL    HW234020   3.264   5.475   6.283 -1.0920  0.2234  0.6736
 8572SOL    HW334021   3.262   5.587   6.180  0.5523 -0.8001 -0.5287
 8572SOL    MW434022   3.224   5.517   6.217  0.3971 -0.2134  0.4957
 8573SOL     OW34023   3.192   1.228   4.767  0.7707  0.4734 -0.2910
 8573SOL    HW234024   3.235   1.230   4.852 -0.0707 -0.8924  0.1936
 8573SOL    HW334025   3.127   1.298   4.771 -0.6855 -0.8816  1.0067
 8573SOL    MW434026   3.189   1.238   4.778 -0.3772  0.8495 -0.2022
 8574SOL     OW34027   5.293   3.307   0.902 -0.0977  0.3331  0.2801
 8574SOL    HW234028   5.240   3.384   0.882 -0.7225  0.2105  1.3932
 8574SOL    HW334029   5.239   3.256   0.963  0.2932 -0.9972 -0.4494
 8574SOL    MW434030   5.278   3.310   0.907 -0.3527 -0.4559 -0.3858
 8575SOL     OW34031   5.699   0.856   2.011 -0.3633  0.3130 -0.0988
 8575SOL    HW234032   5.649   0.830   1.934  0.6422  0.0096 -0.6655
 8575SOL    HW334033   5.731   0.774   2.047  0.4485  0.5613 -0.2478
 8575SOL    MW434034   5.696   0.842   2.006  0.2446  0.2735  0.6055
 8576SOL     OW34035   3.337   5.056   5.146 -0.0871  0.4191  0.0877
 8576SOL    HW234036   3.351   5.133   5.091  0.7559 -0.5511 -1.0911
 8576SOL    HW334037   3.393   5.072   5.223 -0.9431  1.5755  0.5011
 8576SOL    MW434038   3.346   5.068   5.149  0.0792 -0.2057  0.2203
 8577SOL     OW34039   1.638   3.180   0.474 -0.1464  0.4169  0.2187
 8577SOL    HW234040   1.695   3.256   0.486 -0.5910  0.9122 -0.7384
 8577SOL    HW334041   1.678   3.112   0.529  1.8027  0.5349 -0.9632
 8577SOL    MW434042   1.651   3.181   0.483 -0.3539 -0.2130  0.3862
 8578SOL     OW34043   4.322   2.759   4.062 -0.1088  0.1442 -0.0975
 8578SOL    HW234044   4.379   2.764   4.139  0.5335  1.1688 -0.6078
 8578SOL    HW334045   4.293   2.849   4.049  0.3429  0.1103 -1.4480
 8578SOL    MW434046   4.326   2.772   4.070  0.0128  0.3701  0.5779
 8579SOL     OW34047   4.839   6.012   5.695 -0.0701  0.0639  0.3471
 8579SOL    HW234048   4.849   6.021   5.601  0.5365 -3.3378 -0.0538
 8579SOL    HW334049   4.929   6.011   5.729 -0.2584  0.5440  0.8802
 8579SOL    MW434050   4.852   6.013   5.687  0.0712  0.0486  0.1757
 8580SOL     OW34051   4.598   0.765   3.275 -0.7780 -0.3299  0.2132
 8580SOL    HW234052   4.544   0.831   3.232 -1.8057  0.1186  2.0951
 8580SOL    HW334053   4.600   0.791   3.367 -0.5230 -2.4756  0.8749
 8580SOL    MW434054   4.591   0.777   3.281 -0.0862  0.4008  0.0425
 8581SOL     OW34055   3.901   5.479   2.012  0.0876  0.0173 -0.3799
 8581SOL    HW234056   3.845   5.401   2.011 -0.4969  0.3863 -2.5845
 8581SOL    HW334057   3.854   5.543   1.958  1.9051  0.8867 -1.0213
 8581SOL    MW434058   3.887   5.477   2.005 -0.4408 -0.0575  0.1980
 8582SOL     OW34059   3.018   4.525   1.229  0.0100 -0.7596 -0.2458
 8582SOL    HW234060   3.081   4.534   1.158 -0.0202 -0.2196 -0.2092
 8582SOL    HW334061   3.044   4.445   1.275  0.8940 -0.3484 -0.0074
 8582SOL    MW434062   3.030   4.515   1.226 -0.1075  0.4987 -0.2107
 8583SOL     OW34063   0.661   3.475   2.884 -0.6128  0.1262  0.4704
 8583SOL    HW234064   0.574   3.512   2.864 -0.6401 -0.3079 -0.2491
 8583SOL    HW334065   0.702   3.541   2.939 -0.6536  1.2653 -0.7931
 8583SOL    MW434066   0.655   3.488   2.888 -0.2760 -0.2384  0.4431
 8584SOL     OW34067   2.268   1.067   2.884 -0.1427 -0.1794  0.0631
 8584SOL    HW234068   2.352   1.110   2.873 -0.2282  0.5195  1.7803
 8584SOL    HW334069   2.244   1.037   2.797  0.7451  1.7565 -0.9116
 8584SOL    MW434070   2.276   1.069   2.871 -0.4634  0.5367 -0.3649
 8585SOL     OW34071   5.631   4.635   0.030  0.5342  0.8454  0.2518
 8585SOL    HW234072   5.715   4.643  -0.015  0.1450  0.7777 -0.4909
 8585SOL    HW334073   5.580   4.710  -0.001  0.9288  1.9180  2.0487
 8585SOL    MW434074   5.635   4.646   0.020 -0.1774 -0.0784 -0.0768
 8586SOL     OW34075   3.528   1.540   6.068 -0.3523  0.3422 -1.1620
 8586SOL    HW234076   3.457   1.560   6.130 -2.5653 -0.2556 -3.3362
 8586SOL    HW334077   3.608   1.565   6.114 -2.0425  2.3202  0.9363
 8586SOL    MW434078   3.529   1.546   6.083  0.4951  0.1425  0.1931
 8587SOL     OW34079   4.706   5.851   1.063 -0.3974  0.3019 -0.3701
 8587SOL    HW234080   4.736   5.895   1.143 -0.9610  0.8975 -0.4732
 8587SOL    HW334081   4.669   5.768   1.094  0.1795  0.1382 -0.1108
 8587SOL    MW434082   4.705   5.846   1.078 -0.6822  0.2570 -0.9356
 8588SOL     OW34083   3.122   5.452   0.342 -0.0533  0.7555 -0.0614
 8588SOL    HW234084   3.142   5.407   0.424  1.3085 -1.2722 -1.4147
 8588SOL    HW334085   3.078   5.532   0.369 -1.4532 -0.7559  2.5621
 8588SOL    MW434086   3.119   5.456   0.356  0.3659  0.0996  0.2543
 8589SOL     OW34087   5.382   2.624   2.743 -0.3953 -0.7140  0.6140
 8589SOL    HW234088   5.307   2.656   2.793 -0.7113 -0.6991  0.1359
 8589SOL    HW334089   5.351   2.622   2.652  0.4229 -0.0036  0.3157
 8589SOL    MW434090   5.368   2.628   2.738 -0.0642 -0.0653  0.2001
 8590SOL     OW34091   2.355   4.470   0.053 -0.1452 -0.0706 -0.0385
 8590SOL    HW234092   2.317   4.382   0.062 -1.9062  0.2701 -2.7332
 8590SOL    HW334093   2.288   4.528   0.088  0.4777  0.2767  0.5912
 8590SOL    MW434094   2.341   4.466   0.059 -0.0496 -0.3224  0.5141
 8591SOL     OW34095   3.862   3.296   4.948  0.3411 -0.3655 -0.1835
 8591SOL    HW234096   3.842   3.203   4.957 -2.8151  0.3398  1.4815
 8591SOL    HW334097   3.848   3.332   5.036  1.3110  1.7202 -0.8243
 8591SOL    MW434098   3.858   3.289   4.961  0.2326 -0.5779 -0.1270
 8592SOL     OW34099   3.336   2.658   5.949  0.2052  0.3264  0.4837
 8592SOL    HW234100   3.324   2.709   6.029 -0.2746 -0.4540  0.9275
 8592SOL    HW334101   3.372   2.575   5.980 -1.4532 -0.5746  0.0827
 8592SOL    MW434102   3.339   2.654   5.964 -0.2891  0.1310 -0.2612
 8593SOL     OW34103   5.174   0.997   0.516 -0.3826  0.3393  0.9320
 8593SOL    HW234104   5.268   1.006   0.530 -0.5681  1.4681  1.5449
 8593SOL    HW334105   5.140   1.086   0.521 -1.2168  0.2246 -1.4500
 8593SOL    MW434106   5.181   1.010   0.519 -0.1405  0.3580  0.3891
 8594SOL     OW34107   2.078   1.254   1.171 -0.1053  0.0703  0.1447
 8594SOL    HW234108   2.108   1.345   1.165  0.3357 -0.0917 -0.1240
 8594SOL    HW334109   1.998   1.252   1.119 -2.1981  1.1582  3.0564
 8594SOL    MW434110   2.072   1.266   1.163  0.4658 -0.0820  0.6663
 8595SOL     OW34111   1.668   5.889   0.265 -0.6112  0.0156  0.7624
 8595SOL    HW234112   1.657   5.810   0.213 -1.2610  0.6564 -0.1055
 8595SOL    HW334113   1.652   5.861   0.355  0.5751 -1.1176  0.6518
 8595SOL    MW434114   1.665   5.875   0.270 -0.5567 -0.8447 -0.4410
 8596SOL     OW34115   5.228   3.786   4.613 -0.4519 -0.3268 -0.1707
 8596SOL    HW234116   5.144   3.756   4.649  0.4229 -2.4275  0.2396
 8596SOL    HW334117   5.216   3.781   4.518 -0.7390 -0.7830 -0.1144
 8596SOL    MW434118   5.215   3.781   4.605  0.4996  0.1544 -0.7952
 8597SOL     OW34119   6.291   2.467   1.823  0.5074 -0.1796  0.1298
 8597SOL    HW234120   6.348   2.451   1.899  0.1095  2.3782  1.0611
 8597SOL    HW334121   6.215   2.513   1.858 -2.0934 -3.1160 -1.1471
 8597SOL    MW434122   6.289   2.471   1.837  0.3102 -0.9600 -0.2828
 8598SOL     OW34123   3.064   4.955   2.292  0.2756  0.0339  0.5652
 8598SOL    HW234124   3.069   4.952   2.387  0.8466  0.2587  0.5456
 8598SOL    HW334125   3.155   4.950   2.263  0.1330  0.3886  0.0436
 8598SOL    MW434126   3.076   4.954   2.301 -0.2121 -0.1988  0.1755
 8599SOL     OW34127   2.864   0.595   3.812  0.6035 -0.0168  0.0023
 8599SOL    HW234128   2.938   0.614   3.755  0.2953 -0.1705 -0.4510
 8599SOL    HW334129   2.865   0.499   3.822  1.6059  0.1268  1.5399
 8599SOL    MW434130   2.874   0.585   3.806  0.7656  0.1462  0.0038
 8600SOL     OW34131   2.457   0.353   0.253  0.4793  0.3862  0.0502
 8600SOL    HW234132   2.459   0.449   0.249  1.9274  0.3372 -1.0284
 8600SOL    HW334133   2.487   0.332   0.341  0.3598  0.9182  0.2205
 8600SOL    MW434134   2.461   0.363   0.264 -0.6346 -0.1107 -1.0915
 8601SOL     OW34135   5.893   2.106   3.708  0.3320  0.5014 -0.3290
 8601SOL    HW234136   5.944   2.069   3.635  0.8293  2.1545 -0.8591
 8601SOL    HW334137   5.888   2.199   3.689 -0.6863  0.7647  1.0852
 8601SOL    MW434138   5.899   2.113   3.696  0.0984  0.2689  0.0236
 8602SOL     OW34139   1.180   2.158   3.200  0.0657  0.2878  0.0354
 8602SOL    HW234140   1.141   2.131   3.283  0.2928 -0.2535 -0.0320
 8602SOL    HW334141   1.111   2.142   3.135 -0.3025  1.2001  0.1750
 8602SOL    MW434142   1.166   2.152   3.202 -0.0394 -0.5221  0.5369
 8603SOL     OW34143   6.208   3.976   4.245  0.3868 -0.2577 -0.0876
 8603SOL    HW234144   6.227   4.026   4.324 -0.6912 -0.4730  0.3180
 8603SOL    HW334145   6.289   3.929   4.226  0.1893 -1.4618  1.8137
 8603SOL    MW434146   6.221   3.976   4.253 -0.8720  0.2559 -0.4016
 8604SOL     OW34147   1.644   3.299   3.418 -0.0985  0.0089  0.9023
 8604SOL    HW234148   1.597   3.361   3.362 -0.1068 -0.6007  0.2194
 8604SOL    HW334149   1.728   3.287   3.373 -0.1236 -0.5217  0.9958
 8604SOL    MW434150   1.649   3.306   3.405 -0.1414  0.0805  0.3142
 8605SOL     OW34151   3.673   6.282   0.492 -0.4442  0.3195  0.2835
 8605SOL    HW234152   3.595   6.333   0.469  0.4971  1.2058 -1.0518
 8605SOL    HW334153   3.689   6.227   0.415 -0.4480 -0.7863  1.0431
 8605SOL    MW434154   3.665   6.282   0.479 -0.4179 -0.5653 -0.7155
 8606SOL     OW34155   3.638   3.946   5.034  0.3500 -0.1120 -0.5230
 8606SOL    HW234156   3.624   4.006   4.960 -0.5596 -1.1506 -1.2154
 8606SOL    HW334157   3.560   3.891   5.035  0.6563 -0.5487  0.8210
 8606SOL    MW434158   3.626   3.947   5.024 -0.4872 -0.4643 -0.0926
 8607SOL     OW34159   1.438   0.502   0.000 -0.5751 -0.0070  0.4254
 8607SOL    HW234160   1.386   0.574   0.037  1.6230  1.6790  0.4936
 8607SOL    HW334161   1.528   0.536   0.000  0.1796 -1.7413 -2.1455
 8607SOL    MW434162   1.443   0.516   0.005  0.1812  0.6594  0.2783
 8608SOL     OW34163   4.567   0.467   1.735 -0.5842 -0.0734  0.2203
 8608SOL    HW234164   4.547   0.560   1.749  0.5084 -0.1030  2.4296
 8608SOL    HW334165   4.615   0.466   1.652 -1.0825  1.2615 -0.1142
 8608SOL    MW434166   4.571   0.479   1.726 -0.1365  0.0033  0.3671
 8609SOL     OW34167   2.385   1.216   3.684  0.1406  0.2060 -0.0057
 8609SOL    HW234168   2.455   1.221   3.619 -0.1881 -0.4126 -0.4244
 8609SOL    HW334169   2.335   1.138   3.659 -0.2826  0.2390  0.7010
 8609SOL    MW434170   2.388   1.206   3.672  0.4432  0.8633 -0.3608
 8610SOL     OW34171   1.562   4.678   0.553  0.3621  0.1383 -0.7579
 8610SOL    HW234172   1.642   4.647   0.595  0.6056 -0.5841 -1.6890
 8610SOL    HW334173   1.508   4.712   0.624 -0.3588 -3.3792  0.6000
 8610SOL    MW434174   1.565   4.678   0.568  0.0873  0.5772 -0.0080
 8611SOL     OW34175   1.479   2.831   3.642 -0.5827  0.1553  0.4554
 8611SOL    HW234176   1.510   2.899   3.581 -0.3410 -0.3273  0.0376
 8611SOL    HW334177   1.406   2.873   3.688 -1.7098  0.0783 -1.1692
 8611SOL    MW434178   1.473   2.846   3.640  0.1423 -0.5197  0.1558
 8612SOL     OW34179   1.333   3.029   0.979 -0.0230 -0.3476  0.2792
 8612SOL    HW234180   1.353   3.078   1.059 -0.0210  1.7551 -0.9118
 8612SOL    HW334181   1.416   2.987   0.955 -0.0953 -1.2319  1.4901
 8612SOL    MW434182   1.347   3.030   0.986 -0.2328 -0.1042  0.1091
 8613SOL     OW34183   1.925   0.325   4.419  0.3882  0.1184 -0.8948
 8613SOL    HW234184   1.876   0.266   4.477  0.3446  1.0053  0.0060
 8613SOL    HW334185   1.856   0.374   4.373  0.4257 -0.2487 -1.3437
 8613SOL    MW434186   1.909   0.324   4.421  0.8571  0.1846  0.1984
 8614SOL     OW34187   6.226   0.786   0.682 -0.3919 -0.0668 -0.2207
 8614SOL    HW234188   6.226   0.702   0.638  1.7906 -0.3550  0.1895
 8614SOL    HW334189   6.263   0.768   0.769  0.8575  1.3938 -0.3949
 8614SOL    MW434190   6.231   0.773   0.688  0.4466  0.3554 -0.6160
 8615SOL     OW34191   5.190   2.009   0.871  0.4271 -0.0170  0.2700
 8615SOL    HW234192   5.207   1.936   0.812  2.9399 -0.1713  1.0463
 8615SOL    HW334193   5.122   2.060   0.828 -0.6184 -2.2047 -0.8227
 8615SOL    MW434194   5.183   2.006   0.858  0.2325 -0.4026  0.2678
 8616SOL     OW34195   0.087   3.976   4.132 -0.4603 -0.5673 -0.2378
 8616SOL    HW234196   0.120   3.984   4.221 -2.6255  1.0846  0.5106
 8616SOL    HW334197   0.148   4.027   4.079  0.5406 -1.1039  0.3728
 8616SOL    MW434198   0.099   3.984   4.137  0.0428  0.1106  0.2867
 8617SOL     OW34199   1.133   0.376   0.146  0.4928  0.1869 -0.3907
 8617SOL    HW234200   1.092   0.292   0.166  0.1171  0.3430 -0.4888
 8617SOL    HW334201   1.212   0.378   0.201 -0.4095  0.5166  0.9465
 8617SOL    MW434202   1.138   0.365   0.156  0.2734 -0.0954  0.5528
 8618SOL     OW34203   1.139   4.223   2.698  0.4301 -0.2471  0.3027
 8618SOL    HW234204   1.088   4.269   2.765 -1.5242 -1.1920 -0.4621
 8618SOL    HW334205   1.209   4.180   2.747 -0.6066 -0.4524  1.6837
 8618SOL    MW434206   1.142   4.223   2.714 -0.3179  0.7861  0.0757
 8619SOL     OW34207   6.406   2.247   5.389  0.1827  0.2537 -0.0665
 8619SOL    HW234208   6.360   2.163   5.387 -0.1803  0.4619 -1.3343
 8619SOL    HW334209   6.419   2.265   5.483  0.5283 -1.3378  0.2158
 8619SOL    MW434210   6.401   2.239   5.401 -0.1402  0.4126 -0.1823
 8620SOL     OW34211   2.815   2.653   1.993  0.0206  0.4132  0.2126
 8620SOL    HW234212   2.832   2.621   2.081  3.3023 -1.4740 -0.9149
 8620SOL    HW334213   2.720   2.646   1.983 -0.1165 -3.3122  2.2411
 8620SOL    MW434214   2.804   2.648   2.003 -0.0971 -0.6331 -0.2771
 8621SOL     OW34215   0.754   5.657   1.131  0.1970  0.1850 -0.3262
 8621SOL    HW234216   0.767   5.562   1.134  1.3411  0.3326  0.3125
 8621SOL    HW334217   0.829   5.689   1.081  0.5479  0.8541  0.6006
 8621SOL    MW434218   0.766   5.649   1.124 -0.2065  0.2529 -0.1498
 8622SOL     OW34219   6.325   5.529   1.521 -0.1155  0.3112  0.1106
 8622SOL    HW234220   6.388   5.564   1.584  0.5133 -0.5403 -0.0211
 8622SOL    HW334221   6.355   5.440   1.504 -1.9308 -0.4941  0.8286
 8622SOL    MW434222   6.337   5.522   1.527  0.1488 -0.5803 -0.6679
 8623SOL     OW34223   4.087   3.736   3.147 -0.4219 -0.3532 -0.0219
 8623SOL    HW234224   4.048   3.649   3.144  0.7655 -0.9383  0.8018
 8623SOL    HW334225   4.082   3.762   3.239  0.7720 -0.2926  0.0399
 8623SOL    MW434226   4.081   3.728   3.159 -0.0969  0.0628  0.4294
 8624SOL     OW34227   0.749   0.252   0.107  0.2629 -0.0845 -0.4749
 8624SOL    HW234228   0.675   0.204   0.143 -0.8697  0.9049 -1.3865
 8624SOL    HW334229   0.727   0.263   0.014  1.5087  0.3278 -0.7408
 8624SOL    MW434230   0.737   0.247   0.099  0.6119 -0.1696 -0.1941
 8625SOL     OW34231   0.752   2.424   3.437 -0.7034 -0.2692 -0.5136
 8625SOL    HW234232   0.778   2.380   3.519  0.1631 -1.8176 -1.5571
 8625SOL    HW334233   0.812   2.388   3.371 -2.3086 -0.1775 -2.1044
 8625SOL    MW434234   0.764   2.413   3.439 -0.0932 -0.2223  0.0170
 8626SOL     OW34235   2.886   4.236   0.322 -0.6509  0.1167  0.6067
 8626SOL    HW234236   2.981   4.244   0.327 -0.6667  1.6153 -0.6491
 8626SOL    HW334237   2.871   4.164   0.261 -0.3239 -0.2856  1.0018
 8626SOL    MW434238   2.897   4.228   0.314 -0.2683 -0.2968 -0.2651
 8627SOL     OW34239   1.317   4.662   5.643 -0.3659 -0.0760 -0.1795
 8627SOL    HW234240   1.263   4.659   5.723  0.5916  2.1635  0.6109
 8627SOL    HW334241   1.372   4.584   5.649 -2.0432 -1.3199  0.0112
 8627SOL    MW434242   1.317   4.651   5.655  0.3609  0.2156 -0.8454
 8628SOL     OW34243   0.071   2.534   3.164  0.0791 -0.0093 -0.3668
 8628SOL    HW234244   0.063   2.575   3.078 -0.1945  1.1444  0.1886
 8628SOL    HW334245   0.152   2.484   3.159  0.7134  1.0348 -0.9031
 8628SOL    MW434246   0.081   2.533   3.152 -0.1853  0.3847  0.1505
 8629SOL     OW34247   3.266   1.042   4.555 -0.2604  0.4622 -0.2073
 8629SOL    HW234248   3.248   1.094   4.633 -1.8097 -0.4983  0.1367
 8629SOL    HW334249   3.190   0.984   4.547 -0.4093  0.8911 -2.7478
 8629SOL    MW434250   3.254   1.041   4.565  0.3978  0.5510 -0.2234
 8630SOL     OW34251   2.064   4.430   0.307 -0.4789 -0.6751 -0.2773
 8630SOL    HW234252   2.052   4.456   0.398 -1.5251 -1.9767 -0.0100
 8630SOL    HW334253   2.007   4.354   0.296  2.6373 -3.1536 -0.8744
 8630SOL    MW434254   2.055   4.423   0.318  0.1991  0.2502  0.1523
 8631SOL     OW34255   0.327   5.449   3.085  0.2415 -0.8235 -0.4583
 8631SOL    HW234256   0.381   5.527   3.069 -0.8757  0.1846  0.5646
 8631SOL    HW334257   0.365   5.382   3.028  1.8091  0.1960 -0.6662
 8631SOL    MW434258   0.339   5.450   3.075  0.1328 -0.0725  0.0962
 8632SOL     OW34259   0.680   4.090   2.376  0.0457  0.3495 -0.4017
 8632SOL    HW234260   0.728   4.008   2.389 -0.8985 -0.3475 -1.2053
 8632SOL    HW334261   0.743   4.158   2.402  1.1908 -0.5695 -0.6661
 8632SOL    MW434262   0.695   4.088   2.381  0.4420 -0.1213  0.5121
 8633SOL     OW34263   3.948   2.170   1.296  0.1542 -0.0875 -0.2541
 8633SOL    HW234264   3.984   2.186   1.209  1.6059 -0.3616  0.2688
 8633SOL    HW334265   3.976   2.081   1.318 -0.9296 -0.3410  0.1554
 8633SOL    MW434266   3.956   2.161   1.288  0.2007  0.2892  0.0617
 8634SOL     OW34267   0.762   1.749   0.143 -0.3468  0.4054 -0.0161
 8634SOL    HW234268   0.700   1.796   0.087  0.1535  1.5471  0.3779
 8634SOL    HW334269   0.815   1.817   0.184  1.4114 -0.5371 -0.5932
 8634SOL    MW434270   0.761   1.764   0.141  0.0875  0.4425 -0.5548
 8635SOL     OW34271   5.854   1.454   1.024 -0.4207  0.0806  0.3704
 8635SOL    HW234272   5.846   1.359   1.021 -3.4559  0.2713 -0.0226
 8635SOL    HW334273   5.886   1.472   1.113 -0.6051 -1.2491  0.7341
 8635SOL    MW434274   5.857   1.444   1.036  0.0549 -0.4584 -0.1692
 8636SOL     OW34275   6.068   2.326   1.396  0.7729 -0.0934 -0.0962
 8636SOL    HW234276   6.128   2.255   1.374  0.9470  0.3747 -1.2485
 8636SOL    HW334277   5.982   2.285   1.400  0.9264 -0.4427 -0.3404
 8636SOL    MW434278   6.065   2.312   1.393 -0.3931  0.3190  0.0413
 8637SOL     OW34279   3.823   6.148   0.270 -0.2103 -0.1188 -0.5161
 8637SOL    HW234280   3.852   6.201   0.196 -0.5315 -0.6159 -1.0031
 8637SOL    HW334281   3.904   6.119   0.312 -0.0304  0.3857 -0.5087
 8637SOL    MW434282   3.838   6.151   0.266 -0.0176 -0.1982  0.0812
 8638SOL     OW34283   4.657   6.077   3.657  0.5325 -0.3946 -0.0277
 8638SOL    HW234284   4.586   6.136   3.684 -1.1778 -2.3021 -0.1562
 8638SOL    HW334285   4.626   5.990   3.681  2.3144 -1.4124 -1.2225
 8638SOL    MW434286   4.643   6.074   3.664  0.7208 -0.3677 -0.1228
 8639SOL     OW34287   5.088   5.114   2.060  0.5432 -0.2782 -0.5353
 8639SOL    HW234288   5.181   5.094   2.069  1.3609  3.0602  0.1176
 8639SOL    HW334289   5.051   5.092   2.146  0.9117 -0.8122 -0.5085
 8639SOL    MW434290   5.096   5.109   2.073 -0.0691 -0.9933 -0.2084
 8640SOL     OW34291   5.980   3.096   0.717 -0.4851 -0.4002  0.0739
 8640SOL    HW234292   6.059   3.046   0.698  1.3206  3.2201 -3.4616
 8640SOL    HW334293   5.910   3.048   0.671  0.2335 -1.9478  0.5349
 8640SOL    MW434294   5.981   3.083   0.708 -0.3968 -0.2236 -0.3333
 8641SOL     OW34295   3.612   1.661   3.903  0.2033  0.2019 -0.3108
 8641SOL    HW234296   3.694   1.617   3.882  0.5639  0.1459  1.0678
 8641SOL    HW334297   3.602   1.728   3.835  1.4259  0.2479 -0.4738
 8641SOL    MW434298   3.622   1.664   3.892 -0.6256  0.8188  0.7556
 8642SOL     OW34299   0.540   5.813   3.749  0.9236  0.5294  0.1112
 8642SOL    HW234300   0.574   5.768   3.827 -1.9378 -1.1541  0.5210
 8642SOL    HW334301   0.598   5.785   3.678  1.7276 -0.4361  1.1165
 8642SOL    MW434302   0.552   5.803   3.750 -0.5497 -1.1261  0.2733
 8643SOL     OW34303   4.946   4.599   0.002 -0.1514 -0.6211  0.6674
 8643SOL    HW234304   4.968   4.544  -0.073  0.0239  0.9537 -0.4846
 8643SOL    HW334305   5.028   4.606   0.051  1.3101  2.6619 -1.9215
 8643SOL    MW434306   4.960   4.592  -0.002 -0.4118 -0.3355 -0.2530
 8644SOL     OW34307   2.707   2.128   1.638 -0.1463  0.7444 -0.1844
 8644SOL    HW234308   2.672   2.091   1.557 -0.5958  1.1631 -0.1940
 8644SOL    HW334309   2.700   2.057   1.702  1.0785  0.1158 -0.7288
 8644SOL    MW434310   2.701   2.114   1.636 -0.6941  0.0524  0.0448
 8645SOL     OW34311   0.417   4.820   1.944 -0.1905  0.3201 -0.6397
 8645SOL    HW234312   0.443   4.728   1.935  1.4854  0.8671 -1.8595
 8645SOL    HW334313   0.350   4.832   1.877 -1.5176 -0.3320  0.5001
 8645SOL    MW434314   0.412   4.809   1.934 -0.6212 -0.2833  0.5969
 8646SOL     OW34315   2.985   5.358   6.237 -0.3869 -0.3696  0.1133
 8646SOL    HW234316   3.055   5.423   6.242  0.9203 -1.7527  0.5933
 8646SOL    HW334317   2.962   5.355   6.144  1.3651 -1.0402 -0.3496
 8646SOL    MW434318   2.991   5.366   6.225 -0.0143  0.5280 -0.1448
 8647SOL     OW34319   4.022   1.395   4.246  0.3911  0.2291  0.1066
 8647SOL    HW234320   4.100   1.354   4.209 -0.1856 -1.1636  0.3700
 8647SOL    HW334321   4.053   1.479   4.281  1.7652 -0.3243  0.2738
 8647SOL    MW434322   4.036   1.401   4.246 -0.2707 -0.0967 -0.8423
 8648SOL     OW34323   1.851   2.687   4.864 -0.4584 -0.5079  0.2219
 8648SOL    HW234324   1.850   2.744   4.940 -1.5102 -3.3077  2.4699
 8648SOL    HW334325   1.759   2.674   4.842 -0.2752 -1.5941  0.0178
 8648SOL    MW434326   1.839   2.692   4.871  0.2926  0.4073 -0.1291
 8649SOL     OW34327   2.011   3.897   4.200 -0.2699 -0.1263  0.1101
 8649SOL    HW234328   1.960   3.894   4.119  0.4953  0.2393 -0.4081
 8649SOL    HW334329   2.100   3.917   4.170 -0.1207  0.7576  1.1048
 8649SOL    MW434330   2.016   3.899   4.185 -0.8364 -0.1425 -0.6797
 8650SOL     OW34331   2.970   4.667   2.645 -0.3613 -0.1809  0.5930
 8650SOL    HW234332   2.995   4.751   2.608 -0.7537  0.5969  2.0165
 8650SOL    HW334333   2.905   4.632   2.584 -0.3792  0.6655  0.1140
 8650SOL    MW434334   2.965   4.673   2.632  0.4882 -0.4469 -0.8102
 8651SOL     OW34335   1.554   3.853   3.805 -0.1919  1.0211 -0.4088
 8651SOL    HW234336   1.580   3.803   3.882 -0.2484 -0.1357 -1.1198
 8651SOL    HW334337   1.459   3.862   3.814 -0.3326  0.0210 -0.8367
 8651SOL    MW434338   1.545   3.848   3.817  0.5071 -0.7877  0.0662
 8652SOL     OW34339   5.368   1.608   1.614  0.1548 -0.1143  0.0189
 8652SOL    HW234340   5.356   1.536   1.676 -1.7695 -0.1486 -0.3279
 8652SOL    HW334341   5.417   1.674   1.663  0.4111 -0.9419  0.9094
 8652SOL    MW434342   5.373   1.607   1.629  0.0623  0.3917 -0.7708
 8653SOL     OW34343   4.953   3.777   4.714 -0.1301  0.3205 -0.0010
 8653SOL    HW234344   4.877   3.742   4.760  0.0888 -0.4651 -0.2292
 8653SOL    HW334345   4.927   3.866   4.690 -0.4558  0.5467  1.1380
 8653SOL    MW434346   4.939   3.784   4.717  0.2216  0.2773 -0.3834
 8654SOL     OW34347   6.076   1.653   4.605  0.5324  0.2154 -0.6886
 8654SOL    HW234348   6.014   1.615   4.667  2.1728  0.0197  0.9212
 8654SOL    HW334349   6.151   1.680   4.659  1.2494  1.7885 -2.3475
 8654SOL    MW434350   6.078   1.652   4.620  0.0135  0.1806  0.0193
 8655SOL     OW34351   0.237   1.277   5.316 -0.7323 -0.3507 -0.6056
 8655SOL    HW234352   0.153   1.234   5.332 -1.0672  0.7001  0.5896
 8655SOL    HW334353   0.269   1.237   5.235 -0.8067 -3.1443  0.6608
 8655SOL    MW434354   0.230   1.266   5.307 -0.1488 -0.1936 -0.0003
 8656SOL     OW34355   1.082   0.285   4.996 -0.1896  0.2181 -0.3696
 8656SOL    HW234356   1.132   0.353   4.952 -0.5683  1.1180  0.5589
 8656SOL    HW334357   1.003   0.329   5.028 -1.3685 -1.0608 -1.3880
 8656SOL    MW434358   1.078   0.300   4.995  0.0097 -0.2688  0.0291
 8657SOL     OW34359   5.497   5.952   3.639  0.1586 -0.5226 -0.4539
 8657SOL    HW234360   5.506   5.893   3.713  0.1517 -0.3309 -0.3003
 8657SOL    HW334361   5.418   5.923   3.594  0.6355 -1.1950 -0.8892
 8657SOL    MW434362   5.488   5.940   3.643 -0.6231 -0.1940  0.1123
 8658SOL     OW34363   5.677   4.681   5.636  0.0371 -0.0357  0.3404
 8658SOL    HW234364   5.587   4.670   5.666 -0.8958 -0.4716 -2.3619
 8658SOL    HW334365   5.693   4.607   5.578  1.6862  0.7377 -0.2658
 8658SOL    MW434366   5.668   4.670   5.633 -0.9612 -0.4350 -0.0638
 8659SOL     OW34367   2.271   5.245   6.324 -0.1288  0.0340 -0.3353
 8659SOL    HW234368   2.355   5.288   6.312 -0.1924  0.6388  1.1705
 8659SOL    HW334369   2.216   5.278   6.252  0.7154  0.1091 -0.9554
 8659SOL    MW434370   2.275   5.255   6.313 -0.2693 -0.0149 -0.1376
 8660SOL     OW34371   2.583   0.429   5.000 -0.2640 -0.1422 -0.6519
 8660SOL    HW234372   2.677   0.424   5.021 -0.5194 -0.7685  0.4291
 8660SOL    HW334373   2.566   0.350   4.950 -0.3881 -0.4693 -0.0977
 8660SOL    MW434374   2.593   0.418   4.996 -0.2583 -0.2150 -0.4459
 8661SOL     OW34375   3.278   5.744   5.695  0.1274 -0.2533  0.2354
 8661SOL    HW234376   3.282   5.695   5.613  3.4456 -2.4679  1.5260
 8661SOL    HW334377   3.200   5.711   5.739 -1.0519  0.1328 -1.4541
 8661SOL    MW434378   3.268   5.734   5.690  0.3433 -1.0129  0.3277
 8662SOL     OW34379   3.529   4.442   1.911 -0.6615 -0.0591  0.0101
 8662SOL    HW234380   3.478   4.493   1.848 -0.1362  0.8945  0.3420
 8662SOL    HW334381   3.605   4.412   1.861 -0.3386  0.5423  0.1320
 8662SOL    MW434382   3.532   4.445   1.896  1.1394  0.0738  0.4235
 8663SOL     OW34383   1.218   1.695   2.114 -0.4242  0.1715 -0.5205
 8663SOL    HW234384   1.195   1.780   2.151 -0.5662  0.2103 -0.6985
 8663SOL    HW334385   1.152   1.635   2.149 -0.5779  0.2142 -0.7360
 8663SOL    MW434386   1.206   1.698   2.123  0.3945  0.5389  0.2080
 8664SOL     OW34387   3.198   1.508   5.084  0.4854  0.4466  0.4964
 8664SOL    HW234388   3.289   1.532   5.105  0.4109  1.6663 -0.4336
 8664SOL    HW334389   3.205   1.421   5.045  1.5660  1.3238 -1.4480
 8664SOL    MW434390   3.211   1.500   5.082  0.6801 -0.6752 -0.1499
 8665SOL     OW34391   1.467   1.795   3.778 -0.2678 -0.2848 -0.5246
 8665SOL    HW234392   1.472   1.848   3.857  0.4623 -1.9149  0.5826
 8665SOL    HW334393   1.447   1.857   3.708  2.8383  1.8537  0.2854
 8665SOL    MW434394   1.465   1.810   3.779 -0.4200 -0.2045 -0.7702
 8666SOL     OW34395   3.879   3.620   0.838  0.3455 -0.1688  0.3234
 8666SOL    HW234396   3.901   3.586   0.751 -0.3520  1.0862 -0.3862
 8666SOL    HW334397   3.954   3.598   0.892  1.0690 -0.4456 -0.7560
 8666SOL    MW434398   3.892   3.613   0.834 -0.0319  0.4900  0.4047
 8667SOL     OW34399   6.108   1.164   3.649 -0.6053  0.3263  0.2338
 8667SOL    HW234400   6.201   1.186   3.643 -0.0186 -1.2451  2.4687
 8667SOL    HW334401   6.100   1.079   3.606 -0.8956  0.2182  0.4945
 8667SOL    MW434402   6.119   1.156   3.643 -0.1211  0.5103 -0.1553
 8668SOL     OW34403   1.121   1.453   4.549  0.1902  0.1519 -0.5270
 8668SOL    HW234404   1.183   1.526   4.547  0.6826 -0.2352  0.3197
 8668SOL    HW334405   1.072   1.466   4.630 -1.4064  0.9004 -1.5657
 8668SOL    MW434406   1.123   1.465   4.559  0.2810 -0.3485 -0.5043
 8669SOL     OW34407   0.989   5.707   0.962  0.1090 -0.6041 -0.4633
 8669SOL    HW234408   0.996   5.778   0.897  1.0154 -0.5024 -0.2605
 8669SOL    HW334409   1.063   5.720   1.020 -0.9332 -0.4278  0.8850
 8669SOL    MW434410   0.999   5.718   0.961  0.3329  0.2926  0.3470
 8670SOL     OW34411   4.574   2.575   4.564 -0.5033 -0.2356  0.2646
 8670SOL    HW234412   4.615   2.545   4.482 -1.6091  0.8650 -0.7426
 8670SOL    HW334413   4.505   2.510   4.581 -0.2661 -0.4729  0.3226
 8670SOL    MW434414   4.570   2.562   4.555  0.3526  0.1277  0.2256
 8671SOL     OW34415   4.680   5.620   2.917 -0.6381 -0.5278 -0.0434
 8671SOL    HW234416   4.669   5.618   2.822 -1.5454  0.6610  0.0085
 8671SOL    HW334417   4.731   5.541   2.938 -1.9471 -1.7589 -1.3184
 8671SOL    MW434418   4.685   5.610   2.907  0.1885  0.1909  0.3414
 8672SOL     OW34419   0.986   3.737   2.676 -0.0055  0.1160 -0.2287
 8672SOL    HW234420   1.027   3.818   2.706 -0.8104  0.4093  0.0915
 8672SOL    HW334421   1.041   3.668   2.714  0.3235  0.4998  0.0092
 8672SOL    MW434422   0.999   3.739   2.685  0.4640  0.3483  0.0747
 8673SOL     OW34423   1.757   3.347   6.035  0.2163  0.1018  0.3340
 8673SOL    HW234424   1.717   3.280   6.091 -0.6996 -0.8245 -1.3346
 8673SOL    HW334425   1.834   3.304   5.998  1.3057  0.9938  1.4657
 8673SOL    MW434426   1.761   3.333   6.038  0.3735  0.0358  0.0716
 8674SOL     OW34427   5.647   1.552   3.685  0.1517 -0.1638  0.2403
 8674SOL    HW234428   5.668   1.642   3.713  0.0523 -0.1588  0.2995
 8674SOL    HW334429   5.720   1.500   3.716 -0.1322 -0.2162  0.8364
 8674SOL    MW434430   5.659   1.557   3.693  0.3605  0.4481 -0.1967
 8675SOL     OW34431   0.652   3.613   1.954  0.0056 -0.1255 -0.6091
 8675SOL    HW234432   0.692   3.528   1.932  0.7643 -0.2061  0.9656
 8675SOL    HW334433   0.609   3.598   2.038  0.7490  1.2327  0.0332
 8675SOL    MW434434   0.652   3.599   1.962 -0.0905  0.5676 -0.1599
 8676SOL     OW34435   2.180   5.524   4.190 -0.3798 -0.0772  0.4734
 8676SOL    HW234436   2.252   5.581   4.164 -1.0808  0.3645 -0.5808
 8676SOL    HW334437   2.118   5.530   4.117 -0.5937 -1.9839  0.4666
 8676SOL    MW434438   2.181   5.533   4.177 -0.3594 -0.3004 -0.3624
 8677SOL     OW34439   0.399   2.098   4.347  0.1296 -0.4707  0.1258
 8677SOL    HW234440   0.322   2.133   4.303 -0.2451 -0.1093  1.0321
 8677SOL    HW334441   0.383   2.116   4.440 -0.4527 -3.7706  0.7855
 8677SOL    MW434442   0.387   2.105   4.354  0.0744  0.0050 -0.1726
 8678SOL     OW34443   1.450   0.229   2.032  0.2497  0.3912 -0.5802
 8678SOL    HW234444   1.375   0.237   1.974 -0.5019 -1.6151  0.0366
 8678SOL    HW334445   1.527   0.234   1.975 -0.3414  1.7523 -1.2977
 8678SOL    MW434446   1.450   0.231   2.017 -0.2453  0.2633 -0.2512
 8679SOL     OW34447   0.809   5.115   4.920  0.4173 -0.7437  0.0337
 8679SOL    HW234448   0.718   5.142   4.909  1.0969  0.5282 -3.7514
 8679SOL    HW334449   0.809   5.067   5.003 -3.7027 -0.9361  0.1512
 8679SOL    MW434450   0.797   5.112   4.929 -0.0792  0.7105 -0.5427
 8680SOL     OW34451   3.617   0.414   5.046 -0.1290 -0.2428  0.1286
 8680SOL    HW234452   3.565   0.474   5.099  1.0948 -1.0131  2.3158
 8680SOL    HW334453   3.582   0.327   5.067 -0.6414 -0.4855 -1.5729
 8680SOL    MW434454   3.605   0.410   5.056  0.4373 -0.2031 -0.1702
 8681SOL     OW34455   2.149   5.936   3.513 -0.8540 -0.1328 -0.3098
 8681SOL    HW234456   2.149   5.969   3.603  2.8164 -0.4857 -0.0042
 8681SOL    HW334457   2.197   5.853   3.518 -0.4717 -0.1133 -2.5789
 8681SOL    MW434458   2.155   5.929   3.525 -0.3876  0.1636 -0.3080
 8682SOL     OW34459   2.945   3.083   1.837 -0.7213  0.0065 -0.3860
 8682SOL    HW234460   2.853   3.086   1.864 -1.1262 -0.9723 -1.5674
 8682SOL    HW334461   2.942   3.070   1.742  0.6331 -0.5097 -0.3874
 8682SOL    MW434462   2.932   3.082   1.828 -0.0659 -0.3387 -0.0868
 8683SOL     OW34463   1.721   0.874   6.270  0.1231 -0.2844  0.3589
 8683SOL    HW234464   1.625   0.874   6.275  0.0881 -0.0916 -0.2316
 8683SOL    HW334465   1.740   0.846   6.180  0.5704  1.2851 -0.0717
 8683SOL    MW434466   1.711   0.871   6.259  0.2180  0.0053  0.5892
 8684SOL     OW34467   1.016   2.826   0.482  0.1567  0.0722 -0.1066
 8684SOL    HW234468   1.068   2.856   0.557  0.6715  0.6995 -0.7009
 8684SOL    HW334469   0.950   2.893   0.470  0.0304 -0.0634 -0.1705
 8684SOL    MW434470   1.014   2.839   0.490 -0.3421 -0.2779  0.0285
 8685SOL     OW34471   3.078   5.990   4.160  0.3685 -0.0145 -0.4704
 8685SOL    HW234472   3.164   5.949   4.163  0.1365 -0.5647 -1.1060
 8685SOL    HW334473   3.051   5.996   4.252  0.7973 -0.4434 -0.3131
 8685SOL    MW434474   3.086   5.985   4.172  0.4762 -0.1866  0.4910
 8686SOL     OW34475   2.438   1.486   1.026  0.1388 -0.2582 -0.2124
 8686SOL    HW234476   2.469   1.400   1.056 -0.8282 -1.4505 -2.3318
 8686SOL    HW334477   2.342   1.479   1.029  0.0420  1.1477  0.5603
 8686SOL    MW434478   2.429   1.473   1.030  0.5906 -0.3267  0.0779
 8687SOL     OW34479   0.971   6.354   4.504 -0.5246 -0.7873  0.5291
 8687SOL    HW234480   0.888   6.319   4.471 -1.7092  1.1929  1.2464
 8687SOL    HW334481   0.981   6.315   4.591 -0.4697 -1.3282  0.2880
 8687SOL    MW434482   0.962   6.344   4.511 -0.6291  0.3276  0.6908
 8688SOL     OW34483   0.903   6.228   1.667  0.3153 -0.0076 -0.2468
 8688SOL    HW234484   0.856   6.300   1.626  0.0676  0.2581  0.4903
 8688SOL    HW334485   0.953   6.188   1.595  0.9940  1.3183 -0.5521
 8688SOL    MW434486   0.904   6.232   1.652 -0.9946  0.1414  0.2966
 8689SOL     OW34487   4.665   0.451   2.936  0.8570 -0.3466  0.2310
 8689SOL    HW234488   4.735   0.441   2.872  1.5276 -0.7385  1.0139
 8689SOL    HW334489   4.710   0.471   3.018 -0.0439  1.2900  0.3692
 8689SOL    MW434490   4.680   0.452   2.938 -0.1916 -0.4904 -0.6777
 8690SOL     OW34491   2.257   1.032   5.336  0.3156  0.6583 -0.0198
 8690SOL    HW234492   2.207   1.035   5.418  1.6779  0.5605  0.8560
 8690SOL    HW334493   2.347   1.054   5.363  1.0013 -0.4390 -1.3225
 8690SOL    MW434494   2.263   1.036   5.350  0.8747  0.5826  0.3101
 8691SOL     OW34495   1.127   6.276   5.383 -0.1996  0.4726 -0.4036
 8691SOL    HW234496   1.212   6.247   5.350  0.5880  1.2307  0.8977
 8691SOL    HW334497   1.079   6.195   5.399  1.4402 -0.1412  1.8145
 8691SOL    MW434498   1.132   6.261   5.381  0.2032  0.7975 -0.3902
 8692SOL     OW34499   1.463   2.480   2.545  0.2729 -0.0710  0.2548
 8692SOL    HW234500   1.455   2.392   2.509 -1.9096  0.8539 -1.7690
 8692SOL    HW334501   1.521   2.526   2.485 -1.5745  0.8485 -0.9131
 8692SOL    MW434502   1.470   2.475   2.532 -0.0381  0.5233  0.2572
 8693SOL     OW34503   4.365   4.157   5.571  0.4278 -0.5627  0.3483
 8693SOL    HW234504   4.300   4.184   5.507  0.7713  1.7966  0.8954
 8693SOL    HW334505   4.449   4.167   5.526  0.5563 -1.0676  0.4682
 8693SOL    MW434506   4.368   4.162   5.557  0.5764 -0.4546  0.0453
 8694SOL     OW34507   4.232   2.018   4.038 -0.3003 -0.1060  0.4071
 8694SOL    HW234508   4.139   2.042   4.033 -0.4324 -0.2317  1.8198
 8694SOL    HW334509   4.232   1.923   4.041 -0.0353 -0.1592 -0.7217
 8694SOL    MW434510   4.220   2.009   4.038 -0.2325 -0.0372 -0.6036
 8695SOL     OW34511   0.771   0.112   4.165  0.2506  0.0349  0.1848
 8695SOL    HW234512   0.758   0.017   4.165 -2.0696  0.2971 -1.1398
 8695SOL    HW334513   0.797   0.133   4.075 -0.9352  0.8315  0.0144
 8695SOL    MW434514   0.773   0.103   4.153  0.1237 -0.7438 -0.5301
 8696SOL     OW34515   2.191   5.672   2.214  0.5747  0.1157 -0.1365
 8696SOL    HW234516   2.135   5.606   2.254  1.3416 -0.6464 -0.2986
 8696SOL    HW334517   2.160   5.680   2.124 -0.3669  0.9489  0.2433
 8696SOL    MW434518   2.180   5.665   2.208 -0.2693 -0.2196  0.1554
 8697SOL     OW34519   2.309   4.494   1.015  0.3413  0.6379  0.2499
 8697SOL    HW234520   2.367   4.487   0.939 -0.4125 -0.2804 -0.2678
 8697SOL    HW334521   2.265   4.578   1.004  1.6460  1.4022  0.7186
 8697SOL    MW434522   2.311   4.504   1.003  0.1421  0.3834 -0.2734
 8698SOL     OW34523   3.303   5.829   0.731  0.1178  0.0476  0.1323
 8698SOL    HW234524   3.276   5.823   0.639  0.8992  0.4841 -0.1323
 8698SOL    HW334525   3.332   5.920   0.742  0.6297 -0.1718  0.6440
 8698SOL    MW434526   3.303   5.840   0.720 -0.6446 -0.6577  0.6183
 8699SOL     OW34527   1.812   5.811   6.157  0.2786 -0.4772 -0.2076
 8699SOL    HW234528   1.864   5.881   6.118 -0.5286 -0.6815 -1.7294
 8699SOL    HW334529   1.779   5.848   6.239  2.0376 -0.0436  0.3515
 8699SOL    MW434530   1.814   5.825   6.163  0.7039  0.1244 -0.1855
 8700SOL     OW34531   3.097   1.147   4.227  0.5647  0.1267  0.2406
 8700SOL    HW234532   3.081   1.220   4.168 -2.4718  0.5081  1.3432
 8700SOL    HW334533   3.095   1.069   4.172 -0.1557  0.6123 -0.4233
 8700SOL    MW434534   3.095   1.146   4.212  0.0488 -0.5048  0.2876
 8701SOL     OW34535   5.731   2.155   2.594  0.3965  0.3231  0.3041
 8701SOL    HW234536   5.710   2.225   2.532 -2.0797 -2.0950 -1.9146
 8701SOL    HW334537   5.696   2.185   2.678 -0.4475  1.8217 -0.5391
 8701SOL    MW434538   5.723   2.168   2.597 -0.4974  0.2129 -0.9624
 8702SOL     OW34539   2.336   2.839   2.767  0.0027 -0.8406  0.1130
 8702SOL    HW234540   2.362   2.931   2.763  1.3058 -1.1496  0.8291
 8702SOL    HW334541   2.348   2.806   2.678  1.0062 -0.6737  0.1738
 8702SOL    MW434542   2.341   2.847   2.755  0.2043 -0.0742 -1.0092
 8703SOL     OW34543   1.904   0.811   5.437  0.4573 -0.2766 -0.1881
 8703SOL    HW234544   1.965   0.883   5.457 -0.0330  0.2763 -0.6598
 8703SOL    HW334545   1.958   0.732   5.442  0.9899  0.1158  0.4055
 8703SOL    MW434546   1.920   0.810   5.440  0.3052  0.4964  0.1024
 8704SOL     OW34547   5.142   5.827   4.273 -0.1780  0.2321  0.0247
 8704SOL    HW234548   5.086   5.767   4.324 -1.4489  0.0267 -1.5267
 8704SOL    HW334549   5.224   5.779   4.261 -0.4270 -0.3474  0.5633
 8704SOL    MW434550   5.145   5.813   4.278 -0.1404 -0.1847 -0.7131
 8705SOL     OW34551   3.286   4.420   3.197  0.2249  0.0380  0.7361
 8705SOL    HW234552   3.202   4.401   3.240 -0.0993 -1.2344 -0.3781
 8705SOL    HW334553   3.350   4.370   3.248  0.1687  0.2369  1.0069
 8705SOL    MW434554   3.283   4.411   3.210  0.1662 -0.6070 -0.4942
 8706SOL     OW34555   0.173   0.895   0.247  0.2184  0.4966 -0.0519
 8706SOL    HW234556   0.252   0.888   0.300  1.2843 -1.6406 -1.7759
 8706SOL    HW334557   0.111   0.836   0.289  0.9348 -0.9020 -0.8758
 8706SOL    MW434558   0.175   0.886   0.260 -0.3841 -0.4373 -0.1027
 8707SOL     OW34559   1.240   2.627   4.331  0.0175 -0.3906  0.0868
 8707SOL    HW234560   1.177   2.699   4.324 -1.1944 -1.3386  0.7603
 8707SOL    HW334561   1.272   2.614   4.242 -0.1262  0.6495 -0.1214
 8707SOL    MW434562   1.236   2.634   4.318 -0.5273 -0.0509 -0.0779
 8708SOL     OW34563   1.200   3.805   2.374 -0.1244  0.2236  0.2453
 8708SOL    HW234564   1.136   3.791   2.303  0.9680  1.5523 -1.0725
 8708SOL    HW334565   1.245   3.721   2.381  0.0234  0.1740 -0.9543
 8708SOL    MW434566   1.198   3.792   2.365 -0.3632 -0.2431  0.2813
 8709SOL     OW34567   0.074   2.484   0.675  0.0525 -0.7643  0.0299
 8709SOL    HW234568   0.090   2.392   0.692 -0.2413 -0.5885  1.4265
 8709SOL    HW334569   0.161   2.524   0.672  0.1515 -0.6772  2.1942
 8709SOL    MW434570   0.087   2.477   0.677 -0.8468 -0.2976  0.7721
 8710SOL     OW34571   2.232   3.907   0.002 -0.1918  0.0328 -0.0712
 8710SOL    HW234572   2.165   3.911   0.070  0.2830 -1.7779  0.5486
 8710SOL    HW334573   2.267   3.996  -0.003 -2.5562  1.0202 -0.3699
 8710SOL    MW434574   2.228   3.919   0.010 -0.1965 -0.3030  0.2506
 8711SOL     OW34575   3.075   1.877   1.903 -0.1222  0.0709 -0.0006
 8711SOL    HW234576   3.064   1.954   1.846  0.4453  1.0892  1.2351
 8711SOL    HW334577   3.067   1.802   1.843  0.3562  1.0998 -1.4052
 8711SOL    MW434578   3.072   1.877   1.887 -0.1816 -0.0265 -0.3154
 8712SOL     OW34579   4.741   0.619   1.390 -0.3270  0.3132  0.5777
 8712SOL    HW234580   4.707   0.538   1.353 -0.4201  0.9120 -0.6991
 8712SOL    HW334581   4.831   0.598   1.417  0.2533  0.2215 -1.3320
 8712SOL    MW434582   4.748   0.606   1.389 -0.3391  0.1409 -0.0206
 8713SOL     OW34583   4.403   5.140   2.535 -0.1923 -0.1752 -0.3543
 8713SOL    HW234584   4.466   5.076   2.502  0.5515  0.4428 -0.1658
 8713SOL    HW334585   4.367   5.100   2.614 -0.7508 -0.9414 -0.9763
 8713SOL    MW434586   4.406   5.126   2.541  0.2035  0.1784  0.3341
 8714SOL     OW34587   0.669   4.696   1.065  0.5378 -0.3739  0.6946
 8714SOL    HW234588   0.657   4.630   0.997  0.2130  0.8234 -0.4579
 8714SOL    HW334589   0.646   4.779   1.022  4.0245  0.9625  1.0445
 8714SOL    MW434590   0.664   4.698   1.050  0.1632  0.7229 -0.0305
 8715SOL     OW34591   3.028   0.882   3.159  0.1960  0.5236  0.2861
 8715SOL    HW234592   3.001   0.817   3.223 -0.9307 -0.3193 -0.9826
 8715SOL    HW334593   3.091   0.937   3.205 -0.8417  0.1775  2.2115
 8715SOL    MW434594   3.033   0.881   3.174 -0.1417 -0.5420  0.1256
 8716SOL     OW34595   4.397   5.774   2.554 -0.5917 -0.1209 -0.0244
 8716SOL    HW234596   4.404   5.860   2.594  2.1931 -0.2264 -0.0978
 8716SOL    HW334597   4.370   5.716   2.625  0.1785  0.3696  0.6744
 8716SOL    MW434598   4.394   5.778   2.568 -0.2347  0.1614  0.0365
 8717SOL     OW34599   3.395   4.601   3.383  0.3156 -0.2147  0.3268
 8717SOL    HW234600   3.354   4.552   3.312  1.6619 -2.9056  1.2898
 8717SOL    HW334601   3.390   4.692   3.355 -0.5644 -1.0304 -2.4705
 8717SOL    MW434602   3.389   4.607   3.370  0.0953  0.1830 -0.2191
 8718SOL     OW34603   5.238   6.318   5.549  0.4968 -0.0838  0.4172
 8718SOL    HW234604   5.159   6.265   5.559  1.3197 -1.2176  1.0905
 8718SOL    HW334605   5.283   6.313   5.633  2.2809 -1.1206 -0.5244
 8718SOL    MW434606   5.234   6.310   5.561  0.0171  0.4662  0.4376
 8719SOL     OW34607   5.768   2.535   3.783  0.1355 -0.5320  0.5744
 8719SOL    HW234608   5.791   2.626   3.799  2.4616 -1.0834  0.6974
 8719SOL    HW334609   5.837   2.502   3.725 -0.1614 -2.4223  1.2056
 8719SOL    MW434610   5.780   2.543   3.778 -0.0530 -0.1810 -0.2257
 8720SOL     OW34611   5.970   3.589   1.445 -0.0169  0.2945 -0.2836
 8720SOL    HW234612   6.027   3.520   1.479 -1.5115 -0.2411  1.3119
 8720SOL    HW334613   5.995   3.668   1.493  0.0236  0.2818 -0.2841
 8720SOL    MW434614   5.981   3.590   1.456 -0.2244 -0.2465  0.2349
 8721SOL     OW34615   5.227   6.078   4.073 -1.0988  0.2585 -0.0050
 8721SOL    HW234616   5.260   6.100   3.986 -0.9972  1.5385  0.3484
 8721SOL    HW334617   5.281   6.004   4.101 -0.6315  0.3248 -0.7062
 8721SOL    MW434618   5.238   6.071   4.065 -0.1817 -0.1333 -0.5772
 8722SOL     OW34619   3.841   0.667   1.854  0.0362  0.1681 -0.2668
 8722SOL    HW234620   3.809   0.621   1.777  1.5815 -1.5647  0.0417
 8722SOL    HW334621   3.769   0.663   1.917 -0.4683 -0.3077 -0.8682
 8722SOL    MW434622   3.827   0.660   1.852 -0.2476  0.2355 -0.2915
 8723SOL     OW34623   2.078   2.823   5.979  0.1588  0.2738 -0.4685
 8723SOL    HW234624   2.150   2.795   6.036 -0.3354 -0.2324 -0.0811
 8723SOL    HW334625   2.022   2.877   6.035  0.1839  0.5936 -0.7450
 8723SOL    MW434626   2.080   2.827   5.994  0.3104 -0.8161 -0.3244
 8724SOL     OW34627   1.525   5.523   6.335 -0.1858  0.0711  0.5038
 8724SOL    HW234628   1.560   5.561   6.416 -0.3647  1.8646 -0.2348
 8724SOL    HW334629   1.430   5.531   6.345 -0.1723  1.5013 -0.4385
 8724SOL    MW434630   1.517   5.529   6.347  0.1578  0.3635 -0.2596
 8725SOL     OW34631   6.241   6.224   4.711  0.0671 -0.4056 -0.1898
 8725SOL    HW234632   6.325   6.204   4.752 -0.0852  2.7443  2.1363
 8725SOL    HW334633   6.262   6.282   4.638 -0.0295  1.5238  1.2361
 8725SOL    MW434634   6.255   6.229   4.707 -0.0826 -0.1228  0.3580
 8726SOL     OW34635   3.874   2.607   0.154 -0.0882  0.4350 -0.6748
 8726SOL    HW234636   3.881   2.547   0.229 -1.1754  1.1521  0.0403
 8726SOL    HW334637   3.817   2.560   0.092  0.9218 -0.2167 -1.1379
 8726SOL    MW434638   3.867   2.593   0.156  0.1217 -0.1618 -0.1261
 8727SOL     OW34639   3.598   4.489   3.760 -0.7112 -0.7503 -0.4725
 8727SOL    HW234640   3.635   4.424   3.700 -1.7430 -0.8358 -1.0427
 8727SOL    HW334641   3.673   4.522   3.809 -0.2846 -3.2743  0.7278
 8727SOL    MW434642   3.612   4.484   3.758 -0.3105 -0.0452 -0.2581
 8728SOL     OW34643   0.062   3.191   2.668 -0.1993  0.6780  0.5479
 8728SOL    HW234644   0.053   3.245   2.747  1.1389  0.4026  0.9182
 8728SOL    HW334645  -0.028   3.178   2.637 -0.7700  0.6227  2.1430
 8728SOL    MW434646   0.049   3.196   2.674  0.3356 -0.4770 -0.7237
 8729SOL     OW34647   1.491   6.405   3.068 -0.3762 -0.2568 -0.1116
 8729SOL    HW234648   1.517   6.411   3.160 -0.3329  0.0035 -0.1407
 8729SOL    HW334649   1.523   6.486   3.028  0.7576 -0.9451 -0.6461
 8729SOL    MW434650   1.498   6.417   3.075 -0.1178 -0.5007  0.6898
 8730SOL     OW34651   3.641   0.483   4.220  0.1470  0.5424 -0.4757
 8730SOL    HW234652   3.630   0.492   4.315  0.0342 -1.1914 -0.2946
 8730SOL    HW334653   3.601   0.562   4.184  0.0588  1.1659  0.9034
 8730SOL    MW434654   3.634   0.495   4.228 -0.1607 -0.2391  0.1772
 8731SOL     OW34655   1.838   1.993   5.973  0.2620  0.0624  0.0525
 8731SOL    HW234656   1.773   2.004   6.043 -0.4932  0.7763 -0.7430
 8731SOL    HW334657   1.860   2.082   5.947  0.8410 -0.1963 -0.3640
 8731SOL    MW434658   1.832   2.006   5.979 -0.6801 -0.1223  0.2953
 8732SOL     OW34659   5.162   4.078   5.258  0.0477 -0.4287  0.1398
 8732SOL    HW234660   5.193   4.088   5.348  1.7398 -1.2004 -0.3222
 8732SOL    HW334661   5.200   4.151   5.211 -3.3633  1.8543  0.5652
 8732SOL    MW434662   5.171   4.089   5.264 -0.2822  0.0902  0.3710
 8733SOL     OW34663   4.611   5.150   5.081 -0.0013 -0.2761 -0.4880
 8733SOL    HW234664   4.610   5.176   5.173 -0.9109 -0.7554 -0.3483
 8733SOL    HW334665   4.646   5.061   5.081  2.5509  0.6432 -0.9068
 8733SOL    MW434666   4.616   5.142   5.093  0.3245 -0.0091 -0.3310
 8734SOL     OW34667   1.363   5.592   4.109  0.4006 -0.4058 -0.2767
 8734SOL    HW234668   1.443   5.539   4.114  2.2689  2.0186 -1.8014
 8734SOL    HW334669   1.365   5.631   4.021  0.4011  3.7868  1.3163
 8734SOL    MW434670   1.374   5.590   4.098 -0.0064  0.2819  0.6348
 8735SOL     OW34671   3.217   0.776   4.400 -0.6897  0.0203 -0.0759
 8735SOL    HW234672   3.263   0.694   4.419 -1.8513 -0.2124  2.0161
 8735SOL    HW334673   3.146   0.780   4.464  0.5699  3.6645  1.3839
 8735SOL    MW434674   3.214   0.766   4.411  0.2944  0.0116 -0.2361
 8736SOL     OW34675   0.495   1.651   5.665 -0.0173 -0.2360 -0.1674
 8736SOL    HW234676   0.489   1.557   5.684  2.5451 -0.1220  1.7188
 8736SOL    HW334677   0.545   1.656   5.583  2.1005 -0.5814  1.0168
 8736SOL    MW434678   0.501   1.639   5.657 -0.2259 -0.7229  0.3568
 8737SOL     OW34679   3.426   4.706   3.991  0.7307  0.3357  0.0985
 8737SOL    HW234680   3.408   4.613   3.983  0.6724  0.4657 -1.8594
 8737SOL    HW334681   3.366   4.737   4.059 -2.8240 -0.2243 -2.5265
 8737SOL    MW434682   3.416   4.698   3.999 -0.0909 -0.2363  0.1168
 8738SOL     OW34683   6.315   1.854   6.346 -0.2237 -0.2522  0.1726
 8738SOL    HW234684   6.234   1.859   6.397 -0.9841 -0.8707 -0.9401
 8738SOL    HW334685   6.336   1.946   6.326 -1.2307 -0.1387 -0.4193
 8738SOL    MW434686   6.307   1.867   6.350  0.2566  0.0713  0.3254
 8739SOL     OW34687   2.420   0.946   2.488 -0.5299 -0.0399 -0.3279
 8739SOL    HW234688   2.444   0.869   2.438 -0.8393  0.3735 -1.1232
 8739SOL    HW334689   2.355   0.914   2.551 -0.8494 -0.3820 -0.8223
 8739SOL    MW434690   2.415   0.932   2.490  0.1400  0.0340 -0.2532
 8740SOL     OW34691   3.063   2.347   1.501 -0.4395  0.5084 -0.2545
 8740SOL    HW234692   3.104   2.347   1.414 -0.9556 -0.6184 -0.5141
 8740SOL    HW334693   3.012   2.428   1.503 -0.7729  0.3351 -1.1796
 8740SOL    MW434694   3.062   2.358   1.490  0.9226 -0.1053 -0.0371
 8741SOL     OW34695   5.230   2.392   6.185  0.3232 -0.4862  0.5180
 8741SOL    HW234696   5.204   2.372   6.095 -0.5875  1.4934  0.2929
 8741SOL    HW334697   5.264   2.481   6.180 -1.1781  0.2504  2.3794
 8741SOL    MW434698   5.231   2.401   6.172  0.2084  0.3009  0.2992
 8742SOL     OW34699   1.234   2.581   0.301  0.2960 -0.2844  0.3838
 8742SOL    HW234700   1.192   2.629   0.230  0.8629 -0.5291 -0.1225
 8742SOL    HW334701   1.308   2.537   0.260  2.7497  2.2839  1.7044
 8742SOL    MW434702   1.238   2.582   0.286 -0.0214  0.2373 -0.2286
 8743SOL     OW34703   4.811   4.731   3.971 -0.2159 -0.0537 -0.2944
 8743SOL    HW234704   4.762   4.799   3.924  0.0939 -0.8076 -1.7609
 8743SOL    HW334705   4.885   4.778   4.010 -0.3943  0.5692 -0.6931
 8743SOL    MW434706   4.814   4.746   3.970 -0.0027  0.1652  0.5778
 8744SOL     OW34707   5.440   3.999   4.149  0.2122  0.4218 -0.8905
 8744SOL    HW234708   5.371   4.055   4.114  0.0681  0.6813 -0.1945
 8744SOL    HW334709   5.414   3.910   4.122  0.5538  0.6913 -2.1732
 8744SOL    MW434710   5.427   3.995   4.141  0.0837 -0.6455 -0.9307
 8745SOL     OW34711   1.027   1.920   1.742  0.1235 -0.0744 -0.1206
 8745SOL    HW234712   0.977   1.997   1.717  1.2032  0.7128  0.0698
 8745SOL    HW334713   0.977   1.847   1.705 -0.5226  0.7536 -0.9695
 8745SOL    MW434714   1.014   1.921   1.734 -0.6789  0.2732 -0.2173
 8746SOL     OW34715   4.819   5.052   6.194  0.2142 -0.0801 -0.0741
 8746SOL    HW234716   4.746   5.059   6.255  1.0012  1.7624  0.7572
 8746SOL    HW334717   4.882   4.995   6.238 -0.4584 -1.2197 -0.5487
 8746SOL    MW434718   4.818   5.046   6.208 -0.3422  0.7186 -0.4374
 8747SOL     OW34719   2.952   5.178   3.795 -0.3391  1.3805  0.3646
 8747SOL    HW234720   2.936   5.218   3.881 -0.3628  1.1479  0.4670
 8747SOL    HW334721   2.867   5.183   3.751  0.1388  3.3896 -0.4325
 8747SOL    MW434722   2.938   5.184   3.801 -0.1318 -0.1260  0.3708
 8748SOL     OW34723   4.733   4.759   5.924 -0.3764 -0.0525 -0.2169
 8748SOL    HW234724   4.694   4.679   5.959 -0.0138  0.3703  1.2418
 8748SOL    HW334725   4.680   4.830   5.962 -0.2755  0.4222 -0.9409
 8748SOL    MW434726   4.721   4.758   5.934  0.4057  0.0337 -0.3521
 8749SOL     OW34727   5.225   4.773   2.458 -0.3670 -0.2409 -0.2969
 8749SOL    HW234728   5.249   4.775   2.551 -0.0163 -1.0797 -0.3607
 8749SOL    HW334729   5.250   4.859   2.425 -1.2163  0.3595  0.5529
 8749SOL    MW434730   5.231   4.785   2.466  0.5151  0.2518 -0.7879
 8750SOL     OW34731   2.894   1.842   0.896 -0.0868  0.3123 -0.0823
 8750SOL    HW234732   2.834   1.778   0.934  2.4909 -2.3604 -0.0871
 8750SOL    HW334733   2.892   1.916   0.956  0.2907 -1.8001  2.7433
 8750SOL    MW434734   2.886   1.844   0.909  0.9356 -0.1851  0.5128
 8751SOL     OW34735   5.596   5.315   5.264  0.4068  0.2642 -0.0292
 8751SOL    HW234736   5.625   5.317   5.355 -1.3457  2.7457  0.5931
 8751SOL    HW334737   5.676   5.306   5.213  1.4516 -0.8318  1.7235
 8751SOL    MW434738   5.610   5.314   5.269  0.0906 -0.4716  0.3219
 8752SOL     OW34739   4.209   3.296   5.549 -0.8808 -0.2565  0.2726
 8752SOL    HW234740   4.233   3.332   5.463 -2.9110  1.9639  0.5150
 8752SOL    HW334741   4.125   3.253   5.534 -0.5266 -1.1892  0.8771
 8752SOL    MW434742   4.201   3.295   5.536  0.4361 -0.2072  0.2237
 8753SOL     OW34743   0.394   3.401   0.888  0.4431 -0.2943 -0.5704
 8753SOL    HW234744   0.373   3.353   0.969 -0.0791 -0.8915 -1.0421
 8753SOL    HW334745   0.420   3.333   0.826 -1.0742 -0.0953 -1.4997
 8753SOL    MW434746   0.394   3.386   0.891 -0.1065 -0.3686  0.6436
 8754SOL     OW34747   1.247   5.543   6.353 -0.1668 -0.3961  0.4175
 8754SOL    HW234748   1.234   5.632   6.319 -1.4760 -0.8839 -0.4359
 8754SOL    HW334749   1.236   5.552   6.447 -2.0592  0.0854  0.1876
 8754SOL    MW434750   1.244   5.556   6.361 -0.0210 -0.4584 -0.1456
 8755SOL     OW34751   5.151   3.563   0.890  0.7407 -0.5762 -0.0460
 8755SOL    HW234752   5.180   3.634   0.948  0.1225  0.0240 -0.4599
 8755SOL    HW334753   5.064   3.541   0.921  0.6578 -0.6842 -0.3549
 8755SOL    MW434754   5.144   3.569   0.902  0.1245 -0.5955 -0.2678
 8756SOL     OW34755   3.896   5.984   1.821  0.4100 -0.0520 -0.4150
 8756SOL    HW234756   3.966   6.042   1.851 -0.1317  0.1753  0.4348
 8756SOL    HW334757   3.940   5.919   1.767  0.9081  1.7773 -2.3373
 8756SOL    MW434758   3.911   5.983   1.818 -0.0487 -0.0672  0.2352
 8757SOL     OW34759   5.440   0.017   1.580  0.2891  0.2370  0.7340
 8757SOL    HW234760   5.503  -0.014   1.644 -0.3616  0.4676  1.4986
 8757SOL    HW334761   5.469   0.105   1.557 -0.2191  0.6770  1.7289
 8757SOL    MW434762   5.452   0.024   1.585  0.3052 -0.0344 -0.4028
 8758SOL     OW34763   1.009   0.293   2.165  0.4057  0.7017 -0.1521
 8758SOL    HW234764   1.068   0.356   2.206 -0.3927  0.9277  0.7027
 8758SOL    HW334765   0.978   0.337   2.086 -0.6160  1.6815  0.7487
 8758SOL    MW434766   1.013   0.307   2.160 -0.3650 -0.5266  0.0298
 8759SOL     OW34767   5.552   3.681   6.276  0.2160 -0.1853 -0.3623
 8759SOL    HW234768   5.616   3.667   6.206 -0.9417  0.0113 -1.4942
 8759SOL    HW334769   5.467   3.683   6.232 -0.8013 -2.2981  1.3158
 8759SOL    MW434770   5.549   3.680   6.261  1.1522  0.1165  0.2142
 8760SOL     OW34771   5.339   5.609   6.402  0.0629  0.3651 -0.1296
 8760SOL    HW234772   5.411   5.627   6.463  0.5402 -2.6475  0.3634
 8760SOL    HW334773   5.260   5.616   6.455  0.1612  1.5201 -0.1254
 8760SOL    MW434774   5.338   5.612   6.417  0.0306  0.5862 -0.2581
 8761SOL     OW34775   4.973   4.876   6.348 -0.2528 -0.3261  0.4149
 8761SOL    HW234776   4.970   4.780   6.344  0.8576 -0.5076  2.5797
 8761SOL    HW334777   4.939   4.897   6.434  1.4551  1.0706  0.8037
 8761SOL    MW434778   4.968   4.866   6.359 -0.2548 -0.3505  0.1219
 8762SOL     OW34779   4.049   3.940   5.838  0.3040  0.5519  0.4715
 8762SOL    HW234780   4.100   4.014   5.871  1.1483 -0.6926  2.1157
 8762SOL    HW334781   4.114   3.876   5.808 -0.4004  0.3272 -0.6441
 8762SOL    MW434782   4.064   3.941   5.839  0.3598 -0.1819 -0.4821
 8763SOL     OW34783   4.506   5.284   2.949 -0.2054  0.3388  0.5216
 8763SOL    HW234784   4.533   5.199   2.983  1.3195  0.5275 -0.1079
 8763SOL    HW334785   4.568   5.346   2.988 -1.7026  1.2874  1.5046
 8763SOL    MW434786   4.518   5.281   2.958 -0.2486  0.5933  0.3623
 8764SOL     OW34787   1.779   0.169   4.589 -0.0603  0.1119  0.4132
 8764SOL    HW234788   1.859   0.136   4.631 -0.0812  1.4422  1.5805
 8764SOL    HW334789   1.736   0.091   4.555  2.3751 -0.5391 -1.4642
 8764SOL    MW434790   1.784   0.155   4.590  0.2566 -0.0185  0.1074
 8765SOL     OW34791   5.910   3.183   0.990  0.1758  0.1361  0.1910
 8765SOL    HW234792   5.930   3.099   1.031  0.6501  0.2974  0.2937
 8765SOL    HW334793   5.971   3.190   0.917  0.1353  0.3899  0.1793
 8765SOL    MW434794   5.921   3.173   0.986 -0.3910 -0.0027 -0.2192
 8766SOL     OW34795   5.748   2.779   1.224 -0.4237 -0.1754 -0.0474
 8766SOL    HW234796   5.814   2.752   1.288 -0.2692  0.6731  0.1655
 8766SOL    HW334797   5.731   2.700   1.173 -0.0611 -0.6919  0.6113
 8766SOL    MW434798   5.755   2.765   1.226 -0.6171  1.0755 -0.8429
 8767SOL     OW34799   6.146   0.049   5.419  0.5529  0.5765 -0.2204
 8767SOL    HW234800   6.192   0.124   5.382  1.9068 -0.0853  0.0691
 8767SOL    HW334801   6.158   0.056   5.513 -1.1755  1.1599 -0.0165
 8767SOL    MW434802   6.154   0.060   5.426  0.0022 -0.4375  0.1078
 8768SOL     OW34803   4.293   4.366   0.569  0.2092  0.3442  0.5440
 8768SOL    HW234804   4.326   4.376   0.659 -0.3504 -0.8087  0.8940
 8768SOL    HW334805   4.365   4.396   0.514  1.8289 -1.9409  1.2796
 8768SOL    MW434806   4.306   4.372   0.574 -0.3198 -0.7022 -0.1036
 8769SOL     OW34807   0.530   1.027   0.764  0.5007  0.1030  0.0138
 8769SOL    HW234808   0.523   1.078   0.845  1.3019  0.5956 -0.2115
 8769SOL    HW334809   0.455   1.054   0.711  0.3787  0.3201  0.2978
 8769SOL    MW434810   0.519   1.037   0.768 -0.6153  0.2840 -0.6093
 8770SOL     OW34811   4.838   6.364   2.665  0.0231 -0.0282  0.3556
 8770SOL    HW234812   4.801   6.276   2.668  1.4646 -0.6813 -0.0677
 8770SOL    HW334813   4.796   6.406   2.590 -0.0077 -0.6679  0.0120
 8770SOL    MW434814   4.828   6.358   2.656 -0.6223 -0.0320 -0.0123
 8771SOL     OW34815   0.215   5.416   4.742 -0.2946  0.0379  0.5369
 8771SOL    HW234816   0.137   5.367   4.770 -0.8894  0.2531 -0.6624
 8771SOL    HW334817   0.219   5.402   4.648  0.0599  1.5389  0.3056
 8771SOL    MW434818   0.205   5.408   4.734  0.3590 -1.1097  0.4376
 8772SOL     OW34819   0.042   3.261   1.277  0.2257  0.0748  0.1398
 8772SOL    HW234820  -0.023   3.322   1.242 -0.3136  0.7749  2.2664
 8772SOL    HW334821   0.125   3.290   1.240 -0.3002  0.8393 -0.4619
 8772SOL    MW434822   0.044   3.273   1.267 -0.6650 -0.4707  0.3856
 8773SOL     OW34823   0.841   4.424   4.907  0.6941 -0.0959  0.8448
 8773SOL    HW234824   0.902   4.351   4.897  1.3846  0.5016  0.5157
 8773SOL    HW334825   0.834   4.461   4.819 -0.0306 -0.0664  0.9151
 8773SOL    MW434826   0.848   4.420   4.894 -0.4480 -0.4422 -0.2968
 8774SOL     OW34827   4.434   3.448   3.456 -0.0344 -0.3650 -0.1303
 8774SOL    HW234828   4.497   3.376   3.458 -0.2732 -0.5728  0.0234
 8774SOL    HW334829   4.441   3.489   3.541  0.2543 -0.0737 -0.2953
 8774SOL    MW434830   4.443   3.444   3.467  0.3933  0.3883 -0.1562
 8775SOL     OW34831   0.672   1.405   0.042  0.7453 -0.0981  0.1303
 8775SOL    HW234832   0.616   1.334   0.009  0.4305 -0.2955  1.0566
 8775SOL    HW334833   0.655   1.407   0.136  0.7836  1.1818  0.1278
 8775SOL    MW434834   0.662   1.396   0.050  1.0415  0.3679  0.4401
 8776SOL     OW34835   3.612   0.371   1.755 -0.0796  0.1631  0.4596
 8776SOL    HW234836   3.535   0.425   1.776 -0.2844 -0.4079  1.2274
 8776SOL    HW334837   3.660   0.423   1.690 -1.4948  0.1803 -0.6186
 8776SOL    MW434838   3.608   0.385   1.749  0.6435  1.0334 -0.1559
 8777SOL     OW34839   6.409   5.530   2.477  0.3250  0.3442  0.0686
 8777SOL    HW234840   6.435   5.597   2.415 -0.9342  0.1169 -0.7476
 8777SOL    HW334841   6.490   5.488   2.504  0.9184  0.6387 -1.2140
 8777SOL    MW434842   6.423   5.534   2.472  0.2539 -0.8921  0.0115
 8778SOL     OW34843   2.860   2.736   3.419 -0.2267  0.0299  0.1023
 8778SOL    HW234844   2.828   2.800   3.483 -0.9544 -0.2710  0.0486
 8778SOL    HW334845   2.833   2.652   3.455  0.1927 -0.2027 -0.1321
 8778SOL    MW434846   2.852   2.734   3.432 -0.0800  0.1012 -0.8204
 8779SOL     OW34847   5.389   0.255   2.069 -0.0536  0.3968 -0.2490
 8779SOL    HW234848   5.342   0.214   1.997 -0.1639  0.0436  0.0225
 8779SOL    HW334849   5.324   0.311   2.112 -0.4635 -0.6968  0.6126
 8779SOL    MW434850   5.374   0.257   2.065  0.4545  0.0107 -0.0545
 8780SOL     OW34851   5.118   1.317   1.888  0.3399  0.2222  0.2702
 8780SOL    HW234852   5.154   1.329   1.976 -1.7668  5.1688  0.7915
 8780SOL    HW334853   5.025   1.299   1.902  0.4251 -1.4771 -1.0520
 8780SOL    MW434854   5.111   1.316   1.902 -0.1102  0.1089  0.2725
 8781SOL     OW34855   4.265   0.568   6.210 -0.5534 -0.1624  0.3833
 8781SOL    HW234856   4.318   0.641   6.243 -0.5730 -0.6004  1.4131
 8781SOL    HW334857   4.328   0.506   6.174 -0.5877  0.7531 -1.3612
 8781SOL    MW434858   4.280   0.570   6.209  0.4616 -0.1109 -0.0137
 8782SOL     OW34859   3.678   1.003   5.428 -0.9138 -0.0057  0.4609
 8782SOL    HW234860   3.598   0.949   5.425 -0.9487  0.0715 -1.4589
 8782SOL    HW334861   3.730   0.972   5.354  0.3542  0.7021  1.0307
 8782SOL    MW434862   3.674   0.992   5.418 -0.0224 -0.3280 -0.4711
 8783SOL     OW34863   0.008   0.849   0.018  0.5399  0.6694 -0.6955
 8783SOL    HW234864   0.061   0.854  -0.062  1.0951  0.0433 -0.3812
 8783SOL    HW334865   0.071   0.860   0.089  0.3011 -0.2994 -0.3089
 8783SOL    MW434866   0.024   0.851   0.017 -0.4597 -0.2661 -0.0920
 8784SOL     OW34867   5.461   4.442   1.949 -0.5558  0.3026 -0.0366
 8784SOL    HW234868   5.501   4.372   1.898 -1.6312 -0.2796 -0.1273
 8784SOL    HW334869   5.370   4.445   1.919 -1.8117 -1.3681  3.0947
 8784SOL    MW434870   5.454   4.433   1.938  0.1811  0.5556  0.4856
 8785SOL     OW34871   2.851   1.936   5.853  0.4780 -1.0549 -0.5610
 8785SOL    HW234872   2.899   1.972   5.927  0.3259  2.5475 -2.0234
 8785SOL    HW334873   2.888   1.849   5.840  2.7086 -0.5571  1.7611
 8785SOL    MW434874   2.862   1.929   5.861  0.4625  0.6962  0.0520
 8786SOL     OW34875   2.715   1.220   2.107  0.3690 -0.5541 -0.7518
 8786SOL    HW234876   2.631   1.177   2.126 -0.2116  0.4596 -0.9208
 8786SOL    HW334877   2.711   1.302   2.155  0.3244  0.4935 -2.4515
 8786SOL    MW434878   2.703   1.225   2.116 -0.3869  0.1480  0.5964
 8787SOL     OW34879   4.377   0.341   3.208 -0.0959  0.2667 -0.0774
 8787SOL    HW234880   4.453   0.333   3.265 -0.3223 -0.6703  0.1166
 8787SOL    HW334881   4.409   0.313   3.122 -0.6024 -1.8431  0.3576
 8787SOL    MW434882   4.391   0.336   3.204  0.5151  0.7659  0.4025
 8788SOL     OW34883   5.408   0.966   3.496 -0.0366  0.2359  0.4544
 8788SOL    HW234884   5.332   0.974   3.439  0.4486  1.7466 -0.0418
 8788SOL    HW334885   5.373   0.973   3.585 -0.9609 -3.3529  0.5362
 8788SOL    MW434886   5.394   0.968   3.500 -0.1136  0.5420 -0.0042
 8789SOL     OW34887   1.810   5.880   2.196 -0.2480  0.1189 -0.2690
 8789SOL    HW234888   1.859   5.953   2.159  2.6239 -0.7098  1.5576
 8789SOL    HW334889   1.819   5.810   2.132  0.7783  0.0635 -0.0783
 8789SOL    MW434890   1.817   5.880   2.183  0.0221 -0.2486 -0.2721
 8790SOL     OW34891   2.534   1.970   0.646  0.4315 -0.2812  0.0768
 8790SOL    HW234892   2.557   1.936   0.733  0.7571  1.8205  0.8483
 8790SOL    HW334893   2.618   1.998   0.609  0.0287  0.7531 -0.0554
 8790SOL    MW434894   2.548   1.969   0.653 -0.3076  0.6400 -0.0529
 8791SOL     OW34895   6.005   0.761   3.845 -0.7181  0.8787  0.0785
 8791SOL    HW234896   5.910   0.770   3.838 -0.7780 -0.6781 -1.6133
 8791SOL    HW334897   6.019   0.727   3.933 -1.8945 -0.5544 -0.2536
 8791SOL    MW434898   5.994   0.758   3.856  0.0231  0.6253 -0.2007
 8792SOL     OW34899   0.891   3.892   2.454  0.1611 -0.0151  0.5394
 8792SOL    HW234900   0.853   3.831   2.517 -0.6967 -1.2265 -1.0846
 8792SOL    HW334901   0.900   3.842   2.373  2.2207  1.1932 -0.0445
 8792SOL    MW434902   0.887   3.877   2.451 -0.5790  0.7458 -0.2975
 8793SOL     OW34903   5.389   1.110   6.299 -0.2215  0.2213 -0.1866
 8793SOL    HW234904   5.455   1.112   6.229 -1.3302  0.5253 -1.2487
 8793SOL    HW334905   5.348   1.196   6.296  0.4228  0.6329  1.5821
 8793SOL    MW434906   5.392   1.122   6.289  0.2552 -0.3237 -0.0447
 8794SOL     OW34907   5.764   0.750   5.761  0.2211 -0.5907 -0.1892
 8794SOL    HW234908   5.703   0.677   5.769  0.1555 -0.5916 -0.6892
 8794SOL    HW334909   5.839   0.714   5.714  1.0143 -0.8331  1.1839
 8794SOL    MW434910   5.766   0.736   5.756 -0.4665  0.0966  0.1459
 8795SOL     OW34911   0.080   2.966   0.362 -0.0602 -0.0634 -0.0546
 8795SOL    HW234912   0.092   2.968   0.267  2.9546  0.1260  0.2198
 8795SOL    HW334913   0.111   3.052   0.391 -0.8740 -0.1501  1.1122
 8795SOL    MW434914   0.086   2.978   0.353  0.3788 -0.0793  0.0820
 8796SOL     OW34915   4.908   1.537   0.750 -0.0118  0.0931 -0.1236
 8796SOL    HW234916   4.902   1.589   0.830  0.6798  1.0061 -0.6554
 8796SOL    HW334917   4.819   1.504   0.736 -0.2718  0.4455  0.6670
 8796SOL    MW434918   4.896   1.539   0.759  0.2735 -0.0208  0.3119
 8797SOL     OW34919   5.878   5.046   0.031  0.1693 -0.0328 -0.4421
 8797SOL    HW234920   5.900   5.036  -0.062  1.3001 -1.1432 -0.0746
 8797SOL    HW334921   5.962   5.043   0.076 -0.4304 -0.2272  0.6895
 8797SOL    MW434922   5.892   5.044   0.024 -0.2201 -0.3424  0.5479
 8798SOL     OW34923   5.512   3.311   2.819 -0.5567 -0.6954 -0.3144
 8798SOL    HW234924   5.495   3.338   2.728  1.5058 -2.4251 -1.3076
 8798SOL    HW334925   5.459   3.233   2.831  1.8148 -2.5976 -1.3751
 8798SOL    MW434926   5.503   3.304   2.809  0.6448  0.3871  0.1408
 8799SOL     OW34927   1.087   0.686   0.225 -0.0706  0.0472  0.2108
 8799SOL    HW234928   1.067   0.593   0.239 -1.2842  0.4653  1.4646
 8799SOL    HW334929   1.141   0.711   0.300  0.3118  0.3412 -0.1596
 8799SOL    MW434930   1.091   0.677   0.236 -0.3033  0.8534 -0.5683
 8800SOL     OW34931   1.672   2.305   3.984  0.1347  0.4600  0.2363
 8800SOL    HW234932   1.751   2.345   3.948  0.2522  0.5405  0.5794
 8800SOL    HW334933   1.603   2.325   3.920  0.6866 -0.9085 -0.8350
 8800SOL    MW434934   1.673   2.313   3.971 -0.0790  0.4218  0.2494
 8801SOL     OW34935   1.157   1.754   0.070 -0.0527  0.3240  0.2424
 8801SOL    HW234936   1.205   1.705   0.002 -0.8983  1.2355 -1.0530
 8801SOL    HW334937   1.219   1.760   0.142  1.4909  0.7010 -1.0435
 8801SOL    MW434938   1.172   1.748   0.070 -0.1965  0.2482 -0.4097
 8802SOL     OW34939   0.107   5.375   2.224  0.6186  0.1881 -0.1480
 8802SOL    HW234940   0.146   5.440   2.166  1.4151  1.0422  1.2930
 8802SOL    HW334941   0.070   5.310   2.165  2.2841  0.4820 -1.5971
 8802SOL    MW434942   0.107   5.375   2.208  0.1678 -0.4154 -0.0694
 8803SOL     OW34943   6.117   3.175   1.793  0.2205 -0.0726 -0.3309
 8803SOL    HW234944   6.115   3.253   1.850  0.2002 -0.7756  0.6593
 8803SOL    HW334945   6.032   3.133   1.807  0.8653 -1.1637  0.4476
 8803SOL    MW434946   6.106   3.180   1.803 -0.5880  0.6927  0.2814
 8804SOL     OW34947   4.688   0.259   4.006 -0.0033 -0.0549  0.1585
 8804SOL    HW234948   4.737   0.314   4.066 -1.0909 -0.2347  1.2683
 8804SOL    HW334949   4.597   0.288   4.016 -0.1542  0.2806 -1.8322
 8804SOL    MW434950   4.682   0.270   4.015  0.1872 -0.5445 -0.2478
 8805SOL     OW34951   1.374   3.978   3.526  0.1743 -0.6293 -0.0433
 8805SOL    HW234952   1.431   4.016   3.594 -1.1163 -1.6559  1.7050
 8805SOL    HW334953   1.287   4.013   3.546 -0.1551 -0.5643 -1.5148
 8805SOL    MW434954   1.370   3.988   3.538  0.1609 -0.8517  0.2794
 8806SOL     OW34955   4.509   0.203   1.831  0.7217 -0.3888 -0.1004
 8806SOL    HW234956   4.529   0.285   1.784  0.9603 -1.0744 -1.2445
 8806SOL    HW334957   4.578   0.143   1.803 -0.0554 -1.2914 -0.0923
 8806SOL    MW434958   4.521   0.206   1.821 -0.0822 -0.3870 -0.5914
 8807SOL     OW34959   2.610   5.371   2.179  0.2211  0.3043  0.2040
 8807SOL    HW234960   2.622   5.411   2.093  0.3200  0.2378  0.1870
 8807SOL    HW334961   2.692   5.325   2.196 -0.1964 -0.6083 -0.1500
 8807SOL    MW434962   2.623   5.370   2.170  0.4209  0.3834  0.7298
 8808SOL     OW34963   5.833   0.241   1.204  0.1948 -0.1135  0.0860
 8808SOL    HW234964   5.742   0.264   1.187 -0.2508 -1.3085  0.7631
 8808SOL    HW334965   5.846   0.156   1.162  0.1866 -1.2498  2.2230
 8808SOL    MW434966   5.823   0.233   1.196  0.5205  0.1453 -0.1968
 8809SOL     OW34967   3.065   6.257   2.464 -0.1496  0.4489  0.0375
 8809SOL    HW234968   3.118   6.188   2.504 -0.0484  1.0899  1.0322
 8809SOL    HW334969   3.013   6.293   2.536  0.8333  2.3780 -0.1495
 8809SOL    MW434970   3.065   6.253   2.479  0.6227  0.3795  0.2012
 8810SOL     OW34971   0.801   4.136   5.810  0.2150 -0.2222  0.0463
 8810SOL    HW234972   0.845   4.058   5.843 -0.4051 -0.6677 -0.1533
 8810SOL    HW334973   0.756   4.173   5.886 -0.6441 -0.8562 -0.1469
 8810SOL    MW434974   0.801   4.131   5.824 -0.4354 -0.1770  0.5848
 8811SOL     OW34975   3.002   4.854   0.237  0.0154  0.1285  0.1367
 8811SOL    HW234976   3.041   4.770   0.213 -0.3189 -0.3024  1.0523
 8811SOL    HW334977   3.073   4.902   0.280  0.3396  0.5133 -0.8103
 8811SOL    MW434978   3.017   4.850   0.240 -0.9239  0.3080 -0.3259
 8812SOL     OW34979   1.192   5.132   2.342 -0.1563 -0.1868  0.1299
 8812SOL    HW234980   1.266   5.142   2.283 -0.5712 -0.2342 -0.4127
 8812SOL    HW334981   1.171   5.039   2.339  0.0505 -0.2529  0.6424
 8812SOL    MW434982   1.199   5.121   2.334 -0.3095 -0.0333 -0.7797
 8813SOL     OW34983   5.083   1.452   2.329 -0.1127  0.1650 -0.5924
 8813SOL    HW234984   5.000   1.407   2.344 -0.1567 -0.2682 -1.9601
 8813SOL    HW334985   5.058   1.536   2.291  0.0213  0.8319  0.7538
 8813SOL    MW434986   5.069   1.457   2.326 -0.7906 -0.0914  0.3308
 8814SOL     OW34987   5.570   5.669   2.328  0.6883  0.5556  0.4619
 8814SOL    HW234988   5.580   5.575   2.314 -0.7076  0.5535 -0.7302
 8814SOL    HW334989   5.565   5.678   2.423  1.4292 -0.5021  0.6217
 8814SOL    MW434990   5.570   5.658   2.339  0.7909  0.8473 -0.0076
 8815SOL     OW34991   3.909   3.866   3.893 -0.2215 -0.0201 -0.1942
 8815SOL    HW234992   3.918   3.824   3.807  0.3053 -0.9052  0.2704
 8815SOL    HW334993   3.830   3.828   3.930 -0.2945  0.1545 -0.1695
 8815SOL    MW434994   3.900   3.856   3.886 -0.2470 -0.5893 -0.0349
 8816SOL     OW34995   6.078   0.245   1.949 -0.5305 -0.3482  0.3084
 8816SOL    HW234996   6.051   0.292   1.870 -0.9964  0.0504  0.6960
 8816SOL    HW334997   5.998   0.241   2.003  0.0002  0.2472  1.1752
 8816SOL    MW434998   6.064   0.251   1.946  0.2387  0.0315 -0.3540
 8817SOL     OW34999   2.905   3.223   3.549 -0.4245 -0.3644  0.2238
 8817SOL    HW235000   2.920   3.316   3.532 -1.4347 -0.2607 -0.1361
 8817SOL    HW335001   2.972   3.200   3.613 -0.2382  0.6416  0.4121
 8817SOL    MW435002   2.916   3.232   3.555  0.5059 -0.1845  0.1584
 8818SOL     OW35003   5.385   3.361   4.873  0.1355  0.0866  0.1572
 8818SOL    HW235004   5.438   3.283   4.859 -1.9642 -1.1381 -1.5575
 8818SOL    HW335005   5.437   3.432   4.835  2.0245 -0.4323  1.6312
 8818SOL    MW435006   5.399   3.360   4.866 -1.0494  0.2245  0.3094
 8819SOL     OW35007   5.415   3.813   5.455  0.1489  0.1051  0.4942
 8819SOL    HW235008   5.337   3.869   5.452 -0.4468 -0.7048  0.7511
 8819SOL    HW335009   5.431   3.789   5.364  0.9890  1.4498  0.2436
 8819SOL    MW435010   5.407   3.818   5.443  0.3425 -0.3880  0.2163
 8820SOL     OW35011   5.228   5.812   1.414 -0.3624 -0.1610  0.4290
 8820SOL    HW235012   5.318   5.831   1.443 -1.0041  1.5709  1.4617
 8820SOL    HW335013   5.222   5.716   1.416  1.5173 -0.3208  0.1250
 8820SOL    MW435014   5.239   5.802   1.418  0.2755  0.2396 -0.3701
 8821SOL     OW35015   5.977   2.389   3.636 -0.4032 -0.0590  0.0889
 8821SOL    HW235016   5.974   2.430   3.549  0.1164  0.5374  0.3481
 8821SOL    HW335017   6.066   2.406   3.668  0.4385 -2.8522 -0.4839
 8821SOL    MW435018   5.988   2.397   3.629  0.3773 -0.6819 -0.5923
 8822SOL     OW35019   2.510   0.399   5.765  0.4540 -0.2428  0.1145
 8822SOL    HW235020   2.440   0.396   5.700 -0.0413 -0.6128  0.6575
 8822SOL    HW335021   2.468   0.429   5.845  0.3198 -2.9224  1.1488
 8822SOL    MW435022   2.495   0.402   5.767 -0.0783  0.0226  0.0604
 8823SOL     OW35023   4.970   6.216   5.554  0.1674 -0.4872  0.0388
 8823SOL    HW235024   4.992   6.179   5.469 -1.4132 -1.1315 -0.1314
 8823SOL    HW335025   4.943   6.305   5.535  0.9757 -0.2395  0.0328
 8823SOL    MW435026   4.969   6.222   5.540  0.0378  0.1982  0.1901
 8824SOL     OW35027   0.812   0.830   5.571  0.0805 -0.4477 -1.3216
 8824SOL    HW235028   0.732   0.851   5.620  1.1602  2.0635 -0.4465
 8824SOL    HW335029   0.830   0.738   5.592 -2.7786 -1.2180 -1.9236
 8824SOL    MW435030   0.804   0.821   5.580  0.3627  0.3896  0.1980
 8825SOL     OW35031   2.252   6.289   0.593  0.3570 -0.1196 -0.3676
 8825SOL    HW235032   2.284   6.369   0.552 -0.2269  1.1951  1.6107
 8825SOL    HW335033   2.331   6.236   0.607  1.1543  1.2365  0.5726
 8825SOL    MW435034   2.267   6.293   0.590 -0.0767  0.0711 -0.5683
 8826SOL     OW35035   4.102   2.377   3.937  0.6347 -0.4018 -0.1348
 8826SOL    HW235036   4.047   2.369   4.015  0.0626  2.9744 -0.0504
 8826SOL    HW335037   4.191   2.381   3.972  0.4967 -0.3420  0.2178
 8826SOL    MW435038   4.107   2.376   3.952  0.5409  0.4233 -0.4285
 8827SOL     OW35039   3.689   2.220   5.270 -0.0215 -0.1502  0.1059
 8827SOL    HW235040   3.609   2.255   5.232  0.0406 -0.5133 -0.3724
 8827SOL    HW335041   3.661   2.178   5.352  0.1661  2.6509  1.7203
 8827SOL    MW435042   3.675   2.219   5.276 -0.6011  0.2787  0.1621
 8828SOL     OW35043   4.527   5.681   6.245  0.4654  0.0614  0.2515
 8828SOL    HW235044   4.580   5.647   6.318  2.0520 -0.0394 -0.8851
 8828SOL    HW335045   4.481   5.604   6.211  0.7939 -0.1616  0.2986
 8828SOL    MW435046   4.528   5.666   6.250  0.3973  0.3268 -0.0848
 8829SOL     OW35047   4.197   4.913   0.001  0.3966  0.1524  0.2819
 8829SOL    HW235048   4.140   4.902   0.077  1.5172  2.0650  1.4875
 8829SOL    HW335049   4.174   4.998  -0.035  1.3937  0.2581 -0.1568
 8829SOL    MW435050   4.187   4.923   0.006 -0.7945 -0.2172  1.0227
 8830SOL     OW35051   2.033   5.954   5.425  0.0812 -0.0662 -0.5403
 8830SOL    HW235052   2.032   5.866   5.465 -0.6725  0.2226  0.1006
 8830SOL    HW335053   1.942   5.970   5.400 -0.0405  1.0517  0.5249
 8830SOL    MW435054   2.021   5.944   5.427 -0.0764  0.1879  0.1356
 8831SOL     OW35055   2.665   3.032   5.169 -0.6333 -0.2708  0.1120
 8831SOL    HW235056   2.700   2.969   5.233 -2.6523  1.0064  2.6112
 8831SOL    HW335057   2.575   3.048   5.197 -2.1565 -0.6108 -3.8940
 8831SOL    MW435058   2.658   3.026   5.181 -0.7400  0.1297 -0.2196
 8832SOL     OW35059   1.227   4.231   5.758 -0.0150 -0.6284  0.1991
 8832SOL    HW235060   1.147   4.258   5.714  0.2038  1.5767  1.0051
 8832SOL    HW335061   1.278   4.312   5.767  2.8302 -2.0931 -1.2531
 8832SOL    MW435062   1.223   4.245   5.753  0.3376 -0.1598 -0.3800
 8833SOL     OW35063   1.379   5.803   3.520 -0.4498 -0.3952 -0.2118
 8833SOL    HW235064   1.340   5.839   3.600 -0.2922 -0.5484 -0.0666
 8833SOL    HW335065   1.447   5.866   3.497 -0.3133 -0.4921 -0.0739
 8833SOL    MW435066   1.383   5.816   3.528  0.7333 -0.2427  0.0269
 8834SOL     OW35067   3.931   6.026   4.121 -0.0141  0.5768 -0.1211
 8834SOL    HW235068   3.905   6.022   4.029  1.2626 -0.0628 -0.4739
 8834SOL    HW335069   3.995   6.097   4.125 -0.2041  0.7263  0.3090
 8834SOL    MW435070   3.936   6.035   4.110 -0.4358  0.4884  0.0175
 8835SOL     OW35071   0.299   1.000   2.394 -0.3278 -0.1605  0.2927
 8835SOL    HW235072   0.318   1.082   2.349 -0.4693 -0.9351 -1.2434
 8835SOL    HW335073   0.307   0.933   2.326 -3.3197 -1.1090  0.7237
 8835SOL    MW435074   0.303   1.002   2.379  0.1274 -0.6654  0.4204
 8836SOL     OW35075   0.678   6.202   2.210 -0.1532  0.6975 -0.6992
 8836SOL    HW235076   0.748   6.220   2.273  0.3436 -0.5515 -0.8604
 8836SOL    HW335077   0.606   6.258   2.237  0.9009  2.0123 -0.5256
 8836SOL    MW435078   0.678   6.212   2.222 -0.0957  0.0497 -0.2493
 8837SOL     OW35079   3.395   2.394   5.960  0.1562 -0.0304 -0.4542
 8837SOL    HW235080   3.331   2.337   5.917  0.3285 -0.4215 -0.1951
 8837SOL    HW335081   3.457   2.416   5.891 -0.3476  0.4915 -0.7521
 8837SOL    MW435082   3.395   2.390   5.945 -0.7685  0.3405 -0.8572
 8838SOL     OW35083   2.138   0.150   2.257  0.4682  0.3459  0.4487
 8838SOL    HW235084   2.097   0.102   2.185  0.2708 -1.1962  1.5629
 8838SOL    HW335085   2.215   0.098   2.280 -0.1008  0.1823  2.0983
 8838SOL    MW435086   2.143   0.137   2.250 -0.8519  0.0310 -0.0828
 8839SOL     OW35087   2.051   6.400   2.547  0.2783 -0.2191 -0.1051
 8839SOL    HW235088   2.017   6.394   2.636 -1.6987  0.7549 -0.7407
 8839SOL    HW335089   2.099   6.318   2.535  0.2519 -0.5488  1.6985
 8839SOL    MW435090   2.053   6.388   2.557 -0.4308 -0.0046 -0.2808
 8840SOL     OW35091   2.275   5.404   2.747 -0.7106 -0.4542  0.4409
 8840SOL    HW235092   2.344   5.461   2.713 -0.6855  0.5653  2.0979
 8840SOL    HW335093   2.314   5.317   2.748 -0.7662 -0.6011 -2.2065
 8840SOL    MW435094   2.289   5.400   2.743 -0.2044  0.1912  0.2002
 8841SOL     OW35095   2.260   0.922   1.799 -0.1757 -0.3985  0.6332
 8841SOL    HW235096   2.347   0.881   1.798  1.0509  1.9736  2.1282
 8841SOL    HW335097   2.261   0.983   1.726 -1.0962 -1.1908 -0.0797
 8841SOL    MW435098   2.272   0.924   1.789  0.0543  0.2106  0.0298
 8842SOL     OW35099   0.685   6.271   3.495 -0.6135 -0.1651  0.5596
 8842SOL    HW235100   0.607   6.270   3.551 -0.9941 -0.8745  0.0186
 8842SOL    HW335101   0.733   6.349   3.524 -0.5963 -0.7234  2.1543
 8842SOL    MW435102   0.681   6.282   3.507  0.3386  0.5747  0.1600
 8843SOL     OW35103   5.288   2.961   5.916  0.3708 -0.1504  0.2085
 8843SOL    HW235104   5.310   3.054   5.920 -0.8072  0.3009 -1.9509
 8843SOL    HW335105   5.359   2.917   5.962  1.3340  1.7518  0.6475
 8843SOL    MW435106   5.300   2.967   5.923  0.2321  0.4183 -0.6504
 8844SOL     OW35107   5.552   5.950   5.957  0.2717 -0.2021  0.1194
 8844SOL    HW235108   5.601   6.029   5.983 -0.0219 -0.4568  1.5496
 8844SOL    HW335109   5.617   5.880   5.959  0.5912  0.0125 -1.4052
 8844SOL    MW435110   5.567   5.951   5.961 -0.6823  0.0154 -0.4201
 8845SOL     OW35111   0.428   2.626   0.042  0.5571 -0.0236 -0.1194
 8845SOL    HW235112   0.383   2.703   0.005  0.8643  0.6379  0.8481
 8845SOL    HW335113   0.508   2.662   0.080  0.6374 -0.8089  0.4638
 8845SOL    MW435114   0.432   2.641   0.042  0.4228  0.1240 -0.1476
 8846SOL     OW35115   3.426   3.774   5.108 -0.5439 -0.1208  0.2163
 8846SOL    HW235116   3.338   3.802   5.083 -0.2626 -0.3965 -1.1636
 8846SOL    HW335117   3.413   3.721   5.186 -1.6426 -0.4439 -0.1662
 8846SOL    MW435118   3.413   3.771   5.115 -0.2371 -0.0739  0.5236
 8847SOL     OW35119   0.122   4.417   0.023 -0.2354 -0.3979 -0.6740
 8847SOL    HW235120   0.205   4.424  -0.022 -1.1934 -1.4504 -2.7371
 8847SOL    HW335121   0.089   4.330   0.001 -1.6066 -0.2524  0.5861
 8847SOL    MW435122   0.128   4.407   0.014 -0.4606  0.0259  0.0559
 8848SOL     OW35123   1.983   6.227   4.838 -0.3839 -0.2232  0.4049
 8848SOL    HW235124   1.987   6.198   4.929 -2.6138 -0.6171  0.4173
 8848SOL    HW335125   1.890   6.228   4.817  0.1380 -1.2277 -2.2414
 8848SOL    MW435126   1.971   6.224   4.847 -0.0225 -0.2838  0.3655
 8849SOL     OW35127   4.678   0.995   0.473  0.0776 -0.3141  0.2051
 8849SOL    HW235128   4.699   0.953   0.556  0.1299  1.5300  1.1954
 8849SOL    HW335129   4.679   1.089   0.494  0.0127  0.1843 -1.8682
 8849SOL    MW435130   4.681   1.002   0.487  0.2241  0.3708  0.0859
 8850SOL     OW35131   0.970   4.423   2.798 -0.0740  0.5871  0.0632
 8850SOL    HW235132   0.899   4.394   2.741 -0.0185  0.2675  0.1522
 8850SOL    HW335133   0.926   4.460   2.874 -0.1515  1.3198 -0.3300
 8850SOL    MW435134   0.955   4.424   2.800 -0.9945 -0.7005  0.2604
 8851SOL     OW35135   0.577   2.466   6.078 -0.0191 -0.1426 -0.0124
 8851SOL    HW235136   0.501   2.495   6.027 -0.7328 -2.9413 -0.7097
 8851SOL    HW335137   0.540   2.426   6.157  0.8973  0.7137  0.8781
 8851SOL    MW435138   0.562   2.465   6.082 -0.1575  0.6259 -0.5454
 8852SOL     OW35139   2.935   2.799   0.606 -0.0231  0.1932  0.4833
 8852SOL    HW235140   2.887   2.835   0.680  1.0007  0.0340  1.2435
 8852SOL    HW335141   2.879   2.729   0.572 -0.3920  0.1091  1.2583
 8852SOL    MW435142   2.921   2.795   0.611 -0.1240  0.4307 -0.0449
 8853SOL     OW35143   1.723   3.344   1.761  0.3012  0.1097 -0.7261
 8853SOL    HW235144   1.704   3.296   1.680  1.2681  2.1341 -2.2593
 8853SOL    HW335145   1.663   3.418   1.759 -1.3202 -1.0171  1.7134
 8853SOL    MW435146   1.713   3.347   1.750 -0.6380 -0.1794 -0.4387
 8854SOL     OW35147   2.550   2.323   1.995 -0.1720  0.0805 -0.2435
 8854SOL    HW235148   2.637   2.287   2.017 -0.4513 -2.8264 -3.1185
 8854SOL    HW335149   2.569   2.405   1.950  0.9547  0.4181  0.7948
 8854SOL    MW435150   2.564   2.329   1.992  0.7304 -0.1864  0.0211
 8855SOL     OW35151   1.618   5.679   4.479  0.0515 -0.2335 -0.2167
 8855SOL    HW235152   1.583   5.624   4.549 -0.3283  1.2131  0.7811
 8855SOL    HW335153   1.542   5.709   4.430  0.1035  0.6521  0.2221
 8855SOL    MW435154   1.604   5.676   4.482 -0.2041 -0.3417 -0.0209
 8856SOL     OW35155   2.802   2.535   2.261 -0.1761 -0.0662 -0.0461
 8856SOL    HW235156   2.734   2.574   2.316  1.3374 -0.0225  1.9055
 8856SOL    HW335157   2.791   2.440   2.272  0.3209 -0.0542  0.6295
 8856SOL    MW435158   2.792   2.527   2.270 -0.4855  0.1595  0.0870
 8857SOL     OW35159   4.727   3.372   0.366 -0.5558 -0.2430  0.3702
 8857SOL    HW235160   4.821   3.354   0.373 -0.6658 -0.5315  1.1313
 8857SOL    HW335161   4.695   3.307   0.303 -0.9473 -2.8757  3.0630
 8857SOL    MW435162   4.735   3.361   0.359 -0.0033  0.3585  0.8790
 8858SOL     OW35163   4.820   4.404   5.318 -0.0545  0.3390 -0.3192
 8858SOL    HW235164   4.817   4.473   5.383  0.6100  0.0260  0.0481
 8858SOL    HW335165   4.728   4.389   5.295 -0.4382 -0.5338  1.5917
 8858SOL    MW435166   4.807   4.411   5.323  0.0035  0.1013  0.0703
 8859SOL     OW35167   2.499   0.135   4.406 -0.1594 -0.1123  0.5652
 8859SOL    HW235168   2.449   0.217   4.406  0.3719  0.2739 -1.4632
 8859SOL    HW335169   2.445   0.074   4.456 -1.3303  1.0492  0.7673
 8859SOL    MW435170   2.485   0.138   4.412 -0.0266 -0.0491  0.0939
 8860SOL     OW35171   0.902   2.676   5.256 -0.0408  0.4894 -0.2531
 8860SOL    HW235172   0.922   2.733   5.182 -2.8049 -0.1771 -1.5959
 8860SOL    HW335173   0.922   2.588   5.225  1.6079  0.4088  0.8878
 8860SOL    MW435174   0.908   2.672   5.242 -0.6880  0.6246 -0.1644
 8861SOL     OW35175   2.840   4.782   4.879 -0.0185 -0.0071  0.1072
 8861SOL    HW235176   2.855   4.874   4.857  0.4803 -0.1409 -0.1220
 8861SOL    HW335177   2.745   4.772   4.874  0.0018  0.2175 -0.9925
 8861SOL    MW435178   2.830   4.793   4.876 -0.1991  0.3423 -0.1977
 8862SOL     OW35179   1.749   4.494   0.695 -0.8039  0.5937  0.0990
 8862SOL    HW235180   1.748   4.451   0.780  0.2761  1.0513  0.3560
 8862SOL    HW335181   1.837   4.478   0.660 -0.7722  1.5759 -0.3175
 8862SOL    MW435182   1.760   4.486   0.701  0.1905 -0.4813  0.8739
 8863SOL     OW35183   3.537   3.819   2.233 -0.0963  0.0675  0.5084
 8863SOL    HW235184   3.468   3.760   2.204  0.4217 -0.5320  0.4688
 8863SOL    HW335185   3.613   3.796   2.180 -0.1542  1.4677 -0.2254
 8863SOL    MW435186   3.538   3.808   2.222  0.0460 -0.0665  0.4825
 8864SOL     OW35187   1.017   5.733   0.098  0.1186 -0.5641 -0.2567
 8864SOL    HW235188   1.103   5.772   0.115  0.6034 -2.0083  0.7758
 8864SOL    HW335189   0.968   5.746   0.179 -0.5186 -0.0808 -0.7109
 8864SOL    MW435190   1.022   5.740   0.111  0.4158 -0.0993  0.2454
 8865SOL     OW35191   1.407   4.080   4.380  0.1529  0.2464  0.5732
 8865SOL    HW235192   1.363   4.054   4.299  0.0660  0.5850  0.5098
 8865SOL    HW335193   1.500   4.083   4.357  0.0658  1.0334  0.2894
 8865SOL    MW435194   1.414   4.077   4.366 -0.2323 -0.1753 -0.3299
 8866SOL     OW35195   2.478   0.107   5.629  0.3322 -0.2893 -0.3393
 8866SOL    HW235196   2.481   0.029   5.573  2.4216 -0.3134 -0.2699
 8866SOL    HW335197   2.448   0.177   5.571 -1.1870 -1.0306 -0.4980
 8866SOL    MW435198   2.474   0.106   5.614  0.7326  0.0061 -0.3220
 8867SOL     OW35199   1.000   6.024   5.456  0.3797 -0.0805 -0.0134
 8867SOL    HW235200   0.979   5.949   5.400  0.5021  0.0441 -0.2269
 8867SOL    HW335201   1.045   5.986   5.531  2.1077 -0.0508 -0.9906
 8867SOL    MW435202   1.003   6.009   5.458  0.4649 -0.0454  0.7791
 8868SOL     OW35203   6.419   6.094   0.737  0.3917 -0.3570  0.1166
 8868SOL    HW235204   6.429   6.143   0.819 -1.2566  0.0582  0.1033
 8868SOL    HW335205   6.463   6.011   0.752  1.5545  0.3639  0.8253
 8868SOL    MW435206   6.426   6.090   0.750  0.1098  0.1974 -0.0958
 8869SOL     OW35207   5.176   2.208   2.803 -0.1396  0.3436  0.0113
 8869SOL    HW235208   5.119   2.161   2.864 -1.1417  1.0617 -0.3369
 8869SOL    HW335209   5.116   2.246   2.739  0.8841 -0.4970 -1.5259
 8869SOL    MW435210   5.161   2.207   2.802  1.0390 -0.2829 -0.2158
 8870SOL     OW35211   6.134   4.215   0.584  0.0933  0.1128  0.0494
 8870SOL    HW235212   6.060   4.178   0.536  0.6256  0.5313 -1.1251
 8870SOL    HW335213   6.158   4.146   0.647  0.3486 -1.1052 -1.3226
 8870SOL    MW435214   6.127   4.201   0.586 -0.3712 -0.9105  0.6141
 8871SOL     OW35215   1.403   3.118   5.269 -0.0747  0.0621  0.3881
 8871SOL    HW235216   1.449   3.069   5.338 -1.2520  1.0770  1.9633
 8871SOL    HW335217   1.335   3.058   5.238  0.0547 -0.1773  0.5635
 8871SOL    MW435218   1.400   3.104   5.274  0.2935 -0.7502  0.4699
 8872SOL     OW35219   6.379   3.705   6.236 -0.2410 -0.3876  0.1862
 8872SOL    HW235220   6.466   3.743   6.229 -0.8659  1.0071 -0.4592
 8872SOL    HW335221   6.376   3.639   6.167 -0.1242  0.4801 -0.6748
 8872SOL    MW435222   6.390   3.701   6.226  0.8012 -0.2220  0.5058
 8873SOL     OW35223   1.675   4.958   2.282  0.3864  0.0147 -0.2481
 8873SOL    HW235224   1.724   5.000   2.353 -1.1883  0.8272  0.3997
 8873SOL    HW335225   1.615   4.898   2.326  1.5428 -1.8473 -1.0955
 8873SOL    MW435226   1.674   4.956   2.297 -0.8353  0.4075 -0.2770
 8874SOL     OW35227   2.748   3.255   2.771  0.6508  0.0638  0.0392
 8874SOL    HW235228   2.699   3.254   2.689  1.2830 -1.0089 -0.3403
 8874SOL    HW335229   2.684   3.285   2.836 -0.1083  0.0606 -0.6868
 8874SOL    MW435230   2.733   3.259   2.769 -0.4312  0.6235  0.1200
 8875SOL     OW35231   1.672   1.508   1.157  0.6955  0.1599  0.0790
 8875SOL    HW235232   1.617   1.533   1.083  0.4870 -0.1570  0.1261
 8875SOL    HW335233   1.610   1.485   1.226  0.8795 -0.4742  0.0397
 8875SOL    MW435234   1.657   1.508   1.156 -0.0786  0.1142 -0.0041
 8876SOL     OW35235   1.571   5.394   2.036 -0.6934  0.1098 -0.2932
 8876SOL    HW235236   1.617   5.478   2.035 -1.6792  0.6790  0.4042
 8876SOL    HW335237   1.533   5.386   1.948 -2.4891  1.5039  0.3021
 8876SOL    MW435238   1.572   5.404   2.024 -0.3405  0.1922 -0.0458
 8877SOL     OW35239   0.527   6.136   6.361  0.1753 -0.6152 -0.0900
 8877SOL    HW235240   0.556   6.110   6.448  1.2662  0.3833 -0.1217
 8877SOL    HW335241   0.502   6.228   6.370 -1.4094 -0.9812 -0.4620
 8877SOL    MW435242   0.528   6.145   6.373 -0.3037 -0.5769 -0.0836
 8878SOL     OW35243   1.459   0.456   1.400 -1.1769  0.1047 -0.5404
 8878SOL    HW235244   1.519   0.525   1.427 -0.3143 -1.0498  0.6240
 8878SOL    HW335245   1.488   0.433   1.311 -1.0249  0.7354 -0.6592
 8878SOL    MW435246   1.471   0.462   1.392 -0.1753  0.4792 -0.9325
 8879SOL     OW35247   3.311   3.456   4.127  0.1568 -0.2610  0.4666
 8879SOL    HW235248   3.237   3.467   4.186 -0.2778 -2.4724  0.3887
 8879SOL    HW335249   3.285   3.501   4.047  0.3750  1.9592  1.5395
 8879SOL    MW435250   3.298   3.464   4.125  0.7749  0.1678 -0.4826
 8880SOL     OW35251   6.258   6.042   1.643 -0.3559 -0.3261 -0.2626
 8880SOL    HW235252   6.195   5.989   1.593 -1.1411  0.6681 -0.3648
 8880SOL    HW335253   6.317   5.978   1.683 -0.2175 -1.1944 -1.7694
 8880SOL    MW435254   6.257   6.026   1.642  0.7896  0.0253  0.1930
 8881SOL     OW35255   2.083   4.130   5.883 -0.4170  0.1062  0.1611
 8881SOL    HW235256   1.998   4.127   5.927 -0.8047 -0.3195 -0.5885
 8881SOL    HW335257   2.098   4.222   5.863 -0.0528  0.3565  1.5038
 8881SOL    MW435258   2.074   4.142   5.886 -0.0977  0.0743  0.3404
 8882SOL     OW35259   1.923   2.900   0.881  0.1475  0.5069  0.2690
 8882SOL    HW235260   1.861   2.867   0.816 -0.1159  1.2027  0.1579
 8882SOL    HW335261   1.951   2.822   0.929 -1.1027  0.2177  0.5695
 8882SOL    MW435262   1.919   2.886   0.879  0.9185 -0.3757 -0.3808
 8883SOL     OW35263   1.534   0.954   3.052  0.9383 -0.2635 -0.2410
 8883SOL    HW235264   1.593   0.889   3.090  1.2281 -0.9674 -1.8075
 8883SOL    HW335265   1.591   1.029   3.034  0.8490 -0.0216  0.4646
 8883SOL    MW435266   1.550   0.956   3.054 -0.6181 -0.2245 -0.0648
 8884SOL     OW35267   5.012   0.275   2.541  0.8338 -0.5501 -0.5191
 8884SOL    HW235268   4.950   0.274   2.468  1.6517 -0.4858 -1.2309
 8884SOL    HW335269   5.000   0.191   2.584 -0.5659 -0.0726  0.0660
 8884SOL    MW435270   5.002   0.264   2.537 -0.0849 -0.0527 -0.3987
 8885SOL     OW35271   6.003   3.863   5.369 -0.4232  0.2722 -0.5387
 8885SOL    HW235272   5.919   3.816   5.369 -0.0885 -0.3416 -0.2039
 8885SOL    HW335273   6.020   3.881   5.276 -1.8154  2.0582 -0.4957
 8885SOL    MW435274   5.994   3.859   5.357 -0.2464  0.0816  0.0140
 8886SOL     OW35275   3.339   3.657   5.985  0.2935  0.0076  0.3375
 8886SOL    HW235276   3.409   3.598   6.012  1.3691  1.0630 -0.0520
 8886SOL    HW335277   3.351   3.735   6.041  0.6854  0.9942 -1.0678
 8886SOL    MW435278   3.350   3.660   5.996  0.1555 -0.0841 -0.5254
 8887SOL     OW35279   4.449   1.036   5.780  0.1564 -0.1113  0.1564
 8887SOL    HW235280   4.360   1.046   5.746  0.0501 -0.5782  0.2900
 8887SOL    HW335281   4.462   1.113   5.835  0.3167  0.6411 -0.9064
 8887SOL    MW435282   4.439   1.048   5.783  0.9444 -0.4026 -0.2977
 8888SOL     OW35283   2.848   1.820   3.018  0.0310 -0.0612 -0.1645
 8888SOL    HW235284   2.900   1.857   3.090 -1.5027 -0.5600  1.2705
 8888SOL    HW335285   2.780   1.886   3.002 -0.5250 -0.6204 -0.1200
 8888SOL    MW435286   2.846   1.834   3.026 -0.2947  0.1949 -0.2318
 8889SOL     OW35287   1.920   6.006   2.775  0.6089 -0.0911 -0.3483
 8889SOL    HW235288   1.895   5.932   2.720  1.7748 -0.8236  0.0683
 8889SOL    HW335289   1.995   6.046   2.730  1.1195 -0.2663  0.3289
 8889SOL    MW435290   1.927   6.002   2.762 -0.3431  0.4675 -0.8327
 8890SOL     OW35291   5.140   2.114   3.971  0.2155  0.4006  0.2089
 8890SOL    HW235292   5.216   2.061   3.993 -0.5752 -0.3790  1.1450
 8890SOL    HW335293   5.124   2.166   4.049 -0.6986 -0.0393  0.3240
 8890SOL    MW435294   5.148   2.114   3.984 -0.3216  0.2619 -0.4577
 8891SOL     OW35295   5.594   6.275   0.559  0.6167 -0.1788  0.4230
 8891SOL    HW235296   5.516   6.284   0.613 -0.1867 -0.8442 -0.5752
 8891SOL    HW335297   5.646   6.354   0.577 -0.6729  0.6824  0.5093
 8891SOL    MW435298   5.591   6.287   0.568 -0.0988 -0.0403 -0.2509
 8892SOL     OW35299   4.423   0.309   4.141  0.5139  0.1671 -0.0220
 8892SOL    HW235300   4.468   0.283   4.222 -0.8561 -2.5170 -0.0140
 8892SOL    HW335301   4.344   0.353   4.171  0.5701  0.1876  0.0970
 8892SOL    MW435302   4.419   0.311   4.156  0.5464 -0.1313  0.2682
 8893SOL     OW35303   5.770   4.340   0.047 -0.3623 -0.6044  0.4769
 8893SOL    HW235304   5.704   4.272   0.033 -0.0987 -0.6303 -0.6968
 8893SOL    HW335305   5.780   4.343   0.142 -1.1632 -1.4514  0.6075
 8893SOL    MW435306   5.763   4.331   0.058  0.6153 -0.5685 -0.0766
 8894SOL     OW35307   0.155   5.019   6.175  0.1170 -0.4650 -0.3528
 8894SOL    HW235308   0.162   4.940   6.229  1.0976  0.4007  0.8606
 8894SOL    HW335309   0.173   5.091   6.236  2.9176  0.4873 -2.1026
 8894SOL    MW435310   0.158   5.018   6.190  0.3624 -0.3885 -0.4387
 8895SOL     OW35311   1.833   0.799   1.666  0.3966 -0.2104 -0.0498
 8895SOL    HW235312   1.800   0.871   1.612 -0.9617 -2.5774 -2.6304
 8895SOL    HW335313   1.797   0.814   1.753 -2.5418  0.5515 -1.3081
 8895SOL    MW435314   1.824   0.811   1.670 -0.9490  0.6474 -0.0230
 8896SOL     OW35315   5.154   1.606   3.951  0.0622  0.1406  0.4091
 8896SOL    HW235316   5.159   1.522   3.906  3.9276 -0.2840  1.2430
 8896SOL    HW335317   5.198   1.668   3.893 -0.2154  0.9303  1.0147
 8896SOL    MW435318   5.161   1.603   3.937  0.2849  0.4070 -0.3382
 8897SOL     OW35319   0.367   2.800   3.755  0.0540 -0.4192 -0.4972
 8897SOL    HW235320   0.345   2.868   3.693 -1.1092  0.5981  0.9556
 8897SOL    HW335321   0.296   2.803   3.820  1.0906 -1.5797  0.7456
 8897SOL    MW435322   0.354   2.809   3.756  0.3931 -0.5258  0.0833
 8898SOL     OW35323   2.342   0.639   2.173  0.0911 -0.2435  0.8025
 8898SOL    HW235324   2.291   0.718   2.154  1.6365  0.1499 -2.5401
 8898SOL    HW335325   2.283   0.567   2.150  0.0296  0.1124 -0.2010
 8898SOL    MW435326   2.327   0.640   2.167  0.2009 -0.3979 -0.2710
 8899SOL     OW35327   4.734   4.827   2.999 -0.7088 -0.0912  0.1447
 8899SOL    HW235328   4.802   4.770   2.963  0.1624  1.3232 -0.5500
 8899SOL    HW335329   4.663   4.768   3.023 -0.5879 -1.3141 -2.2394
 8899SOL    MW435330   4.733   4.812   2.997 -0.5179  0.2031  0.3769
 8900SOL     OW35331   4.330   2.830   0.392  0.0991  0.2770  0.3324
 8900SOL    HW235332   4.339   2.880   0.311  0.9542  1.0355  0.8665
 8900SOL    HW335333   4.289   2.748   0.366 -0.0421  0.6910 -0.7959
 8900SOL    MW435334   4.326   2.826   0.378 -0.5755  1.1930  0.2549
 8901SOL     OW35335   3.556   2.110   5.485  0.0908 -0.5893 -0.5921
 8901SOL    HW235336   3.525   2.020   5.487  0.8599 -0.8500  0.5162
 8901SOL    HW335337   3.596   2.124   5.571  1.0406  0.4231 -1.1655
 8901SOL    MW435338   3.557   2.100   5.496  0.2515  0.4095 -0.5458
 8902SOL     OW35339   3.678   5.356   6.417  0.4804 -0.5228 -0.9069
 8902SOL    HW235340   3.606   5.414   6.392  0.9491 -0.7150 -2.8738
 8902SOL    HW335341   3.679   5.359   6.513 -0.4976  1.4624 -0.9077
 8902SOL    MW435342   3.668   5.364   6.427  0.1927  0.3337  0.0887
 8903SOL     OW35343   0.698   4.261   6.039  0.1887  0.1111  0.1810
 8903SOL    HW235344   0.700   4.189   6.103  1.0372 -1.2363 -1.2827
 8903SOL    HW335345   0.621   4.243   5.985  2.2867 -1.8777 -2.4360
 8903SOL    MW435346   0.688   4.249   6.041  0.1876  0.0109  0.9795
 8904NA      NA35347   6.140   1.160   2.664  0.1329 -0.3892  0.4985
 8905NA      NA35348   1.726   6.425   0.975 -0.2481  0.4184  0.3925
 8906NA      NA35349   5.770   1.168   0.126  0.1647  0.3210  0.5199
 8907NA      NA35350   1.552   2.131   2.873  0.2138  0.0886  0.2125
 8908NA      NA35351   0.579   5.042   0.563  0.5287  0.1693  0.0589
 8909NA      NA35352   1.792   3.226   1.980  0.2247  0.0354 -0.5010
 8910NA      NA35353   2.874   2.752   1.281  0.4207  0.4365  0.4442
 8911NA      NA35354   2.991   3.375   2.769 -0.2499 -0.2908  0.1719
   6.43155   6.43155   6.43155
