; FAS_GMX.top created by acpype (v: 2022.1.3) on Tue May  3 15:13:02 2022

;[ defaults ]
; nbfunc        comb-rule       gen-pairs       fudgeLJ fudgeQQ
;1               2               yes             0.5     0.8333

[ atomtypes ]
;name   bond_type     mass     charge   ptype   sigma         epsilon       Amb
 c3       c3          0.00000  0.00000   A     3.39967e-01   4.57730e-01 ; 1.91  0.1094
 n4       n4          0.00000  0.00000   A     3.25000e-01   7.11280e-01 ; 1.82  0.1700
 n3       n3          0.00000  0.00000   A     3.25000e-01   7.11280e-01 ; 1.82  0.1700
 sy       sy          0.00000  0.00000   A     3.56359e-01   1.04600e+00 ; 2.00  0.2500
 o        o           0.00000  0.00000   A     2.95992e-01   8.78640e-01 ; 1.66  0.2100
 ca       ca          0.00000  0.00000   A     3.39967e-01   3.59824e-01 ; 1.91  0.0860
 nb       nb          0.00000  0.00000   A     3.25000e-01   7.11280e-01 ; 1.82  0.1700
 hc       hc          0.00000  0.00000   A     2.64953e-01   6.56888e-02 ; 1.49  0.0157
 hx       hx          0.00000  0.00000   A     1.95998e-01   6.56888e-02 ; 1.10  0.0157
 hn       hn          0.00000  0.00000   A     1.06908e-01   6.56888e-02 ; 0.60  0.0157
 h1       h1          0.00000  0.00000   A     2.47135e-01   6.56888e-02 ; 1.39  0.0157
 ha       ha          0.00000  0.00000   A     2.59964e-01   6.27600e-02 ; 1.46  0.0150
 h4       h4          0.00000  0.00000   A     2.51055e-01   6.27600e-02 ; 1.41  0.0150
