A-SYNC WITH FASUDIL in water
35354
  121NASP     N    1   2.862   2.375   6.420 -0.1205 -0.1879  0.3696
  121NASP    H1    2   2.840   2.416   6.510  1.1329  0.8410  0.2408
  121NASP    H2    3   2.955   2.337   6.434 -0.4948 -0.7986  1.2643
  121NASP    H3    4   2.794   2.301   6.413 -1.4937  0.9459  1.2590
  121NASP    CA    5   2.858   2.476   6.313 -0.0684 -0.7406 -0.1570
  121NASP    HA    6   2.753   2.465   6.286 -0.4382 -1.3714  1.4337
  121NASP    CB    7   2.863   2.627   6.350 -0.4494  0.0428 -0.0700
  121NASP   HB1    8   2.773   2.656   6.403 -0.4042  0.6188 -0.2977
  121NASP   HB2    9   2.865   2.681   6.255  0.4149  0.0273 -0.0693
  121NASP    CG   10   2.990   2.670   6.432  0.4186 -0.2236 -0.1053
  121NASP   OD1   11   3.073   2.583   6.458 -0.2553 -0.8973  0.6677
  121NASP   OD2   12   3.011   2.793   6.457  0.5910  0.1004 -0.3180
  121NASP     C   13   2.946   2.433   6.199  0.2229  0.6947 -0.5052
  121NASP     O   14   3.044   2.358   6.217 -0.1340 -0.1336 -0.1759
  122ASN      N   15   2.928   2.490   6.081  0.1083 -0.4194 -0.3100
  122ASN      H   16   2.857   2.562   6.077  0.3832 -0.0091  1.3787
  122ASN     CA   17   3.000   2.476   5.955 -0.0562  0.4384 -1.1287
  122ASN     HA   18   3.012   2.369   5.937 -2.7209 -0.0305 -0.4877
  122ASN     CB   19   2.915   2.542   5.841 -0.2280  0.7307 -0.0616
  122ASN    HB1   20   2.905   2.649   5.862  0.2702  0.6240  0.7653
  122ASN    HB2   21   2.816   2.500   5.829 -0.1207  0.6112 -0.5511
  122ASN     CG   22   2.989   2.546   5.711 -0.0041  0.2539  0.3709
  122ASN    OD1   23   3.061   2.642   5.687 -0.2769  0.7637 -0.5722
  122ASN    ND2   24   2.969   2.465   5.611 -0.0937  0.0304 -0.5534
  122ASN   HD21   25   3.031   2.465   5.531  0.1260  2.4735 -0.4837
  122ASN   HD22   26   2.900   2.394   5.630  0.8936 -1.1687 -1.2881
  122ASN      C   27   3.144   2.536   5.959 -0.0865  1.0734  0.4993
  122ASN      O   28   3.156   2.658   5.978 -0.2385  0.0515 -0.3671
  123GLU      N   29   3.251   2.459   5.955 -0.0692 -0.0767 -0.5748
  123GLU      H   30   3.231   2.362   5.941 -0.4868 -0.0552 -0.1514
  123GLU     CA   31   3.396   2.492   5.965 -0.2416  0.3379  0.3652
  123GLU     HA   32   3.398   2.588   6.016 -1.0984  0.4292  0.2412
  123GLU     CB   33   3.463   2.390   6.054 -0.5135  0.4958  0.1545
  123GLU    HB1   34   3.566   2.419   6.076 -0.1641 -0.1086 -0.6160
  123GLU    HB2   35   3.474   2.303   5.989  1.5619  1.8682 -1.4735
  123GLU     CG   36   3.386   2.369   6.178  0.0501  0.0079  0.2407
  123GLU    HG1   37   3.299   2.306   6.156  0.8034 -1.1775  0.5296
  123GLU    HG2   38   3.357   2.461   6.228 -0.9360 -0.2000  0.0877
  123GLU     CD   39   3.451   2.285   6.284 -0.6739 -0.5057  0.1904
  123GLU    OE1   40   3.560   2.219   6.255 -0.5665  0.5256  0.0616
  123GLU    OE2   41   3.391   2.279   6.397  0.2854 -0.5487 -0.0912
  123GLU      C   42   3.463   2.494   5.823  0.4910 -0.1026 -0.4146
  123GLU      O   43   3.576   2.543   5.819  0.0675 -0.4530  0.0083
  124ALA      N   44   3.398   2.440   5.721  0.0812  0.3788  0.0598
  124ALA      H   45   3.303   2.410   5.733  0.3596 -0.7035 -0.3108
  124ALA     CA   46   3.446   2.415   5.587 -0.9652  0.1329 -0.1512
  124ALA     HA   47   3.534   2.472   5.559 -0.5128 -0.5343 -0.0970
  124ALA     CB   48   3.493   2.271   5.600  0.2020  0.0326  0.5310
  124ALA    HB1   49   3.565   2.245   5.678  1.2609  0.5588 -0.2431
  124ALA    HB2   50   3.528   2.231   5.504  0.4525 -0.9385  1.0159
  124ALA    HB3   51   3.402   2.217   5.627 -0.5040  1.2546  0.6464
  124ALA      C   52   3.342   2.436   5.474 -0.0875 -0.0970 -0.3178
  124ALA      O   53   3.221   2.410   5.487 -0.6416 -0.5622  0.3887
  125TYR      N   54   3.395   2.458   5.353  0.5136 -0.1051 -0.3510
  125TYR      H   55   3.491   2.490   5.349 -0.0963  2.0492  0.5996
  125TYR     CA   56   3.335   2.467   5.224  0.7419  0.0478 -0.5761
  125TYR     HA   57   3.259   2.542   5.246  0.8654 -0.1733  0.6778
  125TYR     CB   58   3.441   2.518   5.125 -0.5200  0.6414  0.3070
  125TYR    HB1   59   3.533   2.462   5.139 -0.4528  1.0154  1.4387
  125TYR    HB2   60   3.466   2.621   5.150  0.3562 -0.3636  4.1657
  125TYR     CG   61   3.396   2.502   4.978 -0.0178  0.4924 -0.4364
  125TYR    CD1   62   3.296   2.574   4.924 -0.1166  0.2162 -0.3516
  125TYR    HD1   63   3.247   2.646   4.989 -2.1777 -0.9934 -0.4777
  125TYR    CE1   64   3.259   2.561   4.791 -0.4876 -0.8079  0.2419
  125TYR    HE1   65   3.178   2.617   4.746 -0.8911 -0.7287  1.0559
  125TYR     CZ   66   3.331   2.472   4.714 -0.7330 -0.0817  0.5700
  125TYR     OH   67   3.296   2.456   4.585 -0.4666  0.5403  0.0157
  125TYR     HH   68   3.354   2.399   4.534  0.8968  1.7575  0.1446
  125TYR    CE2   69   3.443   2.405   4.764  0.0117 -0.2237 -0.0260
  125TYR    HE2   70   3.506   2.353   4.694 -1.9933  0.8221 -2.7642
  125TYR    CD2   71   3.470   2.413   4.898  0.1437 -0.3476  0.0127
  125TYR    HD2   72   3.546   2.351   4.943 -0.6473 -2.3613 -1.3068
  125TYR      C   73   3.269   2.330   5.176  0.7717 -0.3615 -0.0201
  125TYR      O   74   3.321   2.222   5.198 -0.3801  0.1299  0.6047
  126GLU      N   75   3.162   2.345   5.096 -0.4144 -0.2492 -0.6057
  126GLU      H   76   3.123   2.438   5.088  4.8201  2.3271 -0.2950
  126GLU     CA   77   3.077   2.234   5.046 -0.0622  0.3085 -0.4825
  126GLU     HA   78   3.129   2.138   5.048 -0.5066  0.0766  0.6983
  126GLU     CB   79   2.951   2.206   5.134  0.1496 -0.6105 -0.1206
  126GLU    HB1   80   2.883   2.139   5.082 -2.6743  0.4858  1.8994
  126GLU    HB2   81   2.894   2.298   5.141  2.3792  0.8584 -0.2458
  126GLU     CG   82   2.973   2.147   5.273 -0.3818  0.0752  0.3367
  126GLU    HG1   83   3.029   2.224   5.326 -0.2705  1.3215 -1.5059
  126GLU    HG2   84   3.027   2.053   5.261  2.3292  1.6373 -0.5116
  126GLU     CD   85   2.842   2.107   5.344 -0.0499  0.0119 -0.5644
  126GLU    OE1   86   2.732   2.098   5.283 -0.0468 -0.0547 -0.0338
  126GLU    OE2   87   2.863   2.075   5.465  0.6444 -1.0030 -0.1230
  126GLU      C   88   3.050   2.271   4.903 -0.6223  0.7563  1.0518
  126GLU      O   89   3.010   2.386   4.868  0.1299 -0.4726 -0.0377
  127MET      N   90   3.068   2.177   4.816  1.1643  0.6104 -0.3646
  127MET      H   91   3.075   2.081   4.846 -1.0090 -0.3175 -2.5108
  127MET     CA   92   3.056   2.197   4.675  0.3530 -0.9348 -0.0075
  127MET     HA   93   3.121   2.283   4.660  1.5419 -1.6922  0.5858
  127MET     CB   94   3.124   2.092   4.599  0.0380  0.5401 -0.2236
  127MET    HB1   95   3.115   2.123   4.494  1.1745 -0.4703 -0.6423
  127MET    HB2   96   3.071   1.997   4.608 -0.3445  0.6915 -0.8124
  127MET     CG   97   3.274   2.083   4.636  0.2479  0.3912 -0.3693
  127MET    HG1   98   3.280   2.020   4.725  0.0434 -0.7530 -1.1434
  127MET    HG2   99   3.317   2.183   4.645  1.3382 -0.0976  0.0695
  127MET     SD  100   3.393   2.013   4.510  0.1862 -0.0973  0.2607
  127MET     CE  101   3.541   1.998   4.614  0.4195  0.1801 -0.4205
  127MET    HE1  102   3.578   1.896   4.610 -1.8178 -0.9198  2.8383
  127MET    HE2  103   3.519   2.012   4.720 -1.7611 -1.8922 -0.5241
  127MET    HE3  104   3.626   2.065   4.597 -1.2381  3.2900  2.4049
  127MET      C  105   2.907   2.219   4.630  0.1047 -0.2187  0.3680
  127MET      O  106   2.813   2.169   4.697 -0.2768  0.2318 -0.5309
  128PRO      N  107   2.878   2.307   4.531  0.3804  0.2256  0.8427
  128PRO     CD  108   2.972   2.395   4.466  0.4600  0.3987  0.1909
  128PRO    HD1  109   3.052   2.333   4.425  0.3771  0.8707 -0.7138
  128PRO    HD2  110   3.018   2.464   4.537 -1.2832 -0.4975  2.2656
  128PRO     CG  111   2.898   2.455   4.348 -0.1703  0.3513  0.3862
  128PRO    HG1  112   2.908   2.378   4.271 -0.4832  1.3149 -0.6423
  128PRO    HG2  113   2.940   2.545   4.302 -1.1786  1.4899  1.6272
  128PRO     CB  114   2.751   2.454   4.393  0.2217 -0.4846  0.2708
  128PRO    HB1  115   2.729   2.548   4.444  4.1515  1.0090 -0.4251
  128PRO    HB2  116   2.679   2.450   4.312  0.4015  2.0276 -0.0989
  128PRO     CA  117   2.741   2.334   4.489  0.5223 -0.3874 -0.3643
  128PRO     HA  118   2.681   2.355   4.578 -2.3895 -0.7627 -2.1208
  128PRO      C  119   2.663   2.217   4.425  0.1264  0.3424  0.1490
  128PRO      O  120   2.716   2.132   4.358  0.0392  0.2138 -0.3655
  129SER      N  121   2.535   2.212   4.452  0.1710  0.4783  0.6905
  129SER      H  122   2.488   2.293   4.489  0.8066  0.3704  1.7601
  129SER     CA  123   2.446   2.098   4.404 -0.7407 -0.8599  0.6810
  129SER     HA  124   2.497   2.001   4.406  0.7819 -0.0862  0.9750
  129SER     CB  125   2.330   2.083   4.504  0.3027  0.5201  0.0812
  129SER    HB1  126   2.369   2.054   4.602 -0.2806 -1.7790 -0.2975
  129SER    HB2  127   2.267   2.003   4.464 -0.6994  1.1377  0.3953
  129SER     OG  128   2.258   2.200   4.499  0.5488  0.1748  0.4964
  129SER    HG1  129   2.181   2.183   4.444  2.3405 -0.0545 -2.1068
  129SER      C  130   2.400   2.129   4.256  0.2279  0.0926 -0.2424
  129SER      O  131   2.406   2.032   4.177  0.4424 -0.0393 -0.6440
  130GLU      N  132   2.370   2.256   4.218  0.1415 -0.4502  0.9291
  130GLU      H  133   2.367   2.326   4.290 -0.4870 -0.2969  0.7609
  130GLU     CA  134   2.354   2.294   4.077 -0.5194 -0.8782  0.3623
  130GLU     HA  135   2.257   2.266   4.035 -0.2898  1.9949 -2.5194
  130GLU     CB  136   2.353   2.450   4.070 -1.0499 -0.6169 -0.5018
  130GLU    HB1  137   2.344   2.482   3.967  1.2222  0.3062 -0.4534
  130GLU    HB2  138   2.450   2.484   4.104 -1.8610  0.9104  0.4285
  130GLU     CG  139   2.246   2.520   4.152 -0.0367  0.6779  0.3216
  130GLU    HG1  140   2.286   2.525   4.253  0.1466  0.7111  0.2470
  130GLU    HG2  141   2.150   2.468   4.149 -0.2249  1.0079  0.5959
  130GLU     CD  142   2.226   2.662   4.120  0.2145 -0.4703  0.0493
  130GLU    OE1  143   2.115   2.710   4.162  0.0289  0.2773 -0.3417
  130GLU    OE2  144   2.317   2.725   4.057 -0.4852  0.9906  0.0112
  130GLU      C  145   2.476   2.256   3.992  0.9191  0.2527 -0.1880
  130GLU      O  146   2.452   2.247   3.870  0.2179 -0.1187  0.0962
  131GLU      N  147   2.592   2.238   4.047 -0.0179  0.4498  0.0519
  131GLU      H  148   2.596   2.256   4.147  1.2226  4.3507 -0.5196
  131GLU     CA  149   2.707   2.186   3.974 -0.4806 -0.9877 -0.2047
  131GLU     HA  150   2.697   2.216   3.869  0.8857  1.9529  0.3938
  131GLU     CB  151   2.833   2.250   4.032 -0.0737 -0.0108  0.6737
  131GLU    HB1  152   2.919   2.188   4.009  0.6591  1.2722 -0.1140
  131GLU    HB2  153   2.825   2.255   4.141  2.6123  0.8354  0.8921
  131GLU     CG  154   2.864   2.390   3.982  0.4960 -0.1722  0.0997
  131GLU    HG1  155   2.948   2.419   4.045  0.8044 -1.4926  0.3388
  131GLU    HG2  156   2.776   2.451   4.001 -0.4616 -1.4030 -0.2088
  131GLU     CD  157   2.897   2.406   3.832 -0.4752  0.8781 -0.4313
  131GLU    OE1  158   2.862   2.516   3.783  0.5249 -0.3669  0.0058
  131GLU    OE2  159   2.955   2.311   3.773 -0.2649  0.0122  0.0804
  131GLU      C  160   2.719   2.037   3.958  0.3619  1.0513 -1.1194
  131GLU      O  161   2.816   1.991   3.890 -0.0552  0.4851  0.1856
  132GLY      N  162   2.627   1.963   4.021 -0.1466 -0.2193 -0.3649
  132GLY      H  163   2.553   2.010   4.072  1.5160  0.2471  1.7278
  132GLY     CA  164   2.610   1.815   4.005 -0.0430  0.1152  0.3096
  132GLY    HA1  165   2.633   1.788   3.902  2.0433  0.0825  0.7245
  132GLY    HA2  166   2.507   1.787   4.023 -0.7014  3.0909  1.8051
  132GLY      C  167   2.690   1.738   4.111 -0.3053  0.1628 -0.5154
  132GLY      O  168   2.731   1.622   4.078 -0.0930  0.0373 -0.7004
  133TYR      N  169   2.731   1.797   4.225  0.5380  0.3573  0.6895
  133TYR      H  170   2.704   1.893   4.242  0.3892  0.6952 -1.2080
  133TYR     CA  171   2.792   1.710   4.326 -0.4885  0.3396 -0.0303
  133TYR     HA  172   2.886   1.672   4.285 -1.5741 -1.4941 -0.9146
  133TYR     CB  173   2.829   1.795   4.442  0.0910  0.6466  1.1514
  133TYR    HB1  174   2.745   1.814   4.510  2.1604 -0.3438  4.2162
  133TYR    HB2  175   2.853   1.894   4.404 -0.6793  0.6888  0.7620
  133TYR     CG  176   2.946   1.740   4.523 -0.0538  0.6994 -0.0160
  133TYR    CD1  177   3.073   1.728   4.467  0.0600  0.6921  1.3102
  133TYR    HD1  178   3.088   1.742   4.361 -3.3447 -0.4829  0.5394
  133TYR    CE1  179   3.178   1.669   4.535 -0.8298 -0.4058  0.6255
  133TYR    HE1  180   3.273   1.655   4.486 -0.2620 -0.9445  1.8504
  133TYR     CZ  181   3.157   1.627   4.666 -0.2793 -0.1279  0.4357
  133TYR     OH  182   3.251   1.551   4.728  0.5065  0.3260 -0.3071
  133TYR     HH  183   3.206   1.520   4.807 -0.3426 -1.8031 -1.5374
  133TYR    CE2  184   3.029   1.646   4.722 -0.2583  0.3477 -0.4840
  133TYR    HE2  185   3.010   1.606   4.820  0.5194  0.5411 -0.2439
  133TYR    CD2  186   2.920   1.688   4.654 -0.3114  0.2905 -0.4851
  133TYR    HD2  187   2.825   1.708   4.700  1.4965  1.1588  3.2546
  133TYR      C  188   2.705   1.594   4.365  0.0252  0.2255 -0.6722
  133TYR      O  189   2.589   1.608   4.389  0.2295  0.4265  0.4877
  134GLN      N  190   2.765   1.478   4.396  0.0493  0.4055  0.0207
  134GLN      H  191   2.865   1.470   4.392 -0.0761 -1.2610 -0.7074
  134GLN     CA  192   2.708   1.351   4.439  1.1030 -0.4215 -0.4209
  134GLN     HA  193   2.643   1.302   4.366 -0.2378 -0.3113  0.6496
  134GLN     CB  194   2.820   1.251   4.474 -0.3468  0.0750  0.0011
  134GLN    HB1  195   2.776   1.159   4.511  1.5972 -0.1086  2.0878
  134GLN    HB2  196   2.884   1.295   4.551 -1.2361  0.8074  0.3439
  134GLN     CG  197   2.900   1.203   4.351 -0.0988 -0.2749  0.1798
  134GLN    HG1  198   2.832   1.175   4.271  1.0372 -0.8996 -0.6011
  134GLN    HG2  199   2.961   1.117   4.379  1.5657  1.3400  1.8830
  134GLN     CD  200   3.004   1.313   4.323  0.1210  0.0445 -0.0447
  134GLN    OE1  201   3.068   1.366   4.412  0.1727 -0.0274  0.2357
  134GLN    NE2  202   3.023   1.358   4.203 -0.3025 -0.1438 -0.2886
  134GLN   HE21  203   3.072   1.446   4.202 -0.7717  0.1806  1.5063
  134GLN   HE22  204   3.000   1.306   4.119 -2.8958  0.5766 -0.0990
  134GLN      C  205   2.613   1.368   4.559 -0.7608 -0.4999 -1.1006
  134GLN      O  206   2.653   1.430   4.659 -0.9265  0.0345 -0.0268
  135ASP      N  207   2.497   1.310   4.547  0.3587  0.3331  0.4204
  135ASP      H  208   2.484   1.263   4.458 -0.3640  0.9264  0.2067
  135ASP     CA  209   2.386   1.331   4.640  0.1591  0.2727 -0.2136
  135ASP     HA  210   2.415   1.410   4.709  1.2230  0.2169 -0.5833
  135ASP     CB  211   2.272   1.377   4.542 -0.3378  0.9927 -0.0568
  135ASP    HB1  212   2.231   1.284   4.502  0.7880  1.2394 -1.9175
  135ASP    HB2  213   2.310   1.438   4.460  2.1191 -0.2720  0.0404
  135ASP     CG  214   2.167   1.466   4.614  0.0669  0.1226  0.2040
  135ASP    OD1  215   2.193   1.530   4.719 -0.2759 -0.1838  0.4043
  135ASP    OD2  216   2.050   1.464   4.568 -0.2266  0.0414 -0.1593
  135ASP      C  217   2.347   1.213   4.726  0.4317  0.3444 -0.1527
  135ASP      O  218   2.263   1.222   4.817  0.2918 -0.4215  0.1185
  136TYR      N  219   2.393   1.091   4.698 -0.1743  0.5102 -0.3171
  136TYR      H  220   2.462   1.088   4.624 -0.6357 -2.1312 -0.7427
  136TYR     CA  221   2.371   0.966   4.773 -1.1697 -0.5083 -0.4622
  136TYR     HA  222   2.382   0.886   4.699  0.1313 -1.4418  0.6799
  136TYR     CB  223   2.480   0.960   4.882 -0.2319  0.1191  0.3932
  136TYR    HB1  224   2.469   0.864   4.933  0.2054 -0.8973 -1.3488
  136TYR    HB2  225   2.461   1.043   4.951  2.4018  0.7266  0.4723
  136TYR     CG  226   2.625   0.976   4.837  0.6782 -0.2824  0.0719
  136TYR    CD1  227   2.685   1.107   4.849 -0.7133 -0.1932  0.1577
  136TYR    HD1  228   2.629   1.187   4.895 -0.2100  0.7802 -0.8490
  136TYR    CE1  229   2.815   1.133   4.808 -0.2412  0.0994  0.4652
  136TYR    HE1  230   2.873   1.223   4.824 -0.3404  0.2273  0.1165
  136TYR     CZ  231   2.886   1.030   4.749  0.0149 -0.8201  0.1597
  136TYR     OH  232   3.013   1.043   4.708 -0.2045 -0.4042  0.0106
  136TYR     HH  233   3.060   1.118   4.746  1.3986 -0.9036 -0.8983
  136TYR    CE2  234   2.822   0.902   4.729  0.1456 -0.9829 -0.1295
  136TYR    HE2  235   2.876   0.826   4.674  1.4157  0.5044 -1.0254
  136TYR    CD2  236   2.691   0.877   4.767  0.5575  0.3118  0.2973
  136TYR    HD2  237   2.647   0.780   4.754 -0.1113  0.5324  0.8372
  136TYR      C  238   2.228   0.941   4.823  0.0820  0.1635 -0.3406
  136TYR      O  239   2.200   0.911   4.939 -0.4609  0.0920 -0.2913
  137GLU      N  240   2.138   0.941   4.727 -0.4885 -0.3614 -0.0914
  137GLU      H  241   2.176   0.948   4.634 -0.1663 -1.5072 -0.0649
  137GLU     CA  242   2.007   0.887   4.755  0.5781  0.6869  0.2247
  137GLU     HA  243   1.966   0.921   4.850 -0.3960 -0.5777  0.2903
  137GLU     CB  244   1.898   0.929   4.649 -0.2257  0.2536  0.3228
  137GLU    HB1  245   1.799   0.887   4.665 -0.1288 -0.7668 -1.4882
  137GLU    HB2  246   1.935   0.895   4.552  0.8682 -0.6923  1.0359
  137GLU     CG  247   1.869   1.077   4.673  0.3096 -0.0387  0.6163
  137GLU    HG1  248   1.954   1.139   4.646  1.2186 -0.8248  1.5430
  137GLU    HG2  249   1.842   1.093   4.778 -0.5940  0.1235  0.3696
  137GLU     CD  250   1.759   1.129   4.577  0.1271  0.6028 -0.3967
  137GLU    OE1  251   1.700   1.239   4.611 -0.2601  0.3616  0.1442
  137GLU    OE2  252   1.731   1.078   4.465 -0.0338  0.0954 -0.0463
  137GLU      C  253   2.000   0.735   4.774  0.1131 -0.4801 -0.0475
  137GLU      O  254   2.085   0.674   4.709 -0.0077 -0.1780 -0.7363
  138PRO      N  255   1.912   0.679   4.857 -0.4038  0.5234  0.1474
  138PRO     CD  256   1.802   0.748   4.934 -0.6058  0.1406 -0.4015
  138PRO    HD1  257   1.741   0.800   4.860 -1.0000 -2.2448 -1.8682
  138PRO    HD2  258   1.847   0.803   5.016 -0.1612  0.5076 -0.8847
  138PRO     CG  259   1.718   0.637   4.995  0.0813  0.0283  0.2190
  138PRO    HG1  260   1.644   0.615   4.919  1.0952  0.5618 -0.9541
  138PRO    HG2  261   1.670   0.664   5.089 -2.0340 -0.3621 -0.7037
  138PRO     CB  262   1.813   0.520   4.998 -0.2713  0.4874  0.7989
  138PRO    HB1  263   1.866   0.541   5.091  0.5281 -2.1785  1.0323
  138PRO    HB2  264   1.776   0.417   5.004  2.3331 -0.5806 -0.1025
  138PRO     CA  265   1.912   0.540   4.883  0.0082 -0.5461 -0.2584
  138PRO     HA  266   2.012   0.521   4.922 -0.5360 -1.2182  0.8897
  138PRO      C  267   1.893   0.456   4.752  0.6055 -0.3711 -0.2462
  138PRO      O  268   1.828   0.505   4.656 -0.2758  0.1954 -0.1758
  139GLU      N  269   1.950   0.334   4.744 -0.0118 -0.0969 -0.4661
  139GLU      H  270   2.002   0.309   4.827 -2.1548  1.2628  1.3943
  139GLU     CA  271   1.945   0.229   4.640  0.4121  1.0623  0.6723
  139GLU     HA  272   1.922   0.278   4.545  1.5935  0.7818  0.2267
  139GLU     CB  273   2.079   0.155   4.633  0.2572 -0.1098 -0.5039
  139GLU    HB1  274   2.082   0.077   4.557  1.8993 -0.0027 -0.5914
  139GLU    HB2  275   2.109   0.111   4.728 -0.1091  0.8620  0.0707
  139GLU     CG  276   2.189   0.254   4.594 -0.2449  0.8312  0.1069
  139GLU    HG1  277   2.182   0.341   4.659 -1.8460  0.9406 -0.1694
  139GLU    HG2  278   2.184   0.269   4.487 -0.3144  0.2371  0.0197
  139GLU     CD  279   2.336   0.215   4.614  0.4920 -0.8656 -0.6436
  139GLU    OE1  280   2.428   0.296   4.585  0.8875  0.5059  0.1394
  139GLU    OE2  281   2.361   0.105   4.667  0.1710 -0.2010  0.1010
  139GLU      C  282   1.824   0.130   4.659 -0.3599  0.0170  0.0233
  139GLU      O  283   1.778   0.121   4.777  0.2148 -0.4446 -0.0547
  140CALA     N  284   1.790   0.066   4.546  0.5393  0.0923  0.3373
  140CALA     H  285   1.837   0.083   4.458 -2.0401  1.3381 -0.9191
  140CALA    CA  286   1.689  -0.038   4.537  0.2116  0.2866 -0.0857
  140CALA    HA  287   1.686  -0.094   4.630  3.8370  0.8188  0.4955
  140CALA    CB  288   1.551   0.027   4.520  0.2125 -0.7051 -0.8675
  140CALA   HB1  289   1.523   0.091   4.604 -0.0269 -3.6148  1.4001
  140CALA   HB2  290   1.465  -0.039   4.513 -0.6092  0.3339 -0.8575
  140CALA   HB3  291   1.551   0.085   4.427 -1.5114 -0.6953 -0.8904
  140CALA     C  292   1.727  -0.150   4.433 -0.3177  0.2068 -0.3696
  140CALA   OC1  293   1.724  -0.272   4.462  0.1285 -0.4135 -0.1461
  140CALA   OC2  294   1.756  -0.112   4.318  0.2130 -0.1842 -0.3818
  141SOL     OW  295   4.442   2.290   4.651 -0.5811 -0.0357 -0.1993
  141SOL    HW2  296   4.360   2.319   4.610 -0.3889 -1.0048 -1.3212
  141SOL    HW3  297   4.509   2.310   4.586 -0.1972 -1.0796 -0.1311
  141SOL    MW4  298   4.440   2.296   4.637 -0.2206  0.1521 -0.5513
  142SOL     OW  299   6.077   3.215   0.727 -0.0059  0.1022  0.2522
  142SOL    HW2  300   6.005   3.250   0.674 -0.7722 -1.6556  0.0613
  142SOL    HW3  301   6.062   3.251   0.814 -0.0726  1.1681 -0.1793
  142SOL    MW4  302   6.065   3.224   0.732 -0.3449  0.0749 -0.1145
  143SOL     OW  303   6.159   1.016   4.780 -0.1073  0.1171 -0.2872
  143SOL    HW2  304   6.194   0.965   4.708 -0.5305 -2.3690  1.1437
  143SOL    HW3  305   6.065   1.017   4.766 -0.3592 -1.6549  0.8934
  143SOL    MW4  306   6.151   1.009   4.769 -0.4731  0.0197  0.9233
  144SOL     OW  307   2.323   6.337   3.836  0.0719  0.2313 -0.2762
  144SOL    HW2  308   2.332   6.242   3.827  0.2734  0.2993 -0.8106
  144SOL    HW3  309   2.306   6.368   3.747  1.0967  0.8112 -0.2831
  144SOL    MW4  310   2.322   6.329   3.823 -0.3667  0.6354  0.0719
  145SOL     OW  311   5.115   3.531   3.691  0.4347  0.2429  0.1438
  145SOL    HW2  312   5.077   3.549   3.605 -2.2998  1.6317  1.5147
  145SOL    HW3  313   5.054   3.472   3.733  2.7339 -2.0418  0.5433
  145SOL    MW4  314   5.102   3.526   3.685  0.2185  0.2748  0.6772
  146SOL     OW  315   0.879   3.244   6.106 -0.3674  0.3887  0.4428
  146SOL    HW2  316   0.943   3.189   6.061 -0.4183  0.2236  0.5723
  146SOL    HW3  317   0.924   3.273   6.185  0.7089  2.8396 -0.9408
  146SOL    MW4  318   0.893   3.241   6.110  0.4545  0.0972  0.5182
  147SOL     OW  319   0.956   0.809   0.066 -0.0144  0.0806 -0.2277
  147SOL    HW2  320   0.872   0.796   0.022 -1.0904 -0.6344  1.9131
  147SOL    HW3  321   0.937   0.873   0.135  1.3055  0.2265  0.0215
  147SOL    MW4  322   0.942   0.816   0.069 -0.3715 -0.4007  0.1169
  148SOL     OW  323   5.754   5.824   3.421 -0.8220 -0.0264  0.0584
  148SOL    HW2  324   5.739   5.750   3.481  2.0099 -0.5014  0.3069
  148SOL    HW3  325   5.694   5.807   3.348 -0.8126 -2.1976  0.4625
  148SOL    MW4  326   5.744   5.812   3.419  0.3839  0.2784  0.2130
  149SOL     OW  327   5.383   2.708   4.100  0.0713  0.2036 -0.0377
  149SOL    HW2  328   5.464   2.757   4.116  0.4908 -1.1420  2.3449
  149SOL    HW3  329   5.408   2.642   4.034  1.2994 -0.9279  1.4832
  149SOL    MW4  330   5.397   2.706   4.093  0.4369 -0.1468  0.3298
  150SOL     OW  331   6.300   1.493   2.402  0.1085  0.2102 -0.4123
  150SOL    HW2  332   6.327   1.448   2.482  1.3438 -1.0362 -1.4666
  150SOL    HW3  333   6.204   1.497   2.407  0.1691  0.2778  1.1577
  150SOL    MW4  334   6.291   1.488   2.413 -0.0159  0.2658 -0.0152
  151SOL     OW  335   4.174   0.137   2.655  0.3160  0.6252  0.1074
  151SOL    HW2  336   4.255   0.178   2.686  0.2240  0.0976  1.0873
  151SOL    HW3  337   4.125   0.118   2.735  0.5761 -1.8257 -0.2345
  151SOL    MW4  338   4.179   0.140   2.670 -0.4681  0.0748  0.0984
  152SOL     OW  339   0.226   0.229   3.273  0.2593 -0.5474  0.0452
  152SOL    HW2  340   0.312   0.249   3.238 -0.0134  0.5024 -0.0525
  152SOL    HW3  341   0.211   0.295   3.340  0.1084 -1.5669  1.0601
  152SOL    MW4  342   0.235   0.240   3.278  0.7627 -0.0516  0.1112
  153SOL     OW  343   3.051   2.990   1.357  0.3165 -0.2120 -0.6493
  153SOL    HW2  344   3.111   3.050   1.314  1.0501 -0.7703 -0.4121
  153SOL    HW3  345   3.020   2.933   1.287 -0.3755  0.4168 -0.8741
  153SOL    MW4  346   3.055   2.991   1.342  0.1079  0.2610  0.1301
  154SOL     OW  347   4.948   4.267   2.653 -0.4876 -0.3413  0.2826
  154SOL    HW2  348   4.864   4.298   2.686 -1.1334 -0.1896 -1.4294
  154SOL    HW3  349   4.958   4.309   2.568  0.6823 -1.4280 -0.1494
  154SOL    MW4  350   4.938   4.276   2.646 -0.4388 -0.2871 -0.0506
  155SOL     OW  351   0.472   2.925   4.556  0.4724 -0.4516 -0.9745
  155SOL    HW2  352   0.377   2.933   4.559  0.5960  1.9390 -1.4053
  155SOL    HW3  353   0.492   2.918   4.463  0.7337 -0.9850 -0.8828
  155SOL    MW4  354   0.462   2.925   4.544 -0.4564 -0.1294  0.1404
  156SOL     OW  355   4.545   5.199   3.617 -0.1372 -0.3831  0.0547
  156SOL    HW2  356   4.596   5.276   3.642 -0.9008  0.0449  0.3497
  156SOL    HW3  357   4.461   5.212   3.661 -0.7899 -0.6527 -1.0970
  156SOL    MW4  358   4.541   5.211   3.626 -0.5838 -0.5757 -0.3935
  157SOL     OW  359   4.571   1.909   5.742 -0.2538  0.7407  0.4104
  157SOL    HW2  360   4.518   1.951   5.674 -0.5618 -1.2672 -0.6740
  157SOL    HW3  361   4.533   1.939   5.824 -2.0636  0.5915 -0.3349
  157SOL    MW4  362   4.559   1.918   5.743 -0.1764 -0.1699 -0.0790
  158SOL     OW  363   5.381   0.750   4.677 -0.2180  0.0626 -0.3331
  158SOL    HW2  364   5.476   0.748   4.693 -0.3499 -0.3863  0.4393
  158SOL    HW3  365   5.368   0.694   4.601  0.2753  1.1433 -1.2349
  158SOL    MW4  366   5.392   0.742   4.669  0.2412  0.1283  0.1403
  159SOL     OW  367   1.362   3.873   3.766 -0.0322 -0.0170  0.2429
  159SOL    HW2  368   1.359   3.800   3.828  1.3682  1.0915  1.7160
  159SOL    HW3  369   1.301   3.848   3.697 -0.5881 -1.9694  1.3448
  159SOL    MW4  370   1.354   3.860   3.765  0.2043 -0.9864 -0.4103
  160SOL     OW  371   3.799   2.980   5.769  0.2749  0.1510 -0.2433
  160SOL    HW2  372   3.867   2.916   5.752  0.4751  0.2625  0.1247
  160SOL    HW3  373   3.717   2.931   5.763  0.3548  0.1146 -1.1474
  160SOL    MW4  374   3.797   2.965   5.766 -0.1594  0.0490  0.1564
  161SOL     OW  375   1.864   0.170   4.009  0.0048 -0.0295 -0.1118
  161SOL    HW2  376   1.796   0.112   4.044 -0.3870  0.5238  0.0612
  161SOL    HW3  377   1.931   0.111   3.976  1.0877 -0.6535  2.8612
  161SOL    MW4  378   1.864   0.154   4.010  0.1933 -0.0420  0.3187
  162SOL     OW  379   0.924   0.032   3.897 -0.5444 -0.0995  0.0368
  162SOL    HW2  380   0.868   0.094   3.849 -1.5891 -1.3197 -0.3808
  162SOL    HW3  381   1.013   0.059   3.876 -0.9661  1.3061 -0.0740
  162SOL    MW4  382   0.928   0.044   3.888  0.4518 -0.0746 -0.0319
  163SOL     OW  383   6.346   2.124   2.249 -0.3967  0.1240  0.1884
  163SOL    HW2  384   6.356   2.201   2.194 -0.0513  0.7438  1.0928
  163SOL    HW3  385   6.335   2.159   2.338 -0.9055 -0.8431  0.5291
  163SOL    MW4  386   6.346   2.139   2.254 -0.0544  0.2410  0.6504
  164SOL     OW  387   2.351   3.814   4.465 -0.3179 -0.6803  0.0213
  164SOL    HW2  388   2.396   3.877   4.409 -1.5408  0.3792  0.1658
  164SOL    HW3  389   2.359   3.730   4.420  1.8346 -0.5767  0.1016
  164SOL    MW4  390   2.358   3.811   4.452 -0.4990 -0.5015  0.5039
  165SOL     OW  391   6.401   1.561   5.728  0.1457  0.4572 -0.1709
  165SOL    HW2  392   6.434   1.544   5.816 -0.8819 -0.0023  0.1419
  165SOL    HW3  393   6.321   1.611   5.742 -1.4810 -1.8693 -0.6836
  165SOL    MW4  394   6.395   1.566   5.741  0.0694  0.2308  0.2887
  166SOL     OW  395   5.400   3.240   3.151 -0.1571 -0.3271  0.8645
  166SOL    HW2  396   5.374   3.149   3.142  0.9387 -0.6443  0.7249
  166SOL    HW3  397   5.418   3.269   3.061  0.7563 -0.3772  1.0206
  166SOL    MW4  398   5.399   3.232   3.138 -0.3510 -0.3481 -0.0849
  167SOL     OW  399   5.206   1.604   3.391  0.9082  0.3760  0.0088
  167SOL    HW2  400   5.292   1.642   3.373  0.8073  0.8582  0.5001
  167SOL    HW3  401   5.146   1.653   3.336  0.6682  1.5099  1.2223
  167SOL    MW4  402   5.209   1.615   3.381  0.5857  0.0713  0.3570
  168SOL     OW  403   1.805   3.091   3.543 -0.2349  0.1368 -0.4764
  168SOL    HW2  404   1.884   3.046   3.572  0.0123 -0.1834 -1.6096
  168SOL    HW3  405   1.733   3.031   3.563  0.0702 -0.6888 -1.7715
  168SOL    MW4  406   1.806   3.077   3.549 -0.1766 -0.8132  0.2808
  169SOL     OW  407   6.405   2.713   1.541 -0.1197  0.3377 -0.0528
  169SOL    HW2  408   6.405   2.742   1.633  0.2158 -1.0021  0.4019
  169SOL    HW3  409   6.325   2.662   1.532  1.9471 -3.5101  0.9238
  169SOL    MW4  410   6.395   2.710   1.552 -0.4123  0.7180 -0.1499
  170SOL     OW  411   0.014   1.090   2.930 -0.1065 -0.2975  0.0835
  170SOL    HW2  412   0.109   1.080   2.941 -0.0691 -0.7620 -0.5491
  170SOL    HW3  413  -0.021   1.091   3.019  0.4491 -0.6339  0.3135
  170SOL    MW4  414   0.022   1.089   2.943 -0.4004 -0.3076  0.0487
  171SOL     OW  415   0.363   6.428   4.259  0.4953  0.4261 -0.6968
  171SOL    HW2  416   0.352   6.347   4.308  0.8927  0.4951 -0.4872
  171SOL    HW3  417   0.289   6.483   4.286 -0.0492 -0.0511 -1.2155
  171SOL    MW4  418   0.352   6.425   4.269  0.6542 -0.0195  0.4340
  172SOL     OW  419   3.327   0.658   1.254  0.2062 -0.1116 -0.2196
  172SOL    HW2  420   3.250   0.603   1.243 -0.6688  1.3792 -2.2618
  172SOL    HW3  421   3.393   0.619   1.198 -0.3700  0.7520 -1.5582
  172SOL    MW4  422   3.325   0.646   1.245  0.0092 -0.3401  0.5209
  173SOL     OW  423   4.322   0.170   3.541 -0.3410 -0.4956 -0.3413
  173SOL    HW2  424   4.404   0.131   3.573 -0.3278 -0.6149 -0.5216
  173SOL    HW3  425   4.288   0.219   3.616  1.5054  2.2275 -1.1083
  173SOL    MW4  426   4.329   0.172   3.555 -0.0238 -0.7705  0.2912
  174SOL     OW  427   1.415   2.157   6.010 -0.2562  0.3419 -0.4707
  174SOL    HW2  428   1.393   2.245   5.979  0.8406  0.8207  0.0766
  174SOL    HW3  429   1.510   2.156   6.015 -0.3194 -0.1074  1.7207
  174SOL    MW4  430   1.425   2.168   6.007 -0.0022 -0.0588 -0.5588
  175SOL     OW  431   5.851   1.795   3.028  0.0816  0.6741  0.2159
  175SOL    HW2  432   5.908   1.827   2.957 -1.0488  0.7647 -0.6738
  175SOL    HW3  433   5.886   1.836   3.107  0.3673  1.9042 -0.5225
  175SOL    MW4  434   5.863   1.805   3.029  0.2038 -0.0107  0.2708
  176SOL     OW  435   1.946   1.137   2.070 -0.0507 -0.1409 -0.3407
  176SOL    HW2  436   1.990   1.111   1.989  0.1775  0.1615 -0.3172
  176SOL    HW3  437   2.010   1.121   2.139 -0.9033 -2.2712  0.0556
  176SOL    MW4  438   1.960   1.131   2.068  0.1224 -0.0371  0.0381
  177SOL     OW  439   5.260   5.225   1.723 -0.3383 -0.1646  0.3759
  177SOL    HW2  440   5.202   5.150   1.712 -0.8793  0.2968  0.0254
  177SOL    HW3  441   5.318   5.200   1.794  1.5970 -2.2533 -1.7289
  177SOL    MW4  442   5.260   5.212   1.731  0.2919 -0.2908 -0.0433
  178SOL     OW  443   5.358   4.694   2.822 -0.6219  0.1219 -0.4857
  178SOL    HW2  444   5.270   4.697   2.784 -0.6301 -0.5953 -0.5368
  178SOL    HW3  445   5.374   4.601   2.838  0.0846  0.2582 -0.3732
  178SOL    MW4  446   5.348   4.682   2.819 -0.1001 -0.2842  0.0958
  179SOL     OW  447   4.667   5.689   4.457  0.3506  0.0706  0.0653
  179SOL    HW2  448   4.743   5.633   4.472  0.0251 -0.2800  0.4278
  179SOL    HW3  449   4.606   5.635   4.406  0.2336  0.2571  0.0043
  179SOL    MW4  450   4.669   5.674   4.453  0.0831 -0.0011  0.1834
  180SOL     OW  451   6.016   4.069   3.547 -0.1177 -0.1254  0.0996
  180SOL    HW2  452   6.091   4.112   3.589  0.1377 -3.0509  3.1462
  180SOL    HW3  453   6.049   3.981   3.525 -2.2643 -1.0429  0.3521
  180SOL    MW4  454   6.031   4.063   3.550 -0.3396 -0.1434 -0.3079
  181SOL     OW  455   0.666   0.631   0.505 -0.0386  0.3300  0.0906
  181SOL    HW2  456   0.714   0.587   0.575 -1.6682 -0.9799  0.4508
  181SOL    HW3  457   0.713   0.607   0.425  0.5920  0.0641  0.5324
  181SOL    MW4  458   0.678   0.622   0.504 -0.2834 -0.5828 -0.2897
  182SOL     OW  459   0.497   1.552   3.117 -0.0331  0.2329 -1.2951
  182SOL    HW2  460   0.546   1.598   3.049  2.1884  0.5844  0.4216
  182SOL    HW3  461   0.534   1.585   3.199 -2.2599 -0.5359  0.1008
  182SOL    MW4  462   0.508   1.563   3.119  0.6377  0.2384 -0.1104
  183SOL     OW  463   0.508   4.760   1.403 -0.8562  0.4636 -1.0802
  183SOL    HW2  464   0.549   4.814   1.471  0.2262 -1.4775 -0.1154
  183SOL    HW3  465   0.422   4.737   1.439 -0.3884 -0.3453 -0.4508
  183SOL    MW4  466   0.502   4.764   1.417 -0.0762  0.1942 -0.2607
  184SOL     OW  467   4.194   3.154   1.216 -0.0136 -0.0494 -0.1492
  184SOL    HW2  468   4.115   3.145   1.270  1.1268 -0.0416  1.5575
  184SOL    HW3  469   4.160   3.184   1.131 -2.1864 -3.2076 -0.5567
  184SOL    MW4  470   4.179   3.157   1.212  0.4279 -0.3011 -0.2953
  185SOL     OW  471   3.533   1.123   3.731 -0.1665  0.6172 -0.3581
  185SOL    HW2  472   3.625   1.148   3.718 -0.3235  1.4985  0.1103
  185SOL    HW3  473   3.531   1.085   3.818 -0.4929  1.9667  0.2446
  185SOL    MW4  474   3.545   1.122   3.740  0.5483  0.2507 -0.4852
  186SOL     OW  475   5.771   1.919   4.147 -0.6160  0.0767 -0.2526
  186SOL    HW2  476   5.739   1.978   4.215  0.7489  0.4792  0.0894
  186SOL    HW3  477   5.700   1.857   4.134 -1.7723  1.2912 -0.0310
  186SOL    MW4  478   5.758   1.919   4.154  0.4249  0.5100  0.6958
  187SOL     OW  479   1.002   2.961   4.060  0.3336 -0.0097  0.4684
  187SOL    HW2  480   0.936   2.931   4.122  0.6270  1.9697  1.8155
  187SOL    HW3  481   1.051   3.028   4.107  3.2011 -1.2134 -0.5455
  187SOL    MW4  482   1.000   2.966   4.074 -0.3474  0.3954 -0.0620
  188SOL     OW  483   2.530   5.167   1.534 -0.3285 -0.0115  0.9579
  188SOL    HW2  484   2.591   5.239   1.554 -0.0235 -0.0372  0.1793
  188SOL    HW3  485   2.494   5.141   1.618  0.7703 -0.0129  1.4388
  188SOL    MW4  486   2.533   5.173   1.547  0.0616 -0.0693  0.0063
  189SOL     OW  487   5.876   2.825   5.892 -0.0218  0.6106  0.0066
  189SOL    HW2  488   5.800   2.816   5.951  0.1113  1.2038  0.2787
  189SOL    HW3  489   5.934   2.754   5.918 -0.4970  0.1333 -0.2217
  189SOL    MW4  490   5.874   2.815   5.903  0.1359 -0.2291 -0.3881
  190SOL     OW  491   0.261   2.855   4.755  0.7662  0.0819 -0.0601
  190SOL    HW2  492   0.172   2.882   4.776  1.1953  0.5735  1.2656
  190SOL    HW3  493   0.316   2.926   4.789  1.7180 -0.6914  0.0740
  190SOL    MW4  494   0.257   2.868   4.762  0.9208  0.4155  0.0492
  191SOL     OW  495   0.143   3.728   5.298  1.5236  0.5398 -0.4414
  191SOL    HW2  496   0.139   3.823   5.298  1.1555  0.5261 -0.1266
  191SOL    HW3  497   0.080   3.701   5.230  1.0849  0.5048 -0.0273
  191SOL    MW4  498   0.134   3.737   5.289  0.1784  0.2106  0.6072
  192SOL     OW  499   2.693   1.860   5.164  0.7578  0.6795 -0.4677
  192SOL    HW2  500   2.606   1.850   5.127  0.2184 -0.6859  1.0306
  192SOL    HW3  501   2.696   1.951   5.195 -0.5276  0.4569  0.3717
  192SOL    MW4  502   2.682   1.871   5.163 -0.2882  0.2958 -0.2351
  193SOL     OW  503   0.725   1.860   3.988 -0.0532 -0.1272 -0.1973
  193SOL    HW2  504   0.756   1.769   3.996 -3.1049 -1.2475  0.0053
  193SOL    HW3  505   0.631   1.855   4.006 -0.8119  2.7021 -2.6673
  193SOL    MW4  506   0.717   1.847   3.992 -0.3113  0.0826  0.0683
  194SOL     OW  507   4.693   3.330   4.458 -0.0983 -0.2809  0.1478
  194SOL    HW2  508   4.633   3.284   4.517  1.8894 -0.7846  1.9068
  194SOL    HW3  509   4.775   3.281   4.464  1.1422  1.6193 -0.4605
  194SOL    MW4  510   4.696   3.318   4.467  0.2421 -0.2254 -0.5884
  195SOL     OW  511   2.802   0.872   5.133  0.2272 -0.7096 -0.0307
  195SOL    HW2  512   2.870   0.931   5.100  1.5963 -3.1041 -1.8458
  195SOL    HW3  513   2.841   0.832   5.211 -1.0485  1.2632  1.7407
  195SOL    MW4  514   2.817   0.875   5.139 -0.0838 -0.0920 -0.4270
  196SOL     OW  515   0.385   1.742   1.968 -0.7568  0.0095 -0.0769
  196SOL    HW2  516   0.420   1.779   1.887 -1.0013 -0.8539 -0.5920
  196SOL    HW3  517   0.290   1.745   1.956 -0.8198  0.6221  0.5261
  196SOL    MW4  518   0.377   1.747   1.955 -0.6146 -0.3065 -0.6636
  197SOL     OW  519   0.921   0.365   4.105  0.3642 -0.2550 -0.4396
  197SOL    HW2  520   0.918   0.350   4.199  1.0554  2.1686  0.0503
  197SOL    HW3  521   1.014   0.355   4.083  0.0790 -1.7163 -1.0738
  197SOL    MW4  522   0.933   0.362   4.114 -0.0512  0.4825 -0.3670
  198SOL     OW  523   6.324   4.377   1.091  0.2956  0.2373 -0.4380
  198SOL    HW2  524   6.388   4.315   1.055 -1.5727 -0.2819 -3.2425
  198SOL    HW3  525   6.245   4.324   1.105 -0.3113  1.3445  0.4478
  198SOL    MW4  526   6.322   4.362   1.088 -0.6169  0.0364  0.1398
  199SOL     OW  527   3.085   4.474   6.401  0.5217  0.3639 -0.7681
  199SOL    HW2  528   3.101   4.504   6.491 -0.4233 -0.2842 -0.3689
  199SOL    HW3  529   3.003   4.426   6.406  1.3815 -1.2867 -1.6127
  199SOL    MW4  530   3.076   4.472   6.414 -0.4193  0.0065 -0.0056
  200SOL     OW  531   1.172   0.341   1.115 -0.4546 -0.1740 -0.7355
  200SOL    HW2  532   1.250   0.303   1.075 -0.2069 -0.6346  0.1390
  200SOL    HW3  533   1.100   0.313   1.059 -0.0830 -0.5199 -1.0457
  200SOL    MW4  534   1.173   0.332   1.102  0.4527  0.3080  0.1763
  201SOL     OW  535   5.162   1.295   1.394  0.3571  0.0215 -0.0189
  201SOL    HW2  536   5.213   1.309   1.314  1.4390 -3.1549 -0.0489
  201SOL    HW3  537   5.090   1.238   1.367 -0.3544  0.4421  0.9326
  201SOL    MW4  538   5.159   1.289   1.380  0.6074 -1.2977  0.1927
  202SOL     OW  539   3.999   3.599   2.916  0.9357  0.4622  0.8019
  202SOL    HW2  540   4.005   3.507   2.890  0.5770  0.3222  1.1904
  202SOL    HW3  541   3.995   3.596   3.012  0.9472  0.8830  0.8164
  202SOL    MW4  542   3.999   3.586   2.925 -0.2157 -0.1397  0.0816
  203SOL     OW  543   1.887   4.372   2.125  0.5396  0.1095 -0.0762
  203SOL    HW2  544   1.843   4.433   2.184  2.0114  2.4861 -1.2919
  203SOL    HW3  545   1.821   4.353   2.058 -0.7418 -1.6811  1.5680
  203SOL    MW4  546   1.872   4.377   2.124  0.3473 -0.3958 -0.3706
  204SOL     OW  547   5.750   0.565   2.986 -0.6565  0.0428  0.6581
  204SOL    HW2  548   5.712   0.648   3.017 -2.8771 -1.1101  1.2270
  204SOL    HW3  549   5.700   0.544   2.907  0.5046 -0.3413  0.0027
  204SOL    MW4  550   5.738   0.573   2.980  0.0735  0.0726  0.2427
  205SOL     OW  551   5.385   3.032   2.758  0.3945  0.3198  0.2772
  205SOL    HW2  552   5.292   3.029   2.738  0.4528  0.6463 -0.0688
  205SOL    HW3  553   5.401   3.123   2.784  0.5030  0.1221  0.9172
  205SOL    MW4  554   5.375   3.044   2.759  0.0106  0.2677 -0.2466
  206SOL     OW  555   4.744   5.483   1.938  0.0307  0.0412  0.2979
  206SOL    HW2  556   4.709   5.459   2.024  0.3697  2.5891  1.2342
  206SOL    HW3  557   4.838   5.492   1.952 -0.1708  2.8564  0.3646
  206SOL    MW4  558   4.752   5.481   1.951 -0.2796 -0.8160 -0.3138
  207SOL     OW  559   4.747   2.089   2.127  0.3706  0.4528  0.5933
  207SOL    HW2  560   4.696   2.013   2.153  0.1920  0.5496  0.5302
  207SOL    HW3  561   4.740   2.149   2.201  0.9946  0.1716  0.8852
  207SOL    MW4  562   4.739   2.087   2.140 -0.1968  0.2137 -0.2875
  208SOL     OW  563   0.424   5.284   0.853 -0.3160  0.8533 -0.2334
  208SOL    HW2  564   0.364   5.316   0.921  0.4972  0.1417  0.8613
  208SOL    HW3  565   0.499   5.343   0.860  0.5781 -0.3494  0.8181
  208SOL    MW4  566   0.426   5.296   0.863 -0.4958 -0.6905  0.4013
  209SOL     OW  567   4.523   2.028   4.554 -0.3836 -0.3569  0.7930
  209SOL    HW2  568   4.618   2.029   4.571 -0.4809 -0.4344  1.3614
  209SOL    HW3  569   4.491   2.109   4.593 -0.3427  0.4040 -0.7118
  209SOL    MW4  570   4.531   2.039   4.562  0.2931 -0.1457 -0.3353
  210SOL     OW  571   0.820   1.702   4.756  0.3245 -0.7045  0.4361
  210SOL    HW2  572   0.896   1.704   4.697  0.0095 -0.8337  0.0166
  210SOL    HW3  573   0.817   1.789   4.795  0.3495 -0.5065  0.0082
  210SOL    MW4  574   0.830   1.713   4.753 -0.1095 -0.3136  0.3696
  211SOL     OW  575   2.442   0.381   5.514 -0.0730 -0.6124  0.8399
  211SOL    HW2  576   2.446   0.384   5.419 -0.6695  0.3394  0.8236
  211SOL    HW3  577   2.348   0.384   5.534  0.0649  0.1415  1.4580
  211SOL    MW4  578   2.430   0.382   5.504  0.3795  0.0942  0.2258
  212SOL     OW  579   0.213   5.670   2.884 -0.1147  0.1210  0.1765
  212SOL    HW2  580   0.139   5.664   2.945  1.9527  1.5542  3.0609
  212SOL    HW3  581   0.224   5.580   2.853 -1.5005 -0.6290  1.6401
  212SOL    MW4  582   0.204   5.657   2.888  0.8746  0.3876 -0.4201
  213SOL     OW  583   1.182   2.064   1.953 -0.5847 -0.8182 -0.1148
  213SOL    HW2  584   1.108   2.122   1.935  0.9968  1.7527  1.0427
  213SOL    HW3  585   1.173   2.042   2.046  0.3209 -0.0961  0.1568
  213SOL    MW4  586   1.171   2.069   1.963 -0.3592 -0.0642  0.1961
  214SOL     OW  587   2.400   2.061   1.597  0.0284  0.1690 -0.0035
  214SOL    HW2  588   2.327   2.022   1.549  1.0687 -2.0219  0.0715
  214SOL    HW3  589   2.375   2.055   1.689 -1.2994  2.9843 -0.0656
  214SOL    MW4  590   2.388   2.055   1.603  0.2800  0.0053 -0.2769
  215SOL     OW  591   3.392   3.855   5.887  0.2238  0.0494  0.4394
  215SOL    HW2  592   3.438   3.914   5.946 -0.1061  0.2374  0.5086
  215SOL    HW3  593   3.360   3.911   5.816  0.3586 -0.1282  0.2330
  215SOL    MW4  594   3.394   3.870   5.885 -0.0118 -0.0607 -0.6669
  216SOL     OW  595   0.684   4.120   4.531 -0.1072  0.2020 -0.1737
  216SOL    HW2  596   0.640   4.198   4.499  1.6945  1.3415  0.0154
  216SOL    HW3  597   0.712   4.142   4.619 -2.1164 -1.7396  1.0550
  216SOL    MW4  598   0.682   4.133   4.538 -0.4520  0.1817 -0.0433
  217SOL     OW  599   1.993   2.749   0.013  0.9990  1.4650 -0.5906
  217SOL    HW2  600   1.898   2.746   0.027  1.2921  2.2637  2.1882
  217SOL    HW3  601   2.012   2.670  -0.038 -0.8226 -0.4024  1.3969
  217SOL    MW4  602   1.983   2.738   0.008  0.6994  0.1988  0.6075
  218SOL     OW  603   1.090   4.721   4.169 -0.3997 -0.7185  0.5351
  218SOL    HW2  604   1.124   4.810   4.164 -0.3243 -0.7128  1.0309
  218SOL    HW3  605   1.142   4.680   4.238  1.6430 -2.0802 -1.6628
  218SOL    MW4  606   1.101   4.727   4.178  0.5373 -0.5595 -0.0207
  219SOL     OW  607   5.125   4.436   5.488  0.2318  0.0158  0.0129
  219SOL    HW2  608   5.032   4.461   5.496  0.5449  0.8461  1.4837
  219SOL    HW3  609   5.169   4.517   5.465  0.6685 -0.2286 -0.0081
  219SOL    MW4  610   5.118   4.450   5.486 -0.0024 -0.2745  0.5474
  220SOL     OW  611   0.484   2.906   2.045  0.5099  0.4816 -0.0472
  220SOL    HW2  612   0.417   2.945   2.101  0.7604  2.0519 -0.7905
  220SOL    HW3  613   0.463   2.937   1.957 -0.4210 -2.6510 -1.0759
  220SOL    MW4  614   0.473   2.915   2.041  0.0261 -0.4015  0.0302
  221SOL     OW  615   1.060   2.889   0.412  0.2196 -0.4226  0.2551
  221SOL    HW2  616   1.009   2.963   0.380 -1.3717 -1.6996 -0.2978
  221SOL    HW3  617   1.032   2.877   0.502  0.2193 -0.5812  0.2340
  221SOL    MW4  618   1.050   2.897   0.419  0.0456 -1.1551 -0.0193
  222SOL     OW  619   1.283   5.675   6.192  0.0046  0.1754 -0.6772
  222SOL    HW2  620   1.372   5.647   6.211 -0.4870 -0.8172  0.3194
  222SOL    HW3  621   1.229   5.598   6.212 -1.1678  1.0715 -0.2669
  222SOL    MW4  622   1.288   5.661   6.197  0.0444  0.0280  0.2187
  223SOL     OW  623   2.738   4.269   4.307  0.3581  0.0254 -0.3816
  223SOL    HW2  624   2.749   4.204   4.237 -1.6708  0.0834 -0.8152
  223SOL    HW3  625   2.771   4.350   4.269  1.4017 -0.3985 -0.4197
  223SOL    MW4  626   2.744   4.271   4.293  0.5812  0.3162 -0.5954
  224SOL     OW  627   1.691   1.224   1.700  0.2886  0.5705  0.1198
  224SOL    HW2  628   1.634   1.298   1.718  0.6942  0.7814  0.5776
  224SOL    HW3  629   1.707   1.228   1.605  1.3216  1.8301  0.3192
  224SOL    MW4  630   1.686   1.234   1.690  0.0326  0.0499 -0.1650
  225SOL     OW  631   5.138   3.766   0.544 -0.2898  0.3680 -0.0489
  225SOL    HW2  632   5.080   3.704   0.501 -0.1433  0.8356 -0.9504
  225SOL    HW3  633   5.153   3.834   0.478  2.0409 -0.2189 -0.1995
  225SOL    MW4  634   5.132   3.767   0.530 -0.2715  0.2371  0.0999
  226SOL     OW  635   2.146   3.081   2.711  0.4669 -0.8390 -0.0754
  226SOL    HW2  636   2.147   3.159   2.657  1.3235 -0.6247  0.2283
  226SOL    HW3  637   2.139   3.008   2.649  0.7631 -0.5700 -0.4257
  226SOL    MW4  638   2.145   3.081   2.696  0.4222  0.1311  0.2426
  227SOL     OW  639   1.234   1.543   0.484 -0.2314  0.6609  0.3052
  227SOL    HW2  640   1.323   1.520   0.459 -0.8941  0.8879 -2.5719
  227SOL    HW3  641   1.237   1.550   0.580  2.6436  0.0097  0.3456
  227SOL    MW4  642   1.246   1.541   0.493  0.0436 -0.3560  0.2204
  228SOL     OW  643   4.037   3.818   0.646  0.4680  0.4675 -0.3461
  228SOL    HW2  644   4.119   3.866   0.653  0.1196  1.0366 -0.1051
  228SOL    HW3  645   4.010   3.831   0.555 -0.2594  1.8004  0.0373
  228SOL    MW4  646   4.044   3.826   0.635  0.4552 -0.1701  0.3531
  229SOL     OW  647   1.250   0.826   1.317 -0.0647 -0.1966  0.1087
  229SOL    HW2  648   1.266   0.810   1.224  1.0560 -0.9237  0.4042
  229SOL    HW3  649   1.213   0.744   1.350  3.1551 -1.4563  1.0589
  229SOL    MW4  650   1.247   0.813   1.309 -0.3360 -0.3526  0.4959
  230SOL     OW  651   1.102   5.311   3.541  0.4702 -0.0961 -0.2992
  230SOL    HW2  652   1.170   5.372   3.513 -0.1905 -0.0797 -2.0076
  230SOL    HW3  653   1.112   5.235   3.484 -0.3760 -0.4782  0.0328
  230SOL    MW4  654   1.112   5.309   3.530  0.2748 -0.2297  0.1954
  231SOL     OW  655   4.975   3.038   2.354  0.6272  0.0331  0.0099
  231SOL    HW2  656   4.885   3.022   2.383  0.6934 -0.1954  0.0992
  231SOL    HW3  657   4.987   2.979   2.279  0.7153  0.0279  0.0270
  231SOL    MW4  658   4.965   3.028   2.348  0.1111 -0.8945  0.1531
  232SOL     OW  659   4.815   2.589   2.988  0.5085  0.1229 -0.0231
  232SOL    HW2  660   4.769   2.636   2.919  0.5246  1.9240  1.1073
  232SOL    HW3  661   4.907   2.593   2.962  0.2240 -3.1275 -2.0779
  232SOL    MW4  662   4.821   2.596   2.976 -0.1953  0.5023  0.1933
  233SOL     OW  663   2.505   0.775   4.138 -0.2444  0.5538 -0.1308
  233SOL    HW2  664   2.437   0.716   4.104 -0.9699  1.1964  0.1780
  233SOL    HW3  665   2.494   0.856   4.089  0.2116  0.7169  0.0290
  233SOL    MW4  666   2.495   0.778   4.127  0.0038  0.0606  0.6977
  234SOL     OW  667   0.692   2.577   1.999  0.2318  1.3653  0.5059
  234SOL    HW2  668   0.717   2.669   1.998 -0.7243  1.6554  1.7249
  234SOL    HW3  669   0.646   2.564   1.916  0.3883  1.9760  0.3227
  234SOL    MW4  670   0.689   2.587   1.988 -0.0892  0.2876 -0.0176
  235SOL     OW  671   4.960   1.879   2.147 -0.2257 -0.4037 -0.1675
  235SOL    HW2  672   4.960   1.835   2.232 -0.9701  0.4247  0.2855
  235SOL    HW3  673   4.910   1.959   2.162  3.0378  1.8559 -0.3356
  235SOL    MW4  674   4.953   1.884   2.160 -0.5642  0.5721 -0.3569
  236SOL     OW  675   3.482   2.663   4.022 -0.2129 -0.7450  0.0261
  236SOL    HW2  676   3.554   2.622   4.069  0.6818 -1.2072 -1.6908
  236SOL    HW3  677   3.524   2.727   3.964 -1.2258 -0.6167 -0.5961
  236SOL    MW4  678   3.497   2.666   4.021 -0.1819  0.6727  0.0691
  237SOL     OW  679   1.134   2.030   0.468  0.0568  0.2860  0.3817
  237SOL    HW2  680   1.038   2.033   0.465  0.0109  1.6876  1.7649
  237SOL    HW3  681   1.162   2.107   0.418  0.6579 -1.9751 -3.0777
  237SOL    MW4  682   1.125   2.041   0.461  0.5615  0.5968  0.7661
  238SOL     OW  683   0.480   5.565   1.343 -0.6371  0.1392 -0.1868
  238SOL    HW2  684   0.433   5.640   1.307 -1.8650 -0.5075  0.0380
  238SOL    HW3  685   0.460   5.566   1.437 -0.1081 -0.0857 -0.0661
  238SOL    MW4  686   0.472   5.575   1.351  0.1550 -0.0955  0.3507
  239SOL     OW  687   0.195   2.463   1.103 -0.3452  0.4018 -0.0644
  239SOL    HW2  688   0.124   2.498   1.156  0.0454 -0.4406  1.0626
  239SOL    HW3  689   0.166   2.375   1.079  0.0188  0.3168 -0.1952
  239SOL    MW4  690   0.182   2.456   1.107  0.0543 -0.2979 -0.3409
  240SOL     OW  691   3.326   4.703   0.102  0.3876 -0.0451  0.0104
  240SOL    HW2  692   3.392   4.663   0.044  0.7573 -0.3250  0.6109
  240SOL    HW3  693   3.252   4.722   0.044  1.3349  1.1389 -0.8734
  240SOL    MW4  694   3.325   4.700   0.086  0.4594 -0.2670  0.2340
  241SOL     OW  695   6.195   6.169   2.197 -0.1910 -0.0948 -0.0977
  241SOL    HW2  696   6.206   6.182   2.103 -1.8366 -0.4674 -0.3622
  241SOL    HW3  697   6.124   6.228   2.221 -0.4356 -0.7112  0.7246
  241SOL    MW4  698   6.187   6.179   2.188  0.4330 -0.0302 -0.2886
  242SOL     OW  699   2.596   4.693   0.242  0.2804  0.4521  0.1753
  242SOL    HW2  700   2.590   4.637   0.319 -0.1482  0.3435  0.0678
  242SOL    HW3  701   2.689   4.706   0.228  0.3895 -0.3947  0.0924
  242SOL    MW4  702   2.607   4.687   0.250 -0.2167 -0.3700 -0.7403
  243SOL     OW  703   3.469   0.808   0.415  0.0452  0.1767  0.3202
  243SOL    HW2  704   3.461   0.715   0.396  0.1245  0.5683 -1.9722
  243SOL    HW3  705   3.389   0.830   0.463 -0.2641 -0.9635  0.3496
  243SOL    MW4  706   3.457   0.799   0.419  0.5582 -0.2580 -0.6330
  244SOL     OW  707   5.078   0.623   6.389  0.6003  0.1354  0.4249
  244SOL    HW2  708   5.108   0.713   6.378 -0.0676  0.1580 -1.5666
  244SOL    HW3  709   5.019   0.626   6.464 -1.5714  1.9681 -1.2345
  244SOL    MW4  710   5.074   0.635   6.397 -0.2194  0.3122 -0.2889
  245SOL     OW  711   3.169   3.766   4.679  0.1640  0.4528 -0.6412
  245SOL    HW2  712   3.104   3.717   4.629 -0.8096 -1.1273  1.9797
  245SOL    HW3  713   3.253   3.730   4.650 -0.4375 -1.4388 -0.1858
  245SOL    MW4  714   3.171   3.755   4.669 -0.4698  0.5098  0.3288
  246SOL     OW  715   5.408   5.952   2.114  0.7000  0.2497  0.8545
  246SOL    HW2  716   5.479   6.011   2.137  0.4264  0.3209  1.5241
  246SOL    HW3  717   5.342   6.008   2.073  0.1657  0.5221  2.0684
  246SOL    MW4  718   5.409   5.967   2.111  0.0708  0.0443 -0.3041
  247SOL     OW  719   2.339   0.631   0.606  0.0529  0.1784  0.0579
  247SOL    HW2  720   2.303   0.717   0.581 -3.6317 -0.8078  1.3475
  247SOL    HW3  721   2.381   0.647   0.690  0.3738  0.8862 -0.2210
  247SOL    MW4  722   2.340   0.645   0.613 -0.6311  0.0532  0.2964
  248SOL     OW  723   1.607   4.084   1.807 -0.0595 -0.5362  0.1005
  248SOL    HW2  724   1.652   3.999   1.809 -0.3446 -0.6852  0.1737
  248SOL    HW3  725   1.630   4.125   1.890 -1.4999 -1.3616  0.9571
  248SOL    MW4  726   1.616   4.078   1.818  0.5115  0.3944  0.5033
  249SOL     OW  727   3.467   0.703   2.699 -0.0723  0.1975  0.1995
  249SOL    HW2  728   3.458   0.675   2.790  0.7425 -0.0179  0.2185
  249SOL    HW3  729   3.538   0.767   2.700 -0.9639  1.2318 -0.0729
  249SOL    MW4  730   3.475   0.708   2.711  0.0919 -0.8901  0.0900
  250SOL     OW  731   2.444   0.127   2.133 -0.2400  0.6942  0.0470
  250SOL    HW2  732   2.454   0.032   2.124 -1.6450  0.1554  2.8676
  250SOL    HW3  733   2.534   0.160   2.132  0.2274 -0.2594 -3.2927
  250SOL    MW4  734   2.458   0.119   2.132 -0.8242 -0.4095 -0.6081
  251SOL     OW  735   0.847   1.923   1.852  0.0551  0.5907  0.4678
  251SOL    HW2  736   0.931   1.878   1.860 -1.4441 -2.4020  0.7687
  251SOL    HW3  737   0.814   1.928   1.942 -0.6061  0.6898  0.2236
  251SOL    MW4  738   0.854   1.918   1.865 -0.4369 -0.1671  0.0932
  252SOL     OW  739   6.065   5.133   6.110  0.1316 -0.0886  0.2604
  252SOL    HW2  740   6.010   5.157   6.185 -0.2590 -1.1174  0.3202
  252SOL    HW3  741   6.030   5.048   6.081  1.5586 -0.6709  0.1711
  252SOL    MW4  742   6.053   5.125   6.116  0.2309 -0.5263 -0.2771
  253SOL     OW  743   2.273   2.707   5.624  0.5792 -0.6319  0.4777
  253SOL    HW2  744   2.182   2.714   5.596  0.8909 -0.0064 -0.4106
  253SOL    HW3  745   2.322   2.697   5.543  1.4578  0.6935  0.8323
  253SOL    MW4  746   2.267   2.706   5.610 -0.3877 -0.4953  1.0453
  254SOL     OW  747   0.860   0.315   5.511 -0.4082  0.8538 -0.4376
  254SOL    HW2  748   0.907   0.275   5.437 -0.9896 -0.7821  0.0279
  254SOL    HW3  749   0.902   0.400   5.523  1.0377  0.3096 -1.3582
  254SOL    MW4  750   0.872   0.321   5.503 -0.0167 -0.3012 -0.3602
  255SOL     OW  751   2.882   0.104   6.120 -0.5058 -0.6813  0.2036
  255SOL    HW2  752   2.870   0.131   6.029 -0.2665  0.8203  0.5812
  255SOL    HW3  753   2.806   0.141   6.166 -0.1888 -0.6979  0.7468
  255SOL    MW4  754   2.870   0.112   6.114  0.7890 -0.2597  0.0499
  256SOL     OW  755   4.584   4.908   0.973 -0.3435 -0.1089  0.4556
  256SOL    HW2  756   4.598   4.976   1.039 -1.3369  0.2225  0.3427
  256SOL    HW3  757   4.524   4.846   1.016 -0.0893 -0.4892  0.2663
  256SOL    MW4  758   4.578   4.909   0.987 -0.4425 -0.5928  0.6833
  257SOL     OW  759   6.140   4.675   3.127  0.1406 -0.2159  0.1019
  257SOL    HW2  760   6.174   4.602   3.178  0.1217  0.3010  0.8760
  257SOL    HW3  761   6.098   4.732   3.192  0.3721  0.6003 -0.4525
  257SOL    MW4  762   6.139   4.673   3.142 -0.0526  0.8100 -0.5100
  258SOL     OW  763   4.118   2.417   0.232 -0.0357  0.7545  0.0266
  258SOL    HW2  764   4.034   2.385   0.199  1.4685 -1.1935 -2.2463
  258SOL    HW3  765   4.118   2.395   0.325 -2.3238  1.5497  0.2676
  258SOL    MW4  766   4.107   2.410   0.240  0.7872  0.3811  0.6909
  259SOL     OW  767   5.595   4.540   1.986 -0.6118 -0.0761 -0.2433
  259SOL    HW2  768   5.667   4.481   1.963  0.0887  1.0376 -0.9987
  259SOL    HW3  769   5.638   4.612   2.032 -1.5709 -0.5627  1.5119
  259SOL    MW4  770   5.610   4.542   1.989  0.0690  0.2781  0.4496
  260SOL     OW  771   0.017   4.709   2.751 -0.4208  0.2497  0.8588
  260SOL    HW2  772  -0.011   4.680   2.665  0.4099 -2.4894  1.4274
  260SOL    HW3  773   0.102   4.751   2.737 -1.8625  3.1407 -0.0403
  260SOL    MW4  774   0.024   4.711   2.738 -0.2006  0.4263 -0.7663
  261SOL     OW  775   0.930   2.523   0.032 -0.0768 -0.0201 -0.6361
  261SOL    HW2  776   1.006   2.569   0.067  0.9175 -0.1250 -2.4952
  261SOL    HW3  777   0.858   2.585   0.042  0.8775  1.2810 -1.4533
  261SOL    MW4  778   0.930   2.538   0.038 -0.1788 -0.0013 -0.2363
  262SOL     OW  779   4.476   2.831   0.710 -0.4535 -0.0641  0.2651
  262SOL    HW2  780   4.493   2.885   0.787 -1.3851 -0.3942  0.7130
  262SOL    HW3  781   4.383   2.845   0.691 -0.5131 -0.8884 -0.0897
  262SOL    MW4  782   4.466   2.840   0.718 -0.4504  0.9496 -0.4375
  263SOL     OW  783   3.305   5.119   4.877 -0.2362 -0.3001  0.1939
  263SOL    HW2  784   3.389   5.083   4.851 -0.0118  0.9314 -0.9137
  263SOL    HW3  785   3.241   5.052   4.852  0.2553 -0.4190 -0.7854
  263SOL    MW4  786   3.307   5.106   4.870 -0.7848  0.2347 -0.3525
  264SOL     OW  787   4.350   6.367   4.718 -0.5141  0.5619  0.2975
  264SOL    HW2  788   4.333   6.280   4.683 -0.6469  0.2941  1.0162
  264SOL    HW3  789   4.350   6.424   4.641  1.8790 -0.3878 -0.4946
  264SOL    MW4  790   4.348   6.363   4.703  0.2018  0.5611 -0.3662
  265SOL     OW  791   0.102   5.144   3.657 -0.3008 -0.4515 -0.5299
  265SOL    HW2  792   0.193   5.117   3.668  0.0108  0.1327 -1.5093
  265SOL    HW3  793   0.087   5.138   3.563 -0.7530  1.0753 -0.5750
  265SOL    MW4  794   0.112   5.139   3.646  0.2671 -0.3838 -0.7589
  266SOL     OW  795   2.411   2.402   1.213 -0.0716  0.4688 -0.4266
  266SOL    HW2  796   2.454   2.436   1.291 -1.4473 -4.0430  2.6601
  266SOL    HW3  797   2.483   2.371   1.158  0.8264  1.8700 -0.1130
  266SOL    MW4  798   2.426   2.403   1.216  0.1932  0.1070  0.3079
  267SOL     OW  799   3.192   1.767   1.467 -0.0645  0.2706 -0.2716
  267SOL    HW2  800   3.204   1.675   1.443 -1.4824  0.4759 -1.9730
  267SOL    HW3  801   3.230   1.774   1.554 -0.1381 -1.9836  0.0024
  267SOL    MW4  802   3.199   1.756   1.475  0.4375  0.0281  0.3404
  268SOL     OW  803   3.517   5.345   1.947  0.1065 -0.6214 -0.7878
  268SOL    HW2  804   3.555   5.425   1.985 -1.2243 -1.4265  2.6076
  268SOL    HW3  805   3.578   5.321   1.878  1.8230  2.0308 -0.3711
  268SOL    MW4  806   3.530   5.353   1.943  0.6325 -0.3894  0.3261
  269SOL     OW  807   1.181   5.745   2.762 -0.0964 -0.0013 -0.2849
  269SOL    HW2  808   1.119   5.816   2.780 -0.8039 -1.0686  1.9029
  269SOL    HW3  809   1.154   5.712   2.677 -2.4907 -0.2881  0.4999
  269SOL    MW4  810   1.169   5.750   2.753 -0.4547  0.2823  0.0683
  270SOL     OW  811   0.957   5.870   0.649 -0.5863  0.1008 -0.2048
  270SOL    HW2  812   0.977   5.792   0.700 -0.2542  0.3415  0.0341
  270SOL    HW3  813   0.891   5.841   0.585 -2.6794  0.2949  1.7421
  270SOL    MW4  814   0.951   5.856   0.647 -0.3195 -0.2642 -0.4013
  271SOL     OW  815   4.029   5.054   2.824  0.0913 -0.0741 -0.3726
  271SOL    HW2  816   3.991   4.968   2.806  1.3100 -1.5877  3.3755
  271SOL    HW3  817   3.957   5.105   2.861  0.2118 -0.8501  0.9933
  271SOL    MW4  818   4.015   5.049   2.826 -1.2005 -0.7088  0.0024
  272SOL     OW  819   5.651   5.847   0.061  1.0804  0.1495  0.4531
  272SOL    HW2  820   5.580   5.807   0.010  0.7189  1.1379  0.1534
  272SOL    HW3  821   5.607   5.888   0.136  1.3357  0.7027  0.3090
  272SOL    MW4  822   5.636   5.847   0.064 -0.2839 -0.3806  0.6596
  273SOL     OW  823   4.129   5.968   0.731  0.2502 -0.0957 -0.4515
  273SOL    HW2  824   4.105   5.963   0.824 -0.4890 -3.2017 -0.6810
  273SOL    HW3  825   4.214   6.010   0.730 -0.1709  0.9229  1.5239
  273SOL    MW4  826   4.137   5.973   0.744 -0.4232 -0.2325  0.6922
  274SOL     OW  827   2.383   2.861   1.096  0.7117 -0.2259 -0.3762
  274SOL    HW2  828   2.449   2.829   1.035  1.0757  0.4346 -0.3361
  274SOL    HW3  829   2.342   2.782   1.131  0.5165 -0.6168 -1.4500
  274SOL    MW4  830   2.386   2.847   1.093 -0.0205 -0.2088  0.3815
  275SOL     OW  831   0.453   3.083   1.813  0.0652  0.3144  0.0104
  275SOL    HW2  832   0.426   3.079   1.721 -1.3815  0.4682  0.4138
  275SOL    HW3  833   0.529   3.141   1.813 -0.0073  0.4327 -1.0607
  275SOL    MW4  834   0.460   3.090   1.801  0.8151  0.0917 -0.0887
  276SOL     OW  835   0.939   5.347   1.744 -0.6374 -0.2556 -0.1809
  276SOL    HW2  836   0.915   5.427   1.698  1.4862  1.4222  1.4301
  276SOL    HW3  837   0.855   5.309   1.772 -1.6894  1.9951 -0.0584
  276SOL    MW4  838   0.925   5.352   1.742 -0.5066  0.0758  0.2491
  277SOL     OW  839   5.902   2.996   4.667 -0.3612 -0.0026  0.2595
  277SOL    HW2  840   5.932   2.906   4.683 -3.6305 -1.2121  0.3709
  277SOL    HW3  841   5.911   3.007   4.572  0.5924 -0.1758  0.3104
  277SOL    MW4  842   5.907   2.985   4.657  0.6508 -0.0095 -0.3098
  278SOL     OW  843   2.225   3.413   0.159 -0.0846  0.4605  0.4988
  278SOL    HW2  844   2.165   3.384   0.227  0.2100 -1.7222 -0.1140
  278SOL    HW3  845   2.306   3.364   0.175  0.7620  1.5966 -0.1037
  278SOL    MW4  846   2.228   3.403   0.170 -0.8080  0.6876  0.3503
  279SOL     OW  847   5.184   5.288   5.862  0.1493  0.1493  0.0996
  279SOL    HW2  848   5.146   5.299   5.949  0.8934  0.2729  0.4158
  279SOL    HW3  849   5.231   5.205   5.867 -1.1245 -0.6550 -0.6857
  279SOL    MW4  850   5.185   5.278   5.874 -0.1893  0.1380 -0.1723
  280SOL     OW  851   5.438   4.060   1.761 -0.1719  0.2300  0.1637
  280SOL    HW2  852   5.488   4.046   1.841  0.3999  0.1082 -0.2118
  280SOL    HW3  853   5.452   3.981   1.709  0.3140  0.7355 -0.5037
  280SOL    MW4  854   5.446   4.048   1.764  0.3571 -0.1315 -0.3020
  281SOL     OW  855   6.367   3.837   1.640 -0.2907  0.1217 -0.1748
  281SOL    HW2  856   6.284   3.857   1.597 -0.8237  4.7927  2.4070
  281SOL    HW3  857   6.344   3.816   1.730  1.2512  2.7384  0.9280
  281SOL    MW4  858   6.353   3.837   1.646  0.1524  0.0373 -0.8615
  282SOL     OW  859   3.874   3.071   1.769  0.1708 -0.1602 -0.1740
  282SOL    HW2  860   3.913   2.984   1.757  0.8590  0.1570 -0.2841
  282SOL    HW3  861   3.788   3.064   1.728  0.5574 -0.5479 -0.9382
  282SOL    MW4  862   3.867   3.058   1.762 -0.7430  0.1875 -0.3312
  283SOL     OW  863   5.427   3.519   4.510  0.3477 -0.3311 -0.3407
  283SOL    HW2  864   5.447   3.596   4.456  2.3597  0.8535  1.9015
  283SOL    HW3  865   5.343   3.539   4.551  1.4318  1.3844  1.2144
  283SOL    MW4  866   5.418   3.532   4.508 -0.4445 -0.2026 -0.0238
  284SOL     OW  867   4.854   0.704   5.212 -0.3527  0.3148  0.3461
  284SOL    HW2  868   4.903   0.688   5.293 -0.5834 -1.1087  0.2409
  284SOL    HW3  869   4.885   0.636   5.152 -0.2239  1.3230 -0.7645
  284SOL    MW4  870   4.865   0.693   5.215  0.4706 -0.0846 -0.4394
  285SOL     OW  871   2.090   0.927   5.200  0.4134  0.1905 -0.3504
  285SOL    HW2  872   2.105   0.947   5.108  0.0952  2.9670  0.0867
  285SOL    HW3  873   2.171   0.953   5.244 -0.2553  1.2042  0.3608
  285SOL    MW4  874   2.103   0.933   5.194 -0.1008  0.2036  0.4533
  286SOL     OW  875   4.030   2.806   5.772 -0.3030 -0.5493 -0.1695
  286SOL    HW2  876   4.055   2.763   5.853 -1.3635 -1.8729 -0.5018
  286SOL    HW3  877   4.111   2.811   5.721  0.4109  0.4736  1.0188
  286SOL    MW4  878   4.044   2.801   5.776  0.3075  0.0407  0.1671
  287SOL     OW  879   2.968   0.576   1.600 -0.6348 -0.4433  0.4468
  287SOL    HW2  880   2.982   0.668   1.623  0.2424 -0.3423 -0.4200
  287SOL    HW3  881   3.018   0.564   1.519 -0.5540 -1.7413  0.6717
  287SOL    MW4  882   2.976   0.586   1.593  0.8906  0.8245  0.0027
  288SOL     OW  883   1.036   0.991   1.345 -0.1002 -0.5431  0.7529
  288SOL    HW2  884   1.117   0.940   1.338 -0.0120 -0.4312  0.9471
  288SOL    HW3  885   1.040   1.030   1.432  0.3758  0.7379  0.1820
  288SOL    MW4  886   1.047   0.989   1.356 -0.0610 -0.1190  0.0651
  289SOL     OW  887   3.403   3.447   1.608  0.2432  0.1080  0.0316
  289SOL    HW2  888   3.481   3.459   1.555  0.2782 -1.8150 -0.4463
  289SOL    HW3  889   3.332   3.434   1.544  0.0127 -0.6895  0.4260
  289SOL    MW4  890   3.404   3.447   1.592 -0.6430  0.3069  0.4044
  290SOL     OW  891   1.585   0.659   1.060 -0.3272 -0.6353  0.4101
  290SOL    HW2  892   1.592   0.645   0.966 -2.2559 -2.3054  0.4284
  290SOL    HW3  893   1.491   0.658   1.077 -0.0168 -0.4122  2.3705
  290SOL    MW4  894   1.573   0.657   1.050  0.7360  0.4114 -0.4142
  291SOL     OW  895   5.057   2.423   1.719  1.0482 -0.0385 -0.4081
  291SOL    HW2  896   5.004   2.383   1.650  1.6843  0.4135 -1.1754
  291SOL    HW3  897   4.997   2.485   1.762 -0.1956 -2.2670  1.3142
  291SOL    MW4  898   5.042   2.426   1.716  0.5994  0.0963  0.3669
  292SOL     OW  899   4.992   1.457   4.050  0.2508  0.1937  0.6697
  292SOL    HW2  900   5.001   1.361   4.054 -2.1923 -0.1464 -0.1437
  292SOL    HW3  901   5.050   1.484   3.979 -0.3434 -0.9484 -0.2897
  292SOL    MW4  902   5.001   1.448   4.041 -0.0618 -0.1825  0.3793
  293SOL     OW  903   4.450   0.214   0.420  0.4384  0.2435  0.1856
  293SOL    HW2  904   4.446   0.286   0.357 -0.0662  0.7353  0.7635
  293SOL    HW3  905   4.540   0.217   0.454  0.1883  1.1786  0.8388
  293SOL    MW4  906   4.461   0.224   0.417 -0.3370 -0.1787 -0.3233
  294SOL     OW  907   3.260   4.173   3.601 -0.0871  0.1663 -0.1162
  294SOL    HW2  908   3.197   4.101   3.602 -0.9962  0.9367 -0.3643
  294SOL    HW3  909   3.229   4.231   3.532  1.3769  0.1644 -0.8110
  294SOL    MW4  910   3.248   4.171   3.592 -0.9714 -0.0254 -0.5703
  295SOL     OW  911   2.220   4.811   2.445  0.0908 -0.4737  0.1951
  295SOL    HW2  912   2.177   4.735   2.404 -0.1569 -0.6996  0.8647
  295SOL    HW3  913   2.273   4.773   2.514  2.3506 -0.3245 -1.3525
  295SOL    MW4  914   2.221   4.796   2.448  0.2519  0.1180 -0.4041
  296SOL     OW  915   1.132   0.362   3.692  0.0300 -0.5420  0.1323
  296SOL    HW2  916   1.207   0.320   3.735 -0.8243 -0.1982  2.0927
  296SOL    HW3  917   1.138   0.454   3.718 -1.1107 -0.5319  0.4278
  296SOL    MW4  918   1.143   0.369   3.701  0.8369 -0.3750  0.2682
  297SOL     OW  919   5.043   0.681   3.240  0.0569  0.4786 -0.1339
  297SOL    HW2  920   5.029   0.753   3.179  2.1984  1.0214 -0.0732
  297SOL    HW3  921   5.054   0.724   3.325 -0.4279 -0.0663  0.2064
  297SOL    MW4  922   5.043   0.696   3.243  0.2485 -0.3250 -0.0452
  298SOL     OW  923   4.872   2.776   4.891  0.1454 -0.4463  0.1294
  298SOL    HW2  924   4.882   2.682   4.880  1.6693 -0.1476 -1.3242
  298SOL    HW3  925   4.868   2.810   4.802  0.8789  0.9857  0.6177
  298SOL    MW4  926   4.872   2.768   4.878  0.2260 -0.1264 -0.0538
  299SOL     OW  927   5.505   0.163   0.667  0.0127 -0.2812  0.5114
  299SOL    HW2  928   5.546   0.242   0.703  0.5530 -0.7026  0.8481
  299SOL    HW3  929   5.466   0.120   0.744  1.0219 -1.1005  0.5860
  299SOL    MW4  930   5.505   0.168   0.682 -0.2376  0.3104  1.0905
  300SOL     OW  931   0.997   3.040   2.925 -1.0413  0.0819 -0.3692
  300SOL    HW2  932   1.058   3.092   2.872 -0.4071 -1.5447 -1.3116
  300SOL    HW3  933   0.998   3.082   3.011  0.1015  1.1134 -0.8584
  300SOL    MW4  934   1.005   3.052   2.929 -0.1194 -0.6931 -0.2774
  301SOL     OW  935   1.512   3.806   5.602 -0.2344  0.3588  0.0286
  301SOL    HW2  936   1.512   3.716   5.569  2.0493 -0.1181  1.1343
  301SOL    HW3  937   1.419   3.828   5.611 -0.8931 -2.5808  1.5552
  301SOL    MW4  938   1.499   3.797   5.599  0.1462 -0.4154  0.1561
  302SOL     OW  939   5.623   3.683   0.497 -0.3587 -0.4574  0.1565
  302SOL    HW2  940   5.582   3.769   0.482 -1.8202 -1.0949  0.3298
  302SOL    HW3  941   5.702   3.684   0.444 -0.1089  1.1729  0.5048
  302SOL    MW4  942   5.628   3.695   0.488 -0.4408  0.0540 -0.3467
  303SOL     OW  943   5.364   2.657   4.369 -0.2182  0.1414  0.4338
  303SOL    HW2  944   5.359   2.680   4.277 -1.6841  0.6067  0.6102
  303SOL    HW3  945   5.457   2.662   4.390  0.1177  0.1476 -0.9816
  303SOL    MW4  946   5.376   2.660   4.360  0.6247 -0.3069  0.2644
  304SOL     OW  947   3.721   5.700   3.307 -0.0969 -0.1943 -0.5992
  304SOL    HW2  948   3.757   5.760   3.372  1.5769 -0.8457 -0.8952
  304SOL    HW3  949   3.642   5.664   3.350 -0.2339  0.9907  0.1951
  304SOL    MW4  950   3.715   5.703   3.321  0.3852 -0.0827 -0.4131
  305SOL     OW  951   3.136   5.368   2.233  0.1427 -0.0478 -0.4845
  305SOL    HW2  952   3.155   5.346   2.324 -0.1353 -0.1204 -0.4435
  305SOL    HW3  953   3.190   5.445   2.215 -1.3476  1.2529  0.3776
  305SOL    MW4  954   3.145   5.376   2.242 -0.5449  0.9920 -0.1415
  306SOL     OW  955   6.095   3.786   0.032  0.1213  0.2937  0.8242
  306SOL    HW2  956   6.174   3.817  -0.012  0.5701  1.4374  2.3410
  306SOL    HW3  957   6.026   3.846   0.004 -0.8154 -1.9687 -2.2130
  306SOL    MW4  958   6.096   3.798   0.023  0.5737  0.7000  0.0181
  307SOL     OW  959   5.932   2.950   2.965 -0.5501 -0.0980  0.1668
  307SOL    HW2  960   5.965   2.862   2.945  1.4968  0.2828  1.5211
  307SOL    HW3  961   5.895   2.981   2.882  1.0573 -1.2506 -1.0470
  307SOL    MW4  962   5.932   2.943   2.951 -0.5451  0.3984  0.6887
  308SOL     OW  963   3.738   3.225   5.014 -0.4822 -0.1096 -0.2051
  308SOL    HW2  964   3.796   3.149   5.005 -1.3491 -0.6968 -0.9856
  308SOL    HW3  965   3.795   3.299   4.992  0.8624 -0.2900  2.3342
  308SOL    MW4  966   3.753   3.225   5.010 -0.6855 -0.3004 -0.0797
  309SOL     OW  967   4.991   3.603   3.103 -0.2831 -0.3517 -0.4902
  309SOL    HW2  968   4.909   3.651   3.115 -1.4712 -1.7325 -2.4269
  309SOL    HW3  969   4.964   3.519   3.066  2.0699 -0.2106 -2.8220
  309SOL    MW4  970   4.976   3.599   3.099 -0.6597  0.1024 -0.1097
  310SOL     OW  971   3.989   3.086   3.372 -0.3314 -0.0653 -0.6852
  310SOL    HW2  972   3.974   3.096   3.278 -3.9469 -0.1114 -0.2433
  310SOL    HW3  973   4.026   3.170   3.399 -1.2591  0.7338 -1.8183
  310SOL    MW4  974   3.992   3.098   3.363  0.0999  0.2629 -0.1409
  311SOL     OW  975   4.629   5.393   1.110 -0.4937  0.9706 -0.0613
  311SOL    HW2  976   4.569   5.464   1.134 -0.8745  0.7183 -0.2473
  311SOL    HW3  977   4.651   5.351   1.193 -0.8336  0.8665 -0.0217
  311SOL    MW4  978   4.624   5.397   1.124  0.1109  0.2803  0.1219
  312SOL     OW  979   4.005   2.436   4.372  0.5577 -0.5954  0.4434
  312SOL    HW2  980   4.082   2.433   4.429  0.6976 -0.9934  0.2371
  312SOL    HW3  981   4.030   2.386   4.295 -0.2374 -1.5512  0.7864
  312SOL    MW4  982   4.018   2.429   4.369 -0.1747  0.0446  0.8021
  313SOL     OW  983   3.336   3.672   5.104 -0.2716  0.7229 -0.1710
  313SOL    HW2  984   3.297   3.624   5.177  1.4616  1.2176  1.1612
  313SOL    HW3  985   3.409   3.616   5.075  0.9910  1.8935  0.5853
  313SOL    MW4  986   3.341   3.658   5.110  0.2965 -0.2004 -0.6978
  314SOL     OW  987   3.757   3.687   2.100  0.9836 -0.2122 -0.1328
  314SOL    HW2  988   3.769   3.605   2.053  1.0811 -0.7879  0.8593
  314SOL    HW3  989   3.844   3.707   2.135  1.1535  0.7753 -1.0755
  314SOL    MW4  990   3.770   3.679   2.099 -0.6195 -0.3987 -0.4702
  315SOL     OW  991   0.282   6.088   2.628  0.2070 -0.0011  0.1194
  315SOL    HW2  992   0.245   6.003   2.654  0.9884 -0.1762  0.7132
  315SOL    HW3  993   0.277   6.088   2.533  1.1699 -1.1841  0.0392
  315SOL    MW4  994   0.276   6.077   2.619  0.2867 -0.0514  0.2295
  316SOL     OW  995   3.428   6.050   0.667 -0.0150 -0.3869  0.5596
  316SOL    HW2  996   3.352   6.043   0.608 -0.3278  0.6888  0.8118
  316SOL    HW3  997   3.392   6.089   0.747  0.3337 -2.1388  1.6149
  316SOL    MW4  998   3.413   6.054   0.670 -0.0178  0.3179  0.2254
  317SOL     OW  999   5.570   1.141   2.890  0.6300 -0.7953  0.2181
  317SOL    HW2 1000   5.555   1.181   2.804  3.0915  1.3648  0.6405
  317SOL    HW3 1001   5.540   1.051   2.881  0.2504 -0.4627 -2.7127
  317SOL    MW4 1002   5.564   1.135   2.878  0.1321  0.1804  0.5941
  318SOL     OW 1003   1.439   3.676   3.327  0.3861 -0.5369 -0.3803
  318SOL    HW2 1004   1.463   3.722   3.247 -0.1896 -2.0551 -1.4763
  318SOL    HW3 1005   1.523   3.643   3.361  1.1544  3.0096  1.6551
  318SOL    MW4 1006   1.454   3.678   3.321 -0.1774  0.5333 -0.0403
  319SOL     OW 1007   5.576   0.499   2.803 -0.6118 -0.3033 -0.1207
  319SOL    HW2 1008   5.484   0.523   2.817 -0.0556  0.5794  2.8444
  319SOL    HW3 1009   5.576   0.403   2.801 -1.3687 -0.4995  3.1359
  319SOL    MW4 1010   5.564   0.490   2.805 -0.2165 -0.2554  0.3249
  320SOL     OW 1011   4.240   3.379   0.130 -0.0890  0.2186  0.2888
  320SOL    HW2 1012   4.189   3.302   0.154 -1.0621  0.3056 -1.3322
  320SOL    HW3 1013   4.229   3.387   0.035  0.9791  1.6582  0.2424
  320SOL    MW4 1014   4.232   3.370   0.121 -0.0603  0.0713  0.0803
  321SOL     OW 1015   1.819   4.394   4.972 -0.9580 -0.1131 -0.3751
  321SOL    HW2 1016   1.753   4.341   4.929 -0.2877 -1.0691 -0.2445
  321SOL    HW3 1017   1.834   4.350   5.056 -0.7156  0.5311 -0.0726
  321SOL    MW4 1018   1.813   4.381   4.978 -0.0516 -0.2354  0.8270
  322SOL     OW 1019   5.630   1.201   6.234  0.3122  0.1419  0.2995
  322SOL    HW2 1020   5.649   1.109   6.253  0.9039  0.8327  3.6098
  322SOL    HW3 1021   5.560   1.224   6.295  1.0409  2.1957  0.4438
  322SOL    MW4 1022   5.623   1.192   6.245 -0.1793  0.2750  0.0833
  323SOL     OW 1023   4.001   5.672   6.053 -0.2352 -0.0011  0.0459
  323SOL    HW2 1024   4.051   5.593   6.074  0.5183  0.5407  0.3554
  323SOL    HW3 1025   3.910   5.644   6.053  0.0241 -0.8682  0.1540
  323SOL    MW4 1026   3.996   5.658   6.056  0.3049 -0.0965 -0.3052
  324SOL     OW 1027   1.323   4.420   6.091 -0.6977 -0.5236 -0.2891
  324SOL    HW2 1028   1.363   4.459   6.169 -1.2409 -0.7286  0.0942
  324SOL    HW3 1029   1.294   4.333   6.120 -0.5221 -0.7674 -0.8345
  324SOL    MW4 1030   1.325   4.414   6.106  0.2506 -0.4453 -0.1639
  325SOL     OW 1031   1.568   2.531   2.307  0.1701  0.3921 -0.0219
  325SOL    HW2 1032   1.488   2.485   2.282 -0.3384  0.9539  0.5255
  325SOL    HW3 1033   1.595   2.490   2.389  0.1852  0.5112  0.0330
  325SOL    MW4 1034   1.561   2.520   2.314  0.3015  0.1408  0.3405
  326SOL     OW 1035   6.121   3.983   1.067 -0.1249 -0.1939 -0.2337
  326SOL    HW2 1036   6.084   4.070   1.081  0.2548  0.0433 -0.6832
  326SOL    HW3 1037   6.182   3.971   1.139 -1.8201 -1.0304  1.1544
  326SOL    MW4 1038   6.124   3.993   1.078  0.1212  0.2052  0.1998
  327SOL     OW 1039   5.737   6.289   0.695  0.4281  0.2429  0.4630
  327SOL    HW2 1040   5.804   6.301   0.762  0.2204  1.7551  0.4283
  327SOL    HW3 1041   5.764   6.348   0.624 -0.1803 -0.1934 -0.1357
  327SOL    MW4 1042   5.750   6.298   0.694  0.0501  0.4411 -0.0852
  328SOL     OW 1043   2.932   4.066   0.403  0.0693  0.0486  0.0149
  328SOL    HW2 1044   2.936   4.147   0.352  0.8731  1.1677  1.7637
  328SOL    HW3 1045   3.023   4.042   0.417 -0.0907  0.3293  1.7273
  328SOL    MW4 1046   2.944   4.073   0.398 -0.3730  0.1459  0.2069
  329SOL     OW 1047   5.371   2.951   1.090 -0.6064 -0.0060  0.6308
  329SOL    HW2 1048   5.346   2.905   1.009  0.5073  0.1723  0.1609
  329SOL    HW3 1049   5.399   2.882   1.149  1.6543  0.0132 -0.2860
  329SOL    MW4 1050   5.372   2.936   1.087  0.6129  0.2823  0.1990
  330SOL     OW 1051   3.602   5.297   1.138  0.4028  0.3842  0.2850
  330SOL    HW2 1052   3.539   5.326   1.204  1.2466 -1.2343  1.8933
  330SOL    HW3 1053   3.578   5.206   1.120  0.7794  0.5118 -0.9456
  330SOL    MW4 1054   3.590   5.289   1.144 -0.0593 -0.0498  0.3986
  331SOL     OW 1055   2.156   6.057   1.615 -0.1419 -0.0252 -0.1008
  331SOL    HW2 1056   2.163   6.150   1.638  1.1552 -0.2090  0.3873
  331SOL    HW3 1057   2.246   6.024   1.624 -0.7612 -1.5673  0.7999
  331SOL    MW4 1058   2.169   6.065   1.619 -0.3248 -0.2336 -0.6610
  332SOL     OW 1059   4.875   5.904   3.065  0.3320 -0.9807  0.8860
  332SOL    HW2 1060   4.827   5.973   3.110  0.0060 -0.6787  0.0981
  332SOL    HW3 1061   4.905   5.945   2.983  0.4806 -1.6500  0.5994
  332SOL    MW4 1062   4.872   5.919   3.060 -0.1396 -0.2689  0.8632
  333SOL     OW 1063   3.332   0.157   4.656  0.2803 -0.3326 -0.1082
  333SOL    HW2 1064   3.361   0.247   4.671  0.3216 -0.1769 -1.0614
  333SOL    HW3 1065   3.338   0.145   4.561  1.0849 -1.6235  0.0780
  333SOL    MW4 1066   3.336   0.167   4.645 -0.3077 -0.8466 -0.4224
  334SOL     OW 1067   2.941   0.573   5.163  0.1879  0.0743  0.0409
  334SOL    HW2 1068   3.002   0.504   5.140  0.0428 -0.2303  0.5558
  334SOL    HW3 1069   2.917   0.555   5.254 -0.9107  0.0114 -0.2498
  334SOL    MW4 1070   2.946   0.562   5.172 -0.2875  0.0535 -0.6722
  335SOL     OW 1071   2.944   2.117   0.944 -0.1075 -0.5024 -0.4290
  335SOL    HW2 1072   3.009   2.129   1.013 -2.5463 -0.1953  1.9620
  335SOL    HW3 1073   2.954   2.026   0.916  0.2874 -0.9258  1.0276
  335SOL    MW4 1074   2.954   2.107   0.949 -0.2964  0.2879  0.0139
  336SOL     OW 1075   5.139   3.043   3.879 -0.2055  0.0223 -0.3890
  336SOL    HW2 1076   5.117   3.054   3.972 -1.0910  0.7837 -0.6750
  336SOL    HW3 1077   5.161   2.950   3.870 -1.7460 -0.4340  0.2552
  336SOL    MW4 1078   5.139   3.032   3.890  0.1355 -0.4355  0.3460
  337SOL     OW 1079   1.813   2.752   5.075 -0.6501 -0.5353 -0.0460
  337SOL    HW2 1080   1.843   2.841   5.091  0.6660 -0.7962 -0.8786
  337SOL    HW3 1081   1.747   2.760   5.007  1.4386 -0.3935 -2.1645
  337SOL    MW4 1082   1.808   2.765   5.068  0.6214 -0.2450  0.3833
  338SOL     OW 1083   5.196   2.550   4.631 -0.8218  0.0226  0.0878
  338SOL    HW2 1084   5.192   2.482   4.699  0.2328  0.3002  0.4557
  338SOL    HW3 1085   5.273   2.526   4.579 -0.7833  0.6139 -0.1268
  338SOL    MW4 1086   5.206   2.538   4.633 -0.3174  0.0475  0.1102
  339SOL     OW 1087   0.781   4.736   6.072 -0.6785  0.3959  0.4105
  339SOL    HW2 1088   0.815   4.824   6.056 -0.0842 -0.1109 -1.3751
  339SOL    HW3 1089   0.687   4.743   6.052 -0.2170  0.1270 -2.3510
  339SOL    MW4 1090   0.773   4.749   6.067 -0.4756  0.5543 -0.2380
  340SOL     OW 1091   5.721   3.387   2.850  0.1129 -0.2895  0.1599
  340SOL    HW2 1092   5.781   3.415   2.919 -1.2891  0.1956  1.2345
  340SOL    HW3 1093   5.758   3.422   2.769  0.0575  2.0630  1.0834
  340SOL    MW4 1094   5.734   3.396   2.848 -0.0390 -0.3287 -0.0555
  341SOL     OW 1095   5.785   3.114   2.763 -0.1021 -0.1765  0.3742
  341SOL    HW2 1096   5.875   3.139   2.742 -0.5661  0.7833 -0.5068
  341SOL    HW3 1097   5.747   3.191   2.804 -1.1640  0.1879 -1.2187
  341SOL    MW4 1098   5.792   3.127   2.766  0.4384 -0.0884  0.5169
  342SOL     OW 1099   4.587   2.991   2.854  0.8413 -0.5125  0.2030
  342SOL    HW2 1100   4.654   3.036   2.802 -0.0617  1.1647  0.4172
  342SOL    HW3 1101   4.517   2.971   2.792  1.0593 -1.2528  0.1930
  342SOL    MW4 1102   4.587   2.995   2.839  0.3327  0.0842  0.1915
  343SOL     OW 1103   2.723   3.735   5.131 -0.0331  0.4070 -0.0207
  343SOL    HW2 1104   2.708   3.737   5.225 -1.1562  1.0501 -0.2054
  343SOL    HW3 1105   2.690   3.650   5.103 -2.8547  1.4870 -0.3011
  343SOL    MW4 1106   2.717   3.724   5.139 -0.1192  0.0321  0.2410
  344SOL     OW 1107   0.858   1.964   4.231 -0.0103  0.0412  0.3222
  344SOL    HW2 1108   0.818   1.914   4.160 -0.5708  0.0451  0.6213
  344SOL    HW3 1109   0.785   2.013   4.269  0.5413  1.1601 -0.0194
  344SOL    MW4 1110   0.843   1.964   4.227  0.2382 -0.4178  0.1598
  345SOL     OW 1111   2.988   2.090   2.302  0.9706 -0.3365  0.2242
  345SOL    HW2 1112   2.922   2.070   2.236  0.8252 -0.3866  0.3827
  345SOL    HW3 1113   3.049   2.017   2.297  0.6571 -0.6227  0.5269
  345SOL    MW4 1114   2.987   2.078   2.293  0.0047 -0.2734 -0.2533
  346SOL     OW 1115   4.564   0.277   1.165  0.1670  0.3767  0.6123
  346SOL    HW2 1116   4.497   0.292   1.098 -1.1440  0.4684  1.9037
  346SOL    HW3 1117   4.627   0.348   1.152 -0.4800  0.8559 -0.0016
  346SOL    MW4 1118   4.564   0.288   1.154  0.5209  0.0241 -0.1549
  347SOL     OW 1119   0.385   1.647   6.265 -0.6171 -0.4862  0.1320
  347SOL    HW2 1120   0.355   1.677   6.180  1.3394 -0.6682 -0.6767
  347SOL    HW3 1121   0.444   1.574   6.245 -0.6983 -1.0247  1.6935
  347SOL    MW4 1122   0.389   1.641   6.251  0.1791 -0.7951 -0.1625
  348SOL     OW 1123   2.499   6.256   4.793  0.3660  0.1737  0.1477
  348SOL    HW2 1124   2.429   6.266   4.728  1.2160  0.2118 -0.7766
  348SOL    HW3 1125   2.560   6.327   4.773  2.1623 -1.6091 -0.9750
  348SOL    MW4 1126   2.498   6.267   4.782  0.5449 -0.6368  0.2778
  349SOL     OW 1127   5.286   0.448   6.407 -0.2782  0.0253  0.1843
  349SOL    HW2 1128   5.335   0.466   6.327 -0.1615 -0.2372  0.1932
  349SOL    HW3 1129   5.208   0.502   6.401 -1.0595 -1.1800 -0.8703
  349SOL    MW4 1130   5.282   0.457   6.396 -0.0412  0.3663  0.0873
  350SOL     OW 1131   4.852   3.550   5.488  0.3234  0.0624  0.1144
  350SOL    HW2 1132   4.758   3.543   5.504 -0.1483  1.3580 -1.7514
  350SOL    HW3 1133   4.890   3.569   5.573 -1.1855  0.1159  0.7972
  350SOL    MW4 1134   4.845   3.552   5.501  0.2935 -0.0192 -0.5615
  351SOL     OW 1135   1.557   3.051   3.721 -0.6501 -0.4869 -0.5165
  351SOL    HW2 1136   1.590   3.004   3.798 -0.1786  1.7488  0.7278
  351SOL    HW3 1137   1.464   3.061   3.737 -0.3950  0.8451  0.3215
  351SOL    MW4 1138   1.549   3.046   3.734  0.2485 -0.3233  0.9883
  352SOL     OW 1139   0.146   1.986   2.152  0.0961 -0.5561 -0.2607
  352SOL    HW2 1140   0.071   2.021   2.201  0.6461 -1.0273  0.9380
  352SOL    HW3 1141   0.221   2.035   2.183  0.5008 -1.0587 -0.4306
  352SOL    MW4 1142   0.146   1.997   2.162  0.1807  0.2368  0.2457
  353SOL     OW 1143   3.456   5.077   4.511 -0.4361  0.1510  0.1833
  353SOL    HW2 1144   3.459   4.984   4.532 -1.3508  0.1561  0.4178
  353SOL    HW3 1145   3.546   5.101   4.491 -0.5420 -1.3642 -2.5267
  353SOL    MW4 1146   3.468   5.068   4.511  0.1053  0.0241  0.0349
  354SOL     OW 1147   5.720   1.085   3.159 -0.4872 -0.1028 -0.8939
  354SOL    HW2 1148   5.802   1.080   3.208 -0.8265  1.6325 -0.0979
  354SOL    HW3 1149   5.702   0.994   3.135  1.6762 -0.5257 -1.1391
  354SOL    MW4 1150   5.729   1.072   3.162  0.2065 -0.0301 -0.3397
  355SOL     OW 1151   1.288   0.073   0.323 -0.0735  0.1385  0.2139
  355SOL    HW2 1152   1.324   0.153   0.284 -0.0510 -0.7544 -1.7057
  355SOL    HW3 1153   1.363   0.029   0.361  0.7193 -0.9233 -2.3561
  355SOL    MW4 1154   1.302   0.078   0.323 -0.1964  0.4049 -0.9197
  356SOL     OW 1155   5.209   1.468   2.478  0.0653  0.4319  0.3902
  356SOL    HW2 1156   5.280   1.531   2.464  0.0397  0.6948  1.3890
  356SOL    HW3 1157   5.179   1.446   2.390 -1.4272  3.4933 -0.0061
  356SOL    MW4 1158   5.214   1.473   2.465  0.3830 -0.2331 -0.1937
  357SOL     OW 1159   2.693   3.807   2.888  0.5166  0.2298  0.1012
  357SOL    HW2 1160   2.715   3.813   2.980  0.9382  1.7864 -0.0763
  357SOL    HW3 1161   2.722   3.890   2.850 -0.8409  0.1705 -1.1760
  357SOL    MW4 1162   2.700   3.819   2.895  0.0786 -0.1470  0.3846
  358SOL     OW 1163   4.040   2.488   6.311 -0.4490 -0.1274  0.1849
  358SOL    HW2 1164   3.986   2.556   6.270 -1.5747 -0.8778  0.3806
  358SOL    HW3 1165   3.977   2.428   6.350  0.5489 -0.8989  0.6421
  358SOL    MW4 1166   4.025   2.489   6.310 -0.4097 -0.4580 -0.2367
  359SOL     OW 1167   0.993   4.144   0.670  0.0913  0.1942  0.5434
  359SOL    HW2 1168   0.991   4.170   0.762 -1.3862  2.7249 -0.1040
  359SOL    HW3 1169   0.901   4.143   0.643  0.5723  2.8357 -1.6595
  359SOL    MW4 1170   0.981   4.147   0.678  0.6890 -0.1004  0.3217
  360SOL     OW 1171   0.883   1.776   0.239  0.4651  0.0104  0.1391
  360SOL    HW2 1172   0.925   1.690   0.229  0.0501 -0.2993  0.9947
  360SOL    HW3 1173   0.932   1.833   0.179 -0.2983 -1.1674 -1.7123
  360SOL    MW4 1174   0.895   1.772   0.230 -0.2672 -0.1787 -0.2055
  361SOL     OW 1175   4.449   5.357   4.590  0.1796 -0.1064 -0.1550
  361SOL    HW2 1176   4.387   5.348   4.518  0.0888 -1.8905  0.0967
  361SOL    HW3 1177   4.456   5.451   4.604 -0.7091  0.2224 -1.6983
  361SOL    MW4 1178   4.441   5.368   4.583  0.3474  0.0346  0.3856
  362SOL     OW 1179   1.202   4.969   4.079 -0.0235 -0.1840  0.5843
  362SOL    HW2 1180   1.181   4.936   3.992 -1.4129 -0.1072  0.8755
  362SOL    HW3 1181   1.165   5.058   4.080  0.7931  0.1614  0.9439
  362SOL    MW4 1182   1.195   4.977   4.068  0.0844 -0.5178  0.2139
  363SOL     OW 1183   1.372   0.507   5.489 -0.1654 -0.5268  0.3563
  363SOL    HW2 1184   1.318   0.585   5.472  0.1662 -0.3180  0.2436
  363SOL    HW3 1185   1.332   0.438   5.436  0.5432 -0.0058 -0.9193
  363SOL    MW4 1186   1.360   0.508   5.480  0.2810 -0.2252  0.1837
  364SOL     OW 1187   1.363   5.752   2.199 -0.2093  0.1368 -0.0773
  364SOL    HW2 1188   1.287   5.764   2.143  0.3637 -0.7654 -1.0792
  364SOL    HW3 1189   1.438   5.756   2.139  0.4484 -0.3407  0.6941
  364SOL    MW4 1190   1.363   5.754   2.184 -0.3982 -0.0846 -0.1296
  365SOL     OW 1191   0.727   2.119   1.222 -0.1844  0.2479 -0.5643
  365SOL    HW2 1192   0.764   2.100   1.308 -2.0458 -2.1051 -0.2036
  365SOL    HW3 1193   0.804   2.130   1.166  1.0603  0.0729  1.0125
  365SOL    MW4 1194   0.742   2.118   1.226  0.2952 -0.0165  0.6426
  366SOL     OW 1195   5.327   2.097   0.886  0.1199  0.5576  0.1963
  366SOL    HW2 1196   5.388   2.131   0.952  0.6818  0.0177 -0.0365
  366SOL    HW3 1197   5.315   2.005   0.910  1.7436 -0.1567 -1.4559
  366SOL    MW4 1198   5.333   2.089   0.898  0.3341 -0.6154  0.0238
  367SOL     OW 1199   0.362   3.937   5.462  0.4368  0.2990 -0.4971
  367SOL    HW2 1200   0.311   3.938   5.381  0.0655  0.3938 -0.2657
  367SOL    HW3 1201   0.434   3.877   5.445 -1.1034 -1.7983 -0.0258
  367SOL    MW4 1202   0.365   3.929   5.449  0.0566 -0.1401  0.1828
  368SOL     OW 1203   3.868   1.867   0.762  0.2801  0.1163 -0.4147
  368SOL    HW2 1204   3.856   1.928   0.835 -3.1177 -1.0480  0.1862
  368SOL    HW3 1205   3.812   1.901   0.692 -1.0998 -1.7829 -0.3193
  368SOL    MW4 1206   3.859   1.879   0.763 -0.2673  0.0997 -0.2069
  369SOL     OW 1207   4.797   3.871   1.017 -0.3437 -0.4931 -0.2235
  369SOL    HW2 1208   4.851   3.796   1.043 -0.1886  0.0969  1.2635
  369SOL    HW3 1209   4.707   3.842   1.032 -0.2922 -0.4375  0.1991
  369SOL    MW4 1210   4.793   3.857   1.022  0.8793 -0.1554  0.3241
  370SOL     OW 1211   5.140   6.160   1.976  0.4882 -0.1565  0.2198
  370SOL    HW2 1212   5.117   6.088   1.918  1.1272  0.7971 -1.2553
  370SOL    HW3 1213   5.069   6.162   2.041 -1.0206 -0.3200 -1.3671
  370SOL    MW4 1214   5.128   6.151   1.977  0.1279  0.1966  0.3198
  371SOL     OW 1215   0.032   0.775   4.778 -0.3474 -0.0331 -0.1765
  371SOL    HW2 1216   0.064   0.839   4.841 -0.0006 -1.9175  1.6608
  371SOL    HW3 1217   0.099   0.706   4.777 -0.5631 -0.2976 -2.2945
  371SOL    MW4 1218   0.045   0.774   4.786  0.4975  0.4668  0.1810
  372SOL     OW 1219   0.407   6.273   1.960  0.2587  0.1605 -0.6113
  372SOL    HW2 1220   0.440   6.319   2.037 -0.7248  0.6958 -0.4882
  372SOL    HW3 1221   0.328   6.322   1.935 -1.3081 -1.9298  0.0265
  372SOL    MW4 1222   0.401   6.286   1.967  0.5977  1.0497  0.1967
  373SOL     OW 1223   3.265   2.832   5.264  0.0893  0.2803  0.1444
  373SOL    HW2 1224   3.242   2.910   5.314 -0.4746 -1.4321  2.7953
  373SOL    HW3 1225   3.189   2.775   5.272  0.7773 -0.8490 -1.0443
  373SOL    MW4 1226   3.252   2.835   5.272 -0.6257 -0.0782  0.2688
  374SOL     OW 1227   0.448   5.673   0.313  0.0919  0.4839 -0.4614
  374SOL    HW2 1228   0.516   5.663   0.246  0.2474  2.5504 -0.6592
  374SOL    HW3 1229   0.449   5.589   0.360  2.0499  0.0757 -1.1277
  374SOL    MW4 1230   0.457   5.661   0.310 -0.6549 -0.4203  0.5812
  375SOL     OW 1231   1.471   4.700   4.220 -0.6295  0.2128  0.0959
  375SOL    HW2 1232   1.533   4.638   4.258 -0.2759  0.7310  0.3723
  375SOL    HW3 1233   1.475   4.684   4.126 -1.0236 -0.6292  0.2134
  375SOL    MW4 1234   1.479   4.690   4.213  0.2500  0.1662 -0.4540
  376SOL     OW 1235   2.034   1.789   2.617 -0.2950 -1.1308  0.3865
  376SOL    HW2 1236   2.073   1.741   2.690 -1.4762 -1.1686  1.0291
  376SOL    HW3 1237   2.089   1.768   2.542  1.9126  0.1610  1.5306
  376SOL    MW4 1238   2.046   1.780   2.617 -0.3929 -0.1289  0.0648
  377SOL     OW 1239   3.452   1.317   1.754 -0.4452  0.8908  0.7196
  377SOL    HW2 1240   3.380   1.324   1.816 -0.4705  0.4930  0.7403
  377SOL    HW3 1241   3.426   1.246   1.696  0.7766 -0.6114  1.9037
  377SOL    MW4 1242   3.439   1.308   1.755 -0.2802 -0.2094  0.2323
  378SOL     OW 1243   2.818   1.901   4.931  0.1763  0.2623 -0.3086
  378SOL    HW2 1244   2.764   1.905   5.010 -0.3577 -1.8833 -0.4860
  378SOL    HW3 1245   2.755   1.902   4.859  0.5570  0.6794 -0.6369
  378SOL    MW4 1246   2.803   1.901   4.932 -0.3241 -0.0189 -0.3519
  379SOL     OW 1247   2.182   5.372   3.985  0.0909  0.4223  0.0508
  379SOL    HW2 1248   2.189   5.294   3.929  0.9346  0.5115  0.0306
  379SOL    HW3 1249   2.271   5.390   4.014 -0.1189  1.2911  0.1925
  379SOL    MW4 1250   2.194   5.364   3.982 -0.2902 -0.1222 -0.1891
  380SOL     OW 1251   1.337   4.260   2.198  0.1558 -0.0432 -0.2968
  380SOL    HW2 1252   1.254   4.242   2.242 -0.1705  0.8979 -0.5139
  380SOL    HW3 1253   1.317   4.248   2.105  0.7924 -1.8357 -0.2424
  380SOL    MW4 1254   1.323   4.256   2.191 -0.0321  0.2643  0.1827
  381SOL     OW 1255   1.798   1.705   5.285  0.5055  0.3277  0.0901
  381SOL    HW2 1256   1.845   1.788   5.285 -1.4107  1.4668 -0.5220
  381SOL    HW3 1257   1.770   1.693   5.376  0.4884  0.5379  0.1135
  381SOL    MW4 1258   1.800   1.714   5.297 -0.8334  0.3239 -0.3771
  382SOL     OW 1259   5.290   3.545   2.749 -0.8496  0.6190  0.1535
  382SOL    HW2 1260   5.345   3.607   2.701  2.2528 -2.6299 -0.8970
  382SOL    HW3 1261   5.295   3.574   2.840  0.9145  1.6467 -0.2262
  382SOL    MW4 1262   5.298   3.557   2.755 -0.4275 -0.2692 -0.1376
  383SOL     OW 1263   1.490   3.042   2.124  0.1352  0.1895  0.2795
  383SOL    HW2 1264   1.448   3.028   2.039 -0.8028  1.1536  0.5620
  383SOL    HW3 1265   1.550   2.968   2.134 -0.0697 -0.1714 -1.0157
  383SOL    MW4 1266   1.492   3.030   2.114  0.1134 -0.2570  0.4136
  384SOL     OW 1267   4.980   3.982   1.597 -0.2932 -1.0866 -0.2403
  384SOL    HW2 1268   4.978   4.060   1.541  0.2060 -0.8555  0.0557
  384SOL    HW3 1269   5.043   4.004   1.666 -0.0235 -1.8166 -0.2462
  384SOL    MW4 1270   4.988   3.995   1.599 -0.0468 -0.1535  0.1728
  385SOL     OW 1271   0.759   1.207   1.642 -0.0226 -0.3169  0.2193
  385SOL    HW2 1272   0.688   1.265   1.668 -0.7810 -1.0145 -0.2420
  385SOL    HW3 1273   0.761   1.213   1.546  1.2957  0.5555  0.2698
  385SOL    MW4 1274   0.750   1.215   1.633  0.2338 -0.1569 -0.4336
  386SOL     OW 1275   4.648   0.066   0.231  0.4439 -0.5417 -0.3201
  386SOL    HW2 1276   4.644   0.147   0.180  0.8459 -0.0256  0.4506
  386SOL    HW3 1277   4.567   0.065   0.282  1.6984  0.8980  1.8771
  386SOL    MW4 1278   4.637   0.077   0.231  0.4412 -0.3418  0.1994
  387SOL     OW 1279   1.146   6.325   1.499 -0.1170 -0.1419  0.1755
  387SOL    HW2 1280   1.209   6.256   1.519 -1.1375 -0.9672  0.5979
  387SOL    HW3 1281   1.144   6.380   1.577 -0.2120 -0.3387  0.3112
  387SOL    MW4 1282   1.154   6.323   1.512 -0.2211  0.0570 -0.3257
  388SOL     OW 1283   0.987   1.830   3.061 -0.2874  0.1595  1.0150
  388SOL    HW2 1284   0.927   1.842   3.136 -1.2007  2.1760  0.0590
  388SOL    HW3 1285   0.931   1.797   2.991  0.2715 -0.3675  0.8128
  388SOL    MW4 1286   0.972   1.828   3.062 -0.2003  0.5470  0.3897
  389SOL     OW 1287   5.041   5.475   2.344  0.0992 -0.2565 -0.4015
  389SOL    HW2 1288   5.033   5.464   2.438  0.8170  1.5879 -0.0836
  389SOL    HW3 1289   5.133   5.500   2.330 -0.2321  0.4483 -1.4768
  389SOL    MW4 1290   5.052   5.476   2.354 -0.0138 -0.7140 -0.0467
  390SOL     OW 1291   4.091   0.124   4.837 -0.1144 -0.3577 -0.4896
  390SOL    HW2 1292   4.038   0.080   4.771  0.3693 -2.7098  0.5744
  390SOL    HW3 1293   4.154   0.058   4.865 -0.4582  0.4033  2.4842
  390SOL    MW4 1294   4.092   0.109   4.832 -0.0710 -0.3434 -0.2457
  391SOL     OW 1295   6.152   1.491   1.200  0.2644 -0.3526 -0.7262
  391SOL    HW2 1296   6.183   1.537   1.121  1.9707  2.6626  1.4889
  391SOL    HW3 1297   6.227   1.437   1.226  0.2306 -0.2390 -0.3951
  391SOL    MW4 1298   6.166   1.490   1.193 -0.8777  0.2045 -0.1617
  392SOL     OW 1299   3.412   3.323   4.268  0.5596 -0.3144  0.2354
  392SOL    HW2 1300   3.326   3.335   4.230  0.4547  1.4753  0.9276
  392SOL    HW3 1301   3.452   3.253   4.216 -0.4376  0.4082 -1.5851
  392SOL    MW4 1302   3.406   3.315   4.256  0.3961  0.3287 -0.1300
  393SOL     OW 1303   2.492   2.722   3.609  0.2571 -0.4358 -0.1333
  393SOL    HW2 1304   2.459   2.786   3.672  0.5847 -0.7369  0.3530
  393SOL    HW3 1305   2.536   2.656   3.663  0.1107 -0.9556 -0.6434
  393SOL    MW4 1306   2.494   2.722   3.625  0.1799  0.3043 -0.2110
  394SOL     OW 1307   3.726   3.060   3.459  0.7867 -0.1816 -0.4199
  394SOL    HW2 1308   3.729   2.998   3.532 -0.9064 -0.0892 -0.2366
  394SOL    HW3 1309   3.817   3.088   3.447  0.7963  2.4587  3.9047
  394SOL    MW4 1310   3.738   3.055   3.467  0.8287  0.2172  0.7397
  395SOL     OW 1311   0.794   4.024   0.991  0.1704  0.6344  0.0754
  395SOL    HW2 1312   0.856   3.977   1.047  0.6710  0.7832 -0.3405
  395SOL    HW3 1313   0.747   3.956   0.944  1.0370  0.5265 -0.6779
  395SOL    MW4 1314   0.796   4.009   0.992 -0.2230  0.0474  0.6460
  396SOL     OW 1315   2.355   2.649   2.663  0.0558 -0.1103 -0.0333
  396SOL    HW2 1316   2.345   2.625   2.755  0.1527  0.0987  0.0336
  396SOL    HW3 1317   2.449   2.665   2.653 -0.1321  1.2793  0.1892
  396SOL    MW4 1318   2.366   2.648   2.673  0.2293 -0.7225 -0.6869
  397SOL     OW 1319   1.488   3.177   3.339  0.1462 -0.1006  0.2730
  397SOL    HW2 1320   1.519   3.235   3.270 -1.0480 -0.2582 -0.4189
  397SOL    HW3 1321   1.526   3.213   3.419  1.8341 -0.1188 -0.4743
  397SOL    MW4 1322   1.497   3.190   3.341  0.2650 -0.2049  0.1891
  398SOL     OW 1323   0.933   4.969   5.961 -0.1164  0.2205  0.7708
  398SOL    HW2 1324   0.872   5.037   5.988  0.4326  1.8461 -1.8008
  398SOL    HW3 1325   1.016   5.014   5.949  0.8462 -1.3651  1.2005
  398SOL    MW4 1326   0.936   4.984   5.963  0.1649 -0.0630 -0.3878
  399SOL     OW 1327   5.995   6.155   0.384  0.5272 -0.4596 -0.0719
  399SOL    HW2 1328   5.954   6.214   0.447 -0.0398 -1.5923  0.6510
  399SOL    HW3 1329   5.963   6.185   0.299  0.4260  0.4024  0.2612
  399SOL    MW4 1330   5.986   6.167   0.381  0.7093  0.3495 -0.1606
  400SOL     OW 1331   2.851   4.635   5.591 -0.3723  0.1856  0.1300
  400SOL    HW2 1332   2.874   4.726   5.570 -1.4842  0.3155 -0.6223
  400SOL    HW3 1333   2.916   4.582   5.546  0.0607  0.6005  0.2627
  400SOL    MW4 1334   2.862   4.640   5.582 -0.1091 -0.0399  0.8558
  401SOL     OW 1335   3.451   0.355   3.978  0.0637  0.1726 -0.3732
  401SOL    HW2 1336   3.415   0.275   3.941 -0.0140 -0.1314  0.3428
  401SOL    HW3 1337   3.450   0.340   4.073  1.4128  0.4347 -0.2990
  401SOL    MW4 1338   3.446   0.343   3.986 -0.1520 -0.2721  0.4165
  402SOL     OW 1339   0.069   2.062   4.661  0.3797  0.1181  0.0381
  402SOL    HW2 1340   0.107   2.149   4.676  0.4793  0.0778  0.0220
  402SOL    HW3 1341   0.140   2.001   4.683  0.5730  0.0599 -0.7343
  402SOL    MW4 1342   0.083   2.065   4.666  0.0228 -0.2320 -0.5315
  403SOL     OW 1343   5.633   2.693   4.645  0.0822  0.0794  0.0771
  403SOL    HW2 1344   5.634   2.767   4.707 -0.9222 -1.1424  1.6368
  403SOL    HW3 1345   5.725   2.667   4.639  0.3574  1.0174  0.0578
  403SOL    MW4 1346   5.646   2.699   4.653 -0.1779  0.5838  0.0936
  404SOL     OW 1347   1.539   5.707   2.514  0.3087  0.2390 -0.5651
  404SOL    HW2 1348   1.599   5.750   2.575  0.6354 -0.6373 -0.2528
  404SOL    HW3 1349   1.475   5.774   2.492  1.0967  1.0365 -0.4905
  404SOL    MW4 1350   1.539   5.722   2.519 -0.5667 -0.3600  0.0461
  405SOL     OW 1351   3.716   4.684   0.872  0.1807  0.1435 -0.5382
  405SOL    HW2 1352   3.707   4.687   0.967  1.0125 -0.7308 -0.4184
  405SOL    HW3 1353   3.784   4.748   0.851 -0.3882  0.7384 -0.6156
  405SOL    MW4 1354   3.723   4.693   0.882 -0.5500 -0.1611 -0.2648
  406SOL     OW 1355   0.760   4.064   2.491  0.5191 -0.6873  0.9285
  406SOL    HW2 1356   0.793   4.151   2.466  0.7764 -1.5184 -2.0183
  406SOL    HW3 1357   0.831   4.025   2.542  2.0615 -0.5452 -0.9997
  406SOL    MW4 1358   0.774   4.070   2.494  0.5424 -0.2851  0.4120
  407SOL     OW 1359   6.169   5.394   1.785  0.3575 -0.2085  0.7914
  407SOL    HW2 1360   6.094   5.406   1.843 -0.1951 -0.7058  0.2016
  407SOL    HW3 1361   6.244   5.420   1.837 -0.0183 -1.6079  2.0879
  407SOL    MW4 1362   6.169   5.399   1.799  0.0053  0.1749  0.1289
  408SOL     OW 1363   3.584   0.138   0.575 -0.7915 -0.1639  0.3971
  408SOL    HW2 1364   3.544   0.054   0.553 -0.3507  0.1571 -1.7970
  408SOL    HW3 1365   3.525   0.176   0.640 -2.0206 -1.3187 -0.0047
  408SOL    MW4 1366   3.571   0.132   0.581  0.1171  0.0535  0.3973
  409SOL     OW 1367   3.965   4.562   2.807  0.0553  0.1765 -0.0424
  409SOL    HW2 1368   4.005   4.544   2.723 -0.8328 -0.2644 -0.3850
  409SOL    HW3 1369   4.027   4.530   2.872  0.5255  0.0817 -0.5399
  409SOL    MW4 1370   3.978   4.556   2.805  0.3497 -0.2106  0.0931
  410SOL     OW 1371   1.730   1.213   3.510 -0.0348 -0.2411 -0.2683
  410SOL    HW2 1372   1.779   1.148   3.560 -0.8262 -0.2941  0.4521
  410SOL    HW3 1373   1.784   1.228   3.432  0.0281 -1.9681 -0.5913
  410SOL    MW4 1374   1.744   1.207   3.506 -0.2830  0.2795  0.5114
  411SOL     OW 1375   2.742   3.417   0.630 -0.0894  0.3338 -0.0830
  411SOL    HW2 1376   2.675   3.469   0.585  0.8651  1.9618  0.2900
  411SOL    HW3 1377   2.789   3.372   0.561 -1.8626 -1.2914 -0.3304
  411SOL    MW4 1378   2.739   3.418   0.615 -0.8975  0.2503  0.5842
  412SOL     OW 1379   5.974   1.615   0.703  0.3318 -0.3859  0.2556
  412SOL    HW2 1380   5.962   1.522   0.723 -0.8043 -0.7075 -1.7160
  412SOL    HW3 1381   6.068   1.624   0.688  0.4949 -1.1349  0.7617
  412SOL    MW4 1382   5.985   1.604   0.704  0.9454  0.3281 -0.2419
  413SOL     OW 1383   5.693   3.255   3.733  0.6362  0.0483  0.2122
  413SOL    HW2 1384   5.751   3.310   3.680  2.3601 -1.8622  0.0076
  413SOL    HW3 1385   5.637   3.211   3.670  0.2331  0.4733  0.2691
  413SOL    MW4 1386   5.694   3.257   3.718  0.0584 -0.4161 -0.1185
  414SOL     OW 1387   5.290   4.770   2.013  0.1756  0.0637  0.4401
  414SOL    HW2 1388   5.229   4.840   2.038 -0.0450 -0.1546  0.5203
  414SOL    HW3 1389   5.376   4.805   2.032  0.0932  0.5060  0.0099
  414SOL    MW4 1390   5.293   4.784   2.018 -0.3114  0.2559  0.0550
  415SOL     OW 1391   0.202   2.751   5.086 -1.0332 -0.5073  0.4803
  415SOL    HW2 1392   0.280   2.727   5.036 -0.7921 -1.5520  1.3215
  415SOL    HW3 1393   0.130   2.748   5.023 -0.1965  2.3634 -0.7928
  415SOL    MW4 1394   0.203   2.748   5.071  0.1881 -0.5343  0.1806
  416SOL     OW 1395   2.065   4.640   3.938  0.5815 -0.3099  0.3987
  416SOL    HW2 1396   2.012   4.561   3.939  0.3954 -0.4630 -3.9416
  416SOL    HW3 1397   2.007   4.708   3.906  2.0649  0.2736 -1.2208
  416SOL    MW4 1398   2.050   4.639   3.934  0.4558 -0.9972  0.3692
  417SOL     OW 1399   0.248   3.806   3.662 -0.1053 -0.1942 -0.4248
  417SOL    HW2 1400   0.196   3.744   3.713 -0.6705 -0.3195 -1.1301
  417SOL    HW3 1401   0.226   3.786   3.571 -0.2147  0.9684 -0.6734
  417SOL    MW4 1402   0.238   3.795   3.656 -0.7692 -0.5700  0.0724
  418SOL     OW 1403   2.436   5.585   1.416  0.4325 -0.4973  0.4798
  418SOL    HW2 1404   2.499   5.655   1.397  1.8832 -1.9960 -0.4627
  418SOL    HW3 1405   2.476   5.506   1.380 -1.7970 -1.6024  0.2787
  418SOL    MW4 1406   2.450   5.584   1.409  0.0631  0.0025  0.2220
  419SOL     OW 1407   1.955   6.054   2.990  0.0535  0.8293 -0.1518
  419SOL    HW2 1408   1.967   6.042   3.084 -0.2473 -0.4118 -0.2566
  419SOL    HW3 1409   2.037   6.092   2.960  0.9306 -0.6271  0.3162
  419SOL    MW4 1410   1.967   6.057   2.998  0.3987  0.0579 -0.3768
  420SOL     OW 1411   6.048   2.043   0.817 -0.4604  0.0663  0.0386
  420SOL    HW2 1412   6.014   2.132   0.828 -0.0171  0.1608  0.7421
  420SOL    HW3 1413   6.025   2.020   0.727 -0.8312  0.7839 -0.0643
  420SOL    MW4 1414   6.041   2.052   0.807  0.1665  0.3211 -0.7141
  421SOL     OW 1415   0.746   2.908   0.293  0.3060 -0.0921 -0.7880
  421SOL    HW2 1416   0.809   2.976   0.270  1.4701 -1.0004 -0.3820
  421SOL    HW3 1417   0.663   2.955   0.303  0.6790  0.9935 -2.2964
  421SOL    MW4 1418   0.743   2.923   0.291 -0.2529  0.3897  0.0879
  422SOL     OW 1419   5.166   3.354   3.399  0.1130  0.0421 -0.0817
  422SOL    HW2 1420   5.175   3.431   3.344  0.3325  0.2022  0.1729
  422SOL    HW3 1421   5.096   3.303   3.359  0.1208  0.2650 -0.3780
  422SOL    MW4 1422   5.158   3.358   3.387  0.4345  0.0517 -0.4236
  423SOL     OW 1423   3.755   5.707   1.177  0.1085  0.2826  0.3349
  423SOL    HW2 1424   3.777   5.773   1.243  0.6615 -1.4384  1.9670
  423SOL    HW3 1425   3.824   5.641   1.185 -0.5341 -0.6138 -1.0928
  423SOL    MW4 1426   3.767   5.707   1.187 -0.2691 -0.2837  0.3041
  424SOL     OW 1427   6.134   5.514   5.865  0.6218  0.7224 -0.7132
  424SOL    HW2 1428   6.198   5.442   5.863  1.4662  1.4594 -0.7476
  424SOL    HW3 1429   6.175   5.584   5.814 -0.2592  1.1863 -0.8076
  424SOL    MW4 1430   6.148   5.514   5.858 -0.4547  0.3357  0.1081
  425SOL     OW 1431   3.763   0.579   1.260 -0.3330 -0.4514  0.2585
  425SOL    HW2 1432   3.728   0.657   1.217 -2.2507 -2.2846 -1.8270
  425SOL    HW3 1433   3.853   0.572   1.229 -0.1027  0.9310  0.5563
  425SOL    MW4 1434   3.770   0.588   1.250  0.0243  0.2370  0.3828
  426SOL     OW 1435   5.154   3.570   4.592 -0.2520 -0.6616  0.2471
  426SOL    HW2 1436   5.163   3.532   4.679  0.9796  0.4875  0.6454
  426SOL    HW3 1437   5.106   3.651   4.606  0.8240  0.0346  0.0198
  426SOL    MW4 1438   5.149   3.575   4.605  0.0946 -0.3885  0.6940
  427SOL     OW 1439   3.085   1.227   1.055 -0.6635 -0.2329  0.1896
  427SOL    HW2 1440   3.041   1.199   1.136 -1.4924  0.9470  0.1694
  427SOL    HW3 1441   3.120   1.314   1.076 -1.9467  0.6143 -1.0915
  427SOL    MW4 1442   3.084   1.234   1.069 -0.3058 -0.0423 -0.1612
  428SOL     OW 1443   2.885   2.409   1.280 -0.0149  0.4029 -0.2408
  428SOL    HW2 1444   2.971   2.449   1.290  0.4660 -0.8923  1.2152
  428SOL    HW3 1445   2.838   2.433   1.360 -0.5978  0.1767 -0.5111
  428SOL    MW4 1446   2.890   2.417   1.292  0.6019 -0.4126  0.6060
  429SOL     OW 1447   0.395   3.106   4.042  0.2500  0.0205  0.0370
  429SOL    HW2 1448   0.368   3.030   3.990 -0.1326  0.3724 -0.2902
  429SOL    HW3 1449   0.476   3.135   4.002 -0.6300  0.9862 -1.1159
  429SOL    MW4 1450   0.402   3.100   4.030 -0.0626 -0.2996 -0.0701
  430SOL     OW 1451   1.234   2.041   1.671  0.7323  0.2867  0.1524
  430SOL    HW2 1452   1.243   2.061   1.764  2.4455 -0.5718  0.2001
  430SOL    HW3 1453   1.301   1.975   1.654 -1.7192 -2.1129 -0.9574
  430SOL    MW4 1454   1.244   2.035   1.681  0.5005  0.1717  0.0469
  431SOL     OW 1455   2.278   3.422   4.351  0.2994 -0.1235 -0.3877
  431SOL    HW2 1456   2.284   3.327   4.360  0.8658 -0.0490  0.0512
  431SOL    HW3 1457   2.369   3.452   4.344  0.0788  0.2305 -2.2541
  431SOL    MW4 1458   2.291   3.414   4.351 -0.6706 -0.3221 -0.2107
  432SOL     OW 1459   0.913   4.282   2.088  0.4568 -0.0466 -0.1872
  432SOL    HW2 1460   0.879   4.348   2.027 -0.4166  0.8594  1.2239
  432SOL    HW3 1461   0.837   4.227   2.108  0.8932 -0.7441 -0.4048
  432SOL    MW4 1462   0.898   4.284   2.082  0.0076 -0.3440  0.0227
  433SOL     OW 1463   2.066   1.233   4.092  0.1493 -0.2124  0.8705
  433SOL    HW2 1464   2.072   1.176   4.016  1.2525 -1.5172  1.8982
  433SOL    HW3 1465   2.036   1.176   4.163  0.5190  0.6559  1.7452
  433SOL    MW4 1466   2.063   1.218   4.091  0.1782 -0.4752 -0.0372
  434SOL     OW 1467   1.594   0.566   5.328  0.3655  0.4059 -0.4583
  434SOL    HW2 1468   1.514   0.543   5.374  0.4226 -1.2303 -1.1155
  434SOL    HW3 1469   1.570   0.642   5.275 -0.6889  0.0833 -0.4602
  434SOL    MW4 1470   1.580   0.573   5.327  0.1937 -0.9031  0.0896
  435SOL     OW 1471   2.433   2.922   5.411 -0.2058 -0.1338 -0.4248
  435SOL    HW2 1472   2.523   2.910   5.441 -0.2516 -0.6256 -0.4719
  435SOL    HW3 1473   2.442   2.969   5.328  0.1689 -2.0730 -1.5606
  435SOL    MW4 1474   2.446   2.926   5.404  0.3262 -0.2550 -0.2660
  436SOL     OW 1475   4.426   5.937   0.385 -0.1753  0.9428 -0.4083
  436SOL    HW2 1476   4.359   5.944   0.453 -0.3468 -0.3981 -0.4289
  436SOL    HW3 1477   4.439   5.843   0.373  1.4542  1.1656 -0.6587
  436SOL    MW4 1478   4.419   5.926   0.393  0.6339  0.8775 -0.0742
  437SOL     OW 1479   2.578   1.922   1.191 -0.2659  0.3356  0.7251
  437SOL    HW2 1480   2.524   2.000   1.207 -1.3995 -0.4716  0.9621
  437SOL    HW3 1481   2.668   1.954   1.198 -0.7044  1.4328  1.7896
  437SOL    MW4 1482   2.583   1.937   1.194 -0.0308  0.3839 -0.0781
  438SOL     OW 1483   2.059   4.015   1.562  0.0336  0.5773 -0.5774
  438SOL    HW2 1484   2.009   3.934   1.551  1.0827  0.0065 -1.3163
  438SOL    HW3 1485   2.141   4.000   1.514  0.8044  1.5861  0.3622
  438SOL    MW4 1486   2.063   4.002   1.554 -0.3298  0.0164 -0.3130
  439SOL     OW 1487   4.468   3.449   5.897 -0.3209 -0.1953  0.3541
  439SOL    HW2 1488   4.424   3.528   5.928  2.2401  1.2565  0.5939
  439SOL    HW3 1489   4.452   3.385   5.966 -1.7821  0.3324  0.5486
  439SOL    MW4 1490   4.460   3.451   5.910  0.3738  0.2022 -0.4812
  440SOL     OW 1491   4.398   3.853   6.326 -0.2498 -0.1213  0.2237
  440SOL    HW2 1492   4.400   3.780   6.388 -4.1188 -1.4108 -0.8204
  440SOL    HW3 1493   4.371   3.929   6.378 -1.0986 -0.6442  0.5691
  440SOL    MW4 1494   4.394   3.853   6.341 -0.1839  0.0095 -0.0002
  441SOL     OW 1495   4.845   0.687   0.188 -1.0598 -0.3729  1.0417
  441SOL    HW2 1496   4.810   0.722   0.270 -0.1873 -1.5812  1.9635
  441SOL    HW3 1497   4.828   0.593   0.193 -3.1193 -0.2265 -1.2532
  441SOL    MW4 1498   4.838   0.679   0.199 -0.3645 -0.5357  0.1248
  442SOL     OW 1499   2.380   3.857   5.655 -0.4899 -0.0595 -0.4291
  442SOL    HW2 1500   2.289   3.853   5.624 -0.1681 -0.3916 -1.3917
  442SOL    HW3 1501   2.428   3.894   5.581 -0.1195  2.0249  0.7941
  442SOL    MW4 1502   2.374   3.861   5.641  0.1215  0.3876  0.0617
  443SOL     OW 1503   4.230   2.996   0.933  0.0558  0.4001  0.0852
  443SOL    HW2 1504   4.275   3.080   0.936 -0.3313  0.5953  0.7881
  443SOL    HW3 1505   4.283   2.939   0.989  1.5981 -0.5026 -2.1773
  443SOL    MW4 1506   4.243   3.000   0.941 -0.2855  0.6909 -0.3746
  444SOL     OW 1507   4.138   1.020   5.323  0.6132  0.2940  0.0948
  444SOL    HW2 1508   4.053   0.988   5.352 -0.2750  1.6324 -0.8922
  444SOL    HW3 1509   4.164   1.084   5.390 -0.1643  1.3987 -0.6203
  444SOL    MW4 1510   4.130   1.024   5.336  0.0446 -0.0261 -0.4794
  445SOL     OW 1511   4.800   5.120   6.027 -0.4634  0.0236 -0.0640
  445SOL    HW2 1512   4.839   5.089   6.109  1.3369 -1.6033 -1.4184
  445SOL    HW3 1513   4.793   5.215   6.038  1.8957  0.1294  1.1504
  445SOL    MW4 1514   4.805   5.129   6.039  0.0404  0.1139 -0.0229
  446SOL     OW 1515   3.231   0.438   5.413 -0.5370 -0.2775  0.3181
  446SOL    HW2 1516   3.198   0.522   5.382  0.9937  0.7123  1.2429
  446SOL    HW3 1517   3.251   0.390   5.333  0.0745  0.8635 -0.2435
  446SOL    MW4 1518   3.229   0.443   5.398  0.1571  0.0520  0.5654
  447SOL     OW 1519   0.729   4.078   0.380 -0.3662 -0.1690  0.3821
  447SOL    HW2 1520   0.817   4.104   0.354 -0.3032 -0.6266  0.1292
  447SOL    HW3 1521   0.723   4.105   0.472 -0.7688  1.9027 -0.1950
  447SOL    MW4 1522   0.740   4.085   0.389 -0.1903  0.0145  0.2364
  448SOL     OW 1523   4.569   4.503   5.402  0.1712  0.2778 -0.3078
  448SOL    HW2 1524   4.548   4.596   5.394  0.4238  0.2626 -1.2262
  448SOL    HW3 1525   4.484   4.459   5.405  0.0513  0.5315  0.1379
  448SOL    MW4 1526   4.555   4.510   5.401  0.2326  0.3157 -0.5492
  449SOL     OW 1527   0.061   5.454   5.548 -0.2432  0.6096  0.4000
  449SOL    HW2 1528   0.107   5.397   5.608  1.2483  2.3028  0.9633
  449SOL    HW3 1529  -0.026   5.415   5.538 -0.0399 -0.4823  2.5179
  449SOL    MW4 1530   0.055   5.442   5.554  0.0500  0.0152 -0.0173
  450SOL     OW 1531   4.669   1.622   1.331 -0.1950  0.6463 -0.4607
  450SOL    HW2 1532   4.722   1.649   1.405  0.3975  0.4517 -0.8089
  450SOL    HW3 1533   4.731   1.583   1.270 -0.9440 -1.1698 -0.1363
  450SOL    MW4 1534   4.684   1.620   1.333 -0.2968 -0.0713  0.5235
  451SOL     OW 1535   0.241   0.840   0.543 -0.1890 -0.2865  0.6895
  451SOL    HW2 1536   0.306   0.806   0.605  1.6109  0.1898 -0.8455
  451SOL    HW3 1537   0.208   0.920   0.584  2.0080  0.8034  0.5139
  451SOL    MW4 1538   0.245   0.846   0.557  0.1305  1.0934  0.1757
  452SOL     OW 1539   2.263   2.962   4.979 -0.3933  0.2563 -0.9311
  452SOL    HW2 1540   2.331   2.916   4.930  0.6163  1.5995 -0.8662
  452SOL    HW3 1541   2.240   3.036   4.923 -1.0469  0.3958 -0.4842
  452SOL    MW4 1542   2.269   2.966   4.966  0.0584 -0.7157 -0.2307
  453SOL     OW 1543   2.576   1.578   1.779 -0.1139 -0.2191 -0.2115
  453SOL    HW2 1544   2.533   1.663   1.779  0.4096  0.0502 -0.5215
  453SOL    HW3 1545   2.649   1.588   1.718 -2.5381 -2.1418 -3.8172
  453SOL    MW4 1546   2.580   1.590   1.771  0.5032 -0.7638 -0.2986
  454SOL     OW 1547   3.121   4.275   1.156 -0.1155 -0.5686 -0.4084
  454SOL    HW2 1548   3.123   4.258   1.062 -1.2458 -0.9627 -0.3816
  454SOL    HW3 1549   3.103   4.369   1.163  1.4253 -0.2366 -0.5643
  454SOL    MW4 1550   3.118   4.285   1.145  0.3208 -0.2330  0.5759
  455SOL     OW 1551   4.335   6.321   0.889  0.2011  0.5749 -0.0470
  455SOL    HW2 1552   4.302   6.389   0.830  1.7460  1.1287 -0.2993
  455SOL    HW3 1553   4.330   6.360   0.976  2.1687  1.4968 -0.3037
  455SOL    MW4 1554   4.330   6.335   0.893  0.0817 -0.5551  0.1921
  456SOL     OW 1555   4.254   5.482   0.646 -0.1533  0.3236 -0.3600
  456SOL    HW2 1556   4.340   5.461   0.609  0.5318  0.8995  0.8442
  456SOL    HW3 1557   4.268   5.479   0.741 -1.0254  2.1450 -0.1526
  456SOL    MW4 1558   4.267   5.478   0.654  0.4301 -0.5353 -0.2753
  457SOL     OW 1559   2.162   2.208   5.477  0.4039  0.1536  0.2142
  457SOL    HW2 1560   2.074   2.217   5.441  1.2442  0.2948 -1.9375
  457SOL    HW3 1561   2.208   2.286   5.447  1.4178 -0.1836  0.8558
  457SOL    MW4 1562   2.157   2.219   5.468 -0.0605 -0.2766 -0.1239
  458SOL     OW 1563   2.998   2.327   2.451  0.4538  0.0328  0.1427
  458SOL    HW2 1564   2.991   2.398   2.388 -0.1378  2.3711  2.6349
  458SOL    HW3 1565   3.005   2.247   2.398  1.3222  1.9244 -2.7869
  458SOL    MW4 1566   2.998   2.326   2.436 -0.4006  0.2263  0.8352
  459SOL     OW 1567   3.213   2.934   6.383 -0.6681 -0.2974 -0.5213
  459SOL    HW2 1568   3.140   2.873   6.397 -0.0667 -0.7841  0.6485
  459SOL    HW3 1569   3.277   2.884   6.332 -0.1638 -0.6774  0.4604
  459SOL    MW4 1570   3.212   2.919   6.378 -0.3934 -0.0271  0.9662
  460SOL     OW 1571   4.640   3.607   2.948  0.1665 -0.1274 -0.5366
  460SOL    HW2 1572   4.554   3.604   2.906  0.2418 -0.5627 -0.6611
  460SOL    HW3 1573   4.691   3.539   2.905  1.2831  1.5291 -1.9864
  460SOL    MW4 1574   4.635   3.598   2.937  0.2433 -0.0675  0.9331
  461SOL     OW 1575   0.775   5.558   5.516 -0.0660  0.1312 -0.4538
  461SOL    HW2 1576   0.747   5.581   5.428 -1.4421 -2.5278 -0.8299
  461SOL    HW3 1577   0.699   5.576   5.572 -0.1576 -0.6928 -0.2975
  461SOL    MW4 1578   0.761   5.563   5.512  0.1239 -0.0450  0.1880
  462SOL     OW 1579   1.299   5.169   1.962 -0.2206 -0.1596 -0.3400
  462SOL    HW2 1580   1.359   5.142   2.031  0.2068 -0.0834 -0.6716
  462SOL    HW3 1581   1.220   5.119   1.977  0.2969 -1.0459 -0.5083
  462SOL    MW4 1582   1.297   5.159   1.973 -0.2098 -0.1877 -0.4908
  463SOL     OW 1583   5.349   4.744   6.247 -0.0339  0.4736 -0.1994
  463SOL    HW2 1584   5.267   4.695   6.243  0.1475  0.1104  0.2879
  463SOL    HW3 1585   5.355   4.773   6.338  0.4307  0.3934 -0.2019
  463SOL    MW4 1586   5.339   4.741   6.258 -0.4607 -0.1626  0.0206
  464SOL     OW 1587   3.536   5.837   3.121  0.0204  1.0109 -0.3187
  464SOL    HW2 1588   3.618   5.791   3.139 -1.8537 -1.7262  2.2064
  464SOL    HW3 1589   3.513   5.812   3.032  0.7459 -0.1709 -0.1885
  464SOL    MW4 1590   3.543   5.828   3.112 -0.3662 -0.0287  0.2436
  465SOL     OW 1591   4.002   1.703   3.773  0.2239 -0.5545 -0.2203
  465SOL    HW2 1592   4.075   1.656   3.814 -0.4272  0.0343  1.7166
  465SOL    HW3 1593   3.926   1.647   3.787 -0.0950 -0.1264 -0.2313
  465SOL    MW4 1594   4.002   1.689   3.780 -0.1320  0.2216  0.2112
  466SOL     OW 1595   3.428   1.215   4.124  0.5889 -0.1022 -0.1995
  466SOL    HW2 1596   3.391   1.241   4.209  1.6447  0.2188  0.1748
  466SOL    HW3 1597   3.418   1.293   4.069  0.3694 -0.1455 -0.2253
  466SOL    MW4 1598   3.422   1.229   4.128 -0.2717 -0.6326  0.2805
  467SOL     OW 1599   2.006   5.735   6.065 -0.3032 -0.6609 -0.2588
  467SOL    HW2 1600   2.024   5.667   6.000 -3.4341 -2.0479  0.1250
  467SOL    HW3 1601   2.034   5.696   6.148 -3.0740 -2.1426  0.1197
  467SOL    MW4 1602   2.012   5.721   6.067 -0.4016  0.3645 -0.2749
  468SOL     OW 1603   3.382   1.312   2.608 -0.6777  0.0336 -0.3742
  468SOL    HW2 1604   3.404   1.224   2.578 -1.0162 -0.0947 -0.2474
  468SOL    HW3 1605   3.414   1.316   2.698 -1.6577 -0.3506  0.0119
  468SOL    MW4 1606   3.389   1.301   2.616 -0.1707 -0.4496 -0.4118
  469SOL     OW 1607   1.814   2.196   2.207  0.1160 -0.3787 -0.1742
  469SOL    HW2 1608   1.874   2.265   2.179 -0.3193  0.3292  0.5862
  469SOL    HW3 1609   1.865   2.142   2.268 -0.0642  0.3334  0.6189
  469SOL    MW4 1610   1.828   2.198   2.211  0.1000  0.0029 -0.5452
  470SOL     OW 1611   1.629   1.672   3.958 -0.0594  0.2075  0.1661
  470SOL    HW2 1612   1.637   1.733   4.032 -2.7814 -1.3910  1.9699
  470SOL    HW3 1613   1.698   1.608   3.972 -1.5520 -1.0296  2.4268
  470SOL    MW4 1614   1.639   1.672   3.970 -0.4011  0.0266  0.1761
  471SOL     OW 1615   5.230   1.894   2.200 -0.1169 -0.3560  0.1758
  471SOL    HW2 1616   5.259   1.968   2.147 -0.0983  0.7967  1.7035
  471SOL    HW3 1617   5.135   1.898   2.196 -0.1688  0.8205  1.5593
  471SOL    MW4 1618   5.221   1.904   2.192 -0.2044  0.1329  0.1923
  472SOL     OW 1619   1.084   5.900   5.829 -0.0447 -0.1275  0.1973
  472SOL    HW2 1620   1.149   5.946   5.776  0.6799 -0.2546  0.9687
  472SOL    HW3 1621   1.011   5.883   5.768 -0.3645  2.0600 -0.0974
  472SOL    MW4 1622   1.083   5.904   5.814  0.3088  0.4131 -0.0918
  473SOL     OW 1623   6.257   1.742   3.504  0.0038  0.2886  0.6019
  473SOL    HW2 1624   6.251   1.767   3.412 -0.9710  0.3329  0.6742
  473SOL    HW3 1625   6.194   1.798   3.549  1.6393  1.4738  1.5710
  473SOL    MW4 1626   6.248   1.753   3.498 -0.5914 -0.2164  0.4804
  474SOL     OW 1627   1.678   1.986   6.249  1.0462 -0.4793 -0.0268
  474SOL    HW2 1628   1.587   1.984   6.219  0.2619 -0.9771  2.2316
  474SOL    HW3 1629   1.712   1.900   6.227  0.5543 -0.7644  0.3128
  474SOL    MW4 1630   1.670   1.975   6.242  0.2214  0.2361  0.1113
  475SOL     OW 1631   0.976   6.313   2.540 -0.0129 -0.4468  0.0868
  475SOL    HW2 1632   1.070   6.300   2.532  0.0363 -0.2741  0.3832
  475SOL    HW3 1633   0.956   6.384   2.479 -0.3082 -1.9487 -1.6709
  475SOL    MW4 1634   0.986   6.321   2.531  0.2095  1.3375 -0.4747
  476SOL     OW 1635   1.053   1.317   5.424 -0.2431  0.2752 -0.5797
  476SOL    HW2 1636   0.972   1.289   5.468  1.0105  0.6008  2.1772
  476SOL    HW3 1637   1.090   1.236   5.389 -1.0434 -0.0954 -0.6001
  476SOL    MW4 1638   1.047   1.303   5.426  0.4835  0.1617 -0.0860
  477SOL     OW 1639   1.040   6.341   1.786  0.6490  0.0541 -0.1874
  477SOL    HW2 1640   1.005   6.424   1.819  0.3652  0.4805 -1.4848
  477SOL    HW3 1641   1.041   6.283   1.862  0.7328  1.2028  0.7164
  477SOL    MW4 1642   1.035   6.344   1.800 -0.2307 -0.4580 -0.5726
  478SOL     OW 1643   2.737   3.766   3.821  0.1518  0.4787 -0.0446
  478SOL    HW2 1644   2.675   3.693   3.813  1.8436 -0.8385 -2.3422
  478SOL    HW3 1645   2.818   3.726   3.850  1.1758  1.3430 -1.5459
  478SOL    MW4 1646   2.739   3.751   3.823  0.3781  0.6876  0.1011
  479SOL     OW 1647   5.319   1.297   5.043 -0.0466 -0.1510  0.2009
  479SOL    HW2 1648   5.367   1.380   5.048 -0.1744 -0.0452 -0.2931
  479SOL    HW3 1649   5.387   1.230   5.050  0.0137 -0.0152  1.0441
  479SOL    MW4 1650   5.334   1.299   5.045  0.3350 -0.5660  0.1169
  480SOL     OW 1651   2.421   5.067   3.417 -0.5467  0.1969 -0.1405
  480SOL    HW2 1652   2.513   5.068   3.392 -0.3957  0.3784  0.4219
  480SOL    HW3 1653   2.417   5.114   3.500 -1.4276  1.8728 -1.0770
  480SOL    MW4 1654   2.432   5.073   3.425 -0.3280 -0.1822  0.3892
  481SOL     OW 1655   1.170   1.673   1.620 -0.3341 -0.0943 -0.1644
  481SOL    HW2 1656   1.241   1.733   1.594 -1.1224  1.5047  1.1614
  481SOL    HW3 1657   1.094   1.705   1.571 -0.8353  0.2224  0.7998
  481SOL    MW4 1658   1.169   1.685   1.610  0.0735 -0.4561 -0.3002
  482SOL     OW 1659   4.798   2.853   0.360  0.3829 -0.0317 -0.1336
  482SOL    HW2 1660   4.853   2.918   0.316 -0.8501  0.8011 -0.5022
  482SOL    HW3 1661   4.712   2.894   0.365 -0.6621 -1.9657 -1.1214
  482SOL    MW4 1662   4.794   2.867   0.355 -0.1209  0.3337 -0.5634
  483SOL     OW 1663   0.484   4.895   4.661 -0.5464 -0.2214 -0.0991
  483SOL    HW2 1664   0.542   4.824   4.688  0.2284 -0.1472 -1.4818
  483SOL    HW3 1665   0.521   4.973   4.703 -0.5525 -0.4021  0.2487
  483SOL    MW4 1666   0.496   4.896   4.670  0.0591  0.6521 -0.1310
  484SOL     OW 1667   3.917   0.121   6.150  0.2953  0.1005 -0.2510
  484SOL    HW2 1668   3.997   0.071   6.136  0.4509  0.4616 -0.6793
  484SOL    HW3 1669   3.886   0.141   6.062 -1.1930 -1.4889 -0.1370
  484SOL    MW4 1670   3.923   0.117   6.137 -0.5020 -0.4689 -0.3249
  485SOL     OW 1671   2.644   5.688   1.665 -0.2877 -0.4439 -0.1696
  485SOL    HW2 1672   2.641   5.730   1.579  0.9416  0.1100  0.0450
  485SOL    HW3 1673   2.619   5.597   1.648 -2.8291  0.2522 -0.6719
  485SOL    MW4 1674   2.640   5.681   1.652  0.1654 -0.0847  0.2419
  486SOL     OW 1675   2.452   2.770   4.898 -0.1911 -0.5975 -0.3683
  486SOL    HW2 1676   2.462   2.800   4.807  2.3706 -1.4270 -0.4338
  486SOL    HW3 1677   2.447   2.675   4.891 -0.1561 -0.6544  0.3678
  486SOL    MW4 1678   2.452   2.762   4.885  0.1147 -0.1310  0.1626
  487SOL     OW 1679   2.260   0.594   6.268  0.0459  0.3925  0.3054
  487SOL    HW2 1680   2.292   0.521   6.321 -1.8744 -1.9374 -1.4956
  487SOL    HW3 1681   2.331   0.612   6.206  0.3389 -0.3189  0.4301
  487SOL    MW4 1682   2.273   0.587   6.267  0.1767  0.3093 -0.5086
  488SOL     OW 1683   3.862   1.853   2.028 -0.0195  0.0564 -0.0781
  488SOL    HW2 1684   3.773   1.878   2.004 -0.4034 -0.3630  0.8538
  488SOL    HW3 1685   3.901   1.822   1.946 -0.9996 -0.5458 -0.3399
  488SOL    MW4 1686   3.856   1.853   2.014  0.5873  0.4040 -0.3292
  489SOL     OW 1687   1.650   6.190   0.503  0.4064  0.0004 -1.0465
  489SOL    HW2 1688   1.626   6.282   0.504 -1.3434 -0.3781  1.7379
  489SOL    HW3 1689   1.576   6.146   0.462  0.4832 -0.3179 -0.8518
  489SOL    MW4 1690   1.637   6.196   0.498  0.8211 -0.4881  0.0223
  490SOL     OW 1691   5.995   2.780   0.558 -0.8811  0.1038 -0.2172
  490SOL    HW2 1692   6.072   2.788   0.615 -0.3118  0.2908 -1.0060
  490SOL    HW3 1693   5.945   2.706   0.595 -0.9414  0.7395  1.0032
  490SOL    MW4 1694   5.998   2.771   0.571  0.0112  0.2125 -0.5054
  491SOL     OW 1695   0.152   5.839   2.680  0.4868 -0.6753  0.3389
  491SOL    HW2 1696   0.058   5.859   2.680  0.7926  0.9624  1.1314
  491SOL    HW3 1697   0.164   5.780   2.754  0.1493 -0.4434  0.5828
  491SOL    MW4 1698   0.141   5.834   2.689 -0.3997 -0.4038 -0.3512
  492SOL     OW 1699   3.846   3.017   4.509 -0.9106 -0.4759  0.0097
  492SOL    HW2 1700   3.791   3.087   4.542 -0.4662  0.1714 -0.5945
  492SOL    HW3 1701   3.933   3.055   4.503 -0.6887 -1.0315 -0.4622
  492SOL    MW4 1702   3.850   3.031   4.513 -0.7014 -0.6135 -0.0458
  493SOL     OW 1703   1.131   3.920   5.945 -0.0697  0.0557 -0.2780
  493SOL    HW2 1704   1.158   3.830   5.930 -0.7241 -0.0680 -0.7865
  493SOL    HW3 1705   1.200   3.974   5.907  0.4593 -0.2223  0.2768
  493SOL    MW4 1706   1.143   3.916   5.938  0.1748  0.5580 -0.2756
  494SOL     OW 1707   2.154   3.661   2.174 -0.1965 -0.2523 -0.5666
  494SOL    HW2 1708   2.222   3.594   2.164 -1.0421 -0.9796 -1.4925
  494SOL    HW3 1709   2.074   3.613   2.192 -0.6917  0.5479 -0.5652
  494SOL    MW4 1710   2.153   3.646   2.175 -0.4445 -0.5864 -0.8543
  495SOL     OW 1711   2.165   0.289   5.920 -0.1201  0.1840  0.9240
  495SOL    HW2 1712   2.104   0.362   5.927 -0.2763  0.0551  0.9261
  495SOL    HW3 1713   2.239   0.324   5.871 -0.7692 -0.0044 -0.2433
  495SOL    MW4 1714   2.167   0.303   5.914  0.2790  0.1202  0.1685
  496SOL     OW 1715   5.474   1.883   3.690 -0.2599  0.3561  0.4829
  496SOL    HW2 1716   5.449   1.845   3.775 -0.4799 -0.1082  0.2168
  496SOL    HW3 1717   5.410   1.953   3.675 -0.7290 -0.0990  0.3250
  496SOL    MW4 1718   5.462   1.887   3.699 -0.7959 -0.0913  0.1667
  497SOL     OW 1719   1.811   1.977   4.414 -0.1332 -0.9992 -0.0337
  497SOL    HW2 1720   1.756   2.040   4.461  2.6885  0.5316  1.4677
  497SOL    HW3 1721   1.762   1.958   4.334 -1.1489  3.1710 -0.6146
  497SOL    MW4 1722   1.797   1.983   4.410 -0.4528 -0.3237 -0.5760
  498SOL     OW 1723   1.813   1.720   0.069 -0.1746 -0.3545  0.2636
  498SOL    HW2 1724   1.731   1.695   0.112 -0.0792 -0.7259  0.2373
  498SOL    HW3 1725   1.805   1.685  -0.020 -0.8516  1.3831 -0.4006
  498SOL    MW4 1726   1.801   1.712   0.063  0.0868  0.0366  0.0968
  499SOL     OW 1727   4.903   5.922   1.633  0.7494  0.4585 -0.1455
  499SOL    HW2 1728   4.823   5.882   1.668  1.0862 -0.8576 -0.8113
  499SOL    HW3 1729   4.903   5.899   1.540  1.2752  1.5275 -0.4226
  499SOL    MW4 1730   4.892   5.914   1.625 -0.4188 -0.3962 -0.4103
  500SOL     OW 1731   6.228   3.346   3.416 -0.3190  0.1823  0.2564
  500SOL    HW2 1732   6.291   3.416   3.432 -0.9725  0.8527 -0.0328
  500SOL    HW3 1733   6.231   3.333   3.321 -1.3862  0.9798  0.0955
  500SOL    MW4 1734   6.237   3.354   3.405  0.5589 -0.8399  0.0494
  501SOL     OW 1735   3.785   5.937   1.566  0.1409 -0.4863 -0.1976
  501SOL    HW2 1736   3.859   5.971   1.616 -0.4323  2.3281 -1.0756
  501SOL    HW3 1737   3.825   5.894   1.490  0.9060 -0.8451  0.3960
  501SOL    MW4 1738   3.800   5.936   1.562  0.0868 -0.4036 -0.0849
  502SOL     OW 1739   2.387   3.421   3.324  0.1186  0.2405 -0.2848
  502SOL    HW2 1740   2.348   3.507   3.305  0.8497  0.7840  0.6015
  502SOL    HW3 1741   2.362   3.403   3.415  1.4753  0.3604  0.1289
  502SOL    MW4 1742   2.379   3.430   3.333  0.7172  0.2430 -0.1220
  503SOL     OW 1743   1.365   1.091   1.108  0.4534 -0.0486  0.2459
  503SOL    HW2 1744   1.305   1.161   1.135 -2.4082 -2.7373  1.5612
  503SOL    HW3 1745   1.408   1.064   1.189 -0.1900 -1.2549  0.2026
  503SOL    MW4 1746   1.363   1.097   1.123  0.3820  0.3319 -0.0275
  504SOL     OW 1747   0.457   0.099   0.252 -0.5266  0.4522  0.1833
  504SOL    HW2 1748   0.398   0.108   0.328 -0.8030 -0.0514  0.0368
  504SOL    HW3 1749   0.434   0.172   0.195 -0.6220  0.5817  0.3859
  504SOL    MW4 1750   0.446   0.110   0.255  0.1148 -0.6548 -0.1305
  505SOL     OW 1751   3.269   1.639   3.457 -0.0102  0.0192 -0.3403
  505SOL    HW2 1752   3.319   1.679   3.527  1.2930  0.6131 -1.5835
  505SOL    HW3 1753   3.182   1.679   3.464  0.2181  0.3735  0.6602
  505SOL    MW4 1754   3.264   1.649   3.467 -0.4964  0.2679 -0.5584
  506SOL     OW 1755   0.604   2.583   5.535  0.3087 -0.2113  0.2192
  506SOL    HW2 1756   0.621   2.676   5.519  0.1558 -0.3065 -0.5492
  506SOL    HW3 1757   0.566   2.551   5.453  0.0762 -0.8839  0.5820
  506SOL    MW4 1758   0.602   2.591   5.522 -0.3904 -0.2269  0.2796
  507SOL     OW 1759   4.194   0.778   5.653  0.5610  0.0055 -0.0155
  507SOL    HW2 1760   4.227   0.867   5.639  0.9194 -0.2693 -0.9432
  507SOL    HW3 1761   4.158   0.752   5.569  1.3023 -1.0759 -0.0223
  507SOL    MW4 1762   4.194   0.787   5.640  0.5083 -0.4541 -0.4346
  508SOL     OW 1763   1.652   1.098   4.225 -0.2742 -0.6773 -0.2139
  508SOL    HW2 1764   1.683   1.085   4.314  1.7563 -1.4626 -0.9818
  508SOL    HW3 1765   1.693   1.179   4.197 -0.4828 -0.7110 -0.6240
  508SOL    MW4 1766   1.661   1.107   4.233  0.1733  0.1580 -0.0542
  509SOL     OW 1767   4.041   2.053   5.340 -0.0456 -0.0574 -0.7217
  509SOL    HW2 1768   4.114   2.100   5.378 -1.0339  0.0792  1.0985
  509SOL    HW3 1769   3.963   2.096   5.375 -1.0086 -0.6352 -2.0584
  509SOL    MW4 1770   4.040   2.065   5.349  0.5835  0.2912  0.6409
  510SOL     OW 1771   3.592   0.433   2.351 -0.0339 -0.0552  0.3883
  510SOL    HW2 1772   3.676   0.387   2.354 -0.1603 -0.2517  1.3525
  510SOL    HW3 1773   3.550   0.403   2.270  0.2265 -1.0359  0.6052
  510SOL    MW4 1774   3.597   0.423   2.341 -0.6430  0.1257 -0.3401
  511SOL     OW 1775   5.429   4.417   0.537 -0.0682  0.1005 -0.1026
  511SOL    HW2 1776   5.460   4.409   0.447  0.6971 -1.9432  0.2882
  511SOL    HW3 1777   5.506   4.444   0.587 -0.4786  1.1889 -0.0370
  511SOL    MW4 1778   5.443   4.419   0.532 -0.2282  0.2240 -0.2080
  512SOL     OW 1779   4.370   2.946   3.917  0.2476 -0.0777 -0.2757
  512SOL    HW2 1780   4.379   2.975   4.007 -1.6611 -0.1048 -0.0403
  512SOL    HW3 1781   4.443   2.987   3.871  2.0513 -1.1055  1.4913
  512SOL    MW4 1782   4.381   2.955   3.923  0.3121 -0.4583 -0.2298
  513SOL     OW 1783   1.234   0.023   4.368  0.1600 -0.0279 -0.0527
  513SOL    HW2 1784   1.210  -0.037   4.439  0.4676 -0.1274 -0.0335
  513SOL    HW3 1785   1.162   0.014   4.306 -0.6611  0.8827  0.7423
  513SOL    MW4 1786   1.221   0.014   4.369  0.2153 -0.0620 -0.0193
  514SOL     OW 1787   4.190   4.137   2.047 -0.3931  0.0218 -0.5138
  514SOL    HW2 1788   4.100   4.119   2.021 -1.3155 -0.2314  2.4981
  514SOL    HW3 1789   4.209   4.222   2.008 -0.5781 -1.4114 -4.1128
  514SOL    MW4 1790   4.180   4.146   2.038 -0.0734 -0.3662 -0.2071
  515SOL     OW 1791   3.679   6.196   0.290 -0.2646  0.5426 -0.4136
  515SOL    HW2 1792   3.671   6.220   0.382 -1.5981  0.7726 -0.5680
  515SOL    HW3 1793   3.589   6.181   0.261  0.2213 -0.6052 -1.3985
  515SOL    MW4 1794   3.666   6.198   0.298  0.3256 -0.3143  0.4469
  516SOL     OW 1795   4.356   5.425   5.372  0.3884  0.1116 -0.0215
  516SOL    HW2 1796   4.370   5.511   5.411  0.4281  0.2251 -0.2870
  516SOL    HW3 1797   4.317   5.373   5.442 -0.7943  0.7024 -0.2262
  516SOL    MW4 1798   4.353   5.429   5.386 -0.2830 -0.2099  0.1478
  517SOL     OW 1799   1.183   4.164   3.856 -0.0304 -0.5726 -0.4068
  517SOL    HW2 1800   1.094   4.189   3.880  0.9115  0.7613  1.9764
  517SOL    HW3 1801   1.202   4.217   3.778 -1.2876 -0.8585 -0.9355
  517SOL    MW4 1802   1.174   4.174   3.849  0.2652  0.0626  0.3814
  518SOL     OW 1803   0.776   6.221   3.892 -0.6125  0.2493 -0.5368
  518SOL    HW2 1804   0.826   6.296   3.925 -1.5640  0.6895 -0.0653
  518SOL    HW3 1805   0.797   6.218   3.798  1.3870 -0.4562 -0.1172
  518SOL    MW4 1806   0.785   6.231   3.884  0.1021 -0.3357  0.6014
  519SOL     OW 1807   5.439   0.633   5.973 -0.4465  0.5838 -0.3339
  519SOL    HW2 1808   5.385   0.598   6.043  1.7535 -0.5461  0.8956
  519SOL    HW3 1809   5.380   0.639   5.898 -2.5274  0.5279  1.2181
  519SOL    MW4 1810   5.424   0.629   5.972  0.2778 -0.0428 -0.9115
  520SOL     OW 1811   4.214   0.626   0.545  0.0041  0.5350 -0.2806
  520SOL    HW2 1812   4.241   0.714   0.521  3.2399 -0.1855  0.3135
  520SOL    HW3 1813   4.156   0.638   0.621 -1.2453  2.1674 -1.4191
  520SOL    MW4 1814   4.210   0.639   0.552 -0.5109  0.1720 -0.1059
  521SOL     OW 1815   5.216   5.342   3.258 -0.5159 -0.6807 -0.0046
  521SOL    HW2 1816   5.190   5.343   3.166  1.1655 -0.9227 -0.5131
  521SOL    HW3 1817   5.186   5.257   3.291 -1.3657 -0.4835 -0.2307
  521SOL    MW4 1818   5.208   5.331   3.251  0.0603  0.4469  0.3481
  522SOL     OW 1819   5.739   0.419   0.036 -0.5881  0.6480 -0.3675
  522SOL    HW2 1820   5.661   0.407   0.091 -1.0716  0.6081 -1.0419
  522SOL    HW3 1821   5.801   0.353   0.067 -1.2930 -0.1703 -0.6328
  522SOL    MW4 1822   5.737   0.409   0.047 -0.4377 -0.2876  0.4665
  523SOL     OW 1823   2.108   1.312   0.806  0.8034  0.3555 -0.0209
  523SOL    HW2 1824   2.175   1.271   0.861  0.9673  0.2455 -0.3072
  523SOL    HW3 1825   2.153   1.383   0.761  1.1091 -0.7127 -1.4309
  523SOL    MW4 1826   2.123   1.316   0.808  0.5034  0.1773 -0.0305
  524SOL     OW 1827   5.306   4.271   4.910 -0.2611 -0.0788 -0.0089
  524SOL    HW2 1828   5.360   4.324   4.851 -0.5264 -1.1532 -1.2731
  524SOL    HW3 1829   5.239   4.331   4.942 -1.3617  0.1347 -2.4338
  524SOL    MW4 1830   5.304   4.286   4.906 -0.4335 -0.0815  0.2095
  525SOL     OW 1831   3.405   3.525   0.774 -0.2965 -0.2098  0.6448
  525SOL    HW2 1832   3.311   3.540   0.781 -0.3024  0.2411 -0.2102
  525SOL    HW3 1833   3.445   3.604   0.810 -0.2229 -0.6832  1.6331
  525SOL    MW4 1834   3.398   3.537   0.780 -0.6780  0.2865  0.2327
  526SOL     OW 1835   2.297   4.778   3.614  0.0526  0.3783  1.1253
  526SOL    HW2 1836   2.326   4.794   3.705 -3.3412  1.7938  2.1100
  526SOL    HW3 1837   2.238   4.851   3.595 -1.3944 -1.3007 -1.2802
  526SOL    MW4 1838   2.293   4.790   3.624  0.6295 -0.3010 -0.0316
  527SOL     OW 1839   4.658   4.762   4.847 -0.4516  0.1708 -0.1703
  527SOL    HW2 1840   4.704   4.783   4.929 -2.1636 -1.1613  1.2162
  527SOL    HW3 1841   4.571   4.802   4.858 -0.1003  1.6595 -2.2287
  527SOL    MW4 1842   4.652   4.770   4.859  0.1374 -0.1892  0.0042
  528SOL     OW 1843   2.235   4.915   2.921  0.5741  0.4002 -1.0829
  528SOL    HW2 1844   2.149   4.925   2.880  0.4795  1.0902 -0.7434
  528SOL    HW3 1845   2.258   5.004   2.950  0.5286 -0.0802  0.5657
  528SOL    MW4 1846   2.227   4.928   2.920 -0.0680  0.2320 -0.3702
  529SOL     OW 1847   6.080   1.348   5.850 -0.1597  0.2855  0.2009
  529SOL    HW2 1848   6.068   1.256   5.872  3.4368 -0.2198  0.6815
  529SOL    HW3 1849   6.078   1.394   5.934  2.3261 -0.0761  0.5526
  529SOL    MW4 1850   6.078   1.342   5.864  0.6232 -0.3232 -0.0057
  530SOL     OW 1851   3.968   0.939   3.765  0.0785 -0.2327  0.3598
  530SOL    HW2 1852   3.917   0.903   3.838 -0.3715  1.2540  0.8287
  530SOL    HW3 1853   3.962   0.873   3.697  0.6529 -1.7462  1.7176
  530SOL    MW4 1854   3.960   0.926   3.766 -0.3182  0.4944  0.3546
  531SOL     OW 1855   0.120   6.127   5.884 -0.2896  0.3476  0.1325
  531SOL    HW2 1856   0.038   6.162   5.917  0.0264  0.1854  1.1052
  531SOL    HW3 1857   0.187   6.157   5.946  0.5018  1.1012 -1.0481
  531SOL    MW4 1858   0.118   6.136   5.896 -0.2526  0.2952  0.2195
  532SOL     OW 1859   4.180   5.744   0.518  0.2332  0.0787  0.2942
  532SOL    HW2 1860   4.160   5.815   0.579 -1.1778  0.1681 -0.2368
  532SOL    HW3 1861   4.175   5.664   0.572  1.0928  0.3089  0.7323
  532SOL    MW4 1862   4.177   5.743   0.533  0.2676 -0.1052  0.1074
  533SOL     OW 1863   1.626   4.570   6.088 -0.3596 -0.0511 -0.0501
  533SOL    HW2 1864   1.663   4.499   6.140 -2.0882  0.6213  2.2292
  533SOL    HW3 1865   1.551   4.530   6.043 -0.8331  0.0997  0.5858
  533SOL    MW4 1866   1.621   4.555   6.089 -0.2942  0.0409  0.0075
  534SOL     OW 1867   6.263   5.521   0.289  0.5749 -0.2584  0.3547
  534SOL    HW2 1868   6.331   5.499   0.353  0.7316 -1.2371 -0.1217
  534SOL    HW3 1869   6.299   5.596   0.241  1.0839 -0.4337  0.4573
  534SOL    MW4 1870   6.277   5.528   0.291  0.4499  0.0776  0.6428
  535SOL     OW 1871   4.057   2.631   0.955  0.1599  0.0014  0.1159
  535SOL    HW2 1872   4.146   2.655   0.981 -0.0553 -1.0580  1.9867
  535SOL    HW3 1873   4.044   2.543   0.989 -1.8593  0.3963  0.5233
  535SOL    MW4 1874   4.067   2.622   0.963  0.3330  0.0038  0.3732
  536SOL     OW 1875   1.453   5.315   3.460 -0.3036 -0.2079 -0.0979
  536SOL    HW2 1876   1.452   5.350   3.549 -0.2194  0.2108 -0.2594
  536SOL    HW3 1877   1.373   5.350   3.420 -1.3273 -1.8801  0.3668
  536SOL    MW4 1878   1.442   5.325   3.466 -0.4978  0.1275 -0.3322
  537SOL     OW 1879   2.331   0.291   2.985 -0.1381 -0.6775  0.6429
  537SOL    HW2 1880   2.242   0.290   2.948 -0.9340  0.0056  2.4597
  537SOL    HW3 1881   2.328   0.356   3.054  1.9192 -0.3580  0.4930
  537SOL    MW4 1882   2.318   0.299   2.989  0.3149  0.1063 -0.3549
  538SOL     OW 1883   3.678   6.213   1.531  0.6390  0.0243  0.5099
  538SOL    HW2 1884   3.718   6.129   1.550  2.6226  0.9988  0.8723
  538SOL    HW3 1885   3.585   6.201   1.552  1.1038 -1.6846  1.7920
  538SOL    MW4 1886   3.671   6.201   1.536  0.1923  0.7051  0.1856
  539SOL     OW 1887   3.494   1.753   6.193  0.5458 -0.1455  0.3008
  539SOL    HW2 1888   3.571   1.802   6.165  1.1464 -0.1483  1.8510
  539SOL    HW3 1889   3.423   1.816   6.190  0.6600 -0.0643 -0.8715
  539SOL    MW4 1890   3.495   1.768   6.189 -0.4753  0.0543 -0.0891
  540SOL     OW 1891   3.344   6.154   5.662  0.1505 -0.0849  0.0666
  540SOL    HW2 1892   3.348   6.094   5.737 -1.2488 -0.1240  0.1353
  540SOL    HW3 1893   3.342   6.096   5.586 -0.4965 -0.1143  0.1014
  540SOL    MW4 1894   3.344   6.138   5.662  0.1904  0.2593 -0.4085
  541SOL     OW 1895   0.931   4.471   3.402  0.2935  0.4466 -0.1469
  541SOL    HW2 1896   0.944   4.499   3.312 -0.7210 -1.0202 -0.7929
  541SOL    HW3 1897   1.003   4.411   3.420  1.0541  1.4768  0.3922
  541SOL    MW4 1898   0.942   4.467   3.393  0.3195  0.0531  0.5202
  542SOL     OW 1899   2.517   2.324   5.517  0.1800  0.4036 -0.1228
  542SOL    HW2 1900   2.601   2.310   5.560 -0.0944  0.3907  0.4220
  542SOL    HW3 1901   2.537   2.323   5.424  0.6216 -0.7161 -0.0288
  542SOL    MW4 1902   2.530   2.322   5.511 -0.2685  0.2145 -0.7056
  543SOL     OW 1903   1.705   1.168   6.225  0.4545 -0.4388  0.1527
  543SOL    HW2 1904   1.629   1.172   6.283 -0.4677 -0.1274 -1.0382
  543SOL    HW3 1905   1.714   1.257   6.191  2.5046  0.0136  1.6590
  543SOL    MW4 1906   1.696   1.180   6.228 -0.3398  0.0631 -0.1757
  544SOL     OW 1907   1.264   2.330   1.256 -0.3637  0.6336 -0.2425
  544SOL    HW2 1908   1.235   2.383   1.330  2.2786  0.4782  1.0138
  544SOL    HW3 1909   1.334   2.381   1.216  0.3945 -0.6849 -0.6583
  544SOL    MW4 1910   1.270   2.343   1.260 -0.2401  0.0073 -0.6704
  545SOL     OW 1911   4.318   3.114   3.383 -0.3058  0.1268 -0.9041
  545SOL    HW2 1912   4.358   3.169   3.450  0.1636  0.2399 -1.2760
  545SOL    HW3 1913   4.317   3.168   3.304 -0.8374 -0.0142 -0.9966
  545SOL    MW4 1914   4.323   3.128   3.381  0.1716 -0.1582 -0.3199
  546SOL     OW 1915   4.249   2.319   3.500  0.3184 -0.0467  0.2146
  546SOL    HW2 1916   4.235   2.227   3.478 -2.1511  0.5143 -1.0586
  546SOL    HW3 1917   4.161   2.353   3.517  1.2220  1.9485  1.2994
  546SOL    MW4 1918   4.235   2.311   3.499  0.6847 -0.2920 -0.3266
  547SOL     OW 1919   1.762   1.556   1.731 -0.0337  0.2323  0.0394
  547SOL    HW2 1920   1.780   1.467   1.759 -2.1042 -0.0147  0.8002
  547SOL    HW3 1921   1.844   1.603   1.744  0.6715 -1.2224  1.0668
  547SOL    MW4 1922   1.775   1.551   1.737  0.1597 -0.2158  0.4431
  548SOL     OW 1923   3.145   3.320   3.039 -0.3621  0.2497  0.0191
  548SOL    HW2 1924   3.114   3.261   2.970 -0.0611  0.6827 -0.5056
  548SOL    HW3 1925   3.115   3.407   3.010 -1.0065  0.3309  0.8950
  548SOL    MW4 1926   3.137   3.324   3.026 -0.3111 -0.3904  0.2755
  549SOL     OW 1927   4.505   2.531   5.755 -0.1280 -0.1645 -0.7115
  549SOL    HW2 1928   4.417   2.552   5.787 -0.0916 -0.4265 -0.4286
  549SOL    HW3 1929   4.490   2.495   5.668 -0.3498 -0.6907 -0.4614
  549SOL    MW4 1930   4.491   2.529   5.748  0.1013 -0.0386 -0.0811
  550SOL     OW 1931   5.423   3.214   5.059 -0.3604  0.1457  0.0983
  550SOL    HW2 1932   5.507   3.169   5.064 -0.2324  0.3278 -0.3810
  550SOL    HW3 1933   5.369   3.158   5.003 -0.7794 -0.3102  0.9374
  550SOL    MW4 1934   5.427   3.200   5.052  0.2753  0.8271  0.2943
  551SOL     OW 1935   3.459   2.017   5.824 -0.5130  0.0084  0.3059
  551SOL    HW2 1936   3.400   2.087   5.796 -0.3303  0.6737  1.5414
  551SOL    HW3 1937   3.444   2.008   5.918  0.8372 -0.3065  0.5150
  551SOL    MW4 1938   3.449   2.025   5.833  0.0231 -0.0492 -0.3979
  552SOL     OW 1939   5.487   4.483   3.851  0.2702  0.1241  0.1956
  552SOL    HW2 1940   5.509   4.564   3.899  0.8259  0.6919 -0.9786
  552SOL    HW3 1941   5.534   4.414   3.898  1.0217  0.7059  0.3250
  552SOL    MW4 1942   5.496   4.485   3.864 -0.0096  0.6708 -0.3316
  553SOL     OW 1943   3.174   4.317   3.376 -0.1816  0.5034 -0.1239
  553SOL    HW2 1944   3.205   4.405   3.395 -1.7489  1.3815 -1.3345
  553SOL    HW3 1945   3.242   4.279   3.321  1.3367  0.2618  1.8319
  553SOL    MW4 1946   3.187   4.324   3.371  0.1404 -0.5691 -0.7237
  554SOL     OW 1947   1.929   2.629   0.472  0.5763 -0.7038  0.2673
  554SOL    HW2 1948   1.965   2.635   0.384 -3.3209  0.3444 -1.4552
  554SOL    HW3 1949   1.959   2.709   0.516  0.7953 -0.1667 -0.8432
  554SOL    MW4 1950   1.938   2.641   0.466  0.2997 -0.1318 -0.3951
  555SOL     OW 1951   6.015   5.026   4.368  0.1937  0.0352  0.2363
  555SOL    HW2 1952   5.984   5.090   4.431 -0.0877 -0.2754  0.4163
  555SOL    HW3 1953   5.940   4.968   4.353  0.4878 -0.3422  0.1933
  555SOL    MW4 1954   6.001   5.027   4.374 -0.0111  0.2848 -0.8798
  556SOL     OW 1955   0.711   3.865   1.445  0.6123  0.7825  0.2530
  556SOL    HW2 1956   0.665   3.814   1.378  0.2476  1.1982  0.1878
  556SOL    HW3 1957   0.705   3.811   1.524  2.2463 -0.3714 -0.3596
  556SOL    MW4 1958   0.704   3.851   1.447  0.1925  0.3876  0.0869
  557SOL     OW 1959   0.972   6.102   5.992  0.4676  0.9017 -0.4584
  557SOL    HW2 1960   0.888   6.126   5.953  1.0847  0.6461 -2.0450
  557SOL    HW3 1961   1.004   6.030   5.938  1.9502  1.3553 -0.2404
  557SOL    MW4 1962   0.965   6.096   5.980  0.1495 -0.9885  0.0004
  558SOL     OW 1963   6.108   3.869   0.301 -0.3581 -0.4772 -0.1678
  558SOL    HW2 1964   6.079   3.841   0.214  1.6205  0.1025 -1.0705
  558SOL    HW3 1965   6.123   3.787   0.349 -0.7032 -0.8166 -0.6303
  558SOL    MW4 1966   6.106   3.854   0.296  0.3469 -0.3735  0.4111
  559SOL     OW 1967   0.154   0.953   2.529  1.0714 -0.2149 -0.1885
  559SOL    HW2 1968   0.076   0.899   2.517  0.2752  0.6464  0.9035
  559SOL    HW3 1969   0.198   0.913   2.605  1.9322 -0.9489 -1.0533
  559SOL    MW4 1970   0.150   0.940   2.538  0.0121 -0.0727 -0.4706
  560SOL     OW 1971   3.483   3.722   2.497  0.3859  0.5220  0.3445
  560SOL    HW2 1972   3.488   3.627   2.486 -0.3270  0.5734 -0.5676
  560SOL    HW3 1973   3.534   3.740   2.576 -0.8673 -0.7912  1.5109
  560SOL    MW4 1974   3.491   3.712   2.506  0.5202  0.0141 -0.1726
  561SOL     OW 1975   4.234   2.993   5.063 -0.1921  0.2478 -0.1070
  561SOL    HW2 1976   4.235   2.944   4.981 -1.1618  0.3560 -0.1957
  561SOL    HW3 1977   4.326   3.010   5.082  0.1864 -1.6356 -0.0535
  561SOL    MW4 1978   4.246   2.988   5.054  0.1457 -0.1880 -0.1685
  562SOL     OW 1979   6.412   5.040   5.661  0.4409  0.2303  0.3476
  562SOL    HW2 1980   6.465   4.961   5.666  0.9704  0.4910 -0.8535
  562SOL    HW3 1981   6.474   5.111   5.682  0.8585  0.6252 -1.9442
  562SOL    MW4 1982   6.427   5.039   5.665  0.6393 -0.1491 -0.4379
  563SOL     OW 1983   2.864   1.875   3.005 -0.1757 -0.0475 -0.0437
  563SOL    HW2 1984   2.896   1.821   2.933  0.2850 -1.6844  1.3421
  563SOL    HW3 1985   2.826   1.813   3.067  0.8646  1.1391  1.8722
  563SOL    MW4 1986   2.863   1.860   3.004  0.1082 -0.0291  0.0512
  564SOL     OW 1987   0.234   3.577   3.837  0.0131 -0.0057  0.3081
  564SOL    HW2 1988   0.264   3.490   3.811 -1.2064 -0.5044  0.5400
  564SOL    HW3 1989   0.313   3.620   3.871  1.2084 -0.0947 -2.1175
  564SOL    MW4 1990   0.249   3.571   3.838  0.6200  0.4022 -0.3147
  565SOL     OW 1991   0.795   5.183   0.900  0.4320  0.0207  0.4451
  565SOL    HW2 1992   0.868   5.122   0.909  1.7676  1.1832 -1.6359
  565SOL    HW3 1993   0.718   5.128   0.888  1.4719 -1.2604 -0.6152
  565SOL    MW4 1994   0.795   5.168   0.900 -0.2105 -0.3290 -0.2132
  566SOL     OW 1995   3.273   2.052   1.762  0.0364 -0.3477 -0.3265
  566SOL    HW2 1996   3.294   2.105   1.839  1.6647  1.1520 -1.7127
  566SOL    HW3 1997   3.186   2.017   1.781 -1.0513  2.6163  0.8229
  566SOL    MW4 1998   3.264   2.055   1.775  0.3540 -0.3607 -1.1648
  567SOL     OW 1999   1.141   1.739   0.096 -0.3558 -0.2118  0.3867
  567SOL    HW2 2000   1.186   1.752   0.179 -0.3714  1.5128  0.1664
  567SOL    HW3 2001   1.168   1.814   0.042  0.9853 -2.1217 -1.7912
  567SOL    MW4 2002   1.151   1.751   0.100 -0.3064  0.5370  0.5041
  568SOL     OW 2003   2.274   4.574   2.935  0.5298  0.4380  0.2296
  568SOL    HW2 2004   2.305   4.487   2.909 -0.9224 -0.1908  0.5054
  568SOL    HW3 2005   2.353   4.623   2.956  1.4246 -0.5664 -0.6864
  568SOL    MW4 2006   2.288   4.569   2.934 -0.6102 -0.2247 -0.4844
  569SOL     OW 2007   3.969   3.996   6.116  0.2809 -0.3458  0.0857
  569SOL    HW2 2008   4.020   3.914   6.118  0.3118 -0.3249  0.2116
  569SOL    HW3 2009   4.030   4.061   6.083  0.4950 -0.2176  0.7100
  569SOL    MW4 2010   3.984   3.993   6.112 -0.1711 -0.5968  0.2988
  570SOL     OW 2011   2.427   2.627   6.343  0.6828  0.0613 -0.0086
  570SOL    HW2 2012   2.454   2.553   6.289  0.9221  1.0438 -1.2863
  570SOL    HW3 2013   2.495   2.635   6.409  2.0900  0.7506 -1.4714
  570SOL    MW4 2014   2.439   2.619   6.344  0.2884 -0.2478  0.1600
  571SOL     OW 2015   6.134   0.078   4.141 -0.2160 -0.0842 -0.1874
  571SOL    HW2 2016   6.217   0.051   4.102  0.2529  1.6539 -0.4643
  571SOL    HW3 2017   6.139   0.174   4.145 -2.0932  0.0399  0.0450
  571SOL    MW4 2018   6.145   0.087   4.136 -0.0927 -0.4558 -0.0619
  572SOL     OW 2019   6.227   5.359   0.026  0.0818 -0.4302  0.6403
  572SOL    HW2 2020   6.230   5.415   0.103  0.3213 -2.3097  2.0987
  572SOL    HW3 2021   6.134   5.350   0.006 -0.0783 -1.0084  1.5878
  572SOL    MW4 2022   6.215   5.365   0.034  0.5774  0.7548 -0.3758
  573SOL     OW 2023   4.398   1.946   4.199 -0.0290  0.0634  0.0362
  573SOL    HW2 2024   4.478   1.925   4.151  1.0067  0.8683  1.3375
  573SOL    HW3 2025   4.386   1.874   4.260  0.1966  0.3532  0.4284
  573SOL    MW4 2026   4.407   1.934   4.200  0.4071  0.5089 -0.1081
  574SOL     OW 2027   4.861   5.831   3.571  0.9091  0.1007  0.1875
  574SOL    HW2 2028   4.903   5.765   3.627  0.6488 -1.2652 -1.1496
  574SOL    HW3 2029   4.892   5.810   3.483 -0.7111  0.5506 -0.5220
  574SOL    MW4 2030   4.871   5.819   3.567  0.3571 -0.2411 -0.1865
  575SOL     OW 2031   3.070   4.427   0.696  0.0546  0.2239  0.0193
  575SOL    HW2 2032   3.124   4.503   0.671 -0.8776  1.0517  0.4333
  575SOL    HW3 2033   3.001   4.424   0.630  0.9396 -1.2267 -0.8824
  575SOL    MW4 2034   3.068   4.437   0.684  0.5429  0.2722 -0.0120
  576SOL     OW 2035   0.453   0.582   2.331 -0.1040 -0.3875 -0.1058
  576SOL    HW2 2036   0.449   0.550   2.241  1.8325  0.1999 -0.4547
  576SOL    HW3 2037   0.450   0.677   2.323 -0.1051 -0.3346  0.4757
  576SOL    MW4 2038   0.452   0.590   2.318  0.0964 -0.4334  0.6012
  577SOL     OW 2039   3.164   1.423   2.514 -0.0280  0.2017  0.2321
  577SOL    HW2 2040   3.100   1.353   2.504 -1.1910  1.1235  1.0310
  577SOL    HW3 2041   3.229   1.388   2.575 -0.7381 -0.1044  0.8259
  577SOL    MW4 2042   3.164   1.409   2.521  0.7232  0.2114 -0.3709
  578SOL     OW 2043   1.893   2.934   5.460  0.1194 -0.3498 -0.4286
  578SOL    HW2 2044   1.959   2.864   5.454  0.1226 -0.4648  0.6768
  578SOL    HW3 2045   1.809   2.889   5.459  0.0402 -0.1988 -1.8910
  578SOL    MW4 2046   1.891   2.919   5.459 -0.0428  0.3745  0.8136
  579SOL     OW 2047   5.214   0.288   2.365  0.2816 -0.6401  0.5439
  579SOL    HW2 2048   5.173   0.363   2.321 -1.5613 -1.6118  0.5110
  579SOL    HW3 2049   5.263   0.243   2.295  0.4260 -0.1380  0.3162
  579SOL    MW4 2050   5.215   0.292   2.350  0.7760 -0.5545  0.4137
  580SOL     OW 2051   6.297   2.900   2.230  0.1137 -0.1008 -0.2722
  580SOL    HW2 2052   6.374   2.845   2.214  1.2619  0.9019  1.5497
  580SOL    HW3 2053   6.305   2.971   2.167  1.5493  0.8204  0.9017
  580SOL    MW4 2054   6.308   2.902   2.220  0.2486  0.2050  0.0522
  581SOL     OW 2055   4.059   0.925   6.344  1.1019 -0.1214 -0.8630
  581SOL    HW2 2056   4.054   0.892   6.434  2.0030 -1.4754 -1.2804
  581SOL    HW3 2057   3.999   1.000   6.343  1.0894 -0.0576  0.8624
  581SOL    MW4 2058   4.050   0.931   6.356 -0.2746 -0.2827 -0.1775
  582SOL     OW 2059   2.788   2.866   4.234 -0.7665 -0.7223 -0.1244
  582SOL    HW2 2060   2.815   2.837   4.322 -3.3541  1.3016  1.4819
  582SOL    HW3 2061   2.847   2.819   4.175  1.4760 -1.7921  2.6803
  582SOL    MW4 2062   2.799   2.856   4.238 -0.7791 -0.2811  0.1035
  583SOL     OW 2063   0.362   1.681   4.712  0.7108  0.8575  0.3714
  583SOL    HW2 2064   0.445   1.635   4.697  0.1745 -0.1532  0.3854
  583SOL    HW3 2065   0.295   1.624   4.674 -0.1145  0.9569  1.5997
  583SOL    MW4 2066   0.364   1.667   4.705  0.9710 -0.2222 -0.6341
  584SOL     OW 2067   0.397   4.175   3.006  0.3570 -0.3791  0.8924
  584SOL    HW2 2068   0.310   4.136   3.014  0.1622  0.0399  0.8438
  584SOL    HW3 2069   0.448   4.109   2.958 -0.6723  0.4744 -1.5848
  584SOL    MW4 2070   0.392   4.161   3.000  0.0766  0.5077 -0.1287
  585SOL     OW 2071   0.766   1.323   0.856 -0.2689  0.3361  0.4316
  585SOL    HW2 2072   0.761   1.231   0.882 -4.6206  0.5237  1.0248
  585SOL    HW3 2073   0.693   1.335   0.795  1.0339  3.1294 -0.7639
  585SOL    MW4 2074   0.755   1.312   0.851  0.5273  0.4231  0.0102
  586SOL     OW 2075   4.258   0.184   5.297  0.6388  0.2595  0.4948
  586SOL    HW2 2076   4.291   0.269   5.268  0.6447 -0.1014 -0.6414
  586SOL    HW3 2077   4.332   0.125   5.284  0.4600 -0.0200  0.7414
  586SOL    MW4 2078   4.272   0.187   5.291 -0.0503  0.3584 -0.2742
  587SOL     OW 2079   0.752   3.754   4.678  0.0142  0.5779 -0.1877
  587SOL    HW2 2080   0.779   3.801   4.757 -1.1488  0.1184  0.5017
  587SOL    HW3 2081   0.668   3.793   4.655 -0.8905 -1.0146  0.3032
  587SOL    MW4 2082   0.745   3.766   4.686  0.3929 -0.1496 -0.3334
  588SOL     OW 2083   1.994   0.676   5.639  0.4053 -0.3516 -0.4657
  588SOL    HW2 2084   2.027   0.766   5.647 -0.2516 -0.0741 -0.8378
  588SOL    HW3 2085   1.961   0.670   5.549 -0.0795 -0.7919 -0.2640
  588SOL    MW4 2086   1.994   0.687   5.628  0.7889 -0.3364  0.0733
  589SOL     OW 2087   5.397   3.655   1.167  0.0317 -0.1916 -0.2992
  589SOL    HW2 2088   5.466   3.646   1.233  0.2639 -0.3666 -0.5651
  589SOL    HW3 2089   5.361   3.567   1.158 -2.0306  0.3522  1.7656
  589SOL    MW4 2090   5.401   3.642   1.175  0.0022 -0.3659 -0.4689
  590SOL     OW 2091   2.824   0.908   4.063 -0.5498  0.2653  0.0654
  590SOL    HW2 2092   2.822   0.888   4.157  0.1741  1.2738  0.3182
  590SOL    HW3 2093   2.903   0.864   4.031 -1.5946 -1.3424 -0.4067
  590SOL    MW4 2094   2.834   0.900   4.071 -0.2358 -0.5432  0.3087
  591SOL     OW 2095   6.408   5.125   4.008 -0.0266  0.2650 -0.3962
  591SOL    HW2 2096   6.314   5.137   4.005 -0.0010  0.6322  0.0886
  591SOL    HW3 2097   6.438   5.186   4.076  0.3569 -1.0529  0.6713
  591SOL    MW4 2098   6.400   5.135   4.017  0.1876 -0.1067  0.9931
  592SOL     OW 2099   2.731   3.126   4.148  0.2979 -0.3189 -0.2749
  592SOL    HW2 2100   2.726   3.034   4.175 -1.9199 -0.6626 -1.6201
  592SOL    HW3 2101   2.782   3.125   4.067  0.1979 -0.3774 -0.3371
  592SOL    MW4 2102   2.737   3.114   4.141  0.0611  0.2492 -0.5379
  593SOL     OW 2103   1.269   2.342   5.606 -0.0873 -0.3351  0.0875
  593SOL    HW2 2104   1.258   2.412   5.542 -1.0715 -0.5368  0.0306
  593SOL    HW3 2105   1.181   2.313   5.627  0.3153 -2.0470 -0.4168
  593SOL    MW4 2106   1.256   2.348   5.600  0.0503 -0.1282  0.0638
  594SOL     OW 2107   4.817   4.570   0.956 -0.0271 -0.1050  0.0271
  594SOL    HW2 2108   4.805   4.477   0.934 -1.4493 -0.5934  2.4507
  594SOL    HW3 2109   4.747   4.615   0.909  0.7443 -0.2232 -1.2583
  594SOL    MW4 2110   4.806   4.563   0.947  0.3071  0.1870  0.4239
  595SOL     OW 2111   5.050   4.664   0.785 -0.2132  0.2395  0.1276
  595SOL    HW2 2112   4.979   4.618   0.830  1.7560 -1.6201  1.5180
  595SOL    HW3 2113   5.086   4.599   0.725  0.2861  1.1831 -0.6130
  595SOL    MW4 2114   5.045   4.649   0.783  0.1840 -0.1227 -0.3230
  596SOL     OW 2115   5.337   2.059   5.928  0.6602 -0.2286 -0.4072
  596SOL    HW2 2116   5.277   2.038   5.856  0.9355  0.7215 -0.9351
  596SOL    HW3 2117   5.391   1.980   5.937  0.3655 -0.5052 -0.9850
  596SOL    MW4 2118   5.336   2.046   5.919 -0.0668 -0.1825  0.3027
  597SOL     OW 2119   4.040   1.417   4.715 -0.4455  0.2406  0.1566
  597SOL    HW2 2120   4.073   1.330   4.735  1.1578  0.5257 -0.9602
  597SOL    HW3 2121   4.113   1.475   4.735 -0.0402  0.8936 -2.6698
  597SOL    MW4 2122   4.054   1.413   4.720 -0.0828 -0.5205  0.6066
  598SOL     OW 2123   1.201   5.405   4.695 -0.2700  0.0566  1.0523
  598SOL    HW2 2124   1.260   5.331   4.685 -1.8402 -0.9963 -1.0884
  598SOL    HW3 2125   1.120   5.378   4.651 -0.6732  3.2740 -0.4828
  598SOL    MW4 2126   1.198   5.392   4.688  0.0025 -0.3366 -0.4893
  599SOL     OW 2127   2.696   3.296   6.240 -0.7543  0.4609  0.0124
  599SOL    HW2 2128   2.708   3.382   6.198  0.4706 -0.4600 -1.6397
  599SOL    HW3 2129   2.705   3.233   6.169 -2.4645 -1.0489  1.0422
  599SOL    MW4 2130   2.699   3.299   6.225  0.4037 -0.4865 -0.0664
  600SOL     OW 2131   5.790   0.013   0.459  0.5793  0.1095 -0.1184
  600SOL    HW2 2132   5.845   0.010   0.381  0.2544  1.3839 -0.4236
  600SOL    HW3 2133   5.782   0.106   0.479  0.1482 -0.1643  1.0801
  600SOL    MW4 2134   5.796   0.025   0.451  0.1900 -0.2483  0.2992
  601SOL     OW 2135   5.588   5.476   5.397 -0.3747 -1.0033  0.2440
  601SOL    HW2 2136   5.534   5.555   5.391 -1.2665 -1.6592 -0.4993
  601SOL    HW3 2137   5.546   5.413   5.338  0.5082 -1.9322  0.5830
  601SOL    MW4 2138   5.575   5.478   5.388  0.3607  1.2089  0.1173
  602SOL     OW 2139   5.711   3.951   4.368  0.5303  0.8041  0.4676
  602SOL    HW2 2140   5.674   4.016   4.308 -2.0305  0.6203  1.6919
  602SOL    HW3 2141   5.706   3.993   4.455  1.8671  0.1586  0.8805
  602SOL    MW4 2142   5.705   3.965   4.372 -0.1573 -0.3798  0.4445
  603SOL     OW 2143   4.753   4.017   3.206  0.2184 -0.5666  0.6313
  603SOL    HW2 2144   4.714   3.936   3.238 -0.1125  0.7116  3.7825
  603SOL    HW3 2145   4.699   4.086   3.243  2.0604  1.1392  0.2730
  603SOL    MW4 2146   4.741   4.015   3.215 -0.4698 -0.1969 -0.4300
  604SOL     OW 2147   0.013   1.782   3.071 -0.3127 -0.1551  0.1096
  604SOL    HW2 2148  -0.027   1.765   2.985 -1.7521 -1.0551  0.8981
  604SOL    HW3 2149  -0.019   1.869   3.095  1.9683  1.1253 -1.2196
  604SOL    MW4 2150   0.003   1.791   3.062 -0.2906 -0.3985  0.0781
  605SOL     OW 2151   4.286   1.352   4.015 -0.0479 -0.2500  0.0817
  605SOL    HW2 2152   4.246   1.437   3.997 -0.2546 -0.3194  0.2169
  605SOL    HW3 2153   4.274   1.302   3.934  1.1293  0.2553 -0.4264
  605SOL    MW4 2154   4.279   1.356   4.002 -0.2764 -0.2287  0.7098
  606SOL     OW 2155   5.033   0.802   4.179 -0.4431  0.1857  0.1252
  606SOL    HW2 2156   5.072   0.880   4.139 -0.0349 -0.4401 -0.7200
  606SOL    HW3 2157   5.011   0.746   4.106 -1.5360 -0.1444  0.6806
  606SOL    MW4 2158   5.035   0.805   4.164 -0.4447  0.6678  0.2671
  607SOL     OW 2159   3.908   0.065   0.865 -0.1373 -0.0897  0.2824
  607SOL    HW2 2160   3.908  -0.028   0.844 -1.9376  0.4844 -2.7807
  607SOL    HW3 2161   3.820   0.081   0.900 -0.5933  0.7975 -1.2078
  607SOL    MW4 2162   3.896   0.055   0.867 -0.3476 -0.0839 -0.2942
  608SOL     OW 2163   1.213   1.000   1.887 -0.4196  0.0117 -0.2239
  608SOL    HW2 2164   1.126   0.971   1.913  0.3782 -1.7149  0.7269
  608SOL    HW3 2165   1.233   1.073   1.945 -0.6559 -0.5478  0.5726
  608SOL    MW4 2166   1.205   1.005   1.898 -0.0351 -0.0730 -0.0932
  609SOL     OW 2167   0.658   4.908   5.756  0.9911  0.4049  0.6884
  609SOL    HW2 2168   0.693   4.981   5.706 -0.3736  1.4919  1.2617
  609SOL    HW3 2169   0.734   4.852   5.774  1.4985 -0.2768 -2.9066
  609SOL    MW4 2170   0.673   4.910   5.752  0.1004  0.1368 -0.3120
  610SOL     OW 2171   0.416   1.652   5.201  0.3532  0.3617  0.4352
  610SOL    HW2 2172   0.448   1.741   5.186 -0.8317  0.9274  1.1722
  610SOL    HW3 2173   0.370   1.628   5.121  1.2378  0.1441 -0.0201
  610SOL    MW4 2174   0.414   1.661   5.188 -0.0629 -0.1519 -0.9577
  611SOL     OW 2175   2.626   5.508   5.449 -0.6965  0.0708  0.4567
  611SOL    HW2 2176   2.541   5.483   5.413 -2.1395  2.8359  1.6255
  611SOL    HW3 2177   2.605   5.561   5.526  2.1197  0.1890  1.2669
  611SOL    MW4 2178   2.612   5.512   5.454 -0.1745 -0.3300 -0.4043
  612SOL     OW 2179   0.525   5.378   0.400 -0.0293 -0.2644 -0.2333
  612SOL    HW2 2180   0.551   5.291   0.369 -0.6634 -0.1887 -1.0286
  612SOL    HW3 2181   0.455   5.360   0.464  0.2380 -0.3618  0.0327
  612SOL    MW4 2182   0.519   5.364   0.405  0.3161  0.2070  0.6867
  613SOL     OW 2183   1.261   4.002   0.622  0.0345  0.3640 -0.3796
  613SOL    HW2 2184   1.172   4.038   0.626 -0.6282 -1.2620  0.6705
  613SOL    HW3 2185   1.260   3.945   0.545  0.2585  0.5832 -0.5430
  613SOL    MW4 2186   1.249   3.999   0.612 -0.3600 -0.4697  0.0278
  614SOL     OW 2187   5.315   4.220   5.572  0.1229 -0.5448  0.4216
  614SOL    HW2 2188   5.323   4.210   5.667 -1.3466 -0.4368  0.5861
  614SOL    HW3 2189   5.244   4.284   5.561  1.3211  0.6323 -0.7481
  614SOL    MW4 2190   5.307   4.227   5.583 -0.5330  0.3115  0.5151
  615SOL     OW 2191   2.607   0.101   4.754  0.4113 -0.0436  0.5855
  615SOL    HW2 2192   2.516   0.112   4.725 -0.0875 -1.3585  1.5910
  615SOL    HW3 2193   2.611   0.147   4.837 -0.1796 -2.4217  2.0168
  615SOL    MW4 2194   2.595   0.108   4.761 -0.1718  0.1479  0.1345
  616SOL     OW 2195   4.962   1.168   0.558  0.4381  0.0716 -0.2347
  616SOL    HW2 2196   4.986   1.252   0.519  1.3309 -0.0854 -0.0492
  616SOL    HW3 2197   4.892   1.190   0.619 -0.6804  0.3846 -1.5889
  616SOL    MW4 2198   4.956   1.182   0.561 -0.2140  0.4247  0.0773
  617SOL     OW 2199   3.418   5.061   1.589 -0.0593 -0.2587  0.0143
  617SOL    HW2 2200   3.342   5.030   1.540  1.3035  0.2066 -2.6049
  617SOL    HW3 2201   3.457   4.981   1.626 -0.4252 -0.8293 -0.7959
  617SOL    MW4 2202   3.413   5.046   1.587 -0.7946 -0.0822  0.3356
  618SOL     OW 2203   1.462   4.828   3.031  0.2532 -0.0229 -0.2725
  618SOL    HW2 2204   1.502   4.787   2.954  1.1287 -0.1445  0.2312
  618SOL    HW3 2205   1.440   4.916   3.003  0.7225 -0.0122 -0.6255
  618SOL    MW4 2206   1.465   4.834   3.017 -0.3519 -0.4508 -0.5948
  619SOL     OW 2207   0.489   6.043   5.043  0.4241 -0.1733 -0.2859
  619SOL    HW2 2208   0.519   5.953   5.052 -1.1283 -0.6806  0.0218
  619SOL    HW3 2209   0.414   6.050   5.102  0.6360  1.3864 -0.1551
  619SOL    MW4 2210   0.483   6.032   5.052 -0.3369  0.5297 -0.0144
  620SOL     OW 2211   1.259   4.351   3.659  0.2833  0.6656  0.8443
  620SOL    HW2 2212   1.349   4.377   3.681  0.5348  1.9162 -1.4036
  620SOL    HW3 2213   1.215   4.433   3.636 -0.3499 -0.2792 -1.6663
  620SOL    MW4 2214   1.265   4.365   3.659  0.0790  0.0137 -0.2980
  621SOL     OW 2215   1.641   0.752   5.575 -0.3124  0.1366 -0.8290
  621SOL    HW2 2216   1.666   0.671   5.531 -1.2834 -0.3475 -0.5023
  621SOL    HW3 2217   1.546   0.751   5.576 -0.3514  0.0169  1.4796
  621SOL    MW4 2218   1.632   0.742   5.569  0.0715 -0.2739 -0.2107
  622SOL     OW 2219   1.808   0.866   2.076  0.0467 -0.2188  0.5383
  622SOL    HW2 2220   1.867   0.934   2.106  0.8657 -0.1154 -1.2081
  622SOL    HW3 2221   1.728   0.878   2.128  1.5201 -0.3882  2.9758
  622SOL    MW4 2222   1.805   0.876   2.087 -0.4394 -0.4793  0.3897
  623SOL     OW 2223   4.228   1.113   6.046 -0.0951  0.0632 -0.4648
  623SOL    HW2 2224   4.286   1.052   6.092 -1.0451 -1.5697 -1.3283
  623SOL    HW3 2225   4.200   1.175   6.113  0.9407 -0.4272  0.4465
  623SOL    MW4 2226   4.232   1.113   6.061  0.0701  0.1292 -0.2577
  624SOL     OW 2227   0.423   5.310   3.519 -0.3269  0.1507  0.3860
  624SOL    HW2 2228   0.370   5.389   3.522 -1.3385 -0.5279  0.9989
  624SOL    HW3 2229   0.445   5.300   3.426 -2.0545 -0.0243 -0.0436
  624SOL    MW4 2230   0.418   5.319   3.507 -0.2585  0.2790  0.2954
  625SOL     OW 2231   3.244   5.799   6.380  0.0536 -0.5898  0.5805
  625SOL    HW2 2232   3.201   5.803   6.466 -0.5018  1.4512  0.2790
  625SOL    HW3 2233   3.241   5.890   6.348  1.4399 -1.0589 -1.0220
  625SOL    MW4 2234   3.238   5.812   6.387 -0.1606  0.8830  0.8975
  626SOL     OW 2235   2.979   1.198   2.447  0.6418 -0.2519  0.1478
  626SOL    HW2 2236   2.951   1.136   2.514  1.7243 -3.1261 -1.8755
  626SOL    HW3 2237   3.037   1.147   2.390 -1.0570  1.6755 -3.6176
  626SOL    MW4 2238   2.983   1.183   2.448 -0.2603  0.5740  0.4620
  627SOL     OW 2239   1.157   0.634   4.658  0.0907  0.3900  0.1102
  627SOL    HW2 2240   1.224   0.635   4.727  0.3592  0.3537 -0.1440
  627SOL    HW3 2241   1.121   0.723   4.658  0.3412  0.4930  0.0581
  627SOL    MW4 2242   1.161   0.646   4.667  0.5315  0.4559 -0.1350
  628SOL     OW 2243   3.132   0.421   4.636  0.1048  0.2848 -0.3940
  628SOL    HW2 2244   3.102   0.485   4.701 -0.9330  1.3917 -1.8833
  628SOL    HW3 2245   3.080   0.343   4.653  1.3951 -0.2370  1.4572
  628SOL    MW4 2246   3.121   0.419   4.647 -0.0578  0.0826  0.3902
  629SOL     OW 2247   2.395   4.092   0.078 -0.2152 -0.0006  0.1237
  629SOL    HW2 2248   2.316   4.130   0.039 -0.0914 -0.2932 -0.4327
  629SOL    HW3 2249   2.427   4.032   0.011  3.7402  4.2116 -2.3860
  629SOL    MW4 2250   2.389   4.089   0.064 -0.4450 -0.2623 -0.0362
  630SOL     OW 2251   3.878   0.044   5.209  0.1086 -0.8288  0.4343
  630SOL    HW2 2252   3.795   0.092   5.215 -0.1773 -1.3489  0.7352
  630SOL    HW3 2253   3.941   0.109   5.177 -0.3790 -0.3873  0.3514
  630SOL    MW4 2254   3.875   0.059   5.206  0.0690 -0.5580 -1.2085
  631SOL     OW 2255   5.391   2.268   4.631  0.4532  0.4671  0.0250
  631SOL    HW2 2256   5.368   2.268   4.538 -1.4519  0.2792  0.4619
  631SOL    HW3 2257   5.474   2.315   4.635 -0.7394  2.9112 -1.5093
  631SOL    MW4 2258   5.399   2.275   4.619  0.2368 -0.6589 -0.2367
  632SOL     OW 2259   6.048   1.672   1.377 -0.2058  0.0473  0.7894
  632SOL    HW2 2260   6.096   1.619   1.314  0.5840  3.0459 -1.3757
  632SOL    HW3 2261   6.106   1.676   1.453 -0.2265 -1.9319  0.9616
  632SOL    MW4 2262   6.062   1.666   1.379  0.3740  0.5939  0.2227
  633SOL     OW 2263   4.826   3.019   5.545 -0.0252  0.3542  0.3366
  633SOL    HW2 2264   4.754   3.000   5.486 -0.0953  0.1298  0.4926
  633SOL    HW3 2265   4.786   3.067   5.617 -0.3699 -1.3269  1.3310
  633SOL    MW4 2266   4.811   3.023   5.547 -0.0463 -0.1343  0.6862
  634SOL     OW 2267   4.515   0.956   1.578 -0.1159 -0.4200 -0.6753
  634SOL    HW2 2268   4.610   0.946   1.591 -0.1569  0.1573  0.1554
  634SOL    HW3 2269   4.479   0.871   1.602  0.0121  0.0011  1.2389
  634SOL    MW4 2270   4.523   0.944   1.583  0.4200 -0.1793 -0.1305
  635SOL     OW 2271   5.240   1.863   5.205  1.1034  0.3951  0.2733
  635SOL    HW2 2272   5.265   1.931   5.142  0.5772 -0.2844 -0.6944
  635SOL    HW3 2273   5.153   1.835   5.177  0.3027  0.9483  2.0690
  635SOL    MW4 2274   5.232   1.868   5.193 -0.2465 -0.5331 -0.5704
  636SOL     OW 2275   5.364   2.427   5.009  0.1413 -0.4302 -0.5650
  636SOL    HW2 2276   5.447   2.451   4.966 -0.6006  0.1015 -1.7451
  636SOL    HW3 2277   5.347   2.498   5.070  0.5232 -0.5200 -0.3468
  636SOL    MW4 2278   5.373   2.439   5.011  0.3572  0.1290  0.5215
  637SOL     OW 2279   5.137   3.397   1.695  0.3492 -0.0813 -0.4394
  637SOL    HW2 2280   5.163   3.331   1.760  2.6246 -0.5495 -1.7122
  637SOL    HW3 2281   5.130   3.478   1.745 -1.1104 -0.9710  0.9064
  637SOL    MW4 2282   5.140   3.399   1.710 -0.7948  0.0371  0.0993
  638SOL     OW 2283   1.532   4.310   1.648 -0.5108  0.6758 -0.1600
  638SOL    HW2 2284   1.460   4.349   1.697  0.8513  2.4643  0.5170
  638SOL    HW3 2285   1.570   4.245   1.708 -1.2155  0.0799 -0.3393
  638SOL    MW4 2286   1.527   4.306   1.662 -0.2209 -0.0657  0.1166
  639SOL     OW 2287   0.182   1.730   2.308  0.2547 -0.4231  0.3474
  639SOL    HW2 2288   0.145   1.659   2.256  3.3269 -1.1377 -1.0682
  639SOL    HW3 2289   0.180   1.806   2.250  1.2249 -0.5369  0.1606
  639SOL    MW4 2290   0.177   1.731   2.294 -0.7107  0.4188 -0.1927
  640SOL     OW 2291   6.274   4.387   2.737  0.5328 -0.8497 -0.5114
  640SOL    HW2 2292   6.294   4.455   2.673  0.7361  0.1562  0.5956
  640SOL    HW3 2293   6.356   4.374   2.785 -0.4920  1.0633  1.9680
  640SOL    MW4 2294   6.288   4.394   2.735  0.0478  0.2878  0.0975
  641SOL     OW 2295   6.109   0.789   4.956  0.4494 -0.1404  0.0936
  641SOL    HW2 2296   6.138   0.859   4.897 -2.4338  0.5919 -0.5978
  641SOL    HW3 2297   6.133   0.708   4.910 -0.3172  0.4192 -1.3456
  641SOL    MW4 2298   6.116   0.788   4.942 -0.1548 -0.7661  0.3838
  642SOL     OW 2299   1.820   0.322   5.896  0.0918 -0.1161  0.1798
  642SOL    HW2 2300   1.874   0.399   5.912 -0.9352  0.9336 -1.2183
  642SOL    HW3 2301   1.840   0.297   5.806  0.5796 -1.6505  0.6832
  642SOL    MW4 2302   1.830   0.329   5.887 -0.4757  0.0114  0.4596
  643SOL     OW 2303   3.702   3.542   3.874  0.0753 -0.4017 -0.1148
  643SOL    HW2 2304   3.612   3.541   3.843  0.0471 -0.9004 -0.0146
  643SOL    HW3 2305   3.697   3.584   3.960 -0.2443 -1.5399  0.4438
  643SOL    MW4 2306   3.690   3.547   3.881 -0.4703  0.2984 -0.7468
  644SOL     OW 2307   1.383   1.321   3.083 -0.0883 -0.5128 -0.3310
  644SOL    HW2 2308   1.376   1.233   3.120  0.1521 -0.7907 -0.9339
  644SOL    HW3 2309   1.298   1.361   3.101  0.4225 -0.2113  1.5700
  644SOL    MW4 2310   1.371   1.315   3.090  0.2383  0.1892 -0.0012
  645SOL     OW 2311   2.046   5.782   2.911  0.1912 -0.4653 -0.0766
  645SOL    HW2 2312   1.962   5.736   2.916 -0.0627  0.1023  1.3084
  645SOL    HW3 2313   2.023   5.870   2.883  0.5528 -0.8199 -1.5750
  645SOL    MW4 2314   2.032   5.788   2.908 -0.4260  0.3622  0.2311
  646SOL     OW 2315   3.174   2.755   1.940  0.1579  0.5343 -0.5519
  646SOL    HW2 2316   3.164   2.850   1.930 -0.4386  0.3778 -1.6681
  646SOL    HW3 2317   3.267   2.740   1.923  0.3538  0.9577  0.0911
  646SOL    MW4 2318   3.185   2.766   1.936 -0.0265  0.2412  0.0421
  647SOL     OW 2319   3.397   3.882   5.282 -0.2775  0.3344  0.0962
  647SOL    HW2 2320   3.389   3.808   5.223 -0.2946 -0.7437  1.3937
  647SOL    HW3 2321   3.434   3.845   5.362  0.8173  1.9448  0.3934
  647SOL    MW4 2322   3.401   3.868   5.285  0.1878 -0.6702 -0.3329
  648SOL     OW 2323   3.791   3.746   4.112 -0.5381 -0.5300  0.5905
  648SOL    HW2 2324   3.720   3.726   4.174 -0.9756  0.8002  0.5571
  648SOL    HW3 2325   3.867   3.763   4.167 -0.9467  0.7305  0.7917
  648SOL    MW4 2326   3.791   3.746   4.128 -0.2869  0.3344 -0.3106
  649SOL     OW 2327   1.292   0.614   5.909 -0.0507 -0.0246  0.1345
  649SOL    HW2 2328   1.287   0.627   6.004  2.2745 -2.1829  0.6474
  649SOL    HW3 2329   1.367   0.666   5.882 -1.0506  1.0500 -0.6800
  649SOL    MW4 2330   1.301   0.623   5.918 -0.3445  0.1886 -0.6603
  650SOL     OW 2331   1.032   2.531   3.632 -0.4950  0.0338  0.2436
  650SOL    HW2 2332   1.090   2.606   3.647 -1.3369  0.5877  0.8270
  650SOL    HW3 2333   0.985   2.521   3.715 -1.9324  0.2286 -0.5169
  650SOL    MW4 2334   1.034   2.540   3.645 -0.3007  0.0504 -0.4319
  651SOL     OW 2335   3.540   2.014   4.210  0.5006 -0.3370  0.8780
  651SOL    HW2 2336   3.599   2.014   4.285  1.7917 -0.9813 -0.0999
  651SOL    HW3 2337   3.462   1.968   4.242 -0.2939  2.0496  2.7217
  651SOL    MW4 2338   3.537   2.008   4.224 -0.3506  0.6648 -0.3183
  652SOL     OW 2339   1.532   1.008   1.322 -0.6608 -0.2610 -0.1637
  652SOL    HW2 2340   1.519   0.945   1.393  0.9182 -0.1597  0.2521
  652SOL    HW3 2341   1.602   0.970   1.269 -0.2998  0.7304 -0.4124
  652SOL    MW4 2342   1.539   0.994   1.324 -0.3337 -0.0268  0.6774
  653SOL     OW 2343   5.344   0.535   4.485  0.5841  0.2217  0.1106
  653SOL    HW2 2344   5.385   0.475   4.547 -1.6093 -1.9458 -0.3755
  653SOL    HW3 2345   5.402   0.534   4.408  0.6843 -1.1294  0.1932
  653SOL    MW4 2346   5.357   0.527   4.483  0.0181 -0.1575 -0.8966
  654SOL     OW 2347   5.077   0.020   0.631 -0.4321  0.0793  0.1400
  654SOL    HW2 2348   5.046   0.004   0.542  0.2976 -0.8310  0.0407
  654SOL    HW3 2349   5.106   0.111   0.631  1.8756 -0.5856 -1.2654
  654SOL    MW4 2350   5.077   0.030   0.619 -0.3853 -0.5387  0.1272
  655SOL     OW 2351   3.610   1.410   2.474  0.3404  0.5718  0.2252
  655SOL    HW2 2352   3.665   1.483   2.501  1.7125 -0.9123  1.6984
  655SOL    HW3 2353   3.562   1.386   2.554 -0.6125  0.2931 -0.4162
  655SOL    MW4 2354   3.611   1.416   2.488 -0.4257  0.1459 -0.0914
  656SOL     OW 2355   5.486   3.222   5.528 -0.1600  0.3457  0.0323
  656SOL    HW2 2356   5.498   3.279   5.604  0.8522 -0.0696  0.2017
  656SOL    HW3 2357   5.455   3.280   5.459 -0.7861  0.7879  0.6694
  656SOL    MW4 2358   5.483   3.237   5.529 -0.6548  0.4915 -0.1449
  657SOL     OW 2359   4.660   0.275   2.661 -0.2887  0.3487  0.0990
  657SOL    HW2 2360   4.675   0.254   2.753 -2.5851 -0.3961  0.3655
  657SOL    HW3 2361   4.713   0.353   2.645  1.9417 -0.8347  1.3953
  657SOL    MW4 2362   4.669   0.283   2.671  0.0057 -0.3100 -0.4460
  658SOL     OW 2363   0.929   0.449   5.953  0.5601 -0.2581 -0.2971
  658SOL    HW2 2364   0.932   0.482   6.043  0.2367 -1.9693  0.3799
  658SOL    HW3 2365   0.840   0.418   5.941  0.3045  0.8709 -1.5950
  658SOL    MW4 2366   0.918   0.449   5.963 -0.0879  0.7183  0.5406
  659SOL     OW 2367   5.134   4.349   2.877 -0.1053 -0.0523  0.4837
  659SOL    HW2 2368   5.088   4.319   2.799  0.3324  0.0236  0.1940
  659SOL    HW3 2369   5.074   4.410   2.919 -0.2333  0.1073  0.0653
  659SOL    MW4 2370   5.120   4.353   2.872  0.4529  0.4950 -0.1902
  660SOL     OW 2371   1.573   6.335   0.223 -0.2742 -0.1070  0.2149
  660SOL    HW2 2372   1.581   6.367   0.313 -1.7619 -0.0159  0.3363
  660SOL    HW3 2373   1.532   6.249   0.231  1.1070 -0.8424 -0.2970
  660SOL    MW4 2374   1.569   6.328   0.236  0.0845 -0.5212 -0.4836
  661SOL     OW 2375   5.274   2.104   0.298  0.5085 -0.5261  0.2212
  661SOL    HW2 2376   5.307   2.180   0.346 -0.5245 -1.0783  1.9185
  661SOL    HW3 2377   5.218   2.140   0.230  0.3495  0.2390  0.7549
  661SOL    MW4 2378   5.271   2.119   0.296  0.2745  0.4484 -0.6000
  662SOL     OW 2379   2.123   0.819   6.346 -0.2213 -0.1429 -0.2973
  662SOL    HW2 2380   2.164   0.748   6.296  0.0025  0.4900 -1.0313
  662SOL    HW3 2381   2.124   0.788   6.436  2.0552 -0.0918 -0.2427
  662SOL    MW4 2382   2.129   0.805   6.351  0.3208  0.2044  0.1859
  663SOL     OW 2383   4.088   4.160   1.526  0.1086 -0.3478 -0.2622
  663SOL    HW2 2384   4.009   4.115   1.494 -0.4012  0.5845 -0.3629
  663SOL    HW3 2385   4.158   4.096   1.513 -0.7114 -1.4138  0.3728
  663SOL    MW4 2386   4.087   4.145   1.520 -0.4155 -0.0842 -0.1887
  664SOL     OW 2387   2.623   1.488   2.047  0.0507  0.3207 -0.5645
  664SOL    HW2 2388   2.587   1.520   1.964 -0.5869  0.7807 -0.1121
  664SOL    HW3 2389   2.648   1.397   2.028  0.8902  0.7301 -1.5576
  664SOL    MW4 2390   2.622   1.480   2.033  0.1333  0.2015 -0.6092
  665SOL     OW 2391   3.991   2.736   5.120 -0.1729  0.4280 -0.0563
  665SOL    HW2 2392   3.928   2.707   5.053 -0.0290  2.2012 -1.0376
  665SOL    HW3 2393   4.075   2.735   5.075  0.4476 -1.3879  1.0826
  665SOL    MW4 2394   3.994   2.732   5.105  0.8297 -0.6509 -0.6104
  666SOL     OW 2395   0.016   5.973   6.129 -0.2101  0.7820  0.3039
  666SOL    HW2 2396  -0.060   5.997   6.077 -0.2400 -0.6586 -0.3841
  666SOL    HW3 2397   0.040   6.053   6.175 -3.3416  0.8179  2.1197
  666SOL    MW4 2398   0.009   5.986   6.128 -0.4366 -0.4204  0.0257
  667SOL     OW 2399   0.777   0.610   4.329  0.2662  0.3139 -0.0814
  667SOL    HW2 2400   0.703   0.558   4.298  0.6719 -1.6903  2.0255
  667SOL    HW3 2401   0.737   0.683   4.377 -0.3799 -0.5509  0.7341
  667SOL    MW4 2402   0.762   0.613   4.331 -0.6244 -0.3793 -0.5279
  668SOL     OW 2403   1.342   5.476   1.699 -0.2816  0.0654  0.5995
  668SOL    HW2 2404   1.301   5.486   1.785  0.0352  0.3271  0.7235
  668SOL    HW3 2405   1.269   5.473   1.638 -0.5266 -0.5148  0.9153
  668SOL    MW4 2406   1.327   5.477   1.703  0.2130 -0.7373 -0.0994
  669SOL     OW 2407   1.397   5.407   2.816  0.3718  0.5451 -0.0416
  669SOL    HW2 2408   1.428   5.485   2.862  0.2605  1.2250 -1.0953
  669SOL    HW3 2409   1.332   5.369   2.875  0.9639  0.8166  0.8166
  669SOL    MW4 2410   1.393   5.412   2.830  0.1261 -0.7066 -0.3902
  670SOL     OW 2411   5.535   5.353   2.832 -0.6640  0.3980 -0.5134
  670SOL    HW2 2412   5.442   5.358   2.853 -0.8622 -0.3192 -1.1904
  670SOL    HW3 2413   5.570   5.438   2.860 -1.1374 -0.0321  1.5495
  670SOL    MW4 2414   5.527   5.365   2.839  0.2068 -0.4983 -0.2419
  671SOL     OW 2415   4.907   2.063   5.501 -0.4025 -0.1729  0.0087
  671SOL    HW2 2416   4.990   2.110   5.502  0.6530 -1.9529 -0.3443
  671SOL    HW3 2417   4.896   2.033   5.591 -0.3046 -0.5620 -0.1116
  671SOL    MW4 2418   4.916   2.066   5.513  0.3538 -0.2892 -0.3784
  672SOL     OW 2419   1.992   6.327   4.197  0.3454 -0.0622  0.4722
  672SOL    HW2 2420   2.064   6.362   4.250 -0.1362  0.1834  0.9734
  672SOL    HW3 2421   1.920   6.317   4.259  0.8261 -3.2646  0.7217
  672SOL    MW4 2422   1.992   6.330   4.212 -0.2047 -0.2099  0.0983
  673SOL     OW 2423   0.036   1.327   0.658 -0.3538 -0.2837 -0.5066
  673SOL    HW2 2424   0.096   1.346   0.586 -0.2607 -1.2989 -0.7086
  673SOL    HW3 2425  -0.048   1.312   0.615 -0.3163 -0.8076 -0.4033
  673SOL    MW4 2426   0.033   1.328   0.643  0.3307 -0.3380 -0.2720
  674SOL     OW 2427   2.309   6.072   3.769  0.6427  0.4867 -0.0820
  674SOL    HW2 2428   2.226   6.032   3.797  0.8068  0.2829  0.1193
  674SOL    HW3 2429   2.376   6.027   3.820  0.8244  1.1015  0.2316
  674SOL    MW4 2430   2.307   6.061   3.779 -0.6403  0.2776 -0.2975
  675SOL     OW 2431   0.027   4.666   4.884 -0.0330 -0.4396 -0.7024
  675SOL    HW2 2432   0.002   4.599   4.948  0.1092 -0.9238 -1.1410
  675SOL    HW3 2433   0.098   4.625   4.834  0.9552  0.5236 -0.1340
  675SOL    MW4 2434   0.033   4.651   4.886 -0.3373 -0.3118 -0.3006
  676SOL     OW 2435   0.261   3.118   3.335  0.1789  0.0759 -0.3414
  676SOL    HW2 2436   0.220   3.055   3.395 -2.0319  0.2679 -1.5289
  676SOL    HW3 2437   0.355   3.102   3.344 -0.1957 -1.6334  1.2626
  676SOL    MW4 2438   0.268   3.108   3.344  1.2105  0.1214 -0.3716
  677SOL     OW 2439   3.954   3.607   3.760  0.2465 -0.4995  0.3864
  677SOL    HW2 2440   3.860   3.604   3.779  0.3134  0.6186  0.9764
  677SOL    HW3 2441   3.971   3.526   3.712 -1.2404 -0.1791 -0.7546
  677SOL    MW4 2442   3.944   3.596   3.756 -0.2268 -0.6876 -0.5565
  678SOL     OW 2443   4.663   6.233   2.426  0.4419  0.1640 -0.7886
  678SOL    HW2 2444   4.615   6.151   2.442  0.0979  0.3775 -0.7192
  678SOL    HW3 2445   4.638   6.258   2.337 -1.0896  1.2764 -0.0960
  678SOL    MW4 2446   4.653   6.225   2.416 -0.1175  0.2115  0.4449
  679SOL     OW 2447   0.863   4.790   4.683  0.4120  0.2362 -0.2899
  679SOL    HW2 2448   0.785   4.749   4.719  1.0849 -0.2817  0.6186
  679SOL    HW3 2449   0.911   4.718   4.642  1.0370  0.3117  0.2964
  679SOL    MW4 2450   0.859   4.775   4.682  0.4199 -0.2610 -0.3007
  680SOL     OW 2451   2.853   5.673   0.002  0.2301  0.1062 -0.4943
  680SOL    HW2 2452   2.898   5.684  -0.082  0.0895 -0.6098 -0.6668
  680SOL    HW3 2453   2.827   5.581   0.004 -1.1982  0.4944 -0.3777
  680SOL    MW4 2454   2.856   5.663  -0.009 -0.0747 -0.0979 -0.5034
  681SOL     OW 2455   2.970   3.267   4.955  0.1151  0.3312  0.1275
  681SOL    HW2 2456   2.959   3.288   4.862  2.4202 -2.8868 -1.1104
  681SOL    HW3 2457   3.034   3.331   4.986  0.7809  0.2978 -1.0905
  681SOL    MW4 2458   2.977   3.278   4.947 -0.1847  0.1319 -0.7421
  682SOL     OW 2459   6.276   6.194   5.251  0.5101 -0.3136  0.1403
  682SOL    HW2 2460   6.235   6.150   5.326  1.0567 -1.2610 -0.0971
  682SOL    HW3 2461   6.350   6.241   5.289  1.2551 -1.4224  0.1203
  682SOL    MW4 2462   6.280   6.194   5.266 -0.2181  0.1783 -1.1086
  683SOL     OW 2463   2.174   0.154   3.415  0.2998 -0.1568 -0.4560
  683SOL    HW2 2464   2.165   0.208   3.494  0.0280 -1.0896  0.1599
  683SOL    HW3 2465   2.256   0.185   3.375 -0.5718  1.7272 -0.9392
  683SOL    MW4 2466   2.184   0.165   3.420  0.2563 -0.2769 -0.9578
  684SOL     OW 2467   3.099   0.271   2.615 -0.1442  0.4588 -0.0867
  684SOL    HW2 2468   3.181   0.273   2.664  0.5907 -2.3093 -0.9615
  684SOL    HW3 2469   3.125   0.241   2.527 -2.0032  0.1677 -0.5821
  684SOL    MW4 2470   3.113   0.267   2.610  0.6210  0.1371 -0.1446
  685SOL     OW 2471   5.135   3.779   1.484 -0.0363  0.6088 -0.3483
  685SOL    HW2 2472   5.078   3.850   1.513 -0.1771 -0.1750  1.4668
  685SOL    HW3 2473   5.118   3.770   1.390 -2.1506  1.0576 -0.0506
  685SOL    MW4 2474   5.125   3.787   1.476  0.0827  0.4117  0.2034
  686SOL     OW 2475   2.479   4.977   2.555  0.6380 -0.3605  0.1352
  686SOL    HW2 2476   2.518   5.038   2.618 -0.3996  0.0852  0.3669
  686SOL    HW3 2477   2.480   4.892   2.599 -0.6791  0.0684  1.0388
  686SOL    MW4 2478   2.484   4.974   2.569 -0.1036 -0.4857  0.5940
  687SOL     OW 2479   0.053   3.771   4.086  0.6701 -0.2864 -0.0645
  687SOL    HW2 2480   0.132   3.741   4.041 -0.6424 -1.0391 -2.0215
  687SOL    HW3 2481   0.053   3.724   4.169  2.2839 -0.2348 -0.0099
  687SOL    MW4 2482   0.063   3.761   4.091 -0.4115 -0.1738 -0.2280
  688SOL     OW 2483   1.025   3.506   0.278  0.0588  0.4094  0.9997
  688SOL    HW2 2484   0.968   3.507   0.201  0.2360  1.1836  0.8688
  688SOL    HW3 2485   1.113   3.503   0.242  0.1414  0.7570  1.1740
  688SOL    MW4 2486   1.029   3.506   0.263  0.0049  0.2487 -0.0082
  689SOL     OW 2487   1.155   1.622   5.954 -0.0047 -0.1844  0.1788
  689SOL    HW2 2488   1.078   1.576   5.920 -0.7262  1.4716 -0.5190
  689SOL    HW3 2489   1.125   1.712   5.969  1.5564  0.2724  0.7756
  689SOL    MW4 2490   1.141   1.628   5.952 -0.5058 -0.5687  0.0519
  690SOL     OW 2491   4.468   1.118   1.034 -0.2161  0.0545  0.0636
  690SOL    HW2 2492   4.437   1.188   1.091  1.2374  1.4769 -0.8225
  690SOL    HW3 2493   4.423   1.133   0.950 -0.1205 -0.2513 -0.0456
  690SOL    MW4 2494   4.458   1.129   1.030 -0.3800  0.7857 -0.6249
  691SOL     OW 2495   1.396   1.226   1.506  0.3464 -0.3914 -0.1093
  691SOL    HW2 2496   1.440   1.236   1.421 -1.6740  0.6740 -1.1100
  691SOL    HW3 2497   1.458   1.178   1.560  1.4167 -1.7981 -2.4411
  691SOL    MW4 2498   1.410   1.221   1.502 -0.2625  0.2111  0.3006
  692SOL     OW 2499   4.960   5.037   4.858 -0.0180 -0.5368 -0.5634
  692SOL    HW2 2500   5.035   5.096   4.868 -0.9034  0.5220  0.2443
  692SOL    HW3 2501   4.993   4.963   4.808  1.6033 -0.1757 -0.0902
  692SOL    MW4 2502   4.974   5.035   4.853 -0.0919  0.4338  0.1328
  693SOL     OW 2503   1.502   4.913   4.595  0.6668 -0.3683 -0.1995
  693SOL    HW2 2504   1.445   4.966   4.539  0.3514 -0.6335 -0.1330
  693SOL    HW3 2505   1.587   4.913   4.551  0.8465  0.7125  0.1166
  693SOL    MW4 2506   1.506   4.920   4.582  0.3908 -0.5708 -0.1259
  694SOL     OW 2507   5.060   1.279   1.050 -0.4475 -0.0658  0.2460
  694SOL    HW2 2508   5.084   1.186   1.043 -1.7905 -0.5109  1.2080
  694SOL    HW3 2509   5.144   1.324   1.062  0.1390 -1.2996  1.0624
  694SOL    MW4 2510   5.074   1.272   1.051 -0.1414 -0.7653  0.0161
  695SOL     OW 2511   4.179   0.932   0.912  0.0789  0.6233  0.1961
  695SOL    HW2 2512   4.200   0.934   1.005  0.5293  0.3351  0.1050
  695SOL    HW3 2513   4.226   0.855   0.878 -0.3817  0.5048 -0.1955
  695SOL    MW4 2514   4.188   0.922   0.919  0.3740  0.0458 -0.2857
  696SOL     OW 2515   2.584   2.772   4.013 -0.0622 -0.5025 -0.4633
  696SOL    HW2 2516   2.498   2.744   4.044  0.6191 -1.5192  0.6042
  696SOL    HW3 2517   2.632   2.793   4.092  0.9020 -0.6459 -0.9919
  696SOL    MW4 2518   2.579   2.771   4.027 -0.9167  0.0636  0.3271
  697SOL     OW 2519   5.300   1.932   6.257 -0.7036  0.3660  0.1785
  697SOL    HW2 2520   5.237   1.923   6.185  0.1603  0.9079 -0.6689
  697SOL    HW3 2521   5.308   2.027   6.269 -0.6821  0.2813  0.8611
  697SOL    MW4 2522   5.293   1.943   6.249 -0.0176  0.5264  0.1794
  698SOL     OW 2523   3.743   1.662   2.584  0.4569  0.6760  0.1288
  698SOL    HW2 2524   3.818   1.609   2.608 -0.8081 -0.5622  1.5918
  698SOL    HW3 2525   3.758   1.746   2.626  1.4811  0.8066 -0.4594
  698SOL    MW4 2526   3.755   1.666   2.593  0.0907  0.1749 -0.2185
  699SOL     OW 2527   6.424   5.421   3.735 -0.1674  0.0970 -0.0612
  699SOL    HW2 2528   6.389   5.447   3.821 -1.0416 -0.5002 -0.2353
  699SOL    HW3 2529   6.443   5.328   3.744  0.3840  0.1804 -0.3119
  699SOL    MW4 2530   6.422   5.412   3.748 -0.2186 -0.1293  0.0965
  700SOL     OW 2531   0.152   1.297   5.162  0.6090 -0.1492 -0.2913
  700SOL    HW2 2532   0.232   1.295   5.215  0.3787 -0.5343  0.0522
  700SOL    HW3 2533   0.179   1.263   5.077  0.5964 -1.3055  0.1430
  700SOL    MW4 2534   0.166   1.292   5.158  0.6207  0.1321 -0.2001
  701SOL     OW 2535   5.335   3.762   0.736  0.6457  0.4270 -0.0380
  701SOL    HW2 2536   5.283   3.757   0.656 -0.0757  0.1134  0.4341
  701SOL    HW3 2537   5.292   3.831   0.787  0.4901 -0.0665  0.5024
  701SOL    MW4 2538   5.322   3.771   0.732 -0.1537  0.6054  0.1688
  702SOL     OW 2539   2.214   4.659   0.058  0.2475  0.1117  0.6004
  702SOL    HW2 2540   2.272   4.721   0.015  0.5626 -0.1866  0.5966
  702SOL    HW3 2541   2.128   4.702   0.057  0.1623 -0.0508 -0.6646
  702SOL    MW4 2542   2.210   4.673   0.052  0.0998  0.2030  0.0930
  703SOL     OW 2543   2.881   5.231   5.257  0.5225 -0.2740  0.5510
  703SOL    HW2 2544   2.935   5.154   5.236 -1.1864 -1.5031  0.4836
  703SOL    HW3 2545   2.880   5.282   5.177 -0.6231 -1.6486 -0.3645
  703SOL    MW4 2546   2.888   5.227   5.244  0.0600  0.0052 -1.1654
  704SOL     OW 2547   2.610   4.702   1.004 -0.2028  0.2608  0.0179
  704SOL    HW2 2548   2.544   4.655   0.952  0.6905 -1.0599  0.0067
  704SOL    HW3 2549   2.561   4.742   1.075 -1.2855  1.0432 -1.1337
  704SOL    MW4 2550   2.595   4.701   1.006  0.2831  0.4280  0.1745
  705SOL     OW 2551   1.346   3.603   6.208 -0.3724  0.2889 -0.3746
  705SOL    HW2 2552   1.390   3.536   6.156 -1.0217 -0.1752 -0.3504
  705SOL    HW3 2553   1.253   3.591   6.188 -0.5425  0.8086  0.0759
  705SOL    MW4 2554   1.339   3.593   6.199  0.0639 -0.2692  0.0411
  706SOL     OW 2555   4.569   6.373   2.200 -0.2536  0.1770  0.1441
  706SOL    HW2 2556   4.521   6.435   2.256 -0.0792  1.2178 -0.8247
  706SOL    HW3 2557   4.501   6.327   2.151 -0.3282  0.5729 -0.1248
  706SOL    MW4 2558   4.554   6.375   2.201  0.0552 -0.0567  0.2699
  707SOL     OW 2559   0.600   2.626   1.392 -0.2566  0.1622  0.0015
  707SOL    HW2 2560   0.594   2.695   1.325 -0.5872  0.0875 -0.0485
  707SOL    HW3 2561   0.678   2.649   1.443  0.1276  0.0948 -0.5486
  707SOL    MW4 2562   0.609   2.638   1.390  0.4622 -0.1473  0.1159
  708SOL     OW 2563   4.912   5.697   5.216 -0.2380 -0.4393  0.2912
  708SOL    HW2 2564   4.848   5.768   5.223  0.8267  0.4782  1.2181
  708SOL    HW3 2565   4.970   5.710   5.292  1.4844 -0.7833 -0.9105
  708SOL    MW4 2566   4.912   5.708   5.227  0.4505  0.4475 -0.2105
  709SOL     OW 2567   0.827   6.179   1.384  0.2040  0.4354 -0.3423
  709SOL    HW2 2568   0.747   6.136   1.413  0.6108  0.3187  0.6458
  709SOL    HW3 2569   0.874   6.112   1.335  0.8903 -0.3222  1.2822
  709SOL    MW4 2570   0.822   6.165   1.381 -0.0061  0.0653  0.5368
  710SOL     OW 2571   3.643   6.037   2.338  0.2718 -0.3357  0.7899
  710SOL    HW2 2572   3.668   6.113   2.390 -0.1200 -0.9302  1.8736
  710SOL    HW3 2573   3.664   6.062   2.248  2.3596  0.1612  1.3542
  710SOL    MW4 2574   3.649   6.051   2.333 -0.1658 -0.0022 -0.6046
  711SOL     OW 2575   3.371   1.378   6.133 -0.4039  0.3435  0.1897
  711SOL    HW2 2576   3.435   1.376   6.205  0.9911  0.0032 -1.0264
  711SOL    HW3 2577   3.398   1.308   6.074 -1.0695  1.1097 -1.0694
  711SOL    MW4 2578   3.383   1.368   6.135  0.8770 -0.7454  0.0739
  712SOL     OW 2579   3.459   0.091   5.380  0.5867 -0.1544  0.0511
  712SOL    HW2 2580   3.517   0.139   5.320  1.3623  0.1852  1.0458
  712SOL    HW3 2581   3.499   0.005   5.390  0.3386 -0.2880 -0.0774
  712SOL    MW4 2582   3.472   0.086   5.373 -0.0445  0.3045  0.1275
  713SOL     OW 2583   4.633   2.199   3.191  0.1596 -0.4040  0.2950
  713SOL    HW2 2584   4.648   2.227   3.100 -2.0389 -0.2039 -0.0490
  713SOL    HW3 2585   4.562   2.254   3.222 -0.7387 -2.0758  1.3453
  713SOL    MW4 2586   4.626   2.210   3.183 -0.0034 -0.1834 -0.4107
  714SOL     OW 2587   4.807   6.364   4.821  0.1998 -0.0714  0.1257
  714SOL    HW2 2588   4.835   6.276   4.793 -0.3729 -0.8053  1.7332
  714SOL    HW3 2589   4.725   6.349   4.867  0.8392  1.1013  1.7297
  714SOL    MW4 2590   4.800   6.350   4.824  0.2535  0.0348 -0.2878
  715SOL     OW 2591   5.811   1.533   3.155  0.4585  0.0949  0.0267
  715SOL    HW2 2592   5.808   1.616   3.109 -1.5733 -1.3288 -2.6802
  715SOL    HW3 2593   5.762   1.549   3.236 -1.0104  1.2574 -1.0307
  715SOL    MW4 2594   5.804   1.546   3.160  0.6866  0.0208  0.2820
  716SOL     OW 2595   3.354   5.755   4.849 -1.0547  0.2582  0.1263
  716SOL    HW2 2596   3.274   5.703   4.858 -0.6258 -0.2768  0.9355
  716SOL    HW3 2597   3.422   5.704   4.893 -0.5947  1.4213  0.8311
  716SOL    MW4 2598   3.352   5.742   4.856  0.9218 -0.0477 -0.3016
  717SOL     OW 2599   0.181   3.474   2.981 -0.0294  0.7787 -0.1738
  717SOL    HW2 2600   0.221   3.561   2.985  2.0919 -0.1359 -0.2807
  717SOL    HW3 2601   0.099   3.487   2.932  0.3413  2.6613 -0.3502
  717SOL    MW4 2602   0.175   3.487   2.975 -0.2809  0.3737 -0.0342
  718SOL     OW 2603   4.750   1.724   2.075 -0.1103  0.4230 -0.2784
  718SOL    HW2 2604   4.835   1.763   2.098  0.3039  0.1659 -1.3283
  718SOL    HW3 2605   4.734   1.753   1.985 -1.3342  0.7950  0.0388
  718SOL    MW4 2606   4.759   1.733   2.066 -0.3453  0.0777  0.5937
  719SOL     OW 2607   3.121   4.482   4.577  0.0366  0.2787 -0.7380
  719SOL    HW2 2608   3.026   4.489   4.571 -0.0004 -1.0952 -2.6692
  719SOL    HW3 2609   3.153   4.508   4.491  1.5946  2.4026  0.3811
  719SOL    MW4 2610   3.113   4.487   4.565  0.0116  0.2428 -1.0797
  720SOL     OW 2611   0.887   6.357   5.399  0.3899 -0.3826  0.1623
  720SOL    HW2 2612   0.921   6.440   5.365 -0.1387  0.6344  2.0270
  720SOL    HW3 2613   0.794   6.374   5.416  0.4729 -1.0850  1.3805
  720SOL    MW4 2614   0.879   6.370   5.397 -0.1172  0.1126 -0.1490
  721SOL     OW 2615   6.249   4.233   6.185 -0.3459  0.0092 -0.4482
  721SOL    HW2 2616   6.237   4.317   6.140 -1.7306  0.2295  0.2884
  721SOL    HW3 2617   6.337   4.239   6.223  0.4870  0.1762 -2.3052
  721SOL    MW4 2618   6.259   4.245   6.184  0.0407 -0.3598 -0.4080
  722SOL     OW 2619   4.623   1.260   1.376  0.2329 -0.0261  0.1116
  722SOL    HW2 2620   4.553   1.298   1.321 -1.5766  0.3821  2.5267
  722SOL    HW3 2621   4.633   1.171   1.343 -1.0430  0.0913 -0.6911
  722SOL    MW4 2622   4.615   1.254   1.364 -0.4099  0.4319 -0.3212
  723SOL     OW 2623   1.183   2.069   2.939  0.4859  0.8567  0.3497
  723SOL    HW2 2624   1.099   2.063   2.984 -0.4131  0.2139 -1.3210
  723SOL    HW3 2625   1.164   2.121   2.860  1.3534 -0.3534 -0.6875
  723SOL    MW4 2626   1.170   2.075   2.934  0.8736  0.4128  0.9627
  724SOL     OW 2627   1.122   1.307   5.731 -0.6217 -0.0322  0.1426
  724SOL    HW2 2628   1.188   1.243   5.757 -0.3423  0.5653  0.9371
  724SOL    HW3 2629   1.064   1.259   5.671 -1.3673 -1.4978  1.9239
  724SOL    MW4 2630   1.123   1.292   5.726  0.0822  0.0659 -0.0206
  725SOL     OW 2631   5.573   2.249   6.417 -0.1252 -0.0609 -0.3004
  725SOL    HW2 2632   5.513   2.243   6.343  0.1710 -0.9069 -0.4743
  725SOL    HW3 2633   5.647   2.299   6.384  0.1359 -0.6877 -0.6614
  725SOL    MW4 2634   5.575   2.255   6.403 -0.1513  0.5240 -0.2948
  726SOL     OW 2635   1.672   2.908   3.920  0.2358  0.1511 -0.0464
  726SOL    HW2 2636   1.636   2.830   3.962  0.4638  0.8225  1.4504
  726SOL    HW3 2637   1.766   2.891   3.913  0.2803  0.2732  0.2466
  726SOL    MW4 2638   1.680   2.895   3.925  0.1076 -0.2516 -0.1747
  727SOL     OW 2639   5.885   5.968   1.419 -0.3952  0.4808 -0.2232
  727SOL    HW2 2640   5.848   5.892   1.466  1.7790  0.0435  0.9111
  727SOL    HW3 2641   5.967   5.986   1.465  1.1681  0.9559 -3.0007
  727SOL    MW4 2642   5.891   5.960   1.432 -0.0642  0.8674  0.3603
  728SOL     OW 2643   1.135   0.525   2.687  0.0964 -0.5584 -0.2043
  728SOL    HW2 2644   1.077   0.597   2.663  1.7822  1.4915  1.5314
  728SOL    HW3 2645   1.220   0.566   2.703  1.4783 -3.1383 -0.3851
  728SOL    MW4 2646   1.139   0.540   2.686 -0.1387 -0.1932  0.3446
  729SOL     OW 2647   4.017   0.339   2.585 -0.1596  0.4485  0.1870
  729SOL    HW2 2648   4.074   0.265   2.608 -0.9747  0.1216  1.2257
  729SOL    HW3 2649   4.018   0.395   2.663  1.1507  2.0432 -0.8793
  729SOL    MW4 2650   4.025   0.337   2.599 -0.0873  0.0527 -0.0616
  730SOL     OW 2651   2.894   4.587   6.096  0.0539 -0.4287  0.2068
  730SOL    HW2 2652   2.903   4.536   6.176  0.3103  0.3297  0.6728
  730SOL    HW3 2653   2.979   4.630   6.085  0.4173 -1.4172 -1.1066
  730SOL    MW4 2654   2.907   4.586   6.105  0.2815  0.2196  0.2794
  731SOL     OW 2655   6.388   2.916   4.037 -0.0439 -0.2187 -0.0994
  731SOL    HW2 2656   6.295   2.894   4.051 -0.2012  0.5557  0.1140
  731SOL    HW3 2657   6.398   2.913   3.942 -0.3248 -0.1863 -0.1332
  731SOL    MW4 2658   6.377   2.913   4.026 -0.8539 -0.4192  0.2118
  732SOL     OW 2659   4.665   0.069   1.900 -0.6041  0.4646  0.1985
  732SOL    HW2 2660   4.590   0.092   1.956  0.7553  0.1746  2.2733
  732SOL    HW3 2661   4.666  -0.027   1.900  0.9432  0.4146  2.0118
  732SOL    MW4 2662   4.655   0.059   1.908  0.6288 -0.3369  0.0410
  733SOL     OW 2663   1.338   6.092   1.492  0.6883  0.1136 -0.0826
  733SOL    HW2 2664   1.338   6.066   1.400 -0.3333 -0.5489  0.0846
  733SOL    HW3 2665   1.295   6.019   1.537  2.7926 -0.4265  1.1833
  733SOL    MW4 2666   1.333   6.079   1.486  0.2327 -0.1789  0.4695
  734SOL     OW 2667   1.498   6.058   0.276  0.3213 -0.1874 -0.3275
  734SOL    HW2 2668   1.568   5.997   0.252 -0.3191 -2.1591  2.3516
  734SOL    HW3 2669   1.417   6.011   0.257 -0.2052  0.3472  0.5143
  734SOL    MW4 2670   1.497   6.044   0.270 -0.1749 -0.1806  0.1922
  735SOL     OW 2671   6.078   2.077   5.757 -0.4599 -0.0757  0.4133
  735SOL    HW2 2672   6.139   2.074   5.830 -0.6982 -1.0521  0.5880
  735SOL    HW3 2673   6.131   2.057   5.680 -0.2537  0.7222  0.3399
  735SOL    MW4 2674   6.093   2.074   5.756  0.0553  0.0864  0.0562
  736SOL     OW 2675   1.633   3.484   5.925  0.0369 -0.8245 -0.0967
  736SOL    HW2 2676   1.610   3.576   5.914  2.2687 -0.3406 -1.6021
  736SOL    HW3 2677   1.562   3.447   5.977 -0.2622  2.0420  1.7928
  736SOL    MW4 2678   1.621   3.491   5.930 -0.2492  0.0838  0.2597
  737SOL     OW 2679   3.831   1.553   5.228  0.2778 -0.3121 -0.1151
  737SOL    HW2 2680   3.757   1.579   5.173  0.5149  2.8320  0.8741
  737SOL    HW3 2681   3.838   1.458   5.215 -3.0218 -0.5288 -1.3107
  737SOL    MW4 2682   3.822   1.544   5.219 -0.4717 -0.4214  0.5399
  738SOL     OW 2683   0.512   3.924   4.459  0.4005 -0.4794  0.3286
  738SOL    HW2 2684   0.571   3.991   4.492 -0.6089  1.5477 -1.7468
  738SOL    HW3 2685   0.553   3.893   4.378 -1.0878  0.6786 -0.9352
  738SOL    MW4 2686   0.525   3.929   4.452 -0.0995 -0.2941  0.4123
  739SOL     OW 2687   0.801   2.716   4.889 -0.1518  0.2414 -0.6832
  739SOL    HW2 2688   0.814   2.646   4.953  1.7111 -0.8038 -2.1013
  739SOL    HW3 2689   0.778   2.793   4.942 -2.6221 -1.4480  0.9071
  739SOL    MW4 2690   0.800   2.717   4.905 -0.2500 -0.1090  0.0090
  740SOL     OW 2691   5.333   5.921   0.584 -0.0996 -0.3140  0.5693
  740SOL    HW2 2692   5.378   6.004   0.569  2.9402 -1.7730  0.8730
  740SOL    HW3 2693   5.268   5.916   0.513  0.1434  1.9428  0.1067
  740SOL    MW4 2694   5.330   5.931   0.572 -0.5636 -0.1721  0.0789
  741SOL     OW 2695   5.483   6.079   2.812 -0.0416 -0.2410 -0.8061
  741SOL    HW2 2696   5.550   6.144   2.791  0.5619 -1.1232 -1.7070
  741SOL    HW3 2697   5.449   6.106   2.897 -1.1076  2.2953 -1.9371
  741SOL    MW4 2698   5.487   6.091   2.820 -0.3838  0.2105 -0.0016
  742SOL     OW 2699   2.135   3.562   1.661 -0.4799  0.0511  0.3365
  742SOL    HW2 2700   2.202   3.617   1.703 -0.2835  0.6545 -0.7431
  742SOL    HW3 2701   2.183   3.484   1.632  0.0326  0.9605 -1.4173
  742SOL    MW4 2702   2.150   3.559   1.663  0.6813 -0.0745 -0.5125
  743SOL     OW 2703   2.830   1.489   1.098 -0.2310 -0.1750  0.4102
  743SOL    HW2 2704   2.790   1.480   1.184  1.7291 -1.2867  1.2747
  743SOL    HW3 2705   2.918   1.524   1.115  0.8549 -2.0260 -0.9215
  743SOL    MW4 2706   2.836   1.492   1.111  0.6406  0.9187  0.4521
  744SOL     OW 2707   6.257   1.655   3.827  0.7522  0.6400  0.2579
  744SOL    HW2 2708   6.198   1.718   3.785 -0.5709 -1.3004 -0.9647
  744SOL    HW3 2709   6.336   1.657   3.773  0.3337  0.5575 -0.3691
  744SOL    MW4 2710   6.259   1.664   3.814  0.3563  0.3033 -0.2893
  745SOL     OW 2711   4.870   4.894   2.852 -0.2074 -0.0073 -0.7174
  745SOL    HW2 2712   4.851   4.988   2.852  0.8791  0.2607  1.2651
  745SOL    HW3 2713   4.785   4.852   2.865 -0.2311  0.9850  3.8796
  745SOL    MW4 2714   4.856   4.901   2.854  0.2974  0.7174 -0.0216
  746SOL     OW 2715   4.684   0.583   2.942  0.2303 -0.3716 -0.5360
  746SOL    HW2 2716   4.755   0.619   2.890  2.6145 -2.4403  1.0625
  746SOL    HW3 2717   4.725   0.514   2.995 -2.3718  0.2208  2.5746
  746SOL    MW4 2718   4.699   0.579   2.942 -0.2462 -0.8025 -0.1793
  747SOL     OW 2719   6.309   0.139   0.102  0.3406 -0.6728 -0.0698
  747SOL    HW2 2720   6.279   0.055   0.137  3.4341 -1.3891  1.1507
  747SOL    HW3 2721   6.336   0.119   0.012  0.5201 -0.8185  0.0180
  747SOL    MW4 2722   6.308   0.125   0.094 -0.2357 -0.3519  0.0251
  748SOL     OW 2723   3.701   5.167   1.386 -0.0314  0.4389  0.2374
  748SOL    HW2 2724   3.611   5.147   1.360 -0.2697  0.6227  0.9062
  748SOL    HW3 2725   3.712   5.260   1.367 -0.6721  0.9275  2.0507
  748SOL    MW4 2726   3.691   5.176   1.380  0.3340 -0.3287 -0.2172
  749SOL     OW 2727   1.224   4.412   0.916  0.0766  0.2057 -0.3834
  749SOL    HW2 2728   1.175   4.331   0.927 -0.0208  0.3619  0.4025
  749SOL    HW3 2729   1.224   4.428   0.822 -1.2725  0.1301 -0.4153
  749SOL    MW4 2730   1.217   4.404   0.905  0.4841  0.4382  1.1449
  750SOL     OW 2731   5.762   5.380   4.194 -0.2121  0.3338  0.2407
  750SOL    HW2 2732   5.828   5.350   4.132  0.0333 -2.2721  1.6042
  750SOL    HW3 2733   5.719   5.454   4.150  1.5716  0.1818 -1.9333
  750SOL    MW4 2734   5.765   5.386   4.180  0.2732  0.5531  0.0502
  751SOL     OW 2735   3.754   2.054   4.366  0.2914  0.3346  0.2034
  751SOL    HW2 2736   3.785   2.132   4.411  3.8878 -0.1125 -1.1526
  751SOL    HW3 2737   3.818   1.986   4.390 -2.8101 -2.3679  1.5428
  751SOL    MW4 2738   3.767   2.055   4.375 -0.4637  0.4637  0.1727
  752SOL     OW 2739   5.986   6.358   2.207  0.3295  0.3242  0.7449
  752SOL    HW2 2740   5.940   6.386   2.286 -0.7417 -1.0651  0.6459
  752SOL    HW3 2741   5.940   6.404   2.136  0.9513  1.1552  0.8634
  752SOL    MW4 2742   5.973   6.368   2.208  0.1823 -0.3775 -0.3540
  753SOL     OW 2743   6.133   1.474   3.495 -0.5137 -0.3608 -0.2071
  753SOL    HW2 2744   6.093   1.502   3.413  1.1721  0.1476 -0.8802
  753SOL    HW3 2745   6.173   1.553   3.531 -1.4702 -0.5079  1.2767
  753SOL    MW4 2746   6.133   1.488   3.489  0.8803  0.3087 -0.5635
  754SOL     OW 2747   6.381   6.114   2.541 -0.8166 -0.1502 -0.3957
  754SOL    HW2 2748   6.348   6.045   2.599 -0.5486 -1.4201 -1.7219
  754SOL    HW3 2749   6.365   6.081   2.453  1.6680  0.3213 -1.0927
  754SOL    MW4 2750   6.374   6.101   2.537 -0.6055  0.2501  0.4062
  755SOL     OW 2751   1.359   1.400   2.223 -0.1298  0.4286 -0.3460
  755SOL    HW2 2752   1.356   1.416   2.318  0.5663 -1.6164  0.0874
  755SOL    HW3 2753   1.286   1.450   2.188 -1.5221 -0.1620  1.5293
  755SOL    MW4 2754   1.349   1.408   2.231  1.0660  0.3481 -0.0829
  756SOL     OW 2755   4.515   2.182   1.961 -0.6267  0.0128  0.7268
  756SOL    HW2 2756   4.444   2.172   2.024  1.0106 -1.5484  2.4339
  756SOL    HW3 2757   4.594   2.191   2.014  0.6854 -0.0112 -1.1133
  756SOL    MW4 2758   4.516   2.182   1.976 -0.2049  0.1839  0.4530
  757SOL     OW 2759   3.538   4.894   2.459 -0.5882  0.2041  0.3065
  757SOL    HW2 2760   3.603   4.876   2.390 -1.5284 -0.7423 -0.3781
  757SOL    HW3 2761   3.585   4.878   2.541  0.5786  1.4276 -0.0909
  757SOL    MW4 2762   3.553   4.889   2.461 -0.3510  0.3233  0.8965
  758SOL     OW 2763   5.898   2.745   0.302 -0.3870 -0.6882 -0.3101
  758SOL    HW2 2764   5.938   2.738   0.388 -1.4049  2.8781  0.6516
  758SOL    HW3 2765   5.807   2.718   0.314 -0.6446  0.2281 -0.1057
  758SOL    MW4 2766   5.891   2.741   0.315 -0.2842  0.1339 -0.2426
  759SOL     OW 2767   4.200   6.403   5.049  0.1940 -1.0088 -0.1988
  759SOL    HW2 2768   4.262   6.393   5.121 -1.4320 -0.4355  1.3683
  759SOL    HW3 2769   4.131   6.338   5.068 -0.0348 -1.1914 -1.5291
  759SOL    MW4 2770   4.199   6.393   5.061 -0.1198 -0.0704 -0.1106
  760SOL     OW 2771   1.726   1.499   5.721 -0.7348 -0.1564 -0.1553
  760SOL    HW2 2772   1.679   1.526   5.643 -0.4865 -0.2560 -0.3396
  760SOL    HW3 2773   1.668   1.436   5.764 -0.8198 -0.1924 -0.3231
  760SOL    MW4 2774   1.712   1.494   5.717  0.2405 -0.2806 -0.0705
  761SOL     OW 2775   2.714   4.843   1.318  0.3272  0.6050 -0.5374
  761SOL    HW2 2776   2.786   4.876   1.264  0.1747 -0.2727 -1.3132
  761SOL    HW3 2777   2.733   4.750   1.329 -0.4433  0.4627 -0.3509
  761SOL    MW4 2778   2.726   4.835   1.312  0.4209  0.5053  0.8607
  762SOL     OW 2779   5.184   1.413   3.139 -0.2471 -0.0448  0.2493
  762SOL    HW2 2780   5.213   1.435   3.227 -0.1975 -0.6589  0.3922
  762SOL    HW3 2781   5.147   1.325   3.148  0.7762 -0.5632 -0.5627
  762SOL    MW4 2782   5.183   1.404   3.152 -0.1093 -0.2769  0.0603
  763SOL     OW 2783   4.794   0.091   1.164 -0.4019  0.0414  0.3877
  763SOL    HW2 2784   4.740   0.169   1.155 -1.0896 -0.6160 -1.9327
  763SOL    HW3 2785   4.884   0.122   1.151 -0.6073  0.5522  0.1709
  763SOL    MW4 2786   4.799   0.105   1.161  0.6289 -0.2326  0.4161
  764SOL     OW 2787   4.499   5.042   3.162 -0.2456  0.3397  0.6005
  764SOL    HW2 2788   4.467   5.116   3.111  0.6001  1.8957  2.2504
  764SOL    HW3 2789   4.592   5.060   3.176  0.4193 -1.9281 -0.4038
  764SOL    MW4 2790   4.507   5.054   3.157  0.6468 -0.1273 -0.2189
  765SOL     OW 2791   2.044   5.425   4.673 -0.2957 -0.4230 -0.0258
  765SOL    HW2 2792   2.033   5.478   4.594 -0.4999 -0.2253  0.1354
  765SOL    HW3 2793   1.955   5.404   4.701 -0.4611  2.8469  2.4140
  765SOL    MW4 2794   2.031   5.429   4.667  0.0923  0.6514  0.1367
  766SOL     OW 2795   5.642   6.253   4.807 -0.2057  0.3576 -0.2739
  766SOL    HW2 2796   5.701   6.178   4.802  1.4550  1.6687 -2.1227
  766SOL    HW3 2797   5.635   6.272   4.900  0.7621 -0.9983  0.1128
  766SOL    MW4 2798   5.649   6.246   4.819 -0.2500 -0.6040  0.3447
  767SOL     OW 2799   3.926   2.712   1.282 -0.3405  0.5050  0.2545
  767SOL    HW2 2800   3.874   2.650   1.231  1.6197 -0.7666 -0.3060
  767SOL    HW3 2801   3.871   2.732   1.358 -2.1340  0.2029 -0.9043
  767SOL    MW4 2802   3.912   2.706   1.286 -0.8859 -0.0935  0.7689
  768SOL     OW 2803   5.327   1.091   5.276 -0.1660 -0.3163  0.0908
  768SOL    HW2 2804   5.333   1.186   5.292 -1.2232  0.0388 -1.3909
  768SOL    HW3 2805   5.244   1.080   5.230 -0.6411 -2.1478  1.2833
  768SOL    MW4 2806   5.317   1.102   5.272  0.5963  0.3774 -1.1074
  769SOL     OW 2807   2.712   3.091   2.443  0.2924  0.0472  0.2489
  769SOL    HW2 2808   2.649   3.162   2.456 -0.0741 -0.5130  1.7321
  769SOL    HW3 2809   2.671   3.015   2.483 -0.1524 -1.5353 -2.8797
  769SOL    MW4 2810   2.698   3.091   2.450 -0.3956 -0.1837 -0.0768
  770SOL     OW 2811   0.407   1.149   6.078  0.1329  0.1330 -0.0676
  770SOL    HW2 2812   0.384   1.195   5.997  1.2260  1.1911  0.1889
  770SOL    HW3 2813   0.324   1.117   6.112 -0.5133  0.8790 -0.9013
  770SOL    MW4 2814   0.393   1.151   6.071 -0.1174  0.1457 -0.1114
  771SOL     OW 2815   1.177   4.191   1.985 -0.7603  0.4808  0.0539
  771SOL    HW2 2816   1.183   4.095   1.990  1.1338  0.5300 -0.6244
  771SOL    HW3 2817   1.084   4.210   1.999 -1.4926 -1.5696 -1.6430
  771SOL    MW4 2818   1.165   4.181   1.988 -0.0960  0.3115  0.3619
  772SOL     OW 2819   2.778   0.682   5.543  0.2450  0.4745  0.1843
  772SOL    HW2 2820   2.830   0.601   5.535  0.4058  0.6566 -0.6768
  772SOL    HW3 2821   2.821   0.744   5.485 -0.6838  0.7648 -0.2072
  772SOL    MW4 2822   2.791   0.679   5.534  0.2910 -0.0191 -0.4304
  773SOL     OW 2823   2.592   6.421   3.810  0.2384  0.1141 -0.0974
  773SOL    HW2 2824   2.500   6.396   3.821  0.4481 -1.8924 -2.0952
  773SOL    HW3 2825   2.594   6.469   3.728  0.7972  1.4639  0.6791
  773SOL    MW4 2826   2.580   6.424   3.801 -0.2550 -0.3886 -0.2640
  774SOL     OW 2827   1.842   2.626   4.744 -0.3165 -0.8062 -0.5421
  774SOL    HW2 2828   1.853   2.637   4.650 -0.6629 -2.4474 -0.8075
  774SOL    HW3 2829   1.867   2.535   4.761 -0.9748 -0.7695  0.8400
  774SOL    MW4 2830   1.847   2.615   4.734  0.3756 -0.1767  0.3610
  775SOL     OW 2831   4.851   1.519   3.175  0.1857  0.3868  0.1710
  775SOL    HW2 2832   4.767   1.547   3.139  0.9305  0.2237 -1.8242
  775SOL    HW3 2833   4.879   1.448   3.118  1.3249 -0.0965  1.2893
  775SOL    MW4 2834   4.844   1.513   3.163 -0.0066  0.1447  0.0657
  776SOL     OW 2835   3.921   4.799   2.520  0.1839 -0.2684  0.5011
  776SOL    HW2 2836   3.953   4.784   2.431 -0.5430  1.0717 -0.0123
  776SOL    HW3 2837   4.000   4.817   2.571  0.8194 -2.8183  0.5837
  776SOL    MW4 2838   3.936   4.799   2.515  0.4702  0.1929 -0.0788
  777SOL     OW 2839   1.315   6.331   0.636 -0.4448  0.3628  0.1430
  777SOL    HW2 2840   1.326   6.241   0.606  0.2268  0.8446 -1.1180
  777SOL    HW3 2841   1.229   6.357   0.604 -0.8281  0.0517  0.8808
  777SOL    MW4 2842   1.305   6.323   0.628  0.1610 -0.0880 -0.4530
  778SOL     OW 2843   1.072   2.821   2.348 -0.0995 -0.0396 -0.1762
  778SOL    HW2 2844   1.046   2.731   2.367 -1.1748  0.2948  0.0546
  778SOL    HW3 2845   1.111   2.853   2.430  1.3521 -0.6346 -0.6087
  778SOL    MW4 2846   1.074   2.814   2.362 -0.5888 -0.1273  0.2041
  779SOL     OW 2847   5.215   2.218   3.181 -0.3657 -0.1168  0.5463
  779SOL    HW2 2848   5.251   2.295   3.136  0.6634 -0.8136  0.1280
  779SOL    HW3 2849   5.238   2.144   3.124 -2.8116 -0.5903  0.0791
  779SOL    MW4 2850   5.223   2.218   3.167  0.0361  0.2141 -0.1967
  780SOL     OW 2851   6.141   6.133   1.010 -0.6980 -0.3415  0.2266
  780SOL    HW2 2852   6.091   6.065   1.055 -1.4508  0.0847  0.0532
  780SOL    HW3 2853   6.076   6.180   0.957 -0.4227  1.2804  1.2669
  780SOL    MW4 2854   6.126   6.130   1.009 -0.0175  0.0561 -0.2348
  781SOL     OW 2855   5.720   2.144   4.962  0.1699  0.0223 -0.6272
  781SOL    HW2 2856   5.813   2.162   4.966  0.5023 -1.7107  1.7077
  781SOL    HW3 2857   5.711   2.054   4.993 -2.1625 -0.4576 -2.3623
  781SOL    MW4 2858   5.731   2.134   4.967 -0.0613  0.1529  0.8473
  782SOL     OW 2859   5.706   6.047   0.552  0.0331 -0.5188  0.6687
  782SOL    HW2 2860   5.700   6.126   0.605 -1.5562 -2.3054  3.3943
  782SOL    HW3 2861   5.793   6.012   0.571  1.4564  1.2602 -1.8687
  782SOL    MW4 2862   5.717   6.053   0.561  0.0244  0.2833  0.7438
  783SOL     OW 2863   3.498   3.104   5.983 -0.4349  0.0896  0.0124
  783SOL    HW2 2864   3.508   3.199   5.976  2.3153 -0.1224  0.1181
  783SOL    HW3 2865   3.461   3.090   6.070 -0.0238  1.0373  0.3544
  783SOL    MW4 2866   3.495   3.115   5.993 -0.2163  0.3020  0.0196
  784SOL     OW 2867   2.610   5.800   5.008  0.1174 -0.1298  0.1032
  784SOL    HW2 2868   2.545   5.807   4.938  0.1290 -0.5443  0.0463
  784SOL    HW3 2869   2.562   5.823   5.088 -0.4322 -1.5986  0.2302
  784SOL    MW4 2870   2.595   5.804   5.010 -0.0294 -0.1151  0.1667
  785SOL     OW 2871   1.727   5.366   6.159  0.4875  0.4048 -0.4785
  785SOL    HW2 2872   1.725   5.428   6.086  0.5545 -0.8246 -1.5665
  785SOL    HW3 2873   1.638   5.368   6.194  0.0714 -0.0197 -1.4957
  785SOL    MW4 2874   1.715   5.375   6.154 -1.0990 -0.3201 -0.0396
  786SOL     OW 2875   1.220   2.475   2.536 -0.6443 -0.0479  0.1811
  786SOL    HW2 2876   1.222   2.396   2.592 -2.0165 -0.6724 -0.5866
  786SOL    HW3 2877   1.129   2.503   2.540 -0.2655  1.2328  0.0366
  786SOL    MW4 2878   1.208   2.468   2.544  0.0737  0.4138  0.0289
  787SOL     OW 2879   3.853   3.046   2.515  0.6364 -0.2240 -0.2071
  787SOL    HW2 2880   3.766   3.044   2.475  1.5242  0.3824 -2.2748
  787SOL    HW3 2881   3.837   3.079   2.604 -1.1534  0.7567 -0.8350
  787SOL    MW4 2882   3.839   3.050   2.522  0.3855 -0.0921 -0.5801
  788SOL     OW 2883   1.831   0.846   5.267  0.1396  0.0820  0.3307
  788SOL    HW2 2884   1.910   0.898   5.256 -1.5029  2.4104 -1.4442
  788SOL    HW3 2885   1.783   0.891   5.337 -1.1343  0.8687 -0.9808
  788SOL    MW4 2886   1.835   0.859   5.275  0.6373 -0.1498 -0.0607
  789SOL     OW 2887   3.865   0.215   0.616  0.5548 -0.5022 -0.1144
  789SOL    HW2 2888   3.882   0.153   0.688  1.4275  0.0046  0.1303
  789SOL    HW3 2889   3.774   0.198   0.591  0.7411 -1.8217  0.0096
  789SOL    MW4 2890   3.855   0.204   0.622  0.2659  0.0248  0.2373
  790SOL     OW 2891   1.129   5.445   2.930  0.3430 -0.3103  0.3090
  790SOL    HW2 2892   1.098   5.447   3.021 -1.2933 -0.4445 -0.1978
  790SOL    HW3 2893   1.113   5.534   2.898  1.6961 -0.0269  0.3651
  790SOL    MW4 2894   1.123   5.457   2.938  0.7055 -0.0167  0.4096
  791SOL     OW 2895   4.329   5.441   3.329 -0.3038  0.1270 -0.2760
  791SOL    HW2 2896   4.264   5.475   3.391 -0.9515 -2.0560  0.3262
  791SOL    HW3 2897   4.283   5.439   3.245  0.2893  2.2418 -0.7078
  791SOL    MW4 2898   4.314   5.445   3.327  0.0281  0.0624  0.1866
  792SOL     OW 2899   0.695   2.081   3.094  0.0885 -0.1761  0.2469
  792SOL    HW2 2900   0.785   2.112   3.084 -0.5828  1.2294 -2.4044
  792SOL    HW3 2901   0.658   2.135   3.163  0.7494  0.5891  0.0239
  792SOL    MW4 2902   0.702   2.092   3.102 -0.8953  0.1930  0.3321
  793SOL     OW 2903   4.519   4.790   4.322  0.1975  0.4209 -0.0085
  793SOL    HW2 2904   4.534   4.735   4.398  0.9309  0.3913 -0.1617
  793SOL    HW3 2905   4.485   4.872   4.357  0.6147  0.4388  0.3607
  793SOL    MW4 2906   4.517   4.794   4.336 -0.2327 -0.5748  0.2998
  794SOL     OW 2907   0.264   3.347   3.509  0.6252 -0.4999 -0.2305
  794SOL    HW2 2908   0.179   3.329   3.550 -0.0386 -0.6919 -1.6267
  794SOL    HW3 2909   0.277   3.274   3.448  1.3036  0.0607 -0.7744
  794SOL    MW4 2910   0.254   3.335   3.506 -0.2286  0.0520 -0.0302
  795SOL     OW 2911   3.522   3.917   0.315 -0.2840 -0.1002  0.1409
  795SOL    HW2 2912   3.480   3.854   0.256  1.2114 -0.2996 -0.7739
  795SOL    HW3 2913   3.549   3.865   0.390  1.3925 -0.6965 -0.8344
  795SOL    MW4 2914   3.520   3.902   0.317 -0.0867 -0.0806  0.1926
  796SOL     OW 2915   1.388   0.595   2.798 -0.3336  0.5178  0.0689
  796SOL    HW2 2916   1.445   0.664   2.762 -1.4720  0.7861 -1.3388
  796SOL    HW3 2917   1.340   0.638   2.868 -2.1646  1.6976 -1.7917
  796SOL    MW4 2918   1.389   0.610   2.802  0.2329  0.0082  0.8258
  797SOL     OW 2919   3.881   2.328   0.117  0.3172 -0.1688 -0.2497
  797SOL    HW2 2920   3.859   2.254   0.173  1.8473 -0.7627 -0.3812
  797SOL    HW3 2921   3.842   2.308   0.032 -1.0280  0.1835  0.2679
  797SOL    MW4 2922   3.873   2.316   0.113 -0.1285  0.5140  1.2280
  798SOL     OW 2923   4.494   6.366   2.613 -0.4125  0.3324 -0.0126
  798SOL    HW2 2924   4.415   6.313   2.617  0.0736 -0.4370 -0.3787
  798SOL    HW3 2925   4.548   6.324   2.545  1.2900 -0.5319  1.7743
  798SOL    MW4 2926   4.491   6.354   2.604 -0.0244  0.4815  0.2030
  799SOL     OW 2927   1.589   6.243   3.104 -0.5796  0.3185  0.4039
  799SOL    HW2 2928   1.657   6.219   3.167 -0.1997  1.3859  0.4306
  799SOL    HW3 2929   1.634   6.300   3.041 -1.3717  0.7934  0.2466
  799SOL    MW4 2930   1.604   6.248   3.104  0.4164  0.0598 -0.5309
  800SOL     OW 2931   0.741   5.687   5.265 -0.0546 -0.0815 -0.2918
  800SOL    HW2 2932   0.810   5.651   5.209  0.7509 -1.4956  1.5165
  800SOL    HW3 2933   0.773   5.773   5.290  1.3881 -0.9389  0.9836
  800SOL    MW4 2934   0.754   5.694   5.261 -0.4263 -0.5913  0.6351
  801SOL     OW 2935   4.815   2.052   0.250  0.3155  0.5824 -0.0472
  801SOL    HW2 2936   4.838   1.969   0.209 -2.0442  0.4137 -1.1539
  801SOL    HW3 2937   4.762   2.027   0.326  1.1491  1.0401  0.7001
  801SOL    MW4 2938   4.811   2.038   0.255  0.7512 -0.5163 -0.0120
  802SOL     OW 2939   2.631   4.983   1.910 -0.1338  0.8733 -0.1708
  802SOL    HW2 2940   2.614   5.013   1.999 -1.0723  2.3842 -0.8240
  802SOL    HW3 2941   2.674   4.897   1.921 -0.5637  0.8640  1.6977
  802SOL    MW4 2942   2.635   4.975   1.923  0.2546 -0.3489  0.4147
  803SOL     OW 2943   4.410   4.291   1.767  0.5564 -0.2316 -0.3327
  803SOL    HW2 2944   4.321   4.321   1.750  0.2025 -1.1015 -0.0526
  803SOL    HW3 2945   4.457   4.369   1.797 -0.7196 -0.2341  1.8142
  803SOL    MW4 2946   4.405   4.305   1.768  1.3667 -0.2014  0.1638
  804SOL     OW 2947   2.877   0.289   4.948 -0.1620  0.4052  0.0772
  804SOL    HW2 2948   2.885   0.381   4.922  0.5500  0.5961  0.9412
  804SOL    HW3 2949   2.875   0.241   4.865 -0.2601  1.1786 -0.3753
  804SOL    MW4 2950   2.878   0.295   4.934  0.1380  0.0336  0.3928
  805SOL     OW 2951   2.616   1.936   2.575 -0.4018  0.0204  0.3907
  805SOL    HW2 2952   2.622   2.026   2.542 -1.2964  0.2340  0.7982
  805SOL    HW3 2953   2.618   1.945   2.671  0.8881 -0.5065  0.4457
  805SOL    MW4 2954   2.617   1.949   2.583 -0.1576 -0.4697  0.2644
  806SOL     OW 2955   5.375   5.335   4.356  0.6986  0.6765 -0.3406
  806SOL    HW2 2956   5.346   5.251   4.321 -0.4176  0.1848  1.6176
  806SOL    HW3 2957   5.469   5.324   4.368  0.6048 -0.2132 -0.3311
  806SOL    MW4 2958   5.384   5.323   4.353 -1.0900  0.3256 -0.1981
  807SOL     OW 2959   5.051   5.008   3.722 -0.7393 -0.6450  0.4883
  807SOL    HW2 2960   5.064   4.917   3.747 -0.5511 -0.9173 -0.5586
  807SOL    HW3 2961   5.003   5.004   3.639 -0.7897  0.2068  0.4675
  807SOL    MW4 2962   5.047   4.996   3.714 -0.2331  0.1191 -0.0339
  808SOL     OW 2963   2.195   2.224   3.632 -0.0072  0.5748  0.5356
  808SOL    HW2 2964   2.256   2.151   3.644  1.5316  1.8830  1.1258
  808SOL    HW3 2965   2.197   2.242   3.538  0.2110  0.3491  0.4965
  808SOL    MW4 2966   2.203   2.217   3.622  0.1362  0.3310 -0.4218
  809SOL     OW 2967   4.265   1.967   2.483  0.2436  0.1869  0.3083
  809SOL    HW2 2968   4.328   1.897   2.497 -0.3469 -0.2813  0.6873
  809SOL    HW3 2969   4.318   2.046   2.471  0.9010 -0.2529  0.2904
  809SOL    MW4 2970   4.280   1.968   2.483  0.1524 -0.3706  0.8934
  810SOL     OW 2971   1.118   5.904   5.476 -0.0125  0.8230  0.1655
  810SOL    HW2 2972   1.179   5.887   5.404 -0.1129  1.8780 -0.1984
  810SOL    HW3 2973   1.092   5.818   5.507 -0.9017  0.2785 -1.8686
  810SOL    MW4 2974   1.122   5.890   5.470  0.3642 -0.0556  0.0772
  811SOL     OW 2975   3.781   4.393   0.691  0.1549  0.0539  0.5746
  811SOL    HW2 2976   3.687   4.384   0.677  0.1095  2.2115 -1.0469
  811SOL    HW3 2977   3.790   4.410   0.784 -0.9400 -1.1114  0.9244
  811SOL    MW4 2978   3.770   4.394   0.701  0.1143 -0.1314  0.4079
  812SOL     OW 2979   5.685   6.358   5.364 -0.0627 -0.1301  0.4125
  812SOL    HW2 2980   5.747   6.287   5.347 -0.4935 -0.1180 -1.3015
  812SOL    HW3 2981   5.661   6.391   5.278 -2.3241 -0.0052  1.0195
  812SOL    MW4 2982   5.690   6.353   5.351 -0.4135 -0.4587 -0.0258
  813SOL     OW 2983   1.647   5.105   0.030 -0.2278  0.1443  0.1312
  813SOL    HW2 2984   1.706   5.157   0.085 -0.5630  0.2642  0.3818
  813SOL    HW3 2985   1.651   5.017   0.068 -0.6141  0.2723  0.4776
  813SOL    MW4 2986   1.655   5.100   0.043  0.6362  0.3588 -0.1836
  814SOL     OW 2987   2.067   5.514   3.291 -0.0910  0.0818  0.0108
  814SOL    HW2 2988   2.095   5.480   3.206  0.9922  2.0355 -0.4707
  814SOL    HW3 2989   2.045   5.605   3.275 -1.4705  0.0655  1.5334
  814SOL    MW4 2990   2.068   5.521   3.278 -0.4392  0.1361 -0.2135
  815SOL     OW 2991   3.747   5.402   2.716 -0.1825  0.3289 -0.4915
  815SOL    HW2 2992   3.718   5.322   2.673 -0.8188 -0.3867  1.1896
  815SOL    HW3 2993   3.678   5.466   2.697 -0.0379  0.2865 -1.2030
  815SOL    MW4 2994   3.734   5.400   2.707 -0.4054 -0.0191 -0.0149
  816SOL     OW 2995   4.870   5.346   3.512  0.7410  0.7019 -0.0012
  816SOL    HW2 2996   4.808   5.373   3.581  0.1891  1.4399 -0.7687
  816SOL    HW3 2997   4.869   5.418   3.450  0.2868 -0.4936 -1.4258
  816SOL    MW4 2998   4.861   5.359   3.513  0.5342  0.1248 -0.5837
  817SOL     OW 2999   1.775   2.558   0.905 -0.4125  0.1806 -0.5384
  817SOL    HW2 3000   1.767   2.653   0.899 -2.5665  0.2300  1.7113
  817SOL    HW3 3001   1.686   2.526   0.918  0.4751 -1.8960  1.2261
  817SOL    MW4 3002   1.763   2.566   0.906  0.1686  0.3649 -0.3730
  818SOL     OW 3003   2.028   3.209   5.435  0.5288  0.4079 -0.1631
  818SOL    HW2 3004   2.118   3.183   5.457  0.8359  0.2305 -1.5506
  818SOL    HW3 3005   1.982   3.126   5.420  0.0527  0.4875  0.7568
  818SOL    MW4 3006   2.034   3.195   5.436 -0.1261  0.0104  0.6454
  819SOL     OW 3007   1.731   4.626   4.389 -0.0026 -0.5521 -0.2609
  819SOL    HW2 3008   1.750   4.713   4.352  0.1203 -0.8846 -0.9997
  819SOL    HW3 3009   1.720   4.642   4.482 -0.6819  0.3743 -0.4823
  819SOL    MW4 3010   1.732   4.640   4.396 -0.1538  0.2425  0.2351
  820SOL     OW 3011   1.351   0.620   4.873  0.2114  0.1722  0.4403
  820SOL    HW2 3012   1.297   0.568   4.933 -0.5317 -0.2137 -0.5394
  820SOL    HW3 3013   1.397   0.555   4.820 -1.7659  0.4548 -1.7262
  820SOL    MW4 3014   1.350   0.604   4.874 -0.1009  0.2933  0.0058
  821SOL     OW 3015   0.654   2.457   1.746  0.4408  0.1832 -0.1220
  821SOL    HW2 3016   0.589   2.446   1.677  0.2172 -0.5817  0.2074
  821SOL    HW3 3017   0.681   2.368   1.769 -1.1908  0.2354  2.3862
  821SOL    MW4 3018   0.649   2.444   1.740 -0.2805 -0.0236  0.3708
  822SOL     OW 3019   5.300   4.859   0.077 -0.5754  0.2201 -0.2572
  822SOL    HW2 3020   5.211   4.823   0.073 -0.5403  0.1931 -0.8663
  822SOL    HW3 3021   5.332   4.836   0.165 -1.2382  0.3955  0.0381
  822SOL    MW4 3022   5.292   4.851   0.088  0.3984 -0.3499  0.2012
  823SOL     OW 3023   4.847   3.176   5.081  0.0026  0.6606 -0.2886
  823SOL    HW2 3024   4.777   3.185   5.146 -0.6678  1.2716 -1.0771
  823SOL    HW3 3025   4.913   3.240   5.108 -0.6403  1.4881 -0.6753
  823SOL    MW4 3026   4.846   3.186   5.093  0.1911  0.0760 -0.2958
  824SOL     OW 3027   4.697   2.537   0.814 -0.0273  0.0908  0.2668
  824SOL    HW2 3028   4.638   2.551   0.740 -0.4699 -0.5201  0.4984
  824SOL    HW3 3029   4.682   2.613   0.871 -1.0150 -0.3369  0.5985
  824SOL    MW4 3030   4.688   2.549   0.811 -0.1168  0.5483  0.2434
  825SOL     OW 3031   5.920   5.687   4.167 -0.1787  0.0720 -0.7323
  825SOL    HW2 3032   5.989   5.622   4.153 -1.0703 -1.2621  0.6095
  825SOL    HW3 3033   5.882   5.701   4.080 -1.0276 -2.5205 -0.8650
  825SOL    MW4 3034   5.924   5.680   4.154  0.0717  0.0311 -0.3079
  826SOL     OW 3035   1.882   2.841   3.210 -0.3510  0.1878 -0.2859
  826SOL    HW2 3036   1.811   2.796   3.256  0.9465 -0.6565  0.9680
  826SOL    HW3 3037   1.906   2.782   3.139 -0.6870  0.3292 -0.5191
  826SOL    MW4 3038   1.876   2.827   3.207 -0.7597  0.5020 -0.4741
  827SOL     OW 3039   4.764   1.122   6.354  0.0691 -0.0711 -0.0171
  827SOL    HW2 3040   4.803   1.209   6.362 -2.2937  1.1746 -0.9326
  827SOL    HW3 3041   4.745   1.096   6.445 -2.1174  1.8818  0.1694
  827SOL    MW4 3042   4.766   1.130   6.367  0.5782 -0.1764 -0.9496
  828SOL     OW 3043   5.360   1.974   4.028 -0.4737 -0.8777 -0.1392
  828SOL    HW2 3044   5.328   2.037   3.964 -0.7679 -1.6112 -0.7250
  828SOL    HW3 3045   5.380   1.895   3.977  0.8497 -0.9307  0.4316
  828SOL    MW4 3046   5.358   1.972   4.013 -0.0183 -0.1075 -0.1639
  829SOL     OW 3047   4.360   2.656   3.848  0.4000 -0.3176 -0.2708
  829SOL    HW2 3048   4.329   2.746   3.847  0.4418 -0.2943 -1.5344
  829SOL    HW3 3049   4.445   2.660   3.804  0.2945 -1.0096 -0.5462
  829SOL    MW4 3050   4.367   2.668   3.842 -0.1502  0.6656  0.3259
  830SOL     OW 3051   4.689   2.334   1.740 -0.2753  0.3866  0.3678
  830SOL    HW2 3052   4.624   2.347   1.671  0.1318 -1.1249 -0.3371
  830SOL    HW3 3053   4.765   2.295   1.696  0.5398  0.6891  1.4328
  830SOL    MW4 3054   4.691   2.331   1.725 -0.0725 -0.0618  0.0171
  831SOL     OW 3055   3.306   2.728   5.585 -0.7827 -0.2129  0.4602
  831SOL    HW2 3056   3.306   2.819   5.618 -1.1959 -0.9617  2.7220
  831SOL    HW3 3057   3.222   2.693   5.613 -0.2371 -1.5730  0.4445
  831SOL    MW4 3058   3.295   2.736   5.593 -0.0256  0.3227  0.3109
  832SOL     OW 3059   3.035   3.782   5.636  0.5574 -0.2837  0.6848
  832SOL    HW2 3060   3.017   3.875   5.623 -2.9662 -0.9350 -0.1933
  832SOL    HW3 3061   2.966   3.752   5.696  1.3005 -2.4223  0.5620
  832SOL    MW4 3062   3.023   3.790   5.642  0.7062  0.0144 -0.0606
  833SOL     OW 3063   4.783   3.827   0.378  0.3139  0.2633 -0.0074
  833SOL    HW2 3064   4.829   3.802   0.458  0.3657 -0.8715 -0.3746
  833SOL    HW3 3065   4.710   3.765   0.373  0.1514  0.5042 -0.6998
  833SOL    MW4 3066   4.779   3.816   0.388  0.2433  0.1691  0.3895
  834SOL     OW 3067   5.835   2.098   3.946 -0.1867  0.1534  0.6109
  834SOL    HW2 3068   5.825   2.026   4.008 -0.6742  1.8275  2.6151
  834SOL    HW3 3069   5.929   2.104   3.931 -0.0764 -0.4054  1.0616
  834SOL    MW4 3070   5.846   2.089   3.952 -0.3934  0.4508  0.0095
  835SOL     OW 3071   4.913   4.708   3.394  0.2457  0.0579  1.0296
  835SOL    HW2 3072   4.877   4.778   3.449  0.1534  0.6675  0.2177
  835SOL    HW3 3073   4.891   4.627   3.440 -1.6627  0.4321  0.8629
  835SOL    MW4 3074   4.905   4.707   3.407  0.7018 -0.1488  0.6875
  836SOL     OW 3075   5.171   4.028   1.837 -0.3609 -0.2647  0.2601
  836SOL    HW2 3076   5.260   4.039   1.804 -1.3509  1.4655 -2.0440
  836SOL    HW3 3077   5.154   4.108   1.887 -0.6058 -0.6551  0.8188
  836SOL    MW4 3078   5.181   4.040   1.839  0.6702 -0.5530  0.4059
  837SOL     OW 3079   3.782   2.745   0.255  0.1058 -0.2788 -0.3936
  837SOL    HW2 3080   3.739   2.761   0.339  2.8282 -0.0756  1.0743
  837SOL    HW3 3081   3.728   2.677   0.214 -2.6347  1.2874  0.3898
  837SOL    MW4 3082   3.769   2.738   0.261  0.4930 -0.1822  0.7307
  838SOL     OW 3083   3.395   2.873   0.184 -0.6431 -0.1307  0.0210
  838SOL    HW2 3084   3.344   2.933   0.130 -0.7393  0.4558  0.7558
  838SOL    HW3 3085   3.481   2.915   0.192 -0.5476 -0.3413  0.1091
  838SOL    MW4 3086   3.400   2.886   0.178 -0.1047  0.3522 -0.0847
  839SOL     OW 3087   5.845   3.306   2.397 -0.3784 -0.4114 -0.3293
  839SOL    HW2 3088   5.796   3.362   2.337  0.9736 -0.3307 -1.4110
  839SOL    HW3 3089   5.783   3.236   2.421 -0.8807 -0.6138 -2.0600
  839SOL    MW4 3090   5.830   3.304   2.392  0.0408 -0.1619 -0.5619
  840SOL     OW 3091   0.551   3.458   2.551 -0.2919  0.1011 -0.5951
  840SOL    HW2 3092   0.545   3.494   2.639 -0.9915  0.2403 -0.6930
  840SOL    HW3 3093   0.545   3.535   2.493  3.0631  0.3829 -0.7626
  840SOL    MW4 3094   0.549   3.473   2.555  0.3244 -0.3818  0.4117
  841SOL     OW 3095   4.190   3.959   3.513  0.2071 -0.4367  0.3415
  841SOL    HW2 3096   4.103   3.976   3.549  0.0922 -2.3397  1.1013
  841SOL    HW3 3097   4.251   3.988   3.581  0.1634  0.4580  0.0070
  841SOL    MW4 3098   4.187   3.965   3.526 -0.1040  0.3895  0.0060
  842SOL     OW 3099   4.317   4.909   5.340  0.9507 -0.5204  0.0856
  842SOL    HW2 3100   4.387   4.849   5.367 -0.1492 -1.8304  0.1450
  842SOL    HW3 3101   4.292   4.878   5.253  0.3204 -0.1876  0.1509
  842SOL    MW4 3102   4.323   4.897   5.332 -0.3994 -0.1271  0.0479
  843SOL     OW 3103   5.515   5.968   1.258 -0.2790 -0.6409 -0.0270
  843SOL    HW2 3104   5.521   5.980   1.163  0.9077 -2.6891 -0.2670
  843SOL    HW3 3105   5.532   6.055   1.294  2.9633 -0.4602 -1.6403
  843SOL    MW4 3106   5.518   5.981   1.250  0.4073 -0.0585  0.4846
  844SOL     OW 3107   1.282   2.315   0.451  0.0639  0.3623 -0.3968
  844SOL    HW2 3108   1.265   2.284   0.540 -0.9081  1.6601 -0.1023
  844SOL    HW3 3109   1.376   2.304   0.439  0.0740 -0.6665  0.4459
  844SOL    MW4 3110   1.292   2.309   0.461 -0.3092  0.0658 -0.2279
  845SOL     OW 3111   0.575   3.292   5.759  0.1701 -0.1138 -0.2796
  845SOL    HW2 3112   0.508   3.254   5.702  0.1129  1.3739 -1.2798
  845SOL    HW3 3113   0.544   3.381   5.776  1.8960  0.6318 -0.7959
  845SOL    MW4 3114   0.562   3.299   5.754 -0.5999 -0.0895 -0.0618
  846SOL     OW 3115   1.456   5.885   3.700 -0.0021  0.3110  0.1600
  846SOL    HW2 3116   1.477   5.840   3.782  0.8231 -0.5741 -0.5079
  846SOL    HW3 3117   1.534   5.872   3.646 -1.1243 -0.4856 -1.3358
  846SOL    MW4 3118   1.469   5.877   3.704  0.4478 -0.0629 -0.1050
  847SOL     OW 3119   3.761   3.979   2.394  0.3597 -0.0973 -0.3368
  847SOL    HW2 3120   3.687   3.942   2.346  0.3861 -0.9027  0.2326
  847SOL    HW3 3121   3.723   4.051   2.444 -0.0112 -0.3906 -0.1912
  847SOL    MW4 3122   3.746   3.984   2.394  0.3322  0.4667  0.3212
  848SOL     OW 3123   0.620   1.539   4.659  1.3209 -0.6122 -0.2639
  848SOL    HW2 3124   0.616   1.581   4.573  1.0379 -0.9998 -0.4483
  848SOL    HW3 3125   0.695   1.579   4.702  0.9089  0.2554 -0.3335
  848SOL    MW4 3126   0.629   1.550   4.653 -0.1825  0.2729 -0.1535
  849SOL     OW 3127   3.433   1.203   4.791 -0.0852  0.0307  0.2619
  849SOL    HW2 3128   3.346   1.212   4.754  0.9632  1.0003 -2.1828
  849SOL    HW3 3129   3.438   1.111   4.820 -1.2514 -0.6257 -1.4474
  849SOL    MW4 3130   3.422   1.192   4.790  0.4696  0.0430  0.6889
  850SOL     OW 3131   5.777   1.298   3.857  0.3158 -0.6863 -0.3318
  850SOL    HW2 3132   5.859   1.300   3.808  1.0804 -0.7586  0.9094
  850SOL    HW3 3133   5.731   1.222   3.821  0.1124  0.1954 -2.0485
  850SOL    MW4 3134   5.782   1.288   3.846  0.2849  0.0827  0.1746
  851SOL     OW 3135   2.018   1.189   3.428 -0.2735 -0.0612 -0.1686
  851SOL    HW2 3136   2.047   1.103   3.400  2.1586  0.9963 -1.1782
  851SOL    HW3 3137   2.013   1.241   3.348 -2.2897  0.6325  0.3410
  851SOL    MW4 3138   2.021   1.185   3.414 -0.5456 -0.1695  0.1886
  852SOL     OW 3139   6.416   3.730   0.343  0.1719 -0.0401 -0.1346
  852SOL    HW2 3140   6.338   3.692   0.385 -1.1406  0.9878 -1.5226
  852SOL    HW3 3141   6.466   3.766   0.416 -0.4455 -1.0685  0.8362
  852SOL    MW4 3142   6.412   3.730   0.358 -0.1242  0.2431 -0.1584
  853SOL     OW 3143   6.308   1.126   1.502  0.3314 -0.4238  0.0477
  853SOL    HW2 3144   6.290   1.115   1.409 -0.8423  0.1074  0.1919
  853SOL    HW3 3145   6.240   1.075   1.546 -2.4604  3.3433  0.6456
  853SOL    MW4 3146   6.297   1.118   1.496 -0.4947  0.5915 -0.4642
  854SOL     OW 3147   5.813   4.823   0.804  0.6243 -0.0592  0.3288
  854SOL    HW2 3148   5.725   4.824   0.842  0.4406 -1.1913 -0.0471
  854SOL    HW3 3149   5.814   4.897   0.743 -0.6422 -1.0146 -0.9177
  854SOL    MW4 3150   5.802   4.833   0.801 -0.2875 -0.2437  0.2591
  855SOL     OW 3151   5.047   3.296   1.278 -0.2293 -0.0934  0.2210
  855SOL    HW2 3152   5.104   3.223   1.301  0.1549 -0.4374 -1.6795
  855SOL    HW3 3153   5.088   3.372   1.318  0.7998 -0.5555  0.0603
  855SOL    MW4 3154   5.060   3.297   1.286 -0.7034 -0.2314  0.8690
  856SOL     OW 3155   3.435   5.918   1.995 -0.4020  0.0736 -0.1440
  856SOL    HW2 3156   3.419   5.957   2.081 -0.2925  0.0962 -0.1335
  856SOL    HW3 3157   3.446   5.993   1.936 -0.4390  0.0585 -0.1709
  856SOL    MW4 3158   3.434   5.933   1.998 -0.0114 -0.4837 -0.4188
  857SOL     OW 3159   4.557   6.416   2.879  0.1635  0.0452  0.2402
  857SOL    HW2 3160   4.637   6.465   2.900  0.8040 -0.5214 -0.7959
  857SOL    HW3 3161   4.563   6.399   2.785 -0.8217 -0.6422  0.2851
  857SOL    MW4 3162   4.568   6.420   2.870 -0.3961  0.7799 -0.0694
  858SOL     OW 3163   2.003   4.933   6.004 -0.1936  0.1042 -0.0162
  858SOL    HW2 3164   1.986   5.008   6.061  0.0722 -0.1944  0.4705
  858SOL    HW3 3165   1.921   4.884   6.004  0.3214 -0.8619  1.6094
  858SOL    MW4 3166   1.990   4.936   6.012  0.3816 -0.1788 -0.6813
  859SOL     OW 3167   4.686   2.327   1.020  0.5686  0.0714 -0.3874
  859SOL    HW2 3168   4.718   2.257   0.962 -0.6511 -0.1352 -0.8455
  859SOL    HW3 3169   4.651   2.393   0.960 -1.0457 -0.3082  0.0827
  859SOL    MW4 3170   4.686   2.326   1.005 -0.2973 -0.2429 -0.0188
  860SOL     OW 3171   3.897   4.329   1.892  0.4317 -0.4970 -0.2738
  860SOL    HW2 3172   3.989   4.315   1.868  0.0272  1.0827 -3.2674
  860SOL    HW3 3173   3.854   4.352   1.809 -2.0346  1.8041  1.4790
  860SOL    MW4 3174   3.904   4.330   1.878  0.3957  0.2587 -1.1102
  861SOL     OW 3175   2.936   6.163   6.145  0.4935  0.0963  0.1184
  861SOL    HW2 3176   3.010   6.207   6.102  1.8791 -0.3596  1.9494
  861SOL    HW3 3177   2.859   6.204   6.105  1.7117  1.3822 -1.0566
  861SOL    MW4 3178   2.936   6.174   6.134  0.7810 -0.4035 -0.0377
  862SOL     OW 3179   5.596   0.518   2.535  0.3266 -0.0587  0.4058
  862SOL    HW2 3180   5.502   0.516   2.515  0.6960 -2.7444 -1.7381
  862SOL    HW3 3181   5.600   0.516   2.630 -1.8239 -0.9640  0.5544
  862SOL    MW4 3182   5.584   0.518   2.545 -0.2695  0.1622  0.1725
  863SOL     OW 3183   2.567   2.500   2.406 -0.2986  0.1215  0.1011
  863SOL    HW2 3184   2.607   2.553   2.475  2.7993 -0.3546 -1.1537
  863SOL    HW3 3185   2.551   2.415   2.448 -0.0123  0.3372  0.6530
  863SOL    MW4 3186   2.570   2.496   2.421 -0.4088  0.1266  0.0053
  864SOL     OW 3187   1.246   2.213   3.367  0.2008  0.1842 -0.1599
  864SOL    HW2 3188   1.284   2.178   3.286 -0.3419 -0.1646 -0.2680
  864SOL    HW3 3189   1.300   2.290   3.387 -1.9238  2.6287 -2.9291
  864SOL    MW4 3190   1.258   2.218   3.359  0.5177  0.5689 -0.1004
  865SOL     OW 3191   4.565   0.457   3.334 -0.0199 -0.1822  0.0989
  865SOL    HW2 3192   4.654   0.425   3.321 -1.3970 -3.6272 -2.3536
  865SOL    HW3 3193   4.542   0.428   3.423  1.2204  0.6986  0.7369
  865SOL    MW4 3194   4.574   0.449   3.344  0.3706 -0.3770 -0.3370
  866SOL     OW 3195   1.186   1.523   6.199 -0.1259  0.2250  0.5515
  866SOL    HW2 3196   1.158   1.561   6.115  0.5915 -1.0146 -0.2709
  866SOL    HW3 3197   1.276   1.554   6.210  0.1933 -0.5685  0.2578
  866SOL    MW4 3198   1.194   1.532   6.189 -0.2085  0.1881 -0.1926
  867SOL     OW 3199   1.893   2.592   2.134  0.1985  0.1903  0.0175
  867SOL    HW2 3200   1.954   2.658   2.102 -0.1257 -0.4127 -2.0106
  867SOL    HW3 3201   1.944   2.537   2.193  0.7127  1.6555  0.9770
  867SOL    MW4 3202   1.908   2.593   2.137 -0.6639 -0.6175 -0.3801
  868SOL     OW 3203   5.539   1.562   2.600  0.1013 -0.3777 -0.6227
  868SOL    HW2 3204   5.579   1.586   2.516  0.1555 -2.2452 -1.1786
  868SOL    HW3 3205   5.612   1.537   2.656  0.0183  0.2847 -0.2091
  868SOL    MW4 3206   5.554   1.562   2.596  0.2504  0.3450 -0.0093
  869SOL     OW 3207   1.912   3.508   6.363  0.2521  0.0762 -0.0936
  869SOL    HW2 3208   1.925   3.588   6.413  0.1360 -0.8693  1.5207
  869SOL    HW3 3209   1.853   3.533   6.292 -0.7407  1.1575  1.0674
  869SOL    MW4 3210   1.906   3.522   6.360 -1.0426 -0.1221  0.0771
  870SOL     OW 3211   0.221   1.218   4.928 -0.0766 -0.3195 -0.1975
  870SOL    HW2 3212   0.191   1.280   4.861  0.5995  0.3029  0.0522
  870SOL    HW3 3213   0.164   1.142   4.918 -0.3415 -0.0208 -1.1176
  870SOL    MW4 3214   0.210   1.216   4.918  0.2714  0.2725  0.4667
  871SOL     OW 3215   4.054   1.781   0.572  0.0095 -0.5437  0.2870
  871SOL    HW2 3216   4.026   1.719   0.505 -0.3004 -0.5450  0.4154
  871SOL    HW3 3217   3.972   1.815   0.609  0.1580  0.6437 -0.4264
  871SOL    MW4 3218   4.039   1.778   0.568  0.0757 -0.2592 -0.5336
  872SOL     OW 3219   1.019   4.965   5.407 -0.0816  0.0187 -0.0414
  872SOL    HW2 3220   1.105   4.925   5.424 -0.0409 -1.0524 -2.3875
  872SOL    HW3 3221   1.015   4.973   5.312 -1.6147  2.3552  0.1288
  872SOL    MW4 3222   1.030   4.961   5.397 -0.9521  0.0007  0.2616
  873SOL     OW 3223   4.878   4.973   0.209  0.3175 -0.3161 -0.2834
  873SOL    HW2 3224   4.901   4.892   0.255  0.2347 -0.7959 -1.0747
  873SOL    HW3 3225   4.797   5.002   0.251  0.6797 -0.3019  0.4214
  873SOL    MW4 3226   4.871   4.966   0.221 -0.3086  0.1086 -0.4519
  874SOL     OW 3227   2.435   0.203   3.324  0.1019  0.1250  0.2088
  874SOL    HW2 3228   2.471   0.288   3.297  0.8867 -0.5889 -1.0854
  874SOL    HW3 3229   2.474   0.140   3.263 -1.2617 -1.0379  0.4984
  874SOL    MW4 3230   2.445   0.206   3.313  0.5916  0.5975 -0.4855
  875SOL     OW 3231   5.820   1.245   3.488  0.2347  0.7498 -0.3650
  875SOL    HW2 3232   5.737   1.199   3.497  1.6521 -1.7884  0.8714
  875SOL    HW3 3233   5.874   1.186   3.436  1.3408  2.3090 -1.0711
  875SOL    MW4 3234   5.816   1.231   3.482  0.2049 -0.0611 -0.2074
  876SOL     OW 3235   3.742   3.328   6.111  0.2822 -0.1595 -0.1960
  876SOL    HW2 3236   3.772   3.284   6.191 -0.0907  0.9858  0.5960
  876SOL    HW3 3237   3.805   3.302   6.044  1.3247 -0.1651  0.7619
  876SOL    MW4 3238   3.754   3.319   6.113 -0.1377  0.6923 -0.0138
  877SOL     OW 3239   3.098   4.900   2.335 -0.4530 -0.5083 -0.5810
  877SOL    HW2 3240   3.166   4.944   2.283  0.9389 -0.6145  1.0573
  877SOL    HW3 3241   3.071   4.826   2.282  3.4474 -2.7149  0.1506
  877SOL    MW4 3242   3.103   4.896   2.321  0.6008 -0.2263  0.0659
  878SOL     OW 3243   3.977   3.746   4.339  0.0697  0.1368 -0.3756
  878SOL    HW2 3244   4.059   3.735   4.291  1.3630  4.3871  0.3649
  878SOL    HW3 3245   4.004   3.778   4.426 -2.2983  2.0510 -0.2172
  878SOL    MW4 3246   3.991   3.749   4.344 -0.7707 -0.5404  0.0697
  879SOL     OW 3247   4.442   2.570   4.288  0.2024  0.6160  0.1290
  879SOL    HW2 3248   4.379   2.558   4.217 -0.2054  0.4408  0.5137
  879SOL    HW3 3249   4.466   2.662   4.284  2.2160  0.0851 -1.9117
  879SOL    MW4 3250   4.437   2.580   4.278 -0.1212  0.2032  0.7493
  880SOL     OW 3251   5.977   3.093   4.406  0.2984 -0.4346  0.0692
  880SOL    HW2 3252   6.046   3.091   4.340  1.3108 -1.1835  1.1128
  880SOL    HW3 3253   5.999   3.169   4.461 -0.2458 -0.1177 -0.1461
  880SOL    MW4 3254   5.989   3.103   4.405  0.2691 -0.0981 -0.2398
  881SOL     OW 3255   0.574   3.981   0.045  0.1558 -0.2234 -0.1622
  881SOL    HW2 3256   0.521   3.937   0.110  1.3439 -1.9917 -0.3266
  881SOL    HW3 3257   0.511   4.024  -0.012 -1.0863 -1.7359  0.0042
  881SOL    MW4 3258   0.559   3.981   0.046 -0.2216 -0.3236 -0.4524
  882SOL     OW 3259   4.442   3.306   2.657 -0.3478  0.2104  0.5471
  882SOL    HW2 3260   4.433   3.213   2.677  1.1336  0.0162  0.4399
  882SOL    HW3 3261   4.458   3.348   2.742  1.1189  0.0481  0.3794
  882SOL    MW4 3262   4.443   3.299   2.671  0.1608 -0.1933 -0.0474
  883SOL     OW 3263   3.678   4.445   6.276 -0.8302 -0.3845 -0.1433
  883SOL    HW2 3264   3.769   4.475   6.271 -1.1676  0.8529  0.6149
  883SOL    HW3 3265   3.678   4.361   6.231  0.8766 -0.8375  0.5997
  883SOL    MW4 3266   3.690   4.438   6.270 -0.3056 -0.2215 -0.0692
  884SOL     OW 3267   1.430   0.949   1.709  0.6136  0.2511 -0.3359
  884SOL    HW2 3268   1.359   0.963   1.771  0.1649  2.0248 -1.1777
  884SOL    HW3 3269   1.510   0.950   1.762  0.0838 -1.0244  0.5243
  884SOL    MW4 3270   1.431   0.951   1.724  0.5049  0.3654  0.5056
  885SOL     OW 3271   3.821   3.107   2.176 -0.4111 -0.1837  0.3736
  885SOL    HW2 3272   3.774   3.161   2.239 -0.9581  1.0797 -1.0459
  885SOL    HW3 3273   3.856   3.169   2.112 -1.1005 -1.4853 -1.3566
  885SOL    MW4 3274   3.819   3.122   2.175  0.0769  0.4146  0.2157
  886SOL     OW 3275   4.924   5.477   1.195  0.0705  0.3442  0.1966
  886SOL    HW2 3276   4.987   5.496   1.264  1.0892 -0.1491 -0.5629
  886SOL    HW3 3277   4.841   5.465   1.241  0.8678 -0.7460  1.4381
  886SOL    MW4 3278   4.922   5.478   1.210 -0.1185 -0.4402  0.2143
  887SOL     OW 3279   6.072   4.100   1.506 -0.3801  0.0832  0.6592
  887SOL    HW2 3280   6.033   4.179   1.468 -1.4686  0.2584  2.0602
  887SOL    HW3 3281   6.153   4.087   1.457  0.5255  2.8428  1.2964
  887SOL    MW4 3282   6.077   4.109   1.494  0.0527 -0.0503  0.8847
  888SOL     OW 3283   5.758   2.787   6.329 -0.0808  0.2704 -0.4356
  888SOL    HW2 3284   5.731   2.875   6.355 -1.2202 -0.0396 -0.4960
  888SOL    HW3 3285   5.683   2.731   6.353  0.7855 -0.7467 -0.0195
  888SOL    MW4 3286   5.744   2.791   6.336 -0.3198 -0.4435 -0.2063
  889SOL     OW 3287   1.227   4.280   4.846  0.4753  0.2066  0.8303
  889SOL    HW2 3288   1.250   4.190   4.872  4.2227  1.8605  4.5161
  889SOL    HW3 3289   1.301   4.309   4.793 -0.0063  1.5067  0.8388
  889SOL    MW4 3290   1.240   4.272   4.843  0.3383  0.9433 -0.3676
  890SOL     OW 3291   1.529   5.262   5.121 -0.4255 -0.5682  0.0650
  890SOL    HW2 3292   1.587   5.197   5.160 -0.1999 -1.8036 -2.1350
  890SOL    HW3 3293   1.455   5.211   5.088 -1.9741  0.7707  1.3136
  890SOL    MW4 3294   1.527   5.247   5.121  0.2574  0.0711  0.0519
  891SOL     OW 3295   0.231   5.030   0.634 -0.1414 -0.1161  0.2839
  891SOL    HW2 3296   0.192   5.017   0.720  1.9836  2.1359  1.7214
  891SOL    HW3 3297   0.310   4.975   0.635 -0.7628 -1.0810 -0.7959
  891SOL    MW4 3298   0.236   5.021   0.646 -0.0428 -0.0717  0.2611
  892SOL     OW 3299   6.239   1.696   5.067 -0.0856  0.4768 -0.2972
  892SOL    HW2 3300   6.206   1.784   5.086 -0.5444 -0.2127  2.6606
  892SOL    HW3 3301   6.170   1.637   5.099  1.4850 -0.9574  0.6336
  892SOL    MW4 3302   6.226   1.699   5.074 -0.2622 -0.0814  0.1672
  893SOL     OW 3303   0.372   0.775   3.662 -0.2372 -0.0883 -0.1883
  893SOL    HW2 3304   0.355   0.864   3.632  1.6467 -0.3369 -2.2755
  893SOL    HW3 3305   0.285   0.738   3.679 -1.2224  1.3768 -1.7429
  893SOL    MW4 3306   0.358   0.782   3.660  0.3758 -0.3534  0.1055
  894SOL     OW 3307   3.684   4.879   2.227 -0.0946  0.3842  0.3798
  894SOL    HW2 3308   3.670   4.972   2.208 -1.3885  0.0424 -0.5408
  894SOL    HW3 3309   3.643   4.833   2.153  0.1331 -0.9268  1.0303
  894SOL    MW4 3310   3.677   4.885   2.214 -0.8321 -0.3398 -0.2769
  895SOL     OW 3311   0.245   0.071   5.342  0.3019  0.3322 -0.1427
  895SOL    HW2 3312   0.274   0.162   5.344  1.1751  0.0509  0.8282
  895SOL    HW3 3313   0.319   0.023   5.305  0.3845 -0.1450  0.6096
  895SOL    MW4 3314   0.259   0.076   5.338  0.9739  0.5339 -0.1198
  896SOL     OW 3315   2.811   5.444   2.963 -0.2402  0.1479  0.3042
  896SOL    HW2 3316   2.804   5.449   2.868  0.7157  0.5668  0.2475
  896SOL    HW3 3317   2.878   5.377   2.979  2.2932  2.5828  0.5589
  896SOL    MW4 3318   2.819   5.436   2.953  0.0981 -1.4423  0.2334
  897SOL     OW 3319   2.588   6.115   5.542 -0.0136  0.2842  0.2644
  897SOL    HW2 3320   2.508   6.073   5.573  0.1120  0.4484  0.8241
  897SOL    HW3 3321   2.618   6.059   5.470 -1.9247  1.5463 -1.6369
  897SOL    MW4 3322   2.582   6.102   5.537  0.2102  0.4249  0.3882
  898SOL     OW 3323   2.086   2.754   5.400 -0.2700 -0.3696  0.3454
  898SOL    HW2 3324   2.072   2.659   5.406 -1.8562 -0.1986 -0.1531
  898SOL    HW3 3325   2.087   2.772   5.306 -2.1399  0.3548  0.4239
  898SOL    MW4 3326   2.084   2.744   5.388 -0.9033  0.2774  0.4011
  899SOL     OW 3327   3.875   3.779   3.541  0.5600  0.0065  0.3183
  899SOL    HW2 3328   3.897   3.869   3.565 -0.3828  0.0498  1.0818
  899SOL    HW3 3329   3.937   3.725   3.590  0.6432  0.2143  0.4409
  899SOL    MW4 3330   3.886   3.784   3.551 -0.4481  0.1731  0.0064
  900SOL     OW 3331   6.302   3.554   5.884  0.1126 -0.1070  0.2348
  900SOL    HW2 3332   6.326   3.541   5.976 -0.9720 -2.3055  0.2576
  900SOL    HW3 3333   6.211   3.581   5.886  0.2452  0.3923 -0.1905
  900SOL    MW4 3334   6.293   3.556   5.896  0.0925  0.3324 -0.0403
  901SOL     OW 3335   4.787   3.357   1.196  0.1053  0.4937  0.0968
  901SOL    HW2 3336   4.723   3.287   1.205  1.9553 -1.0789  1.6560
  901SOL    HW3 3337   4.872   3.314   1.204  1.3985  2.5705 -1.4540
  901SOL    MW4 3338   4.790   3.342   1.198 -0.1538 -1.1123  0.5892
  902SOL     OW 3339   4.115   3.042   3.828  0.1113 -0.1075 -0.5395
  902SOL    HW2 3340   4.206   3.020   3.848  0.4403  0.9348 -0.8116
  902SOL    HW3 3341   4.093   2.989   3.752  0.3331 -0.7220 -0.1766
  902SOL    MW4 3342   4.124   3.032   3.820  0.0778 -0.2066  0.4419
  903SOL     OW 3343   4.494   5.628   4.663 -0.0927  0.1959 -0.2360
  903SOL    HW2 3344   4.564   5.663   4.608  0.0186 -2.3818 -1.8895
  903SOL    HW3 3345   4.539   5.598   4.742  0.5297 -0.4233 -0.8114
  903SOL    MW4 3346   4.509   5.628   4.666 -0.2299  0.0455  0.1469
  904SOL     OW 3347   4.417   4.807   1.308  0.0184  0.7309 -0.0829
  904SOL    HW2 3348   4.347   4.835   1.249  0.3697  1.1247 -0.3141
  904SOL    HW3 3349   4.486   4.775   1.250 -0.1683 -0.1455  0.1605
  904SOL    MW4 3350   4.417   4.807   1.293 -0.3405  0.9335 -0.2143
  905SOL     OW 3351   4.970   3.760   1.249  0.4962  0.5335  0.1833
  905SOL    HW2 3352   5.019   3.709   1.184  1.1090  1.0100  0.2629
  905SOL    HW3 3353   4.927   3.693   1.303  2.5982 -0.0141  1.3153
  905SOL    MW4 3354   4.971   3.744   1.248 -0.3265 -0.6991 -0.0381
  906SOL     OW 3355   1.636   3.288   0.177  0.6203 -0.1015  0.1974
  906SOL    HW2 3356   1.623   3.312   0.268  0.5361  1.5570 -0.2212
  906SOL    HW3 3357   1.555   3.314   0.133  1.4909  1.2298 -0.7106
  906SOL    MW4 3358   1.624   3.295   0.183 -0.1096 -0.2763 -0.2063
  907SOL     OW 3359   0.017   4.435   2.005  0.0563  0.4596 -0.5164
  907SOL    HW2 3360  -0.045   4.361   2.005 -0.3654  0.8081 -0.4789
  907SOL    HW3 3361  -0.022   4.498   1.946 -0.7262  1.5992  1.1460
  907SOL    MW4 3362   0.004   4.433   1.997 -0.0350 -0.3455 -0.2872
  908SOL     OW 3363   0.410   2.498   1.547 -0.3425  0.8757  0.1445
  908SOL    HW2 3364   0.394   2.574   1.603 -0.2649  0.5328  0.6381
  908SOL    HW3 3365   0.477   2.527   1.486  0.8113  0.7369  1.3024
  908SOL    MW4 3366   0.417   2.512   1.547 -0.3470  0.2224  0.1063
  909SOL     OW 3367   0.867   4.622   1.676  0.2313  0.1588 -0.2375
  909SOL    HW2 3368   0.914   4.584   1.602  0.1077 -0.1845 -0.1422
  909SOL    HW3 3369   0.885   4.716   1.671  0.3784  0.1117 -0.5909
  909SOL    MW4 3370   0.876   4.629   1.665 -0.2705  0.0547  0.0248
  910SOL     OW 3371   6.372   2.057   3.191  0.6945  0.1605  0.0078
  910SOL    HW2 3372   6.415   2.119   3.131 -0.3368 -0.2560 -1.2231
  910SOL    HW3 3373   6.287   2.097   3.208  0.9821  0.2793  1.2534
  910SOL    MW4 3374   6.366   2.070   3.185 -0.4240 -0.3882 -0.2568
  911SOL     OW 3375   5.932   3.425   5.870 -0.2463  0.5782 -0.3700
  911SOL    HW2 3376   5.903   3.516   5.867  0.2296  0.7096 -1.4122
  911SOL    HW3 3377   5.879   3.385   5.939 -1.5072  1.2711 -0.9073
  911SOL    MW4 3378   5.921   3.432   5.879  0.5209 -0.2745 -0.4321
  912SOL     OW 3379   3.920   5.316   3.187  0.7249  0.0219 -0.1059
  912SOL    HW2 3380   3.890   5.290   3.100  2.3331 -0.2858 -0.6148
  912SOL    HW3 3381   3.883   5.251   3.246  1.6746 -1.2970 -0.8999
  912SOL    MW4 3382   3.912   5.304   3.183  0.2512  0.3676  0.5056
  913SOL     OW 3383   0.632   0.032   4.194  0.4272 -0.0842  0.0564
  913SOL    HW2 3384   0.537   0.027   4.205  0.6127 -1.1962  1.4807
  913SOL    HW3 3385   0.663  -0.057   4.211  1.8029  0.5002  0.7687
  913SOL    MW4 3386   0.623   0.020   4.198  0.5582 -0.0371  0.0955
  914SOL     OW 3387   4.304   0.887   1.886 -0.3496 -0.0039  0.3505
  914SOL    HW2 3388   4.369   0.956   1.869  0.0158 -0.5827 -0.7285
  914SOL    HW3 3389   4.326   0.855   1.973 -1.1060  1.8376  1.2819
  914SOL    MW4 3390   4.316   0.892   1.895 -0.7135 -0.2921 -0.4528
  915SOL     OW 3391   5.660   1.448   2.047  0.5067 -0.1058  0.1924
  915SOL    HW2 3392   5.744   1.493   2.036  1.2900 -1.6432 -0.3433
  915SOL    HW3 3393   5.657   1.384   1.976 -1.2826  0.1277  0.0056
  915SOL    MW4 3394   5.670   1.446   2.036 -0.1836 -0.0664  0.4966
  916SOL     OW 3395   1.041   4.846   3.845  0.2243  0.2922  0.0832
  916SOL    HW2 3396   0.959   4.797   3.853 -0.3153  1.1132 -0.2311
  916SOL    HW3 3397   1.024   4.929   3.889  0.9044  0.4541  0.0531
  916SOL    MW4 3398   1.028   4.850   3.852  0.1822  0.0861  0.6392
  917SOL     OW 3399   4.388   1.504   2.262 -0.3903  0.2152  0.3349
  917SOL    HW2 3400   4.401   1.436   2.196 -0.0638  0.3105  0.2992
  917SOL    HW3 3401   4.299   1.535   2.248  0.4415  1.9317 -1.6821
  917SOL    MW4 3402   4.378   1.499   2.252 -0.3136  0.3829 -0.0710
  918SOL     OW 3403   1.976   1.279   4.912  0.2334 -0.2621  0.1554
  918SOL    HW2 3404   2.066   1.261   4.885 -0.4867 -1.0732 -1.9724
  918SOL    HW3 3405   1.939   1.330   4.840 -1.2175 -0.5908  0.6298
  918SOL    MW4 3406   1.983   1.283   4.899  0.2265 -0.2192 -0.3725
  919SOL     OW 3407   3.596   0.179   5.160  0.6824  0.4165  0.1652
  919SOL    HW2 3408   3.556   0.135   5.085 -1.1866  0.3539  1.1303
  919SOL    HW3 3409   3.585   0.272   5.143 -2.1523  0.4330  1.4450
  919SOL    MW4 3410   3.589   0.186   5.148 -0.0086 -0.4336  0.5451
  920SOL     OW 3411   3.566   0.433   5.056 -0.4195 -0.3600  0.3993
  920SOL    HW2 3412   3.480   0.472   5.039 -0.3124 -0.4634 -0.4154
  920SOL    HW3 3413   3.625   0.508   5.067 -0.3821 -0.2829 -0.2883
  920SOL    MW4 3414   3.563   0.448   5.055  0.2061  0.1238  0.0662
  921SOL     OW 3415   3.829   1.314   1.480  0.2402  0.0834 -0.6340
  921SOL    HW2 3416   3.842   1.378   1.550  0.8339 -0.7838  0.0700
  921SOL    HW3 3417   3.770   1.248   1.519  1.4415 -0.9792 -0.5512
  921SOL    MW4 3418   3.823   1.313   1.494  0.4531 -0.1921 -0.2051
  922SOL     OW 3419   3.308   5.510   3.913  0.2094  0.3727  0.0516
  922SOL    HW2 3420   3.370   5.466   3.972  1.1072  2.0336  0.4115
  922SOL    HW3 3421   3.298   5.597   3.951  1.4994  1.8365 -2.7002
  922SOL    MW4 3422   3.315   5.515   3.926 -0.3039 -0.0120 -0.1692
  923SOL     OW 3423   3.805   6.429   5.756  0.2994  0.3994  0.2957
  923SOL    HW2 3424   3.760   6.480   5.824 -0.7780  1.2475 -1.0058
  923SOL    HW3 3425   3.735   6.399   5.698  1.0506 -1.5225  0.3028
  923SOL    MW4 3426   3.790   6.432   5.757 -0.4680 -0.2823  0.5586
  924SOL     OW 3427   1.004   2.957   1.920  0.2929 -0.4263 -0.8661
  924SOL    HW2 3428   0.930   2.909   1.955  1.3151 -1.4853 -0.0539
  924SOL    HW3 3429   1.002   3.041   1.966  0.5373 -1.0879  0.4232
  924SOL    MW4 3430   0.994   2.961   1.931  0.2805 -0.2179  0.5226
  925SOL     OW 3431   6.327   3.541   3.935  0.2930  0.0503  0.5088
  925SOL    HW2 3432   6.241   3.545   3.975  0.3616 -1.0030  0.8072
  925SOL    HW3 3433   6.385   3.508   4.004  0.9342  0.7261  0.3090
  925SOL    MW4 3434   6.324   3.537   3.949  0.4180  0.0162  0.3354
  926SOL     OW 3435   0.932   5.223   2.171  0.2792 -0.6539 -0.3887
  926SOL    HW2 3436   0.949   5.131   2.189 -0.8674 -0.5671  1.4643
  926SOL    HW3 3437   0.887   5.255   2.250 -1.3016  0.9554 -1.8459
  926SOL    MW4 3438   0.928   5.215   2.184  0.1272 -0.2355  0.3499
  927SOL     OW 3439   6.262   0.018   2.992  0.2463  0.2125 -0.3454
  927SOL    HW2 3440   6.300   0.067   2.918  1.1718 -1.2136 -0.8629
  927SOL    HW3 3441   6.325   0.029   3.063 -1.6607  3.3876  1.0543
  927SOL    MW4 3442   6.276   0.026   2.991  0.1503 -0.3962 -0.7772
  928SOL     OW 3443   2.854   1.101   2.717 -0.8466  0.4434 -0.1011
  928SOL    HW2 3444   2.918   1.099   2.789 -0.8667 -2.4764 -0.0294
  928SOL    HW3 3445   2.776   1.139   2.755 -0.8196 -0.9463  1.4632
  928SOL    MW4 3446   2.852   1.105   2.732  0.2972  0.5847 -0.2221
  929SOL     OW 3447   0.997   6.300   0.730 -0.0880  0.5247 -0.1083
  929SOL    HW2 3448   0.986   6.325   0.821  0.3043  0.0775  0.0626
  929SOL    HW3 3449   0.954   6.370   0.681 -1.0979  0.3066  0.4401
  929SOL    MW4 3450   0.990   6.313   0.735  0.2470 -0.3466 -0.1817
  930SOL     OW 3451   2.839   0.198   5.860  0.2541  0.3313  0.3678
  930SOL    HW2 3452   2.776   0.197   5.788  1.0378  0.5665 -0.3392
  930SOL    HW3 3453   2.822   0.281   5.906 -4.2368 -2.2173  4.1675
  930SOL    MW4 3454   2.828   0.209   5.856  0.5628  0.6022 -0.0482
  931SOL     OW 3455   0.563   3.179   2.160  0.2017 -0.4445  1.0950
  931SOL    HW2 3456   0.525   3.208   2.243 -5.1472 -0.2786 -1.0091
  931SOL    HW3 3457   0.538   3.087   2.154  2.1615 -0.9697  0.3863
  931SOL    MW4 3458   0.555   3.171   2.170  0.3130 -0.1296  0.1130
  932SOL     OW 3459   5.585   0.229   2.503 -0.1692 -0.4139  0.5037
  932SOL    HW2 3460   5.667   0.194   2.467  0.0522  1.2823 -0.7848
  932SOL    HW3 3461   5.592   0.324   2.490 -2.0281 -0.1686  1.0378
  932SOL    MW4 3462   5.597   0.237   2.496 -0.4836  0.7599  0.1743
  933SOL     OW 3463   4.692   0.042   5.367  0.0260  0.0774 -0.7466
  933SOL    HW2 3464   4.741   0.022   5.448 -0.5247 -1.7734 -0.8141
  933SOL    HW3 3465   4.701   0.136   5.356  1.4160  0.1531  0.6420
  933SOL    MW4 3466   4.700   0.051   5.376  0.1596 -0.0423 -0.3956
  934SOL     OW 3467   2.559   5.308   6.024  0.2657 -0.2222  0.7383
  934SOL    HW2 3468   2.613   5.365   6.078  1.0694 -0.6066  0.3609
  934SOL    HW3 3469   2.518   5.248   6.087 -1.2198  1.2239  1.2304
  934SOL    MW4 3470   2.560   5.308   6.040 -0.0279 -0.0968  0.1670
  935SOL     OW 3471   1.116   0.855   0.432 -0.0901  0.2107 -0.2125
  935SOL    HW2 3472   1.041   0.886   0.382 -0.6678 -0.0114  0.5031
  935SOL    HW3 3473   1.095   0.878   0.523  1.3303  1.3954 -0.1460
  935SOL    MW4 3474   1.103   0.862   0.438 -0.3345  0.2901 -0.3064
  936SOL     OW 3475   4.428   2.356   0.454  0.4540 -0.6536 -0.3885
  936SOL    HW2 3476   4.438   2.350   0.359  2.3574  1.1977 -0.3740
  936SOL    HW3 3477   4.497   2.300   0.489 -1.4744 -2.9494  0.0141
  936SOL    MW4 3478   4.438   2.348   0.446 -0.6705  0.1529 -0.3322
  937SOL     OW 3479   0.949   2.441   0.936  0.2488 -0.1880 -0.3477
  937SOL    HW2 3480   1.042   2.456   0.918 -0.0069  1.7420 -0.2315
  937SOL    HW3 3481   0.947   2.411   1.027  0.6338  2.2467  0.5528
  937SOL    MW4 3482   0.961   2.439   0.946  0.4589  0.1134 -0.7773
  938SOL     OW 3483   2.364   2.121   1.266 -0.0157  0.1541 -0.5219
  938SOL    HW2 3484   2.313   2.103   1.186  0.6544 -0.9451 -0.7062
  938SOL    HW3 3485   2.376   2.216   1.264 -0.5711  0.2238 -1.3927
  938SOL    MW4 3486   2.359   2.131   1.255 -0.2754  0.3144 -0.2658
  939SOL     OW 3487   6.067   2.568   5.121 -0.1140  0.0163  0.1715
  939SOL    HW2 3488   6.125   2.588   5.194 -0.4620  0.5341  0.3102
  939SOL    HW3 3489   6.115   2.504   5.068 -0.4809 -1.6229  1.6985
  939SOL    MW4 3490   6.081   2.562   5.123 -0.3020  1.1110 -0.5880
  940SOL     OW 3491   4.993   5.230   1.117  0.2502  0.4952 -0.1837
  940SOL    HW2 3492   5.086   5.218   1.102  0.3415  0.6716  0.2194
  940SOL    HW3 3493   4.984   5.323   1.140  0.1215  0.2603  0.7806
  940SOL    MW4 3494   5.004   5.241   1.118  0.4804  0.3877 -0.1705
  941SOL     OW 3495   1.014   1.803   6.116 -0.3783 -0.4681  0.2759
  941SOL    HW2 3496   1.064   1.835   6.191  0.1920 -0.7534  0.0193
  941SOL    HW3 3497   0.941   1.754   6.155 -0.1837 -0.4673  0.6416
  941SOL    MW4 3498   1.011   1.800   6.131  0.1218  0.3376 -0.4735
  942SOL     OW 3499   0.885   4.736   5.764 -0.4649  0.2155 -0.2533
  942SOL    HW2 3500   0.897   4.787   5.844  0.0895 -0.1886 -0.0712
  942SOL    HW3 3501   0.971   4.735   5.722 -1.0295  1.5264 -1.5407
  942SOL    MW4 3502   0.898   4.743   5.769 -0.2204 -0.3453 -0.1673
  943SOL     OW 3503   1.800   6.067   4.105  0.1956 -0.3817  0.0629
  943SOL    HW2 3504   1.812   6.114   4.022  0.8606 -0.1941  0.2548
  943SOL    HW3 3505   1.814   6.134   4.172 -1.7560 -0.2017  0.3347
  943SOL    MW4 3506   1.804   6.082   4.103  0.3634 -0.6866 -0.2906
  944SOL     OW 3507   4.276   5.145   2.952 -0.1647  0.4750  0.1742
  944SOL    HW2 3508   4.231   5.108   3.028 -0.1847 -0.1127 -0.1153
  944SOL    HW3 3509   4.211   5.145   2.883  0.3165 -0.5675 -0.3027
  944SOL    MW4 3510   4.262   5.140   2.953 -0.3336  0.7418 -0.1455
  945SOL     OW 3511   4.390   5.525   3.758 -0.8103  0.5221  0.2472
  945SOL    HW2 3512   4.329   5.516   3.685 -1.9184  0.7867  1.1213
  945SOL    HW3 3513   4.356   5.597   3.810 -0.0732  0.2979  1.0717
  945SOL    MW4 3514   4.378   5.533   3.755 -0.4973 -0.5404 -0.6237
  946SOL     OW 3515   2.278   5.896   2.257 -0.2899 -0.0274 -0.2564
  946SOL    HW2 3516   2.290   5.990   2.275 -0.3303  0.0746 -0.7502
  946SOL    HW3 3517   2.351   5.874   2.199  0.5803 -0.6489  1.0211
  946SOL    MW4 3518   2.289   5.906   2.252 -0.2048  0.0441 -0.3918
  947SOL     OW 3519   1.010   0.271   1.699  0.0713 -0.1323  0.1305
  947SOL    HW2 3520   1.048   0.344   1.748 -0.1056  1.3508 -1.8287
  947SOL    HW3 3521   1.084   0.211   1.685  0.3339 -0.1070  1.3106
  947SOL    MW4 3522   1.025   0.272   1.703  0.5225  0.4745  0.4935
  948SOL     OW 3523   1.402   5.569   0.064 -0.0827  0.6484 -0.2438
  948SOL    HW2 3524   1.397   5.475   0.046 -0.4739  0.0533  2.5462
  948SOL    HW3 3525   1.453   5.604  -0.009  2.0300 -2.0920 -0.2598
  948SOL    MW4 3526   1.408   5.561   0.052 -0.3425  0.6876 -0.2131
  949SOL     OW 3527   5.248   5.529   1.157 -0.3122 -0.4630 -0.2017
  949SOL    HW2 3528   5.194   5.549   1.233 -0.6703  2.7097 -1.1684
  949SOL    HW3 3529   5.196   5.558   1.082  2.2123  1.8560 -1.2257
  949SOL    MW4 3530   5.234   5.535   1.157  0.0144 -0.7180 -0.5824
  950SOL     OW 3531   1.003   2.144   3.863  0.6401  0.1114 -0.2653
  950SOL    HW2 3532   1.017   2.212   3.929  0.3666  0.0209 -0.1095
  950SOL    HW3 3533   1.054   2.069   3.896  0.5242  0.0744 -0.1680
  950SOL    MW4 3534   1.012   2.143   3.876  0.4906 -0.4074 -0.1753
  951SOL     OW 3535   6.312   2.446   4.523  0.3518 -0.2173  0.1530
  951SOL    HW2 3536   6.301   2.417   4.613  1.5159  0.1304  0.4275
  951SOL    HW3 3537   6.347   2.535   4.530 -2.6117  1.1113 -0.6670
  951SOL    MW4 3538   6.316   2.454   4.535 -0.2972 -0.5563  0.5030
  952SOL     OW 3539   1.563   2.957   0.969 -0.4612 -0.2505  0.1068
  952SOL    HW2 3540   1.479   2.930   0.933 -0.4430  1.6819 -1.5518
  952SOL    HW3 3541   1.541   3.008   1.047 -0.6208 -2.1041  1.3602
  952SOL    MW4 3542   1.549   2.960   0.975 -0.0884  0.2622  0.1049
  953SOL     OW 3543   5.690   4.334   2.889 -0.3250  0.1745  0.3208
  953SOL    HW2 3544   5.685   4.240   2.907  0.5435  0.5835  3.0129
  953SOL    HW3 3545   5.605   4.369   2.916 -1.1901  0.0624 -1.9798
  953SOL    MW4 3546   5.678   4.326   2.895  0.2614  0.0747 -0.2133
  954SOL     OW 3547   3.323   1.361   4.329 -0.0696 -0.0340  0.2585
  954SOL    HW2 3548   3.228   1.361   4.342 -0.4401 -1.9750 -1.7842
  954SOL    HW3 3549   3.358   1.320   4.408 -0.9978 -0.1059  0.6441
  954SOL    MW4 3550   3.315   1.356   4.341 -0.7487  0.0440  0.6792
  955SOL     OW 3551   1.091   5.852   6.225 -0.4978  0.5439 -0.1959
  955SOL    HW2 3552   1.156   5.781   6.219 -1.1185 -0.0820  0.3046
  955SOL    HW3 3553   1.101   5.885   6.314 -0.7400  0.5699 -0.1795
  955SOL    MW4 3554   1.101   5.847   6.236 -0.4423  0.1516  0.0458
  956SOL     OW 3555   3.286   4.616   0.630 -0.0815 -0.1349  0.0070
  956SOL    HW2 3556   3.332   4.603   0.547  3.5238 -1.7008  2.0305
  956SOL    HW3 3557   3.331   4.559   0.692 -2.2614  1.3220  3.2190
  956SOL    MW4 3558   3.298   4.607   0.627 -0.3759  0.0332 -0.2317
  957SOL     OW 3559   5.391   1.209   6.385  0.2478  0.6419  0.7251
  957SOL    HW2 3560   5.340   1.194   6.306 -1.0930  0.4869  1.5776
  957SOL    HW3 3561   5.387   1.125   6.432  1.2415  0.6499  0.8468
  957SOL    MW4 3562   5.384   1.196   6.381 -0.3517 -0.1403  0.0627
  958SOL     OW 3563   2.437   3.078   2.701 -0.3122 -0.4722  0.4498
  958SOL    HW2 3564   2.350   3.082   2.741 -0.8530  1.4920 -0.7812
  958SOL    HW3 3565   2.494   3.125   2.762 -0.5178 -0.0585  0.3239
  958SOL    MW4 3566   2.433   3.084   2.714 -0.0230  0.3568  0.2323
  959SOL     OW 3567   4.927   6.325   6.109 -0.3834 -0.1638 -0.0293
  959SOL    HW2 3568   4.884   6.262   6.168 -0.7773 -2.0197 -2.1553
  959SOL    HW3 3569   4.968   6.270   6.042 -1.0635  1.8603 -2.2161
  959SOL    MW4 3570   4.927   6.309   6.108 -0.6099  0.2281  0.2671
  960SOL     OW 3571   4.150   5.803   1.320  0.2855  0.4796  0.4499
  960SOL    HW2 3572   4.196   5.885   1.300  1.2471 -0.1410  0.0371
  960SOL    HW3 3573   4.147   5.757   1.236 -0.7629  0.3285  0.5602
  960SOL    MW4 3574   4.155   5.808   1.306 -0.3593  0.1940 -0.0804
  961SOL     OW 3575   4.111   5.064   5.457  0.5148 -0.0708  0.3543
  961SOL    HW2 3576   4.185   5.009   5.432 -0.9591 -1.9585 -0.1280
  961SOL    HW3 3577   4.061   5.010   5.518 -0.5122  1.1193  0.5917
  961SOL    MW4 3578   4.114   5.050   5.462 -0.0960 -0.1909 -0.1994
  962SOL     OW 3579   1.705   1.072   2.713  0.3958 -0.0094  0.2871
  962SOL    HW2 3580   1.669   0.983   2.716  2.1714 -0.8687 -1.5472
  962SOL    HW3 3581   1.686   1.103   2.625  2.5532  0.1237 -0.1981
  962SOL    MW4 3582   1.698   1.064   2.702  0.2016  0.6400  0.3278
  963SOL     OW 3583   4.674   2.604   5.203 -0.1363  0.1290  0.1371
  963SOL    HW2 3584   4.635   2.559   5.277 -0.6913 -2.1141 -1.3915
  963SOL    HW3 3585   4.767   2.580   5.207 -0.2979 -0.6022 -0.2600
  963SOL    MW4 3586   4.681   2.595   5.213 -0.0703 -0.2418 -0.1925
  964SOL     OW 3587   3.129   3.040   5.039  0.0573  0.3435  0.2246
  964SOL    HW2 3588   3.202   3.041   4.978 -1.6578 -3.2591 -2.2332
  964SOL    HW3 3589   3.075   3.115   5.013  0.4276  0.1126 -1.3006
  964SOL    MW4 3590   3.132   3.050   5.028  0.6361  0.9151  0.1426
  965SOL     OW 3591   2.728   0.946   2.350  0.0299 -0.3677 -0.2423
  965SOL    HW2 3592   2.765   0.900   2.426 -0.8747  0.2958  0.6198
  965SOL    HW3 3593   2.691   0.876   2.295 -0.7824 -0.7399  0.7475
  965SOL    MW4 3594   2.728   0.930   2.353 -0.5653 -0.9262 -0.4377
  966SOL     OW 3595   1.947   1.124   5.494  0.1025 -0.1706 -0.5485
  966SOL    HW2 3596   1.861   1.082   5.496 -0.1524  0.1973 -2.3057
  966SOL    HW3 3597   1.936   1.202   5.548 -0.2513 -0.8228  0.3559
  966SOL    MW4 3598   1.934   1.129   5.501  0.7634  0.2159  0.0360
  967SOL     OW 3599   1.256   5.653   0.294 -0.0577 -0.0865  0.2097
  967SOL    HW2 3600   1.316   5.585   0.264 -2.1785 -2.0677  0.1559
  967SOL    HW3 3601   1.280   5.732   0.245 -0.0094 -1.8169 -2.7563
  967SOL    MW4 3602   1.267   5.655   0.284 -0.2184  0.1748 -0.0133
  968SOL     OW 3603   4.333   3.439   2.092  0.0265 -0.2181 -0.6910
  968SOL    HW2 3604   4.387   3.467   2.166 -0.8072 -3.2271  1.2434
  968SOL    HW3 3605   4.279   3.514   2.072  0.8023  0.9489  1.2885
  968SOL    MW4 3606   4.333   3.452   2.099  0.7799  0.0468 -0.2187
  969SOL     OW 3607   3.291   2.328   2.229 -0.3860  0.0271 -0.2679
  969SOL    HW2 3608   3.201   2.357   2.214 -0.2470  0.3629 -0.4623
  969SOL    HW3 3609   3.341   2.409   2.239 -0.3196 -0.1641  1.1615
  969SOL    MW4 3610   3.285   2.342   2.228  0.6911 -0.1453 -0.1793
  970SOL     OW 3611   5.547   3.138   3.524  0.3621  0.3507 -0.0264
  970SOL    HW2 3612   5.587   3.066   3.475  0.4060 -0.1664  0.7566
  970SOL    HW3 3613   5.454   3.133   3.502  0.2341 -0.4660  0.6633
  970SOL    MW4 3614   5.540   3.128   3.514 -0.5375  0.4175 -0.2868
  971SOL     OW 3615   4.684   1.176   3.267 -0.4522  0.1355 -0.4324
  971SOL    HW2 3616   4.658   1.102   3.321 -1.3192  0.1807 -0.7572
  971SOL    HW3 3617   4.611   1.187   3.205  0.2274  0.4790 -1.1901
  971SOL    MW4 3618   4.671   1.168   3.266  0.0781 -0.4484  0.2757
  972SOL     OW 3619   5.808   0.681   4.475  0.3473  0.2292 -0.2003
  972SOL    HW2 3620   5.782   0.603   4.525  2.0531  0.2728  0.8268
  972SOL    HW3 3621   5.772   0.666   4.387 -2.7448  0.1456  0.9345
  972SOL    MW4 3622   5.800   0.669   4.470 -0.7969  0.2329  0.2104
  973SOL     OW 3623   4.349   1.594   0.836  0.4309 -0.0099 -0.5321
  973SOL    HW2 3624   4.442   1.611   0.818  0.1873  0.9130 -0.9662
  973SOL    HW3 3625   4.303   1.668   0.796 -0.5384 -0.7566 -0.8396
  973SOL    MW4 3626   4.355   1.606   0.828 -0.2381 -0.2197  0.4853
  974SOL     OW 3627   2.671   5.352   4.397 -0.2826 -0.3123  0.2503
  974SOL    HW2 3628   2.664   5.419   4.465  0.6443  0.2599 -0.1953
  974SOL    HW3 3629   2.717   5.279   4.439 -0.9353 -0.5203  0.6193
  974SOL    MW4 3630   2.676   5.351   4.412  0.4004  0.1674 -0.3003
  975SOL     OW 3631   5.255   3.112   3.554  0.7974  0.4974 -0.1092
  975SOL    HW2 3632   5.253   3.141   3.645  0.7742  0.2117 -0.0158
  975SOL    HW3 3633   5.229   3.189   3.503  1.3507  0.8119  0.0841
  975SOL    MW4 3634   5.251   3.126   3.559 -0.3183 -0.5934  0.3156
  976SOL     OW 3635   5.306   5.580   2.321  0.4531 -0.0415  0.2038
  976SOL    HW2 3636   5.318   5.553   2.412 -2.1421 -0.8025  0.3975
  976SOL    HW3 3637   5.275   5.671   2.327  2.4871  0.7340 -0.1062
  976SOL    MW4 3638   5.303   5.589   2.333  0.0613  0.2202  0.0159
  977SOL     OW 3639   6.075   4.830   3.365 -0.4094 -0.3132  0.2068
  977SOL    HW2 3640   5.999   4.814   3.420  0.5961 -0.1942  1.6883
  977SOL    HW3 3641   6.122   4.901   3.409 -1.3974  2.4038 -2.7451
  977SOL    MW4 3642   6.071   4.838   3.378 -0.1325 -0.0638 -0.2673
  978SOL     OW 3643   3.905   1.837   4.559  0.0729 -0.0408  0.1668
  978SOL    HW2 3644   3.988   1.886   4.560  0.2417 -0.2384 -1.2495
  978SOL    HW3 3645   3.914   1.778   4.484 -1.4374  0.0870 -0.1389
  978SOL    MW4 3646   3.917   1.836   4.549 -0.1541 -0.1573 -0.7234
  979SOL     OW 3647   1.896   0.595   5.362  0.0939 -0.0492 -0.0352
  979SOL    HW2 3648   1.861   0.672   5.318  0.9338  0.3177 -0.0890
  979SOL    HW3 3649   1.823   0.560   5.413 -0.5074  0.3264 -0.6266
  979SOL    MW4 3650   1.882   0.600   5.363 -0.2395 -0.2964 -0.3513
  980SOL     OW 3651   4.423   0.302   0.916 -0.0898  0.0888 -0.2620
  980SOL    HW2 3652   4.455   0.378   0.867  0.3706 -0.3753 -0.6974
  980SOL    HW3 3653   4.479   0.230   0.888 -0.3821 -0.3724  0.3062
  980SOL    MW4 3654   4.435   0.302   0.906 -0.0558 -0.0121 -0.7377
  981SOL     OW 3655   4.509   4.765   1.982 -0.6543  0.4366  0.1597
  981SOL    HW2 3656   4.535   4.689   2.034  2.8416  0.5527 -1.1731
  981SOL    HW3 3657   4.472   4.727   1.902  0.2776  0.1200 -0.1321
  981SOL    MW4 3658   4.508   4.750   1.978  0.3269  0.2018  0.1695
  982SOL     OW 3659   2.610   3.449   3.555 -0.1375  0.2696 -0.1385
  982SOL    HW2 3660   2.616   3.462   3.650 -0.2139 -0.7319  0.0149
  982SOL    HW3 3661   2.577   3.360   3.545 -0.5781  0.5265 -1.1098
  982SOL    MW4 3662   2.606   3.439   3.566 -0.3446  0.2517 -0.6976
  983SOL     OW 3663   4.595   3.649   2.451 -0.1099  0.0960  0.3274
  983SOL    HW2 3664   4.521   3.603   2.490  2.3270 -3.2141  1.5366
  983SOL    HW3 3665   4.592   3.626   2.358 -0.5239 -0.1418  0.3992
  983SOL    MW4 3666   4.585   3.639   2.444  0.3640  0.3315  0.3906
  984SOL     OW 3667   1.322   5.362   1.007  0.2263 -0.1177 -0.5200
  984SOL    HW2 3668   1.358   5.337   0.922  0.9706  0.6707 -0.4604
  984SOL    HW3 3669   1.397   5.357   1.067  0.3495  1.7815 -0.4314
  984SOL    MW4 3670   1.337   5.358   1.004  0.0501  0.2291 -0.4305
  985SOL     OW 3671   5.938   4.016   5.766  0.2210 -0.2823 -0.2428
  985SOL    HW2 3672   6.000   4.086   5.784 -0.7567  0.7485 -0.7132
  985SOL    HW3 3673   5.893   4.045   5.686 -1.5714 -0.4590  0.6579
  985SOL    MW4 3674   5.940   4.029   5.758  0.3889 -0.0210 -0.3245
  986SOL     OW 3675   4.856   1.249   2.044 -0.1521 -0.6390 -0.2316
  986SOL    HW2 3676   4.850   1.225   1.952  1.0026  0.1820 -0.5451
  986SOL    HW3 3677   4.937   1.208   2.075  0.8051  1.0813 -0.2719
  986SOL    MW4 3678   4.866   1.241   2.036 -0.6308 -0.5181  0.7669
  987SOL     OW 3679   0.364   1.431   1.165  0.0674 -0.0611 -0.3920
  987SOL    HW2 3680   0.427   1.371   1.206  0.3007  0.6233  0.2730
  987SOL    HW3 3681   0.416   1.505   1.136 -0.3109  0.1151 -0.6297
  987SOL    MW4 3682   0.379   1.433   1.167  0.3123  1.0594  0.4385
  988SOL     OW 3683   0.965   5.630   0.874  0.3711 -0.5020 -0.0253
  988SOL    HW2 3684   0.914   5.614   0.954  0.7687 -1.4366  0.0472
  988SOL    HW3 3685   0.955   5.551   0.822  1.7645 -0.7143 -0.0013
  988SOL    MW4 3686   0.957   5.618   0.878  0.5247  0.2614 -0.0362
  989SOL     OW 3687   5.954   2.288   4.581  0.2357 -0.5718  0.4713
  989SOL    HW2 3688   5.884   2.224   4.594  1.3311 -2.0345 -0.5246
  989SOL    HW3 3689   6.033   2.236   4.573  1.0725  0.8449 -1.1484
  989SOL    MW4 3690   5.955   2.273   4.581 -0.0072  0.9261 -0.0848
  990SOL     OW 3691   0.985   1.160   4.291 -0.3828 -0.2542  0.3103
  990SOL    HW2 3692   1.006   1.199   4.206 -0.1521 -2.5366 -0.7523
  990SOL    HW3 3693   1.023   1.220   4.355 -0.6343  1.5791 -1.1648
  990SOL    MW4 3694   0.993   1.173   4.289 -0.4578 -0.3871 -0.1059
  991SOL     OW 3695   5.886   2.202   4.231  0.4552 -0.4717 -0.8485
  991SOL    HW2 3696   5.884   2.181   4.138  1.7382  2.3787 -1.6265
  991SOL    HW3 3697   5.973   2.176   4.261  0.3429 -0.6124 -0.6357
  991SOL    MW4 3698   5.897   2.196   4.223  0.7949 -0.0766 -0.2187
  992SOL     OW 3699   6.196   2.527   3.674  0.3160 -0.3248  0.3788
  992SOL    HW2 3700   6.136   2.503   3.745 -0.3989  1.0217  0.2739
  992SOL    HW3 3701   6.196   2.452   3.615  1.6221 -1.8509  2.2189
  992SOL    MW4 3702   6.188   2.514   3.676 -0.2640 -0.6197 -0.0271
  993SOL     OW 3703   6.122   6.101   1.522 -0.7028 -0.2092  0.1568
  993SOL    HW2 3704   6.103   6.142   1.438 -2.0290 -1.3259 -0.1186
  993SOL    HW3 3705   6.122   6.173   1.584 -0.7493  0.4940 -0.6413
  993SOL    MW4 3706   6.120   6.116   1.519  0.0459  0.0270 -0.3403
  994SOL     OW 3707   3.424   5.780   6.044 -0.2218 -0.1540 -0.0994
  994SOL    HW2 3708   3.489   5.772   6.114 -0.9470 -1.3786  0.4566
  994SOL    HW3 3709   3.417   5.875   6.030  0.4987  0.0781  0.9397
  994SOL    MW4 3710   3.432   5.792   6.051 -0.5892 -0.3552  0.8885
  995SOL     OW 3711   0.438   1.962   3.578 -0.5493 -0.6137  0.2362
  995SOL    HW2 3712   0.445   1.878   3.623  0.5116 -1.3123 -1.1710
  995SOL    HW3 3713   0.404   1.940   3.491 -0.7154  0.4708  0.0105
  995SOL    MW4 3714   0.434   1.948   3.573  0.0231 -0.6456 -0.0766
  996SOL     OW 3715   5.339   4.139   3.546 -0.0188  0.6713  0.8882
  996SOL    HW2 3716   5.370   4.051   3.565 -0.5903  0.2773  0.0281
  996SOL    HW3 3717   5.261   4.149   3.601 -2.0953 -0.7349 -1.6027
  996SOL    MW4 3718   5.333   4.129   3.556  0.1241  0.3236  0.2813
  997SOL     OW 3719   5.020   1.149   5.863  0.0809  0.0418 -0.6506
  997SOL    HW2 3720   5.014   1.237   5.825  0.3928  0.4897  0.2954
  997SOL    HW3 3721   5.113   1.126   5.856 -0.2597 -0.9229 -2.3953
  997SOL    MW4 3722   5.032   1.158   5.857 -0.3479 -0.4045  0.9339
  998SOL     OW 3723   3.917   6.291   2.143  0.3140 -0.3776 -0.0091
  998SOL    HW2 3724   3.841   6.232   2.144 -0.8460  1.0067 -1.2820
  998SOL    HW3 3725   3.940   6.299   2.051 -0.0121  1.6632  0.0461
  998SOL    MW4 3726   3.910   6.284   2.131 -0.2983 -0.1925 -0.1132
  999SOL     OW 3727   0.554   4.103   1.111 -0.0294 -0.0115 -0.6639
  999SOL    HW2 3728   0.644   4.085   1.082 -0.1008  1.1853 -1.6812
  999SOL    HW3 3729   0.503   4.106   1.031 -1.3334 -2.3109 -0.0149
  999SOL    MW4 3730   0.559   4.101   1.097  0.3247 -0.3005 -0.8023
 1000SOL     OW 3731   5.853   0.724   2.067  0.4880 -1.3053  0.0087
 1000SOL    HW2 3732   5.822   0.815   2.075 -0.3546 -1.7399  2.1793
 1000SOL    HW3 3733   5.937   0.732   2.021  0.5833  0.6045  0.4272
 1000SOL    MW4 3734   5.860   0.737   2.062  0.0539  0.2214 -0.1594
 1001SOL     OW 3735   4.441   0.650   5.692 -0.2084 -0.5218  0.2572
 1001SOL    HW2 3736   4.363   0.702   5.673 -0.2450 -1.4269 -2.4686
 1001SOL    HW3 3737   4.411   0.559   5.691  0.4714 -0.7886  1.6025
 1001SOL    MW4 3738   4.427   0.645   5.690  0.3949  0.4958  0.5831
 1002SOL     OW 3739   1.779   0.756   2.427  0.1875 -0.2952  0.7247
 1002SOL    HW2 3740   1.731   0.728   2.350 -0.7646  0.8331  0.8801
 1002SOL    HW3 3741   1.773   0.681   2.488 -2.4416  0.2230  1.2073
 1002SOL    MW4 3742   1.772   0.742   2.425 -0.0291 -0.0840 -0.2092
 1003SOL     OW 3743   3.679   1.301   5.032 -0.1674  0.6177 -0.0497
 1003SOL    HW2 3744   3.593   1.343   5.029 -1.2657 -1.2621  2.0847
 1003SOL    HW3 3745   3.740   1.370   5.007 -2.1614  2.3677 -0.4047
 1003SOL    MW4 3746   3.676   1.315   5.028 -0.4653  0.5661  0.2934
 1004SOL     OW 3747   0.866   2.430   2.590  0.1867 -0.1079  0.1676
 1004SOL    HW2 3748   0.805   2.370   2.545 -1.0288  0.8504  0.4722
 1004SOL    HW3 3749   0.876   2.393   2.677 -0.9642  0.3562  0.5248
 1004SOL    MW4 3750   0.859   2.417   2.595 -0.4934 -0.5634 -0.0324
 1005SOL     OW 3751   2.282   1.797   5.187  0.1128  0.3419  0.1312
 1005SOL    HW2 3752   2.315   1.852   5.258 -1.5077 -0.1851  1.3335
 1005SOL    HW3 3753   2.361   1.763   5.144  1.1311  2.0959  0.5210
 1005SOL    MW4 3754   2.297   1.800   5.191 -0.0575 -0.0870  0.0856
 1006SOL     OW 3755   3.658   5.982   2.741  0.5561 -0.5343 -0.3424
 1006SOL    HW2 3756   3.748   5.952   2.727  0.2753 -1.6969  0.1767
 1006SOL    HW3 3757   3.665   6.077   2.751  1.4635 -0.3245 -2.3888
 1006SOL    MW4 3758   3.671   5.990   2.740 -0.1480 -0.1889 -0.1759
 1007SOL     OW 3759   0.279   5.483   3.715 -0.3541 -0.2039  0.1901
 1007SOL    HW2 3760   0.267   5.552   3.649 -0.6291 -0.1817  0.2650
 1007SOL    HW3 3761   0.192   5.468   3.751 -0.0874  0.3266  1.0984
 1007SOL    MW4 3762   0.266   5.490   3.711 -0.6884 -0.1221  1.6071
 1008SOL     OW 3763   3.314   0.443   1.986  0.1392  0.5253  0.2906
 1008SOL    HW2 3764   3.286   0.495   2.062 -1.0445  1.9130 -1.0195
 1008SOL    HW3 3765   3.232   0.417   1.944  0.7706  0.5959 -1.0200
 1008SOL    MW4 3766   3.299   0.447   1.991  0.7413  0.2617 -0.4930
 1009SOL     OW 3767   1.091   1.684   4.021 -0.0669 -0.1138  0.2454
 1009SOL    HW2 3768   1.177   1.642   4.017 -0.9168 -1.9909  0.4312
 1009SOL    HW3 3769   1.060   1.666   4.110 -0.2755  1.3861  0.4971
 1009SOL    MW4 3770   1.099   1.676   4.032  0.1688  0.1677 -0.2413
 1010SOL     OW 3771   2.178   6.046   2.005  0.3937 -0.1491 -0.4127
 1010SOL    HW2 3772   2.198   5.965   2.053 -0.9594  0.5406  1.4007
 1010SOL    HW3 3773   2.257   6.063   1.955  1.6599 -1.2560  1.0992
 1010SOL    MW4 3774   2.191   6.037   2.005 -0.1298  0.3717 -0.3214
 1011SOL     OW 3775   1.988   2.117   5.141 -0.3268 -0.2524  0.2803
 1011SOL    HW2 3776   1.996   2.212   5.153  1.1646 -0.3658  0.3586
 1011SOL    HW3 3777   1.894   2.103   5.127 -0.4496  1.3562 -0.8044
 1011SOL    MW4 3778   1.977   2.128   5.141 -0.3087  0.0572  0.5103
 1012SOL     OW 3779   2.461   3.624   1.937 -0.1905  0.2509  0.0357
 1012SOL    HW2 3780   2.556   3.608   1.934 -0.2103 -0.0440  0.7249
 1012SOL    HW3 3781   2.446   3.657   2.026 -0.6807  0.6721 -0.2005
 1012SOL    MW4 3782   2.472   3.626   1.948  0.0316  0.0455 -0.6704
 1013SOL     OW 3783   6.120   5.772   0.806 -0.0769  0.0800  0.3782
 1013SOL    HW2 3784   6.041   5.785   0.753  0.4208  0.6789 -0.2304
 1013SOL    HW3 3785   6.141   5.679   0.794 -0.5509 -0.0297  0.3621
 1013SOL    MW4 3786   6.113   5.761   0.797 -0.2764 -0.8820  0.5489
 1014SOL     OW 3787   1.639   1.658   5.508 -0.1902 -0.0088 -0.3809
 1014SOL    HW2 3788   1.563   1.636   5.454  0.1695  0.1527 -0.9683
 1014SOL    HW3 3789   1.623   1.747   5.538 -0.4995 -0.1818 -0.0342
 1014SOL    MW4 3790   1.627   1.667   5.505 -0.3177 -0.1488 -0.7973
 1015SOL     OW 3791   4.954   2.641   1.884 -0.6231 -0.0773  0.3246
 1015SOL    HW2 3792   5.045   2.627   1.912 -0.5015 -1.4696 -0.6891
 1015SOL    HW3 3793   4.901   2.592   1.946 -0.5192 -1.0668 -0.3465
 1015SOL    MW4 3794   4.959   2.633   1.896 -0.0953  0.6543 -0.3045
 1016SOL     OW 3795   4.286   6.021   1.218 -0.3215  0.1407 -0.3733
 1016SOL    HW2 3796   4.266   6.112   1.241 -1.6778  0.3693 -2.1956
 1016SOL    HW3 3797   4.360   6.028   1.157  0.3484 -0.0956  0.3957
 1016SOL    MW4 3798   4.293   6.034   1.213 -0.4536 -0.3091  0.3390
 1017SOL     OW 3799   5.549   4.521   1.001 -0.4640  0.2243  0.4699
 1017SOL    HW2 3800   5.464   4.482   1.024 -0.6967  1.0103  0.9714
 1017SOL    HW3 3801   5.527   4.601   0.954  0.0132 -0.1332 -0.3725
 1017SOL    MW4 3802   5.535   4.526   0.998 -0.2435 -0.8385  0.4397
 1018SOL     OW 3803   5.026   5.159   2.481  0.1425 -0.8320  0.2737
 1018SOL    HW2 3804   4.962   5.221   2.516  2.0682  0.8452  1.0824
 1018SOL    HW3 3805   4.978   5.077   2.472 -2.0287  0.2648  1.0645
 1018SOL    MW4 3806   5.011   5.156   2.485 -0.5582 -0.1057 -0.2796
 1019SOL     OW 3807   1.005   5.271   6.070 -0.7617  0.0069 -0.1331
 1019SOL    HW2 3808   1.019   5.294   5.978 -1.6521 -0.5057 -0.4166
 1019SOL    HW3 3809   1.064   5.197   6.085 -1.2892 -0.5184 -0.5790
 1019SOL    MW4 3810   1.014   5.264   6.060  0.1038  0.1522  0.6863
 1020SOL     OW 3811   2.679   4.171   5.724 -0.2760 -0.0643  0.4641
 1020SOL    HW2 3812   2.703   4.252   5.680 -1.9853  0.3402  0.1936
 1020SOL    HW3 3813   2.583   4.174   5.729 -0.3423 -1.8168  0.9343
 1020SOL    MW4 3814   2.670   4.182   5.719 -0.2162 -0.1091 -0.1012
 1021SOL     OW 3815   3.354   6.027   2.286  0.0878 -0.0351  0.1998
 1021SOL    HW2 3816   3.320   5.962   2.347 -0.1706  1.4592  1.7339
 1021SOL    HW3 3817   3.443   6.044   2.316  1.0537 -1.4227 -1.7024
 1021SOL    MW4 3818   3.361   6.021   2.298  0.3032 -0.3475 -0.0463
 1022SOL     OW 3819   6.342   3.552   5.554  0.6639  0.2292 -0.2544
 1022SOL    HW2 3820   6.334   3.642   5.584  0.7430  0.6829 -1.5100
 1022SOL    HW3 3821   6.290   3.549   5.473  0.5901 -0.8735 -0.1893
 1022SOL    MW4 3822   6.334   3.563   5.547 -0.4241 -0.3250  0.0787
 1023SOL     OW 3823   2.878   1.800   3.676 -0.0193 -0.2551  0.4099
 1023SOL    HW2 3824   2.877   1.715   3.721  0.2060 -0.0787  0.7560
 1023SOL    HW3 3825   2.846   1.862   3.742  0.6286  0.0592  0.4453
 1023SOL    MW4 3826   2.874   1.797   3.691 -0.2116  0.8183 -0.3013
 1024SOL     OW 3827   0.581   0.307   0.377 -0.3205  0.0625 -0.8800
 1024SOL    HW2 3828   0.544   0.230   0.333 -1.4210  0.5157 -0.7801
 1024SOL    HW3 3829   0.675   0.295   0.370 -0.3736 -2.3238  0.8701
 1024SOL    MW4 3830   0.588   0.295   0.370 -0.5821 -0.1549  0.3930
 1025SOL     OW 3831   0.187   4.427   5.992 -0.6445  0.1502  0.1745
 1025SOL    HW2 3832   0.112   4.478   6.024 -0.8255 -0.8522  1.4362
 1025SOL    HW3 3833   0.263   4.477   6.023 -0.7714  0.8853 -0.6479
 1025SOL    MW4 3834   0.187   4.441   6.001  0.0531 -0.0047 -0.0773
 1026SOL     OW 3835   3.891   5.902   1.298 -0.3263 -0.1933 -0.1941
 1026SOL    HW2 3836   3.979   5.863   1.303  0.0963  0.4202 -1.8666
 1026SOL    HW3 3837   3.907   5.996   1.303 -0.7157 -0.0109 -1.7228
 1026SOL    MW4 3838   3.905   5.909   1.299  0.2427  0.0286 -0.5489
 1027SOL     OW 3839   3.132   0.367   5.093 -0.7882 -0.2016 -0.3762
 1027SOL    HW2 3840   3.155   0.288   5.142  0.7853  0.3527 -0.1540
 1027SOL    HW3 3841   3.076   0.335   5.022 -2.5580 -1.1143  1.3258
 1027SOL    MW4 3842   3.127   0.352   5.090 -0.4538  0.1893 -0.3722
 1028SOL     OW 3843   0.740   3.936   5.163  0.6423 -0.5779  0.1963
 1028SOL    HW2 3844   0.735   3.977   5.249 -2.2919  1.0616 -0.6246
 1028SOL    HW3 3845   0.669   3.871   5.163 -0.2170  0.3167 -1.3597
 1028SOL    MW4 3846   0.730   3.933   5.174  0.2271  0.0786 -0.5161
 1029SOL     OW 3847   6.019   0.789   0.124  0.1851 -0.3770 -0.1370
 1029SOL    HW2 3848   6.024   0.878   0.089 -1.6502 -0.5857 -1.0985
 1029SOL    HW3 3849   6.076   0.737   0.068  2.0888  0.3203  1.0681
 1029SOL    MW4 3850   6.027   0.794   0.112  0.0003  0.0111  0.5396
 1030SOL     OW 3851   5.279   3.694   0.008  0.5415 -0.5691  0.4176
 1030SOL    HW2 3852   5.210   3.727   0.065  0.8603 -1.0648  1.1080
 1030SOL    HW3 3853   5.236   3.679  -0.077  0.1261  0.4423  0.4390
 1030SOL    MW4 3854   5.264   3.696   0.004  0.0285  0.4834  0.4548
 1031SOL     OW 3855   6.305   2.023   5.942 -0.7573 -0.6277 -0.4464
 1031SOL    HW2 3856   6.333   2.101   5.991 -2.3272 -0.8034  0.8178
 1031SOL    HW3 3857   6.384   1.995   5.895  0.2683  0.7746  0.3507
 1031SOL    MW4 3858   6.319   2.029   5.943 -0.1086 -0.2567 -0.1683
 1032SOL     OW 3859   2.259   0.037   5.373 -0.0510  0.4566 -0.1420
 1032SOL    HW2 3860   2.281   0.015   5.463 -1.7037  0.1144  0.2078
 1032SOL    HW3 3861   2.295   0.125   5.360 -0.6154  0.9039  1.1695
 1032SOL    MW4 3862   2.267   0.045   5.383 -0.3760  0.7131  0.4830
 1033SOL     OW 3863   4.234   5.647   2.955 -0.0184 -0.3455 -0.1102
 1033SOL    HW2 3864   4.325   5.658   2.929 -0.3456  1.1428 -0.7619
 1033SOL    HW3 3865   4.234   5.571   3.012  1.8571  0.3943  0.9656
 1033SOL    MW4 3866   4.246   5.639   2.959 -0.3744  0.0833 -0.3280
 1034SOL     OW 3867   2.693   3.646   4.527  0.3086 -0.2872 -0.1132
 1034SOL    HW2 3868   2.661   3.578   4.586  1.6507 -1.8110 -1.0543
 1034SOL    HW3 3869   2.710   3.721   4.584  1.6342 -1.7175  1.5001
 1034SOL    MW4 3870   2.691   3.647   4.542 -0.2718 -0.1025 -0.0501
 1035SOL     OW 3871   4.617   3.427   4.819 -0.1057 -0.5951 -0.6583
 1035SOL    HW2 3872   4.542   3.369   4.836 -1.2848  0.4099 -2.1224
 1035SOL    HW3 3873   4.690   3.367   4.804 -1.0351 -1.6928 -1.0180
 1035SOL    MW4 3874   4.617   3.411   4.819 -0.7147  0.2972 -0.4651
 1036SOL     OW 3875   2.958   3.707   1.185 -0.2659 -0.0441 -0.3833
 1036SOL    HW2 3876   3.026   3.667   1.131 -1.0902 -0.8157 -0.8782
 1036SOL    HW3 3877   2.915   3.633   1.228 -1.1859  0.3713 -0.5641
 1036SOL    MW4 3878   2.961   3.692   1.183  0.6019 -0.6277 -0.4980
 1037SOL     OW 3879   4.220   3.524   1.002 -0.2136  0.1892  0.2499
 1037SOL    HW2 3880   4.263   3.455   0.953 -2.1766 -0.2945 -0.9049
 1037SOL    HW3 3881   4.263   3.524   1.088  1.8694 -0.3597 -0.7442
 1037SOL    MW4 3882   4.231   3.515   1.007 -0.4116  0.3847  0.0949
 1038SOL     OW 3883   5.907   2.201   1.119 -0.2445 -0.3151  0.5502
 1038SOL    HW2 3884   5.818   2.238   1.117 -0.5312 -0.9967  0.2465
 1038SOL    HW3 3885   5.893   2.107   1.120  0.4928 -0.4343  0.0523
 1038SOL    MW4 3886   5.893   2.194   1.119  0.0827  0.8253  0.5431
 1039SOL     OW 3887   0.573   4.843   3.125 -0.4040  0.3479 -0.4528
 1039SOL    HW2 3888   0.669   4.839   3.121 -0.3268  1.2400  0.2462
 1039SOL    HW3 3889   0.547   4.752   3.137  0.4148  0.1750  0.1845
 1039SOL    MW4 3890   0.582   4.830   3.126  0.1516  0.3275 -0.6122
 1040SOL     OW 3891   2.823   3.808   3.558 -0.0119  0.5716 -0.0191
 1040SOL    HW2 3892   2.808   3.901   3.541  1.6345  0.8593 -0.0830
 1040SOL    HW3 3893   2.808   3.797   3.652  0.9682  1.1804  0.2245
 1040SOL    MW4 3894   2.819   3.819   3.568  0.2512  0.1463 -0.4771
 1041SOL     OW 3895   1.183   2.767   3.333  0.4343  0.6481  0.1576
 1041SOL    HW2 3896   1.216   2.844   3.380  0.0704  0.8492  0.0845
 1041SOL    HW3 3897   1.189   2.791   3.241  1.2728  0.2031  0.0853
 1041SOL    MW4 3898   1.189   2.780   3.327  0.1303 -0.4883 -0.0061
 1042SOL     OW 3899   3.558   5.679   2.407  0.3455  0.0523  0.5464
 1042SOL    HW2 3900   3.589   5.595   2.374 -1.1148  0.6304 -2.6078
 1042SOL    HW3 3901   3.635   5.736   2.403  0.2650  0.0961 -2.0893
 1042SOL    MW4 3902   3.572   5.675   2.402  0.3034  0.7243  0.0582
 1043SOL     OW 3903   4.445   5.397   6.414 -0.1402 -0.1331  0.4882
 1043SOL    HW2 3904   4.420   5.423   6.325 -0.2595  0.0735  0.5796
 1043SOL    HW3 3905   4.516   5.334   6.402 -0.0962 -0.0397  0.2498
 1043SOL    MW4 3906   4.451   5.392   6.400 -0.2348 -0.1967 -0.1820
 1044SOL     OW 3907   4.250   0.111   1.085  0.1697 -0.4805  0.0981
 1044SOL    HW2 3908   4.265   0.139   0.994  0.4601 -0.5576  0.1208
 1044SOL    HW3 3909   4.190   0.177   1.121 -0.1444 -0.5887 -0.2228
 1044SOL    MW4 3910   4.244   0.123   1.078 -0.2644 -0.1893 -0.6315
 1045SOL     OW 3911   4.498   0.768   3.093  0.2081  0.4566 -0.0964
 1045SOL    HW2 3912   4.555   0.707   3.045  1.7740  0.8996  1.1266
 1045SOL    HW3 3913   4.496   0.846   3.039  0.4834  0.3061 -0.3309
 1045SOL    MW4 3914   4.506   0.770   3.080 -0.2336 -0.3743 -0.3478
 1046SOL     OW 3915   0.997   1.825   1.451 -0.1082  0.4227  0.2591
 1046SOL    HW2 3916   0.967   1.753   1.394 -0.4616 -0.4900  1.5502
 1046SOL    HW3 3917   1.045   1.884   1.392 -0.0807 -0.7108 -0.9023
 1046SOL    MW4 3918   1.000   1.823   1.435 -0.8980  0.2329 -0.3169
 1047SOL     OW 3919   3.178   5.278   4.145  0.4446  0.2560  0.0175
 1047SOL    HW2 3920   3.116   5.220   4.099  0.5863 -0.3300  0.5591
 1047SOL    HW3 3921   3.191   5.237   4.230 -0.4253  1.7490  0.9184
 1047SOL    MW4 3922   3.172   5.265   4.150 -0.5917 -0.5107  0.4734
 1048SOL     OW 3923   0.448   2.561   2.407  0.0178  0.3954 -0.4656
 1048SOL    HW2 3924   0.462   2.598   2.494 -1.9901  0.4778 -0.1278
 1048SOL    HW3 3925   0.405   2.477   2.423  1.3135 -0.4863 -1.3493
 1048SOL    MW4 3926   0.444   2.555   2.420 -0.6254 -0.4966 -0.0582
 1049SOL     OW 3927   0.274   4.789   1.616  0.3158  0.1433 -0.1955
 1049SOL    HW2 3928   0.195   4.839   1.596  0.8701  0.5321 -1.4385
 1049SOL    HW3 3929   0.245   4.724   1.681 -1.6394 -1.3530 -2.4104
 1049SOL    MW4 3930   0.260   4.787   1.622 -0.1988  0.6324 -0.1558
 1050SOL     OW 3931   0.430   5.130   5.924 -0.6024  0.3265  0.3011
 1050SOL    HW2 3932   0.385   5.136   6.008 -1.6454 -0.3282 -0.1848
 1050SOL    HW3 3933   0.405   5.044   5.890 -0.0224  0.4980 -0.5839
 1050SOL    MW4 3934   0.421   5.119   5.931 -0.0819 -0.5863  0.4855
 1051SOL     OW 3935   6.114   1.662   4.447  0.1457  0.7612  0.7367
 1051SOL    HW2 3936   6.190   1.700   4.403 -0.9251  0.2790 -1.7250
 1051SOL    HW3 3937   6.040   1.716   4.419 -1.1927 -1.9764 -1.5838
 1051SOL    MW4 3938   6.114   1.674   4.438  0.1126  0.4593 -0.0031
 1052SOL     OW 3939   1.387   4.775   6.319 -0.1138 -0.2176  0.0404
 1052SOL    HW2 3940   1.372   4.786   6.413  0.5552  0.2744  0.1045
 1052SOL    HW3 3941   1.310   4.814   6.278 -1.3254 -2.1054  0.3848
 1052SOL    MW4 3942   1.375   4.782   6.326 -0.4456  0.2156 -0.2414
 1053SOL     OW 3943   4.313   4.344   5.457  0.3735  0.3479 -0.3524
 1053SOL    HW2 3944   4.248   4.394   5.408 -0.3741 -0.0151  0.2615
 1053SOL    HW3 3945   4.294   4.361   5.549  2.3586  1.7657 -0.1507
 1053SOL    MW4 3946   4.302   4.353   5.462 -0.2114  0.2127  0.2867
 1054SOL     OW 3947   2.377   3.808   3.336 -0.6128 -0.1799 -0.1660
 1054SOL    HW2 3948   2.328   3.756   3.273  0.7908  1.5336 -2.8823
 1054SOL    HW3 3949   2.447   3.750   3.366 -1.7408 -1.2597  0.4510
 1054SOL    MW4 3950   2.380   3.794   3.331 -0.2970  0.5685  0.0640
 1055SOL     OW 3951   0.045   5.489   0.509  0.3241 -0.2056  0.2444
 1055SOL    HW2 3952   0.013   5.511   0.596  0.5000  0.5779  0.1185
 1055SOL    HW3 3953   0.134   5.458   0.523 -0.0626 -1.2725  0.4675
 1055SOL    MW4 3954   0.052   5.488   0.522 -0.5030  0.1268  0.1616
 1056SOL     OW 3955   4.388   2.460   0.771 -0.2220 -0.6794  0.3216
 1056SOL    HW2 3956   4.345   2.525   0.715  1.9302  0.5115 -0.0304
 1056SOL    HW3 3957   4.382   2.378   0.721  0.8864  0.1826 -1.3072
 1056SOL    MW4 3958   4.381   2.458   0.757 -0.7393  0.4513  0.2147
 1057SOL     OW 3959   1.217   0.612   0.762  0.4205  0.1265 -0.2692
 1057SOL    HW2 3960   1.249   0.523   0.751  1.2908  0.3201  0.5885
 1057SOL    HW3 3961   1.133   0.613   0.716  0.6590 -0.9771 -0.7523
 1057SOL    MW4 3962   1.210   0.600   0.755 -0.0143 -0.6249  0.1332
 1058SOL     OW 3963   0.880   5.753   5.021  0.1944  0.1616 -0.0942
 1058SOL    HW2 3964   0.803   5.775   4.969  0.3005 -0.0545 -0.3391
 1058SOL    HW3 3965   0.930   5.835   5.024  0.0089  0.2731 -0.0242
 1058SOL    MW4 3966   0.877   5.767   5.015  0.1848 -0.1387  0.6559
 1059SOL     OW 3967   5.526   1.492   4.981 -0.5859  0.1786  0.0492
 1059SOL    HW2 3968   5.604   1.521   5.028 -0.8811 -0.1175  0.7434
 1059SOL    HW3 3969   5.475   1.572   4.967  0.1799  0.4925 -1.0853
 1059SOL    MW4 3970   5.530   1.506   4.985  0.1041  0.2303  0.2629
 1060SOL     OW 3971   3.854   1.341   2.332 -0.6139  0.1475 -1.1651
 1060SOL    HW2 3972   3.875   1.390   2.253 -0.5981 -0.8789 -1.8240
 1060SOL    HW3 3973   3.760   1.355   2.344 -0.9914 -1.0395 -2.3756
 1060SOL    MW4 3974   3.844   1.349   2.323  0.0280 -0.3159 -0.6418
 1061SOL     OW 3975   4.714   6.305   3.193  0.3447  0.3400  0.1546
 1061SOL    HW2 3976   4.674   6.278   3.110 -1.4727  0.7576  0.8431
 1061SOL    HW3 3977   4.794   6.351   3.167 -0.4156  0.8597 -1.4056
 1061SOL    MW4 3978   4.719   6.308   3.178  0.2258 -0.1485 -0.2048
 1062SOL     OW 3979   3.266   3.088   0.615 -0.0137  0.1324 -0.2204
 1062SOL    HW2 3980   3.263   3.183   0.629 -1.1514  0.2758 -1.2852
 1062SOL    HW3 3981   3.326   3.056   0.683 -0.8036  1.4154  1.1518
 1062SOL    MW4 3982   3.273   3.096   0.626 -0.0633 -0.0273 -0.2520
 1063SOL     OW 3983   6.263   0.114   1.984 -0.1174  0.0156 -0.2252
 1063SOL    HW2 3984   6.263   0.101   2.079  1.4304 -0.1928 -0.2384
 1063SOL    HW3 3985   6.297   0.032   1.948  1.0422  0.7363 -0.8474
 1063SOL    MW4 3986   6.267   0.101   1.992 -0.5826  0.0214  0.1123
 1064SOL     OW 3987   2.855   2.025   3.384  0.4885 -0.3660 -0.4273
 1064SOL    HW2 3988   2.933   1.970   3.389 -1.0239 -2.7503 -1.4022
 1064SOL    HW3 3989   2.856   2.074   3.466  1.7827 -2.0643  0.6502
 1064SOL    MW4 3990   2.866   2.025   3.395  0.3007 -0.4747  0.5404
 1065SOL     OW 3991   4.809   4.140   4.625  0.1784 -1.3092 -0.0818
 1065SOL    HW2 3992   4.892   4.150   4.672 -0.5111  1.0821  0.8034
 1065SOL    HW3 3993   4.744   4.128   4.694 -0.4887 -0.7525 -0.5978
 1065SOL    MW4 3994   4.811   4.140   4.640  0.3915 -0.6700  0.4135
 1066SOL     OW 3995   5.616   2.427   1.418 -0.2798  0.3601  0.2128
 1066SOL    HW2 3996   5.526   2.410   1.445 -0.3680 -0.1195 -0.3727
 1066SOL    HW3 3997   5.612   2.434   1.322  0.3136  0.2708  0.1766
 1066SOL    MW4 3998   5.604   2.426   1.409 -0.0388  0.0463 -0.1042
 1067SOL     OW 3999   3.552   3.320   0.888 -0.0416  1.1004 -0.1316
 1067SOL    HW2 4000   3.596   3.288   0.810 -1.1918  0.4186 -0.5400
 1067SOL    HW3 4001   3.498   3.393   0.858  0.0652  1.3103  0.1730
 1067SOL    MW4 4002   3.550   3.325   0.874  0.5000 -0.6240 -0.0627
 1068SOL     OW 4003   5.663   3.306   1.112 -0.1813  0.5143 -0.1213
 1068SOL    HW2 4004   5.672   3.372   1.044  0.0893  0.5503 -0.0535
 1068SOL    HW3 4005   5.688   3.351   1.193 -2.0343  0.9289  0.2651
 1068SOL    MW4 4006   5.667   3.321   1.114  0.3896  0.1214  0.8889
 1069SOL     OW 4007   4.440   6.393   6.209 -0.2660 -0.0863  0.0807
 1069SOL    HW2 4008   4.389   6.351   6.279  1.5465 -1.7421  0.5034
 1069SOL    HW3 4009   4.523   6.417   6.252 -0.5067  2.2928 -0.6404
 1069SOL    MW4 4010   4.444   6.391   6.224  0.3486 -0.0499  0.2363
 1070SOL     OW 4011   3.439   2.663   2.560  0.2121  0.0826 -0.4500
 1070SOL    HW2 4012   3.535   2.668   2.566  0.1835 -0.6918  1.0846
 1070SOL    HW3 4013   3.420   2.570   2.551 -0.3651  0.3297 -2.0356
 1070SOL    MW4 4014   3.450   2.652   2.560  0.8849 -0.6067 -0.1534
 1071SOL     OW 4015   5.620   5.414   0.828  0.0729 -0.0036  1.0979
 1071SOL    HW2 4016   5.547   5.459   0.872  0.8922  0.6741  1.8013
 1071SOL    HW3 4017   5.696   5.469   0.845  0.6702 -0.4351 -0.0618
 1071SOL    MW4 4018   5.620   5.427   0.836  0.0331  0.3718  0.3239
 1072SOL     OW 4019   4.926   2.284   1.296 -0.3538  0.3113  0.0319
 1072SOL    HW2 4020   4.908   2.223   1.224 -0.7820  1.2457 -0.6787
 1072SOL    HW3 4021   5.004   2.331   1.268 -2.3027  2.9948 -1.4753
 1072SOL    MW4 4022   4.934   2.282   1.283 -0.7389 -0.7356  0.5259
 1073SOL     OW 4023   5.319   0.512   2.524  0.2137  0.0824 -0.5423
 1073SOL    HW2 4024   5.298   0.447   2.457  1.2878 -0.1326 -0.6896
 1073SOL    HW3 4025   5.287   0.595   2.490  0.4505 -0.0834 -1.1760
 1073SOL    MW4 4026   5.312   0.514   2.511  0.4875  0.9378 -0.2818
 1074SOL     OW 4027   1.473   2.230   2.593  0.1713  0.1343  0.1366
 1074SOL    HW2 4028   1.520   2.153   2.625  0.3817  0.1268 -0.1846
 1074SOL    HW3 4029   1.542   2.295   2.578  0.2394 -0.2428 -1.4296
 1074SOL    MW4 4030   1.488   2.228   2.595  0.2231  0.0409  0.7183
 1075SOL     OW 4031   2.802   5.886   0.681  0.0840  0.2599 -0.4052
 1075SOL    HW2 4032   2.896   5.899   0.676  0.1833 -0.7267 -1.3616
 1075SOL    HW3 4033   2.791   5.810   0.738 -0.1666  0.5699 -0.0258
 1075SOL    MW4 4034   2.813   5.878   0.688  0.6267 -0.2391  0.2927
 1076SOL     OW 4035   5.190   5.624   0.503  0.4279  0.0732  0.0220
 1076SOL    HW2 4036   5.235   5.652   0.424  0.2409  2.9395  0.8272
 1076SOL    HW3 4037   5.242   5.661   0.575 -2.6636  2.9969  1.0079
 1076SOL    MW4 4038   5.203   5.632   0.502  0.2041  0.0043  0.2472
 1077SOL     OW 4039   0.745   1.408   4.339 -0.3458  0.2510 -0.3830
 1077SOL    HW2 4040   0.746   1.346   4.412  0.1781 -1.3604 -1.6872
 1077SOL    HW3 4041   0.837   1.420   4.316 -0.2816  2.9035  0.8888
 1077SOL    MW4 4042   0.757   1.401   4.346  0.1078  0.4421  0.3003
 1078SOL     OW 4043   2.872   1.444   5.085  0.7705 -0.0507 -0.2149
 1078SOL    HW2 4044   2.840   1.367   5.132  1.4799 -0.0943  0.2107
 1078SOL    HW3 4045   2.962   1.422   5.060 -0.1622 -0.7972 -3.3184
 1078SOL    MW4 4046   2.880   1.431   5.088 -0.6187  0.0600 -0.0905
 1079SOL     OW 4047   1.153   0.588   1.447  0.1109 -0.3590 -0.5223
 1079SOL    HW2 4048   1.170   0.496   1.424  0.0780 -0.8523  1.2408
 1079SOL    HW3 4049   1.088   0.583   1.516  0.4991  0.9755 -0.0328
 1079SOL    MW4 4050   1.147   0.575   1.453 -0.3373 -0.4246 -0.0048
 1080SOL     OW 4051   3.350   0.397   0.602  0.4488 -0.0475  0.1510
 1080SOL    HW2 4052   3.282   0.376   0.666  1.8937 -1.9903  1.1458
 1080SOL    HW3 4053   3.414   0.448   0.650  0.7280 -0.0649 -0.1976
 1080SOL    MW4 4054   3.350   0.401   0.617  0.3667 -0.0228 -0.0444
 1081SOL     OW 4055   6.079   0.529   2.202  0.0957  0.4278  0.0246
 1081SOL    HW2 4056   6.027   0.567   2.272 -0.6951 -0.6155  0.0207
 1081SOL    HW3 4057   6.154   0.488   2.246 -0.3770 -0.1887  0.2660
 1081SOL    MW4 4058   6.082   0.529   2.217 -0.2146 -0.3360  0.6961
 1082SOL     OW 4059   1.701   1.792   4.208  0.0156 -0.0583  0.3581
 1082SOL    HW2 4060   1.666   1.768   4.294  0.8255  0.6414  0.9009
 1082SOL    HW3 4061   1.794   1.773   4.214  0.1421  0.3472 -0.2444
 1082SOL    MW4 4062   1.708   1.786   4.220 -0.3440  0.2565  0.0915
 1083SOL     OW 4063   1.971   6.055   1.828  0.4818  0.0675  0.2319
 1083SOL    HW2 4064   2.044   6.052   1.890  1.2200  0.0989 -0.6200
 1083SOL    HW3 4065   2.011   6.038   1.743 -0.5734 -0.3221 -0.2007
 1083SOL    MW4 4066   1.986   6.052   1.825 -0.3542  0.0670 -0.2254
 1084SOL     OW 4067   5.656   4.144   0.421 -0.5508  0.7795 -0.6015
 1084SOL    HW2 4068   5.729   4.092   0.387  1.8773  3.3117  0.3272
 1084SOL    HW3 4069   5.672   4.148   0.516  0.2570  4.2160 -0.7508
 1084SOL    MW4 4070   5.668   4.138   0.429  0.5084  0.3897 -0.6056
 1085SOL     OW 4071   3.581   3.617   5.804 -0.3300  0.2558  0.0866
 1085SOL    HW2 4072   3.550   3.541   5.854  0.2312  0.4166  0.6802
 1085SOL    HW3 4073   3.567   3.692   5.862  0.2950  0.4469 -0.0091
 1085SOL    MW4 4074   3.575   3.617   5.818 -0.1243  0.8684  0.1533
 1086SOL     OW 4075   4.241   3.717   5.764 -0.5718  0.2535  0.6430
 1086SOL    HW2 4076   4.260   3.785   5.700  0.1904  0.4584  1.0776
 1086SOL    HW3 4077   4.147   3.724   5.780 -0.7234  0.3643 -0.2542
 1086SOL    MW4 4078   4.231   3.727   5.757 -0.2480  0.2903 -0.1584
 1087SOL     OW 4079   1.731   0.940   6.419  0.5067 -0.2309 -0.4193
 1087SOL    HW2 4080   1.733   1.026   6.461 -1.9577 -0.1641 -0.2894
 1087SOL    HW3 4081   1.719   0.878   6.491  0.6136 -0.5341 -0.6581
 1087SOL    MW4 4082   1.730   0.943   6.434  0.0996  0.4905  0.5732
 1088SOL     OW 4083   4.439   4.932   3.983 -0.1644 -0.0421  0.1574
 1088SOL    HW2 4084   4.380   4.888   3.923 -0.3260 -1.1240  1.0762
 1088SOL    HW3 4085   4.391   4.937   4.066  0.3669  0.6636  0.4447
 1088SOL    MW4 4086   4.425   4.927   3.986  0.5956 -0.1600 -0.0957
 1089SOL     OW 4087   0.879   3.947   2.852 -0.4606  0.6688 -0.0723
 1089SOL    HW2 4088   0.855   3.998   2.929  1.6911 -0.1720  1.2627
 1089SOL    HW3 4089   0.945   4.000   2.808  1.5044 -0.6292  1.1153
 1089SOL    MW4 4090   0.884   3.961   2.857  0.8396 -0.0983  0.4123
 1090SOL     OW 4091   6.406   2.728   4.500 -0.0084 -0.6469 -0.1895
 1090SOL    HW2 4092   6.480   2.700   4.555 -0.4887 -0.1655  0.7269
 1090SOL    HW3 4093   6.440   2.723   4.411  1.1388 -0.4433  0.2117
 1090SOL    MW4 4094   6.420   2.723   4.496 -0.1439  0.0485 -0.3812
 1091SOL     OW 4095   5.560   1.400   4.711 -0.1262 -0.4654 -0.3627
 1091SOL    HW2 4096   5.585   1.312   4.740  0.1169 -0.8232 -1.6247
 1091SOL    HW3 4097   5.554   1.451   4.793 -1.1547 -1.8523  0.4720
 1091SOL    MW4 4098   5.562   1.395   4.726  0.1568 -0.0652  0.2193
 1092SOL     OW 4099   4.013   3.854   0.378 -0.2624 -0.2938  0.1352
 1092SOL    HW2 4100   3.975   3.936   0.345 -1.1476 -0.1738  1.3840
 1092SOL    HW3 4101   3.948   3.788   0.358  1.1180 -1.0396 -2.2894
 1092SOL    MW4 4102   4.000   3.856   0.371 -0.3263  0.4763  0.2646
 1093SOL     OW 4103   4.162   0.314   4.628 -0.1164 -0.8050 -0.1189
 1093SOL    HW2 4104   4.150   0.264   4.709  0.1415  0.4961  0.7571
 1093SOL    HW3 4105   4.078   0.305   4.582 -0.3753 -1.3088  0.4393
 1093SOL    MW4 4106   4.149   0.306   4.633 -0.0946 -0.3940  0.2019
 1094SOL     OW 4107   6.337   5.710   0.077 -0.5477  0.3179 -0.2905
 1094SOL    HW2 4108   6.424   5.747   0.093 -0.8699  0.1352  2.2742
 1094SOL    HW3 4109   6.330   5.706  -0.018  2.6845 -0.6469 -0.6168
 1094SOL    MW4 4110   6.348   5.714   0.067 -0.1525  0.2071 -0.1939
 1095SOL     OW 4111   4.278   3.149   1.792  0.1131 -0.7145  0.3031
 1095SOL    HW2 4112   4.227   3.172   1.870  0.2028  2.3053 -0.4136
 1095SOL    HW3 4113   4.368   3.150   1.822  0.0440 -1.4628  0.5556
 1095SOL    MW4 4114   4.283   3.152   1.806  0.0990  0.0301 -0.1239
 1096SOL     OW 4115   1.010   3.678   4.542 -0.3615 -0.3641  0.3701
 1096SOL    HW2 4116   1.016   3.596   4.591 -2.6539 -0.7372  0.1526
 1096SOL    HW3 4117   0.935   3.723   4.581  0.2880  1.2157 -0.1350
 1096SOL    MW4 4118   1.001   3.673   4.554  0.3575 -0.1685  0.1856
 1097SOL     OW 4119   1.131   0.976   0.999 -0.6265  0.0798 -0.0002
 1097SOL    HW2 4120   1.214   1.001   1.038 -0.4703 -0.7298  0.2031
 1097SOL    HW3 4121   1.154   0.927   0.920 -0.9280  0.7321 -0.5013
 1097SOL    MW4 4122   1.145   0.973   0.994 -0.2403 -0.3460  0.2126
 1098SOL     OW 4123   3.477   2.556   2.165 -0.1646  0.1728 -0.1363
 1098SOL    HW2 4124   3.555   2.504   2.186  0.0607  0.7394  0.4632
 1098SOL    HW3 4125   3.500   2.645   2.192  0.1342  0.9829 -2.7602
 1098SOL    MW4 4126   3.491   2.561   2.171  0.1261 -0.4489 -0.2364
 1099SOL     OW 4127   5.699   0.849   3.584  0.2224 -0.3675  0.5195
 1099SOL    HW2 4128   5.670   0.854   3.493 -0.4313  0.9232  0.7816
 1099SOL    HW3 4129   5.635   0.791   3.626 -1.0009  1.0570  0.6993
 1099SOL    MW4 4130   5.687   0.842   3.578  0.2891  0.0513  0.3890
 1100SOL     OW 4131   2.463   3.157   2.191  0.3183 -0.2464  0.4358
 1100SOL    HW2 4132   2.452   3.204   2.273  1.0840  0.5437  0.0990
 1100SOL    HW3 4133   2.484   3.067   2.217 -3.4734 -1.1197  1.1138
 1100SOL    MW4 4134   2.464   3.151   2.205 -0.6685  0.1481  0.2225
 1101SOL     OW 4135   3.194   4.243   5.170 -0.0675  0.1110  0.1430
 1101SOL    HW2 4136   3.230   4.233   5.082  1.0453  1.1093  0.4466
 1101SOL    HW3 4137   3.114   4.192   5.169  0.7089 -1.1686 -0.9685
 1101SOL    MW4 4138   3.188   4.235   5.158  0.0663  0.0610  0.1082
 1102SOL     OW 4139   2.624   5.239   0.372 -0.1441 -0.1772  0.9665
 1102SOL    HW2 4140   2.641   5.228   0.466  0.4562  2.5501  1.2583
 1102SOL    HW3 4141   2.529   5.245   0.366 -0.1686  0.0612  1.4750
 1102SOL    MW4 4142   2.614   5.239   0.384  0.0824 -0.3162  0.4741
 1103SOL     OW 4143   0.616   0.428   5.513  0.1991  0.6852 -0.1348
 1103SOL    HW2 4144   0.706   0.400   5.496 -0.1061  0.4877 -1.5832
 1103SOL    HW3 4145   0.607   0.510   5.465 -1.3500 -0.9664 -3.0050
 1103SOL    MW4 4146   0.626   0.435   5.504  0.1039 -0.4786 -0.0469
 1104SOL     OW 4147   2.701   4.437   1.122 -0.0995  0.5224  0.3263
 1104SOL    HW2 4148   2.701   4.522   1.078 -1.7679  0.2239 -0.3069
 1104SOL    HW3 4149   2.629   4.389   1.083  0.3435 -0.9331  1.2029
 1104SOL    MW4 4150   2.692   4.442   1.111  0.3741  0.4530 -0.0858
 1105SOL     OW 4151   2.936   6.381   2.061  0.8169  0.7349 -0.1994
 1105SOL    HW2 4152   2.880   6.350   1.990  0.8048  1.1250 -0.3624
 1105SOL    HW3 4153   3.002   6.312   2.071 -1.0307 -0.9096  1.5889
 1105SOL    MW4 4154   2.937   6.368   2.053  0.1369 -0.0358  0.1384
 1106SOL     OW 4155   4.360   4.151   4.169 -0.2014 -0.3447 -0.4844
 1106SOL    HW2 4156   4.397   4.120   4.252 -0.9898  1.0292  0.4143
 1106SOL    HW3 4157   4.330   4.240   4.187  1.3871  0.7713 -2.7878
 1106SOL    MW4 4158   4.361   4.158   4.182 -0.2140 -0.3036  0.3201
 1107SOL     OW 4159   6.028   0.386   5.060 -0.6849  0.5760 -0.3373
 1107SOL    HW2 4160   6.027   0.290   5.052  0.2225  0.6241 -1.3252
 1107SOL    HW3 4161   6.120   0.410   5.046 -1.1926  1.7126 -2.0357
 1107SOL    MW4 4162   6.040   0.376   5.057 -0.1247 -0.3647 -0.3186
 1108SOL     OW 4163   3.956   0.307   1.564 -0.0929  0.7065 -0.1855
 1108SOL    HW2 4164   4.018   0.378   1.578  0.0865  0.8539 -1.6163
 1108SOL    HW3 4165   3.881   0.349   1.521  0.7987 -0.2061 -2.8625
 1108SOL    MW4 4166   3.954   0.322   1.560  0.0415 -0.2010 -0.3334
 1109SOL     OW 4167   4.285   3.349   1.604  0.0499  0.2905  0.6509
 1109SOL    HW2 4168   4.308   3.276   1.661 -0.0353  1.9143  2.9112
 1109SOL    HW3 4169   4.190   3.341   1.593  0.2060 -0.6199 -0.1847
 1109SOL    MW4 4170   4.275   3.338   1.610 -0.0302  0.1519 -0.3654
 1110SOL     OW 4171   2.702   6.142   5.069 -0.4308 -0.2443 -0.4895
 1110SOL    HW2 4172   2.672   6.072   5.012 -0.8891 -0.4216 -0.0400
 1110SOL    HW3 4173   2.796   6.147   5.054 -0.0845 -2.1160  0.7123
 1110SOL    MW4 4174   2.710   6.133   5.060 -0.0912  0.1110  0.0781
 1111SOL     OW 4175   0.025   0.882   4.115 -0.0889  0.3607  0.4663
 1111SOL    HW2 4176   0.104   0.891   4.168  0.5169  0.6040 -0.4723
 1111SOL    HW3 4177  -0.028   0.819   4.164  1.6523 -1.5900 -0.0234
 1111SOL    MW4 4178   0.028   0.875   4.129 -0.1678  0.4694  0.1263
 1112SOL     OW 4179   5.238   2.901   1.711  0.8523 -0.2837  0.1318
 1112SOL    HW2 4180   5.254   2.857   1.795  2.0303 -1.4226 -0.6491
 1112SOL    HW3 4181   5.285   2.848   1.647 -2.7286 -1.3644 -1.8106
 1112SOL    MW4 4182   5.246   2.888   1.714 -0.4246 -0.2264  0.0112
 1113SOL     OW 4183   5.966   3.251   6.166  0.1635 -0.0891 -0.5102
 1113SOL    HW2 4184   6.034   3.258   6.099  1.0764 -1.7593  0.1876
 1113SOL    HW3 4185   6.014   3.241   6.248 -0.9442  1.4563  0.3892
 1113SOL    MW4 4186   5.981   3.251   6.168  0.2731  0.0075  0.2730
 1114SOL     OW 4187   2.950   3.837   1.591  0.0351  0.0549  0.4341
 1114SOL    HW2 4188   2.856   3.842   1.571 -0.2619 -1.4338  1.2448
 1114SOL    HW3 4189   2.952   3.822   1.686  1.1772  1.7307  0.7142
 1114SOL    MW4 4190   2.938   3.836   1.601  0.3253  0.0882  0.7307
 1115SOL     OW 4191   2.750   1.075   0.049  0.1064  0.0017  0.7966
 1115SOL    HW2 4192   2.719   1.162   0.025  0.5038  0.1426  0.7950
 1115SOL    HW3 4193   2.830   1.062  -0.001  0.5150 -0.0149  1.4324
 1115SOL    MW4 4194   2.756   1.085   0.039 -0.3155 -0.1084 -0.4701
 1116SOL     OW 4195   0.235   4.276   1.191 -0.1575  0.2329 -0.5454
 1116SOL    HW2 4196   0.260   4.359   1.150 -0.2843 -0.4217 -2.0292
 1116SOL    HW3 4197   0.188   4.229   1.122  0.3309 -1.2701  0.0992
 1116SOL    MW4 4198   0.232   4.280   1.176  0.3451 -0.4609 -0.5293
 1117SOL     OW 4199   5.327   2.210   6.305 -0.4292  0.3598 -0.6766
 1117SOL    HW2 4200   5.299   2.278   6.244 -0.5538  0.3936 -0.5835
 1117SOL    HW3 4201   5.271   2.222   6.381 -1.4467 -0.7672 -1.2160
 1117SOL    MW4 4202   5.316   2.221   6.307 -0.6628  0.1342 -0.5771
 1118SOL     OW 4203   5.024   3.817   0.787  0.1767 -0.1451 -0.3090
 1118SOL    HW2 4204   5.059   3.804   0.699 -0.9020  0.2598 -0.8089
 1118SOL    HW3 4205   4.948   3.760   0.792 -0.5566  0.8248 -0.1141
 1118SOL    MW4 4206   5.019   3.808   0.776  0.0040 -0.1515  0.2505
 1119SOL     OW 4207   5.163   2.058   1.190 -0.0758 -0.3339  0.3079
 1119SOL    HW2 4208   5.175   2.151   1.175  0.8660 -0.1536  1.9711
 1119SOL    HW3 4209   5.231   2.015   1.138  1.1932  0.0913  1.5566
 1119SOL    MW4 4210   5.173   2.064   1.182  0.2202  0.5845  0.1338
 1120SOL     OW 4211   4.730   2.694   2.194  0.0316  0.0344  0.1975
 1120SOL    HW2 4212   4.687   2.776   2.172  0.4425  0.0625 -0.5359
 1120SOL    HW3 4213   4.735   2.646   2.111 -1.3720 -1.2994  0.8242
 1120SOL    MW4 4214   4.725   2.698   2.180  0.2070 -0.5620 -0.0202
 1121SOL     OW 4215   2.019   6.197   2.191  0.1953  0.1816 -0.1493
 1121SOL    HW2 4216   1.972   6.272   2.155 -0.0932 -0.2558 -0.7208
 1121SOL    HW3 4217   2.072   6.165   2.118 -0.3658 -0.6986 -0.1842
 1121SOL    MW4 4218   2.019   6.202   2.176  0.2793  0.2594  0.2980
 1122SOL     OW 4219   6.356   1.039   5.406 -0.2998  0.3023  0.4713
 1122SOL    HW2 4220   6.275   1.026   5.456 -0.8564  1.2767 -0.1311
 1122SOL    HW3 4221   6.346   1.126   5.367  0.5761 -0.0038 -0.4861
 1122SOL    MW4 4222   6.344   1.049   5.408 -0.5440 -1.1045  0.2362
 1123SOL     OW 4223   1.687   4.457   3.247  0.4439 -0.2779  0.1854
 1123SOL    HW2 4224   1.601   4.488   3.218  0.1572 -0.3898  0.8748
 1123SOL    HW3 4225   1.739   4.450   3.168  0.1917  0.9735 -0.1062
 1123SOL    MW4 4226   1.682   4.460   3.233 -0.0763  0.6407 -0.0135
 1124SOL     OW 4227   3.210   5.648   6.159  0.2906  0.6496 -0.3106
 1124SOL    HW2 4228   3.213   5.672   6.252 -0.7813 -1.1951  0.2590
 1124SOL    HW3 4229   3.269   5.710   6.116  0.3188  1.9620  1.4997
 1124SOL    MW4 4230   3.218   5.660   6.166 -0.0877 -1.2288 -0.2519
 1125SOL     OW 4231   5.502   0.807   5.075  1.1017  0.6724 -0.9863
 1125SOL    HW2 4232   5.515   0.821   5.168  2.1096  0.4630 -1.0837
 1125SOL    HW3 4233   5.590   0.793   5.040  0.7718  1.0645 -2.0231
 1125SOL    MW4 4234   5.515   0.807   5.082 -0.1982  0.1754 -0.2058
 1126SOL     OW 4235   3.745   0.172   3.830  0.4315  0.4046  0.6296
 1126SOL    HW2 4236   3.747   0.184   3.925  0.6144  2.6379  0.4104
 1126SOL    HW3 4237   3.654   0.147   3.811  0.7895 -1.8039  1.4906
 1126SOL    MW4 4238   3.733   0.170   3.841 -0.2364 -0.3212  0.1530
 1127SOL     OW 4239   1.535   4.819   2.467  0.1476 -0.9472 -0.7718
 1127SOL    HW2 4240   1.480   4.777   2.401  0.7635  0.8846 -2.5487
 1127SOL    HW3 4241   1.505   4.910   2.468  0.6842 -0.7544  0.9567
 1127SOL    MW4 4242   1.524   4.825   2.459 -0.1494 -0.5976  0.2076
 1128SOL     OW 4243   5.938   3.461   5.374  0.1777 -0.0325  0.2190
 1128SOL    HW2 4244   5.951   3.366   5.377  0.8597  0.0355 -0.4451
 1128SOL    HW3 4245   5.934   3.488   5.466  1.4458 -0.5088  0.4287
 1128SOL    MW4 4246   5.939   3.452   5.387  0.2745 -0.3412  0.1731
 1129SOL     OW 4247   3.986   2.518   5.307 -0.4114  0.2516  0.0846
 1129SOL    HW2 4248   3.972   2.583   5.238 -1.4792  0.2301  0.2729
 1129SOL    HW3 4249   3.961   2.435   5.266 -0.4431  0.1535  0.3055
 1129SOL    MW4 4250   3.981   2.516   5.292 -0.4910 -0.0597  0.3263
 1130SOL     OW 4251   1.706   0.356   2.363  0.4691  0.0644 -0.4862
 1130SOL    HW2 4252   1.646   0.323   2.296 -1.4195 -1.6750  1.8655
 1130SOL    HW3 4253   1.787   0.306   2.349 -0.5521 -1.7376 -0.3425
 1130SOL    MW4 4254   1.708   0.345   2.352 -0.1880  0.1121 -0.0072
 1131SOL     OW 4255   1.405   0.035   1.116 -0.6767 -0.3283  0.2336
 1131SOL    HW2 4256   1.451   0.006   1.195 -3.8258 -2.1391  1.6090
 1131SOL    HW3 4257   1.406  -0.041   1.059 -1.1521 -0.0807 -0.1093
 1131SOL    MW4 4258   1.411   0.021   1.119  0.1343  0.1666  0.6907
 1132SOL     OW 4259   2.131   4.444   6.306 -0.0303 -0.9186 -0.6685
 1132SOL    HW2 4260   2.152   4.497   6.384  1.5869 -2.0112 -0.3119
 1132SOL    HW3 4261   2.118   4.509   6.237  0.6212  0.0098  0.0401
 1132SOL    MW4 4262   2.132   4.460   6.307  0.2695 -0.2043  0.2633
 1133SOL     OW 4263   4.130   1.955   5.922 -0.6925  0.2747  0.4040
 1133SOL    HW2 4264   4.080   1.935   6.001 -1.0212 -0.1900  0.0798
 1133SOL    HW3 4265   4.216   1.983   5.955 -1.7978  3.2559  1.1028
 1133SOL    MW4 4266   4.135   1.956   5.937 -0.9454  0.4392 -0.2943
 1134SOL     OW 4267   4.434   2.301   4.084 -0.5124 -0.4677 -0.0608
 1134SOL    HW2 4268   4.368   2.366   4.060 -1.7657 -2.3690 -2.0604
 1134SOL    HW3 4269   4.516   2.351   4.088 -1.7863  1.7094  1.2043
 1134SOL    MW4 4270   4.436   2.317   4.082  0.2313  0.7819  0.0280
 1135SOL     OW 4271   5.288   0.769   3.103 -0.0880  0.0278  0.1858
 1135SOL    HW2 4272   5.220   0.712   3.139  0.3305 -1.1961 -0.8720
 1135SOL    HW3 4273   5.339   0.712   3.045  2.2339  0.7440  1.3878
 1135SOL    MW4 4274   5.286   0.754   3.100  0.3223 -0.0927 -0.2269
 1136SOL     OW 4275   1.916   1.075   3.704 -0.3475  0.0358  0.0280
 1136SOL    HW2 4276   1.901   1.165   3.733 -1.2797 -0.0904 -0.0190
 1136SOL    HW3 4277   1.979   1.082   3.633 -0.4388  0.6549  0.0068
 1136SOL    MW4 4278   1.922   1.088   3.698  0.1097  0.8307  0.2750
 1137SOL     OW 4279   5.742   3.055   6.417 -0.1252 -0.4869  0.4194
 1137SOL    HW2 4280   5.763   3.059   6.324 -2.9388 -0.5870 -0.3170
 1137SOL    HW3 4281   5.822   3.022   6.458  1.5040  0.4390 -1.8039
 1137SOL    MW4 4282   5.755   3.051   6.410  0.5091 -0.4966 -0.0530
 1138SOL     OW 4283   1.312   6.115   1.806 -0.0994 -0.1023  0.4005
 1138SOL    HW2 4284   1.313   6.208   1.781 -2.6948  0.0770  0.6343
 1138SOL    HW3 4285   1.367   6.110   1.884 -1.2648  1.6115  1.4014
 1138SOL    MW4 4286   1.319   6.127   1.813 -0.3386 -0.0462 -0.5049
 1139SOL     OW 4287   2.714   3.356   5.306  0.4610 -0.0695 -0.4821
 1139SOL    HW2 4288   2.662   3.296   5.359  0.8728  0.1182  0.1458
 1139SOL    HW3 4289   2.796   3.309   5.290  0.0432 -0.4453 -1.6389
 1139SOL    MW4 4290   2.718   3.342   5.310 -0.0924  0.2189 -0.7958
 1140SOL     OW 4291   5.347   2.455   1.710  0.1569  0.2143 -0.7906
 1140SOL    HW2 4292   5.401   2.448   1.789 -0.1054  1.2453 -0.5056
 1140SOL    HW3 4293   5.263   2.417   1.735 -0.0430  0.8662 -0.4494
 1140SOL    MW4 4294   5.343   2.449   1.724 -0.6489  0.7833 -0.6534
 1141SOL     OW 4295   1.336   2.558   3.406 -0.7618 -0.6759  0.1361
 1141SOL    HW2 4296   1.280   2.623   3.364 -0.5332 -0.3720  0.2934
 1141SOL    HW3 4297   1.349   2.591   3.495  0.1647 -0.4134 -0.0776
 1141SOL    MW4 4298   1.331   2.571   3.412  0.0777 -0.1835  0.2137
 1142SOL     OW 4299   4.169   3.110   2.962 -0.1339 -0.4499  0.5297
 1142SOL    HW2 4300   4.082   3.118   3.001 -0.0255  2.0025  0.4409
 1142SOL    HW3 4301   4.222   3.175   3.007  1.8622 -2.2808  0.9713
 1142SOL    MW4 4302   4.164   3.120   2.973  0.1541 -0.4596 -0.2563
 1143SOL     OW 4303   2.263   6.336   3.062  0.0733 -1.0356 -0.2216
 1143SOL    HW2 4304   2.291   6.267   3.123  1.0659  0.1118  0.6800
 1143SOL    HW3 4305   2.178   6.365   3.095 -0.0313 -1.3605 -0.2043
 1143SOL    MW4 4306   2.256   6.331   3.075  0.3097  0.6077 -0.1403
 1144SOL     OW 4307   3.196   2.662   1.688 -0.1399 -0.2482  0.7299
 1144SOL    HW2 4308   3.196   2.567   1.691  0.8976 -0.2405  1.4715
 1144SOL    HW3 4309   3.168   2.689   1.776 -0.4252  0.1270  0.5275
 1144SOL    MW4 4310   3.192   2.653   1.700 -0.1023  0.5643  0.3191
 1145SOL     OW 4311   3.298   4.515   1.405  1.0771  0.4249 -0.2172
 1145SOL    HW2 4312   3.340   4.456   1.343 -0.5911 -0.9622 -0.1183
 1145SOL    HW3 4313   3.295   4.465   1.487 -1.7216 -0.0534 -0.5121
 1145SOL    MW4 4314   3.303   4.501   1.408 -0.4237 -0.1746 -0.3368
 1146SOL     OW 4315   0.595   5.150   0.250 -0.0287  0.5605  0.0071
 1146SOL    HW2 4316   0.613   5.096   0.328  0.2378  2.4926  1.3428
 1146SOL    HW3 4317   0.604   5.089   0.177  2.0461 -0.8583  1.3112
 1146SOL    MW4 4318   0.599   5.135   0.251  0.4854  0.2342 -0.3456
 1147SOL     OW 4319   2.860   0.088   2.619  0.0427  0.2724 -0.5572
 1147SOL    HW2 4320   2.832   0.081   2.711  1.2655 -2.2731 -0.3031
 1147SOL    HW3 4321   2.918   0.164   2.618  0.9372 -0.3333  1.0633
 1147SOL    MW4 4322   2.864   0.097   2.631 -0.8606  0.5875  0.4073
 1148SOL     OW 4323   2.426   5.674   3.500  0.2220  0.1006  0.4374
 1148SOL    HW2 4324   2.363   5.602   3.506  1.5194 -0.9724  1.6970
 1148SOL    HW3 4325   2.479   5.667   3.579  1.4175  1.4792 -0.1880
 1148SOL    MW4 4326   2.424   5.664   3.511  0.2244  0.1114  0.0816
 1149SOL     OW 4327   4.955   3.337   3.846  0.6928  0.5247 -0.7855
 1149SOL    HW2 4328   5.012   3.263   3.868 -1.8152 -1.0805  0.8757
 1149SOL    HW3 4329   4.905   3.353   3.926 -2.2751  0.7283 -2.5192
 1149SOL    MW4 4330   4.956   3.329   3.860  0.0113 -0.9232 -0.0564
 1150SOL     OW 4331   4.889   5.534   5.872 -0.5358 -0.2025 -0.1700
 1150SOL    HW2 4332   4.879   5.458   5.814 -0.8087 -1.7212  1.7433
 1150SOL    HW3 4333   4.881   5.610   5.814  0.9126 -1.6047 -2.3590
 1150SOL    MW4 4334   4.886   5.534   5.857 -0.2111  0.0474  0.0461
 1151SOL     OW 4335   2.110   2.430   4.798  0.0034  0.3897 -0.2094
 1151SOL    HW2 4336   2.175   2.465   4.858  0.4295 -0.0669 -0.3986
 1151SOL    HW3 4337   2.142   2.453   4.711 -1.2492  2.1477 -0.2410
 1151SOL    MW4 4338   2.123   2.437   4.794  0.0239 -0.3339 -0.2485
 1152SOL     OW 4339   4.767   5.385   6.106 -0.9251  0.0370 -0.1631
 1152SOL    HW2 4340   4.827   5.435   6.051  0.8539 -2.4724 -0.6865
 1152SOL    HW3 4341   4.690   5.371   6.051  0.6885 -2.1520 -2.0830
 1152SOL    MW4 4342   4.765   5.390   6.092 -0.0988 -0.1546  0.0250
 1153SOL     OW 4343   4.358   0.892   6.157 -0.3176  0.6777 -0.1869
 1153SOL    HW2 4344   4.426   0.841   6.202 -1.7401 -1.3237 -0.1602
 1153SOL    HW3 4345   4.386   0.893   6.065  0.4682  1.1515  0.0483
 1153SOL    MW4 4346   4.371   0.885   6.151  0.1405 -0.0261 -0.1007
 1154SOL     OW 4347   5.179   2.754   3.922 -0.5856 -0.3521  0.7603
 1154SOL    HW2 4348   5.204   2.717   3.838 -0.3452  1.5509 -0.0522
 1154SOL    HW3 4349   5.248   2.726   3.982  2.1904  2.4109 -0.8173
 1154SOL    MW4 4350   5.191   2.746   3.919  0.0206 -0.6187  0.0844
 1155SOL     OW 4351   3.666   3.075   0.455  0.2071 -0.0693 -0.3885
 1155SOL    HW2 4352   3.648   2.981   0.468  0.7003  0.1389  2.2649
 1155SOL    HW3 4353   3.593   3.105   0.399 -0.6188 -1.7772 -0.3169
 1155SOL    MW4 4354   3.654   3.066   0.449  0.1766  0.1355 -0.1196
 1156SOL     OW 4355   0.634   6.087   6.128 -0.3196  0.4915 -0.0091
 1156SOL    HW2 4356   0.550   6.129   6.144  0.2060  1.2052  1.0123
 1156SOL    HW3 4357   0.635   6.012   6.188  0.8878  2.1005  2.1271
 1156SOL    MW4 4358   0.623   6.082   6.138  0.5547 -0.3675  0.8360
 1157SOL     OW 4359   2.978   4.871   5.511  0.7053 -0.2478  0.2085
 1157SOL    HW2 4360   3.055   4.877   5.568  1.6716 -2.5496 -0.7420
 1157SOL    HW3 4361   3.010   4.896   5.425  0.1086 -0.1796  0.0024
 1157SOL    MW4 4362   2.992   4.875   5.507 -0.1646  0.4979 -0.1326
 1158SOL     OW 4363   2.971   1.422   2.120  0.4294  0.5326  0.4334
 1158SOL    HW2 4364   2.897   1.391   2.172  1.6945 -2.0433  0.8629
 1158SOL    HW3 4365   3.006   1.496   2.170  1.1760 -1.4040  3.0165
 1158SOL    MW4 4366   2.966   1.427   2.133  0.3458 -0.8575  0.3945
 1159SOL     OW 4367   3.843   1.121   0.347  0.2898  0.4722 -0.6239
 1159SOL    HW2 4368   3.912   1.114   0.412  0.5752 -0.3163 -0.9993
 1159SOL    HW3 4369   3.814   1.031   0.333 -0.7544  0.7762 -0.5420
 1159SOL    MW4 4370   3.848   1.108   0.354 -0.0140  0.7817  0.2328
 1160SOL     OW 4371   0.644   4.591   5.685 -0.7846 -0.1136  0.0651
 1160SOL    HW2 4372   0.718   4.643   5.716  0.5860 -1.5944 -0.5710
 1160SOL    HW3 4373   0.586   4.654   5.644 -0.9316  1.3927  2.3916
 1160SOL    MW4 4374   0.646   4.606   5.684 -0.6582 -0.0604  0.1801
 1161SOL     OW 4375   0.544   1.607   4.394 -0.1345  0.6425  0.5346
 1161SOL    HW2 4376   0.620   1.561   4.357  0.4181 -0.4029  2.7845
 1161SOL    HW3 4377   0.473   1.544   4.389  0.0762  0.2874  1.6277
 1161SOL    MW4 4378   0.545   1.592   4.389  0.1838 -0.1370  0.1081
 1162SOL     OW 4379   1.793   0.412   3.370 -0.4074 -0.2346 -0.0612
 1162SOL    HW2 4380   1.831   0.346   3.311 -0.4225  0.6171 -1.0489
 1162SOL    HW3 4381   1.709   0.433   3.330 -1.6714 -1.5881  1.7290
 1162SOL    MW4 4382   1.787   0.406   3.357  0.2849 -0.2189 -0.4461
 1163SOL     OW 4383   4.248   6.011   0.125 -0.1273  0.1173 -0.1506
 1163SOL    HW2 4384   4.164   6.055   0.140  0.1057  1.1393 -1.6240
 1163SOL    HW3 4385   4.276   5.983   0.212 -2.7322 -1.7016  0.2119
 1163SOL    MW4 4386   4.240   6.013   0.138  0.5656  0.7966 -0.4744
 1164SOL     OW 4387   6.327   2.233   5.001 -0.2346  0.2195 -0.7445
 1164SOL    HW2 4388   6.274   2.203   5.074  0.4247  0.7066 -0.0559
 1164SOL    HW3 4389   6.370   2.154   4.968  3.4861  0.4947  2.6266
 1164SOL    MW4 4390   6.326   2.219   5.006 -0.5589  0.4056  0.1716
 1165SOL     OW 4391   5.469   1.997   1.820 -0.4619  0.6952 -0.4199
 1165SOL    HW2 4392   5.562   1.981   1.837 -0.5910  0.2030 -0.1457
 1165SOL    HW3 4393   5.431   1.909   1.812 -0.9547  0.8873 -0.2343
 1165SOL    MW4 4394   5.476   1.983   1.822 -0.0887  0.0079  0.1066
 1166SOL     OW 4395   0.955   1.220   0.401 -0.4188 -0.3765 -0.0041
 1166SOL    HW2 4396   1.018   1.243   0.333 -0.0669 -0.9079  0.1387
 1166SOL    HW3 4397   0.877   1.271   0.379  0.0601  0.3087 -0.1680
 1166SOL    MW4 4398   0.953   1.230   0.389 -0.3099 -0.0264  0.1743
 1167SOL     OW 4399   2.940   3.356   0.427 -0.3786 -0.1548  0.6304
 1167SOL    HW2 4400   2.900   3.422   0.370  0.7305 -0.5957 -0.7104
 1167SOL    HW3 4401   2.888   3.277   0.411 -0.9797  0.0836  1.3572
 1167SOL    MW4 4402   2.928   3.354   0.417 -0.1088  0.0438  0.5530
 1168SOL     OW 4403   3.142   3.498   1.050 -0.2381  0.0079  0.3629
 1168SOL    HW2 4404   3.215   3.520   1.107  0.2145 -0.9410  0.1772
 1168SOL    HW3 4405   3.137   3.402   1.054 -1.0211  0.0171 -0.1798
 1168SOL    MW4 4406   3.151   3.488   1.058  0.2771  0.2925  0.7120
 1169SOL     OW 4407   3.555   1.355   5.563  0.1533  0.1582  0.5428
 1169SOL    HW2 4408   3.541   1.362   5.468 -0.4670 -1.1717  0.5092
 1169SOL    HW3 4409   3.472   1.380   5.602  0.2084  0.0819  0.7103
 1169SOL    MW4 4410   3.542   1.359   5.555 -0.3174  0.1803  0.8990
 1170SOL     OW 4411   5.556   3.788   6.135 -0.5568  0.3709  0.2243
 1170SOL    HW2 4412   5.515   3.707   6.165 -0.0072  0.1984  0.5155
 1170SOL    HW3 4413   5.649   3.776   6.151 -0.4107  0.8513 -0.2269
 1170SOL    MW4 4414   5.563   3.776   6.141  0.0023 -0.3444 -0.3953
 1171SOL     OW 4415   0.730   6.388   1.205  0.6692  0.0442  0.1446
 1171SOL    HW2 4416   0.771   6.474   1.199  0.4246  0.1895  0.5381
 1171SOL    HW3 4417   0.785   6.339   1.265  1.0249 -0.2020 -0.3761
 1171SOL    MW4 4418   0.743   6.393   1.212 -0.1906 -0.1628 -0.4230
 1172SOL     OW 4419   0.044   1.686   0.156 -0.0639 -0.6888  0.4493
 1172SOL    HW2 4420  -0.032   1.734   0.124  0.3360 -0.0512  0.4315
 1172SOL    HW3 4421   0.080   1.741   0.226  0.2591 -1.0798  0.5979
 1172SOL    MW4 4422   0.039   1.700   0.161 -0.4423 -0.3140  0.8709
 1173SOL     OW 4423   5.405   6.220   3.058  0.2172 -0.7060 -0.5117
 1173SOL    HW2 4424   5.453   6.211   3.140  2.5489 -2.0709 -1.9180
 1173SOL    HW3 4425   5.370   6.309   3.061  0.7773 -0.4979  1.6696
 1173SOL    MW4 4426   5.407   6.231   3.069  0.2812  0.3800 -0.5245
 1174SOL     OW 4427   2.075   0.949   5.646 -0.4471 -0.3383 -0.6421
 1174SOL    HW2 4428   2.036   1.004   5.578 -0.9586  1.5455  1.0669
 1174SOL    HW3 4429   2.169   0.951   5.628 -0.6347 -0.5151 -1.7076
 1174SOL    MW4 4430   2.082   0.956   5.634 -0.3509 -0.1759  0.2028
 1175SOL     OW 4431   6.004   1.796   5.951  0.2224  0.0137 -0.0050
 1175SOL    HW2 4432   5.951   1.721   5.925 -0.7817  0.0215  1.8530
 1175SOL    HW3 4433   6.062   1.811   5.876 -1.0475 -1.2183 -1.3138
 1175SOL    MW4 4434   6.005   1.788   5.937 -0.0818 -0.3950  0.6784
 1176SOL     OW 4435   4.835   2.746   4.613  0.1790 -0.1295 -0.0257
 1176SOL    HW2 4436   4.842   2.651   4.602 -0.3249 -0.1448 -0.2549
 1176SOL    HW3 4437   4.741   2.764   4.604  0.1953  0.3142  0.6641
 1176SOL    MW4 4438   4.823   2.736   4.610 -0.4485 -0.0021  0.0169
 1177SOL     OW 4439   5.864   6.003   5.547 -0.4691 -0.1375 -0.3922
 1177SOL    HW2 4440   5.879   6.081   5.600  0.4764 -0.6783  0.1688
 1177SOL    HW3 4441   5.879   5.930   5.607 -1.3113 -0.7508 -0.9175
 1177SOL    MW4 4442   5.868   6.004   5.562 -0.2507 -0.0817 -0.2350
 1178SOL     OW 4443   1.688   2.267   0.931 -0.2681 -0.5496 -0.0094
 1178SOL    HW2 4444   1.651   2.197   0.986 -0.4848  0.2048  0.8232
 1178SOL    HW3 4445   1.618   2.332   0.927  0.9125  0.9092  1.5917
 1178SOL    MW4 4446   1.674   2.266   0.938  0.1887  0.1894  0.0390
 1179SOL     OW 4447   0.667   5.004   0.025  0.5752  0.4281 -0.2087
 1179SOL    HW2 4448   0.607   4.961  -0.036 -0.3258  0.6911  0.4792
 1179SOL    HW3 4449   0.689   5.087  -0.017  0.0905  0.5343 -0.2578
 1179SOL    MW4 4450   0.662   5.009   0.011  0.6020  0.4077 -0.9125
 1180SOL     OW 4451   3.612   2.015   2.041 -0.0372  0.1531  0.7950
 1180SOL    HW2 4452   3.576   1.961   2.112 -1.4854  0.7544  0.5471
 1180SOL    HW3 4453   3.544   2.079   2.023 -0.8134 -1.4015 -2.7843
 1180SOL    MW4 4454   3.599   2.016   2.048 -0.1148 -0.1940  0.2034
 1181SOL     OW 4455   0.253   1.340   2.497  0.6708 -0.2374 -0.2321
 1181SOL    HW2 4456   0.162   1.355   2.521  1.2229  2.1508  0.6808
 1181SOL    HW3 4457   0.249   1.278   2.424 -1.4275 -3.1096  2.0595
 1181SOL    MW4 4458   0.241   1.334   2.491  0.1698 -0.6487 -0.4403
 1182SOL     OW 4459   3.888   2.692   2.185 -0.6367  0.3556 -0.7720
 1182SOL    HW2 4460   3.942   2.677   2.108  0.8749  2.0130 -0.1047
 1182SOL    HW3 4461   3.813   2.741   2.153 -0.9416 -0.5437 -1.4574
 1182SOL    MW4 4462   3.885   2.697   2.171 -0.1335  0.1943 -0.2603
 1183SOL     OW 4463   5.757   1.046   5.125 -0.1719  0.7944 -0.3995
 1183SOL    HW2 4464   5.722   1.001   5.203 -1.5163  2.3977 -0.0150
 1183SOL    HW3 4465   5.852   1.047   5.138 -0.2299 -0.5758  0.3011
 1183SOL    MW4 4466   5.765   1.040   5.137  0.2002 -0.6910  0.0039
 1184SOL     OW 4467   5.632   1.077   3.714 -0.6849 -0.0954  0.1696
 1184SOL    HW2 4468   5.582   1.129   3.651  0.6638  0.3953 -0.5409
 1184SOL    HW3 4469   5.652   0.996   3.668  0.5528  0.3816 -0.1690
 1184SOL    MW4 4470   5.628   1.073   3.700 -0.3177 -0.2216  0.3323
 1185SOL     OW 4471   3.136   4.301   2.277 -0.0641 -0.1829  0.3933
 1185SOL    HW2 4472   3.112   4.367   2.341 -0.8065  0.8040 -0.8606
 1185SOL    HW3 4473   3.058   4.291   2.222  1.4909  1.2355 -2.2209
 1185SOL    MW4 4474   3.122   4.308   2.278 -0.2511  0.1745  0.0832
 1186SOL     OW 4475   1.119   0.916   4.312 -0.3649 -0.2559 -0.2677
 1186SOL    HW2 4476   1.213   0.921   4.296 -0.1442 -2.2507  0.0988
 1186SOL    HW3 4477   1.085   1.001   4.286  1.7231  1.0027  0.8613
 1186SOL    MW4 4478   1.127   0.928   4.306  1.0218  0.3736 -0.1878
 1187SOL     OW 4479   6.350   2.174   0.502 -0.3684 -0.0494  0.5171
 1187SOL    HW2 4480   6.368   2.250   0.558  2.7088 -0.2037 -0.0711
 1187SOL    HW3 4481   6.423   2.172   0.441 -1.8904 -1.8454 -1.3782
 1187SOL    MW4 4482   6.362   2.184   0.501 -0.3868 -0.2962  0.0478
 1188SOL     OW 4483   1.951   2.940   1.968  0.3372 -0.3089  0.1852
 1188SOL    HW2 4484   1.974   2.997   1.894 -2.5502 -2.2956 -2.5046
 1188SOL    HW3 4485   2.007   2.863   1.957  2.0219  0.5854  1.9691
 1188SOL    MW4 4486   1.962   2.938   1.957 -0.2916 -0.2073  0.8448
 1189SOL     OW 4487   5.800   1.641   4.257  0.0096 -0.0730 -0.3759
 1189SOL    HW2 4488   5.767   1.551   4.264  0.3981 -0.1005  2.4945
 1189SOL    HW3 4489   5.728   1.695   4.290  0.3137  0.5309 -0.6909
 1189SOL    MW4 4490   5.786   1.636   4.262  0.3022 -0.0929 -0.3563
 1190SOL     OW 4491   3.883   4.588   4.407  0.0274 -0.2726  0.1615
 1190SOL    HW2 4492   3.822   4.659   4.388 -0.3861 -0.9599 -1.2556
 1190SOL    HW3 4493   3.955   4.601   4.345  1.8585  1.0628  2.4066
 1190SOL    MW4 4494   3.884   4.599   4.396  0.3158  0.1185 -0.2035
 1191SOL     OW 4495   5.924   5.602   4.582 -0.8342 -0.3272 -0.0197
 1191SOL    HW2 4496   5.931   5.545   4.659  0.7312  1.0220  0.9062
 1191SOL    HW3 4497   5.842   5.649   4.594  0.3433  1.4024  2.0234
 1191SOL    MW4 4498   5.914   5.601   4.594 -0.0941  0.0380  0.2440
 1192SOL     OW 4499   6.235   2.834   5.040  0.3573 -0.0498  0.0516
 1192SOL    HW2 4500   6.293   2.888   4.986  1.3755  0.3125  1.4486
 1192SOL    HW3 4501   6.257   2.744   5.016 -1.5291  0.0747 -2.4798
 1192SOL    MW4 4502   6.246   2.829   5.030  0.4672  0.1567 -0.0510
 1193SOL     OW 4503   1.409   3.061   1.175 -0.1662 -0.5690  0.3240
 1193SOL    HW2 4504   1.465   3.048   1.251  1.0659 -0.1335 -0.4861
 1193SOL    HW3 4505   1.414   3.155   1.157 -0.6196 -0.6327 -0.1711
 1193SOL    MW4 4506   1.417   3.072   1.183 -0.6220 -0.2655 -0.0146
 1194SOL     OW 4507   0.615   5.814   4.891 -0.3292 -0.1696  0.2986
 1194SOL    HW2 4508   0.634   5.876   4.821  0.7915  0.5938  1.2420
 1194SOL    HW3 4509   0.627   5.728   4.850 -0.9822  0.2296 -0.7759
 1194SOL    MW4 4510   0.619   5.811   4.876 -0.1456 -0.0824  0.3071
 1195SOL     OW 4511   6.267   4.033   5.244 -0.2551 -0.4118  0.5073
 1195SOL    HW2 4512   6.242   3.948   5.280 -0.1166 -0.6553  0.0299
 1195SOL    HW3 4513   6.363   4.032   5.245 -0.2216 -0.8575 -0.8604
 1195SOL    MW4 4514   6.276   4.021   5.249 -0.1224 -0.2494 -0.4478
 1196SOL     OW 4515   2.473   4.836   1.195 -0.3197  0.5226  0.2407
 1196SOL    HW2 4516   2.446   4.753   1.234 -0.7973  0.8051  0.5126
 1196SOL    HW3 4517   2.559   4.853   1.234 -0.3508  0.3038  0.4083
 1196SOL    MW4 4518   2.481   4.827   1.206  0.0510 -0.5128  0.6916
 1197SOL     OW 4519   3.027   5.030   0.206 -0.3118 -0.2034 -0.0007
 1197SOL    HW2 4520   3.025   4.960   0.271 -0.5633  0.6088  0.8838
 1197SOL    HW3 4521   3.085   5.096   0.244  0.4200 -0.1816 -1.1031
 1197SOL    MW4 4522   3.035   5.029   0.220  0.2918  0.3294  0.1255
 1198SOL     OW 4523   2.187   3.166   4.006 -0.3900 -0.1224 -0.3342
 1198SOL    HW2 4524   2.177   3.247   4.056 -1.6641 -0.6949  0.4079
 1198SOL    HW3 4525   2.272   3.131   4.033  0.0394  0.8034 -0.4461
 1198SOL    MW4 4526   2.197   3.172   4.016  0.3675  0.1919 -0.4060
 1199SOL     OW 4527   0.388   0.575   3.156 -0.1376  0.3678  0.2834
 1199SOL    HW2 4528   0.445   0.505   3.189  0.6347  0.6340 -0.4549
 1199SOL    HW3 4529   0.448   0.647   3.134 -0.6544  0.3427 -1.3430
 1199SOL    MW4 4530   0.404   0.576   3.158 -0.1627  0.0750  0.6345
 1200SOL     OW 4531   5.011   0.144   1.598 -0.1647 -0.2353 -0.0917
 1200SOL    HW2 4532   4.920   0.165   1.620 -0.3920 -0.6625 -0.6158
 1200SOL    HW3 4533   5.036   0.211   1.534 -0.1754 -0.2404 -0.1012
 1200SOL    MW4 4534   5.002   0.156   1.593 -0.2818  0.2851 -0.2544
 1201SOL     OW 4535   4.568   5.806   2.244 -0.2518  0.2184 -0.0969
 1201SOL    HW2 4536   4.655   5.768   2.248 -0.6727 -0.7719  0.0323
 1201SOL    HW3 4537   4.556   5.851   2.327  0.6987  1.6760 -0.7151
 1201SOL    MW4 4538   4.578   5.807   2.255 -0.5690  0.0800 -0.3067
 1202SOL     OW 4539   0.115   3.825   3.189  0.0187  0.4075 -0.3459
 1202SOL    HW2 4540   0.057   3.755   3.159 -1.1967  1.3740 -0.3458
 1202SOL    HW3 4541   0.187   3.780   3.232 -0.6111 -0.8458 -0.5585
 1202SOL    MW4 4542   0.116   3.810   3.191  0.4517 -0.3727 -0.3136
 1203SOL     OW 4543   0.838   2.813   3.603 -0.1184 -0.2785 -0.2941
 1203SOL    HW2 4544   0.773   2.743   3.599  0.3207 -0.6576 -1.2102
 1203SOL    HW3 4545   0.854   2.836   3.512  0.9270 -0.1125 -0.0891
 1203SOL    MW4 4546   0.832   2.807   3.591  0.0825  0.1933 -0.1095
 1204SOL     OW 4547   1.506   1.347   0.773  0.4363 -0.5688 -0.7136
 1204SOL    HW2 4548   1.473   1.288   0.705  1.8336 -1.1591 -0.9132
 1204SOL    HW3 4549   1.531   1.288   0.844 -3.3205  0.1476  1.4877
 1204SOL    MW4 4550   1.505   1.331   0.773 -0.5574 -0.1176  0.2296
 1205SOL     OW 4551   0.557   6.210   0.717  0.2111  0.1898  1.2264
 1205SOL    HW2 4552   0.532   6.121   0.741 -0.8810  0.6960  2.0593
 1205SOL    HW3 4553   0.554   6.259   0.799  2.3619  0.6745  1.0629
 1205SOL    MW4 4554   0.553   6.205   0.731 -0.1688 -0.1171  0.2652
 1206SOL     OW 4555   3.307   1.654   1.790  0.1853  0.2683 -0.0552
 1206SOL    HW2 4556   3.321   1.561   1.808  0.8646  0.5517  0.9422
 1206SOL    HW3 4557   3.212   1.666   1.798  0.1258 -0.2714  0.0873
 1206SOL    MW4 4558   3.296   1.644   1.793  1.0076  0.7728  0.4189
 1207SOL     OW 4559   4.118   5.747   4.813  0.3022  0.3212  0.3788
 1207SOL    HW2 4560   4.158   5.689   4.878  0.8221 -0.1181 -0.3222
 1207SOL    HW3 4561   4.187   5.810   4.793  0.7595 -0.5812 -1.0121
 1207SOL    MW4 4562   4.132   5.748   4.819 -0.1675 -0.3818  0.1183
 1208SOL     OW 4563   1.656   0.952   5.814  0.3325 -0.5689 -0.2893
 1208SOL    HW2 4564   1.580   0.995   5.853  0.7631 -0.4817  0.4810
 1208SOL    HW3 4565   1.619   0.882   5.760 -0.4269  1.1838 -2.1769
 1208SOL    MW4 4566   1.641   0.948   5.812 -0.7904 -0.1396  0.5113
 1209SOL     OW 4567   4.580   0.850   3.880 -0.6573  0.0831  0.3876
 1209SOL    HW2 4568   4.591   0.799   3.961 -0.8865  1.2034  1.1403
 1209SOL    HW3 4569   4.555   0.784   3.814  1.2660 -1.1273  0.7777
 1209SOL    MW4 4570   4.578   0.834   3.882  0.1512 -0.5239  0.0421
 1210SOL     OW 4571   3.471   1.398   5.283 -0.0935 -0.2087 -0.2620
 1210SOL    HW2 4572   3.388   1.441   5.302  0.3385 -0.0741  1.5249
 1210SOL    HW3 4573   3.520   1.463   5.232 -0.4145  0.4297  0.2197
 1210SOL    MW4 4574   3.467   1.412   5.279 -0.4986 -0.3652  0.6407
 1211SOL     OW 4575   2.263   5.791   2.742  0.4259 -0.1281  0.2913
 1211SOL    HW2 4576   2.298   5.857   2.801  0.0136  0.2806  0.0895
 1211SOL    HW3 4577   2.169   5.789   2.762  0.4442 -0.6913  0.3322
 1211SOL    MW4 4578   2.255   5.800   2.752  0.4747  0.3655  0.0020
 1212SOL     OW 4579   0.195   4.524   4.370 -0.0916 -0.2286  0.4456
 1212SOL    HW2 4580   0.211   4.618   4.358 -0.1806 -0.0686  1.4563
 1212SOL    HW3 4581   0.271   4.481   4.330 -0.7212  0.1944 -1.2853
 1212SOL    MW4 4582   0.207   4.531   4.363  0.4125  0.3260  0.0183
 1213SOL     OW 4583   2.283   1.142   0.907  0.0820 -0.0055  0.8246
 1213SOL    HW2 4584   2.250   1.090   0.981  1.3423 -0.7130  0.9155
 1213SOL    HW3 4585   2.264   1.089   0.830  0.6931 -0.2732  0.8501
 1213SOL    MW4 4586   2.276   1.128   0.907 -0.2431 -0.2612 -0.2846
 1214SOL     OW 4587   5.771   5.132   2.191  0.0868  0.0370 -0.3873
 1214SOL    HW2 4588   5.739   5.220   2.208  1.1140  0.5722 -1.1314
 1214SOL    HW3 4589   5.847   5.144   2.134 -0.6273 -1.4217 -1.7350
 1214SOL    MW4 4590   5.777   5.145   2.186 -0.3966 -0.4704 -0.5300
 1215SOL     OW 4591   3.919   0.760   4.254 -0.0540  0.5529 -0.2141
 1215SOL    HW2 4592   3.900   0.691   4.190  1.4294  0.4224 -0.5467
 1215SOL    HW3 4593   3.834   0.802   4.270 -0.9615 -1.2332 -0.1213
 1215SOL    MW4 4594   3.905   0.756   4.248  0.0810 -0.3776  0.2759
 1216SOL     OW 4595   0.629   6.038   4.054 -0.2179 -0.1393  0.5025
 1216SOL    HW2 4596   0.640   6.087   4.136  0.9371 -0.1871  0.3948
 1216SOL    HW3 4597   0.695   6.075   3.996 -0.3811 -0.7748 -0.0885
 1216SOL    MW4 4598   0.639   6.050   4.057 -0.4057  0.1256 -0.1285
 1217SOL     OW 4599   4.219   0.567   4.228 -0.9641  0.3483  0.3381
 1217SOL    HW2 4600   4.292   0.544   4.285  0.8972 -1.0285 -2.3442
 1217SOL    HW3 4601   4.177   0.641   4.271  3.0154  2.3214  1.3169
 1217SOL    MW4 4602   4.223   0.574   4.241 -0.7474 -0.8397 -0.1336
 1218SOL     OW 4603   0.452   3.133   2.748 -0.4078 -0.1070  0.3796
 1218SOL    HW2 4604   0.401   3.197   2.699 -0.3423 -0.2817  0.0853
 1218SOL    HW3 4605   0.495   3.080   2.682 -0.4036 -0.4115  0.6232
 1218SOL    MW4 4606   0.451   3.134   2.733  0.1498  0.5167  0.3433
 1219SOL     OW 4607   3.256   6.369   4.416  0.3334  0.4671 -0.3119
 1219SOL    HW2 4608   3.328   6.384   4.355  0.7813  0.5491  0.2198
 1219SOL    HW3 4609   3.191   6.436   4.395 -0.6858 -1.0415 -2.3767
 1219SOL    MW4 4610   3.257   6.380   4.405  0.4374 -0.0517 -0.2643
 1220SOL     OW 4611   2.791   6.147   4.000 -0.2773  0.1200  0.6901
 1220SOL    HW2 4612   2.863   6.086   4.016 -1.8312 -1.2458  3.0872
 1220SOL    HW3 4613   2.834   6.230   3.980  1.9138 -1.1252 -0.0780
 1220SOL    MW4 4614   2.806   6.150   4.000 -0.4455  0.2426 -0.2724
 1221SOL     OW 4615   3.331   1.041   6.276 -0.1398 -0.3310 -0.2016
 1221SOL    HW2 4616   3.309   1.063   6.366 -0.9509  1.3888 -0.7923
 1221SOL    HW3 4617   3.425   1.021   6.279  0.3809  1.9555  0.6438
 1221SOL    MW4 4618   3.340   1.041   6.288 -0.8684 -0.4875  0.2148
 1222SOL     OW 4619   2.709   3.894   1.496  0.3435  0.6494  0.2451
 1222SOL    HW2 4620   2.643   3.898   1.564 -0.2211  0.2086 -0.2626
 1222SOL    HW3 4621   2.662   3.865   1.418 -0.0969  5.5811 -1.6490
 1222SOL    MW4 4622   2.694   3.890   1.494  0.3191 -0.4850 -0.1495
 1223SOL     OW 4623   4.626   0.034   5.938 -0.0286  0.2688  0.1165
 1223SOL    HW2 4624   4.621   0.055   6.031  2.8917 -0.6227  0.5875
 1223SOL    HW3 4625   4.648  -0.060   5.936 -2.2284 -0.2941 -1.5842
 1223SOL    MW4 4626   4.628   0.024   5.950  0.0069 -0.0395 -0.1204
 1224SOL     OW 4627   0.956   2.378   2.855  0.0479 -0.1874  0.1102
 1224SOL    HW2 4628   0.914   2.374   2.941 -0.0560 -1.0457  0.0290
 1224SOL    HW3 4629   1.050   2.375   2.875  0.0710  0.8660  0.2449
 1224SOL    MW4 4630   0.963   2.377   2.869  0.3694 -0.3968  0.2168
 1225SOL     OW 4631   4.165   0.022   1.523 -0.1346  0.0875  0.4182
 1225SOL    HW2 4632   4.077  -0.001   1.551 -0.1341  0.5789  0.8352
 1225SOL    HW3 4633   4.169   0.117   1.531 -0.1381  0.2602 -1.2899
 1225SOL    MW4 4634   4.154   0.031   1.528  0.3283  0.0997 -0.7601
 1226SOL     OW 4635   0.881   0.957   0.309 -0.3884  0.3019 -0.7367
 1226SOL    HW2 4636   0.809   0.944   0.371  0.8915 -0.2370  0.7005
 1226SOL    HW3 4637   0.919   1.042   0.334  0.5360 -0.2170 -0.3290
 1226SOL    MW4 4638   0.876   0.967   0.321  0.5418  0.1609  0.1239
 1227SOL     OW 4639   2.227   2.470   0.791  0.1199  0.2400  0.3028
 1227SOL    HW2 4640   2.191   2.556   0.814  0.6152  0.6429 -0.3588
 1227SOL    HW3 4641   2.320   2.477   0.813  0.0970 -0.2433  0.5496
 1227SOL    MW4 4642   2.235   2.482   0.797 -0.0304  0.0463 -0.2527
 1228SOL     OW 4643   1.125   3.917   0.896  0.1664  0.0037 -0.1308
 1228SOL    HW2 4644   1.057   3.888   0.957 -0.3794  0.5643 -0.4546
 1228SOL    HW3 4645   1.089   3.898   0.809  0.4206  0.3020 -0.3045
 1228SOL    MW4 4646   1.111   3.911   0.892  0.5857  0.2014  0.1855
 1229SOL     OW 4647   1.245   5.050   2.271  0.0497  0.6748  0.9130
 1229SOL    HW2 4648   1.336   5.061   2.300  0.1872  1.3942  0.2293
 1229SOL    HW3 4649   1.252   5.003   2.188 -0.3838 -2.0490  2.2746
 1229SOL    MW4 4650   1.258   5.045   2.264 -0.1018 -0.5504  0.0858
 1230SOL     OW 4651   5.465   6.169   6.161  0.0448  0.3781  0.0625
 1230SOL    HW2 4652   5.526   6.216   6.217 -0.3423  1.2434 -0.2199
 1230SOL    HW3 4653   5.380   6.209   6.178 -0.2638 -0.0900 -0.3279
 1230SOL    MW4 4654   5.462   6.180   6.170  0.5188 -0.3367  0.5407
 1231SOL     OW 4655   0.775   2.844   2.424 -0.2776  0.4184  0.3507
 1231SOL    HW2 4656   0.752   2.776   2.361 -0.0451  0.0474  0.6674
 1231SOL    HW3 4657   0.854   2.812   2.467 -0.7119  0.4383  1.1817
 1231SOL    MW4 4658   0.782   2.831   2.422 -0.1122 -0.0649  0.3377
 1232SOL     OW 4659   2.184   3.007   0.990  0.3768  0.1672  0.4462
 1232SOL    HW2 4660   2.099   3.006   1.034  0.0856  1.1960 -0.0646
 1232SOL    HW3 4661   2.241   2.955   1.047 -0.9905 -1.9740 -0.0432
 1232SOL    MW4 4662   2.180   3.000   1.003  0.2676  0.1316 -0.1573
 1233SOL     OW 4663   4.213   0.808   3.907  0.2002  0.0052  0.0108
 1233SOL    HW2 4664   4.283   0.777   3.964  0.3968  1.7589  0.7865
 1233SOL    HW3 4665   4.197   0.736   3.846  0.6809 -1.5326  1.6409
 1233SOL    MW4 4666   4.220   0.794   3.906 -0.0915 -0.0702 -0.5749
 1234SOL     OW 4667   0.299   2.944   0.067  0.3487 -0.3388  0.1158
 1234SOL    HW2 4668   0.342   2.988   0.141 -0.4376 -0.4244  0.6350
 1234SOL    HW3 4669   0.217   2.911   0.103 -0.3910  0.2514 -0.9822
 1234SOL    MW4 4670   0.294   2.946   0.082  0.7069 -0.1578 -0.2968
 1235SOL     OW 4671   0.347   3.273   2.327  0.1036 -0.0803 -0.1204
 1235SOL    HW2 4672   0.354   3.367   2.312 -0.8346  0.0273  0.0283
 1235SOL    HW3 4673   0.290   3.265   2.404  0.8076 -0.7470  0.3445
 1235SOL    MW4 4674   0.340   3.284   2.335 -0.5957  0.1404 -0.7211
 1236SOL     OW 4675   4.490   2.163   4.883 -0.0830  0.8514  0.1041
 1236SOL    HW2 4676   4.517   2.231   4.944 -1.5512  0.0741  1.7446
 1236SOL    HW3 4677   4.485   2.206   4.798  0.0578  2.5068  0.9089
 1236SOL    MW4 4678   4.493   2.177   4.880  0.8092  0.2220  0.2503
 1237SOL     OW 4679   1.089   0.924   0.718  0.8087 -0.0972 -0.2672
 1237SOL    HW2 4680   1.018   0.870   0.755  2.2512 -2.4484 -0.7312
 1237SOL    HW3 4681   1.054   1.013   0.721 -1.1341 -0.7970  1.9834
 1237SOL    MW4 4682   1.075   0.929   0.724 -0.7053 -0.6008 -0.0942
 1238SOL     OW 4683   0.023   4.820   2.234  0.1323 -0.4959  0.1586
 1238SOL    HW2 4684  -0.021   4.848   2.314  0.4597  0.6688 -0.0421
 1238SOL    HW3 4685   0.016   4.725   2.234 -0.5021 -0.4616  1.2018
 1238SOL    MW4 4686   0.016   4.811   2.244  0.0049  0.2517 -0.3738
 1239SOL     OW 4687   6.111   2.845   4.023 -0.2691 -0.0598 -0.0541
 1239SOL    HW2 4688   6.035   2.787   4.023 -2.3857  2.4892 -1.2794
 1239SOL    HW3 4689   6.075   2.931   4.046  2.2278  1.3061 -0.9335
 1239SOL    MW4 4690   6.096   2.849   4.026 -0.1675  0.6238 -0.3545
 1240SOL     OW 4691   5.403   1.774   2.767  0.3737  0.2188 -0.1910
 1240SOL    HW2 4692   5.441   1.728   2.692 -0.3227  0.2724 -0.5799
 1240SOL    HW3 4693   5.470   1.766   2.835  0.1863 -1.5918 -0.1559
 1240SOL    MW4 4694   5.417   1.767   2.766  0.0368  0.4401 -0.1638
 1241SOL     OW 4695   5.292   0.248   3.942  0.2896  0.4505  0.4661
 1241SOL    HW2 4696   5.298   0.343   3.940  1.3071  0.4225  1.1876
 1241SOL    HW3 4697   5.278   0.226   4.034  0.6687 -0.1138  0.3999
 1241SOL    MW4 4698   5.291   0.257   3.954 -1.0093 -0.1563 -0.2175
 1242SOL     OW 4699   4.548   6.052   4.942 -0.4278  0.1587  0.1238
 1242SOL    HW2 4700   4.536   6.146   4.929 -1.3703  0.0986  0.4356
 1242SOL    HW3 4701   4.629   6.044   4.992 -0.4452  0.8206  0.2610
 1242SOL    MW4 4702   4.557   6.063   4.947  0.3690  0.5294 -0.1712
 1243SOL     OW 4703   5.938   3.756   1.168  0.2840 -0.0913  0.4802
 1243SOL    HW2 4704   6.028   3.738   1.195  0.5043 -1.8678 -1.2726
 1243SOL    HW3 4705   5.942   3.842   1.126  0.7801  0.6550  1.9884
 1243SOL    MW4 4706   5.950   3.765   1.166  0.0322 -0.1545  0.1663
 1244SOL     OW 4707   3.227   5.417   6.017 -0.4812  0.7429 -0.0350
 1244SOL    HW2 4708   3.142   5.377   6.034  0.1032  0.3371  2.3052
 1244SOL    HW3 4709   3.223   5.502   6.061  0.3264  0.7088  0.1236
 1244SOL    MW4 4710   3.215   5.423   6.025  0.7202  0.5272  0.5058
 1245SOL     OW 4711   5.768   3.647   5.935 -0.2175  0.5081  0.2971
 1245SOL    HW2 4712   5.801   3.704   6.003 -1.0912  1.2770  0.0942
 1245SOL    HW3 4713   5.720   3.705   5.876 -0.0602 -0.2439 -0.5954
 1245SOL    MW4 4714   5.766   3.662   5.936  0.7132  0.3263 -0.1876
 1246SOL     OW 4715   1.084   3.542   2.701 -0.0361 -0.5163  0.0707
 1246SOL    HW2 4716   1.018   3.548   2.632 -1.2719 -2.2925  1.0008
 1246SOL    HW3 4717   1.076   3.452   2.733  2.5040 -0.6085  0.5886
 1246SOL    MW4 4718   1.074   3.531   2.696 -0.2146  0.0039  0.4761
 1247SOL     OW 4719   3.089   5.250   4.984 -0.0166 -0.6847  0.0352
 1247SOL    HW2 4720   3.119   5.322   5.038  0.7638 -2.6530  2.4255
 1247SOL    HW3 4721   3.168   5.215   4.943 -0.5864  0.7454 -2.5185
 1247SOL    MW4 4722   3.103   5.255   4.986 -0.1690  0.3226  0.3399
 1248SOL     OW 4723   2.559   0.387   5.255  0.3638 -0.6182 -0.2951
 1248SOL    HW2 4724   2.552   0.483   5.246 -0.4837 -0.2583  3.0667
 1248SOL    HW3 4725   2.479   0.354   5.214  0.4185  0.1374 -1.0441
 1248SOL    MW4 4726   2.547   0.396   5.248  0.0018 -0.0503  0.2112
 1249SOL     OW 4727   1.247   3.085   0.745  0.1580 -0.0723  0.6580
 1249SOL    HW2 4728   1.257   3.004   0.796  1.4551  0.0804  0.6824
 1249SOL    HW3 4729   1.294   3.068   0.663  0.5982  0.7058  0.7362
 1249SOL    MW4 4730   1.255   3.072   0.741  0.2059 -0.5701  0.0336
 1250SOL     OW 4731   4.965   4.225   1.159 -0.2752  0.0626  0.2881
 1250SOL    HW2 4732   4.923   4.269   1.085 -1.9645 -0.9470  0.5843
 1250SOL    HW3 4733   4.988   4.296   1.220 -0.1659  0.7711 -0.5674
 1250SOL    MW4 4734   4.963   4.240   1.158 -0.4798 -0.3778 -0.5563
 1251SOL     OW 4735   2.474   5.981   4.186 -0.1248 -0.7111  0.5002
 1251SOL    HW2 4736   2.470   6.013   4.276 -1.8191 -1.5108  0.7520
 1251SOL    HW3 4737   2.527   5.901   4.192  2.4791  0.8909  0.1883
 1251SOL    MW4 4738   2.480   5.974   4.199 -0.4169 -0.3886  0.5272
 1252SOL     OW 4739   3.994   0.919   3.128 -0.1186  0.4840  0.5894
 1252SOL    HW2 4740   3.955   0.868   3.057  0.1514 -0.1727  0.9103
 1252SOL    HW3 4741   4.048   0.857   3.176  0.7283  1.2160  0.6046
 1252SOL    MW4 4742   3.996   0.904   3.125  0.0154  0.4198 -0.1699
 1253SOL     OW 4743   3.623   2.780   0.467 -0.0359 -0.8482  0.2894
 1253SOL    HW2 4744   3.650   2.707   0.523 -0.5979 -1.1955  0.1155
 1253SOL    HW3 4745   3.528   2.773   0.463  0.0004 -0.8723 -0.7720
 1253SOL    MW4 4746   3.614   2.769   0.474 -0.0580 -0.5303  0.1810
 1254SOL     OW 4747   1.943   4.552   3.576 -0.0044 -0.6028 -0.1084
 1254SOL    HW2 4748   1.951   4.535   3.482 -0.6835 -1.3677 -0.0387
 1254SOL    HW3 4749   2.027   4.524   3.612  0.4360  0.1221 -0.5324
 1254SOL    MW4 4750   1.955   4.546   3.568  0.3535  0.0779  0.1141
 1255SOL     OW 4751   2.820   4.407   3.628  0.1166 -0.7330  0.4157
 1255SOL    HW2 4752   2.788   4.476   3.569  0.2476  0.0333  1.2203
 1255SOL    HW3 4753   2.750   4.342   3.629 -0.9179  0.3508  1.2101
 1255SOL    MW4 4754   2.807   4.408   3.620 -0.2175 -0.0074  0.0723
 1256SOL     OW 4755   4.428   1.222   4.700  0.3979 -0.3015 -0.1048
 1256SOL    HW2 4756   4.381   1.277   4.638  0.3903  1.4866  1.3917
 1256SOL    HW3 4757   4.488   1.171   4.646  0.1928  0.9609 -1.6122
 1256SOL    MW4 4758   4.430   1.223   4.685  0.1941 -0.2335  0.4695
 1257SOL     OW 4759   4.389   0.742   0.901  0.2779 -0.2690 -0.9624
 1257SOL    HW2 4760   4.424   0.810   0.843  0.9792  0.0319 -0.2112
 1257SOL    HW3 4761   4.417   0.769   0.989  1.2286 -1.9087 -0.7182
 1257SOL    MW4 4762   4.397   0.754   0.905  0.3344  0.3591 -0.7803
 1258SOL     OW 4763   2.926   3.138   4.440  1.0063 -0.4390  0.1889
 1258SOL    HW2 4764   2.945   3.096   4.356  1.1199  1.0336 -0.5659
 1258SOL    HW3 4765   3.012   3.166   4.472  0.7329  1.4527 -0.5956
 1258SOL    MW4 4766   2.940   3.136   4.433 -0.0133 -0.2146 -0.3953
 1259SOL     OW 4767   1.828   1.493   4.031  0.2566 -0.3073 -0.0621
 1259SOL    HW2 4768   1.817   1.443   4.112 -0.4078  1.0158  0.7097
 1259SOL    HW3 4769   1.882   1.567   4.056  1.5515 -0.8017 -1.2703
 1259SOL    MW4 4770   1.833   1.496   4.045 -0.6429 -0.7075 -0.1667
 1260SOL     OW 4771   0.341   2.953   2.267  0.0908 -0.3816 -0.5847
 1260SOL    HW2 4772   0.299   2.876   2.305 -1.0618 -0.3610 -1.7537
 1260SOL    HW3 4773   0.279   3.025   2.284  1.3217  0.4034  0.8308
 1260SOL    MW4 4774   0.327   2.952   2.275 -0.4352 -0.3529 -0.6012
 1261SOL     OW 4775   6.045   5.879   0.365  0.0041  0.2785  0.3003
 1261SOL    HW2 4776   6.137   5.881   0.391  0.4185  2.6064 -1.0852
 1261SOL    HW3 4777   6.013   5.968   0.381 -1.9489 -0.3864  0.4503
 1261SOL    MW4 4778   6.053   5.891   0.370 -0.5598 -0.3928  0.2464
 1262SOL     OW 4779   0.578   0.637   1.864  0.2410 -0.0383  0.4764
 1262SOL    HW2 4780   0.642   0.703   1.890 -0.0048  1.5669 -2.5249
 1262SOL    HW3 4781   0.631   0.565   1.829  0.6213  1.6004 -2.7181
 1262SOL    MW4 4782   0.593   0.636   1.863 -0.6943  0.2472 -0.2077
 1263SOL     OW 4783   3.705   2.114   0.864 -0.3403 -0.6285 -0.1482
 1263SOL    HW2 4784   3.689   2.106   0.958  0.1041  1.5328  0.1489
 1263SOL    HW3 4785   3.658   2.040   0.826 -2.1703 -0.4463  1.5915
 1263SOL    MW4 4786   3.697   2.103   0.871 -0.5297  0.0068 -0.5165
 1264SOL     OW 4787   0.218   2.627   4.007 -0.3765  0.1991  0.3668
 1264SOL    HW2 4788   0.294   2.597   3.958 -0.0605  0.7343  0.5151
 1264SOL    HW3 4789   0.143   2.603   3.953 -0.2041 -1.4643  0.7951
 1264SOL    MW4 4790   0.218   2.620   3.994 -0.0323  0.5151  0.3657
 1265SOL     OW 4791   0.915   6.137   4.750 -0.7947 -0.6075  0.4865
 1265SOL    HW2 4792   0.891   6.202   4.816 -2.0445 -1.6003  1.0611
 1265SOL    HW3 4793   0.941   6.060   4.801 -0.1504 -0.8357 -0.1798
 1265SOL    MW4 4794   0.915   6.136   4.766 -0.0158 -0.1671 -0.1287
 1266SOL     OW 4795   4.518   3.891   4.214  0.3612 -0.2221 -0.3338
 1266SOL    HW2 4796   4.471   3.878   4.132 -0.2448  1.0164 -0.2180
 1266SOL    HW3 4797   4.610   3.899   4.188 -0.1322  4.9928 -1.6873
 1266SOL    MW4 4798   4.524   3.891   4.200  0.3764 -0.5441  0.0211
 1267SOL     OW 4799   0.985   4.639   5.285  0.1999 -0.0984  0.1850
 1267SOL    HW2 4800   0.995   4.688   5.204  2.1443 -1.3071 -0.3594
 1267SOL    HW3 4801   1.066   4.589   5.294 -0.2818 -0.5978  2.4780
 1267SOL    MW4 4802   0.997   4.639   5.276  0.1899 -0.6684  0.3285
 1268SOL     OW 4803   1.486   3.321   1.107 -0.4416  0.4323 -0.0776
 1268SOL    HW2 4804   1.461   3.413   1.095 -2.3047 -0.2106 -1.6694
 1268SOL    HW3 4805   1.528   3.297   1.024  0.0240 -0.1659  0.3230
 1268SOL    MW4 4806   1.488   3.330   1.094  0.5095  0.3288  0.1580
 1269SOL     OW 4807   2.215   4.720   2.082 -0.7636 -0.0317 -0.0188
 1269SOL    HW2 4808   2.189   4.809   2.060 -0.0971 -0.1687 -1.4735
 1269SOL    HW3 4809   2.161   4.697   2.158 -0.9673  1.5773  0.3491
 1269SOL    MW4 4810   2.204   4.729   2.089 -0.0194 -0.0925 -0.7508
 1270SOL     OW 4811   2.547   5.363   1.313 -0.0746  0.0529 -0.1807
 1270SOL    HW2 4812   2.641   5.348   1.323 -0.0507  0.0289 -0.4394
 1270SOL    HW3 4813   2.506   5.284   1.350 -0.0567  0.7753  1.4859
 1270SOL    MW4 4814   2.554   5.350   1.319 -0.2902  0.9672 -0.4300
 1271SOL     OW 4815   5.706   5.408   4.636 -0.4565 -0.2684  0.6944
 1271SOL    HW2 4816   5.647   5.396   4.711  0.1024  1.4620  1.4652
 1271SOL    HW3 4817   5.690   5.498   4.607 -0.3403 -0.7659 -1.0163
 1271SOL    MW4 4818   5.696   5.419   4.642 -0.5122 -0.8220 -0.0242
 1272SOL     OW 4819   0.784   2.910   4.216  0.3265 -0.4081 -0.2342
 1272SOL    HW2 4820   0.801   2.983   4.276 -1.0698  0.7273 -1.1403
 1272SOL    HW3 4821   0.761   2.837   4.273  0.1433  0.3224  0.6636
 1272SOL    MW4 4822   0.783   2.910   4.231 -0.3274  0.0192 -0.1086
 1273SOL     OW 4823   3.218   1.033   0.861  0.5511 -0.4538  0.2740
 1273SOL    HW2 4824   3.216   1.111   0.916  0.0629 -0.3974  0.1784
 1273SOL    HW3 4825   3.300   0.989   0.885  0.7335 -0.0181  0.4671
 1273SOL    MW4 4826   3.229   1.037   0.871  0.5118  0.4143 -0.4063
 1274SOL     OW 4827   1.565   3.656   5.218  0.1061  0.0283 -0.3266
 1274SOL    HW2 4828   1.594   3.664   5.127 -0.9362  0.2330 -0.6510
 1274SOL    HW3 4829   1.539   3.745   5.243 -0.9076 -0.2722 -0.2847
 1274SOL    MW4 4830   1.566   3.669   5.210  0.5339 -0.1511  0.1244
 1275SOL     OW 4831   3.976   4.237   3.079 -0.5951  0.1734 -0.8641
 1275SOL    HW2 4832   3.981   4.145   3.054  1.8546 -0.5960  1.9332
 1275SOL    HW3 4833   4.067   4.267   3.078 -0.9859  1.6306  1.3331
 1275SOL    MW4 4834   3.989   4.229   3.076  0.5841  0.9142 -0.4378
 1276SOL     OW 4835   1.408   5.028   3.790  0.3701 -0.1266 -0.0044
 1276SOL    HW2 4836   1.465   5.068   3.725 -0.1044 -0.4067 -0.6073
 1276SOL    HW3 4837   1.391   4.940   3.757  1.1714 -0.7527  1.1646
 1276SOL    MW4 4838   1.413   5.021   3.777  0.7498  0.5782  0.0656
 1277SOL     OW 4839   5.102   4.206   3.703 -0.0225  0.0361  0.0695
 1277SOL    HW2 4840   5.091   4.138   3.770 -1.2881 -0.2675 -0.4134
 1277SOL    HW3 4841   5.138   4.281   3.750  2.0232 -1.1371  0.5090
 1277SOL    MW4 4842   5.105   4.207   3.718 -0.5699 -0.7675  0.6428
 1278SOL     OW 4843   4.239   0.397   3.360  0.6176  0.1949 -0.0066
 1278SOL    HW2 4844   4.243   0.313   3.406 -1.3965 -0.8487 -1.5769
 1278SOL    HW3 4845   4.273   0.379   3.273 -0.6253  0.7709 -0.6384
 1278SOL    MW4 4846   4.244   0.384   3.355  1.5876 -0.3370  0.9846
 1279SOL     OW 4847   1.028   0.724   4.919  0.0626 -0.1374 -0.2897
 1279SOL    HW2 4848   1.044   0.656   4.853 -2.8289 -0.5283 -0.7129
 1279SOL    HW3 4849   0.980   0.792   4.872 -0.7149  0.2706  1.0398
 1279SOL    MW4 4850   1.024   0.724   4.904  0.1876  0.1890 -0.4169
 1280SOL     OW 4851   1.850   5.284   4.046 -0.2074  0.3147 -0.2186
 1280SOL    HW2 4852   1.790   5.357   4.060  0.7439  1.3634 -1.3743
 1280SOL    HW3 4853   1.859   5.278   3.951  1.6695  0.3643 -0.0872
 1280SOL    MW4 4854   1.843   5.293   4.035 -0.3222 -0.0835 -0.3973
 1281SOL     OW 4855   1.080   2.532   5.180 -0.0642 -0.1956 -0.5505
 1281SOL    HW2 4856   1.108   2.520   5.090  0.4537  2.3656 -0.8282
 1281SOL    HW3 4857   1.007   2.595   5.174  0.5371  0.6811  0.8241
 1281SOL    MW4 4858   1.074   2.539   5.168 -0.1722  0.3494 -0.3397
 1282SOL     OW 4859   4.745   3.272   2.547  0.4585 -0.1653  0.5132
 1282SOL    HW2 4860   4.651   3.279   2.531  0.4027 -0.7583  0.5639
 1282SOL    HW3 4861   4.786   3.318   2.474  0.0978  1.8640  1.5222
 1282SOL    MW4 4862   4.738   3.279   2.536 -0.2019  0.0390 -0.1259
 1283SOL     OW 4863   4.378   1.438   5.709 -0.4393 -0.2041 -0.1845
 1283SOL    HW2 4864   4.307   1.492   5.743 -0.1096  0.4016 -0.4448
 1283SOL    HW3 4865   4.445   1.501   5.681 -0.6421 -0.6822 -1.8308
 1283SOL    MW4 4866   4.378   1.453   5.710  0.6947  0.1084  0.2953
 1284SOL     OW 4867   3.588   1.377   6.331  0.2666  0.0870  0.1166
 1284SOL    HW2 4868   3.648   1.344   6.264 -0.3646 -1.8022  0.3998
 1284SOL    HW3 4869   3.575   1.302   6.390  0.3701  1.5133  2.0481
 1284SOL    MW4 4870   3.594   1.362   6.330  0.3934 -0.3773  0.1678
 1285SOL     OW 4871   5.470   2.623   0.615 -0.2238 -0.0465  0.2157
 1285SOL    HW2 4872   5.387   2.587   0.648 -0.0395 -0.7088 -0.0134
 1285SOL    HW3 4873   5.489   2.696   0.673 -0.4819 -0.4867  0.8686
 1285SOL    MW4 4874   5.461   2.628   0.627  0.0903  0.0495  0.6643
 1286SOL     OW 4875   1.116   2.187   4.896 -0.2969 -0.0332  0.4506
 1286SOL    HW2 4876   1.128   2.094   4.880 -1.4730  0.0132 -0.8660
 1286SOL    HW3 4877   1.022   2.202   4.882 -0.3035  1.1740  1.5943
 1286SOL    MW4 4878   1.105   2.177   4.892 -0.1779  0.6184  0.1052
 1287SOL     OW 4879   3.852   2.179   2.751 -0.4475 -0.4110 -0.0369
 1287SOL    HW2 4880   3.827   2.270   2.739 -1.1731 -0.5924  0.0735
 1287SOL    HW3 4881   3.947   2.179   2.741 -0.5546  0.1736 -1.1289
 1287SOL    MW4 4882   3.861   2.191   2.748 -0.5116 -0.6071  0.6203
 1288SOL     OW 4883   4.260   5.843   4.082 -0.0074 -0.0350 -0.3332
 1288SOL    HW2 4884   4.280   5.756   4.116 -1.0536  0.1511  0.8554
 1288SOL    HW3 4885   4.250   5.830   3.988  2.0342 -0.7510 -0.5018
 1288SOL    MW4 4886   4.261   5.830   4.074  0.1727  0.0377  0.0956
 1289SOL     OW 4887   3.862   1.544   1.682 -0.2881  0.0802 -0.2834
 1289SOL    HW2 4888   3.803   1.515   1.751 -1.5107  0.6172 -1.0711
 1289SOL    HW3 4889   3.908   1.619   1.720 -0.3011 -0.1762  0.2484
 1289SOL    MW4 4890   3.860   1.550   1.696 -0.4582  0.3683 -0.4234
 1290SOL     OW 4891   4.742   0.742   4.838  0.5185 -0.4313  0.1270
 1290SOL    HW2 4892   4.729   0.784   4.753  1.3235 -1.0782 -0.3270
 1290SOL    HW3 4893   4.670   0.678   4.844  0.3428 -0.2438  0.0202
 1290SOL    MW4 4894   4.730   0.739   4.827 -0.5429 -0.5034  0.7293
 1291SOL     OW 4895   1.055   3.786   5.631 -0.3510  0.0211  0.7425
 1291SOL    HW2 4896   1.127   3.731   5.600 -0.9418 -0.2392 -0.2219
 1291SOL    HW3 4897   0.995   3.791   5.557  0.4876  3.4218  0.1369
 1291SOL    MW4 4898   1.056   3.780   5.617 -0.5727 -0.0020  0.2430
 1292SOL     OW 4899   1.281   2.902   5.132  0.3215  0.5545 -0.5317
 1292SOL    HW2 4900   1.324   2.948   5.060 -0.8446  0.3616 -1.3884
 1292SOL    HW3 4901   1.318   2.814   5.131  0.0289  0.4317 -1.1682
 1292SOL    MW4 4902   1.292   2.897   5.122 -0.9405 -0.2607 -0.3526
 1293SOL     OW 4903   1.944   3.279   0.931 -0.2855 -0.8066  0.0666
 1293SOL    HW2 4904   1.945   3.190   0.966 -0.3843 -0.2778  1.4686
 1293SOL    HW3 4905   1.967   3.269   0.839  0.8749 -2.1689  0.4734
 1293SOL    MW4 4906   1.947   3.266   0.924 -0.0984 -0.2928 -0.0216
 1294SOL     OW 4907   1.915   1.769   4.576 -0.1771 -0.3881 -0.4114
 1294SOL    HW2 4908   1.901   1.858   4.543  1.0993 -0.2793 -0.7104
 1294SOL    HW3 4909   2.010   1.763   4.588 -0.2910 -1.5808 -0.0038
 1294SOL    MW4 4910   1.925   1.780   4.573 -0.1918  0.4514  0.1231
 1295SOL     OW 4911   2.441   2.900   3.809 -0.4485 -0.1710 -0.0525
 1295SOL    HW2 4912   2.345   2.897   3.817 -0.4777  1.2052  0.4013
 1295SOL    HW3 4913   2.472   2.850   3.885 -0.7807 -1.2801 -0.6142
 1295SOL    MW4 4914   2.432   2.893   3.820  0.6422  0.4587  0.4069
 1296SOL     OW 4915   4.339   0.011   0.168 -0.3013  0.1784 -0.3956
 1296SOL    HW2 4916   4.254   0.041   0.199 -0.0410  1.9428 -1.2946
 1296SOL    HW3 4917   4.318  -0.059   0.106 -0.9165 -1.5971  1.6494
 1296SOL    MW4 4918   4.325   0.006   0.164 -0.4184 -0.4433  0.3589
 1297SOL     OW 4919   6.329   6.096   4.695  0.0131 -0.2607  0.1971
 1297SOL    HW2 4920   6.308   6.056   4.780  0.0987 -0.2919  0.2039
 1297SOL    HW3 4921   6.425   6.098   4.693  0.0769 -2.0166 -0.7039
 1297SOL    MW4 4922   6.339   6.091   4.706  0.0460  0.1205 -0.0741
 1298SOL     OW 4923   4.992   5.974   4.955  0.0977 -0.3447 -0.1602
 1298SOL    HW2 4924   5.051   6.042   4.923 -1.3235  1.1196  0.2608
 1298SOL    HW3 4925   5.029   5.893   4.918  1.5456  0.6634 -1.0759
 1298SOL    MW4 4926   5.005   5.972   4.946 -0.2575 -0.4922 -0.2608
 1299SOL     OW 4927   1.784   4.136   5.549  0.3628 -0.0014  0.1014
 1299SOL    HW2 4928   1.705   4.183   5.575  0.5443  0.6180 -0.4582
 1299SOL    HW3 4929   1.779   4.053   5.597 -0.1630  0.4123  0.7764
 1299SOL    MW4 4930   1.773   4.131   5.559  0.2241  0.0063 -0.0213
 1300SOL     OW 4931   2.976   2.099   5.953 -0.0551 -0.0112 -0.6300
 1300SOL    HW2 4932   3.007   2.102   6.044 -0.4981 -0.6852 -0.4531
 1300SOL    HW3 4933   3.001   2.012   5.922 -2.8014 -1.0586 -0.1046
 1300SOL    MW4 4934   2.984   2.088   5.961  0.3623  0.3227  0.5683
 1301SOL     OW 4935   5.251   5.214   2.640 -0.7964  0.3164 -0.7841
 1301SOL    HW2 4936   5.176   5.193   2.585 -0.4327 -1.1252 -0.7802
 1301SOL    HW3 4937   5.217   5.206   2.730 -0.5045 -1.0237 -0.7686
 1301SOL    MW4 4938   5.237   5.210   2.645  0.1864  0.0416  0.1875
 1302SOL     OW 4939   5.689   6.087   3.485 -0.6833 -0.0659  0.5060
 1302SOL    HW2 4940   5.716   5.995   3.479 -0.8335 -0.2165  1.8141
 1302SOL    HW3 4941   5.604   6.084   3.530 -0.9622  0.6784  0.0449
 1302SOL    MW4 4942   5.681   6.074   3.490 -0.0254  0.3843  0.3370
 1303SOL     OW 4943   0.524   5.539   6.345  0.5449  0.4732 -0.1905
 1303SOL    HW2 4944   0.434   5.562   6.322  0.3467 -0.4556 -0.3917
 1303SOL    HW3 4945   0.576   5.565   6.269  0.3956  0.6425 -0.2367
 1303SOL    MW4 4946   0.519   5.546   6.332  0.0527  0.1809 -0.1728
 1304SOL     OW 4947   5.728   0.609   5.286 -0.0990 -0.6612 -0.0431
 1304SOL    HW2 4948   5.784   0.642   5.216  0.1065  0.7739  0.7453
 1304SOL    HW3 4949   5.651   0.574   5.241  0.3950 -0.5224 -1.0208
 1304SOL    MW4 4950   5.725   0.609   5.271  0.5084  0.7395  0.1248
 1305SOL     OW 4951   3.407   3.997   3.437 -0.1403 -0.3342  0.5800
 1305SOL    HW2 4952   3.368   4.072   3.481 -0.3772 -0.0681 -0.0784
 1305SOL    HW3 4953   3.495   3.990   3.474 -0.4398 -0.2930  1.3050
 1305SOL    MW4 4954   3.414   4.006   3.448 -0.5422  0.6993  0.6441
 1306SOL     OW 4955   0.594   6.388   2.154 -0.3560  0.8943 -0.2253
 1306SOL    HW2 4956   0.608   6.442   2.076 -0.5804  0.8548 -0.2956
 1306SOL    HW3 4957   0.539   6.441   2.211 -1.8188  0.2025 -0.9169
 1306SOL    MW4 4958   0.589   6.402   2.151 -0.3292 -0.6644 -0.0164
 1307SOL     OW 4959   2.891   5.843   1.946  0.1004  0.3401 -0.0768
 1307SOL    HW2 4960   2.862   5.819   2.034  1.4359  0.0859  0.3119
 1307SOL    HW3 4961   2.986   5.849   1.953  0.2763 -0.2413 -1.6444
 1307SOL    MW4 4962   2.900   5.841   1.959  0.3062  0.1339  0.1674
 1308SOL     OW 4963   1.241   3.704   2.981 -0.0135  0.1487  0.2457
 1308SOL    HW2 4964   1.209   3.675   3.066 -0.0916 -0.2076  0.0958
 1308SOL    HW3 4965   1.246   3.799   2.988 -0.3468  0.1440  0.5358
 1308SOL    MW4 4966   1.237   3.713   2.993  0.1807  0.7068  0.9002
 1309SOL     OW 4967   0.933   5.200   4.933 -0.5261  0.5370  1.0129
 1309SOL    HW2 4968   0.917   5.294   4.933 -2.0519  0.4796 -3.0769
 1309SOL    HW3 4969   1.028   5.191   4.925 -0.5101  1.8155 -0.4842
 1309SOL    MW4 4970   0.944   5.211   4.932  0.1784  0.2834 -0.3814
 1310SOL     OW 4971   2.493   0.487   2.404 -0.3936 -0.0079  0.4406
 1310SOL    HW2 4972   2.542   0.566   2.381  0.7197 -0.6811  0.4361
 1310SOL    HW3 4973   2.464   0.503   2.494  2.5314 -0.8326  1.6456
 1310SOL    MW4 4974   2.496   0.500   2.413 -0.2551  1.1654 -0.1496
 1311SOL     OW 4975   3.374   5.138   2.804 -0.3327 -0.3861  0.4999
 1311SOL    HW2 4976   3.321   5.098   2.873  1.0061  1.9536  3.0711
 1311SOL    HW3 4977   3.334   5.107   2.723 -5.5794  1.0039  2.1260
 1311SOL    MW4 4978   3.362   5.129   2.803  0.4054 -0.9553  0.1858
 1312SOL     OW 4979   1.488   0.317   1.393  0.3440 -0.0794 -0.7662
 1312SOL    HW2 4980   1.557   0.348   1.452  1.3583 -2.2344 -0.6977
 1312SOL    HW3 4981   1.474   0.226   1.420 -2.8740  0.3873 -0.5281
 1312SOL    MW4 4982   1.495   0.309   1.405  0.2646  0.4310  1.0567
 1313SOL     OW 4983   0.613   2.541   4.449  0.0733 -0.5978 -0.4488
 1313SOL    HW2 4984   0.671   2.615   4.433  0.8733 -0.9648  0.6115
 1313SOL    HW3 4985   0.551   2.573   4.514 -0.3793 -0.4723 -0.9387
 1313SOL    MW4 4986   0.613   2.555   4.455  0.5985 -0.2265  0.1575
 1314SOL     OW 4987   3.698   1.489   1.937  0.0884 -0.3112  0.0945
 1314SOL    HW2 4988   3.655   1.407   1.964 -0.9784 -0.5478 -2.0518
 1314SOL    HW3 4989   3.630   1.555   1.945  0.3959  0.0096  0.0602
 1314SOL    MW4 4990   3.683   1.487   1.941 -0.2178 -0.6971  0.1393
 1315SOL     OW 4991   3.560   6.378   6.401  0.1139 -0.0045 -0.2705
 1315SOL    HW2 4992   3.605   6.446   6.450  0.3513  0.9940 -1.7923
 1315SOL    HW3 4993   3.491   6.424   6.353  0.6136 -0.7156 -1.7409
 1315SOL    MW4 4994   3.557   6.393   6.401  0.2100 -0.0776 -0.1748
 1316SOL     OW 4995   0.958   2.783   1.173 -0.4488  0.2472  0.1045
 1316SOL    HW2 4996   0.927   2.765   1.084  0.3020 -1.5106  0.1401
 1316SOL    HW3 4997   1.041   2.830   1.161  0.1532 -0.8364 -0.2036
 1316SOL    MW4 4998   0.965   2.787   1.160  0.3264 -0.1989  0.8936
 1317SOL     OW 4999   5.273   2.514   5.479 -0.5767 -0.6150 -0.7705
 1317SOL    HW2 5000   5.327   2.532   5.557 -1.5083 -0.1188 -0.2189
 1317SOL    HW3 5001   5.337   2.495   5.410  0.3149  0.1395 -0.1877
 1317SOL    MW4 5002   5.289   2.514   5.480 -0.3556  0.3072 -0.0405
 1318SOL     OW 5003   3.888   0.207   1.798  0.3261  0.0639  0.0392
 1318SOL    HW2 5004   3.897   0.245   1.711 -0.8214 -2.4484 -1.2793
 1318SOL    HW3 5005   3.801   0.234   1.828  0.4552  0.3771  0.1396
 1318SOL    MW4 5006   3.878   0.216   1.791 -0.4068  0.0643 -0.7221
 1319SOL     OW 5007   0.896   3.644   5.820 -0.5160  0.0781 -0.3278
 1319SOL    HW2 5008   0.954   3.696   5.765  0.0170 -0.4919 -0.3201
 1319SOL    HW3 5009   0.813   3.693   5.821 -0.1181  0.7696 -0.5412
 1319SOL    MW4 5010   0.892   3.657   5.813 -0.9275 -0.0883  0.0944
 1320SOL     OW 5011   1.727   4.810   5.752  0.2882  0.1219 -0.3441
 1320SOL    HW2 5012   1.722   4.833   5.845 -1.2400 -0.1988 -0.3290
 1320SOL    HW3 5013   1.643   4.769   5.732  0.9358 -0.6459 -1.6601
 1320SOL    MW4 5014   1.715   4.808   5.762  0.2643  0.0601 -0.1370
 1321SOL     OW 5015   1.931   3.402   4.666  0.0946 -0.0459 -0.1503
 1321SOL    HW2 5016   1.911   3.446   4.584 -0.3760 -0.1495 -0.0966
 1321SOL    HW3 5017   1.893   3.314   4.656 -1.6184  0.5277  0.8635
 1321SOL    MW4 5018   1.923   3.396   4.654  0.6767 -0.1255  0.2044
 1322SOL     OW 5019   6.032   0.797   0.400 -0.1937 -0.4417 -0.3265
 1322SOL    HW2 5020   6.011   0.890   0.391  0.1901 -0.1884  1.0920
 1322SOL    HW3 5021   6.059   0.769   0.313 -1.5118  0.4635 -1.0569
 1322SOL    MW4 5022   6.033   0.805   0.387  0.0140  0.3793  0.0437
 1323SOL     OW 5023   4.543   0.916   0.749 -0.6053 -0.3365  0.4201
 1323SOL    HW2 5024   4.574   0.917   0.658 -0.4733 -2.6006  0.3807
 1323SOL    HW3 5025   4.621   0.933   0.801  0.1293 -2.6621  0.1886
 1323SOL    MW4 5026   4.557   0.918   0.744 -0.1112 -0.1636  0.3005
 1324SOL     OW 5027   5.043   5.817   0.765  0.6578 -0.1428 -0.4182
 1324SOL    HW2 5028   5.098   5.886   0.802 -0.5976  0.2329  0.8116
 1324SOL    HW3 5029   5.058   5.824   0.671  0.0540  2.2832 -0.4037
 1324SOL    MW4 5030   5.053   5.827   0.757  0.0001 -0.1842 -0.1182
 1325SOL     OW 5031   4.147   4.467   2.986  0.2396  0.0825  0.0082
 1325SOL    HW2 5032   4.190   4.382   2.986 -0.8802 -0.4973 -0.1052
 1325SOL    HW3 5033   4.218   4.530   3.001  1.0253 -0.8888  0.4462
 1325SOL    MW4 5034   4.162   4.464   2.988  0.2440 -0.2622 -0.1930
 1326SOL     OW 5035   5.671   3.421   6.080  0.1284 -0.4152  0.0251
 1326SOL    HW2 5036   5.697   3.492   6.021 -0.5134 -0.0464  0.1687
 1326SOL    HW3 5037   5.676   3.342   6.027 -1.3431  0.0151 -0.8165
 1326SOL    MW4 5038   5.675   3.420   6.065 -0.1042 -0.2402 -0.0362
 1327SOL     OW 5039   5.399   3.485   0.516  0.5831  0.3348 -0.3041
 1327SOL    HW2 5040   5.400   3.458   0.424  1.0339  0.1884 -0.2567
 1327SOL    HW3 5041   5.457   3.561   0.519 -0.5293  1.2160 -0.4017
 1327SOL    MW4 5042   5.407   3.492   0.504 -0.7289  0.2309 -0.9906
 1328SOL     OW 5043   3.933   4.181   6.312  0.4663 -0.0521 -0.1706
 1328SOL    HW2 5044   3.959   4.144   6.397  1.7494 -0.6920 -0.8082
 1328SOL    HW3 5045   3.946   4.109   6.250  0.3344  0.6506 -1.0267
 1328SOL    MW4 5046   3.938   4.166   6.315  0.5155 -0.0872  0.3295
 1329SOL     OW 5047   0.292   4.835   2.390 -0.0512  0.2173 -0.0067
 1329SOL    HW2 5048   0.231   4.810   2.321 -0.7716 -0.8778  0.9947
 1329SOL    HW3 5049   0.375   4.851   2.344 -0.5667 -0.2780 -1.1393
 1329SOL    MW4 5050   0.295   4.834   2.375  0.0699 -0.3928  0.2615
 1330SOL     OW 5051   3.026   0.710   2.114 -0.2403 -0.3589  1.0700
 1330SOL    HW2 5052   3.000   0.800   2.132 -0.6754 -0.3054  0.2232
 1330SOL    HW3 5053   2.958   0.656   2.155  0.4362 -0.3391  2.2579
 1330SOL    MW4 5054   3.014   0.714   2.121  0.6557 -0.5016  0.2046
 1331SOL     OW 5055   1.406   4.607   3.964 -0.0845  0.5273 -0.2631
 1331SOL    HW2 5056   1.364   4.533   4.006  1.1378  0.5731  1.0734
 1331SOL    HW3 5057   1.487   4.573   3.928 -1.0399  0.5019 -2.6180
 1331SOL    MW4 5058   1.411   4.593   3.965 -0.0265 -0.0662  0.1023
 1332SOL     OW 5059   0.479   5.609   3.091  0.0152 -0.2545 -0.0479
 1332SOL    HW2 5060   0.458   5.629   3.183 -0.6826 -1.1914  0.0116
 1332SOL    HW3 5061   0.402   5.639   3.042 -1.0669 -2.6737  0.0450
 1332SOL    MW4 5062   0.466   5.616   3.097 -0.2702  0.0616  0.3690
 1333SOL     OW 5063   6.074   5.791   3.802  0.0222 -0.3242 -0.6453
 1333SOL    HW2 5064   6.161   5.778   3.841 -0.7092 -2.6536  0.3363
 1333SOL    HW3 5065   6.067   5.725   3.734 -1.6676 -1.4754  0.5647
 1333SOL    MW4 5066   6.085   5.781   3.798 -0.8952 -0.0949  0.0910
 1334SOL     OW 5067   1.513   3.589   1.020 -0.0216  0.8027 -0.0509
 1334SOL    HW2 5068   1.458   3.651   0.973 -0.3169  1.7660  1.5177
 1334SOL    HW3 5069   1.573   3.556   0.953 -0.4505  2.0772 -1.1180
 1334SOL    MW4 5070   1.514   3.593   1.005 -0.3640  0.0955 -0.5955
 1335SOL     OW 5071   5.973   0.431   1.654  0.4152  0.0336  0.1570
 1335SOL    HW2 5072   5.916   0.493   1.701 -1.1744  0.0240 -1.6138
 1335SOL    HW3 5073   5.997   0.366   1.720  2.5048  2.6451  2.2088
 1335SOL    MW4 5074   5.968   0.430   1.669  1.0896 -0.1842 -0.0431
 1336SOL     OW 5075   5.160   2.350   4.829  0.2115  0.6243 -0.5097
 1336SOL    HW2 5076   5.208   2.378   4.907 -1.7749  0.2518  0.9294
 1336SOL    HW3 5077   5.219   2.288   4.786  1.1563  0.3954  1.0245
 1336SOL    MW4 5078   5.174   2.345   4.834 -0.3415 -0.0365  0.1263
 1337SOL     OW 5079   2.038   1.519   6.253  0.1939 -0.6431  0.6021
 1337SOL    HW2 5080   2.107   1.582   6.272 -1.6536  1.3698  1.1426
 1337SOL    HW3 5081   2.045   1.502   6.159 -0.5969  2.2180 -0.0630
 1337SOL    MW4 5082   2.048   1.525   6.243  0.4364 -0.2922  0.6119
 1338SOL     OW 5083   1.210   6.122   6.190 -0.1533  0.7198  0.1091
 1338SOL    HW2 5084   1.275   6.131   6.121  0.1992 -1.1451  0.1412
 1338SOL    HW3 5085   1.160   6.044   6.166 -1.2298  1.0930  1.0174
 1338SOL    MW4 5086   1.212   6.113   6.178 -0.2573  0.1379  0.4104
 1339SOL     OW 5087   0.570   0.583   3.527  0.6731 -0.6634 -0.2458
 1339SOL    HW2 5088   0.508   0.651   3.554 -0.2045 -0.7401 -1.9240
 1339SOL    HW3 5089   0.596   0.540   3.609 -2.2489 -1.2724  0.4626
 1339SOL    MW4 5090   0.565   0.586   3.541 -0.3277  0.3631  0.1266
 1340SOL     OW 5091   3.444   1.191   5.931  0.8876 -0.6341 -0.2171
 1340SOL    HW2 5092   3.417   1.245   5.857 -0.3857 -0.4007  0.3845
 1340SOL    HW3 5093   3.508   1.130   5.895  2.1637  1.0644 -0.9839
 1340SOL    MW4 5094   3.449   1.190   5.917 -0.1721 -0.0753  0.3428
 1341SOL     OW 5095   5.804   2.361   6.289 -0.7770 -0.6448 -0.0621
 1341SOL    HW2 5096   5.896   2.359   6.313 -0.8248  1.0358  0.3878
 1341SOL    HW3 5097   5.798   2.306   6.211  0.6959 -0.3611 -0.4050
 1341SOL    MW4 5098   5.815   2.353   6.282  0.0629 -0.3515 -0.1345
 1342SOL     OW 5099   0.165   4.274   0.692 -0.8152  0.1384 -0.2003
 1342SOL    HW2 5100   0.201   4.359   0.718  1.5629 -0.5334 -0.9850
 1342SOL    HW3 5101   0.073   4.291   0.677 -0.7045  2.2639  0.9930
 1342SOL    MW4 5102   0.158   4.287   0.694  0.0283  0.0418 -0.2922
 1343SOL     OW 5103   3.800   0.223   2.384  0.2596  0.0200  0.6691
 1343SOL    HW2 5104   3.862   0.276   2.434  1.3687  2.0737 -2.5511
 1343SOL    HW3 5105   3.850   0.193   2.308 -2.4259  1.2016 -1.7440
 1343SOL    MW4 5106   3.815   0.226   2.380  0.1878  0.2236 -0.1602
 1344SOL     OW 5107   3.467   3.260   4.893 -0.8677 -0.1338  0.3232
 1344SOL    HW2 5108   3.561   3.250   4.907 -0.7160  0.8529  0.0799
 1344SOL    HW3 5109   3.442   3.183   4.841 -0.0813 -0.1128 -0.1082
 1344SOL    MW4 5110   3.476   3.249   4.888 -0.6096  0.3292  0.4260
 1345SOL     OW 5111   2.858   3.137   3.880 -0.4566  0.4462 -0.0361
 1345SOL    HW2 5112   2.768   3.163   3.862 -0.4296  0.2044 -0.5396
 1345SOL    HW3 5113   2.858   3.042   3.867 -0.5076  0.2004  1.5453
 1345SOL    MW4 5114   2.846   3.128   3.876 -0.2305 -0.5262 -0.6316
 1346SOL     OW 5115   3.340   5.510   1.736 -0.6311  0.3063 -0.1295
 1346SOL    HW2 5116   3.289   5.538   1.660 -0.6507 -1.5930 -0.8624
 1346SOL    HW3 5117   3.336   5.415   1.734  1.9970  0.1101  0.4456
 1346SOL    MW4 5118   3.332   5.501   1.726 -0.1029  0.2835 -0.4066
 1347SOL     OW 5119   1.872   1.186   0.712  0.5610  0.2284  0.2809
 1347SOL    HW2 5120   1.955   1.218   0.748  0.7769 -1.0917  1.0307
 1347SOL    HW3 5121   1.833   1.262   0.670  2.2891  0.8185 -0.3478
 1347SOL    MW4 5122   1.878   1.200   0.711 -0.3705  0.0738 -0.1586
 1348SOL     OW 5123   2.650   3.433   5.047 -0.2611 -0.2970 -0.4175
 1348SOL    HW2 5124   2.672   3.408   5.137  0.3073  0.2850 -0.3897
 1348SOL    HW3 5125   2.556   3.453   5.050 -0.3952 -0.9215 -0.1079
 1348SOL    MW4 5126   2.640   3.432   5.060 -0.4329 -0.4058  0.0304
 1349SOL     OW 5127   1.037   2.962   5.594 -0.2188  0.2095 -0.0764
 1349SOL    HW2 5128   1.003   2.963   5.505  0.8113  0.1029 -0.4930
 1349SOL    HW3 5129   0.970   2.917   5.645  0.0493 -1.5541 -1.1848
 1349SOL    MW4 5130   1.024   2.957   5.589  0.4280 -0.1850 -0.4431
 1350SOL     OW 5131   3.674   2.956   4.122 -0.3801  0.2810  0.0706
 1350SOL    HW2 5132   3.733   2.950   4.047 -1.4414 -2.0512 -0.6857
 1350SOL    HW3 5133   3.699   2.883   4.178  0.5779  2.1368  2.2318
 1350SOL    MW4 5134   3.685   2.946   4.120  0.1169  0.0092  0.8108
 1351SOL     OW 5135   0.835   5.709   0.440  0.1866 -0.2437 -0.5105
 1351SOL    HW2 5136   0.877   5.725   0.356 -0.9567  0.5776 -0.9582
 1351SOL    HW3 5137   0.747   5.678   0.417  0.2493 -1.1745  0.3934
 1351SOL    MW4 5138   0.829   5.707   0.426  0.2971  0.3019  0.6521
 1352SOL     OW 5139   4.441   5.480   2.360 -0.8666 -0.0440  0.4704
 1352SOL    HW2 5140   4.438   5.560   2.411  0.2505 -0.0269  0.5296
 1352SOL    HW3 5141   4.357   5.478   2.314 -1.1665  0.8273  0.9548
 1352SOL    MW4 5142   4.429   5.490   2.361  0.2345  0.3148  0.3916
 1353SOL     OW 5143   4.195   4.227   2.720  0.4241 -0.5209  0.6973
 1353SOL    HW2 5144   4.100   4.236   2.715  0.3226 -1.7380 -0.1520
 1353SOL    HW3 5145   4.212   4.183   2.803  0.0534 -2.1545 -0.0596
 1353SOL    MW4 5146   4.185   4.223   2.730  0.6955  0.5224 -0.0625
 1354SOL     OW 5147   4.633   0.861   5.497 -0.1649 -0.1237  0.7585
 1354SOL    HW2 5148   4.560   0.803   5.519  1.0023 -2.4648 -1.1482
 1354SOL    HW3 5149   4.608   0.899   5.413 -0.0068  0.5737  1.0244
 1354SOL    MW4 5150   4.620   0.858   5.489  0.4962  0.1440  0.3419
 1355SOL     OW 5151   0.924   3.872   4.891 -0.3829  0.2951 -0.0209
 1355SOL    HW2 5152   0.966   3.865   4.976 -0.7034  0.4696  0.1566
 1355SOL    HW3 5153   0.996   3.882   4.829 -0.1151 -0.4838  0.1558
 1355SOL    MW4 5154   0.939   3.872   4.894  0.0247  0.0765  0.5072
 1356SOL     OW 5155   5.402   6.226   0.108 -0.1652 -0.3642 -0.0273
 1356SOL    HW2 5156   5.378   6.134   0.108  0.2296 -0.4702 -0.1243
 1356SOL    HW3 5157   5.329   6.270   0.150  0.5266 -0.9659  1.9215
 1356SOL    MW4 5158   5.389   6.220   0.114  0.7261  0.2571  0.0525
 1357SOL     OW 5159   5.518   4.125   1.035  0.4816  0.3260  0.6012
 1357SOL    HW2 5160   5.456   4.085   0.974  2.9843 -0.6630 -1.4537
 1357SOL    HW3 5161   5.521   4.064   1.109  0.9050 -0.9943 -0.4646
 1357SOL    MW4 5162   5.510   4.112   1.037  0.2928 -0.4476 -0.3091
 1358SOL     OW 5163   0.526   4.142   3.999  0.3762  0.0117 -0.1739
 1358SOL    HW2 5164   0.606   4.176   4.040  1.2664 -1.5258 -0.5674
 1358SOL    HW3 5165   0.557   4.086   3.928 -1.0994  2.0906 -2.6641
 1358SOL    MW4 5166   0.540   4.139   3.995 -0.5423  0.0492 -0.7785
 1359SOL     OW 5167   2.017   1.646   1.805  0.1498  0.2021 -0.5127
 1359SOL    HW2 5168   2.068   1.569   1.780 -0.1111 -0.0556 -0.2463
 1359SOL    HW3 5169   1.982   1.625   1.891 -2.0938 -0.4577 -1.5136
 1359SOL    MW4 5170   2.019   1.633   1.813  0.2257  0.3916 -0.0279
 1360SOL     OW 5171   0.998   1.505   4.272  0.0210 -0.1833 -0.4014
 1360SOL    HW2 5172   1.009   1.443   4.200  0.6183 -0.2621 -0.2519
 1360SOL    HW3 5173   1.062   1.477   4.337  0.9724  1.1556 -0.7217
 1360SOL    MW4 5174   1.008   1.493   4.271  0.3312  0.5108  0.4807
 1361SOL     OW 5175   0.648   2.824   5.389  0.0697  0.1651 -0.0976
 1361SOL    HW2 5176   0.579   2.823   5.322 -0.4562  0.6100  0.4266
 1361SOL    HW3 5177   0.617   2.887   5.455  0.2544 -0.7671  0.9047
 1361SOL    MW4 5178   0.634   2.833   5.389 -0.2545  0.2744  0.1556
 1362SOL     OW 5179   3.779   4.659   3.923  0.1754  0.0467 -0.6032
 1362SOL    HW2 5180   3.806   4.745   3.955 -1.2324  0.8257 -1.3762
 1362SOL    HW3 5181   3.861   4.614   3.902  0.9364  1.8839 -1.8506
 1362SOL    MW4 5182   3.793   4.665   3.924  0.3941  0.1244 -0.0424
 1363SOL     OW 5183   3.498   4.415   4.167  0.5228  0.0295  0.3123
 1363SOL    HW2 5184   3.429   4.435   4.230  2.3964 -0.7726  2.7803
 1363SOL    HW3 5185   3.545   4.497   4.155 -0.3023  0.3685 -0.6898
 1363SOL    MW4 5186   3.495   4.428   4.174 -0.1517 -0.3064  0.8053
 1364SOL     OW 5187   4.175   3.384   6.282  0.3926 -0.1594  0.1600
 1364SOL    HW2 5188   4.104   3.320   6.280  0.2998 -0.0497 -0.0653
 1364SOL    HW3 5189   4.235   3.355   6.213 -0.3739  0.8240 -0.9639
 1364SOL    MW4 5190   4.173   3.372   6.273  0.2202  0.3860 -0.0696
 1365SOL     OW 5191   2.667   1.850   5.766 -0.0298  1.0510 -0.0651
 1365SOL    HW2 5192   2.672   1.866   5.672  1.0215  0.8268 -0.0621
 1365SOL    HW3 5193   2.689   1.934   5.806 -0.7301  1.2145 -0.0083
 1365SOL    MW4 5194   2.671   1.863   5.759 -0.0382 -0.2046 -0.1626
 1366SOL     OW 5195   0.547   0.057   5.583  0.0297  0.1682 -0.2383
 1366SOL    HW2 5196   0.490  -0.012   5.618  0.3395  0.4039  0.7840
 1366SOL    HW3 5197   0.500   0.138   5.601  1.0689  0.4472  1.5234
 1366SOL    MW4 5198   0.533   0.059   5.590 -0.1720  0.1635 -0.1280
 1367SOL     OW 5199   1.390   4.286   1.339  0.2739 -0.0350  0.1295
 1367SOL    HW2 5200   1.321   4.258   1.279 -0.4341  0.8520  0.5152
 1367SOL    HW3 5201   1.468   4.293   1.284 -0.2821  0.4240 -0.6251
 1367SOL    MW4 5202   1.391   4.283   1.324 -0.0100  0.6085 -0.2642
 1368SOL     OW 5203   2.759   2.135   0.713  0.3309  0.6323 -0.0474
 1368SOL    HW2 5204   2.680   2.190   0.711 -2.4534 -2.9151  0.8146
 1368SOL    HW3 5205   2.791   2.144   0.803 -0.0878  0.8741  0.0840
 1368SOL    MW4 5206   2.753   2.144   0.725 -0.3042 -0.4566 -0.3420
 1369SOL     OW 5207   0.499   2.445   3.956  0.1490  0.0591  0.0210
 1369SOL    HW2 5208   0.466   2.372   4.009  0.2805 -0.7828 -1.0333
 1369SOL    HW3 5209   0.579   2.412   3.916 -1.3720 -0.3523 -2.9278
 1369SOL    MW4 5210   0.505   2.431   3.958 -0.6236 -0.0930  0.0612
 1370SOL     OW 5211   1.321   4.778   0.730 -0.0567 -0.2071  0.2446
 1370SOL    HW2 5212   1.292   4.788   0.639 -0.9660  1.4656  0.6716
 1370SOL    HW3 5213   1.329   4.868   0.762 -1.3993 -0.7543  2.3279
 1370SOL    MW4 5214   1.318   4.791   0.722  0.1214  0.3666 -0.4013
 1371SOL     OW 5215   6.097   5.063   4.787  0.0920 -0.5844  0.7133
 1371SOL    HW2 5216   6.036   5.122   4.741 -0.5909 -0.9557  1.1200
 1371SOL    HW3 5217   6.182   5.082   4.749 -0.0805  0.8202  0.9788
 1371SOL    MW4 5218   6.100   5.073   4.776  0.1925  0.1210 -0.0575
 1372SOL     OW 5219   5.357   1.868   3.279  0.0504  0.0545  0.1497
 1372SOL    HW2 5220   5.429   1.894   3.336  0.6268  0.4176 -0.7192
 1372SOL    HW3 5221   5.390   1.792   3.231 -1.2055 -1.6444  1.8328
 1372SOL    MW4 5222   5.371   1.861   3.280 -0.1536 -0.0079  0.1605
 1373SOL     OW 5223   2.902   0.861   0.701 -0.2533  0.1360 -0.0008
 1373SOL    HW2 5224   2.929   0.940   0.749 -0.0414  0.0674 -0.0054
 1373SOL    HW3 5225   2.813   0.845   0.731  0.2186 -0.4929  1.1655
 1373SOL    MW4 5226   2.894   0.869   0.711 -1.0490  0.0331  0.4702
 1374SOL     OW 5227   5.927   2.187   1.877  0.0450  0.2238  0.4886
 1374SOL    HW2 5228   5.984   2.130   1.826 -0.6607  0.6526 -0.8357
 1374SOL    HW3 5229   5.958   2.276   1.857 -1.3829  0.4939 -0.6932
 1374SOL    MW4 5230   5.939   2.191   1.868  0.5426 -0.2297 -0.3940
 1375SOL     OW 5231   6.205   1.374   3.827 -0.0483  0.3184  0.3247
 1375SOL    HW2 5232   6.131   1.359   3.767 -0.6737  0.8810  0.9352
 1375SOL    HW3 5233   6.208   1.469   3.838  2.5835  0.6181 -1.9186
 1375SOL    MW4 5234   6.195   1.385   3.820 -1.3210 -0.1751 -0.8508
 1376SOL     OW 5235   2.392   0.056   1.273 -0.4468  0.5026  0.7905
 1376SOL    HW2 5236   2.327  -0.013   1.261 -1.1748  0.6358  3.3759
 1376SOL    HW3 5237   2.341   0.131   1.304  0.6030  1.5735  0.0208
 1376SOL    MW4 5238   2.377   0.057   1.276  0.4935  0.2171  0.4340
 1377SOL     OW 5239   1.139   6.421   1.201 -0.0746  0.9587  0.2438
 1377SOL    HW2 5240   1.142   6.396   1.294  0.4699  1.7406  0.4456
 1377SOL    HW3 5241   1.231   6.428   1.175 -0.1536 -1.6005 -1.0355
 1377SOL    MW4 5242   1.151   6.418   1.210 -0.3396 -0.3391 -0.3581
 1378SOL     OW 5243   3.800   1.542   0.027  0.2927 -0.0424 -0.1286
 1378SOL    HW2 5244   3.736   1.497  -0.027  1.0054  0.2714 -1.2818
 1378SOL    HW3 5245   3.846   1.473   0.074 -0.8332 -0.2702  0.6788
 1378SOL    MW4 5246   3.798   1.527   0.026  0.2113  0.3325 -0.4281
 1379SOL     OW 5247   4.030   4.591   1.627 -0.3050 -0.0681  0.3333
 1379SOL    HW2 5248   4.109   4.599   1.573 -0.9138 -0.8527 -0.7220
 1379SOL    HW3 5249   4.043   4.654   1.698  1.3148 -0.2661  0.2528
 1379SOL    MW4 5250   4.042   4.601   1.629  0.1707 -0.4211 -0.6593
 1380SOL     OW 5251   3.072   0.370   5.641 -0.0801  0.3397 -0.0500
 1380SOL    HW2 5252   3.138   0.396   5.577  1.1057 -0.7418  0.6951
 1380SOL    HW3 5253   3.070   0.275   5.637  1.2968  0.0797  2.6469
 1380SOL    MW4 5254   3.081   0.361   5.632  0.3869  0.0262 -0.5390
 1381SOL     OW 5255   6.381   2.422   0.628 -0.0391  0.0081 -0.5099
 1381SOL    HW2 5256   6.312   2.421   0.694 -0.9329 -1.9726 -1.4000
 1381SOL    HW3 5257   6.336   2.445   0.547  0.8572  1.3057 -0.6777
 1381SOL    MW4 5258   6.366   2.425   0.626  0.2858 -0.5809 -0.7178
 1382SOL     OW 5259   6.220   2.309   3.486  0.0985 -0.0473  0.0929
 1382SOL    HW2 5260   6.292   2.338   3.431 -0.1808 -0.3574 -0.4462
 1382SOL    HW3 5261   6.141   2.324   3.433 -0.1059 -1.2014  0.0272
 1382SOL    MW4 5262   6.219   2.315   3.471  0.5095  0.0824 -0.3199
 1383SOL     OW 5263   0.934   0.120   5.719 -0.2187 -0.7950  0.4110
 1383SOL    HW2 5264   0.887   0.160   5.645  0.3911 -1.4751 -0.3568
 1383SOL    HW3 5265   1.026   0.137   5.701 -0.1225  0.5417  1.9173
 1383SOL    MW4 5266   0.940   0.128   5.707 -0.4691 -0.1584 -0.2341
 1384SOL     OW 5267   3.917   3.829   4.803  0.3264  0.2288 -0.0838
 1384SOL    HW2 5268   3.960   3.834   4.889  0.2798 -0.7242  0.0057
 1384SOL    HW3 5269   3.824   3.839   4.823  0.3726  0.7875 -0.1182
 1384SOL    MW4 5270   3.910   3.831   4.817  0.0012 -0.4913 -0.1603
 1385SOL     OW 5271   4.562   3.021   0.929  0.3226 -0.8791 -0.5641
 1385SOL    HW2 5272   4.547   3.106   0.888  1.5821 -0.5532 -0.3667
 1385SOL    HW3 5273   4.582   3.040   1.020 -1.9644 -1.5748  0.1681
 1385SOL    MW4 5274   4.563   3.034   0.936  0.3421  0.3669 -0.1514
 1386SOL     OW 5275   3.175   1.391   3.408  0.6898 -0.1159 -0.2823
 1386SOL    HW2 5276   3.215   1.475   3.430 -2.5325  1.0487  1.9405
 1386SOL    HW3 5277   3.146   1.356   3.492 -1.2730 -1.6379 -1.5042
 1386SOL    MW4 5278   3.177   1.398   3.422 -0.2490  0.3505 -0.1149
 1387SOL     OW 5279   6.035   4.096   4.635  0.0339  0.6633 -0.2069
 1387SOL    HW2 5280   6.098   4.151   4.682 -0.4782  1.3903 -0.3654
 1387SOL    HW3 5281   5.956   4.149   4.629  0.1200  0.6510 -1.9972
 1387SOL    MW4 5282   6.033   4.110   4.641 -0.1124  0.2675  0.5500
 1388SOL     OW 5283   5.155   4.296   1.907 -0.3986 -0.2130 -0.3724
 1388SOL    HW2 5284   5.153   4.376   1.855 -1.7078  0.4012  0.5580
 1388SOL    HW3 5285   5.229   4.308   1.967 -0.9998  0.6386  0.2271
 1388SOL    MW4 5286   5.164   4.308   1.908 -0.3606  0.9723 -0.3310
 1389SOL     OW 5287   2.459   2.294   0.391  0.1201  0.4301 -0.5291
 1389SOL    HW2 5288   2.397   2.319   0.322 -3.9343 -2.4658  1.6020
 1389SOL    HW3 5289   2.492   2.209   0.364  1.1215  0.7837 -0.4303
 1389SOL    MW4 5290   2.455   2.286   0.379 -0.0281 -0.0091 -0.4510
 1390SOL     OW 5291   1.332   1.489   4.266 -0.4278 -0.5847  0.4538
 1390SOL    HW2 5292   1.292   1.423   4.323 -0.5732 -1.5487 -0.7154
 1390SOL    HW3 5293   1.349   1.442   4.184  0.5097  0.5510 -0.0244
 1390SOL    MW4 5294   1.329   1.474   4.263  0.6036 -0.4503 -0.3926
 1391SOL     OW 5295   3.012   2.827   2.343  0.0915 -0.6204 -0.1321
 1391SOL    HW2 5296   2.982   2.783   2.422 -0.0807 -0.1448  0.0656
 1391SOL    HW3 5297   3.058   2.758   2.294 -0.3378 -1.0662  0.0870
 1391SOL    MW4 5298   3.014   2.812   2.347 -0.0292  0.0530 -0.0221
 1392SOL     OW 5299   3.438   3.578   3.782 -0.2154 -0.2719 -0.6531
 1392SOL    HW2 5300   3.425   3.673   3.795 -0.2887 -0.3135 -0.4088
 1392SOL    HW3 5301   3.392   3.538   3.856 -0.0445 -0.4924 -0.6658
 1392SOL    MW4 5302   3.430   3.586   3.794  0.6833  0.2443  0.4624
 1393SOL     OW 5303   3.575   0.981   4.518  0.0429  0.3285 -0.3559
 1393SOL    HW2 5304   3.651   1.039   4.524  1.0590 -0.8351 -1.3804
 1393SOL    HW3 5305   3.586   0.920   4.591  1.4723 -1.3496 -1.8882
 1393SOL    MW4 5306   3.587   0.981   4.529 -0.8673 -0.0648  0.4025
 1394SOL     OW 5307   0.974   4.550   3.152  0.1528 -0.2550  0.1668
 1394SOL    HW2 5308   0.900   4.604   3.125  0.5496  0.6932  0.8868
 1394SOL    HW3 5309   1.051   4.599   3.123  0.5121 -0.5673  0.5727
 1394SOL    MW4 5310   0.974   4.564   3.145 -0.5120 -0.0431 -0.0673
 1395SOL     OW 5311   4.642   1.349   0.226  0.6326 -1.0431  0.1237
 1395SOL    HW2 5312   4.642   1.253   0.233  1.7072 -1.0104  0.8662
 1395SOL    HW3 5313   4.549   1.372   0.220  0.2544 -2.0528  1.3830
 1395SOL    MW4 5314   4.629   1.339   0.226  0.3936 -0.1972  0.1849
 1396SOL     OW 5315   5.302   6.044   4.172  0.2398 -0.1247  0.4607
 1396SOL    HW2 5316   5.256   6.121   4.139 -0.0575 -0.3103  0.4391
 1396SOL    HW3 5317   5.387   6.077   4.201 -0.2780  0.4013  1.4163
 1396SOL    MW4 5318   5.307   6.058   4.172  0.1950 -0.5968  0.6147
 1397SOL     OW 5319   0.960   4.100   3.313  0.0016  0.2621 -0.0532
 1397SOL    HW2 5320   1.028   4.032   3.309  0.0801  0.3841 -1.2845
 1397SOL    HW3 5321   1.006   4.179   3.341  0.3171  0.2680 -0.5733
 1397SOL    MW4 5322   0.975   4.102   3.316  0.4864  0.6527  0.3625
 1398SOL     OW 5323   4.099   5.570   2.478  0.4782  0.3662  0.1004
 1398SOL    HW2 5324   4.140   5.655   2.462 -0.0509  1.0363  2.0191
 1398SOL    HW3 5325   4.150   5.532   2.549 -0.5280  0.0067  0.6473
 1398SOL    MW4 5326   4.111   5.576   2.485  0.5090 -0.1496 -0.3855
 1399SOL     OW 5327   4.722   5.579   0.384  0.7207  0.6814  0.2625
 1399SOL    HW2 5328   4.758   5.527   0.312  0.6926  0.4804  0.3921
 1399SOL    HW3 5329   4.631   5.595   0.358  0.3511 -0.4116  0.7977
 1399SOL    MW4 5330   4.714   5.574   0.371  0.4036 -0.0413  0.2781
 1400SOL     OW 5331   5.187   1.549   5.213 -0.2572 -0.4572  0.7480
 1400SOL    HW2 5332   5.232   1.612   5.270 -0.5508  0.1514  0.3279
 1400SOL    HW3 5333   5.113   1.599   5.177  0.1459 -0.7052 -0.4613
 1400SOL    MW4 5334   5.183   1.564   5.216  0.5718 -0.0064  0.5349
 1401SOL     OW 5335   0.361   5.113   3.704 -0.0395 -0.2733 -0.0090
 1401SOL    HW2 5336   0.385   5.189   3.649  0.6744  0.4058  1.2028
 1401SOL    HW3 5337   0.408   5.040   3.664  1.9630  0.5497  0.7166
 1401SOL    MW4 5338   0.371   5.114   3.691 -0.4479  0.0298 -0.4485
 1402SOL     OW 5339   5.729   4.613   0.198 -0.3123 -0.0172  0.5984
 1402SOL    HW2 5340   5.741   4.678   0.267 -1.4202  0.8761 -0.0200
 1402SOL    HW3 5341   5.740   4.662   0.116 -2.3263 -0.3086  0.0964
 1402SOL    MW4 5342   5.732   4.628   0.196 -0.4631  0.7950  0.2969
 1403SOL     OW 5343   1.104   2.121   2.556 -0.3288  0.2765 -0.4496
 1403SOL    HW2 5344   1.119   2.193   2.618  0.6120  0.1947 -0.5601
 1403SOL    HW3 5345   1.070   2.164   2.478  0.7246  0.6878 -0.7018
 1403SOL    MW4 5346   1.102   2.136   2.554 -0.0585 -0.4290 -0.2490
 1404SOL     OW 5347   3.928   5.421   4.279  0.0871 -0.1585 -0.9104
 1404SOL    HW2 5348   3.889   5.356   4.338  1.2742 -2.8368 -2.8522
 1404SOL    HW3 5349   3.976   5.480   4.337 -1.0493 -1.0149  0.9782
 1404SOL    MW4 5350   3.929   5.420   4.295 -0.1382  0.0626 -1.1088
 1405SOL     OW 5351   6.306   5.820   3.933 -0.1583  0.0614 -0.3565
 1405SOL    HW2 5352   6.284   5.781   4.018  1.2009  0.6085  0.2834
 1405SOL    HW3 5353   6.266   5.907   3.935 -0.7374 -0.2004 -0.5759
 1405SOL    MW4 5354   6.298   5.827   3.945  0.4271 -0.1027  0.1617
 1406SOL     OW 5355   5.978   6.038   3.668 -0.0403 -0.6014 -0.2571
 1406SOL    HW2 5356   5.987   6.003   3.579  0.6485 -0.9757 -0.0473
 1406SOL    HW3 5357   5.996   5.962   3.725 -0.9851 -0.4967  0.2050
 1406SOL    MW4 5358   5.982   6.023   3.664 -0.3218  0.2910 -0.2950
 1407SOL     OW 5359   6.404   4.769   5.908 -0.7279  0.0772  0.1254
 1407SOL    HW2 5360   6.420   4.829   5.981  1.7881 -0.0012 -0.2609
 1407SOL    HW3 5361   6.481   4.780   5.852 -1.3632 -1.7583 -1.1720
 1407SOL    MW4 5362   6.417   4.778   5.911 -0.2167  0.4550  0.2497
 1408SOL     OW 5363   3.597   3.070   2.421 -0.9013  0.7492 -0.5245
 1408SOL    HW2 5364   3.559   3.103   2.502 -0.2831  1.2678 -0.4360
 1408SOL    HW3 5365   3.605   3.148   2.365 -2.0356  0.2795 -1.3804
 1408SOL    MW4 5366   3.593   3.085   2.424  0.1054  0.4958 -0.0391
 1409SOL     OW 5367   0.378   1.292   3.546 -0.0644 -0.5135  0.2906
 1409SOL    HW2 5368   0.300   1.329   3.586  0.2216  0.0815  0.3110
 1409SOL    HW3 5369   0.353   1.275   3.455  0.5076  2.1210 -0.4520
 1409SOL    MW4 5370   0.364   1.295   3.539 -0.5199  0.0969  0.0132
 1410SOL     OW 5371   5.675   3.882   4.009  0.1576 -0.0972  0.1339
 1410SOL    HW2 5372   5.642   3.876   3.919  1.2182 -1.0331 -0.2233
 1410SOL    HW3 5373   5.765   3.912   3.999  0.5142 -0.8925  0.8247
 1410SOL    MW4 5374   5.682   3.885   3.996  0.0738 -0.3221 -0.4277
 1411SOL     OW 5375   3.005   2.978   0.596  0.3095  0.0192  0.4087
 1411SOL    HW2 5376   3.086   3.027   0.611 -0.4990  1.2270  0.9762
 1411SOL    HW3 5377   3.031   2.886   0.602  1.4727  0.3886  1.5649
 1411SOL    MW4 5378   3.019   2.972   0.599 -0.6178  0.0053  0.3643
 1412SOL     OW 5379   0.385   4.411   2.250 -0.1813  0.6216  0.3034
 1412SOL    HW2 5380   0.344   4.442   2.330 -1.0260  1.5458 -0.4631
 1412SOL    HW3 5381   0.470   4.456   2.247 -0.8004  1.7993 -0.0794
 1412SOL    MW4 5382   0.391   4.421   2.260  0.3054 -0.4095  0.0051
 1413SOL     OW 5383   0.979   3.453   4.716 -0.0692 -0.0928 -0.1836
 1413SOL    HW2 5384   1.064   3.425   4.749  0.2423 -0.3489 -1.1985
 1413SOL    HW3 5385   0.916   3.399   4.763  0.4663 -1.7896 -1.3379
 1413SOL    MW4 5386   0.982   3.442   4.727  0.5025  0.2569 -0.6394
 1414SOL     OW 5387   2.264   0.489   3.490  0.1008  0.1889  0.4283
 1414SOL    HW2 5388   2.200   0.449   3.548  0.6030  0.3944  1.1458
 1414SOL    HW3 5389   2.348   0.470   3.531  0.4093  1.0884  0.2409
 1414SOL    MW4 5390   2.267   0.481   3.503 -0.2528  0.2106  0.3816
 1415SOL     OW 5391   0.261   2.888   3.948 -0.0947  0.8064 -0.3242
 1415SOL    HW2 5392   0.237   2.803   3.984  1.1899 -0.3072 -1.9771
 1415SOL    HW3 5393   0.198   2.903   3.878  0.3131  0.7079 -0.7185
 1415SOL    MW4 5394   0.249   2.879   3.944 -0.3934  0.2695 -0.2077
 1416SOL     OW 5395   2.908   5.560   5.567 -0.1660 -0.3935  0.0781
 1416SOL    HW2 5396   2.973   5.507   5.520 -0.3628  0.0660 -0.7222
 1416SOL    HW3 5397   2.825   5.540   5.524 -0.3924 -0.1686  0.4057
 1416SOL    MW4 5398   2.906   5.550   5.555  0.2002 -0.3230 -0.0308
 1417SOL     OW 5399   3.835   3.579   6.051 -0.1984 -0.4559  0.1236
 1417SOL    HW2 5400   3.792   3.493   6.061 -0.7248 -0.0704  1.3391
 1417SOL    HW3 5401   3.763   3.640   6.034  0.2340 -0.3270 -1.3822
 1417SOL    MW4 5402   3.820   3.575   6.050 -0.0933 -0.5502 -0.6376
 1418SOL     OW 5403   0.864   3.846   0.145 -0.4050 -0.1130 -0.1792
 1418SOL    HW2 5404   0.809   3.916   0.110  0.3918  0.9123  0.5773
 1418SOL    HW3 5405   0.953   3.879   0.140 -0.1528 -0.3372  1.7978
 1418SOL    MW4 5406   0.868   3.859   0.140 -0.1465 -0.0108 -0.0079
 1419SOL     OW 5407   5.024   1.262   5.052  0.6201 -0.3203  0.6492
 1419SOL    HW2 5408   5.001   1.227   4.966  0.6397 -1.3114  1.0368
 1419SOL    HW3 5409   5.113   1.296   5.040  0.6536 -0.5177  0.2964
 1419SOL    MW4 5410   5.033   1.262   5.039  0.2486 -0.0571  0.2892
 1420SOL     OW 5411   5.302   3.840   1.991  0.0950  0.4446 -0.3572
 1420SOL    HW2 5412   5.259   3.912   1.943  3.6294  1.3806 -2.5052
 1420SOL    HW3 5413   5.388   3.875   2.013  0.8310 -2.1888  1.2454
 1420SOL    MW4 5414   5.307   3.854   1.987 -0.8199 -0.0702 -0.0195
 1421SOL     OW 5415   4.233   3.721   4.216  0.3641  0.8117  0.7718
 1421SOL    HW2 5416   4.262   3.751   4.130 -1.0287  1.5546  0.5492
 1421SOL    HW3 5417   4.307   3.669   4.248  0.2519 -0.9966 -1.6139
 1421SOL    MW4 5418   4.247   3.718   4.209 -0.3776 -0.5757 -0.6926
 1422SOL     OW 5419   3.670   0.754   3.660 -0.4499 -0.5827 -0.4252
 1422SOL    HW2 5420   3.693   0.824   3.599  2.0134 -2.5266 -1.9096
 1422SOL    HW3 5421   3.754   0.715   3.686 -1.5443 -1.2865  2.5225
 1422SOL    MW4 5422   3.684   0.758   3.656  0.2737 -0.0749  0.1806
 1423SOL     OW 5423   0.706   4.104   3.441 -0.2528  0.5877 -0.2863
 1423SOL    HW2 5424   0.787   4.078   3.397 -0.8043 -2.3574  0.2399
 1423SOL    HW3 5425   0.734   4.132   3.528  0.2623  0.3420 -0.3695
 1423SOL    MW4 5426   0.720   4.104   3.446 -0.1884 -0.3957  0.8279
 1424SOL     OW 5427   1.912   1.934   1.763 -0.3185 -0.1183 -0.1902
 1424SOL    HW2 5428   1.945   1.987   1.835  0.1737  0.2355 -0.6681
 1424SOL    HW3 5429   1.981   1.871   1.746 -1.0278 -1.1373  0.5794
 1424SOL    MW4 5430   1.925   1.933   1.770  0.5232  0.1714 -0.1094
 1425SOL     OW 5431   5.873   2.259   5.703 -0.7994 -0.1846 -0.1484
 1425SOL    HW2 5432   5.920   2.179   5.729 -1.9931 -1.6559 -2.1730
 1425SOL    HW3 5433   5.919   2.289   5.624 -0.5614  0.9584  0.4161
 1425SOL    MW4 5434   5.886   2.252   5.696  0.1052  0.0401  0.9024
 1426SOL     OW 5435   3.602   4.211   2.262 -0.4883 -0.1821 -0.2946
 1426SOL    HW2 5436   3.518   4.234   2.221 -0.8528 -0.8788  0.0310
 1426SOL    HW3 5437   3.666   4.267   2.219 -1.1566  0.5342 -0.3846
 1426SOL    MW4 5438   3.599   4.221   2.251 -0.3440 -0.4420 -0.3873
 1427SOL     OW 5439   1.983   2.502   5.483  0.2121  0.9437  0.8079
 1427SOL    HW2 5440   2.066   2.455   5.491  0.6443  1.5112 -0.1329
 1427SOL    HW3 5441   1.928   2.467   5.553  1.1238  0.3057  1.2181
 1427SOL    MW4 5442   1.987   2.491   5.493 -0.5050  0.4760  0.1665
 1428SOL     OW 5443   5.353   4.312   1.677 -0.7414  0.0671 -0.0849
 1428SOL    HW2 5444   5.395   4.228   1.698  0.3209  0.6619  0.2827
 1428SOL    HW3 5445   5.313   4.340   1.759  1.3347  1.2337  0.6122
 1428SOL    MW4 5446   5.354   4.305   1.690 -0.2744 -0.8822 -0.0974
 1429SOL     OW 5447   1.471   3.705   4.573 -0.1974 -0.0146 -0.4916
 1429SOL    HW2 5448   1.529   3.691   4.498 -0.1385 -2.3394 -0.1070
 1429SOL    HW3 5449   1.427   3.788   4.555  0.9031  0.2257 -2.3463
 1429SOL    MW4 5450   1.473   3.714   4.561 -0.2281  0.1063 -0.8964
 1430SOL     OW 5451   1.114   6.115   3.629  0.2741 -0.0622 -0.5619
 1430SOL    HW2 5452   1.126   6.058   3.553  0.3565 -1.0232  0.1395
 1430SOL    HW3 5453   1.193   6.168   3.633  0.4766 -0.3359 -0.8771
 1430SOL    MW4 5454   1.126   6.114   3.620 -0.4475  0.3416  0.0714
 1431SOL     OW 5455   0.075   5.565   5.812 -0.0433  0.3663  0.3027
 1431SOL    HW2 5456   0.075   5.661   5.819  2.0670  0.4314  0.2040
 1431SOL    HW3 5457   0.074   5.548   5.718 -0.8916  0.2690  0.3261
 1431SOL    MW4 5458   0.075   5.576   5.801 -0.7355  0.9431  0.6493
 1432SOL     OW 5459   4.795   1.885   5.318 -0.1197  0.5086  0.4039
 1432SOL    HW2 5460   4.724   1.844   5.368 -1.4706  1.6846 -0.4807
 1432SOL    HW3 5461   4.847   1.932   5.383  0.2916 -0.9281  1.1582
 1432SOL    MW4 5462   4.792   1.885   5.333  0.3117 -0.1274 -0.1681
 1433SOL     OW 5463   2.016   2.127   4.326 -0.3306 -0.2201 -0.2978
 1433SOL    HW2 5464   1.945   2.063   4.334 -0.7740  0.5002  2.3602
 1433SOL    HW3 5465   1.981   2.207   4.366  1.5277  0.5625 -0.1600
 1433SOL    MW4 5466   2.002   2.129   4.332  0.1509  0.3196  0.6158
 1434SOL     OW 5467   2.691   4.489   2.209  0.2275  0.4291  0.1866
 1434SOL    HW2 5468   2.656   4.437   2.136  1.0632  1.2599 -0.8506
 1434SOL    HW3 5469   2.722   4.570   2.167  2.7590  0.0099  1.1228
 1434SOL    MW4 5470   2.690   4.493   2.194 -0.1718 -0.0898 -0.2068
 1435SOL     OW 5471   5.169   4.439   4.351 -0.1552  0.2539 -0.1659
 1435SOL    HW2 5472   5.075   4.422   4.340 -0.2362  0.3366  0.3878
 1435SOL    HW3 5473   5.190   4.403   4.437  0.8750 -2.1409 -1.3098
 1435SOL    MW4 5474   5.159   4.432   4.361 -0.1503  0.3773  0.5901
 1436SOL     OW 5475   1.443   3.366   6.096  0.7150  0.0991 -0.0446
 1436SOL    HW2 5476   1.496   3.287   6.106 -0.9605 -0.9237  1.2561
 1436SOL    HW3 5477   1.360   3.335   6.058 -0.0997  1.1554  0.7991
 1436SOL    MW4 5478   1.439   3.351   6.093  0.1291 -0.4068  0.1542
 1437SOL     OW 5479   1.063   2.239   3.602 -0.7543  0.0450  0.0481
 1437SOL    HW2 5480   1.055   2.333   3.622  0.5737  0.3560 -0.7685
 1437SOL    HW3 5481   1.043   2.196   3.685 -1.4422  1.0451  0.4291
 1437SOL    MW4 5482   1.059   2.246   3.616 -0.1015  0.0571  0.3871
 1438SOL     OW 5483   5.133   5.173   0.251 -0.6710  0.3151  0.0594
 1438SOL    HW2 5484   5.059   5.179   0.311 -1.2548 -1.2440 -0.4509
 1438SOL    HW3 5485   5.093   5.174   0.164 -0.2644 -2.0346 -0.2034
 1438SOL    MW4 5486   5.118   5.174   0.247  0.1060 -0.3070 -0.6755
 1439SOL     OW 5487   1.678   5.186   3.360 -0.7763 -0.0353  0.3725
 1439SOL    HW2 5488   1.686   5.129   3.284 -0.8005  1.2848 -0.6546
 1439SOL    HW3 5489   1.604   5.243   3.341 -0.0358  1.1260  0.8236
 1439SOL    MW4 5490   1.669   5.186   3.348  0.1633  0.1974 -0.1818
 1440SOL     OW 5491   3.126   6.146   2.130 -0.0135 -0.5237  0.1232
 1440SOL    HW2 5492   3.212   6.148   2.172 -0.4347 -0.9849  1.0482
 1440SOL    HW3 5493   3.069   6.102   2.194 -0.8367 -0.6318 -0.6583
 1440SOL    MW4 5494   3.130   6.140   2.144  0.6471  0.2002 -0.6779
 1441SOL     OW 5495   3.199   2.291   1.501  0.2097 -0.2805 -0.5397
 1441SOL    HW2 5496   3.294   2.301   1.511 -0.0586  0.2874  2.2770
 1441SOL    HW3 5497   3.174   2.360   1.438  1.8982 -2.2584 -3.6538
 1441SOL    MW4 5498   3.208   2.302   1.494  0.1175  0.5341  0.7333
 1442SOL     OW 5499   4.452   5.063   2.366  0.3198  0.2610  0.0576
 1442SOL    HW2 5500   4.523   5.020   2.317  0.2407  0.3979 -0.1825
 1442SOL    HW3 5501   4.383   4.997   2.371 -0.9901  1.2429 -2.8815
 1442SOL    MW4 5502   4.452   5.048   2.360  0.6934 -0.3219 -0.0090
 1443SOL     OW 5503   0.112   1.612   4.588  0.1026  0.0978  0.3857
 1443SOL    HW2 5504   0.060   1.653   4.656 -0.0966  1.0087 -0.2935
 1443SOL    HW3 5505   0.057   1.616   4.510 -0.2913 -2.2844  0.4636
 1443SOL    MW4 5506   0.098   1.618   4.587 -0.3098  0.4780  0.7579
 1444SOL     OW 5507   0.985   0.169   5.295 -0.0936  0.1374 -0.0274
 1444SOL    HW2 5508   0.988   0.204   5.207  0.4114 -1.6474 -0.7735
 1444SOL    HW3 5509   1.069   0.193   5.334 -0.5933  1.5253  0.2380
 1444SOL    MW4 5510   0.996   0.177   5.289  0.0539  0.5516  0.2237
 1445SOL     OW 5511   1.740   6.339   0.890 -0.1713 -0.2737 -0.5879
 1445SOL    HW2 5512   1.654   6.298   0.884  0.5114 -1.5963 -1.8552
 1445SOL    HW3 5513   1.801   6.266   0.892  0.9952  0.6619 -0.9788
 1445SOL    MW4 5514   1.737   6.324   0.890 -0.3207  0.7251 -0.2538
 1446SOL     OW 5515   5.469   1.930   4.554 -0.3785 -0.6804 -0.1413
 1446SOL    HW2 5516   5.488   1.954   4.644 -1.2893  0.8554 -0.3118
 1446SOL    HW3 5517   5.375   1.947   4.544 -0.0317  0.5873 -1.7427
 1446SOL    MW4 5518   5.459   1.936   4.564 -0.7093 -0.0420 -0.7429
 1447SOL     OW 5519   1.505   0.714   1.897  0.1478  0.0120  0.1410
 1447SOL    HW2 5520   1.553   0.788   1.862  0.7277 -0.5379 -0.2434
 1447SOL    HW3 5521   1.482   0.740   1.987  0.0726  0.7696 -0.0912
 1447SOL    MW4 5522   1.508   0.727   1.904  0.1110  0.8922 -0.7801
 1448SOL     OW 5523   3.063   5.322   0.325  0.2171 -0.4982 -0.3023
 1448SOL    HW2 5524   2.983   5.371   0.304 -0.9190 -2.0768  0.1719
 1448SOL    HW3 5525   3.131   5.365   0.274 -1.1834  0.0765 -1.7721
 1448SOL    MW4 5526   3.062   5.334   0.315 -0.4143 -0.1682 -0.3266
 1449SOL     OW 5527   0.878   6.155   4.433  0.0037 -1.0775  0.0176
 1449SOL    HW2 5528   0.961   6.184   4.471 -0.0088 -0.7049 -0.2343
 1449SOL    HW3 5529   0.897   6.070   4.396  0.8810 -0.0370 -2.0829
 1449SOL    MW4 5530   0.891   6.148   4.433  0.1119 -0.5321  0.0184
 1450SOL     OW 5531   2.964   3.126   2.565  0.2526  0.1284  0.2488
 1450SOL    HW2 5532   3.032   3.108   2.500  0.9681  1.3301  0.6310
 1450SOL    HW3 5533   2.886   3.147   2.513  0.1758 -1.1083 -0.1908
 1450SOL    MW4 5534   2.963   3.126   2.549  0.0812  0.3084 -0.0900
 1451SOL     OW 5535   1.384   5.440   4.157 -0.6823 -0.3299  0.2100
 1451SOL    HW2 5536   1.326   5.368   4.133 -0.5344 -0.0532 -1.0464
 1451SOL    HW3 5537   1.326   5.517   4.160 -0.6382 -0.3031  0.4535
 1451SOL    MW4 5538   1.369   5.441   4.154 -0.0706 -0.1334  0.5865
 1452SOL     OW 5539   0.108   5.108   2.234  0.8069  0.3992  0.7574
 1452SOL    HW2 5540   0.065   5.022   2.234 -0.3621  0.8728 -2.2044
 1452SOL    HW3 5541   0.166   5.106   2.310 -0.7326 -2.2035  1.9811
 1452SOL    MW4 5542   0.110   5.096   2.244  0.0847 -0.2329  0.0144
 1453SOL     OW 5543   5.420   3.805   1.603 -0.2089 -0.3967 -0.5682
 1453SOL    HW2 5544   5.339   3.835   1.563 -0.8715  0.1787  1.0972
 1453SOL    HW3 5545   5.403   3.713   1.626 -0.3095 -0.3449 -0.4331
 1453SOL    MW4 5546   5.407   3.797   1.601  0.3677  0.1954  0.4968
 1454SOL     OW 5547   4.784   2.210   3.430 -0.0291 -0.5360  0.2955
 1454SOL    HW2 5548   4.752   2.192   3.342  0.8401 -2.4315  0.3230
 1454SOL    HW3 5549   4.857   2.271   3.416 -0.6630  0.1253 -0.1758
 1454SOL    MW4 5550   4.790   2.216   3.416  0.0684  0.5259 -0.1362
 1455SOL     OW 5551   3.629   6.324   3.738  0.3899  0.3856 -0.1719
 1455SOL    HW2 5552   3.690   6.312   3.811  0.5360 -0.1558 -0.3723
 1455SOL    HW3 5553   3.559   6.379   3.773 -0.5825 -1.4937  1.0163
 1455SOL    MW4 5554   3.628   6.329   3.752 -0.6843 -0.3525  0.5767
 1456SOL     OW 5555   1.589   3.000   5.921  0.0886 -0.7349  0.6921
 1456SOL    HW2 5556   1.600   3.067   5.988  0.1751  0.7076 -0.7054
 1456SOL    HW3 5557   1.674   2.994   5.878 -0.0813 -1.3175  0.4274
 1456SOL    MW4 5558   1.602   3.008   5.924 -0.5663  0.1429 -0.1675
 1457SOL     OW 5559   3.465   2.672   1.928 -0.6228  0.0693  0.5101
 1457SOL    HW2 5560   3.461   2.626   2.011 -0.4823  0.2277  0.6056
 1457SOL    HW3 5561   3.452   2.604   1.862  2.8512 -0.7525  0.4658
 1457SOL    MW4 5562   3.463   2.657   1.930 -0.3739  0.1398 -0.2123
 1458SOL     OW 5563   4.003   4.490   2.246  0.4239  0.2119  0.2781
 1458SOL    HW2 5564   4.006   4.586   2.252  0.9366  0.3148 -1.1503
 1458SOL    HW3 5565   3.924   4.472   2.195  0.2810 -0.1267  0.6216
 1458SOL    MW4 5566   3.993   4.500   2.240 -0.5415 -0.1670  0.1615
 1459SOL     OW 5567   0.800   2.464   3.066  0.7805  0.2490  0.0231
 1459SOL    HW2 5568   0.810   2.559   3.058 -0.7488  0.6404  1.9920
 1459SOL    HW3 5569   0.707   2.449   3.052  1.1105 -1.0764 -0.9020
 1459SOL    MW4 5570   0.789   2.475   3.063 -0.1026 -0.4151 -0.3195
 1460SOL     OW 5571   5.253   0.468   6.094 -0.2206 -0.3865 -0.4676
 1460SOL    HW2 5572   5.221   0.388   6.136  0.0688 -1.6387 -2.4856
 1460SOL    HW3 5573   5.173   0.514   6.067 -0.3854 -0.1510  0.4075
 1460SOL    MW4 5574   5.238   0.464   6.096 -0.2539 -0.1106 -0.3706
 1461SOL     OW 5575   3.785   2.821   3.615 -0.5130 -0.4257  0.7751
 1461SOL    HW2 5576   3.745   2.817   3.702  0.8493 -1.0119  1.4132
 1461SOL    HW3 5577   3.870   2.863   3.630 -1.5458  2.4734 -0.8275
 1461SOL    MW4 5578   3.791   2.826   3.629 -0.4692 -0.5887 -0.0961
 1462SOL     OW 5579   0.113   3.863   0.139  0.5364 -0.1608 -0.1510
 1462SOL    HW2 5580   0.079   3.827   0.057 -1.6750  3.1994 -0.9364
 1462SOL    HW3 5581   0.057   3.827   0.207 -0.5934  0.4821 -0.7155
 1462SOL    MW4 5582   0.101   3.854   0.137  0.0046  0.2509  0.1063
 1463SOL     OW 5583   4.721   2.116   0.818 -0.0199 -0.3769  0.0155
 1463SOL    HW2 5584   4.656   2.054   0.851 -0.5149 -0.5889 -1.3117
 1463SOL    HW3 5585   4.803   2.066   0.816 -0.1258 -0.5611  0.2782
 1463SOL    MW4 5586   4.724   2.101   0.822 -0.5984  0.6845  0.0313
 1464SOL     OW 5587   2.415   3.680   5.994 -0.0238 -0.1986 -0.1900
 1464SOL    HW2 5588   2.493   3.711   5.946  1.3267 -2.2907  0.5174
 1464SOL    HW3 5589   2.349   3.747   5.977  1.7624  1.4181 -1.2494
 1464SOL    MW4 5590   2.417   3.693   5.985 -0.3440  0.5452  0.2961
 1465SOL     OW 5591   1.615   5.823   2.047 -0.0496  0.1163 -0.2188
 1465SOL    HW2 5592   1.675   5.824   1.973 -0.3652 -0.9726 -0.4985
 1465SOL    HW3 5593   1.665   5.860   2.120  1.0781 -1.0822 -0.3642
 1465SOL    MW4 5594   1.629   5.828   2.047 -0.4550 -0.2505  0.2491
 1466SOL     OW 5595   2.082   1.367   0.420  0.0389  0.0423  0.0681
 1466SOL    HW2 5596   2.012   1.401   0.365  0.3989 -0.2944 -0.6086
 1466SOL    HW3 5597   2.106   1.283   0.380  0.0846 -0.3672  0.9252
 1466SOL    MW4 5598   2.076   1.360   0.407  0.5085 -0.4125 -0.0750
 1467SOL     OW 5599   3.607   2.835   3.826  0.2386  0.5543 -0.3219
 1467SOL    HW2 5600   3.532   2.871   3.778 -1.0867  0.7651  1.7857
 1467SOL    HW3 5601   3.615   2.745   3.793 -1.5947  0.1954  0.1016
 1467SOL    MW4 5602   3.598   2.828   3.815  0.4414  0.5925 -0.0785
 1468SOL     OW 5603   1.129   2.056   1.332 -0.5102 -0.5770 -0.4065
 1468SOL    HW2 5604   1.072   2.067   1.255 -1.0443  0.0217  0.0702
 1468SOL    HW3 5605   1.189   2.130   1.327 -1.1740  0.0233  0.2820
 1468SOL    MW4 5606   1.129   2.067   1.321 -0.0608 -0.2788  0.1391
 1469SOL     OW 5607   6.276   1.099   2.548 -0.1154  0.4715 -0.0558
 1469SOL    HW2 5608   6.284   1.129   2.458  0.9983 -1.8090 -0.7962
 1469SOL    HW3 5609   6.270   1.004   2.541  0.0467  0.2348  2.2962
 1469SOL    MW4 5610   6.276   1.091   2.535 -0.0183 -0.1900  0.0716
 1470SOL     OW 5611   6.318   6.325   3.883  0.2817 -0.2430 -0.2886
 1470SOL    HW2 5612   6.289   6.325   3.792 -0.6019 -1.1741 -0.0260
 1470SOL    HW3 5613   6.268   6.254   3.924 -1.0307  1.5889  1.4541
 1470SOL    MW4 5614   6.307   6.315   3.877 -0.3070  0.2852  0.3884
 1471SOL     OW 5615   3.705   2.752   6.360 -0.0159 -0.4263  0.2098
 1471SOL    HW2 5616   3.747   2.717   6.281 -1.0005 -0.2330 -0.4282
 1471SOL    HW3 5617   3.687   2.675   6.414 -0.3690 -0.6932 -0.2815
 1471SOL    MW4 5618   3.708   2.737   6.356  0.0040 -0.1470  0.7467
 1472SOL     OW 5619   1.731   4.299   2.355 -0.0340 -0.1722 -0.1613
 1472SOL    HW2 5620   1.804   4.287   2.294 -0.2645 -0.6113 -0.3521
 1472SOL    HW3 5621   1.772   4.296   2.441  0.4882  1.7139 -0.2907
 1472SOL    MW4 5622   1.746   4.297   2.358  0.3825  0.2016  0.3281
 1473SOL     OW 5623   2.269   3.725   0.258  0.1815 -0.1481  0.1428
 1473SOL    HW2 5624   2.353   3.771   0.256  0.3584 -0.4389  0.7653
 1473SOL    HW3 5625   2.283   3.646   0.206  0.0581  0.1891 -0.4115
 1473SOL    MW4 5626   2.282   3.721   0.251 -0.4236  0.1860 -0.2353
 1474SOL     OW 5627   1.240   3.997   2.989 -0.3898  0.1150 -0.3726
 1474SOL    HW2 5628   1.195   4.074   2.953 -0.5176  0.8549  1.2753
 1474SOL    HW3 5629   1.331   4.025   3.000  0.2307 -0.9292 -2.3998
 1474SOL    MW4 5630   1.246   4.011   2.986  0.4376  0.2399  0.4890
 1475SOL     OW 5631   0.701   3.664   0.303 -0.0747  0.2346 -0.2657
 1475SOL    HW2 5632   0.746   3.722   0.241  1.2471  0.6957  1.0870
 1475SOL    HW3 5633   0.650   3.723   0.359  0.5629  0.0255  0.5432
 1475SOL    MW4 5634   0.700   3.680   0.302  0.4518  0.3136  0.4306
 1476SOL     OW 5635   0.121   5.853   5.402 -0.4975 -0.2600  0.3174
 1476SOL    HW2 5636   0.044   5.805   5.433 -0.9225  0.5950  0.5947
 1476SOL    HW3 5637   0.121   5.840   5.307 -0.9134 -0.3621  0.3304
 1476SOL    MW4 5638   0.111   5.845   5.393  0.3512 -0.6846  0.0054
 1477SOL     OW 5639   3.225   5.164   4.411  0.0616 -0.5551  0.4099
 1477SOL    HW2 5640   3.164   5.177   4.483  1.8181 -2.0937  2.2979
 1477SOL    HW3 5641   3.307   5.137   4.453  0.8065 -2.8577 -2.2097
 1477SOL    MW4 5642   3.228   5.162   4.426 -0.2141 -0.5685  0.7465
 1478SOL     OW 5643   4.972   1.973   2.844 -0.2183  0.0496  0.4196
 1478SOL    HW2 5644   4.883   1.967   2.878 -0.3143 -1.5956 -0.0359
 1478SOL    HW3 5645   4.967   1.937   2.756  0.5767  1.6141 -0.3128
 1478SOL    MW4 5646   4.960   1.968   2.837 -0.0996  0.1480 -0.3028
 1479SOL     OW 5647   4.508   4.674   0.331  0.4482  0.1289 -0.8584
 1479SOL    HW2 5648   4.552   4.590   0.345  0.5158  0.1806 -0.7631
 1479SOL    HW3 5649   4.544   4.706   0.248 -0.1099 -0.2761 -1.2635
 1479SOL    MW4 5650   4.519   4.667   0.322  0.4654 -0.4430 -0.6632
 1480SOL     OW 5651   1.075   6.152   5.371  0.4540 -0.0277  0.0766
 1480SOL    HW2 5652   0.995   6.204   5.378  0.8733  0.4218  1.8076
 1480SOL    HW3 5653   1.047   6.062   5.387  0.1424 -0.0060 -0.3282
 1480SOL    MW4 5654   1.061   6.147   5.374  0.2420 -0.1183 -0.2063
 1481SOL     OW 5655   3.340   2.485   0.277  0.2250 -0.1126  0.1199
 1481SOL    HW2 5656   3.256   2.491   0.323  0.7003  0.0800  0.9776
 1481SOL    HW3 5657   3.323   2.525   0.192 -1.1504 -2.0819 -0.6037
 1481SOL    MW4 5658   3.327   2.491   0.272  0.1333  0.0090 -0.6082
 1482SOL     OW 5659   4.948   6.424   3.105 -0.3574  1.0238 -0.2861
 1482SOL    HW2 5660   4.976   6.509   3.140 -0.0102  0.0948  1.8401
 1482SOL    HW3 5661   5.029   6.385   3.071 -0.3689  1.1809 -0.5015
 1482SOL    MW4 5662   4.962   6.430   3.105 -0.0015  0.0545  0.5688
 1483SOL     OW 5663   3.975   4.867   0.565 -0.3190 -0.5744 -0.1553
 1483SOL    HW2 5664   4.041   4.912   0.512  0.4575 -0.4231  0.9007
 1483SOL    HW3 5665   3.994   4.774   0.553  0.1486 -0.5298  0.2056
 1483SOL    MW4 5666   3.986   4.861   0.557 -0.8025 -0.0293  0.1040
 1484SOL     OW 5667   5.875   1.061   4.793  0.1015 -0.1595 -0.0396
 1484SOL    HW2 5668   5.843   0.975   4.820  1.2148 -0.3749  0.6389
 1484SOL    HW3 5669   5.858   1.065   4.699  1.3038 -1.6850 -0.3426
 1484SOL    MW4 5670   5.868   1.050   4.784  0.2851 -0.4397  0.0505
 1485SOL     OW 5671   0.167   5.584   4.956 -0.1367  0.2648  0.1506
 1485SOL    HW2 5672   0.101   5.577   5.024 -0.5302  2.9253  0.1470
 1485SOL    HW3 5673   0.249   5.558   4.999 -0.2521  2.5250  1.9410
 1485SOL    MW4 5674   0.169   5.580   4.970 -0.1260  0.3447  0.4857
 1486SOL     OW 5675   1.930   1.942   5.350  0.1095  0.3180  0.1332
 1486SOL    HW2 5676   1.895   2.000   5.417 -0.8547  0.0933 -0.1495
 1486SOL    HW3 5677   1.955   2.000   5.278 -2.1233  0.3329 -0.7018
 1486SOL    MW4 5678   1.929   1.957   5.349 -0.2337  0.0494  0.1220
 1487SOL     OW 5679   5.066   3.454   0.179  0.6769  0.5613  0.1955
 1487SOL    HW2 5680   5.129   3.382   0.174  0.2855  0.2238  0.0609
 1487SOL    HW3 5681   5.010   3.433   0.254  0.0718  0.3168 -0.3131
 1487SOL    MW4 5682   5.067   3.442   0.188 -0.1306 -0.1356 -0.4337
 1488SOL     OW 5683   5.833   2.463   2.833 -0.7487 -0.3566 -0.3814
 1488SOL    HW2 5684   5.871   2.379   2.860 -1.3515 -0.5621 -0.1655
 1488SOL    HW3 5685   5.824   2.456   2.738 -1.5996 -0.8776 -0.2724
 1488SOL    MW4 5686   5.837   2.451   2.824 -0.2754  0.4087  0.3875
 1489SOL     OW 5687   1.630   6.314   3.859 -0.1920  0.4559 -0.3627
 1489SOL    HW2 5688   1.580   6.243   3.899  1.0183 -0.6581 -0.7916
 1489SOL    HW3 5689   1.597   6.393   3.902 -0.7464 -0.4651  0.9544
 1489SOL    MW4 5690   1.619   6.315   3.870  0.1471  0.0113  0.3367
 1490SOL     OW 5691   2.862   5.869   4.378 -0.1509 -0.0264 -0.4078
 1490SOL    HW2 5692   2.836   5.955   4.348 -1.4387 -0.1178  0.3737
 1490SOL    HW3 5693   2.793   5.810   4.347  0.4048 -0.6893 -0.4226
 1490SOL    MW4 5694   2.849   5.872   4.370 -0.6210 -0.1515 -0.7751
 1491SOL     OW 5695   2.195   5.929   5.989 -0.1702  0.6579  1.0397
 1491SOL    HW2 5696   2.271   5.872   5.995 -1.4005 -1.1601  0.1356
 1491SOL    HW3 5697   2.120   5.871   5.994 -1.5100  1.8272 -2.2605
 1491SOL    MW4 5698   2.195   5.914   5.990  0.7128 -0.3863  0.2882
 1492SOL     OW 5699   5.944   4.667   4.515 -0.2730  0.7628 -0.1580
 1492SOL    HW2 5700   5.977   4.687   4.603 -0.4529  0.5272 -0.0371
 1492SOL    HW3 5701   5.996   4.592   4.487 -0.8369  0.2675  0.1106
 1492SOL    MW4 5702   5.955   4.660   4.523 -0.4169 -0.0593 -0.6743
 1493SOL     OW 5703   1.527   5.633   3.537  0.2546  0.1383 -0.5223
 1493SOL    HW2 5704   1.596   5.576   3.504  0.9064  0.5253  0.1505
 1493SOL    HW3 5705   1.497   5.592   3.618  2.0403  1.6619  1.0061
 1493SOL    MW4 5706   1.532   5.620   3.543 -0.6689 -0.1612  0.2917
 1494SOL     OW 5707   0.721   2.699   0.122  0.5769 -0.7686 -0.4598
 1494SOL    HW2 5708   0.739   2.768   0.187  1.9061 -0.4919 -1.0951
 1494SOL    HW3 5709   0.643   2.730   0.077  0.9451  0.1624 -0.4924
 1494SOL    MW4 5710   0.713   2.712   0.125  0.5596  0.2415  0.6364
 1495SOL     OW 5711   1.421   2.198   2.047 -0.7817 -0.4052 -0.6432
 1495SOL    HW2 5712   1.406   2.249   2.126 -0.7529 -1.9455  0.3849
 1495SOL    HW3 5713   1.334   2.185   2.009 -0.7850  0.4083 -0.9364
 1495SOL    MW4 5714   1.408   2.203   2.052  0.2218 -0.2552 -0.3824
 1496SOL     OW 5715   6.274   3.044   2.954  0.2430  0.4959  0.2947
 1496SOL    HW2 5716   6.335   3.022   3.024 -0.6736  1.9041  1.6159
 1496SOL    HW3 5717   6.329   3.085   2.887  1.0535 -0.2921  0.4652
 1496SOL    MW4 5718   6.289   3.047   2.954  0.5718  0.1422  0.2819
 1497SOL     OW 5719   3.199   0.819   4.692  0.4029  0.4181  0.3463
 1497SOL    HW2 5720   3.194   0.845   4.600  0.4148 -1.8811 -0.3530
 1497SOL    HW3 5721   3.114   0.842   4.729 -0.1396  0.0226 -0.6283
 1497SOL    MW4 5722   3.187   0.826   4.685 -0.0554  0.4283  0.4383
 1498SOL     OW 5723   3.089   3.483   3.678  1.1688 -0.2623 -0.2473
 1498SOL    HW2 5724   3.062   3.566   3.719  0.5250 -0.2102 -0.7644
 1498SOL    HW3 5725   3.040   3.480   3.596  1.7238 -0.8264 -0.5622
 1498SOL    MW4 5726   3.079   3.494   3.673  0.4498  0.0764  0.0411
 1499SOL     OW 5727   4.704   1.927   2.943 -0.2732  0.7319  0.4605
 1499SOL    HW2 5728   4.744   1.843   2.921  0.4147  1.2756 -0.4129
 1499SOL    HW3 5729   4.679   1.918   3.035 -1.1122 -0.7745  0.1152
 1499SOL    MW4 5730   4.706   1.914   2.952 -0.2217 -0.1419 -0.3582
 1500SOL     OW 5731   5.004   0.612   2.259  0.2062 -0.5508 -0.1406
 1500SOL    HW2 5732   4.973   0.541   2.203  0.1269  0.9508 -2.0866
 1500SOL    HW3 5733   4.925   0.652   2.294  0.1889 -0.4937 -0.2453
 1500SOL    MW4 5734   4.990   0.608   2.256  0.1298 -0.3201 -0.0271
 1501SOL     OW 5735   3.062   5.411   5.386  0.2836  0.1916  0.3823
 1501SOL    HW2 5736   3.012   5.339   5.346  0.5452  0.4068 -0.3521
 1501SOL    HW3 5737   3.138   5.421   5.329  0.4794  0.7554  0.7380
 1501SOL    MW4 5738   3.065   5.403   5.373  0.2648 -0.0697 -0.5963
 1502SOL     OW 5739   2.647   3.017   3.211 -0.6425  0.4989 -0.2263
 1502SOL    HW2 5740   2.563   2.972   3.227 -0.4565  0.5531  1.0109
 1502SOL    HW3 5741   2.689   3.020   3.297 -0.0180  1.7845 -0.5506
 1502SOL    MW4 5742   2.641   3.011   3.225 -0.5222  0.2288 -0.2939
 1503SOL     OW 5743   3.414   2.868   2.879  0.4322  0.4867  0.5519
 1503SOL    HW2 5744   3.410   2.952   2.925  1.1391 -0.1795  1.8658
 1503SOL    HW3 5745   3.338   2.869   2.822  0.5391  2.1188  0.3673
 1503SOL    MW4 5746   3.404   2.879   2.877  0.4566  0.1476 -0.5441
 1504SOL     OW 5747   5.292   4.434   1.051  0.1006 -0.4561  0.1440
 1504SOL    HW2 5748   5.254   4.404   0.968 -2.5506 -0.0861  1.1452
 1504SOL    HW3 5749   5.252   4.519   1.066  0.5941 -0.4805  1.7639
 1504SOL    MW4 5750   5.282   4.441   1.042  0.3660  1.1168 -0.7560
 1505SOL     OW 5751   5.910   1.990   6.142  0.4791 -0.0680 -0.3788
 1505SOL    HW2 5752   5.944   1.914   6.095 -0.8731 -1.1434  0.3183
 1505SOL    HW3 5753   5.842   2.025   6.084  0.5844  0.1689 -0.3617
 1505SOL    MW4 5754   5.905   1.984   6.128 -0.3506  0.3591  0.4420
 1506SOL     OW 5755   4.455   5.155   1.820 -0.0553  0.2215 -0.3326
 1506SOL    HW2 5756   4.474   5.179   1.729  1.2691  0.8339  0.0884
 1506SOL    HW3 5757   4.368   5.192   1.837 -1.0065 -1.2094 -1.7995
 1506SOL    MW4 5758   4.446   5.163   1.810 -0.2943  0.0116  0.5126
 1507SOL     OW 5759   4.796   0.310   3.358  0.0178  0.1798 -0.2191
 1507SOL    HW2 5760   4.760   0.224   3.379 -1.4501  0.7930 -0.0583
 1507SOL    HW3 5761   4.816   0.349   3.443  1.2327 -0.2101 -0.3144
 1507SOL    MW4 5762   4.794   0.304   3.372  0.1021 -0.1232  0.0614
 1508SOL     OW 5763   0.449   2.097   0.676  0.0201 -0.5836 -0.2880
 1508SOL    HW2 5764   0.411   2.183   0.661  1.8901  0.2165 -0.6230
 1508SOL    HW3 5765   0.480   2.099   0.767 -1.4237 -1.5349  0.2667
 1508SOL    MW4 5766   0.448   2.108   0.686 -0.3381 -0.2677  0.0385
 1509SOL     OW 5767   3.991   4.323   3.609 -1.2270 -0.4540 -0.3876
 1509SOL    HW2 5768   3.977   4.363   3.523  0.1092  0.4145 -0.2312
 1509SOL    HW3 5769   4.043   4.387   3.657 -2.6012 -0.5855  1.3627
 1509SOL    MW4 5770   3.996   4.337   3.604  0.2085 -0.2680  0.4554
 1510SOL     OW 5771   5.284   3.555   5.773 -0.0730 -0.0452  0.6968
 1510SOL    HW2 5772   5.227   3.503   5.829 -0.3455 -1.1868 -0.5737
 1510SOL    HW3 5773   5.356   3.496   5.750  0.4436  0.6517  0.4721
 1510SOL    MW4 5774   5.286   3.541   5.777 -0.2579  0.0472 -0.2318
 1511SOL     OW 5775   1.493   3.744   5.950  0.2769 -0.0087  0.4073
 1511SOL    HW2 5776   1.519   3.834   5.931  0.3218  0.0814  0.8697
 1511SOL    HW3 5777   1.442   3.751   6.031 -2.5698  0.0266 -1.2882
 1511SOL    MW4 5778   1.490   3.757   5.958 -0.6192  0.0199 -0.0159
 1512SOL     OW 5779   1.891   5.341   1.799  0.2724  0.2681 -0.2517
 1512SOL    HW2 5780   1.868   5.257   1.760  0.3528 -0.3992  1.0934
 1512SOL    HW3 5781   1.974   5.325   1.845 -1.2441  0.1592  2.7113
 1512SOL    MW4 5782   1.899   5.328   1.800  0.0895  0.1393  0.0517
 1513SOL     OW 5783   3.526   6.320   6.069  0.0964  0.2532 -0.1546
 1513SOL    HW2 5784   3.546   6.400   6.118  1.6920  0.0003 -0.3542
 1513SOL    HW3 5785   3.470   6.349   5.997  0.3825  1.1387 -0.0288
 1513SOL    MW4 5786   3.521   6.334   6.066  0.1536  0.2080  0.1688
 1514SOL     OW 5787   2.747   3.897   5.657  0.3441 -0.0006  0.0077
 1514SOL    HW2 5788   2.720   3.845   5.581  1.9623 -0.2433 -0.4357
 1514SOL    HW3 5789   2.712   3.984   5.641  0.4073 -0.1301 -0.8682
 1514SOL    MW4 5790   2.739   3.901   5.645  0.0649 -0.3089  0.4365
 1515SOL     OW 5791   0.922   0.387   4.761 -0.7982 -0.2767  0.2533
 1515SOL    HW2 5792   0.867   0.418   4.689  0.1111  0.4459 -0.1548
 1515SOL    HW3 5793   0.999   0.349   4.718 -1.7871 -3.0150  0.7470
 1515SOL    MW4 5794   0.925   0.386   4.746 -0.8410 -1.0693 -0.2172
 1516SOL     OW 5795   4.127   3.810   3.811  0.1338 -0.1014 -0.0965
 1516SOL    HW2 5796   4.056   3.751   3.787 -0.7394  0.5759  0.7569
 1516SOL    HW3 5797   4.085   3.878   3.864  1.1995  1.0139 -0.6438
 1516SOL    MW4 5798   4.112   3.811   3.815  0.1992 -0.3614 -0.0526
 1517SOL     OW 5799   1.683   2.877   1.982  0.0602 -0.2381  0.4517
 1517SOL    HW2 5800   1.779   2.884   1.982  0.0101  1.5319 -1.3847
 1517SOL    HW3 5801   1.665   2.786   1.958  1.3681  0.1377 -2.3042
 1517SOL    MW4 5802   1.693   2.866   1.979  0.3139 -0.2253 -0.0004
 1518SOL     OW 5803   5.983   3.947   1.949  0.3418 -0.4645 -0.2579
 1518SOL    HW2 5804   5.982   4.016   2.015 -1.1487 -0.3767 -0.3220
 1518SOL    HW3 5805   5.982   3.866   1.999 -0.5802 -0.3992 -0.1405
 1518SOL    MW4 5806   5.983   3.946   1.964 -0.2827 -0.1188  0.1838
 1519SOL     OW 5807   6.307   3.303   5.135  0.6380 -0.3817  0.2388
 1519SOL    HW2 5808   6.242   3.247   5.178 -1.1295  2.1343  1.0604
 1519SOL    HW3 5809   6.271   3.321   5.049  1.1699 -0.4130  0.0020
 1519SOL    MW4 5810   6.294   3.298   5.130 -0.2882  1.0819  0.3256
 1520SOL     OW 5811   2.090   5.185   0.801 -0.2051 -0.5539 -0.1170
 1520SOL    HW2 5812   2.080   5.261   0.744  0.4909 -0.0912  0.3555
 1520SOL    HW3 5813   2.084   5.221   0.889 -0.0661 -1.0798  0.1099
 1520SOL    MW4 5814   2.088   5.200   0.805  0.2320 -0.4723  0.5385
 1521SOL     OW 5815   3.687   2.397   1.922  0.2345 -0.3211 -0.5651
 1521SOL    HW2 5816   3.754   2.344   1.879 -0.1456 -1.5395  0.2826
 1521SOL    HW3 5817   3.723   2.417   2.008  0.2274  0.5091 -0.7528
 1521SOL    MW4 5818   3.701   2.392   1.927 -0.5082 -0.6364  0.0992
 1522SOL     OW 5819   4.015   1.718   1.819 -0.2946  0.1410 -0.4096
 1522SOL    HW2 5820   4.052   1.641   1.863 -3.7235 -0.1026  2.5094
 1522SOL    HW3 5821   4.083   1.785   1.827  1.6759 -1.7369 -0.4760
 1522SOL    MW4 5822   4.029   1.716   1.826  0.4648  0.3065 -0.1671
 1523SOL     OW 5823   1.023   1.327   3.569  0.3298  0.4690  0.5955
 1523SOL    HW2 5824   1.035   1.386   3.494 -2.1638 -0.4845 -0.6431
 1523SOL    HW3 5825   0.974   1.253   3.534 -0.6734 -0.1630  3.1205
 1523SOL    MW4 5826   1.018   1.325   3.554 -0.4217  0.3684  0.3164
 1524SOL     OW 5827   5.782   2.233   6.025 -0.0713 -0.1240 -0.4156
 1524SOL    HW2 5828   5.855   2.280   5.987 -1.6832  2.3136 -0.6807
 1524SOL    HW3 5829   5.714   2.233   5.957 -1.0550 -0.4911  0.5265
 1524SOL    MW4 5830   5.782   2.239   6.011  0.1526 -0.2234 -0.0031
 1525SOL     OW 5831   6.093   3.435   2.684  0.8995 -0.3032  0.2603
 1525SOL    HW2 5832   6.118   3.410   2.595 -1.4304  3.4093 -1.7239
 1525SOL    HW3 5833   6.137   3.518   2.699 -0.9270  0.5152  1.4031
 1525SOL    MW4 5834   6.102   3.442   2.674  0.0669 -0.5878 -0.1347
 1526SOL     OW 5835   2.272   2.149   6.057  0.4895 -0.0251  0.6095
 1526SOL    HW2 5836   2.255   2.114   5.970 -0.4902 -1.3320  1.2730
 1526SOL    HW3 5837   2.366   2.140   6.069  0.7181  0.7440 -0.5295
 1526SOL    MW4 5838   2.282   2.143   6.047 -0.4205 -0.5151  0.0966
 1527SOL     OW 5839   0.720   4.132   0.645 -0.5357 -0.4607  0.4230
 1527SOL    HW2 5840   0.747   4.051   0.688  1.3270  0.9929  2.1724
 1527SOL    HW3 5841   0.714   4.196   0.716  0.5899  1.5558 -1.1972
 1527SOL    MW4 5842   0.723   4.129   0.660 -0.3368  0.2411 -0.5483
 1528SOL     OW 5843   2.144   6.005   0.498 -0.4610 -0.3027  0.0003
 1528SOL    HW2 5844   2.116   5.918   0.470 -1.3295 -0.0982  0.2059
 1528SOL    HW3 5845   2.141   6.058   0.418 -0.4895 -0.3272 -0.0149
 1528SOL    MW4 5846   2.140   6.000   0.484 -0.5747  0.9509 -0.6117
 1529SOL     OW 5847   3.921   5.089   1.199 -0.0234 -0.0278  0.0728
 1529SOL    HW2 5848   3.891   4.998   1.199 -0.4867  0.1198  0.1288
 1529SOL    HW3 5849   3.853   5.136   1.247  0.5598  0.2399  0.6434
 1529SOL    MW4 5850   3.908   5.083   1.205  0.1067  0.5542 -0.0324
 1530SOL     OW 5851   0.282   5.024   0.204  0.2459 -0.5445  0.7112
 1530SOL    HW2 5852   0.203   5.010   0.153 -0.9727 -0.1236  2.3994
 1530SOL    HW3 5853   0.313   5.111   0.178  0.8516 -1.1751 -0.7905
 1530SOL    MW4 5854   0.276   5.034   0.194 -0.1525  0.2892 -0.4161
 1531SOL     OW 5855   5.997   3.352   4.263  0.0414  0.1979 -0.1422
 1531SOL    HW2 5856   6.013   3.265   4.227  2.0281  0.6794 -0.5770
 1531SOL    HW3 5857   5.902   3.359   4.269 -0.1635 -1.9471 -0.1877
 1531SOL    MW4 5858   5.987   3.341   4.259  0.1836  0.3123  0.4265
 1532SOL     OW 5859   0.763   3.308   4.852 -0.3103 -0.1008  0.3965
 1532SOL    HW2 5860   0.727   3.259   4.779  1.3227  0.8410 -1.1141
 1532SOL    HW3 5861   0.721   3.394   4.847  1.4267  0.7325 -0.8874
 1532SOL    MW4 5862   0.753   3.313   4.842 -0.3448  0.6550 -0.8298
 1533SOL     OW 5863   3.675   1.153   1.668 -0.1298  0.5280 -0.4386
 1533SOL    HW2 5864   3.736   1.160   1.741 -1.4730  0.9785  0.6766
 1533SOL    HW3 5865   3.619   1.231   1.676 -1.4809 -0.3673 -0.8453
 1533SOL    MW4 5866   3.676   1.164   1.678 -0.2723  0.4336 -0.5773
 1534SOL     OW 5867   5.097   5.695   4.235 -0.1435  0.1570 -0.4102
 1534SOL    HW2 5868   5.189   5.675   4.214 -0.3958 -1.1116 -0.4090
 1534SOL    HW3 5869   5.072   5.626   4.297 -0.6664  1.3657  0.7639
 1534SOL    MW4 5870   5.106   5.683   4.241 -0.2631 -0.1865 -0.1344
 1535SOL     OW 5871   2.516   4.367   4.021  0.1269 -0.1156  0.2102
 1535SOL    HW2 5872   2.535   4.437   4.083 -3.9851  0.0497  1.5649
 1535SOL    HW3 5873   2.500   4.411   3.938  1.5666  0.0674  0.0062
 1535SOL    MW4 5874   2.517   4.382   4.019  0.2160  0.5173  0.0869
 1536SOL     OW 5875   4.068   5.681   4.391  0.0688 -0.0143  0.4211
 1536SOL    HW2 5876   4.142   5.646   4.441  0.2545  0.8304  0.7577
 1536SOL    HW3 5877   4.009   5.717   4.458 -0.3709 -0.1719  0.1176
 1536SOL    MW4 5878   4.070   5.681   4.407  0.0491  0.4921  0.2708
 1537SOL     OW 5879   0.057   3.688   4.375  0.0903  0.2936  0.0942
 1537SOL    HW2 5880   0.020   3.760   4.426 -2.3501 -0.7136 -0.0789
 1537SOL    HW3 5881   0.142   3.670   4.415  0.9884  3.4937 -0.1582
 1537SOL    MW4 5882   0.063   3.695   4.387  0.4522 -0.5017  0.2258
 1538SOL     OW 5883   0.958   5.742   1.345 -0.6948  0.1421  0.2534
 1538SOL    HW2 5884   0.969   5.680   1.417 -1.3021 -0.7790 -0.4175
 1538SOL    HW3 5885   0.998   5.698   1.270  0.8055  1.4927  0.2019
 1538SOL    MW4 5886   0.965   5.728   1.345  0.1759 -0.1817  0.4767
 1539SOL     OW 5887   0.722   1.239   4.551 -0.4961 -0.0218 -0.4813
 1539SOL    HW2 5888   0.737   1.153   4.513 -0.2119 -0.2167  0.0642
 1539SOL    HW3 5889   0.633   1.234   4.587 -0.0694 -0.4627  0.5369
 1539SOL    MW4 5890   0.712   1.227   4.551 -0.0846  0.4612  0.1237
 1540SOL     OW 5891   3.437   6.112   2.558 -0.4634 -0.4449  0.3084
 1540SOL    HW2 5892   3.474   6.197   2.585 -1.6667 -0.2642  1.5021
 1540SOL    HW3 5893   3.509   6.050   2.569 -0.0400  0.1540  1.0361
 1540SOL    MW4 5894   3.452   6.115   2.563 -0.1771 -0.0870  0.6718
 1541SOL     OW 5895   3.873   5.945   0.517 -0.3500 -0.2757  0.2386
 1541SOL    HW2 5896   3.870   5.879   0.447 -0.2244  0.6094 -0.6184
 1541SOL    HW3 5897   3.952   5.922   0.567 -1.0941 -1.6271  0.8274
 1541SOL    MW4 5898   3.883   5.933   0.514  0.2154  0.0250  0.0307
 1542SOL     OW 5899   5.094   5.013   4.297  0.3127  0.1179  0.2851
 1542SOL    HW2 5900   5.182   5.046   4.281  0.1330 -0.0474 -1.2120
 1542SOL    HW3 5901   5.073   4.964   4.218 -1.0791  0.0484  0.6815
 1542SOL    MW4 5902   5.103   5.011   4.285 -0.6136  0.0809  0.7471
 1543SOL     OW 5903   1.479   4.682   5.744 -0.3242  0.0212  0.3921
 1543SOL    HW2 5904   1.471   4.661   5.651 -0.1148  1.4762  0.0092
 1543SOL    HW3 5905   1.516   4.604   5.784 -1.9281 -1.2187 -0.4494
 1543SOL    MW4 5906   1.483   4.669   5.737 -0.5526 -0.2223  0.2963
 1544SOL     OW 5907   0.054   4.281   6.385  0.4999 -0.0146 -0.4233
 1544SOL    HW2 5908   0.069   4.215   6.453  0.2978 -0.0778 -0.4406
 1544SOL    HW3 5909   0.106   4.249   6.310  0.3178 -0.2100 -0.4667
 1544SOL    MW4 5910   0.063   4.268   6.384  0.1675 -0.0812  0.7880
 1545SOL     OW 5911   5.032   0.026   0.140 -0.1378 -0.5030 -0.3166
 1545SOL    HW2 5912   5.059  -0.032   0.069  1.4591 -0.7613  0.4472
 1545SOL    HW3 5913   5.115   0.060   0.176 -0.9734  1.3250  0.0188
 1545SOL    MW4 5914   5.047   0.023   0.136 -0.2638  0.2158  0.3294
 1546SOL     OW 5915   1.047   1.443   1.049 -0.5407 -0.3719 -0.2710
 1546SOL    HW2 5916   0.962   1.419   1.086 -0.7029  2.5772  1.6097
 1546SOL    HW3 5917   1.109   1.387   1.095 -1.0644  0.9655  2.2543
 1546SOL    MW4 5918   1.044   1.432   1.060 -0.0105  0.1473 -0.1168
 1547SOL     OW 5919   5.309   3.918   3.125  0.0377  0.0719 -0.5978
 1547SOL    HW2 5920   5.226   3.926   3.173 -1.3808 -2.3558 -2.4114
 1547SOL    HW3 5921   5.377   3.929   3.192 -1.7682  0.3686  1.2766
 1547SOL    MW4 5922   5.307   3.920   3.141 -0.0621  0.1658 -0.1356
 1548SOL     OW 5923   4.360   3.990   4.404  0.0902  0.2151 -0.5873
 1548SOL    HW2 5924   4.411   3.938   4.342 -0.2813 -0.3891 -0.3894
 1548SOL    HW3 5925   4.294   3.930   4.438  0.2738  0.5521  0.3800
 1548SOL    MW4 5926   4.358   3.975   4.400  0.2198 -0.1940  0.4525
 1549SOL     OW 5927   1.789   5.656   2.883 -0.9578 -0.0571  0.1605
 1549SOL    HW2 5928   1.815   5.564   2.879 -0.2531  0.0594  1.4798
 1549SOL    HW3 5929   1.697   5.654   2.911 -1.0135 -0.3594 -0.0412
 1549SOL    MW4 5930   1.780   5.643   2.886 -0.2123 -0.3341 -0.1756
 1550SOL     OW 5931   1.495   1.741   3.015 -0.5353 -0.1611  0.6992
 1550SOL    HW2 5932   1.572   1.686   3.006  0.9763  2.0141 -0.8406
 1550SOL    HW3 5933   1.507   1.785   3.100 -0.1668  0.0131  0.5598
 1550SOL    MW4 5934   1.507   1.740   3.025  0.2039  0.6503 -0.2676
 1551SOL     OW 5935   0.521   1.214   1.265  0.5098  0.1888 -0.4112
 1551SOL    HW2 5936   0.608   1.251   1.276  0.6082  1.3289 -3.7038
 1551SOL    HW3 5937   0.536   1.128   1.224  0.0940  0.1115 -0.4130
 1551SOL    MW4 5938   0.534   1.207   1.261 -0.7125 -1.0179  0.1405
 1552SOL     OW 5939   5.120   4.446   5.024  0.4617  0.1159  0.3143
 1552SOL    HW2 5940   5.132   4.523   5.078 -1.2787  0.2377  0.5763
 1552SOL    HW3 5941   5.066   4.475   4.951  1.3351 -0.4483 -0.5927
 1552SOL    MW4 5942   5.115   4.460   5.022  0.3547 -0.6688 -0.9282
 1553SOL     OW 5943   2.219   6.250   1.211  0.1288 -0.2486 -0.2105
 1553SOL    HW2 5944   2.168   6.190   1.265  0.4802  0.3432  0.7870
 1553SOL    HW3 5945   2.251   6.195   1.139  1.2860 -1.5146  1.2179
 1553SOL    MW4 5946   2.217   6.235   1.208 -0.0964  0.2466  0.2126
 1554SOL     OW 5947   2.697   5.601   4.004 -0.0540 -0.1820  0.2824
 1554SOL    HW2 5948   2.766   5.535   4.006  3.1555  2.8397 -0.4531
 1554SOL    HW3 5949   2.659   5.595   3.917  1.8425  0.3553 -0.6286
 1554SOL    MW4 5950   2.701   5.592   3.993 -0.5173 -0.1386  0.7489
 1555SOL     OW 5951   4.729   5.643   1.333 -0.0559  0.2845 -0.2747
 1555SOL    HW2 5952   4.636   5.634   1.310 -0.1362  0.1727  0.0888
 1555SOL    HW3 5953   4.737   5.600   1.418  0.6804 -1.3703 -1.1285
 1555SOL    MW4 5954   4.718   5.636   1.341 -0.0558 -0.1008  0.1947
 1556SOL     OW 5955   2.361   5.243   0.785  0.7479  0.0192 -0.5062
 1556SOL    HW2 5956   2.401   5.242   0.872  3.1752  0.7306 -1.5254
 1556SOL    HW3 5957   2.271   5.214   0.800  0.6400  1.4761  2.4163
 1556SOL    MW4 5958   2.354   5.239   0.799  0.6675 -0.6501  0.1052
 1557SOL     OW 5959   2.066   6.429   1.082 -0.3734 -0.1051  0.5265
 1557SOL    HW2 5960   2.108   6.353   1.122 -0.8350  0.8947  3.0612
 1557SOL    HW3 5961   2.116   6.504   1.114 -2.6984  0.9590  1.8996
 1557SOL    MW4 5962   2.078   6.429   1.091 -0.1658  0.0187  0.4070
 1558SOL     OW 5963   2.635   2.315   3.494 -0.1926 -0.3238 -0.0922
 1558SOL    HW2 5964   2.688   2.268   3.558  0.0093 -1.0800 -0.7937
 1558SOL    HW3 5965   2.617   2.400   3.535  4.2030  1.3153 -0.9966
 1558SOL    MW4 5966   2.639   2.320   3.508 -0.8895  0.0086  0.3671
 1559SOL     OW 5967   2.056   0.411   0.158  0.4868  0.1977 -0.3508
 1559SOL    HW2 5968   2.034   0.380   0.246 -1.4141 -2.2777 -1.5905
 1559SOL    HW3 5969   1.979   0.460   0.130  0.7496  0.2792 -0.9321
 1559SOL    MW4 5970   2.043   0.414   0.166 -0.1246 -0.3326 -0.3542
 1560SOL     OW 5971   1.735   3.968   4.166 -0.3474 -0.8890  0.3187
 1560SOL    HW2 5972   1.714   3.980   4.259 -1.3406 -1.6656  0.2093
 1560SOL    HW3 5973   1.677   3.898   4.137  2.2030 -3.0142 -0.0865
 1560SOL    MW4 5974   1.725   3.961   4.175 -0.7307  0.4946  0.2466
 1561SOL     OW 5975   0.689   2.530   6.175  0.1511 -0.0075 -0.1247
 1561SOL    HW2 5976   0.631   2.520   6.251  0.4305  1.1267  0.2720
 1561SOL    HW3 5977   0.770   2.486   6.200 -0.3235 -1.1029 -0.4537
 1561SOL    MW4 5978   0.692   2.523   6.188 -0.0594  0.0118 -0.2890
 1562SOL     OW 5979   0.317   1.664   5.473 -0.0404  0.0490 -0.2363
 1562SOL    HW2 5980   0.230   1.704   5.478 -0.1317  0.0010 -1.2023
 1562SOL    HW3 5981   0.329   1.646   5.380  0.9463 -0.0775 -0.0915
 1562SOL    MW4 5982   0.307   1.667   5.461  0.2139  0.5004 -0.3337
 1563SOL     OW 5983   4.867   1.184   5.304 -0.4536  0.0136 -0.4641
 1563SOL    HW2 5984   4.941   1.194   5.244 -1.3004  4.8436 -1.0814
 1563SOL    HW3 5985   4.907   1.191   5.391  0.0539  0.1964 -0.7064
 1563SOL    MW4 5986   4.882   1.186   5.308  0.2493 -0.5063 -0.3374
 1564SOL     OW 5987   2.905   0.181   0.457  0.0862  0.1735 -0.0903
 1564SOL    HW2 5988   2.855   0.254   0.421  2.0189  2.4930  1.5471
 1564SOL    HW3 5989   2.885   0.182   0.551  0.1794 -1.3930 -0.0376
 1564SOL    MW4 5990   2.896   0.191   0.465 -0.4522  0.1412 -0.0760
 1565SOL     OW 5991   3.332   6.032   4.869  0.2981  0.1282 -0.1758
 1565SOL    HW2 5992   3.356   5.940   4.869 -0.2489 -0.0146 -0.3053
 1565SOL    HW3 5993   3.239   6.034   4.844 -0.8666  0.3666  3.5079
 1565SOL    MW4 5994   3.323   6.020   4.866  0.1472 -0.3210  0.2083
 1566SOL     OW 5995   0.027   5.764   1.988  0.1668  0.5171 -0.4997
 1566SOL    HW2 5996  -0.023   5.727   2.061 -2.0310  2.5992 -0.8282
 1566SOL    HW3 5997   0.118   5.746   2.010 -0.5869 -1.8130  1.0777
 1566SOL    MW4 5998   0.032   5.757   2.001 -0.4614 -0.4664  0.0311
 1567SOL     OW 5999   0.075   0.933   0.253 -0.1573  0.4408 -0.0821
 1567SOL    HW2 6000   0.157   0.902   0.216  0.4090  1.7954 -0.0202
 1567SOL    HW3 6001   0.044   0.861   0.307  0.9872 -0.0924 -0.1205
 1567SOL    MW4 6002   0.082   0.920   0.255 -0.1187 -0.0751 -0.0886
 1568SOL     OW 6003   2.772   3.926   0.032  0.0510 -0.4828 -0.4198
 1568SOL    HW2 6004   2.813   4.012   0.026 -0.0500 -0.4721 -0.9863
 1568SOL    HW3 6005   2.691   3.934  -0.019  1.4166 -1.7154 -2.9771
 1568SOL    MW4 6006   2.766   3.938   0.024  0.2230  0.2332  0.6278
 1569SOL     OW 6007   3.907   3.843   2.596  0.3623 -0.3232 -1.0711
 1569SOL    HW2 6008   3.841   3.787   2.638 -1.2918  1.8720 -0.5518
 1569SOL    HW3 6009   3.858   3.890   2.529  1.1112  2.1477  0.0082
 1569SOL    MW4 6010   3.892   3.842   2.593 -0.0405  0.2501  0.0467
 1570SOL     OW 6011   0.251   5.966   6.250 -0.1606  0.4322  0.0394
 1570SOL    HW2 6012   0.181   5.947   6.189 -0.0587  1.1276 -0.3006
 1570SOL    HW3 6013   0.273   5.881   6.289 -0.9059  0.1486 -0.1479
 1570SOL    MW4 6014   0.245   5.952   6.247 -0.0116 -0.1809  0.1700
 1571SOL     OW 6015   2.094   3.890   2.632 -0.0157 -0.2086  0.2583
 1571SOL    HW2 6016   2.039   3.813   2.643 -0.8953  0.2443 -0.8675
 1571SOL    HW3 6017   2.128   3.884   2.543  0.9375  0.0610  0.5866
 1571SOL    MW4 6018   2.092   3.879   2.622  0.3982  0.0583 -0.1103
 1572SOL     OW 6019   1.846   1.932   1.102 -0.3063 -0.5670 -0.0312
 1572SOL    HW2 6020   1.878   1.913   1.013 -0.2494  0.5430 -0.2727
 1572SOL    HW3 6021   1.790   1.858   1.124 -0.8924 -0.5254 -1.2830
 1572SOL    MW4 6022   1.843   1.920   1.093 -0.0671  0.5797  0.3276
 1573SOL     OW 6023   5.684   0.068   3.143 -0.5254  0.3166 -0.2039
 1573SOL    HW2 6024   5.765   0.044   3.098  0.3532 -1.8690  2.2382
 1573SOL    HW3 6025   5.696   0.159   3.169  2.7621 -0.7613  2.8963
 1573SOL    MW4 6026   5.696   0.077   3.141  0.5972 -0.3412 -0.4653
 1574SOL     OW 6027   1.111   0.626   2.163  0.2644  0.2201 -0.6521
 1574SOL    HW2 6028   1.087   0.564   2.093  1.4812 -1.0806  0.0277
 1574SOL    HW3 6029   1.086   0.581   2.243  0.0347  1.1663 -0.1847
 1574SOL    MW4 6030   1.104   0.612   2.164 -0.1722 -0.1752 -0.3229
 1575SOL     OW 6031   6.271   5.646   1.731  0.6530 -0.6489  0.2595
 1575SOL    HW2 6032   6.185   5.680   1.759  0.4976  0.1492 -1.0825
 1575SOL    HW3 6033   6.253   5.557   1.701  0.4228 -0.7283  0.6263
 1575SOL    MW4 6034   6.257   5.639   1.731 -0.0769  0.1504  0.1488
 1576SOL     OW 6035   4.650   1.570   2.592  0.1638 -0.2513 -0.4562
 1576SOL    HW2 6036   4.725   1.553   2.535 -0.4035 -0.9384 -1.0247
 1576SOL    HW3 6037   4.655   1.505   2.661  0.0165 -0.3887 -0.5737
 1576SOL    MW4 6038   4.660   1.559   2.593  0.1747 -0.0198 -0.2528
 1577SOL     OW 6039   0.481   4.678   1.847  0.3414  0.2296  0.2802
 1577SOL    HW2 6040   0.421   4.608   1.874  1.1780 -0.7629 -0.3604
 1577SOL    HW3 6041   0.521   4.646   1.766 -1.2232  2.6234 -1.5672
 1577SOL    MW4 6042   0.478   4.665   1.840 -0.0313  0.1619  0.0546
 1578SOL     OW 6043   1.828   3.376   4.972  0.0282 -0.4798 -0.3781
 1578SOL    HW2 6044   1.862   3.323   5.043 -1.3239  0.9072  1.3782
 1578SOL    HW3 6045   1.897   3.373   4.905  1.3216 -1.8421  0.9483
 1578SOL    MW4 6046   1.842   3.369   4.972  0.0232  0.2007  0.1577
 1579SOL     OW 6047   5.567   5.626   5.768 -0.1639  0.4109 -0.3199
 1579SOL    HW2 6048   5.532   5.539   5.791  1.8347 -0.6305 -0.9772
 1579SOL    HW3 6049   5.516   5.687   5.822 -0.6233 -1.2858  1.2865
 1579SOL    MW4 6050   5.556   5.622   5.778  0.1962  0.5062 -0.2661
 1580SOL     OW 6051   3.781   1.147   4.518 -0.2675 -0.4071 -0.6756
 1580SOL    HW2 6052   3.861   1.185   4.481 -0.5127 -1.0180 -1.8681
 1580SOL    HW3 6053   3.788   1.164   4.612 -0.2843  2.4015 -1.1152
 1580SOL    MW4 6054   3.793   1.154   4.525 -0.4121  0.1203 -0.1529
 1581SOL     OW 6055   5.664   6.401   4.149 -0.1236 -0.3473 -0.6415
 1581SOL    HW2 6056   5.616   6.457   4.089  1.5008  1.3271 -0.4692
 1581SOL    HW3 6057   5.752   6.396   4.112  0.7331  0.1669  1.1857
 1581SOL    MW4 6058   5.670   6.408   4.136  0.5156  0.0358  0.1916
 1582SOL     OW 6059   5.309   4.023   0.865  0.6650 -0.5269 -0.1933
 1582SOL    HW2 6060   5.226   4.043   0.907  0.9669 -2.2389  1.3233
 1582SOL    HW3 6061   5.299   4.057   0.776 -0.5728  1.8041  0.7391
 1582SOL    MW4 6062   5.297   4.030   0.859 -1.1073  0.6867 -0.0068
 1583SOL     OW 6063   4.681   1.684   5.988  0.0678 -0.1359 -0.2844
 1583SOL    HW2 6064   4.593   1.654   6.007  0.0229  0.0453 -0.2038
 1583SOL    HW3 6065   4.690   1.766   6.036 -0.0485  0.3250 -1.0292
 1583SOL    MW4 6066   4.671   1.691   5.997 -0.6332  0.6136  0.6320
 1584SOL     OW 6067   1.450   2.844   4.542  0.1553  0.7173 -0.0827
 1584SOL    HW2 6068   1.542   2.866   4.527 -0.4598  3.4889 -0.2948
 1584SOL    HW3 6069   1.407   2.863   4.459 -0.8258  0.9194  0.4596
 1584SOL    MW4 6070   1.457   2.849   4.529 -0.2865  0.1333  0.2253
 1585SOL     OW 6071   5.125   4.970   5.166  0.5171  0.1527  0.2273
 1585SOL    HW2 6072   5.139   4.875   5.170  0.0576  0.0683 -0.0086
 1585SOL    HW3 6073   5.091   4.992   5.252 -3.0502 -0.5621 -0.8103
 1585SOL    MW4 6074   5.122   4.960   5.178 -0.6371 -0.7558  0.1262
 1586SOL     OW 6075   0.641   6.176   1.845 -0.1513 -0.3269 -0.1020
 1586SOL    HW2 6076   0.652   6.230   1.768 -0.1157 -0.5687 -0.2676
 1586SOL    HW3 6077   0.561   6.208   1.886  0.5106  0.6474  0.4628
 1586SOL    MW4 6078   0.632   6.187   1.840  0.2483  0.1175 -0.0940
 1587SOL     OW 6079   0.458   2.273   4.379 -1.0382 -0.1905  0.3901
 1587SOL    HW2 6080   0.463   2.268   4.475 -0.5086  1.0990  0.4488
 1587SOL    HW3 6081   0.481   2.363   4.359 -0.0790 -0.7186 -1.0362
 1587SOL    MW4 6082   0.462   2.284   4.389 -0.8467  0.0110  0.0773
 1588SOL     OW 6083   2.074   3.312   0.693  0.3081  0.1587  0.5032
 1588SOL    HW2 6084   2.093   3.405   0.703 -0.3298  0.4186 -0.4957
 1588SOL    HW3 6085   2.153   3.267   0.724 -0.4657  0.8831  3.9592
 1588SOL    MW4 6086   2.087   3.318   0.699 -0.3694  0.8294  0.1159
 1589SOL     OW 6087   4.868   1.176   2.541  0.3132  0.4772  0.1810
 1589SOL    HW2 6088   4.866   1.248   2.478 -0.9725  0.5392  0.2713
 1589SOL    HW3 6089   4.829   1.212   2.620  0.4555 -0.0700  0.5047
 1589SOL    MW4 6090   4.862   1.190   2.543 -0.7806  0.2686 -0.1716
 1590SOL     OW 6091   0.989   3.487   6.027  0.1444  0.3895 -0.7810
 1590SOL    HW2 6092   0.930   3.413   6.041 -0.3118  0.9465  0.3430
 1590SOL    HW3 6093   0.948   3.537   5.956  0.2318 -0.1904 -1.2521
 1590SOL    MW4 6094   0.976   3.484   6.019 -0.3766 -0.1872 -0.7395
 1591SOL     OW 6095   3.121   1.516   6.086  0.0984  0.2403 -0.1666
 1591SOL    HW2 6096   3.099   1.520   5.993 -2.0151 -0.8769  0.2208
 1591SOL    HW3 6097   3.204   1.469   6.090  0.0029 -0.0636 -1.4533
 1591SOL    MW4 6098   3.129   1.510   6.074 -0.5119 -0.1102  0.5479
 1592SOL     OW 6099   2.340   1.045   2.050 -0.1172  0.4915  0.1806
 1592SOL    HW2 6100   2.259   1.026   2.003 -1.8487  1.4341  2.5926
 1592SOL    HW3 6101   2.346   0.976   2.116  0.8370  0.6892  0.3075
 1592SOL    MW4 6102   2.330   1.033   2.052 -0.0310 -0.1172  0.2229
 1593SOL     OW 6103   4.462   0.841   5.139 -0.3304  0.4474  0.1297
 1593SOL    HW2 6104   4.422   0.834   5.225  1.2882 -1.2905  0.7832
 1593SOL    HW3 6105   4.540   0.895   5.152  0.6111 -0.8644  0.0296
 1593SOL    MW4 6106   4.467   0.847   5.152 -0.0697  0.3425  0.5388
 1594SOL     OW 6107   4.162   2.720   3.400 -0.1163 -0.0893  0.3186
 1594SOL    HW2 6108   4.101   2.651   3.373 -0.9442  0.8340 -0.2276
 1594SOL    HW3 6109   4.173   2.775   3.323  1.6884 -0.4021  0.3077
 1594SOL    MW4 6110   4.155   2.718   3.386 -0.1966 -0.0759 -0.1264
 1595SOL     OW 6111   1.254   4.121   0.061 -0.1499  0.1395  0.5226
 1595SOL    HW2 6112   1.295   4.105   0.146 -0.2156  0.5017  0.6255
 1595SOL    HW3 6113   1.233   4.214   0.062 -0.3838  0.0913  0.2093
 1595SOL    MW4 6114   1.256   4.131   0.072  0.5177 -0.0269  0.0700
 1596SOL     OW 6115   4.582   1.215   5.004 -0.2488  0.6492  0.3943
 1596SOL    HW2 6116   4.580   1.167   4.921 -1.0291  0.1006  0.7158
 1596SOL    HW3 6117   4.532   1.295   4.987 -0.7685  0.3395  0.4468
 1596SOL    MW4 6118   4.575   1.219   4.991  0.9872  0.0291  0.4188
 1597SOL     OW 6119   1.627   3.892   0.424  0.0222  0.2376 -0.1928
 1597SOL    HW2 6120   1.708   3.890   0.373 -0.0768 -0.3632 -0.3386
 1597SOL    HW3 6121   1.607   3.800   0.439 -0.6976  0.3832 -0.2582
 1597SOL    MW4 6122   1.635   3.880   0.420 -0.0065  0.0712 -0.6307
 1598SOL     OW 6123   3.273   1.302   0.351 -0.0113  0.1682  0.4391
 1598SOL    HW2 6124   3.255   1.261   0.436  0.4495 -0.2603  0.3339
 1598SOL    HW3 6125   3.369   1.308   0.347 -0.0070 -0.2472 -0.2488
 1598SOL    MW4 6126   3.284   1.297   0.362 -0.0036 -0.0406 -0.4625
 1599SOL     OW 6127   2.782   2.751   0.390  0.1571  0.4310 -0.1421
 1599SOL    HW2 6128   2.733   2.780   0.313  1.0772  1.8810 -0.2237
 1599SOL    HW3 6129   2.871   2.783   0.374  0.4922  0.2470  1.2734
 1599SOL    MW4 6130   2.788   2.759   0.377  0.0166 -0.2631  0.2199
 1600SOL     OW 6131   4.742   5.329   4.551  0.0710  0.3563 -0.0373
 1600SOL    HW2 6132   4.783   5.273   4.485 -1.6942 -1.0522 -0.0090
 1600SOL    HW3 6133   4.650   5.334   4.526 -0.3164  1.1535  1.4015
 1600SOL    MW4 6134   4.736   5.322   4.539  0.3762 -0.1368  0.0389
 1601SOL     OW 6135   6.014   1.237   3.701  0.1000  0.1296 -0.5241
 1601SOL    HW2 6136   6.022   1.148   3.666  2.3037  0.0521  0.0243
 1601SOL    HW3 6137   5.953   1.280   3.642 -1.6084 -1.9313 -0.3722
 1601SOL    MW4 6138   6.007   1.231   3.689  0.0519 -0.2956 -0.2036
 1602SOL     OW 6139   4.410   3.275   4.884  0.2057 -0.0756 -0.0358
 1602SOL    HW2 6140   4.394   3.191   4.927  1.9938  0.1329  1.1367
 1602SOL    HW3 6141   4.363   3.339   4.938 -2.3022 -0.4110 -1.7005
 1602SOL    MW4 6142   4.402   3.273   4.897 -0.0740  0.4023 -0.3255
 1603SOL     OW 6143   2.398   0.610   2.634  0.2238  0.1694  0.1924
 1603SOL    HW2 6144   2.443   0.694   2.623 -1.0278  0.8024 -0.3049
 1603SOL    HW3 6145   2.438   0.572   2.712  0.2393  1.6326  0.9431
 1603SOL    MW4 6146   2.409   0.616   2.643 -0.0964  0.1353  0.2245
 1604SOL     OW 6147   3.753   0.935   3.452  0.3225  0.4076  0.3258
 1604SOL    HW2 6148   3.839   0.892   3.452 -0.4783 -1.4285 -1.8434
 1604SOL    HW3 6149   3.758   1.000   3.382 -0.2261 -0.2365 -0.3408
 1604SOL    MW4 6150   3.765   0.938   3.443 -0.5404 -0.7797  0.3092
 1605SOL     OW 6151   3.065   4.010   4.628  0.0360  0.2586 -0.0666
 1605SOL    HW2 6152   3.135   4.075   4.637 -0.8046  0.8865  3.7697
 1605SOL    HW3 6153   3.108   3.926   4.644  0.4384  0.2619 -1.0614
 1605SOL    MW4 6154   3.080   4.007   4.631 -0.7142 -0.0900 -0.3782
 1606SOL     OW 6155   4.770   0.985   2.769  0.4296 -0.0032  0.0833
 1606SOL    HW2 6156   4.702   0.956   2.830  1.4662 -1.5639  0.5499
 1606SOL    HW3 6157   4.722   1.021   2.695 -0.9749 -2.1262 -0.1169
 1606SOL    MW4 6158   4.755   0.986   2.767 -0.2854 -0.2536 -0.4592
 1607SOL     OW 6159   2.782   0.037   3.181 -0.4170 -0.2633 -0.1581
 1607SOL    HW2 6160   2.781   0.067   3.272 -0.4451 -1.8919  0.4277
 1607SOL    HW3 6161   2.691   0.020   3.160 -0.3220 -0.8632 -0.1196
 1607SOL    MW4 6162   2.770   0.038   3.190 -0.0384 -0.6808  0.6087
 1608SOL     OW 6163   4.833   2.804   6.340  0.0777 -0.4191 -0.2667
 1608SOL    HW2 6164   4.745   2.784   6.374  0.3088  0.8566  1.2134
 1608SOL    HW3 6165   4.824   2.888   6.296  0.7582  0.2870  0.8944
 1608SOL    MW4 6166   4.820   2.812   6.339  0.0255  0.3486  0.4599
 1609SOL     OW 6167   5.651   6.113   2.126 -0.3693  0.1226  0.4764
 1609SOL    HW2 6168   5.698   6.038   2.161 -0.8792 -0.5701 -0.2898
 1609SOL    HW3 6169   5.696   6.133   2.043 -1.4540 -0.6077 -0.3118
 1609SOL    MW4 6170   5.663   6.106   2.120 -0.0350  0.4835 -0.5993
 1610SOL     OW 6171   5.448   3.250   2.178  0.2343  0.1279 -0.1686
 1610SOL    HW2 6172   5.421   3.333   2.217  0.1179  0.0716 -0.1264
 1610SOL    HW3 6173   5.527   3.271   2.128  0.4191  0.1883  0.1451
 1610SOL    MW4 6174   5.455   3.264   2.176 -0.6941 -0.1079 -0.2004
 1611SOL     OW 6175   4.378   1.317   2.043 -0.8840 -0.1121  0.0658
 1611SOL    HW2 6176   4.383   1.350   1.954  1.5503  2.0299  0.8872
 1611SOL    HW3 6177   4.447   1.251   2.048 -1.1022 -0.3229  0.3586
 1611SOL    MW4 6178   4.388   1.313   2.032  0.0157  0.7820  0.2815
 1612SOL     OW 6179   5.882   0.439   5.723  0.1582  0.3390 -0.0480
 1612SOL    HW2 6180   5.966   0.401   5.700 -0.1471  0.0189 -0.6468
 1612SOL    HW3 6181   5.904   0.517   5.773  0.7963 -0.2150  0.5486
 1612SOL    MW4 6182   5.896   0.444   5.726 -0.4859  0.2706  0.4409
 1613SOL     OW 6183   5.975   5.185   2.027 -0.2224  0.1580 -0.2785
 1613SOL    HW2 6184   5.950   5.267   1.984 -0.0919  1.0869  1.3072
 1613SOL    HW3 6185   5.960   5.118   1.962  2.3669  1.6884 -2.6822
 1613SOL    MW4 6186   5.970   5.187   2.013  0.1946 -0.3420  0.0511
 1614SOL     OW 6187   1.187   2.604   0.702  0.2782  0.0484 -0.2551
 1614SOL    HW2 6188   1.149   2.691   0.687 -1.3629 -0.6041 -0.1013
 1614SOL    HW3 6189   1.112   2.544   0.698  1.0317 -1.1260  1.8627
 1614SOL    MW4 6190   1.172   2.607   0.699  0.6215  0.1778 -0.5360
 1615SOL     OW 6191   1.294   5.949   4.357 -0.1654  0.0410  0.3018
 1615SOL    HW2 6192   1.286   5.995   4.274 -2.0448  1.3297  1.1293
 1615SOL    HW3 6193   1.388   5.935   4.367  0.1308  0.0258 -1.9169
 1615SOL    MW4 6194   1.305   5.953   4.347 -0.0193  0.2361  0.5812
 1616SOL     OW 6195   2.166   1.355   3.202  0.0050  0.2133  0.3639
 1616SOL    HW2 6196   2.254   1.393   3.198  0.0655 -0.0087 -1.8600
 1616SOL    HW3 6197   2.121   1.391   3.125 -1.3673 -0.8112  0.6419
 1616SOL    MW4 6198   2.172   1.365   3.191 -0.4040  0.1442 -0.1294
 1617SOL     OW 6199   6.337   2.013   1.182 -0.7453 -0.1995  1.0714
 1617SOL    HW2 6200   6.400   1.942   1.168 -0.6935  0.0698 -0.3005
 1617SOL    HW3 6201   6.257   1.969   1.210 -1.1781 -1.0184 -1.1809
 1617SOL    MW4 6202   6.335   1.998   1.184  0.1347  0.1855  0.1666
 1618SOL     OW 6203   4.501   3.375   1.870 -0.3931  0.1523  0.0388
 1618SOL    HW2 6204   4.484   3.436   1.798 -0.4847  0.2247  0.1207
 1618SOL    HW3 6205   4.438   3.400   1.938 -1.5630 -1.0837 -0.5514
 1618SOL    MW4 6206   4.491   3.386   1.870  0.3293 -0.2872  0.6290
 1619SOL     OW 6207   0.942   4.296   3.890  0.5336 -0.2973 -0.3952
 1619SOL    HW2 6208   0.880   4.304   3.818 -0.2186  0.0111  0.2666
 1619SOL    HW3 6209   0.976   4.384   3.903  0.1351 -0.2021  0.0683
 1619SOL    MW4 6210   0.938   4.309   3.882 -0.6445 -0.2625  0.0408
 1620SOL     OW 6211   5.143   6.359   4.645 -0.0657  0.0390 -0.2113
 1620SOL    HW2 6212   5.174   6.370   4.555 -0.0129  0.8619 -0.1031
 1620SOL    HW3 6213   5.094   6.439   4.663  0.2987  0.0846  0.6406
 1620SOL    MW4 6214   5.141   6.371   4.635  0.1669  0.0125  0.4185
 1621SOL     OW 6215   2.803   5.422   0.287 -0.0499  0.6443  0.3244
 1621SOL    HW2 6216   2.783   5.494   0.347 -0.9035 -0.2473  1.1306
 1621SOL    HW3 6217   2.750   5.349   0.318 -0.7197  0.2250 -1.6733
 1621SOL    MW4 6218   2.794   5.422   0.299  0.2919  0.2393 -0.1188
 1622SOL     OW 6219   4.457   4.280   0.022 -0.7482  0.1481  0.1590
 1622SOL    HW2 6220   4.394   4.220   0.062 -4.0853  3.1585 -0.0721
 1622SOL    HW3 6221   4.460   4.254  -0.070  0.3742 -1.5286  0.6185
 1622SOL    MW4 6222   4.449   4.268   0.015  0.3066 -0.6864  0.6280
 1623SOL     OW 6223   5.028   2.412   2.701 -0.0261 -0.0298  0.6710
 1623SOL    HW2 6224   5.071   2.335   2.736 -1.8292 -1.6678 -0.4726
 1623SOL    HW3 6225   5.039   2.404   2.606  0.7111  1.7409  0.5814
 1623SOL    MW4 6226   5.035   2.401   2.693 -0.5435 -0.4383 -0.8039
 1624SOL     OW 6227   5.670   4.134   5.138 -0.6989  0.1910  0.1377
 1624SOL    HW2 6228   5.686   4.066   5.073 -3.1201  0.1456 -0.4883
 1624SOL    HW3 6229   5.695   4.215   5.093  2.4311 -0.1831  0.9713
 1624SOL    MW4 6230   5.676   4.136   5.123  0.1180  0.1064 -0.3369
 1625SOL     OW 6231   1.156   4.324   3.415  0.0988  0.2239  0.5609
 1625SOL    HW2 6232   1.228   4.322   3.352  0.3882 -1.0718  0.9146
 1625SOL    HW3 6233   1.198   4.309   3.500 -0.6548 -1.3267  0.6898
 1625SOL    MW4 6234   1.171   4.322   3.418  0.0276 -0.5319 -0.5534
 1626SOL     OW 6235   3.345   1.642   2.549  0.0542  0.0529 -0.4669
 1626SOL    HW2 6236   3.337   1.572   2.484  0.5388 -0.8331  0.3955
 1626SOL    HW3 6237   3.255   1.660   2.576  0.0223 -1.4510  0.5366
 1626SOL    MW4 6238   3.332   1.635   2.544 -0.0583 -0.3024  0.1187
 1627SOL     OW 6239   4.658   5.346   1.386  0.7660 -0.5872  0.6051
 1627SOL    HW2 6240   4.566   5.346   1.411  1.0678  0.1566  1.8827
 1627SOL    HW3 6241   4.697   5.275   1.437  1.1390  0.0126  1.1771
 1627SOL    MW4 6242   4.651   5.337   1.396 -0.5921 -0.0189  0.7922
 1628SOL     OW 6243   2.333   2.295   5.143 -0.3321 -0.5686  0.1261
 1628SOL    HW2 6244   2.418   2.302   5.186  0.6326 -0.5339 -1.7032
 1628SOL    HW3 6245   2.314   2.201   5.140  0.6327 -0.7401 -1.2584
 1628SOL    MW4 6246   2.341   2.284   5.148  0.9469  0.4591  0.3546
 1629SOL     OW 6247   2.338   0.078   2.767  0.2563  0.0466 -0.1770
 1629SOL    HW2 6248   2.318   0.145   2.833 -0.3129 -0.6448  0.3756
 1629SOL    HW3 6249   2.253   0.046   2.738  0.4263 -2.4049  1.6353
 1629SOL    MW4 6250   2.324   0.082   2.772  0.2189  0.4239  0.1957
 1630SOL     OW 6251   2.001   4.040   4.342 -0.3452 -0.4919 -0.4884
 1630SOL    HW2 6252   1.921   4.084   4.373  0.7557  1.4354 -0.1828
 1630SOL    HW3 6253   2.059   4.040   4.418  0.4633 -0.5601 -1.0979
 1630SOL    MW4 6254   1.998   4.046   4.356  0.4111 -0.2024  0.4201
 1631SOL     OW 6255   2.573   1.202   2.721  0.4563 -0.4832  0.4065
 1631SOL    HW2 6256   2.564   1.186   2.627 -0.4869  2.3300 -0.0587
 1631SOL    HW3 6257   2.501   1.153   2.760  0.4932 -1.1932 -0.3792
 1631SOL    MW4 6258   2.563   1.193   2.713  0.4490 -0.3904 -0.0174
 1632SOL     OW 6259   5.696   3.334   4.820  0.5848 -0.4056 -0.0210
 1632SOL    HW2 6260   5.623   3.388   4.852 -0.2740 -1.4448 -0.1965
 1632SOL    HW3 6261   5.677   3.319   4.728  0.4476 -1.5869  0.1906
 1632SOL    MW4 6262   5.684   3.339   4.812 -0.4459 -0.0343 -0.4006
 1633SOL     OW 6263   1.165   0.640   0.006 -0.2287 -0.5528  0.1773
 1633SOL    HW2 6264   1.238   0.694   0.037 -0.5321  1.3211 -2.1000
 1633SOL    HW3 6265   1.088   0.693   0.024 -0.7089 -1.0287 -0.4365
 1633SOL    MW4 6266   1.165   0.654   0.013  0.6018  0.1538 -0.4662
 1634SOL     OW 6267   5.880   6.277   6.085 -0.0659 -0.5626  0.1973
 1634SOL    HW2 6268   5.856   6.213   6.018  1.1744 -0.2336 -0.6042
 1634SOL    HW3 6269   5.813   6.268   6.152 -0.6756 -1.7438 -0.5340
 1634SOL    MW4 6270   5.868   6.267   6.085 -0.2840  0.0887 -0.3562
 1635SOL     OW 6271   4.523   0.304   5.638  0.2032  0.6243  0.4339
 1635SOL    HW2 6272   4.436   0.329   5.672  0.3055 -1.6194  2.5808
 1635SOL    HW3 6273   4.583   0.328   5.708  1.3823  1.9769 -0.9631
 1635SOL    MW4 6274   4.519   0.311   5.652 -0.3496  0.6432 -0.1835
 1636SOL     OW 6275   2.822   0.995   1.890  0.1771 -0.8097  0.0419
 1636SOL    HW2 6276   2.800   0.981   1.798 -0.1081 -0.4812  0.0574
 1636SOL    HW3 6277   2.775   1.075   1.914  1.3619 -0.1116  0.0924
 1636SOL    MW4 6278   2.813   1.004   1.881  0.4227  0.8692  0.4733
 1637SOL     OW 6279   3.678   0.883   4.271  0.1147  0.2400 -0.4542
 1637SOL    HW2 6280   3.650   0.925   4.353  2.1159 -1.0438  0.9775
 1637SOL    HW3 6281   3.680   0.955   4.207  0.6482  1.7536  1.1859
 1637SOL    MW4 6282   3.674   0.898   4.273  0.2159 -0.8047  0.3466
 1638SOL     OW 6283   6.306   1.108   3.170 -0.5151 -0.0296  0.2325
 1638SOL    HW2 6284   6.239   1.164   3.130 -0.9200  0.0419  0.9906
 1638SOL    HW3 6285   6.327   1.152   3.253 -0.4131 -0.6881  0.5618
 1638SOL    MW4 6286   6.300   1.121   3.176 -0.1044 -0.6792  0.5712
 1639SOL     OW 6287   2.534   4.786   3.455 -0.4068  0.8636 -0.5584
 1639SOL    HW2 6288   2.459   4.781   3.515 -0.4761  0.7286 -0.6557
 1639SOL    HW3 6289   2.497   4.772   3.368 -0.1269 -0.2949 -0.5078
 1639SOL    MW4 6290   2.519   4.783   3.452  0.1537  1.2752  0.5022
 1640SOL     OW 6291   4.543   5.827   3.318 -0.1959 -0.3635  0.3110
 1640SOL    HW2 6292   4.591   5.903   3.350  1.8054 -1.0325 -0.9006
 1640SOL    HW3 6293   4.456   5.836   3.356  0.1481  2.1926  0.6840
 1640SOL    MW4 6294   4.538   5.838   3.328  0.1601  0.6141  0.1761
 1641SOL     OW 6295   6.296   1.574   6.272  0.1164 -0.0890 -0.0228
 1641SOL    HW2 6296   6.352   1.510   6.227 -0.3562 -0.7527  0.3268
 1641SOL    HW3 6297   6.289   1.647   6.210  0.6883 -0.3514 -0.4079
 1641SOL    MW4 6298   6.303   1.575   6.258  0.0764 -0.1429 -0.4526
 1642SOL     OW 6299   2.078   2.645   6.035  0.5100 -0.3974 -0.1788
 1642SOL    HW2 6300   2.082   2.588   6.111 -0.0894  0.3102  0.3945
 1642SOL    HW3 6301   2.098   2.587   5.961  1.9953 -0.9082  0.5761
 1642SOL    MW4 6302   2.081   2.630   6.035 -0.3301  0.8142 -0.6175
 1643SOL     OW 6303   5.642   4.448   0.735 -0.0558 -0.3119  0.0966
 1643SOL    HW2 6304   5.636   4.463   0.830 -2.6871  2.9074 -0.3935
 1643SOL    HW3 6305   5.727   4.482   0.711  0.6321 -1.1209  1.2654
 1643SOL    MW4 6306   5.652   4.455   0.745  0.1687 -0.4117  0.3373
 1644SOL     OW 6307   0.075   4.851   3.543  0.2217  0.0248 -0.0968
 1644SOL    HW2 6308   0.028   4.915   3.489  1.6901  1.1082 -0.1424
 1644SOL    HW3 6309   0.028   4.769   3.528 -0.1562  0.5418 -2.0782
 1644SOL    MW4 6310   0.062   4.849   3.534 -0.2924  0.0673  0.2774
 1645SOL     OW 6311   6.342   0.574   6.243 -0.4245 -0.3267 -0.2592
 1645SOL    HW2 6312   6.423   0.529   6.265 -1.8925 -2.7606  0.5215
 1645SOL    HW3 6313   6.347   0.657   6.292  1.5347 -0.4126 -0.2338
 1645SOL    MW4 6314   6.353   0.579   6.253  0.4725  1.0057 -0.3013
 1646SOL     OW 6315   2.472   1.281   3.957 -0.0722 -0.2727 -1.2159
 1646SOL    HW2 6316   2.400   1.318   4.009 -1.6403  0.4344 -3.7369
 1646SOL    HW3 6317   2.551   1.319   3.995 -1.3486  2.4470 -1.0784
 1646SOL    MW4 6318   2.473   1.291   3.969  0.2167  0.2434 -0.5201
 1647SOL     OW 6319   4.915   4.758   5.778 -0.4704 -0.1943  0.3851
 1647SOL    HW2 6320   4.983   4.775   5.843 -1.1210  0.6286  0.8725
 1647SOL    HW3 6321   4.895   4.844   5.741 -1.9948 -0.2541  1.0137
 1647SOL    MW4 6322   4.921   4.772   5.781  0.0640 -0.3383 -0.0893
 1648SOL     OW 6323   0.766   0.633   6.188 -0.3203 -0.2656 -0.0246
 1648SOL    HW2 6324   0.812   0.561   6.232  3.3440  0.8061 -1.7033
 1648SOL    HW3 6325   0.746   0.599   6.101  1.0422  0.5287 -0.6781
 1648SOL    MW4 6326   0.770   0.619   6.182 -0.3872  0.4588 -0.0861
 1649SOL     OW 6327   2.267   0.204   2.321  0.7258  0.0713 -0.2143
 1649SOL    HW2 6328   2.335   0.202   2.388  1.0972  1.3664 -0.5141
 1649SOL    HW3 6329   2.311   0.176   2.241  0.4219 -0.9321 -0.0374
 1649SOL    MW4 6330   2.282   0.200   2.319 -0.0384  0.0339 -0.0144
 1650SOL     OW 6331   0.810   5.078   4.716  0.2707  0.1904 -0.4440
 1650SOL    HW2 6332   0.875   5.104   4.781  0.5255 -0.4264 -0.4520
 1650SOL    HW3 6333   0.823   4.984   4.704 -0.1863  0.1827 -0.9289
 1650SOL    MW4 6334   0.821   5.069   4.723 -0.1832  0.0954 -0.6597
 1651SOL     OW 6335   1.436   5.433   3.735  0.4190  0.2524 -0.2479
 1651SOL    HW2 6336   1.491   5.404   3.807  0.4192  0.8708  0.0103
 1651SOL    HW3 6337   1.349   5.444   3.774  0.3279  0.1976 -0.4347
 1651SOL    MW4 6338   1.432   5.431   3.750 -0.9824  0.2777  0.5030
 1652SOL     OW 6339   3.108   4.554   2.418 -0.3329  0.4497 -0.2611
 1652SOL    HW2 6340   3.095   4.593   2.504 -0.7511 -2.8800  1.3397
 1652SOL    HW3 6341   3.201   4.567   2.399 -0.2971  1.4531  0.5303
 1652SOL    MW4 6342   3.119   4.561   2.427 -0.4095 -0.1751 -0.2739
 1653SOL     OW 6343   3.702   0.787   0.042  0.2142 -0.0955  0.0224
 1653SOL    HW2 6344   3.753   0.778  -0.038 -1.3045 -2.2824 -0.7707
 1653SOL    HW3 6345   3.691   0.698   0.074 -2.0914  0.4138  0.8013
 1653SOL    MW4 6346   3.707   0.774   0.036  0.5089  0.3094 -0.0648
 1654SOL     OW 6347   3.439   2.998   4.799 -0.5054  0.1947  0.2696
 1654SOL    HW2 6348   3.472   2.918   4.758 -0.8970  0.6683 -1.0216
 1654SOL    HW3 6349   3.435   2.977   4.892 -1.5996 -1.6435 -0.1386
 1654SOL    MW4 6350   3.443   2.985   4.806 -0.2172 -1.0197  0.1379
 1655SOL     OW 6351   6.130   2.953   5.967  0.7351  0.2600 -0.6885
 1655SOL    HW2 6352   6.154   2.945   6.059 -0.3845  1.1692 -0.2812
 1655SOL    HW3 6353   6.035   2.937   5.966  0.8593 -0.4713 -1.7930
 1655SOL    MW4 6354   6.120   2.950   5.979  0.4183  0.4108  0.1066
 1656SOL     OW 6355   2.740   3.301   1.566  0.3894 -0.2863 -0.2568
 1656SOL    HW2 6356   2.787   3.260   1.639  1.7427  0.0087 -0.9178
 1656SOL    HW3 6357   2.663   3.246   1.552  1.5204 -1.9136 -0.3505
 1656SOL    MW4 6358   2.736   3.289   1.574  0.5592  0.4601 -0.1629
 1657SOL     OW 6359   2.744   5.722   2.166 -0.4206 -0.1452 -0.1804
 1657SOL    HW2 6360   2.816   5.698   2.225  0.2373 -0.7848 -1.1976
 1657SOL    HW3 6361   2.708   5.638   2.137 -0.6675  0.1474 -0.7478
 1657SOL    MW4 6362   2.749   5.708   2.170  0.3131  0.6749  0.1548
 1658SOL     OW 6363   6.395   3.532   0.674  0.4025  0.5225  0.1690
 1658SOL    HW2 6364   6.382   3.439   0.691 -0.1144  0.7785  1.3095
 1658SOL    HW3 6365   6.328   3.576   0.728  0.0248  1.5193 -1.0602
 1658SOL    MW4 6366   6.384   3.526   0.684  0.0652  0.8290 -0.6933
 1659SOL     OW 6367   5.648   1.312   1.810  0.1759  0.4477  0.6721
 1659SOL    HW2 6368   5.577   1.306   1.747  0.6398 -0.3889  0.2098
 1659SOL    HW3 6369   5.725   1.333   1.757  0.8562 -1.6755  0.7041
 1659SOL    MW4 6370   5.649   1.314   1.795  0.2522  0.1057 -0.5979
 1660SOL     OW 6371   4.979   2.903   4.431  0.0768  0.2857 -0.1512
 1660SOL    HW2 6372   4.969   2.990   4.470  0.0418 -0.1314  0.7870
 1660SOL    HW3 6373   4.939   2.843   4.494  2.7827 -0.7740  0.6871
 1660SOL    MW4 6374   4.972   2.906   4.444  0.1257  0.8519 -0.3160
 1661SOL     OW 6375   2.026   1.497   4.313  0.8508  0.1183  0.1475
 1661SOL    HW2 6376   2.043   1.484   4.406  0.3525 -0.8468  0.1098
 1661SOL    HW3 6377   2.104   1.461   4.270  0.3809 -0.9211  0.1349
 1661SOL    MW4 6378   2.039   1.491   4.320 -0.2431  0.2942  0.3045
 1662SOL     OW 6379   3.601   6.287   5.539  0.2535 -0.5674  0.3634
 1662SOL    HW2 6380   3.526   6.236   5.569 -1.6844  1.5224 -0.5835
 1662SOL    HW3 6381   3.656   6.225   5.493  0.5071 -2.7075  3.2608
 1662SOL    MW4 6382   3.598   6.272   5.537  0.2992 -0.3022 -0.5090
 1663SOL     OW 6383   6.296   2.591   3.154 -0.5384 -0.4706 -0.0739
 1663SOL    HW2 6384   6.266   2.593   3.063 -0.6466  0.2641 -0.0300
 1663SOL    HW3 6385   6.327   2.502   3.167  2.3702  0.1717 -1.7766
 1663SOL    MW4 6386   6.296   2.580   3.144 -0.0614  0.1202 -0.6559
 1664SOL     OW 6387   1.723   2.984   6.311 -0.5843  0.0987 -0.0347
 1664SOL    HW2 6388   1.775   3.016   6.385 -0.5077 -1.1532  0.4782
 1664SOL    HW3 6389   1.784   2.932   6.259 -0.8133  0.3818 -0.5885
 1664SOL    MW4 6390   1.738   2.981   6.314 -0.1923 -0.1470  0.2325
 1665SOL     OW 6391   0.150   4.896   5.372 -0.2134  0.0218  0.7577
 1665SOL    HW2 6392   0.205   4.909   5.295 -2.7199 -0.3768 -1.2685
 1665SOL    HW3 6393   0.188   4.951   5.440  1.3254  1.4913 -1.2032
 1665SOL    MW4 6394   0.162   4.905   5.371  0.7377 -0.6958 -0.0359
 1666SOL     OW 6395   3.678   0.311   4.412 -0.2535  0.0657  0.7583
 1666SOL    HW2 6396   3.763   0.350   4.428  0.7528 -0.6848 -2.1540
 1666SOL    HW3 6397   3.629   0.378   4.365  0.2749 -0.8612 -1.2328
 1666SOL    MW4 6398   3.682   0.325   4.408 -0.1711 -0.8696 -0.6790
 1667SOL     OW 6399   0.934   0.130   3.168 -0.1012  0.1606 -0.3306
 1667SOL    HW2 6400   0.892   0.207   3.207  0.5240  0.3265  0.0410
 1667SOL    HW3 6401   1.028   0.151   3.168  0.1771 -0.9292  0.5614
 1667SOL    MW4 6402   0.941   0.143   3.173 -0.3618  0.4126  0.4070
 1668SOL     OW 6403   5.109   3.687   2.130  0.1217 -0.5433 -0.8629
 1668SOL    HW2 6404   5.167   3.729   2.066  1.2117 -2.3650 -1.1266
 1668SOL    HW3 6405   5.158   3.687   2.212 -0.5273  0.1182 -0.4615
 1668SOL    MW4 6406   5.123   3.693   2.132  0.1370 -0.0793  0.0463
 1669SOL     OW 6407   4.298   1.866   3.206  0.0411 -0.0562  0.1109
 1669SOL    HW2 6408   4.393   1.862   3.198  0.1192 -2.0163  1.4106
 1669SOL    HW3 6409   4.282   1.903   3.292 -0.3134 -1.0494  0.4907
 1669SOL    MW4 6410   4.308   1.870   3.216  0.4770 -0.2636 -0.2822
 1670SOL     OW 6411   3.031   0.390   3.136  0.5029 -0.4883 -0.2446
 1670SOL    HW2 6412   3.045   0.404   3.229 -0.9696  1.1709 -0.2133
 1670SOL    HW3 6413   3.094   0.447   3.092  0.8630 -0.8996 -0.2693
 1670SOL    MW4 6414   3.041   0.400   3.142 -0.6557  0.4184 -0.3898
 1671SOL     OW 6415   4.321   6.112   4.587 -0.5633 -0.4110  0.7294
 1671SOL    HW2 6416   4.385   6.092   4.518 -2.0802 -1.3141 -0.4735
 1671SOL    HW3 6417   4.333   6.042   4.651 -0.1246 -0.3935  0.6713
 1671SOL    MW4 6418   4.331   6.100   4.586  0.1032  0.0006  0.5788
 1672SOL     OW 6419   1.634   4.443   5.779 -0.7780  0.4965  0.4971
 1672SOL    HW2 6420   1.589   4.373   5.731 -2.3081  0.9183  1.2288
 1672SOL    HW3 6421   1.680   4.398   5.849  0.4218  0.0007 -0.5780
 1672SOL    MW4 6422   1.634   4.428   5.782 -0.5540  0.2295 -0.0210
 1673SOL     OW 6423   5.232   3.838   4.978 -0.0462 -0.0841 -0.1100
 1673SOL    HW2 6424   5.211   3.900   5.048  1.5910  0.7135 -0.2582
 1673SOL    HW3 6425   5.305   3.879   4.932  1.6643 -2.5067  0.2744
 1673SOL    MW4 6426   5.239   3.852   4.981  0.7180  0.0403 -0.0107
 1674SOL     OW 6427   1.714   2.519   1.712  0.1381 -0.4095  0.3084
 1674SOL    HW2 6428   1.808   2.528   1.697 -0.2939  0.9889 -2.0185
 1674SOL    HW3 6429   1.697   2.425   1.702  1.2985 -0.7538  1.2433
 1674SOL    MW4 6430   1.724   2.508   1.709  0.1982 -0.1824 -0.6847
 1675SOL     OW 6431   5.897   6.129   3.198  0.0176  0.1683 -0.2285
 1675SOL    HW2 6432   5.952   6.189   3.147 -1.2285  2.3659  0.8271
 1675SOL    HW3 6433   5.913   6.154   3.289 -2.8916  1.2041  0.1217
 1675SOL    MW4 6434   5.906   6.140   3.203  0.3380 -0.5040 -0.3182
 1676SOL     OW 6435   2.255   2.434   5.380  0.6875 -0.1642 -0.6579
 1676SOL    HW2 6436   2.318   2.505   5.364  0.2914  0.0211 -1.4608
 1676SOL    HW3 6437   2.250   2.388   5.296 -0.2882 -0.1424 -0.6168
 1676SOL    MW4 6438   2.263   2.437   5.367  0.7667 -0.1909 -1.0883
 1677SOL     OW 6439   1.784   3.968   5.169  0.2420 -0.7157 -0.2242
 1677SOL    HW2 6440   1.763   3.955   5.076 -0.3738 -0.1449 -0.1757
 1677SOL    HW3 6441   1.705   3.937   5.215  0.4724 -0.8242  0.1020
 1677SOL    MW4 6442   1.771   3.962   5.163 -0.3058 -0.3222 -0.4076
 1678SOL     OW 6443   4.153   6.052   3.725 -0.5620  0.8823 -0.2133
 1678SOL    HW2 6444   4.235   6.017   3.760 -0.5971  0.2625 -0.7457
 1678SOL    HW3 6445   4.088   5.985   3.745 -0.4353  0.0992 -2.1911
 1678SOL    MW4 6446   4.155   6.039   3.732 -0.1644  0.0782  0.0695
 1679SOL     OW 6447   6.198   4.344   3.975  0.2942  0.1194  0.3318
 1679SOL    HW2 6448   6.190   4.249   3.963 -0.3956  0.2592 -0.3953
 1679SOL    HW3 6449   6.283   4.355   4.017  1.5871 -0.6578 -1.8631
 1679SOL    MW4 6450   6.208   4.333   3.979 -0.1657  0.0286  0.2029
 1680SOL     OW 6451   3.692   5.829   0.703  0.3948 -0.3883 -0.3329
 1680SOL    HW2 6452   3.748   5.849   0.778  1.1902  1.0848 -1.2834
 1680SOL    HW3 6453   3.745   5.851   0.627 -0.5547 -1.4395 -1.3377
 1680SOL    MW4 6454   3.706   5.834   0.703 -0.3972  0.5936  0.0785
 1681SOL     OW 6455   2.529   5.738   1.081 -0.0327 -0.2375  0.0164
 1681SOL    HW2 6456   2.511   5.832   1.083 -0.5599 -0.3306 -0.2157
 1681SOL    HW3 6457   2.444   5.697   1.091 -0.1777 -0.7016 -2.5037
 1681SOL    MW4 6458   2.516   5.745   1.082 -0.0049  0.6651 -0.0920
 1682SOL     OW 6459   0.660   6.402   3.175  0.3740 -0.0311  0.3094
 1682SOL    HW2 6460   0.567   6.418   3.193  0.2375 -0.7303  0.2606
 1682SOL    HW3 6461   0.678   6.452   3.096 -0.0565 -0.1977  0.1044
 1682SOL    MW4 6462   0.650   6.411   3.167  0.0555  0.1437  0.3371
 1683SOL     OW 6463   0.184   2.755   2.415 -0.8040 -0.2781  0.3665
 1683SOL    HW2 6464   0.232   2.762   2.497 -0.0360  0.4928 -0.1275
 1683SOL    HW3 6465   0.194   2.663   2.389 -0.5767 -0.3924  0.8404
 1683SOL    MW4 6466   0.192   2.744   2.422  0.4151 -0.1011  0.6887
 1684SOL     OW 6467   0.347   2.344   5.538 -0.6448 -0.9543 -0.0911
 1684SOL    HW2 6468   0.433   2.312   5.565 -1.6173 -1.8190  2.2716
 1684SOL    HW3 6469   0.287   2.275   5.564 -2.1857  0.0957 -0.7167
 1684SOL    MW4 6470   0.350   2.331   5.545  0.4281  0.7340 -0.2771
 1685SOL     OW 6471   1.701   2.241   6.017 -0.7948 -0.4850  0.1628
 1685SOL    HW2 6472   1.666   2.309   5.960  0.5125  0.1634  0.1201
 1685SOL    HW3 6473   1.721   2.285   6.099  3.9021  0.2547 -1.0975
 1685SOL    MW4 6474   1.699   2.256   6.020  0.3751 -0.2325  0.0864
 1686SOL     OW 6475   4.398   6.221   5.511  0.0440  0.1256  0.0955
 1686SOL    HW2 6476   4.308   6.222   5.544  0.2671 -2.5313  0.9858
 1686SOL    HW3 6477   4.431   6.309   5.531 -2.5729  1.5016 -1.0860
 1686SOL    MW4 6478   4.390   6.233   5.518 -0.3808 -0.5178  0.1448
 1687SOL     OW 6479   3.392   4.640   2.401  0.1988  0.1026  0.0630
 1687SOL    HW2 6480   3.427   4.729   2.412 -0.2118  0.3456 -0.5101
 1687SOL    HW3 6481   3.441   4.587   2.463  0.4582  0.7315  0.4087
 1687SOL    MW4 6482   3.403   4.645   2.411  0.0789 -0.2329 -0.1271
 1688SOL     OW 6483   2.923   2.134   2.993  0.0559  0.7657  0.2801
 1688SOL    HW2 6484   2.981   2.123   2.918  0.0313  0.0138  0.3732
 1688SOL    HW3 6485   2.893   2.046   3.015 -1.7830  1.1859 -0.2826
 1688SOL    MW4 6486   2.926   2.121   2.986 -0.6938  0.9425  0.4068
 1689SOL     OW 6487   3.183   0.216   3.900 -0.2900  0.2963 -0.1179
 1689SOL    HW2 6488   3.148   0.249   3.817 -1.1635  0.1877  0.2045
 1689SOL    HW3 6489   3.107   0.206   3.957  0.1253 -0.9406  0.2583
 1689SOL    MW4 6490   3.168   0.219   3.897  0.0009  0.3620 -0.4320
 1690SOL     OW 6491   2.542   6.022   3.925 -0.1337 -0.1261  0.1696
 1690SOL    HW2 6492   2.622   6.072   3.940 -0.2620  0.3499 -0.6714
 1690SOL    HW3 6493   2.500   6.017   4.011 -0.3344  1.6139  0.2043
 1690SOL    MW4 6494   2.547   6.028   3.938  0.6439  0.5290  0.2705
 1691SOL     OW 6495   3.405   4.721   5.486  0.2655 -0.3510 -0.0683
 1691SOL    HW2 6496   3.479   4.682   5.532  2.8414  3.4907 -0.4577
 1691SOL    HW3 6497   3.338   4.735   5.554  1.4557 -0.4614  1.1661
 1691SOL    MW4 6498   3.406   4.718   5.501 -0.5221  0.3434  0.1702
 1692SOL     OW 6499   3.889   5.414   1.653 -0.1391  0.0460 -0.8684
 1692SOL    HW2 6500   3.911   5.486   1.711 -0.9857  0.8186 -1.4807
 1692SOL    HW3 6501   3.811   5.374   1.692  0.1023 -0.3074 -0.7391
 1692SOL    MW4 6502   3.881   5.418   1.666 -0.5524 -0.4133 -0.2572
 1693SOL     OW 6503   0.051   0.312   0.827  0.2669  0.2466  0.3245
 1693SOL    HW2 6504  -0.016   0.270   0.773 -0.0692  1.1085  0.0576
 1693SOL    HW3 6505   0.007   0.387   0.866  1.1026  0.8991  0.0433
 1693SOL    MW4 6506   0.036   0.316   0.825 -0.5081  0.5579  0.1910
 1694SOL     OW 6507   6.241   3.481   4.343  0.2594 -0.0814  0.3297
 1694SOL    HW2 6508   6.156   3.453   4.377  0.3159  1.0823  1.4938
 1694SOL    HW3 6509   6.235   3.577   4.337  0.8198 -0.1098 -1.4767
 1694SOL    MW4 6510   6.229   3.490   4.346 -0.0286 -0.3061 -0.6781
 1695SOL     OW 6511   5.892   3.011   3.638  0.1006  0.7277 -0.3542
 1695SOL    HW2 6512   5.861   3.036   3.725  2.4210  0.9560  0.4669
 1695SOL    HW3 6513   5.975   2.967   3.653  0.0662 -0.1681 -2.4081
 1695SOL    MW4 6514   5.899   3.009   3.651  0.1052  0.2307  0.1130
 1696SOL     OW 6515   1.003   2.852   6.029  0.0344  0.6832 -0.3330
 1696SOL    HW2 6516   0.917   2.838   6.068 -0.4317  0.5227 -1.3967
 1696SOL    HW3 6517   1.021   2.945   6.044 -0.5808  0.8492 -0.6100
 1696SOL    MW4 6518   0.994   2.862   6.036  0.2360  0.4309 -0.1125
 1697SOL     OW 6519   0.140   1.472   1.935  0.0191 -0.7802 -0.2505
 1697SOL    HW2 6520   0.124   1.483   2.029 -0.1472 -0.6786 -0.2893
 1697SOL    HW3 6521   0.128   1.559   1.898 -0.1273 -0.8604 -0.3948
 1697SOL    MW4 6522   0.136   1.485   1.942  0.0418 -0.6406  0.3137
 1698SOL     OW 6523   2.078   4.581   2.718 -0.1702 -0.7081  0.2479
 1698SOL    HW2 6524   2.102   4.529   2.642  0.9078  0.4130 -0.2160
 1698SOL    HW3 6525   2.142   4.557   2.785  0.3011 -0.0289  0.0478
 1698SOL    MW4 6526   2.090   4.571   2.717 -0.1886 -0.3109 -0.4020
 1699SOL     OW 6527   6.027   2.706   6.267 -0.2430  0.2521 -0.2652
 1699SOL    HW2 6528   5.932   2.722   6.273 -0.1049  0.5467  1.8295
 1699SOL    HW3 6529   6.034   2.632   6.207 -1.7314  0.8061 -1.1930
 1699SOL    MW4 6530   6.015   2.698   6.260  0.0293 -0.1835  0.7139
 1700SOL     OW 6531   4.634   2.854   5.322 -0.2097 -0.5938 -0.0262
 1700SOL    HW2 6532   4.624   2.808   5.406  0.1448 -1.6267 -0.5348
 1700SOL    HW3 6533   4.681   2.792   5.267  1.2587  0.8061 -0.3981
 1700SOL    MW4 6534   4.639   2.840   5.326  0.0605  0.8821  0.2201
 1701SOL     OW 6535   3.434   0.438   5.899 -0.5168  0.4433 -0.1663
 1701SOL    HW2 6536   3.385   0.514   5.869  1.0893  1.4775 -0.3129
 1701SOL    HW3 6537   3.367   0.372   5.919 -2.0398  2.1923  0.8816
 1701SOL    MW4 6538   3.419   0.439   5.898 -0.4694 -0.1784 -0.3593
 1702SOL     OW 6539   5.452   6.350   5.649 -0.5395  0.4208 -0.4645
 1702SOL    HW2 6540   5.546   6.365   5.655 -0.5711  0.8574 -0.9626
 1702SOL    HW3 6541   5.430   6.301   5.728  0.1752 -0.0476 -0.5482
 1702SOL    MW4 6542   5.461   6.345   5.660 -0.4118  0.5101 -0.9728
 1703SOL     OW 6543   2.041   0.163   6.272  0.2835  0.2904  0.2301
 1703SOL    HW2 6544   2.003   0.146   6.185 -0.1311  1.3170  0.1988
 1703SOL    HW3 6545   2.134   0.181   6.254  0.6716 -1.4828  0.2312
 1703SOL    MW4 6546   2.049   0.163   6.258  0.0417 -0.1819 -0.3672
 1704SOL     OW 6547   1.384   2.526   0.079 -0.1828 -0.0110 -0.2296
 1704SOL    HW2 6548   1.469   2.509   0.120 -0.9045 -1.5778  0.7235
 1704SOL    HW3 6549   1.402   2.593   0.014  1.9559 -0.8689 -0.6250
 1704SOL    MW4 6550   1.398   2.532   0.076  0.1723  0.5217  0.1985
 1705SOL     OW 6551   6.163   4.120   5.584 -0.7910 -0.2955 -0.2293
 1705SOL    HW2 6552   6.142   4.170   5.663 -1.0475  0.7538 -0.9320
 1705SOL    HW3 6553   6.187   4.033   5.615  0.8230  0.5844  1.1520
 1705SOL    MW4 6554   6.164   4.115   5.598 -0.4766 -0.3539  0.4981
 1706SOL     OW 6555   5.710   4.310   3.963  0.2177  0.4094  0.2924
 1706SOL    HW2 6556   5.777   4.351   4.018 -0.4290  0.4997  1.0274
 1706SOL    HW3 6557   5.669   4.245   4.020  0.3398 -0.3545 -0.4607
 1706SOL    MW4 6558   5.714   4.307   3.978  0.0291 -0.0227  0.5299
 1707SOL     OW 6559   6.278   6.293   3.551  0.4248 -0.0814  0.5301
 1707SOL    HW2 6560   6.236   6.376   3.570 -0.8677 -0.8908  1.3685
 1707SOL    HW3 6561   6.338   6.312   3.479  1.0132  1.7956  1.4725
 1707SOL    MW4 6562   6.280   6.306   3.544  0.7091  0.2608  0.0914
 1708SOL     OW 6563   6.022   4.510   2.770  0.5926 -0.1455 -1.0954
 1708SOL    HW2 6564   5.974   4.464   2.839 -1.3629  0.5722 -1.9109
 1708SOL    HW3 6565   6.109   4.470   2.771  1.7747  1.8403  3.7783
 1708SOL    MW4 6566   6.027   4.498   2.780 -0.2705  0.4401 -0.0434
 1709SOL     OW 6567   6.198   4.875   1.663  0.3217  0.1029 -0.6045
 1709SOL    HW2 6568   6.287   4.904   1.645  1.6089 -2.7882  0.4791
 1709SOL    HW3 6569   6.208   4.805   1.728 -2.4014 -2.6492 -2.8236
 1709SOL    MW4 6570   6.211   4.869   1.669 -0.4107  0.1217  0.7074
 1710SOL     OW 6571   1.065   0.234   2.576  0.0727 -0.3652  0.2437
 1710SOL    HW2 6572   1.045   0.163   2.515 -2.1129 -0.3247  0.8382
 1710SOL    HW3 6573   1.006   0.220   2.650  1.9125  0.1970  1.9013
 1710SOL    MW4 6574   1.055   0.223   2.578 -0.0433 -0.0901  0.0527
 1711SOL     OW 6575   5.931   6.232   5.695 -0.1088  0.2962  0.2138
 1711SOL    HW2 6576   5.979   6.314   5.711 -0.4366  0.8991 -1.6226
 1711SOL    HW3 6577   5.937   6.184   5.777 -0.8384  2.6364  1.7122
 1711SOL    MW4 6578   5.938   6.237   5.708 -0.5857  0.4557  0.2893
 1712SOL     OW 6579   5.952   0.228   0.107  0.2203  0.3357  0.2361
 1712SOL    HW2 6580   5.981   0.240   0.017 -0.7081  0.2163 -0.0883
 1712SOL    HW3 6581   6.015   0.278   0.159  0.1380  1.2959 -0.5594
 1712SOL    MW4 6582   5.964   0.236   0.102 -0.4487  0.0118  0.6250
 1713SOL     OW 6583   0.586   5.943   1.677 -0.2326  0.1805  0.1143
 1713SOL    HW2 6584   0.633   5.930   1.594  1.1128 -0.5993  0.9666
 1713SOL    HW3 6585   0.586   6.038   1.690 -0.6077  0.3246 -0.8466
 1713SOL    MW4 6586   0.592   5.954   1.668  0.0871 -0.0862  0.5018
 1714SOL     OW 6587   5.414   3.211   1.024  0.6305  0.5174 -0.6655
 1714SOL    HW2 6588   5.401   3.119   1.050 -0.7071  0.9750  0.3716
 1714SOL    HW3 6589   5.505   3.229   1.048  0.2137  0.1440  1.4540
 1714SOL    MW4 6590   5.424   3.201   1.031 -0.3713 -0.2085 -0.4328
 1715SOL     OW 6591   2.595   6.386   5.725 -0.3537 -0.3040 -0.1830
 1715SOL    HW2 6592   2.594   6.367   5.819  0.0329  1.4463  0.1946
 1715SOL    HW3 6593   2.663   6.329   5.691  2.3130  1.7691  1.2783
 1715SOL    MW4 6594   2.604   6.376   5.733  0.1291 -0.0909 -0.0712
 1716SOL     OW 6595   5.781   1.510   2.738  1.0511  0.4293 -0.1632
 1716SOL    HW2 6596   5.783   1.447   2.666  1.2493 -0.0807  0.2806
 1716SOL    HW3 6597   5.762   1.457   2.816 -0.1901  1.0982  0.0245
 1716SOL    MW4 6598   5.779   1.495   2.739 -0.0963  0.3073  0.3673
 1717SOL     OW 6599   3.177   4.867   4.438  0.4401  0.1742  0.4180
 1717SOL    HW2 6600   3.220   4.953   4.428  1.1372 -0.0797  1.1242
 1717SOL    HW3 6601   3.199   4.820   4.358  4.2513 -1.1022  1.9567
 1717SOL    MW4 6602   3.186   4.872   4.426  0.4289  0.1074 -0.2230
 1718SOL     OW 6603   3.400   4.801   1.754  0.6373 -0.3036  0.3141
 1718SOL    HW2 6604   3.391   4.709   1.778  0.7963 -0.1887  0.8435
 1718SOL    HW3 6605   3.340   4.847   1.813 -1.4083 -0.2673 -1.6478
 1718SOL    MW4 6606   3.391   4.795   1.765  0.3043 -0.4384  0.4484
 1719SOL     OW 6607   1.025   1.519   0.276 -0.0843  0.0120  0.3502
 1719SOL    HW2 6608   0.949   1.471   0.309 -0.2686 -0.8557 -1.2597
 1719SOL    HW3 6609   1.090   1.512   0.347 -0.4975 -1.6926  0.6085
 1719SOL    MW4 6610   1.024   1.512   0.290  0.2031  0.1077  0.0781
 1720SOL     OW 6611   2.186   0.901   0.769  0.3807 -0.1438  0.3692
 1720SOL    HW2 6612   2.116   0.889   0.833 -0.7021 -0.1352 -0.7915
 1720SOL    HW3 6613   2.157   0.854   0.692  1.5034  0.1533 -0.2611
 1720SOL    MW4 6614   2.173   0.893   0.768  1.1824 -0.7846 -0.1594
 1721SOL     OW 6615   1.408   5.402   5.871  0.7775 -0.2999  0.2546
 1721SOL    HW2 6616   1.491   5.443   5.897  0.5919 -0.6324  1.4605
 1721SOL    HW3 6617   1.410   5.317   5.914 -0.1826 -0.3134  0.2820
 1721SOL    MW4 6618   1.419   5.397   5.880 -0.1875  0.9053 -0.3667
 1722SOL     OW 6619   4.974   3.504   0.584  0.4340 -0.3333  0.1219
 1722SOL    HW2 6620   5.042   3.438   0.599  0.4824 -0.6566 -1.3104
 1722SOL    HW3 6621   4.923   3.468   0.511  0.5816  1.2975 -0.8244
 1722SOL    MW4 6622   4.976   3.490   0.576  0.0205  0.1898  0.2207
 1723SOL     OW 6623   5.458   4.745   3.531  0.3603  0.1633  0.2412
 1723SOL    HW2 6624   5.535   4.790   3.495  1.5196  0.4946  2.9333
 1723SOL    HW3 6625   5.470   4.653   3.506 -0.9335  0.8259 -3.4540
 1723SOL    MW4 6626   5.470   4.739   3.523 -0.2817  0.2094 -0.2235
 1724SOL     OW 6627   5.379   0.091   4.747 -0.8668 -0.0734 -0.5610
 1724SOL    HW2 6628   5.331   0.014   4.716 -1.3899 -0.9103  2.0097
 1724SOL    HW3 6629   5.356   0.096   4.840 -1.4393  3.6588 -0.7729
 1724SOL    MW4 6630   5.370   0.081   4.756  0.5207  0.2823  0.7707
 1725SOL     OW 6631   4.700   4.184   2.147 -0.4987  0.0396  0.2820
 1725SOL    HW2 6632   4.714   4.149   2.235 -0.6722 -0.8071 -0.0240
 1725SOL    HW3 6633   4.782   4.230   2.126  0.0524 -0.8845  0.3660
 1725SOL    MW4 6634   4.713   4.185   2.156  0.3055  0.1176  0.4178
 1726SOL     OW 6635   4.264   3.116   5.476  0.0385 -0.8780 -0.3312
 1726SOL    HW2 6636   4.212   3.051   5.429 -1.5694 -0.8738  1.3390
 1726SOL    HW3 6637   4.271   3.080   5.564  1.7286 -0.1914 -0.1611
 1726SOL    MW4 6638   4.258   3.102   5.481  0.3146 -0.5065 -0.3049
 1727SOL     OW 6639   1.593   6.123   4.710 -0.1170 -0.2656  0.2327
 1727SOL    HW2 6640   1.670   6.094   4.757  0.0736 -1.3184 -0.6970
 1727SOL    HW3 6641   1.621   6.131   4.619 -0.7984  0.5116  0.0716
 1727SOL    MW4 6642   1.607   6.121   4.704 -0.4214 -0.3101  0.0970
 1728SOL     OW 6643   5.223   2.653   3.666 -0.4035 -0.3854  0.1875
 1728SOL    HW2 6644   5.198   2.728   3.611 -1.5576 -0.8064  0.0937
 1728SOL    HW3 6645   5.150   2.592   3.655  0.6302 -1.6241  0.0899
 1728SOL    MW4 6646   5.210   2.655   3.657  0.1153 -0.1547 -0.0281
 1729SOL     OW 6647   1.379   6.071   3.001  0.6191 -0.0618 -0.5133
 1729SOL    HW2 6648   1.318   6.136   2.966 -2.7121 -0.8719  2.9840
 1729SOL    HW3 6649   1.448   6.123   3.043  0.4958  1.0440 -1.6286
 1729SOL    MW4 6650   1.380   6.087   3.002  0.1949 -0.0198 -0.0482
 1730SOL     OW 6651   4.989   2.000   0.718 -0.0470  0.2658  0.6030
 1730SOL    HW2 6652   4.962   1.909   0.711  0.7506  0.0975 -0.6318
 1730SOL    HW3 6653   5.004   2.028   0.627  1.3546  1.1050  1.0607
 1730SOL    MW4 6654   4.987   1.992   0.705 -0.2500 -0.2400  0.1870
 1731SOL     OW 6655   3.078   3.421   2.384 -0.1113 -0.1022  0.1219
 1731SOL    HW2 6656   2.988   3.451   2.376 -0.6496 -1.3537  1.0709
 1731SOL    HW3 6657   3.098   3.382   2.299 -0.7684 -0.5754  0.1794
 1731SOL    MW4 6658   3.069   3.419   2.372 -0.3417  0.3809  0.3581
 1732SOL     OW 6659   6.098   4.303   2.330  0.5202 -0.1065 -0.4044
 1732SOL    HW2 6660   6.042   4.352   2.390 -0.2209  2.7208 -3.0979
 1732SOL    HW3 6661   6.165   4.264   2.386 -0.4971  1.6937  2.3080
 1732SOL    MW4 6662   6.099   4.304   2.345  0.1446 -0.2866 -0.0977
 1733SOL     OW 6663   5.819   2.447   2.548 -0.3960  0.2624  0.7620
 1733SOL    HW2 6664   5.792   2.356   2.533 -0.2790  0.5562 -1.5660
 1733SOL    HW3 6665   5.914   2.446   2.537 -0.2038  0.4488  2.1725
 1733SOL    MW4 6666   5.828   2.435   2.545 -0.1324 -0.5042  0.2641
 1734SOL     OW 6667   0.197   0.848   3.896  0.3963  0.3941  0.0583
 1734SOL    HW2 6668   0.136   0.866   3.967  0.7088  3.0403 -0.2212
 1734SOL    HW3 6669   0.282   0.836   3.939  0.4256  1.1201  0.2244
 1734SOL    MW4 6670   0.200   0.849   3.911  0.3593 -0.4831  0.0389
 1735SOL     OW 6671   4.749   1.767   0.128 -0.1540 -0.3265  0.3445
 1735SOL    HW2 6672   4.726   1.721   0.208  2.3333 -0.4197  1.1027
 1735SOL    HW3 6673   4.677   1.749   0.068 -3.0593  1.2522  3.0461
 1735SOL    MW4 6674   4.736   1.759   0.131 -0.0285  0.0004 -0.2195
 1736SOL     OW 6675   5.556   4.957   0.047 -0.6939  0.5096 -0.0981
 1736SOL    HW2 6676   5.462   4.938   0.053 -0.7799  0.8863 -0.2356
 1736SOL    HW3 6677   5.582   4.975   0.137 -0.8733  0.9434 -0.1265
 1736SOL    MW4 6678   5.547   4.957   0.060  0.0056  0.5363 -0.3767
 1737SOL     OW 6679   0.872   5.308   5.385  0.2372  0.3957 -0.9055
 1737SOL    HW2 6680   0.857   5.384   5.441 -0.1028 -0.9808  0.9287
 1737SOL    HW3 6681   0.951   5.267   5.420 -1.1865 -1.7078  0.0437
 1737SOL    MW4 6682   0.880   5.313   5.397 -0.0506  0.0463  0.2787
 1738SOL     OW 6683   0.023   1.556   1.003 -0.4709 -0.4352  0.2396
 1738SOL    HW2 6684   0.044   1.628   1.063  0.0275  0.1496 -0.6190
 1738SOL    HW3 6685   0.046   1.477   1.052  1.4466  0.0882  0.2674
 1738SOL    MW4 6686   0.029   1.555   1.017  0.1094 -0.7479 -0.5697
 1739SOL     OW 6687   0.318   5.972   3.055  0.0650 -0.4654  0.1583
 1739SOL    HW2 6688   0.347   6.044   3.000  1.1884  0.6409  2.1108
 1739SOL    HW3 6689   0.224   5.965   3.038  0.3383 -0.0591 -1.7230
 1739SOL    MW4 6690   0.310   5.980   3.046 -0.2218 -0.5951 -0.1623
 1740SOL     OW 6691   1.610   1.205   0.991 -0.0171 -0.3632  0.3403
 1740SOL    HW2 6692   1.543   1.171   1.051  0.7597 -0.1193  1.3794
 1740SOL    HW3 6693   1.689   1.211   1.045  0.8807 -0.7635 -0.8884
 1740SOL    MW4 6694   1.612   1.201   1.006  0.3946 -0.2200 -0.3285
 1741SOL     OW 6695   3.454   4.942   0.131  0.6163 -0.3936  0.1450
 1741SOL    HW2 6696   3.410   4.990   0.201 -0.5323  1.0793 -1.5016
 1741SOL    HW3 6697   3.411   4.857   0.129  0.9403 -0.6127  1.4593
 1741SOL    MW4 6698   3.443   4.937   0.140  0.1548 -0.0278 -0.2935
 1742SOL     OW 6699   5.579   2.365   2.918 -0.3924  0.4247 -0.0988
 1742SOL    HW2 6700   5.556   2.447   2.962 -1.3397  0.0409  0.1624
 1742SOL    HW3 6701   5.665   2.381   2.879 -0.0040  1.1316  0.9986
 1742SOL    MW4 6702   5.587   2.378   2.919 -0.1003  0.5699 -0.3514
 1743SOL     OW 6703   5.664   0.655   6.298 -0.2740 -0.8716 -0.1084
 1743SOL    HW2 6704   5.652   0.560   6.301 -3.4069 -0.5602  0.6938
 1743SOL    HW3 6705   5.697   0.678   6.385  2.5725 -1.3506 -0.9747
 1743SOL    MW4 6706   5.667   0.645   6.310 -0.0660 -0.1771 -0.5642
 1744SOL     OW 6707   4.551   3.706   4.717  0.2869 -0.3298  0.1749
 1744SOL    HW2 6708   4.574   3.626   4.764 -1.2917  0.0383  1.6338
 1744SOL    HW3 6709   4.561   3.683   4.625  1.4668 -1.6792  0.6051
 1744SOL    MW4 6710   4.555   3.693   4.711 -0.4357  1.0386 -0.3342
 1745SOL     OW 6711   2.875   3.019   2.210 -0.2421 -0.0781  0.4004
 1745SOL    HW2 6712   2.939   2.967   2.257  1.9801  1.3255 -0.8633
 1745SOL    HW3 6713   2.818   3.056   2.278  0.4240 -1.1742  1.5875
 1745SOL    MW4 6714   2.876   3.017   2.225 -0.8454  0.1729  0.5605
 1746SOL     OW 6715   4.908   2.921   1.123  0.3982  0.0044 -0.1206
 1746SOL    HW2 6716   4.978   2.856   1.130 -0.0829 -0.5111 -0.0535
 1746SOL    HW3 6717   4.841   2.891   1.183  0.2317  0.6519  0.0247
 1746SOL    MW4 6718   4.909   2.908   1.132  0.3331 -0.3692  0.0316
 1747SOL     OW 6719   0.080   6.146   1.214  0.1881 -0.0263  0.6067
 1747SOL    HW2 6720   0.010   6.110   1.269  0.6006 -0.7113  0.6802
 1747SOL    HW3 6721   0.158   6.145   1.270 -0.2667  3.4242  1.5771
 1747SOL    MW4 6722   0.081   6.141   1.229  0.4695 -0.1713  0.1174
 1748SOL     OW 6723   0.671   2.191   0.035  0.4720  0.3002  0.0832
 1748SOL    HW2 6724   0.665   2.108  -0.012  1.8355  0.7917 -1.0409
 1748SOL    HW3 6725   0.691   2.166   0.125 -0.7610 -0.6183  0.1300
 1748SOL    MW4 6726   0.673   2.177   0.041  0.1134  0.5652  0.1089
 1749SOL     OW 6727   2.016   6.072   0.920  0.3425  0.0339  0.4631
 1749SOL    HW2 6728   1.974   6.053   0.836 -0.5649 -0.2381  0.9715
 1749SOL    HW3 6729   2.095   6.018   0.919  0.8210  0.7215 -0.5974
 1749SOL    MW4 6730   2.021   6.062   0.908 -0.7390 -0.5279 -0.1878
 1750SOL     OW 6731   3.939   2.690   3.855 -0.0841 -0.4216  0.2927
 1750SOL    HW2 6732   3.864   2.638   3.828 -1.7161  1.6081  0.6259
 1750SOL    HW3 6733   3.964   2.654   3.940 -0.0314 -1.7360 -0.2654
 1750SOL    MW4 6734   3.933   2.679   3.863  0.0307 -0.3239 -0.5868
 1751SOL     OW 6735   2.703   0.671   6.150  0.4500 -0.2493  0.1041
 1751SOL    HW2 6736   2.633   0.710   6.098 -1.3326 -0.7040  2.0400
 1751SOL    HW3 6737   2.784   0.696   6.104 -0.8120  2.4197 -0.8608
 1751SOL    MW4 6738   2.705   0.680   6.137  0.1930  0.0690  0.1259
 1752SOL     OW 6739   0.915   0.132   1.927 -0.3555  0.2709  0.4078
 1752SOL    HW2 6740   0.952   0.193   1.991  0.2744  0.9884 -0.6008
 1752SOL    HW3 6741   0.920   0.179   1.844 -2.4167 -0.1115  0.0200
 1752SOL    MW4 6742   0.921   0.146   1.924 -0.2217  0.0485  0.0756
 1753SOL     OW 6743   4.512   5.814   5.286 -0.3956  0.0920 -0.1163
 1753SOL    HW2 6744   4.464   5.892   5.258 -0.3375 -0.2216 -1.1596
 1753SOL    HW3 6745   4.508   5.756   5.210  0.2979 -0.5686  0.3412
 1753SOL    MW4 6746   4.505   5.817   5.272 -0.0545  0.0813  0.5690
 1754SOL     OW 6747   2.078   5.366   4.255 -0.4615  0.7368 -0.4910
 1754SOL    HW2 6748   2.119   5.362   4.169  2.2878 -2.5639  0.7478
 1754SOL    HW3 6749   2.006   5.303   4.251 -0.1943  0.4197 -0.3028
 1754SOL    MW4 6750   2.074   5.357   4.243  0.0233 -0.0131  0.2929
 1755SOL     OW 6751   2.265   3.396   0.986 -0.0709  0.0886  0.0319
 1755SOL    HW2 6752   2.186   3.427   0.942  0.7742 -0.3270 -1.8506
 1755SOL    HW3 6753   2.233   3.361   1.069 -1.4640  2.7663  0.7548
 1755SOL    MW4 6754   2.250   3.395   0.991  0.1409  0.1152 -0.3760
 1756SOL     OW 6755   3.153   3.942   0.828  0.4207 -0.2077  0.0759
 1756SOL    HW2 6756   3.125   4.033   0.845 -0.0558 -0.0962 -1.1388
 1756SOL    HW3 6757   3.073   3.891   0.840  0.2272 -0.2029 -1.1054
 1756SOL    MW4 6758   3.138   3.948   0.832  0.0218 -0.2382 -0.1745
 1757SOL     OW 6759   4.524   4.454   1.452  0.5084 -0.3526  0.3815
 1757SOL    HW2 6760   4.579   4.426   1.379 -0.9227 -0.7657 -0.5715
 1757SOL    HW3 6761   4.470   4.378   1.473 -0.9243  0.5428  0.1114
 1757SOL    MW4 6762   4.524   4.440   1.445 -0.3626  0.0469  0.2668
 1758SOL     OW 6763   6.315   1.270   3.426 -0.5181 -0.0789  0.2716
 1758SOL    HW2 6764   6.351   1.264   3.514 -1.6201 -0.1210  0.7323
 1758SOL    HW3 6765   6.235   1.322   3.435 -0.8346 -0.3692 -0.6366
 1758SOL    MW4 6766   6.309   1.276   3.439 -0.2661 -0.3315 -0.2835
 1759SOL     OW 6767   4.300   0.448   5.206  0.2366  0.0426  0.6096
 1759SOL    HW2 6768   4.392   0.467   5.221  0.7494 -1.0106 -0.9042
 1759SOL    HW3 6769   4.287   0.464   5.112 -1.3942  1.1485  0.9769
 1759SOL    MW4 6770   4.310   0.452   5.195  0.2688 -0.0605  0.3381
 1760SOL     OW 6771   0.049   6.426   5.949 -0.0205  0.2065  0.2938
 1760SOL    HW2 6772   0.085   6.436   5.861  1.1737  0.5670  0.8105
 1760SOL    HW3 6773   0.066   6.511   5.992 -1.6901  0.4784  0.4914
 1760SOL    MW4 6774   0.056   6.439   5.943 -0.5472 -0.4412  0.1839
 1761SOL     OW 6775   5.077   4.663   0.145 -0.0175  0.2542  0.3975
 1761SOL    HW2 6776   5.004   4.662   0.083 -0.2165  2.2390  0.5323
 1761SOL    HW3 6777   5.088   4.572   0.171 -1.1524 -0.3587 -1.1280
 1761SOL    MW4 6778   5.069   4.651   0.140 -0.3694 -0.0609  0.3694
 1762SOL     OW 6779   0.032   3.951   2.792 -0.2505  0.0526 -0.2155
 1762SOL    HW2 6780  -0.054   3.992   2.797 -1.6125 -2.5190 -0.7317
 1762SOL    HW3 6781   0.034   3.910   2.706  1.1322 -0.6674  0.1273
 1762SOL    MW4 6782   0.021   3.951   2.782  0.3414  0.1580  0.1569
 1763SOL     OW 6783   3.989   5.470   1.253 -0.2953 -0.0785 -0.2353
 1763SOL    HW2 6784   3.953   5.446   1.168 -0.2536  0.1226 -0.3091
 1763SOL    HW3 6785   3.913   5.472   1.311 -0.1452 -1.6763  0.0704
 1763SOL    MW4 6786   3.974   5.467   1.250 -0.0972 -0.0725 -0.2338
 1764SOL     OW 6787   0.722   4.828   5.129  0.6288 -0.0773  0.1793
 1764SOL    HW2 6788   0.745   4.792   5.215  2.6935 -0.4097 -0.4621
 1764SOL    HW3 6789   0.804   4.861   5.094 -0.2687  0.5102 -1.4764
 1764SOL    MW4 6790   0.736   4.828   5.136  0.0363  0.1549  0.1186
 1765SOL     OW 6791   2.405   4.525   5.248  0.3471  0.3310 -0.0364
 1765SOL    HW2 6792   2.315   4.495   5.238  0.6674 -0.3964 -0.8451
 1765SOL    HW3 6793   2.398   4.619   5.263 -0.5001  0.4689 -1.1986
 1765SOL    MW4 6794   2.393   4.533   5.248 -0.4267 -0.1418  0.4616
 1766SOL     OW 6795   4.597   4.969   3.453 -0.0026  0.1293  0.2564
 1766SOL    HW2 6796   4.614   5.061   3.473  0.8340  0.3572 -1.3785
 1766SOL    HW3 6797   4.503   4.959   3.465 -0.3225  1.5391 -0.8411
 1766SOL    MW4 6798   4.587   4.980   3.458  0.6253 -0.1106 -0.1326
 1767SOL     OW 6799   3.230   2.842   1.066 -0.4028 -0.1310  0.6044
 1767SOL    HW2 6800   3.138   2.840   1.038 -0.3364 -2.2549  0.3835
 1767SOL    HW3 6801   3.264   2.923   1.029 -2.3310  1.0615  1.2469
 1767SOL    MW4 6802   3.222   2.852   1.058  0.1909 -0.2524  0.7597
 1768SOL     OW 6803   4.162   1.141   4.196  0.0161  0.3770  0.1676
 1768SOL    HW2 6804   4.108   1.083   4.142 -1.2051  1.4397  0.2228
 1768SOL    HW3 6805   4.201   1.203   4.134  2.5857 -1.3380 -0.1248
 1768SOL    MW4 6806   4.160   1.141   4.180  0.0150  0.1802  0.2209
 1769SOL     OW 6807   5.388   2.082   2.077  0.4333  0.2961  0.2156
 1769SOL    HW2 6808   5.473   2.082   2.120  0.4632  0.1167  0.1569
 1769SOL    HW3 6809   5.407   2.062   1.985  0.5859  2.7032 -0.3278
 1769SOL    MW4 6810   5.402   2.079   2.071  0.0145 -0.6442  0.2649
 1770SOL     OW 6811   0.787   2.916   3.310 -0.2056 -0.0971 -0.0012
 1770SOL    HW2 6812   0.747   2.865   3.239  0.8458  0.1665 -0.8043
 1770SOL    HW3 6813   0.718   2.977   3.336 -0.4488  0.1685 -1.1803
 1770SOL    MW4 6814   0.772   2.917   3.304 -0.0160  0.0973 -0.4958
 1771SOL     OW 6815   0.891   2.342   6.255  0.4333 -0.3094 -0.2804
 1771SOL    HW2 6816   0.948   2.362   6.181  0.1549 -0.3104 -0.4992
 1771SOL    HW3 6817   0.911   2.410   6.320  0.0470  0.2255 -0.7101
 1771SOL    MW4 6818   0.901   2.354   6.254  0.0002  0.1325 -0.2395
 1772SOL     OW 6819   2.684   1.860   0.696 -0.5440 -0.1825 -0.1118
 1772SOL    HW2 6820   2.624   1.826   0.763  1.9913 -2.6405  1.1012
 1772SOL    HW3 6821   2.685   1.954   0.711 -4.0984  0.0479 -0.3073
 1772SOL    MW4 6822   2.676   1.868   0.707  0.2126  0.1880  0.4946
 1773SOL     OW 6823   4.565   1.889   2.252  0.5270  0.0898  0.1982
 1773SOL    HW2 6824   4.609   1.811   2.217  0.5913 -0.2410  0.9848
 1773SOL    HW3 6825   4.555   1.870   2.345  0.3788  0.9541  0.3612
 1773SOL    MW4 6826   4.570   1.876   2.260 -0.2683 -0.0785 -0.4671
 1774SOL     OW 6827   1.633   4.532   0.520  0.0251 -0.4485 -0.0767
 1774SOL    HW2 6828   1.606   4.583   0.597  0.4818 -0.8337  0.3492
 1774SOL    HW3 6829   1.552   4.493   0.487 -0.5488  1.5160 -1.1489
 1774SOL    MW4 6830   1.619   4.534   0.526 -0.0094 -0.0244  0.8375
 1775SOL     OW 6831   6.089   4.527   3.770 -0.1544 -0.0157  0.3252
 1775SOL    HW2 6832   6.122   4.480   3.846  1.0911  0.4783  0.1113
 1775SOL    HW3 6833   5.995   4.512   3.771 -0.0238 -0.8194  1.4060
 1775SOL    MW4 6834   6.081   4.519   3.780 -0.1317  0.5244  0.5016
 1776SOL     OW 6835   2.130   5.572   5.883  0.4058  0.7721  0.2877
 1776SOL    HW2 6836   2.060   5.534   5.830  1.7715  1.0084 -1.8053
 1776SOL    HW3 6837   2.170   5.638   5.827  2.0697  0.9232  1.5670
 1776SOL    MW4 6838   2.126   5.576   5.869  0.1139  0.0981 -0.2428
 1777SOL     OW 6839   0.081   1.632   5.126  0.0284  0.9920  0.3819
 1777SOL    HW2 6840   0.076   1.548   5.172 -1.4025  2.2853  2.8301
 1777SOL    HW3 6841  -0.010   1.653   5.104  0.5392  1.1162 -1.8656
 1777SOL    MW4 6842   0.069   1.624   5.129  0.0126  0.7984 -0.3575
 1778SOL     OW 6843   5.196   0.243   2.789 -0.5337 -0.4479 -0.3749
 1778SOL    HW2 6844   5.198   0.193   2.707 -1.1283 -0.6518 -0.2751
 1778SOL    HW3 6845   5.122   0.303   2.778 -0.5691 -0.4243 -0.0226
 1778SOL    MW4 6846   5.186   0.244   2.777  0.2515  0.0591 -0.5947
 1779SOL     OW 6847   2.087   2.756   3.416 -0.7073  0.2484 -0.5065
 1779SOL    HW2 6848   2.054   2.839   3.451  0.8129  0.8139 -0.3196
 1779SOL    HW3 6849   2.083   2.768   3.321  0.2006  0.8410 -0.4773
 1779SOL    MW4 6850   2.082   2.769   3.408  0.0809 -0.2490 -0.1599
 1780SOL     OW 6851   2.280   1.049   5.352 -0.9011 -0.3711  0.1262
 1780SOL    HW2 6852   2.249   1.139   5.363 -0.8348 -0.3418  0.0785
 1780SOL    HW3 6853   2.315   1.025   5.438 -1.8823 -0.7274  0.4381
 1780SOL    MW4 6854   2.281   1.058   5.365 -0.1713  0.1353 -0.7073
 1781SOL     OW 6855   2.609   5.237   3.860 -0.0128  0.4371 -0.2604
 1781SOL    HW2 6856   2.541   5.284   3.910  0.3289  1.1246 -0.4298
 1781SOL    HW3 6857   2.691   5.273   3.892  0.2931 -0.5330  0.0793
 1781SOL    MW4 6858   2.611   5.248   3.871  0.4826  0.4977 -0.5730
 1782SOL     OW 6859   4.197   4.250   2.430 -0.5497 -0.3577  0.5836
 1782SOL    HW2 6860   4.196   4.231   2.524 -0.4064 -0.2525  0.6060
 1782SOL    HW3 6861   4.126   4.196   2.394 -0.4558 -0.5706  0.7187
 1782SOL    MW4 6862   4.187   4.240   2.438 -0.1014 -0.4818  0.6886
 1783SOL     OW 6863   1.751   1.668   6.215  0.1802  0.1692  0.3053
 1783SOL    HW2 6864   1.724   1.578   6.196 -0.7620 -0.2795  3.2633
 1783SOL    HW3 6865   1.845   1.670   6.193  0.2212 -1.5276  0.2195
 1783SOL    MW4 6866   1.760   1.657   6.210 -0.6277 -0.0339 -0.5633
 1784SOL     OW 6867   0.659   1.995   5.377 -0.0602 -0.3564  0.0145
 1784SOL    HW2 6868   0.747   2.011   5.410  1.1377 -3.1501 -1.4857
 1784SOL    HW3 6869   0.620   1.935   5.441 -0.8209  0.6466  0.5230
 1784SOL    MW4 6870   0.666   1.989   5.390 -0.3926 -0.0408 -0.2753
 1785SOL     OW 6871   3.614   5.374   3.760  0.2049  0.3143 -0.1499
 1785SOL    HW2 6872   3.618   5.300   3.821  0.1945  0.0090 -0.5184
 1785SOL    HW3 6873   3.548   5.350   3.696 -1.9622  1.8996  1.3551
 1785SOL    MW4 6874   3.606   5.361   3.760 -0.1525 -0.0585 -0.5999
 1786SOL     OW 6875   4.988   1.010   4.566  0.0065 -0.2329  0.1630
 1786SOL    HW2 6876   4.979   1.048   4.653 -1.9013 -1.7004  0.6764
 1786SOL    HW3 6877   5.075   0.971   4.565 -0.0499 -0.4381  1.5223
 1786SOL    MW4 6878   4.998   1.010   4.577 -0.0821  0.5769  0.3229
 1787SOL     OW 6879   1.096   3.106   6.043  0.3623  0.8603  0.6285
 1787SOL    HW2 6880   1.141   3.117   6.126  0.7714 -0.3588  0.5949
 1787SOL    HW3 6881   1.141   3.166   5.983  1.4494  0.2485  0.7946
 1787SOL    MW4 6882   1.108   3.115   6.046  0.0403  0.7656  0.2208
 1788SOL     OW 6883   6.300   3.530   2.331 -1.0580  0.0288 -0.1960
 1788SOL    HW2 6884   6.246   3.453   2.348 -2.0116  0.7641  0.1773
 1788SOL    HW3 6885   6.242   3.591   2.286 -0.1878  0.3686 -0.8774
 1788SOL    MW4 6886   6.285   3.528   2.327  0.7398  0.2674 -0.3429
 1789SOL     OW 6887   1.948   3.382   3.210 -0.3593 -0.0856 -0.2474
 1789SOL    HW2 6888   1.930   3.289   3.223 -0.2484 -0.0848 -0.0855
 1789SOL    HW3 6889   1.947   3.420   3.298  0.9277 -0.1800 -0.1775
 1789SOL    MW4 6890   1.946   3.375   3.223  0.7449 -0.0663  0.0279
 1790SOL     OW 6891   2.444   0.090   4.221  0.8266 -0.2255  0.5151
 1790SOL    HW2 6892   2.499   0.105   4.298 -1.1201  0.1398  1.9199
 1790SOL    HW3 6893   2.376   0.157   4.227 -1.2192 -2.1455  0.3024
 1790SOL    MW4 6894   2.442   0.101   4.232 -0.2213 -1.0022  0.8880
 1791SOL     OW 6895   5.003   5.867   1.126 -0.3541 -0.1794  0.5174
 1791SOL    HW2 6896   4.912   5.881   1.102 -0.4269  0.5664  1.1885
 1791SOL    HW3 6897   5.029   5.789   1.077 -1.2134 -0.1380 -0.0301
 1791SOL    MW4 6898   4.995   5.858   1.116  0.0055 -0.1199 -0.2440
 1792SOL     OW 6899   0.151   1.752   3.418  0.1247  0.9786 -0.6511
 1792SOL    HW2 6900   0.158   1.658   3.401 -0.1469  0.6687  0.8863
 1792SOL    HW3 6901   0.065   1.776   3.384  0.7139  0.9745 -2.2560
 1792SOL    MW4 6902   0.141   1.743   3.411  0.2563 -0.4972 -0.5439
 1793SOL     OW 6903   3.482   5.344   4.849 -0.2165  0.4116  0.1541
 1793SOL    HW2 6904   3.406   5.289   4.867  0.9698 -0.9152  1.3544
 1793SOL    HW3 6905   3.473   5.366   4.756 -0.7386 -1.8615 -0.4020
 1793SOL    MW4 6906   3.471   5.339   4.839  0.4926 -0.4262  0.2200
 1794SOL     OW 6907   1.113   5.142   3.289  0.0382  0.4189 -0.3859
 1794SOL    HW2 6908   1.186   5.176   3.237  0.1855 -0.5053 -0.7908
 1794SOL    HW3 6909   1.045   5.122   3.226 -0.5188  1.1109 -0.0228
 1794SOL    MW4 6910   1.114   5.144   3.274 -0.4177  0.0706  0.2310
 1795SOL     OW 6911   5.653   5.701   4.548 -0.1901 -0.6206  0.0370
 1795SOL    HW2 6912   5.672   5.743   4.464 -0.8289 -2.4683 -1.0964
 1795SOL    HW3 6913   5.559   5.688   4.547 -0.0188 -1.9773  0.3773
 1795SOL    MW4 6914   5.643   5.705   4.537 -0.0583  0.2327  0.3561
 1796SOL     OW 6915   0.235   0.024   1.095 -0.0654 -0.0851  0.5949
 1796SOL    HW2 6916   0.283  -0.048   1.135  2.3249 -1.1351 -3.5035
 1796SOL    HW3 6917   0.155  -0.016   1.062  0.3275 -0.4719  0.0745
 1796SOL    MW4 6918   0.231   0.009   1.096 -0.4054  0.6463  0.1300
 1797SOL     OW 6919   6.278   6.111   4.236 -0.8194  0.2932 -0.3362
 1797SOL    HW2 6920   6.347   6.168   4.270 -1.4341  0.7382  0.1725
 1797SOL    HW3 6921   6.197   6.150   4.268 -1.2443 -0.9442  0.1428
 1797SOL    MW4 6922   6.277   6.124   4.245  0.0151  0.3325 -0.4221
 1798SOL     OW 6923   1.102   6.266   4.582 -0.8000 -0.3289  0.0228
 1798SOL    HW2 6924   1.056   6.224   4.654 -0.7367  0.9462  0.8361
 1798SOL    HW3 6925   1.188   6.222   4.579 -1.3287 -1.3951 -0.2711
 1798SOL    MW4 6926   1.108   6.254   4.591 -0.0918  0.2636 -0.1754
 1799SOL     OW 6927   5.125   5.066   3.303  0.0516 -0.0838 -0.2513
 1799SOL    HW2 6928   5.101   5.028   3.218  0.8483 -0.5800 -0.2589
 1799SOL    HW3 6929   5.151   4.991   3.357 -1.8330  0.0369  0.9428
 1799SOL    MW4 6930   5.125   5.051   3.299 -0.2381  0.1897  0.3350
 1800SOL     OW 6931   5.806   3.822   3.278 -0.0280  0.3992  0.6403
 1800SOL    HW2 6932   5.796   3.802   3.371 -2.5020  0.0968  0.3718
 1800SOL    HW3 6933   5.786   3.915   3.271  0.3276  0.4622  0.4226
 1800SOL    MW4 6934   5.802   3.832   3.290  0.7767 -0.6023  0.0781
 1801SOL     OW 6935   2.808   3.534   0.879 -0.1193  0.6935 -0.1949
 1801SOL    HW2 6936   2.778   3.488   0.800 -0.1794 -0.6907  0.5941
 1801SOL    HW3 6937   2.811   3.465   0.946  1.7531  1.4434  0.5410
 1801SOL    MW4 6938   2.804   3.519   0.877  0.2634  0.2007  0.6216
 1802SOL     OW 6939   6.074   1.207   2.764 -0.1586  0.6418 -0.6212
 1802SOL    HW2 6940   5.995   1.154   2.753  1.1431 -1.3863 -0.5016
 1802SOL    HW3 6941   6.126   1.190   2.686  1.2348  0.0279  0.4089
 1802SOL    MW4 6942   6.070   1.198   2.752 -0.3021  0.2138  0.0776
 1803SOL     OW 6943   0.912   5.492   3.615  0.3445 -0.0602  0.1646
 1803SOL    HW2 6944   1.000   5.461   3.595  1.4141  2.5017  0.5575
 1803SOL    HW3 6945   0.869   5.417   3.656  2.6610 -1.0858  0.8628
 1803SOL    MW4 6946   0.918   5.478   3.618  0.0258  0.3948 -0.0919
 1804SOL     OW 6947   2.759   6.203   6.368  0.1107 -0.7413  0.1305
 1804SOL    HW2 6948   2.767   6.122   6.418  0.6512 -0.6214  0.2343
 1804SOL    HW3 6949   2.827   6.197   6.301 -0.6398 -0.9314 -0.6401
 1804SOL    MW4 6950   2.769   6.192   6.366  0.0601  0.9352 -0.0556
 1805SOL     OW 6951   4.501   2.075   1.184 -0.2362 -0.2674  0.5452
 1805SOL    HW2 6952   4.553   2.153   1.163 -0.7281  0.4730  1.9713
 1805SOL    HW3 6953   4.506   2.022   1.105  0.6586  0.9065 -0.2298
 1805SOL    MW4 6954   4.509   2.078   1.171 -0.0805  0.0940 -0.1537
 1806SOL     OW 6955   3.091   0.033   6.291  0.0944 -0.2294 -0.1399
 1806SOL    HW2 6956   3.009   0.048   6.244 -0.7474  0.8198  1.5858
 1806SOL    HW3 6957   3.065   0.023   6.383  2.0050  1.5695  0.6642
 1806SOL    MW4 6958   3.076   0.033   6.297 -0.4566 -0.1516  0.8384
 1807SOL     OW 6959   3.608   5.880   4.953 -0.2152 -0.4971 -0.0018
 1807SOL    HW2 6960   3.586   5.789   4.933 -2.9397 -0.0484  0.5893
 1807SOL    HW3 6961   3.573   5.896   5.040  0.3672  1.0956 -0.0108
 1807SOL    MW4 6962   3.601   5.870   4.962  0.2002  0.5791  0.2292
 1808SOL     OW 6963   1.370   3.581   0.690  0.3464 -0.3923  0.2683
 1808SOL    HW2 6964   1.439   3.586   0.623  1.0777  0.5808  1.0680
 1808SOL    HW3 6965   1.388   3.654   0.748 -1.7038  0.1950  0.2136
 1808SOL    MW4 6966   1.382   3.591   0.689 -0.1868  0.0729  0.1015
 1809SOL     OW 6967   3.154   2.391   1.761  1.2735 -0.1665  0.2947
 1809SOL    HW2 6968   3.183   2.352   1.679  1.0179 -0.9733  0.5795
 1809SOL    HW3 6969   3.233   2.394   1.815  1.0982 -1.3116  0.6572
 1809SOL    MW4 6970   3.168   2.386   1.757  0.4250 -0.1695 -0.3564
 1810SOL     OW 6971   3.211   3.645   2.241 -0.2124  0.0347  0.1731
 1810SOL    HW2 6972   3.157   3.604   2.308 -1.2527  2.2677  0.8164
 1810SOL    HW3 6973   3.179   3.735   2.236  2.8446  1.2306 -0.1077
 1810SOL    MW4 6974   3.199   3.652   2.249  0.1925  0.1575 -0.2344
 1811SOL     OW 6975   0.503   2.908   5.606 -0.6208 -0.2295  0.0252
 1811SOL    HW2 6976   0.436   2.847   5.574  0.6595 -1.7077  0.0647
 1811SOL    HW3 6977   0.546   2.862   5.678  0.6481  0.5543 -0.1948
 1811SOL    MW4 6978   0.500   2.894   5.611 -0.3269  0.4125 -0.8830
 1812SOL     OW 6979   4.341   5.642   5.937  0.2248 -0.0957  0.7770
 1812SOL    HW2 6980   4.405   5.703   5.973  0.0218 -0.2875  1.4792
 1812SOL    HW3 6981   4.291   5.694   5.874  0.4062  0.3231  0.9752
 1812SOL    MW4 6982   4.343   5.657   5.934 -0.6547  0.5919  0.0824
 1813SOL     OW 6983   2.331   4.304   3.747 -0.1453 -0.2874  0.0629
 1813SOL    HW2 6984   2.285   4.387   3.762  0.9654  0.4942 -0.7048
 1813SOL    HW3 6985   2.385   4.320   3.669 -1.2382 -2.2974 -1.1895
 1813SOL    MW4 6986   2.332   4.317   3.739 -0.3135 -0.1062 -0.6405
 1814SOL     OW 6987   0.185   0.955   5.534 -0.4524  0.1164 -0.3118
 1814SOL    HW2 6988   0.229   0.895   5.474 -0.3236  0.2136 -0.3142
 1814SOL    HW3 6989   0.107   0.983   5.486 -0.6477 -0.2496 -0.2073
 1814SOL    MW4 6990   0.180   0.951   5.520  0.1591  0.2704 -0.5571
 1815SOL     OW 6991   0.277   5.626   0.848  0.1883 -0.8019  0.1837
 1815SOL    HW2 6992   0.351   5.663   0.896  0.1924 -0.1606 -0.2999
 1815SOL    HW3 6993   0.207   5.691   0.857 -0.3992 -1.5103  0.8382
 1815SOL    MW4 6994   0.277   5.640   0.855  0.1562  0.4218  0.5754
 1816SOL     OW 6995   3.803   5.579   1.974 -0.4664 -0.3820 -0.1833
 1816SOL    HW2 6996   3.864   5.599   1.903  0.0443  0.3321  0.4410
 1816SOL    HW3 6997   3.718   5.611   1.943  0.1281  1.8363  0.3423
 1816SOL    MW4 6998   3.800   5.586   1.961 -0.8875  0.3350 -0.0741
 1817SOL     OW 6999   6.209   2.662   5.330 -1.2415 -0.4262  0.2423
 1817SOL    HW2 7000   6.274   2.729   5.314 -0.2007 -0.7236  2.8359
 1817SOL    HW3 7001   6.147   2.702   5.391 -0.9853 -1.5494  1.2832
 1817SOL    MW4 7002   6.209   2.676   5.336  0.0224  0.0222  0.4985
 1818SOL     OW 7003   5.903   4.294   4.940 -0.6095 -0.0738  0.7118
 1818SOL    HW2 7004   5.954   4.374   4.951  0.2964 -0.3174 -1.3032
 1818SOL    HW3 7005   5.925   4.241   5.017 -0.3862  1.1486  1.5215
 1818SOL    MW4 7006   5.913   4.297   4.952 -0.1266  0.3679  0.3610
 1819SOL     OW 7007   5.165   2.265   0.092 -0.6699  0.3936 -0.0651
 1819SOL    HW2 7008   5.086   2.302   0.132 -0.0159  2.3373 -0.4726
 1819SOL    HW3 7009   5.235   2.324   0.118  0.0805  0.6696 -2.5294
 1819SOL    MW4 7010   5.164   2.277   0.101 -0.1592  0.9740 -0.1224
 1820SOL     OW 7011   5.210   5.090   6.183 -0.4176 -0.2411  0.1916
 1820SOL    HW2 7012   5.218   4.998   6.207  0.3072  0.1281  1.4847
 1820SOL    HW3 7013   5.298   5.114   6.153 -1.0900 -0.4601 -2.1061
 1820SOL    MW4 7014   5.223   5.081   6.182  0.3225  0.0058  0.2749
 1821SOL     OW 7015   1.364   2.259   0.005 -0.3229  0.4249  0.0076
 1821SOL    HW2 7016   1.334   2.257  -0.086  1.3144  0.0231 -0.5493
 1821SOL    HW3 7017   1.366   2.352   0.028  0.5875  0.6170 -0.8303
 1821SOL    MW4 7018   1.360   2.271  -0.004 -0.0008  0.4046  0.5411
 1822SOL     OW 7019   3.295   4.541   0.345 -0.1824  0.1028 -0.8773
 1822SOL    HW2 7020   3.363   4.474   0.336  1.6543  1.8921 -1.1143
 1822SOL    HW3 7021   3.304   4.594   0.266 -0.1029  1.8971  0.2854
 1822SOL    MW4 7022   3.305   4.539   0.333 -0.1121  0.0669  0.2595
 1823SOL     OW 7023   4.382   5.503   1.802 -0.1462 -0.4101  0.1979
 1823SOL    HW2 7024   4.355   5.560   1.874 -0.3451  1.1287 -1.0190
 1823SOL    HW3 7025   4.470   5.473   1.826  0.0302  0.5570  0.8246
 1823SOL    MW4 7026   4.390   5.507   1.815  0.1698  0.2226  0.1555
 1824SOL     OW 7027   4.446   6.293   1.351  0.1503 -0.5154  0.0910
 1824SOL    HW2 7028   4.355   6.299   1.321  0.2940 -0.6312 -0.3818
 1824SOL    HW3 7029   4.493   6.257   1.276  0.4719 -1.0874  0.5581
 1824SOL    MW4 7030   4.440   6.289   1.337  0.1220 -0.4863 -0.8665
 1825SOL     OW 7031   3.196   4.677   4.239 -0.2624  0.1732 -0.1191
 1825SOL    HW2 7032   3.252   4.704   4.166  0.1035 -0.5689 -0.1197
 1825SOL    HW3 7033   3.107   4.693   4.208 -0.1106 -0.1979 -0.7642
 1825SOL    MW4 7034   3.191   4.682   4.225 -0.4717  0.1205  0.2826
 1826SOL     OW 7035   1.438   0.439   6.253 -0.4534  0.0737 -0.0848
 1826SOL    HW2 7036   1.492   0.391   6.189  2.8956  1.7430  1.2261
 1826SOL    HW3 7037   1.433   0.380   6.328 -1.9947 -0.7546 -0.7937
 1826SOL    MW4 7038   1.445   0.425   6.254  0.4521  0.2910 -0.0673
 1827SOL     OW 7039   5.275   3.104   0.166 -0.0802  0.4861 -0.6982
 1827SOL    HW2 7040   5.327   3.175   0.204  2.9921 -3.2694  3.0263
 1827SOL    HW3 7041   5.337   3.051   0.117 -1.2284 -1.8454  0.1795
 1827SOL    MW4 7042   5.290   3.106   0.165  0.5480  0.4079  0.7827
 1828SOL     OW 7043   2.959   4.806   0.928 -0.3461 -0.5338 -0.0002
 1828SOL    HW2 7044   2.987   4.796   0.837 -0.4822  1.0309 -0.2285
 1828SOL    HW3 7045   2.902   4.730   0.943  2.4699 -2.8671 -0.0540
 1828SOL    MW4 7046   2.955   4.794   0.918 -0.0284 -0.5446  0.4257
 1829SOL     OW 7047   4.267   1.577   4.781  0.1927 -0.0935  0.1693
 1829SOL    HW2 7048   4.321   1.653   4.761  0.5290 -0.5904 -0.8847
 1829SOL    HW3 7049   4.226   1.598   4.865  0.4217  1.1643 -0.0117
 1829SOL    MW4 7050   4.268   1.590   4.789  0.0229 -0.3502 -0.1579
 1830SOL     OW 7051   6.095   3.123   5.168  0.4862 -0.0663 -0.1947
 1830SOL    HW2 7052   6.018   3.126   5.112  0.5383 -0.5148 -0.2953
 1830SOL    HW3 7053   6.062   3.137   5.256  0.1003 -1.5377 -0.0684
 1830SOL    MW4 7054   6.081   3.125   5.172  0.2115 -0.6754  0.3177
 1831SOL     OW 7055   5.439   2.058   2.546  0.0124 -0.3736 -0.8373
 1831SOL    HW2 7056   5.345   2.041   2.547  0.0294 -0.5136  0.8515
 1831SOL    HW3 7057   5.446   2.152   2.528 -0.6626  0.4469  2.5733
 1831SOL    MW4 7058   5.427   2.068   2.543  0.6004 -0.4387 -0.0213
 1832SOL     OW 7059   0.184   3.702   0.797 -0.4710 -0.0052  0.3078
 1832SOL    HW2 7060   0.106   3.658   0.765 -0.7781  1.9962 -1.9968
 1832SOL    HW3 7061   0.212   3.758   0.724  0.8893  2.2509  2.3984
 1832SOL    MW4 7062   0.178   3.704   0.783 -0.2276 -0.0223  0.3858
 1833SOL     OW 7063   2.431   3.963   1.122 -0.1511 -0.0547  0.2710
 1833SOL    HW2 7064   2.347   3.934   1.159 -0.2099  0.5509  0.6102
 1833SOL    HW3 7065   2.495   3.899   1.153 -0.5176 -0.6534 -0.1740
 1833SOL    MW4 7066   2.428   3.951   1.131  0.7052 -0.0840  0.8735
 1834SOL     OW 7067   3.852   1.872   2.720  0.3156 -0.6049  0.3614
 1834SOL    HW2 7068   3.879   1.955   2.760 -1.6385 -0.1026  0.7302
 1834SOL    HW3 7069   3.820   1.819   2.793 -2.2986 -0.0757 -0.2740
 1834SOL    MW4 7070   3.851   1.876   2.735 -0.0285 -0.1380 -0.3055
 1835SOL     OW 7071   5.311   1.353   4.438  0.4704 -0.4981  0.3292
 1835SOL    HW2 7072   5.239   1.295   4.413 -0.1438 -0.0732  1.0607
 1835SOL    HW3 7073   5.308   1.354   4.534  3.3445 -2.8276  0.5883
 1835SOL    MW4 7074   5.301   1.345   4.447 -0.5922  0.2229 -0.1362
 1836SOL     OW 7075   0.039   1.669   4.040  0.4694  0.4868 -0.0774
 1836SOL    HW2 7076  -0.007   1.590   4.011 -0.5149  0.9934  0.0486
 1836SOL    HW3 7077  -0.025   1.740   4.027  0.9549  1.1101  0.8057
 1836SOL    MW4 7078   0.024   1.668   4.034 -0.2258 -0.5666 -0.1925
 1837SOL     OW 7079   3.793   3.568   2.656  0.2280  0.2269 -0.0792
 1837SOL    HW2 7080   3.871   3.532   2.614 -1.8027 -0.1964 -3.9420
 1837SOL    HW3 7081   3.723   3.553   2.594 -2.8175  1.5407  2.7141
 1837SOL    MW4 7082   3.794   3.562   2.642  0.4599  1.0600 -0.0521
 1838SOL     OW 7083   5.820   5.052   0.607 -0.1206  0.1712  0.0164
 1838SOL    HW2 7084   5.860   5.069   0.521 -0.3570  0.9128  0.0492
 1838SOL    HW3 7085   5.847   5.126   0.661 -0.6063  0.0992  0.3652
 1838SOL    MW4 7086   5.829   5.064   0.603 -0.2928  0.0672  0.6518
 1839SOL     OW 7087   5.103   5.952   6.241 -0.1536 -0.4064  0.1216
 1839SOL    HW2 7088   5.195   5.927   6.231 -0.0556  0.1312 -0.4620
 1839SOL    HW3 7089   5.098   5.994   6.327  0.7931  2.1067 -0.9424
 1839SOL    MW4 7090   5.114   5.955   6.251  0.2072 -0.1982  0.1302
 1840SOL     OW 7091   0.930   0.289   0.915 -0.2283  0.2274 -0.0079
 1840SOL    HW2 7092   0.925   0.235   0.994  3.4630  0.6846  0.7207
 1840SOL    HW3 7093   0.907   0.377   0.944  0.5385  0.2860  0.4236
 1840SOL    MW4 7094   0.926   0.294   0.929 -0.1360  0.3287 -0.0655
 1841SOL     OW 7095   4.086   4.988   3.483  0.0831  0.2870  0.0459
 1841SOL    HW2 7096   4.067   5.007   3.575  0.4351  1.3372 -0.0883
 1841SOL    HW3 7097   4.164   5.039   3.463 -0.6127  0.9331 -1.1378
 1841SOL    MW4 7098   4.094   4.997   3.493  0.1611  0.3927  0.2666
 1842SOL     OW 7099   6.400   2.389   5.257  0.2633 -0.0944  0.8578
 1842SOL    HW2 7100   6.488   2.420   5.278  0.5800 -1.9774  2.6714
 1842SOL    HW3 7101   6.342   2.453   5.299  0.7422  1.0126 -0.1223
 1842SOL    MW4 7102   6.404   2.401   5.265 -0.9269 -0.6603 -0.6386
 1843SOL     OW 7103   4.350   5.223   1.235  0.1314  0.3412 -0.0607
 1843SOL    HW2 7104   4.271   5.181   1.270 -0.2184  1.0227 -0.0200
 1843SOL    HW3 7105   4.338   5.316   1.252  0.2048  0.6371 -1.4967
 1843SOL    MW4 7106   4.338   5.229   1.242  0.4531  0.9480  0.3176
 1844SOL     OW 7107   1.385   4.426   0.464 -0.6962 -0.0622 -0.3995
 1844SOL    HW2 7108   1.360   4.341   0.429  0.4546 -0.7844  0.4456
 1844SOL    HW3 7109   1.371   4.487   0.392 -0.5777 -1.1243 -1.3515
 1844SOL    MW4 7110   1.380   4.423   0.450  0.6716  0.0393 -0.5574
 1845SOL     OW 7111   2.556   4.728   4.461 -0.2135  0.5887 -0.5922
 1845SOL    HW2 7112   2.632   4.768   4.503 -0.3884 -0.5149  0.8769
 1845SOL    HW3 7113   2.524   4.664   4.525 -1.7245  0.2456 -1.6216
 1845SOL    MW4 7114   2.562   4.725   4.475  0.0015  0.0846 -0.4768
 1846SOL     OW 7115   1.022   6.282   0.143  0.6183  0.1318 -0.6210
 1846SOL    HW2 7116   0.939   6.296   0.098  1.0628 -1.3188 -2.0007
 1846SOL    HW3 7117   1.000   6.229   0.220  0.0705  1.1950 -0.0303
 1846SOL    MW4 7118   1.008   6.277   0.147  0.1294  0.4617 -0.2156
 1847SOL     OW 7119   5.363   5.018   0.849 -0.9170  0.2850  0.1508
 1847SOL    HW2 7120   5.404   5.063   0.775  1.4002 -0.2707  1.0429
 1847SOL    HW3 7121   5.285   4.976   0.811 -0.0802  0.4447 -1.8524
 1847SOL    MW4 7122   5.358   5.019   0.834  0.0314  0.0480  0.8768
 1848SOL     OW 7123   0.930   5.376   0.775  0.3358  0.3134  0.2445
 1848SOL    HW2 7124   0.891   5.305   0.824  0.1764  0.9059  0.9966
 1848SOL    HW3 7125   0.879   5.381   0.694  0.2439 -0.3148  0.2649
 1848SOL    MW4 7126   0.918   5.368   0.771  0.6008 -0.2833 -0.0313
 1849SOL     OW 7127   1.449   4.974   4.206  0.1599  0.0033 -0.1369
 1849SOL    HW2 7128   1.464   4.880   4.219  0.8686  0.2371  0.7928
 1849SOL    HW3 7129   1.365   4.978   4.161 -0.5278 -1.0220  0.9924
 1849SOL    MW4 7130   1.440   4.962   4.202  0.0702 -1.0304 -0.8442
 1850SOL     OW 7131   5.761   4.282   1.035 -0.3539 -0.1063  0.1503
 1850SOL    HW2 7132   5.669   4.260   1.023 -0.6505  1.3533 -0.5330
 1850SOL    HW3 7133   5.763   4.336   1.114 -0.2171  0.4536 -0.2203
 1850SOL    MW4 7134   5.749   4.286   1.044  0.8849  0.1345  0.0971
 1851SOL     OW 7135   2.726   4.857   0.599  0.0632  0.2931  0.0795
 1851SOL    HW2 7136   2.701   4.767   0.579 -2.4108  1.2669 -1.8040
 1851SOL    HW3 7137   2.683   4.877   0.682  0.1388 -0.0845  0.2086
 1851SOL    MW4 7138   2.717   4.848   0.607 -0.6179  0.1908 -0.5646
 1852SOL     OW 7139   3.388   4.944   3.803 -0.3145 -0.4643 -0.0699
 1852SOL    HW2 7140   3.419   4.893   3.728  0.5070  0.0928 -0.1140
 1852SOL    HW3 7141   3.335   5.013   3.764 -0.8011 -0.8280 -0.0599
 1852SOL    MW4 7142   3.385   4.946   3.788 -0.3399  0.5140  0.0802
 1853SOL     OW 7143   5.651   4.984   4.102 -0.1354  0.1637  0.2641
 1853SOL    HW2 7144   5.655   4.894   4.071  3.5058  0.0448  0.6556
 1853SOL    HW3 7145   5.634   4.977   4.196  0.2824 -0.1404  0.3176
 1853SOL    MW4 7146   5.650   4.971   4.110  0.2089 -0.1739 -0.1604
 1854SOL     OW 7147   0.299   2.957   1.306 -0.1126  0.4163 -0.5182
 1854SOL    HW2 7148   0.381   2.932   1.264  0.5782  1.3124  0.2536
 1854SOL    HW3 7149   0.232   2.944   1.239  0.6805 -0.1636 -1.2085
 1854SOL    MW4 7150   0.301   2.952   1.292  0.2183  0.0573 -0.5734
 1855SOL     OW 7151   2.845   5.569   3.392 -0.2011  0.4073 -0.1274
 1855SOL    HW2 7152   2.885   5.530   3.470  0.5597 -0.3885 -0.8972
 1855SOL    HW3 7153   2.899   5.645   3.373 -0.3138  0.5326  0.0549
 1855SOL    MW4 7154   2.858   5.574   3.400  0.2041 -0.0838 -0.3996
 1856SOL     OW 7155   5.101   2.552   0.406  0.0595 -0.1140 -0.6050
 1856SOL    HW2 7156   5.166   2.482   0.404 -1.3693 -1.5697  0.8852
 1856SOL    HW3 7157   5.145   2.625   0.450  1.1467 -0.5495 -0.9559
 1856SOL    MW4 7158   5.115   2.552   0.412  0.3491  0.0498 -0.5115
 1857SOL     OW 7159   0.214   0.023   3.502  0.2245  0.2326  0.1841
 1857SOL    HW2 7160   0.235   0.016   3.595  0.4939  0.2798  0.1271
 1857SOL    HW3 7161   0.187   0.115   3.491 -0.6449  0.0090  0.3842
 1857SOL    MW4 7162   0.213   0.035   3.513  0.4281 -0.8430  0.4926
 1858SOL     OW 7163   2.355   2.763   1.957 -0.1700 -0.1503  0.0815
 1858SOL    HW2 7164   2.361   2.742   1.864 -1.3057 -0.2073  0.0056
 1858SOL    HW3 7165   2.342   2.858   1.960 -1.2493 -0.2876  0.1143
 1858SOL    MW4 7166   2.354   2.773   1.945 -0.8667 -0.3943  0.0862
 1859SOL     OW 7167   4.038   2.573   3.158 -0.3907  0.5251  0.3236
 1859SOL    HW2 7168   3.964   2.524   3.194 -0.1376  0.0701  0.2352
 1859SOL    HW3 7169   4.002   2.658   3.134 -0.6398  0.7227  1.3594
 1859SOL    MW4 7170   4.023   2.578   3.160 -0.4350 -0.1374 -0.6450
 1860SOL     OW 7171   4.665   6.324   1.012  0.0606  0.0358  0.3922
 1860SOL    HW2 7172   4.705   6.381   1.078 -0.4493  0.4367  0.3633
 1860SOL    HW3 7173   4.642   6.383   0.940 -1.3813 -0.0203  0.7781
 1860SOL    MW4 7174   4.667   6.339   1.011  0.5554 -0.1758 -0.3894
 1861SOL     OW 7175   2.944   3.750   4.464 -0.2326 -0.1213  0.6776
 1861SOL    HW2 7176   2.866   3.694   4.467 -1.0187  0.8846 -0.2787
 1861SOL    HW3 7177   3.015   3.689   4.442 -0.8471 -0.9474  0.8962
 1861SOL    MW4 7178   2.943   3.734   4.461 -0.2254 -0.5614 -0.6754
 1862SOL     OW 7179   0.598   1.822   1.510 -0.4457 -0.0042 -0.1787
 1862SOL    HW2 7180   0.647   1.904   1.506  0.4153 -0.5035 -0.1451
 1862SOL    HW3 7181   0.664   1.756   1.529 -1.4033 -0.4578  1.7519
 1862SOL    MW4 7182   0.613   1.824   1.512  0.0404  0.1500 -0.2990
 1863SOL     OW 7183   2.033   6.391   0.131 -0.3787 -0.1716 -0.4323
 1863SOL    HW2 7184   1.942   6.409   0.107 -0.7083  2.4016  2.1234
 1863SOL    HW3 7185   2.036   6.407   0.225  2.7361 -0.1123 -0.4480
 1863SOL    MW4 7186   2.021   6.396   0.140 -0.4594 -0.4742 -0.5536
 1864SOL     OW 7187   1.791   0.291   3.600 -0.1436  0.5235 -0.0016
 1864SOL    HW2 7188   1.817   0.200   3.590 -1.3203  0.1566  0.0986
 1864SOL    HW3 7189   1.787   0.325   3.510 -0.3204  0.2882 -0.0827
 1864SOL    MW4 7190   1.794   0.284   3.587 -0.3692  0.1159 -0.0234
 1865SOL     OW 7191   5.488   1.646   3.168 -0.1498 -0.1679 -0.0971
 1865SOL    HW2 7192   5.514   1.608   3.252 -1.4862 -2.1487 -0.5053
 1865SOL    HW3 7193   5.472   1.570   3.112 -1.6184  1.0501 -1.4033
 1865SOL    MW4 7194   5.490   1.631   3.172  0.2003  0.6207  0.3731
 1866SOL     OW 7195   2.663   1.477   3.016  0.0418  0.1554 -0.2160
 1866SOL    HW2 7196   2.689   1.448   2.928 -2.0381  2.0418 -1.5540
 1866SOL    HW3 7197   2.676   1.400   3.071  0.3507 -1.4497 -2.3974
 1866SOL    MW4 7198   2.668   1.463   3.012  0.7874  0.1162  0.4219
 1867SOL     OW 7199   1.737   0.453   5.563  0.6083  0.4601 -0.8047
 1867SOL    HW2 7200   1.668   0.441   5.629  0.1584  0.1142 -1.3306
 1867SOL    HW3 7201   1.814   0.412   5.602  0.0684 -0.7231 -0.9429
 1867SOL    MW4 7202   1.738   0.446   5.577  0.0101 -0.2767  0.2535
 1868SOL     OW 7203   1.836   6.178   2.766  0.0993  0.7017  0.7083
 1868SOL    HW2 7204   1.866   6.137   2.847 -0.1681  0.3151  0.6097
 1868SOL    HW3 7205   1.892   6.141   2.698  0.9137  1.6700  0.8159
 1868SOL    MW4 7206   1.848   6.168   2.768 -0.3465 -0.2567  0.1830
 1869SOL     OW 7207   2.442   6.172   1.934 -0.0873 -0.4560  0.1478
 1869SOL    HW2 7208   2.485   6.175   2.019 -0.7877  1.6843  0.4826
 1869SOL    HW3 7209   2.436   6.263   1.907 -1.2251 -0.9797 -1.5179
 1869SOL    MW4 7210   2.447   6.184   1.942 -0.1211  0.4851 -0.3352
 1870SOL     OW 7211   4.000   5.387   0.012  0.1709 -0.3377 -0.4661
 1870SOL    HW2 7212   4.045   5.466   0.041  2.4261 -1.0946 -1.6636
 1870SOL    HW3 7213   4.004   5.390  -0.084  0.5427 -2.0058 -0.5379
 1870SOL    MW4 7214   4.006   5.398   0.003  0.2022 -0.2079  0.5285
 1871SOL     OW 7215   0.571   3.793   4.012 -0.6455  0.0852  0.3124
 1871SOL    HW2 7216   0.493   3.749   4.046 -0.7056 -0.7344 -0.8234
 1871SOL    HW3 7217   0.605   3.733   3.946  2.0590 -0.4818  2.0813
 1871SOL    MW4 7218   0.565   3.779   4.008 -0.3264  0.0177  0.7952
 1872SOL     OW 7219   3.181   3.892   2.765  0.6735  0.1140 -0.0071
 1872SOL    HW2 7220   3.231   3.896   2.684 -0.1136 -1.3096 -0.5919
 1872SOL    HW3 7221   3.230   3.947   2.826  1.5711  0.7644 -1.2768
 1872SOL    MW4 7222   3.194   3.899   2.763 -0.1732  0.3937  0.2148
 1873SOL     OW 7223   3.375   0.936   4.883  0.5471 -0.1399  0.4497
 1873SOL    HW2 7224   3.317   0.897   4.818 -0.2067  0.5625  0.6848
 1873SOL    HW3 7225   3.362   0.885   4.962  0.2931 -0.0189  0.4854
 1873SOL    MW4 7226   3.366   0.924   4.885  0.2080  0.0004 -0.1064
 1874SOL     OW 7227   3.847   3.548   1.014 -0.3691  0.4543 -0.1517
 1874SOL    HW2 7228   3.903   3.472   1.030 -0.9868  0.0350  0.0517
 1874SOL    HW3 7229   3.907   3.617   0.986  0.1381 -0.2630 -0.8673
 1874SOL    MW4 7230   3.862   3.547   1.013 -0.3239  0.1299 -0.3017
 1875SOL     OW 7231   3.172   2.944   4.742  0.2913  0.3431  0.2705
 1875SOL    HW2 7232   3.264   2.970   4.748  0.0851  0.8252  2.5165
 1875SOL    HW3 7233   3.158   2.925   4.650  2.3981  1.1641 -0.2820
 1875SOL    MW4 7234   3.182   2.945   4.731 -0.6707 -0.1973 -0.6250
 1876SOL     OW 7235   5.596   2.929   0.364 -0.3134  0.1815  0.1218
 1876SOL    HW2 7236   5.570   2.943   0.273 -0.5394  0.0253  0.1616
 1876SOL    HW3 7237   5.586   2.835   0.378 -0.4883  0.2367  0.3731
 1876SOL    MW4 7238   5.591   2.919   0.354 -0.7528  0.3480  0.4073
 1877SOL     OW 7239   1.601   4.867   1.234 -0.3855  0.4181 -0.6033
 1877SOL    HW2 7240   1.693   4.844   1.240 -0.3956  0.7461  1.2529
 1877SOL    HW3 7241   1.554   4.787   1.257 -0.5333  0.5683 -0.3695
 1877SOL    MW4 7242   1.607   4.854   1.238  0.3945  0.1628 -0.9006
 1878SOL     OW 7243   5.106   0.693   2.820 -0.1043  0.6094  0.3830
 1878SOL    HW2 7244   5.145   0.738   2.745 -1.4489 -1.1449 -1.4917
 1878SOL    HW3 7245   5.165   0.620   2.837 -2.1151 -1.9131 -2.3109
 1878SOL    MW4 7246   5.119   0.689   2.812 -0.6983 -0.0783 -0.3519
 1879SOL     OW 7247   3.298   4.487   3.934 -0.3779  0.4380 -0.4112
 1879SOL    HW2 7248   3.377   4.478   3.986  0.7038  1.9727 -1.6662
 1879SOL    HW3 7249   3.317   4.440   3.853 -1.4810 -0.7290 -0.0153
 1879SOL    MW4 7250   3.311   4.480   3.930 -0.0945 -0.6031  0.0928
 1880SOL     OW 7251   4.023   4.643   3.197 -0.1256  0.0018  0.2308
 1880SOL    HW2 7252   4.051   4.584   3.127  0.7143  0.7018 -0.0556
 1880SOL    HW3 7253   3.977   4.588   3.259 -1.9295 -0.4591 -1.4360
 1880SOL    MW4 7254   4.021   4.628   3.196 -0.3306 -0.0660 -0.6970
 1881SOL     OW 7255   0.340   0.530   5.935 -0.2207 -0.2601 -0.7354
 1881SOL    HW2 7256   0.257   0.554   5.977 -0.6072 -1.5121 -0.7357
 1881SOL    HW3 7257   0.373   0.612   5.899 -1.2173  0.3517 -0.3212
 1881SOL    MW4 7258   0.333   0.544   5.936  0.0559 -0.0050 -0.7243
 1882SOL     OW 7259   2.092   4.035   4.067  0.2146  0.1237 -0.8251
 1882SOL    HW2 7260   2.123   3.944   4.067 -1.7067 -0.5753 -1.1047
 1882SOL    HW3 7261   2.087   4.058   4.160  0.6884 -0.0487 -0.7517
 1882SOL    MW4 7262   2.095   4.026   4.079 -0.4172 -0.2723 -0.0032
 1883SOL     OW 7263   2.904   1.984   2.547  0.0104  0.1333 -0.5795
 1883SOL    HW2 7264   2.818   1.944   2.542  1.3326 -2.8513 -1.5731
 1883SOL    HW3 7265   2.928   2.002   2.456  0.4320  0.9642 -0.3176
 1883SOL    MW4 7266   2.896   1.981   2.534  0.5877  0.1272  0.0436
 1884SOL     OW 7267   3.044   1.712   2.853 -0.0299  0.6612 -0.3384
 1884SOL    HW2 7268   3.017   1.624   2.829 -0.6813  0.4604  1.0010
 1884SOL    HW3 7269   3.075   1.704   2.943 -2.3483  2.1644  0.6991
 1884SOL    MW4 7270   3.044   1.699   2.862 -0.1274 -0.3550 -0.2011
 1885SOL     OW 7271   4.989   5.091   1.386 -0.2917 -0.0147 -0.3631
 1885SOL    HW2 7272   5.077   5.074   1.417 -0.1816 -0.9839 -1.1836
 1885SOL    HW3 7273   5.001   5.141   1.305 -0.4878 -0.2876 -0.5624
 1885SOL    MW4 7274   5.002   5.095   1.379  0.0002  0.4274 -0.2541
 1886SOL     OW 7275   4.781   2.367   5.968 -0.4596  0.4667 -0.1459
 1886SOL    HW2 7276   4.830   2.418   5.903  1.1705  0.0648  0.7048
 1886SOL    HW3 7277   4.816   2.395   6.052 -2.0525  0.4793  0.5472
 1886SOL    MW4 7278   4.792   2.377   5.971 -0.2914  0.5658  0.2562
 1887SOL     OW 7279   4.518   3.260   0.774  0.1333  0.4739  0.4062
 1887SOL    HW2 7280   4.482   3.228   0.692 -0.5006 -1.3435  1.3345
 1887SOL    HW3 7281   4.612   3.242   0.767 -0.1242 -1.1607  0.6573
 1887SOL    MW4 7282   4.526   3.253   0.762 -0.0516 -0.1557 -0.5966
 1888SOL     OW 7283   1.854   3.034   2.784  0.0090 -0.5487  0.4441
 1888SOL    HW2 7284   1.817   3.035   2.695 -0.6198 -1.5440  0.6859
 1888SOL    HW3 7285   1.948   3.042   2.770  0.1938 -3.4645 -0.5005
 1888SOL    MW4 7286   1.861   3.035   2.770  0.0331  0.5822  0.3842
 1889SOL     OW 7287   0.961   4.265   4.385  0.2412  0.4222 -0.0426
 1889SOL    HW2 7288   0.937   4.172   4.379  1.2525  0.1096  0.5169
 1889SOL    HW3 7289   0.991   4.276   4.475  0.4734  1.2086 -0.2108
 1889SOL    MW4 7290   0.962   4.254   4.396  0.3413  0.5869  0.1626
 1890SOL     OW 7291   2.852   5.088   2.253  0.0275 -0.5044  0.4560
 1890SOL    HW2 7292   2.868   5.149   2.325 -1.2834 -1.0127  1.2029
 1890SOL    HW3 7293   2.883   5.135   2.175  0.9139  0.2869  1.2642
 1890SOL    MW4 7294   2.858   5.102   2.252  0.0650 -0.5676  0.3301
 1891SOL     OW 7295   6.006   3.179   5.422  0.1272  0.2515  0.0649
 1891SOL    HW2 7296   6.073   3.135   5.473  0.5092  0.7918  0.0354
 1891SOL    HW3 7297   5.926   3.127   5.436  0.6985 -0.7949 -0.4568
 1891SOL    MW4 7298   6.004   3.166   5.431 -0.4037  0.7461  0.2317
 1892SOL     OW 7299   1.610   0.649   5.856 -0.0007  0.1053 -0.2002
 1892SOL    HW2 7300   1.646   0.658   5.768 -0.0594  1.6803 -0.0855
 1892SOL    HW3 7301   1.574   0.560   5.858 -1.2544  0.4916 -2.2624
 1892SOL    MW4 7302   1.610   0.638   5.844 -0.4265 -0.1593  0.1720
 1893SOL     OW 7303   3.433   6.411   4.216 -0.0170  0.0047 -0.7966
 1893SOL    HW2 7304   3.529   6.413   4.226 -0.2048 -1.1056  2.0108
 1893SOL    HW3 7305   3.418   6.345   4.149  1.1535 -1.2273  0.0992
 1893SOL    MW4 7306   3.444   6.403   4.209 -0.7871 -0.4662  0.2068
 1894SOL     OW 7307   1.801   5.252   1.401  0.1301  0.4150 -0.4987
 1894SOL    HW2 7308   1.712   5.225   1.378 -0.6336  0.8227  1.6823
 1894SOL    HW3 7309   1.853   5.235   1.323 -1.4704 -1.6942 -1.1884
 1894SOL    MW4 7310   1.796   5.246   1.388 -0.5994  0.2298 -0.4952
 1895SOL     OW 7311   5.053   0.081   5.451  0.1224  0.2572  0.0974
 1895SOL    HW2 7312   5.087   0.005   5.403 -0.0306  0.5607 -0.5000
 1895SOL    HW3 7313   5.130   0.116   5.496  1.0700  1.9930 -2.6609
 1895SOL    MW4 7314   5.068   0.075   5.450  0.6833  0.1003  0.1004
 1896SOL     OW 7315   1.915   3.395   5.646  0.3042  0.4343  0.9257
 1896SOL    HW2 7316   1.978   3.376   5.577 -0.8450  0.2683 -0.1094
 1896SOL    HW3 7317   1.838   3.342   5.625 -0.8509  1.9178  1.1622
 1896SOL    MW4 7318   1.913   3.386   5.634 -0.9741 -0.2830  0.5587
 1897SOL     OW 7319   6.072   5.798   0.095 -0.3096  0.0302  0.5638
 1897SOL    HW2 7320   6.163   5.769   0.092 -0.4157 -0.2423 -0.2891
 1897SOL    HW3 7321   6.056   5.816   0.188  0.7564  0.5426  0.6708
 1897SOL    MW4 7322   6.082   5.797   0.107 -0.1043 -0.0402 -0.3124
 1898SOL     OW 7323   4.025   2.916   4.168  0.0578 -0.0648  0.0350
 1898SOL    HW2 7324   3.988   2.931   4.081  0.4083 -1.0569 -0.2930
 1898SOL    HW3 7325   3.951   2.889   4.222  0.0239 -0.5041 -0.2280
 1898SOL    MW4 7326   4.011   2.915   4.164 -0.4789 -0.3193 -0.5454
 1899SOL     OW 7327   5.355   5.714   1.531  0.3793 -0.7601  0.5428
 1899SOL    HW2 7328   5.308   5.786   1.489  1.3596 -0.0455  0.6274
 1899SOL    HW3 7329   5.301   5.637   1.514 -1.1953  0.1349  1.2812
 1899SOL    MW4 7330   5.342   5.713   1.523  0.3974 -0.1865 -0.3779
 1900SOL     OW 7331   1.683   6.430   2.484 -0.0168 -0.1855  0.4299
 1900SOL    HW2 7332   1.597   6.464   2.458  0.0046 -0.4608 -0.0179
 1900SOL    HW3 7333   1.694   6.350   2.432 -0.6188 -1.5992  2.3893
 1900SOL    MW4 7334   1.673   6.424   2.473 -0.5630 -0.4271 -0.3270
 1901SOL     OW 7335   4.432   4.556   6.415 -0.2581  0.3768 -0.5048
 1901SOL    HW2 7336   4.447   4.463   6.429  0.1872  0.4479 -0.4894
 1901SOL    HW3 7337   4.464   4.599   6.494 -0.5147  0.5417 -0.4868
 1901SOL    MW4 7338   4.438   4.550   6.427 -0.4522 -0.0856 -0.3520
 1902SOL     OW 7339   6.135   1.887   0.417 -0.7515  0.5333  0.5544
 1902SOL    HW2 7340   6.068   1.890   0.485  0.3642 -0.3492  1.7423
 1902SOL    HW3 7341   6.218   1.888   0.465  0.1413  2.4586 -0.9023
 1902SOL    MW4 7342   6.137   1.887   0.432 -0.0558 -0.3218 -0.0509
 1903SOL     OW 7343   4.289   4.086   0.119 -0.2506  0.4227 -0.6124
 1903SOL    HW2 7344   4.300   4.004   0.166  2.6466  0.7789 -0.4365
 1903SOL    HW3 7345   4.195   4.102   0.118 -0.7937 -2.2936  0.3392
 1903SOL    MW4 7346   4.278   4.077   0.125 -0.1577 -0.0125 -0.1688
 1904SOL     OW 7347   0.240   0.548   4.513  0.0216  0.3749 -0.4987
 1904SOL    HW2 7348   0.151   0.540   4.477 -0.4858  3.3988 -0.1710
 1904SOL    HW3 7349   0.228   0.539   4.607  0.2597 -0.3471 -0.5325
 1904SOL    MW4 7350   0.226   0.546   4.521  0.1301 -0.4734 -0.0448
 1905SOL     OW 7351   4.157   6.067   2.254 -0.3071  0.2391 -0.0161
 1905SOL    HW2 7352   4.100   6.134   2.291 -0.7447  0.5623 -1.2000
 1905SOL    HW3 7353   4.222   6.116   2.204  0.6903 -0.1521  0.8721
 1905SOL    MW4 7354   4.158   6.082   2.252  0.1484 -0.1720 -0.5306
 1906SOL     OW 7355   3.163   4.776   3.002 -0.3123 -0.2473 -0.0530
 1906SOL    HW2 7356   3.123   4.740   2.924  0.5498  0.7140 -0.9643
 1906SOL    HW3 7357   3.144   4.712   3.071 -0.0267 -1.7270 -1.3097
 1906SOL    MW4 7358   3.156   4.763   3.001  0.3206  0.0196  0.4503
 1907SOL     OW 7359   6.431   2.359   3.283  0.1988 -0.5723  0.3658
 1907SOL    HW2 7360   6.450   2.328   3.194  1.7338 -0.4116  0.6080
 1907SOL    HW3 7361   6.509   2.409   3.308 -0.7924  0.5990  1.2767
 1907SOL    MW4 7362   6.443   2.362   3.274 -0.3956  0.0204 -0.0720
 1908SOL     OW 7363   3.958   3.550   4.693  0.1008 -0.1911 -0.1256
 1908SOL    HW2 7364   3.894   3.544   4.622  0.4977 -0.5602 -0.4578
 1908SOL    HW3 7365   3.947   3.638   4.728 -1.7548 -0.7875  0.9175
 1908SOL    MW4 7366   3.948   3.560   4.688 -0.5140  0.0313 -0.5325
 1909SOL     OW 7367   1.797   5.179   4.301  0.2868  0.4850 -0.2822
 1909SOL    HW2 7368   1.822   5.188   4.209  2.0543  0.2856  0.1311
 1909SOL    HW3 7369   1.743   5.255   4.319  0.6480  0.9937 -1.2738
 1909SOL    MW4 7370   1.793   5.190   4.291  0.2938  0.3687  0.1577
 1910SOL     OW 7371   6.422   2.600   3.856 -0.3761 -0.1778 -0.3369
 1910SOL    HW2 7372   6.365   2.579   3.782 -1.1718  0.1347  0.1758
 1910SOL    HW3 7373   6.374   2.568   3.933  0.5452 -0.7175  0.0314
 1910SOL    MW4 7374   6.408   2.593   3.856  0.3646 -0.4835 -0.3592
 1911SOL     OW 7375   0.632   4.113   2.729 -0.0981 -0.0929  0.1929
 1911SOL    HW2 7376   0.658   4.095   2.639 -0.0094  0.3621  0.1277
 1911SOL    HW3 7377   0.668   4.199   2.748 -0.9189  0.2193  0.3495
 1911SOL    MW4 7378   0.640   4.122   2.719  0.0628 -0.7394 -0.2069
 1912SOL     OW 7379   3.144   2.123   5.555  0.5805 -0.1746  0.0453
 1912SOL    HW2 7380   3.055   2.088   5.556  0.6410 -0.3602 -0.6077
 1912SOL    HW3 7381   3.142   2.191   5.487  0.8971 -0.0624  0.1462
 1912SOL    MW4 7382   3.132   2.128   5.546 -0.1024  0.3514  0.9413
 1913SOL     OW 7383   3.041   5.418   3.241 -0.1532 -0.2323 -0.6983
 1913SOL    HW2 7384   3.070   5.365   3.316  0.2919  1.3585  0.2935
 1913SOL    HW3 7385   2.969   5.470   3.275  1.0004  1.5803 -0.9284
 1913SOL    MW4 7386   3.035   5.418   3.255 -0.2031  0.4872 -0.1359
 1914SOL     OW 7387   3.060   4.454   5.514  0.1834 -0.4564  0.3067
 1914SOL    HW2 7388   3.118   4.510   5.566  0.1152  0.8830 -0.9995
 1914SOL    HW3 7389   3.079   4.478   5.424 -0.8933 -1.5436 -0.2304
 1914SOL    MW4 7390   3.070   4.464   5.509  0.3850 -0.1046 -0.2885
 1915SOL     OW 7391   6.213   4.260   3.658 -0.0522 -0.3788  0.2900
 1915SOL    HW2 7392   6.254   4.272   3.572 -0.3946  0.1055  0.1887
 1915SOL    HW3 7393   6.166   4.342   3.674  2.0563  0.5780  2.0732
 1915SOL    MW4 7394   6.212   4.272   3.649  0.6995 -0.5265 -0.6086
 1916SOL     OW 7395   2.374   2.036   3.713  0.4147  0.2968  0.0188
 1916SOL    HW2 7396   2.432   2.033   3.637  1.1304  1.9328  0.4522
 1916SOL    HW3 7397   2.410   2.106   3.768  0.0513 -0.9814  1.9883
 1916SOL    MW4 7398   2.386   2.045   3.711  0.5769 -0.1489 -0.1435
 1917SOL     OW 7399   1.343   5.851   1.736 -0.0590 -0.0539  0.1145
 1917SOL    HW2 7400   1.337   5.946   1.751 -1.4629  0.1173 -1.2692
 1917SOL    HW3 7401   1.277   5.833   1.669 -1.1645 -2.3370  1.7042
 1917SOL    MW4 7402   1.334   5.861   1.729 -0.3633 -0.0762 -0.1133
 1918SOL     OW 7403   5.584   2.581   1.144  0.7840  0.1941 -0.6092
 1918SOL    HW2 7404   5.656   2.632   1.108  0.3029  0.9747 -0.4951
 1918SOL    HW3 7405   5.507   2.609   1.093  0.5918 -0.7608 -0.8557
 1918SOL    MW4 7406   5.583   2.591   1.133  0.0783 -0.1272 -0.9014
 1919SOL     OW 7407   5.995   1.832   1.930 -0.8645 -0.0358  0.2787
 1919SOL    HW2 7408   5.973   1.888   2.004  0.9513  0.6584  0.3427
 1919SOL    HW3 7409   5.980   1.887   1.853 -1.8455 -0.4509  0.1514
 1919SOL    MW4 7410   5.990   1.846   1.929 -0.0372  0.0806 -0.3959
 1920SOL     OW 7411   2.905   1.167   3.996 -0.1084  0.0521 -0.1090
 1920SOL    HW2 7412   2.873   1.077   3.995  2.4944 -0.9901  0.4283
 1920SOL    HW3 7413   2.985   1.165   3.944  2.6033  0.8374  3.5388
 1920SOL    MW4 7414   2.911   1.155   3.989 -0.0206 -0.0673 -0.1683
 1921SOL     OW 7415   6.432   2.517   2.597 -0.0771 -0.1416 -0.4159
 1921SOL    HW2 7416   6.365   2.585   2.588 -0.5097 -0.2379  1.6325
 1921SOL    HW3 7417   6.484   2.544   2.673  0.0369 -1.8414  0.1582
 1921SOL    MW4 7418   6.430   2.529   2.606 -0.0601 -0.4048 -0.2027
 1922SOL     OW 7419   5.104   2.454   2.215  0.7148 -0.5500 -0.1372
 1922SOL    HW2 7420   5.085   2.402   2.137  2.0816 -1.3707  0.0471
 1922SOL    HW3 7421   5.177   2.510   2.190 -0.0951  0.5929 -0.0202
 1922SOL    MW4 7422   5.111   2.454   2.201 -0.0807 -0.1863 -0.7241
 1923SOL     OW 7423   6.191   0.112   2.271  0.0915  0.1707 -0.4036
 1923SOL    HW2 7424   6.259   0.054   2.305 -0.0603  0.8244  1.0479
 1923SOL    HW3 7425   6.126   0.053   2.234  0.9866 -0.4943 -0.9642
 1923SOL    MW4 7426   6.191   0.096   2.270 -0.0137 -0.4908  0.4966
 1924SOL     OW 7427   2.260   3.312   1.620 -0.4526  0.6952 -0.3994
 1924SOL    HW2 7428   2.187   3.252   1.636 -0.5187  0.4758 -1.4842
 1924SOL    HW3 7429   2.313   3.307   1.700 -0.9147 -0.1543 -0.1368
 1924SOL    MW4 7430   2.258   3.303   1.633 -0.5465 -0.4288 -0.2337
 1925SOL     OW 7431   2.231   5.457   3.520 -0.3295  0.2620 -0.1170
 1925SOL    HW2 7432   2.159   5.467   3.458 -0.6558 -0.1075  0.2038
 1925SOL    HW3 7433   2.212   5.376   3.567  0.6648 -0.2275 -0.5261
 1925SOL    MW4 7434   2.219   5.448   3.518  0.3948  0.0535  0.2957
 1926SOL     OW 7435   0.512   3.476   3.454  0.0307 -0.0869 -0.3133
 1926SOL    HW2 7436   0.443   3.415   3.478  0.9773 -0.9789  0.2110
 1926SOL    HW3 7437   0.528   3.527   3.534 -0.1898  0.3002 -0.5102
 1926SOL    MW4 7438   0.505   3.475   3.468  0.2409 -0.0156  0.3184
 1927SOL     OW 7439   6.394   1.703   4.368 -0.4848 -0.3150 -0.1449
 1927SOL    HW2 7440   6.441   1.641   4.313  0.1005 -1.6792  1.7631
 1927SOL    HW3 7441   6.459   1.768   4.393 -0.6351  0.0459 -0.6850
 1927SOL    MW4 7442   6.409   1.703   4.364  0.3815 -0.6337  0.6024
 1928SOL     OW 7443   1.672   2.093   1.943  0.2800 -0.0972 -0.0120
 1928SOL    HW2 7444   1.731   2.150   1.992  0.0489  2.0654 -2.0259
 1928SOL    HW3 7445   1.584   2.124   1.965  0.0667 -0.6664 -0.0312
 1928SOL    MW4 7446   1.668   2.105   1.952 -0.1061  0.0949  0.1537
 1929SOL     OW 7447   0.030   4.825   0.362 -0.4449 -0.5641 -0.0322
 1929SOL    HW2 7448   0.014   4.878   0.440 -0.5866 -0.4122 -0.1623
 1929SOL    HW3 7449   0.071   4.745   0.395  0.2104 -0.1771  0.1202
 1929SOL    MW4 7450   0.033   4.822   0.376  0.2527  1.0584 -0.1532
 1930SOL     OW 7451   2.024   2.170   0.193  0.1906  0.4949 -0.0410
 1930SOL    HW2 7452   1.981   2.134   0.270 -0.5224  1.6459  0.1270
 1930SOL    HW3 7453   2.045   2.093   0.139  2.1234 -0.4719  1.9575
 1930SOL    MW4 7454   2.021   2.155   0.196 -0.2610  0.5270  0.6048
 1931SOL     OW 7455   2.660   2.788   2.919 -0.1275  0.3105 -0.5774
 1931SOL    HW2 7456   2.659   2.698   2.889 -1.1157 -0.1151  0.6508
 1931SOL    HW3 7457   2.662   2.840   2.839 -1.4858 -0.7908 -1.3805
 1931SOL    MW4 7458   2.660   2.783   2.905 -0.5305 -0.2627 -0.8735
 1932SOL     OW 7459   2.059   4.871   2.699  0.0261  0.0947 -0.6486
 1932SOL    HW2 7460   2.072   4.780   2.673  0.5894 -0.4781  1.5085
 1932SOL    HW3 7461   1.973   4.872   2.741 -0.2293  0.7098 -1.1521
 1932SOL    MW4 7462   2.049   4.859   2.701  0.4859  0.3858 -0.1595
 1933SOL     OW 7463   1.495   5.091   2.462  0.2287 -0.3971 -0.0470
 1933SOL    HW2 7464   1.549   5.154   2.414 -0.9974 -0.3381 -1.4271
 1933SOL    HW3 7465   1.435   5.144   2.513  1.3168 -0.4641  1.3554
 1933SOL    MW4 7466   1.494   5.106   2.462  0.3446 -0.3250  0.5135
 1934SOL     OW 7467   0.839   1.348   3.783  0.1316 -0.1482 -0.1304
 1934SOL    HW2 7468   0.759   1.367   3.734  0.7430  1.1679 -0.6693
 1934SOL    HW3 7469   0.908   1.346   3.717  0.6412 -0.5827  0.4053
 1934SOL    MW4 7470   0.837   1.351   3.768  0.3607 -0.0051  0.3602
 1935SOL     OW 7471   0.388   2.304   3.724  0.5738 -1.0347 -0.3366
 1935SOL    HW2 7472   0.417   2.360   3.795 -0.2883 -0.0963 -0.7039
 1935SOL    HW3 7473   0.437   2.334   3.648  0.9716 -1.5619 -0.2900
 1935SOL    MW4 7474   0.398   2.315   3.723  0.7504  0.0265 -0.4438
 1936SOL     OW 7475   2.764   3.057   4.740 -0.3376 -0.3500  0.1263
 1936SOL    HW2 7476   2.842   3.002   4.731  0.3343  0.4726  0.6959
 1936SOL    HW3 7477   2.720   3.051   4.656 -0.9456 -2.6969  0.5527
 1936SOL    MW4 7478   2.769   3.049   4.728 -0.3585  0.0424  0.1593
 1937SOL     OW 7479   1.495   4.454   2.350  0.3362  1.0422  0.3891
 1937SOL    HW2 7480   1.582   4.415   2.345  0.2281  0.7923  0.3891
 1937SOL    HW3 7481   1.438   4.389   2.308 -0.0849  0.4787  1.7530
 1937SOL    MW4 7482   1.499   4.440   2.344 -0.0948 -0.4293  0.2913
 1938SOL     OW 7483   1.743   5.317   5.370 -0.1634  0.2540  0.3559
 1938SOL    HW2 7484   1.664   5.371   5.364  0.5971  1.5946  1.5156
 1938SOL    HW3 7485   1.711   5.227   5.377 -1.5683  0.7354  0.4371
 1938SOL    MW4 7486   1.729   5.313   5.371 -0.6708 -0.3658  0.1830
 1939SOL     OW 7487   1.146   3.873   2.411  0.1851 -0.6842 -0.0958
 1939SOL    HW2 7488   1.052   3.879   2.394 -0.1039  0.4730  1.6219
 1939SOL    HW3 7489   1.157   3.789   2.455 -0.1196 -0.6637  0.0239
 1939SOL    MW4 7490   1.135   3.863   2.414  0.5628  0.1827  0.4934
 1940SOL     OW 7491   6.252   4.444   3.188  0.0445  0.4382 -0.1174
 1940SOL    HW2 7492   6.215   4.389   3.119  1.2961 -3.1076  1.7241
 1940SOL    HW3 7493   6.346   4.424   3.185  0.1674  0.3350  2.3580
 1940SOL    MW4 7494   6.260   4.434   3.178  0.0106  0.3093 -0.1194
 1941SOL     OW 7495   3.463   1.616   0.291 -0.1097  0.2598 -0.5443
 1941SOL    HW2 7496   3.461   1.623   0.196 -2.8128 -0.7244 -0.6748
 1941SOL    HW3 7497   3.372   1.631   0.318  0.4257 -0.2231  1.8090
 1941SOL    MW4 7498   3.451   1.619   0.282  0.3500 -0.0587 -0.2051
 1942SOL     OW 7499   1.010   3.280   6.348  0.0511  0.1107 -0.1950
 1942SOL    HW2 7500   0.951   3.209   6.374  0.8920 -0.7364 -0.5225
 1942SOL    HW3 7501   0.971   3.359   6.385 -1.7390 -0.2906 -1.1045
 1942SOL    MW4 7502   0.997   3.281   6.356  0.2915  0.5550 -0.3841
 1943SOL     OW 7503   1.020   0.502   2.405  0.3676  0.0703 -0.3343
 1943SOL    HW2 7504   1.010   0.435   2.473  0.3644 -0.2734 -0.6725
 1943SOL    HW3 7505   0.933   0.540   2.396 -0.4233 -2.0073 -2.3336
 1943SOL    MW4 7506   1.007   0.498   2.413  0.3670 -0.6551 -0.6690
 1944SOL     OW 7507   5.667   2.918   3.397 -0.2943  0.0579  0.2335
 1944SOL    HW2 7508   5.692   2.856   3.465 -0.1977 -0.2607 -0.0888
 1944SOL    HW3 7509   5.691   2.874   3.315  0.4261  0.8108  0.0281
 1944SOL    MW4 7510   5.674   2.904   3.395 -0.7036 -0.2383  1.0459
 1945SOL     OW 7511   2.371   0.625   5.833 -0.1630  0.0029 -0.1552
 1945SOL    HW2 7512   2.436   0.629   5.763 -0.7366 -0.3397 -0.7216
 1945SOL    HW3 7513   2.291   0.597   5.789 -0.7621  0.6834  0.4875
 1945SOL    MW4 7514   2.369   0.622   5.818 -0.2270 -0.0385  0.4181
 1946SOL     OW 7515   0.663   0.647   3.974  0.2280  0.5953  0.1199
 1946SOL    HW2 7516   0.747   0.680   4.006  0.0033  1.6325 -0.3079
 1946SOL    HW3 7517   0.641   0.575   4.033  0.9202  0.9817  0.8639
 1946SOL    MW4 7518   0.671   0.642   3.986  0.3660  0.3157  0.6140
 1947SOL     OW 7519   2.483   4.803   2.921 -0.1101  0.5559 -0.3409
 1947SOL    HW2 7520   2.553   4.838   2.976  0.6729 -1.1283 -0.2223
 1947SOL    HW3 7521   2.409   4.862   2.937  1.5288  2.9812 -1.2435
 1947SOL    MW4 7522   2.482   4.816   2.931 -0.2948  0.1294  0.3313
 1948SOL     OW 7523   3.297   1.649   3.943 -0.0520 -0.0020  0.2179
 1948SOL    HW2 7524   3.221   1.630   3.889  0.1531 -1.3405  0.3718
 1948SOL    HW3 7525   3.261   1.670   4.029 -0.2915  0.5319 -0.0051
 1948SOL    MW4 7526   3.282   1.649   3.947  0.4985  0.6518  0.2381
 1949SOL     OW 7527   1.243   4.577   1.156 -0.1659  0.1224 -0.2602
 1949SOL    HW2 7528   1.237   4.525   1.076  1.1738 -0.7091  0.1428
 1949SOL    HW3 7529   1.153   4.603   1.175 -0.8363 -1.7252 -0.7012
 1949SOL    MW4 7530   1.231   4.574   1.148  0.1004 -0.8619 -0.1885
 1950SOL     OW 7531   6.386   5.187   1.023 -0.0691 -0.1500 -0.4693
 1950SOL    HW2 7532   6.469   5.140   1.030 -0.2282 -0.2986  0.6207
 1950SOL    HW3 7533   6.339   5.165   1.104 -0.7686  0.6915 -0.6288
 1950SOL    MW4 7534   6.391   5.178   1.035 -0.3947  0.4348  0.0526
 1951SOL     OW 7535   2.420   3.911   4.989  0.3333  0.1950 -0.0107
 1951SOL    HW2 7536   2.499   3.959   4.967 -0.1429  0.4511 -1.2519
 1951SOL    HW3 7537   2.408   3.849   4.917 -1.1872  0.9349 -0.4518
 1951SOL    MW4 7538   2.429   3.909   4.976  0.0641 -0.0187 -0.0264
 1952SOL     OW 7539   5.975   2.413   0.495 -0.2980  0.3484 -0.5609
 1952SOL    HW2 7540   6.017   2.327   0.492 -1.4266 -0.2078 -1.2251
 1952SOL    HW3 7541   5.919   2.415   0.417 -1.9270  0.8218  0.5551
 1952SOL    MW4 7542   5.973   2.402   0.484 -0.2201 -0.7543  0.2873
 1953SOL     OW 7543   5.412   1.664   0.815 -0.1936  0.0918  0.3681
 1953SOL    HW2 7544   5.431   1.735   0.876  0.5402  0.8045 -0.6784
 1953SOL    HW3 7545   5.354   1.703   0.750  1.1401  0.0703 -0.8649
 1953SOL    MW4 7546   5.407   1.678   0.815  0.2443 -0.2128 -0.1344
 1954SOL     OW 7547   3.138   3.929   2.260  0.3708  0.0703  0.4195
 1954SOL    HW2 7548   3.076   3.985   2.307 -1.2380 -0.7721 -0.6040
 1954SOL    HW3 7549   3.132   3.958   2.169  2.5088  0.8474  0.4656
 1954SOL    MW4 7550   3.129   3.940   2.254 -0.1193 -0.4026 -0.3365
 1955SOL     OW 7551   3.710   6.034   3.058 -0.2094 -0.1809  0.2433
 1955SOL    HW2 7552   3.710   6.020   2.963 -0.2309 -0.0399  0.2220
 1955SOL    HW3 7553   3.652   5.967   3.092 -0.7342  0.1947  0.0933
 1955SOL    MW4 7554   3.702   6.024   3.050 -0.1604 -0.0447 -0.4341
 1956SOL     OW 7555   4.485   2.281   6.276 -0.0026 -0.0457  0.2020
 1956SOL    HW2 7556   4.544   2.355   6.263 -0.4272 -0.0137 -1.7946
 1956SOL    HW3 7557   4.411   2.298   6.218 -0.3185 -1.8024  0.0234
 1956SOL    MW4 7558   4.483   2.293   6.267  0.7527 -0.0545  0.5521
 1957SOL     OW 7559   0.878   3.801   2.239 -0.4063 -0.1075 -0.3706
 1957SOL    HW2 7560   0.899   3.854   2.162  0.4580 -0.3769 -0.3257
 1957SOL    HW3 7561   0.912   3.714   2.218  0.9247  0.1037  0.8081
 1957SOL    MW4 7562   0.885   3.796   2.226  0.2903 -0.6783  0.2267
 1958SOL     OW 7563   1.224   1.282   0.272 -0.3328 -0.1691  0.4302
 1958SOL    HW2 7564   1.245   1.217   0.205  2.0470 -0.1556  1.0810
 1958SOL    HW3 7565   1.199   1.360   0.223 -0.8467 -0.8312 -0.3906
 1958SOL    MW4 7566   1.223   1.284   0.257 -0.1677 -0.1417  0.1014
 1959SOL     OW 7567   5.073   6.084   5.994 -0.2803  0.2705  0.3936
 1959SOL    HW2 7568   5.113   6.056   6.076 -0.3595  0.1471  0.3907
 1959SOL    HW3 7569   4.999   6.024   5.982 -0.7291  0.7651  0.6205
 1959SOL    MW4 7570   5.069   6.073   6.003 -0.2402  0.0277 -0.3045
 1960SOL     OW 7571   4.955   1.701   0.388  0.3714 -0.5629 -0.0884
 1960SOL    HW2 7572   4.990   1.759   0.320 -0.6935 -0.7781 -0.8558
 1960SOL    HW3 7573   5.031   1.677   0.440  1.1140  0.1469 -0.8020
 1960SOL    MW4 7574   4.970   1.705   0.386 -0.2332 -0.1969  0.0810
 1961SOL     OW 7575   5.567   4.218   1.325  0.2780 -0.4433 -0.7675
 1961SOL    HW2 7576   5.474   4.211   1.306  0.5434 -2.2936 -1.6708
 1961SOL    HW3 7577   5.572   4.233   1.420 -0.9429 -3.0658 -0.1957
 1961SOL    MW4 7578   5.556   4.219   1.335  0.4674 -0.1346 -0.8540
 1962SOL     OW 7579   3.381   5.325   5.794 -0.0337 -0.0199  0.4169
 1962SOL    HW2 7580   3.331   5.338   5.874 -1.4297 -4.2070  0.4749
 1962SOL    HW3 7581   3.324   5.355   5.723  0.5598  2.1782  0.7957
 1962SOL    MW4 7582   3.367   5.330   5.795  0.1626  0.2314  0.1540
 1963SOL     OW 7583   5.174   1.573   0.548  0.2446 -0.9401  0.3265
 1963SOL    HW2 7584   5.199   1.660   0.579 -1.7237 -0.1010 -0.3486
 1963SOL    HW3 7585   5.256   1.523   0.550  0.9407  0.0648  3.3835
 1963SOL    MW4 7586   5.188   1.578   0.553  0.5221  0.0927  0.4557
 1964SOL     OW 7587   5.364   4.024   4.166  0.1524 -0.7383 -0.7782
 1964SOL    HW2 7588   5.335   3.939   4.132 -0.2773 -0.4725 -1.0887
 1964SOL    HW3 7589   5.284   4.075   4.173  0.3219 -0.5793  0.0607
 1964SOL    MW4 7590   5.349   4.019   4.162 -0.3281 -0.2393 -0.5839
 1965SOL     OW 7591   1.159   3.218   0.159 -0.4299 -0.0705  0.5510
 1965SOL    HW2 7592   1.122   3.236   0.073  0.5188 -1.2244 -0.1221
 1965SOL    HW3 7593   1.220   3.290   0.174  2.0292 -1.5900 -1.3458
 1965SOL    MW4 7594   1.162   3.230   0.150  0.0631  0.7498  0.1002
 1966SOL     OW 7595   4.544   2.669   0.288  0.0751 -0.0859  0.4328
 1966SOL    HW2 7596   4.459   2.708   0.307  0.2703  1.4111 -1.4819
 1966SOL    HW3 7597   4.588   2.665   0.373 -1.4539  0.1909  1.2744
 1966SOL    MW4 7598   4.538   2.673   0.302  0.5521  0.2640  0.6290
 1967SOL     OW 7599   0.695   2.198   1.801  0.6097  0.4071 -0.0351
 1967SOL    HW2 7600   0.764   2.132   1.793  0.2166  0.0714 -0.7753
 1967SOL    HW3 7601   0.661   2.186   1.889  0.9262 -0.0031  0.0343
 1967SOL    MW4 7602   0.699   2.187   1.811  0.9131 -0.0483 -0.0598
 1968SOL     OW 7603   0.163   4.792   5.697  0.4511  0.4679 -0.2518
 1968SOL    HW2 7604   0.159   4.697   5.692  1.2659  0.3824  0.5837
 1968SOL    HW3 7605   0.248   4.811   5.736  0.6087  1.5694 -1.0881
 1968SOL    MW4 7606   0.173   4.782   5.702  0.5481  0.3344  0.3478
 1969SOL     OW 7607   6.171   4.038   6.005  0.2431 -0.0677 -0.0148
 1969SOL    HW2 7608   6.168   3.960   6.061  0.6581 -0.0268  0.0691
 1969SOL    HW3 7609   6.192   4.110   6.064  1.2320 -0.1069 -0.2884
 1969SOL    MW4 7610   6.174   4.037   6.020 -0.2627 -0.2899  0.2616
 1970SOL     OW 7611   1.170   5.916   4.702  0.2453 -0.6701 -0.2339
 1970SOL    HW2 7612   1.201   5.899   4.791 -0.1971  1.0426  0.2958
 1970SOL    HW3 7613   1.234   5.978   4.666 -1.1518  0.9931  0.0089
 1970SOL    MW4 7614   1.183   5.922   4.709  0.6313  0.4715 -0.2279
 1971SOL     OW 7615   5.520   1.228   5.622 -0.2910  0.6080  0.0895
 1971SOL    HW2 7616   5.559   1.256   5.539  1.2708 -0.6858  0.3287
 1971SOL    HW3 7617   5.590   1.242   5.686  0.2440 -2.6963  0.3929
 1971SOL    MW4 7618   5.535   1.234   5.620 -0.2853 -0.3209  0.5783
 1972SOL     OW 7619   2.681   4.155   5.283  0.0407 -0.0670  0.3429
 1972SOL    HW2 7620   2.757   4.114   5.240 -1.6700 -2.6697 -0.4544
 1972SOL    HW3 7621   2.621   4.176   5.211 -1.0580 -0.4616  1.1108
 1972SOL    MW4 7622   2.683   4.152   5.267  0.2571  0.1970 -0.1768
 1973SOL     OW 7623   2.910   3.856   4.927  0.6110  0.1496 -0.0836
 1973SOL    HW2 7624   2.998   3.869   4.894  0.5789 -0.1427 -0.2919
 1973SOL    HW3 7625   2.894   3.762   4.916 -0.1945  0.4063 -1.2352
 1973SOL    MW4 7626   2.919   3.845   4.921 -0.4313 -0.2426 -0.3258
 1974SOL     OW 7627   1.902   1.875   0.828 -0.0308 -0.0305 -0.0562
 1974SOL    HW2 7628   1.919   1.951   0.773  3.3426 -0.9040 -0.3935
 1974SOL    HW3 7629   1.871   1.808   0.768 -0.4683  0.2772 -0.1786
 1974SOL    MW4 7630   1.900   1.876   0.813 -0.0208 -0.3438  0.1838
 1975SOL     OW 7631   1.644   3.176   6.118  0.1166  0.1043  0.0810
 1975SOL    HW2 7632   1.725   3.209   6.079  1.9815 -0.3497  3.2294
 1975SOL    HW3 7633   1.673   3.127   6.195 -3.1802 -0.1852  1.2937
 1975SOL    MW4 7634   1.658   3.174   6.123  0.2898 -0.0295 -0.3838
 1976SOL     OW 7635   5.095   5.261   4.606 -0.2845  0.5552  0.7923
 1976SOL    HW2 7636   5.127   5.347   4.579 -0.3111  0.2610 -0.2119
 1976SOL    HW3 7637   5.057   5.223   4.527 -1.5828  0.1921  1.5469
 1976SOL    MW4 7638   5.094   5.267   4.592  0.2745 -0.0590 -0.1164
 1977SOL     OW 7639   4.351   3.844   3.981 -0.1921 -0.0580 -0.7134
 1977SOL    HW2 7640   4.283   3.821   3.918 -0.2465 -2.7282  0.2201
 1977SOL    HW3 7641   4.423   3.783   3.964  0.5944  0.4725  0.5116
 1977SOL    MW4 7642   4.351   3.833   3.971 -0.7179 -0.4919  0.0869
 1978SOL     OW 7643   1.069   3.257   2.754 -0.4734 -0.0399  0.4159
 1978SOL    HW2 7644   1.054   3.233   2.662 -2.0266 -0.2431  0.6886
 1978SOL    HW3 7645   1.163   3.271   2.760  0.1633 -3.0356 -0.5037
 1978SOL    MW4 7646   1.079   3.255   2.743  0.2755  0.2311  1.1427
 1979SOL     OW 7647   3.183   6.282   6.088  0.7393 -0.0954 -0.2386
 1979SOL    HW2 7648   3.167   6.359   6.143 -0.4079 -0.2638 -0.3093
 1979SOL    HW3 7649   3.278   6.276   6.083  0.8548  0.8298  0.4539
 1979SOL    MW4 7650   3.194   6.291   6.095 -0.1669  0.2031  0.0386
 1980SOL     OW 7651   0.072   2.703   3.327 -0.4598 -0.1538 -0.1278
 1980SOL    HW2 7652   0.034   2.696   3.414 -0.2905  0.0139 -0.0402
 1980SOL    HW3 7653   0.002   2.675   3.268 -0.4238 -0.7023  0.0901
 1980SOL    MW4 7654   0.058   2.699   3.331 -0.7661  0.3424 -0.0891
 1981SOL     OW 7655   3.725   2.520   4.728  0.6724 -0.1700  0.4315
 1981SOL    HW2 7656   3.770   2.546   4.808  1.4233 -2.6960  0.9004
 1981SOL    HW3 7657   3.644   2.572   4.729  0.3389 -0.6007  3.1785
 1981SOL    MW4 7658   3.720   2.531   4.739 -0.1809  0.0935  0.1685
 1982SOL     OW 7659   2.826   3.101   0.366 -0.0991  0.1258 -0.1780
 1982SOL    HW2 7660   2.855   3.075   0.279 -1.5995 -0.6730 -0.4707
 1982SOL    HW3 7661   2.893   3.067   0.425  0.1949 -0.5840 -0.9089
 1982SOL    MW4 7662   2.838   3.093   0.363 -0.0646 -0.2474 -0.7127
 1983SOL     OW 7663   0.542   0.487   4.233 -0.1929 -0.2070 -0.1627
 1983SOL    HW2 7664   0.468   0.535   4.270 -0.8177 -2.2921  1.4894
 1983SOL    HW3 7665   0.504   0.437   4.160 -0.2883 -0.7947  0.2866
 1983SOL    MW4 7666   0.527   0.487   4.228 -0.0437  0.0237  0.2513
 1984SOL     OW 7667   4.974   2.669   6.115 -0.1057 -0.8696  0.3608
 1984SOL    HW2 7668   4.922   2.713   6.182 -0.0917  0.3380 -0.3888
 1984SOL    HW3 7669   4.982   2.579   6.146 -1.7327 -0.8234  1.0199
 1984SOL    MW4 7670   4.968   2.663   6.128  0.3769  0.7735 -0.3970
 1985SOL     OW 7671   3.777   2.282   2.409  0.0784 -0.1980 -0.0567
 1985SOL    HW2 7672   3.772   2.194   2.447  1.0934  1.4604  4.5189
 1985SOL    HW3 7673   3.758   2.341   2.482  0.6363  3.4955 -2.6209
 1985SOL    MW4 7674   3.774   2.278   2.424  0.4647  0.4530  0.3439
 1986SOL     OW 7675   5.437   1.753   4.993  0.1244  0.2956  0.6377
 1986SOL    HW2 7676   5.397   1.763   5.079  2.7322 -0.0893  2.0056
 1986SOL    HW3 7677   5.519   1.802   4.999  1.4665 -1.6136 -0.8275
 1986SOL    MW4 7678   5.443   1.760   5.005  0.2409  0.1969  0.3422
 1987SOL     OW 7679   1.538   1.945   1.327  0.1621  0.1743  0.2455
 1987SOL    HW2 7680   1.559   1.978   1.240 -1.0128  1.7000  0.4873
 1987SOL    HW3 7681   1.622   1.937   1.372  0.7504 -0.3452 -0.9101
 1987SOL    MW4 7682   1.552   1.948   1.321  0.1020  0.0026 -0.1405
 1988SOL     OW 7683   0.220   2.549   5.265  0.0854 -0.1505 -0.5118
 1988SOL    HW2 7684   0.205   2.621   5.204 -0.6908  0.2784  0.1674
 1988SOL    HW3 7685   0.315   2.545   5.274  0.1287  1.9008  0.6962
 1988SOL    MW4 7686   0.230   2.558   5.258 -0.6083 -0.6528 -0.8835
 1989SOL     OW 7687   3.062   0.401   1.922 -0.8915  0.3986  0.3203
 1989SOL    HW2 7688   3.060   0.323   1.978  0.9561 -0.3819 -0.6238
 1989SOL    HW3 7689   3.050   0.474   1.982  1.9952 -0.3317  1.9641
 1989SOL    MW4 7690   3.060   0.400   1.937  0.1754 -0.2212 -0.2424
 1990SOL     OW 7691   1.369   6.310   2.735  0.0307 -0.2605 -0.0607
 1990SOL    HW2 7692   1.295   6.261   2.772  1.1052 -0.6049  1.7495
 1990SOL    HW3 7693   1.439   6.246   2.728  0.3948  0.2323 -1.0943
 1990SOL    MW4 7694   1.368   6.295   2.739 -0.3217 -0.0132  0.6931
 1991SOL     OW 7695   5.820   1.938   6.413  0.1284 -0.2097  0.1691
 1991SOL    HW2 7696   5.851   2.000   6.479  0.4240 -0.4546  0.2589
 1991SOL    HW3 7697   5.861   1.967   6.331  1.7234 -1.3575  0.5341
 1991SOL    MW4 7698   5.829   1.950   6.411 -0.5197  0.0977 -0.0557
 1992SOL     OW 7699   3.013   2.728   5.400  0.1981  0.3229 -0.6847
 1992SOL    HW2 7700   3.049   2.685   5.478  0.8997 -0.4811 -1.4125
 1992SOL    HW3 7701   2.926   2.690   5.389 -0.3724  1.3104  0.3596
 1992SOL    MW4 7702   3.007   2.717   5.409 -0.7927  0.2758  0.1953
 1993SOL     OW 7703   5.220   4.831   3.422  0.0944 -0.2293 -0.1593
 1993SOL    HW2 7704   5.291   4.795   3.475 -1.3065 -1.0840  1.2330
 1993SOL    HW3 7705   5.146   4.772   3.438 -0.8196  0.3854 -1.8861
 1993SOL    MW4 7706   5.219   4.818   3.431  0.0677  0.6936  0.2870
 1994SOL     OW 7707   3.432   5.666   3.440 -0.6384  0.1105  0.1352
 1994SOL    HW2 7708   3.394   5.607   3.375 -1.5771 -1.0446  1.6681
 1994SOL    HW3 7709   3.412   5.625   3.524  1.7056  0.8465  1.1331
 1994SOL    MW4 7710   3.425   5.652   3.442 -0.2496 -0.1493 -0.7002
 1995SOL     OW 7711   1.737   4.522   5.534 -0.1608  0.1291 -0.2967
 1995SOL    HW2 7712   1.679   4.588   5.497 -2.0338 -1.0236  0.4450
 1995SOL    HW3 7713   1.696   4.498   5.618  0.7704 -1.5196 -0.2676
 1995SOL    MW4 7714   1.724   4.528   5.540  0.0271  0.0021 -0.1126
 1996SOL     OW 7715   2.789   0.546   0.731  0.1583  0.2721  0.1995
 1996SOL    HW2 7716   2.851   0.473   0.740 -0.7471 -0.5709 -0.1058
 1996SOL    HW3 7717   2.777   0.555   0.636  0.1212  0.6963  0.2459
 1996SOL    MW4 7718   2.795   0.537   0.720 -0.2303  0.0911  0.1546
 1997SOL     OW 7719   1.995   5.907   0.137  0.4153  0.5147  0.3001
 1997SOL    HW2 7720   2.010   5.987   0.188  1.1171  1.6135 -1.5088
 1997SOL    HW3 7721   2.044   5.839   0.184  2.2314  1.7797  0.3526
 1997SOL    MW4 7722   2.004   5.909   0.150 -0.0763 -0.2221  0.0210
 1998SOL     OW 7723   1.669   0.792   0.267  0.2788  0.5508  0.2698
 1998SOL    HW2 7724   1.707   0.731   0.331 -0.1306  0.0415  0.0377
 1998SOL    HW3 7725   1.577   0.798   0.290  0.6065  2.3185  1.2418
 1998SOL    MW4 7726   1.662   0.784   0.278 -0.0769 -0.0836 -0.4780
 1999SOL     OW 7727   2.921   3.711   5.918 -0.4336  0.0426 -0.0874
 1999SOL    HW2 7728   2.949   3.776   5.983  1.3993 -1.4821  0.7308
 1999SOL    HW3 7729   2.825   3.716   5.920 -0.3701  1.5826  1.1080
 1999SOL    MW4 7730   2.912   3.721   5.927 -0.0841  0.0936 -0.0292
 2000SOL     OW 7731   5.789   1.298   2.553 -0.0495  0.1495  0.0497
 2000SOL    HW2 7732   5.790   1.210   2.590  0.9627 -0.7757 -2.0434
 2000SOL    HW3 7733   5.729   1.292   2.478 -2.1417  2.0057  1.4273
 2000SOL    MW4 7734   5.781   1.286   2.548  0.0364 -0.3060  0.6896
 2001SOL     OW 7735   2.661   4.356   3.304  0.1982 -0.2149  0.3721
 2001SOL    HW2 7736   2.750   4.328   3.283 -0.4040 -1.8455 -0.1831
 2001SOL    HW3 7737   2.609   4.276   3.296 -1.4882  0.9157 -0.3823
 2001SOL    MW4 7738   2.666   4.342   3.300  0.1586 -0.5000  0.0888
 2002SOL     OW 7739   6.174   5.291   4.494  0.0039 -0.1861 -0.0341
 2002SOL    HW2 7740   6.090   5.252   4.515 -0.3944 -0.0285 -1.2437
 2002SOL    HW3 7741   6.235   5.251   4.556 -0.7117 -1.3484 -0.0435
 2002SOL    MW4 7742   6.171   5.280   4.505 -0.6254 -0.7273  0.4131
 2003SOL     OW 7743   6.017   5.148   5.605 -0.3644 -0.3701  0.1908
 2003SOL    HW2 7744   5.962   5.084   5.652 -0.6872 -0.6835 -0.5959
 2003SOL    HW3 7745   5.968   5.167   5.525 -0.7150  1.5556  0.8055
 2003SOL    MW4 7746   6.003   5.142   5.601  0.1072  0.6355  0.4049
 2004SOL     OW 7747   4.254   2.886   2.824 -0.1648  0.4918 -0.6380
 2004SOL    HW2 7748   4.226   2.968   2.865 -0.2167 -0.2170  0.7959
 2004SOL    HW3 7749   4.313   2.846   2.889  1.8859  0.5703 -2.3466
 2004SOL    MW4 7750   4.258   2.892   2.838  0.2748  0.1101 -0.2420
 2005SOL     OW 7751   1.294   2.958   0.261 -0.1810  0.0974  0.1250
 2005SOL    HW2 7752   1.245   3.037   0.237  0.6041  0.2956 -0.9000
 2005SOL    HW3 7753   1.230   2.902   0.304 -0.9595  0.9291  0.0874
 2005SOL    MW4 7754   1.279   2.961   0.264  0.4194 -0.2103 -0.0685
 2006SOL     OW 7755   5.548   3.971   2.014  0.2275  0.0501  0.1896
 2006SOL    HW2 7756   5.590   4.024   2.082 -0.3572  1.8484 -0.7909
 2006SOL    HW3 7757   5.618   3.914   1.982  1.5652  1.8807 -0.3110
 2006SOL    MW4 7758   5.563   3.970   2.019 -0.2398 -0.5216 -0.3346
 2007SOL     OW 7759   3.778   1.429   0.531 -0.3101  0.1973  0.3876
 2007SOL    HW2 7760   3.873   1.416   0.535 -0.3344  0.0634  0.5418
 2007SOL    HW3 7761   3.759   1.491   0.601 -0.1888  1.1211 -0.3742
 2007SOL    MW4 7762   3.788   1.435   0.540 -0.4235 -0.0964 -0.1021
 2008SOL     OW 7763   3.146   5.996   0.937  0.0149  0.3160 -0.0798
 2008SOL    HW2 7764   3.236   5.965   0.949  0.3037  1.4947  0.9725
 2008SOL    HW3 7765   3.092   5.918   0.953  0.7370  0.2091  2.1445
 2008SOL    MW4 7766   3.151   5.981   0.941 -0.1562  0.6151  0.4495
 2009SOL     OW 7767   4.623   0.919   2.143 -0.0842  0.1334  0.4837
 2009SOL    HW2 7768   4.533   0.887   2.147 -0.5508  1.4809  2.6422
 2009SOL    HW3 7769   4.615   1.015   2.143  1.3534  0.2908 -0.4552
 2009SOL    MW4 7770   4.610   0.928   2.144  0.1209  0.1746 -0.2055
 2010SOL     OW 7771   2.517   0.673   5.260  0.1458 -0.2861 -0.4909
 2010SOL    HW2 7772   2.431   0.697   5.225  0.4080  1.8435  0.1575
 2010SOL    HW3 7773   2.574   0.669   5.183 -0.3974 -1.1371 -0.8580
 2010SOL    MW4 7774   2.514   0.676   5.245 -0.3691 -0.5352 -0.5393
 2011SOL     OW 7775   2.306   3.025   1.953 -0.0387  0.2467 -0.3485
 2011SOL    HW2 7776   2.364   3.094   1.986  2.0909 -1.4323 -0.3691
 2011SOL    HW3 7777   2.229   3.072   1.921  0.6074  2.4605  1.1084
 2011SOL    MW4 7778   2.304   3.041   1.953 -0.0422 -0.4503 -0.0762
 2012SOL     OW 7779   0.912   0.055   5.999  0.0740  0.5972  0.3352
 2012SOL    HW2 7780   0.826   0.017   5.987  0.6767 -1.6803  2.4285
 2012SOL    HW3 7781   0.934   0.092   5.913 -1.5160 -1.8939 -1.2734
 2012SOL    MW4 7782   0.904   0.055   5.986  0.4421 -0.7740 -0.4322
 2013SOL     OW 7783   5.948   4.399   2.548 -0.0281 -0.6696  0.1519
 2013SOL    HW2 7784   5.979   4.451   2.622 -2.7025  0.8400  0.3437
 2013SOL    HW3 7785   5.942   4.310   2.582  0.2625 -0.2733  1.2857
 2013SOL    MW4 7786   5.951   4.394   2.563  0.6904  0.6118  0.0395
 2014SOL     OW 7787   5.200   2.329   1.174  0.2383 -0.0612  0.2316
 2014SOL    HW2 7788   5.286   2.294   1.148  0.5164  1.3731 -0.9036
 2014SOL    HW3 7789   5.220   2.411   1.219 -0.5561  0.8601 -1.0363
 2014SOL    MW4 7790   5.214   2.335   1.176 -0.1887  0.1572 -0.6706
 2015SOL     OW 7791   4.751   2.197   3.967  0.0646 -0.0172 -0.0813
 2015SOL    HW2 7792   4.828   2.176   4.019 -0.4374  0.4173  0.8612
 2015SOL    HW3 7793   4.728   2.286   3.993 -0.8867 -0.2222 -0.1795
 2015SOL    MW4 7794   4.758   2.206   3.977  0.3217  0.1437 -0.3977
 2016SOL     OW 7795   1.533   5.132   1.329 -0.1771 -0.6534  0.1553
 2016SOL    HW2 7796   1.472   5.112   1.400  0.1967  1.2361  1.0879
 2016SOL    HW3 7797   1.565   5.047   1.300 -1.0847 -1.5339  1.5965
 2016SOL    MW4 7798   1.529   5.118   1.335  0.0510 -0.1433 -0.2052
 2017SOL     OW 7799   6.295   1.236   4.872 -0.4309  0.4005 -0.8465
 2017SOL    HW2 7800   6.240   1.165   4.841 -2.4657  1.2038  0.7034
 2017SOL    HW3 7801   6.371   1.235   4.814 -1.1646 -1.9657 -1.8719
 2017SOL    MW4 7802   6.298   1.227   4.861 -0.6412  0.2883  0.4936
 2018SOL     OW 7803   0.768   5.296   3.307 -0.5107 -0.1580 -0.1032
 2018SOL    HW2 7804   0.794   5.250   3.387 -0.0434 -1.1619 -0.8178
 2018SOL    HW3 7805   0.774   5.389   3.330 -0.6213 -0.4338  1.0981
 2018SOL    MW4 7806   0.772   5.302   3.321 -0.0004 -0.3969  0.6020
 2019SOL     OW 7807   1.652   2.656   6.075  0.8438 -0.1732  0.0993
 2019SOL    HW2 7808   1.712   2.595   6.118  2.0586  1.0033  0.1492
 2019SOL    HW3 7809   1.594   2.685   6.145  0.4480 -1.0387  0.1355
 2019SOL    MW4 7810   1.652   2.652   6.090  0.2007 -0.0603 -0.1040
 2020SOL     OW 7811   2.767   2.530   5.096 -0.5368  0.0705  0.2551
 2020SOL    HW2 7812   2.746   2.466   5.028 -0.6870 -0.5442  0.8733
 2020SOL    HW3 7813   2.723   2.610   5.067  0.8404  0.3407 -1.2770
 2020SOL    MW4 7814   2.759   2.532   5.083 -0.5057 -0.0697  0.2507
 2021SOL     OW 7815   4.176   5.379   3.102 -0.0526  0.2500 -0.7449
 2021SOL    HW2 7816   4.215   5.313   3.044  1.1480  0.1944  0.0827
 2021SOL    HW3 7817   4.096   5.338   3.134  2.0067 -2.0891  1.9676
 2021SOL    MW4 7818   4.171   5.365   3.099  0.0954 -0.5196  0.2669
 2022SOL     OW 7819   2.383   4.031   3.519 -0.2017  0.7894 -0.1815
 2022SOL    HW2 7820   2.371   3.976   3.441 -1.9130  0.4489  0.2777
 2022SOL    HW3 7821   2.298   4.072   3.533  0.6675  2.5682  0.2706
 2022SOL    MW4 7822   2.370   4.029   3.510  0.1195 -1.2124 -0.6648
 2023SOL     OW 7823   0.222   6.161   1.469  0.4606  0.6577 -0.4726
 2023SOL    HW2 7824   0.161   6.214   1.521  0.4295  0.3795 -0.2174
 2023SOL    HW3 7825   0.211   6.072   1.504  2.0951  0.8450  0.6011
 2023SOL    MW4 7826   0.212   6.156   1.481  0.1167 -0.0935 -0.3461
 2024SOL     OW 7827   0.721   4.372   2.711 -0.1490 -0.0077 -0.0466
 2024SOL    HW2 7828   0.658   4.444   2.711  1.4585  1.4351 -0.2803
 2024SOL    HW3 7829   0.768   4.381   2.794  1.2294  0.2661 -0.8452
 2024SOL    MW4 7830   0.719   4.383   2.722  0.8704 -0.2958 -0.2062
 2025SOL     OW 7831   5.611   5.959   5.816  0.5560 -0.7280  0.5388
 2025SOL    HW2 7832   5.574   6.044   5.838  0.5924 -0.3630 -0.7004
 2025SOL    HW3 7833   5.564   5.897   5.872  0.7720  0.1272  1.7031
 2025SOL    MW4 7834   5.600   5.962   5.826  0.7522 -0.4005 -0.2354
 2026SOL     OW 7835   2.755   6.255   1.246  0.1411  0.3246  0.3597
 2026SOL    HW2 7836   2.728   6.338   1.284 -1.1819  0.2593 -0.3883
 2026SOL    HW3 7837   2.795   6.207   1.318 -0.7144  0.8960  1.2333
 2026SOL    MW4 7838   2.757   6.260   1.260  0.1922 -0.1635  0.1810
 2027SOL     OW 7839   2.224   0.278   4.219 -0.0898 -0.2573  0.5100
 2027SOL    HW2 7840   2.140   0.268   4.263  0.0521  2.5644  1.6069
 2027SOL    HW3 7841   2.271   0.342   4.271  2.2148 -0.7211 -0.8652
 2027SOL    MW4 7842   2.219   0.285   4.231  0.6683 -0.4578  0.0062
 2028SOL     OW 7843   1.416   3.309   6.411  0.0585  0.3971 -0.3833
 2028SOL    HW2 7844   1.453   3.370   6.347  1.5023 -1.2655 -1.2278
 2028SOL    HW3 7845   1.381   3.237   6.359 -0.7204  0.0273  0.6199
 2028SOL    MW4 7846   1.417   3.307   6.396 -0.4140  0.6817  0.0094
 2029SOL     OW 7847   3.990   4.078   5.276  0.1748 -0.4127  0.5430
 2029SOL    HW2 7848   4.053   4.144   5.246  0.9717 -0.7967  1.3271
 2029SOL    HW3 7849   3.995   4.009   5.210  0.1796 -0.2075  0.3256
 2029SOL    MW4 7850   3.999   4.078   5.263  0.6292 -0.3039  0.0417
 2030SOL     OW 7851   2.529   6.170   1.515  0.2301  0.2812 -0.0089
 2030SOL    HW2 7852   2.526   6.263   1.538  0.7961 -0.0926  1.6670
 2030SOL    HW3 7853   2.495   6.125   1.592  1.2297 -0.9835 -0.2851
 2030SOL    MW4 7854   2.524   6.176   1.528  0.2502 -0.4268  0.1686
 2031SOL     OW 7855   3.670   1.715   1.579 -0.1141 -0.6124 -0.0868
 2031SOL    HW2 7856   3.697   1.625   1.599  0.2511 -0.7840 -1.2854
 2031SOL    HW3 7857   3.587   1.705   1.532  0.9753 -0.4988 -2.1606
 2031SOL    MW4 7858   3.663   1.702   1.576 -0.0567 -0.1231 -0.5142
 2032SOL     OW 7859   6.002   5.015   1.821 -1.0624  0.0733 -0.3587
 2032SOL    HW2 7860   6.066   4.990   1.754 -1.6117  1.6050 -1.5328
 2032SOL    HW3 7861   5.973   4.932   1.859  0.8083 -0.7091 -0.5536
 2032SOL    MW4 7862   6.007   5.001   1.817 -0.5249 -0.3634 -0.2166
 2033SOL     OW 7863   4.014   0.799   3.518 -0.5023 -0.7881  0.5802
 2033SOL    HW2 7864   3.999   0.716   3.473  0.6022 -1.8869  2.1172
 2033SOL    HW3 7865   4.106   0.819   3.502 -0.9831  0.6656 -0.5518
 2033SOL    MW4 7866   4.024   0.791   3.510 -0.2345 -0.1232 -0.1034
 2034SOL     OW 7867   2.263   5.804   3.108 -0.7612 -0.2611  0.1209
 2034SOL    HW2 7868   2.192   5.772   3.052 -0.8056 -2.4570  1.3264
 2034SOL    HW3 7869   2.313   5.863   3.051 -3.6809  1.6871 -0.6702
 2034SOL    MW4 7870   2.260   5.808   3.093 -0.1555  0.5759  0.1592
 2035SOL     OW 7871   0.332   2.859   2.641 -0.1046 -0.1979  0.7100
 2035SOL    HW2 7872   0.396   2.914   2.597 -0.5806  0.1645  0.4499
 2035SOL    HW3 7873   0.366   2.847   2.729  1.3639 -1.7584 -0.0244
 2035SOL    MW4 7874   0.345   2.865   2.646  0.3873  0.5467 -0.0931
 2036SOL     OW 7875   2.761   4.155   2.279  0.1022  0.0937 -0.0550
 2036SOL    HW2 7876   2.760   4.219   2.350 -2.2269  0.6206 -0.4513
 2036SOL    HW3 7877   2.835   4.098   2.298 -0.5405  0.0741  2.9039
 2036SOL    MW4 7878   2.771   4.156   2.291  0.3798  0.5966  0.2876
 2037SOL     OW 7879   0.099   1.634   0.735 -0.0246 -0.4105  0.4470
 2037SOL    HW2 7880   0.104   1.729   0.720  0.8573 -0.7829 -2.0081
 2037SOL    HW3 7881   0.081   1.626   0.829 -1.8229  2.2187  0.4539
 2037SOL    MW4 7882   0.097   1.646   0.746  0.1823 -0.0479 -0.0917
 2038SOL     OW 7883   5.465   3.258   1.685 -0.2941  0.1900 -0.5594
 2038SOL    HW2 7884   5.371   3.240   1.695 -0.4187  1.0712  0.0581
 2038SOL    HW3 7885   5.484   3.238   1.594 -1.0489 -0.1456 -0.6520
 2038SOL    MW4 7886   5.455   3.253   1.674 -0.2198  0.8732  0.2288
 2039SOL     OW 7887   4.806   0.472   2.557 -0.1518 -0.3833  0.5710
 2039SOL    HW2 7888   4.838   0.546   2.608 -1.2857 -0.0240  0.7943
 2039SOL    HW3 7889   4.734   0.508   2.505  0.3102 -0.9786 -0.5235
 2039SOL    MW4 7890   4.801   0.486   2.557  0.6242 -0.1827  0.1190
 2040SOL     OW 7891   3.814   3.300   3.897 -0.0829 -0.1311 -0.5494
 2040SOL    HW2 7892   3.899   3.331   3.864 -0.3800  2.2177  0.7106
 2040SOL    HW3 7893   3.754   3.373   3.883 -1.5893 -1.2127 -0.0708
 2040SOL    MW4 7894   3.817   3.314   3.891  0.5489  0.5020  0.4540
 2041SOL     OW 7895   3.518   1.398   0.968  0.1644 -0.0935 -0.2904
 2041SOL    HW2 7896   3.564   1.482   0.967  1.0054 -0.4792  1.9773
 2041SOL    HW3 7897   3.460   1.403   0.892 -0.1476  2.7427 -0.0055
 2041SOL    MW4 7898   3.516   1.410   0.958  0.5192  0.6525 -0.7713
 2042SOL     OW 7899   5.531   1.175   4.410  0.3112 -0.0004 -0.0396
 2042SOL    HW2 7900   5.556   1.150   4.499  0.5655 -2.2826 -0.6978
 2042SOL    HW3 7901   5.459   1.237   4.422  0.3180 -0.2908  1.7465
 2042SOL    MW4 7902   5.525   1.180   4.423  0.0903  0.5336 -0.4003
 2043SOL     OW 7903   0.778   6.081   5.803  0.2724 -0.2896  0.4679
 2043SOL    HW2 7904   0.703   6.123   5.845 -1.5930 -1.7496 -1.2483
 2043SOL    HW3 7905   0.816   6.150   5.748 -0.0421  0.3464  1.0302
 2043SOL    MW4 7906   0.773   6.096   5.802  0.0065 -0.0364  0.2339
 2044SOL     OW 7907   4.086   1.594   2.879 -0.4068 -0.3317 -0.1257
 2044SOL    HW2 7908   4.057   1.685   2.890  2.8206  1.0146 -1.2276
 2044SOL    HW3 7909   4.179   1.596   2.902  0.0179 -3.1412 -1.1960
 2044SOL    MW4 7910   4.094   1.607   2.883 -0.0736 -0.1766 -0.1287
 2045SOL     OW 7911   3.340   6.030   5.940  0.1970 -0.0108  0.6160
 2045SOL    HW2 7912   3.339   6.056   6.032 -1.2755 -1.4447  1.0553
 2045SOL    HW3 7913   3.254   5.991   5.926  1.1390 -1.6764 -0.8172
 2045SOL    MW4 7914   3.328   6.028   5.951 -0.0199  0.0730  0.3750
 2046SOL     OW 7915   0.467   3.411   4.083 -0.2274  0.0509  0.3255
 2046SOL    HW2 7916   0.467   3.391   3.989  0.5488  0.9642  0.1143
 2046SOL    HW3 7917   0.558   3.396   4.111  0.1355  2.0546  0.3942
 2046SOL    MW4 7918   0.479   3.406   4.074 -0.0256 -0.4455 -0.0293
 2047SOL     OW 7919   0.425   3.324   2.988 -0.1736 -0.0421 -0.3662
 2047SOL    HW2 7920   0.337   3.363   2.981 -0.7262 -0.9340  1.0780
 2047SOL    HW3 7921   0.438   3.280   2.905 -0.2643  1.7149 -1.3560
 2047SOL    MW4 7922   0.415   3.324   2.976 -0.4640 -0.3423 -1.0871
 2048SOL     OW 7923   2.555   5.201   3.183  0.7273 -0.0527  0.0667
 2048SOL    HW2 7924   2.480   5.191   3.242 -0.9863 -0.5600 -2.0709
 2048SOL    HW3 7925   2.581   5.293   3.193  0.7231 -0.2023  1.8068
 2048SOL    MW4 7926   2.549   5.212   3.192  0.0517 -0.1532 -0.2790
 2049SOL     OW 7927   0.694   5.234   1.790 -0.4438  0.5520 -0.1787
 2049SOL    HW2 7928   0.659   5.250   1.878 -0.1084  1.7518 -0.2461
 2049SOL    HW3 7929   0.624   5.261   1.731 -1.1408 -1.3740 -0.3148
 2049SOL    MW4 7930   0.680   5.240   1.794  0.1280 -0.3514  0.3946
 2050SOL     OW 7931   4.283   3.950   0.682 -0.0258  0.4003  0.6353
 2050SOL    HW2 7932   4.346   3.878   0.678 -1.5460 -0.9483 -0.6503
 2050SOL    HW3 7933   4.302   4.002   0.604 -0.3674  0.0749  0.3264
 2050SOL    MW4 7934   4.293   3.947   0.671  0.5184 -0.0943 -0.3908
 2051SOL     OW 7935   4.578   1.507   3.069  0.2210  0.0249  0.4509
 2051SOL    HW2 7936   4.540   1.538   3.151 -0.0720 -1.4166  0.8798
 2051SOL    HW3 7937   4.512   1.525   3.003  0.0383  0.2571  0.6964
 2051SOL    MW4 7938   4.565   1.513   3.071 -0.0167  0.0741 -0.2748
 2052SOL     OW 7939   0.674   6.320   4.624 -0.5662 -0.1992  0.6984
 2052SOL    HW2 7940   0.723   6.396   4.655 -0.9348  1.1865 -1.8512
 2052SOL    HW3 7941   0.734   6.273   4.566 -1.5095  0.2998 -0.7277
 2052SOL    MW4 7942   0.688   6.324   4.620  0.7011 -0.2529  0.0314
 2053SOL     OW 7943   3.444   2.140   2.370  0.0128  0.4162  0.1800
 2053SOL    HW2 7944   3.465   2.058   2.324  1.5527 -0.0847  1.6772
 2053SOL    HW3 7945   3.380   2.183   2.313 -1.7143 -2.3050 -0.1578
 2053SOL    MW4 7946   3.438   2.135   2.356 -0.0040 -0.4360  0.5824
 2054SOL     OW 7947   3.333   2.641   0.048 -0.0369  0.3259  0.0518
 2054SOL    HW2 7948   3.239   2.628   0.039 -0.4438  2.4490  0.5464
 2054SOL    HW3 7949   3.342   2.707   0.117  1.8483 -0.2447  0.4116
 2054SOL    MW4 7950   3.322   2.648   0.056  0.2263 -0.1280 -0.2289
 2055SOL     OW 7951   6.176   3.793   5.358 -0.0254  0.0581 -0.6003
 2055SOL    HW2 7952   6.191   3.707   5.319 -0.9766 -1.6572  2.3933
 2055SOL    HW3 7953   6.084   3.813   5.338  0.1523  0.2953 -1.1715
 2055SOL    MW4 7954   6.166   3.784   5.350  0.2671 -0.2019  0.1770
 2056SOL     OW 7955   0.596   0.351   1.427  0.4059  0.0444  0.5393
 2056SOL    HW2 7956   0.551   0.281   1.379  1.5173 -0.7170  0.5582
 2056SOL    HW3 7957   0.545   0.429   1.409 -0.5332 -0.6659  0.0234
 2056SOL    MW4 7958   0.584   0.352   1.418 -0.7099 -0.1166  0.0088
 2057SOL     OW 7959   1.344   2.669   4.728  0.0076 -0.0635 -0.5377
 2057SOL    HW2 7960   1.392   2.731   4.674  1.0585  0.0119  0.4436
 2057SOL    HW3 7961   1.387   2.585   4.713  0.8939  0.1154  0.8130
 2057SOL    MW4 7962   1.356   2.666   4.719 -0.6262  0.3984 -0.2205
 2058SOL     OW 7963   1.610   5.151   3.644  0.2006  0.0945 -0.0542
 2058SOL    HW2 7964   1.595   5.193   3.560  2.0248 -1.0418 -1.0026
 2058SOL    HW3 7965   1.669   5.209   3.691  1.2819 -0.4974 -0.6443
 2058SOL    MW4 7966   1.616   5.164   3.639 -0.0419 -0.5183 -0.1941
 2059SOL     OW 7967   3.433   2.393   1.802  0.3406  0.1846  0.3739
 2059SOL    HW2 7968   3.439   2.377   1.708 -0.8527  0.0426  0.3049
 2059SOL    HW3 7969   3.522   2.414   1.829  0.9597 -1.1459 -0.5389
 2059SOL    MW4 7970   3.445   2.394   1.794 -0.0410 -0.2467 -0.2004
 2060SOL     OW 7971   1.176   0.961   3.540 -0.2500 -0.5084  0.2536
 2060SOL    HW2 7972   1.099   0.929   3.588 -0.1065  0.4976  1.1912
 2060SOL    HW3 7973   1.208   1.034   3.592  1.3395 -0.8901 -0.1280
 2060SOL    MW4 7974   1.170   0.966   3.553  0.6543  0.5415  0.4264
 2061SOL     OW 7975   5.418   0.044   0.949  0.6838 -0.2870  0.3020
 2061SOL    HW2 7976   5.511   0.036   0.970  1.2118 -0.2452 -1.8182
 2061SOL    HW3 7977   5.396  -0.041   0.910  1.1277  1.1590 -3.5619
 2061SOL    MW4 7978   5.428   0.032   0.947  0.0426  0.1127 -0.1075
 2062SOL     OW 7979   5.853   1.070   5.595 -0.0992 -0.0744 -0.3428
 2062SOL    HW2 7980   5.780   1.007   5.599  0.0629 -0.1873  1.5841
 2062SOL    HW3 7981   5.927   1.019   5.562 -0.4260 -0.4197 -0.5510
 2062SOL    MW4 7982   5.853   1.055   5.591 -0.1032  0.4633  0.2542
 2063SOL     OW 7983   5.639   5.278   4.404 -0.4098  0.3624 -0.0500
 2063SOL    HW2 7984   5.683   5.319   4.330  0.7262 -1.7821 -0.6510
 2063SOL    HW3 7985   5.669   5.328   4.480  2.5614 -0.4819 -0.5203
 2063SOL    MW4 7986   5.649   5.290   4.404  0.0698  0.2974 -0.4327
 2064SOL     OW 7987   1.687   6.311   5.140  0.2373 -0.0843 -0.5648
 2064SOL    HW2 7988   1.736   6.357   5.209 -0.0177 -0.5140 -0.0895
 2064SOL    HW3 7989   1.629   6.379   5.104 -1.8447 -0.4754  1.7096
 2064SOL    MW4 7990   1.686   6.326   5.145 -0.1904 -0.6658  0.2180
 2065SOL     OW 7991   0.103   3.484   2.515 -0.0177 -0.3250 -0.1522
 2065SOL    HW2 7992   0.041   3.481   2.442  0.8706  1.4784 -1.0560
 2065SOL    HW3 7993   0.100   3.575   2.544  1.0464 -0.5886  0.8339
 2065SOL    MW4 7994   0.094   3.496   2.509 -0.9702 -0.1884  0.4271
 2066SOL     OW 7995   2.175   3.180   5.777  0.3400  0.1350  0.2448
 2066SOL    HW2 7996   2.203   3.136   5.697 -0.2210  0.1160  0.0583
 2066SOL    HW3 7997   2.242   3.156   5.842  1.2429  0.8179 -0.4132
 2066SOL    MW4 7998   2.188   3.171   5.775  0.4984  0.0924  0.6987
 2067SOL     OW 7999   1.734   1.419   0.623 -0.5342 -0.3083 -0.0301
 2067SOL    HW2 8000   1.700   1.412   0.534  1.1083  0.0418 -0.7301
 2067SOL    HW3 8001   1.667   1.380   0.679 -0.5915 -2.7059 -1.6430
 2067SOL    MW4 8002   1.721   1.413   0.619  0.4041 -0.0103 -0.3189
 2068SOL     OW 8003   4.911   4.943   6.318 -0.8934 -0.3001  0.1044
 2068SOL    HW2 8004   4.944   4.860   6.282 -2.1188 -1.2818  1.1015
 2068SOL    HW3 8005   4.941   4.943   6.409  0.2060  1.0182 -0.2332
 2068SOL    MW4 8006   4.919   4.932   6.325 -0.3528 -0.4237  0.2485
 2069SOL     OW 8007   0.478   6.363   0.923  0.0984  0.6200 -0.1780
 2069SOL    HW2 8008   0.563   6.398   0.948  0.4842 -0.7336  0.4650
 2069SOL    HW3 8009   0.421   6.383   0.998  0.0032  0.9791 -0.3456
 2069SOL    MW4 8010   0.481   6.370   0.936  0.1211  0.0948 -0.3402
 2070SOL     OW 8011   3.371   5.582   0.329  0.4528  0.3496  0.0857
 2070SOL    HW2 8012   3.395   5.505   0.380 -0.6813 -1.8231 -2.4564
 2070SOL    HW3 8013   3.452   5.609   0.286  0.3345 -1.2462 -1.2320
 2070SOL    MW4 8014   3.385   5.576   0.330 -0.2650 -0.4513 -0.3129
 2071SOL     OW 8015   1.244   6.257   3.343 -0.6119  0.0823 -0.0787
 2071SOL    HW2 8016   1.289   6.312   3.279  0.9122  0.9135  1.6116
 2071SOL    HW3 8017   1.305   6.185   3.360 -0.5011  0.4486  1.1910
 2071SOL    MW4 8018   1.258   6.254   3.337 -0.1110 -0.4337  0.6930
 2072SOL     OW 8019   1.425   5.271   0.064 -0.0399  0.3818  0.0110
 2072SOL    HW2 8020   1.341   5.234   0.037  0.0110  1.3575 -1.5907
 2072SOL    HW3 8021   1.489   5.204   0.040 -0.1607  0.5646 -0.8573
 2072SOL    MW4 8022   1.422   5.257   0.058 -0.2816  0.0029  0.0487
 2073SOL     OW 8023   0.803   2.481   5.685 -0.3132  0.4353 -0.4228
 2073SOL    HW2 8024   0.761   2.486   5.771  1.0416 -0.9291  0.3900
 2073SOL    HW3 8025   0.734   2.500   5.622 -2.0154 -1.1631  0.8714
 2073SOL    MW4 8026   0.789   2.484   5.688  0.7388 -0.4934 -0.6567
 2074SOL     OW 8027   0.990   3.542   5.035 -0.3242  0.1031  0.4306
 2074SOL    HW2 8028   0.996   3.501   4.949  1.1468 -0.0225  0.5745
 2074SOL    HW3 8029   0.995   3.468   5.096 -3.7652 -0.0952  0.6743
 2074SOL    MW4 8030   0.991   3.527   5.032 -1.0093 -0.2016  0.2363
 2075SOL     OW 8031   2.163   1.699   2.392 -0.2075 -0.2275  0.2471
 2075SOL    HW2 8032   2.213   1.704   2.310  2.1705 -0.1746  1.6066
 2075SOL    HW3 8033   2.109   1.620   2.383 -0.6699  0.2434 -1.6722
 2075SOL    MW4 8034   2.162   1.689   2.380  0.0469  0.0426 -0.1292
 2076SOL     OW 8035   1.423   3.827   2.505  0.2580 -0.5011  0.8622
 2076SOL    HW2 8036   1.357   3.879   2.460 -0.0293 -1.1284  0.5515
 2076SOL    HW3 8037   1.501   3.883   2.505  0.1429 -0.3206 -0.0398
 2076SOL    MW4 8038   1.425   3.841   2.499  0.2404  0.1670  0.3787
 2077SOL     OW 8039   6.016   5.863   4.644  0.4787 -0.2610  0.5499
 2077SOL    HW2 8040   6.111   5.875   4.640  0.5673 -1.0443  0.2240
 2077SOL    HW3 8041   6.002   5.774   4.614 -0.3730 -0.1175  0.5087
 2077SOL    MW4 8042   6.027   5.853   4.639 -0.2636 -0.0378 -0.4179
 2078SOL     OW 8043   4.021   3.432   2.497  0.3868 -0.3846 -0.5930
 2078SOL    HW2 8044   4.011   3.352   2.445 -1.1982 -0.5804 -0.0119
 2078SOL    HW3 8045   4.050   3.401   2.583 -0.9319 -0.4110 -0.1472
 2078SOL    MW4 8046   4.024   3.418   2.501 -0.1785  0.5067  0.4664
 2079SOL     OW 8047   4.156   1.223   1.603 -0.0275  0.3961 -0.5612
 2079SOL    HW2 8048   4.143   1.310   1.567 -0.1383  0.7668  0.3544
 2079SOL    HW3 8049   4.088   1.214   1.671  0.5058 -0.0729 -0.0696
 2079SOL    MW4 8050   4.145   1.233   1.607  0.1063  0.2099 -0.0602
 2080SOL     OW 8051   5.842   4.139   3.345  0.3717  0.3469 -0.1068
 2080SOL    HW2 8052   5.759   4.180   3.371 -0.4363 -1.5850  0.4816
 2080SOL    HW3 8053   5.873   4.096   3.425  0.4501 -1.3847 -1.0262
 2080SOL    MW4 8054   5.835   4.139   3.359 -0.1142  0.2166 -0.0294
 2081SOL     OW 8055   0.240   2.941   5.288 -0.2424  1.1050  0.2433
 2081SOL    HW2 8056   0.254   2.868   5.349 -1.9713  0.0307 -0.5693
 2081SOL    HW3 8057   0.253   2.902   5.201 -0.0733  2.0495 -0.1632
 2081SOL    MW4 8058   0.244   2.926   5.285 -0.2960  0.6795 -0.8793
 2082SOL     OW 8059   5.239   1.778   5.475 -0.0299  0.2350 -0.3206
 2082SOL    HW2 8060   5.163   1.720   5.485 -0.0632  0.0508 -1.5088
 2082SOL    HW3 8061   5.214   1.838   5.405  0.6058  0.7181 -0.1431
 2082SOL    MW4 8062   5.226   1.779   5.467 -0.2020 -0.3959 -0.3485
 2083SOL     OW 8063   3.530   0.411   2.623  0.0078  0.4744  0.0640
 2083SOL    HW2 8064   3.534   0.401   2.528 -0.7331  1.3387 -0.0666
 2083SOL    HW3 8065   3.496   0.499   2.637  3.0835  1.5858  1.1617
 2083SOL    MW4 8066   3.526   0.421   2.612 -0.4127 -0.1470 -0.1996
 2084SOL     OW 8067   0.260   6.050   0.697 -0.2607 -0.2070 -0.1334
 2084SOL    HW2 8068   0.205   6.033   0.621 -1.2215  1.9832  0.0078
 2084SOL    HW3 8069   0.208   6.020   0.771 -0.0271 -0.7826 -0.1937
 2084SOL    MW4 8070   0.246   6.044   0.697  0.0608  0.3942  0.1527
 2085SOL     OW 8071   2.146   3.757   5.135  0.5534 -0.1052 -0.5180
 2085SOL    HW2 8072   2.233   3.776   5.170 -0.8927  0.6964  3.0471
 2085SOL    HW3 8073   2.136   3.662   5.145 -0.1484  0.1831  2.4621
 2085SOL    MW4 8074   2.156   3.747   5.141 -0.1008  0.2893 -0.5276
 2086SOL     OW 8075   3.429   1.951   2.609  0.0386  0.1764 -0.2147
 2086SOL    HW2 8076   3.409   1.861   2.586  0.9705 -0.6574  1.9125
 2086SOL    HW3 8077   3.420   2.000   2.527 -1.8006 -1.5813 -1.1532
 2086SOL    MW4 8078   3.425   1.946   2.595  0.2701  0.2689 -0.0535
 2087SOL     OW 8079   0.748   4.758   3.792 -0.5047  0.1562  0.0105
 2087SOL    HW2 8080   0.703   4.756   3.876  0.8785  0.6910  0.7961
 2087SOL    HW3 8081   0.730   4.845   3.758  3.0203  1.9376  2.1677
 2087SOL    MW4 8082   0.740   4.769   3.799 -0.2627 -0.2281 -0.3142
 2088SOL     OW 8083   2.816   6.247   4.726  0.3513 -0.1098  0.3902
 2088SOL    HW2 8084   2.834   6.298   4.805 -0.3622 -0.3290  0.7045
 2088SOL    HW3 8085   2.897   6.198   4.710  0.5291 -0.0017  0.9427
 2088SOL    MW4 8086   2.829   6.247   4.735 -0.1485 -0.0085  0.4284
 2089SOL     OW 8087   4.903   3.347   3.039 -0.1166 -0.1228 -0.5327
 2089SOL    HW2 8088   4.992   3.312   3.049  0.3880  0.5535 -2.2366
 2089SOL    HW3 8089   4.880   3.329   2.948 -1.4901  0.2488 -0.2788
 2089SOL    MW4 8090   4.912   3.340   3.029  0.6306  0.3307 -0.1275
 2090SOL     OW 8091   4.194   2.036   0.323 -1.0204  0.4356  0.5256
 2090SOL    HW2 8092   4.285   2.044   0.353 -0.4031 -2.4445 -0.2840
 2090SOL    HW3 8093   4.194   2.073   0.235 -0.7412  0.7215  0.6409
 2090SOL    MW4 8094   4.206   2.042   0.315 -0.0700  0.3110 -0.3470
 2091SOL     OW 8095   4.959   2.497   4.102 -0.3782  0.0625 -0.4063
 2091SOL    HW2 8096   4.958   2.587   4.071  1.9710  0.3137  0.0796
 2091SOL    HW3 8097   4.998   2.501   4.189 -0.1337 -1.4243 -0.4140
 2091SOL    MW4 8098   4.964   2.509   4.109  0.4703 -0.7124 -0.1146
 2092SOL     OW 8099   5.433   5.097   3.984 -0.8129 -0.0825  0.0367
 2092SOL    HW2 8100   5.412   5.035   3.915 -0.2083  0.4088 -0.6062
 2092SOL    HW3 8101   5.517   5.067   4.019 -0.3048  0.5887 -0.5636
 2092SOL    MW4 8102   5.441   5.085   3.979 -0.0255  0.5930 -0.4666
 2093SOL     OW 8103   5.266   6.063   2.634 -0.4373  0.1667  0.3326
 2093SOL    HW2 8104   5.300   6.055   2.545 -3.1129  1.7050 -0.9801
 2093SOL    HW3 8105   5.342   6.086   2.687  0.8491  1.8291 -2.0349
 2093SOL    MW4 8106   5.280   6.065   2.629  0.5158  0.2172 -0.0349
 2094SOL     OW 8107   1.928   3.008   5.021  0.4073 -0.1493  0.1309
 2094SOL    HW2 8108   1.854   3.041   4.969 -0.5462  0.2357  1.6825
 2094SOL    HW3 8109   1.969   3.085   5.058  1.4022 -0.3901 -0.4235
 2094SOL    MW4 8110   1.923   3.022   5.019 -0.2733 -0.2667  0.0319
 2095SOL     OW 8111   5.712   5.149   5.305 -0.1409 -0.0315 -0.5620
 2095SOL    HW2 8112   5.808   5.149   5.304 -0.1023 -2.1900 -1.2365
 2095SOL    HW3 8113   5.689   5.179   5.393  1.1717 -0.2224 -0.1326
 2095SOL    MW4 8114   5.722   5.153   5.317 -0.2020  0.8385  0.2501
 2096SOL     OW 8115   4.110   3.080   4.510  0.3211  0.4269 -0.4232
 2096SOL    HW2 8116   4.118   3.111   4.419  0.5149  1.5610 -0.0401
 2096SOL    HW3 8117   4.165   3.140   4.560  0.3272 -0.2791  0.4321
 2096SOL    MW4 8118   4.118   3.092   4.504  0.0193  0.1342  0.0432
 2097SOL     OW 8119   3.954   4.857   5.288  0.3562  0.0687  0.6783
 2097SOL    HW2 8120   3.983   4.772   5.257  1.5537  0.8037 -0.3094
 2097SOL    HW3 8121   4.026   4.887   5.344  0.8600  1.2506 -0.5530
 2097SOL    MW4 8122   3.967   4.850   5.292 -0.4620  0.2953  0.0045
 2098SOL     OW 8123   0.581   3.404   4.496 -0.4389 -0.4996 -0.1486
 2098SOL    HW2 8124   0.538   3.467   4.555 -1.0789 -1.2195  0.1795
 2098SOL    HW3 8125   0.512   3.378   4.435  0.2012  0.1701 -1.1751
 2098SOL    MW4 8126   0.566   3.408   4.496 -0.2560 -0.1555  0.2442
 2099SOL     OW 8127   3.085   1.590   0.823  0.2007 -0.0265  1.0795
 2099SOL    HW2 8128   3.006   1.539   0.804  1.7002 -2.1487  0.2666
 2099SOL    HW3 8129   3.105   1.636   0.741 -0.6204  1.2217  1.5406
 2099SOL    MW4 8130   3.077   1.590   0.810  0.0661  0.2319 -0.1405
 2100SOL     OW 8131   1.169   5.765   1.986  0.3029 -0.3097 -1.0747
 2100SOL    HW2 8132   1.085   5.768   1.941  0.5136  0.2659 -1.4508
 2100SOL    HW3 8133   1.234   5.775   1.916  0.6122  1.3643 -0.5963
 2100SOL    MW4 8134   1.167   5.767   1.971 -0.4310 -0.1831 -0.2815
 2101SOL     OW 8135   6.157   0.813   6.305  0.0408  0.2010  0.7287
 2101SOL    HW2 8136   6.094   0.883   6.321  0.4028  0.4733  0.9789
 2101SOL    HW3 8137   6.107   0.746   6.259 -0.5574  0.2006  1.3715
 2101SOL    MW4 8138   6.143   0.814   6.301 -0.3342 -0.0489  0.1669
 2102SOL     OW 8139   1.010   1.197   0.688  0.4640 -0.3277  0.1178
 2102SOL    HW2 8140   0.943   1.235   0.745  0.7210  0.7453 -0.2721
 2102SOL    HW3 8141   0.984   1.225   0.600  1.4380  0.1181 -0.0324
 2102SOL    MW4 8142   0.997   1.205   0.684 -1.1760 -0.0367  0.7406
 2103SOL     OW 8143   4.367   1.564   2.885 -0.1225  0.0425 -0.0950
 2103SOL    HW2 8144   4.407   1.620   2.818  2.9375 -1.0522  0.6724
 2103SOL    HW3 8145   4.364   1.477   2.845  0.7801 -0.4178  0.8167
 2103SOL    MW4 8146   4.372   1.560   2.871 -0.0184  0.1940  0.0513
 2104SOL     OW 8147   0.034   0.495   2.682  0.2529 -0.4486 -0.6987
 2104SOL    HW2 8148  -0.032   0.558   2.650  0.3246  0.0509  0.1050
 2104SOL    HW3 8149   0.118   0.538   2.665  0.3481 -0.7861 -1.0923
 2104SOL    MW4 8150   0.036   0.509   2.676  0.8995  0.4105 -0.3252
 2105SOL     OW 8151   1.729   6.303   6.404  0.0245 -0.2909  0.3725
 2105SOL    HW2 8152   1.717   6.233   6.340  3.7951 -0.3678 -0.4535
 2105SOL    HW3 8153   1.694   6.266   6.486 -1.7025 -1.5306 -0.8425
 2105SOL    MW4 8154   1.723   6.289   6.407 -0.5409 -0.0936  0.1096
 2106SOL     OW 8155   0.801   3.566   3.132  0.1680 -0.0104 -0.5615
 2106SOL    HW2 8156   0.820   3.602   3.045 -0.4088 -0.3329 -0.8259
 2106SOL    HW3 8157   0.706   3.556   3.134  0.1198  0.5543  0.3372
 2106SOL    MW4 8158   0.791   3.569   3.121 -0.2864  0.3930 -0.0816
 2107SOL     OW 8159   3.499   2.051   1.571 -0.0327 -0.4787  0.4491
 2107SOL    HW2 8160   3.576   2.019   1.617  0.3206  2.1985  1.9784
 2107SOL    HW3 8161   3.425   2.024   1.626  0.0240 -0.8916  0.3243
 2107SOL    MW4 8162   3.499   2.043   1.585 -0.2820 -0.7328 -0.2084
 2108SOL     OW 8163   4.606   0.285   5.054  0.2652  0.1866 -0.5704
 2108SOL    HW2 8164   4.700   0.268   5.066 -0.2974 -1.7266  2.4149
 2108SOL    HW3 8165   4.592   0.372   5.092  0.6671 -0.0986  0.2580
 2108SOL    MW4 8166   4.617   0.294   5.061  0.0979 -0.2490 -0.2718
 2109SOL     OW 8167   5.799   2.666   5.080 -0.1120 -0.2781 -0.0512
 2109SOL    HW2 8168   5.827   2.757   5.071  2.0527 -0.9904 -1.5124
 2109SOL    HW3 8169   5.881   2.616   5.086 -1.1659 -2.2485 -0.9849
 2109SOL    MW4 8170   5.814   2.671   5.079  0.4458  0.2104 -0.0736
 2110SOL     OW 8171   2.866   4.719   0.230  0.2127  0.3390 -0.7694
 2110SOL    HW2 8172   2.883   4.767   0.311 -0.1446 -0.6818 -0.0761
 2110SOL    HW3 8173   2.923   4.643   0.234 -0.6467 -0.3228 -0.9289
 2110SOL    MW4 8174   2.876   4.716   0.241  0.3590 -0.2559 -0.1757
 2111SOL     OW 8175   1.156   4.245   2.878  0.3959 -0.5611  0.0421
 2111SOL    HW2 8176   1.163   4.270   2.786 -1.5384  3.9156  0.8239
 2111SOL    HW3 8177   1.194   4.320   2.925  0.4921 -2.2943  2.9180
 2111SOL    MW4 8178   1.162   4.258   2.872  0.7758  0.1123  0.1714
 2112SOL     OW 8179   4.698   3.036   0.645  0.4158  0.0363  0.8709
 2112SOL    HW2 8180   4.767   2.988   0.691  1.3438  0.8157  0.3065
 2112SOL    HW3 8181   4.622   2.977   0.647  0.8312 -0.4765  2.2440
 2112SOL    MW4 8182   4.697   3.022   0.651  0.3188  0.0555 -0.2446
 2113SOL     OW 8183   6.085   5.348   1.088  0.5683 -0.4107  0.5051
 2113SOL    HW2 8184   6.031   5.406   1.142  0.3085  0.0953 -0.2859
 2113SOL    HW3 8185   6.068   5.376   0.998  0.8079 -1.4102  0.1404
 2113SOL    MW4 8186   6.076   5.359   1.083 -0.2719  0.0565  0.4372
 2114SOL     OW 8187   1.176   3.471   1.992  0.0347  0.4536  0.0689
 2114SOL    HW2 8188   1.154   3.463   2.085 -1.0214  0.1541 -0.1874
 2114SOL    HW3 8189   1.101   3.433   1.946  0.6946  0.2748 -0.9043
 2114SOL    MW4 8190   1.163   3.465   1.998 -0.0894 -0.4318  0.3019
 2115SOL     OW 8191   4.609   6.386   0.580 -0.4654  0.5550 -0.1410
 2115SOL    HW2 8192   4.678   6.341   0.532 -0.3551  1.1776 -0.5773
 2115SOL    HW3 8193   4.531   6.374   0.527  0.0384  2.9071 -1.5630
 2115SOL    MW4 8194   4.608   6.379   0.567  0.0620 -0.4311  0.8180
 2116SOL     OW 8195   1.822   4.816   4.866 -0.2788 -0.1753  0.1932
 2116SOL    HW2 8196   1.805   4.753   4.796 -1.2112  0.7117 -0.4171
 2116SOL    HW3 8197   1.902   4.861   4.839  0.9092 -1.6685  1.0802
 2116SOL    MW4 8198   1.830   4.814   4.853 -0.1813  0.4849  0.2678
 2117SOL     OW 8199   3.854   0.629   4.533 -0.4959  0.2422 -0.2845
 2117SOL    HW2 8200   3.911   0.702   4.557  0.9702 -0.6293 -0.9505
 2117SOL    HW3 8201   3.806   0.661   4.457  0.6267  0.3201 -0.9927
 2117SOL    MW4 8202   3.855   0.643   4.526  0.4198  0.4278  0.2844
 2118SOL     OW 8203   1.999   1.125   6.125  0.2246  0.0847 -0.1635
 2118SOL    HW2 8204   1.958   1.135   6.040 -0.3692  0.7807  0.1957
 2118SOL    HW3 8205   1.926   1.119   6.187  0.6355 -1.2225  0.2200
 2118SOL    MW4 8206   1.984   1.126   6.122 -0.4721 -0.6746  0.1096
 2119SOL     OW 8207   1.718   2.563   5.252  0.2315 -0.7094  0.0681
 2119SOL    HW2 8208   1.715   2.613   5.334 -1.1288 -1.4331  0.4936
 2119SOL    HW3 8209   1.758   2.623   5.189 -0.7238  0.6772  0.7238
 2119SOL    MW4 8210   1.723   2.577   5.255  0.0901  0.0461 -0.5237
 2120SOL     OW 8211   5.616   0.209   2.873  0.4486  0.2856 -1.0473
 2120SOL    HW2 8212   5.610   0.167   2.958 -0.0546 -0.1854 -1.3074
 2120SOL    HW3 8213   5.559   0.157   2.816  0.5835  0.7381 -1.6119
 2120SOL    MW4 8214   5.608   0.196   2.877 -0.6030 -0.1403 -0.3316
 2121SOL     OW 8215   2.548   6.280   2.177  0.2013  0.3927 -0.6778
 2121SOL    HW2 8216   2.622   6.305   2.232 -0.7098  1.8089 -0.0263
 2121SOL    HW3 8217   2.481   6.251   2.239 -0.4021  0.8313 -1.1061
 2121SOL    MW4 8218   2.549   6.280   2.192 -0.1518 -0.2362 -0.6315
 2122SOL     OW 8219   4.821   4.287   0.927 -0.3285 -0.0017  0.1147
 2122SOL    HW2 8220   4.875   4.237   0.865  0.2484 -0.3775  0.9102
 2122SOL    HW3 8221   4.731   4.271   0.899 -0.0540  2.0567 -2.3539
 2122SOL    MW4 8222   4.816   4.278   0.915 -0.1723 -0.0254  0.0614
 2123SOL     OW 8223   0.209   4.616   5.195 -0.1827 -0.3102 -0.2944
 2123SOL    HW2 8224   0.241   4.579   5.113  0.6848  1.7293 -0.9361
 2123SOL    HW3 8225   0.239   4.707   5.194 -1.0034  0.0440  1.8377
 2123SOL    MW4 8226   0.217   4.623   5.184  0.0332 -0.0659  0.7517
 2124SOL     OW 8227   5.216   4.447   6.238 -0.4851 -0.2968 -0.4666
 2124SOL    HW2 8228   5.149   4.385   6.266 -1.5029  0.7302 -0.5432
 2124SOL    HW3 8229   5.238   4.420   6.149  1.3976 -2.4267  0.5639
 2124SOL    MW4 8230   5.210   4.436   6.230  0.5744 -0.0781 -0.3687
 2125SOL     OW 8231   1.636   0.417   1.172 -0.1051 -0.1293  0.4263
 2125SOL    HW2 8232   1.573   0.393   1.240 -0.6873 -0.6568 -0.2732
 2125SOL    HW3 8233   1.605   0.502   1.140 -1.1797 -0.9320 -0.7264
 2125SOL    MW4 8234   1.623   0.425   1.177  0.2308 -0.0067  0.1615
 2126SOL     OW 8235   3.002   2.061   0.082 -0.4599 -0.2380 -0.3495
 2126SOL    HW2 8236   3.078   2.116   0.098 -0.8124 -0.1995  1.3383
 2126SOL    HW3 8237   3.012   1.988   0.143 -0.9665 -1.0681 -1.2378
 2126SOL    MW4 8238   3.013   2.059   0.092  0.1709 -0.8317  0.1733
 2127SOL     OW 8239   3.504   6.192   4.976  0.4510 -0.0633 -0.0200
 2127SOL    HW2 8240   3.429   6.159   4.927 -1.1774  0.1088  2.1920
 2127SOL    HW3 8241   3.567   6.120   4.975 -0.8334 -1.2281  0.2478
 2127SOL    MW4 8242   3.502   6.178   4.970 -0.2689  0.1732 -0.1185
 2128SOL     OW 8243   5.421   4.952   3.745  0.6923  0.1865  0.5712
 2128SOL    HW2 8244   5.354   5.012   3.713 -0.2160 -1.0529  0.0189
 2128SOL    HW3 8245   5.419   4.879   3.682  2.1814 -0.1309  0.8587
 2128SOL    MW4 8246   5.412   4.950   3.732  0.0393 -0.2644  0.2323
 2129SOL     OW 8247   1.328   0.363   0.733  0.2801 -0.0106  0.3093
 2129SOL    HW2 8248   1.352   0.323   0.816 -1.8808 -0.5452  0.7378
 2129SOL    HW3 8249   1.403   0.347   0.676  2.0177  0.7770  2.2402
 2129SOL    MW4 8250   1.341   0.355   0.736  0.0651  0.2513 -0.4154
 2130SOL     OW 8251   2.536   3.847   0.232 -0.6262  0.3698 -0.4570
 2130SOL    HW2 8252   2.587   3.865   0.311 -1.8754 -0.7662  0.6566
 2130SOL    HW3 8253   2.595   3.795   0.176 -0.1753  0.0377  0.3120
 2130SOL    MW4 8254   2.551   3.842   0.235 -0.4990  0.1396 -0.7601
 2131SOL     OW 8255   3.997   6.155   2.789 -0.3818 -0.2758  0.5364
 2131SOL    HW2 8256   4.055   6.200   2.727  0.4499  0.5073  1.8484
 2131SOL    HW3 8257   3.963   6.225   2.845 -1.4018 -0.9328  0.7688
 2131SOL    MW4 8258   4.000   6.170   2.788  0.0216  0.0453  0.0238
 2132SOL     OW 8259   1.723   4.117   3.661 -0.3016  0.4695  0.1334
 2132SOL    HW2 8260   1.794   4.180   3.674 -0.3770  0.3693  1.1590
 2132SOL    HW3 8261   1.711   4.077   3.747 -0.9459 -0.2133 -0.2626
 2132SOL    MW4 8262   1.731   4.120   3.674  0.7088  0.0548  0.6450
 2133SOL     OW 8263   2.868   1.394   1.867 -0.2946  0.2127 -0.5199
 2133SOL    HW2 8264   2.949   1.343   1.858  0.9799  2.1537 -0.6935
 2133SOL    HW3 8265   2.870   1.428   1.957 -0.6487  0.7059 -0.6923
 2133SOL    MW4 8266   2.879   1.391   1.878  0.0472 -0.3479 -0.2362
 2134SOL     OW 8267   3.269   5.439   5.561  0.0180 -0.3368  0.0524
 2134SOL    HW2 8268   3.328   5.497   5.512  0.0303 -1.3946 -1.2442
 2134SOL    HW3 8269   3.193   5.429   5.504 -0.3303 -0.9570  0.6132
 2134SOL    MW4 8270   3.267   5.446   5.547  0.2994 -0.2010  0.6991
 2135SOL     OW 8271   0.520   4.662   1.099 -0.1119  0.0824 -0.0289
 2135SOL    HW2 8272   0.596   4.683   1.045  0.2369 -1.2893 -0.1132
 2135SOL    HW3 8273   0.543   4.693   1.187  0.1416  0.5195 -0.2441
 2135SOL    MW4 8274   0.533   4.669   1.104  0.3315 -0.1367 -1.1059
 2136SOL     OW 8275   3.547   1.562   4.549 -0.1888  0.5378 -0.1126
 2136SOL    HW2 8276   3.535   1.583   4.456  0.2219  1.5843  0.0619
 2136SOL    HW3 8277   3.524   1.469   4.555 -2.0062  0.8862 -0.9297
 2136SOL    MW4 8278   3.542   1.552   4.537  0.3747 -0.4042 -0.0046
 2137SOL     OW 8279   4.272   2.400   4.450  0.0040 -0.3264  0.5476
 2137SOL    HW2 8280   4.329   2.459   4.400  1.0399 -2.5395 -1.0338
 2137SOL    HW3 8281   4.261   2.324   4.393 -0.0216 -2.3464  3.0952
 2137SOL    MW4 8282   4.278   2.398   4.436  0.1395 -0.0321  0.1599
 2138SOL     OW 8283   6.133   5.028   0.062 -0.1922  0.3299  0.0251
 2138SOL    HW2 8284   6.083   4.960   0.106 -0.3631  0.6826  0.3778
 2138SOL    HW3 8285   6.067   5.087   0.025 -0.0438  0.8994  0.6498
 2138SOL    MW4 8286   6.118   5.027   0.063 -0.5979 -0.0470 -0.3694
 2139SOL     OW 8287   6.003   0.864   4.222  0.4975  0.8470  0.2327
 2139SOL    HW2 8288   6.024   0.878   4.130 -1.2878  1.4402 -0.1193
 2139SOL    HW3 8289   5.970   0.774   4.225 -1.3147  1.4632 -0.1092
 2139SOL    MW4 8290   6.002   0.854   4.210 -0.1680  0.1307  0.4294
 2140SOL     OW 8291   0.023   6.299   1.591 -0.3753 -0.8881 -0.3899
 2140SOL    HW2 8292  -0.005   6.347   1.513  0.0861  0.7658  0.4228
 2140SOL    HW3 8293  -0.057   6.291   1.644  0.0978  1.9842  0.9653
 2140SOL    MW4 8294   0.008   6.304   1.588 -0.2557  0.1927  0.0516
 2141SOL     OW 8295   3.609   5.394   2.337 -0.6874  0.2031 -0.3490
 2141SOL    HW2 8296   3.688   5.406   2.389 -0.2721 -1.4192 -0.5240
 2141SOL    HW3 8297   3.551   5.342   2.392  0.0445 -2.1729 -1.6524
 2141SOL    MW4 8298   3.612   5.388   2.351  0.0435 -0.0216 -0.0991
 2142SOL     OW 8299   3.764   5.195   5.111  0.1407 -0.0254  0.1012
 2142SOL    HW2 8300   3.843   5.217   5.062  0.8905 -0.5675  1.0310
 2142SOL    HW3 8301   3.746   5.104   5.087 -0.0058 -0.0059  0.1407
 2142SOL    MW4 8302   3.772   5.186   5.102 -0.0689  0.2630 -0.2132
 2143SOL     OW 8303   3.439   5.230   2.493 -0.1574 -0.2291  0.4212
 2143SOL    HW2 8304   3.511   5.191   2.542  0.4310 -2.0768 -1.7589
 2143SOL    HW3 8305   3.387   5.156   2.463 -0.5290  0.7956 -1.6400
 2143SOL    MW4 8306   3.442   5.215   2.495  0.2923  0.4475 -0.0942
 2144SOL     OW 8307   1.896   5.367   2.887 -0.1100 -0.0715 -0.3123
 2144SOL    HW2 8308   1.990   5.372   2.900 -0.2753  0.0533  1.0396
 2144SOL    HW3 8309   1.885   5.351   2.794  1.2198  0.6064 -0.6095
 2144SOL    MW4 8310   1.907   5.365   2.877  0.4852 -0.3414  0.0747
 2145SOL     OW 8311   2.608   3.288   2.794 -0.6083  0.0550  0.0449
 2145SOL    HW2 8312   2.652   3.238   2.863 -1.5239 -2.2336 -0.9075
 2145SOL    HW3 8313   2.676   3.307   2.731 -0.1996  0.2084  0.5228
 2145SOL    MW4 8314   2.623   3.284   2.795 -0.4541 -0.1195  0.0883
 2146SOL     OW 8315   5.724   6.406   5.631 -1.2406 -0.3150  0.3766
 2146SOL    HW2 8316   5.714   6.381   5.539  2.5895  2.2572 -0.9741
 2146SOL    HW3 8317   5.784   6.340   5.667  1.9043  1.6633 -0.7872
 2146SOL    MW4 8318   5.731   6.394   5.624 -0.1049 -0.4420 -0.0083
 2147SOL     OW 8319   3.169   6.122   1.301 -0.6108  0.3458 -0.5997
 2147SOL    HW2 8320   3.110   6.139   1.227 -1.1136  1.0512 -0.0526
 2147SOL    HW3 8321   3.252   6.161   1.274 -1.0974  1.5965 -0.3509
 2147SOL    MW4 8322   3.172   6.129   1.288  0.4603 -0.3222  0.2483
 2148SOL     OW 8323   3.023   1.592   3.131  0.2986 -0.5261 -0.3530
 2148SOL    HW2 8324   2.970   1.576   3.209 -0.8985  0.7584 -0.8730
 2148SOL    HW3 8325   3.099   1.641   3.163 -0.4598  0.4785 -0.0421
 2148SOL    MW4 8326   3.026   1.596   3.145 -0.3234  0.3827  0.3906
 2149SOL     OW 8327   6.088   3.023   3.201 -0.1580 -0.2091 -0.0585
 2149SOL    HW2 8328   6.048   2.997   3.119 -2.0116  2.6315 -0.2310
 2149SOL    HW3 8329   6.018   3.070   3.248  1.1943 -0.6031  2.5716
 2149SOL    MW4 8330   6.073   3.026   3.197 -0.2882 -0.0743  0.4642
 2150SOL     OW 8331   4.830   1.709   1.520 -0.2156  0.2059 -0.2844
 2150SOL    HW2 8332   4.894   1.656   1.473  1.0077  1.3592  0.0184
 2150SOL    HW3 8333   4.830   1.793   1.474  0.2675  1.0165  1.1461
 2150SOL    MW4 8334   4.839   1.713   1.508 -0.1224 -0.1612  0.1360
 2151SOL     OW 8335   1.166   5.252   4.073 -0.3637 -0.0480 -0.6145
 2151SOL    HW2 8336   1.184   5.260   3.980 -0.3400  1.4419 -0.5055
 2151SOL    HW3 8337   1.101   5.320   4.091 -1.2807 -1.1003  0.2363
 2151SOL    MW4 8338   1.160   5.262   4.063 -0.6276  0.8632 -0.2155
 2152SOL     OW 8339   1.642   2.131   4.164 -0.8058 -0.4929  0.6305
 2152SOL    HW2 8340   1.639   2.205   4.103 -0.7777  1.2175  2.5975
 2152SOL    HW3 8341   1.661   2.170   4.249  1.2926 -2.9945  1.4525
 2152SOL    MW4 8342   1.644   2.146   4.167  0.2015 -0.5740  0.0043
 2153SOL     OW 8343   5.893   0.899   2.476  0.1473 -0.0453  0.2210
 2153SOL    HW2 8344   5.962   0.855   2.427  0.9371  1.6626 -0.2545
 2153SOL    HW3 8345   5.840   0.942   2.409 -0.7062 -0.3682  0.6715
 2153SOL    MW4 8346   5.895   0.899   2.461 -0.0890  0.2181 -0.1609
 2154SOL     OW 8347   0.347   5.045   5.550  0.0097 -0.1167 -0.1311
 2154SOL    HW2 8348   0.390   4.962   5.571 -1.3196 -0.4372  1.5088
 2154SOL    HW3 8349   0.410   5.090   5.493  0.5819 -2.3827 -1.4001
 2154SOL    MW4 8350   0.361   5.040   5.546 -0.4255 -0.0342  0.1610
 2155SOL     OW 8351   5.461   2.998   2.041 -0.0614 -0.0736  0.6111
 2155SOL    HW2 8352   5.526   2.955   2.097  1.0409  0.9836  0.1873
 2155SOL    HW3 8353   5.451   3.085   2.079 -0.8001 -0.0298  0.3252
 2155SOL    MW4 8354   5.469   3.004   2.053 -0.7148 -0.7072 -0.5218
 2156SOL     OW 8355   3.813   1.514   3.808 -0.3254  0.1903  0.4836
 2156SOL    HW2 8356   3.777   1.553   3.887 -0.2301 -0.3378  0.7961
 2156SOL    HW3 8357   3.833   1.423   3.833 -1.0601 -0.2259 -0.3630
 2156SOL    MW4 8358   3.811   1.507   3.822 -0.2446  0.4003 -0.6215
 2157SOL     OW 8359   3.344   2.017   3.213  0.3632  0.1195  1.1852
 2157SOL    HW2 8360   3.318   1.926   3.201  0.8197 -0.0390  1.3557
 2157SOL    HW3 8361   3.263   2.067   3.203  0.0431 -0.3327  1.4421
 2157SOL    MW4 8362   3.330   2.012   3.210  0.0940 -0.6447  0.2650
 2158SOL     OW 8363   0.880   1.301   2.004  0.0917 -0.5305  0.3324
 2158SOL    HW2 8364   0.855   1.213   2.030 -0.2607 -0.1945  1.1482
 2158SOL    HW3 8365   0.927   1.289   1.921  0.0261 -1.4736  0.4244
 2158SOL    MW4 8366   0.883   1.288   1.996 -0.3352  0.1131 -0.8145
 2159SOL     OW 8367   2.884   5.073   3.773  0.1593 -0.5892 -0.1342
 2159SOL    HW2 8368   2.844   5.135   3.712 -0.0195 -0.7678 -0.1987
 2159SOL    HW3 8369   2.930   5.011   3.716  0.2299 -0.5892 -0.0760
 2159SOL    MW4 8370   2.885   5.073   3.757 -0.5898 -0.5116 -0.1072
 2160SOL     OW 8371   3.374   4.679   2.788  0.4402  0.1881 -0.0196
 2160SOL    HW2 8372   3.395   4.589   2.813  1.0783  0.6991  1.3930
 2160SOL    HW3 8373   3.363   4.725   2.872  0.9890  1.6193 -0.7110
 2160SOL    MW4 8374   3.375   4.673   2.803 -0.2891  0.1643  0.3404
 2161SOL     OW 8375   3.033   5.249   4.606 -0.2139 -0.0048 -0.0689
 2161SOL    HW2 8376   3.084   5.327   4.584  0.1731 -0.2309  0.0203
 2161SOL    HW3 8377   3.026   5.251   4.701  0.5776 -0.5576  0.0116
 2161SOL    MW4 8378   3.039   5.260   4.615 -0.7715 -0.1677  0.3042
 2162SOL     OW 8379   1.440   6.238   5.547 -0.4556 -0.0283  0.2145
 2162SOL    HW2 8380   1.531   6.207   5.543 -0.6118 -0.3994 -0.7251
 2162SOL    HW3 8381   1.390   6.162   5.578 -0.5940 -0.1799 -0.3683
 2162SOL    MW4 8382   1.446   6.224   5.551  0.5219  0.2652  0.3092
 2163SOL     OW 8383   0.463   0.250   2.033  0.1556  0.0136  0.0292
 2163SOL    HW2 8384   0.514   0.198   1.970  0.3243 -0.6166  0.6704
 2163SOL    HW3 8385   0.373   0.242   2.003 -0.0109 -1.8246  0.8912
 2163SOL    MW4 8386   0.458   0.242   2.021  0.4056 -0.0968  0.0938
 2164SOL     OW 8387   3.149   3.269   2.121  0.1815  0.1698  0.3804
 2164SOL    HW2 8388   3.191   3.334   2.066  0.3556 -0.4779 -0.2720
 2164SOL    HW3 8389   3.055   3.277   2.102  0.3316 -0.9301 -1.0446
 2164SOL    MW4 8390   3.142   3.278   2.112  0.2517 -0.3920 -0.4933
 2165SOL     OW 8391   3.893   5.781   6.326  0.1462  0.1713  0.1670
 2165SOL    HW2 8392   3.935   5.750   6.246 -0.5432  0.2017 -0.2211
 2165SOL    HW3 8393   3.913   5.874   6.329 -1.3154  0.5735 -0.9650
 2165SOL    MW4 8394   3.901   5.789   6.315 -0.0171 -0.4032 -0.7083
 2166SOL     OW 8395   3.969   3.257   1.956  0.0298 -0.4035  0.3236
 2166SOL    HW2 8396   3.943   3.190   1.893 -1.8971 -0.7156  1.3883
 2166SOL    HW3 8397   3.963   3.339   1.907  0.4286 -0.8008 -0.4145
 2166SOL    MW4 8398   3.965   3.259   1.942 -0.5724 -0.3764  0.0385
 2167SOL     OW 8399   0.408   6.168   2.880  0.8680 -0.1884 -0.1692
 2167SOL    HW2 8400   0.499   6.142   2.868  0.5134 -0.6954 -2.0840
 2167SOL    HW3 8401   0.365   6.145   2.797 -1.5907 -2.3942  1.5659
 2167SOL    MW4 8402   0.414   6.162   2.867  0.5294  0.0277 -0.3394
 2168SOL     OW 8403   3.417   6.320   0.521  0.2456 -0.5346  0.4176
 2168SOL    HW2 8404   3.413   6.227   0.541  0.2266 -0.9745 -1.4970
 2168SOL    HW3 8405   3.357   6.332   0.447  0.2250  1.0096  0.6423
 2168SOL    MW4 8406   3.409   6.309   0.514 -0.4384  0.7768 -0.0969
 2169SOL     OW 8407   4.589   3.990   2.857 -0.0796 -0.0332 -0.6848
 2169SOL    HW2 8408   4.676   3.951   2.867 -0.3022 -0.8458 -1.7763
 2169SOL    HW3 8409   4.564   3.970   2.767 -0.8285  1.3906 -0.8156
 2169SOL    MW4 8410   4.597   3.982   2.847 -0.1069 -0.0392 -0.4139
 2170SOL     OW 8411   5.420   2.346   4.363 -0.4879 -0.2623 -0.2123
 2170SOL    HW2 8412   5.432   2.300   4.280 -2.5946 -0.3621 -0.5135
 2170SOL    HW3 8413   5.395   2.435   4.338 -3.5163 -0.9040  0.1819
 2170SOL    MW4 8414   5.418   2.352   4.349 -0.0413 -0.2420 -0.3032
 2171SOL     OW 8415   1.472   2.411   4.606  0.6134 -0.0607  0.1478
 2171SOL    HW2 8416   1.501   2.349   4.674  0.2316 -0.1428  0.2425
 2171SOL    HW3 8417   1.379   2.390   4.594  0.3347  0.8689  0.5864
 2171SOL    MW4 8418   1.464   2.400   4.614 -0.4075 -0.5350  0.1431
 2172SOL     OW 8419   5.617   5.511   0.283 -0.3405 -0.1054  0.3990
 2172SOL    HW2 8420   5.687   5.564   0.323  0.5360 -0.9907  0.0843
 2172SOL    HW3 8421   5.601   5.441   0.347 -0.5052 -0.2541  0.1940
 2172SOL    MW4 8422   5.624   5.509   0.297 -0.4505 -0.2351 -0.0917
 2173SOL     OW 8423   5.520   1.859   5.300  0.1012  0.9338 -0.2261
 2173SOL    HW2 8424   5.426   1.855   5.318 -0.0298  1.2292 -0.8159
 2173SOL    HW3 8425   5.552   1.929   5.357 -0.2003  1.4387 -0.6647
 2173SOL    MW4 8426   5.512   1.868   5.310 -0.1037  0.3638  0.2566
 2174SOL     OW 8427   1.440   4.048   1.522 -0.4949  0.2549  0.0502
 2174SOL    HW2 8428   1.448   4.126   1.467 -0.2619  1.1437  1.2821
 2174SOL    HW3 8429   1.388   4.078   1.597  0.4934 -0.4856  1.0559
 2174SOL    MW4 8430   1.434   4.062   1.525  0.0462 -0.0104  0.2181
 2175SOL     OW 8431   4.558   3.786   1.327  0.3606  0.1156  0.2020
 2175SOL    HW2 8432   4.497   3.723   1.290 -0.2179 -0.8385  2.6079
 2175SOL    HW3 8433   4.643   3.742   1.325  0.4158  0.2476 -0.3834
 2175SOL    MW4 8434   4.561   3.772   1.322  0.1817 -0.0877  0.0470
 2176SOL     OW 8435   5.233   4.105   2.221  0.2896 -0.5294  0.7565
 2176SOL    HW2 8436   5.249   4.107   2.315  0.8494  1.1455  0.6446
 2176SOL    HW3 8437   5.145   4.067   2.213 -0.0856  0.0180  2.0032
 2176SOL    MW4 8438   5.223   4.100   2.233 -0.5074  0.0225  0.5644
 2177SOL     OW 8439   6.272   0.911   2.791  0.1602  0.2404 -0.1743
 2177SOL    HW2 8440   6.197   0.910   2.850  0.4529 -0.9901  0.2245
 2177SOL    HW3 8441   6.322   0.989   2.816 -0.3633  0.4066  0.3708
 2177SOL    MW4 8442   6.269   0.921   2.802 -0.6475  0.0728  0.0227
 2178SOL     OW 8443   2.066   3.621   6.079  0.2506 -0.2432  0.1469
 2178SOL    HW2 8444   2.099   3.537   6.110 -1.9500 -1.1068  0.3570
 2178SOL    HW3 8445   2.043   3.606   5.987 -0.8743 -0.1543  0.3892
 2178SOL    MW4 8446   2.067   3.608   6.071 -0.5319 -0.2386  0.3847
 2179SOL     OW 8447   3.246   5.031   3.408  0.5823 -0.0125 -0.4399
 2179SOL    HW2 8448   3.306   5.072   3.346  0.8085 -1.1270 -0.9672
 2179SOL    HW3 8449   3.172   5.091   3.412 -0.3236 -0.8389 -3.2643
 2179SOL    MW4 8450   3.244   5.044   3.401  0.3525  0.3956 -0.7067
 2180SOL     OW 8451   2.188   4.020   4.570  0.1207 -0.2814 -0.4156
 2180SOL    HW2 8452   2.247   3.953   4.538  1.3842 -0.0968  1.4070
 2180SOL    HW3 8453   2.216   4.100   4.526 -0.5873 -0.6903 -1.6443
 2180SOL    MW4 8454   2.199   4.022   4.560 -0.2501  1.1496  0.1632
 2181SOL     OW 8455   5.675   0.264   5.575 -0.3694 -0.4124 -0.6829
 2181SOL    HW2 8456   5.668   0.175   5.609  1.1878 -0.1932  0.3023
 2181SOL    HW3 8457   5.743   0.305   5.627 -0.0532  0.9305 -2.0619
 2181SOL    MW4 8458   5.683   0.258   5.586 -0.1718 -0.1251  0.2601
 2182SOL     OW 8459   1.000   2.980   5.080  0.5005 -0.1705 -0.4159
 2182SOL    HW2 8460   0.983   2.968   5.173  0.6610 -0.4694 -0.4217
 2182SOL    HW3 8461   1.076   2.924   5.063  0.3310 -0.2909 -0.7735
 2182SOL    MW4 8462   1.008   2.971   5.090  0.2477  0.0694 -0.1193
 2183SOL     OW 8463   1.959   2.377   2.983  0.3011  0.8587  0.0190
 2183SOL    HW2 8464   1.887   2.332   3.028  1.1333  1.0260  1.5957
 2183SOL    HW3 8465   2.037   2.327   3.008  0.8587  1.3307 -0.7676
 2183SOL    MW4 8466   1.959   2.364   2.992 -0.2811  0.2372 -0.1517
 2184SOL     OW 8467   1.648   2.679   0.546 -0.0400 -0.2008  0.0382
 2184SOL    HW2 8468   1.720   2.621   0.520  0.6145  1.1719 -1.4091
 2184SOL    HW3 8469   1.588   2.677   0.471 -1.3829 -1.0490  1.0853
 2184SOL    MW4 8470   1.650   2.671   0.533  0.1283  0.8464 -0.2274
 2185SOL     OW 8471   4.840   5.925   4.477  0.6107  0.2345 -0.0781
 2185SOL    HW2 8472   4.801   5.846   4.440  0.3468  0.0675  0.5455
 2185SOL    HW3 8473   4.854   5.905   4.569 -2.2210  1.8856  0.8483
 2185SOL    MW4 8474   4.837   5.912   4.484 -0.0782  0.5319  0.5254
 2186SOL     OW 8475   3.775   1.965   0.535 -0.3882  0.4134 -0.3600
 2186SOL    HW2 8476   3.854   2.013   0.507  0.7435  0.2473  2.2595
 2186SOL    HW3 8477   3.769   1.892   0.474  1.2121  0.7154 -0.9349
 2186SOL    MW4 8478   3.785   1.962   0.523 -0.7225  0.3292  0.0779
 2187SOL     OW 8479   5.327   0.833   5.557 -0.2284 -0.2286 -0.6035
 2187SOL    HW2 8480   5.308   0.796   5.470 -0.7132 -0.4578 -0.4051
 2187SOL    HW3 8481   5.275   0.913   5.562  2.8106  2.0242 -2.0692
 2187SOL    MW4 8482   5.317   0.838   5.546 -0.8231 -0.3600 -0.6076
 2188SOL     OW 8483   1.898   4.822   5.521  0.0359 -0.5786 -0.6528
 2188SOL    HW2 8484   1.938   4.909   5.525 -2.4958  0.6196  0.3109
 2188SOL    HW3 8485   1.863   4.807   5.609 -2.4169 -1.0942 -1.6269
 2188SOL    MW4 8486   1.899   4.832   5.533  0.1913  0.2311  0.2734
 2189SOL     OW 8487   0.606   3.174   4.641  0.0893  0.1708 -0.0452
 2189SOL    HW2 8488   0.592   3.247   4.581 -1.6607  1.1501  1.4426
 2189SOL    HW3 8489   0.568   3.098   4.595  1.6701  0.1980 -1.4785
 2189SOL    MW4 8490   0.599   3.173   4.627  0.7017  0.4625 -0.8884
 2190SOL     OW 8491   5.527   0.681   1.759  0.3525  1.0533 -0.1962
 2190SOL    HW2 8492   5.469   0.681   1.836  0.8604  0.9466  0.1969
 2190SOL    HW3 8493   5.507   0.763   1.714  0.6641  1.5458  0.5364
 2190SOL    MW4 8494   5.517   0.692   1.764 -0.6681 -0.3777 -0.2037
 2191SOL     OW 8495   3.997   6.210   4.072 -0.4393  0.0421  0.4305
 2191SOL    HW2 8496   3.904   6.214   4.050 -0.1570 -0.2032 -0.9392
 2191SOL    HW3 8497   4.023   6.121   4.047  0.1841  0.1364  0.7284
 2191SOL    MW4 8498   3.988   6.199   4.066  0.0236  0.0804 -0.0533
 2192SOL     OW 8499   0.525   3.332   0.385 -0.1002 -0.9971 -0.1881
 2192SOL    HW2 8500   0.517   3.284   0.468 -0.3148 -1.4162 -0.4508
 2192SOL    HW3 8501   0.604   3.385   0.396  0.0861 -1.3332  0.1464
 2192SOL    MW4 8502   0.534   3.332   0.398 -0.0113 -0.2079 -0.2754
 2193SOL     OW 8503   2.760   4.154   1.404  0.0336 -0.0625 -0.0923
 2193SOL    HW2 8504   2.757   4.180   1.312  1.2465  0.4549  0.0000
 2193SOL    HW3 8505   2.719   4.067   1.405 -2.0451  0.8389 -0.7519
 2193SOL    MW4 8506   2.754   4.146   1.392 -0.2696  0.2050 -0.1055
 2194SOL     OW 8507   1.016   1.360   1.688  0.0356  0.5652 -0.1493
 2194SOL    HW2 8508   0.927   1.326   1.678  0.1741  0.3042 -0.5103
 2194SOL    HW3 8509   1.072   1.285   1.673  0.3277  0.8122 -0.2965
 2194SOL    MW4 8510   1.011   1.346   1.685 -0.4655 -0.7082  0.4816
 2195SOL     OW 8511   5.546   3.493   2.543  0.0257 -0.6092  0.6550
 2195SOL    HW2 8512   5.510   3.415   2.585  0.6422 -0.7527  0.9260
 2195SOL    HW3 8513   5.641   3.486   2.556  0.1722 -0.3000 -0.1508
 2195SOL    MW4 8514   5.554   3.482   2.550  0.2019  0.0437  0.1188
 2196SOL     OW 8515   1.403   4.907   1.051 -0.0448 -0.1119  0.0449
 2196SOL    HW2 8516   1.483   4.904   1.104 -1.4063  1.6302  2.4483
 2196SOL    HW3 8517   1.332   4.901   1.115 -1.8344  0.2196 -1.8045
 2196SOL    MW4 8518   1.404   4.906   1.066  0.1414 -0.1171  0.0746
 2197SOL     OW 8519   3.697   0.442   5.413  0.0942  0.1077  0.3445
 2197SOL    HW2 8520   3.743   0.368   5.454  0.6011  0.5066  0.4986
 2197SOL    HW3 8521   3.610   0.439   5.452  0.4211  0.1933  1.1081
 2197SOL    MW4 8522   3.692   0.432   5.424  0.4036 -0.1541  0.5617
 2198SOL     OW 8523   5.984   5.038   0.387 -0.4163 -0.0359 -0.1216
 2198SOL    HW2 8524   6.046   4.992   0.443 -0.8393  0.5186  0.8225
 2198SOL    HW3 8525   6.038   5.104   0.341 -0.1918 -0.0017  0.1875
 2198SOL    MW4 8526   6.000   5.041   0.388  0.0191  0.7501 -0.1106
 2199SOL     OW 8527   2.802   0.797   4.327  0.1053  0.4790  0.1801
 2199SOL    HW2 8528   2.769   0.710   4.302  1.1741  0.5655 -1.6810
 2199SOL    HW3 8529   2.727   0.840   4.367 -0.6077 -1.0909  0.6349
 2199SOL    MW4 8530   2.788   0.791   4.329  0.2579  0.6361 -0.3857
 2200SOL     OW 8531   0.670   3.249   1.741 -0.1295  0.1802 -0.2682
 2200SOL    HW2 8532   0.713   3.306   1.804 -0.1052 -0.8468  0.6627
 2200SOL    HW3 8533   0.620   3.309   1.685 -0.6670  1.0593  1.1167
 2200SOL    MW4 8534   0.669   3.264   1.742  0.4806 -0.1563  0.5281
 2201SOL     OW 8535   4.564   6.120   1.166  0.9941 -0.4159  0.1231
 2201SOL    HW2 8536   4.586   6.178   1.094 -0.2162 -1.5859 -1.2493
 2201SOL    HW3 8537   4.618   6.042   1.152 -0.3109 -1.2544 -0.4061
 2201SOL    MW4 8538   4.574   6.117   1.155  0.0678  0.1851  0.6777
 2202SOL     OW 8539   2.065   4.702   3.064  0.1261 -0.4206 -0.0977
 2202SOL    HW2 8540   2.088   4.795   3.052  1.3802 -0.7209 -0.2271
 2202SOL    HW3 8541   2.139   4.655   3.024  0.0061 -1.4759  0.8925
 2202SOL    MW4 8542   2.078   4.708   3.057  0.4863 -0.1961  0.3172
 2203SOL     OW 8543   6.138   0.513   0.035  0.5668  0.0323 -0.4602
 2203SOL    HW2 8544   6.073   0.492  -0.032  0.1019 -0.0714  0.0195
 2203SOL    HW3 8545   6.222   0.502  -0.009  0.4614 -3.7349 -0.0733
 2203SOL    MW4 8546   6.141   0.509   0.020 -0.3108 -0.1858  0.5528
 2204SOL     OW 8547   3.744   3.234   4.168  0.2067  0.2358 -0.0320
 2204SOL    HW2 8548   3.707   3.146   4.159 -2.5317  1.3739 -0.9691
 2204SOL    HW3 8549   3.762   3.261   4.078 -0.1787  1.0808  0.1381
 2204SOL    MW4 8550   3.741   3.226   4.155 -0.5326  0.4312 -0.2884
 2205SOL     OW 8551   5.251   1.468   6.211 -0.2940 -0.0670 -0.3825
 2205SOL    HW2 8552   5.259   1.382   6.170 -2.0897 -1.3789  1.7680
 2205SOL    HW3 8553   5.175   1.508   6.168  0.4449  0.4054 -1.2729
 2205SOL    MW4 8554   5.242   1.462   6.200 -0.3449 -0.4557  0.4785
 2206SOL     OW 8555   0.068   0.854   6.176 -0.4262  0.1403 -0.2201
 2206SOL    HW2 8556   0.084   0.823   6.266  0.2663  2.0319  0.3659
 2206SOL    HW3 8557   0.136   0.812   6.124 -0.5172 -0.5877  0.2325
 2206SOL    MW4 8558   0.079   0.845   6.181  0.1368  0.5923 -0.6768
 2207SOL     OW 8559   5.757   3.970   4.924 -0.4999  0.4919 -0.4013
 2207SOL    HW2 8560   5.736   3.906   4.857 -2.2765 -0.2389  0.7671
 2207SOL    HW3 8561   5.843   3.943   4.958 -0.6658 -0.5367 -0.7677
 2207SOL    MW4 8562   5.766   3.958   4.920  0.1140  0.4128 -0.4162
 2208SOL     OW 8563   2.035   2.952   3.630  0.7733  0.3426 -0.2281
 2208SOL    HW2 8564   2.062   2.902   3.708  1.3031 -0.1155 -0.6909
 2208SOL    HW3 8565   2.107   3.013   3.615 -0.4630  2.2103  1.1109
 2208SOL    MW4 8566   2.048   2.953   3.638  0.2130 -0.5710  0.0780
 2209SOL     OW 8567   2.558   2.239   2.950  0.3737 -0.1293  0.1456
 2209SOL    HW2 8568   2.567   2.262   3.043  3.6619  0.0572 -0.0848
 2209SOL    HW3 8569   2.588   2.316   2.903 -1.9033  0.0195 -1.1641
 2209SOL    MW4 8570   2.563   2.252   2.956 -0.0796 -0.0771 -0.0358
 2210SOL     OW 8571   1.839   0.690   3.468 -0.1158  0.2187 -0.5336
 2210SOL    HW2 8572   1.865   0.662   3.556  1.4067  1.1285 -0.6563
 2210SOL    HW3 8573   1.845   0.611   3.415  1.5712  0.1695 -0.3385
 2210SOL    MW4 8574   1.844   0.676   3.473  0.1488  0.2865 -0.1407
 2211SOL     OW 8575   5.454   4.212   0.086 -0.0060  0.6964  0.1149
 2211SOL    HW2 8576   5.538   4.187   0.047  0.2199 -1.8869  1.9875
 2211SOL    HW3 8577   5.392   4.213   0.013  1.1067 -0.2007 -0.8698
 2211SOL    MW4 8578   5.457   4.209   0.072 -0.4127 -0.1782 -0.4972
 2212SOL     OW 8579   0.223   4.877   2.661  0.4023 -0.4858  0.6950
 2212SOL    HW2 8580   0.288   4.853   2.727  1.9305  1.9603  0.2237
 2212SOL    HW3 8581   0.271   4.876   2.579  0.0568  1.8051  0.3841
 2212SOL    MW4 8582   0.238   4.874   2.659 -0.1566  0.2421  0.3488
 2213SOL     OW 8583   2.751   2.748   0.647  0.1619 -0.4328 -0.8597
 2213SOL    HW2 8584   2.843   2.764   0.670  0.2296 -0.3324 -1.1864
 2213SOL    HW3 8585   2.751   2.746   0.551 -0.2610  0.0830 -0.8781
 2213SOL    MW4 8586   2.763   2.750   0.637 -0.0282  0.5153  0.0227
 2214SOL     OW 8587   0.128   5.052   4.453  0.2158  0.0004 -0.0619
 2214SOL    HW2 8588   0.076   5.031   4.376 -0.4073  2.0137 -0.2510
 2214SOL    HW3 8589   0.202   5.102   4.419 -0.3528  1.3939  0.6422
 2214SOL    MW4 8590   0.131   5.056   4.438  0.3671  0.1366  0.3583
 2215SOL     OW 8591   2.803   2.325   2.673 -0.6538 -1.0735  0.1236
 2215SOL    HW2 8592   2.874   2.349   2.613 -0.9208  0.2053  0.2951
 2215SOL    HW3 8593   2.845   2.272   2.740 -0.0917 -1.3476 -0.4364
 2215SOL    MW4 8594   2.818   2.321   2.674  0.4001 -0.3225  0.0045
 2216SOL     OW 8595   1.398   3.675   1.274  0.0768 -0.6414 -0.2586
 2216SOL    HW2 8596   1.386   3.770   1.262 -0.0391 -0.4922  0.9135
 2216SOL    HW3 8597   1.430   3.644   1.190 -0.5203  0.3376 -0.8704
 2216SOL    MW4 8598   1.401   3.684   1.261  0.5840 -0.0818 -0.2308
 2217SOL     OW 8599   5.734   5.750   1.541 -0.1020  0.0678 -0.4806
 2217SOL    HW2 8600   5.675   5.737   1.466 -1.0194 -0.8040  0.3588
 2217SOL    HW3 8601   5.675   5.770   1.614  0.6640 -0.6700  0.3487
 2217SOL    MW4 8602   5.718   5.751   1.541  0.2486  0.3655 -0.1099
 2218SOL     OW 8603   0.897   3.235   3.950 -0.3002  0.1429  0.3805
 2218SOL    HW2 8604   0.896   3.184   3.869 -1.3921  1.0663 -0.2143
 2218SOL    HW3 8605   0.978   3.209   3.994 -0.1049 -0.9971 -0.5969
 2218SOL    MW4 8606   0.907   3.225   3.945  0.0895  0.1504  0.4381
 2219SOL     OW 8607   3.638   5.626   3.962  0.2728 -0.2789 -0.0946
 2219SOL    HW2 8608   3.634   5.565   3.889 -1.6295 -0.7538  0.3516
 2219SOL    HW3 8609   3.589   5.703   3.933 -0.2898 -0.3732  0.5724
 2219SOL    MW4 8610   3.631   5.628   3.949 -0.0370 -0.2011  0.1698
 2220SOL     OW 8611   5.370   3.050   4.204 -0.1475 -0.6319  0.4378
 2220SOL    HW2 8612   5.281   3.048   4.168  0.0369 -0.3625 -0.0465
 2220SOL    HW3 8613   5.358   3.062   4.298 -0.6201 -0.1699  0.3251
 2220SOL    MW4 8614   5.357   3.051   4.212  0.2852 -0.7553 -0.4823
 2221SOL     OW 8615   0.430   0.291   5.323 -0.0218 -0.1407  0.1675
 2221SOL    HW2 8616   0.495   0.321   5.387  0.7901 -1.1180 -0.1748
 2221SOL    HW3 8617   0.478   0.232   5.266 -0.9727 -0.0508 -0.7570
 2221SOL    MW4 8618   0.445   0.287   5.324  0.0007  0.0860 -0.2570
 2222SOL     OW 8619   5.084   1.872   6.103  0.0417  0.1969 -0.0225
 2222SOL    HW2 8620   5.056   1.783   6.123 -1.6163  0.4612 -0.9467
 2222SOL    HW3 8621   5.044   1.926   6.171  0.1440  0.3393 -0.0761
 2222SOL    MW4 8622   5.075   1.868   6.114 -0.3240 -0.6043  0.0097
 2223SOL     OW 8623   5.047   4.687   6.236 -0.0771  0.7198  0.0466
 2223SOL    HW2 8624   5.091   4.602   6.244 -1.5371 -0.1672 -0.7009
 2223SOL    HW3 8625   5.060   4.712   6.145  1.1316  1.7777  0.4933
 2223SOL    MW4 8626   5.054   4.679   6.225 -0.2123  0.6412 -0.1335
 2224SOL     OW 8627   2.077   3.972   2.936 -0.3169  0.4925 -0.1410
 2224SOL    HW2 8628   2.080   3.921   2.856  0.0350  0.9086 -0.4043
 2224SOL    HW3 8629   2.036   3.915   3.001  2.3806 -1.1284  0.2841
 2224SOL    MW4 8630   2.072   3.958   2.934  0.2594 -0.2903 -0.5076
 2225SOL     OW 8631   6.359   2.027   6.325 -0.0839 -0.4651  0.6739
 2225SOL    HW2 8632   6.326   1.975   6.398  0.4599  0.6638  1.7755
 2225SOL    HW3 8633   6.446   1.992   6.307  0.7978  0.7574  2.2354
 2225SOL    MW4 8634   6.366   2.016   6.332 -0.3308 -0.0076 -0.3582
 2226SOL     OW 8635   1.195   1.919   6.300 -0.0171  0.2441 -0.0680
 2226SOL    HW2 8636   1.165   2.007   6.279 -0.1684 -0.0010 -0.9191
 2226SOL    HW3 8637   1.255   1.896   6.230 -0.5703 -0.6232 -0.2799
 2226SOL    MW4 8638   1.199   1.927   6.288 -0.9826  0.3569  1.0652
 2227SOL     OW 8639   5.147   1.024   0.713 -0.9051 -0.2335  0.6924
 2227SOL    HW2 8640   5.087   1.067   0.652 -1.0193 -1.4459 -0.0827
 2227SOL    HW3 8641   5.229   1.016   0.664  0.1506  1.9692  1.9499
 2227SOL    MW4 8642   5.150   1.028   0.698 -0.4402 -0.5098  0.0966
 2228SOL     OW 8643   4.349   5.999   5.134  0.4529  0.2163 -0.6403
 2228SOL    HW2 8644   4.320   6.078   5.178  2.1146  1.1871 -1.1590
 2228SOL    HW3 8645   4.406   6.031   5.063  1.1999 -1.4299 -0.8418
 2228SOL    MW4 8646   4.353   6.013   5.130 -0.4833  0.0675 -0.0324
 2229SOL     OW 8647   1.210   3.909   1.970  0.3956  0.0093 -0.1988
 2229SOL    HW2 8648   1.190   3.849   1.897  2.0235  1.2425 -1.7513
 2229SOL    HW3 8649   1.252   3.853   2.035 -0.5455 -1.0163 -0.4391
 2229SOL    MW4 8650   1.213   3.893   1.969  0.3686 -0.7207 -0.2809
 2230SOL     OW 8651   1.524   3.047   1.432  0.4212  0.1214 -0.3301
 2230SOL    HW2 8652   1.619   3.040   1.425  0.3777 -0.7097 -0.2283
 2230SOL    HW3 8653   1.493   2.956   1.430 -0.3256  0.3492  0.2730
 2230SOL    MW4 8654   1.533   3.034   1.431 -0.1155  0.3416 -0.0029
 2231SOL     OW 8655   5.592   3.563   5.159 -0.1301 -0.0169 -0.0107
 2231SOL    HW2 8656   5.570   3.639   5.214 -0.1793 -0.5509  0.7274
 2231SOL    HW3 8657   5.687   3.570   5.147  0.5412 -1.7430  3.1063
 2231SOL    MW4 8658   5.602   3.574   5.165 -1.0367  0.1413  0.4755
 2232SOL     OW 8659   4.022   5.850   3.365 -0.0949 -0.2831 -0.3245
 2232SOL    HW2 8660   4.004   5.929   3.415  0.1400 -0.4209 -0.0185
 2232SOL    HW3 8661   3.998   5.872   3.275  2.0447  0.9012 -0.6821
 2232SOL    MW4 8662   4.016   5.863   3.360  0.0341 -0.1468 -0.0514
 2233SOL     OW 8663   3.520   3.073   2.698 -0.0244 -0.1469  0.2611
 2233SOL    HW2 8664   3.444   3.130   2.692 -0.3239 -0.5607  0.0633
 2233SOL    HW3 8665   3.490   2.998   2.749  0.1078 -0.5317 -0.2131
 2233SOL    MW4 8666   3.506   3.070   2.704 -0.2576  0.4978  0.2723
 2234SOL     OW 8667   3.887   3.408   0.341  0.2445 -0.1557  0.2205
 2234SOL    HW2 8668   3.966   3.458   0.322 -0.7980  0.9232 -1.5411
 2234SOL    HW3 8669   3.903   3.370   0.427  1.4551  2.4651  1.2475
 2234SOL    MW4 8670   3.900   3.409   0.349 -0.3189  0.5928 -0.3367
 2235SOL     OW 8671   6.309   3.004   0.289 -0.5099 -0.6038 -0.3675
 2235SOL    HW2 8672   6.312   3.082   0.344  1.3866 -1.6982  1.1711
 2235SOL    HW3 8673   6.223   2.965   0.308 -0.3322 -0.3677  0.9835
 2235SOL    MW4 8674   6.298   3.009   0.299 -0.6731 -0.3394 -0.1026
 2236SOL     OW 8675   4.316   4.515   0.565 -0.1395 -0.1206 -0.7476
 2236SOL    HW2 8676   4.295   4.576   0.494  0.2427 -0.7032 -1.3608
 2236SOL    HW3 8677   4.332   4.431   0.522  0.6614 -0.3527 -0.0296
 2236SOL    MW4 8678   4.315   4.512   0.550 -0.3549  0.0119 -0.1047
 2237SOL     OW 8679   2.162   1.485   1.356 -0.5112  0.3632  0.5826
 2237SOL    HW2 8680   2.072   1.489   1.388 -0.7049 -0.8668  0.2479
 2237SOL    HW3 8681   2.184   1.575   1.334 -1.2049  0.8728  1.8835
 2237SOL    MW4 8682   2.153   1.497   1.358 -0.5301 -0.1890 -0.3554
 2238SOL     OW 8683   2.806   5.288   5.694 -0.3782 -0.3394  0.0376
 2238SOL    HW2 8684   2.760   5.244   5.623 -0.1489 -0.7897  0.1656
 2238SOL    HW3 8685   2.835   5.371   5.656  1.3185 -1.3423 -0.9599
 2238SOL    MW4 8686   2.804   5.293   5.680  0.4651 -0.5901 -0.2136
 2239SOL     OW 8687   4.173   0.234   5.949  0.0488  0.3675 -0.0025
 2239SOL    HW2 8688   4.094   0.285   5.967 -0.5103 -0.1790 -0.8511
 2239SOL    HW3 8689   4.143   0.161   5.894  1.2088  0.3938 -0.7029
 2239SOL    MW4 8690   4.159   0.231   5.944  0.5372  0.0245 -0.8298
 2240SOL     OW 8691   5.229   4.763   1.603 -0.1419 -0.2664  0.3064
 2240SOL    HW2 8692   5.282   4.687   1.576 -0.6572 -0.1919 -0.9731
 2240SOL    HW3 8693   5.243   4.827   1.533  0.9023  1.1473  1.7468
 2240SOL    MW4 8694   5.238   4.761   1.590  0.2517 -0.3918  0.1592
 2241SOL     OW 8695   6.345   5.689   5.483 -0.3036  0.7342  0.0077
 2241SOL    HW2 8696   6.298   5.651   5.409  0.2123  1.2031 -0.5737
 2241SOL    HW3 8697   6.396   5.616   5.519  0.2792  0.7330 -0.7797
 2241SOL    MW4 8698   6.346   5.674   5.478 -0.7493  0.0919 -0.2682
 2242SOL     OW 8699   4.829   3.521   0.976 -0.1432  0.1107  0.3255
 2242SOL    HW2 8700   4.820   3.465   1.053  2.6551 -1.2924 -0.2488
 2242SOL    HW3 8701   4.922   3.542   0.973 -0.8429  3.8117 -0.2474
 2242SOL    MW4 8702   4.840   3.517   0.986  0.2610  0.3187 -0.8348
 2243SOL     OW 8703   5.849   1.658   5.694 -0.4378 -0.2380 -0.5639
 2243SOL    HW2 8704   5.916   1.606   5.650 -0.4858 -0.7172 -0.0896
 2243SOL    HW3 8705   5.871   1.749   5.674  0.1976 -0.4018 -0.6293
 2243SOL    MW4 8706   5.861   1.663   5.686  0.1365 -0.2946  0.1052
 2244SOL     OW 8707   0.675   3.074   0.981  0.8875 -0.6973 -0.4631
 2244SOL    HW2 8708   0.742   3.041   0.920  0.4769  0.0334 -1.3260
 2244SOL    HW3 8709   0.715   3.150   1.022  0.0343  0.7725 -2.2144
 2244SOL    MW4 8710   0.689   3.079   0.978  0.5187  0.2896 -0.0570
 2245SOL     OW 8711   3.692   0.081   3.076 -0.3176 -0.0730 -0.4283
 2245SOL    HW2 8712   3.640   0.001   3.067 -1.4220  0.4635  0.8278
 2245SOL    HW3 8713   3.776   0.060   3.034 -1.4400 -1.0412 -2.2969
 2245SOL    MW4 8714   3.696   0.067   3.069 -0.2405  0.5080 -0.2551
 2246SOL     OW 8715   5.392   5.505   6.095 -0.2752 -0.4845  0.0361
 2246SOL    HW2 8716   5.435   5.474   6.015 -1.6937  0.3851 -1.1109
 2246SOL    HW3 8717   5.303   5.469   6.090 -0.6697  0.3626  0.7549
 2246SOL    MW4 8718   5.386   5.496   6.084  0.4047  0.2789  0.1759
 2247SOL     OW 8719   3.325   2.175   0.892 -0.2657  0.6025 -0.2175
 2247SOL    HW2 8720   3.283   2.203   0.810 -0.3911 -0.2381 -0.4481
 2247SOL    HW3 8721   3.390   2.111   0.865  0.9499  1.6253  0.1745
 2247SOL    MW4 8722   3.328   2.170   0.878  0.7979  0.1676  0.0024
 2248SOL     OW 8723   3.274   5.112   1.044  0.4029 -0.0512  0.7220
 2248SOL    HW2 8724   3.259   5.057   0.967  1.2403 -0.7140  1.0136
 2248SOL    HW3 8725   3.327   5.058   1.102  2.5613  1.5523  0.3944
 2248SOL    MW4 8726   3.279   5.098   1.042 -0.5178 -0.5910 -0.0653
 2249SOL     OW 8727   4.302   2.915   1.642  0.1306 -0.0251  0.4380
 2249SOL    HW2 8728   4.364   2.856   1.683  1.3867  0.4826 -0.6492
 2249SOL    HW3 8729   4.303   2.994   1.696  0.8573  0.1869  0.1206
 2249SOL    MW4 8730   4.310   2.917   1.654  0.1940  0.1785 -0.1159
 2250SOL     OW 8731   1.147   1.243   1.217 -0.4488  0.3073  0.6935
 2250SOL    HW2 8732   1.104   1.157   1.220 -0.1401  0.1351  0.1871
 2250SOL    HW3 8733   1.133   1.279   1.305  0.6706 -0.8628  1.3855
 2250SOL    MW4 8734   1.139   1.237   1.229  0.2312 -0.1633 -0.2402
 2251SOL     OW 8735   0.246   3.198   5.415 -0.2939 -0.3168 -0.4688
 2251SOL    HW2 8736   0.270   3.286   5.386 -1.8028  0.2253 -0.1539
 2251SOL    HW3 8737   0.223   3.151   5.335  2.3811 -1.1024 -0.8841
 2251SOL    MW4 8738   0.246   3.204   5.401  0.6225  0.3662 -0.0519
 2252SOL     OW 8739   4.355   1.477   0.137 -0.3204  0.1850  0.0031
 2252SOL    HW2 8740   4.319   1.565   0.139  0.4492  0.6024 -2.1108
 2252SOL    HW3 8741   4.282   1.421   0.109 -0.7447  0.1610  1.1143
 2252SOL    MW4 8742   4.341   1.481   0.133  0.0889 -0.2482  0.0040
 2253SOL     OW 8743   6.025   1.485   2.380  0.2239 -0.2253  0.3726
 2253SOL    HW2 8744   5.981   1.570   2.379  0.0751 -0.2770  1.2272
 2253SOL    HW3 8745   5.971   1.432   2.440  1.3299 -0.3409  1.2997
 2253SOL    MW4 8746   6.012   1.489   2.388 -0.6230 -0.1873 -0.7021
 2254SOL     OW 8747   4.877   2.102   6.011 -0.3017 -0.2643 -0.3104
 2254SOL    HW2 8748   4.851   2.187   5.977 -0.5709 -0.0100  0.5313
 2254SOL    HW3 8749   4.957   2.118   6.060  0.7505 -0.8262 -1.7563
 2254SOL    MW4 8750   4.884   2.115   6.013 -0.4754 -0.0624  0.3462
 2255SOL     OW 8751   3.658   5.564   0.687  0.1200  0.7753  0.0233
 2255SOL    HW2 8752   3.661   5.659   0.686 -0.4178  0.8313  1.4393
 2255SOL    HW3 8753   3.622   5.542   0.773  2.3840 -0.7382  0.7019
 2255SOL    MW4 8754   3.654   5.573   0.698 -0.3611 -0.0944  0.1502
 2256SOL     OW 8755   4.003   5.606   1.798 -0.0041 -0.5552  0.1602
 2256SOL    HW2 8756   4.074   5.603   1.862  0.9442 -0.8215 -0.8729
 2256SOL    HW3 8757   4.033   5.668   1.731 -1.3947  0.4584  0.4311
 2256SOL    MW4 8758   4.017   5.614   1.797  0.0844  0.1294  0.2488
 2257SOL     OW 8759   2.352   1.065   5.852  0.2700  0.1806  0.7981
 2257SOL    HW2 8760   2.270   1.018   5.869 -0.5736  0.9275 -0.8735
 2257SOL    HW3 8761   2.415   1.028   5.913 -1.6589  0.5602  3.1697
 2257SOL    MW4 8762   2.349   1.054   5.862 -0.0511 -0.0100  0.1153
 2258SOL     OW 8763   0.025   0.070   6.299 -0.1049 -0.4429 -0.2007
 2258SOL    HW2 8764   0.049   0.132   6.230  1.2243  0.3836  0.9448
 2258SOL    HW3 8765   0.059  -0.015   6.268 -1.0783 -0.4477 -1.3311
 2258SOL    MW4 8766   0.033   0.067   6.286  0.2948  0.2287  0.4794
 2259SOL     OW 8767   3.704   5.919   0.172  0.6837 -0.3271  0.3243
 2259SOL    HW2 8768   3.727   6.012   0.177  1.4125 -0.3032 -2.1358
 2259SOL    HW3 8769   3.697   5.901   0.078 -1.5778 -2.2771  0.7615
 2259SOL    MW4 8770   3.706   5.929   0.161  0.0072 -0.7517 -0.1688
 2260SOL     OW 8771   3.488   6.089   4.653  0.2366 -0.4445  1.0718
 2260SOL    HW2 8772   3.448   6.074   4.738  0.8045  1.4105  1.7126
 2260SOL    HW3 8773   3.543   6.167   4.665  0.7115 -0.4191 -0.8549
 2260SOL    MW4 8774   3.490   6.098   4.666  0.2694 -0.0208 -0.2091
 2261SOL     OW 8775   3.981   2.155   0.450  0.2597 -0.0921 -0.1696
 2261SOL    HW2 8776   4.068   2.117   0.443  0.5354  0.7549 -1.7071
 2261SOL    HW3 8777   3.937   2.128   0.370 -1.2977 -1.4062  1.0519
 2261SOL    MW4 8778   3.986   2.146   0.439  0.3347  0.2110  0.1191
 2262SOL     OW 8779   4.991   5.437   2.022 -0.2549  0.1461 -0.3528
 2262SOL    HW2 8780   5.079   5.472   2.014 -0.0691 -0.5836 -1.6982
 2262SOL    HW3 8781   4.972   5.441   2.116  0.5169  1.9513 -0.2286
 2262SOL    MW4 8782   5.000   5.442   2.034  0.1297  0.0382 -0.3467
 2263SOL     OW 8783   0.912   4.670   2.240  0.0519 -1.0449  0.1860
 2263SOL    HW2 8784   0.951   4.657   2.154  0.6850 -0.7509  0.4262
 2263SOL    HW3 8785   0.968   4.620   2.299  0.7524  0.2932  0.6916
 2263SOL    MW4 8786   0.924   4.662   2.236  0.0712 -0.6575 -0.1190
 2264SOL     OW 8787   3.992   1.624   6.279  0.3311 -0.3217  0.3813
 2264SOL    HW2 8788   3.974   1.567   6.204 -1.7785  0.9714 -0.1709
 2264SOL    HW3 8789   3.933   1.593   6.348 -0.7635  1.0347  0.1118
 2264SOL    MW4 8790   3.982   1.613   6.278 -0.6520 -0.1682  0.2882
 2265SOL     OW 8791   2.999   2.905   5.923 -0.2995 -0.1925 -0.2828
 2265SOL    HW2 8792   3.028   2.815   5.906 -0.9179 -0.3720 -0.4188
 2265SOL    HW3 8793   3.080   2.954   5.937  0.1597 -0.3478 -2.1761
 2265SOL    MW4 8794   3.014   2.900   5.923 -0.6417  0.1648  0.4630
 2266SOL     OW 8795   0.386   4.378   4.219 -0.1516 -0.1459 -0.0193
 2266SOL    HW2 8796   0.454   4.408   4.159 -0.9733 -0.7388 -1.2842
 2266SOL    HW3 8797   0.331   4.319   4.167 -0.8269 -0.7833  1.3453
 2266SOL    MW4 8798   0.387   4.374   4.204  0.3776  0.3941  0.4059
 2267SOL     OW 8799   4.485   3.145   4.544 -0.7040 -0.2639 -0.7256
 2267SOL    HW2 8800   4.494   3.090   4.622 -1.0338 -0.4706 -0.8316
 2267SOL    HW3 8801   4.403   3.193   4.558  0.7266  2.0031  0.4887
 2267SOL    MW4 8802   4.475   3.144   4.556  0.2062  0.3486  0.0390
 2268SOL     OW 8803   3.383   1.173   1.296 -0.0001 -0.3069 -0.9277
 2268SOL    HW2 8804   3.352   1.098   1.246  1.3180 -0.5468 -1.4300
 2268SOL    HW3 8805   3.379   1.144   1.387 -0.0218 -0.7828 -1.0773
 2268SOL    MW4 8806   3.378   1.160   1.302 -0.8627 -0.5004  0.7837
 2269SOL     OW 8807   3.227   3.991   1.626  0.4686 -0.2672  0.0862
 2269SOL    HW2 8808   3.132   3.990   1.617  0.2285 -2.3484  2.0923
 2269SOL    HW3 8809   3.254   3.901   1.607  2.1625  0.4407 -1.1638
 2269SOL    MW4 8810   3.218   3.979   1.622 -0.4464  0.7851 -0.0387
 2270SOL     OW 8811   4.590   4.395   0.303  0.7621  0.2442  0.8158
 2270SOL    HW2 8812   4.616   4.353   0.385 -0.4988 -0.9810  0.6180
 2270SOL    HW3 8813   4.665   4.381   0.244  0.5612 -1.3295  0.9079
 2270SOL    MW4 8814   4.603   4.388   0.306  0.4469  0.7758  0.1328
 2271SOL     OW 8815   0.334   6.040   3.961 -0.0653 -0.3270  0.3862
 2271SOL    HW2 8816   0.294   5.974   4.018 -0.1699 -0.6856 -0.1023
 2271SOL    HW3 8817   0.422   6.053   3.998  0.0861 -1.0059  0.2674
 2271SOL    MW4 8818   0.340   6.033   3.974 -0.3828 -0.4723 -0.5019
 2272SOL     OW 8819   1.219   3.048   2.245  0.6485 -0.2001 -0.0737
 2272SOL    HW2 8820   1.307   3.019   2.222  0.5047 -2.3811  1.7361
 2272SOL    HW3 8821   1.171   2.967   2.265 -1.0882  1.0434  1.1985
 2272SOL    MW4 8822   1.224   3.034   2.245 -0.1636  0.0495 -0.3830
 2273SOL     OW 8823   1.988   5.343   5.216 -0.2699  0.0005 -0.1081
 2273SOL    HW2 8824   1.905   5.369   5.256 -0.1402  0.6892 -0.2815
 2273SOL    HW3 8825   2.012   5.417   5.160 -0.7099 -1.1535 -1.9047
 2273SOL    MW4 8826   1.980   5.356   5.214 -0.6002  0.4733 -0.1304
 2274SOL     OW 8827   1.385   6.387   1.842 -0.6250  0.1996  0.6801
 2274SOL    HW2 8828   1.465   6.372   1.792 -0.8967  2.0121 -0.3995
 2274SOL    HW3 8829   1.414   6.397   1.933  0.1642 -0.7671  0.5443
 2274SOL    MW4 8830   1.399   6.386   1.847 -0.0980  1.0459  0.0882
 2275SOL     OW 8831   0.304   4.066   0.568  0.1585 -0.2538  0.3911
 2275SOL    HW2 8832   0.354   4.015   0.633  1.5741  1.2524  0.5492
 2275SOL    HW3 8833   0.272   4.142   0.617 -1.7174 -0.8184  0.1029
 2275SOL    MW4 8834   0.307   4.069   0.583  0.3030  0.0533  0.1498
 2276SOL     OW 8835   6.240   3.531   4.622  0.0833  0.1340 -0.4036
 2276SOL    HW2 8836   6.272   3.489   4.542  0.3955 -0.1521 -0.1290
 2276SOL    HW3 8837   6.154   3.566   4.597 -0.7489 -1.7492 -0.3098
 2276SOL    MW4 8838   6.233   3.530   4.608  0.0184  0.0337  0.5332
 2277SOL     OW 8839   5.963   4.091   0.686 -0.2455  0.5649  0.3182
 2277SOL    HW2 8840   5.870   4.112   0.698  0.1377  1.7497  1.3297
 2277SOL    HW3 8841   6.010   4.169   0.714  1.0444  0.4424 -1.3003
 2277SOL    MW4 8842   5.957   4.104   0.691  1.0861 -0.5584 -0.6408
 2278SOL     OW 8843   3.273   4.423   4.318  0.4085  0.1455  0.3857
 2278SOL    HW2 8844   3.199   4.364   4.328 -0.3483  1.2949  1.7218
 2278SOL    HW3 8845   3.236   4.502   4.279  0.9415  0.7113  1.0181
 2278SOL    MW4 8846   3.259   4.426   4.314  0.2873 -0.3722  0.3011
 2279SOL     OW 8847   3.597   3.141   5.722  0.5459 -0.0535  0.0043
 2279SOL    HW2 8848   3.545   3.137   5.802 -0.2147 -1.1957 -0.5215
 2279SOL    HW3 8849   3.677   3.092   5.743  1.2916  1.3700  0.6841
 2279SOL    MW4 8850   3.601   3.134   5.735 -0.1242 -0.8285  0.1793
 2280SOL     OW 8851   2.129   0.935   5.962  0.4790 -0.4068  0.1437
 2280SOL    HW2 8852   2.110   0.995   6.034  1.2741  0.2308 -0.1682
 2280SOL    HW3 8853   2.046   0.891   5.945 -0.0061  0.2881  0.6716
 2280SOL    MW4 8854   2.116   0.937   5.969 -0.0536  0.3223 -0.6045
 2281SOL     OW 8855   5.653   4.256   1.894 -0.5775  0.4918 -0.6021
 2281SOL    HW2 8856   5.569   4.254   1.938 -0.4865 -0.9547 -0.4434
 2281SOL    HW3 8857   5.632   4.249   1.801 -0.7025  2.1475 -0.7261
 2281SOL    MW4 8858   5.639   4.255   1.887 -0.0920 -0.2986  0.2804
 2282SOL     OW 8859   1.852   5.024   2.474 -0.6423  0.1195  0.1486
 2282SOL    HW2 8860   1.843   4.929   2.473  1.0672 -0.0825  0.8358
 2282SOL    HW3 8861   1.841   5.051   2.383 -0.3483 -0.8119 -0.1629
 2282SOL    MW4 8862   1.849   5.015   2.462 -0.5572 -0.3576 -0.4159
 2283SOL     OW 8863   1.714   0.874   0.569  0.0917 -0.2365 -0.2149
 2283SOL    HW2 8864   1.701   0.897   0.661 -0.5814 -0.1602 -0.3220
 2283SOL    HW3 8865   1.677   0.948   0.520  1.1761  0.0983 -0.5493
 2283SOL    MW4 8866   1.707   0.887   0.575 -0.1287  0.0989  0.2725
 2284SOL     OW 8867   3.091   5.350   3.790 -0.5343 -0.7296 -0.6565
 2284SOL    HW2 8868   3.126   5.266   3.758  2.4090  0.4477 -0.8205
 2284SOL    HW3 8869   3.162   5.386   3.844 -0.7825  2.6492 -2.3754
 2284SOL    MW4 8870   3.105   5.343   3.793  0.4646 -0.3084 -0.0509
 2285SOL     OW 8871   4.408   5.245   4.079  0.2359  0.0576  0.3513
 2285SOL    HW2 8872   4.326   5.259   4.127 -0.0130 -0.9131  0.2298
 2285SOL    HW3 8873   4.455   5.328   4.088 -0.9407  0.7764  0.0651
 2285SOL    MW4 8874   4.403   5.258   4.087 -0.3101  0.9339 -0.3690
 2286SOL     OW 8875   0.699   2.580   3.538  0.0457  0.3187  0.4021
 2286SOL    HW2 8876   0.639   2.506   3.531 -0.0246  0.2861  1.2866
 2286SOL    HW3 8877   0.778   2.550   3.492 -0.1819 -0.0972  0.2720
 2286SOL    MW4 8878   0.702   2.566   3.531  0.3495  0.3478 -0.2773
 2287SOL     OW 8879   0.921   4.777   0.718 -0.9215  0.5003 -0.0589
 2287SOL    HW2 8880   0.926   4.754   0.811  0.2588 -1.5988 -0.5656
 2287SOL    HW3 8881   0.828   4.766   0.697 -0.6973 -2.7850  0.1146
 2287SOL    MW4 8882   0.909   4.772   0.728 -0.5165 -0.2592  0.5641
 2288SOL     OW 8883   1.367   0.263   3.879 -0.7394  0.0579 -0.3524
 2288SOL    HW2 8884   1.338   0.173   3.863 -0.4197 -0.2044  0.4831
 2288SOL    HW3 8885   1.462   0.259   3.873 -0.7148  0.3003 -0.1182
 2288SOL    MW4 8886   1.376   0.251   3.876 -0.2688  0.0309 -0.2979
 2289SOL     OW 8887   5.875   4.746   3.028  0.4025 -0.5851  0.0438
 2289SOL    HW2 8888   5.910   4.833   3.048 -0.6850  0.3044 -1.6534
 2289SOL    HW3 8889   5.949   4.687   3.038  1.0079  0.4052  1.9310
 2289SOL    MW4 8890   5.889   4.750   3.032  0.1969  0.0378 -0.4757
 2290SOL     OW 8891   5.435   6.418   3.919  0.8130 -0.2492  0.5516
 2290SOL    HW2 8892   5.464   6.398   3.830  0.2392  0.5625  0.1672
 2290SOL    HW3 8893   5.395   6.505   3.912 -0.1110 -0.5846  1.4002
 2290SOL    MW4 8894   5.433   6.427   3.906 -0.2212 -0.0925 -0.1948
 2291SOL     OW 8895   2.151   4.118   6.351  0.0629 -0.3166 -0.0405
 2291SOL    HW2 8896   2.116   4.098   6.264  0.2888 -0.8819 -0.0085
 2291SOL    HW3 8897   2.127   4.042   6.404  0.6179 -0.3356  0.1861
 2291SOL    MW4 8898   2.143   4.105   6.346 -0.4423 -0.0707 -0.6391
 2292SOL     OW 8899   2.004   3.122   4.569  0.4035  0.0864 -0.1464
 2292SOL    HW2 8900   1.998   3.069   4.648 -2.3050  0.6031  0.0648
 2292SOL    HW3 8901   1.929   3.096   4.516  0.8660  1.3883 -1.5406
 2292SOL    MW4 8902   1.994   3.112   4.572 -0.4138 -0.4673  0.2777
 2293SOL     OW 8903   3.138   2.723   0.623 -0.2257  0.5136  0.1392
 2293SOL    HW2 8904   3.170   2.679   0.701 -1.0676  0.4537  0.4682
 2293SOL    HW3 8905   3.212   2.722   0.562 -0.0842 -0.9819  0.2962
 2293SOL    MW4 8906   3.152   2.717   0.625  0.3990  0.2719  0.5044
 2294SOL     OW 8907   2.126   2.538   3.768  0.1452  0.0095 -0.1842
 2294SOL    HW2 8908   2.184   2.517   3.695  1.9411 -0.6538  1.3435
 2294SOL    HW3 8909   2.095   2.453   3.800  0.3005  0.1990  0.5009
 2294SOL    MW4 8910   2.130   2.524   3.763 -0.7924 -0.6337 -0.7232
 2295SOL     OW 8911   4.021   5.054   0.119 -0.1969 -0.5281  0.0440
 2295SOL    HW2 8912   4.051   5.031   0.207 -1.3184  1.6897  1.0959
 2295SOL    HW3 8913   4.092   5.107   0.082 -0.6074  0.3790  0.5131
 2295SOL    MW4 8914   4.034   5.058   0.126 -0.4333 -0.0453  0.3924
 2296SOL     OW 8915   0.753   5.052   5.513 -0.0156 -0.6541  0.0904
 2296SOL    HW2 8916   0.692   5.098   5.456 -0.9543 -0.7759  0.9585
 2296SOL    HW3 8917   0.840   5.082   5.485 -0.5009  0.0498 -0.7141
 2296SOL    MW4 8918   0.757   5.062   5.502  0.8054 -0.5904  0.0836
 2297SOL     OW 8919   1.748   3.131   4.853 -0.6615  0.4102 -0.3301
 2297SOL    HW2 8920   1.660   3.127   4.817 -1.2455 -0.6833  1.1489
 2297SOL    HW3 8921   1.750   3.213   4.904 -0.8692  0.3609 -0.2434
 2297SOL    MW4 8922   1.737   3.142   4.855 -0.1190 -0.1230 -0.1558
 2298SOL     OW 8923   0.048   3.542   3.321 -0.2818 -0.2228  0.2474
 2298SOL    HW2 8924  -0.003   3.581   3.250  0.0666  0.4981  0.3756
 2298SOL    HW3 8925   0.066   3.453   3.293  0.0777  0.1382 -0.7012
 2298SOL    MW4 8926   0.044   3.535   3.308  0.7442  0.0650 -0.1399
 2299SOL     OW 8927   3.183   5.359   2.516  0.6691 -0.1347  0.2943
 2299SOL    HW2 8928   3.279   5.352   2.517  0.8029  0.4232 -2.0755
 2299SOL    HW3 8929   3.164   5.431   2.576  1.8895  0.7892 -0.3744
 2299SOL    MW4 8930   3.193   5.368   2.524 -0.3211  0.6066 -0.7414
 2300SOL     OW 8931   0.994   0.808   3.212 -0.4641 -0.1152 -0.8343
 2300SOL    HW2 8932   1.001   0.712   3.214  0.7115 -0.0408  0.6237
 2300SOL    HW3 8933   0.948   0.830   3.293  1.2475  0.6179  0.0078
 2300SOL    MW4 8934   0.989   0.798   3.223 -0.1530  0.4789  0.3138
 2301SOL     OW 8935   0.842   5.085   2.636 -0.1786  0.4812 -0.1240
 2301SOL    HW2 8936   0.920   5.049   2.595 -0.6743 -0.3821 -0.3279
 2301SOL    HW3 8937   0.875   5.146   2.702  0.6357  1.1575 -1.1398
 2301SOL    MW4 8938   0.857   5.089   2.639 -0.1333  0.1641 -0.1353
 2302SOL     OW 8939   2.504   1.222   5.200 -0.4667  0.4227  0.0939
 2302SOL    HW2 8940   2.484   1.129   5.212 -1.6538  0.4784 -1.2071
 2302SOL    HW3 8941   2.513   1.257   5.289 -0.3650 -0.8584  0.5999
 2302SOL    MW4 8942   2.502   1.214   5.213  0.0992  0.4984 -0.8072
 2303SOL     OW 8943   4.187   5.645   1.046  0.0735  0.1977  0.3320
 2303SOL    HW2 8944   4.254   5.592   1.002  0.2204  0.4186  0.2879
 2303SOL    HW3 8945   4.106   5.625   1.000  0.2519  0.5407 -0.1340
 2303SOL    MW4 8946   4.185   5.636   1.034  0.5059  0.0050  0.2611
 2304SOL     OW 8947   1.674   5.481   4.981  0.3154  0.0535 -0.5207
 2304SOL    HW2 8948   1.634   5.400   5.015 -0.1529 -0.7139 -2.7143
 2304SOL    HW3 8949   1.700   5.458   4.891  1.2311  2.0169 -0.7935
 2304SOL    MW4 8950   1.672   5.467   4.973 -0.4531  0.2348 -0.0429
 2305SOL     OW 8951   4.124   0.156   5.534 -0.0158 -0.0312 -0.3953
 2305SOL    HW2 8952   4.168   0.186   5.455  0.3864  2.7996  0.7662
 2305SOL    HW3 8953   4.194   0.139   5.597 -0.3769  0.6839  0.2347
 2305SOL    MW4 8954   4.139   0.158   5.532  0.4528  0.8097 -0.8288
 2306SOL     OW 8955   3.355   1.019   2.274 -0.0867  0.2199  0.0609
 2306SOL    HW2 8956   3.322   0.951   2.214 -1.1532 -0.4040  1.3121
 2306SOL    HW3 8957   3.300   1.095   2.256  0.2001  0.3307 -0.3753
 2306SOL    MW4 8958   3.344   1.020   2.264 -0.2612  0.0437  0.1084
 2307SOL     OW 8959   3.668   5.273   1.737  0.3049 -0.9312  0.2509
 2307SOL    HW2 8960   3.650   5.254   1.645  2.6576  1.7072 -0.8931
 2307SOL    HW3 8961   3.743   5.217   1.758 -0.8629 -2.3114  0.9997
 2307SOL    MW4 8962   3.676   5.263   1.728  0.3786  0.0185  0.3246
 2308SOL     OW 8963   2.479   5.421   6.362  0.8198 -0.2812  0.0428
 2308SOL    HW2 8964   2.460   5.328   6.346 -0.3489 -0.7086  3.2086
 2308SOL    HW3 8965   2.562   5.420   6.410  0.1943  0.1339  1.1898
 2308SOL    MW4 8966   2.487   5.408   6.366  0.1157 -0.8412 -0.0518
 2309SOL     OW 8967   0.928   2.721   2.639  0.1389 -0.3610  0.4583
 2309SOL    HW2 8968   0.913   2.626   2.641  0.6760 -0.4705 -0.2974
 2309SOL    HW3 8969   1.020   2.731   2.663  0.0416 -0.0123  0.6974
 2309SOL    MW4 8970   0.938   2.710   2.642  0.3457  0.4836 -0.0156
 2310SOL     OW 8971   2.579   0.262   5.701  0.1514 -0.5647 -0.2954
 2310SOL    HW2 8972   2.551   0.170   5.698 -0.4966 -0.3461 -2.3868
 2310SOL    HW3 8973   2.549   0.299   5.618 -0.3483  1.7835  0.8555
 2310SOL    MW4 8974   2.571   0.255   5.690 -0.0099 -0.2723 -0.0426
 2311SOL     OW 8975   2.149   0.511   5.243 -0.1458  0.8358 -0.1563
 2311SOL    HW2 8976   2.077   0.561   5.283 -0.4091  0.4222 -0.1103
 2311SOL    HW3 8977   2.182   0.569   5.174 -1.0281  0.7144 -0.6853
 2311SOL    MW4 8978   2.144   0.525   5.239 -0.1959  0.3827 -0.1629
 2312SOL     OW 8979   3.852   5.984   4.331 -0.3583 -0.0797 -0.4136
 2312SOL    HW2 8980   3.878   5.922   4.399 -2.1657 -0.4041  0.0504
 2312SOL    HW3 8981   3.905   5.961   4.255 -0.3335 -1.6092  0.0389
 2312SOL    MW4 8982   3.862   5.973   4.330  0.1988 -0.4347  0.0112
 2313SOL     OW 8983   3.622   1.010   5.828 -0.2805  0.0894 -0.3485
 2313SOL    HW2 8984   3.702   1.019   5.880  0.3063  0.6861 -1.3323
 2313SOL    HW3 8985   3.591   0.922   5.847 -0.6920  0.6587  1.8589
 2313SOL    MW4 8986   3.628   1.000   5.837  0.2081 -0.0613 -0.0255
 2314SOL     OW 8987   1.378   5.100   4.453  0.0581  0.1911 -0.1091
 2314SOL    HW2 8988   1.297   5.049   4.451  0.4616 -0.4537 -1.3645
 2314SOL    HW3 8989   1.423   5.076   4.372  1.0684  1.2591  0.1108
 2314SOL    MW4 8990   1.373   5.090   4.442  0.0442 -0.1677 -0.2993
 2315SOL     OW 8991   3.838   3.445   5.261 -0.0188 -0.2574 -0.0111
 2315SOL    HW2 8992   3.930   3.435   5.236 -0.2493 -0.9814 -0.6108
 2315SOL    HW3 8993   3.811   3.358   5.289  0.1946  0.4934  2.7800
 2315SOL    MW4 8994   3.846   3.432   5.261 -0.3229  0.2121 -0.2266
 2316SOL     OW 8995   0.682   5.027   3.713  0.1667  0.5457  0.6125
 2316SOL    HW2 8996   0.762   5.057   3.756  0.8878  0.2140 -0.4639
 2316SOL    HW3 8997   0.702   5.028   3.620 -1.5473  1.7721  0.2036
 2316SOL    MW4 8998   0.695   5.031   3.707 -0.4097 -0.7776  0.1379
 2317SOL     OW 8999   2.708   3.136   4.999 -0.1076 -0.1134  0.4226
 2317SOL    HW2 9000   2.727   3.103   4.911 -0.1173 -0.5279  0.5765
 2317SOL    HW3 9001   2.772   3.207   5.012  0.3252 -0.4878  0.3404
 2317SOL    MW4 9002   2.719   3.141   4.989  0.3162  0.0698 -0.3152
 2318SOL     OW 9003   1.631   4.895   3.529  0.0057 -0.1108 -0.3194
 2318SOL    HW2 9004   1.667   4.981   3.551 -0.1498  0.2211 -1.3050
 2318SOL    HW3 9005   1.568   4.913   3.459  0.4608 -1.1178 -1.0032
 2318SOL    MW4 9006   1.627   4.909   3.523 -0.1080 -0.1451  0.0587
 2319SOL     OW 9007   1.747   4.916   4.462 -0.0633  0.0213 -0.0913
 2319SOL    HW2 9008   1.764   4.984   4.396 -1.6188  1.2513  0.7160
 2319SOL    HW3 9009   1.833   4.901   4.502  0.6884  0.0835 -1.5682
 2319SOL    MW4 9010   1.761   4.923   4.458 -0.0941  0.0907 -0.7431
 2320SOL     OW 9011   2.559   3.501   0.214 -0.1545  0.1206 -0.2710
 2320SOL    HW2 9012   2.532   3.545   0.133  0.4234 -0.3551 -0.7198
 2320SOL    HW3 9013   2.540   3.566   0.283  0.3651  0.9486 -0.8898
 2320SOL    MW4 9014   2.553   3.516   0.213 -0.3508  0.1080 -0.0603
 2321SOL     OW 9015   5.190   1.541   3.884  0.6942  0.0938 -0.7256
 2321SOL    HW2 9016   5.162   1.545   3.793 -0.2326 -1.0965 -0.5127
 2321SOL    HW3 9017   5.224   1.452   3.895  1.5052  0.4577 -0.0913
 2321SOL    MW4 9018   5.191   1.530   3.874  0.3076 -0.4614  0.2868
 2322SOL     OW 9019   0.631   1.166   3.577 -0.1230 -0.1853  0.3252
 2322SOL    HW2 9020   0.539   1.181   3.553  0.3316 -1.1987 -2.3436
 2322SOL    HW3 9021   0.632   1.077   3.612  0.0046 -0.6094 -0.7368
 2322SOL    MW4 9022   0.619   1.156   3.579 -0.5400  0.6611 -0.2805
 2323SOL     OW 9023   2.837   2.496   0.562  0.0956 -0.3105  0.2242
 2323SOL    HW2 9024   2.806   2.576   0.604 -1.1443 -1.5960  1.8895
 2323SOL    HW3 9025   2.874   2.444   0.633  2.2711 -0.6401 -1.0650
 2323SOL    MW4 9026   2.838   2.500   0.577  0.5227 -0.2343  0.0687
 2324SOL     OW 9027   0.723   3.438   0.953  0.5316 -0.0633 -0.6368
 2324SOL    HW2 9028   0.776   3.459   1.031  3.7480  0.7845 -2.8445
 2324SOL    HW3 9029   0.680   3.520   0.930  0.5741  0.0091 -0.4630
 2324SOL    MW4 9030   0.725   3.451   0.960  1.2706  0.0540 -0.4471
 2325SOL     OW 9031   0.243   2.336   4.990  0.1528 -0.1930  0.1301
 2325SOL    HW2 9032   0.154   2.303   5.004 -0.4886  0.0580 -2.7647
 2325SOL    HW3 9033   0.300   2.263   5.016 -0.9025 -0.6445  1.2770
 2325SOL    MW4 9034   0.239   2.322   4.995  0.0034 -0.0117 -0.2408
 2326SOL     OW 9035   6.425   4.166   5.517 -0.1286  1.0648 -0.0661
 2326SOL    HW2 9036   6.339   4.129   5.541  0.4314 -0.8494 -0.8531
 2326SOL    HW3 9037   6.469   4.177   5.601 -0.6602  0.8127  0.2576
 2326SOL    MW4 9038   6.419   4.162   5.532  0.0247 -0.7173  0.4183
 2327SOL     OW 9039   4.406   3.536   3.429 -0.4425  0.0645  0.2158
 2327SOL    HW2 9040   4.377   3.464   3.485 -0.7775 -0.5271 -0.6927
 2327SOL    HW3 9041   4.486   3.505   3.388  0.2687  0.8267  0.9948
 2327SOL    MW4 9042   4.412   3.522   3.431 -0.2621  0.7580  0.2365
 2328SOL     OW 9043   3.465   4.060   2.020 -0.6616  0.1918 -0.0270
 2328SOL    HW2 9044   3.512   4.048   2.102  0.5688  1.1320 -0.5749
 2328SOL    HW3 9045   3.406   4.133   2.036  1.0556  1.7595 -0.5584
 2328SOL    MW4 9046   3.463   4.068   2.033 -0.3535  0.3465  0.2888
 2329SOL     OW 9047   4.324   0.117   2.996  0.7239  0.3086 -0.3442
 2329SOL    HW2 9048   4.356   0.195   3.042  0.0119  0.8664 -0.7641
 2329SOL    HW3 9049   4.401   0.080   2.954  0.8611  1.5301 -1.2139
 2329SOL    MW4 9050   4.338   0.123   2.997 -0.1343 -0.5881  0.1699
 2330SOL     OW 9051   4.861   0.212   3.702 -0.2340 -0.0608 -1.0483
 2330SOL    HW2 9052   4.840   0.224   3.795  1.0585  1.4807 -0.9040
 2330SOL    HW3 9053   4.875   0.301   3.669  1.3042 -0.6939 -2.2309
 2330SOL    MW4 9054   4.860   0.226   3.710  0.1236  0.3656  0.0864
 2331SOL     OW 9055   5.922   0.551   2.699  0.4359  0.1981  0.0467
 2331SOL    HW2 9056   5.848   0.605   2.725  0.1084  0.0020 -0.4688
 2331SOL    HW3 9057   5.906   0.466   2.739 -0.3502 -0.2711 -1.2047
 2331SOL    MW4 9058   5.910   0.547   2.707 -0.0402 -0.1746 -0.2701
 2332SOL     OW 9059   4.805   2.021   4.251 -0.1865  0.2167 -0.2251
 2332SOL    HW2 9060   4.873   2.080   4.217 -0.6194 -0.6915 -2.9015
 2332SOL    HW3 9061   4.727   2.076   4.257  0.3960  0.9303  1.5734
 2332SOL    MW4 9062   4.804   2.036   4.247  0.0873 -0.7162 -0.0337
 2333SOL     OW 9063   0.702   4.010   5.438  0.3229  0.0251 -0.2346
 2333SOL    HW2 9064   0.631   4.063   5.474  0.0032 -1.8238  2.1009
 2333SOL    HW3 9065   0.777   4.031   5.493 -0.4267 -3.6259  2.5748
 2333SOL    MW4 9066   0.703   4.020   5.450  0.0616  0.0906  0.5317
 2334SOL     OW 9067   0.835   1.981   5.950 -0.0629 -0.4855  0.4155
 2334SOL    HW2 9068   0.873   1.902   5.913 -0.4095 -0.2987 -0.3552
 2334SOL    HW3 9069   0.889   2.001   6.026  0.2521 -1.2503  0.3932
 2334SOL    MW4 9070   0.847   1.973   5.955  0.4829 -0.4441  0.0381
 2335SOL     OW 9071   0.126   5.024   1.332 -0.0150  0.3111 -0.3429
 2335SOL    HW2 9072   0.145   5.006   1.240 -1.0570 -1.1723 -0.3060
 2335SOL    HW3 9073   0.045   5.075   1.331  0.8436  1.7123 -0.2888
 2335SOL    MW4 9074   0.118   5.028   1.320 -0.4063 -0.4818 -0.2216
 2336SOL     OW 9075   5.958   2.633   3.518 -0.0620 -0.6121 -0.0525
 2336SOL    HW2 9076   6.034   2.605   3.570  0.2883 -0.1063 -0.2746
 2336SOL    HW3 9077   5.996   2.673   3.440 -0.6023 -2.1120 -1.1091
 2336SOL    MW4 9078   5.973   2.635   3.515  0.4524 -0.2591  0.6034
 2337SOL     OW 9079   1.986   1.574   3.267  0.6917 -0.0259  0.1135
 2337SOL    HW2 9080   2.020   1.619   3.345  1.1258  1.8442 -1.0721
 2337SOL    HW3 9081   2.051   1.506   3.249  3.2306  2.5615 -1.2655
 2337SOL    MW4 9082   1.999   1.571   3.275  0.0255 -0.0412 -0.2753
 2338SOL     OW 9083   3.883   4.483   2.496 -0.1758  0.2996  0.1163
 2338SOL    HW2 9084   3.948   4.479   2.425 -1.4357 -0.4767 -1.0450
 2338SOL    HW3 9085   3.871   4.576   2.513 -1.0537  0.5980 -1.8791
 2338SOL    MW4 9086   3.890   4.495   2.489  0.4226  0.2358 -0.8411
 2339SOL     OW 9087   6.340   1.136   5.782 -0.6441 -0.1692  0.2971
 2339SOL    HW2 9088   6.386   1.182   5.712 -3.3009  1.2139 -0.6637
 2339SOL    HW3 9089   6.389   1.156   5.862 -0.2207  2.2053 -0.4981
 2339SOL    MW4 9090   6.352   1.144   5.784 -0.1760  0.4791 -0.3449
 2340SOL     OW 9091   0.978   4.156   0.317  0.1182  0.4384 -0.5416
 2340SOL    HW2 9092   1.071   4.135   0.316 -0.3995 -2.0834 -0.3488
 2340SOL    HW3 9093   0.961   4.192   0.229  1.2657  1.0206 -0.5404
 2340SOL    MW4 9094   0.988   4.158   0.305 -0.2481 -0.6554  0.2979
 2341SOL     OW 9095   1.883   3.659   0.738  0.0244 -0.1911  0.2985
 2341SOL    HW2 9096   1.834   3.626   0.813  1.2187 -2.1133  0.3095
 2341SOL    HW3 9097   1.853   3.749   0.727 -0.6434 -0.0595  2.6740
 2341SOL    MW4 9098   1.873   3.666   0.746  0.1076  0.0887  0.3200
 2342SOL     OW 9099   6.075   0.598   4.518  0.0386 -0.1708 -0.0745
 2342SOL    HW2 9100   6.112   0.617   4.604  1.5512  1.9256 -1.0901
 2342SOL    HW3 9101   5.986   0.631   4.522 -0.1965 -0.9212  0.9620
 2342SOL    MW4 9102   6.068   0.605   4.530  0.1824 -0.3951 -0.6929
 2343SOL     OW 9103   0.342   1.143   0.003  0.1361 -0.4601  0.4907
 2343SOL    HW2 9104   0.256   1.184   0.006 -0.3451 -1.4656  0.8848
 2343SOL    HW3 9105   0.398   1.203   0.052 -0.0273  0.8422 -0.8149
 2343SOL    MW4 9106   0.338   1.156   0.010 -0.0410  0.4850 -0.3818
 2344SOL     OW 9107   1.093   5.506   5.794 -0.0825 -0.3325 -0.2537
 2344SOL    HW2 9108   1.188   5.518   5.803  0.0279 -1.3787  0.1686
 2344SOL    HW3 9109   1.058   5.525   5.881 -0.3098  0.4490 -0.5146
 2344SOL    MW4 9110   1.101   5.510   5.807  0.3460 -0.5039  0.1715
 2345SOL     OW 9111   4.588   2.482   5.464 -0.0306  0.5446 -0.0067
 2345SOL    HW2 9112   4.670   2.523   5.493 -0.1145  0.0533  0.9817
 2345SOL    HW3 9113   4.613   2.393   5.442 -0.3885  0.2135  0.8734
 2345SOL    MW4 9114   4.602   2.476   5.465 -0.4998  0.0749 -0.3224
 2346SOL     OW 9115   0.435   2.171   1.583  0.2781 -0.4973  0.3137
 2346SOL    HW2 9116   0.368   2.233   1.612 -0.2779 -0.9208 -0.0475
 2346SOL    HW3 9117   0.484   2.149   1.662  2.2404  2.4100  0.0907
 2346SOL    MW4 9118   0.433   2.176   1.597  0.4115  0.1973  0.1838
 2347SOL     OW 9119   4.796   3.242   3.662  0.2619  0.4692  0.4649
 2347SOL    HW2 9120   4.817   3.150   3.650 -3.3989 -0.4043 -0.3217
 2347SOL    HW3 9121   4.843   3.267   3.741 -0.5557 -2.8061  2.1512
 2347SOL    MW4 9122   4.805   3.234   3.671  0.0142  0.0357 -0.1197
 2348SOL     OW 9123   3.732   5.129   0.526 -0.5281 -0.4202 -0.7322
 2348SOL    HW2 9124   3.726   5.114   0.620 -0.3125  0.9025 -0.4967
 2348SOL    HW3 9125   3.723   5.041   0.488 -2.5108 -0.7838  0.4123
 2348SOL    MW4 9126   3.730   5.115   0.533 -0.3399  0.1701  0.0252
 2349SOL     OW 9127   6.052   2.476   4.184 -0.2457  0.0252  0.1069
 2349SOL    HW2 9128   6.015   2.533   4.252  0.2396  0.5859 -0.0880
 2349SOL    HW3 9129   6.011   2.391   4.199 -0.0225  0.0998  1.1953
 2349SOL    MW4 9130   6.042   2.472   4.195 -0.1564  0.0569  0.6336
 2350SOL     OW 9131   0.885   3.094   2.301 -0.6482  0.4892  0.1762
 2350SOL    HW2 9132   0.797   3.120   2.329 -1.7786 -1.2662 -1.5118
 2350SOL    HW3 9133   0.893   3.003   2.329  0.4413  0.4614 -0.1802
 2350SOL    MW4 9134   0.875   3.085   2.308  0.1585  0.5479 -0.4429
 2351SOL     OW 9135   0.867   4.037   5.865  0.0181  0.5907  0.2176
 2351SOL    HW2 9136   0.791   3.979   5.867  0.2082  0.0447 -3.2004
 2351SOL    HW3 9137   0.937   3.987   5.905 -0.5788 -0.3079  0.1672
 2351SOL    MW4 9138   0.866   4.023   5.871 -0.6746 -0.0989 -0.0761
 2352SOL     OW 9139   2.280   4.194   5.530  0.2896  0.1058  0.0161
 2352SOL    HW2 9140   2.206   4.253   5.544  0.4031  0.2972 -0.2008
 2352SOL    HW3 9141   2.306   4.166   5.618 -0.5981 -0.6467  0.0592
 2352SOL    MW4 9142   2.273   4.198   5.544  0.0466 -0.7149 -0.0213
 2353SOL     OW 9143   0.991   3.880   3.579  0.1409 -1.3722  0.3103
 2353SOL    HW2 9144   1.081   3.910   3.563  0.2008 -1.3871  0.6206
 2353SOL    HW3 9145   0.970   3.827   3.501 -0.1170 -0.2118 -0.4306
 2353SOL    MW4 9146   1.000   3.877   3.566  0.4832  0.1601 -0.1868
 2354SOL     OW 9147   5.665   1.634   5.422  0.2030 -0.3073 -0.2709
 2354SOL    HW2 9148   5.669   1.658   5.514  0.9275 -1.9288  0.1407
 2354SOL    HW3 9149   5.624   1.710   5.380 -0.3117  0.3822  1.3904
 2354SOL    MW4 9150   5.660   1.648   5.428  0.1361 -0.4564  0.0106
 2355SOL     OW 9151   0.788   4.464   6.210  0.5785 -0.1826  0.0623
 2355SOL    HW2 9152   0.743   4.528   6.155  0.1114 -0.3912  0.1932
 2355SOL    HW3 9153   0.839   4.410   6.150  1.1499  0.4456 -0.0293
 2355SOL    MW4 9154   0.789   4.465   6.195  0.2261 -0.3228  0.0004
 2356SOL     OW 9155   4.050   6.141   4.569  0.2443  0.7690  0.1136
 2356SOL    HW2 9156   4.017   6.169   4.483 -0.5765 -1.7838 -0.4759
 2356SOL    HW3 9157   4.145   6.135   4.558 -0.0581 -2.6244 -1.7154
 2356SOL    MW4 9158   4.058   6.144   4.556  0.2722  0.3928  0.0215
 2357SOL     OW 9159   5.970   2.352   3.304 -0.2224  0.3816 -0.1156
 2357SOL    HW2 9160   5.958   2.427   3.246  0.4812  1.1899  0.7539
 2357SOL    HW3 9161   5.894   2.355   3.363 -0.1712  0.4329 -0.0526
 2357SOL    MW4 9162   5.958   2.362   3.304  0.0595  0.3384  0.2775
 2358SOL     OW 9163   4.410   3.646   0.105 -0.2599 -0.4188 -0.1266
 2358SOL    HW2 9164   4.365   3.564   0.083  0.2876 -0.6148 -0.5497
 2358SOL    HW3 9165   4.460   3.625   0.184 -0.0656 -0.5154 -0.2742
 2358SOL    MW4 9166   4.410   3.633   0.112 -0.3798 -0.0628  0.5505
 2359SOL     OW 9167   0.602   5.264   1.519  0.0437 -0.1950 -0.1671
 2359SOL    HW2 9168   0.507   5.263   1.508  0.0070  0.9928 -0.0174
 2359SOL    HW3 9169   0.632   5.190   1.466 -0.7759  0.8551 -2.2220
 2359SOL    MW4 9170   0.593   5.254   1.510  0.3803  0.3233 -0.1096
 2360SOL     OW 9171   0.896   1.742   5.824 -0.2361  0.1136  0.0645
 2360SOL    HW2 9172   0.884   1.647   5.834 -0.1621 -0.0776 -1.4606
 2360SOL    HW3 9173   0.967   1.751   5.761  1.5421  1.2295  2.0917
 2360SOL    MW4 9174   0.904   1.730   5.817  0.1732 -0.4134  0.3638
 2361SOL     OW 9175   2.404   2.911   6.308 -0.5773  0.6038 -0.2214
 2361SOL    HW2 9176   2.423   2.818   6.316 -0.9850  0.5502  0.1565
 2361SOL    HW3 9177   2.311   2.919   6.330 -0.7529  0.9913 -1.0439
 2361SOL    MW4 9178   2.394   2.900   6.312  0.6279 -0.4989 -0.5769
 2362SOL     OW 9179   1.318   4.083   5.796  0.4567  0.2916 -0.3311
 2362SOL    HW2 9180   1.290   4.047   5.712  2.1588  1.1632 -1.3052
 2362SOL    HW3 9181   1.276   4.168   5.802  1.0355  0.6074 -0.7178
 2362SOL    MW4 9182   1.309   4.089   5.786 -0.6018  0.6183 -0.0200
 2363SOL     OW 9183   0.707   1.280   5.917  0.1607 -0.1036 -0.1778
 2363SOL    HW2 9184   0.716   1.269   6.011 -0.5085 -2.3174 -0.3090
 2363SOL    HW3 9185   0.643   1.351   5.907  2.2633  2.0490  0.9332
 2363SOL    MW4 9186   0.699   1.288   5.928  0.2244  0.5072 -0.1446
 2364SOL     OW 9187   4.574   1.071   4.506 -0.4387 -0.0332  0.0181
 2364SOL    HW2 9188   4.541   1.047   4.420 -0.2266 -1.2937  0.2671
 2364SOL    HW3 9189   4.646   1.132   4.488 -0.2818 -0.4263 -0.6960
 2364SOL    MW4 9190   4.579   1.076   4.492 -0.0078 -0.3859 -0.0539
 2365SOL     OW 9191   3.568   6.269   3.104 -0.0815 -0.6453  0.1330
 2365SOL    HW2 9192   3.577   6.281   3.199 -0.6374  1.9244 -0.0829
 2365SOL    HW3 9193   3.632   6.201   3.083  1.0890 -0.2637  2.1442
 2365SOL    MW4 9194   3.578   6.261   3.114 -0.1193  0.8108  0.5364
 2366SOL     OW 9195   1.186   0.923   2.343  0.4399 -0.0593  0.3354
 2366SOL    HW2 9196   1.195   1.019   2.347  0.7225 -0.1027  0.8760
 2366SOL    HW3 9197   1.233   0.892   2.421 -0.1131 -0.6043  0.4580
 2366SOL    MW4 9198   1.193   0.932   2.354 -0.5829 -0.2505 -0.7313
 2367SOL     OW 9199   3.061   4.909   3.626 -0.1092  0.7101 -0.1434
 2367SOL    HW2 9200   3.074   4.859   3.545  1.9279  0.0835  0.4941
 2367SOL    HW3 9201   3.068   4.843   3.695  0.4499  1.5561  0.6213
 2367SOL    MW4 9202   3.064   4.894   3.624 -0.0582  0.5280  0.4332
 2368SOL     OW 9203   5.163   5.560   5.341  0.6338 -0.8347  0.4493
 2368SOL    HW2 9204   5.207   5.534   5.421  1.1856  0.3794  0.5669
 2368SOL    HW3 9205   5.234   5.582   5.280  0.2239  0.1819  0.3071
 2368SOL    MW4 9206   5.178   5.560   5.343  0.1964 -0.3807  0.3742
 2369SOL     OW 9207   6.281   4.072   1.333  0.0381  0.1334  0.3161
 2369SOL    HW2 9208   6.347   4.135   1.362  0.3035  0.3229 -0.6411
 2369SOL    HW3 9209   6.330   3.992   1.315  0.0239  0.2964 -0.4690
 2369SOL    MW4 9210   6.296   4.070   1.334  0.1825  0.1638  0.2351
 2370SOL     OW 9211   3.247   5.036   3.025 -0.0134 -0.1897 -0.3962
 2370SOL    HW2 9212   3.172   5.093   3.040 -0.0069 -0.4014  0.5123
 2370SOL    HW3 9213   3.208   4.951   3.002 -0.0267  0.0611 -1.3441
 2370SOL    MW4 9214   3.232   5.032   3.024 -0.3585  0.6800 -0.2236
 2371SOL     OW 9215   0.902   2.825   4.659  0.1111 -0.0662  0.8181
 2371SOL    HW2 9216   0.986   2.790   4.631 -0.8645 -1.7105 -0.2849
 2371SOL    HW3 9217   0.875   2.767   4.730 -0.6747 -0.4071  0.2597
 2371SOL    MW4 9218   0.909   2.812   4.665 -0.1832  0.3595  0.5541
 2372SOL     OW 9219   3.143   3.331   4.568 -0.6803  0.4121  0.0580
 2372SOL    HW2 9220   3.161   3.392   4.496  1.6611  0.0067  0.2131
 2372SOL    HW3 9221   3.184   3.372   4.644  1.3932 -1.4903  0.0661
 2372SOL    MW4 9222   3.151   3.345   4.569  0.2485 -0.0800 -0.3434
 2373SOL     OW 9223   6.078   1.306   4.282  0.2722  0.0941 -0.9275
 2373SOL    HW2 9224   6.158   1.323   4.233  0.5849 -2.4259 -1.4444
 2373SOL    HW3 9225   6.011   1.293   4.215  0.3446 -1.7068 -0.7171
 2373SOL    MW4 9226   6.080   1.306   4.266  0.3357 -0.1498 -0.5397
 2374SOL     OW 9227   4.509   0.053   5.169  0.6356  0.5138 -0.0229
 2374SOL    HW2 9228   4.563   0.125   5.135  0.5802  0.6544  0.1812
 2374SOL    HW3 9229   4.560   0.016   5.241  0.5949  0.4530 -0.0251
 2374SOL    MW4 9230   4.523   0.058   5.174  0.2997  0.0699  0.1981
 2375SOL     OW 9231   5.410   3.444   6.398  0.3569 -0.0723 -0.0131
 2375SOL    HW2 9232   5.436   3.398   6.478 -0.9181 -0.1487  0.3791
 2375SOL    HW3 9233   5.362   3.521   6.430  2.2563  1.4782 -0.6468
 2375SOL    MW4 9234   5.407   3.448   6.413  0.0390  0.2786  0.3914
 2376SOL     OW 9235   0.198   5.609   2.244  0.1896 -0.0887 -0.2469
 2376SOL    HW2 9236   0.222   5.551   2.316 -1.5589  0.3047  0.7182
 2376SOL    HW3 9237   0.102   5.616   2.250  0.3621  4.7337  1.2136
 2376SOL    MW4 9238   0.188   5.602   2.255 -0.1487  0.1295  0.1034
 2377SOL     OW 9239   2.230   2.037   5.057 -0.0290  0.8619  0.1754
 2377SOL    HW2 9240   2.146   2.071   5.088 -0.5251 -0.9876  0.9824
 2377SOL    HW3 9241   2.233   1.947   5.088  2.0982  0.7518 -0.1758
 2377SOL    MW4 9242   2.219   2.030   5.065  0.5520  0.1905 -0.7778
 2378SOL     OW 9243   0.470   4.342   3.781 -0.2123 -0.1293 -0.2434
 2378SOL    HW2 9244   0.454   4.326   3.874 -0.7451 -0.5769 -0.4066
 2378SOL    HW3 9245   0.523   4.422   3.779 -1.1872  0.5438  0.3824
 2378SOL    MW4 9246   0.475   4.350   3.793 -0.1852  1.1386 -0.0136
 2379SOL     OW 9247   3.001   0.464   1.074 -0.3740 -0.3700  0.1875
 2379SOL    HW2 9248   3.071   0.470   1.009 -2.2178  0.4241 -1.8510
 2379SOL    HW3 9249   2.977   0.371   1.074  0.0592 -0.4858  0.2400
 2379SOL    MW4 9250   3.007   0.452   1.065 -0.0910 -0.0332  0.2326
 2380SOL     OW 9251   3.237   2.856   2.650 -0.1597  0.2113  0.2171
 2380SOL    HW2 9252   3.317   2.814   2.620  0.8170  2.1741 -0.0504
 2380SOL    HW3 9253   3.169   2.789   2.638  1.5151 -1.7831  1.2091
 2380SOL    MW4 9254   3.238   2.841   2.644 -0.0232  0.1317  0.3911
 2381SOL     OW 9255   0.500   4.041   2.332 -0.2562  0.4541  0.1887
 2381SOL    HW2 9256   0.566   4.047   2.401 -0.5818 -0.8489  0.6575
 2381SOL    HW3 9257   0.548   4.056   2.251  0.6939 -0.7230  0.4949
 2381SOL    MW4 9258   0.515   4.044   2.331  0.3630 -0.4337  0.2178
 2382SOL     OW 9259   0.625   1.768   0.160  0.4322 -0.3456  0.1575
 2382SOL    HW2 9260   0.718   1.762   0.179  0.1570  0.0523  1.7928
 2382SOL    HW3 9261   0.589   1.685   0.190  0.6206 -1.8190 -3.2563
 2382SOL    MW4 9262   0.632   1.756   0.166 -0.6566  0.1403  0.0245
 2383SOL     OW 9263   3.201   1.046   4.192 -0.1607  0.2935  0.3804
 2383SOL    HW2 9264   3.259   1.097   4.135  0.2709  0.0165  0.5662
 2383SOL    HW3 9265   3.140   1.002   4.132  0.3622 -0.0873  0.1179
 2383SOL    MW4 9266   3.201   1.047   4.176 -0.8298 -0.2540 -0.1203
 2384SOL     OW 9267   1.149   1.144   6.391 -0.1621  0.2603 -0.1278
 2384SOL    HW2 9268   1.070   1.151   6.443 -1.0232 -1.6821 -1.0952
 2384SOL    HW3 9269   1.133   1.202   6.316 -0.7538 -0.2851 -0.4251
 2384SOL    MW4 9270   1.137   1.153   6.388 -0.2751  0.1353  0.4400
 2385SOL     OW 9271   0.326   3.485   5.454  1.0301 -0.2790  0.0602
 2385SOL    HW2 9272   0.389   3.523   5.516  2.5483  0.8751 -2.0455
 2385SOL    HW3 9273   0.281   3.561   5.418  0.4378 -0.9021 -0.5310
 2385SOL    MW4 9274   0.329   3.500   5.458 -0.3771 -0.0296  0.3431
 2386SOL     OW 9275   2.547   2.874   2.263  0.0064 -1.3300  0.1600
 2386SOL    HW2 9276   2.609   2.843   2.196 -0.3994 -0.9220 -0.4181
 2386SOL    HW3 9277   2.461   2.864   2.222 -0.2374 -0.9297  0.5610
 2386SOL    MW4 9278   2.544   2.869   2.249  0.2488  0.1127 -0.1762
 2387SOL     OW 9279   2.048   3.278   6.400 -0.0652 -0.4192  0.0131
 2387SOL    HW2 9280   2.111   3.328   6.452  0.1802 -1.1532  0.4309
 2387SOL    HW3 9281   1.975   3.339   6.385  0.3694  0.1629  0.2347
 2387SOL    MW4 9282   2.047   3.293   6.405 -0.0958 -0.5378 -0.0670
 2388SOL     OW 9283   3.515   2.078   0.533 -0.3550 -0.0145  0.3173
 2388SOL    HW2 9284   3.605   2.049   0.549 -0.3994  0.0465  0.6868
 2388SOL    HW3 9285   3.522   2.172   0.518  0.0345 -0.4289 -2.7732
 2388SOL    MW4 9286   3.527   2.087   0.533 -1.0712 -0.5909  0.2241
 2389SOL     OW 9287   0.951   5.230   4.532 -0.6864  0.7765  0.8004
 2389SOL    HW2 9288   0.910   5.167   4.591 -0.9196  0.1887  0.0408
 2389SOL    HW3 9289   0.878   5.272   4.487 -0.5044 -0.3259 -0.6107
 2389SOL    MW4 9290   0.936   5.227   4.534  1.0520 -0.1694 -0.4043
 2390SOL     OW 9291   4.933   4.320   2.067 -0.3153  0.4859  0.4034
 2390SOL    HW2 9292   5.009   4.291   2.016 -0.1399  2.5798 -0.6440
 2390SOL    HW3 9293   4.906   4.402   2.025 -3.0590 -0.0740  0.8504
 2390SOL    MW4 9294   4.939   4.327   2.055 -0.1079 -0.3368  0.8016
 2391SOL     OW 9295   0.671   0.255   4.383 -0.7574 -0.6511  0.2934
 2391SOL    HW2 9296   0.647   0.175   4.337 -0.7561 -0.6312  0.2575
 2391SOL    HW3 9297   0.614   0.322   4.345  0.2099 -0.3548 -0.6719
 2391SOL    MW4 9298   0.660   0.253   4.372 -0.2851  0.2167 -0.3283
 2392SOL     OW 9299   5.003   0.774   1.983 -0.0801 -0.0369 -0.2783
 2392SOL    HW2 9300   5.003   0.689   2.027  1.4725 -0.5402 -1.2021
 2392SOL    HW3 9301   4.919   0.777   1.937 -0.6006 -0.5985  0.6144
 2392SOL    MW4 9302   4.992   0.763   1.982 -0.3980  0.3284  0.0369
 2393SOL     OW 9303   4.560   3.198   1.185 -0.2427  0.0947  0.1742
 2393SOL    HW2 9304   4.508   3.270   1.221  0.4098  0.9878 -0.5900
 2393SOL    HW3 9305   4.535   3.122   1.236 -1.7193  0.6507  0.3297
 2393SOL    MW4 9306   4.550   3.198   1.196 -0.0422 -0.0005  0.8570
 2394SOL     OW 9307   5.219   3.402   1.071  0.5708 -0.3059 -0.2304
 2394SOL    HW2 9308   5.291   3.340   1.066  0.2265 -0.7237 -0.0692
 2394SOL    HW3 9309   5.156   3.360   1.129 -0.0218 -0.1621 -0.7643
 2394SOL    MW4 9310   5.220   3.388   1.078 -0.0044  0.4456 -0.0917
 2395SOL     OW 9311   1.991   1.883   2.236 -0.3461 -0.1732 -0.7306
 2395SOL    HW2 9312   2.060   1.858   2.298 -0.4459 -0.6170 -0.7995
 2395SOL    HW3 9313   1.910   1.871   2.286 -0.3346  1.4060 -0.2728
 2395SOL    MW4 9314   1.989   1.878   2.251  0.5580 -0.3277 -0.2765
 2396SOL     OW 9315   1.159   4.767   0.948  0.5829  0.0761 -0.5525
 2396SOL    HW2 9316   1.220   4.715   1.001  1.1215  0.5597 -0.6948
 2396SOL    HW3 9317   1.200   4.772   0.862  0.1678  0.1117 -0.7515
 2396SOL    MW4 9318   1.172   4.760   0.944  0.2580  0.1599  0.1058
 2397SOL     OW 9319   5.803   5.475   1.635  0.1078 -0.2131 -0.1302
 2397SOL    HW2 9320   5.748   5.410   1.590 -0.4342 -0.0044  0.2180
 2397SOL    HW3 9321   5.765   5.559   1.610  0.2602 -0.0690  0.1294
 2397SOL    MW4 9322   5.791   5.478   1.626  0.7309 -0.3738  0.6176
 2398SOL     OW 9323   4.425   2.040   5.962 -0.4784 -0.2712 -0.1368
 2398SOL    HW2 9324   4.412   2.134   5.968 -1.1658 -0.4546  2.1248
 2398SOL    HW3 9325   4.503   2.023   6.014 -1.0146 -1.0725  0.4272
 2398SOL    MW4 9326   4.434   2.050   5.969  0.3643  0.0446  0.1456
 2399SOL     OW 9327   0.772   1.047   0.896  0.3746  0.5167  0.4693
 2399SOL    HW2 9328   0.723   1.067   0.817  0.9001  1.0541  0.2755
 2399SOL    HW3 9329   0.825   0.970   0.873  0.7949  0.8873  0.1796
 2399SOL    MW4 9330   0.773   1.040   0.883  0.4361  0.6315  0.7936
 2400SOL     OW 9331   0.260   0.115   4.003  0.1280 -0.1192  0.5108
 2400SOL    HW2 9332   0.253   0.068   3.920  1.3662  0.2174  0.2025
 2400SOL    HW3 9333   0.279   0.048   4.068 -0.9908 -0.4035  0.5748
 2400SOL    MW4 9334   0.261   0.100   4.001 -0.0363  0.4347  0.3011
 2401SOL     OW 9335   0.838   2.054   0.720 -0.0065 -0.1273  0.5831
 2401SOL    HW2 9336   0.796   2.139   0.717  1.1241  0.4219 -1.7704
 2401SOL    HW3 9337   0.811   2.010   0.640  2.4611 -0.4080 -0.1934
 2401SOL    MW4 9338   0.829   2.059   0.709 -0.1257 -0.4044  0.0316
 2402SOL     OW 9339   2.951   3.028   0.126  0.7260 -0.2645  0.0252
 2402SOL    HW2 9340   3.031   3.041   0.178  1.3758  1.2028 -1.2548
 2402SOL    HW3 9341   2.968   2.950   0.074  0.6132 -0.9603  1.0177
 2402SOL    MW4 9342   2.964   3.020   0.126 -0.2297  0.0281  0.1759
 2403SOL     OW 9343   5.319   4.639   5.798  0.1605 -0.8976  0.6452
 2403SOL    HW2 9344   5.380   4.677   5.860  0.9516 -0.0773 -0.5990
 2403SOL    HW3 9345   5.364   4.562   5.764 -1.1390 -2.6456  2.6106
 2403SOL    MW4 9346   5.333   4.634   5.801  0.0855 -0.5899 -0.1595
 2404SOL     OW 9347   0.301   0.536   2.663 -0.2526  0.2689  0.0190
 2404SOL    HW2 9348   0.305   0.451   2.620  0.7188  0.3680 -0.1129
 2404SOL    HW3 9349   0.310   0.516   2.757 -1.1982  0.1471  0.0963
 2404SOL    MW4 9350   0.302   0.522   2.670 -0.2735 -0.0301  0.0512
 2405SOL     OW 9351   3.863   2.665   6.130 -0.5257 -0.3488  0.1595
 2405SOL    HW2 9352   3.878   2.605   6.057  0.9658 -0.4787  0.5441
 2405SOL    HW3 9353   3.813   2.737   6.093 -0.1781 -0.6359 -0.8793
 2405SOL    MW4 9354   3.858   2.666   6.116 -0.3344 -0.0141 -0.3914
 2406SOL     OW 9355   5.311   0.081   1.649  0.4657 -0.0436  0.0498
 2406SOL    HW2 9356   5.235   0.139   1.642 -0.0379 -0.8783 -2.4196
 2406SOL    HW3 9357   5.277   0.002   1.692  0.1356 -0.1055 -0.3211
 2406SOL    MW4 9358   5.296   0.078   1.654 -0.3097  0.0748  0.0985
 2407SOL     OW 9359   0.309   3.353   2.648  0.0745  0.0446 -0.1294
 2407SOL    HW2 9360   0.387   3.390   2.606  0.0195 -1.8356 -2.0047
 2407SOL    HW3 9361   0.239   3.415   2.626  0.8489  1.4307  1.0651
 2407SOL    MW4 9362   0.310   3.366   2.640  0.9530  0.7234 -0.3961
 2408SOL     OW 9363   5.327   4.790   5.566  0.2853  0.2281 -0.1452
 2408SOL    HW2 9364   5.321   4.760   5.657 -0.0278  3.2208  0.9350
 2408SOL    HW3 9365   5.241   4.828   5.548  0.5002  0.0844 -1.5606
 2408SOL    MW4 9366   5.315   4.791   5.576  0.1410  0.4016  0.4830
 2409SOL     OW 9367   5.608   0.383   6.231 -0.5111  0.0878  0.1872
 2409SOL    HW2 9368   5.679   0.373   6.167 -0.5936 -0.0829  0.1209
 2409SOL    HW3 9369   5.652   0.384   6.316 -0.5441 -1.4332  0.2360
 2409SOL    MW4 9370   5.623   0.382   6.234 -0.1367 -0.2251 -0.3219
 2410SOL     OW 9371   5.583   3.841   2.851 -0.1106 -0.5783 -0.6066
 2410SOL    HW2 9372   5.627   3.920   2.883 -0.6874  0.0007 -1.2200
 2410SOL    HW3 9373   5.586   3.780   2.926 -0.3427  0.3032  0.1370
 2410SOL    MW4 9374   5.589   3.843   2.865  0.4693  0.0151  0.2146
 2411SOL     OW 9375   0.258   0.820   2.782 -0.3941 -0.4338 -0.7322
 2411SOL    HW2 9376   0.170   0.788   2.797 -0.2004 -2.0207 -2.5690
 2411SOL    HW3 9377   0.293   0.763   2.713  1.8718  0.4905 -0.4366
 2411SOL    MW4 9378   0.251   0.809   2.775 -0.1024 -0.0252  0.1280
 2412SOL     OW 9379   0.801   1.691   6.223 -0.6673 -0.0345  0.4578
 2412SOL    HW2 9380   0.768   1.762   6.278  0.2247 -0.2268  1.2648
 2412SOL    HW3 9381   0.833   1.626   6.285  4.0108  1.3773 -0.1484
 2412SOL    MW4 9382   0.801   1.692   6.239  0.0231 -0.1684  0.0989
 2413SOL     OW 9383   5.657   5.833   5.055  0.0962  0.7498  0.1688
 2413SOL    HW2 9384   5.737   5.834   5.108  1.0910 -0.3923 -1.2164
 2413SOL    HW3 9385   5.683   5.874   4.972 -0.7913  0.4672 -0.2579
 2413SOL    MW4 9386   5.671   5.839   5.051  0.2400  0.3749  0.0561
 2414SOL     OW 9387   1.502   5.458   2.580  0.9249  0.1042  0.6749
 2414SOL    HW2 9388   1.468   5.455   2.669  2.1773  0.4876  1.1790
 2414SOL    HW3 9389   1.522   5.550   2.564  1.5491 -0.0848  0.3310
 2414SOL    MW4 9390   1.500   5.469   2.590 -0.0704  0.6664  0.4363
 2415SOL     OW 9391   3.187   0.577   3.012  0.1359  0.1840 -0.4008
 2415SOL    HW2 9392   3.187   0.646   3.078 -0.9524  0.5989 -0.8197
 2415SOL    HW3 9393   3.279   0.569   2.987  0.6185 -0.1908  1.3488
 2415SOL    MW4 9394   3.199   0.585   3.017 -0.3317 -0.5964  0.1864
 2416SOL     OW 9395   2.384   5.219   3.687 -0.0691  0.2565  0.3720
 2416SOL    HW2 9396   2.462   5.225   3.742 -0.2736  0.6021  0.6302
 2416SOL    HW3 9397   2.321   5.168   3.739 -0.6710  1.5525  0.9582
 2416SOL    MW4 9398   2.386   5.213   3.701 -0.1476 -0.0163  0.0439
 2417SOL     OW 9399   1.554   0.645   6.407 -0.3209 -0.2958  0.4409
 2417SOL    HW2 9400   1.537   0.562   6.361  1.3684 -0.3262 -0.1689
 2417SOL    HW3 9401   1.572   0.708   6.337 -1.5105  0.5995  0.9070
 2417SOL    MW4 9402   1.554   0.642   6.392  0.2565  0.8098 -0.1854
 2418SOL     OW 9403   3.025   4.518   1.175  0.9387  0.2621 -0.4542
 2418SOL    HW2 9404   2.970   4.524   1.097 -1.3626  1.5468  1.1309
 2418SOL    HW3 9405   3.063   4.605   1.185  0.1656  0.5044  0.5348
 2418SOL    MW4 9406   3.023   4.530   1.166  0.1145 -0.0351 -0.1223
 2419SOL     OW 9407   2.491   4.054   0.870  0.0687 -0.3375  0.0558
 2419SOL    HW2 9408   2.412   4.064   0.816  0.5248  1.1403 -0.3690
 2419SOL    HW3 9409   2.459   4.021   0.954 -1.1424  1.2314  0.2400
 2419SOL    MW4 9410   2.476   4.051   0.874  0.0418 -0.6981 -0.0173
 2420SOL     OW 9411   1.259   2.371   3.869  0.1066 -0.2987 -0.2992
 2420SOL    HW2 9412   1.264   2.344   3.961 -2.1030 -1.2604 -0.4031
 2420SOL    HW3 9413   1.299   2.299   3.821  0.5069 -0.1804 -0.1469
 2420SOL    MW4 9414   1.265   2.358   3.875 -0.6110 -0.2823  0.0284
 2421SOL     OW 9415   0.845   3.063   6.406 -0.0972  0.9443  0.0759
 2421SOL    HW2 9416   0.764   3.092   6.448  0.3630  1.5948  0.5124
 2421SOL    HW3 9417   0.818   2.987   6.354 -1.5490  2.6908 -1.8983
 2421SOL    MW4 9418   0.831   3.056   6.404  0.0298 -0.3008 -0.1556
 2422SOL     OW 9419   6.396   6.377   2.627 -0.2725  0.5443 -0.1367
 2422SOL    HW2 9420   6.480   6.423   2.623 -1.0426  1.9660 -1.3174
 2422SOL    HW3 9421   6.416   6.287   2.603  0.9620  0.7470  0.0476
 2422SOL    MW4 9422   6.410   6.372   2.624 -0.5149  0.5591 -0.1443
 2423SOL     OW 9423   3.538   4.052   0.697 -0.2234  0.7748 -0.2993
 2423SOL    HW2 9424   3.497   4.116   0.755  1.0401  0.9904  0.3932
 2423SOL    HW3 9425   3.627   4.040   0.733 -1.3367 -3.8830  1.7358
 2423SOL    MW4 9426   3.545   4.059   0.709 -0.0705  0.0470  0.5360
 2424SOL     OW 9427   2.556   2.129   6.066  0.1771 -0.4884 -0.1985
 2424SOL    HW2 9428   2.567   2.210   6.116 -0.2460 -0.1971 -0.5674
 2424SOL    HW3 9429   2.569   2.059   6.131 -1.3092 -0.1102  0.5547
 2424SOL    MW4 9430   2.559   2.130   6.081 -0.5769 -0.0880 -0.3823
 2425SOL     OW 9431   0.761   5.618   4.718 -0.1024  0.0397 -0.3894
 2425SOL    HW2 9432   0.711   5.603   4.638  0.0580  1.4355 -0.7695
 2425SOL    HW3 9433   0.821   5.689   4.697  0.5887 -0.1875  0.7004
 2425SOL    MW4 9434   0.762   5.625   4.705  0.2173 -0.0588 -0.1864
 2426SOL     OW 9435   4.195   6.229   1.691  0.1045 -0.0937  0.4023
 2426SOL    HW2 9436   4.275   6.180   1.672 -0.8521 -1.1375 -1.1128
 2426SOL    HW3 9437   4.199   6.306   1.634  0.6196  0.5449  1.2749
 2426SOL    MW4 9438   4.206   6.233   1.681 -0.5504  0.0947  0.1230
 2427SOL     OW 9439   0.561   5.881   6.290 -0.0216  0.6790  0.3313
 2427SOL    HW2 9440   0.561   5.911   6.380  0.2888 -1.3761  1.0732
 2427SOL    HW3 9441   0.650   5.848   6.276 -0.6729 -1.0910  0.0620
 2427SOL    MW4 9442   0.573   5.881   6.300  0.0461 -0.1585 -0.0545
 2428SOL     OW 9443   3.724   1.731   0.364 -0.9506  0.2899 -0.0613
 2428SOL    HW2 9444   3.733   1.780   0.282  0.5467  2.9101  1.5151
 2428SOL    HW3 9445   3.644   1.680   0.353 -0.3354 -0.1896 -3.4536
 2428SOL    MW4 9446   3.714   1.731   0.352  0.0754 -0.0483 -0.0003
 2429SOL     OW 9447   5.462   5.066   5.653 -0.1887  0.1862 -0.1488
 2429SOL    HW2 9448   5.414   5.130   5.601  0.8333 -0.4911 -2.0221
 2429SOL    HW3 9449   5.547   5.106   5.669 -0.1325 -0.0317  0.1026
 2429SOL    MW4 9450   5.467   5.079   5.648 -0.2763 -0.2373 -0.6269
 2430SOL     OW 9451   4.073   0.491   2.839 -0.3774 -0.3863 -0.3759
 2430SOL    HW2 9452   4.039   0.570   2.882  0.0795 -0.9008  0.9787
 2430SOL    HW3 9453   4.158   0.518   2.804 -0.5687 -0.0728 -0.6082
 2430SOL    MW4 9454   4.080   0.505   2.840  0.2413  0.4798  0.1478
 2431SOL     OW 9455   4.087   6.283   6.218 -0.4196  0.1327  0.1173
 2431SOL    HW2 9456   4.127   6.269   6.132 -1.0635  1.9757 -0.5310
 2431SOL    HW3 9457   4.007   6.232   6.216  0.1078 -0.7217  0.0750
 2431SOL    MW4 9458   4.082   6.274   6.206  0.0343 -0.1091 -0.1811
 2432SOL     OW 9459   3.665   5.307   5.631  0.3681  0.7796  0.1888
 2432SOL    HW2 9460   3.637   5.229   5.680 -1.2361  1.1657 -0.0530
 2432SOL    HW3 9461   3.667   5.376   5.697  2.1791  0.4896  0.4840
 2432SOL    MW4 9462   3.662   5.306   5.646  0.0966 -0.3341 -0.5192
 2433SOL     OW 9463   6.162   3.743   4.339  0.3928 -0.2815  0.4546
 2433SOL    HW2 9464   6.189   3.807   4.272  2.2734 -3.2366 -1.8929
 2433SOL    HW3 9465   6.167   3.791   4.421  1.9874  2.5077 -1.1104
 2433SOL    MW4 9466   6.166   3.758   4.341  0.4009 -0.4353 -0.0637
 2434SOL     OW 9467   1.205   1.914   4.848  0.5967  0.3593 -0.5255
 2434SOL    HW2 9468   1.198   1.832   4.896 -1.3887 -0.1507 -1.5704
 2434SOL    HW3 9469   1.297   1.939   4.855  1.4421 -2.4031 -0.9131
 2434SOL    MW4 9470   1.216   1.907   4.855  0.2679  0.1761 -0.0533
 2435SOL     OW 9471   1.387   2.013   4.166 -0.3234  0.1949  0.6025
 2435SOL    HW2 9472   1.405   1.927   4.202  1.4210 -0.8412 -2.3887
 2435SOL    HW3 9473   1.473   2.053   4.152 -0.9357  1.1238 -0.8517
 2435SOL    MW4 9474   1.400   2.007   4.169 -0.5095 -0.3128  0.1645
 2436SOL     OW 9475   0.206   2.572   0.708  0.3543  0.2267 -0.1681
 2436SOL    HW2 9476   0.118   2.539   0.688  0.4124  0.3414 -0.6202
 2436SOL    HW3 9477   0.221   2.641   0.644  0.1586  1.2781  0.8851
 2436SOL    MW4 9478   0.196   2.576   0.697 -0.1715 -0.1890  0.1692
 2437SOL     OW 9479   0.803   1.051   2.596 -0.0414  0.0437 -0.0010
 2437SOL    HW2 9480   0.718   1.007   2.594 -0.3793  0.7048 -1.2076
 2437SOL    HW3 9481   0.867   0.979   2.599 -0.6155 -0.4938 -0.2955
 2437SOL    MW4 9482   0.801   1.035   2.596  0.1582 -0.2222  0.1801
 2438SOL     OW 9483   5.361   5.074   4.272 -0.2288  0.0597  0.7602
 2438SOL    HW2 9484   5.431   5.023   4.313  0.4417  1.4366  1.4047
 2438SOL    HW3 9485   5.387   5.079   4.180  1.3796  1.7990  1.2382
 2438SOL    MW4 9486   5.374   5.068   4.265  0.1832 -0.3901 -0.2010
 2439SOL     OW 9487   0.385   3.317   4.335  0.2019  0.0814  0.3376
 2439SOL    HW2 9488   0.292   3.342   4.338  0.7186  2.3180 -0.4013
 2439SOL    HW3 9489   0.408   3.324   4.242  0.7332 -2.1785  0.2430
 2439SOL    MW4 9490   0.376   3.321   4.323  0.5828 -0.2266  0.4271
 2440SOL     OW 9491   2.265   3.877   0.605 -0.0554 -0.7925  0.0743
 2440SOL    HW2 9492   2.189   3.842   0.559 -0.8886  0.9711  0.0169
 2440SOL    HW3 9493   2.263   3.836   0.691  0.0145 -2.1574 -0.5612
 2440SOL    MW4 9494   2.255   3.867   0.610  0.0786 -0.2792  0.2110
 2441SOL     OW 9495   5.802   4.494   3.720  0.4555 -0.5891 -0.1041
 2441SOL    HW2 9496   5.740   4.437   3.766 -1.3743  0.2714 -1.3535
 2441SOL    HW3 9497   5.794   4.579   3.764  0.7605 -0.4818 -0.2546
 2441SOL    MW4 9498   5.793   4.498   3.732 -0.3771  0.0668 -0.2730
 2442SOL     OW 9499   1.423   2.878   2.928 -0.3161 -0.2225  0.5045
 2442SOL    HW2 9500   1.471   2.798   2.905 -0.8571 -0.2729 -0.4660
 2442SOL    HW3 9501   1.474   2.916   3.000  0.4199 -0.9871  0.4025
 2442SOL    MW4 9502   1.436   2.873   2.935  0.1523 -0.0817  0.2846
 2443SOL     OW 9503   0.477   5.626   4.209  0.6489 -0.0690 -0.3463
 2443SOL    HW2 9504   0.517   5.614   4.122  1.7890  0.3301  0.1053
 2443SOL    HW3 9505   0.450   5.718   4.210 -1.0402 -0.5201 -0.9333
 2443SOL    MW4 9506   0.479   5.637   4.197  0.5527 -0.2086  0.0180
 2444SOL     OW 9507   1.687   4.311   0.673 -0.3631 -0.4510  0.4506
 2444SOL    HW2 9508   1.600   4.274   0.656 -0.5083 -0.1897  0.6194
 2444SOL    HW3 9509   1.689   4.392   0.623 -0.2249 -0.4465  0.4633
 2444SOL    MW4 9510   1.676   4.317   0.664 -0.2521 -0.0797  0.3121
 2445SOL     OW 9511   0.144   3.437   5.690  0.0159  0.3157  0.2782
 2445SOL    HW2 9512   0.211   3.441   5.622 -1.3743 -0.8044 -1.2220
 2445SOL    HW3 9513   0.067   3.480   5.652 -1.4097 -2.0070  0.3351
 2445SOL    MW4 9514   0.142   3.443   5.676 -0.6044  0.2431 -0.2034
 2446SOL     OW 9515   4.873   5.453   0.190 -0.1497 -0.3856 -0.3325
 2446SOL    HW2 9516   4.909   5.536   0.159  1.5627 -0.9604 -0.0461
 2446SOL    HW3 9517   4.857   5.403   0.111 -0.9848  0.1162 -0.4957
 2446SOL    MW4 9518   4.876   5.457   0.176  0.3710  0.1142 -0.1164
 2447SOL     OW 9519   5.119   0.847   5.116 -0.3627 -0.2024 -0.1217
 2447SOL    HW2 9520   5.028   0.824   5.138 -0.1091 -0.5908  0.5797
 2447SOL    HW3 9521   5.113   0.898   5.036 -1.2190 -0.0952  0.0031
 2447SOL    MW4 9522   5.106   0.851   5.109 -0.4752  0.3594  0.0013
 2448SOL     OW 9523   6.338   1.174   2.283 -0.2116 -0.3282 -0.5220
 2448SOL    HW2 9524   6.315   1.267   2.284  0.1807 -0.2302 -0.2740
 2448SOL    HW3 9525   6.434   1.173   2.284 -0.2189 -0.7375  0.3546
 2448SOL    MW4 9526   6.348   1.186   2.283 -0.3657 -0.2908  0.2551
 2449SOL     OW 9527   2.503   1.511   6.367 -0.2998 -0.1737  0.0384
 2449SOL    HW2 9528   2.443   1.451   6.413 -1.1496  2.2669  2.3523
 2449SOL    HW3 9529   2.480   1.501   6.275 -1.0837 -2.6351  0.4309
 2449SOL    MW4 9530   2.492   1.502   6.361 -0.6246  0.3483  0.4178
 2450SOL     OW 9531   6.097   1.429   0.173  0.7116 -0.0263 -0.2539
 2450SOL    HW2 9532   6.117   1.368   0.102 -0.6854  0.7012 -1.2974
 2450SOL    HW3 9533   6.035   1.381   0.229 -0.8429  0.5973 -1.3874
 2450SOL    MW4 9534   6.092   1.414   0.171 -0.2922  1.0627  0.1098
 2451SOL     OW 9535   4.964   2.035   6.320  0.0654  0.3553  0.1571
 2451SOL    HW2 9536   5.024   2.057   6.392  1.2454 -1.3754 -0.2186
 2451SOL    HW3 9537   4.883   2.011   6.363  0.6785 -0.4005  0.9242
 2451SOL    MW4 9538   4.961   2.035   6.335 -0.0720  0.2415 -1.4084
 2452SOL     OW 9539   3.016   0.989   0.478 -0.3879  0.5154 -0.2432
 2452SOL    HW2 9540   3.021   0.950   0.391  0.9951 -1.8478  0.8048
 2452SOL    HW3 9541   2.973   0.922   0.531  1.8152  0.4559  1.5915
 2452SOL    MW4 9542   3.011   0.975   0.474 -0.6728  0.0432 -0.0787
 2453SOL     OW 9543   4.296   2.248   2.151  0.0818  0.8818 -0.3909
 2453SOL    HW2 9544   4.324   2.220   2.238  0.3549 -2.2081 -1.3546
 2453SOL    HW3 9545   4.200   2.250   2.156  0.1122  1.5669  0.1605
 2453SOL    MW4 9546   4.287   2.245   2.163 -0.6508 -0.4592  0.0934
 2454SOL     OW 9547   0.263   2.232   6.066 -0.2765  0.3443  0.2610
 2454SOL    HW2 9548   0.175   2.260   6.041  0.1553  0.7167 -0.9641
 2454SOL    HW3 9549   0.271   2.254   6.159 -0.3515  3.4099 -0.3473
 2454SOL    MW4 9550   0.253   2.239   6.075  0.4565 -0.1551 -0.4866
 2455SOL     OW 9551   5.922   0.776   5.183  0.8454  0.1555  0.6579
 2455SOL    HW2 9552   5.930   0.858   5.232  0.1619  0.9834 -0.5427
 2455SOL    HW3 9553   5.999   0.774   5.127  0.4824  0.3628  0.1478
 2455SOL    MW4 9554   5.933   0.787   5.182  0.2218 -0.4036 -0.3682
 2456SOL     OW 9555   4.792   3.669   0.707  0.2301 -0.3050  0.0710
 2456SOL    HW2 9556   4.853   3.602   0.675  0.5670 -0.2853  0.6468
 2456SOL    HW3 9557   4.753   3.629   0.785  0.1769  0.0302  0.2193
 2456SOL    MW4 9558   4.795   3.655   0.713 -0.2732  0.1560 -0.2745
 2457SOL     OW 9559   4.873   2.819   5.735 -0.2888 -0.0647  0.1073
 2457SOL    HW2 9560   4.850   2.734   5.697  1.5052  0.1320 -1.6377
 2457SOL    HW3 9561   4.840   2.882   5.671  1.1040  0.3727 -0.2104
 2457SOL    MW4 9562   4.866   2.816   5.721 -0.3721 -0.1296  0.1955
 2458SOL     OW 9563   4.522   3.045   1.445 -0.1240 -0.2331  0.1807
 2458SOL    HW2 9564   4.564   3.106   1.507 -0.7189 -2.0876  2.5792
 2458SOL    HW3 9565   4.434   3.032   1.480 -2.3958  2.3111 -3.8497
 2458SOL    MW4 9566   4.516   3.051   1.458 -0.2067 -0.2251  0.0589
 2459SOL     OW 9567   4.282   2.285   1.021 -0.0462 -0.0819  0.4769
 2459SOL    HW2 9568   4.321   2.329   0.946 -3.2167  2.7649  0.2842
 2459SOL    HW3 9569   4.306   2.339   1.096 -0.1275 -0.7175  0.9801
 2459SOL    MW4 9570   4.291   2.298   1.021 -0.0536  0.5860  0.1400
 2460SOL     OW 9571   3.291   2.518   3.885 -0.0914  0.1017 -0.2733
 2460SOL    HW2 9572   3.291   2.561   3.799  0.2340  1.0718  0.1945
 2460SOL    HW3 9573   3.371   2.548   3.927  0.6434 -1.7385 -0.2767
 2460SOL    MW4 9574   3.301   2.528   3.879 -0.5872  0.9955 -0.6685
 2461SOL     OW 9575   6.405   6.383   2.350 -0.0177 -0.5351 -0.5111
 2461SOL    HW2 9576   6.445   6.470   2.345 -3.4678  1.2283 -0.5498
 2461SOL    HW3 9577   6.373   6.378   2.440  1.2274 -2.3642 -0.1339
 2461SOL    MW4 9578   6.406   6.394   2.361  0.7064 -0.6958 -0.1830
 2462SOL     OW 9579   4.656   4.499   1.814 -0.3267  0.2030  0.1950
 2462SOL    HW2 9580   4.750   4.517   1.822  0.0526 -1.4227 -0.1551
 2462SOL    HW3 9581   4.628   4.553   1.740  0.3227  0.7000  0.2931
 2462SOL    MW4 9582   4.665   4.509   1.805 -0.1206  0.1774  0.0399
 2463SOL     OW 9583   4.274   2.677   6.350  0.1616 -0.0119  1.0253
 2463SOL    HW2 9584   4.196   2.625   6.368  1.0642 -3.5038 -3.2629
 2463SOL    HW3 9585   4.341   2.641   6.408  0.0968 -1.8291  0.0294
 2463SOL    MW4 9586   4.273   2.666   6.360 -0.3575 -0.4044 -0.1758
 2464SOL     OW 9587   3.360   0.093   2.430 -0.2157 -0.1263 -0.3326
 2464SOL    HW2 9588   3.441   0.078   2.382  0.9295  0.4028  1.3358
 2464SOL    HW3 9589   3.310   0.012   2.418  1.0737 -0.9478 -0.4201
 2464SOL    MW4 9590   3.364   0.080   2.422  0.1295  0.0734  0.4592
 2465SOL     OW 9591   0.917   5.267   3.076  0.3105  0.4255  0.2461
 2465SOL    HW2 9592   0.847   5.202   3.082 -1.0772  1.9122  0.8271
 2465SOL    HW3 9593   0.900   5.328   3.147  2.0612  1.0027  0.2284
 2465SOL    MW4 9594   0.906   5.266   3.086 -0.6550 -0.0166 -0.4324
 2466SOL     OW 9595   4.510   1.733   6.393 -0.2752 -0.3097  0.6259
 2466SOL    HW2 9596   4.512   1.682   6.311  1.5196 -1.0616  1.0916
 2466SOL    HW3 9597   4.419   1.763   6.400 -0.6180 -0.7393 -1.3228
 2466SOL    MW4 9598   4.498   1.730   6.383 -0.6587 -0.1716 -0.0014
 2467SOL     OW 9599   6.117   6.316   1.693  0.2311 -0.2063 -1.2121
 2467SOL    HW2 9600   6.130   6.297   1.786 -1.1114  1.8404 -0.5438
 2467SOL    HW3 9601   6.037   6.369   1.690  0.0131 -0.5444 -3.5908
 2467SOL    MW4 9602   6.108   6.320   1.705  0.3792 -0.0684 -0.0866
 2468SOL     OW 9603   6.080   4.586   2.243 -0.0483  0.0375 -0.2972
 2468SOL    HW2 9604   6.094   4.627   2.328  0.6098 -0.4007 -0.1839
 2468SOL    HW3 9605   6.113   4.496   2.255  1.1806  0.3179 -1.3470
 2468SOL    MW4 9606   6.087   4.580   2.256  0.1367  0.7541  0.1541
 2469SOL     OW 9607   0.950   0.614   1.047 -0.1522  0.2907 -0.1337
 2469SOL    HW2 9608   1.007   0.651   1.115 -2.8525  2.8182  0.9636
 2469SOL    HW3 9609   0.883   0.566   1.096  0.1768 -1.4506 -1.3182
 2469SOL    MW4 9610   0.949   0.613   1.063  0.4285  0.0115  0.3051
 2470SOL     OW 9611   2.027   4.670   5.331 -0.4013 -0.6385  0.7038
 2470SOL    HW2 9612   1.966   4.689   5.259 -1.8179 -2.4736  1.3482
 2470SOL    HW3 9613   1.990   4.717   5.406 -2.7199 -3.8430  1.7757
 2470SOL    MW4 9614   2.014   4.679   5.331  0.1409 -0.9719 -0.3186
 2471SOL     OW 9615   1.766   1.473   1.125 -0.4557  0.0738 -1.1374
 2471SOL    HW2 9616   1.832   1.485   1.057 -0.9546 -0.0443 -1.6432
 2471SOL    HW3 9617   1.816   1.476   1.207  0.3225 -1.0270 -1.5455
 2471SOL    MW4 9618   1.781   1.475   1.127 -0.1421 -0.1603  0.2735
 2472SOL     OW 9619   6.198   6.050   3.255  0.0794 -0.5733 -0.1903
 2472SOL    HW2 9620   6.224   6.101   3.332  0.0984 -0.1832 -0.4562
 2472SOL    HW3 9621   6.165   6.114   3.193 -1.8812 -1.0709  0.2499
 2472SOL    MW4 9622   6.197   6.065   3.257  0.3457  0.1227 -0.4040
 2473SOL     OW 9623   2.251   0.796   3.527 -0.0880 -0.0822  0.2069
 2473SOL    HW2 9624   2.260   0.825   3.618 -0.9721 -0.0845  0.2996
 2473SOL    HW3 9625   2.262   0.701   3.531 -3.1582 -0.5290  0.8022
 2473SOL    MW4 9626   2.254   0.787   3.540  0.0847  0.1298  0.1755
 2474SOL     OW 9627   3.328   0.296   2.784  0.5795  0.3761  0.2007
 2474SOL    HW2 9628   3.386   0.335   2.719  0.1789  1.7262  0.6258
 2474SOL    HW3 9629   3.383   0.285   2.862  0.6181  0.3816  0.1742
 2474SOL    MW4 9630   3.343   0.299   2.786  0.3022  0.5850  0.0864
 2475SOL     OW 9631   2.376   5.460   2.351  0.4429 -0.4708  0.2723
 2475SOL    HW2 9632   2.324   5.431   2.426 -2.6851 -0.0501 -1.5312
 2475SOL    HW3 9633   2.371   5.556   2.354  2.6695 -0.3087  0.9517
 2475SOL    MW4 9634   2.368   5.469   2.361 -0.1177 -0.2415 -0.6280
 2476SOL     OW 9635   3.948   5.118   2.188  0.2889  0.1751  0.3874
 2476SOL    HW2 9636   3.923   5.107   2.280  1.3497 -0.7864  0.5804
 2476SOL    HW3 9637   4.044   5.119   2.190  0.3195 -0.0069 -0.7295
 2476SOL    MW4 9638   3.957   5.117   2.200  0.0340  0.2005 -0.7317
 2477SOL     OW 9639   1.233   3.365   4.805 -0.1247  0.5627  0.4405
 2477SOL    HW2 9640   1.241   3.345   4.898  1.3110  0.5414  0.3389
 2477SOL    HW3 9641   1.320   3.398   4.781  0.2765 -1.6504 -1.4225
 2477SOL    MW4 9642   1.245   3.367   4.814  0.1565 -0.0219  0.4893
 2478SOL     OW 9643   5.311   2.611   2.153  0.3236 -0.3877  0.1517
 2478SOL    HW2 9644   5.302   2.670   2.078  1.1679 -0.4978 -0.0461
 2478SOL    HW3 9645   5.342   2.668   2.224  0.8653 -0.5297  0.0365
 2478SOL    MW4 9646   5.314   2.627   2.153 -0.7590 -0.6569 -0.5900
 2479SOL     OW 9647   1.293   0.621   1.079  0.2167  0.0003 -0.4182
 2479SOL    HW2 9648   1.263   0.544   1.128 -0.2020  0.0819 -0.5403
 2479SOL    HW3 9649   1.270   0.601   0.988  0.5857  0.0427 -0.5191
 2479SOL    MW4 9650   1.286   0.608   1.073 -0.1276  0.3089  0.5709
 2480SOL     OW 9651   6.121   0.377   0.289 -0.3551 -0.4667 -0.6125
 2480SOL    HW2 9652   6.039   0.398   0.334 -0.7928  0.7476 -1.8992
 2480SOL    HW3 9653   6.121   0.434   0.211  1.7764 -0.3144 -0.5640
 2480SOL    MW4 9654   6.110   0.387   0.285  0.4096 -0.0303 -0.1948
 2481SOL     OW 9655   1.709   0.386   1.522  0.3046  0.0732 -0.0001
 2481SOL    HW2 9656   1.782   0.448   1.522 -0.8111  1.4320  0.2677
 2481SOL    HW3 9657   1.750   0.301   1.510  1.9773  0.7489  0.6648
 2481SOL    MW4 9658   1.724   0.383   1.520  0.0551  1.1673  0.3614
 2482SOL     OW 9659   1.096   6.091   1.981 -0.0264  0.1099  0.0931
 2482SOL    HW2 9660   1.102   5.996   1.994 -0.0248  0.1886  0.6953
 2482SOL    HW3 9661   1.171   6.112   1.926 -0.5928 -0.3829 -0.9061
 2482SOL    MW4 9662   1.106   6.081   1.975  0.0469 -0.4915 -0.4023
 2483SOL     OW 9663   1.023   4.331   5.552 -0.2449 -0.0321  0.1149
 2483SOL    HW2 9664   0.970   4.381   5.614 -1.1411 -0.3876 -0.3501
 2483SOL    HW3 9665   0.964   4.313   5.479 -0.3981 -2.9904  0.8627
 2483SOL    MW4 9666   1.008   4.335   5.551 -0.5470  0.5815 -0.8137
 2484SOL     OW 9667   1.164   5.536   3.827  0.6848  0.4246 -0.1613
 2484SOL    HW2 9668   1.167   5.604   3.894 -1.1586  0.0641  0.3407
 2484SOL    HW3 9669   1.191   5.581   3.747 -0.4869  1.7578  0.1541
 2484SOL    MW4 9670   1.168   5.551   3.825 -0.3420 -1.0063 -0.8089
 2485SOL     OW 9671   1.307   1.955   4.520 -0.2429  0.6167  0.5203
 2485SOL    HW2 9672   1.349   1.912   4.446  0.7010 -0.1237  1.4470
 2485SOL    HW3 9673   1.351   1.918   4.597 -1.0820  1.4758  1.4419
 2485SOL    MW4 9674   1.318   1.945   4.521 -0.0363 -0.2602  0.2765
 2486SOL     OW 9675   1.150   3.004   2.558 -0.3647 -0.3140 -0.5755
 2486SOL    HW2 9676   1.212   3.037   2.623 -1.3007  0.0476  0.1406
 2486SOL    HW3 9677   1.130   3.079   2.503  0.8844 -0.7526 -1.6937
 2486SOL    MW4 9678   1.156   3.018   2.559  0.4174 -0.8795  0.0589
 2487SOL     OW 9679   5.492   1.804   2.171  0.0495  0.2505 -0.2824
 2487SOL    HW2 9680   5.551   1.876   2.146 -0.7832  0.2036 -2.6077
 2487SOL    HW3 9681   5.406   1.846   2.182  0.2691  0.1925  2.3375
 2487SOL    MW4 9682   5.488   1.819   2.169 -0.2153 -0.0369 -0.3109
 2488SOL     OW 9683   0.733   3.613   0.576 -0.0217 -0.3654 -0.4104
 2488SOL    HW2 9684   0.734   3.605   0.481  3.2307 -0.5778 -0.4678
 2488SOL    HW3 9685   0.744   3.523   0.608 -1.2406 -0.3146  0.1829
 2488SOL    MW4 9686   0.735   3.600   0.568  0.2109 -0.3230 -0.9916
 2489SOL     OW 9687   1.745   3.239   1.217  0.1636  0.2025 -0.5931
 2489SOL    HW2 9688   1.814   3.303   1.229  0.2391 -0.1120  0.8073
 2489SOL    HW3 9689   1.669   3.291   1.190 -0.3060  1.2261  2.2651
 2489SOL    MW4 9690   1.744   3.254   1.215 -0.4735  0.3085 -0.0153
 2490SOL     OW 9691   6.210   3.852   4.089 -0.0779  0.8135  0.1772
 2490SOL    HW2 9692   6.151   3.778   4.070  1.5047 -0.5520  0.3631
 2490SOL    HW3 9693   6.297   3.821   4.063  0.5273  2.9642 -0.5919
 2490SOL    MW4 9694   6.214   3.838   4.083 -0.2677  0.0365  0.3673
 2491SOL     OW 9695   2.315   2.986   1.658 -0.5337 -0.2204 -0.0877
 2491SOL    HW2 9696   2.319   3.011   1.751  0.7366  0.3300 -0.2766
 2491SOL    HW3 9697   2.390   3.030   1.618 -0.7082 -0.9610 -1.2661
 2491SOL    MW4 9698   2.325   2.995   1.665 -0.4840  0.7107  0.3044
 2492SOL     OW 9699   4.983   2.131   4.087 -0.7403  0.2362  0.1948
 2492SOL    HW2 9700   5.019   2.043   4.097 -2.6985 -0.6345 -0.0034
 2492SOL    HW3 9701   5.035   2.185   4.147  0.6355 -0.9803  0.1640
 2492SOL    MW4 9702   4.995   2.126   4.096 -0.4006 -0.0338 -0.1616
 2493SOL     OW 9703   2.719   2.889   3.792 -0.3162  0.2497 -0.0134
 2493SOL    HW2 9704   2.636   2.936   3.791  0.6728  2.1172  1.0028
 2493SOL    HW3 9705   2.704   2.814   3.849 -1.7831 -0.4950 -1.2915
 2493SOL    MW4 9706   2.706   2.885   3.799 -0.2266  0.4789 -0.1933
 2494SOL     OW 9707   0.019   1.225   0.285  0.3061  0.0658  0.0967
 2494SOL    HW2 9708   0.046   1.137   0.309 -0.0015 -0.4020 -1.2274
 2494SOL    HW3 9709  -0.060   1.241   0.337  0.0555 -0.6459 -0.0611
 2494SOL    MW4 9710   0.013   1.216   0.295 -0.1475 -0.1280 -0.5455
 2495SOL     OW 9711   1.463   1.937   4.993  0.0189 -0.1155 -0.5796
 2495SOL    HW2 9712   1.508   1.858   5.024  0.4480 -0.3558 -1.7572
 2495SOL    HW3 9713   1.510   2.009   5.033  0.5337 -0.4214 -0.6159
 2495SOL    MW4 9714   1.475   1.936   5.002  0.6045  1.0280  0.9433
 2496SOL     OW 9715   4.483   0.220   0.009  0.4519  0.5076  0.5406
 2496SOL    HW2 9716   4.457   0.295   0.063  1.6861  0.2794  1.5101
 2496SOL    HW3 9717   4.453   0.143   0.058 -0.0413  0.3274 -0.0252
 2496SOL    MW4 9718   4.476   0.220   0.023 -0.6736 -0.7776  0.1227
 2497SOL     OW 9719   5.668   2.878   1.108 -0.5322  0.1358  0.0865
 2497SOL    HW2 9720   5.652   2.919   1.192 -0.0836 -0.7153  0.6043
 2497SOL    HW3 9721   5.590   2.897   1.056 -0.6929  0.8962  0.5948
 2497SOL    MW4 9722   5.656   2.886   1.112 -0.2557 -1.0165  0.6606
 2498SOL     OW 9723   1.558   2.659   2.753 -0.2859  0.5270  0.2366
 2498SOL    HW2 9724   1.632   2.705   2.791 -0.1515 -0.7412  1.6262
 2498SOL    HW3 9725   1.533   2.595   2.820 -0.8320 -0.9982 -1.3474
 2498SOL    MW4 9726   1.564   2.657   2.767  0.0943 -0.6249 -0.1733
 2499SOL     OW 9727   4.282   4.772   3.823  0.4849 -0.1037  0.4072
 2499SOL    HW2 9728   4.253   4.729   3.742 -0.2816  2.3365 -0.7071
 2499SOL    HW3 9729   4.318   4.701   3.876  0.5085 -1.8818 -1.8326
 2499SOL    MW4 9730   4.283   4.757   3.819 -0.4918 -0.1646 -0.0090
 2500SOL     OW 9731   4.396   0.391   1.338  0.1997  0.5179 -0.1884
 2500SOL    HW2 9732   4.473   0.355   1.294  1.1656  1.6830  0.4856
 2500SOL    HW3 9733   4.323   0.335   1.310  1.4839 -1.3883  0.1473
 2500SOL    MW4 9734   4.396   0.379   1.329  0.3138 -0.6212 -0.5441
 2501SOL     OW 9735   1.289   4.896   5.485  0.2430 -0.5492 -0.0216
 2501SOL    HW2 9736   1.244   4.839   5.548 -3.1290 -0.1315 -1.8230
 2501SOL    HW3 9737   1.309   4.838   5.411 -0.1274 -0.0903 -0.4849
 2501SOL    MW4 9738   1.286   4.881   5.484  0.4559 -0.2313 -0.2598
 2502SOL     OW 9739   1.351   4.716   4.709 -0.3644  0.1623 -0.1723
 2502SOL    HW2 9740   1.394   4.782   4.654  1.3262 -1.2326 -0.6377
 2502SOL    HW3 9741   1.340   4.640   4.652 -0.1124 -0.7485  0.9349
 2502SOL    MW4 9742   1.355   4.714   4.694 -0.0745 -0.2363  0.1481
 2503SOL     OW 9743   1.911   5.449   5.744  0.1678 -0.3167  0.5397
 2503SOL    HW2 9744   1.891   5.358   5.723  0.6936 -0.2246 -0.4031
 2503SOL    HW3 9745   1.903   5.495   5.661 -0.7187  0.6273  1.1170
 2503SOL    MW4 9746   1.907   5.443   5.730 -0.2295 -0.2009 -0.4759
 2504SOL     OW 9747   0.384   2.251   4.124 -0.5179 -0.5560  0.2351
 2504SOL    HW2 9748   0.388   2.251   4.220  2.1533 -0.9477  0.2099
 2504SOL    HW3 9749   0.311   2.194   4.103 -0.1699 -1.7799  2.0633
 2504SOL    MW4 9750   0.375   2.244   4.134  0.0581 -0.3924  0.7079
 2505SOL     OW 9751   2.120   1.041   0.213  0.1305  0.3144  0.2712
 2505SOL    HW2 9752   2.077   1.045   0.299 -1.1474 -0.1125 -0.3245
 2505SOL    HW3 9753   2.135   0.948   0.199  2.4036  0.5120  0.9804
 2505SOL    MW4 9754   2.116   1.029   0.223 -0.4084 -0.4266 -0.0143
 2506SOL     OW 9755   3.403   3.998   6.376 -0.0329  0.2320  0.2280
 2506SOL    HW2 9756   3.397   4.039   6.289  0.1427 -0.6069 -0.1913
 2506SOL    HW3 9757   3.416   4.071   6.436 -1.0171  0.9012 -0.3498
 2506SOL    MW4 9758   3.404   4.013   6.372  0.1010  0.6416  0.1737
 2507SOL     OW 9759   1.840   0.898   4.038 -0.4781  0.2082  0.1917
 2507SOL    HW2 9760   1.831   0.825   4.099  0.5577  0.0827  0.2102
 2507SOL    HW3 9761   1.783   0.966   4.072  0.0041  0.0980  1.2345
 2507SOL    MW4 9762   1.832   0.897   4.050 -0.1847  0.1558 -0.1786
 2508SOL     OW 9763   6.050   5.499   0.854 -0.1855 -0.2298  0.4151
 2508SOL    HW2 9764   6.032   5.438   0.782 -1.8178  1.1986 -0.4652
 2508SOL    HW3 9765   5.967   5.543   0.869  0.6650  0.9895  1.7780
 2508SOL    MW4 9766   6.037   5.497   0.846 -0.2559  0.3893  0.1719
 2509SOL     OW 9767   6.213   3.008   5.508  0.0132 -0.1067  0.1191
 2509SOL    HW2 9768   6.281   3.057   5.554  1.0390 -0.3691 -1.0774
 2509SOL    HW3 9769   6.250   2.990   5.422 -1.1944 -1.1056 -0.2197
 2509SOL    MW4 9770   6.227   3.012   5.503 -0.3142  0.4681  0.6418
 2510SOL     OW 9771   1.272   3.964   5.539 -0.0985 -0.2217  0.5096
 2510SOL    HW2 9772   1.262   4.050   5.498 -0.0113 -0.0270  0.8995
 2510SOL    HW3 9773   1.183   3.929   5.543 -0.0349 -0.5275 -0.4554
 2510SOL    MW4 9774   1.259   3.971   5.534  0.1635 -0.0705  0.0324
 2511SOL     OW 9775   1.052   2.374   3.240 -0.0867 -0.3119 -0.4705
 2511SOL    HW2 9776   1.018   2.453   3.283 -0.1452  0.0547 -1.1666
 2511SOL    HW3 9777   1.115   2.338   3.302 -2.4455 -1.6219  1.3625
 2511SOL    MW4 9778   1.055   2.380   3.254  0.3151  0.5231 -0.0875
 2512SOL     OW 9779   2.654   5.373   2.380 -0.3235 -0.2253  0.3022
 2512SOL    HW2 9780   2.579   5.424   2.412 -0.9837 -0.2898 -1.0698
 2512SOL    HW3 9781   2.651   5.383   2.285  0.5250 -1.4537  0.1259
 2512SOL    MW4 9782   2.643   5.381   2.372  0.2239 -0.4545 -0.6096
 2513SOL     OW 9783   5.282   4.431   3.670 -0.0249 -0.0677 -0.5207
 2513SOL    HW2 9784   5.228   4.510   3.677 -1.1154 -0.9075  1.4340
 2513SOL    HW3 9785   5.347   4.442   3.740  0.2382 -0.5942 -0.6804
 2513SOL    MW4 9786   5.284   4.443   3.680 -0.3323  0.2670  0.5591
 2514SOL     OW 9787   5.059   5.046   1.683 -0.3738 -0.1551 -0.4409
 2514SOL    HW2 9788   5.003   4.995   1.625  0.9833  0.8056 -2.7620
 2514SOL    HW3 9789   4.999   5.103   1.730 -1.6370 -1.7907  0.0322
 2514SOL    MW4 9790   5.044   5.047   1.681 -0.1707  0.1069 -0.4462
 2515SOL     OW 9791   3.934   5.889   4.968 -0.1003 -0.2058  0.1501
 2515SOL    HW2 9792   3.992   5.846   4.906 -1.2969 -1.4606 -0.1589
 2515SOL    HW3 9793   3.907   5.970   4.924 -0.4390 -0.7743 -0.7046
 2515SOL    MW4 9794   3.938   5.894   4.954 -0.4210 -0.3715  0.7457
 2516SOL     OW 9795   2.539   2.279   1.481 -0.6277  0.3643 -0.1270
 2516SOL    HW2 9796   2.595   2.246   1.411  0.4039  0.3838  0.6733
 2516SOL    HW3 9797   2.492   2.201   1.512 -0.6416  0.2492 -0.4241
 2516SOL    MW4 9798   2.540   2.264   1.475 -0.0043 -0.4335  0.0342
 2517SOL     OW 9799   0.695   3.040   4.001  0.0102 -0.0354  0.2091
 2517SOL    HW2 9800   0.769   3.096   3.975 -0.3627  1.0858  1.4675
 2517SOL    HW3 9801   0.723   3.000   4.083 -0.1872 -0.8107 -0.0958
 2517SOL    MW4 9802   0.709   3.042   4.008  1.0436  0.0911 -0.0840
 2518SOL     OW 9803   6.095   2.448   2.502 -0.0195  0.4617  0.2193
 2518SOL    HW2 9804   6.101   2.452   2.407  1.1020 -0.2953  0.2382
 2518SOL    HW3 9805   6.127   2.533   2.532 -1.3567  1.1015 -0.0852
 2518SOL    MW4 9806   6.100   2.460   2.494  0.5398 -0.5302 -0.3827
 2519SOL     OW 9807   0.371   5.718   5.995  0.3271 -0.1450 -0.0332
 2519SOL    HW2 9808   0.442   5.781   5.978  0.7276 -0.3647  0.7842
 2519SOL    HW3 9809   0.291   5.769   5.982  0.6404  0.8466  1.6220
 2519SOL    MW4 9810   0.370   5.733   5.991  0.7646 -0.2901 -0.1370
 2520SOL     OW 9811   0.890   1.738   5.337  0.7905  0.1784 -0.2622
 2520SOL    HW2 9812   0.822   1.699   5.282 -0.4562  0.0100  1.3262
 2520SOL    HW3 9813   0.923   1.812   5.286 -1.7470  1.2763 -0.4516
 2520SOL    MW4 9814   0.885   1.743   5.323  0.4275  0.5657 -0.0522
 2521SOL     OW 9815   3.786   5.541   0.440  0.2686  0.1452  0.1453
 2521SOL    HW2 9816   3.718   5.562   0.377 -0.3309  0.2447  0.8030
 2521SOL    HW3 9817   3.739   5.532   0.523  0.8354 -1.3423  0.3392
 2521SOL    MW4 9818   3.771   5.543   0.443 -0.5055  0.0441  0.4668
 2522SOL     OW 9819   2.262   1.971   0.412 -0.2362 -0.0216 -0.0773
 2522SOL    HW2 9820   2.195   1.933   0.355 -0.7908 -0.5661  0.9166
 2522SOL    HW3 9821   2.312   1.896   0.444  1.7491  0.4451 -1.8274
 2522SOL    MW4 9822   2.260   1.956   0.409 -0.7463  0.0729  0.1656
 2523SOL     OW 9823   0.657   0.672   4.961  0.9844  0.6608 -0.5010
 2523SOL    HW2 9824   0.564   0.693   4.970  0.4319 -1.3557 -1.1938
 2523SOL    HW3 9825   0.673   0.672   4.867  0.8707 -2.1441 -0.5773
 2523SOL    MW4 9826   0.647   0.675   4.950 -0.3400 -0.2478  0.0972
 2524SOL     OW 9827   3.890   4.992   4.341 -0.0985  0.4377  0.2809
 2524SOL    HW2 9828   3.840   4.911   4.338 -0.7153  0.7914  0.8665
 2524SOL    HW3 9829   3.825   5.062   4.332  0.4316  0.8764 -0.2841
 2524SOL    MW4 9830   3.875   4.991   4.339 -0.0120  0.3150 -0.0569
 2525SOL     OW 9831   6.212   0.609   4.761  0.8722 -0.3219 -0.1565
 2525SOL    HW2 9832   6.224   0.531   4.815  0.1490 -0.8226 -0.7083
 2525SOL    HW3 9833   6.295   0.656   4.768  1.1545 -0.9125  0.5386
 2525SOL    MW4 9834   6.224   0.605   4.769 -0.3217 -0.4147 -0.1207
 2526SOL     OW 9835   2.698   2.210   1.256  0.0189  0.2471 -0.6178
 2526SOL    HW2 9836   2.775   2.153   1.261 -0.3009 -0.1188  2.0004
 2526SOL    HW3 9837   2.733   2.298   1.262  0.2787  0.0652  1.1620
 2526SOL    MW4 9838   2.712   2.214   1.258 -0.2836 -0.0175  0.3931
 2527SOL     OW 9839   1.320   4.841   5.901 -0.3428 -0.1815 -0.4341
 2527SOL    HW2 9840   1.396   4.809   5.852 -1.6132 -1.1905 -1.8212
 2527SOL    HW3 9841   1.292   4.766   5.954 -1.6198 -0.5376 -1.5531
 2527SOL    MW4 9842   1.326   4.827   5.902  0.0924  0.0086 -0.0837
 2528SOL     OW 9843   6.130   4.481   4.384 -0.5318  0.2190 -0.0679
 2528SOL    HW2 9844   6.164   4.392   4.375  0.2836  0.2527  2.0521
 2528SOL    HW3 9845   6.192   4.535   4.335 -1.2433 -0.3760 -1.6931
 2528SOL    MW4 9846   6.143   4.476   4.376 -0.2998 -0.4156  0.5891
 2529SOL     OW 9847   0.102   4.387   2.440 -0.1440  0.6112  0.3461
 2529SOL    HW2 9848   0.148   4.316   2.393 -1.1451  0.0150  0.2437
 2529SOL    HW3 9849   0.172   4.439   2.479  0.7211  0.9352 -1.5304
 2529SOL    MW4 9850   0.117   4.384   2.439 -0.3072  0.0082  0.3098
 2530SOL     OW 9851   4.103   3.899   1.834 -0.4116  0.3146 -0.9749
 2530SOL    HW2 9852   4.183   3.952   1.836  0.0998 -0.4141  1.6591
 2530SOL    HW3 9853   4.034   3.958   1.864 -0.7277  0.6852 -2.3659
 2530SOL    MW4 9854   4.105   3.913   1.838  0.4669 -0.0202  0.3812
 2531SOL     OW 9855   2.938   1.091   5.441  0.1660 -0.4971 -0.0262
 2531SOL    HW2 9856   2.859   1.090   5.495  0.3385  0.8788  0.2853
 2531SOL    HW3 9857   2.969   1.181   5.446  1.3661 -0.8553 -0.7232
 2531SOL    MW4 9858   2.931   1.103   5.448  0.5750 -0.3133  0.4621
 2532SOL     OW 9859   2.450   5.433   5.190  0.0715  0.2960 -0.1730
 2532SOL    HW2 9860   2.444   5.339   5.204 -0.8962  0.2631 -0.7777
 2532SOL    HW3 9861   2.523   5.444   5.129  1.0873  0.0672  0.9462
 2532SOL    MW4 9862   2.459   5.422   5.184  0.4295  0.1924 -0.1652
 2533SOL     OW 9863   2.712   3.310   4.500  0.2047 -0.3018  0.1042
 2533SOL    HW2 9864   2.782   3.247   4.486 -0.2947 -1.1250  1.1927
 2533SOL    HW3 9865   2.635   3.257   4.522 -0.6158  0.6060 -0.4537
 2533SOL    MW4 9866   2.711   3.295   4.501 -0.4580 -0.1002 -0.3544
 2534SOL     OW 9867   6.147   1.444   4.774 -0.0949  0.4641 -0.2437
 2534SOL    HW2 9868   6.099   1.384   4.718 -1.4676 -0.5957  1.9220
 2534SOL    HW3 9869   6.220   1.392   4.809 -0.6021  0.3695  0.7196
 2534SOL    MW4 9870   6.150   1.430   4.771  0.4176  0.2555  0.0530
 2535SOL     OW 9871   6.178   0.101   0.448 -0.1037  0.2360  0.4491
 2535SOL    HW2 9872   6.115   0.109   0.377 -1.6782 -1.4011  1.5541
 2535SOL    HW3 9873   6.224   0.019   0.430  0.5933  0.6131  0.4928
 2535SOL    MW4 9874   6.176   0.091   0.436  0.4680 -0.0656  0.1666
 2536SOL     OW 9875   6.137   0.789   3.037 -0.9767  0.1503 -0.5136
 2536SOL    HW2 9876   6.162   0.803   3.128  0.5291 -0.0810 -0.8595
 2536SOL    HW3 9877   6.104   0.700   3.034 -1.0574  0.1700 -0.1866
 2536SOL    MW4 9878   6.136   0.779   3.049  0.3416 -0.0740 -0.2283
 2537SOL     OW 9879   1.213   3.252   5.051  0.3861  0.6047 -0.1609
 2537SOL    HW2 9880   1.189   3.180   5.110 -1.3754  1.9830  0.9131
 2537SOL    HW3 9881   1.294   3.286   5.087  0.7641 -0.2759 -0.1527
 2537SOL    MW4 9882   1.220   3.247   5.063 -0.6318 -0.2628  0.2128
 2538SOL     OW 9883   2.746   0.330   2.391  0.4783  0.4338  0.1785
 2538SOL    HW2 9884   2.655   0.351   2.412  0.8195  0.8993  1.3052
 2538SOL    HW3 9885   2.741   0.269   2.318 -0.6959  1.3621 -0.5571
 2538SOL    MW4 9886   2.733   0.325   2.384  0.5306  0.0310  0.3462
 2539SOL     OW 9887   5.858   1.282   5.005  0.0334  0.0002 -0.1887
 2539SOL    HW2 9888   5.855   1.237   4.921 -0.7561 -0.0859 -0.1192
 2539SOL    HW3 9889   5.795   1.236   5.060 -1.2839  1.5462 -0.3124
 2539SOL    MW4 9890   5.849   1.270   5.001  0.2956 -0.1927  0.0385
 2540SOL     OW 9891   0.198   6.343   4.598  0.2956 -0.0228 -0.8457
 2540SOL    HW2 9892   0.232   6.432   4.601 -1.8679  0.8434  1.0376
 2540SOL    HW3 9893   0.146   6.339   4.518 -0.6127  0.8530 -0.3177
 2540SOL    MW4 9894   0.196   6.354   4.588  0.4577  0.0015  0.3523
 2541SOL     OW 9895   3.087   4.746   6.392  0.5197 -0.2768 -0.6130
 2541SOL    HW2 9896   3.066   4.653   6.386  0.0183 -0.3024  1.1182
 2541SOL    HW3 9897   3.017   4.783   6.446  1.6221  0.7815  0.1330
 2541SOL    MW4 9898   3.075   4.739   6.398 -0.3033 -0.0721  0.6600
 2542SOL     OW 9899   3.840   0.714   5.688  0.4036 -0.3372 -0.0712
 2542SOL    HW2 9900   3.901   0.640   5.692  0.1654 -0.6708 -1.7934
 2542SOL    HW3 9901   3.884   0.777   5.631  0.1560  0.4184  0.5654
 2542SOL    MW4 9902   3.854   0.712   5.681 -0.0749  0.0714 -0.3554
 2543SOL     OW 9903   5.490   0.792   3.363  0.1958  0.3318 -0.3140
 2543SOL    HW2 9904   5.423   0.841   3.411 -0.9764 -0.5273 -1.0515
 2543SOL    HW3 9905   5.456   0.785   3.275  1.8142  0.8901 -1.0287
 2543SOL    MW4 9906   5.477   0.798   3.358  0.1037  0.3903 -0.7677
 2544SOL     OW 9907   4.272   0.388   5.735 -0.8725  0.3782 -0.0471
 2544SOL    HW2 9908   4.192   0.404   5.686 -1.6746 -2.3713  0.1800
 2544SOL    HW3 9909   4.244   0.335   5.810  0.7719  1.8441  1.6873
 2544SOL    MW4 9910   4.258   0.383   5.738  0.1288 -0.6721  0.5175
 2545SOL     OW 9911   2.833   2.918   5.103  0.1869  0.1242 -0.7279
 2545SOL    HW2 9912   2.793   3.004   5.090 -0.1621  0.0088 -0.4279
 2545SOL    HW3 9913   2.927   2.934   5.096  0.0783 -0.0150 -4.0377
 2545SOL    MW4 9914   2.840   2.932   5.101  0.8633  0.1764 -0.3681
 2546SOL     OW 9915   4.742   3.144   6.363 -0.2290  0.6813  0.0423
 2546SOL    HW2 9916   4.814   3.201   6.391 -0.0800 -0.0015  1.1121
 2546SOL    HW3 9917   4.772   3.108   6.280  2.8430 -3.0879  2.4408
 2546SOL    MW4 9918   4.756   3.147   6.356 -0.2370 -0.0985  0.6782
 2547SOL     OW 9919   4.692   5.681   2.875 -0.7999 -0.4167 -0.3044
 2547SOL    HW2 9920   4.784   5.659   2.894  0.1625  1.0983 -2.7430
 2547SOL    HW3 9921   4.670   5.748   2.939  0.5654  0.7487 -0.9835
 2547SOL    MW4 9922   4.701   5.687   2.886 -0.2522 -0.0773 -0.9200
 2548SOL     OW 9923   0.827   1.238   5.572  0.2192  0.4129 -0.0761
 2548SOL    HW2 9924   0.797   1.152   5.600  0.2456  0.5130  0.2676
 2548SOL    HW3 9925   0.755   1.297   5.593  1.4252  1.0318  2.8195
 2548SOL    MW4 9926   0.814   1.234   5.578  0.0103 -0.0098  0.1665
 2549SOL     OW 9927   2.279   6.289   4.606  0.2872 -0.1209 -0.6968
 2549SOL    HW2 9928   2.202   6.285   4.663  1.5092  0.7111  1.1210
 2549SOL    HW3 9929   2.313   6.378   4.619  1.1534 -0.2410 -2.0087
 2549SOL    MW4 9930   2.274   6.300   4.615 -0.2463 -0.3612 -0.4833
 2550SOL     OW 9931   1.754   4.737   3.322 -0.1172  0.1033  0.5877
 2550SOL    HW2 9932   1.740   4.644   3.304 -2.3577  0.3127  0.9153
 2550SOL    HW3 9933   1.684   4.760   3.384  0.5440  1.9524  0.7116
 2550SOL    MW4 9934   1.743   4.728   3.328  0.2154 -0.1157  0.2995
 2551SOL     OW 9935   4.059   1.442   1.953  0.2200 -0.8260  0.6271
 2551SOL    HW2 9936   4.036   1.481   2.037  3.0165  0.4893  0.8763
 2551SOL    HW3 9937   4.129   1.380   1.973  3.0054  1.5839 -0.9475
 2551SOL    MW4 9938   4.065   1.439   1.967 -0.1835  0.3615 -0.6546
 2552SOL     OW 9939   0.030   4.592   3.455  0.1762  0.3133 -0.0366
 2552SOL    HW2 9940   0.032   4.509   3.407 -1.3164  0.7655 -0.9519
 2552SOL    HW3 9941  -0.015   4.572   3.537  0.8791 -0.0107  0.2839
 2552SOL    MW4 9942   0.025   4.578   3.459 -0.0565 -0.7247 -0.1063
 2553SOL     OW 9943   2.167   5.438   1.242  0.0581 -0.2852 -0.7519
 2553SOL    HW2 9944   2.221   5.362   1.261 -0.2253 -0.5810 -1.1063
 2553SOL    HW3 9945   2.103   5.406   1.177  0.7016  0.5626 -1.8324
 2553SOL    MW4 9946   2.166   5.424   1.236 -0.6321 -0.1275 -0.2231
 2554SOL     OW 9947   5.880   4.733   3.508  0.1313 -0.1627 -0.3059
 2554SOL    HW2 9948   5.806   4.791   3.487 -0.0810 -0.0796  0.6104
 2554SOL    HW3 9949   5.873   4.662   3.445 -0.2635  0.2551 -0.7433
 2554SOL    MW4 9950   5.869   4.732   3.497 -0.3375 -0.2193  0.0154
 2555SOL     OW 9951   2.571   0.198   4.002 -0.0883 -0.2660  0.3318
 2555SOL    HW2 9952   2.582   0.130   3.935 -1.5112  1.3682 -1.6853
 2555SOL    HW3 9953   2.535   0.152   4.077 -0.8465 -1.7975 -0.9121
 2555SOL    MW4 9954   2.568   0.183   4.003  0.4661 -0.4637  0.2026
 2556SOL     OW 9955   3.752   5.047   4.728  0.3429  0.1749  0.3622
 2556SOL    HW2 9956   3.675   5.011   4.772 -1.1230  2.3065 -0.3210
 2556SOL    HW3 9957   3.761   5.136   4.764  1.6160  0.4818 -0.6295
 2556SOL    MW4 9958   3.743   5.054   4.739  0.5858 -0.4067  0.0010
 2557SOL     OW 9959   0.534   0.946   2.573 -0.2792  0.0168 -0.1951
 2557SOL    HW2 9960   0.494   0.932   2.487 -1.6814 -0.8818  0.5624
 2557SOL    HW3 9961   0.506   1.034   2.598 -0.8662 -0.1753 -0.1594
 2557SOL    MW4 9962   0.525   0.956   2.565  0.1759  0.0906 -0.3411
 2558SOL     OW 9963   5.502   3.010   6.218 -0.1618 -0.2558 -0.4923
 2558SOL    HW2 9964   5.440   3.071   6.179 -0.4592  0.6492  1.2722
 2558SOL    HW3 9965   5.586   3.032   6.177  0.0274  2.4117  1.0693
 2558SOL    MW4 9966   5.505   3.021   6.208 -0.2112  0.2542  0.4399
 2559SOL     OW 9967   5.385   2.691   1.565 -0.5355  0.4115 -0.9283
 2559SOL    HW2 9968   5.471   2.702   1.606 -2.6668  2.6696  3.7559
 2559SOL    HW3 9969   5.342   2.625   1.620 -2.1732  0.0725 -2.5481
 2559SOL    MW4 9970   5.391   2.684   1.578  0.1421 -0.4023  0.2989
 2560SOL     OW 9971   4.561   2.568   3.133  0.1870  0.4151 -0.3453
 2560SOL    HW2 9972   4.626   2.531   3.072  0.4021  0.1659  0.0301
 2560SOL    HW3 9973   4.606   2.570   3.218 -0.4593 -0.2352  0.0237
 2560SOL    MW4 9974   4.576   2.563   3.136 -0.0390  0.3450  0.0288
 2561SOL     OW 9975   4.191   5.270   0.320 -0.5032  0.0973 -0.0862
 2561SOL    HW2 9976   4.180   5.278   0.414 -0.3447  0.8288 -0.1260
 2561SOL    HW3 9977   4.112   5.309   0.283  0.0054  0.9747 -0.2726
 2561SOL    MW4 9978   4.180   5.276   0.327  0.7495 -0.1557 -0.1778
 2562SOL     OW 9979   2.211   3.161   4.813 -0.1995 -0.4199 -0.0926
 2562SOL    HW2 9980   2.294   3.202   4.836 -1.2553  2.1622 -0.5227
 2562SOL    HW3 9981   2.187   3.202   4.729 -0.9839 -2.5806 -1.0005
 2562SOL    MW4 9982   2.219   3.172   4.805  0.2187  0.1670 -0.2865
 2563SOL     OW 9983   1.606   5.631   0.281  0.1390 -0.5524 -0.1841
 2563SOL    HW2 9984   1.531   5.621   0.223 -1.0409  1.0743  0.9778
 2563SOL    HW3 9985   1.645   5.715   0.255  0.7195 -0.7170  0.1404
 2563SOL    MW4 9986   1.601   5.641   0.270 -0.1258 -0.0703  0.2884
 2564SOL     OW 9987   3.473   5.639   6.424 -0.6173 -0.2743  0.3964
 2564SOL    HW2 9988   3.397   5.696   6.430  0.0116  1.0445 -2.4358
 2564SOL    HW3 9989   3.444   5.566   6.369 -0.0643 -0.1472 -0.0738
 2564SOL    MW4 9990   3.459   5.637   6.417 -0.2716  0.4300  0.2576
 2565SOL     OW 9991   0.339   6.432   0.668  0.6256  0.2324 -0.1555
 2565SOL    HW2 9992   0.328   6.343   0.635 -2.2979 -0.1126  1.4229
 2565SOL    HW3 9993   0.394   6.423   0.745  1.6915  0.0831 -0.9047
 2565SOL    MW4 9994   0.345   6.419   0.674 -0.2213 -0.1831  1.1002
 2566SOL     OW 9995   2.898   1.629   0.368  0.3937  0.0724 -0.4166
 2566SOL    HW2 9996   2.820   1.665   0.325 -0.2510  0.5852  1.0879
 2566SOL    HW3 9997   2.916   1.548   0.322 -0.7505  0.1861 -1.1032
 2566SOL    MW4 9998   2.890   1.623   0.356  0.5146 -0.0975  0.2121
 2567SOL     OW 9999   3.505   0.917   5.405  0.1631 -0.2990  0.5835
 2567SOL    HW210000   3.555   0.988   5.364 -2.5128  0.9516 -0.7788
 2567SOL    HW310001   3.512   0.934   5.499  2.7272 -0.5805  0.5277
 2567SOL    MW410002   3.513   0.928   5.412 -0.4465 -0.2081 -0.2058
 2568SOL     OW10003   3.369   3.076   2.183  0.1463 -0.1356  0.2006
 2568SOL    HW210004   3.284   3.114   2.203  0.1821  0.9271 -1.4688
 2568SOL    HW310005   3.378   3.003   2.244 -1.6794  0.1064  0.8097
 2568SOL    MW410006   3.359   3.072   2.194  0.0950  0.1926  0.6003
 2569SOL     OW10007   6.351   3.168   0.057  0.1287  0.1747  0.1514
 2569SOL    HW210008   6.347   3.112   0.134  0.7640 -0.3032 -0.1461
 2569SOL    HW310009   6.390   3.111  -0.011  0.2958  0.8165 -0.2973
 2569SOL    MW410010   6.356   3.153   0.058 -0.3899  0.3879  0.4246
 2570SOL     OW10011   4.900   5.547   4.536  0.5415 -0.2539  0.3617
 2570SOL    HW210012   4.992   5.533   4.513  0.0888  0.1635 -2.0372
 2570SOL    HW310013   4.868   5.460   4.558  1.4713 -0.4232  1.1170
 2570SOL    MW410014   4.908   5.534   4.536 -0.2003 -0.5772 -0.4071
 2571SOL     OW10015   4.952   3.679   3.954 -0.3650 -0.4010 -0.0991
 2571SOL    HW210016   5.004   3.697   3.876 -0.0751  0.0951  0.2056
 2571SOL    HW310017   5.015   3.676   4.026 -0.7215 -0.0535  0.2380
 2571SOL    MW410018   4.967   3.681   3.953 -0.1570  0.4929  0.0115
 2572SOL     OW10019   1.958   1.942   0.010 -0.1573  0.6994 -0.1682
 2572SOL    HW210020   1.886   1.879   0.008  1.4539 -1.2204 -0.4922
 2572SOL    HW310021   1.957   1.982  -0.077 -0.3416  0.0915 -0.4499
 2572SOL    MW410022   1.948   1.939  -0.002  0.0554  0.6056 -0.9216
 2573SOL     OW10023   5.683   0.769   2.604 -0.2726 -0.3091  0.1577
 2573SOL    HW210024   5.666   0.684   2.564  2.1058 -1.0681  0.6031
 2573SOL    HW310025   5.759   0.804   2.557  1.3857 -0.3568  2.5896
 2573SOL    MW410026   5.691   0.763   2.592 -0.1221 -0.8852 -0.5099
 2574SOL     OW10027   0.115   0.396   1.174 -0.6386 -0.1693 -0.4554
 2574SOL    HW210028   0.067   0.466   1.130 -0.7969  0.3635  0.5322
 2574SOL    HW310029   0.047   0.336   1.205 -0.6206  0.1007  0.1254
 2574SOL    MW410030   0.100   0.397   1.172 -0.0276 -0.0044  0.7482
 2575SOL     OW10031   3.187   0.649   0.233  0.1818 -0.1731 -0.7449
 2575SOL    HW210032   3.200   0.743   0.246 -0.6688 -0.2222  0.7479
 2575SOL    HW310033   3.177   0.638   0.139  2.6268  0.8976 -1.2047
 2575SOL    MW410034   3.188   0.660   0.222 -0.0358 -0.3824  0.0761
 2576SOL     OW10035   2.445   4.953   4.998  0.0316  0.6036 -0.5382
 2576SOL    HW210036   2.403   4.879   4.954  1.2756 -0.3422 -0.1577
 2576SOL    HW310037   2.446   5.022   4.931 -0.7088  0.1446 -1.0461
 2576SOL    MW410038   2.439   4.952   4.983 -0.2158 -0.1210  0.4085
 2577SOL     OW10039   3.352   2.669   3.074 -0.2871 -0.6823 -0.1423
 2577SOL    HW210040   3.378   2.743   3.019  1.0250 -0.8843  0.1797
 2577SOL    HW310041   3.363   2.592   3.017 -0.0305 -0.7785  0.0321
 2577SOL    MW410042   3.357   2.669   3.059  0.6947 -0.1004 -0.1554
 2578SOL     OW10043   2.540   1.525   3.519  0.9218  0.1210  0.4862
 2578SOL    HW210044   2.522   1.517   3.612 -1.0882  0.8613  0.2085
 2578SOL    HW310045   2.465   1.484   3.476  0.9043  1.4083 -0.7813
 2578SOL    MW410046   2.528   1.519   3.526 -0.2982 -0.7872 -0.4235
 2579SOL     OW10047   2.683   0.594   0.158 -0.5576  0.3684 -0.7357
 2579SOL    HW210048   2.693   0.498   0.155 -2.7667 -0.0507  1.6833
 2579SOL    HW310049   2.744   0.623   0.225 -1.2039  0.3772 -0.1374
 2579SOL    MW410050   2.692   0.585   0.166 -0.1297  0.0171  0.8656
 2580SOL     OW10051   6.150   4.443   4.904  0.1309 -0.5911 -0.2869
 2580SOL    HW210052   6.160   4.491   4.822 -0.8230 -0.8899 -0.5872
 2580SOL    HW310053   6.230   4.462   4.953  0.8502 -0.6549 -1.4088
 2580SOL    MW410054   6.162   4.452   4.900  0.6714  0.5300  0.5060
 2581SOL     OW10055   0.997   3.812   5.146 -0.0697  0.9756 -0.8417
 2581SOL    HW210056   1.001   3.719   5.123 -1.1655  0.2319  1.6211
 2581SOL    HW310057   0.903   3.832   5.149 -0.0725  0.9853  2.5691
 2581SOL    MW410058   0.985   3.803   5.143 -0.1352 -0.0631  0.4795
 2582SOL     OW10059   2.581   5.129   2.793 -0.9926 -0.1327 -0.0269
 2582SOL    HW210060   2.620   5.067   2.855  1.6163 -0.5713 -1.9373
 2582SOL    HW310061   2.653   5.155   2.736 -2.6064  2.5715 -1.0380
 2582SOL    MW410062   2.596   5.124   2.794 -0.5124 -0.0216 -0.2646
 2583SOL     OW10063   4.731   3.522   3.622  0.5842  0.4126 -0.1722
 2583SOL    HW210064   4.648   3.553   3.657  0.2887  0.5327 -0.9538
 2583SOL    HW310065   4.736   3.431   3.649  0.4692  0.5629  0.3644
 2583SOL    MW410066   4.721   3.514   3.630  0.0001 -0.1159  0.8783
 2584SOL     OW10067   0.599   2.256   2.185  0.2777 -0.6163 -0.5417
 2584SOL    HW210068   0.582   2.274   2.278  2.0374  0.7072 -0.4171
 2584SOL    HW310069   0.686   2.293   2.169 -0.3113 -0.0885 -2.9304
 2584SOL    MW410070   0.608   2.263   2.195  0.4227  0.0267 -0.1210
 2585SOL     OW10071   2.096   5.049   5.567  0.2076 -0.4634  0.0469
 2585SOL    HW210072   2.112   5.116   5.501 -0.4829 -1.5634 -1.2862
 2585SOL    HW310073   2.178   5.000   5.571  0.0417 -0.7847 -0.4614
 2585SOL    MW410074   2.109   5.051   5.559 -0.3654 -0.0455 -0.2818
 2586SOL     OW10075   0.961   4.572   4.552  0.4676  0.1159 -0.0164
 2586SOL    HW210076   1.050   4.585   4.518  0.6613  0.3832  0.5795
 2586SOL    HW310077   0.970   4.501   4.615 -0.2540 -1.7912 -1.9185
 2586SOL    MW410078   0.974   4.565   4.555  0.0329  0.4718  0.2584
 2587SOL     OW10079   5.461   0.706   0.765 -0.2428  0.2696 -0.4798
 2587SOL    HW210080   5.496   0.778   0.713 -0.1674  0.1256 -0.6272
 2587SOL    HW310081   5.515   0.631   0.742 -1.3474 -0.2316 -1.5647
 2587SOL    MW410082   5.472   0.706   0.755 -0.5121 -0.1039  0.3326
 2588SOL     OW10083   2.465   0.377   5.943 -0.4964 -0.1257  0.0670
 2588SOL    HW210084   2.446   0.464   5.908 -0.4980 -0.9228 -2.0646
 2588SOL    HW310085   2.508   0.331   5.871 -1.1617 -2.1257  0.8760
 2588SOL    MW410086   2.468   0.382   5.929 -0.3736 -0.5565  0.6710
 2589SOL     OW10087   1.103   0.946   4.602 -0.1110 -0.8083  0.5180
 2589SOL    HW210088   1.122   0.947   4.508 -1.5681  0.0081  0.1916
 2589SOL    HW310089   1.176   0.992   4.642 -0.7879  1.2917 -0.5398
 2589SOL    MW410090   1.115   0.952   4.595 -0.2575 -0.3484 -0.3031
 2590SOL     OW10091   2.690   1.461   1.347 -0.1810 -0.4752  0.3119
 2590SOL    HW210092   2.600   1.434   1.326  0.0825 -0.8713 -0.3236
 2590SOL    HW310093   2.679   1.543   1.395 -0.9104 -0.8313  0.7704
 2590SOL    MW410094   2.676   1.468   1.351 -0.3319 -0.1245  0.7283
 2591SOL     OW10095   2.684   1.273   0.969  0.5272 -0.2914 -0.2040
 2591SOL    HW210096   2.636   1.324   0.904 -1.3108 -1.0337  0.4947
 2591SOL    HW310097   2.739   1.337   1.014  0.5792  0.5144 -1.3641
 2591SOL    MW410098   2.685   1.288   0.967  0.2307 -0.4503 -0.0618
 2592SOL     OW10099   3.017   4.975   5.259  0.3441 -0.0810  0.6841
 2592SOL    HW210100   3.111   4.986   5.274  0.5930 -0.3476 -0.6042
 2592SOL    HW310101   3.011   4.913   5.186 -0.8191  0.3748  0.3737
 2592SOL    MW410102   3.029   4.968   5.252  0.1648  0.0540 -0.0257
 2593SOL     OW10103   4.604   1.691   0.728  0.5229  0.5897 -0.1284
 2593SOL    HW210104   4.619   1.612   0.677  2.1838  0.1784  0.9082
 2593SOL    HW310105   4.648   1.675   0.812  3.0906  3.4649 -0.7226
 2593SOL    MW410106   4.612   1.679   0.733 -0.1770 -0.0726 -0.4493
 2594SOL     OW10107   0.144   3.081   2.768  0.3627 -0.4240  0.2313
 2594SOL    HW210108   0.171   3.049   2.682  2.3971  0.9272  0.2848
 2594SOL    HW310109   0.224   3.082   2.820  0.1206  2.7705  0.7953
 2594SOL    MW410110   0.158   3.077   2.764  0.0331  0.0916  0.4843
 2595SOL     OW10111   3.146   5.649   1.567  0.2982 -0.2311 -0.4727
 2595SOL    HW210112   3.075   5.662   1.630  0.6856  0.5940 -0.1862
 2595SOL    HW310113   3.106   5.602   1.494 -0.5262  0.1512 -0.2785
 2595SOL    MW410114   3.131   5.645   1.566 -0.6368 -0.1197 -0.7759
 2596SOL     OW10115   1.730   0.733   3.833 -0.2209  0.0416  0.5447
 2596SOL    HW210116   1.710   0.810   3.781 -0.9165 -0.2063  0.4420
 2596SOL    HW310117   1.784   0.766   3.905  2.0582  0.1725 -1.0959
 2596SOL    MW410118   1.735   0.747   3.836 -0.7908 -0.0994 -0.0916
 2597SOL     OW10119   5.390   5.215   1.472  0.5898 -0.4601 -0.0149
 2597SOL    HW210120   5.483   5.230   1.487  0.3483  0.8375  0.2836
 2597SOL    HW310121   5.348   5.233   1.556 -0.0297 -0.0840 -0.3921
 2597SOL    MW410122   5.397   5.219   1.485 -1.0604  0.3433  0.4152
 2598SOL     OW10123   2.223   3.777   4.087 -0.0180 -0.2747  0.5687
 2598SOL    HW210124   2.150   3.728   4.125  1.0563 -1.9326  0.5961
 2598SOL    HW310125   2.250   3.725   4.011  1.6568 -0.1287  1.0374
 2598SOL    MW410126   2.217   3.764   4.082 -0.5881  0.0042  0.4935
 2599SOL     OW10127   0.471   1.217   4.649  0.2278 -0.4233 -0.0716
 2599SOL    HW210128   0.495   1.265   4.728 -1.1991  1.0588 -0.4939
 2599SOL    HW310129   0.425   1.281   4.595  0.3878 -1.6416 -1.7296
 2599SOL    MW410130   0.468   1.232   4.652 -0.4089 -0.3376 -0.0268
 2600SOL     OW10131   4.573   5.137   0.049 -0.6563 -0.2076 -0.9256
 2600SOL    HW210132   4.480   5.116   0.055 -1.1340  1.4957 -1.6864
 2600SOL    HW310133   4.600   5.150   0.140 -1.1752 -0.6173 -0.7058
 2600SOL    MW410134   4.564   5.136   0.062 -0.4388 -0.0603  0.1756
 2601SOL     OW10135   2.900   6.041   0.269 -0.7479  0.2691  0.0342
 2601SOL    HW210136   2.852   5.996   0.199 -0.4566 -0.2721  0.1821
 2601SOL    HW310137   2.992   6.018   0.254 -0.8606 -1.6532  1.8565
 2601SOL    MW410138   2.906   6.032   0.257 -0.1178  0.1185  0.4373
 2602SOL     OW10139   0.988   6.040   5.011  0.6559  0.0151  0.1324
 2602SOL    HW210140   1.067   6.091   5.028  0.9178 -0.0449 -0.8792
 2602SOL    HW310141   0.922   6.080   5.068  1.5077 -0.2211  1.3241
 2602SOL    MW410142   0.990   6.052   5.021  0.0394 -0.2078 -0.3495
 2603SOL     OW10143   2.241   6.153   5.760  0.6954  0.1338  0.4813
 2603SOL    HW210144   2.298   6.082   5.732 -1.2050 -0.9240 -0.8930
 2603SOL    HW310145   2.299   6.230   5.764  2.1457 -0.7936 -1.2462
 2603SOL    MW410146   2.256   6.154   5.757  0.1956 -0.3233  0.1308
 2604SOL     OW10147   4.968   0.837   0.812 -0.4679  0.6664 -0.0784
 2604SOL    HW210148   4.987   0.753   0.769 -0.0938  0.3186  0.7369
 2604SOL    HW310149   5.044   0.891   0.793 -0.3096  0.5186  0.1337
 2604SOL    MW410150   4.980   0.833   0.803  0.4472 -0.5077 -0.8535
 2605SOL     OW10151   2.457   0.721   4.550 -0.1568 -0.6921 -0.1053
 2605SOL    HW210152   2.374   0.686   4.517 -0.2900 -0.7777  0.3085
 2605SOL    HW310153   2.494   0.649   4.602  0.0696 -0.5792 -0.1113
 2605SOL    MW410154   2.451   0.706   4.553 -0.0082 -0.2783 -0.0195
 2606SOL     OW10155   6.298   2.072   1.838  0.0368 -0.4359 -0.1090
 2606SOL    HW210156   6.283   2.016   1.914  1.0371 -0.5464  0.0112
 2606SOL    HW310157   6.238   2.038   1.772 -0.0136 -1.0755  0.2589
 2606SOL    MW410158   6.288   2.060   1.839  0.4819 -0.4183 -0.2837
 2607SOL     OW10159   3.091   4.467   3.680 -0.2529  0.3394 -0.0978
 2607SOL    HW210160   3.016   4.412   3.657 -0.5416 -1.0182  3.4792
 2607SOL    HW310161   3.053   4.538   3.732  0.6927  1.1782 -0.5249
 2607SOL    MW410162   3.076   4.469   3.684 -0.1853 -0.7445  0.6213
 2608SOL     OW10163   1.723   3.697   2.887  0.5884  0.2104 -0.1703
 2608SOL    HW210164   1.766   3.711   2.803 -0.8357 -0.1986 -0.9994
 2608SOL    HW310165   1.632   3.675   2.864  0.3447 -0.6023  1.4344
 2608SOL    MW410166   1.716   3.696   2.873  0.2449 -0.4025  0.4838
 2609SOL     OW10167   4.835   2.474   0.468  0.2857  0.0166  0.2012
 2609SOL    HW210168   4.924   2.509   0.468  0.5610 -0.3693  3.4275
 2609SOL    HW310169   4.779   2.550   0.485  0.3039 -0.1364  0.9984
 2609SOL    MW410170   4.839   2.489   0.470 -0.1808 -0.6511  0.0883
 2610SOL     OW10171   4.552   4.119   5.506 -0.5966 -0.1815  0.8642
 2610SOL    HW210172   4.471   4.162   5.479  0.3580  1.2284  0.1049
 2610SOL    HW310173   4.580   4.167   5.583  0.1664  0.1814  0.3704
 2610SOL    MW410174   4.545   4.131   5.513 -0.5411 -0.9113  0.1772
 2611SOL     OW10175   2.732   2.482   0.272  0.2355  0.4543  0.1380
 2611SOL    HW210176   2.803   2.526   0.318  0.3340 -1.0585  1.5079
 2611SOL    HW310177   2.681   2.553   0.233  0.7785  1.7330  1.6615
 2611SOL    MW410178   2.735   2.497   0.273 -0.0640 -0.0459  0.1700
 2612SOL     OW10179   0.214   0.541   5.580 -0.4302 -0.3229  0.4749
 2612SOL    HW210180   0.150   0.564   5.513  0.1167  1.0292  0.3903
 2612SOL    HW310181   0.191   0.452   5.605 -1.2132 -0.5247 -0.8487
 2612SOL    MW410182   0.202   0.532   5.574 -0.0901  0.0450 -0.2248
 2613SOL     OW10183   1.512   1.313   4.802  0.1922 -0.0113 -0.4192
 2613SOL    HW210184   1.503   1.408   4.813 -0.1131 -0.0602 -0.2405
 2613SOL    HW310185   1.589   1.303   4.745 -1.4010  0.4751 -2.7875
 2613SOL    MW410186   1.521   1.325   4.796 -0.0186  0.2980  0.3043
 2614SOL     OW10187   3.341   3.040   5.601 -0.5448  0.5980 -0.1919
 2614SOL    HW210188   3.365   3.071   5.514 -0.6513  0.7196 -0.1762
 2614SOL    HW310189   3.426   3.027   5.645 -0.5088  1.4012 -0.0052
 2614SOL    MW410190   3.356   3.042   5.596  0.3122 -0.5803  0.4460
 2615SOL     OW10191   4.016   0.938   4.069  0.1285 -0.0921 -0.1915
 2615SOL    HW210192   3.999   0.859   4.121  3.0830  0.2141  1.4202
 2615SOL    HW310193   4.078   0.910   4.002  0.7858  0.7509  0.0563
 2615SOL    MW410194   4.022   0.924   4.067 -0.3458 -0.1056 -0.0087
 2616SOL     OW10195   0.459   2.886   3.553  0.0125  0.5336  0.6387
 2616SOL    HW210196   0.484   2.829   3.626  1.7485  0.6366  0.1698
 2616SOL    HW310197   0.485   2.838   3.474 -1.4211  0.6216  0.0848
 2616SOL    MW410198   0.466   2.872   3.552  0.5877 -0.1277 -0.8065
 2617SOL     OW10199   5.870   5.868   3.027  0.5420 -0.0711  0.3885
 2617SOL    HW210200   5.892   5.948   3.075 -1.4764  0.9690 -0.3152
 2617SOL    HW310201   5.803   5.825   3.080  1.3007 -1.1118  0.5405
 2617SOL    MW410202   5.864   5.873   3.040 -0.1156  0.0794  0.0650
 2618SOL     OW10203   0.188   5.162   2.989 -0.3194  0.2387 -0.1305
 2618SOL    HW210204   0.104   5.123   3.012  0.2185 -0.0782  1.4033
 2618SOL    HW310205   0.253   5.095   3.014  0.3894  0.3599 -1.5419
 2618SOL    MW410206   0.186   5.148   2.995 -1.0731 -0.3324  0.0384
 2619SOL     OW10207   3.334   2.072   3.482  0.9788 -0.2319 -0.0780
 2619SOL    HW210208   3.323   2.047   3.390 -1.1749 -0.6245  0.2211
 2619SOL    HW310209   3.250   2.111   3.506  2.1230  1.5262  1.2573
 2619SOL    MW410210   3.322   2.074   3.473  0.3469 -0.1488  0.6553
 2620SOL     OW10211   5.952   5.967   0.671  0.0910  0.1523 -0.2743
 2620SOL    HW210212   6.026   6.027   0.678  0.0907  0.6223 -2.9998
 2620SOL    HW310213   5.919   5.958   0.760  1.2336  2.7346  0.4880
 2620SOL    MW410214   5.958   5.973   0.684 -0.3508  0.1733  0.2762
 2621SOL     OW10215   0.609   3.198   0.051 -0.2580 -0.1565 -0.3234
 2621SOL    HW210216   0.607   3.290   0.075  0.9241 -0.2683  0.2381
 2621SOL    HW310217   0.558   3.155   0.120 -0.3032 -0.0003 -0.2577
 2621SOL    MW410218   0.602   3.204   0.063  0.3544 -0.2912  0.3131
 2622SOL     OW10219   3.087   3.282   6.140 -0.4577 -0.0647 -0.3064
 2622SOL    HW210220   3.031   3.267   6.217 -1.7629 -1.6643 -1.5004
 2622SOL    HW310221   3.111   3.194   6.110  2.4187  0.5424 -0.1310
 2622SOL    MW410222   3.083   3.268   6.146 -0.3721 -0.0520  0.0722
 2623SOL     OW10223   0.439   3.779   2.418 -0.1308 -0.3911 -0.0060
 2623SOL    HW210224   0.435   3.867   2.380 -0.8896 -1.0920 -1.6506
 2623SOL    HW310225   0.529   3.751   2.405 -0.2400 -0.3934 -0.7998
 2623SOL    MW410226   0.450   3.787   2.411 -0.3605  0.1940 -0.3561
 2624SOL     OW10227   4.395   5.500   0.895 -0.3052 -1.1047 -0.4981
 2624SOL    HW210228   4.461   5.436   0.921 -0.3966 -1.0604 -0.1622
 2624SOL    HW310229   4.438   5.552   0.827  0.5575 -0.0431  0.8302
 2624SOL    MW410230   4.410   5.498   0.889 -0.7236  0.2772  0.0162
 2625SOL     OW10231   0.116   1.736   1.891 -0.0369  0.1417  0.6245
 2625SOL    HW210232   0.134   1.794   1.817  1.0382  0.1016  0.8360
 2625SOL    HW310233   0.058   1.787   1.947 -0.2294  0.4708  0.1352
 2625SOL    MW410234   0.111   1.750   1.889  0.1828 -0.0484  0.1313
 2626SOL     OW10235   4.053   4.237   0.564  0.2031 -0.7472  0.4289
 2626SOL    HW210236   4.069   4.172   0.632  0.1252 -0.9956  0.2122
 2626SOL    HW310237   3.973   4.282   0.591 -2.1474 -3.4534 -1.4138
 2626SOL    MW410238   4.045   4.234   0.576 -0.1482 -0.2602  0.3195
 2627SOL     OW10239   0.238   4.555   4.707  0.4935 -0.1865  0.5307
 2627SOL    HW210240   0.168   4.497   4.674  1.5220 -0.8603 -0.5175
 2627SOL    HW310241   0.234   4.632   4.651  0.3323 -0.0419  0.7384
 2627SOL    MW410242   0.228   4.557   4.695 -0.4904  0.3695  0.0091
 2628SOL     OW10243   4.706   2.535   4.818 -0.0922  0.6463  0.2434
 2628SOL    HW210244   4.691   2.482   4.896 -0.6045 -0.2853 -0.4606
 2628SOL    HW310245   4.620   2.570   4.796 -0.0894  0.3212 -0.2995
 2628SOL    MW410246   4.693   2.532   4.825 -0.2577  0.0581  0.4961
 2629SOL     OW10247   0.683   5.314   3.659 -0.1958  0.8583 -0.1122
 2629SOL    HW210248   0.599   5.323   3.615 -0.9107 -0.0628  0.9975
 2629SOL    HW310249   0.681   5.226   3.697  2.7009 -0.6400 -2.9836
 2629SOL    MW410250   0.672   5.304   3.659  0.1026 -0.0594 -0.3787
 2630SOL     OW10251   3.246   2.764   4.290 -0.1852 -0.8954 -0.5150
 2630SOL    HW210252   3.201   2.698   4.237 -0.4778 -1.0044 -0.1320
 2630SOL    HW310253   3.312   2.800   4.231 -0.0818 -1.4655 -0.7562
 2630SOL    MW410254   3.248   2.760   4.275  0.5079  0.2267 -0.5343
 2631SOL     OW10255   2.334   5.551   6.152 -0.5204  0.2535  0.2644
 2631SOL    HW210256   2.307   5.469   6.111  1.0120  0.9854 -2.4711
 2631SOL    HW310257   2.396   5.524   6.220 -0.1881 -0.9018 -0.4660
 2631SOL    MW410258   2.339   5.537   6.156 -0.0114  0.1570 -0.1999
 2632SOL     OW10259   1.549   1.910   5.649 -0.3074  0.2269 -0.3451
 2632SOL    HW210260   1.578   1.951   5.730  0.2317  0.2737 -0.5556
 2632SOL    HW310261   1.499   1.834   5.677 -0.0445  0.1911  0.0356
 2632SOL    MW410262   1.547   1.905   5.663 -0.6054  0.1177 -0.6090
 2633SOL     OW10263   1.975   3.386   1.182 -0.5857 -0.2163 -0.1469
 2633SOL    HW210264   2.039   3.332   1.228 -1.0769  0.5366  1.4852
 2633SOL    HW310265   1.997   3.376   1.089  0.6470 -1.5151  0.2613
 2633SOL    MW410266   1.986   3.378   1.176  0.4453 -0.0748 -0.2875
 2634SOL     OW10267   4.254   4.191   3.006 -0.2427 -0.1035 -0.2758
 2634SOL    HW210268   4.236   4.161   3.096 -0.2219  0.2019 -0.1695
 2634SOL    HW310269   4.348   4.209   3.005  0.1383 -1.8944 -0.8899
 2634SOL    MW410270   4.264   4.190   3.018 -0.3813 -0.2554 -0.0854
 2635SOL     OW10271   3.890   5.672   3.587 -0.2517  0.1659 -0.0126
 2635SOL    HW210272   3.957   5.695   3.522  0.8862 -1.2418  0.6050
 2635SOL    HW310273   3.865   5.582   3.565 -1.9450  0.6486 -0.1945
 2635SOL    MW410274   3.896   5.663   3.576  0.1739 -0.2846 -0.1708
 2636SOL     OW10275   3.307   3.690   1.435 -0.2392 -0.2042 -0.3265
 2636SOL    HW210276   3.255   3.759   1.395  1.0299  0.8961 -0.1612
 2636SOL    HW310277   3.316   3.623   1.367 -1.7088 -0.3567 -0.3947
 2636SOL    MW410278   3.302   3.690   1.421 -0.0784 -0.2147 -0.2029
 2637SOL     OW10279   4.748   0.437   0.173  0.2380  0.2442  0.1288
 2637SOL    HW210280   4.783   0.413   0.259  0.2271  1.2730  0.4452
 2637SOL    HW310281   4.793   0.380   0.111  2.8443  1.7829  0.4548
 2637SOL    MW410282   4.758   0.426   0.176  0.8363 -0.3727  0.4115
 2638SOL     OW10283   1.834   5.005   0.717 -0.2378 -0.4516  0.3474
 2638SOL    HW210284   1.903   5.071   0.718  0.4046 -1.0640 -0.8403
 2638SOL    HW310285   1.849   4.956   0.636 -1.9922 -0.6943  0.1287
 2638SOL    MW410286   1.845   5.007   0.706  0.3441 -0.3384 -0.2560
 2639SOL     OW10287   5.995   1.412   4.530 -0.7221  0.0243 -0.0274
 2639SOL    HW210288   6.016   1.357   4.454 -1.3694 -1.0759  0.5688
 2639SOL    HW310289   6.048   1.491   4.517  1.7246 -1.4848  0.0240
 2639SOL    MW410290   6.005   1.415   4.519  0.3635 -0.4377 -0.2157
 2640SOL     OW10291   6.076   1.903   1.241  0.6085 -0.0668  0.6765
 2640SOL    HW210292   6.047   1.899   1.150  1.8838  0.3695  0.2236
 2640SOL    HW310293   6.065   1.814   1.274 -1.1049  0.0605  0.5150
 2640SOL    MW410294   6.071   1.891   1.233  0.1663  0.3349  0.1511
 2641SOL     OW10295   3.279   1.019   4.459 -0.1528  0.6377  0.8337
 2641SOL    HW210296   3.265   1.032   4.365  0.2821  2.7363  1.0130
 2641SOL    HW310297   3.374   1.019   4.469 -0.1418 -1.5102  1.0775
 2641SOL    MW410298   3.290   1.021   4.448 -0.1909  0.4583  0.0191
 2642SOL     OW10299   0.194   5.997   4.331  0.2489 -0.0044  0.0558
 2642SOL    HW210300   0.168   5.940   4.403  1.3121  0.0234  0.4732
 2642SOL    HW310301   0.158   5.954   4.253 -0.6490 -0.1928  0.5543
 2642SOL    MW410302   0.186   5.984   4.330 -0.4168 -0.5567  0.2782
 2643SOL     OW10303   5.819   3.093   1.011  0.1305 -0.0997  0.3133
 2643SOL    HW210304   5.767   3.016   1.034  0.8899 -0.8295 -0.3419
 2643SOL    HW310305   5.761   3.167   1.026 -0.7091 -0.8166  0.6820
 2643SOL    MW410306   5.805   3.092   1.016 -0.5340  0.5570 -0.2179
 2644SOL     OW10307   2.468   6.051   4.459 -0.1619  0.4427  0.1491
 2644SOL    HW210308   2.517   6.128   4.490 -1.5709  2.3312 -1.9465
 2644SOL    HW310309   2.376   6.074   4.472 -0.6232 -0.7654 -0.8068
 2644SOL    MW410310   2.463   6.064   4.465  0.1764 -0.1118  0.1780
 2645SOL     OW10311   2.900   4.265   6.118 -0.0043 -0.2377 -0.3126
 2645SOL    HW210312   2.924   4.325   6.047  1.5027 -0.8819 -0.3796
 2645SOL    HW310313   2.891   4.180   6.077 -0.2189 -0.4194  0.0983
 2645SOL    MW410314   2.902   4.262   6.103 -0.1723  0.5384  0.0072
 2646SOL     OW10315   0.484   3.079   0.281 -0.3622  0.0079 -0.2458
 2646SOL    HW210316   0.510   3.163   0.320  1.8703 -1.1086  0.8872
 2646SOL    HW310317   0.405   3.054   0.328  0.4412  0.2541  1.2904
 2646SOL    MW410318   0.477   3.087   0.292  0.2479  0.3353 -0.8042
 2647SOL     OW10319   4.556   4.784   5.439  0.8334 -0.2712  0.0453
 2647SOL    HW210320   4.646   4.789   5.472  0.5749  1.7369  0.6117
 2647SOL    HW310321   4.501   4.798   5.517  0.0029 -1.7091 -0.2522
 2647SOL    MW410322   4.560   4.787   5.454 -0.3910 -0.4908  1.2294
 2648SOL     OW10323   5.116   1.882   4.112 -0.0555  0.0202 -0.2267
 2648SOL    HW210324   5.118   1.793   4.146 -0.5211 -0.7950 -2.1942
 2648SOL    HW310325   5.207   1.900   4.087 -0.1606 -0.3698 -0.9149
 2648SOL    MW410326   5.128   1.873   4.113 -0.3129  0.1789  0.0324
 2649SOL     OW10327   3.503   0.598   1.037 -0.3673 -0.2420 -0.4849
 2649SOL    HW210328   3.513   0.570   0.946  0.4785 -2.4837  0.2381
 2649SOL    HW310329   3.563   0.673   1.045  0.9762 -1.1694 -1.3429
 2649SOL    MW410330   3.512   0.604   1.026  0.4450  0.0051  0.1811
 2650SOL     OW10331   3.914   4.065   1.971  0.1721 -0.4598  0.7550
 2650SOL    HW210332   3.842   4.010   1.940  1.1444 -0.7010 -1.2656
 2650SOL    HW310333   3.891   4.153   1.941 -0.5916 -0.0052  2.5635
 2650SOL    MW410334   3.901   4.069   1.963 -0.3295  0.1858 -0.1304
 2651SOL     OW10335   0.028   2.973   3.196  0.1578  0.2160  0.2896
 2651SOL    HW210336   0.081   2.906   3.153  1.3954  1.3353 -0.0012
 2651SOL    HW310337   0.015   2.939   3.285 -0.7481 -1.2010 -0.3584
 2651SOL    MW410338   0.033   2.960   3.202  0.2595  0.4272 -0.2725
 2652SOL     OW10339   0.972   2.233   1.583  0.0778 -0.0201  0.5230
 2652SOL    HW210340   1.057   2.189   1.590 -0.2429 -0.7704 -0.1934
 2652SOL    HW310341   0.989   2.308   1.526  0.2567 -0.1767  0.3674
 2652SOL    MW410342   0.985   2.237   1.577  0.1815  0.0861 -0.1844
 2653SOL     OW10343   5.259   6.283   2.388 -0.0311 -0.4991  0.1561
 2653SOL    HW210344   5.204   6.333   2.327 -0.3779 -0.0446  0.8339
 2653SOL    HW310345   5.346   6.286   2.349 -0.3294 -0.5638 -0.5296
 2653SOL    MW410346   5.263   6.290   2.375 -0.1947  0.6184  0.0077
 2654SOL     OW10347   5.822   1.361   6.426 -0.0637  0.5375 -0.2550
 2654SOL    HW210348   5.820   1.455   6.407  0.8042  0.7653  0.7021
 2654SOL    HW310349   5.795   1.319   6.344 -0.7630  1.6255 -0.5995
 2654SOL    MW410350   5.818   1.368   6.412  0.2172  0.9049 -0.3526
 2655SOL     OW10351   3.137   6.093   1.853 -0.1630  0.2719  0.4845
 2655SOL    HW210352   3.127   6.097   1.948  1.7682 -0.3344  0.7538
 2655SOL    HW310353   3.050   6.071   1.820 -0.3521 -1.9956  2.3092
 2655SOL    MW410354   3.125   6.091   1.861  0.4662  0.1223 -0.1257
 2656SOL     OW10355   1.647   2.940   2.556 -0.3442  0.4124  0.7193
 2656SOL    HW210356   1.709   3.003   2.520 -0.2426  1.0245  1.9125
 2656SOL    HW310357   1.620   2.887   2.481  0.2615  1.2853 -0.1378
 2656SOL    MW410358   1.652   2.941   2.541 -0.2192  0.5660 -0.1301
 2657SOL     OW10359   0.087   5.681   3.173  0.7094 -0.5661  0.9222
 2657SOL    HW210360   0.153   5.626   3.214  0.5312 -0.6046  1.1588
 2657SOL    HW310361   0.010   5.625   3.165  0.9498 -0.7765 -0.1025
 2657SOL    MW410362   0.086   5.667   3.177  0.3427  0.1445 -0.0346
 2658SOL     OW10363   3.253   1.724   3.198 -0.0274 -0.5440  0.6040
 2658SOL    HW210364   3.328   1.688   3.150 -0.8898 -1.4148 -0.1254
 2658SOL    HW310365   3.269   1.699   3.289  0.1171 -1.5087  0.3186
 2658SOL    MW410366   3.265   1.716   3.204  0.3382 -0.0507 -0.1685
 2659SOL     OW10367   4.872   2.616   2.419  0.0418 -0.0775 -0.4541
 2659SOL    HW210368   4.824   2.644   2.342  1.5164  2.1454 -0.6670
 2659SOL    HW310369   4.953   2.667   2.417  0.6254 -0.7533  1.9637
 2659SOL    MW410370   4.877   2.626   2.409  0.7413 -0.2800  0.5890
 2660SOL     OW10371   5.004   1.854   0.148 -0.4849  0.5618 -0.0854
 2660SOL    HW210372   5.091   1.819   0.127 -0.2978  0.4257  0.8461
 2660SOL    HW310373   4.943   1.788   0.118 -0.1144 -0.9557  2.2401
 2660SOL    MW410374   5.007   1.841   0.142 -0.0276  0.1305  0.4280
 2661SOL     OW10375   3.913   6.210   4.829  0.2609 -0.6792 -0.2451
 2661SOL    HW210376   3.987   6.187   4.773  0.3684  0.7588 -0.7407
 2661SOL    HW310377   3.840   6.223   4.769  0.7222  2.3325 -0.3378
 2661SOL    MW410378   3.913   6.209   4.814 -0.1243 -0.9812  0.1629
 2662SOL     OW10379   6.049   3.281   0.990  0.3434 -0.0585  0.1914
 2662SOL    HW210380   5.981   3.216   1.006  0.2455  0.3874  1.7746
 2662SOL    HW310381   6.003   3.365   0.993  0.7841  0.1853  0.1632
 2662SOL    MW410382   6.034   3.284   0.993 -0.4772  0.3118 -0.2970
 2663SOL     OW10383   5.879   6.360   2.956  0.3259  0.1049 -0.1674
 2663SOL    HW210384   5.958   6.309   2.974  0.5250  0.7408  0.8801
 2663SOL    HW310385   5.895   6.400   2.870  2.3869  2.4116  1.1665
 2663SOL    MW410386   5.892   6.359   2.947 -0.2816  0.1481 -0.8473
 2664SOL     OW10387   6.374   5.809   3.536  0.1675  0.1357  0.1024
 2664SOL    HW210388   6.338   5.872   3.599 -1.8482  0.5557 -1.3672
 2664SOL    HW310389   6.311   5.810   3.464  0.7135 -2.7148 -0.5013
 2664SOL    MW410390   6.361   5.817   3.535 -0.9429 -0.2742  0.2437
 2665SOL     OW10391   2.251   1.451   2.093  0.2219  0.4091 -0.5501
 2665SOL    HW210392   2.246   1.425   2.002 -1.3443  0.3139 -0.4702
 2665SOL    HW310393   2.295   1.379   2.137  0.8653  0.3981 -1.1967
 2665SOL    MW410394   2.256   1.438   2.087  0.6348  0.0115 -0.1927
 2666SOL     OW10395   2.797   3.491   3.047  0.1202 -0.5562  0.4309
 2666SOL    HW210396   2.841   3.525   3.125 -1.4205 -0.7120  1.4127
 2666SOL    HW310397   2.731   3.431   3.081  0.4048 -1.8005 -1.0977
 2666SOL    MW410398   2.794   3.488   3.062 -0.2181 -0.3721  0.0456
 2667SOL     OW10399   3.025   1.280   0.158  0.6154  0.1176  0.0079
 2667SOL    HW210400   3.088   1.351   0.152  0.6684  0.1146  0.4889
 2667SOL    HW310401   2.941   1.320   0.136  0.9979 -0.2415 -2.3788
 2667SOL    MW410402   3.022   1.294   0.154  0.1105 -0.4375 -0.2556
 2668SOL     OW10403   1.959   3.841   5.330 -0.0166 -0.3338 -0.3044
 2668SOL    HW210404   2.029   3.808   5.274  0.3765  0.6204 -0.3955
 2668SOL    HW310405   1.895   3.878   5.269  0.5959  1.0638 -0.1445
 2668SOL    MW410406   1.960   3.842   5.315 -0.3787 -0.4901 -0.3090
 2669SOL     OW10407   0.023   4.930   4.215 -0.1835  0.2102 -0.4064
 2669SOL    HW210408  -0.053   4.913   4.270 -0.4907  2.0270 -0.2160
 2669SOL    HW310409  -0.006   4.998   4.154  1.2438  0.8780 -0.3939
 2669SOL    MW410410   0.009   4.937   4.214 -0.0462 -0.5908  0.7088
 2670SOL     OW10411   4.450   5.666   0.359  0.4245  0.2240  0.7513
 2670SOL    HW210412   4.438   5.578   0.323  0.2058  0.8791 -0.8180
 2670SOL    HW310413   4.377   5.677   0.419  1.4584 -1.3414  2.4386
 2670SOL    MW410414   4.439   5.656   0.362  1.4127  0.5518  0.2154
 2671SOL     OW10415   3.457   5.324   4.059  0.2836 -0.4271 -0.6603
 2671SOL    HW210416   3.473   5.366   4.143  1.5897 -0.4823 -0.8668
 2671SOL    HW310417   3.370   5.285   4.068  0.6628 -0.9713  0.8861
 2671SOL    MW410418   3.447   5.324   4.071 -0.6790  0.3886 -0.5720
 2672SOL     OW10419   6.075   0.262   2.475 -0.2271  0.0034 -0.3288
 2672SOL    HW210420   6.122   0.258   2.558  0.9584 -0.4913 -1.0056
 2672SOL    HW310421   6.132   0.218   2.412 -0.4601  1.5537 -1.7106
 2672SOL    MW410422   6.089   0.256   2.478  0.7656 -0.5247  0.7711
 2673SOL     OW10423   1.869   0.796   6.239  0.0312 -0.7454  0.5934
 2673SOL    HW210424   1.826   0.852   6.303 -0.5946 -1.0800  0.4728
 2673SOL    HW310425   1.963   0.806   6.257 -0.1037 -0.1978  1.0130
 2673SOL    MW410426   1.876   0.805   6.250 -0.3063  0.2719  0.2898
 2674SOL     OW10427   2.977   5.881   1.428 -0.1958 -0.0717 -0.1385
 2674SOL    HW210428   3.008   5.810   1.372 -0.0749 -0.5268  0.4926
 2674SOL    HW310429   2.972   5.842   1.516 -1.9511  0.1559 -0.1012
 2674SOL    MW410430   2.981   5.867   1.432  0.4584  0.2227 -0.5639
 2675SOL     OW10431   4.805   3.981   3.944  0.5557 -0.4257 -0.1144
 2675SOL    HW210432   4.721   4.022   3.920  0.1143 -1.1274  0.2119
 2675SOL    HW310433   4.782   3.890   3.964  0.8630  0.0781  3.0270
 2675SOL    MW410434   4.791   3.974   3.943  0.2551  0.5069 -0.0359
 2676SOL     OW10435   2.395   3.787   5.225  0.0445  0.0398 -0.1863
 2676SOL    HW210436   2.420   3.848   5.156 -1.8211 -0.6155 -1.5137
 2676SOL    HW310437   2.439   3.820   5.303  0.2026  2.2744 -1.1489
 2676SOL    MW410438   2.404   3.800   5.227  0.3155 -0.4138 -1.0557
 2677SOL     OW10439   3.649   4.207   2.548 -0.1739 -0.1233 -0.1910
 2677SOL    HW210440   3.598   4.206   2.467 -2.7718  2.2204  1.2292
 2677SOL    HW310441   3.598   4.153   2.609  0.1287  0.5703  0.6922
 2677SOL    MW410442   3.635   4.200   2.545  0.0829  0.2356  0.3171
 2678SOL     OW10443   3.027   0.906   1.411 -0.5182 -0.1865  0.5837
 2678SOL    HW210444   2.975   0.830   1.386  1.2407 -1.3005  0.2075
 2678SOL    HW310445   3.094   0.913   1.344  1.1379 -0.0987  2.1872
 2678SOL    MW410446   3.029   0.897   1.399 -0.5508  0.6723 -0.7888
 2679SOL     OW10447   5.063   0.442   4.158 -0.5519  0.3651 -0.3857
 2679SOL    HW210448   5.093   0.430   4.248 -0.1381  2.5652 -0.1713
 2679SOL    HW310449   5.139   0.480   4.113 -1.3073  0.9143 -1.2125
 2679SOL    MW410450   5.077   0.445   4.164  0.4545  0.2097 -0.5683
 2680SOL     OW10451   0.409   1.934   0.255  0.2256 -0.1950  0.3968
 2680SOL    HW210452   0.484   1.879   0.236 -0.0092 -1.0730  1.9104
 2680SOL    HW310453   0.446   2.014   0.293  0.4669 -0.0049 -0.2300
 2680SOL    MW410454   0.423   1.937   0.257  0.0992  0.3494  0.4713
 2681SOL     OW10455   4.504   5.937   4.166  0.6655 -0.1732  0.3857
 2681SOL    HW210456   4.584   5.892   4.137 -0.0693 -1.2832 -0.0011
 2681SOL    HW310457   4.434   5.894   4.117 -0.4264 -0.8003  2.4139
 2681SOL    MW410458   4.506   5.925   4.155  0.3894 -0.1236 -0.0590
 2682SOL     OW10459   2.353   1.758   3.206 -0.0974  0.2196  0.0773
 2682SOL    HW210460   2.339   1.665   3.188 -1.8018  0.4081  0.2661
 2682SOL    HW310461   2.444   1.774   3.182  0.7102 -1.8371  1.5091
 2682SOL    MW410462   2.363   1.748   3.200 -0.1822  0.0965  0.3581
 2683SOL     OW10463   2.372   1.826   2.925  0.9636  0.1650  0.4847
 2683SOL    HW210464   2.457   1.870   2.922  0.6928  0.6833  0.3208
 2683SOL    HW310465   2.358   1.807   3.018  0.8478  0.9015  0.6237
 2683SOL    MW410466   2.381   1.830   2.937  0.6261 -0.2014 -0.4394
 2684SOL     OW10467   6.155   4.747   1.035 -0.4970  0.2310 -0.0110
 2684SOL    HW210468   6.164   4.679   0.968 -0.9297  0.2764 -0.1179
 2684SOL    HW310469   6.060   4.758   1.046 -0.4682 -0.7635  1.6098
 2684SOL    MW410470   6.144   4.739   1.028 -0.2509 -0.5538  0.0242
 2685SOL     OW10471   4.260   4.350   5.743  0.2270  0.4899 -0.7406
 2685SOL    HW210472   4.314   4.327   5.819  1.2991  0.9604 -1.3460
 2685SOL    HW310473   4.184   4.292   5.750 -0.1543  1.1445  1.1924
 2685SOL    MW410474   4.257   4.340   5.754 -0.2173 -0.4057  0.2354
 2686SOL     OW10475   1.173   1.750   3.706 -0.0830  0.9752 -0.3469
 2686SOL    HW210476   1.205   1.753   3.616  4.1201  2.3134  0.9577
 2686SOL    HW310477   1.190   1.838   3.740 -1.1487  0.3778  1.9068
 2686SOL    MW410478   1.180   1.762   3.698  0.7442  0.0444 -0.0377
 2687SOL     OW10479   2.728   1.047   6.063 -0.2594 -0.7209 -0.1213
 2687SOL    HW210480   2.794   1.023   6.128  1.3278 -1.1227 -1.8319
 2687SOL    HW310481   2.730   1.143   6.062  1.8569 -0.7259 -1.6305
 2687SOL    MW410482   2.737   1.057   6.072 -0.1479  0.2464 -0.1778
 2688SOL     OW10483   1.672   2.351   4.388 -0.6932 -0.3476 -0.4150
 2688SOL    HW210484   1.683   2.426   4.330  0.8632  0.5316  0.9179
 2688SOL    HW310485   1.608   2.379   4.453  0.1233 -0.0058  0.2700
 2688SOL    MW410486   1.665   2.365   4.389 -0.6991  0.0235 -0.2734
 2689SOL     OW10487   3.896   0.316   1.002 -0.2405  0.3328 -0.7396
 2689SOL    HW210488   3.982   0.358   1.002  0.2426 -0.5726  0.4321
 2689SOL    HW310489   3.915   0.224   0.984 -0.8338 -0.0528  0.5017
 2689SOL    MW410490   3.910   0.309   1.000 -0.7985 -0.2594 -0.5195
 2690SOL     OW10491   2.136   3.568   0.743 -0.1739  0.3439  0.1658
 2690SOL    HW210492   2.048   3.607   0.749  0.6760  2.1885  1.3008
 2690SOL    HW310493   2.193   3.629   0.790  2.0647  0.2084 -2.1654
 2690SOL    MW410494   2.132   3.582   0.750 -0.5835  0.1373 -0.5326
 2691SOL     OW10495   1.291   5.877   4.962  0.1325  0.1547  0.0828
 2691SOL    HW210496   1.259   5.966   4.976 -1.4122  0.0690 -2.1554
 2691SOL    HW310497   1.278   5.833   5.046 -1.7179  1.3405  0.4936
 2691SOL    MW410498   1.285   5.883   4.975  0.7613 -0.2367  0.3718
 2692SOL     OW10499   2.751   5.508   6.141 -0.1282 -0.2049  0.2162
 2692SOL    HW210500   2.787   5.433   6.190  0.1461 -1.0595 -1.2213
 2692SOL    HW310501   2.800   5.583   6.173 -0.0492 -0.7011  1.3335
 2692SOL    MW410502   2.762   5.508   6.152  0.4674  0.0062  0.3210
 2693SOL     OW10503   1.177   0.117   5.606 -0.3706  0.2217  0.0111
 2693SOL    HW210504   1.233   0.104   5.683  0.5609 -0.4046 -0.7536
 2693SOL    HW310505   1.161   0.029   5.573  0.1133  0.5382 -1.1196
 2693SOL    MW410506   1.183   0.104   5.612 -0.5438 -0.0813 -0.8396
 2694SOL     OW10507   1.623   5.728   5.258 -0.6086 -0.5274 -0.0220
 2694SOL    HW210508   1.567   5.784   5.205  1.1004 -0.5279 -1.9466
 2694SOL    HW310509   1.708   5.731   5.214  0.9301 -0.5781  2.7043
 2694SOL    MW410510   1.627   5.736   5.245 -0.1747 -0.2445 -0.0549
 2695SOL     OW10511   1.776   5.805   3.749 -0.1233 -0.1927  0.8382
 2695SOL    HW210512   1.844   5.864   3.783  0.4070  0.8276 -1.7300
 2695SOL    HW310513   1.764   5.833   3.658 -3.0325 -1.2508  0.8016
 2695SOL    MW410514   1.784   5.817   3.741  0.0681  0.0053  0.3484
 2696SOL     OW10515   3.200   0.707   5.350 -0.2274 -0.4840  0.0788
 2696SOL    HW210516   3.256   0.746   5.282 -1.1403 -1.5921 -1.3582
 2696SOL    HW310517   3.234   0.743   5.431  1.2308  0.5184 -0.9129
 2696SOL    MW410518   3.212   0.717   5.351 -0.2260 -0.7647 -0.0432
 2697SOL     OW10519   2.040   6.011   5.608  0.0264 -0.1941 -0.2514
 2697SOL    HW210520   2.039   6.029   5.514  0.4104  0.2500 -0.1739
 2697SOL    HW310521   2.089   6.083   5.646 -2.2128  0.9948  0.5801
 2697SOL    MW410522   2.046   6.022   5.601 -0.2866 -0.2042  0.0092
 2698SOL     OW10523   0.208   3.625   1.457 -0.4012 -0.3980 -0.3038
 2698SOL    HW210524   0.253   3.592   1.379 -0.0705 -0.9431  0.1230
 2698SOL    HW310525   0.229   3.719   1.458  0.6817 -0.6435 -0.1247
 2698SOL    MW410526   0.216   3.633   1.447 -0.6975 -0.1026  0.4722
 2699SOL     OW10527   1.711   3.958   1.539 -0.0961  0.0489 -0.2685
 2699SOL    HW210528   1.766   4.022   1.584  0.6628 -1.1381  0.5380
 2699SOL    HW310529   1.622   3.991   1.550  0.4440  3.1888 -3.4467
 2699SOL    MW410530   1.707   3.971   1.546 -0.4755 -0.2902 -0.3083
 2700SOL     OW10531   0.863   0.165   6.295  0.0755  0.2656 -0.2530
 2700SOL    HW210532   0.863   0.259   6.308 -0.4575  0.1395  0.7486
 2700SOL    HW310533   0.851   0.154   6.200 -2.3489  1.1980 -0.1212
 2700SOL    MW410534   0.862   0.176   6.284 -0.2839 -0.6626 -0.0224
 2701SOL     OW10535   0.076   1.476   3.307 -0.0175  0.1931  0.2897
 2701SOL    HW210536   0.118   1.393   3.285 -0.3682 -0.2325  1.1824
 2701SOL    HW310537  -0.012   1.451   3.336 -1.3123  1.1255 -2.4393
 2701SOL    MW410538   0.070   1.462   3.308 -0.0167  0.3393 -0.0168
 2702SOL     OW10539   0.129   2.159   0.283  0.4927  0.2594  0.0087
 2702SOL    HW210540   0.169   2.092   0.227 -0.4268 -0.7845  0.5390
 2702SOL    HW310541   0.187   2.234   0.277  0.8011 -0.0708 -1.7736
 2702SOL    MW410542   0.142   2.160   0.275 -0.3595  0.4170 -0.1548
 2703SOL     OW10543   6.043   4.404   0.165 -0.2404 -0.8358  0.3945
 2703SOL    HW210544   5.977   4.365   0.223 -1.9632 -2.3256 -2.3290
 2703SOL    HW310545   5.994   4.431   0.087  2.2063 -0.9941 -1.3327
 2703SOL    MW410546   6.028   4.402   0.162  0.0049  0.2090  0.5554
 2704SOL     OW10547   5.260   3.533   5.388  0.0610  0.1473 -0.5883
 2704SOL    HW210548   5.334   3.487   5.350 -0.3897 -1.1223 -0.0106
 2704SOL    HW310549   5.221   3.582   5.315  0.3961 -0.6255 -1.3026
 2704SOL    MW410550   5.264   3.533   5.373 -0.4305  0.4780 -0.1156
 2705SOL     OW10551   4.481   4.435   3.862 -0.1384  0.8849 -0.2432
 2705SOL    HW210552   4.427   4.466   3.789 -0.4337 -0.0877 -0.4536
 2705SOL    HW310553   4.571   4.454   3.835 -0.3603  4.1836  0.8839
 2705SOL    MW410554   4.486   4.441   3.849 -0.0748  0.0431  0.2502
 2706SOL     OW10555   2.898   3.382   3.480  0.5398  0.1983  0.0393
 2706SOL    HW210556   2.809   3.391   3.513  0.6820  0.3605  0.3815
 2706SOL    HW310557   2.917   3.289   3.489  0.1886  0.0560 -0.6048
 2706SOL    MW410558   2.889   3.371   3.486  0.5723  0.0093  0.2027
 2707SOL     OW10559   3.134   0.674   3.504 -0.6655  0.1066 -0.0230
 2707SOL    HW210560   3.095   0.642   3.585  0.6369 -3.6386 -0.6749
 2707SOL    HW310561   3.228   0.675   3.521 -0.5274  1.6433 -0.7632
 2707SOL    MW410562   3.141   0.670   3.517  0.2252 -0.2027  0.2375
 2708SOL     OW10563   2.218   5.006   2.063 -0.5699  0.4804  0.8454
 2708SOL    HW210564   2.140   4.977   2.017 -0.9834  0.2568  1.6735
 2708SOL    HW310565   2.200   5.097   2.086  0.2531  1.0730 -0.7323
 2708SOL    MW410566   2.206   5.014   2.060 -0.1606 -0.2913  0.2783
 2709SOL     OW10567   2.755   0.384   4.122 -0.0206 -0.3599  0.2992
 2709SOL    HW210568   2.712   0.408   4.204 -0.2847 -0.0652  0.0797
 2709SOL    HW310569   2.695   0.322   4.081  0.1348 -0.5458  0.3529
 2709SOL    MW410570   2.741   0.379   4.127  0.2656  0.3432  0.1272
 2710SOL     OW10571   4.439   4.966   1.527 -0.1185 -0.4654  0.1995
 2710SOL    HW210572   4.430   4.922   1.443 -2.5050  0.0058  0.1328
 2710SOL    HW310573   4.528   4.945   1.556  1.0071 -0.2010 -2.6600
 2710SOL    MW410574   4.450   4.958   1.520 -0.3991  0.6664 -0.1020
 2711SOL     OW10575   0.591   1.328   5.162 -0.3466 -0.1369 -0.7247
 2711SOL    HW210576   0.623   1.414   5.189 -1.1044  0.2775 -1.0966
 2711SOL    HW310577   0.568   1.339   5.070 -0.6125 -0.6879 -0.7272
 2711SOL    MW410578   0.592   1.341   5.154 -0.0958 -0.1545 -0.3707
 2712SOL     OW10579   2.440   2.199   2.042 -0.1784 -0.0254  0.0075
 2712SOL    HW210580   2.382   2.275   2.046 -1.3930 -0.7688 -2.0686
 2712SOL    HW310581   2.404   2.139   2.108  0.7356  1.0995  1.5939
 2712SOL    MW410582   2.428   2.201   2.051 -0.2376 -0.5389 -0.0180
 2713SOL     OW10583   0.714   5.278   6.299 -0.1273  0.1693 -0.2140
 2713SOL    HW210584   0.757   5.341   6.241  0.4707 -0.6091 -0.6339
 2713SOL    HW310585   0.621   5.301   6.295 -0.2338 -0.4484 -2.2339
 2713SOL    MW410586   0.707   5.290   6.291  0.4203  0.1796 -0.0506
 2714SOL     OW10587   0.254   5.592   0.119 -0.2501 -0.7437 -0.2640
 2714SOL    HW210588   0.329   5.617   0.173 -1.1434 -0.7648  1.0363
 2714SOL    HW310589   0.249   5.660   0.052 -0.2148  0.3393  0.7939
 2714SOL    MW410590   0.264   5.604   0.117  0.4158 -0.7353 -0.1369
 2715SOL     OW10591   4.342   5.570   6.202  0.0927  0.2912  0.3598
 2715SOL    HW210592   4.362   5.607   6.116  1.2372  0.8199  0.8306
 2715SOL    HW310593   4.350   5.644   6.262  1.7425 -0.5354  1.2272
 2715SOL    MW410594   4.346   5.585   6.198  0.0947 -0.0110  0.7710
 2716SOL     OW10595   6.279   5.399   2.149  0.4916 -0.6614  0.1587
 2716SOL    HW210596   6.187   5.401   2.177 -0.4349 -2.0093 -2.4539
 2716SOL    HW310597   6.327   5.369   2.226 -1.2975 -0.3681  1.4549
 2716SOL    MW410598   6.273   5.396   2.163  0.5085  0.2876 -0.3024
 2717SOL     OW10599   2.080   4.049   4.840 -0.4707  0.0267  0.0535
 2717SOL    HW210600   2.121   4.042   4.754 -0.3338 -0.4331  0.1505
 2717SOL    HW310601   2.146   4.093   4.894 -1.3958  2.3777 -0.6021
 2717SOL    MW410602   2.094   4.054   4.836  0.2845 -0.1572  0.4847
 2718SOL     OW10603   0.363   4.554   5.434 -0.0322  0.2471  0.0166
 2718SOL    HW210604   0.320   4.564   5.349 -0.4904 -1.5733 -0.0113
 2718SOL    HW310605   0.434   4.491   5.417 -0.4418 -0.5154  1.0728
 2718SOL    MW410606   0.367   4.547   5.420 -0.1873 -0.3368  0.3053
 2719SOL     OW10607   4.214   0.881   2.606 -0.2948 -0.5827  0.2404
 2719SOL    HW210608   4.230   0.961   2.555 -0.7643 -1.0027 -0.5816
 2719SOL    HW310609   4.133   0.845   2.568 -1.6165 -0.0331  2.3754
 2719SOL    MW410610   4.205   0.887   2.594 -0.1498  0.1726 -0.4548
 2720SOL     OW10611   1.597   5.104   4.014 -0.1674  0.1956 -0.2817
 2720SOL    HW210612   1.567   5.049   3.941 -3.9375  2.9733 -1.1596
 2720SOL    HW310613   1.541   5.079   4.087  0.9666  0.0815  0.5733
 2720SOL    MW410614   1.586   5.093   4.014  0.6244  0.2976  0.1969
 2721SOL     OW10615   1.994   2.878   4.775 -0.1069 -0.1372 -0.2988
 2721SOL    HW210616   1.932   2.806   4.783 -0.2531  0.0045 -0.1329
 2721SOL    HW310617   1.984   2.927   4.857 -0.2033  0.2209 -0.5194
 2721SOL    MW410618   1.984   2.875   4.786 -0.1870 -0.2641 -0.0432
 2722SOL     OW10619   1.449   0.779   5.213 -0.0396 -0.0667 -0.3729
 2722SOL    HW210620   1.481   0.826   5.136 -1.7029  2.4802  0.3609
 2722SOL    HW310621   1.360   0.752   5.190 -0.4770  0.5318  0.5314
 2722SOL    MW410622   1.441   0.781   5.200  0.1651 -0.3622 -0.3877
 2723SOL     OW10623   1.399   0.685   4.145  0.3458 -0.0019 -0.0273
 2723SOL    HW210624   1.325   0.662   4.089  0.3922  0.7099 -0.3805
 2723SOL    HW310625   1.472   0.634   4.111 -0.0533 -0.9952  0.5508
 2723SOL    MW410626   1.399   0.675   4.133 -0.2726  0.1448  0.2354
 2724SOL     OW10627   0.614   0.190   2.968 -0.1710 -0.2709 -0.1242
 2724SOL    HW210628   0.639   0.258   2.905  0.1452 -0.6466 -0.4073
 2724SOL    HW310629   0.556   0.133   2.918 -0.2805 -0.3204  0.0597
 2724SOL    MW410630   0.609   0.192   2.953 -0.0776 -0.2609  0.0831
 2725SOL     OW10631   2.683   0.946   1.414 -0.2887  0.2766 -0.6421
 2725SOL    HW210632   2.615   0.968   1.350  1.8025  1.3774 -2.6360
 2725SOL    HW310633   2.722   0.866   1.380 -1.0942 -0.8656  0.9827
 2725SOL    MW410634   2.679   0.938   1.401  0.2072  0.3636  0.0825
 2726SOL     OW10635   3.978   4.634   4.666 -0.4307  0.0499  0.1663
 2726SOL    HW210636   3.945   4.599   4.583 -1.0073  1.7091 -0.3399
 2726SOL    HW310637   3.915   4.603   4.731 -0.2872 -0.8003 -0.0834
 2726SOL    MW410638   3.965   4.625   4.663  0.9565 -0.2740 -0.0436
 2727SOL     OW10639   5.458   4.595   1.768  0.6055  0.0916  0.8146
 2727SOL    HW210640   5.462   4.690   1.782  0.6304  0.1644  0.3030
 2727SOL    HW310641   5.493   4.559   1.850 -0.7785  0.4847  1.6158
 2727SOL    MW410642   5.463   4.603   1.781 -0.0311  0.1372 -0.5561
 2728SOL     OW10643   1.594   3.993   3.894 -0.1396  0.2471 -0.2288
 2728SOL    HW210644   1.509   3.979   3.851 -1.2684  0.7352  1.7414
 2728SOL    HW310645   1.619   3.907   3.926 -0.0505  0.1688 -0.5022
 2728SOL    MW410646   1.586   3.980   3.892 -0.4687  1.1501 -0.0719
 2729SOL     OW10647   1.739   0.472   1.972  0.5291  0.2300 -0.3083
 2729SOL    HW210648   1.774   0.548   1.926 -0.0185  1.7319  1.6193
 2729SOL    HW310649   1.713   0.505   2.058 -1.1474 -1.8241  0.0784
 2729SOL    MW410650   1.740   0.486   1.977  0.4250 -0.1731  0.3973
 2730SOL     OW10651   5.114   5.431   6.119  0.5824  0.3320  0.1008
 2730SOL    HW210652   5.103   5.391   6.206  1.9125  2.2505  1.2263
 2730SOL    HW310653   5.066   5.513   6.124  0.6891  0.4685 -0.9882
 2730SOL    MW410654   5.107   5.436   6.131  0.0886 -0.3290 -0.4318
 2731SOL     OW10655   2.081   3.164   1.810  0.9339  0.7893  0.6665
 2731SOL    HW210656   2.011   3.133   1.753  1.2967 -1.7247  1.4588
 2731SOL    HW310657   2.063   3.257   1.822 -0.3419  0.9458 -1.7988
 2731SOL    MW410658   2.069   3.172   1.804  0.5228 -0.2217 -0.2276
 2732SOL     OW10659   5.259   1.045   3.100 -0.1523 -0.2614 -0.1779
 2732SOL    HW210660   5.340   1.079   3.138 -0.9886  0.6583  0.8450
 2732SOL    HW310661   5.266   0.950   3.109  0.9345 -0.2104 -0.3738
 2732SOL    MW410662   5.271   1.037   3.106 -0.5251 -0.5459  0.2696
 2733SOL     OW10663   6.191   2.779   5.764 -0.1922 -0.1015  0.0747
 2733SOL    HW210664   6.162   2.850   5.821  2.3969  2.5190 -1.5815
 2733SOL    HW310665   6.135   2.785   5.687 -0.9938 -0.9529  0.5685
 2733SOL    MW410666   6.180   2.789   5.761 -0.4798 -0.5818 -0.2578
 2734SOL     OW10667   0.347   5.180   1.436  0.2916  0.0412 -0.0952
 2734SOL    HW210668   0.310   5.264   1.409 -0.2931 -0.9760 -2.8120
 2734SOL    HW310669   0.282   5.115   1.408  0.7181 -1.3687  1.9426
 2734SOL    MW410670   0.333   5.182   1.429  0.3155 -0.1503  0.0970
 2735SOL     OW10671   5.411   3.972   5.529 -0.0875 -0.4962  0.3331
 2735SOL    HW210672   5.369   4.058   5.524 -0.8406 -0.6836  2.3697
 2735SOL    HW310673   5.343   3.915   5.565  1.0882 -1.4405  1.1019
 2735SOL    MW410674   5.396   3.976   5.533  0.3061 -0.3398  0.6484
 2736SOL     OW10675   4.240   6.364   3.993  0.0198  0.2329  0.0600
 2736SOL    HW210676   4.243   6.333   3.902  2.5557  0.4147  0.0289
 2736SOL    HW310677   4.187   6.298   4.038 -2.6065  0.9188 -1.7419
 2736SOL    MW410678   4.233   6.351   3.987  0.2902 -0.3147 -0.7125
 2737SOL     OW10679   1.419   1.836   1.579  0.0579 -0.0472 -0.0580
 2737SOL    HW210680   1.466   1.846   1.496 -0.7997  0.2433 -0.5237
 2737SOL    HW310681   1.487   1.836   1.646  0.6765  1.0630 -0.6649
 2737SOL    MW410682   1.434   1.837   1.577  0.0403 -0.0929  0.1090
 2738SOL     OW10683   4.592   0.114   4.681 -0.2137 -0.3651  0.4057
 2738SOL    HW210684   4.615   0.080   4.767 -1.0203 -1.1616  0.3333
 2738SOL    HW310685   4.650   0.068   4.620  0.2430  0.0742  0.5132
 2738SOL    MW410686   4.602   0.103   4.684  0.4198  0.2289 -0.0422
 2739SOL     OW10687   2.554   5.009   4.235  0.5550  0.4839 -0.3601
 2739SOL    HW210688   2.498   4.953   4.288  1.5713  0.3044  0.5479
 2739SOL    HW310689   2.513   5.095   4.239  0.4943  0.4162  0.5096
 2739SOL    MW410690   2.541   5.013   4.242 -0.1548 -0.5225  0.3289
 2740SOL     OW10691   3.633   1.026   6.217  0.1229 -0.1723  0.4144
 2740SOL    HW210692   3.657   1.096   6.157  2.4639  0.4722  1.9912
 2740SOL    HW310693   3.641   0.946   6.164  1.6081  0.4185 -0.3158
 2740SOL    MW410694   3.637   1.024   6.202 -0.4519  0.2474  0.0388
 2741SOL     OW10695   6.179   2.955   0.806 -0.6329 -1.1406 -0.2619
 2741SOL    HW210696   6.136   3.039   0.792 -0.8705 -1.1263  0.5122
 2741SOL    HW310697   6.231   2.941   0.727 -0.4593 -0.1876 -0.3267
 2741SOL    MW410698   6.180   2.964   0.794  0.0202 -0.5124  0.0517
 2742SOL     OW10699   5.879   2.559   4.569  0.1432 -0.1023  0.5781
 2742SOL    HW210700   5.917   2.471   4.571  1.5009  0.4529  2.2876
 2742SOL    HW310701   5.939   2.612   4.622  0.2053  2.2259 -1.6055
 2742SOL    MW410702   5.892   2.555   4.577  0.8611  0.2849 -0.2154
 2743SOL     OW10703   4.009   2.361   0.995 -0.2402  0.1168 -0.5846
 2743SOL    HW210704   3.950   2.316   1.056 -0.9415 -0.6193 -1.7793
 2743SOL    HW310705   4.096   2.328   1.018 -0.5984 -0.8306 -0.5658
 2743SOL    MW410706   4.013   2.351   1.006 -0.0981  0.3236  0.4357
 2744SOL     OW10707   1.300   3.474   0.226 -0.0563  0.0059 -0.7432
 2744SOL    HW210708   1.371   3.439   0.280  0.7351 -0.8350 -2.2386
 2744SOL    HW310709   1.325   3.450   0.136 -2.0053  0.1160 -1.3525
 2744SOL    MW410710   1.313   3.466   0.221  0.0783  0.5298 -0.5124
 2745SOL     OW10711   3.604   0.931   2.063  0.4134  0.4469 -0.2239
 2745SOL    HW210712   3.515   0.964   2.048  0.1954  0.5307  1.1903
 2745SOL    HW310713   3.596   0.873   2.138  2.0920  2.9459  2.0417
 2745SOL    MW410714   3.591   0.928   2.071  0.1051  0.1442  0.8461
 2746SOL     OW10715   1.732   2.739   0.112  0.5409 -0.7161  0.5504
 2746SOL    HW210716   1.643   2.768   0.090  0.9961  1.7742  1.6641
 2746SOL    HW310717   1.719   2.662   0.167 -1.0010  0.2556  1.6193
 2746SOL    MW410718   1.719   2.733   0.116 -0.1568  0.8172  0.5313
 2747SOL     OW10719   0.145   2.790   0.480  0.2359  0.3184  0.0162
 2747SOL    HW210720   0.169   2.869   0.432 -2.0352 -0.3401 -2.4991
 2747SOL    HW310721   0.140   2.722   0.412 -3.2686 -0.6516  1.0209
 2747SOL    MW410722   0.147   2.792   0.464 -0.6043 -0.0127  0.2117
 2748SOL     OW10723   1.513   1.908   2.292  0.1128 -0.8174 -0.0179
 2748SOL    HW210724   1.480   1.995   2.315 -0.0260 -0.7187 -0.5665
 2748SOL    HW310725   1.438   1.864   2.252  0.2262 -1.1303  0.1182
 2748SOL    MW410726   1.499   1.914   2.289 -0.0164  0.2660  0.7134
 2749SOL     OW10727   4.347   3.057   6.146  0.0427 -0.6544 -0.1126
 2749SOL    HW210728   4.271   3.055   6.088 -0.5602  1.2366  0.5117
 2749SOL    HW310729   4.404   2.987   6.115 -1.5678 -1.5756 -1.1264
 2749SOL    MW410730   4.345   3.048   6.135 -0.2870 -0.4308 -0.0636
 2750SOL     OW10731   4.516   5.394   0.573  0.1896 -0.5993 -0.4013
 2750SOL    HW210732   4.527   5.420   0.482  1.4410  0.3317 -0.0145
 2750SOL    HW310733   4.534   5.300   0.573  2.8810 -0.1805 -0.7617
 2750SOL    MW410734   4.520   5.385   0.561  0.5855 -0.0022 -0.4472
 2751SOL     OW10735   5.900   2.639   1.922 -0.0933 -0.4124 -0.1610
 2751SOL    HW210736   5.941   2.582   1.858  0.1848 -0.9645  0.4903
 2751SOL    HW310737   5.967   2.654   1.988 -1.0832 -1.8894  1.2778
 2751SOL    MW410738   5.914   2.634   1.923  0.3562 -0.0671 -0.1257
 2752SOL     OW10739   5.621   1.273   5.365  0.3262 -0.5031 -0.1340
 2752SOL    HW210740   5.620   1.178   5.371  0.3499 -0.4190  1.4752
 2752SOL    HW310741   5.534   1.297   5.333 -0.0571 -1.0085  0.5243
 2752SOL    MW410742   5.609   1.264   5.361  0.4531 -0.1782  0.2477
 2753SOL     OW10743   5.022   0.262   5.757  0.1910 -0.1025 -0.0737
 2753SOL    HW210744   5.107   0.227   5.730  1.1547  1.7292  0.3973
 2753SOL    HW310745   5.012   0.234   5.847  0.6416  0.2370  0.0894
 2753SOL    MW410746   5.032   0.254   5.765 -0.1646  0.4212  0.2974
 2754SOL     OW10747   5.856   3.172   4.962  0.2497 -0.2793 -0.3437
 2754SOL    HW210748   5.797   3.145   5.033  0.0263  0.2552 -0.3165
 2754SOL    HW310749   5.805   3.235   4.911 -0.5491 -2.5438 -2.5466
 2754SOL    MW410750   5.841   3.177   4.965  0.0447 -0.0596  0.0193
 2755SOL     OW10751   4.624   2.092   2.514 -0.2168 -0.4788 -0.3114
 2755SOL    HW210752   4.579   2.051   2.588 -0.1615  0.1080  0.0601
 2755SOL    HW310753   4.685   2.154   2.554 -0.2224 -0.1147 -0.8460
 2755SOL    MW410754   4.626   2.095   2.529 -0.0520 -0.1574  0.3832
 2756SOL     OW10755   5.311   4.037   4.529  0.3394  0.0107  0.4698
 2756SOL    HW210756   5.245   4.037   4.599 -0.3542 -1.1663 -0.1594
 2756SOL    HW310757   5.386   3.991   4.566 -0.4515 -1.6396  0.0775
 2756SOL    MW410758   5.312   4.031   4.543  0.1407 -0.0100 -0.3504
 2757SOL     OW10759   2.722   3.879   4.711  0.0712 -0.2526 -0.2968
 2757SOL    HW210760   2.788   3.884   4.780  1.0913 -1.9079 -1.0815
 2757SOL    HW310761   2.756   3.935   4.641 -0.2820  0.3459  0.0068
 2757SOL    MW410762   2.735   3.887   4.711  0.0804 -0.2993  0.1777
 2758SOL     OW10763   1.615   3.016   1.727 -0.2417 -0.0366 -0.2432
 2758SOL    HW210764   1.628   2.961   1.804 -1.0439  0.7390  0.4713
 2758SOL    HW310765   1.534   2.984   1.688  0.1625 -0.4279 -0.7757
 2758SOL    MW410766   1.606   3.004   1.732  0.3887 -0.8036 -0.5029
 2759SOL     OW10767   2.971   4.426   2.964 -0.1710  0.1297 -0.2385
 2759SOL    HW210768   2.968   4.383   3.050  0.3396  0.1265 -0.2185
 2759SOL    HW310769   2.907   4.497   2.970  1.9210  2.0537  1.2031
 2759SOL    MW410770   2.962   4.430   2.976  0.2196 -0.0422  0.2546
 2760SOL     OW10771   4.829   2.945   4.189  0.0635 -0.0882  0.1264
 2760SOL    HW210772   4.865   2.930   4.277  1.3282  1.4417 -0.0791
 2760SOL    HW310773   4.772   3.021   4.200 -0.9285 -0.7850 -0.1124
 2760SOL    MW410774   4.826   2.953   4.202  0.0280 -0.4882  0.0984
 2761SOL     OW10775   2.894   0.552   6.370  0.4370 -0.3427 -0.2446
 2761SOL    HW210776   2.844   0.582   6.295  0.2858 -1.9985 -0.8555
 2761SOL    HW310777   2.835   0.566   6.445  0.7491  1.6958 -0.3285
 2761SOL    MW410778   2.879   0.558   6.370 -1.1656  0.4350 -0.1607
 2762SOL     OW10779   2.854   0.252   0.744  0.0704  0.4684 -0.7293
 2762SOL    HW210780   2.947   0.239   0.761  0.1252 -1.5217 -2.1530
 2762SOL    HW310781   2.812   0.245   0.829  1.1400  0.6535 -0.1730
 2762SOL    MW410782   2.861   0.250   0.757 -0.6541 -0.6015  0.1061
 2763SOL     OW10783   4.445   0.293   4.114  0.5293 -0.3461  0.7492
 2763SOL    HW210784   4.507   0.228   4.146  1.9271  1.2962  1.5619
 2763SOL    HW310785   4.426   0.348   4.190 -3.0016 -1.5020  0.9014
 2763SOL    MW410786   4.451   0.292   4.128 -0.5946  0.1227 -0.5259
 2764SOL     OW10787   1.046   1.728   4.606 -0.1022  0.3291 -0.2537
 2764SOL    HW210788   1.084   1.810   4.636 -0.3227 -0.0432  1.1061
 2764SOL    HW310789   1.046   1.736   4.511 -0.0538  1.8733 -0.1611
 2764SOL    MW410790   1.051   1.740   4.597 -0.1121  0.3785 -0.3005
 2765SOL     OW10791   2.736   0.950   5.810 -0.3484 -0.0177 -0.1541
 2765SOL    HW210792   2.713   0.858   5.823 -1.3244  0.1519 -0.6250
 2765SOL    HW310793   2.737   0.987   5.898  0.1431 -0.4890  0.0460
 2765SOL    MW410794   2.733   0.943   5.823  0.2787  0.2586 -0.4238
 2766SOL     OW10795   4.545   3.979   0.888 -0.5097 -0.0492  0.5659
 2766SOL    HW210796   4.637   3.981   0.861 -0.6582 -0.5168  0.0000
 2766SOL    HW310797   4.509   3.901   0.845 -0.8591 -0.5891  1.8151
 2766SOL    MW410798   4.552   3.969   0.879  0.6142  0.9570 -0.0305
 2767SOL     OW10799   2.950   5.602   1.349 -0.1609  0.3453  0.0324
 2767SOL    HW210800   2.914   5.514   1.354 -0.1687  0.3831  0.6529
 2767SOL    HW310801   2.891   5.649   1.290 -1.6454  0.6548  1.6792
 2767SOL    MW410802   2.938   5.597   1.342 -0.2027  0.1299  0.8102
 2768SOL     OW10803   6.240   4.205   4.804 -0.2703  0.1069  0.0529
 2768SOL    HW210804   6.195   4.286   4.829 -0.8188 -0.0230 -0.5076
 2768SOL    HW310805   6.209   4.140   4.867 -0.3943  0.1613  0.0483
 2768SOL    MW410806   6.230   4.207   4.816 -0.0739 -0.1604 -0.0601
 2769SOL     OW10807   3.593   4.516   1.832  0.0129 -0.6075  0.0944
 2769SOL    HW210808   3.611   4.422   1.837  0.2614 -0.9110 -3.5628
 2769SOL    HW310809   3.650   4.547   1.761 -3.2910  1.3351 -1.9786
 2769SOL    MW410810   3.603   4.508   1.823 -0.2394  0.6186  0.1913
 2770SOL     OW10811   4.759   1.548   5.410  0.1250 -0.1590  0.0506
 2770SOL    HW210812   4.701   1.625   5.406 -0.8791 -0.9093 -0.2894
 2770SOL    HW310813   4.740   1.501   5.329  0.5031 -0.9297  0.4086
 2770SOL    MW410814   4.749   1.552   5.398  0.3551 -0.6666 -0.2398
 2771SOL     OW10815   0.152   3.834   0.534 -0.0107 -0.0152 -0.2162
 2771SOL    HW210816   0.200   3.915   0.517  2.9789 -1.1403  2.1284
 2771SOL    HW310817   0.086   3.858   0.599 -1.1616  1.0369 -1.6848
 2771SOL    MW410818   0.149   3.848   0.540 -0.3028  0.2449 -0.0119
 2772SOL     OW10819   3.680   0.465   6.004 -0.2546 -0.0265 -0.1749
 2772SOL    HW210820   3.683   0.436   6.095  3.6381 -2.7694 -0.9336
 2772SOL    HW310821   3.587   0.460   5.980 -0.9556 -3.1904  2.5011
 2772SOL    MW410822   3.668   0.461   6.013  0.1249 -0.2104 -0.0213
 2773SOL     OW10823   4.254   1.750   1.355 -0.1263  0.0478 -0.0591
 2773SOL    HW210824   4.300   1.708   1.281 -0.0654 -0.8259  0.4686
 2773SOL    HW310825   4.249   1.842   1.330  2.7307  0.3730  0.2356
 2773SOL    MW410826   4.260   1.757   1.342 -0.1356 -0.0802 -0.2284
 2774SOL     OW10827   1.679   2.743   1.124  0.8182  0.3195 -0.1884
 2774SOL    HW210828   1.607   2.686   1.150 -0.4084  2.4186  1.3284
 2774SOL    HW310829   1.640   2.801   1.058  1.3961  0.8168 -0.1021
 2774SOL    MW410830   1.664   2.743   1.118  0.1710  0.4138  0.2676
 2775SOL     OW10831   3.110   3.219   3.822  0.3144 -0.4076  0.1565
 2775SOL    HW210832   3.105   3.305   3.780 -2.3005 -0.9303 -0.8303
 2775SOL    HW310833   3.019   3.196   3.839  1.0136 -2.5559  1.3525
 2775SOL    MW410834   3.097   3.227   3.819 -0.0904 -0.1223 -0.6557
 2776SOL     OW10835   5.184   2.813   2.740 -0.0716 -0.3028 -0.2829
 2776SOL    HW210836   5.271   2.778   2.723  0.6919  1.3553 -0.0017
 2776SOL    HW310837   5.138   2.807   2.656  0.8264  0.1374 -0.8269
 2776SOL    MW410838   5.189   2.808   2.727  0.4763 -0.2278  0.3298
 2777SOL     OW10839   1.777   1.090   5.031 -0.1360 -0.7609  0.4696
 2777SOL    HW210840   1.806   1.121   5.117  1.2145 -1.5784  0.3322
 2777SOL    HW310841   1.806   1.158   4.970 -0.3072 -0.6126  0.5505
 2777SOL    MW410842   1.784   1.103   5.034  0.1371  0.0398  0.1041
 2778SOL     OW10843   2.924   1.645   1.377 -0.5441 -0.0459  0.3146
 2778SOL    HW210844   2.984   1.696   1.431 -0.0756  1.0857 -1.1902
 2778SOL    HW310845   2.840   1.691   1.386 -1.0169 -1.1424  1.7650
 2778SOL    MW410846   2.921   1.658   1.385 -0.6410  0.1246  0.6786
 2779SOL     OW10847   1.429   3.038   2.703  0.2642  0.4838 -0.5082
 2779SOL    HW210848   1.430   2.979   2.779 -2.6498  1.2562  0.2510
 2779SOL    HW310849   1.502   3.008   2.649 -1.0638 -3.9124 -0.2338
 2779SOL    MW410850   1.439   3.026   2.706 -0.2059  0.0633 -0.2363
 2780SOL     OW10851   6.106   2.351   6.319  0.0699  0.0204  0.0731
 2780SOL    HW210852   6.123   2.291   6.247  0.7061  0.8789 -0.5100
 2780SOL    HW310853   6.104   2.295   6.397  3.7548 -0.4558  0.0041
 2780SOL    MW410854   6.108   2.336   6.319 -0.0394 -0.2821 -0.7716
 2781SOL     OW10855   5.314   3.327   4.736  0.1886 -0.3044  0.2148
 2781SOL    HW210856   5.392   3.360   4.780 -0.1393 -1.8761  2.1451
 2781SOL    HW310857   5.246   3.327   4.804 -0.9472 -0.8428 -0.8674
 2781SOL    MW410858   5.315   3.331   4.751  0.5677 -0.7647 -0.3806
 2782SOL     OW10859   5.958   5.619   2.510 -0.2187 -0.1695  0.0432
 2782SOL    HW210860   6.046   5.652   2.526 -0.1729  0.0959 -0.7404
 2782SOL    HW310861   5.902   5.671   2.567  0.2163 -0.9197  1.1916
 2782SOL    MW410862   5.962   5.630   2.520  0.0521 -0.6349  0.5068
 2783SOL     OW10863   4.183   1.256   5.505 -0.4693  0.6868 -0.1167
 2783SOL    HW210864   4.090   1.277   5.491 -0.0229  1.4710 -2.2179
 2783SOL    HW310865   4.191   1.248   5.600 -2.5430  1.3040  0.1684
 2783SOL    MW410866   4.172   1.258   5.516 -0.8121 -0.3499  0.1511
 2784SOL     OW10867   4.900   5.774   2.484  0.0559 -0.0277  0.2253
 2784SOL    HW210868   4.895   5.771   2.389  2.0265  1.9903 -0.0136
 2784SOL    HW310869   4.811   5.753   2.513 -0.5296 -0.9601 -2.0100
 2784SOL    MW410870   4.887   5.771   2.475  0.0013  0.2791  0.0366
 2785SOL     OW10871   1.609   1.813   1.773 -0.5091  0.6921 -0.0406
 2785SOL    HW210872   1.678   1.881   1.774  0.5756 -0.3121 -1.8676
 2785SOL    HW310873   1.657   1.731   1.771 -1.7414 -0.0385 -1.5276
 2785SOL    MW410874   1.625   1.811   1.773  0.5018  0.0505 -0.8321
 2786SOL     OW10875   0.380   5.974   4.765 -0.5916  0.3336  0.3736
 2786SOL    HW210876   0.436   5.929   4.828  0.0092 -1.1173 -1.1358
 2786SOL    HW310877   0.441   6.024   4.711 -1.0347  0.9617  0.4431
 2786SOL    MW410878   0.396   5.975   4.766 -0.5120 -0.2437 -0.0677
 2787SOL     OW10879   5.596   0.715   1.230  0.3698 -0.1168 -0.2381
 2787SOL    HW210880   5.536   0.672   1.168 -0.2060 -1.2675  1.0792
 2787SOL    HW310881   5.667   0.652   1.242  0.6026  0.2063  0.0757
 2787SOL    MW410882   5.597   0.701   1.223 -0.0038  0.4855  0.7441
 2788SOL     OW10883   2.764   0.806   1.671 -0.1847 -0.1382  0.6257
 2788SOL    HW210884   2.691   0.757   1.709 -1.7543  1.6588  0.0628
 2788SOL    HW310885   2.729   0.839   1.588  1.4600  0.3450  0.0968
 2788SOL    MW410886   2.750   0.804   1.665 -0.0204  0.1360  0.2705
 2789SOL     OW10887   3.121   4.898   4.818  0.2411 -0.1157  0.2822
 2789SOL    HW210888   3.174   4.818   4.821 -1.0559 -0.9952  0.1259
 2789SOL    HW310889   3.063   4.887   4.743  0.2861  1.1540  0.0282
 2789SOL    MW410890   3.121   4.886   4.809 -0.2139  0.0344 -0.1372
 2790SOL     OW10891   0.496   5.766   5.174  0.1278 -0.5417 -0.1778
 2790SOL    HW210892   0.452   5.687   5.142 -0.1898 -1.3819  2.1241
 2790SOL    HW310893   0.584   5.737   5.197  0.0642 -0.2066  0.5281
 2790SOL    MW410894   0.502   5.752   5.173  0.2564  0.1039 -0.2093
 2791SOL     OW10895   0.757   3.095   2.808 -0.4573  0.3756  0.1169
 2791SOL    HW210896   0.841   3.077   2.850 -0.4771  0.3376  0.1404
 2791SOL    HW310897   0.728   3.177   2.847  0.6784  1.6359 -1.5724
 2791SOL    MW410898   0.765   3.103   2.819  0.3205  0.4058 -0.1711
 2792SOL     OW10899   2.165   2.868   1.335  0.2235 -0.3307  0.1920
 2792SOL    HW210900   2.108   2.845   1.408  1.7290  1.6334  2.1168
 2792SOL    HW310901   2.180   2.786   1.289 -2.3306 -1.2887  0.8947
 2792SOL    MW410902   2.159   2.854   1.339  0.4868  0.1070  0.1347
 2793SOL     OW10903   3.814   2.186   4.783  0.1500 -0.0701 -0.1067
 2793SOL    HW210904   3.762   2.253   4.828  1.6419  1.2787 -0.3163
 2793SOL    HW310905   3.787   2.104   4.825  0.1698  0.9368  2.0248
 2793SOL    MW410906   3.803   2.184   4.795  0.0618  0.0600 -0.0648
 2794SOL     OW10907   6.242   0.081   5.481  0.2415  0.0844  0.4855
 2794SOL    HW210908   6.326   0.034   5.482  0.0576 -0.2571  0.1988
 2794SOL    HW310909   6.189   0.033   5.417  0.4819  1.4520 -0.8046
 2794SOL    MW410910   6.246   0.068   5.473  0.7141 -0.1824 -0.2995
 2795SOL     OW10911   4.387   0.325   2.687  0.4604  0.2394  0.5038
 2795SOL    HW210912   4.479   0.316   2.661 -0.0947 -1.6924 -1.0965
 2795SOL    HW310913   4.390   0.353   2.778  2.6581 -1.1923  0.9448
 2795SOL    MW410914   4.399   0.327   2.695  0.2944  0.1068  0.0464
 2796SOL     OW10915   4.156   5.205   1.818  0.3318 -0.2746 -0.2752
 2796SOL    HW210916   4.141   5.273   1.884  1.2210 -0.3950  0.0780
 2796SOL    HW310917   4.158   5.252   1.735 -1.4520 -0.2091 -0.3038
 2796SOL    MW410918   4.155   5.220   1.816  0.0857 -0.2472 -0.6073
 2797SOL     OW10919   0.625   4.426   0.500  0.0994 -0.3129  0.6529
 2797SOL    HW210920   0.614   4.378   0.417 -1.4430 -0.8626  1.1431
 2797SOL    HW310921   0.711   4.399   0.532  0.2642 -0.9081 -0.2562
 2797SOL    MW410922   0.635   4.416   0.493 -0.2128 -0.7129 -0.2740
 2798SOL     OW10923   4.890   5.107   3.921 -0.1921  0.3974 -0.9427
 2798SOL    HW210924   4.948   5.084   3.848  0.1291 -0.3938 -0.4478
 2798SOL    HW310925   4.804   5.077   3.893 -0.2742  1.0526 -1.4329
 2798SOL    MW410926   4.886   5.100   3.908 -0.1230 -0.3023 -0.0121
 2799SOL     OW10927   4.351   2.912   2.127 -0.1203 -0.2924 -0.0103
 2799SOL    HW210928   4.439   2.931   2.093  0.0434 -0.2131  0.4440
 2799SOL    HW310929   4.298   2.987   2.099  0.3681  0.5490  1.2004
 2799SOL    MW410930   4.356   2.925   2.119 -0.3870 -0.0509  0.0662
 2800SOL     OW10931   1.785   2.400   1.352 -0.6260  0.6796 -0.2377
 2800SOL    HW210932   1.849   2.403   1.423  1.7856  1.1281 -2.3074
 2800SOL    HW310933   1.811   2.323   1.300 -2.0616  0.6149 -0.9010
 2800SOL    MW410934   1.797   2.390   1.354 -0.0851  0.5817 -0.5139
 2801SOL     OW10935   0.019   0.299   5.481 -0.3251 -0.1038  0.4156
 2801SOL    HW210936  -0.048   0.281   5.415 -0.3196  0.6703  0.1841
 2801SOL    HW310937  -0.024   0.285   5.565 -0.5585 -0.3351  0.2569
 2801SOL    MW410938   0.005   0.295   5.483 -0.1388 -0.0028  0.0990
 2802SOL     OW10939   0.597   6.355   5.329  0.0051 -0.2557 -0.1694
 2802SOL    HW210940   0.634   6.409   5.260  2.5542 -0.3911  0.9657
 2802SOL    HW310941   0.576   6.416   5.399 -1.2915 -0.2829 -0.5026
 2802SOL    MW410942   0.599   6.370   5.329 -0.6175  0.5020 -0.1763
 2803SOL     OW10943   2.202   3.394   4.628 -0.2335  0.4095  0.6874
 2803SOL    HW210944   2.215   3.423   4.538  1.8737  0.0004  0.8280
 2803SOL    HW310945   2.107   3.402   4.641 -0.5456  0.8443 -1.4145
 2803SOL    MW410946   2.191   3.399   4.618  0.3587 -0.5101  0.7367
 2804SOL     OW10947   5.079   2.876   3.217  0.0124  0.1190  0.0405
 2804SOL    HW210948   5.095   2.821   3.294  1.4463  0.9049  0.3382
 2804SOL    HW310949   5.071   2.965   3.253  1.2776  0.5733 -0.7633
 2804SOL    MW410950   5.080   2.881   3.232  0.4209 -0.4154 -0.1225
 2805SOL     OW10951   0.114   3.099   4.221 -0.0464  0.3559 -0.2025
 2805SOL    HW210952   0.193   3.113   4.170 -0.2209 -2.5081 -1.4036
 2805SOL    HW310953   0.068   3.028   4.176 -2.0427  0.1943  1.9036
 2805SOL    MW410954   0.118   3.092   4.208  0.5753 -0.0052  0.7584
 2806SOL     OW10955   6.107   0.626   3.534  0.6817 -0.6876  0.0685
 2806SOL    HW210956   6.012   0.633   3.533  0.7850  1.5775 -0.8914
 2806SOL    HW310957   6.135   0.678   3.609  1.2007  0.8947 -1.1530
 2806SOL    MW410958   6.098   0.633   3.544 -0.8425 -0.3783  0.4755
 2807SOL     OW10959   6.055   0.322   1.345 -0.0485  0.2992 -0.1841
 2807SOL    HW210960   5.962   0.318   1.368 -0.2335  0.0759 -0.9552
 2807SOL    HW310961   6.084   0.407   1.379 -0.4229  0.1845  0.4503
 2807SOL    MW410962   6.046   0.333   1.353 -0.2151  0.1916  0.0899
 2808SOL     OW10963   3.284   3.928   2.501 -0.1137  0.4027  0.1302
 2808SOL    HW210964   3.228   3.917   2.424  2.1309  1.8562 -1.8189
 2808SOL    HW310965   3.341   3.851   2.500  0.5318  0.8738 -0.2460
 2808SOL    MW410966   3.284   3.916   2.491  0.1126  0.8152 -0.3568
 2809SOL     OW10967   1.804   6.417   1.167  0.2197 -0.1842  0.3912
 2809SOL    HW210968   1.784   6.386   1.079 -0.1256 -0.0938  0.4358
 2809SOL    HW310969   1.899   6.426   1.169  0.0655  2.6355 -0.9126
 2809SOL    MW410970   1.814   6.414   1.156 -0.3062 -0.0663 -0.5838
 2810SOL     OW10971   3.212   3.065   5.999  0.1066 -0.2422  0.0359
 2810SOL    HW210972   3.273   2.994   5.979  0.6263  0.1769  0.1210
 2810SOL    HW310973   3.225   3.129   5.929  0.8744  0.5499  0.8749
 2810SOL    MW410974   3.222   3.064   5.987  0.2579  0.2792 -0.3944
 2811SOL     OW10975   1.571   5.352   1.149 -0.0494  0.0147 -0.0667
 2811SOL    HW210976   1.557   5.435   1.194  0.2645  0.0141  0.0328
 2811SOL    HW310977   1.556   5.286   1.216  0.5697  0.0177  0.0874
 2811SOL    MW410978   1.567   5.354   1.164  0.1838  0.8267  0.0342
 2812SOL     OW10979   5.970   4.027   3.125 -0.1432  0.3733 -0.1836
 2812SOL    HW210980   5.949   3.934   3.126  1.2707  0.0225  1.3790
 2812SOL    HW310981   5.909   4.066   3.188 -0.4464  0.4414 -0.5164
 2812SOL    MW410982   5.959   4.020   3.134 -0.1908  0.3708  0.4636
 2813SOL     OW10983   3.404   4.225   4.962  0.0562 -0.6168  0.0323
 2813SOL    HW210984   3.380   4.267   4.879 -0.7194 -0.8873  0.1147
 2813SOL    HW310985   3.417   4.133   4.939  1.0708 -0.4746 -0.0150
 2813SOL    MW410986   3.403   4.219   4.948 -0.5361  0.9451  0.3461
 2814SOL     OW10987   2.592   2.356   0.630 -0.1137  0.2945 -0.7990
 2814SOL    HW210988   2.552   2.342   0.544 -0.0258 -2.4296 -0.4815
 2814SOL    HW310989   2.654   2.427   0.616 -1.0895  0.8627 -2.6207
 2814SOL    MW410990   2.595   2.363   0.617 -0.4084 -0.1508  0.0256
 2815SOL     OW10991   2.720   3.718   5.440 -0.5918  0.2520  0.6569
 2815SOL    HW210992   2.633   3.693   5.472 -0.4712  1.6724  2.2471
 2815SOL    HW310993   2.777   3.646   5.467 -1.2717 -0.7745 -0.5490
 2815SOL    MW410994   2.716   3.705   5.448 -0.0906  0.0845  0.0561
 2816SOL     OW10995   1.188   4.847   3.331 -0.4028  0.3401 -0.7192
 2816SOL    HW210996   1.160   4.937   3.313 -1.8453 -0.1666 -1.1691
 2816SOL    HW310997   1.195   4.807   3.244 -1.4225 -0.4405 -0.4551
 2816SOL    MW410998   1.185   4.853   3.317  0.0798  0.2370  0.2630
 2817SOL     OW10999   6.000   5.323   0.655  0.1976  0.0640  0.5804
 2817SOL    HW211000   6.073   5.261   0.665 -0.6258 -0.9845  0.3103
 2817SOL    HW311001   6.024   5.376   0.578  0.7580 -0.1412  0.6084
 2817SOL    MW411002   6.013   5.322   0.646  0.4627  0.3144 -0.3946
 2818SOL     OW11003   0.113   0.822   1.315  0.1178  0.3175 -0.4284
 2818SOL    HW211004   0.119   0.854   1.406  1.4652  0.6637 -0.6174
 2818SOL    HW311005   0.203   0.801   1.292 -0.0595  1.1789 -2.0286
 2818SOL    MW411006   0.125   0.824   1.324 -0.3288 -0.7470  0.3457
 2819SOL     OW11007   3.557   1.650   2.287 -0.1387  0.3870 -0.4050
 2819SOL    HW211008   3.529   1.558   2.291 -0.4975  0.4627 -0.9975
 2819SOL    HW311009   3.639   1.652   2.336  0.0578 -0.3290 -0.6834
 2819SOL    MW411010   3.564   1.638   2.294 -0.2352 -0.1362  0.7301
 2820SOL     OW11011   1.114   0.282   4.607  0.4628  0.6844 -0.1013
 2820SOL    HW211012   1.058   0.244   4.538 -0.8064  0.8032  0.8176
 2820SOL    HW311013   1.177   0.213   4.627 -1.1107 -0.5811  0.7581
 2820SOL    MW411014   1.115   0.267   4.601 -0.3707 -0.8095 -0.6222
 2821SOL     OW11015   4.480   3.836   2.001 -0.3049 -0.0713 -0.0186
 2821SOL    HW211016   4.572   3.860   2.016 -0.2150  0.4388 -1.2881
 2821SOL    HW311017   4.432   3.877   2.073  0.3671  0.2963  0.2279
 2821SOL    MW411018   4.486   3.845   2.013  0.0968 -0.5852  0.8075
 2822SOL     OW11019   5.562   6.388   5.112 -0.3193  0.4217 -0.1140
 2822SOL    HW211020   5.613   6.451   5.062 -1.7103  1.3265 -0.4522
 2822SOL    HW311021   5.485   6.437   5.141 -1.5801 -1.1669 -0.5922
 2822SOL    MW411022   5.558   6.402   5.109 -0.4201  0.2140 -0.1336
 2823SOL     OW11023   1.859   3.794   2.039 -0.3785 -0.4781 -0.0238
 2823SOL    HW211024   1.951   3.809   2.021  0.6276 -0.4374  4.1623
 2823SOL    HW311025   1.848   3.699   2.036 -0.0296 -0.5231  0.1964
 2823SOL    MW411026   1.869   3.783   2.036 -0.0860 -0.6185  0.1235
 2824SOL     OW11027   2.320   2.091   2.865 -0.1083  0.0525  0.0303
 2824SOL    HW211028   2.405   2.128   2.891  0.7287 -0.7745 -1.3899
 2824SOL    HW311029   2.324   2.000   2.895 -0.7695  0.1780  0.5188
 2824SOL    MW411030   2.332   2.084   2.872 -0.8603 -0.5859 -0.1040
 2825SOL     OW11031   5.985   0.635   6.147  0.4294 -0.0370  0.8073
 2825SOL    HW211032   5.984   0.649   6.052  0.7073 -1.0547  0.6433
 2825SOL    HW311033   5.893   0.628   6.171  0.3938 -1.0964  0.3954
 2825SOL    MW411034   5.973   0.636   6.137 -0.2884  0.0633 -0.5812
 2826SOL     OW11035   4.359   2.486   1.187 -0.1263 -0.2492  0.2988
 2826SOL    HW211036   4.382   2.526   1.271  2.8952 -2.0514  0.4659
 2826SOL    HW311037   4.340   2.560   1.129 -2.5747  1.0339  2.5339
 2826SOL    MW411038   4.359   2.501   1.190  0.2148  1.0021 -0.7907
 2827SOL     OW11039   4.683   2.030   1.749  0.2043  0.3760 -0.1520
 2827SOL    HW211040   4.654   2.118   1.776  1.1825  1.0095 -1.1026
 2827SOL    HW311041   4.691   2.035   1.654  2.0007 -0.1945 -0.0695
 2827SOL    MW411042   4.680   2.042   1.740 -0.0172 -0.4674  0.9506
 2828SOL     OW11043   0.512   0.547   0.199  0.2417  0.3039  0.1125
 2828SOL    HW211044   0.563   0.507   0.270  2.4680  1.8923 -0.4710
 2828SOL    HW311045   0.477   0.628   0.236 -0.5994 -0.0249  0.0579
 2828SOL    MW411046   0.514   0.552   0.213 -0.1801 -0.0019 -0.5021
 2829SOL     OW11047   6.279   2.668   1.888 -0.0158 -0.0392 -0.0294
 2829SOL    HW211048   6.274   2.577   1.861  0.7954  0.2772 -1.3772
 2829SOL    HW311049   6.340   2.668   1.962 -0.7238 -0.6930  0.5574
 2829SOL    MW411050   6.287   2.656   1.894  0.1057 -0.5100 -0.0857
 2830SOL     OW11051   5.233   0.144   5.000  0.6100 -0.1516  0.4051
 2830SOL    HW211052   5.251   0.231   4.964 -1.2488 -0.2963 -1.0111
 2830SOL    HW311053   5.165   0.109   4.944  0.3291 -1.9867  1.8137
 2830SOL    MW411054   5.227   0.151   4.988 -0.3222  0.4010  0.0648
 2831SOL     OW11055   3.110   5.903   5.908  0.4108  0.4213 -0.6701
 2831SOL    HW211056   3.017   5.905   5.933  0.9264 -1.7227  1.8059
 2831SOL    HW311057   3.117   5.832   5.845  0.5188 -0.1520 -0.0218
 2831SOL    MW411058   3.099   5.894   5.903  0.1443  0.4301  0.2969
 2832SOL     OW11059   3.161   5.046   6.365  0.0002 -0.0409  0.0792
 2832SOL    HW211060   3.168   5.140   6.379 -0.5185  0.2389 -1.3714
 2832SOL    HW311061   3.124   5.012   6.446  1.3454  0.8214  1.0918
 2832SOL    MW411062   3.157   5.054   6.377 -0.1950  0.7587 -0.4069
 2833SOL     OW11063   4.248   1.904   5.562 -0.2465 -0.7442 -0.9759
 2833SOL    HW211064   4.236   1.820   5.518 -1.0892 -1.4815  0.5833
 2833SOL    HW311065   4.163   1.924   5.600 -0.0137  0.7525 -1.1917
 2833SOL    MW411066   4.235   1.896   5.562 -0.2603  0.3061 -0.0778
 2834SOL     OW11067   4.253   5.548   4.975 -0.2110 -0.1460  0.5940
 2834SOL    HW211068   4.229   5.501   5.054 -1.9034 -0.2632  0.0514
 2834SOL    HW311069   4.312   5.489   4.928 -0.2386 -0.6203  1.1526
 2834SOL    MW411070   4.258   5.534   4.979  0.7338  0.1509  0.0018
 2835SOL     OW11071   4.660   2.473   4.091  0.8358 -0.2436  0.5238
 2835SOL    HW211072   4.751   2.478   4.119  0.7250  2.4102  0.7262
 2835SOL    HW311073   4.633   2.565   4.084 -1.0237 -0.8807 -2.1916
 2835SOL    MW411074   4.668   2.486   4.094  0.7123 -0.6629  1.1330
 2836SOL     OW11075   1.983   2.659   2.991 -0.2191  0.2225 -0.2905
 2836SOL    HW211076   1.993   2.564   2.987 -1.1245 -0.0550  2.2153
 2836SOL    HW311077   2.065   2.690   3.030  0.0875  0.4992 -1.1304
 2836SOL    MW411078   1.995   2.651   2.996 -0.2693 -0.0828 -0.0730
 2837SOL     OW11079   2.281   4.125   0.728 -0.1083  0.1876  0.0222
 2837SOL    HW211080   2.246   4.052   0.677 -3.8126  1.5136  0.3376
 2837SOL    HW311081   2.322   4.182   0.662  2.2242 -1.7100 -0.3057
 2837SOL    MW411082   2.281   4.123   0.712 -0.2996  0.1036  0.2368
 2838SOL     OW11083   1.970   3.719   4.236 -0.1627  0.1978  0.3249
 2838SOL    HW211084   1.931   3.674   4.160  0.0548  0.2011  0.2112
 2838SOL    HW311085   1.936   3.809   4.230  1.1663  0.6696 -0.7314
 2838SOL    MW411086   1.960   3.725   4.225 -0.3022 -0.1318  0.1444
 2839SOL     OW11087   1.208   4.641   1.675 -0.1517  0.0795 -0.5935
 2839SOL    HW211088   1.288   4.657   1.725 -0.1739 -1.7469  0.0959
 2839SOL    HW311089   1.212   4.549   1.650 -2.2805 -0.2302 -0.0600
 2839SOL    MW411090   1.219   4.631   1.679  0.3287  0.2452  0.6131
 2840SOL     OW11091   4.431   3.203   0.520  0.1543 -0.6564 -0.1629
 2840SOL    HW211092   4.343   3.183   0.489  0.6902 -1.0500 -1.4757
 2840SOL    HW311093   4.482   3.124   0.503  1.3829  0.4389 -1.8593
 2840SOL    MW411094   4.426   3.190   0.514  0.4135 -0.0158  0.2002
 2841SOL     OW11095   0.652   5.616   2.026 -0.2013  0.6800  0.4614
 2841SOL    HW211096   0.604   5.541   2.060 -0.4985  0.2950 -0.7611
 2841SOL    HW311097   0.593   5.690   2.038 -1.5907  0.0647 -1.9066
 2841SOL    MW411098   0.638   5.616   2.032 -0.3132 -0.0893  0.2877
 2842SOL     OW11099   3.391   3.112   3.036 -0.3042  0.0443  0.1937
 2842SOL    HW211100   3.348   3.096   3.120 -2.0891 -0.8074 -0.8276
 2842SOL    HW311101   3.483   3.125   3.059 -1.1156  2.6813  2.5769
 2842SOL    MW411102   3.397   3.112   3.050  0.0673  0.3892 -0.0633
 2843SOL     OW11103   0.438   4.904   6.287  0.1864 -0.3929 -0.1147
 2843SOL    HW211104   0.419   4.998   6.282  0.9888 -0.1577  1.0533
 2843SOL    HW311105   0.352   4.864   6.299 -0.3833  0.0049 -2.3241
 2843SOL    MW411106   0.424   4.911   6.288 -0.0718 -0.9064  0.2232
 2844SOL     OW11107   1.645   3.572   0.126  0.4365 -0.2875 -0.3121
 2844SOL    HW211108   1.687   3.486   0.137 -0.0776 -0.5918 -0.6548
 2844SOL    HW311109   1.718   3.633   0.119  0.8546 -0.2795  2.7903
 2844SOL    MW411110   1.660   3.568   0.126 -0.5308 -0.1337  0.1556
 2845SOL     OW11111   0.218   2.138   1.272 -0.0408 -0.0847  0.3381
 2845SOL    HW211112   0.264   2.077   1.330 -0.0588  0.4519  0.9244
 2845SOL    HW311113   0.203   2.216   1.325 -1.5132 -0.1830  0.1288
 2845SOL    MW411114   0.222   2.140   1.286  0.6183  0.2201  0.3531
 2846SOL     OW11115   3.175   3.371   2.662 -1.0180  0.0122  0.1917
 2846SOL    HW211116   3.137   3.390   2.576 -1.6902  0.0866  0.4957
 2846SOL    HW311117   3.103   3.385   2.723  0.1271  2.7395  1.0951
 2846SOL    MW411118   3.161   3.375   2.659 -0.0793  0.4599  0.6372
 2847SOL     OW11119   0.366   2.340   0.598  0.0998 -0.0006 -0.0025
 2847SOL    HW211120   0.435   2.403   0.618 -0.5174  0.4676  0.7135
 2847SOL    HW311121   0.286   2.380   0.633 -0.4414 -0.7997 -0.2899
 2847SOL    MW411122   0.364   2.354   0.605  0.1056 -0.1455 -0.1136
 2848SOL     OW11123   0.661   1.355   2.410 -0.3453  0.6608 -0.5887
 2848SOL    HW211124   0.747   1.359   2.369  0.0606 -0.3853  0.1363
 2848SOL    HW311125   0.654   1.437   2.460  0.8213  0.1296  0.4868
 2848SOL    MW411126   0.671   1.367   2.411 -0.2672 -0.0483 -0.4155
 2849SOL     OW11127   4.806   1.266   6.043 -0.4859 -0.0626 -0.0327
 2849SOL    HW211128   4.725   1.238   6.000 -0.2188 -1.6589  0.4350
 2849SOL    HW311129   4.875   1.242   5.981 -0.3258  0.8870 -0.2366
 2849SOL    MW411130   4.804   1.259   6.029 -0.0247  0.7708 -0.0167
 2850SOL     OW11131   5.091   1.036   2.587  0.2303 -0.5006 -0.3253
 2850SOL    HW211132   5.136   1.036   2.503  0.7764 -0.4521 -0.0328
 2850SOL    HW311133   5.010   1.085   2.571  1.0472  0.8290 -0.4381
 2850SOL    MW411134   5.086   1.042   2.574 -0.2080  0.0423 -0.9457
 2851SOL     OW11135   1.782   6.213   1.959  0.5512 -0.1287 -0.0795
 2851SOL    HW211136   1.843   6.151   1.918  0.3306 -0.7433  0.5052
 2851SOL    HW311137   1.812   6.299   1.929  0.0498 -0.5744 -1.9819
 2851SOL    MW411138   1.794   6.216   1.949 -0.1398 -0.1221 -0.2846
 2852SOL     OW11139   0.768   3.348   3.302 -0.6915 -0.0685 -0.1808
 2852SOL    HW211140   0.782   3.418   3.240  0.7170 -1.4282 -1.4855
 2852SOL    HW311141   0.851   3.299   3.302 -1.2601 -1.1165  1.4670
 2852SOL    MW411142   0.781   3.351   3.294  0.4350 -0.3365 -0.3347
 2853SOL     OW11143   4.436   5.374   4.865  0.2494 -0.8100  0.1786
 2853SOL    HW211144   4.433   5.334   4.778 -0.2811  0.8648 -0.6109
 2853SOL    HW311145   4.485   5.311   4.919  0.8398 -1.7450 -1.3916
 2853SOL    MW411146   4.442   5.360   4.861 -0.1247  0.0207 -0.3532
 2854SOL     OW11147   0.764   0.847   1.894 -0.3238  0.1174 -0.5409
 2854SOL    HW211148   0.854   0.862   1.922 -0.3592 -0.4851 -0.0841
 2854SOL    HW311149   0.716   0.923   1.926 -0.4227 -0.6869  1.3652
 2854SOL    MW411150   0.770   0.859   1.902 -0.2927 -0.1312  0.3298
 2855SOL     OW11151   4.973   2.688   0.203 -0.0784  0.0253 -0.1285
 2855SOL    HW211152   4.894   2.715   0.250 -0.2381 -0.5625 -0.0499
 2855SOL    HW311153   5.028   2.646   0.269  1.4806  2.6943  0.4210
 2855SOL    MW411154   4.970   2.686   0.218 -0.0693  0.0195  0.1376
 2856SOL     OW11155   5.747   1.524   5.169 -0.5221 -0.2472 -0.1009
 2856SOL    HW211156   5.783   1.436   5.161  0.1836  0.1540 -1.6891
 2856SOL    HW311157   5.743   1.540   5.263  1.0062 -1.3139  0.1779
 2856SOL    MW411158   5.752   1.514   5.180  0.1006 -0.2225  0.1540
 2857SOL     OW11159   6.365   0.503   3.183 -0.3682  0.4059 -0.0630
 2857SOL    HW211160   6.283   0.550   3.171 -0.4986 -0.1169 -1.3324
 2857SOL    HW311161   6.371   0.444   3.108  1.4458  0.8303 -0.3061
 2857SOL    MW411162   6.355   0.501   3.172 -0.2291 -0.7049  0.7664
 2858SOL     OW11163   4.058   4.152   5.743 -0.1656 -0.4196  0.3659
 2858SOL    HW211164   3.978   4.199   5.720  0.8436  0.5063 -1.4672
 2858SOL    HW311165   4.067   4.086   5.674  1.6314  0.7818 -0.6230
 2858SOL    MW411166   4.048   4.149   5.731 -0.4087 -0.1109 -0.5508
 2859SOL     OW11167   2.578   2.312   1.014 -0.0744  0.1150  0.0467
 2859SOL    HW211168   2.631   2.248   1.063  0.6763 -0.4623 -1.4649
 2859SOL    HW311169   2.519   2.258   0.961 -0.2598  0.7072 -0.3571
 2859SOL    MW411170   2.577   2.296   1.014 -0.1674  0.5593 -0.7385
 2860SOL     OW11171   0.903   5.375   3.897  0.0829  0.2404  0.5696
 2860SOL    HW211172   0.904   5.406   3.987 -0.8031  1.6248  0.1278
 2860SOL    HW311173   0.968   5.429   3.852 -0.3391  0.3809  0.1266
 2860SOL    MW411174   0.912   5.386   3.903 -0.6192  0.3087 -0.6685
 2861SOL     OW11175   1.384   1.406   5.621  0.0557  0.6622  0.2846
 2861SOL    HW211176   1.410   1.495   5.644  0.5114  1.0184 -1.4927
 2861SOL    HW311177   1.289   1.405   5.633  0.0349  1.4076  0.2059
 2861SOL    MW411178   1.375   1.417   5.626 -1.0533  1.1225 -0.2443
 2862SOL     OW11179   1.642   0.566   0.788 -0.1678  0.0244 -0.0255
 2862SOL    HW211180   1.614   0.632   0.724  1.9488  2.2701  1.2129
 2862SOL    HW311181   1.731   0.543   0.761 -0.1503 -0.8442  0.7240
 2862SOL    MW411182   1.650   0.571   0.776 -0.2841 -0.0631 -0.2819
 2863SOL     OW11183   2.303   5.182   5.116  0.0390 -0.2754  0.2515
 2863SOL    HW211184   2.314   5.089   5.098 -0.8528 -0.3578  0.0503
 2863SOL    HW311185   2.272   5.219   5.033  2.3145  0.5897 -0.2769
 2863SOL    MW411186   2.300   5.175   5.103 -0.1029 -0.5368 -0.5146
 2864SOL     OW11187   2.459   6.232   2.752  1.0861 -0.5720 -0.1352
 2864SOL    HW211188   2.540   6.240   2.803  2.0079  2.0635 -1.8342
 2864SOL    HW311189   2.409   6.310   2.775 -1.0650 -2.1543  0.8745
 2864SOL    MW411190   2.463   6.243   2.762  0.1013  0.0041 -0.5743
 2865SOL     OW11191   2.283   0.481   3.189  0.0221 -0.6659  0.6415
 2865SOL    HW211192   2.316   0.568   3.165 -0.9086 -0.1317  1.2603
 2865SOL    HW311193   2.267   0.487   3.283  0.7212 -1.7777  0.8518
 2865SOL    MW411194   2.285   0.493   3.198  0.1688 -0.2837 -0.1644
 2866SOL     OW11195   5.468   4.381   5.375  0.1031  0.2443 -0.8418
 2866SOL    HW211196   5.458   4.320   5.302 -0.2270  1.3405 -1.7512
 2866SOL    HW311197   5.414   4.344   5.444 -2.8119  1.0951 -2.4559
 2866SOL    MW411198   5.459   4.368   5.374 -0.4567 -0.3970  0.5549
 2867SOL     OW11199   5.510   3.465   3.622 -0.5446  0.4514  0.0193
 2867SOL    HW211200   5.427   3.431   3.589 -0.0635 -0.3815 -0.3697
 2867SOL    HW311201   5.551   3.391   3.666 -0.7885  1.3191  1.7961
 2867SOL    MW411202   5.505   3.451   3.624  0.1840 -0.3245 -0.0084
 2868SOL     OW11203   0.197   2.378   1.411 -0.9880 -0.1934  0.5403
 2868SOL    HW211204   0.154   2.433   1.345 -0.7091 -0.2391  0.3202
 2868SOL    HW311205   0.262   2.435   1.452 -1.7573  0.1026  1.3980
 2868SOL    MW411206   0.200   2.393   1.408 -0.0660  0.1559  0.1658
 2869SOL     OW11207   0.797   0.642   2.440 -0.1580 -0.4062 -0.4982
 2869SOL    HW211208   0.775   0.698   2.366  0.4096 -1.3549 -1.4098
 2869SOL    HW311209   0.714   0.631   2.487 -1.1688 -1.9024 -2.4677
 2869SOL    MW411210   0.783   0.648   2.436 -0.1590  0.3117  0.0017
 2870SOL     OW11211   3.523   5.639   4.206 -0.2394 -0.1539  0.0999
 2870SOL    HW211212   3.586   5.635   4.279 -0.0286 -1.0152 -0.1109
 2870SOL    HW311213   3.576   5.622   4.128 -0.2611  1.8992 -0.4143
 2870SOL    MW411214   3.538   5.636   4.206 -0.2827  0.2078  0.3805
 2871SOL     OW11215   2.289   0.940   1.477  0.0342  0.4577 -0.0009
 2871SOL    HW211216   2.342   0.995   1.420  2.6566 -0.7841  1.0746
 2871SOL    HW311217   2.271   0.862   1.425 -0.1097  0.5680 -0.1174
 2871SOL    MW411218   2.293   0.937   1.463 -0.0875  0.5836 -0.5059
 2872SOL     OW11219   5.123   5.478   1.668 -0.0385 -0.3335 -0.7902
 2872SOL    HW211220   5.029   5.464   1.659 -0.1005 -1.7636  1.2628
 2872SOL    HW311221   5.158   5.392   1.692  1.5588  0.4903  0.0175
 2872SOL    MW411222   5.115   5.465   1.670  0.1007  0.1747 -0.0852
 2873SOL     OW11223   1.962   0.908   0.940  0.1176 -0.0326  0.0716
 2873SOL    HW211224   1.950   0.831   0.995  1.6852 -1.3375 -1.3004
 2873SOL    HW311225   1.874   0.928   0.907 -0.1344 -2.1824 -0.7057
 2873SOL    MW411226   1.948   0.901   0.943 -0.2876 -0.7720 -0.4960
 2874SOL     OW11227   2.484   2.016   3.464  0.2329  0.3782  0.2210
 2874SOL    HW211228   2.512   2.022   3.373  2.1628  1.6442  0.8553
 2874SOL    HW311229   2.453   1.925   3.473  1.2383 -0.1665 -1.3545
 2874SOL    MW411230   2.483   2.005   3.453 -0.3153 -0.9642  0.0663
 2875SOL     OW11231   4.856   1.956   3.682 -0.2873 -0.4707 -0.1442
 2875SOL    HW211232   4.864   1.918   3.595 -1.1598 -0.5649 -0.1860
 2875SOL    HW311233   4.773   1.922   3.717 -0.4874  0.4223  0.2870
 2875SOL    MW411234   4.846   1.947   3.675  0.0336 -0.3685 -0.0226
 2876SOL     OW11235   5.334   4.157   0.605 -0.9325  0.0308  0.4724
 2876SOL    HW211236   5.276   4.154   0.529 -0.5477 -0.7302  0.1979
 2876SOL    HW311237   5.390   4.233   0.589 -0.8573 -0.1218 -0.0017
 2876SOL    MW411238   5.334   4.167   0.592 -0.3305 -0.3235 -0.5597
 2877SOL     OW11239   5.553   4.339   2.248 -0.0301  0.1807 -0.9740
 2877SOL    HW211240   5.495   4.388   2.306 -0.7923  0.4178 -1.9178
 2877SOL    HW311241   5.639   4.381   2.259 -0.2724  0.5398 -0.4018
 2877SOL    MW411242   5.557   4.351   2.258  0.3396 -0.0784 -0.1626
 2878SOL     OW11243   0.037   2.590   1.280 -0.2063  0.1501 -0.3315
 2878SOL    HW211244   0.005   2.593   1.370 -0.0482 -0.7492 -0.2383
 2878SOL    HW311245   0.084   2.673   1.269  1.5689 -0.5788  1.1064
 2878SOL    MW411246   0.039   2.602   1.290  0.0832  0.6378 -0.0743
 2879SOL     OW11247   6.138   3.779   1.514 -0.0847  0.0681  0.0993
 2879SOL    HW211248   6.044   3.798   1.506 -0.0496  0.7748  1.1358
 2879SOL    HW311249   6.142   3.704   1.574 -0.0307 -0.6761 -0.8223
 2879SOL    MW411250   6.126   3.772   1.521  0.1176  0.0807  0.5814
 2880SOL     OW11251   6.056   0.835   1.365 -0.1723 -0.5467 -0.4174
 2880SOL    HW211252   6.143   0.875   1.360  0.1998 -1.1205  1.0350
 2880SOL    HW311253   6.045   0.792   1.280  0.9671 -0.4841 -0.6098
 2880SOL    MW411254   6.066   0.835   1.353  0.1433 -0.1404 -0.0723
 2881SOL     OW11255   2.585   3.104   6.044  0.2020  0.0115 -0.0282
 2881SOL    HW211256   2.568   3.057   5.963  0.6275 -0.4673  0.1563
 2881SOL    HW311257   2.570   3.196   6.022 -0.4584 -0.1923 -0.4366
 2881SOL    MW411258   2.581   3.110   6.030  0.2613  0.3021 -0.1075
 2882SOL     OW11259   5.769   2.760   2.676 -0.4632 -0.3704  0.1339
 2882SOL    HW211260   5.733   2.739   2.590  0.5301 -0.1529 -0.3546
 2882SOL    HW311261   5.861   2.735   2.671 -0.1037  0.7226  0.7291
 2882SOL    MW411262   5.777   2.754   2.664 -0.4878 -0.0045 -0.5865
 2883SOL     OW11263   0.635   0.300   4.935  0.0754  0.3577 -0.2439
 2883SOL    HW211264   0.608   0.381   4.893  0.0726  0.3804 -0.1984
 2883SOL    HW311265   0.708   0.324   4.992  0.9136  0.0972 -1.1940
 2883SOL    MW411266   0.641   0.314   4.937  0.0526 -0.3757 -0.0813
 2884SOL     OW11267   1.912   6.353   0.536  0.2981 -0.3154  0.1465
 2884SOL    HW211268   1.851   6.279   0.525  1.5681 -1.1180 -2.0843
 2884SOL    HW311269   1.977   6.321   0.597  0.2956 -0.6893 -0.0420
 2884SOL    MW411270   1.912   6.339   0.542  0.0015  0.4463 -0.6647
 2885SOL     OW11271   0.133   5.887   1.144 -0.0473 -0.1363  0.0634
 2885SOL    HW211272   0.120   5.982   1.140 -0.2042 -0.1451 -3.5830
 2885SOL    HW311273   0.071   5.857   1.210 -3.1227  1.9950 -1.5621
 2885SOL    MW411274   0.123   5.896   1.152 -0.1099 -0.1566  0.4898
 2886SOL     OW11275   1.995   0.736   0.605  0.2734  0.2732  0.0405
 2886SOL    HW211276   1.916   0.786   0.583 -0.6058 -0.3662  1.6092
 2886SOL    HW311277   1.963   0.657   0.648  1.5940 -2.0037 -2.7745
 2886SOL    MW411278   1.980   0.732   0.607  0.0220  0.1942 -0.8865
 2887SOL     OW11279   3.218   3.968   0.279  0.7504 -0.0014 -0.1720
 2887SOL    HW211280   3.222   3.875   0.259  0.0980 -0.2150  0.6137
 2887SOL    HW311281   3.252   3.975   0.369 -0.0513  0.3782  0.1207
 2887SOL    MW411282   3.223   3.957   0.289  0.3839  0.4665 -0.0211
 2888SOL     OW11283   2.880   5.800   4.884  0.4280  0.0286 -0.2871
 2888SOL    HW211284   2.839   5.836   4.806  0.6926  1.8572  0.3672
 2888SOL    HW311285   2.808   5.793   4.947  0.5568  0.3098 -0.1091
 2888SOL    MW411286   2.865   5.804   4.882 -0.0323 -0.1773 -0.2246
 2889SOL     OW11287   3.794   2.152   5.394 -0.1008  0.5935 -0.4372
 2889SOL    HW211288   3.763   2.061   5.395  1.3259  0.0712 -1.2817
 2889SOL    HW311289   3.811   2.172   5.486 -0.3788 -0.0057 -0.2480
 2889SOL    MW411290   3.792   2.142   5.407  0.2071  0.7273 -0.0413
 2890SOL     OW11291   4.922   3.313   1.533  0.5958 -0.1731 -0.6824
 2890SOL    HW211292   4.992   3.365   1.572 -0.0206  0.8254 -0.8710
 2890SOL    HW311293   4.958   3.284   1.448  0.8368  0.1898 -0.7050
 2890SOL    MW411294   4.936   3.316   1.527  0.5255  0.2140 -0.2322
 2891SOL     OW11295   5.405   0.861   2.039 -0.2032 -0.0401  0.6519
 2891SOL    HW211296   5.399   0.948   1.999 -0.7763 -0.5125 -0.3318
 2891SOL    HW311297   5.354   0.805   1.980 -2.0941 -0.5591  2.6730
 2891SOL    MW411298   5.397   0.865   2.026  0.5500 -0.5794  0.3116
 2892SOL     OW11299   4.833   5.479   1.627  0.1453 -0.0344  0.0278
 2892SOL    HW211300   4.832   5.388   1.598  3.6878 -0.4466  0.6573
 2892SOL    HW311301   4.780   5.480   1.706 -2.6951 -0.7166 -1.7353
 2892SOL    MW411302   4.826   5.467   1.634 -0.3509  0.6992 -0.1513
 2893SOL     OW11303   0.860   5.519   2.586 -0.2716 -0.4084  0.2783
 2893SOL    HW211304   0.845   5.610   2.562 -1.1555 -0.8196 -0.8359
 2893SOL    HW311305   0.855   5.518   2.681  0.2498  0.7842  0.3360
 2893SOL    MW411306   0.857   5.531   2.595  0.1733  0.2061  0.7099
 2894SOL     OW11307   0.445   5.017   4.210 -0.2995  0.2911  0.1916
 2894SOL    HW211308   0.397   5.045   4.132 -1.6622  2.1182  1.6010
 2894SOL    HW311309   0.533   5.053   4.198  1.0611 -3.2904 -2.5264
 2894SOL    MW411310   0.450   5.026   4.198  0.2918 -0.3977 -0.3130
 2895SOL     OW11311   3.626   4.530   5.874  0.0343  0.4155 -0.0444
 2895SOL    HW211312   3.696   4.553   5.934  0.2343 -0.4273  0.0644
 2895SOL    HW311313   3.546   4.545   5.923  0.1226  1.4735 -0.1998
 2895SOL    MW411314   3.625   4.535   5.888  0.1317 -0.3530 -1.0154
 2896SOL     OW11315   3.958   5.246   5.311  0.1786  0.2702  0.0223
 2896SOL    HW211316   4.010   5.171   5.341  0.3798 -0.4568 -1.9647
 2896SOL    HW311317   3.896   5.208   5.249 -1.0370  1.5059  0.4510
 2896SOL    MW411318   3.957   5.231   5.307  0.0662 -0.1496  0.3173
 2897SOL     OW11319   1.413   6.179   5.988 -0.3304  0.2903 -0.1964
 2897SOL    HW211320   1.449   6.266   6.003 -1.8207  0.9370 -0.1153
 2897SOL    HW311321   1.485   6.128   5.952  0.8709  1.2399  0.8103
 2897SOL    MW411322   1.427   6.184   5.985  0.1120  0.2101 -0.2036
 2898SOL     OW11323   1.642   5.115   2.689  0.4688  0.2177  0.3408
 2898SOL    HW211324   1.677   5.197   2.656 -0.9962  0.3504 -1.0223
 2898SOL    HW311325   1.614   5.067   2.610  0.4268 -1.1731  1.1620
 2898SOL    MW411326   1.643   5.119   2.674  0.0289  0.2014 -0.2874
 2899SOL     OW11327   6.203   5.191   0.278  0.1042 -0.0196  0.2035
 2899SOL    HW211328   6.298   5.208   0.279  0.3379 -1.1693 -0.7435
 2899SOL    HW311329   6.187   5.148   0.194 -1.1433 -0.5048  0.6651
 2899SOL    MW411330   6.214   5.188   0.267  0.9290  0.4830  0.3805
 2900SOL     OW11331   5.882   5.069   3.629  0.3868  0.5422 -0.2496
 2900SOL    HW211332   5.794   5.084   3.662  0.7547 -0.0566  1.0681
 2900SOL    HW311333   5.924   5.155   3.634  0.4742  0.4443  1.0108
 2900SOL    MW411334   5.876   5.083   3.634 -0.5918 -0.4916 -0.1822
 2901SOL     OW11335   5.011   4.903   4.065  0.1291 -0.9116 -0.2674
 2901SOL    HW211336   4.972   4.987   4.039 -0.2352 -1.9394 -3.5468
 2901SOL    HW311337   4.940   4.856   4.108  0.0536  0.0692  0.7114
 2901SOL    MW411338   4.996   4.908   4.067 -0.0801  0.0172  0.1809
 2902SOL     OW11339   0.919   5.763   3.688  0.2786  0.2502 -0.6834
 2902SOL    HW211340   0.902   5.671   3.666  1.3180 -0.2606  0.5661
 2902SOL    HW311341   1.012   5.775   3.670  0.3270  0.8289 -0.0713
 2902SOL    MW411342   0.929   5.753   3.682  0.1891 -0.2657  0.3749
 2903SOL     OW11343   0.797   1.888   3.263 -0.2774  0.5925  0.2539
 2903SOL    HW211344   0.875   1.915   3.311 -0.4962  1.8720 -0.0916
 2903SOL    HW311345   0.773   1.964   3.211 -1.8431  0.2535  0.4523
 2903SOL    MW411346   0.804   1.901   3.262 -0.0282  0.5357 -0.0203
 2904SOL     OW11347   1.430   2.445   5.005  0.3350 -0.1229 -0.3462
 2904SOL    HW211348   1.516   2.405   5.015 -0.1284 -0.9203  0.6298
 2904SOL    HW311349   1.429   2.517   5.067 -0.3756 -1.3197  1.0767
 2904SOL    MW411350   1.441   2.449   5.014 -0.3125 -0.5705 -0.2315
 2905SOL     OW11351   5.406   6.012   4.807  0.6141  0.0527  0.4355
 2905SOL    HW211352   5.384   6.062   4.885  0.1079 -1.0383  1.0104
 2905SOL    HW311353   5.425   6.078   4.741 -1.0534  1.0405  0.8762
 2905SOL    MW411354   5.405   6.027   4.809 -0.4834 -0.5940 -0.1149
 2906SOL     OW11355   0.825   5.311   2.413  0.1156  0.1145 -0.3353
 2906SOL    HW211356   0.844   5.230   2.460 -0.9262 -0.0014 -0.0810
 2906SOL    HW311357   0.825   5.379   2.480 -0.8480  0.0312 -0.2427
 2906SOL    MW411358   0.827   5.310   2.428  0.0239  0.2787  0.4178
 2907SOL     OW11359   3.263   4.391   6.200 -0.0143 -0.3278  0.1670
 2907SOL    HW211360   3.209   4.433   6.266  0.8459 -0.9712  1.3112
 2907SOL    HW311361   3.317   4.461   6.164  0.6389 -0.2282  1.2931
 2907SOL    MW411362   3.263   4.406   6.204  0.0292 -0.0315 -0.1076
 2908SOL     OW11363   4.024   4.598   0.084 -0.2044  0.9481 -0.1121
 2908SOL    HW211364   3.954   4.663   0.086 -0.6175  0.6657 -2.3822
 2908SOL    HW311365   3.987   4.520   0.125 -1.3208  0.7543 -1.4235
 2908SOL    MW411366   4.010   4.596   0.090 -0.3090  0.3646  0.0487
 2909SOL     OW11367   0.364   5.324   5.381  0.1171 -0.2806  0.0773
 2909SOL    HW211368   0.274   5.298   5.364  0.2338 -1.6979  1.3964
 2909SOL    HW311369   0.359   5.418   5.399 -0.5835  0.4006 -3.0780
 2909SOL    MW411370   0.352   5.333   5.381 -0.4601 -0.7566  0.1000
 2910SOL     OW11371   2.938   4.429   2.684 -0.1734 -0.0785 -0.5586
 2910SOL    HW211372   2.951   4.523   2.689  1.8537 -0.2169 -1.9749
 2910SOL    HW311373   2.950   4.398   2.774  0.1015  0.8935 -0.2553
 2910SOL    MW411374   2.941   4.437   2.697 -0.2147 -0.4199 -0.4941
 2911SOL     OW11375   6.428   5.833   1.602 -0.5689  0.3680 -0.4851
 2911SOL    HW211376   6.517   5.799   1.612 -0.1830  1.7220  1.0044
 2911SOL    HW311377   6.373   5.772   1.651 -0.0045  1.3423  1.4140
 2911SOL    MW411378   6.433   5.820   1.610 -0.0464 -0.1544 -0.4373
 2912SOL     OW11379   5.821   4.606   5.954  0.1447 -0.2507  0.1498
 2912SOL    HW211380   5.849   4.695   5.973 -0.2336 -0.0622 -0.1683
 2912SOL    HW311381   5.808   4.604   5.859 -1.1746 -0.2519  0.3148
 2912SOL    MW411382   5.823   4.617   5.944 -0.2013  0.3521  0.2182
 2913SOL     OW11383   4.271   5.474   1.310 -0.1571 -0.0920 -0.1659
 2913SOL    HW211384   4.183   5.481   1.273  0.4208 -0.9218 -1.7801
 2913SOL    HW311385   4.262   5.506   1.400 -1.9649  0.4300 -0.5008
 2913SOL    MW411386   4.259   5.479   1.317  0.0340  0.2687 -0.0522
 2914SOL     OW11387   3.363   2.185   2.002  0.6455 -0.1601 -0.0049
 2914SOL    HW211388   3.342   2.234   2.082 -2.8343 -0.2854 -0.6987
 2914SOL    HW311389   3.402   2.251   1.944  0.2502  0.7157  0.6822
 2914SOL    MW411390   3.365   2.201   2.005  0.4607 -0.2141  0.2496
 2915SOL     OW11391   3.621   1.739   5.618 -0.5405  1.2138 -0.3837
 2915SOL    HW211392   3.661   1.734   5.705 -1.0964 -0.9376 -0.1820
 2915SOL    HW311393   3.528   1.722   5.634 -0.4764 -0.4652 -1.4556
 2915SOL    MW411394   3.614   1.736   5.632  0.2554  0.0464  0.8775
 2916SOL     OW11395   3.484   3.427   3.552  0.2728 -0.2680 -0.1281
 2916SOL    HW211396   3.463   3.469   3.636  0.7108 -0.3815  0.0453
 2916SOL    HW311397   3.469   3.495   3.487  0.6784  0.0650  0.1214
 2916SOL    MW411398   3.479   3.442   3.555  0.1024 -0.0217 -0.3181
 2917SOL     OW11399   1.293   1.545   0.764  0.3157  0.2112  0.1020
 2917SOL    HW211400   1.283   1.600   0.842 -2.3142 -0.0550  0.0454
 2917SOL    HW311401   1.371   1.493   0.781  0.5778  1.1459  1.9468
 2917SOL    MW411402   1.302   1.545   0.777 -0.4321 -0.2423 -0.2605
 2918SOL     OW11403   1.045   2.815   3.808 -0.0572  0.2209  0.3009
 2918SOL    HW211404   0.984   2.826   3.735  1.2441  0.0001 -0.8712
 2918SOL    HW311405   1.003   2.860   3.882 -1.1390  0.9741 -0.7376
 2918SOL    MW411406   1.032   2.823   3.808 -0.4149 -0.4603  0.2388
 2919SOL     OW11407   4.881   6.076   2.526  0.0905  0.1928 -0.1180
 2919SOL    HW211408   4.797   6.114   2.500 -0.0924  1.0656  1.6140
 2919SOL    HW311409   4.871   5.982   2.512 -0.8907  0.3688 -0.6445
 2919SOL    MW411410   4.869   6.068   2.521 -0.8108 -0.3269 -0.3506
 2920SOL     OW11411   4.325   2.148   3.879  0.8458  0.3317  0.1467
 2920SOL    HW211412   4.386   2.188   3.941  2.1123  0.7415 -1.3072
 2920SOL    HW311413   4.259   2.216   3.863  0.7110  0.3487  0.7759
 2920SOL    MW411414   4.324   2.163   3.885  0.7048 -0.0834  0.3937
 2921SOL     OW11415   2.171   1.752   0.832 -0.1885 -0.1990 -0.0198
 2921SOL    HW211416   2.086   1.796   0.842 -0.4921 -1.1095  1.8280
 2921SOL    HW311417   2.157   1.687   0.763 -1.6993 -1.8445  1.7272
 2921SOL    MW411418   2.158   1.749   0.824  0.7503  0.1970 -0.5705
 2922SOL     OW11419   2.630   0.582   4.303  0.3045 -0.1830 -0.6358
 2922SOL    HW211420   2.584   0.647   4.250  0.2965  1.2884  1.0845
 2922SOL    HW311421   2.561   0.542   4.357  0.5815 -0.2474 -0.3254
 2922SOL    MW411422   2.614   0.585   4.303 -0.9840 -0.1601 -0.4271
 2923SOL     OW11423   3.199   3.366   3.337  0.2949 -0.3902 -0.0860
 2923SOL    HW211424   3.125   3.413   3.299  2.9519  2.8349 -1.7609
 2923SOL    HW311425   3.231   3.309   3.266  2.0400  1.6701 -1.0760
 2923SOL    MW411426   3.194   3.364   3.322  0.1726 -0.2556  0.4945
 2924SOL     OW11427   1.411   1.831   2.758  0.0040  0.1445  0.0464
 2924SOL    HW211428   1.468   1.909   2.757 -1.2406  1.1449  2.0344
 2924SOL    HW311429   1.420   1.796   2.846  0.4753 -1.9872 -0.8031
 2924SOL    MW411430   1.420   1.837   2.769  0.2563  0.3617 -0.9329
 2925SOL     OW11431   4.383   4.885   2.855  0.3274 -0.0059 -0.2653
 2925SOL    HW211432   4.314   4.883   2.789  1.5423  0.4052 -1.5896
 2925SOL    HW311433   4.377   4.973   2.892 -0.0598 -0.0835 -0.1300
 2925SOL    MW411434   4.373   4.896   2.851  0.6392  0.0813 -0.1653
 2926SOL     OW11435   4.855   5.027   5.728 -0.0082 -0.3077  0.2971
 2926SOL    HW211436   4.846   5.038   5.823  0.2407 -0.7636  0.3768
 2926SOL    HW311437   4.774   5.065   5.692 -0.3890 -0.6947  0.7340
 2926SOL    MW411438   4.843   5.034   5.736 -0.3570 -0.0871 -0.5707
 2927SOL     OW11439   5.468   1.232   2.595 -0.4568 -0.4677 -0.3608
 2927SOL    HW211440   5.378   1.253   2.622 -0.6509 -1.7899  0.1055
 2927SOL    HW311441   5.504   1.315   2.566 -1.0598  0.5613  1.6526
 2927SOL    MW411442   5.461   1.246   2.594  0.2021 -0.4266  0.2911
 2928SOL     OW11443   5.363   5.698   4.591 -0.5766 -0.0475  0.0204
 2928SOL    HW211444   5.377   5.637   4.663 -0.0102  0.4957  0.3861
 2928SOL    HW311445   5.304   5.765   4.627  0.0039  0.4265  0.1082
 2928SOL    MW411446   5.357   5.699   4.605 -0.6669 -0.5135 -0.2320
 2929SOL     OW11447   0.482   5.242   3.266  0.4458 -0.0350 -0.2279
 2929SOL    HW211448   0.577   5.250   3.259  0.3141  0.1981 -2.5556
 2929SOL    HW311449   0.465   5.148   3.268  0.7114 -0.0770  0.0611
 2929SOL    MW411450   0.492   5.231   3.265  0.3785  0.7695 -0.3143
 2930SOL     OW11451   4.597   4.543   2.094 -0.0804  0.4748 -0.4622
 2930SOL    HW211452   4.624   4.530   2.003  0.9726  0.4536 -0.1596
 2930SOL    HW311453   4.538   4.470   2.112 -0.3006  0.4817 -1.1333
 2930SOL    MW411454   4.593   4.532   2.084  0.1116 -0.1572  0.2951
 2931SOL     OW11455   6.034   1.867   2.800  0.7871 -0.3687 -0.7853
 2931SOL    HW211456   6.110   1.809   2.800 -0.0070 -1.4352 -1.1406
 2931SOL    HW311457   6.064   1.945   2.752  0.8548 -1.9059 -3.4277
 2931SOL    MW411458   6.048   1.870   2.794 -0.5352  0.1744  0.5166
 2932SOL     OW11459   6.026   4.749   1.469 -0.1930  0.0920  0.4243
 2932SOL    HW211460   5.933   4.766   1.481 -0.6871 -2.6019  1.0836
 2932SOL    HW311461   6.070   4.808   1.530 -1.5425  0.6886  0.8475
 2932SOL    MW411462   6.019   4.759   1.479  0.5579 -0.7778  0.0806
 2933SOL     OW11463   3.729   2.594   1.502  0.0048 -0.8947 -0.2570
 2933SOL    HW211464   3.730   2.590   1.598  0.4685 -1.4278 -0.2803
 2933SOL    HW311465   3.747   2.505   1.474 -0.5661 -0.8327 -0.8496
 2933SOL    MW411466   3.732   2.582   1.511 -0.0924 -0.2130  0.4113
 2934SOL     OW11467   0.889   0.035   1.520 -0.1339  0.4917  0.2667
 2934SOL    HW211468   0.901   0.125   1.489 -0.5584  0.9577  1.4159
 2934SOL    HW311469   0.972  -0.009   1.500  0.1846  1.2144 -0.0216
 2934SOL    MW411470   0.901   0.041   1.513  0.3809  0.0023 -0.5941
 2935SOL     OW11471   1.444   5.811   0.724 -0.1114 -0.1700  0.0144
 2935SOL    HW211472   1.411   5.895   0.690 -1.0022 -0.1317  0.9225
 2935SOL    HW311473   1.372   5.778   0.777  0.6289 -1.0290  0.4944
 2935SOL    MW411474   1.430   5.818   0.726  0.1816  0.0300  0.3351
 2936SOL     OW11475   0.567   5.037   0.895  0.1136  0.1232  0.0550
 2936SOL    HW211476   0.511   5.114   0.880 -2.6821 -2.0799 -1.9386
 2936SOL    HW311477   0.549   5.012   0.985 -1.0166  0.3268 -0.0985
 2936SOL    MW411478   0.557   5.044   0.905 -0.1333 -0.2747  0.1479
 2937SOL     OW11479   1.689   4.982   1.899 -0.0123  0.6266 -0.1213
 2937SOL    HW211480   1.774   4.945   1.924  0.1626  1.2151  0.1753
 2937SOL    HW311481   1.710   5.066   1.857 -0.5304  2.1124  2.3792
 2937SOL    MW411482   1.703   4.988   1.897 -0.2022 -0.4756 -0.2405
 2938SOL     OW11483   2.387   2.547   2.931 -0.1148  0.1686  0.0474
 2938SOL    HW211484   2.404   2.622   2.988 -0.2656 -0.1649  0.5412
 2938SOL    HW311485   2.469   2.534   2.884  1.0100 -1.2621  2.2130
 2938SOL    MW411486   2.400   2.555   2.932  0.3849  0.0774 -0.3543
 2939SOL     OW11487   2.280   3.447   5.743  0.5207  0.3997 -0.6595
 2939SOL    HW211488   2.326   3.470   5.824 -1.3151  0.6104  0.3805
 2939SOL    HW311489   2.254   3.356   5.755 -0.3271  0.6282 -0.7096
 2939SOL    MW411490   2.283   3.438   5.755 -0.3146 -0.0943 -0.1601
 2940SOL     OW11491   5.190   1.055   2.313 -0.4801  0.0116  0.1955
 2940SOL    HW211492   5.242   1.129   2.281  1.7733 -1.5807 -0.0756
 2940SOL    HW311493   5.247   0.979   2.302 -2.6658 -1.7877  0.5495
 2940SOL    MW411494   5.204   1.055   2.307  0.1704 -0.5885  0.9647
 2941SOL     OW11495   1.727   6.253   5.569 -0.5547  0.1409  0.0298
 2941SOL    HW211496   1.768   6.167   5.562 -1.1154 -0.2385  1.1690
 2941SOL    HW311497   1.759   6.301   5.493  0.6331 -0.7050 -0.0288
 2941SOL    MW411498   1.736   6.248   5.558 -0.2388  0.0429  0.5456
 2942SOL     OW11499   1.715   1.406   6.074 -0.1542 -0.1593  0.3826
 2942SOL    HW211500   1.808   1.406   6.052 -0.2858  0.0674 -0.1926
 2942SOL    HW311501   1.675   1.352   6.005 -0.2121 -1.8944  1.6860
 2942SOL    MW411502   1.722   1.399   6.062 -0.5060  0.2222 -0.1022
 2943SOL     OW11503   2.122   5.390   3.050 -0.8062  0.2411  0.3923
 2943SOL    HW211504   2.123   5.295   3.035 -0.5558  0.2289  0.4829
 2943SOL    HW311505   2.190   5.425   2.992  0.1080  0.2009  1.3897
 2943SOL    MW411506   2.131   5.382   3.041  0.5838  0.1666 -0.0027
 2944SOL     OW11507   5.282   5.492   2.046 -0.0704 -0.1606 -0.0079
 2944SOL    HW211508   5.287   5.500   2.141  0.5666 -0.2045 -0.0300
 2944SOL    HW311509   5.328   5.410   2.026 -1.9742 -1.2441 -0.2043
 2944SOL    MW411510   5.289   5.482   2.056  0.2958 -0.0356  0.0175
 2945SOL     OW11511   6.374   1.897   0.562 -0.0578 -0.3121 -0.8724
 2945SOL    HW211512   6.374   1.993   0.554  1.3753 -0.2358 -0.3834
 2945SOL    HW311513   6.341   1.880   0.650 -1.0622 -0.3180 -1.2437
 2945SOL    MW411514   6.370   1.908   0.572  0.1388  0.0734 -0.0610
 2946SOL     OW11515   2.313   4.497   0.269  0.5654 -0.4183 -0.3445
 2946SOL    HW211516   2.308   4.579   0.220  1.1542 -0.2333 -0.1085
 2946SOL    HW311517   2.281   4.430   0.208  1.5128 -0.2271 -1.0734
 2946SOL    MW411518   2.308   4.499   0.255 -0.4302  0.4105 -0.3106
 2947SOL     OW11519   3.085   3.454   0.094 -0.0241  0.0539 -0.6699
 2947SOL    HW211520   3.011   3.489   0.145 -0.3460  0.7011 -1.5625
 2947SOL    HW311521   3.045   3.405   0.023  0.4276 -0.8765 -0.2981
 2947SOL    MW411522   3.070   3.452   0.092 -0.6586 -0.1468  0.1730
 2948SOL     OW11523   0.053   0.729   2.985 -0.3229  0.6982 -0.4696
 2948SOL    HW211524  -0.026   0.718   2.933 -0.3176 -0.4306 -0.2656
 2948SOL    HW311525   0.099   0.645   2.976 -0.0642  0.6743  0.9055
 2948SOL    MW411526   0.049   0.716   2.977  0.2437 -0.0244  0.5729
 2949SOL     OW11527   3.111   1.780   6.426  0.2471 -0.2060  0.3429
 2949SOL    HW211528   3.107   1.789   6.331  0.0179  0.4752  0.4113
 2949SOL    HW311529   3.168   1.851   6.455 -0.3565  0.1152  0.7797
 2949SOL    MW411530   3.118   1.791   6.417 -0.0277 -0.1350 -0.1047
 2950SOL     OW11531   5.552   5.762   1.764  0.3887  0.3408 -0.7522
 2950SOL    HW211532   5.475   5.732   1.714 -0.6622  0.9669  0.4202
 2950SOL    HW311533   5.539   5.725   1.852  0.8659  1.3424 -0.2448
 2950SOL    MW411534   5.540   5.753   1.769  0.8765  0.3730  0.1285
 2951SOL     OW11535   6.116   4.427   1.755 -0.1049 -0.0799  0.0419
 2951SOL    HW211536   6.116   4.331   1.759 -1.1855 -0.1819 -1.4895
 2951SOL    HW311537   6.135   4.447   1.663 -0.2046  1.1693  0.2758
 2951SOL    MW411538   6.119   4.417   1.743 -0.3242 -0.5328 -0.7192
 2952SOL     OW11539   4.023   3.746   0.942 -0.1014  0.2109  0.1198
 2952SOL    HW211540   4.035   3.774   0.852 -0.8655  0.6015  0.1347
 2952SOL    HW311541   4.090   3.678   0.955 -1.0298 -1.0174 -1.2373
 2952SOL    MW411542   4.034   3.741   0.932 -0.4686 -0.1121 -0.5274
 2953SOL     OW11543   1.615   5.543   1.605 -0.7600 -0.3355  0.2164
 2953SOL    HW211544   1.617   5.639   1.600  0.9030 -0.3791 -0.6090
 2953SOL    HW311545   1.522   5.521   1.601 -1.1451  1.0802 -3.8513
 2953SOL    MW411546   1.603   5.553   1.604  0.0891  0.1044  0.0931
 2954SOL     OW11547   6.240   1.776   6.094  0.7428  0.1253  0.2635
 2954SOL    HW211548   6.277   1.860   6.069  0.3786  0.0009 -0.7147
 2954SOL    HW311549   6.154   1.773   6.053  1.1751 -1.1673 -0.6171
 2954SOL    MW411550   6.233   1.786   6.086  0.1169 -0.1276  0.1346
 2955SOL     OW11551   4.049   0.242   5.092 -0.0273 -0.2321  0.0295
 2955SOL    HW211552   4.124   0.222   5.148  1.5295 -2.4838 -2.5817
 2955SOL    HW311553   4.067   0.194   5.011 -4.2974 -0.8116 -0.7734
 2955SOL    MW411554   4.061   0.233   5.089  0.5465  0.4102 -0.0826
 2956SOL     OW11555   3.647   2.080   1.135  0.1388  0.0203 -0.0258
 2956SOL    HW211556   3.554   2.067   1.154 -0.2095  0.9261 -1.0231
 2956SOL    HW311557   3.692   2.017   1.191 -0.9332  1.1544  2.2133
 2956SOL    MW411558   3.641   2.070   1.145  0.3053 -0.0052 -0.3691
 2957SOL     OW11559   4.152   0.525   2.038 -0.2670 -0.6955  0.2751
 2957SOL    HW211560   4.133   0.434   2.017 -0.0618 -0.3364 -1.7091
 2957SOL    HW311561   4.235   0.522   2.086  1.5262 -1.4136 -2.6083
 2957SOL    MW411562   4.161   0.513   2.041  0.2058  0.4201 -0.6403
 2958SOL     OW11563   5.897   4.409   1.943 -1.0218  0.3055 -0.0284
 2958SOL    HW211564   5.844   4.344   1.896 -0.3799 -0.2726  0.0394
 2958SOL    HW311565   5.978   4.415   1.893 -0.5415  0.0680  0.7188
 2958SOL    MW411566   5.901   4.401   1.930  0.7682 -0.4651 -0.6047
 2959SOL     OW11567   1.158   6.180   2.877  0.0945  0.1047  1.0287
 2959SOL    HW211568   1.093   6.246   2.903  1.7357  1.3940  2.0990
 2959SOL    HW311569   1.107   6.110   2.838 -2.0247  0.6790  2.6029
 2959SOL    MW411570   1.143   6.180   2.876  0.3117 -0.2187  0.5890
 2960SOL     OW11571   4.977   4.487   1.273 -0.6616  0.2969  0.5135
 2960SOL    HW211572   4.958   4.497   1.367 -2.6822  0.4089  0.1290
 2960SOL    HW311573   5.052   4.544   1.258  0.4785 -0.6308  2.2744
 2960SOL    MW411574   4.985   4.496   1.284 -0.5438  0.1993  0.3802
 2961SOL     OW11575   3.241   0.548   3.947  0.7165 -0.1918 -0.0213
 2961SOL    HW211576   3.286   0.463   3.945 -0.2978 -0.8059  1.2855
 2961SOL    HW311577   3.213   0.557   4.038  0.4314  1.3661 -0.2403
 2961SOL    MW411578   3.243   0.538   3.959  0.0186  0.1589  0.5965
 2962SOL     OW11579   2.485   1.527   5.157 -0.3547  0.3698 -0.9369
 2962SOL    HW211580   2.435   1.460   5.110  0.3634 -0.9172  0.0539
 2962SOL    HW311581   2.567   1.535   5.108  0.0694 -0.4026 -0.3780
 2962SOL    MW411582   2.489   1.519   5.144  0.5360 -0.5200 -0.7123
 2963SOL     OW11583   0.079   3.082   1.715  0.6212  0.1384 -0.9105
 2963SOL    HW211584   0.084   3.082   1.619  1.5373  1.7040 -0.9012
 2963SOL    HW311585   0.076   3.175   1.738  1.3084 -0.1946  0.6161
 2963SOL    MW411586   0.079   3.094   1.705 -0.3169  0.4152 -0.8518
 2964SOL     OW11587   3.493   6.087   1.777  0.0369  0.4189  0.8858
 2964SOL    HW211588   3.485   6.006   1.725  0.7258  0.7869  0.1926
 2964SOL    HW311589   3.420   6.142   1.747  2.0556  1.8125 -1.8924
 2964SOL    MW411590   3.482   6.083   1.766  0.3938 -0.5842 -0.3205
 2965SOL     OW11591   3.865   5.354   1.029 -0.7631 -0.3370  0.4678
 2965SOL    HW211592   3.911   5.270   1.019  0.4034  0.1795  1.2987
 2965SOL    HW311593   3.781   5.330   1.067 -0.1574 -1.0816  1.4013
 2965SOL    MW411594   3.860   5.340   1.032 -0.0076  0.4838 -0.0560
 2966SOL     OW11595   6.247   4.881   4.403 -0.2598 -0.2819 -0.1049
 2966SOL    HW211596   6.167   4.933   4.402  0.2075  0.4933  0.7555
 2966SOL    HW311597   6.263   4.864   4.496  0.6377 -0.3070 -0.2563
 2966SOL    MW411598   6.239   4.886   4.415 -0.0420  0.0320 -0.0192
 2967SOL     OW11599   6.152   3.639   0.449 -0.1391  0.1029  0.7365
 2967SOL    HW211600   6.100   3.628   0.529  1.8348 -2.2665  1.8464
 2967SOL    HW311601   6.128   3.564   0.394  1.6142 -0.7423  1.0505
 2967SOL    MW411602   6.142   3.627   0.452  0.2151  0.5463 -0.2758
 2968SOL     OW11603   2.200   0.663   4.456 -0.1766 -0.0337 -0.2117
 2968SOL    HW211604   2.155   0.682   4.538 -0.3523 -0.1270 -0.2864
 2968SOL    HW311605   2.207   0.749   4.413 -0.1344  0.0067 -0.1248
 2968SOL    MW411606   2.195   0.677   4.461  0.5476 -0.1766  0.2293
 2969SOL     OW11607   3.157   5.347   6.375  0.1203 -0.0005 -0.4222
 2969SOL    HW211608   3.228   5.383   6.323 -1.0462  0.6056 -1.6562
 2969SOL    HW311609   3.128   5.419   6.431 -0.0710  0.0038 -0.5254
 2969SOL    MW411610   3.162   5.361   6.376  0.3341  0.0248 -0.6103
 2970SOL     OW11611   5.197   2.347   4.005 -0.1349 -0.2033 -0.6690
 2970SOL    HW211612   5.263   2.410   3.976  0.9981 -1.0391 -0.0270
 2970SOL    HW311613   5.129   2.400   4.047  0.9505  0.5898  0.1588
 2970SOL    MW411614   5.197   2.362   4.007 -0.3889  0.6505 -0.6109
 2971SOL     OW11615   4.265   4.835   4.214  0.0348  0.2399 -0.3018
 2971SOL    HW211616   4.345   4.783   4.220  1.4826  2.4757  1.6390
 2971SOL    HW311617   4.246   4.861   4.304 -1.6432  1.5766 -0.9807
 2971SOL    MW411618   4.273   4.831   4.227  0.5101  0.0253 -0.1329
 2972SOL     OW11619   4.290   0.799   4.936  0.3404 -1.3663  0.2162
 2972SOL    HW211620   4.359   0.805   5.002 -0.1339 -1.9722  0.7895
 2972SOL    HW311621   4.312   0.866   4.872  0.0616  0.2455  1.7120
 2972SOL    MW411622   4.302   0.809   4.936  0.1158 -0.3188 -0.1577
 2973SOL     OW11623   3.771   4.891   6.003 -0.2699  0.7489  0.2812
 2973SOL    HW211624   3.702   4.891   6.070 -0.4913  1.0740  0.0556
 2973SOL    HW311625   3.729   4.930   5.926 -0.2441 -0.3011 -0.2775
 2973SOL    MW411626   3.756   4.896   6.001 -0.2839 -0.3430 -0.0087
 2974SOL     OW11627   5.970   5.978   1.159 -0.1630  0.3027 -0.0366
 2974SOL    HW211628   6.012   5.892   1.157 -1.1213 -0.2677  1.9114
 2974SOL    HW311629   5.934   5.985   1.247 -0.4208  2.5725 -0.2595
 2974SOL    MW411630   5.971   5.968   1.170 -0.1061  0.3362  0.7871
 2975SOL     OW11631   0.845   5.680   2.220 -0.8611 -0.2501 -0.1423
 2975SOL    HW211632   0.775   5.665   2.156 -0.8489  0.3806 -0.3115
 2975SOL    HW311633   0.907   5.608   2.206 -0.4872  0.2819 -1.3505
 2975SOL    MW411634   0.844   5.669   2.210 -0.1471 -0.3891  0.5814
 2976SOL     OW11635   6.333   1.132   4.177 -0.1526  0.0567  0.1920
 2976SOL    HW211636   6.415   1.181   4.169 -0.3954  0.6842  1.3193
 2976SOL    HW311637   6.361   1.041   4.189  0.2880 -0.6302 -4.2589
 2976SOL    MW411638   6.348   1.127   4.178 -0.1972  0.7373  0.0660
 2977SOL     OW11639   6.167   4.025   2.834  0.1572 -0.7027 -0.9714
 2977SOL    HW211640   6.132   3.959   2.893  1.1132 -1.4420 -1.2191
 2977SOL    HW311641   6.162   4.107   2.883  1.3599 -1.3734  0.3247
 2977SOL    MW411642   6.162   4.027   2.848 -0.3811  0.1520  0.1193
 2978SOL     OW11643   0.341   2.646   3.180 -0.5163  0.3638  0.3993
 2978SOL    HW211644   0.287   2.608   3.250 -0.5065 -2.0850 -0.8370
 2978SOL    HW311645   0.425   2.665   3.223 -1.1746  0.8759  1.5150
 2978SOL    MW411646   0.345   2.644   3.195 -0.1050 -1.0145 -0.2292
 2979SOL     OW11647   6.070   4.649   0.517 -0.1109 -0.1406  0.1069
 2979SOL    HW211648   6.123   4.711   0.567 -1.6713 -0.3646  2.2353
 2979SOL    HW311649   6.099   4.659   0.427  1.9733  1.2765  0.8498
 2979SOL    MW411650   6.081   4.658   0.512  0.0534 -0.7472 -0.1359
 2980SOL     OW11651   1.685   4.745   5.361 -0.2838  0.0300  0.0911
 2980SOL    HW211652   1.705   4.739   5.267 -1.1719  0.0781 -0.1076
 2980SOL    HW311653   1.766   4.777   5.400  0.5031 -1.1567 -0.4941
 2980SOL    MW411654   1.698   4.748   5.354  0.7004  0.3307 -0.4432
 2981SOL     OW11655   6.380   5.461   5.093 -0.8486  0.0540  0.7666
 2981SOL    HW211656   6.353   5.380   5.049  0.5320  0.3613 -0.7928
 2981SOL    HW311657   6.423   5.431   5.173  0.9731 -0.9513 -0.4835
 2981SOL    MW411658   6.382   5.446   5.097  0.5912  0.8799  0.3096
 2982SOL     OW11659   5.574   2.284   5.652  0.1540 -0.2597  0.0858
 2982SOL    HW211660   5.546   2.278   5.743  0.4884 -0.5716  0.1704
 2982SOL    HW311661   5.669   2.294   5.657  0.0105  1.6568 -0.1631
 2982SOL    MW411662   5.583   2.284   5.665 -0.2866 -0.4966  0.6239
 2983SOL     OW11663   1.500   5.854   5.708  0.7544 -0.1877  0.5487
 2983SOL    HW211664   1.447   5.786   5.748  0.0576  0.7403  1.2352
 2983SOL    HW311665   1.526   5.817   5.623  0.6565 -1.4151  1.0387
 2983SOL    MW411666   1.497   5.840   5.702  0.1180 -0.8775 -0.0632
 2984SOL     OW11667   1.973   5.279   1.073  0.2948 -0.0924  0.0174
 2984SOL    HW211668   1.972   5.207   1.136  2.0800 -2.9223 -2.8667
 2984SOL    HW311669   1.881   5.299   1.058 -0.2722 -1.9926  0.7233
 2984SOL    MW411670   1.961   5.272   1.080  0.2402  0.2346  0.1187
 2985SOL     OW11671   5.811   4.963   4.672  0.8902 -0.0983  0.3437
 2985SOL    HW211672   5.872   4.936   4.740  0.0129 -0.0645  1.1747
 2985SOL    HW311673   5.726   4.970   4.717  0.1492 -0.7256 -0.8919
 2985SOL    MW411674   5.808   4.960   4.687 -0.6734 -0.1990  0.1378
 2986SOL     OW11675   0.407   3.082   1.546  0.2186 -0.4992 -0.2642
 2986SOL    HW211676   0.375   3.169   1.521 -0.6287 -1.0568 -1.1919
 2986SOL    HW311677   0.373   3.024   1.478 -1.0634 -1.8982  1.4819
 2986SOL    MW411678   0.398   3.086   1.534 -0.2126  0.9464  1.1730
 2987SOL     OW11679   2.898   4.186   4.792  0.9986  0.2388  0.1904
 2987SOL    HW211680   2.938   4.181   4.879  0.0809 -0.8920  0.5633
 2987SOL    HW311681   2.947   4.123   4.739  0.1643 -0.6806  0.4815
 2987SOL    MW411682   2.910   4.177   4.796 -0.1941 -0.7879  0.6629
 2988SOL     OW11683   1.485   2.860   0.072 -0.0398  0.0950 -0.5105
 2988SOL    HW211684   1.427   2.917   0.123 -1.7761 -1.2928 -0.8477
 2988SOL    HW311685   1.550   2.920   0.034 -1.2239  1.7103 -0.0891
 2988SOL    MW411686   1.486   2.876   0.074 -0.2975  0.7423 -0.2111
 2989SOL     OW11687   4.535   4.733   2.525  0.1693  0.2533 -0.4969
 2989SOL    HW211688   4.583   4.738   2.607  0.6320  0.0341 -0.7528
 2989SOL    HW311689   4.586   4.674   2.470 -0.3353  0.1021 -0.8109
 2989SOL    MW411690   4.548   4.726   2.528 -0.5531  0.1035  0.2198
 2990SOL     OW11691   5.032   1.249   5.530  0.2704 -0.2949 -0.7784
 2990SOL    HW211692   4.959   1.266   5.589  0.2006 -1.5733 -0.4747
 2990SOL    HW311693   5.094   1.320   5.547 -0.6973  0.5508 -0.7261
 2990SOL    MW411694   5.030   1.260   5.540 -0.2814 -0.6235  0.2898
 2991SOL     OW11695   3.090   2.482   2.816  0.4363 -0.5451  0.3697
 2991SOL    HW211696   3.058   2.494   2.906 -0.4958  0.2333 -0.0439
 2991SOL    HW311697   3.182   2.509   2.820  0.3922 -0.4613  1.0797
 2991SOL    MW411698   3.098   2.487   2.829  0.1239 -0.1029  0.1831
 2992SOL     OW11699   0.192   6.258   0.099  0.6049 -0.1752  0.5918
 2992SOL    HW211700   0.287   6.263   0.086  0.5651 -1.2614 -0.2416
 2992SOL    HW311701   0.171   6.336   0.150  1.8731  0.3495  0.3527
 2992SOL    MW411702   0.202   6.269   0.104 -0.0304  0.2574 -0.2273
 2993SOL     OW11703   2.737   6.382   0.756 -0.1872 -0.0328  0.0477
 2993SOL    HW211704   2.684   6.307   0.730 -1.5011 -0.0220  2.4270
 2993SOL    HW311705   2.682   6.458   0.737 -0.1169  0.1259  0.4854
 2993SOL    MW411706   2.723   6.382   0.750  0.1027  0.3988  0.0132
 2994SOL     OW11707   1.487   3.187   0.843 -0.0419  0.0798 -0.0696
 2994SOL    HW211708   1.531   3.108   0.875  1.4207  1.3413  1.2487
 2994SOL    HW311709   1.398   3.159   0.822  0.8943 -2.2350 -1.2270
 2994SOL    MW411710   1.481   3.173   0.845 -0.3470  0.0395  0.2928
 2995SOL     OW11711   3.674   3.172   1.500  0.2894 -0.2731 -0.6456
 2995SOL    HW211712   3.736   3.100   1.491  0.2125 -0.7586  1.8764
 2995SOL    HW311713   3.592   3.138   1.465  0.1213 -1.6868  0.9610
 2995SOL    MW411714   3.672   3.158   1.494 -0.1770 -0.1844  0.1143
 2996SOL     OW11715   2.424   1.482   1.023 -0.5870  0.7022  0.5057
 2996SOL    HW211716   2.412   1.564   1.071  2.4641  1.4325  0.2433
 2996SOL    HW311717   2.506   1.495   0.974  0.2199 -2.6140  0.7303
 2996SOL    MW411718   2.434   1.495   1.023  0.2177 -0.2575  0.2686
 2997SOL     OW11719   1.488   6.112   5.195  0.0301  0.6837  1.4413
 2997SOL    HW211720   1.534   6.195   5.183 -2.6343  2.0270 -0.6683
 2997SOL    HW311721   1.531   6.051   5.134  0.4318  1.2465  1.1536
 2997SOL    MW411722   1.500   6.115   5.185 -0.1582 -0.8753 -0.5618
 2998SOL     OW11723   0.496   1.733   2.217  0.2925 -0.3821  0.3705
 2998SOL    HW211724   0.439   1.747   2.141  0.5021 -0.7706  0.1419
 2998SOL    HW311725   0.468   1.800   2.279  1.5291  1.3548 -0.8455
 2998SOL    MW411726   0.485   1.744   2.215 -0.1158  0.6104  0.3867
 2999SOL     OW11727   0.280   1.296   5.889 -0.5857 -0.2665  0.4189
 2999SOL    HW211728   0.349   1.356   5.861 -1.1475  1.3291  2.2539
 2999SOL    HW311729   0.275   1.231   5.819  1.1768  0.8832 -0.8590
 2999SOL    MW411730   0.288   1.295   5.876  0.4354 -0.1883 -0.6138
 3000SOL     OW11731   1.734   5.785   6.087  0.1667  0.1602 -0.2375
 3000SOL    HW211732   1.707   5.864   6.039 -1.3206  1.2442  2.1967
 3000SOL    HW311733   1.828   5.794   6.097  0.2265  0.8574 -1.2939
 3000SOL    MW411734   1.743   5.797   6.082 -0.5324  0.7259 -0.2947
 3001SOL     OW11735   0.759   4.934   2.849  0.7431  0.1644 -0.1440
 3001SOL    HW211736   0.778   4.960   2.759 -1.4329 -1.6055 -1.1939
 3001SOL    HW311737   0.739   5.016   2.894  3.5908  1.2978 -0.7161
 3001SOL    MW411738   0.759   4.948   2.843 -0.7701 -0.1198  0.5517
 3002SOL     OW11739   2.660   6.435   2.405 -0.1492  0.1164 -0.0950
 3002SOL    HW211740   2.726   6.480   2.458 -0.3877  2.0307 -1.3291
 3002SOL    HW311741   2.581   6.487   2.417 -0.6943 -0.5245 -0.8522
 3002SOL    MW411742   2.658   6.448   2.414 -0.2982 -0.0458 -0.4378
 3003SOL     OW11743   5.440   3.072   2.419 -0.9354  0.4839  0.1643
 3003SOL    HW211744   5.405   3.127   2.349 -1.4658  1.4459  1.1505
 3003SOL    HW311745   5.377   3.082   2.491 -0.3356 -0.3736  0.8269
 3003SOL    MW411746   5.427   3.081   2.419 -0.4579 -0.2222 -0.0194
 3004SOL     OW11747   1.066   4.173   0.941  0.1543 -0.1995  0.5620
 3004SOL    HW211748   0.982   4.176   0.986  0.5138 -0.1702  1.2492
 3004SOL    HW311749   1.080   4.080   0.921  0.3798 -0.3225  1.2695
 3004SOL    MW411750   1.057   4.161   0.944  0.1309  0.1219  0.5971
 3005SOL     OW11751   3.053   0.339   0.019  0.6836  0.2610 -0.5586
 3005SOL    HW211752   2.993   0.271   0.048  1.2031  0.0040 -0.0616
 3005SOL    HW311753   2.996   0.407  -0.018  0.0616  0.1889  0.2367
 3005SOL    MW411754   3.038   0.339   0.018  0.5356 -0.3529 -0.2051
 3006SOL     OW11755   5.866   1.933   5.647 -0.1844 -0.2089 -0.4212
 3006SOL    HW211756   5.817   1.975   5.576 -0.9595  0.1087  0.2838
 3006SOL    HW311757   5.938   1.992   5.665  0.4983 -0.6813 -1.4736
 3006SOL    MW411758   5.869   1.946   5.640 -0.2036 -0.0634  0.3744
 3007SOL     OW11759   3.467   1.933   0.760  0.5992  0.4000 -0.0936
 3007SOL    HW211760   3.478   1.840   0.737 -1.4621 -0.0031  0.4097
 3007SOL    HW311761   3.469   1.978   0.675 -0.4234 -0.3456 -0.5330
 3007SOL    MW411762   3.469   1.927   0.746  0.8262  0.1122 -0.7544
 3008SOL     OW11763   6.009   6.408   5.364 -0.4597 -0.1564  0.5875
 3008SOL    HW211764   5.988   6.315   5.374  1.4315 -0.7784 -0.6995
 3008SOL    HW311765   5.924   6.450   5.345 -1.0353 -2.0379 -1.3750
 3008SOL    MW411766   5.995   6.402   5.362  0.1184  0.0178 -0.1480
 3009SOL     OW11767   3.971   3.863   5.096  0.3555  0.4935 -0.1609
 3009SOL    HW211768   3.987   3.769   5.097 -0.7432  0.2847 -0.6771
 3009SOL    HW311769   3.876   3.871   5.102  0.4544  1.5793  0.1247
 3009SOL    MW411770   3.960   3.852   5.097  0.2962 -0.8644  0.0240
 3010SOL     OW11771   3.181   0.949   3.547 -0.0222  0.5868  0.3447
 3010SOL    HW211772   3.153   0.862   3.519  1.0944  1.1465 -2.8976
 3010SOL    HW311773   3.277   0.947   3.543  0.0744  2.8461 -3.4728
 3010SOL    MW411774   3.190   0.937   3.543 -0.9407  0.4519  0.2012
 3011SOL     OW11775   2.127   4.284   0.167  0.5542  0.0241 -0.3952
 3011SOL    HW211776   2.104   4.215   0.229 -2.4344  1.9436  0.8309
 3011SOL    HW311777   2.105   4.248   0.081 -1.5908 -0.3853  0.2860
 3011SOL    MW411778   2.121   4.270   0.164 -0.6428 -0.3302  0.3175
 3012SOL     OW11779   3.309   5.082   2.221 -0.2378 -0.0593  0.0517
 3012SOL    HW211780   3.402   5.092   2.204 -0.5527 -0.3361 -2.2200
 3012SOL    HW311781   3.266   5.130   2.150 -1.8444  0.5664  1.3689
 3012SOL    MW411782   3.315   5.090   2.209  0.0628  0.0507 -0.3949
 3013SOL     OW11783   1.563   1.490   0.062 -0.3362 -0.1883  0.0732
 3013SOL    HW211784   1.648   1.490   0.018 -0.4693  0.5910 -0.2161
 3013SOL    HW311785   1.531   1.400   0.055 -0.6845  0.0362 -2.1162
 3013SOL    MW411786   1.570   1.478   0.055  0.0031 -0.1884 -0.3741
 3014SOL     OW11787   5.221   0.217   0.215  0.4116  0.2285  0.1039
 3014SOL    HW211788   5.227   0.214   0.119  0.2209  0.5140  0.0819
 3014SOL    HW311789   5.170   0.295   0.233 -1.0177 -0.7454  0.3881
 3014SOL    MW411790   5.215   0.227   0.205  0.1341 -0.0696  0.4426
 3015SOL     OW11791   5.650   5.401   0.015 -0.3971 -0.3325 -0.3051
 3015SOL    HW211792   5.665   5.445   0.098  0.8848 -2.2279  0.5274
 3015SOL    HW311793   5.556   5.380   0.016 -0.3602 -0.5009  0.7434
 3015SOL    MW411794   5.639   5.404   0.026 -0.2747  0.1824  0.5985
 3016SOL     OW11795   3.518   3.380   6.397  0.0237 -0.3040  0.4289
 3016SOL    HW211796   3.537   3.470   6.371  2.0904 -0.7738  0.1653
 3016SOL    HW311797   3.463   3.346   6.326  0.2273  0.3813 -0.0730
 3016SOL    MW411798   3.513   3.387   6.384  0.6635  0.2135  0.0221
 3017SOL     OW11799   4.308   6.241   5.262 -0.5379 -0.1116  0.3881
 3017SOL    HW211800   4.224   6.273   5.293 -0.9220 -0.1635 -0.5714
 3017SOL    HW311801   4.363   6.239   5.340 -1.3222  0.2425  0.9628
 3017SOL    MW411802   4.304   6.245   5.276 -0.4899  0.0975  0.2493
 3018SOL     OW11803   5.935   2.705   4.311  0.0861  0.1210 -0.0876
 3018SOL    HW211804   5.919   2.661   4.394 -1.4655  1.0962  0.1704
 3018SOL    HW311805   6.011   2.761   4.328 -0.0307  0.0873  0.5711
 3018SOL    MW411806   5.943   2.707   4.324  0.7482  0.2615 -0.2477
 3019SOL     OW11807   6.378   0.654   1.177 -0.1927  0.1168  0.0737
 3019SOL    HW211808   6.398   0.675   1.085  0.3288 -0.1866  0.1183
 3019SOL    HW311809   6.431   0.715   1.228  0.7941 -0.8106  0.1932
 3019SOL    MW411810   6.388   0.665   1.171 -0.1432 -0.4129  0.5890
 3020SOL     OW11811   5.338   0.070   5.248  0.1293 -0.3701 -0.5291
 3020SOL    HW211812   5.281  -0.008   5.253 -0.0095 -0.2870 -0.8055
 3020SOL    HW311813   5.295   0.127   5.185 -0.3029  0.3729  0.4103
 3020SOL    MW411814   5.324   0.067   5.240 -0.5071 -0.8527  0.5496
 3021SOL     OW11815   1.846   5.685   3.201 -0.3841 -0.2244 -0.1294
 3021SOL    HW211816   1.833   5.778   3.220  2.2101  0.3093 -0.6783
 3021SOL    HW311817   1.810   5.674   3.112 -0.6894  0.2426 -0.0672
 3021SOL    MW411818   1.839   5.696   3.192  0.3494  0.2303 -0.1536
 3022SOL     OW11819   3.496   4.573   2.144  0.0018  0.5871  0.3528
 3022SOL    HW211820   3.471   4.599   2.233 -0.5974 -0.4675  0.5159
 3022SOL    HW311821   3.428   4.610   2.088 -1.3866 -1.3073  0.6788
 3022SOL    MW411822   3.484   4.581   2.148 -0.1332  0.2858 -0.4582
 3023SOL     OW11823   1.967   2.995   6.161 -0.3496  0.2905 -0.2606
 3023SOL    HW211824   1.972   3.083   6.123  0.3713  0.2006 -0.3837
 3023SOL    HW311825   1.977   2.936   6.087  2.3644  0.1107  0.1450
 3023SOL    MW411826   1.969   2.999   6.146  0.6772  0.0117 -0.2102
 3024SOL     OW11827   5.910   3.419   3.411 -0.6921 -0.2994 -0.2566
 3024SOL    HW211828   6.005   3.420   3.402 -0.7485  1.7338 -1.1150
 3024SOL    HW311829   5.888   3.326   3.419  1.3432 -0.8146 -0.0300
 3024SOL    MW411830   5.920   3.407   3.411 -0.2221 -0.4679 -0.7767
 3025SOL     OW11831   1.124   5.906   1.546  0.1516 -0.3288  0.4230
 3025SOL    HW211832   1.068   5.962   1.600 -1.1958 -0.5681 -0.7005
 3025SOL    HW311833   1.065   5.863   1.486  1.5747 -0.3968 -0.9942
 3025SOL    MW411834   1.109   5.908   1.545  0.6189 -0.3612  0.5001
 3026SOL     OW11835   0.565   5.905   5.662 -0.0688 -0.3167 -0.2560
 3026SOL    HW211836   0.560   5.810   5.658 -0.2080 -0.3504  0.5248
 3026SOL    HW311837   0.603   5.923   5.748  2.0141  0.2800 -1.2375
 3026SOL    MW411838   0.570   5.895   5.673 -0.0490  0.7684 -0.0862
 3027SOL     OW11839   5.991   5.142   5.325  0.2794  0.1145 -0.6563
 3027SOL    HW211840   6.030   5.210   5.271 -1.0673  0.0115 -1.8239
 3027SOL    HW311841   6.028   5.060   5.291  2.9966  0.2433  1.6674
 3027SOL    MW411842   6.001   5.140   5.314 -0.2085  0.6382  0.2139
 3028SOL     OW11843   0.859   3.341   5.306 -0.6633  0.0214  0.2265
 3028SOL    HW211844   0.849   3.287   5.384  0.4968  0.3995  0.6575
 3028SOL    HW311845   0.859   3.280   5.233  0.5276 -0.5509  0.6973
 3028SOL    MW411846   0.857   3.326   5.307 -0.5910  0.4555 -0.0211
 3029SOL     OW11847   3.050   0.442   3.404 -0.1051 -0.2880  0.2186
 3029SOL    HW211848   2.967   0.436   3.451  0.4388 -0.9253  1.1256
 3029SOL    HW311849   3.087   0.526   3.432 -0.0844 -0.3674  0.4333
 3029SOL    MW411850   3.044   0.452   3.414 -0.1561 -0.3592 -0.0028
 3030SOL     OW11851   3.861   1.540   2.165  0.4528  0.3459 -0.1155
 3030SOL    HW211852   3.827   1.536   2.076 -0.3475 -0.2311  0.2086
 3030SOL    HW311853   3.890   1.631   2.176 -1.6129  1.0461 -0.1672
 3030SOL    MW411854   3.861   1.551   2.155 -0.0782 -0.2227  0.0708
 3031SOL     OW11855   0.192   0.312   2.025 -0.5569 -0.0415  0.3968
 3031SOL    HW211856   0.104   0.327   1.991 -0.0351  0.9863 -0.5835
 3031SOL    HW311857   0.231   0.399   2.029  0.8500 -0.5989 -0.4405
 3031SOL    MW411858   0.186   0.326   2.021  0.6263 -0.1273  0.4083
 3032SOL     OW11859   1.015   6.339   2.101 -0.1615  0.1980 -0.4533
 3032SOL    HW211860   0.948   6.375   2.042 -1.2086 -1.5501 -0.4026
 3032SOL    HW311861   1.030   6.250   2.069 -0.3269 -0.6019  1.5381
 3032SOL    MW411862   1.008   6.332   2.089 -0.0154 -0.0572  0.2431
 3033SOL     OW11863   5.181   5.827   3.748  0.1745 -0.0505 -0.1983
 3033SOL    HW211864   5.111   5.890   3.765  2.0222  2.1886 -0.3859
 3033SOL    HW311865   5.235   5.828   3.828  0.8220 -0.5968 -0.6088
 3033SOL    MW411866   5.179   5.835   3.761  0.0045 -0.1794  0.0833
 3034SOL     OW11867   5.490   2.452   3.313 -0.2006 -0.3060  0.5983
 3034SOL    HW211868   5.498   2.358   3.296  0.8925 -0.3065  0.9959
 3034SOL    HW311869   5.581   2.483   3.317 -0.5593  1.0143 -0.7918
 3034SOL    MW411870   5.503   2.444   3.311  0.3096 -0.3710  0.4667
 3035SOL     OW11871   4.951   2.462   5.765  0.1266 -0.0783 -0.2066
 3035SOL    HW211872   5.011   2.408   5.713 -1.0833 -1.0871 -0.6005
 3035SOL    HW311873   5.003   2.539   5.789  1.2948 -0.4962 -1.2833
 3035SOL    MW411874   4.966   2.465   5.761 -0.2161 -0.7514 -0.6819
 3036SOL     OW11875   4.560   3.774   5.652  0.0068  0.2163 -0.0322
 3036SOL    HW211876   4.628   3.797   5.588  1.0803 -0.9111  0.6710
 3036SOL    HW311877   4.562   3.679   5.656  0.8535  0.2674  2.5854
 3036SOL    MW411878   4.569   3.764   5.644 -0.0008 -0.0589 -0.4792
 3037SOL     OW11879   5.267   5.942   1.377 -0.3713  0.7257 -0.1066
 3037SOL    HW211880   5.272   6.003   1.450  0.2524  1.1465 -0.4919
 3037SOL    HW311881   5.348   5.958   1.327  0.0406 -0.7469  0.0516
 3037SOL    MW411882   5.279   5.952   1.380 -0.0857 -0.5515 -0.5527
 3038SOL     OW11883   3.486   4.681   4.811  0.1390  0.0874 -0.4435
 3038SOL    HW211884   3.545   4.619   4.853  0.5756  1.4401  1.0479
 3038SOL    HW311885   3.403   4.670   4.857 -0.0266  0.0210 -0.7538
 3038SOL    MW411886   3.483   4.671   4.822 -0.2245 -0.1134 -0.2873
 3039SOL     OW11887   1.599   4.052   1.167 -0.3919 -0.0391  0.1261
 3039SOL    HW211888   1.652   3.976   1.188 -0.1707  0.2351  0.5997
 3039SOL    HW311889   1.509   4.025   1.185 -0.3638 -0.3444 -0.1899
 3039SOL    MW411890   1.594   4.039   1.172  0.7992 -0.2797 -0.3743
 3040SOL     OW11891   1.749   0.346   2.754  0.2881  0.1969 -0.1107
 3040SOL    HW211892   1.725   0.253   2.756  1.7554 -0.2431 -1.0531
 3040SOL    HW311893   1.700   0.381   2.679  1.1515 -0.2746 -0.9168
 3040SOL    MW411894   1.739   0.339   2.744  0.6360  0.3460  0.4725
 3041SOL     OW11895   4.418   1.407   6.298 -0.0446  0.9536 -0.0055
 3041SOL    HW211896   4.418   1.481   6.236  2.6131  0.4222 -0.7939
 3041SOL    HW311897   4.398   1.446   6.382 -2.1100  1.9825 -0.9064
 3041SOL    MW411898   4.415   1.422   6.301  0.7626  0.5440  0.1093
 3042SOL     OW11899   1.797   2.146   5.500  0.2814 -0.0244  0.4750
 3042SOL    HW211900   1.802   2.090   5.577 -1.9644  0.9594  1.4277
 3042SOL    HW311901   1.719   2.117   5.454 -0.3476  1.5714  0.4438
 3042SOL    MW411902   1.787   2.135   5.504 -0.5556  0.2195  0.5514
 3043SOL     OW11903   5.329   5.106   3.077  0.5289  0.1857 -0.3441
 3043SOL    HW211904   5.320   5.140   3.167  1.3453 -0.6089  0.0530
 3043SOL    HW311905   5.345   5.013   3.088  1.9400  0.2858 -1.2465
 3043SOL    MW411906   5.330   5.098   3.090 -0.4605 -0.0778  0.2421
 3044SOL     OW11907   4.641   0.113   0.807 -0.2673 -0.0200 -0.2435
 3044SOL    HW211908   4.650   0.070   0.722  0.2807  2.1012 -1.3276
 3044SOL    HW311909   4.728   0.106   0.846 -0.3076 -0.2936 -0.1973
 3044SOL    MW411910   4.653   0.106   0.801 -0.2741 -0.0871 -0.0597
 3045SOL     OW11911   5.619   4.421   6.041 -0.0133 -0.2552 -0.4814
 3045SOL    HW211912   5.580   4.449   6.124  1.2835 -2.1881  0.8806
 3045SOL    HW311913   5.686   4.487   6.022  0.5568 -0.4547  0.7358
 3045SOL    MW411914   5.623   4.433   6.050  0.4847 -0.7222 -0.1844
 3046SOL     OW11915   2.237   1.672   0.043 -0.3211  0.4010 -0.0284
 3046SOL    HW211916   2.185   1.726   0.101 -1.5429 -0.0276 -0.6904
 3046SOL    HW311917   2.328   1.689   0.069 -0.8059  0.6594  1.5830
 3046SOL    MW411918   2.242   1.681   0.054  0.1793  0.3978  0.2122
 3047SOL     OW11919   1.594   3.386   3.153 -0.3789  0.7476 -0.0768
 3047SOL    HW211920   1.516   3.423   3.111 -1.8186 -2.5234 -0.5950
 3047SOL    HW311921   1.623   3.317   3.093  2.0228  0.8254  0.8727
 3047SOL    MW411922   1.587   3.381   3.139 -0.6974  0.1070  0.6943
 3048SOL     OW11923   1.134   1.444   4.674  0.4280 -0.9171 -0.3155
 3048SOL    HW211924   1.121   1.539   4.675  1.6395 -0.7295 -0.8796
 3048SOL    HW311925   1.072   1.411   4.739  1.6026  0.5010  1.6482
 3048SOL    MW411926   1.124   1.452   4.683 -0.1845 -0.4457  0.0043
 3049SOL     OW11927   4.292   0.261   1.725 -0.0483  0.1144 -0.0121
 3049SOL    HW211928   4.366   0.296   1.675  1.5190  0.7560  2.5960
 3049SOL    HW311929   4.236   0.336   1.742  0.9843  0.5393  1.7038
 3049SOL    MW411930   4.295   0.275   1.721  0.6427 -0.9135 -0.0274
 3050SOL     OW11931   5.631   4.789   5.596  0.3576 -0.2157  0.0418
 3050SOL    HW211932   5.539   4.812   5.609  0.2281 -0.6593 -0.0679
 3050SOL    HW311933   5.648   4.809   5.504  0.0436 -1.2071 -0.2494
 3050SOL    MW411934   5.621   4.795   5.586  0.0361 -0.2996  0.3461
 3051SOL     OW11935   3.293   6.431   2.879  0.5805 -0.3210 -0.2304
 3051SOL    HW211936   3.239   6.409   2.956 -0.1172  0.2642 -0.5397
 3051SOL    HW311937   3.248   6.505   2.839  1.5396  0.0754 -0.5984
 3051SOL    MW411938   3.280   6.438   2.884 -0.2483  0.0233  0.0449
 3052SOL     OW11939   2.428   5.574   4.341  0.0884 -0.1495  0.1071
 3052SOL    HW211940   2.380   5.632   4.401 -1.1783 -0.2713 -0.7665
 3052SOL    HW311941   2.434   5.491   4.388 -3.7321 -1.2917 -1.0382
 3052SOL    MW411942   2.423   5.571   4.355  0.2161  0.3080 -0.3189
 3053SOL     OW11943   3.609   2.858   1.719  0.3006  0.5262  0.0115
 3053SOL    HW211944   3.650   2.781   1.758 -0.5467  0.8073  1.5540
 3053SOL    HW311945   3.583   2.912   1.794  0.0669  1.8905 -1.0039
 3053SOL    MW411946   3.611   2.855   1.734 -0.3152 -0.4053  0.2047
 3054SOL     OW11947   5.251   2.171   3.816 -0.0982 -0.4727 -0.5547
 3054SOL    HW211948   5.227   2.229   3.887 -0.0032 -2.5610  1.2918
 3054SOL    HW311949   5.168   2.136   3.783 -0.0423 -1.7773  0.6020
 3054SOL    MW411950   5.237   2.174   3.821  0.7104 -0.4838 -0.4900
 3055SOL     OW11951   4.294   3.790   4.773  0.1684  0.1379 -0.4001
 3055SOL    HW211952   4.366   3.740   4.735  1.0247  1.0969 -0.0952
 3055SOL    HW311953   4.335   3.872   4.803 -0.8414  0.2207  0.8210
 3055SOL    MW411954   4.309   3.795   4.772  0.3902 -0.0219  0.5076
 3056SOL     OW11955   1.791   0.511   0.064  0.2296  0.2029  0.0709
 3056SOL    HW211956   1.726   0.581   0.073  0.4950  0.3780  0.6407
 3056SOL    HW311957   1.838   0.533  -0.016  1.8847  2.0116  1.4342
 3056SOL    MW411958   1.789   0.523   0.055 -0.3999  0.0352 -0.6565
 3057SOL     OW11959   3.582   3.987   3.844 -0.5927  0.2489  0.0978
 3057SOL    HW211960   3.607   3.983   3.937  0.1467 -1.4778 -0.1398
 3057SOL    HW311961   3.533   4.069   3.836  1.4131  1.6648  1.4818
 3057SOL    MW411962   3.579   3.997   3.856  0.8221 -0.2318 -0.0426
 3058SOL     OW11963   1.084   1.279   6.147 -0.3823 -0.3217 -0.7314
 3058SOL    HW211964   1.126   1.365   6.135 -1.7510  0.7936  1.6235
 3058SOL    HW311965   1.006   1.284   6.092 -1.8550  1.1029  1.3286
 3058SOL    MW411966   1.079   1.291   6.138  0.0417  0.3090 -0.0760
 3059SOL     OW11967   5.900   5.434   1.895 -0.0054  0.0236 -0.5629
 3059SOL    HW211968   5.847   5.432   1.815  0.0333  1.6627 -0.6600
 3059SOL    HW311969   5.897   5.525   1.924  0.2048 -0.4758  1.1700
 3059SOL    MW411970   5.892   5.446   1.889 -0.4845  0.4660  0.7036
 3060SOL     OW11971   0.332   5.078   3.977  0.6596 -0.1843 -0.1080
 3060SOL    HW211972   0.306   5.163   4.014  1.9998  0.0794  0.2614
 3060SOL    HW311973   0.318   5.088   3.883 -0.6773 -0.1055  0.0822
 3060SOL    MW411974   0.327   5.091   3.969 -0.3602 -0.0451  0.0013
 3061SOL     OW11975   2.993   3.524   3.259 -0.1659  0.5902  0.2246
 3061SOL    HW211976   3.010   3.601   3.313  2.2164  0.0095  0.4091
 3061SOL    HW311977   2.956   3.460   3.320  2.2004  0.0529  1.1884
 3061SOL    MW411978   2.990   3.526   3.274  0.2872  0.1610  0.3807
 3062SOL     OW11979   4.317   2.909   1.195  0.4624  0.0766 -0.0061
 3062SOL    HW211980   4.271   2.993   1.197  0.2210 -0.0730  1.5441
 3062SOL    HW311981   4.254   2.846   1.229  0.1300 -1.0464 -2.4811
 3062SOL    MW411982   4.303   2.912   1.199 -0.1375 -0.5039 -0.2278
 3063SOL     OW11983   0.927   4.850   6.315 -0.2122 -0.0232 -0.3357
 3063SOL    HW211984   0.845   4.845   6.266  0.2970  0.0955 -1.2235
 3063SOL    HW311985   0.901   4.883   6.401 -0.8246  2.3908 -1.3619
 3063SOL    MW411986   0.913   4.854   6.320 -0.1596  0.1010 -0.3226
 3064SOL     OW11987   3.875   0.974   2.050 -0.2159  0.6400 -0.2566
 3064SOL    HW211988   3.781   0.968   2.034 -0.1020 -1.8209 -0.3068
 3064SOL    HW311989   3.898   0.892   2.093  2.0496  0.8810 -0.8798
 3064SOL    MW411990   3.865   0.963   2.054  0.1112 -0.3370  0.2686
 3065SOL     OW11991   0.856   3.388   5.663  0.1033  0.8806 -0.1291
 3065SOL    HW211992   0.871   3.475   5.701  0.5382  0.6132  0.3239
 3065SOL    HW311993   0.766   3.367   5.687 -0.7868  2.1216 -2.1150
 3065SOL    MW411994   0.846   3.397   5.671  0.1621 -0.1131  0.4478
 3066SOL     OW11995   5.135   6.292   5.268  0.2036 -0.2797 -0.4286
 3066SOL    HW211996   5.055   6.327   5.228 -0.6045  0.4544  1.6988
 3066SOL    HW311997   5.132   6.198   5.249 -0.8202 -0.1624 -0.9437
 3066SOL    MW411998   5.124   6.284   5.260 -0.3627 -0.4879 -0.5335
 3067SOL     OW11999   1.942   0.350   1.228  0.5721  0.6533 -0.6262
 3067SOL    HW212000   1.948   0.285   1.299  0.2194  2.1817  0.8650
 3067SOL    HW312001   1.849   0.353   1.207  0.5021  1.0918 -0.2695
 3067SOL    MW412002   1.931   0.342   1.235  0.2718  0.0226 -0.0877
 3068SOL     OW12003   6.218   4.068   3.917 -0.0213 -0.2119  0.2996
 3068SOL    HW212004   6.294   4.064   3.859  0.1652 -0.7715  0.5714
 3068SOL    HW312005   6.234   3.999   3.983 -0.3992  0.1718  0.8028
 3068SOL    MW412006   6.230   4.058   3.918 -0.1880 -0.0781 -0.3141
 3069SOL     OW12007   5.034   2.970   0.227  0.1942 -0.2597  0.1094
 3069SOL    HW212008   5.054   2.880   0.202 -0.0718  0.2000 -1.9717
 3069SOL    HW312009   5.109   3.021   0.197  0.6444  0.1692  1.8553
 3069SOL    MW412010   5.047   2.965   0.220 -0.5410  0.2565  0.4775
 3070SOL     OW12011   5.864   1.055   4.484 -0.2156  0.4841  0.0675
 3070SOL    HW212012   5.951   1.039   4.447 -1.1990 -1.3714 -1.5903
 3070SOL    HW312013   5.807   1.067   4.408 -1.7129 -0.0392  1.0530
 3070SOL    MW412014   5.868   1.055   4.469 -0.1980 -0.3475  0.1897
 3071SOL     OW12015   2.435   1.080   1.289  0.2820 -0.0572 -0.1817
 3071SOL    HW212016   2.426   1.175   1.293  1.4098  0.0145  1.2300
 3071SOL    HW312017   2.437   1.061   1.195  0.3527  1.3419 -0.4918
 3071SOL    MW412018   2.434   1.090   1.277 -0.2638 -0.3277  0.0487
 3072SOL     OW12019   1.975   2.832   2.295 -0.1386  0.1888  0.8286
 3072SOL    HW212020   1.930   2.913   2.272 -0.3537 -0.1171  0.1328
 3072SOL    HW312021   1.905   2.772   2.321 -0.1946 -0.3748 -0.5212
 3072SOL    MW412022   1.960   2.835   2.296  0.3399 -0.1721 -0.1020
 3073SOL     OW12023   6.087   1.466   3.203 -0.0878  0.4941  0.4614
 3073SOL    HW212024   6.155   1.473   3.136  0.0737 -1.6215  0.3348
 3073SOL    HW312025   6.006   1.488   3.157  0.1973  0.4780 -0.0556
 3073SOL    MW412026   6.085   1.470   3.188  0.0072  0.2264 -0.0352
 3074SOL     OW12027   3.667   2.867   6.075 -0.2751  0.0652  0.3273
 3074SOL    HW212028   3.637   2.845   5.987 -2.2935 -0.3312  1.0500
 3074SOL    HW312029   3.662   2.963   6.079  2.1363  0.3184 -0.6873
 3074SOL    MW412030   3.662   2.877   6.064  0.0365  0.3658  0.0605
 3075SOL     OW12031   6.003   6.008   6.347  0.1753 -0.0687 -0.1732
 3075SOL    HW212032   5.944   6.076   6.381 -0.6449 -0.9727  0.2487
 3075SOL    HW312033   6.003   5.940   6.415  2.0675  0.1032  0.0459
 3075SOL    MW412034   5.995   6.008   6.361  0.1985  0.1821 -0.7280
 3076SOL     OW12035   0.836   6.086   2.477  0.2593 -0.1201 -0.1584
 3076SOL    HW212036   0.867   6.174   2.497 -0.2424 -0.0431  0.3417
 3076SOL    HW312037   0.769   6.099   2.410 -0.9059  0.0681  0.9871
 3076SOL    MW412038   0.831   6.099   2.471 -0.7210  0.2428  0.6023
 3077SOL     OW12039   2.844   1.654   0.663 -0.4539 -0.4295 -0.4396
 3077SOL    HW212040   2.837   1.603   0.583  0.5557  0.7196 -1.2908
 3077SOL    HW312041   2.785   1.728   0.650  1.7573  1.2669 -1.3604
 3077SOL    MW412042   2.835   1.657   0.651 -0.7693  0.5135  0.1633
 3078SOL     OW12043   1.611   1.194   3.906  0.4512 -0.1857  0.0158
 3078SOL    HW212044   1.568   1.126   3.855  1.1307 -2.7884  2.6194
 3078SOL    HW312045   1.694   1.208   3.861  0.2534 -1.0170 -0.6372
 3078SOL    MW412046   1.616   1.187   3.893  0.1347  0.4544  0.2297
 3079SOL     OW12047   2.307   0.877   1.752  0.3649  0.4016  0.2691
 3079SOL    HW212048   2.321   0.916   1.665 -2.9037  1.3993  0.0776
 3079SOL    HW312049   2.285   0.785   1.734 -2.3887  1.0771 -0.2630
 3079SOL    MW412050   2.306   0.870   1.738  0.0731  0.0988 -0.2506
 3080SOL     OW12051   3.658   0.069   0.994 -0.1682 -0.1376  0.0923
 3080SOL    HW212052   3.623  -0.008   1.039  0.7101 -1.7679 -1.8157
 3080SOL    HW312053   3.656   0.139   1.059 -1.6457 -1.5915  1.7006
 3080SOL    MW412054   3.653   0.068   1.008 -0.1373 -0.5051  0.2179
 3081SOL     OW12055   2.420   2.710   1.695  0.0205  0.4411 -0.0847
 3081SOL    HW212056   2.413   2.781   1.632  1.0420  0.1031 -0.6181
 3081SOL    HW312057   2.514   2.706   1.716 -0.2774  0.4242  1.3197
 3081SOL    MW412058   2.432   2.719   1.689  0.2133 -0.4782  0.2269
 3082SOL     OW12059   4.434   2.976   5.760  0.0528 -0.2902  0.6104
 3082SOL    HW212060   4.386   3.056   5.782  3.0978  1.2580  2.1808
 3082SOL    HW312061   4.447   2.931   5.844 -0.0803 -1.5731 -0.0191
 3082SOL    MW412062   4.429   2.980   5.774  0.6780 -0.0897  0.1034
 3083SOL     OW12063   6.172   0.703   3.798 -0.0576  0.2322 -0.2263
 3083SOL    HW212064   6.158   0.791   3.831 -1.4440 -0.7246  1.9726
 3083SOL    HW312065   6.250   0.672   3.844 -0.3578 -0.1248  0.0563
 3083SOL    MW412066   6.180   0.710   3.809 -0.1453  0.2596 -0.2157
 3084SOL     OW12067   4.128   0.114   4.360  0.4481  0.5058  0.9507
 3084SOL    HW212068   4.063   0.073   4.417 -0.5473 -1.0321 -1.1618
 3084SOL    HW312069   4.207   0.120   4.414 -0.3250 -1.2321  2.3740
 3084SOL    MW412070   4.130   0.109   4.375 -0.0730 -0.8836 -0.2941
 3085SOL     OW12071   3.997   0.550   0.131 -0.4927  0.0080 -0.0767
 3085SOL    HW212072   4.048   0.508   0.062 -0.0401  0.3772  0.0242
 3085SOL    HW312073   4.057   0.616   0.167 -1.2691  0.9241 -0.4174
 3085SOL    MW412074   4.012   0.553   0.126  0.0402 -0.5505  0.1763
 3086SOL     OW12075   5.178   6.431   2.921  0.3380  0.0577 -0.1501
 3086SOL    HW212076   5.153   6.373   2.849  0.7331  0.2724 -0.4705
 3086SOL    HW312077   5.205   6.512   2.878 -0.2994  0.5120  0.3009
 3086SOL    MW412078   5.179   6.434   2.906  0.2641 -0.5156  0.2124
 3087SOL     OW12079   3.788   0.920   4.971  0.0598  0.0613 -0.1457
 3087SOL    HW212080   3.877   0.884   4.964 -0.0591 -0.2765  0.0719
 3087SOL    HW312081   3.788   0.995   4.911  1.6292  2.4442  2.5527
 3087SOL    MW412082   3.800   0.925   4.962  0.0525  0.3403  0.6448
 3088SOL     OW12083   1.344   4.836   2.718 -0.7097 -0.1846 -0.7940
 3088SOL    HW212084   1.432   4.802   2.705 -1.4257 -1.6407 -2.0836
 3088SOL    HW312085   1.357   4.917   2.769  1.4123  0.1040 -1.6984
 3088SOL    MW412086   1.357   4.842   2.723  0.3220 -0.3758 -0.2718
 3089SOL     OW12087   2.292   6.164   3.281 -0.0700  0.4655 -0.0052
 3089SOL    HW212088   2.313   6.104   3.353  1.7996  1.7323  0.5794
 3089SOL    HW312089   2.259   6.243   3.324  1.1006  1.2524 -0.5015
 3089SOL    MW412090   2.291   6.167   3.296 -0.6881 -0.2333  0.1540
 3090SOL     OW12091   2.712   4.404   4.718  0.5327 -0.1346 -0.3819
 3090SOL    HW212092   2.699   4.465   4.791  1.7925  0.8027 -0.8989
 3090SOL    HW312093   2.773   4.339   4.751  2.7142  1.4022 -1.1201
 3090SOL    MW412094   2.718   4.404   4.732  0.2180  0.2355  0.5499
 3091SOL     OW12095   1.524   1.330   5.852 -0.3080  0.2495 -0.5680
 3091SOL    HW212096   1.464   1.324   5.777 -1.6767  0.8741  0.4426
 3091SOL    HW312097   1.470   1.311   5.928  1.0308 -0.2318  0.3005
 3091SOL    MW412098   1.509   1.327   5.852 -0.1218  0.2218 -0.2213
 3092SOL     OW12099   1.187   3.470   1.554 -0.0711 -0.2066 -0.7305
 3092SOL    HW212100   1.140   3.490   1.473 -0.3440 -1.6761 -0.9585
 3092SOL    HW312101   1.218   3.380   1.543  1.3082  0.1315  0.1392
 3092SOL    MW412102   1.185   3.461   1.542  0.4886  0.2619  0.3656
 3093SOL     OW12103   4.180   4.428   6.104  0.4236  0.6295  0.8378
 3093SOL    HW212104   4.097   4.446   6.149 -0.0056 -0.3957  0.4824
 3093SOL    HW312105   4.207   4.513   6.070 -1.1114  0.7908 -0.0969
 3093SOL    MW412106   4.173   4.441   6.106  0.4198 -0.2897  0.4664
 3094SOL     OW12107   5.398   4.703   4.440 -0.4723 -0.3780  0.4355
 3094SOL    HW212108   5.432   4.649   4.368 -1.4607  1.1019 -1.2363
 3094SOL    HW312109   5.451   4.782   4.437  1.2670 -1.2960  3.1495
 3094SOL    MW412110   5.410   4.706   4.430 -0.3246  0.0259 -0.6274
 3095SOL     OW12111   2.766   5.240   2.608 -0.0168 -0.0018  0.6163
 3095SOL    HW212112   2.855   5.212   2.586  0.2606  0.6682  0.8507
 3095SOL    HW312113   2.742   5.301   2.538 -0.2903 -0.1865  0.5505
 3095SOL    MW412114   2.774   5.245   2.596 -0.4154 -0.1353  0.1693
 3096SOL     OW12115   3.090   0.623   4.167  0.0712  0.1756 -0.2226
 3096SOL    HW212116   3.020   0.628   4.102  1.0710  1.4348 -1.2377
 3096SOL    HW312117   3.076   0.698   4.224 -0.0259 -0.1813  0.2301
 3096SOL    MW412118   3.079   0.633   4.166  0.3626 -0.7871 -0.6061
 3097SOL     OW12119   2.549   4.036   2.145  0.5527  0.1305 -0.3659
 3097SOL    HW212120   2.613   3.966   2.133  0.8781  0.2497  0.6160
 3097SOL    HW312121   2.595   4.102   2.197 -0.3980  0.1697  0.4537
 3097SOL    MW412122   2.564   4.036   2.150  0.7010  0.7499  0.5721
 3098SOL     OW12123   2.635   3.468   3.856 -0.3608 -0.0334  0.4864
 3098SOL    HW212124   2.722   3.493   3.888 -0.5373  2.8958 -0.9834
 3098SOL    HW312125   2.577   3.481   3.931  0.3467 -1.6578  1.3676
 3098SOL    MW412126   2.639   3.473   3.870 -0.2971  0.1325 -0.2202
 3099SOL     OW12127   6.371   2.556   4.990 -0.5381  0.0240  0.1371
 3099SOL    HW212128   6.400   2.497   5.058  0.5597 -0.9056 -1.0872
 3099SOL    HW312129   6.347   2.499   4.917 -1.0923  1.0114 -0.4837
 3099SOL    MW412130   6.371   2.541   4.989 -0.1185  0.1634 -0.0320
 3100SOL     OW12131   2.165   0.696   1.399  0.5472 -0.4741  0.3123
 3100SOL    HW212132   2.165   0.615   1.349 -2.8566 -1.6450  1.9207
 3100SOL    HW312133   2.162   0.669   1.490 -0.4970  1.4306  0.9122
 3100SOL    MW412134   2.165   0.682   1.404 -0.3251  0.3289  0.6953
 3101SOL     OW12135   2.062   6.241   4.794  0.4117  0.0896  0.1502
 3101SOL    HW212136   2.004   6.184   4.743 -0.7775 -0.7733  2.3214
 3101SOL    HW312137   2.002   6.294   4.846  1.5720  0.9738  0.6057
 3101SOL    MW412138   2.046   6.240   4.794 -0.6135 -0.3511  0.1128
 3102SOL     OW12139   1.763   3.919   0.707 -0.3250 -0.2796 -0.1692
 3102SOL    HW212140   1.705   3.966   0.767  0.7931  2.0328 -0.8164
 3102SOL    HW312141   1.717   3.921   0.623 -0.9802 -1.7767  0.1237
 3102SOL    MW412142   1.750   3.925   0.704 -0.3414 -0.0048 -0.0473
 3103SOL     OW12143   0.564   4.583   5.048  0.7117 -0.0121 -0.2299
 3103SOL    HW212144   0.623   4.515   5.082 -1.9011 -2.4051 -0.1360
 3103SOL    HW312145   0.562   4.649   5.117 -0.4733 -2.2764  2.0675
 3103SOL    MW412146   0.572   4.583   5.061 -0.0892 -0.4523  0.2031
 3104SOL     OW12147   0.526   1.819   0.599 -0.5669  0.4935  0.7287
 3104SOL    HW212148   0.463   1.764   0.551 -0.0587  1.3327 -0.9824
 3104SOL    HW312149   0.478   1.900   0.616  0.4887  1.8248 -2.1231
 3104SOL    MW412150   0.511   1.822   0.595  0.1044 -0.3414  0.4092
 3105SOL     OW12151   4.288   1.075   0.005 -0.2114  0.4340  0.2340
 3105SOL    HW212152   4.243   1.002  -0.039  1.3808 -0.6966  0.4181
 3105SOL    HW312153   4.357   1.100  -0.056 -0.5309  1.5899  0.3283
 3105SOL    MW412154   4.291   1.069  -0.009  0.3209  0.1401 -0.8511
 3106SOL     OW12155   3.794   3.686   0.363 -0.3653 -0.3587  0.1111
 3106SOL    HW212156   3.792   3.591   0.358  2.2270 -0.5884  1.6181
 3106SOL    HW312157   3.738   3.707   0.438 -1.6144 -0.5881 -0.7303
 3106SOL    MW412158   3.787   3.676   0.373  0.1495 -0.1000 -0.0875
 3107SOL     OW12159   1.721   3.231   4.465  0.0291 -0.3119 -0.1345
 3107SOL    HW212160   1.728   3.158   4.527  0.7578 -0.6392 -0.5849
 3107SOL    HW312161   1.631   3.262   4.475 -0.9007 -2.3993 -1.1769
 3107SOL    MW412162   1.710   3.225   4.475  0.0754 -0.4830  0.0307
 3108SOL     OW12163   3.680   0.578   4.734 -0.0421  0.4963 -0.7129
 3108SOL    HW212164   3.759   0.593   4.682 -0.3286  0.8073 -1.0586
 3108SOL    HW312165   3.651   0.665   4.760  1.0778  0.2854  1.4687
 3108SOL    MW412166   3.687   0.591   4.730  0.4808 -0.1169  0.0498
 3109SOL     OW12167   0.148   6.297   5.006 -0.2788 -0.2567  0.1411
 3109SOL    HW212168   0.155   6.239   4.930  0.5089 -0.3740  0.2961
 3109SOL    HW312169   0.210   6.367   4.989  1.9842 -1.6803  1.8795
 3109SOL    MW412170   0.157   6.299   4.994 -0.1671 -0.6514 -0.0547
 3110SOL     OW12171   2.769   1.506   2.458  0.2751  0.4318  0.2407
 3110SOL    HW212172   2.762   1.425   2.407 -2.9638 -0.6836  2.1409
 3110SOL    HW312173   2.736   1.483   2.544  0.5216  3.5082  1.2810
 3110SOL    MW412174   2.764   1.492   2.462 -0.2101 -0.0223 -0.2109
 3111SOL     OW12175   2.390   5.023   0.185  0.4722 -0.1348  0.7278
 3111SOL    HW212176   2.350   5.107   0.209 -0.3582 -0.2065 -0.3256
 3111SOL    HW312177   2.344   4.997   0.105  1.9656 -0.7193  0.0293
 3111SOL    MW412178   2.379   5.030   0.178 -0.1009 -0.6303 -0.3482
 3112SOL     OW12179   2.171   2.045   1.055  0.1067 -0.2810 -0.1351
 3112SOL    HW212180   2.104   2.100   1.014  0.1805  0.8932  1.2322
 3112SOL    HW312181   2.231   2.023   0.984 -0.8581 -0.0144 -1.0592
 3112SOL    MW412182   2.170   2.050   1.040  0.6677  0.4698  0.5868
 3113SOL     OW12183   3.127   4.232   0.888 -0.0073 -0.1633  0.4105
 3113SOL    HW212184   3.123   4.291   0.812  1.0369 -0.4418  0.1201
 3113SOL    HW312185   3.220   4.209   0.895 -0.1768 -0.5625  1.4563
 3113SOL    MW412186   3.139   4.237   0.879  0.4617 -0.2100  0.1317
 3114SOL     OW12187   4.656   3.657   4.460 -0.4328 -0.2657 -0.2439
 3114SOL    HW212188   4.683   3.747   4.441 -0.4537 -0.4111 -0.9853
 3114SOL    HW312189   4.724   3.624   4.520 -1.1767  0.6872  1.1829
 3114SOL    MW412190   4.669   3.665   4.466 -0.2676  0.0044  0.2205
 3115SOL     OW12191   5.481   0.736   3.715 -0.3392 -0.2388 -0.5816
 3115SOL    HW212192   5.414   0.670   3.730 -1.0013  0.9941  2.6656
 3115SOL    HW312193   5.438   0.819   3.737  2.0919  0.6320  1.2454
 3115SOL    MW412194   5.466   0.738   3.720 -0.0083  0.0102 -0.5587
 3116SOL     OW12195   2.605   5.608   3.746  0.1892  0.0452  0.0892
 3116SOL    HW212196   2.621   5.528   3.697  1.6188 -0.0005  0.5777
 3116SOL    HW312197   2.670   5.670   3.714 -2.5550  2.0133 -2.2444
 3116SOL    MW412198   2.616   5.606   3.736  0.0861 -0.4350  0.2263
 3117SOL     OW12199   3.636   1.414   5.847 -0.4859 -0.2167  0.2609
 3117SOL    HW212200   3.574   1.480   5.878  0.1204  0.5301 -0.0851
 3117SOL    HW312201   3.613   1.400   5.755 -0.3117 -0.1268  0.2020
 3117SOL    MW412202   3.625   1.420   5.839  0.0751 -0.2086 -0.3769
 3118SOL     OW12203   0.545   5.660   3.404  0.0989  0.0323  0.0200
 3118SOL    HW212204   0.454   5.655   3.433 -0.1062 -0.9411 -0.7468
 3118SOL    HW312205   0.562   5.754   3.395 -2.1582  0.2562 -3.8243
 3118SOL    MW412206   0.535   5.672   3.407  0.5689 -0.0042  0.0073
 3119SOL     OW12207   5.440   1.256   0.849 -0.4655  0.0388 -0.1726
 3119SOL    HW212208   5.368   1.317   0.832 -1.1709 -0.7462 -0.0963
 3119SOL    HW312209   5.518   1.311   0.851 -0.5996  0.5781 -3.4428
 3119SOL    MW412210   5.441   1.271   0.847  0.3891 -0.1321  0.1958
 3120SOL     OW12211   6.059   3.449   0.277  0.3751  0.4682 -0.4381
 3120SOL    HW212212   6.055   3.486   0.189  1.6070 -1.2847 -1.2846
 3120SOL    HW312213   5.990   3.383   0.279  0.8869 -0.0765 -0.3933
 3120SOL    MW412214   6.049   3.445   0.266 -0.1294  0.0209  0.0818
 3121SOL     OW12215   4.010   0.890   6.054 -0.3138 -0.5130  0.5460
 3121SOL    HW212216   3.962   0.862   6.131 -1.1720  0.6305  0.4678
 3121SOL    HW312217   4.080   0.947   6.088  0.0380 -0.9491  0.5560
 3121SOL    MW412218   4.013   0.894   6.068 -0.2877 -0.4156  0.4937
 3122SOL     OW12219   2.378   1.494   3.095  0.3156  0.1774  0.2851
 3122SOL    HW212220   2.334   1.457   3.019  0.7732 -0.0572  0.1273
 3122SOL    HW312221   2.471   1.490   3.072  0.4165  0.6927  0.5945
 3122SOL    MW412222   2.385   1.489   3.082  0.6566 -0.2536 -0.3780
 3123SOL     OW12223   1.315   4.153   0.330 -0.4045  0.3698  0.2505
 3123SOL    HW212224   1.410   4.158   0.342 -0.0992  0.9917 -1.8684
 3123SOL    HW312225   1.295   4.060   0.337  0.4628  0.1685  0.2268
 3123SOL    MW412226   1.325   4.142   0.332  0.4682  0.4532 -0.2077
 3124SOL     OW12227   4.291   0.637   3.483  0.4426  0.4095 -0.2184
 3124SOL    HW212228   4.294   0.689   3.403 -0.8588  1.3266  0.2902
 3124SOL    HW312229   4.283   0.547   3.452  1.7546  0.5684 -1.1064
 3124SOL    MW412230   4.290   0.632   3.468 -0.2443 -0.6062 -0.5487
 3125SOL     OW12231   3.056   1.881   0.319 -0.1909 -0.3202 -0.6021
 3125SOL    HW212232   3.059   1.933   0.399  1.7215  0.3104 -1.0226
 3125SOL    HW312233   3.053   1.790   0.350 -1.4517 -0.0457  0.1493
 3125SOL    MW412234   3.056   1.876   0.334  0.1864 -0.5384  0.3361
 3126SOL     OW12235   3.651   0.145   1.601  0.0806 -0.3176  0.8644
 3126SOL    HW212236   3.590   0.093   1.548  1.0136 -0.1437 -0.4215
 3126SOL    HW312237   3.660   0.227   1.552  2.2365 -0.7852  0.4123
 3126SOL    MW412238   3.644   0.149   1.588 -0.9745  0.8381  0.4244
 3127SOL     OW12239   2.666   1.614   0.898  0.3453  0.2743  0.6150
 3127SOL    HW212240   2.725   1.593   0.970  0.2093 -1.0262  0.3856
 3127SOL    HW312241   2.721   1.611   0.819 -0.2699 -2.8149  0.1708
 3127SOL    MW412242   2.681   1.611   0.897 -0.2057 -0.2234 -0.0819
 3128SOL     OW12243   4.641   4.722   0.753 -0.5572  0.1739 -0.5941
 3128SOL    HW212244   4.667   4.796   0.808 -1.0546 -1.0081  1.3258
 3128SOL    HW312245   4.557   4.748   0.716 -0.4362  0.8035 -0.4402
 3128SOL    MW412246   4.634   4.735   0.755 -0.0778 -0.3421  0.0455
 3129SOL     OW12247   0.122   1.304   0.028  0.1158  0.5054 -0.2790
 3129SOL    HW212248   0.095   1.266   0.111 -1.3776  0.7370 -0.6369
 3129SOL    HW312249   0.157   1.390   0.051 -0.5702  0.6903  0.0809
 3129SOL    MW412250   0.123   1.310   0.042  0.2209  0.0009  0.5024
 3130SOL     OW12251   6.249   6.328   4.584 -0.5513 -0.3433  0.0436
 3130SOL    HW212252   6.282   6.240   4.601  0.1076 -0.2569 -0.7000
 3130SOL    HW312253   6.202   6.320   4.501  1.7129  0.4824 -1.4275
 3130SOL    MW412254   6.247   6.315   4.575 -0.2157 -0.1273  0.4256
 3131SOL     OW12255   4.974   3.687   2.456 -0.5877 -0.0310  0.4738
 3131SOL    HW212256   4.915   3.700   2.382 -0.8794 -0.8493  0.5540
 3131SOL    HW312257   5.057   3.725   2.427 -1.1571  1.2005  0.3931
 3131SOL    MW412258   4.977   3.694   2.443 -0.8335  0.2209 -0.3884
 3132SOL     OW12259   2.246   5.297   4.483  0.4973  0.3009  0.3549
 3132SOL    HW212260   2.237   5.204   4.503 -0.9143  0.8658  2.7562
 3132SOL    HW312261   2.176   5.314   4.419 -0.7561  0.1251  1.6323
 3132SOL    MW412262   2.235   5.287   4.477  0.0377  0.0406 -0.7232
 3133SOL     OW12263   2.528   1.305   5.485 -0.2029  0.3850  0.2559
 3133SOL    HW212264   2.436   1.279   5.490  0.1795 -1.9037 -2.3146
 3133SOL    HW312265   2.574   1.234   5.529  0.4050  1.3209  1.1680
 3133SOL    MW412266   2.522   1.292   5.492 -0.3551 -0.5008 -0.5148
 3134SOL     OW12267   0.345   2.491   5.962  0.6200  0.1372 -0.6147
 3134SOL    HW212268   0.310   2.513   5.875  1.1207 -0.0472 -0.8694
 3134SOL    HW312269   0.300   2.409   5.985  0.3995  0.2477 -0.6513
 3134SOL    MW412270   0.335   2.483   5.953  0.6336  0.1754  0.2233
 3135SOL     OW12271   4.108   5.427   6.178 -0.1153 -0.4237  0.0143
 3135SOL    HW212272   4.108   5.388   6.090 -0.6106  0.3873 -0.3473
 3135SOL    HW312273   4.196   5.463   6.188 -0.0873 -0.4370 -0.1856
 3135SOL    MW412274   4.120   5.426   6.168  0.0217  0.0887  0.1529
 3136SOL     OW12275   1.391   3.791   0.855  0.1164  0.4348 -0.7939
 3136SOL    HW212276   1.303   3.828   0.847  0.3111  0.6709 -2.0490
 3136SOL    HW312277   1.450   3.866   0.851  0.4181  0.1901 -1.0599
 3136SOL    MW412278   1.387   3.806   0.854  0.4061  0.3619 -0.4477
 3137SOL     OW12279   3.233   3.624   5.892  0.4595 -0.5197 -0.1287
 3137SOL    HW212280   3.292   3.689   5.930 -0.4539 -0.2216  0.8324
 3137SOL    HW312281   3.150   3.671   5.879 -0.6646 -1.7929  1.9146
 3137SOL    MW412282   3.230   3.639   5.895 -0.0942  0.1690 -0.0031
 3138SOL     OW12283   3.746   1.867   1.302  0.4370  0.1415  0.3666
 3138SOL    HW212284   3.817   1.860   1.365  0.4848  1.9447  0.5563
 3138SOL    HW312285   3.667   1.846   1.353  0.7243 -0.8995  0.3917
 3138SOL    MW412286   3.745   1.863   1.317 -0.5175  0.2158 -0.0349
 3139SOL     OW12287   2.276   2.577   3.511 -0.2641  0.0871 -0.2028
 3139SOL    HW212288   2.337   2.633   3.559 -0.8216  0.3407  0.2249
 3139SOL    HW312289   2.208   2.637   3.481 -0.1140 -0.1298 -1.0055
 3139SOL    MW412290   2.275   2.592   3.513 -0.0757  0.4753 -0.0264
 3140SOL     OW12291   5.996   6.287   0.822  0.6274 -0.8051  0.0675
 3140SOL    HW212292   6.040   6.266   0.740  0.4297 -2.6848  0.4196
 3140SOL    HW312293   6.007   6.382   0.831  1.4023 -0.6970 -1.6795
 3140SOL    MW412294   6.004   6.297   0.813  0.7789  0.6908 -0.1837
 3141SOL     OW12295   1.540   5.456   0.756  0.6986 -0.0556  0.0180
 3141SOL    HW212296   1.572   5.505   0.680 -0.0547  1.3651  0.5760
 3141SOL    HW312297   1.450   5.432   0.733  1.1113 -1.3200 -0.3066
 3141SOL    MW412298   1.532   5.459   0.743  0.4787  0.5856  0.2401
 3142SOL     OW12299   2.321   4.709   4.868  0.4988 -1.0217  0.2201
 3142SOL    HW212300   2.266   4.641   4.907 -0.4163  0.1888  1.1682
 3142SOL    HW312301   2.355   4.671   4.788 -3.4740 -1.1811 -1.5936
 3142SOL    MW412302   2.318   4.695   4.863 -0.2958 -0.2353  0.2146
 3143SOL     OW12303   6.420   1.393   1.531 -0.0983 -0.5129  0.4656
 3143SOL    HW212304   6.352   1.327   1.517 -1.7440  0.9327  1.3400
 3143SOL    HW312305   6.478   1.354   1.597  0.9918 -2.4731 -1.5178
 3143SOL    MW412306   6.419   1.379   1.538  0.8088  0.1311  0.0057
 3144SOL     OW12307   0.270   6.068   0.277 -0.1332  0.0853  0.2833
 3144SOL    HW212308   0.228   6.136   0.225 -0.7297 -0.2770  0.2839
 3144SOL    HW312309   0.239   5.986   0.239  1.4500 -0.2109 -0.4401
 3144SOL    MW412310   0.261   6.066   0.265  0.0694  0.1203  0.1692
 3145SOL     OW12311   5.157   3.952   5.954  0.3253  0.0488  0.4159
 3145SOL    HW212312   5.235   3.897   5.944  1.3869  1.6569 -0.7202
 3145SOL    HW312313   5.085   3.899   5.920  1.1745 -0.9317  0.1010
 3145SOL    MW412314   5.158   3.938   5.948  0.0400  0.0024 -0.4652
 3146SOL     OW12315   5.164   2.032   2.535 -0.0152  0.0209 -0.0097
 3146SOL    HW212316   5.140   2.068   2.620  0.2876  0.2441 -0.0169
 3146SOL    HW312317   5.084   2.040   2.483 -0.0756  0.2978  0.1190
 3146SOL    MW412318   5.150   2.038   2.539 -0.3814 -0.0832 -0.3075
 3147SOL     OW12319   5.793   4.358   0.266  0.1654 -0.2102  0.2559
 3147SOL    HW212320   5.763   4.448   0.273  1.5371  0.2039  1.1246
 3147SOL    HW312321   5.732   4.309   0.322  0.0646  0.3399  0.6342
 3147SOL    MW412322   5.781   4.363   0.274 -0.7947 -0.1664  0.7699
 3148SOL     OW12323   4.062   4.442   5.339  0.4603  0.0808  0.1392
 3148SOL    HW212324   3.992   4.448   5.403  0.9434  0.4154  0.6445
 3148SOL    HW312325   4.029   4.490   5.263 -0.9198 -1.9677 -0.6412
 3148SOL    MW412326   4.048   4.449   5.337 -0.1160  0.5025  0.4253
 3149SOL     OW12327   6.135   2.429   2.233 -0.1617  0.5400  0.3582
 3149SOL    HW212328   6.111   2.518   2.210  0.3673  0.8259  0.8958
 3149SOL    HW312329   6.221   2.416   2.194 -0.2006  0.2895  0.3536
 3149SOL    MW412330   6.143   2.439   2.225  0.5870  0.7144 -0.1668
 3150SOL     OW12331   5.881   4.421   3.076  0.1192  0.2236 -0.0551
 3150SOL    HW212332   5.803   4.396   3.026  0.0811 -2.1990  1.0840
 3150SOL    HW312333   5.846   4.457   3.157  0.1664 -0.2479  0.1781
 3150SOL    MW412334   5.866   4.422   3.080  0.2274  0.8834  0.3012
 3151SOL     OW12335   6.046   5.564   3.589 -0.0863 -0.4283  0.0567
 3151SOL    HW212336   6.095   5.612   3.522 -1.9964  0.4145 -0.8229
 3151SOL    HW312337   5.954   5.587   3.572 -0.5837  0.8203  3.7168
 3151SOL    MW412338   6.040   5.573   3.578 -0.2478 -0.3974 -0.1360
 3152SOL     OW12339   1.675   1.317   0.386  0.2508 -0.2481  0.2403
 3152SOL    HW212340   1.591   1.325   0.342  0.2772  0.9582  0.3791
 3152SOL    HW312341   1.702   1.227   0.370  0.6338  0.3032 -2.8962
 3152SOL    MW412342   1.667   1.306   0.378 -0.3265 -0.3293  0.3803
 3153SOL     OW12343   5.857   3.587   5.132  0.1140  0.5518  0.0712
 3153SOL    HW212344   5.899   3.673   5.123 -1.3497  1.4363  1.1952
 3153SOL    HW312345   5.902   3.547   5.207  1.2225  0.0421 -0.8365
 3153SOL    MW412346   5.869   3.593   5.141  0.8403 -0.1520 -0.1988
 3154SOL     OW12347   4.146   2.364   5.033 -0.4422 -0.3026  0.0062
 3154SOL    HW212348   4.116   2.338   4.946  1.7305  0.2841 -0.9908
 3154SOL    HW312349   4.194   2.289   5.066  2.5951  0.8989 -1.2910
 3154SOL    MW412350   4.148   2.351   5.026  0.5003 -0.1759 -0.1264
 3155SOL     OW12351   2.712   1.351   4.092  0.5693 -0.0555  0.1749
 3155SOL    HW212352   2.730   1.444   4.076  0.7015 -0.2002 -0.5512
 3155SOL    HW312353   2.785   1.305   4.051 -0.8571 -0.6123 -1.8926
 3155SOL    MW412354   2.724   1.357   4.084  0.1747 -0.2566  0.1459
 3156SOL     OW12355   3.939   1.472   0.840 -0.0444 -0.3063  0.2306
 3156SOL    HW212356   3.942   1.519   0.923 -0.0109  1.7912 -0.8815
 3156SOL    HW312357   4.022   1.424   0.836  1.5267  2.2701 -0.0295
 3156SOL    MW412358   3.950   1.472   0.850  0.2710 -0.0292 -0.1561
 3157SOL     OW12359   2.028   4.876   4.525  0.0610  0.3961 -0.2050
 3157SOL    HW212360   2.011   4.846   4.435  0.6840  1.3179 -0.6503
 3157SOL    HW312361   2.020   4.971   4.520  0.2188  0.4602  0.6929
 3157SOL    MW412362   2.025   4.884   4.512  0.4444  0.1843  0.3534
 3158SOL     OW12363   3.105   5.096   5.998  0.3839  0.1796  0.3295
 3158SOL    HW212364   3.065   5.180   5.973  0.4517  0.7925  2.1063
 3158SOL    HW312365   3.153   5.069   5.921  0.7079  2.0063 -0.1660
 3158SOL    MW412366   3.106   5.104   5.985  0.0734 -0.1567  0.0229
 3159SOL     OW12367   6.067   2.049   2.597  0.2091  0.1715  0.0049
 3159SOL    HW212368   6.075   1.984   2.528  0.6143 -0.3171  0.5098
 3159SOL    HW312369   5.986   2.096   2.576  1.0804  1.0291 -1.6429
 3159SOL    MW412370   6.057   2.047   2.585  0.2303 -0.2243  0.1567
 3160SOL     OW12371   2.778   1.235   5.195  0.2531  0.4017  0.2116
 3160SOL    HW212372   2.684   1.238   5.177  0.1474  0.3780  0.7455
 3160SOL    HW312373   2.786   1.175   5.269  0.7604 -0.1344 -0.2710
 3160SOL    MW412374   2.767   1.227   5.202 -0.1763  0.1727  0.3382
 3161SOL     OW12375   0.104   6.123   5.616 -0.3160 -0.0488  0.5273
 3161SOL    HW212376   0.154   6.041   5.616 -0.4712 -0.1940  2.4686
 3161SOL    HW312377   0.114   6.157   5.705  1.0066  2.8650 -0.6227
 3161SOL    MW412378   0.112   6.117   5.628  0.4405 -0.1332  0.0487
 3162SOL     OW12379   3.420   0.487   1.522  0.1389  0.2274  0.1374
 3162SOL    HW212380   3.446   0.546   1.592  0.7669  0.6603 -0.4498
 3162SOL    HW312381   3.502   0.461   1.479 -0.1872 -0.4796 -0.0879
 3162SOL    MW412382   3.434   0.491   1.525  0.7929 -0.4177  0.3057
 3163SOL     OW12383   0.882   3.641   6.260 -0.2006 -0.8768  0.1363
 3163SOL    HW212384   0.896   3.599   6.175 -3.1909  0.6505 -1.2350
 3163SOL    HW312385   0.921   3.728   6.251 -0.2506 -0.8179  0.4796
 3163SOL    MW412386   0.889   3.647   6.248  0.9333  0.2352  0.8421
 3164SOL     OW12387   1.364   2.189   4.364  0.8633 -0.1397 -0.3409
 3164SOL    HW212388   1.354   2.133   4.287 -0.6186 -1.0171  0.4390
 3164SOL    HW312389   1.346   2.131   4.438  0.4158  1.0932  0.5591
 3164SOL    MW412390   1.360   2.174   4.364 -0.4418  0.4320 -0.2685
 3165SOL     OW12391   5.999   5.925   4.931  0.3157  0.9166  0.3366
 3165SOL    HW212392   5.945   5.861   4.978 -0.2778  2.0070  1.1726
 3165SOL    HW312393   6.003   5.891   4.842  0.3679 -0.5140  0.8471
 3165SOL    MW412394   5.992   5.912   4.926  0.4554  0.0334  0.2279
 3166SOL     OW12395   3.100   1.161   6.166 -0.7568 -0.1297  0.2237
 3166SOL    HW212396   3.104   1.252   6.194 -0.4076  0.4025 -1.4384
 3166SOL    HW312397   3.169   1.117   6.216 -0.4456  0.6711  0.5138
 3166SOL    MW412398   3.109   1.167   6.176 -0.4930 -0.5232 -0.0071
 3167SOL     OW12399   4.376   3.688   6.016 -0.4648 -0.1127  0.1623
 3167SOL    HW212400   4.298   3.693   6.071  0.0722  2.1000  0.8132
 3167SOL    HW312401   4.348   3.721   5.930 -0.1561  1.2149  0.5508
 3167SOL    MW412402   4.362   3.693   6.012 -0.6123 -0.6792  0.1793
 3168SOL     OW12403   4.885   6.377   1.436  0.9790 -0.4734 -0.1060
 3168SOL    HW212404   4.857   6.420   1.355  0.1857 -0.2270  0.2952
 3168SOL    HW312405   4.934   6.445   1.483 -0.6707  0.1595  0.7406
 3168SOL    MW412406   4.888   6.392   1.431 -0.2084  0.4857  0.2350
 3169SOL     OW12407   2.290   2.018   6.424  0.3674  0.0376 -0.2626
 3169SOL    HW212408   2.274   1.949   6.488 -0.5430  1.1475  0.7684
 3169SOL    HW312409   2.244   1.990   6.346 -0.9876  0.0143  0.5246
 3169SOL    MW412410   2.282   2.005   6.422  0.4800  0.5542 -0.3210
 3170SOL     OW12411   4.295   6.266   6.396  0.0667  0.0689  0.7700
 3170SOL    HW212412   4.309   6.173   6.413  0.8532 -0.0155 -0.2072
 3170SOL    HW312413   4.207   6.270   6.357  0.4887 -0.4242 -0.2632
 3170SOL    MW412414   4.285   6.254   6.393  0.1025 -0.2023  0.5354
 3171SOL     OW12415   2.603   6.346   3.473 -0.2910 -0.8012  0.1628
 3171SOL    HW212416   2.508   6.331   3.471 -0.1628 -1.7520  0.4232
 3171SOL    HW312417   2.633   6.298   3.550  0.4049 -0.5227  0.0731
 3171SOL    MW412418   2.594   6.338   3.483  0.2497 -0.5074  0.4652
 3172SOL     OW12419   0.405   3.076   4.844 -0.1996  0.2817  0.0820
 3172SOL    HW212420   0.444   3.136   4.780 -1.1164 -0.4816 -1.2306
 3172SOL    HW312421   0.375   3.134   4.914 -0.8433  1.3651 -1.0345
 3172SOL    MW412422   0.407   3.092   4.845  0.2381  0.2032  0.0804
 3173SOL     OW12423   2.097   5.972   3.222  0.0843  0.8964 -0.6735
 3173SOL    HW212424   2.156   6.046   3.236 -1.0709  1.9769 -1.3631
 3173SOL    HW312425   2.153   5.903   3.186  0.8643  2.0460 -1.7208
 3173SOL    MW412426   2.112   5.973   3.219  0.4022 -0.3061 -0.2934
 3174SOL     OW12427   0.371   3.152   5.652  0.0210 -0.0105 -0.3342
 3174SOL    HW212428   0.420   3.070   5.644 -1.1762 -0.8284  0.4602
 3174SOL    HW312429   0.333   3.166   5.565  0.0463 -0.4169 -0.4094
 3174SOL    MW412430   0.372   3.143   5.639 -0.5752  0.0434 -0.4193
 3175SOL     OW12431   1.261   3.411   5.673 -0.1965  0.5855 -0.2227
 3175SOL    HW212432   1.199   3.366   5.616 -0.9314  1.7088 -0.3452
 3175SOL    HW312433   1.264   3.501   5.639  1.5350  0.5504 -0.2416
 3175SOL    MW412434   1.253   3.417   5.661 -0.2137 -0.1058  0.5892
 3176SOL     OW12435   2.604   4.962   3.956 -0.2063  0.1352  0.3195
 3176SOL    HW212436   2.594   5.051   3.920 -2.4054  0.1173  0.7482
 3176SOL    HW312437   2.564   4.967   4.043 -0.4802 -1.3046  0.3002
 3176SOL    MW412438   2.597   4.975   3.963 -0.0678 -0.5623  0.2086
 3177SOL     OW12439   2.655   1.537   4.909 -0.1675 -0.0281 -0.6958
 3177SOL    HW212440   2.728   1.505   4.962 -2.3466 -2.7398  0.9671
 3177SOL    HW312441   2.645   1.472   4.839 -1.9339 -0.7040  0.1045
 3177SOL    MW412442   2.663   1.524   4.907  0.1592 -0.4786  0.2110
 3178SOL     OW12443   2.027   1.198   1.752  0.0107 -0.2564  0.2594
 3178SOL    HW212444   2.020   1.128   1.688  0.6115 -0.8102  0.7916
 3178SOL    HW312445   1.941   1.241   1.749  0.6314  0.9935 -2.2987
 3178SOL    MW412446   2.014   1.194   1.743  0.1214  0.1357 -0.4169
 3179SOL     OW12447   6.289   1.893   0.836  0.3268 -0.6108 -0.1081
 3179SOL    HW212448   6.211   1.947   0.850  1.1943  0.4982  0.5491
 3179SOL    HW312449   6.349   1.918   0.906  1.0000 -1.9876 -0.1644
 3179SOL    MW412450   6.286   1.903   0.847  0.0978 -0.8741 -0.7342
 3180SOL     OW12451   3.746   0.483   1.711 -0.7358  0.0505  0.3139
 3180SOL    HW212452   3.834   0.509   1.740 -1.1792 -0.1593  1.9703
 3180SOL    HW312453   3.690   0.557   1.733 -0.9712  0.2291 -0.8410
 3180SOL    MW412454   3.750   0.496   1.718 -0.5702 -0.4757 -0.5391
 3181SOL     OW12455   3.600   5.113   3.918 -0.1228  0.2996 -0.2237
 3181SOL    HW212456   3.532   5.069   3.868  0.9899  0.0094 -1.5556
 3181SOL    HW312457   3.554   5.181   3.967 -1.3327  0.3549 -1.3817
 3181SOL    MW412458   3.585   5.116   3.918 -0.8998 -0.3156 -0.4389
 3182SOL     OW12459   2.168   5.181   2.748 -0.2606 -0.2228  0.1063
 3182SOL    HW212460   2.212   5.252   2.703 -0.1927  0.1584  0.7610
 3182SOL    HW312461   2.207   5.179   2.835  1.0595 -2.2618 -0.4565
 3182SOL    MW412462   2.179   5.190   2.754 -0.2861 -0.2000  0.3954
 3183SOL     OW12463   1.337   2.164   2.364 -0.4972  0.1791  0.3261
 3183SOL    HW212464   1.311   2.247   2.326  0.7824 -0.3675 -1.9000
 3183SOL    HW312465   1.384   2.188   2.444 -1.3027  1.4966  0.4263
 3183SOL    MW412466   1.340   2.178   2.370 -0.1343  0.3466 -0.3085
 3184SOL     OW12467   6.189   0.350   4.165 -0.3085 -0.3587  0.0037
 3184SOL    HW212468   6.123   0.395   4.111  1.7400  1.0152 -1.5143
 3184SOL    HW312469   6.158   0.362   4.255 -0.5330  3.1659 -0.3895
 3184SOL    MW412470   6.176   0.358   4.170 -0.0790 -0.0954  0.4438
 3185SOL     OW12471   5.540   6.229   1.366  0.4897 -0.4851 -0.6128
 3185SOL    HW212472   5.499   6.315   1.368  0.1268 -0.6705  0.1449
 3185SOL    HW312473   5.599   6.229   1.442  1.0845 -0.6183 -1.0671
 3185SOL    MW412474   5.542   6.240   1.376  0.1152  0.3901  0.3493
 3186SOL     OW12475   5.142   5.132   2.886 -0.3191 -0.1985 -0.0446
 3186SOL    HW212476   5.210   5.126   2.953  1.1696  0.1562 -1.4525
 3186SOL    HW312477   5.090   5.052   2.897 -0.7964  0.3647  2.1917
 3186SOL    MW412478   5.144   5.120   2.896 -0.1065  0.4214 -0.2060
 3187SOL     OW12479   1.702   5.210   3.021  0.6519  0.0462  0.3235
 3187SOL    HW212480   1.746   5.129   3.047  0.5597 -0.9064 -2.2223
 3187SOL    HW312481   1.770   5.261   2.978  0.2752  0.4888  0.2465
 3187SOL    MW412482   1.717   5.206   3.018  0.2076  0.1401  0.5907
 3188SOL     OW12483   5.064   5.612   0.952  0.3006  0.2203  0.1466
 3188SOL    HW212484   5.052   5.673   0.879 -1.2577  1.3925  1.2908
 3188SOL    HW312485   4.977   5.605   0.991  1.3856  1.1182  2.9690
 3188SOL    MW412486   5.051   5.619   0.948  0.2059 -0.2333  0.0054
 3189SOL     OW12487   1.703   0.221   5.379 -0.4561  0.3053 -0.0197
 3189SOL    HW212488   1.650   0.179   5.447  0.7013 -0.4418  0.4592
 3189SOL    HW312489   1.725   0.307   5.415 -1.8199  0.8916 -0.4890
 3189SOL    MW412490   1.699   0.227   5.393 -0.2317 -0.5675  0.1659
 3190SOL     OW12491   6.156   5.619   4.948 -0.0599 -0.0836  0.3967
 3190SOL    HW212492   6.231   5.585   4.997  0.3928 -2.2377 -1.5987
 3190SOL    HW312493   6.194   5.687   4.892  0.4436 -1.1440 -0.5838
 3190SOL    MW412494   6.171   5.624   4.947  0.0141 -0.0155 -0.2627
 3191SOL     OW12495   2.422   4.561   0.807 -0.0072 -0.0067  0.3113
 3191SOL    HW212496   2.391   4.515   0.729  0.1233  0.2578  0.1008
 3191SOL    HW312497   2.343   4.600   0.845  0.0961  0.9276 -0.3976
 3191SOL    MW412498   2.408   4.560   0.802  0.5810 -0.4054  0.1249
 3192SOL     OW12499   1.546   0.780   6.143 -0.0296 -0.1412 -0.5297
 3192SOL    HW212500   1.592   0.726   6.078 -0.6132  0.7357 -1.7139
 3192SOL    HW312501   1.456   0.747   6.143  0.1991 -0.8276  0.6386
 3192SOL    MW412502   1.540   0.769   6.134 -0.2842 -0.3426  0.5241
 3193SOL     OW12503   5.078   1.578   4.750  0.0787  0.0187 -0.0345
 3193SOL    HW212504   5.135   1.501   4.741 -1.5342 -1.1022 -1.4051
 3193SOL    HW312505   5.139   1.651   4.764  2.1006 -0.7830 -3.3581
 3193SOL    MW412506   5.094   1.577   4.750 -0.4722 -0.0761 -0.1753
 3194SOL     OW12507   5.500   1.558   1.484  0.0050  0.0029  0.4355
 3194SOL    HW212508   5.532   1.630   1.539  1.1765 -0.5688  0.5144
 3194SOL    HW312509   5.475   1.490   1.547 -0.9966  0.2753  0.3545
 3194SOL    MW412510   5.501   1.559   1.500  0.5846 -0.1558 -0.3446
 3195SOL     OW12511   4.168   4.818   2.648  0.2294 -0.4179  0.3926
 3195SOL    HW212512   4.168   4.723   2.657  1.5585 -0.3343  1.8024
 3195SOL    HW312513   4.209   4.835   2.563  0.7938 -1.0935  0.5246
 3195SOL    MW412514   4.173   4.808   2.638 -0.1513 -0.1644 -0.4751
 3196SOL     OW12515   5.415   5.257   1.946  0.0458  0.0686  0.1948
 3196SOL    HW212516   5.415   5.178   2.000 -0.8532 -1.6290 -2.1575
 3196SOL    HW312517   5.496   5.252   1.896  0.1722  0.8606  0.3079
 3196SOL    MW412518   5.425   5.246   1.947  0.6106  0.0479 -0.0014
 3197SOL     OW12519   1.828   2.279   2.640 -0.2726 -0.4433  0.2079
 3197SOL    HW212520   1.914   2.314   2.617 -0.3889  0.6406  1.2891
 3197SOL    HW312521   1.841   2.235   2.724 -0.7168 -0.4992  0.2520
 3197SOL    MW412522   1.841   2.278   2.648 -0.3828  0.6655  0.1559
 3198SOL     OW12523   6.418   1.969   4.935  0.0397 -0.4159 -0.5429
 3198SOL    HW212524   6.443   1.904   4.870  0.5034 -0.1693 -0.6127
 3198SOL    HW312525   6.461   1.941   5.016 -1.7469 -1.5693  0.0619
 3198SOL    MW412526   6.427   1.957   4.937  0.3291  0.4352  0.5644
 3199SOL     OW12527   5.058   1.569   2.934 -0.1439  0.4708  0.2260
 3199SOL    HW212528   5.094   1.582   2.847  0.2417 -1.0932  0.1237
 3199SOL    HW312529   5.126   1.520   2.981  0.1244  2.1673  1.7738
 3199SOL    MW412530   5.072   1.565   2.929 -0.5808  0.2466 -0.1585
 3200SOL     OW12531   5.127   1.622   1.062  0.3394 -0.1713 -0.0477
 3200SOL    HW212532   5.178   1.541   1.062  0.6396  0.0136  0.2245
 3200SOL    HW312533   5.053   1.605   1.004 -1.5853 -1.8998  2.6775
 3200SOL    MW412534   5.124   1.609   1.055  0.0283  0.0872  0.5417
 3201SOL     OW12535   1.646   0.024   4.135  0.2809  0.2431  0.4967
 3201SOL    HW212536   1.643   0.108   4.182  0.2349  1.1119 -0.9744
 3201SOL    HW312537   1.700  -0.032   4.190  1.2915  1.6206  0.9868
 3201SOL    MW412538   1.653   0.028   4.148  0.1019  0.1880 -0.6554
 3202SOL     OW12539   3.163   5.969   0.210  0.1886 -0.2827 -0.0619
 3202SOL    HW212540   3.194   6.023   0.283 -0.8561 -0.6168  0.6470
 3202SOL    HW312541   3.156   6.029   0.136 -0.7712  0.5265  0.6681
 3202SOL    MW412542   3.166   5.984   0.210  0.2583  0.0938 -0.5542
 3203SOL     OW12543   1.514   3.558   5.478 -0.4510 -0.2286 -0.1629
 3203SOL    HW212544   1.564   3.480   5.501 -0.8816 -0.9364 -1.4848
 3203SOL    HW312545   1.540   3.578   5.388 -1.0642  0.5856 -0.1786
 3203SOL    MW412546   1.524   3.551   5.469  0.5417 -0.4155 -0.1301
 3204SOL     OW12547   1.631   6.068   1.504 -0.0523 -0.6845  0.8061
 3204SOL    HW212548   1.621   5.983   1.547 -0.2650  0.1346  2.4590
 3204SOL    HW312549   1.542   6.095   1.483 -0.0838 -0.3278  1.3923
 3204SOL    MW412550   1.618   6.060   1.507  0.0547 -0.6255 -0.3744
 3205SOL     OW12551   5.858   6.168   1.927 -0.3004  0.3215  0.0390
 3205SOL    HW212552   5.932   6.110   1.910  1.7561  3.0007 -0.9859
 3205SOL    HW312553   5.785   6.129   1.879  1.1452 -1.0820 -1.1203
 3205SOL    MW412554   5.858   6.155   1.918  0.0133 -0.3481 -0.4247
 3206SOL     OW12555   0.333   1.094   3.815  0.2905  0.2983  0.2258
 3206SOL    HW212556   0.303   1.007   3.841  1.1619 -0.4570 -1.1416
 3206SOL    HW312557   0.289   1.110   3.731 -1.6397  2.2036  1.5063
 3206SOL    MW412558   0.323   1.084   3.807 -0.1935 -0.1438  0.2165
 3207SOL     OW12559   6.372   3.797   6.319 -0.2461 -0.1939 -0.2876
 3207SOL    HW212560   6.407   3.708   6.319  0.9410  0.2529  0.6029
 3207SOL    HW312561   6.423   3.843   6.252  0.4019  0.2675  0.5030
 3207SOL    MW412562   6.383   3.792   6.310 -0.3282  0.6725 -0.4213
 3208SOL     OW12563   2.969   0.962   2.198 -0.0221  0.3170 -0.2639
 3208SOL    HW212564   3.011   0.966   2.284 -0.7375 -2.0604  0.2630
 3208SOL    HW312565   2.876   0.948   2.216 -0.4988  1.6410 -1.4512
 3208SOL    MW412566   2.962   0.961   2.212 -0.7803  0.0682 -0.1645
 3209SOL     OW12567   1.125   1.800   1.852  0.3477  0.1119  0.1852
 3209SOL    HW212568   1.151   1.889   1.875 -1.3021  0.4683  0.7951
 3209SOL    HW312569   1.149   1.791   1.760  1.7355  0.6999  0.4601
 3209SOL    MW412570   1.132   1.811   1.843  0.9216 -0.0252 -0.3430
 3210SOL     OW12571   3.417   0.843   1.520  0.1289  0.6170 -0.3291
 3210SOL    HW212572   3.394   0.777   1.456  0.8140 -0.1254  0.1694
 3210SOL    HW312573   3.511   0.854   1.512  0.0906  1.2044 -0.0917
 3210SOL    MW412574   3.426   0.836   1.511  0.0734  0.5384  0.1828
 3211SOL     OW12575   3.904   1.591   5.566 -0.2695 -0.2617  0.0449
 3211SOL    HW212576   3.823   1.642   5.575  0.6460  1.1097  0.8324
 3211SOL    HW312577   3.947   1.627   5.488 -0.6483 -1.3542 -0.6903
 3211SOL    MW412578   3.899   1.603   5.557  0.0981 -0.2789  0.0189
 3212SOL     OW12579   0.960   0.315   2.162  0.8459 -0.3623  0.5614
 3212SOL    HW212580   0.984   0.372   2.235  0.7605  0.2006  0.1579
 3212SOL    HW312581   0.866   0.302   2.170  0.9398 -0.8438  0.9283
 3212SOL    MW412582   0.951   0.321   2.172  0.1713 -0.3991  0.0969
 3213SOL     OW12583   4.228   4.555   1.933 -0.1819 -0.9388  0.8474
 3213SOL    HW212584   4.148   4.608   1.930  1.6267  2.0282 -0.7622
 3213SOL    HW312585   4.264   4.573   2.020  0.5213  0.8280  0.2470
 3213SOL    MW412586   4.222   4.565   1.944 -0.2120  0.3542  0.3992
 3214SOL     OW12587   2.294   2.707   0.593 -0.2983 -0.3251  0.0893
 3214SOL    HW212588   2.260   2.630   0.639 -2.8545  1.0319  0.6295
 3214SOL    HW312589   2.350   2.751   0.657 -0.9221 -0.3695  0.6720
 3214SOL    MW412590   2.297   2.702   0.608  0.2263  0.4220 -0.5626
 3215SOL     OW12591   3.244   5.106   5.410 -0.3794 -0.5379  0.0916
 3215SOL    HW212592   3.333   5.103   5.446  0.0450  0.4472 -0.8219
 3215SOL    HW312593   3.199   5.172   5.464  0.2401  0.8973 -1.1022
 3215SOL    MW412594   3.250   5.114   5.422 -0.0789 -0.3287 -0.1138
 3216SOL     OW12595   2.391   2.659   5.312 -0.1073  0.3327 -0.0982
 3216SOL    HW212596   2.434   2.669   5.227 -1.0751  0.9836 -0.5293
 3216SOL    HW312597   2.407   2.743   5.356 -2.3555  1.2899 -0.9576
 3216SOL    MW412598   2.399   2.672   5.306  0.0690  0.2792 -0.4575
 3217SOL     OW12599   4.043   5.036   5.837  0.3236  0.1263  0.5093
 3217SOL    HW212600   3.993   4.980   5.778  1.4798  1.2656 -1.6819
 3217SOL    HW312601   4.119   4.983   5.861 -0.4750 -0.5796  1.5650
 3217SOL    MW412602   4.047   5.022   5.833 -0.1211  0.1141 -0.1031
 3218SOL     OW12603   2.495   5.726   3.230 -0.2969  0.4982 -0.0789
 3218SOL    HW212604   2.474   5.712   3.323 -1.3957  0.4494 -0.3166
 3218SOL    HW312605   2.410   5.738   3.188  0.1835  0.4616 -1.0970
 3218SOL    MW412606   2.481   5.725   3.237  0.3312 -0.3478  0.5602
 3219SOL     OW12607   4.180   5.151   6.226  0.2258  0.1604 -0.0391
 3219SOL    HW212608   4.108   5.088   6.235  0.3724  0.2514  2.1287
 3219SOL    HW312609   4.137   5.236   6.223  0.2100  0.1746  0.5930
 3219SOL    MW412610   4.164   5.154   6.227 -0.1242  0.0761  0.2495
 3220SOL     OW12611   5.325   4.704   0.879 -0.0153  0.6427 -0.2823
 3220SOL    HW212612   5.345   4.722   0.787  0.1530 -0.4754 -0.4847
 3220SOL    HW312613   5.238   4.664   0.877  0.5776 -0.7306 -0.1358
 3220SOL    MW412614   5.316   4.701   0.867 -0.1746  0.1547  0.0962
 3221SOL     OW12615   3.913   5.525   4.704  0.3436  0.2290 -0.7603
 3221SOL    HW212616   3.906   5.572   4.787  1.2662  0.9087 -1.0476
 3221SOL    HW312617   3.995   5.476   4.710  0.1502 -0.1395 -1.0599
 3221SOL    MW412618   3.923   5.525   4.716 -0.5453  0.6061  0.0169
 3222SOL     OW12619   0.734   2.827   6.171 -0.9045  0.1382  0.4372
 3222SOL    HW212620   0.728   2.732   6.177  0.5483 -0.0683 -0.8147
 3222SOL    HW312621   0.661   2.853   6.115 -0.9806 -0.2828  0.3388
 3222SOL    MW412622   0.724   2.818   6.165 -0.6553  0.0512  0.2980
 3223SOL     OW12623   2.283   5.529   2.874  0.8933  0.0261  0.1053
 3223SOL    HW212624   2.251   5.617   2.854  0.1479  0.8869  4.3001
 3223SOL    HW312625   2.374   5.542   2.900  0.7468 -0.3950  0.8489
 3223SOL    MW412626   2.291   5.542   2.875  0.2169  0.0950  0.4544
 3224SOL     OW12627   5.843   5.198   3.974  1.0421 -0.1308  0.0365
 3224SOL    HW212628   5.913   5.133   3.973  1.1843 -0.0177 -1.7054
 3224SOL    HW312629   5.773   5.158   4.026  1.1738 -1.6322 -0.8793
 3224SOL    MW412630   5.843   5.184   3.981  0.0974  0.1687 -0.1590
 3225SOL     OW12631   6.080   4.254   1.113 -0.1969 -0.4997  0.2703
 3225SOL    HW212632   6.030   4.291   1.039  1.8512  2.1323  0.0587
 3225SOL    HW312633   6.028   4.277   1.190 -0.4357  0.2463 -0.0981
 3225SOL    MW412634   6.066   4.262   1.113 -0.0434 -0.2265  0.0788
 3226SOL     OW12635   2.242   1.306   5.688  0.1586 -0.3258  0.6828
 3226SOL    HW212636   2.158   1.345   5.710  0.7562 -0.2875  3.2116
 3226SOL    HW312637   2.250   1.232   5.748  1.2239 -1.3553 -0.6595
 3226SOL    MW412638   2.232   1.301   5.699  0.6102  0.1410  0.6819
 3227SOL     OW12639   2.379   0.147   1.650 -0.8347  0.0184 -0.0938
 3227SOL    HW212640   2.322   0.207   1.698  1.0718  1.6713  0.2499
 3227SOL    HW312641   2.438   0.204   1.601  1.0803 -1.5300  0.2712
 3227SOL    MW412642   2.380   0.163   1.650 -0.5839 -0.8886  0.3066
 3228SOL     OW12643   5.506   5.156   0.651  0.4506  0.4443 -0.5667
 3228SOL    HW212644   5.601   5.143   0.652  0.2937 -0.7906  0.3849
 3228SOL    HW312645   5.480   5.129   0.563  1.1744  2.7279 -1.5709
 3228SOL    MW412646   5.515   5.151   0.639 -0.1544 -0.2439  0.7600
 3229SOL     OW12647   6.354   5.644   2.930 -0.5575 -0.0243 -0.4879
 3229SOL    HW212648   6.353   5.569   2.870  0.5066 -0.4267 -0.0241
 3229SOL    HW312649   6.261   5.663   2.946 -0.8505 -0.2639 -1.8112
 3229SOL    MW412650   6.341   5.637   2.924 -0.5413 -0.6829  0.1494
 3230SOL     OW12651   4.051   1.853   4.886 -0.0531 -0.0978 -0.0281
 3230SOL    HW212652   3.986   1.794   4.849 -0.4321 -0.5391  1.3069
 3230SOL    HW312653   4.088   1.805   4.960  0.5050  0.8567  0.3336
 3230SOL    MW412654   4.048   1.839   4.891 -0.1294 -0.0195  0.1556
 3231SOL     OW12655   5.108   4.759   5.952  0.2977 -0.7647  0.0870
 3231SOL    HW212656   5.163   4.829   5.918 -2.5148  1.0609 -1.1117
 3231SOL    HW312657   5.120   4.687   5.891  0.0308  0.2473 -1.1945
 3231SOL    MW412658   5.117   4.759   5.940 -0.3810 -0.1372 -0.3005
 3232SOL     OW12659   1.958   6.435   1.879 -0.4493 -0.5413  0.1116
 3232SOL    HW212660   1.902   6.493   1.827 -0.5121 -1.3135 -0.7004
 3232SOL    HW312661   1.972   6.482   1.961  0.9173  1.4058 -1.1665
 3232SOL    MW412662   1.952   6.449   1.883 -0.0771  0.5191  0.4286
 3233SOL     OW12663   3.857   2.981   4.970 -0.2442  0.0085 -0.3928
 3233SOL    HW212664   3.867   2.911   5.035 -1.1023 -0.0806 -0.3406
 3233SOL    HW312665   3.838   2.935   4.888  2.5776  0.0134 -1.1649
 3233SOL    MW412666   3.856   2.966   4.968  0.0386 -0.6487  0.2265
 3234SOL     OW12667   3.946   0.009   3.735  0.3975 -0.2749 -0.2301
 3234SOL    HW212668   3.905  -0.010   3.651  0.8411 -0.7604 -0.3410
 3234SOL    HW312669   3.888   0.073   3.776  2.0505  3.0377 -2.5168
 3234SOL    MW412670   3.933   0.015   3.729 -0.7285  0.3501 -0.7012
 3235SOL     OW12671   1.748   3.839   1.269  0.9575 -0.5869  0.1108
 3235SOL    HW212672   1.743   3.864   1.361 -0.2522  0.3886 -0.2066
 3235SOL    HW312673   1.734   3.744   1.270  0.8383 -0.5730  0.9103
 3235SOL    MW412674   1.746   3.830   1.281 -0.2672 -0.1211 -0.4214
 3236SOL     OW12675   4.374   3.296   3.605 -0.3741 -0.1070 -0.2246
 3236SOL    HW212676   4.310   3.321   3.672  0.1013 -0.6217  0.4359
 3236SOL    HW312677   4.432   3.234   3.649  1.3474  1.2735 -0.4179
 3236SOL    MW412678   4.373   3.291   3.619  0.1662  0.4939 -0.0822
 3237SOL     OW12679   2.194   3.878   2.365 -0.4194  0.1423 -0.2940
 3237SOL    HW212680   2.172   3.807   2.304 -2.1970  1.0056 -0.7422
 3237SOL    HW312681   2.177   3.958   2.315  0.9338  0.8975  0.4111
 3237SOL    MW412682   2.189   3.879   2.350  0.2274 -0.2016 -0.3217
 3238SOL     OW12683   5.684   1.763   1.538  0.0191 -0.3028 -0.9527
 3238SOL    HW212684   5.747   1.710   1.489 -0.6038 -0.8827 -1.1304
 3238SOL    HW312685   5.686   1.848   1.495 -1.1905 -1.0610 -2.5888
 3238SOL    MW412686   5.693   1.767   1.526 -0.0800  0.1478 -0.5090
 3239SOL     OW12687   2.592   0.720   2.280  0.3033 -0.4744  0.2880
 3239SOL    HW212688   2.527   0.715   2.210 -1.3778 -0.0247  1.7464
 3239SOL    HW312689   2.665   0.665   2.249  0.6582  1.4852 -2.7814
 3239SOL    MW412690   2.593   0.712   2.266 -0.8048 -0.4235 -0.3643
 3240SOL     OW12691   2.482   1.492   2.306 -0.3698 -0.1217  0.3336
 3240SOL    HW212692   2.550   1.488   2.239 -0.7631 -0.9518 -0.0272
 3240SOL    HW312693   2.450   1.402   2.313 -0.8128  0.0933  1.1394
 3240SOL    MW412694   2.487   1.479   2.298  0.3913 -0.0056 -0.0602
 3241SOL     OW12695   2.413   3.745   2.476  0.3356 -0.6502  0.2869
 3241SOL    HW212696   2.472   3.810   2.514  0.6410 -0.0695 -1.1226
 3241SOL    HW312697   2.329   3.790   2.469  1.1573  0.6654 -3.2123
 3241SOL    MW412698   2.410   3.759   2.480  0.1460 -0.4115 -0.2373
 3242SOL     OW12699   3.960   2.935   6.311 -0.6204 -0.3623 -0.8267
 3242SOL    HW212700   3.872   2.899   6.307 -0.2572 -1.2307 -1.4740
 3242SOL    HW312701   4.004   2.883   6.379 -1.1826  1.4826  1.0769
 3242SOL    MW412702   3.954   2.923   6.320 -0.6940 -0.4749 -0.2262
 3243SOL     OW12703   3.222   5.415   1.004  0.7076  0.3721 -0.4677
 3243SOL    HW212704   3.227   5.319   1.005 -0.6106  0.1677  3.2542
 3243SOL    HW312705   3.311   5.443   0.982  1.0225 -1.6368 -2.1403
 3243SOL    MW412706   3.235   5.406   1.001 -0.0062 -0.5742  0.0517
 3244SOL     OW12707   5.024   4.229   6.250  0.3356 -0.2004  0.5537
 3244SOL    HW212708   4.964   4.231   6.176  0.7496  0.4005  0.2237
 3244SOL    HW312709   5.062   4.141   6.248  1.0553  0.1171 -0.5377
 3244SOL    MW412710   5.021   4.217   6.240 -0.5048  0.5297  0.0068
 3245SOL     OW12711   3.244   5.907   3.172  0.5387  0.3875 -0.1900
 3245SOL    HW212712   3.270   5.815   3.163 -0.7545 -0.0316  0.1873
 3245SOL    HW312713   3.314   5.956   3.128  1.0235 -0.7971 -0.7838
 3245SOL    MW412714   3.257   5.902   3.165  0.3295  0.4717  0.0258
 3246SOL     OW12715   0.764   1.866   0.923  0.2217  0.1746 -0.1821
 3246SOL    HW212716   0.846   1.824   0.900  0.6919  0.5428  0.7795
 3246SOL    HW312717   0.764   1.948   0.874  0.3115  0.0520 -0.3843
 3246SOL    MW412718   0.775   1.871   0.914  0.0024 -0.0668 -0.1750
 3247SOL     OW12719   0.021   3.095   5.635 -0.2018 -0.0155  0.2504
 3247SOL    HW212720   0.092   3.128   5.579  0.7704 -0.5628  1.1110
 3247SOL    HW312721   0.040   3.135   5.721 -1.5496  0.6615  0.2541
 3247SOL    MW412722   0.033   3.105   5.639  0.1680 -0.2609 -0.0080
 3248SOL     OW12723   5.770   3.790   2.599  0.0128  0.3554 -0.4270
 3248SOL    HW212724   5.729   3.873   2.622  1.3040  0.8511  0.2010
 3248SOL    HW312725   5.741   3.729   2.667 -1.2202  0.1771 -1.0861
 3248SOL    MW412726   5.761   3.793   2.611 -0.3684  0.6787 -0.7109
 3249SOL     OW12727   5.778   6.188   3.809 -0.1361  0.3820  0.3506
 3249SOL    HW212728   5.854   6.147   3.766 -0.6610 -1.2288  0.8901
 3249SOL    HW312729   5.808   6.208   3.897 -0.0829  0.5568  0.2938
 3249SOL    MW412730   5.792   6.185   3.815  0.5864  0.3278 -0.2952
 3250SOL     OW12731   3.024   1.378   5.407 -0.0800  0.4007  0.2613
 3250SOL    HW212732   2.972   1.437   5.462  0.0053  0.5219  0.2145
 3250SOL    HW312733   3.096   1.433   5.375 -1.2626  0.9208 -1.6754
 3250SOL    MW412734   3.027   1.393   5.410  0.2732 -0.1791  0.5176
 3251SOL     OW12735   3.531   1.428   3.452  0.6295  0.0528 -0.0123
 3251SOL    HW212736   3.622   1.459   3.452  0.2426  1.2468  1.1537
 3251SOL    HW312737   3.479   1.504   3.478 -0.7466 -0.5532 -0.8713
 3251SOL    MW412738   3.536   1.442   3.455 -0.8339 -0.2827 -0.6016
 3252SOL     OW12739   4.991   0.681   5.457  0.3261  0.5340 -0.0423
 3252SOL    HW212740   5.071   0.651   5.500 -0.7326  0.5896  2.0962
 3252SOL    HW312741   4.948   0.737   5.522 -2.2092 -0.7210 -0.4933
 3252SOL    MW412742   4.996   0.685   5.471 -0.1876  0.2164  0.7453
 3253SOL     OW12743   5.589   4.656   1.362  0.1101  0.2132  0.6650
 3253SOL    HW212744   5.627   4.587   1.308 -1.5102  0.1201 -0.4178
 3253SOL    HW312745   5.513   4.616   1.404 -0.8817  1.3161 -0.0094
 3253SOL    MW412746   5.584   4.642   1.361  0.3856 -0.6692  0.3563
 3254SOL     OW12747   3.049   5.528   4.127 -0.3632  0.0456 -0.1427
 3254SOL    HW212748   3.072   5.435   4.128 -0.3481 -0.0310  2.9138
 3254SOL    HW312749   3.133   5.574   4.127 -0.3021 -0.0362  0.7706
 3254SOL    MW412750   3.063   5.521   4.127 -0.5668 -0.5250 -0.2303
 3255SOL     OW12751   4.135   3.680   5.358  0.0854 -0.1861  0.3318
 3255SOL    HW212752   4.182   3.758   5.387  0.8356 -0.6118  0.2793
 3255SOL    HW312753   4.168   3.610   5.413  0.2419 -0.6708 -0.3661
 3255SOL    MW412754   4.145   3.681   5.369 -0.3075 -0.0158  0.3662
 3256SOL     OW12755   0.946   0.948   3.972 -0.1892 -0.3266 -0.6586
 3256SOL    HW212756   1.030   0.991   3.988 -0.7778  0.5064  0.2815
 3256SOL    HW312757   0.941   0.880   4.039  1.6248 -3.3594 -3.2887
 3256SOL    MW412758   0.956   0.945   3.983  0.4381  0.3009  0.5135
 3257SOL     OW12759   4.674   3.930   5.846  0.1028 -0.4949 -0.2446
 3257SOL    HW212760   4.660   3.886   5.929 -0.9051  0.0993 -0.0889
 3257SOL    HW312761   4.621   3.881   5.783  2.8261 -2.5806 -1.1567
 3257SOL    MW412762   4.665   3.918   5.849 -0.5144 -0.4500 -0.1935
 3258SOL     OW12763   3.467   3.003   4.458 -0.3074 -0.1427 -0.3803
 3258SOL    HW212764   3.464   2.909   4.438 -0.4130  0.0134 -1.0941
 3258SOL    HW312765   3.384   3.038   4.426 -0.5549  0.0928  0.4693
 3258SOL    MW412766   3.456   2.995   4.451 -0.0293  0.3089  0.0910
 3259SOL     OW12767   2.737   5.411   0.030 -0.7031 -0.1566  0.1651
 3259SOL    HW212768   2.769   5.400   0.119  0.1848  1.0385  0.0233
 3259SOL    HW312769   2.798   5.361  -0.024  0.4092  1.2888 -0.0012
 3259SOL    MW412770   2.750   5.403   0.034  0.2817 -0.3369 -0.0124
 3260SOL     OW12771   2.884   4.836   5.907 -0.2983 -0.2791  0.1094
 3260SOL    HW212772   2.834   4.917   5.896  0.9131  0.3081 -1.4347
 3260SOL    HW312773   2.820   4.766   5.892 -0.9708  0.4116 -0.3173
 3260SOL    MW412774   2.869   4.837   5.904  0.1570 -0.1407 -0.5473
 3261SOL     OW12775   3.315   3.195   3.554 -0.0556 -0.3256  0.1207
 3261SOL    HW212776   3.233   3.232   3.520 -0.7406 -1.7465  0.1411
 3261SOL    HW312777   3.375   3.269   3.558 -1.2006  0.6617 -0.3382
 3261SOL    MW412778   3.312   3.209   3.550  0.6194  0.6822  0.2041
 3262SOL     OW12779   0.738   3.176   5.114 -0.3663 -0.2953  0.2103
 3262SOL    HW212780   0.742   3.214   5.027  1.5928  0.3445  0.5207
 3262SOL    HW312781   0.783   3.091   5.105 -0.9430 -0.6280  0.4201
 3262SOL    MW412782   0.744   3.170   5.101  0.6992  0.2615  0.3093
 3263SOL     OW12783   1.145   1.210   2.402  0.1577 -0.3429 -0.1227
 3263SOL    HW212784   1.101   1.207   2.487  2.2641  0.5096  1.0762
 3263SOL    HW312785   1.185   1.297   2.398  1.6678 -1.0329 -1.1258
 3263SOL    MW412786   1.145   1.221   2.413 -0.7343  0.0677 -0.1128
 3264SOL     OW12787   2.248   0.981   3.033  0.1696 -0.3023 -0.1351
 3264SOL    HW212788   2.155   0.974   3.055  0.4799 -2.1119  0.7433
 3264SOL    HW312789   2.290   1.008   3.114  0.2497  2.4902 -1.0007
 3264SOL    MW412790   2.241   0.984   3.046  0.1230  0.0412 -0.7911
 3265SOL     OW12791   1.737   4.824   6.029 -0.4623  0.1156  0.5496
 3265SOL    HW212792   1.661   4.874   6.059 -0.2710 -0.5202  2.1776
 3265SOL    HW312793   1.704   4.734   6.020 -0.3261  0.1529 -0.5141
 3265SOL    MW412794   1.722   4.819   6.032  0.0319 -0.1900 -0.3968
 3266SOL     OW12795   5.864   2.984   2.288 -0.0490  0.3359  0.5112
 3266SOL    HW212796   5.874   3.048   2.218 -0.5339 -2.4259 -2.3359
 3266SOL    HW312797   5.819   3.031   2.358 -1.1640  2.8484 -1.7123
 3266SOL    MW412798   5.860   2.998   2.288 -0.0235  0.5341 -0.4669
 3267SOL     OW12799   4.502   2.329   1.535 -0.1647  0.0753  0.1993
 3267SOL    HW212800   4.560   2.352   1.463 -1.2234  1.4768 -0.2622
 3267SOL    HW312801   4.439   2.268   1.496 -1.6946  2.0202 -0.5834
 3267SOL    MW412802   4.501   2.324   1.520 -0.1264  0.9512  0.0795
 3268SOL     OW12803   3.983   1.953   1.026  0.0545  0.0201 -0.2425
 3268SOL    HW212804   3.969   1.859   1.041 -0.9552 -0.0410 -1.4535
 3268SOL    HW312805   3.940   1.995   1.101  0.0411 -0.4648  0.0302
 3268SOL    MW412806   3.975   1.946   1.038 -0.2599 -0.7282 -0.3726
 3269SOL     OW12807   0.566   0.919   6.086 -0.2644 -0.2957  0.1249
 3269SOL    HW212808   0.522   0.871   6.156  1.3075  0.1226  1.4736
 3269SOL    HW312809   0.514   0.998   6.074  0.3592  0.5027  2.1286
 3269SOL    MW412810   0.553   0.923   6.094 -0.1724 -0.2445  0.0281
 3270SOL     OW12811   2.012   5.967   2.652 -0.1221  0.2906  0.5862
 3270SOL    HW212812   1.934   5.913   2.634 -0.1650  0.5314  0.0459
 3270SOL    HW312813   2.060   5.969   2.569  0.0281  0.8495  0.6826
 3270SOL    MW412814   2.008   5.960   2.639 -0.8355  0.1821  0.0853
 3271SOL     OW12815   1.849   3.111   2.477  0.2596  0.4627  0.1224
 3271SOL    HW212816   1.834   3.205   2.489 -0.0409  0.5736 -1.0696
 3271SOL    HW312817   1.882   3.102   2.388  0.0887 -0.5848  0.1494
 3271SOL    MW412818   1.851   3.122   2.467  0.3620 -0.4240  0.0756
 3272SOL     OW12819   1.568   6.109   2.690 -0.0537 -0.1797  0.1987
 3272SOL    HW212820   1.536   6.025   2.721 -0.1529 -0.1805  0.0964
 3272SOL    HW312821   1.650   6.123   2.737 -0.0481 -0.3235  0.2311
 3272SOL    MW412822   1.575   6.100   2.700 -0.1743  0.2075 -0.5022
 3273SOL     OW12823   6.399   0.145   4.000  0.2074  0.2492  0.1303
 3273SOL    HW212824   6.492   0.159   4.016  0.5353 -2.5180  1.1269
 3273SOL    HW312825   6.394   0.057   3.962 -1.9915  0.3963 -0.0558
 3273SOL    MW412826   6.411   0.135   3.997 -0.6851 -0.2068  0.0942
 3274SOL     OW12827   6.100   2.157   3.134 -0.3008 -0.4148 -0.1357
 3274SOL    HW212828   6.067   2.070   3.155  0.1875 -0.4102  0.6982
 3274SOL    HW312829   6.055   2.215   3.195  0.0276 -0.2020 -0.0902
 3274SOL    MW412830   6.090   2.153   3.145 -0.2337  0.2693  0.5779
 3275SOL     OW12831   1.276   1.071   5.839 -0.0674  1.0072 -0.1820
 3275SOL    HW212832   1.190   1.041   5.867  0.6041 -0.3922  0.4683
 3275SOL    HW312833   1.309   1.124   5.912  0.3801 -0.0176  0.3757
 3275SOL    MW412834   1.269   1.074   5.852  0.0975 -0.3616  0.5567
 3276SOL     OW12835   5.817   5.590   5.850 -0.0220  0.1282  0.4474
 3276SOL    HW212836   5.730   5.603   5.811  0.1249  0.7012  0.2962
 3276SOL    HW312837   5.844   5.503   5.821  0.6188  1.0156 -1.8043
 3276SOL    MW412838   5.809   5.580   5.841 -0.1093 -0.7623  0.1893
 3277SOL     OW12839   0.660   5.439   0.917 -0.2008 -0.5599 -0.2158
 3277SOL    HW212840   0.682   5.473   0.830  0.0625 -0.0692  0.0430
 3277SOL    HW312841   0.705   5.354   0.920  0.6867 -0.1034 -0.1552
 3277SOL    MW412842   0.669   5.432   0.906  0.2089  0.0360  0.1918
 3278SOL     OW12843   2.517   6.392   6.408 -0.0536  0.0395 -0.1375
 3278SOL    HW212844   2.468   6.382   6.326 -0.0318  0.0445 -0.1513
 3278SOL    HW312845   2.594   6.337   6.396  0.0770  0.2416 -0.2215
 3278SOL    MW412846   2.521   6.384   6.396 -0.2157 -0.4302  0.3011
 3279SOL     OW12847   6.290   0.466   4.998  0.1727 -0.7203 -0.9031
 3279SOL    HW212848   6.367   0.420   4.964 -0.1049 -2.5420  0.7441
 3279SOL    HW312849   6.327   0.542   5.045  0.8637 -0.8320 -1.2517
 3279SOL    MW412850   6.305   0.470   5.000  0.3176  0.4352 -0.1049
 3280SOL     OW12851   0.607   4.367   1.217  0.3232 -0.4416 -0.1707
 3280SOL    HW212852   0.560   4.285   1.200  1.0121 -0.7482 -0.6451
 3280SOL    HW312853   0.553   4.434   1.175  0.4439 -0.8267 -0.9614
 3280SOL    MW412854   0.594   4.365   1.209 -0.1649 -0.3595 -0.6143
 3281SOL     OW12855   0.717   1.135   3.922 -0.0234  0.3081  0.1237
 3281SOL    HW212856   0.733   1.211   3.867  0.3023 -1.2397 -2.0408
 3281SOL    HW312857   0.803   1.096   3.936 -0.3847 -0.7771 -0.5414
 3281SOL    MW412858   0.730   1.140   3.917  0.4159  0.1511 -0.1031
 3282SOL     OW12859   0.342   1.254   3.225 -0.6726 -0.5404  0.0828
 3282SOL    HW212860   0.332   1.170   3.271 -1.1274 -0.3564  0.3256
 3282SOL    HW312861   0.434   1.255   3.196 -0.6976 -1.1716 -0.0239
 3282SOL    MW412862   0.353   1.243   3.227  0.4432  0.2497  0.8016
 3283SOL     OW12863   3.545   2.707   5.413 -0.2925  0.2925 -0.0469
 3283SOL    HW212864   3.616   2.727   5.474 -0.2275  0.0673 -0.0465
 3283SOL    HW312865   3.466   2.715   5.465 -0.2147 -0.2595  0.1649
 3283SOL    MW412866   3.544   2.711   5.428 -0.6945  0.3192 -0.5144
 3284SOL     OW12867   1.328   5.692   5.879  0.2505  0.3050 -0.3456
 3284SOL    HW212868   1.311   5.696   5.973 -1.5319 -0.0044 -0.6162
 3284SOL    HW312869   1.265   5.754   5.841 -0.5094 -1.1115 -1.4880
 3284SOL    MW412870   1.317   5.701   5.887 -0.1670  0.0106 -0.3351
 3285SOL     OW12871   3.693   3.895   1.922  0.1965 -0.1892  0.7545
 3285SOL    HW212872   3.718   3.823   1.980  0.1892 -1.8560 -1.2069
 3285SOL    HW312873   3.603   3.917   1.949  0.0380 -1.2149  1.1094
 3285SOL    MW412874   3.684   3.889   1.933 -0.1714  0.7488  0.3611
 3286SOL     OW12875   3.276   6.413   0.282 -0.3302  0.2345  0.7633
 3286SOL    HW212876   3.193   6.391   0.241 -0.3693  3.3392 -1.1749
 3286SOL    HW312877   3.262   6.500   0.320  1.2116 -0.4368  3.1287
 3286SOL    MW412878   3.263   6.422   0.282 -0.4858  0.1050  0.1852
 3287SOL     OW12879   5.135   3.675   1.770  0.5861 -0.0945 -0.2018
 3287SOL    HW212880   5.212   3.720   1.804  0.0066  1.9145 -1.3369
 3287SOL    HW312881   5.124   3.712   1.682 -1.0472 -1.1304 -0.4646
 3287SOL    MW412882   5.144   3.686   1.763  0.1102 -0.0042  0.1041
 3288SOL     OW12883   5.102   3.109   4.130 -0.5881 -0.0657 -0.3711
 3288SOL    HW212884   5.019   3.096   4.176 -0.1029 -0.5683  0.3829
 3288SOL    HW312885   5.130   3.197   4.155 -0.8555  0.0825 -0.5816
 3288SOL    MW412886   5.095   3.119   4.139  0.2556 -0.4762  0.7499
 3289SOL     OW12887   3.690   6.287   4.636 -0.1847  0.3309  0.2259
 3289SOL    HW212888   3.676   6.266   4.544  0.0132  1.0927  0.0199
 3289SOL    HW312889   3.679   6.382   4.642  0.4380  0.3722  0.8763
 3289SOL    MW412890   3.686   6.297   4.625  0.1074 -0.2231  0.4740
 3290SOL     OW12891   3.784   6.362   3.511 -0.0204  0.1066  0.3379
 3290SOL    HW212892   3.760   6.449   3.478  0.3592  1.3761  3.1527
 3290SOL    HW312893   3.735   6.353   3.593 -0.0667 -2.4001  0.1090
 3290SOL    MW412894   3.774   6.372   3.517  0.3559  0.0185 -0.2436
 3291SOL     OW12895   1.527   5.402   2.099 -0.4764 -0.0356 -0.1233
 3291SOL    HW212896   1.443   5.418   2.056  0.2792 -0.5419 -1.8859
 3291SOL    HW312897   1.591   5.447   2.044  0.3903  0.6551  1.3948
 3291SOL    MW412898   1.524   5.410   2.086  0.1139 -0.3063  0.2918
 3292SOL     OW12899   3.970   0.407   0.456 -0.1492  0.2962  0.5950
 3292SOL    HW212900   4.051   0.427   0.503  0.1176 -1.9973  1.2361
 3292SOL    HW312901   3.933   0.333   0.503 -2.1196  0.6511 -0.3003
 3292SOL    MW412902   3.976   0.400   0.468  0.1292  0.0409 -0.4290
 3293SOL     OW12903   2.208   2.082   5.788 -0.2325  0.8360  0.7112
 3293SOL    HW212904   2.267   2.007   5.790 -2.3086 -0.9525 -0.1827
 3293SOL    HW312905   2.169   2.079   5.701 -0.8464  2.5791  0.8963
 3293SOL    MW412906   2.210   2.071   5.777  0.5367 -0.3984  0.0153
 3294SOL     OW12907   1.951   0.249   4.284 -0.0745  0.2173 -0.1803
 3294SOL    HW212908   1.963   0.341   4.307 -0.2525 -0.0322  0.9616
 3294SOL    HW312909   1.912   0.251   4.197  1.8728  1.1712 -1.0761
 3294SOL    MW412910   1.947   0.261   4.276 -0.0510 -0.0337  0.2434
 3295SOL     OW12911   4.065   3.170   2.388  0.4962 -0.0886 -0.4294
 3295SOL    HW212912   3.988   3.118   2.412 -0.8680  1.6617 -0.7761
 3295SOL    HW312913   4.085   3.143   2.298 -0.7757  0.5820 -0.9465
 3295SOL    MW412914   4.058   3.160   2.379 -0.1228  0.3539  0.5224
 3296SOL     OW12915   4.662   6.215   1.903  0.2633  0.3316 -0.4960
 3296SOL    HW212916   4.719   6.210   1.826  0.6368  1.2324 -0.2931
 3296SOL    HW312917   4.689   6.141   1.957 -0.1268 -0.4246 -1.2950
 3296SOL    MW412918   4.673   6.205   1.900 -0.3803  0.2989  0.2132
 3297SOL     OW12919   4.540   4.231   2.976 -0.4757  0.0422 -0.0561
 3297SOL    HW212920   4.556   4.144   2.940  2.9133  0.7755 -0.6076
 3297SOL    HW312921   4.538   4.218   3.071 -2.2316 -0.8637 -0.1696
 3297SOL    MW412922   4.542   4.218   2.984  0.3046 -0.1683  0.5028
 3298SOL     OW12923   0.151   5.453   4.324 -0.2784 -0.0075 -0.7274
 3298SOL    HW212924   0.126   5.486   4.410 -0.3576 -2.9233  0.4826
 3298SOL    HW312925   0.093   5.379   4.308  0.5435 -0.2976 -2.7760
 3298SOL    MW412926   0.140   5.448   4.333 -0.3452 -0.4363 -0.6501
 3299SOL     OW12927   5.094   6.350   1.792  0.3630  0.0471  0.1592
 3299SOL    HW212928   5.108   6.282   1.858  0.0102 -0.3145 -0.1277
 3299SOL    HW312929   5.018   6.319   1.742  0.1910  0.6624  0.0336
 3299SOL    MW412930   5.086   6.337   1.794  0.4640  0.2269  0.1388
 3300SOL     OW12931   1.613   5.638   0.564  0.5459  0.6006  0.6777
 3300SOL    HW212932   1.567   5.716   0.595  0.1909  0.8355 -0.4080
 3300SOL    HW312933   1.597   5.636   0.469 -0.9091 -1.7554  0.8945
 3300SOL    MW412934   1.605   5.648   0.555 -0.2180 -0.1256  0.4207
 3301SOL     OW12935   4.838   5.487   5.524 -0.0298 -0.1257 -0.4401
 3301SOL    HW212936   4.837   5.458   5.433  1.5821  0.2152 -0.6044
 3301SOL    HW312937   4.870   5.411   5.573  3.0191  0.8066 -0.7229
 3301SOL    MW412938   4.842   5.473   5.519  0.0660 -0.2243 -0.0223
 3302SOL     OW12939   6.340   2.710   6.350  0.5009  0.3945  0.2185
 3302SOL    HW212940   6.245   2.722   6.353  0.3760 -0.1562 -0.9591
 3302SOL    HW312941   6.371   2.745   6.434 -0.9123 -1.1543  1.4552
 3302SOL    MW412942   6.331   2.716   6.361  0.2893  0.2826  0.0905
 3303SOL     OW12943   2.091   4.451   1.959  0.4572  0.7355 -0.7062
 3303SOL    HW212944   2.040   4.407   2.028 -0.8345  1.3561 -1.2332
 3303SOL    HW312945   2.148   4.512   2.006  2.0594 -1.2117  0.0181
 3303SOL    MW412946   2.092   4.453   1.974  0.3840  0.2834 -1.0474
 3304SOL     OW12947   5.452   3.553   1.723 -0.3407  0.2151 -0.2942
 3304SOL    HW212948   5.441   3.459   1.708 -1.8889  0.3736 -0.2350
 3304SOL    HW312949   5.456   3.562   1.819 -0.5225  0.2449 -0.2895
 3304SOL    MW412950   5.451   3.542   1.734  0.5180 -0.0843 -0.5909
 3305SOL     OW12951   5.515   2.495   6.222 -0.5039 -0.3601 -0.1638
 3305SOL    HW212952   5.477   2.557   6.160 -1.6636 -2.3387 -1.5596
 3305SOL    HW312953   5.609   2.500   6.206 -0.6138  0.6692 -0.5791
 3305SOL    MW412954   5.522   2.504   6.211  0.1288  0.2772 -0.4765
 3306SOL     OW12955   5.327   2.765   6.149  0.1069  0.4493  0.0299
 3306SOL    HW212956   5.382   2.840   6.174 -1.4541  1.7905 -0.4167
 3306SOL    HW312957   5.279   2.744   6.229 -0.4518  0.8194 -0.2053
 3306SOL    MW412958   5.328   2.772   6.163  0.2422  0.3628  0.3421
 3307SOL     OW12959   0.348   4.881   3.538  0.0704 -0.2070 -0.4631
 3307SOL    HW212960   0.382   4.794   3.558  1.3069 -0.0801 -1.7989
 3307SOL    HW312961   0.253   4.870   3.534  0.2248 -1.5674 -0.8789
 3307SOL    MW412962   0.340   4.868   3.540  0.3069  0.3723 -0.9569
 3308SOL     OW12963   2.211   5.251   5.396  0.3956  0.5901 -0.0304
 3308SOL    HW212964   2.221   5.212   5.309 -0.9902  1.7173 -0.7419
 3308SOL    HW312965   2.141   5.316   5.385  0.1829  0.7533  1.9359
 3308SOL    MW412966   2.203   5.255   5.383 -0.3277 -0.2667  0.6850
 3309SOL     OW12967   5.656   0.917   3.956  0.3244  0.2271 -0.0075
 3309SOL    HW212968   5.638   0.981   3.887  1.3439  1.8529  1.1749
 3309SOL    HW312969   5.684   0.969   4.031  2.6050 -1.6479  0.5829
 3309SOL    MW412970   5.657   0.932   3.957 -0.4558  0.3047 -0.6381
 3310SOL     OW12971   5.452   6.176   5.870  0.0343  0.7175 -0.2807
 3310SOL    HW212972   5.377   6.131   5.833  0.5066 -0.3457  0.0248
 3310SOL    HW312973   5.423   6.206   5.956  1.0565 -3.1322  1.6005
 3310SOL    MW412974   5.439   6.174   5.877  0.2572 -0.1621 -0.7196
 3311SOL     OW12975   0.787   2.378   5.305 -0.4396 -0.6679  0.3917
 3311SOL    HW212976   0.738   2.377   5.222 -1.0831  3.6608  0.5323
 3311SOL    HW312977   0.727   2.337   5.368 -0.6457 -2.4350 -0.8715
 3311SOL    MW412978   0.772   2.372   5.302 -0.3877  0.1180  0.2414
 3312SOL     OW12979   1.826   4.320   0.933  0.5642  0.5845  0.0985
 3312SOL    HW212980   1.779   4.298   1.013 -0.4210  1.3907 -0.2357
 3312SOL    HW312981   1.760   4.312   0.864  1.2164  0.6211 -0.5390
 3312SOL    MW412982   1.811   4.316   0.934 -0.2311 -0.1761 -0.3230
 3313SOL     OW12983   5.841   4.956   2.414 -0.6645  0.2538 -0.1123
 3313SOL    HW212984   5.825   5.015   2.341  0.4470  0.2206 -0.3975
 3313SOL    HW312985   5.847   5.013   2.490 -0.6636  0.4116 -0.2307
 3313SOL    MW412986   5.840   4.971   2.414  0.1588  0.1525  0.1079
 3314SOL     OW12987   4.043   2.319   2.950  0.1669  0.3894  0.4211
 3314SOL    HW212988   4.095   2.277   3.019 -0.7774  0.8174  1.4220
 3314SOL    HW312989   4.079   2.407   2.943  0.2261  0.3640  0.3987
 3314SOL    MW412990   4.055   2.325   2.958  0.7090  0.0277 -0.4040
 3315SOL     OW12991   1.508   4.666   4.929  0.2041  0.1798 -0.0571
 3315SOL    HW212992   1.450   4.687   4.855  0.1321 -1.4927 -0.5166
 3315SOL    HW312993   1.472   4.586   4.966 -0.3497  1.4862  2.4938
 3315SOL    MW412994   1.496   4.658   4.924  0.2592 -0.3472 -0.3592
 3316SOL     OW12995   5.026   1.602   6.097 -0.1937 -0.3913  0.2156
 3316SOL    HW212996   5.020   1.541   6.024  1.2748 -1.6054  1.0430
 3316SOL    HW312997   4.959   1.573   6.159 -1.0205  0.2621 -0.3418
 3316SOL    MW412998   5.017   1.590   6.095 -0.0224 -0.1423  0.1953
 3317SOL     OW12999   0.519   2.525   0.205  0.1586 -0.2203 -0.4911
 3317SOL    HW213000   0.567   2.596   0.163  1.8204 -0.9027  0.1494
 3317SOL    HW313001   0.492   2.468   0.133  1.5524 -0.5325 -0.7924
 3317SOL    MW413002   0.522   2.527   0.190 -0.0703 -0.5667 -0.2128
 3318SOL     OW13003   3.614   5.067   5.757  0.2965 -0.3186 -0.1805
 3318SOL    HW213004   3.597   4.980   5.721 -0.9905 -0.2265  0.1574
 3318SOL    HW313005   3.568   5.068   5.841  0.6196  0.5593 -0.0027
 3318SOL    MW413006   3.606   5.055   5.763  0.8909 -0.0169 -0.3756
 3319SOL     OW13007   4.807   3.790   4.817  0.3737  0.0066 -0.6287
 3319SOL    HW213008   4.729   3.748   4.780  0.7569  0.3140 -1.8144
 3319SOL    HW313009   4.847   3.723   4.872 -0.4773 -0.3000 -0.3640
 3319SOL    MW413010   4.802   3.776   4.820  0.6577  0.1682  0.4880
 3320SOL     OW13011   1.285   3.412   2.282 -0.2929 -0.0876  0.3367
 3320SOL    HW213012   1.267   3.476   2.352  1.4453  1.2352 -0.3562
 3320SOL    HW313013   1.329   3.340   2.326  1.0839  0.8815  0.6153
 3320SOL    MW413014   1.288   3.411   2.297  0.0604 -0.3399 -0.4015
 3321SOL     OW13015   3.469   6.391   2.670 -0.6322 -0.2664  0.7279
 3321SOL    HW213016   3.426   6.437   2.598 -0.8895  0.0096  1.0631
 3321SOL    HW313017   3.406   6.390   2.741  0.2791  1.0705  1.5978
 3321SOL    MW413018   3.455   6.397   2.670 -0.3541 -0.2902 -0.4652
 3322SOL     OW13019   3.130   1.559   1.101  0.3382  0.3367 -0.1777
 3322SOL    HW213020   3.141   1.561   1.006  1.7276 -0.7020 -0.0752
 3322SOL    HW313021   3.219   1.556   1.135 -0.1452 -1.2917  1.0737
 3322SOL    MW413022   3.143   1.559   1.093  0.6090 -0.5512 -0.7898
 3323SOL     OW13023   5.554   0.545   5.707  0.2938 -0.3322  0.4308
 3323SOL    HW213024   5.599   0.539   5.791  0.2455  1.6698  0.6504
 3323SOL    HW313025   5.622   0.572   5.645  0.4861 -2.4807 -0.3734
 3323SOL    MW413026   5.569   0.548   5.710 -0.6538 -0.1946  0.1424
 3324SOL     OW13027   6.207   6.367   5.963  0.5612 -0.0337  0.0624
 3324SOL    HW213028   6.150   6.375   5.887  0.6449 -1.8415 -0.2249
 3324SOL    HW313029   6.289   6.410   5.937  0.0641  0.7422 -0.2684
 3324SOL    MW413030   6.210   6.374   5.950 -0.4722  0.6385 -0.0383
 3325SOL     OW13031   3.239   1.917   0.942  0.8627  0.3309  0.0946
 3325SOL    HW213032   3.222   2.011   0.954  0.4215  0.2626  0.0168
 3325SOL    HW313033   3.300   1.913   0.868  0.3669  0.5243 -0.3340
 3325SOL    MW413034   3.245   1.929   0.934  0.2279 -0.2399  0.1536
 3326SOL     OW13035   3.448   4.133   4.202 -0.2597 -0.0779  0.4379
 3326SOL    HW213036   3.469   4.225   4.189 -0.3679  0.3253  2.7370
 3326SOL    HW313037   3.515   4.086   4.153 -0.5227  1.1801 -1.2268
 3326SOL    MW413038   3.460   4.139   4.194 -0.3241  0.6800  0.7012
 3327SOL     OW13039   5.409   1.744   3.917 -0.2537 -0.6075 -0.1115
 3327SOL    HW213040   5.366   1.660   3.903  1.5970 -1.7482  0.6661
 3327SOL    HW313041   5.494   1.722   3.956 -0.4111  1.7231  1.7737
 3327SOL    MW413042   5.415   1.730   3.920 -0.1122 -0.4913  0.6726
 3328SOL     OW13043   5.399   0.645   1.044 -0.5515 -0.0803  0.5350
 3328SOL    HW213044   5.369   0.561   1.077  0.2596 -0.1536  1.1134
 3328SOL    HW313045   5.412   0.631   0.950  1.2863 -1.1334  0.9055
 3328SOL    MW413046   5.397   0.632   1.036 -0.4166 -0.2111  0.0501
 3329SOL     OW13047   0.709   2.770   3.925 -0.3021 -0.4499 -0.4750
 3329SOL    HW213048   0.664   2.730   4.000 -2.5976 -0.8532 -1.9623
 3329SOL    HW313049   0.713   2.863   3.947  0.1640 -0.7174  0.6555
 3329SOL    MW413050   0.703   2.777   3.938  0.5465  0.5623 -0.0633
 3330SOL     OW13051   2.054   4.253   2.843 -0.2961 -0.1018 -0.4186
 3330SOL    HW213052   1.978   4.282   2.895  0.2528  0.6030  0.0100
 3330SOL    HW313053   2.058   4.159   2.859  1.0792  0.3490  2.5686
 3330SOL    MW413054   2.044   4.245   2.852  0.4016 -0.4743  0.1340
 3331SOL     OW13055   5.245   5.911   3.482  0.6822 -0.5177 -0.8319
 3331SOL    HW213056   5.308   5.845   3.455 -0.4152 -1.8347 -0.2913
 3331SOL    HW313057   5.227   5.892   3.574  1.3738  1.4183 -0.2673
 3331SOL    MW413058   5.251   5.900   3.490 -0.4018 -0.1932  0.0227
 3332SOL     OW13059   1.999   6.382   3.144  0.7591  0.5817  0.1710
 3332SOL    HW213060   1.985   6.467   3.185  0.3323  0.2080  0.8066
 3332SOL    HW313061   1.939   6.381   3.069 -0.6945  0.0753  1.2971
 3332SOL    MW413062   1.989   6.393   3.139  0.0594  0.4045 -0.2945
 3333SOL     OW13063   2.369   4.323   2.853 -0.1447 -0.5333 -0.3879
 3333SOL    HW213064   2.412   4.368   2.780  4.0842 -2.9414  0.2554
 3333SOL    HW313065   2.328   4.247   2.813 -2.7365  0.9824 -0.8051
 3333SOL    MW413066   2.369   4.319   2.838 -0.0491 -0.1284  0.6906
 3334SOL     OW13067   5.038   3.398   5.147  0.2725  0.5903  0.0782
 3334SOL    HW213068   5.030   3.493   5.137 -1.4282  0.4911  0.1422
 3334SOL    HW313069   5.051   3.385   5.241  0.3694  0.7568  0.0880
 3334SOL    MW413070   5.039   3.409   5.158 -0.4178 -0.3657 -0.2684
 3335SOL     OW13071   3.264   5.061   5.769  0.1453  0.5613  0.0865
 3335SOL    HW213072   3.323   5.136   5.760 -0.4481  1.0180 -0.0355
 3335SOL    HW313073   3.185   5.086   5.721 -0.3943  0.2085  0.7716
 3335SOL    MW413074   3.261   5.074   5.761  0.0110 -0.6502  0.1598
 3336SOL     OW13075   4.349   1.268   1.229  0.0487 -0.8176  0.0512
 3336SOL    HW213076   4.331   1.212   1.305 -0.3663 -0.4025  0.2620
 3336SOL    HW313077   4.264   1.307   1.208 -0.3516 -2.5833 -1.9717
 3336SOL    MW413078   4.335   1.266   1.236 -0.6561  0.0901 -0.4640
 3337SOL     OW13079   2.674   6.169   3.698  0.0806 -0.2527  0.5677
 3337SOL    HW213080   2.769   6.164   3.696  0.0855 -0.7896  1.6479
 3337SOL    HW313081   2.654   6.243   3.755 -0.1618  1.4921 -1.6546
 3337SOL    MW413082   2.684   6.178   3.705 -0.5048 -0.5160 -0.0424
 3338SOL     OW13083   4.920   5.043   0.935  0.2875  0.2846 -1.0586
 3338SOL    HW213084   4.947   5.116   0.990 -2.1478  0.1661  0.4020
 3338SOL    HW313085   4.907   4.970   0.996  2.4450 -1.4129 -2.4422
 3338SOL    MW413086   4.922   5.043   0.950 -0.0255 -0.0808  0.2100
 3339SOL     OW13087   0.542   1.237   0.236 -0.5441  0.5620  0.1483
 3339SOL    HW213088   0.503   1.194   0.312 -2.3368  0.4182 -0.8185
 3339SOL    HW313089   0.530   1.331   0.253 -0.0104  0.5670  0.5130
 3339SOL    MW413090   0.536   1.244   0.249 -0.5963 -0.5306 -0.3046
 3340SOL     OW13091   1.641   2.165   0.646  0.2097  0.2707  0.5711
 3340SOL    HW213092   1.588   2.086   0.662  0.0590  0.1748 -0.3338
 3340SOL    HW313093   1.617   2.224   0.717 -2.8564  1.1074 -0.9530
 3340SOL    MW413094   1.631   2.162   0.658 -0.1144 -0.0639 -0.2845
 3341SOL     OW13095   4.040   4.296   4.904 -0.1110 -0.0918  0.0396
 3341SOL    HW213096   4.078   4.309   4.818 -0.5101  0.9424  0.0067
 3341SOL    HW313097   4.086   4.220   4.939  0.5347 -0.1063 -0.8079
 3341SOL    MW413098   4.051   4.288   4.898  0.2880  0.2453  0.3416
 3342SOL     OW13099   6.200   3.170   3.932 -0.0553  0.3531 -0.1765
 3342SOL    HW213100   6.152   3.249   3.908  0.4162  0.5926 -0.3479
 3342SOL    HW313101   6.263   3.198   3.998  0.0087  0.0933 -0.1248
 3342SOL    MW413102   6.202   3.184   3.937 -0.4372 -0.5125 -0.1021
 3343SOL     OW13103   1.856   1.495   0.268 -0.0154  0.1606  0.2408
 3343SOL    HW213104   1.783   1.460   0.319 -0.3155  0.6325  0.1492
 3343SOL    HW313105   1.831   1.480   0.176 -0.7467  1.6901  0.1423
 3343SOL    MW413106   1.843   1.489   0.262  0.1664 -0.1321 -0.0924
 3344SOL     OW13107   6.217   1.724   3.245 -0.4368 -0.0531  0.5176
 3344SOL    HW213108   6.182   1.635   3.241  2.9145 -1.6097  1.9205
 3344SOL    HW313109   6.291   1.724   3.185 -0.7062  1.9942  0.1287
 3344SOL    MW413110   6.222   1.712   3.237  0.0206 -0.0382 -0.9500
 3345SOL     OW13111   1.059   4.962   2.923 -0.1555  0.1609 -0.0124
 3345SOL    HW213112   0.972   4.953   2.885 -1.4642  1.8520  2.2793
 3345SOL    HW313113   1.095   5.040   2.882  1.1866 -1.5706 -2.3602
 3345SOL    MW413114   1.052   4.971   2.913  0.0798 -0.3070  0.4348
 3346SOL     OW13115   5.724   5.271   5.921  0.4168  0.0807  0.4664
 3346SOL    HW213116   5.802   5.298   5.872  0.7465  0.5542  1.2227
 3346SOL    HW313117   5.720   5.332   5.995 -1.7374  1.2739 -0.5512
 3346SOL    MW413118   5.734   5.283   5.924 -0.4370  0.1075 -0.0475
 3347SOL     OW13119   3.994   2.499   3.484  0.1287  0.4051 -0.3767
 3347SOL    HW213120   4.037   2.531   3.563 -0.6424 -0.0123  0.2230
 3347SOL    HW313121   3.914   2.551   3.477 -1.6039 -1.8746  1.0963
 3347SOL    MW413122   3.989   2.510   3.493 -0.6051 -0.3509  0.0267
 3348SOL     OW13123   4.911   5.786   4.703 -0.2466  0.6346  0.1652
 3348SOL    HW213124   5.006   5.800   4.708 -0.0387 -0.9721  2.6691
 3348SOL    HW313125   4.901   5.711   4.645  0.1963 -0.2982  1.2685
 3348SOL    MW413126   4.922   5.778   4.696 -0.8452 -0.4288  0.2646
 3349SOL     OW13127   4.616   5.031   5.240  0.3535 -0.5544  0.5522
 3349SOL    HW213128   4.626   5.122   5.268  0.4198 -0.7654  1.2303
 3349SOL    HW313129   4.543   4.998   5.292 -1.4630 -0.1277 -1.6119
 3349SOL    MW413130   4.608   5.039   5.251  0.0104 -0.2827 -0.3898
 3350SOL     OW13131   1.609   0.208   2.157 -0.5057 -0.0225 -0.0132
 3350SOL    HW213132   1.688   0.154   2.151 -1.9862 -2.2120 -1.4824
 3350SOL    HW313133   1.544   0.160   2.106 -2.5708  2.1235  0.4402
 3350SOL    MW413134   1.611   0.195   2.150 -0.9788 -0.5607 -0.1586
 3351SOL     OW13135   1.287   2.923   1.948  0.1762  0.1359 -0.5218
 3351SOL    HW213136   1.193   2.932   1.960  0.1452 -1.7039  1.1441
 3351SOL    HW313137   1.310   2.844   1.997  2.5192  0.2636 -1.2888
 3351SOL    MW413138   1.278   2.914   1.956 -0.7864 -0.4180  0.3060
 3352SOL     OW13139   1.656   3.200   2.942  0.0638  0.2945  0.4460
 3352SOL    HW213140   1.596   3.127   2.954 -0.6845  0.8865  0.4109
 3352SOL    HW313141   1.727   3.164   2.888 -1.3678  0.1323 -1.4321
 3352SOL    MW413142   1.658   3.186   2.936 -0.0487  0.1758  0.8678
 3353SOL     OW13143   5.750   4.797   1.547 -0.3902  0.2969 -0.2441
 3353SOL    HW213144   5.691   4.755   1.484  1.5560  2.4194 -3.7804
 3353SOL    HW313145   5.692   4.840   1.610 -2.4804 -1.1218 -1.1003
 3353SOL    MW413146   5.734   4.797   1.547 -0.0117  0.1811  0.7775
 3354SOL     OW13147   0.502   5.383   2.108 -0.2946  0.4014 -0.9317
 3354SOL    HW213148   0.550   5.300   2.105  0.4520  0.7712 -0.0174
 3354SOL    HW313149   0.411   5.359   2.096 -0.8249 -1.2734  3.9883
 3354SOL    MW413150   0.497   5.369   2.106 -0.0322 -0.5140  0.1549
 3355SOL     OW13151   1.448   0.320   2.695 -0.3964 -0.2812  0.0302
 3355SOL    HW213152   1.399   0.317   2.613 -2.1723 -0.2837  1.0401
 3355SOL    HW313153   1.447   0.413   2.719 -0.7889 -0.4113  0.5411
 3355SOL    MW413154   1.441   0.332   2.687  0.5231 -0.4786  0.1477
 3356SOL     OW13155   1.266   2.530   5.382 -0.3994 -0.2108  0.4651
 3356SOL    HW213156   1.253   2.610   5.432 -0.9261 -0.8917  1.4450
 3356SOL    HW313157   1.197   2.532   5.315 -0.4366  0.1267  0.5111
 3356SOL    MW413158   1.255   2.541   5.379  0.6439 -0.3272 -0.1588
 3357SOL     OW13159   2.912   3.202   3.189  0.1678  0.4934  0.4982
 3357SOL    HW213160   2.972   3.258   3.140  1.5684  0.3248  1.9457
 3357SOL    HW313161   2.831   3.253   3.195  0.6572  1.3761 -0.1933
 3357SOL    MW413162   2.909   3.216   3.183 -0.0738 -0.1989 -0.7642
 3358SOL     OW13163   0.685   4.348   3.296  0.2927 -0.1936  0.2133
 3358SOL    HW213164   0.773   4.375   3.321  0.1395  0.4759  0.0696
 3358SOL    HW313165   0.669   4.267   3.344  0.3011  0.6339  1.6655
 3358SOL    MW413166   0.694   4.341   3.305 -0.3869 -0.2027  0.1546
 3359SOL     OW13167   3.563   4.671   6.375 -0.5149  0.6614 -0.5584
 3359SOL    HW213168   3.642   4.713   6.410 -1.0562  0.4747  0.9864
 3359SOL    HW313169   3.594   4.592   6.332  0.1859  0.8031 -0.3262
 3359SOL    MW413170   3.578   4.666   6.374 -0.0421 -0.0073  0.2741
 3360SOL     OW13171   1.432   4.158   4.327 -0.3638 -0.5126  0.0764
 3360SOL    HW213172   1.370   4.231   4.334  0.4511  0.1288  0.8126
 3360SOL    HW313173   1.400   4.107   4.252 -2.1719 -0.5875  0.8384
 3360SOL    MW413174   1.419   4.161   4.318 -0.7142  0.1723  0.4317
 3361SOL     OW13175   2.832   0.430   5.993 -0.3939 -0.0728 -0.0059
 3361SOL    HW213176   2.806   0.507   5.943 -0.4256 -0.7051 -0.9912
 3361SOL    HW313177   2.760   0.416   6.055 -0.5753  0.4436 -0.0972
 3361SOL    MW413178   2.819   0.438   5.995  0.1938  0.2957 -0.3428
 3362SOL     OW13179   6.134   2.908   3.752  0.5574 -0.1291  0.2442
 3362SOL    HW213180   6.118   2.894   3.845 -0.4289  1.6807  0.4021
 3362SOL    HW313181   6.174   2.995   3.748  2.0266 -0.8192 -0.9255
 3362SOL    MW413182   6.137   2.918   3.764 -0.0416 -0.3162  0.1546
 3363SOL     OW13183   1.307   4.325   3.152 -0.4565 -0.5042  0.1291
 3363SOL    HW213184   1.369   4.398   3.150 -0.6184 -0.3699  0.0306
 3363SOL    HW313185   1.340   4.263   3.087 -0.4361 -0.4236  0.0627
 3363SOL    MW413186   1.320   4.326   3.143  0.8398 -0.5051  0.0846
 3364SOL     OW13187   3.114   6.402   4.704 -0.1427  0.0830 -0.6399
 3364SOL    HW213188   3.035   6.456   4.696 -0.1275  0.6151  2.0691
 3364SOL    HW313189   3.186   6.462   4.683 -0.3321  0.1445 -1.1245
 3364SOL    MW413190   3.113   6.417   4.700 -0.0992 -0.1248 -0.1464
 3365SOL     OW13191   6.314   4.192   2.531 -0.2736  0.3802 -0.1807
 3365SOL    HW213192   6.287   4.232   2.613 -0.5617 -1.6585  0.7967
 3365SOL    HW313193   6.389   4.243   2.502 -1.9789  3.0381 -0.3079
 3365SOL    MW413194   6.320   4.204   2.538  0.3763 -0.0189 -0.3238
 3366SOL     OW13195   0.769   1.021   4.397  0.0421 -0.2786 -0.0468
 3366SOL    HW213196   0.694   1.027   4.338  1.5313 -2.0075 -2.2708
 3366SOL    HW313197   0.837   1.075   4.356  0.7302 -0.5423  0.7138
 3366SOL    MW413198   0.768   1.029   4.384  0.6514 -0.1042 -0.2586
 3367SOL     OW13199   5.832   4.717   1.896  0.3029 -0.0260 -0.0114
 3367SOL    HW213200   5.915   4.725   1.944  0.0063 -0.4765  0.5943
 3367SOL    HW313201   5.828   4.625   1.871 -0.2055 -0.1002  0.3280
 3367SOL    MW413202   5.842   4.706   1.899  0.1186  0.2930 -0.2975
 3368SOL     OW13203   3.956   5.731   0.346  0.5131 -0.1181  0.6951
 3368SOL    HW213204   3.907   5.652   0.367 -0.7575  0.9423  1.9287
 3368SOL    HW313205   4.029   5.731   0.408  1.1207 -0.8449 -0.0106
 3368SOL    MW413206   3.959   5.721   0.357  0.0703 -0.5776  0.4122
 3369SOL     OW13207   1.924   5.100   5.146 -0.0995  0.0367  0.2144
 3369SOL    HW213208   1.890   5.129   5.061  0.7871  1.6488  0.3627
 3369SOL    HW313209   1.969   5.178   5.181  0.4597 -0.9132  1.6825
 3369SOL    MW413210   1.925   5.114   5.139 -0.9575  0.2915 -0.3140
 3370SOL     OW13211   3.616   0.285   1.849  0.4365  0.0096  0.0647
 3370SOL    HW213212   3.593   0.215   1.787 -1.0780  1.3399 -0.9530
 3370SOL    HW313213   3.656   0.353   1.794  1.5133  0.1568  0.9826
 3370SOL    MW413214   3.619   0.285   1.833 -0.5437  0.3182 -0.3016
 3371SOL     OW13215   4.948   1.477   1.431 -0.1809  0.4228 -0.0083
 3371SOL    HW213216   4.927   1.482   1.337 -1.0537 -3.0282 -0.1524
 3371SOL    HW313217   5.032   1.431   1.434 -0.0807  0.6622  0.8980
 3371SOL    MW413218   4.956   1.471   1.419  0.1711  0.2826  0.1103
 3372SOL     OW13219   3.655   3.452   1.986 -0.4309  0.3175  0.2408
 3372SOL    HW213220   3.580   3.502   2.018 -0.5817 -0.2090  0.7503
 3372SOL    HW313221   3.622   3.407   1.908 -0.9573 -0.6774  1.0111
 3372SOL    MW413222   3.640   3.452   1.980  0.1541 -0.4395 -0.3642
 3373SOL     OW13223   1.193   2.588   4.164 -0.3487  0.3849 -0.6568
 3373SOL    HW213224   1.272   2.534   4.159 -1.0012 -0.5271 -1.5227
 3373SOL    HW313225   1.209   2.661   4.104 -0.3054  0.0082 -1.1029
 3373SOL    MW413226   1.205   2.591   4.156  0.2133 -0.5723 -0.1487
 3374SOL     OW13227   4.844   1.482   2.433 -0.5719  0.9117 -0.2153
 3374SOL    HW213228   4.888   1.563   2.406  0.6276  0.0713 -0.9190
 3374SOL    HW313229   4.817   1.441   2.350 -0.3183  0.1503  0.0698
 3374SOL    MW413230   4.846   1.487   2.418 -0.5345  0.2672 -0.8264
 3375SOL     OW13231   0.782   1.666   2.172  0.5328  0.2303  0.1702
 3375SOL    HW213232   0.816   1.752   2.196 -1.0658  1.6223 -2.1804
 3375SOL    HW313233   0.687   1.676   2.171  0.3360 -1.2698 -1.1430
 3375SOL    MW413234   0.774   1.678   2.175 -0.2079 -0.0435  0.0763
 3376SOL     OW13235   1.379   2.876   1.685 -0.1161 -0.1234  0.1584
 3376SOL    HW213236   1.306   2.922   1.643 -0.1642 -0.1120  0.2538
 3376SOL    HW313237   1.367   2.893   1.779 -2.1281 -3.1300  0.5891
 3376SOL    MW413238   1.367   2.884   1.692  0.2956 -0.2815  0.4000
 3377SOL     OW13239   1.779   6.003   5.456 -0.4755 -0.7615 -0.1186
 3377SOL    HW213240   1.779   5.998   5.360  0.0381  1.6001 -0.3007
 3377SOL    HW313241   1.807   5.916   5.484  1.7137 -0.8270 -2.1981
 3377SOL    MW413242   1.783   5.991   5.447  0.3390  0.4241  1.3160
 3378SOL     OW13243   1.634   6.067   2.415  0.0294  0.4972  0.2622
 3378SOL    HW213244   1.543   6.040   2.405  0.1586 -0.4443  1.3865
 3378SOL    HW313245   1.643   6.085   2.509  0.8603  1.1412  0.0700
 3378SOL    MW413246   1.623   6.066   2.426  0.4616  0.2468  0.3715
 3379SOL     OW13247   4.698   6.181   5.866 -0.3183  0.1142 -0.5361
 3379SOL    HW213248   4.683   6.167   5.773  1.8661  1.0486 -1.1005
 3379SOL    HW313249   4.792   6.200   5.872 -0.4192  0.1437  1.8531
 3379SOL    MW413250   4.708   6.182   5.855 -0.2117  0.3488  0.4675
 3380SOL     OW13251   3.013   0.309   1.669 -0.0750 -0.0412  0.1694
 3380SOL    HW213252   3.031   0.329   1.761 -2.9259 -1.3412  1.1327
 3380SOL    HW313253   2.985   0.392   1.631 -0.1225  0.2472  0.8274
 3380SOL    MW413254   3.012   0.322   1.676  0.3770  0.3160  0.1690
 3381SOL     OW13255   3.183   2.924   3.980 -0.0911 -0.6915 -0.1478
 3381SOL    HW213256   3.179   2.972   3.897 -0.6103  0.6182  0.5902
 3381SOL    HW313257   3.261   2.958   4.023 -1.3865  0.8901  1.1342
 3381SOL    MW413258   3.193   2.935   3.975 -0.0321 -0.3003  0.6729
 3382SOL     OW13259   0.645   2.288   2.468 -0.1323 -0.6179  0.7646
 3382SOL    HW213260   0.677   2.198   2.461 -2.0293 -1.2579 -0.3161
 3382SOL    HW313261   0.584   2.286   2.541 -1.8360 -0.7827 -0.6100
 3382SOL    MW413262   0.641   2.276   2.477 -0.5595  0.3366  0.3189
 3383SOL     OW13263   5.220   3.580   3.269 -0.3749 -0.2400  0.7729
 3383SOL    HW213264   5.227   3.659   3.323 -0.8061 -0.9890  1.9727
 3383SOL    HW313265   5.137   3.589   3.224  0.7554  1.2161 -1.2006
 3383SOL    MW413266   5.210   3.592   3.270 -0.1255 -0.0524  0.4526
 3384SOL     OW13267   1.086   4.232   2.297 -0.0212 -0.3178  0.2021
 3384SOL    HW213268   1.030   4.248   2.373 -0.1831  1.6685 -0.2818
 3384SOL    HW313269   1.030   4.252   2.222  0.9603  0.4430 -0.3377
 3384SOL    MW413270   1.071   4.236   2.297 -0.3627  0.0097  0.1272
 3385SOL     OW13271   2.281   2.238   2.636 -0.1485 -0.7756 -0.4739
 3385SOL    HW213272   2.366   2.261   2.599  0.3355  0.7012  1.4391
 3385SOL    HW313273   2.301   2.175   2.705 -0.5132  0.0992  0.4450
 3385SOL    MW413274   2.295   2.233   2.640  0.0920 -0.6865  0.3321
 3386SOL     OW13275   4.122   0.313   1.244  0.1751  0.4273 -0.4594
 3386SOL    HW213276   4.082   0.400   1.236 -2.3740 -0.7668 -1.9366
 3386SOL    HW313277   4.052   0.257   1.277  1.5712 -1.2402 -0.1607
 3386SOL    MW413278   4.108   0.317   1.247  0.1191 -0.2525 -0.1097
 3387SOL     OW13279   0.665   5.489   0.618 -0.0936 -0.0219  0.4553
 3387SOL    HW213280   0.633   5.435   0.546  0.0484  1.5580 -0.8414
 3387SOL    HW313281   0.606   5.564   0.621  1.5581  1.3519  0.0892
 3387SOL    MW413282   0.653   5.492   0.609  0.1306  0.3020  0.1111
 3388SOL     OW13283   1.616   0.295   6.088  0.3525  0.0704  0.0415
 3388SOL    HW213284   1.691   0.299   6.028  0.0947 -1.2891 -0.4049
 3388SOL    HW313285   1.652   0.254   6.167  0.3438  0.5065  0.2763
 3388SOL    MW413286   1.631   0.290   6.090  0.9337  0.5358 -0.7132
 3389SOL     OW13287   3.152   0.029   1.131 -0.3124 -0.6262  0.1031
 3389SOL    HW213288   3.246   0.014   1.148  0.0049  0.8469 -0.2531
 3389SOL    HW313289   3.112  -0.056   1.148  0.8387 -0.8742  2.0056
 3389SOL    MW413290   3.159   0.016   1.136 -0.3667  0.2601 -0.6672
 3390SOL     OW13291   3.035   0.576   3.764  0.1140  0.2658  0.6527
 3390SOL    HW213292   3.111   0.562   3.821  0.5328 -0.1657  0.0027
 3390SOL    HW313293   2.960   0.556   3.819  0.5666 -1.4284  0.6948
 3390SOL    MW413294   3.035   0.572   3.779  0.1930 -0.5879 -0.4405
 3391SOL     OW13295   2.122   4.064   5.259 -0.4555  0.0780 -0.3724
 3391SOL    HW213296   2.087   3.979   5.286  2.0688 -0.6090  0.9940
 3391SOL    HW313297   2.098   4.124   5.330  1.5812 -0.5366  0.8873
 3391SOL    MW413298   2.114   4.061   5.272 -0.5763 -0.0603 -0.7329
 3392SOL     OW13299   1.253   1.694   3.140  0.5093  0.1786  0.4812
 3392SOL    HW213300   1.164   1.693   3.105  0.7213 -1.1788 -0.0945
 3392SOL    HW313301   1.306   1.732   3.070  0.6734 -0.9658 -0.0502
 3392SOL    MW413302   1.248   1.699   3.126 -0.2605  0.1668  0.0257
 3393SOL     OW13303   4.741   2.340   0.232 -0.5462 -0.3036  0.1546
 3393SOL    HW213304   4.780   2.371   0.314  0.4642 -1.0132 -0.0473
 3393SOL    HW313305   4.767   2.249   0.225 -0.4616 -0.2078 -1.0494
 3393SOL    MW413306   4.750   2.332   0.242  0.0187  0.1679  0.1700
 3394SOL     OW13307   0.416   5.502   1.631  0.1474 -0.3789 -0.5102
 3394SOL    HW213308   0.484   5.540   1.687 -1.4879 -0.1483  1.4057
 3394SOL    HW313309   0.391   5.421   1.675  0.4128 -1.4018 -2.1622
 3394SOL    MW413310   0.422   5.496   1.644 -0.9840  1.1320  0.0374
 3395SOL     OW13311   5.671   4.147   0.708  0.1276  0.4293 -0.4843
 3395SOL    HW213312   5.675   4.077   0.773  0.0411 -1.0942 -2.0577
 3395SOL    HW313313   5.658   4.227   0.760  0.1775 -0.7004  1.3589
 3395SOL    MW413314   5.670   4.148   0.723  0.2538 -0.1530 -0.2361
 3396SOL     OW13315   2.188   1.426   2.604  0.1182  0.0255  0.5135
 3396SOL    HW213316   2.261   1.482   2.577  0.0414 -0.0670  0.1118
 3396SOL    HW313317   2.137   1.412   2.524 -1.3125  1.4926  1.1160
 3396SOL    MW413318   2.191   1.431   2.590  0.3952  0.1301  0.3976
 3397SOL     OW13319   0.772   3.866   0.722 -0.4020 -0.1058  0.1841
 3397SOL    HW213320   0.865   3.844   0.719 -0.3578  0.1620 -1.5441
 3397SOL    HW313321   0.733   3.811   0.655 -1.4217  0.1187  0.5802
 3397SOL    MW413322   0.779   3.856   0.713 -0.0251 -0.2381 -0.3594
 3398SOL     OW13323   5.267   2.905   4.460  0.1721 -0.9504  0.7266
 3398SOL    HW213324   5.295   2.815   4.442  0.7414 -0.5170 -0.7875
 3398SOL    HW313325   5.172   2.905   4.445 -0.1379 -1.6751  2.5193
 3398SOL    MW413326   5.258   2.893   4.455  0.6374 -0.0030 -0.4296
 3399SOL     OW13327   4.455   2.682   1.693  0.7818 -0.2587  0.4914
 3399SOL    HW213328   4.454   2.666   1.599 -0.0603  0.1465  0.4231
 3399SOL    HW313329   4.422   2.601   1.732 -0.0947  0.0258  0.3556
 3399SOL    MW413330   4.451   2.669   1.686 -0.1950 -0.2874  0.2771
 3400SOL     OW13331   1.446   0.091   5.257 -0.2695 -0.4077  0.0671
 3400SOL    HW213332   1.373   0.036   5.285 -0.6070 -0.3918 -0.7448
 3400SOL    HW313333   1.495   0.109   5.337  0.5202 -2.8370  0.2035
 3400SOL    MW413334   1.443   0.086   5.271 -0.0605  0.1349  0.1528
 3401SOL     OW13335   2.625   2.699   3.348  0.1282 -0.4924  0.4277
 3401SOL    HW213336   2.589   2.678   3.434  1.4474 -0.3537  1.0344
 3401SOL    HW313337   2.715   2.665   3.350 -0.2741 -1.8169 -1.4378
 3401SOL    MW413338   2.632   2.692   3.360 -0.4492 -0.6535 -0.1638
 3402SOL     OW13339   1.736   5.156   1.656  0.0462 -0.1123 -0.4689
 3402SOL    HW213340   1.760   5.212   1.582 -0.2281  1.3815  0.5235
 3402SOL    HW313341   1.645   5.179   1.674 -0.9354 -2.7270 -1.5827
 3402SOL    MW413342   1.727   5.167   1.649  0.1059 -0.0386 -0.2685
 3403SOL     OW13343   6.234   2.286   2.832  0.1125  0.7059  0.2421
 3403SOL    HW213344   6.149   2.242   2.835 -0.8140  2.3182 -0.7143
 3403SOL    HW313345   6.265   2.271   2.743  1.3002 -0.6304  0.8444
 3403SOL    MW413346   6.227   2.278   2.821  0.6523 -0.3222 -0.1534
 3404SOL     OW13347   0.576   3.949   2.970 -0.4519  0.6373 -0.2557
 3404SOL    HW213348   0.627   4.000   3.032 -0.9758 -0.1950  0.8854
 3404SOL    HW313349   0.610   3.975   2.884  2.5004 -0.5285  0.4430
 3404SOL    MW413350   0.587   3.959   2.967 -0.1875 -0.5249  0.0665
 3405SOL     OW13351   4.285   2.496   3.001  0.5619 -0.2667  0.2028
 3405SOL    HW213352   4.230   2.530   3.072  1.6524 -0.8892  1.4039
 3405SOL    HW313353   4.370   2.481   3.042  0.5688 -2.9664 -0.5989
 3405SOL    MW413354   4.289   2.498   3.016 -0.1970 -0.5170  0.4126
 3406SOL     OW13355   1.815   2.843   0.853 -0.4746 -0.1015 -0.4394
 3406SOL    HW213356   1.745   2.908   0.863 -1.9760 -1.4714 -1.4816
 3406SOL    HW313357   1.836   2.845   0.760  0.0562 -0.5230 -0.3300
 3406SOL    MW413358   1.808   2.852   0.842 -0.5163 -0.4628 -0.1754
 3407SOL     OW13359   0.467   0.322   5.720 -0.1424  0.0206 -0.0080
 3407SOL    HW213360   0.393   0.371   5.756  0.2833  0.2068  0.6377
 3407SOL    HW313361   0.510   0.383   5.661 -0.6686 -0.1840 -0.6087
 3407SOL    MW413362   0.463   0.336   5.717 -0.1971 -0.3896 -0.0156
 3408SOL     OW13363   4.727   1.739   4.251  0.0204 -0.7918 -0.9559
 3408SOL    HW213364   4.770   1.824   4.250  0.5881 -1.0724 -1.1869
 3408SOL    HW313365   4.703   1.723   4.159 -0.8578 -0.5036 -0.7832
 3408SOL    MW413366   4.729   1.748   4.238 -0.8456  0.1153 -0.0243
 3409SOL     OW13367   3.376   0.805   3.878 -0.2356 -0.3455 -0.1619
 3409SOL    HW213368   3.416   0.733   3.927  1.7718  0.6032 -0.2910
 3409SOL    HW313369   3.340   0.763   3.799  0.8668 -1.2438 -0.2225
 3409SOL    MW413370   3.376   0.790   3.874 -0.1580 -0.1781  0.6550
 3410SOL     OW13371   0.304   0.462   0.493 -0.0939 -0.0089  0.2120
 3410SOL    HW213372   0.290   0.473   0.587 -2.9197  0.3509 -0.1708
 3410SOL    HW313373   0.398   0.476   0.481 -0.2208  4.3984  2.4094
 3410SOL    MW413374   0.314   0.465   0.504 -0.3104  0.0769  0.3448
 3411SOL     OW13375   6.118   3.757   2.218 -0.2206 -0.6706 -0.4654
 3411SOL    HW213376   6.169   3.838   2.211  1.6694 -1.7859 -0.0969
 3411SOL    HW313377   6.071   3.766   2.301 -0.3030  0.1693 -0.5841
 3411SOL    MW413378   6.118   3.769   2.228  0.2563 -0.1793 -0.3347
 3412SOL     OW13379   1.457   4.303   2.609 -0.1563 -0.0873  0.3174
 3412SOL    HW213380   1.478   4.354   2.531 -0.4866 -0.9634 -0.3641
 3412SOL    HW313381   1.469   4.212   2.582 -5.3838 -0.8628 -0.4591
 3412SOL    MW413382   1.461   4.298   2.595 -0.3965 -0.5926  0.1099
 3413SOL     OW13383   1.803   6.371   2.957  0.6319  0.5131  0.1376
 3413SOL    HW213384   1.766   6.441   2.903 -0.0602 -0.2288 -0.3695
 3413SOL    HW313385   1.833   6.306   2.893  2.5357  0.9327  0.5390
 3413SOL    MW413386   1.802   6.372   2.941 -0.4309 -0.4268 -0.1004
 3414SOL     OW13387   2.127   3.967   3.804 -0.7489  0.2883  0.1830
 3414SOL    HW213388   2.089   3.880   3.811  0.0290  0.0322  2.0904
 3414SOL    HW313389   2.093   4.014   3.881 -0.4515  1.3714 -0.3270
 3414SOL    MW413390   2.118   3.962   3.815 -0.3419  0.0344  0.0080
 3415SOL     OW13391   4.725   5.656   4.864 -0.1457 -0.1388 -0.3719
 3415SOL    HW213392   4.781   5.712   4.810 -0.5853  1.2824  0.6118
 3415SOL    HW313393   4.784   5.588   4.896  1.1437  1.5086  0.9102
 3415SOL    MW413394   4.740   5.654   4.861  0.3054  0.0838 -0.3415
 3416SOL     OW13395   5.809   3.477   2.605  0.2075 -0.3472  0.0311
 3416SOL    HW213396   5.898   3.492   2.637  0.0790  1.5320 -0.3544
 3416SOL    HW313397   5.820   3.422   2.527  0.8022 -2.0724  1.2906
 3416SOL    MW413398   5.822   3.472   2.599  0.4851  0.3008  0.3881
 3417SOL     OW13399   2.160   4.377   2.556  0.2914  0.1321 -0.2831
 3417SOL    HW213400   2.212   4.311   2.601  2.0448  0.6006 -1.5403
 3417SOL    HW313401   2.152   4.344   2.467 -0.6904  0.5961 -0.3771
 3417SOL    MW413402   2.166   4.364   2.550  0.8003 -0.2797  0.1430
 3418SOL     OW13403   0.053   1.854   5.817 -0.3760 -0.0545 -0.1659
 3418SOL    HW213404   0.099   1.810   5.888 -2.4224 -0.1380  1.1641
 3418SOL    HW313405   0.123   1.876   5.754  1.2670 -1.3474  1.1091
 3418SOL    MW413406   0.069   1.851   5.818  0.3682  0.0932  0.1172
 3419SOL     OW13407   1.827   0.634   4.128  0.3439 -0.0557 -0.5962
 3419SOL    HW213408   1.843   0.600   4.216 -0.6031 -0.1547 -0.4570
 3419SOL    HW313409   1.903   0.603   4.077  1.2030  0.5136  0.3035
 3419SOL    MW413410   1.839   0.625   4.133 -0.0901 -0.5993  0.0640
 3420SOL     OW13411   0.290   4.530   0.757 -0.1537  0.3781 -0.2289
 3420SOL    HW213412   0.379   4.494   0.750 -0.6912 -0.9405 -0.5217
 3420SOL    HW313413   0.276   4.573   0.672 -0.4469 -1.0053 -0.9111
 3420SOL    MW413414   0.300   4.531   0.745  0.4715 -0.3223  0.5309
 3421SOL     OW13415   4.737   5.515   0.704  0.2284 -0.5181 -0.0368
 3421SOL    HW213416   4.661   5.498   0.648 -0.5736  2.6631 -0.1217
 3421SOL    HW313417   4.813   5.508   0.645 -0.4899  1.4331 -1.3058
 3421SOL    MW413418   4.737   5.512   0.689 -0.0243 -0.0219  0.5499
 3422SOL     OW13419   2.093   5.720   2.107  0.0569 -0.1417  0.2159
 3422SOL    HW213420   2.006   5.683   2.094  0.0543  0.2131 -0.8447
 3422SOL    HW313421   2.146   5.681   2.038  0.7732 -0.4402  0.9264
 3422SOL    MW413422   2.088   5.710   2.096 -0.0343 -0.2682 -0.3160
 3423SOL     OW13423   2.279   2.175   0.612 -0.3242 -0.6407 -0.7020
 3423SOL    HW213424   2.337   2.238   0.569  0.4862  0.4026  1.7293
 3423SOL    HW313425   2.261   2.109   0.546  2.6181 -0.3230 -1.9379
 3423SOL    MW413426   2.284   2.175   0.598  0.5986  0.4356 -0.6351
 3424SOL     OW13427   3.675   6.263   1.891 -0.0299 -0.3883 -0.1263
 3424SOL    HW213428   3.629   6.220   1.818  2.3215  0.8703 -2.5462
 3424SOL    HW313429   3.765   6.273   1.860  0.6241  2.0896  2.1470
 3424SOL    MW413430   3.681   6.259   1.877  0.1564 -0.4461 -0.0819
 3425SOL     OW13431   5.072   4.383   2.299 -0.4543 -0.4377  0.4033
 3425SOL    HW213432   5.143   4.321   2.285 -0.8434 -1.2093  1.6627
 3425SOL    HW313433   5.007   4.362   2.232  0.6827  0.6171 -1.0978
 3425SOL    MW413434   5.073   4.372   2.289 -0.3446 -0.4222  0.6258
 3426SOL     OW13435   2.882   1.912   1.549  0.7118  0.1440  0.0989
 3426SOL    HW213436   2.797   1.894   1.590  1.0980  0.1138  0.8896
 3426SOL    HW313437   2.895   2.006   1.562 -0.7578  0.9026 -2.9966
 3426SOL    MW413438   2.872   1.922   1.556 -0.3783  0.6001  0.0318
 3427SOL     OW13439   4.247   4.828   4.494  0.5755  0.5225  0.0316
 3427SOL    HW213440   4.297   4.756   4.531 -0.6727 -0.0003  0.7710
 3427SOL    HW313441   4.169   4.833   4.549 -0.7627  0.5341 -1.7855
 3427SOL    MW413442   4.243   4.819   4.506 -0.4601 -0.0560 -0.0691
 3428SOL     OW13443   1.102   5.545   1.536 -0.2126  0.2353 -0.3655
 3428SOL    HW213444   1.158   5.615   1.502  1.2339 -1.1252 -0.8707
 3428SOL    HW313445   1.046   5.589   1.600  0.0835  2.0083 -1.2597
 3428SOL    MW413446   1.102   5.560   1.540 -0.1142  0.1618  0.1882
 3429SOL     OW13447   2.532   2.532   0.839  0.0763  0.1285  0.2807
 3429SOL    HW213448   2.556   2.465   0.904 -0.3533  1.0648  1.4268
 3429SOL    HW313449   2.532   2.484   0.756 -0.9692 -1.4886  1.1522
 3429SOL    MW413450   2.535   2.517   0.836  0.2136  0.2614  0.0650
 3430SOL     OW13451   0.705   3.611   3.859  0.3102 -0.4719  0.3506
 3430SOL    HW213452   0.790   3.649   3.835 -0.8527  2.4930  0.4096
 3430SOL    HW313453   0.648   3.633   3.785 -1.2020  0.7968  1.8031
 3430SOL    MW413454   0.709   3.619   3.846  0.1498 -0.5189 -0.1674
 3431SOL     OW13455   0.896   0.065   2.345  0.0961 -0.2245  0.3884
 3431SOL    HW213456   0.924   0.142   2.295 -0.5583 -0.8126 -0.9358
 3431SOL    HW313457   0.805   0.051   2.318 -0.0561 -0.9637  1.2521
 3431SOL    MW413458   0.887   0.073   2.335 -0.1306  0.0125  0.0453
 3432SOL     OW13459   1.939   2.562   1.113  0.6065 -0.8233 -0.0804
 3432SOL    HW213460   1.866   2.573   1.051  0.8638  3.2411  0.1169
 3432SOL    HW313461   1.897   2.539   1.196 -0.5751  1.4752  0.0389
 3432SOL    MW413462   1.924   2.560   1.115  0.5158  0.0881 -0.0914
 3433SOL     OW13463   2.490   3.630   2.228 -0.2279  0.3152 -0.0289
 3433SOL    HW213464   2.576   3.673   2.222  0.2985 -0.6914  0.1287
 3433SOL    HW313465   2.456   3.658   2.313  1.4463 -1.8973  1.4852
 3433SOL    MW413466   2.497   3.640   2.239 -0.1168  0.2659 -0.7196
 3434SOL     OW13467   5.120   0.787   1.341  0.6030 -0.1270 -0.2401
 3434SOL    HW213468   5.139   0.870   1.384 -0.3200 -0.5029  0.9637
 3434SOL    HW313469   5.163   0.721   1.395 -0.9800 -0.6519  0.4402
 3434SOL    MW413470   5.128   0.789   1.354 -0.0187 -0.1525 -0.6631
 3435SOL     OW13471   5.659   5.155   6.304  0.5331  0.4948  0.1044
 3435SOL    HW213472   5.660   5.229   6.364  1.3743  0.4830  0.1211
 3435SOL    HW313473   5.627   5.082   6.356  0.9152  0.5640  0.4384
 3435SOL    MW413474   5.655   5.155   6.319 -0.3520 -0.4586  0.2046
 3436SOL     OW13475   3.843   0.255   5.578  0.1694  0.2652  0.0103
 3436SOL    HW213476   3.801   0.215   5.654  1.9472  0.1161  0.9724
 3436SOL    HW313477   3.927   0.210   5.571  1.4612  2.4982  0.0112
 3436SOL    MW413478   3.848   0.244   5.587 -0.4987 -0.4802  0.6900
 3437SOL     OW13479   5.932   3.543   0.982 -0.6436  0.2575  0.6276
 3437SOL    HW213480   5.923   3.618   1.042 -1.9364  1.0947 -0.5506
 3437SOL    HW313481   5.980   3.578   0.907  0.9499 -0.7774  1.1148
 3437SOL    MW413482   5.937   3.558   0.980  0.8605 -0.2926 -0.0664
 3438SOL     OW13483   1.371   3.449   2.992 -0.7171 -0.5331 -0.0481
 3438SOL    HW213484   1.358   3.400   2.911 -2.8322 -1.2792  0.6781
 3438SOL    HW313485   1.333   3.535   2.975 -0.1714 -0.3151 -0.1870
 3438SOL    MW413486   1.364   3.454   2.979  0.0333 -0.6103 -0.4326
 3439SOL     OW13487   5.325   1.825   1.487  0.1720 -0.0605  0.3256
 3439SOL    HW213488   5.325   1.916   1.519 -0.1787 -0.7039  2.2743
 3439SOL    HW313489   5.354   1.773   1.562  1.1944 -1.5110 -1.0070
 3439SOL    MW413490   5.329   1.830   1.501  0.2411  0.6005 -1.2135
 3440SOL     OW13491   0.729   5.448   5.885 -0.1054  0.7166  0.1306
 3440SOL    HW213492   0.666   5.406   5.826 -0.4463 -1.3525  1.8254
 3440SOL    HW313493   0.805   5.389   5.885  0.5655  1.5618  0.4672
 3440SOL    MW413494   0.731   5.434   5.877 -0.2839 -0.1974  0.0675
 3441SOL     OW13495   4.720   2.521   1.967 -0.2841  0.2908 -0.5505
 3441SOL    HW213496   4.744   2.457   2.035  1.8297  0.5134 -1.0059
 3441SOL    HW313497   4.701   2.467   1.890 -1.2889  0.1087 -0.1917
 3441SOL    MW413498   4.721   2.505   1.966 -0.0217 -0.2942  0.5967
 3442SOL     OW13499   3.208   1.488   1.438  0.5187  0.3797 -0.7306
 3442SOL    HW213500   3.251   1.461   1.357 -0.1704 -0.4195 -0.8483
 3442SOL    HW313501   3.115   1.467   1.423  0.4581 -0.2737  0.4662
 3442SOL    MW413502   3.201   1.482   1.425  0.2401 -0.3528 -0.3939
 3443SOL     OW13503   3.789   2.724   5.563 -0.0845 -0.5325 -0.0080
 3443SOL    HW213504   3.868   2.682   5.595  0.0201 -1.1148 -1.0050
 3443SOL    HW313505   3.820   2.790   5.500 -0.3448 -0.1381  0.2710
 3443SOL    MW413506   3.803   2.727   5.559 -0.3118 -0.1324 -0.8304
 3444SOL     OW13507   2.343   1.660   1.478 -0.2925 -0.3939 -0.2200
 3444SOL    HW213508   2.429   1.692   1.452  0.1319 -0.4744  1.0661
 3444SOL    HW313509   2.357   1.568   1.503 -0.4973 -0.0456  1.2236
 3444SOL    MW413510   2.356   1.652   1.478  0.4253 -0.1543  0.3838
 3445SOL     OW13511   3.658   2.533   0.099 -0.4068 -0.0495 -0.0989
 3445SOL    HW213512   3.702   2.449   0.110  1.2831  0.8562  0.3425
 3445SOL    HW313513   3.565   2.512   0.104 -0.0379 -1.9580 -0.5344
 3445SOL    MW413514   3.651   2.519   0.101  0.2894  0.1416  0.3378
 3446SOL     OW13515   2.257   4.185   1.723 -0.2131  0.2907  0.0668
 3446SOL    HW213516   2.201   4.125   1.674 -0.2415  0.6238 -0.3104
 3446SOL    HW313517   2.267   4.261   1.666  1.0930 -0.0029 -0.1283
 3446SOL    MW413518   2.251   4.187   1.709  0.6064  0.1260  0.2392
 3447SOL     OW13519   5.293   5.964   0.084 -0.0068 -0.6337  0.5841
 3447SOL    HW213520   5.356   5.894   0.066 -0.3440 -1.0837  1.0900
 3447SOL    HW313521   5.234   5.926   0.149  0.5573  0.5505  1.8376
 3447SOL    MW413522   5.294   5.949   0.090 -0.1051  0.3703  0.0676
 3448SOL     OW13523   0.567   1.013   4.189  0.4540 -0.4435 -0.2612
 3448SOL    HW213524   0.541   0.931   4.146 -1.8047  1.3337 -2.6235
 3448SOL    HW313525   0.611   1.063   4.121  0.3927  0.9317  0.6719
 3448SOL    MW413526   0.569   1.009   4.174 -0.1643  0.1588 -1.0067
 3449SOL     OW13527   0.595   3.855   3.422  0.5435 -0.1912  0.3963
 3449SOL    HW213528   0.532   3.839   3.351  1.5696 -1.1697 -0.3343
 3449SOL    HW313529   0.602   3.951   3.425  0.0215 -0.1094 -0.4187
 3449SOL    MW413530   0.588   3.866   3.413 -0.5604  0.2027 -0.1927
 3450SOL     OW13531   2.296   4.046   1.991  0.2115 -0.0861 -0.2167
 3450SOL    HW213532   2.380   4.052   2.036  0.9453 -1.1134 -1.3922
 3450SOL    HW313533   2.294   4.122   1.933 -0.0493  0.3778  0.3817
 3450SOL    MW413534   2.307   4.057   1.989  0.1200  0.2889 -0.1906
 3451SOL     OW13535   2.022   4.392   0.551  0.0549  0.0578  0.0554
 3451SOL    HW213536   2.034   4.472   0.603 -0.8540  0.5168 -0.4277
 3451SOL    HW313537   2.001   4.325   0.615  0.5861  0.2459  0.4421
 3451SOL    MW413538   2.021   4.394   0.566 -0.5382 -0.0822 -0.6781
 3452SOL     OW13539   2.066   0.176   5.011 -0.2297 -0.4370  0.3537
 3452SOL    HW213540   2.160   0.160   4.996  0.1561  0.0039  2.1393
 3452SOL    HW313541   2.026   0.090   5.003  0.5087 -0.8293  0.7877
 3452SOL    MW413542   2.073   0.163   5.008  0.1705  0.4750  0.5746
 3453SOL     OW13543   0.673   6.198   4.275  0.0652  0.0201 -0.6250
 3453SOL    HW213544   0.744   6.184   4.338 -0.6489  0.7361  0.3689
 3453SOL    HW313545   0.593   6.198   4.328 -0.7203 -0.9801 -1.7435
 3453SOL    MW413546   0.672   6.196   4.290 -0.0929 -0.3648 -0.1393
 3454SOL     OW13547   0.231   0.177   0.464  0.3169  0.6089 -0.3656
 3454SOL    HW213548   0.264   0.136   0.544 -0.4817  0.2089 -0.2297
 3454SOL    HW313549   0.257   0.269   0.472 -1.4155  1.0339  1.3202
 3454SOL    MW413550   0.239   0.184   0.476  0.4924  0.3062  0.1694
 3455SOL     OW13551   1.894   2.044   0.409 -0.6051  0.5445  0.5711
 3455SOL    HW213552   1.916   1.951   0.405 -0.2962  0.4969  2.5077
 3455SOL    HW313553   1.801   2.047   0.388 -0.1968  0.0604 -1.5318
 3455SOL    MW413554   1.885   2.032   0.406 -0.2187  0.2799 -0.4558
 3456SOL     OW13555   5.162   5.633   5.814 -0.1598 -0.0254  0.2857
 3456SOL    HW213556   5.117   5.566   5.865  0.1305 -1.1327 -0.8723
 3456SOL    HW313557   5.096   5.664   5.751  0.0050  0.0466  0.1464
 3456SOL    MW413558   5.147   5.628   5.812  0.0034  0.1046  0.3231
 3457SOL     OW13559   2.608   2.762   5.129 -0.1345  0.0711 -0.5465
 3457SOL    HW213560   2.553   2.785   5.054  0.5871  0.3429 -0.9925
 3457SOL    HW313561   2.684   2.820   5.122  0.3665 -0.5267 -0.1177
 3457SOL    MW413562   2.611   2.773   5.118 -0.0673 -0.7165 -0.6200
 3458SOL     OW13563   1.277   5.519   3.420  0.2958  0.2885 -0.2739
 3458SOL    HW213564   1.363   5.561   3.428  0.1612  1.0091 -2.0984
 3458SOL    HW313565   1.220   5.589   3.387 -0.3671 -0.8262 -1.5829
 3458SOL    MW413566   1.281   5.534   3.417 -0.0765  0.0552 -0.9618
 3459SOL     OW13567   3.292   2.027   0.040  0.0413 -0.3559  0.0641
 3459SOL    HW213568   3.323   2.006   0.128 -0.5693  1.0672  0.6571
 3459SOL    HW313569   3.322   2.117   0.026  1.1116 -0.9491 -1.6557
 3459SOL    MW413570   3.300   2.036   0.050  0.3420  0.5970  0.0023
 3460SOL     OW13571   1.108   4.612   3.604 -0.5060  0.0738  0.0185
 3460SOL    HW213572   1.032   4.581   3.555 -1.8562 -0.0999  2.1143
 3460SOL    HW313573   1.074   4.634   3.691  1.6156  1.2173  0.6419
 3460SOL    MW413574   1.094   4.611   3.609 -0.4569  0.1165 -0.0349
 3461SOL     OW13575   0.278   5.898   5.639  0.4953 -0.0350  0.1131
 3461SOL    HW213576   0.252   5.868   5.552  0.9679  1.3071 -0.5041
 3461SOL    HW313577   0.373   5.899   5.637  0.5029  1.9082 -0.0527
 3461SOL    MW413578   0.287   5.894   5.627  0.1503 -0.3513  0.5054
 3462SOL     OW13579   2.414   6.006   1.722 -0.0716 -0.2364 -0.2478
 3462SOL    HW213580   2.435   5.920   1.758  2.5324 -0.0967 -1.2460
 3462SOL    HW313581   2.433   6.067   1.793  0.5090 -0.3140 -0.3326
 3462SOL    MW413582   2.419   6.003   1.736  0.6326 -0.2127  0.7307
 3463SOL     OW13583   5.818   1.143   5.872  0.1571 -0.3248  0.3105
 3463SOL    HW213584   5.830   1.091   5.793 -0.6188 -2.4290  1.4845
 3463SOL    HW313585   5.767   1.219   5.844  0.8734 -0.4398 -1.3925
 3463SOL    MW413586   5.813   1.146   5.858  0.0575  0.7488  0.0578
 3464SOL     OW13587   5.891   2.437   1.517 -0.0046 -0.0143 -0.2374
 3464SOL    HW213588   5.800   2.409   1.504  0.1878 -0.3247 -0.9706
 3464SOL    HW313589   5.932   2.426   1.431  0.6731  0.3277  0.0345
 3464SOL    MW413590   5.884   2.432   1.504 -0.5106 -0.1216  0.4120
 3465SOL     OW13591   0.786   1.424   0.329  0.5255 -0.1290 -1.1227
 3465SOL    HW213592   0.717   1.460   0.274 -0.6246 -0.7214 -0.1407
 3465SOL    HW313593   0.771   1.465   0.415  1.1455 -0.5638 -0.8027
 3465SOL    MW413594   0.775   1.434   0.333 -0.5986  0.3183  0.4595
 3466SOL     OW13595   0.710   3.712   2.436  0.2410  0.0205 -0.0481
 3466SOL    HW213596   0.708   3.764   2.516  0.7014  0.6000 -0.4065
 3466SOL    HW313597   0.768   3.760   2.377 -0.0876 -0.3999 -0.7327
 3466SOL    MW413598   0.717   3.725   2.439 -0.2881 -0.0909  0.1492
 3467SOL     OW13599   3.214   0.249   0.376 -0.0879  0.1546 -0.1345
 3467SOL    HW213600   3.120   0.254   0.392 -0.2545  1.1158 -1.2697
 3467SOL    HW313601   3.254   0.286   0.455 -0.6555 -0.2326  0.3433
 3467SOL    MW413602   3.207   0.255   0.389  0.2471 -0.4917 -0.1071
 3468SOL     OW13603   3.179   1.185   4.936  0.1278 -0.2349  0.3568
 3468SOL    HW213604   3.269   1.158   4.951  0.5367  1.1458  0.4814
 3468SOL    HW313605   3.127   1.128   4.993  1.0260 -0.1839  1.2466
 3468SOL    MW413606   3.184   1.174   4.946  0.3874  0.3264 -0.0362
 3469SOL     OW13607   5.211   1.279   2.681  0.1830  0.1588 -0.3026
 3469SOL    HW213608   5.171   1.202   2.641  0.0456  0.6174 -1.0765
 3469SOL    HW313609   5.188   1.351   2.622 -2.5530  1.4440  2.1117
 3469SOL    MW413610   5.203   1.279   2.668  0.3985 -0.2070  0.4664
 3470SOL     OW13611   6.229   3.084   2.549 -0.0797 -0.2781 -0.2429
 3470SOL    HW213612   6.185   3.011   2.505 -0.8367  0.9992 -1.6876
 3470SOL    HW313613   6.165   3.116   2.613  0.2731 -0.8923  0.4296
 3470SOL    MW413614   6.215   3.078   2.551  0.0147 -0.2245 -0.3149
 3471SOL     OW13615   5.183   1.971   4.520  0.3828  0.0381  0.2101
 3471SOL    HW213616   5.131   1.892   4.533  0.6669  0.0570  1.5551
 3471SOL    HW313617   5.141   2.015   4.446 -0.0528 -1.1289 -0.2577
 3471SOL    MW413618   5.171   1.967   4.512  0.4937  0.0846 -0.4335
 3472SOL     OW13619   1.741   1.049   0.333 -0.0273 -0.0808  0.7644
 3472SOL    HW213620   1.822   1.044   0.383  0.7132 -0.7546 -0.4423
 3472SOL    HW313621   1.714   0.958   0.322 -0.3955  0.0817  0.2966
 3472SOL    MW413622   1.748   1.036   0.338  0.3094  0.2361 -0.2200
 3473SOL     OW13623   5.293   2.808   4.706  0.5205  0.4930 -0.4587
 3473SOL    HW213624   5.250   2.724   4.693  0.2982  0.4281  0.6152
 3473SOL    HW313625   5.280   2.855   4.623  0.0931 -0.2761 -0.8368
 3473SOL    MW413626   5.286   2.803   4.693  0.2579 -0.1425  0.0886
 3474SOL     OW13627   0.771   5.061   4.102  0.1751 -0.3932 -0.5484
 3474SOL    HW213628   0.715   5.134   4.125  1.8942  1.6036 -2.2738
 3474SOL    HW313629   0.833   5.054   4.175 -1.5124 -1.8910  0.8306
 3474SOL    MW413630   0.772   5.070   4.114 -0.3982 -0.2431  0.9609
 3475SOL     OW13631   0.348   1.154   4.305 -0.0237  0.2532  0.6982
 3475SOL    HW213632   0.411   1.110   4.248  1.4053  1.2850  1.3981
 3475SOL    HW313633   0.290   1.085   4.336 -2.0714 -0.1367 -3.3353
 3475SOL    MW413634   0.349   1.139   4.301 -0.2291 -0.4559  0.1393
 3476SOL     OW13635   0.978   5.946   2.227 -0.7079 -0.3169  0.7180
 3476SOL    HW213636   0.945   5.858   2.213  1.2142 -0.9416 -0.1454
 3476SOL    HW313637   0.924   6.002   2.170 -1.5202 -0.9913  0.8067
 3476SOL    MW413638   0.966   5.942   2.218 -0.4674  0.2993 -0.0935
 3477SOL     OW13639   3.337   4.458   3.050  0.2474 -0.8760 -0.6663
 3477SOL    HW213640   3.425   4.494   3.063  0.5206 -0.8003 -2.5268
 3477SOL    HW313641   3.347   4.394   2.980 -1.0998 -1.2106 -0.5768
 3477SOL    MW413642   3.350   4.454   3.042 -0.6857  0.1334 -0.6633
 3478SOL     OW13643   4.255   0.307   0.578 -0.2512 -0.2774  0.3180
 3478SOL    HW213644   4.333   0.268   0.538  2.2904  4.0085  0.3924
 3478SOL    HW313645   4.273   0.401   0.578 -3.3931  0.6584  4.6899
 3478SOL    MW413646   4.268   0.314   0.573  0.3393  0.8938 -0.1345
 3479SOL     OW13647   0.921   3.662   2.890 -0.4665 -0.5369  0.4867
 3479SOL    HW213648   0.997   3.630   2.841 -0.0752 -1.5845  1.7376
 3479SOL    HW313649   0.924   3.757   2.878 -0.6783 -0.7705 -1.8946
 3479SOL    MW413650   0.932   3.671   2.882 -0.0011 -0.2507 -0.7918
 3480SOL     OW13651   6.029   2.421   1.273  0.5282  0.0582 -0.4151
 3480SOL    HW213652   6.002   2.503   1.230 -0.6463  0.8972  1.7421
 3480SOL    HW313653   6.008   2.353   1.210 -0.3824  1.2640 -1.4801
 3480SOL    MW413654   6.023   2.423   1.259  0.0232  0.1442  0.4638
 3481SOL     OW13655   0.462   4.166   6.263 -0.2582 -0.3777  0.0823
 3481SOL    HW213656   0.368   4.179   6.260 -0.1223  0.9958  0.8712
 3481SOL    HW313657   0.494   4.235   6.321  1.1268 -1.4410  0.6511
 3481SOL    MW413658   0.454   4.177   6.270 -0.0019 -0.8697 -0.3182
 3482SOL     OW13659   4.430   1.677   5.140 -0.3738  0.1923  0.2102
 3482SOL    HW213660   4.459   1.748   5.083  1.1333  0.1932  0.9317
 3482SOL    HW313661   4.424   1.601   5.082 -0.0801  0.4772 -0.1968
 3482SOL    MW413662   4.433   1.676   5.125 -0.0632  0.4109 -0.1393
 3483SOL     OW13663   4.336   2.177   2.842 -0.2647 -0.0727 -0.7153
 3483SOL    HW213664   4.328   2.170   2.938  0.3826  0.6198 -0.6014
 3483SOL    HW313665   4.257   2.136   2.809 -1.4890  1.4386  0.1783
 3483SOL    MW413666   4.325   2.171   2.850 -0.4373  0.9382 -0.5664
 3484SOL     OW13667   1.246   5.742   0.928 -0.2527 -0.6170  0.0604
 3484SOL    HW213668   1.210   5.821   0.968  0.2895 -0.7811  0.8799
 3484SOL    HW313669   1.171   5.701   0.884 -0.6333  0.0967  0.0299
 3484SOL    MW413670   1.231   5.747   0.927  0.1389  0.2070  0.1841
 3485SOL     OW13671   3.697   4.783   4.374  0.1062 -0.5537 -0.2307
 3485SOL    HW213672   3.614   4.790   4.422 -0.6629 -0.8250 -1.4631
 3485SOL    HW313673   3.673   4.742   4.291  1.4054 -0.2016 -0.8100
 3485SOL    MW413674   3.683   4.779   4.370 -0.0462  0.3265 -0.0840
 3486SOL     OW13675   4.129   5.425   5.204  0.2825  0.1044 -0.2950
 3486SOL    HW213676   4.069   5.356   5.232  1.1070 -0.3774  0.3278
 3486SOL    HW313677   4.204   5.417   5.264  0.7316  1.0329 -0.7179
 3486SOL    MW413678   4.131   5.415   5.216 -0.1076  0.7628 -0.1755
 3487SOL     OW13679   4.838   3.739   5.264 -0.0020 -0.1500  0.3122
 3487SOL    HW213680   4.810   3.805   5.327  2.1406  0.1319  1.0619
 3487SOL    HW313681   4.860   3.662   5.318 -0.4751 -0.7604 -0.3452
 3487SOL    MW413682   4.837   3.737   5.280 -0.3063  0.2409 -0.3409
 3488SOL     OW13683   2.878   3.425   5.972  0.0594 -0.9679  0.5969
 3488SOL    HW213684   2.960   3.400   6.016  0.2538 -1.6210 -0.1146
 3488SOL    HW313685   2.886   3.520   5.960 -0.3857 -0.6173  2.7288
 3488SOL    MW413686   2.890   3.435   5.976 -0.0442  0.3791 -0.0700
 3489SOL     OW13687   4.567   4.385   0.598 -0.4265  0.4585 -0.0507
 3489SOL    HW213688   4.499   4.451   0.613 -1.1439 -0.2859  0.0514
 3489SOL    HW313689   4.649   4.435   0.595 -0.5619  1.0541  3.0903
 3489SOL    MW413690   4.569   4.400   0.599 -1.1459 -0.3955  0.6516
 3490SOL     OW13691   4.298   3.956   2.543  0.1802  0.5872 -0.0059
 3490SOL    HW213692   4.256   3.873   2.518 -0.9724  0.3701  2.3425
 3490SOL    HW313693   4.232   4.022   2.522 -0.2219  0.5425  1.0507
 3490SOL    MW413694   4.284   3.954   2.537  0.4821  0.0776 -0.7477
 3491SOL     OW13695   1.027   1.743   0.866 -0.2307 -0.3156  0.2951
 3491SOL    HW213696   1.008   1.652   0.840 -2.2811  0.0549  0.2724
 3491SOL    HW313697   1.067   1.782   0.789  1.3977 -1.3655  0.5533
 3491SOL    MW413698   1.029   1.736   0.852  0.0829 -0.1689 -0.1383
 3492SOL     OW13699   4.364   1.339   2.693 -0.0854  0.4904 -0.0789
 3492SOL    HW213700   4.329   1.253   2.716 -0.4607  0.0677 -2.0929
 3492SOL    HW313701   4.299   1.376   2.633  1.1762  1.2030 -1.0505
 3492SOL    MW413702   4.351   1.332   2.688  0.0580  0.2172 -0.2414
 3493SOL     OW13703   2.537   5.380   1.027  0.1483  0.6748 -0.0004
 3493SOL    HW213704   2.480   5.454   1.005 -2.1218 -0.8126  0.4259
 3493SOL    HW313705   2.542   5.382   1.123  2.3686  1.8028 -0.0847
 3493SOL    MW413706   2.530   5.390   1.037 -0.1928  0.0745 -0.1739
 3494SOL     OW13707   3.670   3.946   1.595 -0.3681 -0.9749  0.6237
 3494SOL    HW213708   3.626   3.870   1.558 -2.5177  0.1404  0.7057
 3494SOL    HW313709   3.671   3.929   1.690  0.2514 -1.4197  0.5425
 3494SOL    MW413710   3.664   3.934   1.603  0.1391  0.1550  0.4211
 3495SOL     OW13711   4.133   1.981   4.495  0.1484  0.0141 -0.0388
 3495SOL    HW213712   4.183   1.973   4.576  0.3007  0.2431 -0.1070
 3495SOL    HW313713   4.183   2.044   4.443 -0.2310  0.2746 -0.0923
 3495SOL    MW413714   4.146   1.988   4.499 -0.2071  0.0247 -0.6515
 3496SOL     OW13715   2.803   4.587   1.391 -0.3025 -0.2569 -0.4216
 3496SOL    HW213716   2.885   4.557   1.430 -0.1045  1.4038  0.5198
 3496SOL    HW313717   2.788   4.527   1.317  2.3369  0.0631 -1.3276
 3496SOL    MW413718   2.812   4.575   1.386 -0.0586 -0.2379 -0.8766
 3497SOL     OW13719   4.792   3.578   1.371  0.5331 -0.1493 -0.3670
 3497SOL    HW213720   4.792   3.482   1.368  0.3577 -0.1549 -0.2036
 3497SOL    HW313721   4.758   3.599   1.458  0.5773  0.0608 -0.4018
 3497SOL    MW413722   4.788   3.568   1.382  0.0325  0.2302 -0.2408
 3498SOL     OW13723   5.502   0.901   5.990 -0.4740  0.3814  0.0957
 3498SOL    HW213724   5.463   0.818   5.963  1.5393  0.1538 -2.5071
 3498SOL    HW313725   5.443   0.967   5.955 -0.4360  0.0502 -0.5999
 3498SOL    MW413726   5.489   0.899   5.982  0.1313 -0.5308 -0.0174
 3499SOL     OW13727   3.993   1.877   1.532 -0.1970 -0.3799  0.8183
 3499SOL    HW213728   4.054   1.839   1.595 -1.3798 -0.7420  1.7840
 3499SOL    HW313729   3.966   1.960   1.572 -1.7757 -1.1113  1.3519
 3499SOL    MW413730   3.998   1.883   1.546 -0.3229 -0.0736 -0.0930
 3500SOL     OW13731   1.989   2.287   1.684 -0.3536  0.3923 -0.4044
 3500SOL    HW213732   2.033   2.222   1.629  0.5258  0.6304 -0.0147
 3500SOL    HW313733   1.905   2.248   1.706 -0.4886  0.0635 -1.4620
 3500SOL    MW413734   1.984   2.273   1.680  0.3636 -0.1546 -0.2870
 3501SOL     OW13735   3.503   5.869   1.622 -0.5817 -0.8851 -0.0202
 3501SOL    HW213736   3.572   5.906   1.567 -0.4969 -0.6155  0.2639
 3501SOL    HW313737   3.425   5.871   1.567 -0.6413 -0.0215  0.0819
 3501SOL    MW413738   3.502   5.874   1.608 -1.0207 -0.0110  0.6535
 3502SOL     OW13739   2.386   4.084   0.398 -0.3530 -0.2554  0.0959
 3502SOL    HW213740   2.366   4.063   0.307  1.5633  0.3894 -0.5291
 3502SOL    HW313741   2.427   4.004   0.432  0.0091 -0.0943  0.0350
 3502SOL    MW413742   2.389   4.070   0.390  1.0611 -0.4504  0.3781
 3503SOL     OW13743   1.899   2.027   2.519  0.0486 -0.2152 -0.6963
 3503SOL    HW213744   1.871   2.105   2.566  0.7469  0.3252 -1.1482
 3503SOL    HW313745   1.939   1.972   2.587  1.1188  0.5918 -0.6401
 3503SOL    MW413746   1.901   2.030   2.534 -0.2775  0.1108 -0.1720
 3504SOL     OW13747   0.837   1.206   3.397  0.2872  0.3835  0.2841
 3504SOL    HW213748   0.776   1.199   3.470 -0.1011  1.8513  0.1370
 3504SOL    HW313749   0.791   1.260   3.332  2.1748  2.6256  0.6765
 3504SOL    MW413750   0.823   1.212   3.398  0.4238 -0.0576 -0.0940
 3505SOL     OW13751   3.515   1.724   4.811 -0.2861 -0.6678  0.3029
 3505SOL    HW213752   3.509   1.668   4.734  0.2481 -0.4622  0.1096
 3505SOL    HW313753   3.607   1.747   4.818 -0.3645 -0.4981  0.8738
 3505SOL    MW413754   3.526   1.720   4.802 -0.3107 -0.4787  0.0543
 3506SOL     OW13755   0.753   0.823   2.231  0.5786  0.1895  0.4207
 3506SOL    HW213756   0.783   0.796   2.144 -0.3416  1.2594 -0.2557
 3506SOL    HW313757   0.798   0.905   2.248  3.2170 -1.4823  2.3860
 3506SOL    MW413758   0.763   0.830   2.222 -0.5140  0.5039 -0.4305
 3507SOL     OW13759   1.266   2.778   5.545 -0.1799 -0.2969 -0.3108
 3507SOL    HW213760   1.193   2.834   5.573  0.5572  1.0846 -1.0642
 3507SOL    HW313761   1.341   2.809   5.595 -0.4471 -3.2084  2.2212
 3507SOL    MW413762   1.266   2.789   5.556 -0.1879 -0.3311 -0.5285
 3508SOL     OW13763   1.993   5.073   1.258 -0.2137 -0.5951  0.1164
 3508SOL    HW213764   1.981   4.997   1.202  0.3053 -0.6041  0.0203
 3508SOL    HW313765   2.087   5.081   1.270 -0.2529  0.1146  0.0148
 3508SOL    MW413766   2.004   5.064   1.252 -0.7244  0.7048 -0.3090
 3509SOL     OW13767   1.279   6.021   5.679  0.4513 -0.4105 -0.2969
 3509SOL    HW213768   1.358   5.968   5.692  0.5906 -0.4201 -1.1572
 3509SOL    HW313769   1.241   5.988   5.598 -0.2983 -0.2284 -0.0216
 3509SOL    MW413770   1.285   6.010   5.670  0.3256  0.0083 -0.2686
 3510SOL     OW13771   6.235   4.487   0.854  0.2911  0.4111  0.0935
 3510SOL    HW213772   6.162   4.430   0.831  0.9374  0.3634 -2.0586
 3510SOL    HW313773   6.266   4.454   0.938 -1.5128 -0.1934  0.5520
 3510SOL    MW413774   6.229   4.475   0.862 -0.3296  0.2080  0.2188
 3511SOL     OW13775   4.064   2.583   1.551  0.7041  0.7404  0.0942
 3511SOL    HW213776   3.992   2.554   1.495  0.3284  0.0415  0.9252
 3511SOL    HW313777   4.095   2.503   1.594  2.2338  0.9624 -0.5351
 3511SOL    MW413778   4.059   2.569   1.549  0.5451  0.0427  0.2114
 3512SOL     OW13779   4.112   3.363   2.756 -0.4019 -0.4912  0.3249
 3512SOL    HW213780   4.128   3.272   2.783 -0.1694 -0.9671 -1.3101
 3512SOL    HW313781   4.198   3.396   2.731 -0.8408 -0.8238 -1.9065
 3512SOL    MW413782   4.125   3.355   2.756 -0.8331 -0.1103 -0.2845
 3513SOL     OW13783   4.745   0.340   1.948 -0.4357  0.6476  0.3728
 3513SOL    HW213784   4.833   0.335   1.987  0.1308  0.4763 -0.8730
 3513SOL    HW313785   4.723   0.250   1.928  0.1163  0.8761 -1.4340
 3513SOL    MW413786   4.754   0.328   1.951  0.5118  0.9142 -0.2398
 3514SOL     OW13787   0.330   5.207   4.401  0.7567 -0.3879 -0.7562
 3514SOL    HW213788   0.374   5.162   4.329 -1.1450 -1.6516 -1.1838
 3514SOL    HW313789   0.296   5.288   4.362  0.2680 -0.7698 -1.1227
 3514SOL    MW413790   0.331   5.212   4.387  0.0182  0.6565 -0.0230
 3515SOL     OW13791   1.344   6.267   3.935  0.1947  0.0998 -0.1766
 3515SOL    HW213792   1.360   6.285   4.027  0.4969  0.4750 -0.2958
 3515SOL    HW313793   1.293   6.186   3.934  2.3054 -1.3048  0.2136
 3515SOL    MW413794   1.339   6.259   3.947  0.4552 -0.4319  0.2076
 3516SOL     OW13795   3.132   3.466   5.055  0.7942  0.1819 -0.2495
 3516SOL    HW213796   3.144   3.541   4.998 -1.5387  0.7553 -0.0721
 3516SOL    HW313797   3.088   3.501   5.133 -0.8565 -1.4007 -0.3933
 3516SOL    MW413798   3.128   3.480   5.058  0.0838 -0.5877 -0.6757
 3517SOL     OW13799   0.043   3.653   4.752  0.0670 -0.3835  0.0459
 3517SOL    HW213800  -0.021   3.622   4.687  1.2501 -1.5533 -0.6167
 3517SOL    HW313801   0.104   3.706   4.701  1.5303 -2.0602 -0.0349
 3517SOL    MW413802   0.043   3.656   4.736 -0.2643  0.0061 -0.5167
 3518SOL     OW13803   0.357   6.102   3.314  0.1923  0.3501  0.0282
 3518SOL    HW213804   0.289   6.060   3.368 -1.3294  2.6194  0.0355
 3518SOL    HW313805   0.344   6.065   3.227 -0.5960  0.2404  0.1805
 3518SOL    MW413806   0.346   6.091   3.310 -0.1864 -0.2342  0.1317
 3519SOL     OW13807   3.625   5.654   0.255  0.0287  0.3655  0.0688
 3519SOL    HW213808   3.600   5.633   0.165  0.7941  0.7374 -0.2416
 3519SOL    HW313809   3.667   5.740   0.248  1.0120 -0.0559  0.6122
 3519SOL    MW413810   3.627   5.662   0.242  0.0561  0.2069  0.2234
 3520SOL     OW13811   4.822   4.546   6.406  0.0066  0.1207  0.1593
 3520SOL    HW213812   4.844   4.467   6.455 -0.1983  0.6541  1.1440
 3520SOL    HW313813   4.812   4.517   6.316 -0.7996 -1.1070  0.6259
 3520SOL    MW413814   4.823   4.532   6.401  0.2794  0.2268 -0.7045
 3521SOL     OW13815   2.559   3.213   5.577 -0.0913  0.0132 -0.0607
 3521SOL    HW213816   2.611   3.293   5.585  0.1632  0.4403 -4.1578
 3521SOL    HW313817   2.618   3.144   5.609  1.0443  1.0617  0.2068
 3521SOL    MW413818   2.574   3.214   5.583 -0.2779  0.3660  0.4377
 3522SOL     OW13819   5.175   6.215   0.290  0.4454 -0.3114 -0.1955
 3522SOL    HW213820   5.116   6.276   0.333  2.6160  1.3322  0.6785
 3522SOL    HW313821   5.139   6.205   0.201  0.0179  2.3426 -0.4056
 3522SOL    MW413822   5.163   6.222   0.284 -0.6397  0.0195 -0.4151
 3523SOL     OW13823   2.306   0.104   0.608 -0.5391 -0.1718 -0.2875
 3523SOL    HW213824   2.306   0.150   0.691  2.0187 -0.4137 -0.0705
 3523SOL    HW313825   2.390   0.127   0.567 -0.8757 -1.5793 -1.9053
 3523SOL    MW413826   2.317   0.113   0.613 -0.4482 -0.2715  0.5006
 3524SOL     OW13827   4.767   3.895   4.430 -0.1285 -0.1387 -0.0007
 3524SOL    HW213828   4.813   3.918   4.350  0.9648  0.5501  0.8003
 3524SOL    HW313829   4.774   3.972   4.486  1.2584 -1.3926  1.6898
 3524SOL    MW413830   4.774   3.908   4.427  0.1039 -0.2562 -0.4067
 3525SOL     OW13831   0.061   3.786   5.776 -0.2515  0.2526 -0.2431
 3525SOL    HW213832  -0.017   3.798   5.723 -0.1036 -0.8158 -0.7473
 3525SOL    HW313833   0.047   3.702   5.820 -1.2247  1.9504  2.9679
 3525SOL    MW413834   0.049   3.776   5.774  0.1494 -0.3644 -0.3471
 3526SOL     OW13835   5.426   3.961   0.196 -0.7613  0.1715  0.0697
 3526SOL    HW213836   5.471   3.993   0.274 -2.9792  0.2222  1.4205
 3526SOL    HW313837   5.432   4.033   0.133  0.1159  0.5670  0.6008
 3526SOL    MW413838   5.432   3.975   0.198  0.1920 -0.2260  0.6025
 3527SOL     OW13839   3.777   2.879   4.740 -0.1135  0.3010  0.4152
 3527SOL    HW213840   3.690   2.846   4.717  0.1171  0.7927 -1.3268
 3527SOL    HW313841   3.814   2.909   4.656  1.8623 -0.1910  1.0564
 3527SOL    MW413842   3.770   2.878   4.726  0.1626  0.1619 -0.6383
 3528SOL     OW13843   6.227   1.694   1.598 -0.0250 -0.4913  0.2087
 3528SOL    HW213844   6.207   1.644   1.678  0.2108 -1.0975 -0.1079
 3528SOL    HW313845   6.307   1.654   1.564  0.0461 -0.0357 -0.1718
 3528SOL    MW413846   6.235   1.682   1.604 -0.1170  0.0946  0.6318
 3529SOL     OW13847   0.027   1.353   2.886 -0.9749 -0.1912  0.5293
 3529SOL    HW213848   0.041   1.258   2.889 -0.3430 -0.1861 -1.1924
 3529SOL    HW313849   0.110   1.391   2.913 -0.1988 -0.1717 -1.6707
 3529SOL    MW413850   0.040   1.345   2.890 -0.0409 -0.2055 -0.2263
 3530SOL     OW13851   6.389   0.270   4.539  0.3411 -0.1553  0.0819
 3530SOL    HW213852   6.410   0.203   4.605 -1.0768  0.6063  1.3564
 3530SOL    HW313853   6.296   0.260   4.523  0.3457  0.7594 -0.5820
 3530SOL    MW413854   6.380   0.260   4.546  0.1638 -0.6948 -0.0180
 3531SOL     OW13855   1.991   1.759   4.193 -0.6823 -0.6998  0.0955
 3531SOL    HW213856   2.020   1.694   4.257 -0.0651 -3.0824 -2.3800
 3531SOL    HW313857   2.072   1.787   4.150 -1.1334  0.3977 -0.0667
 3531SOL    MW413858   2.006   1.754   4.195  0.3703  0.3993  0.6377
 3532SOL     OW13859   0.977   4.325   4.668 -0.4062 -0.5584  0.3512
 3532SOL    HW213860   0.904   4.292   4.720 -0.7355 -0.3854  0.0021
 3532SOL    HW313861   1.054   4.307   4.722 -0.5268 -2.1728  0.0469
 3532SOL    MW413862   0.978   4.318   4.682 -0.5484  0.1235  0.3993
 3533SOL     OW13863   4.498   1.824   3.459  0.0431 -0.3591 -0.0826
 3533SOL    HW213864   4.479   1.906   3.506  0.1815 -1.3378  1.7612
 3533SOL    HW313865   4.413   1.781   3.451 -0.4184  0.8017 -2.9213
 3533SOL    MW413866   4.484   1.829   3.464 -0.0800 -0.3058  0.0585
 3534SOL     OW13867   5.070   2.921   2.116 -0.0944  0.0326  0.2290
 3534SOL    HW213868   5.104   3.010   2.126 -1.2706  0.4760  0.4429
 3534SOL    HW313869   5.000   2.930   2.051  0.1074 -0.8350 -0.1143
 3534SOL    MW413870   5.065   2.934   2.109 -0.9260 -0.4840 -0.0847
 3535SOL     OW13871   3.491   5.630   1.970 -0.4038  0.2327 -0.0073
 3535SOL    HW213872   3.489   5.725   1.970  1.9436  0.3454  0.1541
 3535SOL    HW313873   3.449   5.605   1.887  1.0780  1.5573 -1.2378
 3535SOL    MW413874   3.485   5.639   1.959 -0.0390  0.3114 -0.0892
 3536SOL     OW13875   1.624   1.651   1.444  0.2863  0.3600  0.0765
 3536SOL    HW213876   1.645   1.662   1.537 -0.2995 -0.2528  0.2882
 3536SOL    HW313877   1.533   1.622   1.443 -0.2470  1.9393 -0.7731
 3536SOL    MW413878   1.615   1.648   1.456 -0.1030  0.4972 -0.1548
 3537SOL     OW13879   0.435   5.205   6.308  0.0860  0.3899  0.0986
 3537SOL    HW213880   0.420   5.257   6.387  1.4841 -1.4769  1.6716
 3537SOL    HW313881   0.351   5.208   6.262 -1.1125  0.6845  2.1732
 3537SOL    MW413882   0.422   5.212   6.312  0.3062 -0.0841  0.1865
 3538SOL     OW13883   6.269   3.182   4.270  0.0303  0.3626 -0.2799
 3538SOL    HW213884   6.363   3.166   4.261  0.8342  3.1332  1.7447
 3538SOL    HW313885   6.261   3.277   4.275 -2.9334  0.2338 -0.4911
 3538SOL    MW413886   6.280   3.193   4.269 -0.5690  0.2237  0.4216
 3539SOL     OW13887   4.854   0.460   1.508 -0.4081 -0.2323 -0.5373
 3539SOL    HW213888   4.850   0.550   1.478 -2.3816 -0.2873 -0.5743
 3539SOL    HW313889   4.872   0.409   1.429  0.6239  0.0973 -0.5289
 3539SOL    MW413890   4.856   0.465   1.494 -0.5840  0.6704  0.2939
 3540SOL     OW13891   6.283   3.293   1.183 -0.2670  0.4436  0.0602
 3540SOL    HW213892   6.208   3.317   1.129 -0.1265  0.1755 -0.2494
 3540SOL    HW313893   6.258   3.322   1.271 -0.7692  0.2765 -0.0245
 3540SOL    MW413894   6.270   3.300   1.188  0.0748  0.3086  0.2592
 3541SOL     OW13895   1.715   5.953   3.512  0.0875  0.7754 -0.2936
 3541SOL    HW213896   1.697   6.047   3.507  0.3988  0.8499 -0.0835
 3541SOL    HW313897   1.810   5.947   3.500  0.5224  0.7400  2.4430
 3541SOL    MW413898   1.725   5.965   3.510 -0.1435  0.4846  0.1364
 3542SOL     OW13899   1.266   5.260   2.599  0.1828  0.1300 -0.6029
 3542SOL    HW213900   1.257   5.303   2.514  0.7178  0.4131 -0.5170
 3542SOL    HW313901   1.314   5.323   2.653  0.5802 -0.3955 -0.3412
 3542SOL    MW413902   1.271   5.274   2.595 -0.1940  0.0191 -0.2416
 3543SOL     OW13903   4.345   6.334   4.265  0.3070  0.2244  0.0912
 3543SOL    HW213904   4.377   6.347   4.176  4.6132  2.1802  1.6388
 3543SOL    HW313905   4.259   6.377   4.266  0.4627  0.7995 -2.8738
 3543SOL    MW413906   4.338   6.342   4.253  0.0923 -0.2693 -0.6296
 3544SOL     OW13907   4.132   1.221   5.805 -0.4361 -0.0966 -0.9530
 3544SOL    HW213908   4.145   1.315   5.796 -1.1584  0.0091 -0.9831
 3544SOL    HW313909   4.156   1.201   5.895 -1.5613  0.3521 -0.5410
 3544SOL    MW413910   4.137   1.231   5.816  0.2709 -0.3306  0.6719
 3545SOL     OW13911   4.034   4.746   1.859  0.1524 -0.0460  0.0739
 3545SOL    HW213912   3.983   4.790   1.927  2.3451  0.6658  1.3209
 3545SOL    HW313913   4.083   4.815   1.815 -0.9722 -0.5247 -2.1388
 3545SOL    MW413914   4.033   4.761   1.862  0.7809 -0.9141  0.1480
 3546SOL     OW13915   4.224   5.580   4.182  0.4737 -0.3561 -0.0230
 3546SOL    HW213916   4.162   5.613   4.247  0.7906  2.2465 -0.8930
 3546SOL    HW313917   4.169   5.556   4.107  0.3763  0.6223 -0.2820
 3546SOL    MW413918   4.208   5.581   4.181 -0.3009 -1.1522  0.0148
 3547SOL     OW13919   0.111   5.317   5.269 -0.0042 -0.1996  0.3483
 3547SOL    HW213920   0.133   5.260   5.195  2.1279 -0.2957  1.0082
 3547SOL    HW313921   0.037   5.273   5.311 -0.5380 -0.7163 -1.0645
 3547SOL    MW413922   0.104   5.304   5.264 -0.1952  0.2706 -0.6005
 3548SOL     OW13923   2.017   2.717   2.714  0.0502  0.0267 -0.2593
 3548SOL    HW213924   2.004   2.717   2.809 -0.9687  0.9354 -0.3687
 3548SOL    HW313925   2.083   2.785   2.700 -1.4338  1.5289 -0.3384
 3548SOL    MW413926   2.024   2.726   2.725  0.1900  0.0693  0.4813
 3549SOL     OW13927   1.047   2.685   5.805 -0.2983  0.1027  0.2639
 3549SOL    HW213928   0.964   2.647   5.778 -0.9894  0.7322  1.4394
 3549SOL    HW313929   1.027   2.735   5.884  1.0671  0.8207  0.1978
 3549SOL    MW413930   1.033   2.687   5.812  0.5005 -0.3781 -0.5088
 3550SOL     OW13931   3.950   6.356   1.848 -0.6139 -0.4750 -0.0032
 3550SOL    HW213932   3.947   6.438   1.799  0.7704  0.0637  0.7714
 3550SOL    HW313933   3.983   6.292   1.785  0.8354  0.1454  0.0835
 3550SOL    MW413934   3.954   6.358   1.833  0.1066 -0.0546 -0.0121
 3551SOL     OW13935   6.027   0.232   1.854 -0.4170  0.0250 -0.0016
 3551SOL    HW213936   5.953   0.171   1.850 -0.1400 -0.4993  1.9235
 3551SOL    HW313937   6.101   0.178   1.883  0.2766  0.9254 -0.0482
 3551SOL    MW413938   6.027   0.217   1.857 -0.2118  0.1204  0.0888
 3552SOL     OW13939   3.869   2.979   3.937 -0.2371 -0.3906 -0.0910
 3552SOL    HW213940   3.953   3.006   3.900  0.8870 -1.4894  1.5216
 3552SOL    HW313941   3.861   2.887   3.913 -1.6817  0.0336 -1.3993
 3552SOL    MW413942   3.879   2.970   3.929 -0.0680  0.4976  0.1826
 3553SOL     OW13943   3.953   4.007   3.320  0.1597 -0.4972 -0.4585
 3553SOL    HW213944   3.859   3.994   3.306  0.2088 -1.6230  0.1727
 3553SOL    HW313945   3.990   4.012   3.232 -0.2720 -1.7531 -0.7251
 3553SOL    MW413946   3.945   4.006   3.306  0.7661  0.0676  0.2672
 3554SOL     OW13947   1.918   1.028   2.500 -0.4440 -0.7677  0.1591
 3554SOL    HW213948   1.867   0.953   2.469  0.0619 -0.7640 -0.7045
 3554SOL    HW313949   1.876   1.104   2.461 -1.0120 -0.5718  1.1081
 3554SOL    MW413950   1.906   1.028   2.491 -0.1112 -0.2729  0.2487
 3555SOL     OW13951   3.324   4.146   3.202  0.5652 -0.4649 -0.2874
 3555SOL    HW213952   3.413   4.177   3.184 -0.0676  1.5217 -0.2596
 3555SOL    HW313953   3.336   4.073   3.263  2.1863 -0.6112 -0.7192
 3555SOL    MW413954   3.337   4.141   3.208  0.0586 -0.7282  0.1208
 3556SOL     OW13955   1.544   1.680   3.411  0.1736 -0.0097  0.6986
 3556SOL    HW213956   1.548   1.599   3.361  1.3392  0.7389 -0.5053
 3556SOL    HW313957   1.577   1.656   3.498  0.4509 -0.8470  0.3741
 3556SOL    MW413958   1.549   1.667   3.416 -0.0563  0.0991  0.9759
 3557SOL     OW13959   5.859   5.858   5.222 -0.0724 -0.3089 -0.0886
 3557SOL    HW213960   5.852   5.763   5.218 -0.6033 -0.2649 -0.2290
 3557SOL    HW313961   5.954   5.875   5.223  0.0251 -0.8160 -0.4226
 3557SOL    MW413962   5.871   5.848   5.222 -0.1028  0.2656 -0.3360
 3558SOL     OW13963   2.456   5.832   5.236  0.1111 -0.6055  0.0600
 3558SOL    HW213964   2.405   5.912   5.225 -0.0441 -0.4432  1.6976
 3558SOL    HW313965   2.511   5.849   5.312  1.7244 -1.2535 -0.9178
 3558SOL    MW413966   2.456   5.845   5.245 -0.7701 -0.4126 -0.5208
 3559SOL     OW13967   0.576   1.069   0.679  0.0884  0.2677  0.2573
 3559SOL    HW213968   0.615   1.023   0.604  3.5708  0.1463  1.9659
 3559SOL    HW313969   0.576   1.161   0.653  2.1304  0.3375  0.3761
 3559SOL    MW413970   0.581   1.075   0.666 -0.3002 -0.0281  0.0304
 3560SOL     OW13971   6.043   0.529   3.038 -0.2675 -0.0835 -0.5094
 3560SOL    HW213972   6.063   0.435   3.039 -1.3284 -0.3210 -0.4062
 3560SOL    HW313973   5.949   0.533   3.019 -0.6187  0.8833  1.2416
 3560SOL    MW413974   6.033   0.517   3.036  0.1702  0.5471 -0.3942
 3561SOL     OW13975   3.792   3.314   0.087  0.0712  0.1509  0.0181
 3561SOL    HW213976   3.698   3.331   0.079 -0.0706 -0.5979 -0.0095
 3561SOL    HW313977   3.807   3.305   0.181 -0.0246 -0.4547 -0.0212
 3561SOL    MW413978   3.782   3.315   0.099  0.6801  0.3466 -0.4203
 3562SOL     OW13979   2.709   4.949   1.582  0.3938 -0.3367  0.1780
 3562SOL    HW213980   2.701   4.896   1.503  3.6371 -0.7525  0.0063
 3562SOL    HW313981   2.660   5.029   1.561  0.1707 -0.9181 -1.7740
 3562SOL    MW413982   2.701   4.953   1.568 -0.5076 -0.1386 -0.6712
 3563SOL     OW13983   4.900   0.240   4.005  0.3665  0.1389  1.0112
 3563SOL    HW213984   4.936   0.307   4.063  1.4120  0.8822 -0.4409
 3563SOL    HW313985   4.835   0.195   4.059  0.3793  1.6239  2.3554
 3563SOL    MW413986   4.896   0.243   4.020  0.3187 -0.3045  0.6217
 3564SOL     OW13987   3.291   3.910   4.280  0.5955  0.2114  0.4276
 3564SOL    HW213988   3.353   3.981   4.292  1.4583 -0.8500  3.1916
 3564SOL    HW313989   3.208   3.945   4.313 -0.1033  1.2363 -2.1722
 3564SOL    MW413990   3.288   3.924   4.286 -0.8227  0.1470  0.2023
 3565SOL     OW13991   3.972   4.098   4.595  0.0949  0.1148 -0.0154
 3565SOL    HW213992   3.958   4.072   4.686  0.8225  1.2033  0.4255
 3565SOL    HW313993   4.038   4.167   4.600 -1.0789  1.3760 -1.2239
 3565SOL    MW413994   3.979   4.104   4.608  0.4532  0.1476  0.0345
 3566SOL     OW13995   2.481   5.322   1.899  0.4803  0.0263  0.2840
 3566SOL    HW213996   2.456   5.230   1.894  0.1005  0.0780  1.0642
 3566SOL    HW313997   2.451   5.360   1.817  1.4918 -0.7410 -0.4569
 3566SOL    MW413998   2.474   5.315   1.888 -0.2318  0.1574 -0.0254
 3567SOL     OW13999   3.878   3.778   1.317 -0.3272  0.3971 -0.7261
 3567SOL    HW214000   3.913   3.762   1.404 -1.2465 -0.9590 -0.5797
 3567SOL    HW314001   3.956   3.785   1.261  0.2465  0.5262  0.0645
 3567SOL    MW414002   3.893   3.777   1.321 -0.4560 -0.3386  0.3342
 3568SOL     OW14003   4.760   2.297   2.937  0.0411 -0.6143  0.3199
 3568SOL    HW214004   4.758   2.387   2.903  0.0551 -0.6587  0.1993
 3568SOL    HW314005   4.834   2.295   2.997  0.0677 -0.5571  0.2885
 3568SOL    MW414006   4.769   2.309   2.940  0.3188 -0.2408  0.3209
 3569SOL     OW14007   3.157   1.460   4.991  0.5263 -0.3371  0.3246
 3569SOL    HW214008   3.219   1.489   5.058  0.3081 -1.4583  1.0423
 3569SOL    HW314009   3.164   1.365   4.992 -0.3534 -0.4204 -0.4177
 3569SOL    MW414010   3.166   1.451   5.000  0.6880 -0.9794 -0.0141
 3570SOL     OW14011   4.341   2.578   4.974 -0.1545  0.3981 -0.4371
 3570SOL    HW214012   4.272   2.522   5.009 -0.9286  1.0253 -0.9180
 3570SOL    HW314013   4.373   2.626   5.050  0.2318 -0.3772 -0.0943
 3570SOL    MW414014   4.336   2.577   4.988  0.0379 -0.5857 -0.0639
 3571SOL     OW14015   5.930   0.155   1.127 -0.7707 -0.2676  0.1300
 3571SOL    HW214016   5.973   0.238   1.144 -0.4255 -0.3875 -0.1427
 3571SOL    HW314017   5.962   0.097   1.196 -0.0919 -0.4971 -0.3666
 3571SOL    MW414018   5.940   0.158   1.138  0.6258 -0.3119  0.0336
 3572SOL     OW14019   1.603   5.823   1.628  0.3115  0.0568  0.0995
 3572SOL    HW214020   1.522   5.820   1.679 -0.4774  2.2210 -0.8993
 3572SOL    HW314021   1.671   5.842   1.692 -0.0288 -1.1607  0.8607
 3572SOL    MW414022   1.601   5.825   1.643 -0.8129  0.1006  0.1308
 3573SOL     OW14023   5.692   2.243   1.726 -0.0768  0.3611 -0.0854
 3573SOL    HW214024   5.771   2.225   1.776 -0.1540  0.3180  0.0231
 3573SOL    HW314025   5.636   2.292   1.787  0.1518  1.0164 -0.3898
 3573SOL    MW414026   5.695   2.247   1.741  0.0630 -0.4332  0.7178
 3574SOL     OW14027   0.878   0.074   2.719 -0.1218  0.3042  1.0482
 3574SOL    HW214028   0.884  -0.005   2.666 -0.4688  1.2733 -0.4964
 3574SOL    HW314029   0.905   0.046   2.806  1.6760 -1.1031  0.1201
 3574SOL    MW414030   0.883   0.060   2.723  0.0463  0.5128 -0.5304
 3575SOL     OW14031   4.326   2.644   2.069  0.1133  0.0773  0.8139
 3575SOL    HW214032   4.348   2.725   2.116  0.2152 -0.2886  1.4024
 3575SOL    HW314033   4.362   2.574   2.123 -1.1296 -0.4476  0.9912
 3575SOL    MW414034   4.334   2.646   2.082 -0.0124 -0.0470  0.5693
 3576SOL     OW14035   4.071   1.376   0.499  0.3725 -0.3585  0.8957
 3576SOL    HW214036   4.115   1.375   0.584  0.4317  0.4667  0.8846
 3576SOL    HW314037   4.076   1.468   0.470 -1.3303 -0.2323  0.8869
 3576SOL    MW414038   4.078   1.388   0.506  0.0593  0.3290  0.1864
 3577SOL     OW14039   0.074   5.488   1.451  0.3142  0.4614  0.6060
 3577SOL    HW214040   0.137   5.463   1.384  0.2704 -0.2207  0.8109
 3577SOL    HW314041   0.126   5.536   1.515  0.4656  0.6234  0.3628
 3577SOL    MW414042   0.089   5.491   1.451  0.2674  0.2495 -0.0814
 3578SOL     OW14043   3.467   0.082   3.864 -0.1613  0.0586 -0.5987
 3578SOL    HW214044   3.424   0.055   3.945  0.5546  1.0787  0.1413
 3578SOL    HW314045   3.396   0.110   3.806 -0.5939  0.3343  0.0622
 3578SOL    MW414046   3.452   0.082   3.867  0.1500 -0.4053 -0.5709
 3579SOL     OW14047   5.991   4.852   6.090  0.7270 -0.3965  0.2953
 3579SOL    HW214048   6.028   4.789   6.152  0.6192  0.0401  0.8060
 3579SOL    HW314049   6.036   4.834   6.007 -0.5287 -2.3235 -0.0337
 3579SOL    MW414050   6.002   4.841   6.087 -0.0754  0.0813 -0.1591
 3580SOL     OW14051   1.405   3.407   5.199 -0.1785 -0.4656  0.5491
 3580SOL    HW214052   1.473   3.340   5.211  0.4807  0.0477 -0.1965
 3580SOL    HW314053   1.447   3.488   5.228  0.1056  0.1337 -1.4042
 3580SOL    MW414054   1.420   3.409   5.204  0.5040  0.7681  0.3019
 3581SOL     OW14055   2.638   3.306   3.228  0.3297 -0.1034  0.4465
 3581SOL    HW214056   2.625   3.218   3.265  0.0796 -1.0341 -1.6883
 3581SOL    HW314057   2.564   3.357   3.261 -1.3513 -1.6101 -0.7297
 3581SOL    MW414058   2.627   3.301   3.237  0.1802 -0.5364 -0.1072
 3582SOL     OW14059   0.304   5.603   5.448  0.3774  0.2734  0.1564
 3582SOL    HW214060   0.233   5.558   5.494  0.9290 -0.0390  0.7061
 3582SOL    HW314061   0.262   5.679   5.409 -0.4102 -0.3002 -0.1342
 3582SOL    MW414062   0.289   5.607   5.449  0.4984 -0.2208 -0.4161
 3583SOL     OW14063   4.000   3.180   0.707  0.2657 -0.5947  0.0801
 3583SOL    HW214064   4.059   3.170   0.633 -1.4212 -0.8568 -1.2837
 3583SOL    HW314065   3.944   3.102   0.705 -0.1704 -0.3366  1.2837
 3583SOL    MW414066   4.000   3.169   0.697 -0.8000 -0.0837  0.2259
 3584SOL     OW14067   4.379   4.440   4.262 -0.3620  0.7315 -0.2890
 3584SOL    HW214068   4.286   4.419   4.271 -0.4060  0.7727 -0.6264
 3584SOL    HW314069   4.380   4.519   4.209 -0.1156  0.4705 -0.6791
 3584SOL    MW414070   4.367   4.447   4.256 -0.2616 -0.2918 -0.0229
 3585SOL     OW14071   1.490   3.326   0.401  0.3056  0.8574  0.0063
 3585SOL    HW214072   1.451   3.239   0.409 -1.6711  1.6935  0.0836
 3585SOL    HW314073   1.524   3.345   0.488  0.8041  0.1674 -0.0255
 3585SOL    MW414074   1.490   3.317   0.413  0.2766 -0.2106 -1.1510
 3586SOL     OW14075   2.599   1.054   0.626 -0.2893  0.0785  0.1435
 3586SOL    HW214076   2.639   0.995   0.691 -0.8957  0.1606  0.5972
 3586SOL    HW314077   2.610   1.141   0.665  1.2232  0.3694 -0.8364
 3586SOL    MW414078   2.606   1.058   0.640  0.2196  0.7198  0.0981
 3587SOL     OW14079   4.740   5.144   0.719 -0.5068 -0.5566  0.0625
 3587SOL    HW214080   4.775   5.099   0.795 -2.3235 -1.4936  0.4123
 3587SOL    HW314081   4.759   5.236   0.734  1.2258 -0.9592  0.4833
 3587SOL    MW414082   4.747   5.150   0.731  0.3646  0.5406 -0.0028
 3588SOL     OW14083   5.641   2.703   4.352 -0.4270  0.1007 -0.6136
 3588SOL    HW214084   5.725   2.681   4.311  0.3961  3.1106 -0.8301
 3588SOL    HW314085   5.654   2.682   4.445  0.1859 -0.4700 -0.8194
 3588SOL    MW414086   5.654   2.697   4.359  0.0819  0.3811 -0.2129
 3589SOL     OW14087   5.557   0.320   1.089 -0.0528  0.3689  0.2345
 3589SOL    HW214088   5.592   0.232   1.105  2.2972  0.4900 -3.1586
 3589SOL    HW314089   5.617   0.379   1.133 -0.3224  0.3579  0.6209
 3589SOL    MW414090   5.569   0.316   1.097  0.5354  0.2604 -0.8252
 3590SOL     OW14091   4.293   0.639   1.396  0.0376  0.0201  0.3747
 3590SOL    HW214092   4.355   0.673   1.460  1.3667 -0.9339 -0.3530
 3590SOL    HW314093   4.330   0.555   1.369 -1.5136 -0.5231 -0.1907
 3590SOL    MW414094   4.306   0.632   1.401  0.1438  0.2662 -0.2824
 3591SOL     OW14095   5.804   3.071   3.912 -0.0972  0.0290 -0.2566
 3591SOL    HW214096   5.753   3.131   3.857  1.7337  0.8604 -1.1499
 3591SOL    HW314097   5.759   2.987   3.905 -1.4089  0.7675 -0.8691
 3591SOL    MW414098   5.792   3.068   3.904  0.7549 -0.0981 -0.2920
 3592SOL     OW14099   4.752   4.381   3.681  0.2260  0.1832 -0.2713
 3592SOL    HW214100   4.818   4.394   3.750 -0.5255  0.6148  0.3843
 3592SOL    HW314101   4.802   4.389   3.599  1.3349 -1.4156  0.1965
 3592SOL    MW414102   4.768   4.384   3.679  0.6129 -0.0510 -0.1434
 3593SOL     OW14103   1.677   5.506   1.881  0.3831 -0.3350 -0.4737
 3593SOL    HW214104   1.754   5.452   1.866 -0.9238 -2.0908 -1.2862
 3593SOL    HW314105   1.647   5.530   1.793  0.1194  0.5036 -0.1642
 3593SOL    MW414106   1.683   5.502   1.867  0.2315  0.0125 -0.3654
 3594SOL     OW14107   0.221   1.714   6.002 -0.0290  0.2036  0.2519
 3594SOL    HW214108   0.166   1.637   5.987  0.7234 -0.2722 -0.1284
 3594SOL    HW314109   0.296   1.702   5.945 -0.3021  1.6596 -0.4698
 3594SOL    MW414110   0.224   1.702   5.993  0.9555 -0.7499  0.2155
 3595SOL     OW14111   5.883   3.872   5.405 -0.1929  0.3680  0.3329
 3595SOL    HW214112   5.867   3.958   5.443  2.1652  1.0145  0.0531
 3595SOL    HW314113   5.840   3.875   5.319 -0.2480  1.2252  0.3845
 3595SOL    MW414114   5.875   3.883   5.399  0.6620  0.5952  0.1674
 3596SOL     OW14115   4.731   3.673   6.290  0.5193  0.5285  0.4149
 3596SOL    HW214116   4.742   3.726   6.369 -0.0087 -0.4724  1.1772
 3596SOL    HW314117   4.675   3.727   6.233 -0.8000  0.4306  1.5670
 3596SOL    MW414118   4.725   3.687   6.293  0.1338  0.1735  0.5065
 3597SOL     OW14119   1.958   4.497   4.614  0.1170 -0.0672 -0.4052
 3597SOL    HW214120   2.035   4.551   4.600  0.5273 -0.2305  1.0521
 3597SOL    HW314121   1.989   4.423   4.666 -1.3137  0.7491  1.7466
 3597SOL    MW414122   1.972   4.494   4.619  0.3348  0.6147 -0.5017
 3598SOL     OW14123   5.515   0.523   5.133  0.3419 -0.0977  0.0278
 3598SOL    HW214124   5.445   0.470   5.171  0.3153  0.2438  0.4740
 3598SOL    HW314125   5.480   0.612   5.133  0.6733  0.0342  0.0026
 3598SOL    MW414126   5.501   0.528   5.138 -0.2250 -0.2998 -0.4990
 3599SOL     OW14127   6.339   5.462   2.717  0.1351  0.0687 -0.1874
 3599SOL    HW214128   6.317   5.508   2.636  1.1148 -2.8624 -2.3103
 3599SOL    HW314129   6.276   5.390   2.721 -0.0927  0.3174  1.9202
 3599SOL    MW414130   6.328   5.459   2.707  0.6734  0.1326  0.6027
 3600SOL     OW14131   0.370   3.557   2.254  0.3663 -0.7870  0.4844
 3600SOL    HW214132   0.433   3.591   2.191 -1.4997 -0.9105 -1.5789
 3600SOL    HW314133   0.362   3.627   2.319 -0.5466  1.2020 -1.6066
 3600SOL    MW414134   0.377   3.571   2.254  0.1018  0.0965  0.2323
 3601SOL     OW14135   3.086   2.850   4.491 -0.2005 -0.0578 -0.1929
 3601SOL    HW214136   3.153   2.807   4.438  2.3108  1.3028  1.6643
 3601SOL    HW314137   3.071   2.934   4.446  0.9766  0.5372  0.4578
 3601SOL    MW414138   3.093   2.856   4.478 -0.9315 -0.3181  0.1538
 3602SOL     OW14139   3.610   2.456   4.399  0.6033  0.2509 -0.3274
 3602SOL    HW214140   3.562   2.402   4.336 -0.2971 -0.1370  0.6486
 3602SOL    HW314141   3.671   2.396   4.441 -0.4633 -0.0803  0.8250
 3602SOL    MW414142   3.612   2.441   4.396 -0.2381  0.1402 -0.4649
 3603SOL     OW14143   3.892   2.195   1.172 -0.5918  0.0316  0.8038
 3603SOL    HW214144   3.797   2.191   1.167 -0.6773  0.0049  2.0986
 3603SOL    HW314145   3.910   2.233   1.258  0.5816 -1.0026  1.0431
 3603SOL    MW414146   3.882   2.199   1.183  0.7821 -0.5373 -0.3590
 3604SOL     OW14147   1.071   5.884   3.434  0.0436  0.1278 -0.3028
 3604SOL    HW214148   1.080   5.833   3.354  1.3102  1.0991 -0.8219
 3604SOL    HW314149   0.978   5.910   3.436 -0.0583 -0.1318 -1.3184
 3604SOL    MW414150   1.060   5.881   3.424 -0.1990  0.0317 -0.7627
 3605SOL     OW14151   2.092   2.684   1.964 -0.0308 -0.0553 -0.6622
 3605SOL    HW214152   2.183   2.712   1.978 -0.4903  1.1124  0.1753
 3605SOL    HW314153   2.085   2.670   1.870  1.0396 -0.2616 -0.7227
 3605SOL    MW414154   2.103   2.686   1.954 -0.4415 -0.1346  0.5661
 3606SOL     OW14155   2.168   3.640   2.843 -0.0333 -0.1119  0.2544
 3606SOL    HW214156   2.093   3.592   2.878  0.4464  0.6556  2.4372
 3606SOL    HW314157   2.240   3.576   2.844 -0.6008 -0.9165 -2.0456
 3606SOL    MW414158   2.168   3.625   2.847  0.2344 -0.4242  0.5326
 3607SOL     OW14159   1.744   1.740   5.836  0.5161 -0.4261  0.2620
 3607SOL    HW214160   1.787   1.736   5.921  2.6872  1.2438 -0.6488
 3607SOL    HW314161   1.750   1.651   5.802  4.6348 -0.1185 -0.3249
 3607SOL    MW414162   1.750   1.728   5.843  0.4313 -0.1336  0.6886
 3608SOL     OW14163   0.469   2.768   3.801 -0.3215  0.2857 -0.6235
 3608SOL    HW214164   0.557   2.760   3.836 -0.9176  0.4195  0.9756
 3608SOL    HW314165   0.418   2.808   3.872 -2.2321 -2.0991 -0.5320
 3608SOL    MW414166   0.474   2.772   3.815  0.5518  0.0899  0.2854
 3609SOL     OW14167   6.099   4.796   2.721  0.0364  0.7187 -0.0056
 3609SOL    HW214168   6.162   4.832   2.783 -0.1783 -0.2158  0.7692
 3609SOL    HW314169   6.062   4.720   2.765 -0.5724  0.3962 -1.0370
 3609SOL    MW414170   6.103   4.791   2.735 -0.1584  0.3341 -0.3876
 3610SOL     OW14171   5.251   1.722   0.055  0.0531  0.2152  0.0578
 3610SOL    HW214172   5.336   1.721   0.098  0.2486  1.0160 -0.2746
 3610SOL    HW314173   5.260   1.790  -0.013 -1.1745  1.0720  0.7097
 3610SOL    MW414174   5.264   1.731   0.051  0.1649  0.2496 -0.0959
 3611SOL     OW14175   0.254   3.353   1.565  0.5495 -0.3276  1.0692
 3611SOL    HW214176   0.215   3.365   1.652  1.4113 -1.7933  1.6905
 3611SOL    HW314177   0.182   3.320   1.511  0.1999 -0.1340  1.4086
 3611SOL    MW414178   0.240   3.351   1.570 -0.4398 -0.2490  0.2127
 3612SOL     OW14179   0.414   2.651   2.127  0.4570  0.4805 -0.4425
 3612SOL    HW214180   0.473   2.724   2.107 -0.6308  1.2740 -0.8431
 3612SOL    HW314181   0.424   2.637   2.221  2.2910 -0.3262 -0.7037
 3612SOL    MW414182   0.423   2.659   2.137 -0.0140  0.4756  0.4400
 3613SOL     OW14183   2.913   0.978   6.263 -0.0385  0.2227  0.6576
 3613SOL    HW214184   2.966   1.041   6.214 -0.4705  0.8857  1.0265
 3613SOL    HW314185   2.973   0.907   6.285  0.8023  1.1323  1.3971
 3613SOL    MW414186   2.928   0.977   6.259  0.5891  0.3741 -0.5095
 3614SOL     OW14187   0.979   4.468   5.799 -0.0261  0.2118 -0.7020
 3614SOL    HW214188   0.947   4.433   5.882  0.9497  0.3905 -0.2307
 3614SOL    HW314189   0.952   4.560   5.799  0.6440  0.4227 -0.2015
 3614SOL    MW414190   0.971   4.476   5.810  0.1270  0.4458 -0.3452
 3615SOL     OW14191   5.933   4.864   0.181 -0.3700 -0.3653  0.0547
 3615SOL    HW214192   5.996   4.800   0.215 -0.6034 -0.3674  0.4885
 3615SOL    HW314193   5.933   4.934   0.246 -0.9658 -0.4596  0.1593
 3615SOL    MW414194   5.941   4.865   0.194  0.0941  0.5506 -0.2157
 3616SOL     OW14195   3.737   1.636   0.721 -0.5456 -0.2669 -0.3656
 3616SOL    HW214196   3.771   1.722   0.748  0.2605 -0.1436 -1.6722
 3616SOL    HW314197   3.798   1.573   0.759 -0.0847 -0.1489 -0.8820
 3616SOL    MW414198   3.750   1.639   0.729 -0.4408 -1.0765 -0.6043
 3617SOL     OW14199   4.702   5.858   1.130 -0.2478  0.0946 -0.0275
 3617SOL    HW214200   4.713   5.810   1.048 -0.2773  0.8969 -0.5037
 3617SOL    HW314201   4.699   5.790   1.197 -0.5866 -0.5870 -0.7236
 3617SOL    MW414202   4.703   5.843   1.128  0.0578  0.0763  0.2359
 3618SOL     OW14203   3.166   5.589   2.816 -0.2078  0.0018 -0.1287
 3618SOL    HW214204   3.162   5.675   2.773 -0.9027 -0.7997 -1.7432
 3618SOL    HW314205   3.155   5.609   2.909  0.2036  1.7073 -0.4050
 3618SOL    MW414206   3.164   5.603   2.823 -0.2403 -0.2008 -0.7206
 3619SOL     OW14207   2.244   5.470   2.604 -0.3953 -0.0073 -0.2363
 3619SOL    HW214208   2.187   5.528   2.554  0.1912 -0.0593 -0.9835
 3619SOL    HW314209   2.264   5.518   2.684 -0.4748  0.5369 -0.5421
 3619SOL    MW414210   2.239   5.484   2.608 -0.0332  0.3354 -0.0055
 3620SOL     OW14211   4.844   0.707   2.723 -0.4391 -0.2952  0.1604
 3620SOL    HW214212   4.835   0.802   2.713 -0.2517 -0.2297  0.5821
 3620SOL    HW314213   4.926   0.696   2.770  0.3110 -0.7486 -1.2131
 3620SOL    MW414214   4.853   0.718   2.728  0.1767  0.2539  0.1347
 3621SOL     OW14215   0.463   2.108   4.968  0.5912  0.1540  0.5040
 3621SOL    HW214216   0.475   2.052   5.044 -0.4980  0.4801  0.9444
 3621SOL    HW314217   0.490   2.055   4.894  0.0628 -0.7798  0.9608
 3621SOL    MW414218   0.468   2.094   4.969  0.1239  0.5773  0.5951
 3622SOL     OW14219   1.033   5.662   5.581 -0.3283  0.7068  0.1571
 3622SOL    HW214220   1.056   5.603   5.652 -2.9651 -0.4815  0.1649
 3622SOL    HW314221   0.945   5.634   5.554 -0.6239  2.9872 -1.6123
 3622SOL    MW414222   1.024   5.651   5.587  0.4791 -0.9692  0.3875
 3623SOL     OW14223   0.159   6.270   4.049 -0.6191  0.1892  0.0782
 3623SOL    HW214224   0.094   6.284   3.981 -1.7931 -0.9962  0.9063
 3623SOL    HW314225   0.203   6.189   4.025 -0.5806  0.1196  0.3747
 3623SOL    MW414226   0.157   6.261   4.037  0.4377  0.7672  0.4325
 3624SOL     OW14227   4.963   5.814   1.996 -0.4839  0.1570  0.3030
 3624SOL    HW214228   4.896   5.836   1.930 -0.1805 -0.0617 -0.0797
 3624SOL    HW314229   5.027   5.761   1.949 -0.5583 -0.4902  0.9191
 3624SOL    MW414230   4.962   5.810   1.981 -0.4892  0.0544 -0.1168
 3625SOL     OW14231   4.454   4.200   4.588  0.1086 -0.0586  0.1441
 3625SOL    HW214232   4.445   4.127   4.525 -0.6031  0.1078  0.0494
 3625SOL    HW314233   4.514   4.260   4.545  0.2212 -0.3042 -0.0476
 3625SOL    MW414234   4.461   4.198   4.574  1.2257  0.1256 -0.5518
 3626SOL     OW14235   1.840   3.605   4.010 -0.0537  0.5874  0.1666
 3626SOL    HW214236   1.849   3.515   3.980 -0.7423  0.8248 -0.8512
 3626SOL    HW314237   1.885   3.657   3.943  2.0932  0.9002  1.7745
 3626SOL    MW414238   1.847   3.600   3.997 -0.8407 -0.3333  0.1530
 3627SOL     OW14239   2.274   4.805   5.282  0.2497 -0.0852  0.4191
 3627SOL    HW214240   2.197   4.751   5.299 -0.7729  1.0259 -0.5158
 3627SOL    HW314241   2.302   4.835   5.368 -0.9723  0.2843  0.7050
 3627SOL    MW414242   2.268   4.802   5.296 -0.5078  0.0751 -0.2071
 3628SOL     OW14243   1.244   2.976   5.779  0.0957  0.0574  0.2632
 3628SOL    HW214244   1.314   3.007   5.722 -0.9199  2.0666  0.0222
 3628SOL    HW314245   1.166   2.971   5.723 -0.8404  1.7220  1.3184
 3628SOL    MW414246   1.243   2.979   5.764 -0.0441  0.0445  0.7515
 3629SOL     OW14247   5.155   5.922   0.346  0.6678  0.4833 -0.5511
 3629SOL    HW214248   5.072   5.881   0.369  0.9253 -0.2150 -0.8211
 3629SOL    HW314249   5.138   6.016   0.350  0.4620  0.3976  1.6325
 3629SOL    MW414250   5.142   5.929   0.350  0.5742  0.2479  0.0402
 3630SOL     OW14251   3.584   3.283   2.241 -0.3597  0.7626  0.0046
 3630SOL    HW214252   3.501   3.236   2.236 -0.4992  1.0642 -0.6019
 3630SOL    HW314253   3.588   3.335   2.161  1.1207 -0.4142 -0.7365
 3630SOL    MW414254   3.574   3.284   2.230  0.0145 -0.6034  0.8510
 3631SOL     OW14255   2.611   0.948   4.493  0.1582  0.4305 -0.8748
 3631SOL    HW214256   2.666   0.953   4.571 -0.0058  0.6432 -0.7708
 3631SOL    HW314257   2.570   0.862   4.498  2.8407 -1.0550 -2.5632
 3631SOL    MW414258   2.613   0.938   4.504  0.0056  0.2213  0.0320
 3632SOL     OW14259   1.536   3.039   5.356  0.2190 -0.3053 -0.4609
 3632SOL    HW214260   1.555   3.105   5.424 -1.2857  0.8073 -1.0519
 3632SOL    HW314261   1.441   3.029   5.359  0.0629  0.0688 -2.6584
 3632SOL    MW414262   1.526   3.047   5.366 -0.2025 -0.5090  0.1041
 3633SOL     OW14263   5.127   3.919   2.878  0.1093  0.0885  0.7934
 3633SOL    HW214264   5.036   3.892   2.888 -0.0307  0.3626  0.2719
 3633SOL    HW314265   5.177   3.841   2.902 -0.3036 -0.8748 -1.2721
 3633SOL    MW414266   5.122   3.905   2.883  0.0119  0.4846  0.3280
 3634SOL     OW14267   5.707   4.523   4.558 -0.1820 -0.5336 -0.0279
 3634SOL    HW214268   5.688   4.499   4.467 -0.6187 -0.3741  0.0159
 3634SOL    HW314269   5.784   4.579   4.553  0.0445 -0.8625 -0.2598
 3634SOL    MW414270   5.714   4.527   4.545 -0.3507 -0.1272  0.7731
 3635SOL     OW14271   2.643   0.053   1.382 -0.0307 -0.4963  0.5795
 3635SOL    HW214272   2.648   0.037   1.476 -0.7773 -0.7054  0.5823
 3635SOL    HW314273   2.552   0.037   1.359  0.2391 -0.8665 -0.2570
 3635SOL    MW414274   2.632   0.049   1.391 -0.1700 -0.3435  0.5225
 3636SOL     OW14275   3.420   2.325   3.217  0.0979 -0.2062 -0.4372
 3636SOL    HW214276   3.423   2.284   3.131 -0.4113 -0.1884 -0.4645
 3636SOL    HW314277   3.466   2.264   3.274 -1.0397 -1.0451 -0.3836
 3636SOL    MW414278   3.427   2.312   3.213 -0.4425  0.2239  0.0100
 3637SOL     OW14279   2.764   1.284   2.278  0.1834 -0.0285 -0.1609
 3637SOL    HW214280   2.829   1.224   2.315  1.5874  3.2218  3.3822
 3637SOL    HW314281   2.681   1.258   2.317  0.2807 -1.1008 -0.6444
 3637SOL    MW414282   2.762   1.273   2.288 -0.4644 -0.4370  0.3549
 3638SOL     OW14283   1.623   2.584   3.778  1.2373 -0.1005 -0.4550
 3638SOL    HW214284   1.715   2.607   3.766  1.3186 -1.5019 -3.6485
 3638SOL    HW314285   1.614   2.498   3.737 -1.7627  0.6615 -1.6929
 3638SOL    MW414286   1.634   2.575   3.771  0.0813  0.4306 -0.4557
 3639SOL     OW14287   2.516   0.836   2.618 -0.2872  0.5743 -0.0129
 3639SOL    HW214288   2.459   0.895   2.667  1.2607  2.1723 -0.0391
 3639SOL    HW314289   2.598   0.834   2.667  0.3050 -0.1294 -0.9768
 3639SOL    MW414290   2.520   0.844   2.631  0.1539 -0.7454 -0.2462
 3640SOL     OW14291   2.121   3.352   6.120 -0.0714  0.1278  0.1786
 3640SOL    HW214292   2.103   3.336   6.213 -1.3767  2.9279  0.5428
 3640SOL    HW314293   2.186   3.287   6.096  0.4172 -0.6000  3.1037
 3640SOL    MW414294   2.127   3.342   6.129 -0.6736 -0.6989 -0.2653
 3641SOL     OW14295   3.671   3.805   6.003  0.4545  0.4585  0.5357
 3641SOL    HW214296   3.639   3.875   6.060  0.5918 -0.3043  1.5767
 3641SOL    HW314297   3.723   3.851   5.937 -1.2087  1.5404 -0.1041
 3641SOL    MW414298   3.674   3.820   6.002  0.3836  0.3492  0.1401
 3642SOL     OW14299   5.440   2.195   1.124 -0.0652 -0.2763 -0.2834
 3642SOL    HW214300   5.467   2.133   1.191  0.0158  2.5194  2.5177
 3642SOL    HW314301   5.517   2.248   1.107 -0.3381 -0.3771 -1.9915
 3642SOL    MW414302   5.454   2.194   1.130  0.1901 -0.1428 -0.4322
 3643SOL     OW14303   5.260   0.110   5.635  0.0212  0.0045 -0.2491
 3643SOL    HW214304   5.316   0.186   5.621  0.3451 -0.1648  0.1199
 3643SOL    HW314305   5.319   0.035   5.625  0.2964 -0.1387  2.0740
 3643SOL    MW414306   5.275   0.110   5.632 -0.4466 -0.1823 -0.9226
 3644SOL     OW14307   1.076   5.001   0.654 -0.0488  0.0236  0.5288
 3644SOL    HW214308   1.025   4.925   0.680  1.6699 -1.1730  0.5631
 3644SOL    HW314309   1.129   5.022   0.731 -0.1150  0.9495  0.3403
 3644SOL    MW414310   1.076   4.994   0.667 -0.2463 -0.4281  0.2323
 3645SOL     OW14311   4.816   1.291   3.792 -0.4963 -0.3203 -0.5499
 3645SOL    HW214312   4.859   1.272   3.708  1.6308 -0.4721  0.5058
 3645SOL    HW314313   4.815   1.387   3.797  0.7035 -0.3153 -0.1361
 3645SOL    MW414314   4.822   1.301   3.782  0.4433 -0.0804 -0.5410
 3646SOL     OW14315   4.541   3.845   3.587 -0.4496  0.1945 -0.4621
 3646SOL    HW214316   4.620   3.893   3.610 -0.6972  0.5819 -0.4063
 3646SOL    HW314317   4.520   3.874   3.498  0.3536 -1.0957 -1.1221
 3646SOL    MW414318   4.548   3.855   3.578  0.6224 -0.5114  0.2907
 3647SOL     OW14319   2.334   1.734   3.819 -0.4180  0.4960  0.0791
 3647SOL    HW214320   2.285   1.653   3.834  0.7147 -0.2268  0.0133
 3647SOL    HW314321   2.311   1.790   3.893 -0.7598 -0.1069  0.4410
 3647SOL    MW414322   2.324   1.731   3.831  0.6362 -0.0448  0.6640
 3648SOL     OW14323   4.860   3.741   2.208  0.1091 -0.0105  0.0012
 3648SOL    HW214324   4.945   3.727   2.167 -1.1121 -3.0075 -1.8326
 3648SOL    HW314325   4.815   3.801   2.149  0.1807 -0.1504 -0.1961
 3648SOL    MW414326   4.865   3.747   2.195 -0.1374 -0.2582  0.2719
 3649SOL     OW14327   0.887   1.523   2.588 -0.4337  0.1466  0.6921
 3649SOL    HW214328   0.809   1.572   2.563 -0.4629  0.6725  1.7711
 3649SOL    HW314329   0.959   1.584   2.573 -0.3539  0.0965  0.8680
 3649SOL    MW414330   0.886   1.538   2.583 -0.4451  0.2312 -0.6678
 3650SOL     OW14331   1.052   0.502   5.232  0.1379  0.7334  0.1710
 3650SOL    HW214332   1.097   0.537   5.308  0.9273  1.2749 -0.5265
 3650SOL    HW314333   1.121   0.464   5.178 -0.2401  1.4216 -0.8298
 3650SOL    MW414334   1.067   0.502   5.235  0.0229  0.0159  0.2864
 3651SOL     OW14335   5.622   4.066   4.618  0.0052 -0.3796 -0.2106
 3651SOL    HW214336   5.701   4.109   4.652  0.1131 -0.7931  0.0656
 3651SOL    HW314337   5.569   4.138   4.584  0.7830 -0.1481 -0.9856
 3651SOL    MW414338   5.626   4.081   4.618 -0.3042  0.3391 -0.0361
 3652SOL     OW14339   6.203   1.042   0.999 -0.7126 -0.0574 -0.4807
 3652SOL    HW214340   6.144   1.110   1.031  1.1637  0.3480  2.4604
 3652SOL    HW314341   6.280   1.090   0.967  0.1509 -0.6846  0.5609
 3652SOL    MW414342   6.206   1.057   0.999  0.3526 -0.1401  0.3063
 3653SOL     OW14343   4.617   6.117   3.967  0.1914  0.7500 -0.1184
 3653SOL    HW214344   4.580   6.089   4.051  0.0519  1.0071 -0.0935
 3653SOL    HW314345   4.557   6.082   3.901  0.6164  0.0407 -0.1471
 3653SOL    MW414346   4.604   6.109   3.970 -0.1747  0.3131  0.8470
 3654SOL     OW14347   0.672   3.834   4.255 -0.2871 -0.1251 -0.5506
 3654SOL    HW214348   0.642   3.811   4.167 -2.5080 -0.1588  0.1561
 3654SOL    HW314349   0.708   3.753   4.291 -0.5192 -0.4204 -0.9822
 3654SOL    MW414350   0.673   3.820   4.248 -0.4058  0.6811 -0.3483
 3655SOL     OW14351   1.945   0.204   0.904 -0.6221  0.0529 -0.0643
 3655SOL    HW214352   1.885   0.172   0.836  0.8327 -0.3315 -1.2192
 3655SOL    HW314353   1.960   0.128   0.961 -0.4211 -0.1521 -0.3871
 3655SOL    MW414354   1.939   0.189   0.903 -0.1483 -0.5192  0.2137
 3656SOL     OW14355   2.673   5.137   5.474 -0.3998  0.8550  0.6842
 3656SOL    HW214356   2.662   5.049   5.437  1.4891  0.8331  0.0534
 3656SOL    HW314357   2.728   5.183   5.410 -0.7299  2.2715  1.3743
 3656SOL    MW414358   2.679   5.132   5.461  0.1721 -0.4586 -0.6663
 3657SOL     OW14359   0.026   1.337   5.590  0.0925 -0.0650 -0.0230
 3657SOL    HW214360  -0.012   1.357   5.504 -1.1481  1.9758  0.9085
 3657SOL    HW314361   0.007   1.415   5.642  1.4283 -0.9719  1.9178
 3657SOL    MW414362   0.019   1.350   5.585  0.0894  0.5287 -0.1747
 3658SOL     OW14363   1.439   2.555   1.166  0.3394 -0.0835 -0.0696
 3658SOL    HW214364   1.380   2.630   1.174 -1.2040 -1.2389 -0.1185
 3658SOL    HW314365   1.448   2.522   1.255 -1.4652 -1.6011 -0.3777
 3658SOL    MW414366   1.433   2.560   1.179  0.6782  0.2790  0.4022
 3659SOL     OW14367   0.160   4.746   1.148  0.0101 -0.0569 -0.9497
 3659SOL    HW214368   0.138   4.737   1.241  1.8216  0.5459 -0.4183
 3659SOL    HW314369   0.206   4.665   1.127 -2.3718 -1.2245 -1.9912
 3659SOL    MW414370   0.163   4.734   1.157  0.1502  0.0040  0.3255
 3660SOL     OW14371   1.202   0.337   4.093 -0.2169  0.1368 -0.2335
 3660SOL    HW214372   1.255   0.288   4.029 -2.3292 -2.5451 -0.1415
 3660SOL    HW314373   1.243   0.319   4.177 -0.1578 -0.3253 -0.3586
 3660SOL    MW414374   1.214   0.328   4.095 -0.2402 -0.7724  0.1509
 3661SOL     OW14375   3.324   1.857   4.247 -0.0399 -0.2336  0.0914
 3661SOL    HW214376   3.291   1.883   4.333  1.1311 -0.0007  0.4865
 3661SOL    HW314377   3.357   1.768   4.259  0.0549 -0.2303 -0.1303
 3661SOL    MW414378   3.324   1.849   4.260  0.2333  0.0601  0.3196
 3662SOL     OW14379   6.057   4.185   6.403 -0.1294  0.0495  0.2780
 3662SOL    HW214380   6.077   4.235   6.482  1.4041 -0.3376  0.1551
 3662SOL    HW314381   6.133   4.196   6.346 -0.2532 -1.4574 -0.2360
 3662SOL    MW414382   6.070   4.193   6.406  0.1039  0.2258  0.2494
 3663SOL     OW14383   3.891   2.635   4.515  0.1631  0.6869 -0.2786
 3663SOL    HW214384   3.847   2.586   4.585 -1.0836  0.8749 -0.9098
 3663SOL    HW314385   3.924   2.568   4.456 -0.9158  0.5682 -0.7658
 3663SOL    MW414386   3.889   2.620   4.517  0.0654 -0.3606 -0.2119
 3664SOL     OW14387   3.140   5.862   5.186  0.0639 -0.1244 -0.0852
 3664SOL    HW214388   3.065   5.864   5.246 -0.3430  2.6465 -0.5500
 3664SOL    HW314389   3.135   5.944   5.138  1.8101 -1.1412 -2.1954
 3664SOL    MW414390   3.130   5.873   5.188 -0.0795 -0.0126 -0.5750
 3665SOL     OW14391   5.333   1.269   2.184  0.6784 -0.6225 -0.4223
 3665SOL    HW214392   5.364   1.251   2.095  1.2391 -3.4645  0.2561
 3665SOL    HW314393   5.411   1.298   2.231  0.3122  1.2290 -0.8705
 3665SOL    MW414394   5.347   1.271   2.179 -0.4714  0.3772 -0.6661
 3666SOL     OW14395   5.807   1.132   1.216  0.2087  0.1189 -0.5791
 3666SOL    HW214396   5.816   1.123   1.310 -1.3874  2.6191 -0.0885
 3666SOL    HW314397   5.745   1.065   1.190  0.0044 -0.0270  0.2898
 3666SOL    MW414398   5.800   1.122   1.225 -0.0048  0.2962 -0.3528
 3667SOL     OW14399   2.378   5.759   3.869  0.5289 -0.2308 -0.2413
 3667SOL    HW214400   2.334   5.726   3.947  2.0960  0.8446  1.1600
 3667SOL    HW314401   2.456   5.704   3.860  1.7211  1.2332  0.5361
 3667SOL    MW414402   2.383   5.748   3.878 -0.0492 -0.1684  0.0882
 3668SOL     OW14403   5.150   6.086   3.038 -0.0223  0.2435 -0.1905
 3668SOL    HW214404   5.139   6.075   3.133  0.3950  0.3366 -0.1312
 3668SOL    HW314405   5.219   6.152   3.029 -0.5047  0.7029 -0.5608
 3668SOL    MW414406   5.158   6.093   3.049 -0.5818  0.2871  1.0908
 3669SOL     OW14407   1.669   2.382   3.999  0.2638  0.2357 -0.2221
 3669SOL    HW214408   1.651   2.351   3.910 -0.3448  3.5715 -1.3745
 3669SOL    HW314409   1.755   2.424   3.994 -0.5712  2.0821  0.2659
 3669SOL    MW414410   1.678   2.383   3.987 -0.7686 -0.0186  0.0175
 3670SOL     OW14411   4.778   3.420   2.772 -0.7412  0.3926 -0.3759
 3670SOL    HW214412   4.826   3.496   2.741  1.1997 -0.8916 -0.6399
 3670SOL    HW314413   4.771   3.363   2.695  0.8539 -1.1727  0.5783
 3670SOL    MW414414   4.783   3.423   2.758  0.0276 -0.5252  0.1362
 3671SOL     OW14415   3.426   5.432   0.562  0.4378 -0.0119  0.0369
 3671SOL    HW214416   3.501   5.448   0.620  0.4305 -1.6435  0.5360
 3671SOL    HW314417   3.453   5.358   0.508 -0.6932 -0.4170  0.0137
 3671SOL    MW414418   3.440   5.424   0.563 -0.1524  0.0601  0.1294
 3672SOL     OW14419   0.879   0.751   0.779 -0.2651  0.0216  0.0348
 3672SOL    HW214420   0.912   0.682   0.722 -2.1626 -1.0641  0.1379
 3672SOL    HW314421   0.882   0.713   0.867 -0.3749  0.4497  0.2281
 3672SOL    MW414422   0.884   0.737   0.783  0.0521 -0.1432 -0.6508
 3673SOL     OW14423   1.199   2.463   2.997 -0.4566  0.0609 -1.1419
 3673SOL    HW214424   1.128   2.524   2.976 -1.1274 -0.8504 -1.5964
 3673SOL    HW314425   1.179   2.433   3.086  0.6620  1.5487 -0.3407
 3673SOL    MW414426   1.187   2.467   3.006 -0.1991  0.8407  0.1541
 3674SOL     OW14427   4.737   0.180   1.643  0.4073  0.6474 -0.1137
 3674SOL    HW214428   4.692   0.136   1.571  2.4022 -0.3674 -0.8203
 3674SOL    HW314429   4.709   0.134   1.722  0.2182  0.0312 -0.5389
 3674SOL    MW414430   4.728   0.168   1.644 -0.1214  0.2039  0.4108
 3675SOL     OW14431   2.694   5.357   1.684  0.1904  0.1166 -0.4203
 3675SOL    HW214432   2.788   5.356   1.670  0.2343 -0.1303 -0.1028
 3675SOL    HW314433   2.683   5.343   1.778 -0.0684  2.6294 -0.0046
 3675SOL    MW414434   2.705   5.355   1.695 -0.5582  0.5240  0.4628
 3676SOL     OW14435   4.083   6.335   5.390  0.2186  0.3776  0.6038
 3676SOL    HW214436   4.005   6.358   5.340  1.3319  2.0507 -0.4759
 3676SOL    HW314437   4.120   6.420   5.416  1.0632 -0.4064  2.0769
 3676SOL    MW414438   4.078   6.349   5.387  0.3111 -0.1260  0.6239
 3677SOL     OW14439   3.756   4.881   0.408  0.5155 -0.3931  0.3270
 3677SOL    HW214440   3.742   4.795   0.368  0.0560 -0.3478  0.3787
 3677SOL    HW314441   3.837   4.872   0.457 -0.5669 -1.4507  2.0512
 3677SOL    MW414442   3.765   4.869   0.410 -0.1655 -0.2581  0.2007
 3678SOL     OW14443   3.592   4.303   4.696  0.4957  0.3922 -0.3428
 3678SOL    HW214444   3.657   4.247   4.738  0.5253 -1.0685 -2.2173
 3678SOL    HW314445   3.635   4.334   4.616  0.1419  2.3873  0.1897
 3678SOL    MW414446   3.606   4.300   4.691 -0.4234  0.0939  0.5540
 3679SOL     OW14447   2.014   1.030   1.526  0.3117  0.6796  0.5606
 3679SOL    HW214448   2.105   1.001   1.535  0.7089  0.1429 -3.4555
 3679SOL    HW314449   2.012   1.078   1.443 -3.1586  0.3087  0.2976
 3679SOL    MW414450   2.026   1.033   1.516  0.3913 -0.4438 -0.5764
 3680SOL     OW14451   3.352   3.435   0.181 -0.0107 -0.0343  0.7494
 3680SOL    HW214452   3.264   3.424   0.143 -0.1631  1.8318  0.4694
 3680SOL    HW314453   3.411   3.403   0.113 -0.4006  0.8398 -0.0287
 3680SOL    MW414454   3.348   3.430   0.167  0.0852  0.2176 -0.3479
 3681SOL     OW14455   3.727   0.509   0.122  0.4107  0.0864  0.8870
 3681SOL    HW214456   3.697   0.436   0.176  1.8739 -0.8838  0.4344
 3681SOL    HW314457   3.822   0.507   0.128  0.6111  0.2705 -1.2838
 3681SOL    MW414458   3.735   0.499   0.130 -0.4842  0.3588  0.1932
 3682SOL     OW14459   0.875   0.860   4.727 -0.4339 -0.3809  0.0384
 3682SOL    HW214460   0.829   0.936   4.763  1.4715  0.6151  0.4836
 3682SOL    HW314461   0.950   0.897   4.681  0.1959 -1.9844 -0.2809
 3682SOL    MW414462   0.879   0.875   4.725 -0.2379 -0.2588  0.5720
 3683SOL     OW14463   3.956   2.831   3.068  0.5313  0.0151  0.1438
 3683SOL    HW214464   3.982   2.790   2.986  2.1214 -0.5571  0.8705
 3683SOL    HW314465   4.036   2.876   3.098 -0.7399  2.4330  0.1113
 3683SOL    MW414466   3.970   2.831   3.061  0.3661  0.0432 -0.1764
 3684SOL     OW14467   4.615   3.004   2.060 -0.4531 -0.2725  0.5333
 3684SOL    HW214468   4.698   2.963   2.035  0.3445  1.2622  0.5233
 3684SOL    HW314469   4.640   3.072   2.123 -1.7286  0.0717  0.6941
 3684SOL    MW414470   4.629   3.008   2.065  0.4479  0.3686 -0.3402
 3685SOL     OW14471   0.634   4.824   2.346 -0.0182 -0.0408 -0.3533
 3685SOL    HW214472   0.586   4.886   2.291  0.5091  2.6434  1.9834
 3685SOL    HW314473   0.725   4.853   2.340  0.3322 -0.9303  0.4016
 3685SOL    MW414474   0.640   4.836   2.338  0.6625  0.4964  0.0490
 3686SOL     OW14475   1.896   5.548   3.666 -0.0764 -0.1152  0.6265
 3686SOL    HW214476   1.872   5.637   3.692 -0.3091 -0.3218  1.1311
 3686SOL    HW314477   1.986   5.537   3.698  0.2629  0.2195 -0.1642
 3686SOL    MW414478   1.905   5.558   3.674 -0.3882 -0.2612 -0.4889
 3687SOL     OW14479   4.524   1.201   5.619 -0.1010 -0.8130 -0.2896
 3687SOL    HW214480   4.486   1.277   5.662  0.4313 -0.2470 -0.7914
 3687SOL    HW314481   4.502   1.211   5.527  1.6949 -0.1577 -0.6978
 3687SOL    MW414482   4.516   1.212   5.613  0.1432 -0.4056  0.3209
 3688SOL     OW14483   0.641   2.176   5.815 -0.1788  0.1192  0.4593
 3688SOL    HW214484   0.661   2.269   5.826  1.4570 -0.0977 -0.3747
 3688SOL    HW314485   0.685   2.133   5.888 -1.4755  0.0438  1.2143
 3688SOL    MW414486   0.650   2.183   5.826 -0.3345  0.1746  0.6828
 3689SOL     OW14487   4.863   0.214   6.427  0.2033 -0.3047 -0.1961
 3689SOL    HW214488   4.927   0.161   6.474  1.1968  1.0013  0.0015
 3689SOL    HW314489   4.916   0.273   6.373 -0.8692 -0.0360 -0.9898
 3689SOL    MW414490   4.879   0.215   6.426  0.7942  0.8434 -0.4958
 3690SOL     OW14491   4.102   3.315   5.300 -0.0644 -0.3598  0.0851
 3690SOL    HW214492   4.190   3.317   5.338 -0.2917 -0.5086  0.6247
 3690SOL    HW314493   4.117   3.323   5.206  0.5114 -0.0789  0.1911
 3690SOL    MW414494   4.116   3.317   5.293  0.4459 -0.0669 -0.2967
 3691SOL     OW14495   5.723   2.288   0.616 -0.2831  0.0733 -0.3815
 3691SOL    HW214496   5.797   2.277   0.677  0.3741 -2.6371 -1.5250
 3691SOL    HW314497   5.655   2.330   0.669  1.8179  2.1504  0.8782
 3691SOL    MW414498   5.724   2.292   0.631  0.6455  0.1679  0.2489
 3692SOL     OW14499   4.357   4.255   1.116  0.3928  0.7984 -0.2285
 3692SOL    HW214500   4.447   4.230   1.135 -0.2131 -0.3020  1.3913
 3692SOL    HW314501   4.331   4.198   1.043  0.9568  1.0432 -0.6284
 3692SOL    MW414502   4.366   4.244   1.109  0.1236  0.2267  0.5178
 3693SOL     OW14503   4.047   5.586   5.766 -0.3234  0.4665 -0.1083
 3693SOL    HW214504   3.972   5.571   5.709 -0.2179  1.4153 -0.5074
 3693SOL    HW314505   4.012   5.639   5.838 -0.3883 -0.4699  0.5788
 3693SOL    MW414506   4.032   5.591   5.768  0.1811 -0.0880 -0.1715
 3694SOL     OW14507   4.815   3.610   4.235 -0.3964 -0.2394  0.5102
 3694SOL    HW214508   4.802   3.531   4.183 -1.6195 -0.4251  1.0592
 3694SOL    HW314509   4.757   3.599   4.310 -2.2282  2.1052 -0.4416
 3694SOL    MW414510   4.806   3.598   4.238 -0.6167  0.5893  0.0645
 3695SOL     OW14511   5.570   4.812   0.949 -0.1178  1.2829 -0.3250
 3695SOL    HW214512   5.584   4.840   1.039  1.9538 -2.0151  0.5056
 3695SOL    HW314513   5.475   4.803   0.942 -0.2697  0.5382  1.9107
 3695SOL    MW414514   5.559   4.815   0.960  0.0087  0.3811  0.1673
 3696SOL     OW14515   3.173   3.047   0.319 -0.5611 -0.2393 -1.0448
 3696SOL    HW214516   3.147   2.955   0.312  0.1299 -0.5089 -0.1809
 3696SOL    HW314517   3.168   3.067   0.412  0.9144  0.1102 -1.0260
 3696SOL    MW414518   3.169   3.038   0.330  0.0952  0.3283  0.0106
 3697SOL     OW14519   1.444   1.967   3.558  0.3961 -0.2781  0.9130
 3697SOL    HW214520   1.455   1.956   3.463 -1.7466 -0.9694  0.6710
 3697SOL    HW314521   1.496   1.897   3.597  2.2131  0.7078  0.3272
 3697SOL    MW414522   1.452   1.956   3.550  0.4089 -0.1214  0.2785
 3698SOL     OW14523   2.660   0.737   0.482 -0.1037 -0.1097 -0.7265
 3698SOL    HW214524   2.749   0.758   0.453  0.0501  0.6834  0.2772
 3698SOL    HW314525   2.605   0.800   0.436  0.0676  0.6896  0.1463
 3698SOL    MW414526   2.665   0.748   0.472 -0.3939  0.6853 -0.3703
 3699SOL     OW14527   2.772   1.359   6.424 -0.2282 -0.4482 -0.0055
 3699SOL    HW214528   2.823   1.418   6.368 -0.9474  1.3454  1.1561
 3699SOL    HW314529   2.686   1.400   6.430 -1.0741 -2.1519  0.0589
 3699SOL    MW414530   2.768   1.372   6.417 -0.8289 -0.0937  0.4369
 3700SOL     OW14531   6.098   4.187   4.291 -0.4254  0.2344  0.1626
 3700SOL    HW214532   6.042   4.110   4.283 -0.7166  0.1589  2.3190
 3700SOL    HW314533   6.184   4.151   4.314 -0.5519  0.5078  1.1243
 3700SOL    MW414534   6.102   4.172   4.293 -0.0743  0.1941  0.6544
 3701SOL     OW14535   5.036   1.425   5.842  0.2981 -0.2083  0.5280
 3701SOL    HW214536   4.969   1.493   5.837 -1.1064 -1.4701  1.4091
 3701SOL    HW314537   5.118   1.471   5.823 -0.8157  1.3328 -0.8847
 3701SOL    MW414538   5.038   1.440   5.839 -0.2124 -0.6391  0.2139
 3702SOL     OW14539   3.042   0.917   0.188  0.1529 -0.0847  0.1826
 3702SOL    HW214540   3.040   0.859   0.113  0.4435  0.7992 -0.5270
 3702SOL    HW314541   3.105   0.985   0.165 -0.1207  0.4790  1.0153
 3702SOL    MW414542   3.050   0.919   0.175  0.0978  0.4095 -0.2099
 3703SOL     OW14543   5.486   3.525   3.205 -0.2212  0.3273 -0.4577
 3703SOL    HW214544   5.484   3.431   3.224  0.2260  0.9770  3.6367
 3703SOL    HW314545   5.394   3.547   3.190 -0.6660 -0.4059  0.9898
 3703SOL    MW414546   5.473   3.515   3.205 -0.0329  0.9066  0.4241
 3704SOL     OW14547   1.777   6.068   1.100 -0.1363 -0.6231  0.9821
 3704SOL    HW214548   1.855   6.057   1.046  0.0149  2.4983  0.4121
 3704SOL    HW314549   1.796   6.018   1.180  2.8227  0.6512  1.2048
 3704SOL    MW414550   1.790   6.060   1.103 -0.0863  0.4939  0.3050
 3705SOL     OW14551   2.795   5.131   4.500  0.5090  0.6317 -0.0944
 3705SOL    HW214552   2.866   5.170   4.552 -0.2247 -0.2740  1.6651
 3705SOL    HW314553   2.774   5.049   4.545 -2.2641  1.3011  0.0164
 3705SOL    MW414554   2.802   5.126   4.513 -0.1139  0.1600  0.7263
 3706SOL     OW14555   2.759   0.288   1.305 -0.1504  0.6116  0.0099
 3706SOL    HW214556   2.717   0.204   1.326  2.0320 -0.2638  1.2821
 3706SOL    HW314557   2.852   0.269   1.311  0.4277  2.7955 -1.2493
 3706SOL    MW414558   2.766   0.274   1.309  0.4238 -0.1609 -0.5753
 3707SOL     OW14559   3.323   2.425   1.008  0.1038 -0.0146 -0.0468
 3707SOL    HW214560   3.334   2.347   0.952 -1.1053  0.9915 -1.8083
 3707SOL    HW314561   3.398   2.480   0.988  0.0950 -0.0150 -0.0819
 3707SOL    MW414562   3.334   2.422   0.998 -0.2517  0.3013  0.0468
 3708SOL     OW14563   2.785   0.498   4.653 -0.3731  0.1690  0.3452
 3708SOL    HW214564   2.798   0.456   4.568  1.5366  1.8059 -0.2280
 3708SOL    HW314565   2.690   0.501   4.664 -0.6404 -0.5166 -1.4957
 3708SOL    MW414566   2.774   0.493   4.644 -0.4371 -0.1438 -0.4372
 3709SOL     OW14567   1.306   4.544   5.546  0.3871 -0.0399 -0.5668
 3709SOL    HW214568   1.287   4.540   5.452  1.3341  0.6026 -0.7907
 3709SOL    HW314569   1.331   4.454   5.569  0.7087 -0.0760 -1.0497
 3709SOL    MW414570   1.307   4.531   5.537  0.2317  0.0062 -0.1649
 3710SOL     OW14571   5.687   3.480   0.884  0.3781 -0.4584 -0.2769
 3710SOL    HW214572   5.771   3.522   0.906  0.5062 -1.1918  0.6999
 3710SOL    HW314573   5.622   3.548   0.902  0.6117 -0.5481  0.9777
 3710SOL    MW414574   5.690   3.495   0.889  0.1355 -0.3135 -0.1987
 3711SOL     OW14575   4.595   5.822   1.586  0.5111  0.3812  0.3374
 3711SOL    HW214576   4.627   5.768   1.658  1.4038  0.3712 -0.0578
 3711SOL    HW314577   4.517   5.776   1.554  0.8743 -0.3120  0.4380
 3711SOL    MW414578   4.589   5.809   1.591  0.4924  0.3543 -0.5809
 3712SOL     OW14579   4.295   0.029   3.283  0.2409  0.2184 -0.0630
 3712SOL    HW214580   4.317   0.059   3.195  2.4452 -2.3364 -0.4788
 3712SOL    HW314581   4.341   0.089   3.341 -0.2673  1.2067 -0.6545
 3712SOL    MW414582   4.304   0.041   3.279  0.0392  0.3830 -0.2438
 3713SOL     OW14583   0.305   2.323   2.434 -0.2771  0.6881 -0.1572
 3713SOL    HW214584   0.242   2.278   2.490  0.8665  0.4412  0.9788
 3713SOL    HW314585   0.324   2.260   2.364  0.5027 -0.1976  0.8254
 3713SOL    MW414586   0.299   2.309   2.432  0.8383  0.6406  0.0992
 3714SOL     OW14587   0.520   1.361   4.888  0.4717 -0.4265 -0.3025
 3714SOL    HW214588   0.439   1.387   4.932 -0.3567 -0.5527 -1.7060
 3714SOL    HW314589   0.559   1.443   4.858 -0.8210 -0.5449 -2.4610
 3714SOL    MW414590   0.514   1.375   4.890  0.1746 -0.0833  0.7618
 3715SOL     OW14591   3.737   1.877   5.411  0.1276  0.4196 -0.7054
 3715SOL    HW214592   3.673   1.857   5.342 -0.3878  3.9477 -1.4545
 3715SOL    HW314593   3.699   1.842   5.491 -0.4181 -1.6668 -1.8249
 3715SOL    MW414594   3.724   1.870   5.412 -0.3184 -0.1190 -0.6473
 3716SOL     OW14595   0.667   5.829   2.746  0.0989 -0.1076  0.0663
 3716SOL    HW214596   0.598   5.778   2.703  0.5872 -0.6771 -0.0595
 3716SOL    HW314597   0.742   5.823   2.687  0.9535 -1.3504  1.2113
 3716SOL    MW414598   0.668   5.822   2.733 -1.1922  1.1073 -0.7907
 3717SOL     OW14599   5.453   0.820   6.255 -0.3385 -0.5491  0.1211
 3717SOL    HW214600   5.518   0.756   6.284 -1.2883 -2.0210 -0.8803
 3717SOL    HW314601   5.488   0.854   6.172  0.1240  0.2046  0.6096
 3717SOL    MW414602   5.466   0.816   6.248 -0.0583 -0.0071  1.0059
 3718SOL     OW14603   4.155   3.736   2.743 -0.8144 -0.6090  0.4519
 3718SOL    HW214604   4.106   3.769   2.668  0.1216 -1.1559 -0.4231
 3718SOL    HW314605   4.091   3.685   2.793 -2.0191  1.5269  1.2451
 3718SOL    MW414606   4.140   3.734   2.740  0.8051  0.1845 -0.0632
 3719SOL     OW14607   4.935   4.816   2.140 -0.4801 -0.3787 -0.0823
 3719SOL    HW214608   4.987   4.889   2.106 -1.9722  0.9555  0.3690
 3719SOL    HW314609   4.999   4.758   2.181  0.7475  0.7223 -0.3727
 3719SOL    MW414610   4.950   4.818   2.141  0.3842 -0.2769 -0.1965
 3720SOL     OW14611   3.781   2.643   1.815  0.1479 -0.0516  0.4808
 3720SOL    HW214612   3.780   2.551   1.840  0.3446  0.3565  2.1325
 3720SOL    HW314613   3.871   2.671   1.830  0.2168  0.2884 -0.5255
 3720SOL    MW414614   3.793   2.635   1.820 -0.5314 -0.4796 -0.1665
 3721SOL     OW14615   0.888   4.343   2.960  0.5071 -0.4047  0.1818
 3721SOL    HW214616   0.969   4.321   2.914 -0.5558  2.5678 -3.5440
 3721SOL    HW314617   0.911   4.417   3.015  0.2523  0.9901 -1.5189
 3721SOL    MW414618   0.901   4.350   2.961  0.2660 -0.6966  0.1146
 3722SOL     OW14619   4.411   5.431   5.763 -0.0484 -0.1263  0.5154
 3722SOL    HW214620   4.364   5.502   5.806  0.5529  1.4700 -1.3354
 3722SOL    HW314621   4.351   5.399   5.696  0.1957 -0.4431  0.4462
 3722SOL    MW414622   4.397   5.436   5.760 -0.2801  0.1164 -0.1255
 3723SOL     OW14623   4.227   1.207   3.111  0.1168  0.4048 -0.2180
 3723SOL    HW214624   4.165   1.253   3.054 -0.4464  0.2177  0.2414
 3723SOL    HW314625   4.187   1.121   3.126 -0.8782  1.2233  2.2956
 3723SOL    MW414626   4.214   1.202   3.105 -0.5593 -0.0503  0.3293
 3724SOL     OW14627   4.326   1.030   5.700 -0.2885 -0.7106  0.2249
 3724SOL    HW214628   4.398   1.090   5.683  0.2503 -1.6118 -0.7845
 3724SOL    HW314629   4.261   1.083   5.747  0.6085  0.3675  0.2841
 3724SOL    MW414630   4.327   1.045   5.704 -0.1622  0.4053  0.7014
 3725SOL     OW14631   4.053   6.218   2.493  0.1882  0.2756  0.0745
 3725SOL    HW214632   3.960   6.238   2.490  0.1553  0.9107  2.9235
 3725SOL    HW314633   4.096   6.302   2.478  0.4808 -0.3160 -3.2916
 3725SOL    MW414634   4.047   6.231   2.490 -0.2598  0.4887 -0.4776
 3726SOL     OW14635   3.187   0.628   6.055 -0.0137 -0.5061  0.2238
 3726SOL    HW214636   3.161   0.540   6.083  1.6471 -1.1548 -0.1521
 3726SOL    HW314637   3.217   0.671   6.134  1.6005 -1.2050  0.0286
 3726SOL    MW414638   3.187   0.622   6.069  0.5894 -0.3012  0.4070
 3727SOL     OW14639   3.723   4.618   0.327 -0.1223 -0.8326 -0.2859
 3727SOL    HW214640   3.677   4.535   0.314  0.2441 -1.2190  0.7669
 3727SOL    HW314641   3.810   4.592   0.359  0.2012 -0.0587 -0.5173
 3727SOL    MW414642   3.729   4.603   0.330  0.3376  0.2951 -0.8189
 3728SOL     OW14643   4.805   4.425   5.546 -0.3097 -0.2943 -0.0283
 3728SOL    HW214644   4.791   4.367   5.620  0.1469 -1.5647 -0.8950
 3728SOL    HW314645   4.718   4.445   5.513 -0.4561 -0.7088  0.1103
 3728SOL    MW414646   4.792   4.420   5.551  0.0804 -0.1566  0.0212
 3729SOL     OW14647   4.606   1.196   0.511 -0.1055 -0.4211  0.2398
 3729SOL    HW214648   4.667   1.264   0.541  2.1258 -1.7686 -1.0273
 3729SOL    HW314649   4.536   1.245   0.467  1.6215  1.0703 -0.9854
 3729SOL    MW414650   4.605   1.212   0.509  0.0721 -0.7183 -0.7450
 3730SOL     OW14651   0.118   3.213   3.911  0.4601 -0.0742 -0.4211
 3730SOL    HW214652   0.079   3.253   3.833 -0.0776 -1.0874 -0.6900
 3730SOL    HW314653   0.078   3.126   3.915  1.5176 -0.5414  0.2077
 3730SOL    MW414654   0.107   3.207   3.901  0.0266 -0.0072 -0.0314
 3731SOL     OW14655   5.257   1.201   6.135  0.0447  0.3562  0.3792
 3731SOL    HW214656   5.172   1.157   6.134  0.6784 -0.9761  1.8598
 3731SOL    HW314657   5.296   1.182   6.050 -0.8305  0.3749 -0.0311
 3731SOL    MW414658   5.251   1.193   6.124 -0.1280 -0.9660 -0.1694
 3732SOL     OW14659   1.485   1.796   4.663  0.0812  0.5012 -0.5791
 3732SOL    HW214660   1.531   1.743   4.597 -0.3696  0.2512 -0.6954
 3732SOL    HW314661   1.553   1.852   4.700  0.5915 -0.2362 -0.3726
 3732SOL    MW414662   1.500   1.796   4.659 -0.0025 -0.4536  0.5673
 3733SOL     OW14663   4.636   4.926   6.309  0.1627 -0.5903 -0.0309
 3733SOL    HW214664   4.732   4.934   6.305  0.0739  0.5056 -0.4113
 3733SOL    HW314665   4.610   4.994   6.372 -0.3814 -0.6898 -0.1457
 3733SOL    MW414666   4.645   4.936   6.317  0.1133  0.9338  0.2980
 3734SOL     OW14667   3.735   1.588   4.073 -0.0566  0.3607 -0.3742
 3734SOL    HW214668   3.781   1.513   4.110 -1.3409 -0.3543 -0.1716
 3734SOL    HW314669   3.791   1.663   4.092  1.4139 -0.5742 -0.8721
 3734SOL    MW414670   3.748   1.588   4.080  0.0949 -0.0917  0.1254
 3735SOL     OW14671   5.024   2.011   1.603 -0.3238 -0.1213 -0.3816
 3735SOL    HW214672   5.014   2.015   1.698 -0.9218  2.7508 -0.4886
 3735SOL    HW314673   5.119   2.006   1.589 -0.2492 -0.9549  0.3417
 3735SOL    MW414674   5.036   2.011   1.614 -0.2271 -0.5129  0.6105
 3736SOL     OW14675   2.472   3.049   5.158  0.6355  0.7356  0.4235
 3736SOL    HW214676   2.548   3.066   5.103  0.6167  0.8895  0.4439
 3736SOL    HW314677   2.404   3.020   5.098  1.1952 -1.0339  0.5786
 3736SOL    MW414678   2.473   3.048   5.143  0.7223  0.2704  0.2068
 3737SOL     OW14679   3.621   6.028   3.411 -0.5201  0.0310 -0.0239
 3737SOL    HW214680   3.586   6.117   3.406 -0.9792 -0.0802  0.9971
 3737SOL    HW314681   3.553   5.974   3.370 -0.4578  0.0888 -0.2069
 3737SOL    MW414682   3.607   6.033   3.405  0.0673  0.2475  0.4662
 3738SOL     OW14683   1.096   5.471   6.240 -0.3100 -0.3540  0.7580
 3738SOL    HW214684   1.085   5.383   6.205  1.1750 -0.4956  0.6119
 3738SOL    HW314685   1.028   5.479   6.307 -0.1166 -1.8042  1.1498
 3738SOL    MW414686   1.085   5.461   6.244 -0.2076 -0.3419  0.1982
 3739SOL     OW14687   3.288   2.625   3.615 -0.3502  0.0180  0.3226
 3739SOL    HW214688   3.358   2.618   3.551 -0.5145  0.2652  0.1151
 3739SOL    HW314689   3.221   2.563   3.585  0.0264 -0.6450  0.8406
 3739SOL    MW414690   3.288   2.616   3.603  0.4799 -0.0349 -0.1647
 3740SOL     OW14691   0.294   2.562   4.376 -0.0879 -0.4606 -0.3190
 3740SOL    HW214692   0.231   2.498   4.341 -1.2800 -0.0931  1.0708
 3740SOL    HW314693   0.322   2.612   4.299 -0.6672 -1.3449 -1.1272
 3740SOL    MW414694   0.289   2.560   4.361  0.5449 -0.3892 -0.0047
 3741SOL     OW14695   0.229   2.659   1.943 -0.3844  0.2211  0.2230
 3741SOL    HW214696   0.308   2.659   1.997 -0.0844  0.0121 -0.2010
 3741SOL    HW314697   0.214   2.566   1.924 -0.8053  0.2510  0.4054
 3741SOL    MW414698   0.237   2.647   1.947 -0.2221 -0.2454 -0.4048
 3742SOL     OW14699   3.653   0.926   3.931  0.0590  0.3534  0.0092
 3742SOL    HW214700   3.603   0.873   3.993 -0.2344 -0.0957 -0.6006
 3742SOL    HW314701   3.629   0.892   3.845  3.3692 -1.6941 -0.2778
 3742SOL    MW414702   3.643   0.914   3.928 -0.1965  0.4280  0.1647
 3743SOL     OW14703   5.330   2.969   3.066 -0.2351  0.6432  0.2151
 3743SOL    HW214704   5.323   2.940   2.975  1.7311  0.8538 -0.0458
 3743SOL    HW314705   5.249   2.939   3.107 -0.7038 -0.3520 -1.3512
 3743SOL    MW414706   5.318   2.962   3.059 -0.0615  0.4527 -0.0438
 3744SOL     OW14707   0.161   0.610   3.323  0.1219 -0.8272 -0.5186
 3744SOL    HW214708   0.242   0.607   3.271  0.8299 -0.1366  0.5106
 3744SOL    HW314709   0.091   0.593   3.259  0.8677  1.0506 -1.9225
 3744SOL    MW414710   0.162   0.607   3.308 -0.2548 -0.5067  0.1854
 3745SOL     OW14711   3.348   2.648   1.231  0.2157 -0.2172 -0.3619
 3745SOL    HW214712   3.415   2.695   1.279  0.4442 -1.7102  0.8718
 3745SOL    HW314713   3.309   2.713   1.173 -0.1060  1.7104  1.8910
 3745SOL    MW414714   3.351   2.663   1.229  0.5296 -0.2620  0.2401
 3746SOL     OW14715   5.907   1.927   1.013 -0.1807  0.0272 -0.6548
 3746SOL    HW214716   5.862   1.849   0.980 -0.7060 -0.3912  0.9851
 3746SOL    HW314717   5.952   1.962   0.936 -2.7225  0.0610 -2.2338
 3746SOL    MW414718   5.907   1.921   0.998  0.4018 -1.1903 -0.9246
 3747SOL     OW14719   0.982   0.553   0.588  0.2466 -0.4100 -0.7614
 3747SOL    HW214720   1.008   0.550   0.496 -0.5831  1.0919 -1.0831
 3747SOL    HW314721   0.967   0.462   0.612  2.1953 -0.9835 -1.5827
 3747SOL    MW414722   0.983   0.541   0.579  0.0256  0.1291 -0.2364
 3748SOL     OW14723   4.764   1.505   6.182  0.1273 -0.5830 -0.8479
 3748SOL    HW214724   4.765   1.420   6.138 -3.4079 -0.4698 -1.4770
 3748SOL    HW314725   4.739   1.567   6.113 -2.5307  0.0727  0.5820
 3748SOL    MW414726   4.761   1.502   6.167 -0.3643 -0.1100 -0.1629
 3749SOL     OW14727   2.319   6.360   3.520  0.1859  0.3678 -0.0100
 3749SOL    HW214728   2.235   6.318   3.541 -0.1038  0.7342 -0.4331
 3749SOL    HW314729   2.295   6.446   3.485  0.7177  0.3049 -0.5427
 3749SOL    MW414730   2.304   6.366   3.518  0.3706 -0.2734 -0.0084
 3750SOL     OW14731   0.772   1.551   0.587 -0.4071  0.5590  0.0273
 3750SOL    HW214732   0.850   1.527   0.637 -0.4002  0.4847 -0.0190
 3750SOL    HW314733   0.767   1.646   0.595 -0.0797  0.6052 -0.3111
 3750SOL    MW414734   0.782   1.560   0.595 -0.2364 -0.7253 -0.2932
 3751SOL     OW14735   1.041   4.071   2.593 -0.1224  0.6962 -0.5319
 3751SOL    HW214736   1.089   4.017   2.530  0.9931  0.3251  0.5964
 3751SOL    HW314737   1.083   4.157   2.588  2.3277 -0.1832  2.0457
 3751SOL    MW414738   1.053   4.075   2.584 -0.0065 -0.3020  0.0150
 3752SOL     OW14739   3.318   3.300   5.125 -0.4770  0.3206 -0.3154
 3752SOL    HW214740   3.387   3.304   5.058 -1.3449 -1.7339 -1.4377
 3752SOL    HW314741   3.247   3.354   5.089 -0.2103  0.8046 -0.1171
 3752SOL    MW414742   3.317   3.308   5.111 -0.1903 -0.0235 -0.3286
 3753SOL     OW14743   5.456   3.358   5.295  0.3411 -0.7075 -0.1699
 3753SOL    HW214744   5.431   3.310   5.216  0.8400  1.0857 -1.4714
 3753SOL    HW314745   5.514   3.428   5.264 -0.5227  0.8807  1.5821
 3753SOL    MW414746   5.460   3.361   5.281 -0.0672  0.2225  0.2419
 3754SOL     OW14747   0.315   2.397   0.317 -0.2060  0.0777  0.5241
 3754SOL    HW214748   0.343   2.361   0.402  1.4922 -0.2021 -0.1130
 3754SOL    HW314749   0.395   2.433   0.279 -0.9287  0.1674 -0.9760
 3754SOL    MW414750   0.329   2.397   0.324  0.4395  0.0915 -0.2037
 3755SOL     OW14751   0.939   1.863   2.293  0.0678 -0.1515 -0.2803
 3755SOL    HW214752   1.009   1.925   2.271  0.4039  0.1384  1.5005
 3755SOL    HW314753   0.985   1.781   2.312 -0.3003 -0.6943 -1.6172
 3755SOL    MW414754   0.954   1.861   2.292 -0.0838 -0.0802  0.0001
 3756SOL     OW14755   0.166   6.144   4.770  0.4979  0.3384 -0.2437
 3756SOL    HW214756   0.241   6.088   4.789  2.3680  2.7251 -0.1522
 3756SOL    HW314757   0.198   6.205   4.704 -2.0561  0.1330 -1.8051
 3756SOL    MW414758   0.180   6.145   4.764  0.3605  0.1311 -0.1739
 3757SOL     OW14759   5.048   1.287   0.168  0.0659 -0.2986 -0.3642
 3757SOL    HW214760   5.120   1.342   0.138 -0.3566 -0.4700 -1.8222
 3757SOL    HW314761   4.974   1.315   0.114 -0.8053 -0.5414  0.6816
 3757SOL    MW414762   5.048   1.298   0.157  0.6727  0.4756  0.2437
 3758SOL     OW14763   3.962   4.613   0.477  0.2276 -0.2085  0.1351
 3758SOL    HW214764   3.986   4.569   0.558  0.3650 -2.0961 -0.8859
 3758SOL    HW314765   4.044   4.624   0.430 -0.0456 -0.5720 -0.4350
 3758SOL    MW414766   3.976   4.609   0.481 -0.0978  0.7480  0.0581
 3759SOL     OW14767   1.702   3.611   1.514 -0.0477 -1.0387  0.0085
 3759SOL    HW214768   1.621   3.658   1.534  0.1467 -0.4563 -0.5609
 3759SOL    HW314769   1.710   3.547   1.586 -0.2790 -0.1732  0.8314
 3759SOL    MW414770   1.692   3.608   1.526 -0.2594  0.5085  0.2761
 3760SOL     OW14771   3.589   4.588   3.737  0.6954  0.4433 -0.1060
 3760SOL    HW214772   3.568   4.499   3.765  1.7827 -0.3686 -1.7376
 3760SOL    HW314773   3.649   4.621   3.805  1.4645 -0.6173 -0.2595
 3760SOL    MW414774   3.594   4.581   3.750 -1.3116  0.0226  0.5746
 3761SOL     OW14775   6.186   3.703   2.692 -0.0726 -0.2243 -1.1636
 3761SOL    HW214776   6.118   3.721   2.627 -2.0001 -1.0957  0.5081
 3761SOL    HW314777   6.155   3.745   2.772  1.1030 -1.0677 -0.2210
 3761SOL    MW414778   6.173   3.711   2.694 -0.6396  0.5165  0.1303
 3762SOL     OW14779   2.749   0.990   3.142 -0.3098  0.1070 -0.2575
 3762SOL    HW214780   2.829   1.004   3.092  1.1482  0.2635  1.9541
 3762SOL    HW314781   2.778   0.946   3.222 -2.7143 -1.5191 -0.1669
 3762SOL    MW414782   2.763   0.986   3.146  0.3111  0.0286  0.0556
 3763SOL     OW14783   1.707   1.461   3.615  0.2966 -0.1969  0.1054
 3763SOL    HW214784   1.773   1.453   3.684 -0.8368 -2.8241  1.0478
 3763SOL    HW314785   1.714   1.379   3.566 -2.7159 -1.0003  0.7706
 3763SOL    MW414786   1.716   1.449   3.618 -0.0237 -0.3365 -0.3237
 3764SOL     OW14787   1.628   5.099   5.580 -0.0248  0.3653 -0.2492
 3764SOL    HW214788   1.598   5.053   5.501  0.8010 -0.6441  0.0009
 3764SOL    HW314789   1.611   5.037   5.651  0.4378  0.7460  0.1988
 3764SOL    MW414790   1.622   5.084   5.579 -0.1746 -0.4775  0.5847
 3765SOL     OW14791   0.338   1.470   0.763 -0.0980  0.3359 -0.5454
 3765SOL    HW214792   0.261   1.515   0.727 -1.5010 -1.9240 -0.5766
 3765SOL    HW314793   0.302   1.409   0.827  1.5710 -1.3551 -1.1337
 3765SOL    MW414794   0.323   1.468   0.766 -0.1591  0.1518 -0.1831
 3766SOL     OW14795   0.832   0.576   2.066  0.3765  0.0193  0.2277
 3766SOL    HW214796   0.821   0.537   2.152 -0.2179  0.1927  0.2388
 3766SOL    HW314797   0.763   0.536   2.013 -0.5911  1.3970  0.3709
 3766SOL    MW414798   0.821   0.566   2.070  0.1304  0.0586 -0.2600
 3767SOL     OW14799   6.068   3.781   5.819  0.4883  0.3985 -0.0969
 3767SOL    HW214800   6.011   3.858   5.820  1.5537  1.2252 -0.9921
 3767SOL    HW314801   6.102   3.775   5.909  1.4059  1.7787 -0.3132
 3767SOL    MW414802   6.065   3.790   5.831 -0.7697 -0.3127 -0.2517
 3768SOL     OW14803   3.887   5.110   1.787  0.1382  0.0104 -0.0572
 3768SOL    HW214804   3.879   5.041   1.853  0.3198 -0.9027 -0.9678
 3768SOL    HW314805   3.979   5.137   1.792  0.6774 -1.5003 -1.3217
 3768SOL    MW414806   3.898   5.105   1.796 -0.4887 -0.5218  0.3653
 3769SOL     OW14807   2.531   1.764   0.039  0.0583  0.4699 -0.7968
 3769SOL    HW214808   2.562   1.744   0.127  0.2849  1.7589 -0.5671
 3769SOL    HW314809   2.549   1.684  -0.012  1.2380  0.2187 -0.0183
 3769SOL    MW414810   2.538   1.751   0.044 -0.5278 -0.0718 -0.3150
 3770SOL     OW14811   0.041   3.489   1.132 -0.1204 -0.0236  0.1832
 3770SOL    HW214812   0.094   3.456   1.059  1.0381  0.9146  0.5666
 3770SOL    HW314813  -0.025   3.421   1.146  0.3186 -0.7339 -1.0152
 3770SOL    MW414814   0.039   3.475   1.124 -0.0944  0.4674  0.2291
 3771SOL     OW14815   4.345   2.101   5.159 -0.1286  0.6684  0.0583
 3771SOL    HW214816   4.414   2.100   5.093  0.7839  0.4570  0.9751
 3771SOL    HW314817   4.294   2.022   5.142  1.3252 -0.5031  0.8090
 3771SOL    MW414818   4.347   2.090   5.148  0.1690 -0.1319 -0.0162
 3772SOL     OW14819   0.373   2.228   3.198 -0.2335 -0.0020  0.2956
 3772SOL    HW214820   0.329   2.206   3.281  0.1573 -0.1624  0.4622
 3772SOL    HW314821   0.350   2.156   3.139  1.5387 -1.2320  1.0165
 3772SOL    MW414822   0.364   2.216   3.201  0.8599 -0.5095 -0.4167
 3773SOL     OW14823   2.611   3.692   3.405  0.1692 -0.4145 -0.2503
 3773SOL    HW214824   2.678   3.747   3.447 -0.0107 -0.6687  0.3867
 3773SOL    HW314825   2.609   3.612   3.459 -0.4317 -0.5341 -0.4430
 3773SOL    MW414826   2.620   3.688   3.418 -0.2265  0.2058  0.0725
 3774SOL     OW14827   3.273   4.225   4.661 -0.5873 -0.0563 -0.2248
 3774SOL    HW214828   3.239   4.307   4.626 -1.2307 -0.8899 -1.6076
 3774SOL    HW314829   3.353   4.209   4.610  0.0682  0.1700  0.6999
 3774SOL    MW414830   3.279   4.234   4.650 -0.1319 -0.3469  0.5985
 3775SOL     OW14831   2.970   3.114   3.587 -0.3853 -0.1133 -0.5374
 3775SOL    HW214832   3.021   3.149   3.660 -1.0365 -1.5783  0.6612
 3775SOL    HW314833   3.025   3.046   3.549 -1.6930 -2.3764  1.3599
 3775SOL    MW414834   2.984   3.110   3.592 -0.3517 -0.6492 -0.6768
 3776SOL     OW14835   3.414   5.220   1.339  0.3225 -0.2778 -0.7462
 3776SOL    HW214836   3.344   5.284   1.353  1.2926  0.6147  0.1786
 3776SOL    HW314837   3.431   5.184   1.426 -0.5404 -2.1952 -1.3161
 3776SOL    MW414838   3.407   5.224   1.352 -0.1423  0.3579 -0.5024
 3777SOL     OW14839   4.040   0.778   4.894  0.3187  0.5610  0.1527
 3777SOL    HW214840   4.134   0.791   4.903  0.5219 -0.0706 -0.8785
 3777SOL    HW314841   4.031   0.695   4.846 -0.7252  1.2115 -0.8335
 3777SOL    MW414842   4.051   0.768   4.889 -0.1504 -0.6471  0.4199
 3778SOL     OW14843   4.413   1.386   3.708 -0.0183 -0.2495  0.1093
 3778SOL    HW214844   4.452   1.450   3.648 -0.9701  0.8033  0.5756
 3778SOL    HW314845   4.353   1.335   3.653 -0.0246 -0.0498 -0.0717
 3778SOL    MW414846   4.410   1.388   3.693  0.2345  0.1722 -0.6023
 3779SOL     OW14847   1.717   4.635   4.667 -0.1651  0.0953  0.0351
 3779SOL    HW214848   1.634   4.605   4.705  0.0235  1.4953  1.6765
 3779SOL    HW314849   1.777   4.562   4.682 -1.2382 -1.2576 -1.8783
 3779SOL    MW414850   1.714   4.622   4.674  0.3092 -0.5372  0.3971
 3780SOL     OW14851   0.915   3.579   5.445  0.0783 -0.6289  0.1011
 3780SOL    HW214852   0.963   3.545   5.369 -0.2405 -2.1851  0.5504
 3780SOL    HW314853   0.902   3.502   5.501 -2.7490 -0.2405  0.1015
 3780SOL    MW414854   0.920   3.564   5.442  0.2887  0.2470  0.5585
 3781SOL     OW14855   1.308   0.315   2.454  0.2770 -0.3854  0.3490
 3781SOL    HW214856   1.319   0.409   2.445 -0.6993 -0.3325 -0.4939
 3781SOL    HW314857   1.220   0.304   2.490  1.4297 -0.9007  3.2452
 3781SOL    MW414858   1.298   0.326   2.457 -0.6949  0.1710  0.2851
 3782SOL     OW14859   6.275   6.114   5.963  0.4423  0.0145 -0.5701
 3782SOL    HW214860   6.240   6.202   5.979 -1.7431 -1.1976  2.4414
 3782SOL    HW314861   6.231   6.085   5.883 -0.8023  0.7890 -0.1979
 3782SOL    MW414862   6.264   6.122   5.954  0.1082  1.0676  0.3976
 3783SOL     OW14863   2.376   1.623   2.537 -0.1276 -0.0502 -0.4824
 3783SOL    HW214864   2.431   1.595   2.464  0.1299  1.8606 -1.0830
 3783SOL    HW314865   2.298   1.660   2.495 -0.7402 -0.4251  0.2864
 3783SOL    MW414866   2.373   1.624   2.522  0.0124 -0.2292 -0.0254
 3784SOL     OW14867   3.687   1.953   1.751 -0.2623  0.0173 -0.0829
 3784SOL    HW214868   3.700   1.867   1.712  2.2955  0.2794  0.0023
 3784SOL    HW314869   3.624   1.939   1.821  2.9334 -2.7244  2.5530
 3784SOL    MW414870   3.681   1.940   1.755  0.0535  0.0489 -0.1649
 3785SOL     OW14871   4.720   3.687   3.202 -0.3320 -0.1600  0.3814
 3785SOL    HW214872   4.686   3.660   3.117  0.3067  0.1748  0.0136
 3785SOL    HW314873   4.719   3.606   3.254  1.6847 -1.0059 -0.7519
 3785SOL    MW414874   4.716   3.673   3.198  0.1742  1.0318 -0.2501
 3786SOL     OW14875   5.137   5.582   1.422 -0.3442 -0.2485 -0.0286
 3786SOL    HW214876   5.116   5.554   1.511 -0.2658 -1.4383 -0.3728
 3786SOL    HW314877   5.090   5.665   1.412 -0.7134 -0.3236  0.9709
 3786SOL    MW414878   5.128   5.589   1.432 -0.2900 -0.3829 -0.1242
 3787SOL     OW14879   0.668   0.730   0.011 -0.3556  0.7421 -0.0898
 3787SOL    HW214880   0.696   0.696  -0.075 -0.4682 -0.8792  0.4674
 3787SOL    HW314881   0.610   0.662   0.045 -2.1838  2.4169  0.2954
 3787SOL    MW414882   0.664   0.716   0.004 -0.1243  0.7168 -0.1562
 3788SOL     OW14883   4.157   4.324   4.646 -0.5102  0.0110 -0.6482
 3788SOL    HW214884   4.189   4.412   4.667  1.9879 -1.4770  2.7808
 3788SOL    HW314885   4.232   4.280   4.607 -2.0310 -0.4707 -3.3013
 3788SOL    MW414886   4.171   4.330   4.644 -0.3686 -0.0187  0.1696
 3789SOL     OW14887   1.905   3.100   2.195 -0.4959  0.0050 -1.0242
 3789SOL    HW214888   1.906   3.033   2.128  1.1030  0.0031 -1.0463
 3789SOL    HW314889   1.829   3.154   2.175 -0.5432 -0.5133 -2.3063
 3789SOL    MW414890   1.895   3.099   2.184 -0.2106 -0.1192 -0.2346
 3790SOL     OW14891   5.880   0.529   4.897  0.0373  0.3369  0.0680
 3790SOL    HW214892   5.794   0.488   4.899  0.5734 -1.0613 -2.0049
 3790SOL    HW314893   5.926   0.493   4.973 -1.7373  2.6346  2.4144
 3790SOL    MW414894   5.875   0.519   4.907 -0.2906  0.1862  0.0770
 3791SOL     OW14895   5.319   4.416   3.400  0.6905  0.6935 -0.2332
 3791SOL    HW214896   5.298   4.398   3.492  0.9549  2.8205  0.2994
 3791SOL    HW314897   5.254   4.366   3.350  1.1226 -1.2391  1.0443
 3791SOL    MW414898   5.307   4.407   3.405 -0.9124 -0.2437 -0.1103
 3792SOL     OW14899   4.277   2.045   6.227 -0.3810 -0.6079  0.0902
 3792SOL    HW214900   4.334   2.034   6.151  0.0632 -1.4771  0.5177
 3792SOL    HW314901   4.263   2.139   6.234  1.7194 -0.2589  0.4414
 3792SOL    MW414902   4.283   2.056   6.218 -0.1308  1.0813 -0.3574
 3793SOL     OW14903   2.271   5.163   1.267  0.8759  0.1268 -0.0094
 3793SOL    HW214904   2.292   5.095   1.331  1.0905  0.5119  0.3333
 3793SOL    HW314905   2.314   5.134   1.187 -0.7676 -1.2130 -0.4662
 3793SOL    MW414906   2.280   5.151   1.265 -0.4472 -0.0024  0.0293
 3794SOL     OW14907   4.604   5.294   5.335 -0.3408  0.5099 -0.2499
 3794SOL    HW214908   4.526   5.348   5.325  0.1707  1.4279  0.5537
 3794SOL    HW314909   4.673   5.341   5.288 -0.2934 -0.3761 -1.0949
 3794SOL    MW414910   4.603   5.307   5.327 -0.8231 -0.7319 -0.7482
 3795SOL     OW14911   3.218   3.096   4.403 -0.5644 -0.3900 -0.1303
 3795SOL    HW214912   3.215   3.151   4.325 -1.7644 -1.5551 -0.9539
 3795SOL    HW314913   3.204   3.157   4.476 -0.2286  0.6080 -0.8847
 3795SOL    MW414914   3.215   3.111   4.403 -0.1869  0.2741 -0.2042
 3796SOL     OW14915   5.936   4.339   1.382  0.0212 -0.1081  0.2081
 3796SOL    HW214916   5.873   4.403   1.348 -0.9628 -0.3418  1.5007
 3796SOL    HW314917   6.011   4.392   1.409  0.6130  0.1387 -1.7252
 3796SOL    MW414918   5.937   4.355   1.381  0.4099  0.5043  0.6032
 3797SOL     OW14919   4.675   0.310   0.589  0.1012 -0.6160 -0.1241
 3797SOL    HW214920   4.727   0.386   0.617  0.4231 -0.3772 -1.2808
 3797SOL    HW314921   4.652   0.265   0.670  0.7117  0.1978  0.5247
 3797SOL    MW414922   4.679   0.314   0.603  0.1754  0.0505  0.6708
 3798SOL     OW14923   2.115   0.918   1.953  0.5900  0.0487  0.6877
 3798SOL    HW214924   2.178   0.900   1.883 -0.2077 -1.4243  0.3073
 3798SOL    HW314925   2.117   0.839   2.007 -1.2723 -0.2329  0.3883
 3798SOL    MW414926   2.124   0.906   1.951  0.6996 -0.4890  0.0025
 3799SOL     OW14927   4.650   2.724   2.807  0.2598  0.5770  0.6424
 3799SOL    HW214928   4.558   2.697   2.810 -0.5204  3.0570  1.6329
 3799SOL    HW314929   4.647   2.819   2.821  2.7975  1.1683 -1.9407
 3799SOL    MW414930   4.637   2.733   2.809 -0.0802 -0.1058 -0.0862
 3800SOL     OW14931   3.895   2.110   1.658  0.0102 -0.7715 -0.4976
 3800SOL    HW214932   3.896   2.181   1.722  2.0015 -2.6279  1.7517
 3800SOL    HW314933   3.824   2.053   1.686 -0.5295 -0.5134 -1.3089
 3800SOL    MW414934   3.886   2.112   1.671 -0.2498  0.1648  0.4142
 3801SOL     OW14935   2.773   0.385   3.488 -0.6175 -0.5127  0.2774
 3801SOL    HW214936   2.768   0.294   3.518 -0.4518 -1.0733 -1.3226
 3801SOL    HW314937   2.707   0.391   3.419 -0.9557  0.7312  0.6789
 3801SOL    MW414938   2.764   0.374   3.483 -0.1977 -0.0991  0.1592
 3802SOL     OW14939   1.398   2.369   4.156 -0.1360  0.2233  0.5082
 3802SOL    HW214940   1.479   2.372   4.106 -0.9347 -0.3253 -0.8782
 3802SOL    HW314941   1.416   2.309   4.228  0.4409 -0.5463 -0.2588
 3802SOL    MW414942   1.411   2.361   4.159 -0.0603  0.2221  0.1189
 3803SOL     OW14943   2.107   3.995   3.289 -0.3419 -0.0134  0.4301
 3803SOL    HW214944   2.188   4.004   3.240 -1.3473 -0.2938 -1.3677
 3803SOL    HW314945   2.122   3.923   3.349  1.0242  0.5323  0.7695
 3803SOL    MW414946   2.119   3.987   3.291  0.2998  0.3406 -0.1078
 3804SOL     OW14947   0.723   4.501   1.947 -0.6737 -0.1513 -0.3988
 3804SOL    HW214948   0.709   4.513   2.041 -0.5367 -0.1554 -0.3773
 3804SOL    HW314949   0.770   4.580   1.919 -0.5303 -0.2456 -0.4239
 3804SOL    MW414950   0.727   4.513   1.955 -0.7978  0.0252  0.3407
 3805SOL     OW14951   0.653   0.031   5.895  0.3510 -0.4041  0.0206
 3805SOL    HW214952   0.633   0.102   5.834 -0.9980  0.9323  1.9158
 3805SOL    HW314953   0.601  -0.043   5.864 -1.1038  0.5553  0.0898
 3805SOL    MW414954   0.643   0.031   5.883  0.1280  0.4438 -0.3438
 3806SOL     OW14955   2.939   2.784   4.004 -0.0837  0.1011  0.4709
 3806SOL    HW214956   3.032   2.807   4.003  0.3607 -1.4232  1.9712
 3806SOL    HW314957   2.928   2.725   3.929  0.2176  0.0505  0.4652
 3806SOL    MW414958   2.950   2.779   3.994 -0.1503 -0.0064  0.0549
 3807SOL     OW14959   0.519   1.853   5.564 -0.0409  0.4741  0.0411
 3807SOL    HW214960   0.572   1.774   5.554 -0.0217  0.3288  1.1663
 3807SOL    HW314961   0.435   1.830   5.524 -0.6050 -0.7253  1.8089
 3807SOL    MW414962   0.515   1.839   5.557 -0.3593  0.3833 -0.0144
 3808SOL     OW14963   5.896   2.382   0.225  0.0977  0.5458 -0.6503
 3808SOL    HW214964   5.936   2.300   0.194 -0.9817 -0.2917  0.0998
 3808SOL    HW314965   5.918   2.446   0.157  0.7497 -0.4134 -1.3834
 3808SOL    MW414966   5.905   2.379   0.212 -0.1362 -0.3398  0.6688
 3809SOL     OW14967   3.730   5.615   3.017  0.1696 -0.3225 -0.4349
 3809SOL    HW214968   3.799   5.643   2.958  0.9423 -1.2040  0.0082
 3809SOL    HW314969   3.771   5.615   3.104 -0.3724 -0.8748 -0.1675
 3809SOL    MW414970   3.745   5.618   3.021  0.2165  0.1310  0.0285
 3810SOL     OW14971   4.740   4.123   6.402  0.0777  0.0383  0.0309
 3810SOL    HW214972   4.815   4.142   6.345 -0.1610  0.2772 -0.2102
 3810SOL    HW314973   4.664   4.150   6.350 -0.0630  1.8401  1.0827
 3810SOL    MW414974   4.740   4.129   6.387  0.0977 -0.0911 -0.3234
 3811SOL     OW14975   6.005   3.743   2.474 -0.5392  0.4224  0.6115
 3811SOL    HW214976   5.923   3.740   2.524  0.9708  0.6657  3.2995
 3811SOL    HW314977   6.040   3.831   2.490  0.7051  0.0007  0.3503
 3811SOL    MW414978   5.999   3.754   2.483 -0.3540 -0.0875  0.0152
 3812SOL     OW14979   3.400   3.142   5.338 -0.2224  0.3735  0.1948
 3812SOL    HW214980   3.423   3.224   5.381  0.0738 -0.4055  1.6070
 3812SOL    HW314981   3.344   3.167   5.264 -0.2599  1.8156  0.6921
 3812SOL    MW414982   3.395   3.156   5.334 -0.0740  0.2384  0.0498
 3813SOL     OW14983   6.367   5.067   3.098  0.3394 -0.4257  0.0110
 3813SOL    HW214984   6.305   5.139   3.089  1.1112  0.0906 -1.5481
 3813SOL    HW314985   6.335   5.000   3.037  0.6532 -0.6416  0.0787
 3813SOL    MW414986   6.355   5.067   3.089 -0.4442  0.0783 -0.4790
 3814SOL     OW14987   1.151   1.017   3.066  0.0298 -0.3464 -0.1877
 3814SOL    HW214988   1.204   1.058   3.134  2.6775 -1.0102 -1.7375
 3814SOL    HW314989   1.096   0.955   3.113  1.2798 -0.2902  1.4249
 3814SOL    MW414990   1.151   1.014   3.081 -0.1365  0.6884 -0.1375
 3815SOL     OW14991   4.672   3.602   1.618 -0.0817 -0.0051  1.3133
 3815SOL    HW214992   4.611   3.673   1.600 -0.2019 -0.1023  1.3415
 3815SOL    HW314993   4.737   3.641   1.678  1.2763  0.8291 -0.5849
 3815SOL    MW414994   4.673   3.616   1.624 -0.1167 -0.5964 -0.3616
 3816SOL     OW14995   2.268   6.039   6.239  0.2959  0.0316 -0.5238
 3816SOL    HW214996   2.261   5.990   6.321  1.1732 -1.3884 -1.2461
 3816SOL    HW314997   2.199   6.002   6.184  0.4017  0.2153 -0.7821
 3816SOL    MW414998   2.258   6.027   6.243  0.3378 -0.0464 -0.2604
 3817SOL     OW14999   0.796   5.562   3.368  0.3025  0.0032  0.1344
 3817SOL    HW215000   0.818   5.536   3.458  0.8287 -1.1239 -0.3098
 3817SOL    HW315001   0.709   5.601   3.376  0.2876 -0.2004  1.1176
 3817SOL    MW415002   0.787   5.564   3.381 -0.0772  0.3311 -0.5169
 3818SOL     OW15003   1.017   5.378   1.287 -0.2963 -0.3366  0.3823
 3818SOL    HW215004   0.928   5.410   1.304  0.6493  1.1442  3.2025
 3818SOL    HW315005   1.046   5.341   1.370  2.5605  1.4413  0.3218
 3818SOL    MW415006   1.009   5.377   1.300 -0.2850  0.5559  0.1146
 3819SOL     OW15007   3.757   4.523   1.610 -0.2492  0.2460  0.7455
 3819SOL    HW215008   3.852   4.538   1.604 -0.5501  1.8926 -0.7658
 3819SOL    HW315009   3.741   4.452   1.549 -0.1920  1.1769 -0.3863
 3819SOL    MW415010   3.768   4.516   1.601 -0.1598  0.0576  0.1205
 3820SOL     OW15011   1.638   2.069   0.275 -0.0778 -0.0169  0.2568
 3820SOL    HW215012   1.653   2.095   0.184  2.0784 -1.5513  0.0912
 3820SOL    HW315013   1.585   1.990   0.268  1.3475 -1.0051  0.1944
 3820SOL    MW415014   1.633   2.062   0.262 -0.5016  0.3276 -0.1432
 3821SOL     OW15015   5.133   6.139   1.072 -0.0911 -0.6432  0.3001
 3821SOL    HW215016   5.050   6.157   1.028 -0.4795 -0.9402  0.9054
 3821SOL    HW315017   5.119   6.055   1.116  1.2012 -1.7491 -1.2687
 3821SOL    MW415018   5.120   6.130   1.072  0.0061 -0.1834 -0.8581
 3822SOL     OW15019   3.906   4.877   0.842  0.0113 -0.1221 -0.2671
 3822SOL    HW215020   3.978   4.929   0.878  0.9634 -1.7042  0.1875
 3822SOL    HW315021   3.925   4.871   0.749  0.1847 -0.0776 -0.2354
 3822SOL    MW415022   3.918   4.883   0.835 -0.5066  0.5392 -0.2304
 3823SOL     OW15023   1.359   2.978   4.148  0.0688  0.0949  0.5620
 3823SOL    HW215024   1.294   2.966   4.218 -1.5320 -2.0487 -1.1558
 3823SOL    HW315025   1.436   2.930   4.179  0.4555  1.5600  2.0384
 3823SOL    MW415026   1.361   2.970   4.161  0.0763  0.7555  0.0900
 3824SOL     OW15027   0.196   1.916   6.208 -1.1160  0.4382  0.1339
 3824SOL    HW215028   0.284   1.950   6.193 -0.6691 -0.3035  0.9773
 3824SOL    HW315029   0.179   1.858   6.134  0.5603 -2.2181  1.6645
 3824SOL    MW415030   0.205   1.913   6.196 -0.7442  0.3355 -0.1899
 3825SOL     OW15031   5.863   4.549   3.330 -0.2889  0.2389  0.1216
 3825SOL    HW215032   5.913   4.472   3.357 -2.1043  0.0693  3.4794
 3825SOL    HW315033   5.774   4.532   3.361 -0.9044  3.4011  0.3518
 3825SOL    MW415034   5.858   4.536   3.337 -0.1702 -0.0484 -0.3195
 3826SOL     OW15035   5.091   2.065   4.778  0.1863 -0.1410  0.0029
 3826SOL    HW215036   5.092   2.093   4.687 -2.1006  1.4861  0.4039
 3826SOL    HW315037   4.999   2.054   4.800  0.5851  0.7246  2.4611
 3826SOL    MW415038   5.079   2.067   4.769  0.0033  0.1988  0.3801
 3827SOL     OW15039   1.450   4.962   3.300 -0.1218  0.0280 -0.6894
 3827SOL    HW215040   1.468   4.923   3.214  1.5533 -0.3688 -0.1880
 3827SOL    HW315041   1.364   4.928   3.324  0.6786 -2.3278 -0.8833
 3827SOL    MW415042   1.441   4.953   3.292  0.5958 -0.2191 -0.1383
 3828SOL     OW15043   4.686   1.596   0.339  0.4953  0.0071  0.6090
 3828SOL    HW215044   4.780   1.612   0.350  0.8864  1.2204 -3.2767
 3828SOL    HW315045   4.681   1.506   0.307  0.1338 -0.4654  1.8976
 3828SOL    MW415046   4.698   1.586   0.336  0.0287  0.3398 -0.6615
 3829SOL     OW15047   1.202   1.214   3.715 -0.2948  0.0917  0.1350
 3829SOL    HW215048   1.273   1.277   3.722  0.8483 -0.9915 -1.0540
 3829SOL    HW315049   1.142   1.252   3.651  0.6906 -0.2425 -1.0341
 3829SOL    MW415050   1.204   1.227   3.708  0.0893  0.0781  0.5710
 3830SOL     OW15051   1.280   0.704   6.177  0.1667  0.7441  0.0488
 3830SOL    HW215052   1.270   0.651   6.256  1.6988  0.4739  0.0755
 3830SOL    HW315053   1.215   0.774   6.188 -1.1618 -0.4928  0.4966
 3830SOL    MW415054   1.270   0.706   6.189  0.2056 -0.1573 -0.2388
 3831SOL     OW15055   5.341   1.370   3.603  0.2605  0.1540 -0.3127
 3831SOL    HW215056   5.263   1.352   3.550  0.4898 -0.5037 -0.4286
 3831SOL    HW315057   5.359   1.463   3.588  0.0157  0.0983 -0.9840
 3831SOL    MW415058   5.333   1.380   3.594  0.4813 -0.4526  0.2773
 3832SOL     OW15059   5.282   0.333   1.209  0.1077 -0.1089  0.1668
 3832SOL    HW215060   5.366   0.302   1.176  1.0688  0.8472  1.5887
 3832SOL    HW315061   5.235   0.361   1.131  0.7255 -1.5083 -0.7475
 3832SOL    MW415062   5.287   0.333   1.195 -0.1291  0.1314  0.2994
 3833SOL     OW15063   3.022   6.216   5.410 -0.1713 -0.2516 -0.3754
 3833SOL    HW215064   3.068   6.195   5.328  1.9005  2.8690 -0.2058
 3833SOL    HW315065   2.954   6.278   5.384 -0.4343 -0.3380  0.1002
 3833SOL    MW415066   3.019   6.222   5.395 -0.5250 -0.0283  0.9064
 3834SOL     OW15067   5.283   6.284   3.633  0.4755  0.1260 -0.4951
 3834SOL    HW215068   5.257   6.370   3.664  3.3137  1.4762 -1.5437
 3834SOL    HW315069   5.293   6.294   3.539  1.0878 -1.2867 -0.6136
 3834SOL    MW415070   5.281   6.296   3.625 -0.1553 -0.0933 -0.5777
 3835SOL     OW15071   3.476   3.331   2.881 -0.1072  0.6853 -0.7800
 3835SOL    HW215072   3.416   3.404   2.864  1.2116  1.7575 -1.0568
 3835SOL    HW315073   3.425   3.269   2.933 -0.7921  2.5718  0.9176
 3835SOL    MW415074   3.461   3.333   2.886  0.0669 -0.1308  0.4716
 3836SOL     OW15075   6.097   0.323   5.592 -0.1227 -0.2698  0.1303
 3836SOL    HW215076   6.143   0.252   5.548  2.4810  1.7430 -0.6252
 3836SOL    HW315077   6.063   0.378   5.522 -0.2527  0.3523  0.6625
 3836SOL    MW415078   6.098   0.321   5.577 -0.4074 -0.0186 -0.5431
 3837SOL     OW15079   2.561   4.558   3.788  0.5365 -0.4647  0.3320
 3837SOL    HW215080   2.513   4.522   3.714  1.4166 -0.5390 -0.2201
 3837SOL    HW315081   2.514   4.638   3.811  0.9026  0.1658 -1.0430
 3837SOL    MW415082   2.549   4.564   3.782  0.2931 -1.3959 -0.1272
 3838SOL     OW15083   0.653   5.999   4.679  0.0323 -0.5238 -0.4317
 3838SOL    HW215084   0.723   6.064   4.684  0.3410 -0.9558  1.7964
 3838SOL    HW315085   0.682   5.939   4.610  0.4647  0.8237 -1.4689
 3838SOL    MW415086   0.666   5.999   4.671  0.1673 -0.1772  0.2121
 3839SOL     OW15087   1.580   3.197   5.121  0.5676 -0.1393 -0.2927
 3839SOL    HW215088   1.529   3.143   5.060 -1.6337  0.9681  0.4437
 3839SOL    HW315089   1.589   3.142   5.199 -0.6341  0.0713  0.0205
 3839SOL    MW415090   1.574   3.183   5.123  0.1768 -0.1098  0.4910
 3840SOL     OW15091   2.643   2.032   3.206  0.6607  0.3957 -0.5769
 3840SOL    HW215092   2.717   2.039   3.266 -0.4448  0.7301  0.7863
 3840SOL    HW315093   2.639   1.939   3.185 -0.3367 -0.1668  1.7645
 3840SOL    MW415094   2.653   2.020   3.211 -0.0896 -0.1428 -0.2560
 3841SOL     OW15095   3.086   1.898   4.082 -0.0751 -0.4217 -0.3372
 3841SOL    HW215096   3.175   1.917   4.111 -0.2795  0.7774 -0.4411
 3841SOL    HW315097   3.083   1.927   3.991 -0.7899  0.3309 -0.0912
 3841SOL    MW415098   3.097   1.905   4.074 -0.2312 -0.7904  0.4923
 3842SOL     OW15099   3.069   2.261   0.366  0.3633 -0.5768 -0.6330
 3842SOL    HW215100   2.976   2.239   0.375  0.5030 -1.6320 -1.4450
 3842SOL    HW315101   3.081   2.273   0.271  0.5875  1.8742 -0.3379
 3842SOL    MW415102   3.058   2.259   0.354  0.0775 -0.0497  0.0920
 3843SOL     OW15103   2.114   5.762   3.681 -0.1737 -0.3991  0.3802
 3843SOL    HW215104   2.076   5.834   3.731 -0.9093 -0.5797  0.0977
 3843SOL    HW315105   2.199   5.746   3.722 -0.3686  0.0665  0.9758
 3843SOL    MW415106   2.120   5.769   3.693 -0.3832 -0.6426  0.2602
 3844SOL     OW15107   5.444   3.150   0.765 -0.6073  0.6702  0.5029
 3844SOL    HW215108   5.507   3.214   0.731 -0.6734 -0.2320 -1.4499
 3844SOL    HW315109   5.420   3.183   0.852 -1.4633  3.8764 -0.8282
 3844SOL    MW415110   5.449   3.163   0.772  1.0765  0.3058 -0.2331
 3845SOL     OW15111   5.244   3.013   4.928 -0.7965  0.5584  0.8019
 3845SOL    HW215112   5.188   2.964   4.988  1.2288  0.2081  2.5460
 3845SOL    HW315113   5.256   2.956   4.853 -2.6456  0.6128  0.4260
 3845SOL    MW415114   5.239   2.999   4.926 -0.1685  0.0161 -0.7775
 3846SOL     OW15115   0.246   3.532   0.544 -0.0831  0.1460  0.4861
 3846SOL    HW215116   0.288   3.580   0.472 -0.4031  2.3064  1.6396
 3846SOL    HW315117   0.156   3.565   0.545  0.1087  0.7103  2.2750
 3846SOL    MW415118   0.240   3.543   0.535  0.0525 -0.5041 -0.0598
 3847SOL     OW15119   4.696   0.599   5.801 -0.5983 -0.0322  0.3638
 3847SOL    HW215120   4.700   0.506   5.824 -2.0935 -0.2846 -0.3328
 3847SOL    HW315121   4.608   0.612   5.766  0.1378  1.2889 -1.1098
 3847SOL    MW415122   4.685   0.589   5.799 -0.0844 -0.0208 -0.4779
 3848SOL     OW15123   2.619   5.467   3.256  0.0222  0.5593 -0.5813
 3848SOL    HW215124   2.579   5.547   3.221  0.5067  0.4456 -1.4138
 3848SOL    HW315125   2.701   5.497   3.296  0.5668  0.3986 -1.5419
 3848SOL    MW415126   2.625   5.481   3.257  0.7871  0.2357 -0.1708
 3849SOL     OW15127   2.347   4.717   1.833  0.5399  0.1190 -0.2836
 3849SOL    HW215128   2.277   4.702   1.769  0.4641 -1.3084  0.0999
 3849SOL    HW315129   2.302   4.743   1.913  0.5099 -0.0094 -0.2598
 3849SOL    MW415130   2.332   4.719   1.835 -0.0283  0.4646 -0.3888
 3850SOL     OW15131   2.947   1.713   5.202 -0.3186 -0.0262  0.3061
 3850SOL    HW215132   2.872   1.767   5.179 -0.4676 -0.0715  0.6917
 3850SOL    HW315133   2.931   1.629   5.158 -0.9887 -0.3775  1.2039
 3850SOL    MW415134   2.935   1.709   5.193  0.1605 -0.0090 -1.0065
 3851SOL     OW15135   3.540   5.500   5.407  0.4416 -0.2362 -0.4921
 3851SOL    HW215136   3.589   5.434   5.456 -0.2659  0.3039  1.0263
 3851SOL    HW315137   3.510   5.454   5.329 -0.4825 -1.9055  0.7714
 3851SOL    MW415138   3.542   5.485   5.403  0.4794 -0.1694 -0.0989
 3852SOL     OW15139   3.222   1.752   0.596  0.1761 -0.0018 -1.2164
 3852SOL    HW215140   3.309   1.731   0.628 -0.9001 -2.6660  0.1974
 3852SOL    HW315141   3.209   1.694   0.521 -1.5566 -2.1547  0.6278
 3852SOL    MW415142   3.232   1.742   0.590 -0.0573 -0.3252  0.1190
 3853SOL     OW15143   4.791   4.232   5.326 -0.0462  0.5091  0.0137
 3853SOL    HW215144   4.773   4.286   5.402 -0.8726  2.9072 -1.7733
 3853SOL    HW315145   4.713   4.178   5.316  0.0199  0.2591  0.7600
 3853SOL    MW415146   4.779   4.232   5.335 -0.8484 -0.3492 -0.4010
 3854SOL     OW15147   2.600   5.691   2.690  0.3302  0.2587  0.1124
 3854SOL    HW215148   2.634   5.777   2.715 -0.3277 -0.1124  2.4561
 3854SOL    HW315149   2.529   5.710   2.629  1.1187  1.2713 -0.5360
 3854SOL    MW415150   2.595   5.705   2.685  0.1063 -0.5865 -0.0282
 3855SOL     OW15151   4.341   3.263   0.973 -0.3025 -0.0716  0.1565
 3855SOL    HW215152   4.390   3.255   0.892  0.0502  2.5566  0.0249
 3855SOL    HW315153   4.407   3.254   1.042 -0.5916 -2.2318  0.2112
 3855SOL    MW415154   4.356   3.261   0.972  0.2373 -0.8496 -0.5521
 3856SOL     OW15155   3.966   4.484   6.263 -0.0275  0.4794  0.0773
 3856SOL    HW215156   3.982   4.394   6.291  1.9224  0.5470 -0.6409
 3856SOL    HW315157   3.994   4.537   6.337 -0.6164  0.5185  0.2751
 3856SOL    MW415158   3.972   4.479   6.276 -1.1283 -0.2511  0.3090
 3857SOL     OW15159   2.230   5.748   1.512 -0.3118 -0.0786  0.2785
 3857SOL    HW215160   2.291   5.685   1.473 -0.6770 -0.2185 -0.0906
 3857SOL    HW315161   2.264   5.834   1.487 -0.1914 -0.1538  0.1834
 3857SOL    MW415162   2.242   5.751   1.503  0.5113 -0.5701  0.2038
 3858SOL     OW15163   5.452   5.741   0.312 -0.4004  0.3964  0.5292
 3858SOL    HW215164   5.491   5.789   0.386  0.3950  0.9151 -0.2078
 3858SOL    HW315165   5.504   5.661   0.305  0.0924  0.7544 -0.0039
 3858SOL    MW415166   5.464   5.737   0.321  0.0307  0.5496  0.0891
 3859SOL     OW15167   1.594   4.849   0.133 -0.9857 -0.2336  0.4419
 3859SOL    HW215168   1.504   4.843   0.165 -0.2227  0.3799  2.9718
 3859SOL    HW315169   1.645   4.794   0.193  0.3268 -0.7889 -1.0914
 3859SOL    MW415170   1.589   4.841   0.145 -0.1501  0.2396  0.6016
 3860SOL     OW15171   5.859   0.507   0.307  0.4818 -0.1182 -0.2227
 3860SOL    HW215172   5.814   0.546   0.382  0.0449 -0.0693 -0.5044
 3860SOL    HW315173   5.825   0.555   0.232  1.8812  0.7323 -0.3579
 3860SOL    MW415174   5.848   0.519   0.307 -0.4526 -0.3449  0.1365
 3861SOL     OW15175   0.555   0.662   2.644  0.5551  0.7929  0.2916
 3861SOL    HW215176   0.551   0.750   2.608  2.0694  1.1452  0.9221
 3861SOL    HW315177   0.465   0.630   2.639 -0.0346  2.4016  0.1215
 3861SOL    MW415178   0.542   0.670   2.639  0.2396 -0.2933  0.4596
 3862SOL     OW15179   1.829   4.230   5.200 -0.4068  0.3007  0.0060
 3862SOL    HW215180   1.867   4.239   5.287 -0.3155  1.7427 -0.1625
 3862SOL    HW315181   1.849   4.140   5.174 -0.4682 -0.1580  1.4748
 3862SOL    MW415182   1.837   4.219   5.208 -0.4795 -0.1591 -0.3457
 3863SOL     OW15183   0.715   0.650   2.899  0.1862  0.3607  0.2369
 3863SOL    HW215184   0.644   0.675   2.958 -0.7750 -1.6218  0.0186
 3863SOL    HW315185   0.674   0.641   2.813  0.8531 -0.0823 -0.0510
 3863SOL    MW415186   0.701   0.652   2.895 -0.1748 -0.1542  0.4612
 3864SOL     OW15187   5.152   3.116   0.823 -0.9490 -0.2922 -0.4923
 3864SOL    HW215188   5.174   3.194   0.771  0.9036  1.0219  2.0465
 3864SOL    HW315189   5.102   3.150   0.897 -1.0907 -1.6893  0.0697
 3864SOL    MW415190   5.149   3.131   0.826  0.4836  0.2431  0.1259
 3865SOL     OW15191   4.471   1.754   1.147  0.1632 -0.1756 -0.2286
 3865SOL    HW215192   4.403   1.691   1.123 -1.7021  1.5391  0.2223
 3865SOL    HW315193   4.507   1.719   1.229 -0.5154 -0.8910 -0.2150
 3865SOL    MW415194   4.466   1.741   1.155  0.0658  0.0772 -0.3011
 3866SOL     OW15195   1.146   3.923   3.260 -0.0832  0.0830 -0.2662
 3866SOL    HW215196   1.121   3.831   3.270 -1.0550  0.4109  0.4788
 3866SOL    HW315197   1.171   3.931   3.168 -0.4728 -0.8116 -0.4618
 3866SOL    MW415198   1.146   3.912   3.249  0.4924 -0.0929 -0.0059
 3867SOL     OW15199   2.568   0.177   0.524  0.0882  0.2560  0.1745
 3867SOL    HW215200   2.565   0.160   0.430 -0.1989 -1.1672  0.4199
 3867SOL    HW315201   2.580   0.271   0.531  0.0113  0.3929 -1.2875
 3867SOL    MW415202   2.569   0.187   0.513 -0.4138 -0.1451 -0.3704
 3868SOL     OW15203   2.677   1.188   0.309  0.6313 -0.7889  0.4058
 3868SOL    HW215204   2.685   1.143   0.225 -0.4279 -0.4089  0.0894
 3868SOL    HW315205   2.766   1.217   0.330  0.7987 -0.3528 -0.8682
 3868SOL    MW415206   2.690   1.186   0.301 -0.1445 -0.2933 -0.4986
 3869SOL     OW15207   1.614   3.753   4.037  0.4341 -0.5531 -0.1368
 3869SOL    HW215208   1.532   3.705   4.023 -0.0439  0.4425 -0.8706
 3869SOL    HW315209   1.681   3.686   4.044 -0.3590 -1.3589 -0.1570
 3869SOL    MW415210   1.612   3.738   4.036 -0.3900 -0.3056  0.7388
 3870SOL     OW15211   1.959   4.691   1.830 -0.1941 -0.4112 -0.2050
 3870SOL    HW215212   1.968   4.608   1.878 -1.6454 -0.1656  0.5287
 3870SOL    HW315213   1.993   4.671   1.743  0.5552 -1.4463  0.2965
 3870SOL    MW415214   1.965   4.677   1.825  0.2241  0.4762 -0.2758
 3871SOL     OW15215   0.900   0.560   3.081  0.3047  0.2304  0.0449
 3871SOL    HW215216   0.991   0.574   3.058  0.1853 -0.6181 -1.0217
 3871SOL    HW315217   0.850   0.610   3.016  0.0006 -0.4278 -0.2409
 3871SOL    MW415218   0.905   0.569   3.069  0.1808  0.0755 -0.0770
 3872SOL     OW15219   3.735   3.393   2.887  0.0475  0.3003 -0.6247
 3872SOL    HW215220   3.643   3.370   2.898  0.3503 -0.9749 -0.6331
 3872SOL    HW315221   3.740   3.432   2.800 -0.0748 -2.0684 -1.7757
 3872SOL    MW415222   3.723   3.395   2.877 -0.0403 -0.2437 -0.9703
 3873SOL     OW15223   4.487   5.366   3.088 -0.4247  0.0160  0.4041
 3873SOL    HW215224   4.581   5.359   3.075 -0.2002  2.0773  0.5100
 3873SOL    HW315225   4.478   5.398   3.178 -1.1379  0.9640  0.0145
 3873SOL    MW415226   4.498   5.370   3.099  0.5940  0.3263  0.2165
 3874SOL     OW15227   3.020   5.484   0.834  0.1837 -0.1498 -0.1805
 3874SOL    HW215228   3.059   5.508   0.750 -0.7823 -0.7664 -0.8233
 3874SOL    HW315229   3.095   5.475   0.893  0.9242 -0.2420 -1.1068
 3874SOL    MW415230   3.035   5.486   0.830  0.4903 -0.0348  0.3091
 3875SOL     OW15231   4.592   3.815   6.096  0.2062  0.0503  0.0908
 3875SOL    HW215232   4.526   3.752   6.066 -0.8523  2.0225 -2.0704
 3875SOL    HW315233   4.541   3.889   6.128  1.3607  1.0749 -0.3716
 3875SOL    MW415234   4.576   3.816   6.096 -0.0977 -0.5930 -0.3093
 3876SOL     OW15235   0.144   5.844   5.873 -0.2666 -0.1233  0.6787
 3876SOL    HW215236   0.104   5.930   5.888 -0.5756 -0.1667  0.1507
 3876SOL    HW315237   0.201   5.858   5.797  0.4098 -0.1624  1.1708
 3876SOL    MW415238   0.146   5.857   5.865  0.3220 -0.1291 -0.0373
 3877SOL     OW15239   0.960   0.453   6.287  0.0479  0.5012 -0.3697
 3877SOL    HW215240   0.970   0.440   6.381  0.4993 -1.0204 -0.6028
 3877SOL    HW315241   1.046   0.432   6.250 -0.6546 -0.8934 -1.2932
 3877SOL    MW415242   0.973   0.449   6.294  0.4621 -0.4193 -0.0576
 3878SOL     OW15243   0.168   4.015   1.609 -0.1081  0.4967 -0.5140
 3878SOL    HW215244   0.089   3.961   1.620  1.0619 -1.3734 -0.9500
 3878SOL    HW315245   0.195   4.037   1.698 -1.5509  1.8898 -0.3676
 3878SOL    MW415246   0.161   4.011   1.622  0.1848  0.3542  0.0355
 3879SOL     OW15247   3.220   3.223   5.751  0.7710 -0.0108 -0.0911
 3879SOL    HW215248   3.129   3.236   5.724  1.1009  0.3211 -1.0739
 3879SOL    HW315249   3.256   3.163   5.687  1.3984  0.2852 -0.0198
 3879SOL    MW415250   3.212   3.217   5.739  0.1238  0.2574  0.0325
 3880SOL     OW15251   1.001   4.188   5.096  0.0069  0.0483  0.0890
 3880SOL    HW215252   0.961   4.272   5.072  0.9333  0.1519 -1.1988
 3880SOL    HW315253   0.928   4.126   5.095 -1.4728  1.3307  4.6299
 3880SOL    MW415254   0.986   4.191   5.093  0.0007 -0.2620  0.1282
 3881SOL     OW15255   1.617   2.465   2.572 -0.1530 -0.2614 -1.0747
 3881SOL    HW215256   1.698   2.419   2.596  0.5492  1.0117 -0.9148
 3881SOL    HW315257   1.604   2.528   2.642 -2.0236 -1.2851 -0.4161
 3881SOL    MW415258   1.626   2.467   2.584  0.1847 -0.0908  0.5553
 3882SOL     OW15259   2.013   5.949   2.326  0.1977  0.4845  0.2847
 3882SOL    HW215260   1.993   6.022   2.268  0.4351 -1.7710 -2.9200
 3882SOL    HW315261   2.083   5.901   2.281  0.3248 -1.4954  2.4055
 3882SOL    MW415262   2.020   5.952   2.312  0.1124 -0.0188 -0.1685
 3883SOL     OW15263   4.238   5.859   2.678  0.2806 -0.1419 -0.3150
 3883SOL    HW215264   4.173   5.860   2.608 -0.4718  1.0809  0.3698
 3883SOL    HW315265   4.196   5.808   2.748 -0.3597  1.3870  0.4666
 3883SOL    MW415266   4.224   5.852   2.678 -0.0142 -0.0506 -0.9022
 3884SOL     OW15267   6.283   5.212   0.759 -0.0957  0.4858 -0.1306
 3884SOL    HW215268   6.310   5.152   0.690 -1.9685 -0.3490 -0.2131
 3884SOL    HW315269   6.332   5.184   0.837 -2.5128 -2.7382  0.4287
 3884SOL    MW415270   6.293   5.200   0.760  0.2051 -0.4127 -0.3558
 3885SOL     OW15271   4.150   3.177   4.251 -0.5053  0.1990 -0.1295
 3885SOL    HW215272   4.082   3.240   4.227  0.6139  0.9409 -1.5551
 3885SOL    HW315273   4.117   3.093   4.221 -1.4484  0.3117  0.5741
 3885SOL    MW415274   4.137   3.174   4.244  0.5658  0.2050 -0.0227
 3886SOL     OW15275   2.157   1.938   6.198 -0.1368 -1.0637  0.4308
 3886SOL    HW215276   2.185   2.008   6.139 -1.2323  0.1137  1.2738
 3886SOL    HW315277   2.081   1.899   6.154 -1.1567  0.0256  1.1483
 3886SOL    MW415278   2.151   1.942   6.184  0.3366  0.0618  0.2035
 3887SOL     OW15279   2.099   1.388   3.644 -0.0905 -0.1966  0.2310
 3887SOL    HW215280   2.078   1.339   3.565  1.5348 -1.1334  0.3321
 3887SOL    HW315281   2.093   1.479   3.618  2.2640 -0.4498 -1.5861
 3887SOL    MW415282   2.096   1.393   3.630 -0.0493 -0.1527  0.1070
 3888SOL     OW15283   3.034   2.726   1.466  0.9141 -0.9680  0.2243
 3888SOL    HW215284   3.076   2.713   1.552 -0.5077  1.2247  1.3294
 3888SOL    HW315285   3.061   2.814   1.440 -1.3310 -0.2772  0.0424
 3888SOL    MW415286   3.043   2.736   1.474 -0.1260 -0.8835 -0.2907
 3889SOL     OW15287   2.061   4.637   0.669 -0.1045 -0.2142 -0.1918
 3889SOL    HW215288   2.098   4.616   0.754 -1.0107  0.1925  0.3141
 3889SOL    HW315289   2.136   4.635   0.609  0.2279 -2.7862  0.1628
 3889SOL    MW415290   2.076   4.634   0.672  0.0648 -0.4582 -0.3041
 3890SOL     OW15291   6.140   5.123   2.237  0.0078  0.6230  0.4723
 3890SOL    HW215292   6.198   5.067   2.185  2.4619  2.5213  0.9546
 3890SOL    HW315293   6.090   5.173   2.172  0.1226  0.1485  0.0154
 3890SOL    MW415294   6.141   5.122   2.222 -0.2438  0.1109  0.1957
 3891SOL     OW15295   2.470   0.363   2.752  1.0791  0.3071  0.6546
 3891SOL    HW215296   2.557   0.381   2.787  2.1782 -3.0938  0.0438
 3891SOL    HW315297   2.418   0.339   2.828  0.8548  1.5676  0.9220
 3891SOL    MW415298   2.475   0.362   2.766 -0.1933 -0.1666  0.2040
 3892SOL     OW15299   4.570   3.402   6.363 -0.2668 -0.4961 -0.3925
 3892SOL    HW215300   4.617   3.319   6.359  0.2368 -0.4215  2.2935
 3892SOL    HW315301   4.634   3.467   6.333  1.4158 -0.4394  2.8871
 3892SOL    MW415302   4.585   3.400   6.358  0.1432  0.1133  0.2778
 3893SOL     OW15303   1.813   2.693   2.457 -0.8703  0.4061  0.1445
 3893SOL    HW215304   1.842   2.725   2.542 -1.9192  1.0002  0.2840
 3893SOL    HW315305   1.789   2.601   2.473  0.4771  0.0210  0.1152
 3893SOL    MW415306   1.814   2.685   2.470  0.2017  0.4064  0.0703
 3894SOL     OW15307   2.853   4.270   0.209  0.4282  0.2522  0.5547
 3894SOL    HW215308   2.759   4.254   0.217  0.1744  1.4394  0.1306
 3894SOL    HW315309   2.875   4.232   0.124  0.6238 -1.2024  1.2171
 3894SOL    MW415310   2.843   4.263   0.199 -0.3008 -0.3130 -0.2275
 3895SOL     OW15311   4.133   4.351   4.272  0.5189  0.0879  0.1653
 3895SOL    HW215312   4.055   4.319   4.318  0.8524  0.7800  1.2488
 3895SOL    HW315313   4.109   4.439   4.242  0.7311  0.1380  0.1397
 3895SOL    MW415314   4.119   4.359   4.274  0.7622  0.4772 -0.0108
 3896SOL     OW15315   0.369   3.501   5.843  0.1222 -0.2989  0.2504
 3896SOL    HW215316   0.382   3.449   5.923 -1.5767 -0.4654  0.4623
 3896SOL    HW315317   0.275   3.496   5.827  0.4609 -0.5230 -1.9485
 3896SOL    MW415318   0.358   3.493   5.852 -0.0444  0.0363 -0.4484
 3897SOL     OW15319   0.195   4.874   3.107  0.0967 -0.8293 -0.3734
 3897SOL    HW215320   0.115   4.858   3.158  0.6394 -1.8342  0.1979
 3897SOL    HW315321   0.265   4.877   3.173  0.8391 -2.3624 -1.0387
 3897SOL    MW415322   0.193   4.872   3.123  0.1053 -0.5245  0.1222
 3898SOL     OW15323   6.118   6.199   3.016  0.4576  0.0553 -0.4184
 3898SOL    HW215324   6.162   6.276   2.980  1.0705  0.1635  0.5037
 3898SOL    HW315325   6.137   6.128   2.955 -1.6431  0.9703 -2.2736
 3898SOL    MW415326   6.126   6.200   3.003 -0.3313 -0.2999  0.6157
 3899SOL     OW15327   4.697   5.983   2.063 -0.3301 -0.5438 -0.1998
 3899SOL    HW215328   4.782   6.021   2.087 -0.8297 -0.3176  1.3079
 3899SOL    HW315329   4.678   5.921   2.133 -0.9233 -1.4030 -1.0918
 3899SOL    MW415330   4.706   5.980   2.075 -0.2747  0.3378  0.9263
 3900SOL     OW15331   0.076   2.675   6.134  0.0710  0.4199 -0.9737
 3900SOL    HW215332   0.136   2.748   6.145  0.8489  0.0502 -2.4613
 3900SOL    HW315333   0.006   2.691   6.198  2.2667  0.2611  1.6494
 3900SOL    MW415334   0.075   2.686   6.144  0.2772  0.3064 -0.1713
 3901SOL     OW15335   1.093   3.396   4.363 -0.1366 -0.6499  0.3433
 3901SOL    HW215336   1.180   3.437   4.366  0.0603 -0.8041 -1.7230
 3901SOL    HW315337   1.032   3.469   4.366  0.1836 -0.2294 -1.7754
 3901SOL    MW415338   1.097   3.411   4.364  0.0587 -0.0025 -0.2559
 3902SOL     OW15339   5.054   2.630   2.888 -0.2642  0.1185  0.1260
 3902SOL    HW215340   5.108   2.699   2.849 -0.2710 -0.2760 -0.6181
 3902SOL    HW315341   5.023   2.580   2.812 -0.4984 -0.5184  0.6382
 3902SOL    MW415342   5.057   2.632   2.873  1.1799  0.6216 -0.8078
 3903SOL     OW15343   0.520   5.794   2.319 -0.0796 -0.2561  0.3482
 3903SOL    HW215344   0.458   5.797   2.392 -1.7083 -0.4014 -0.9982
 3903SOL    HW315345   0.575   5.718   2.338  0.2930  0.3717  2.0010
 3903SOL    MW415346   0.519   5.784   2.331  0.3751  0.5604 -0.1353
 3904SOL     OW15347   4.422   3.964   3.343 -0.4314  0.3294  0.6805
 3904SOL    HW215348   4.403   3.945   3.251  0.0797 -1.5070  0.9061
 3904SOL    HW315349   4.337   3.963   3.386 -0.5482 -0.1051  0.4419
 3904SOL    MW415350   4.409   3.962   3.336  0.5949  0.0838  0.0837
 3905SOL     OW15351   2.595   2.320   5.244  0.6163 -0.1781 -0.1680
 3905SOL    HW215352   2.654   2.244   5.249  2.2281  1.1082  2.8761
 3905SOL    HW315353   2.646   2.387   5.199  0.0166 -0.1925 -0.8846
 3905SOL    MW415354   2.609   2.319   5.238 -0.3826 -0.3740 -0.0674
 3906SOL     OW15355   2.182   2.806   3.848  0.3705  0.0065 -0.5476
 3906SOL    HW215356   2.136   2.723   3.839 -1.5944  0.8600  0.9161
 3906SOL    HW315357   2.242   2.792   3.921 -1.3161  0.3522  0.9867
 3906SOL    MW415358   2.184   2.793   3.856  0.1758 -0.1557  0.1083
 3907SOL     OW15359   4.284   2.828   0.331 -0.3037  0.1516  0.8302
 3907SOL    HW215360   4.199   2.796   0.299  0.3004 -0.7685  0.1123
 3907SOL    HW315361   4.293   2.790   0.418 -0.1199 -0.7016  0.4477
 3907SOL    MW415362   4.274   2.819   0.338  0.6366 -0.0668 -0.1603
 3908SOL     OW15363   0.564   1.862   1.776 -0.2828  0.2097  0.1739
 3908SOL    HW215364   0.574   1.818   1.691  0.9849  2.4941 -0.9736
 3908SOL    HW315365   0.653   1.870   1.810 -0.6356  0.5148  1.0585
 3908SOL    MW415366   0.577   1.858   1.769  0.5342 -0.4646  0.4336
 3909SOL     OW15367   3.309   1.910   2.867 -0.4075 -0.2235  0.2451
 3909SOL    HW215368   3.214   1.924   2.862 -0.4360  0.0138  1.1789
 3909SOL    HW315369   3.340   1.921   2.777 -1.6168 -3.0891 -0.6493
 3909SOL    MW415370   3.300   1.913   2.855 -0.2989  0.4617  0.3997
 3910SOL     OW15371   4.542   4.182   5.060 -0.6101  0.1061 -0.0625
 3910SOL    HW215372   4.627   4.158   5.022 -0.6153 -1.1532  0.6724
 3910SOL    HW315373   4.524   4.269   5.024  1.1713  0.5808  0.0794
 3910SOL    MW415374   4.551   4.190   5.050 -0.3305 -0.0968 -0.2336
 3911SOL     OW15375   0.118   3.239   4.588 -0.7321  0.3755  0.4386
 3911SOL    HW215376   0.115   3.284   4.504 -0.6852 -0.4899 -0.0410
 3911SOL    HW315377   0.136   3.147   4.566  0.9722  0.3975  1.4767
 3911SOL    MW415378   0.120   3.233   4.574  0.4026 -0.2773  0.2532
 3912SOL     OW15379   4.756   1.413   5.151 -0.0186  0.4949 -0.2315
 3912SOL    HW215380   4.715   1.348   5.094  0.1917 -1.2988  1.5806
 3912SOL    HW315381   4.819   1.364   5.204  0.0042  2.1178  1.3511
 3912SOL    MW415382   4.759   1.398   5.150 -0.4532  0.3483 -0.0910
 3913SOL     OW15383   2.707   1.773   2.365  0.0109  0.4952 -0.2551
 3913SOL    HW215384   2.731   1.694   2.412  0.2831 -0.0728 -1.3064
 3913SOL    HW315385   2.673   1.832   2.432  1.3197  0.1052  0.8049
 3913SOL    MW415386   2.706   1.770   2.380  0.0936  0.0153  0.6697
 3914SOL     OW15387   2.287   3.256   5.145 -0.6075 -0.0337  0.0091
 3914SOL    HW215388   2.310   3.349   5.147  0.2316 -0.2162 -0.5968
 3914SOL    HW315389   2.371   3.211   5.153 -1.1401 -0.7711  1.8223
 3914SOL    MW415390   2.301   3.263   5.146  0.1418  0.7309  0.2189
 3915SOL     OW15391   6.231   5.644   2.539  0.3555  0.1114  1.4133
 3915SOL    HW215392   6.256   5.660   2.448 -1.4840  0.9254  0.9958
 3915SOL    HW315393   6.262   5.721   2.587  0.5822  0.0749  1.3263
 3915SOL    MW415394   6.238   5.656   2.533  0.3928 -0.1398 -0.0775
 3916SOL     OW15395   4.849   5.339   4.120  0.5751  0.3627  0.0121
 3916SOL    HW215396   4.845   5.278   4.046 -0.8702  1.5347 -0.9433
 3916SOL    HW315397   4.885   5.420   4.082 -0.6117  1.1207  0.4502
 3916SOL    MW415398   4.853   5.342   4.105  0.2522  0.0324  0.2905
 3917SOL     OW15399   1.181   5.996   1.048 -0.0877  0.5605 -0.3415
 3917SOL    HW215400   1.112   6.020   1.110  0.1978 -0.7853  0.5478
 3917SOL    HW315401   1.157   6.040   0.967 -2.5421 -0.6085 -0.3448
 3917SOL    MW415402   1.169   6.005   1.046  0.2415  0.3946 -0.0880
 3918SOL     OW15403   4.485   4.436   3.432 -0.2225  0.1226  0.3765
 3918SOL    HW215404   4.428   4.496   3.384  0.5937  0.1553 -0.5794
 3918SOL    HW315405   4.517   4.487   3.506  0.5333  0.9173 -0.4718
 3918SOL    MW415406   4.482   4.451   3.435  0.4770  0.4885 -0.3141
 3919SOL     OW15407   5.184   3.377   4.184 -0.1908  0.4307  0.3218
 3919SOL    HW215408   5.149   3.466   4.188 -1.0799  0.1386 -0.5437
 3919SOL    HW315409   5.272   3.389   4.147 -0.0594  0.9979  0.7901
 3919SOL    MW415410   5.191   3.391   4.180 -0.1445 -0.4350  0.4233
 3920SOL     OW15411   0.114   5.903   0.091 -0.7650  0.3082  0.4517
 3920SOL    HW215412   0.147   5.959   0.020  2.9827  0.0075  1.7009
 3920SOL    HW315413   0.039   5.950   0.127 -1.0162  1.8486 -1.8862
 3920SOL    MW415414   0.109   5.917   0.086  0.4182  0.2211  0.4232
 3921SOL     OW15415   4.408   0.637   4.017  0.1642 -0.4223  0.2379
 3921SOL    HW215416   4.338   0.618   4.080 -0.1076  1.5278  0.5765
 3921SOL    HW315417   4.474   0.683   4.069  1.0033 -0.8654 -0.4194
 3921SOL    MW415418   4.407   0.640   4.032 -0.3589 -0.2105  0.1833
 3922SOL     OW15419   0.583   5.180   5.339  0.3498 -0.0229 -0.5764
 3922SOL    HW215420   0.651   5.247   5.351  2.0544 -1.8049  0.2882
 3922SOL    HW315421   0.500   5.227   5.350  1.4529  2.0329 -0.6262
 3922SOL    MW415422   0.581   5.195   5.342  0.0773  0.2033  0.1050
 3923SOL     OW15423   3.792   2.814   4.337 -0.3710 -0.8673 -0.4604
 3923SOL    HW215424   3.823   2.746   4.397  0.3107 -0.5548 -0.4512
 3923SOL    HW315425   3.803   2.896   4.384 -3.1238 -0.8520  0.3445
 3923SOL    MW415426   3.797   2.816   4.351  0.0774 -0.0336  0.1447
 3924SOL     OW15427   4.617   5.023   1.991 -0.6024  0.1011 -0.2775
 3924SOL    HW215428   4.568   5.082   1.933 -0.8914 -0.8737 -1.0579
 3924SOL    HW315429   4.560   4.948   2.002 -0.9659  0.6402  2.0834
 3924SOL    MW415430   4.603   5.021   1.985  0.1377 -0.0367 -0.5947
 3925SOL     OW15431   4.783   0.992   4.955 -0.3050  0.0907  0.1494
 3925SOL    HW215432   4.760   0.997   5.048 -1.4608 -2.0930  0.0277
 3925SOL    HW315433   4.786   0.899   4.936 -0.5336  0.5020 -2.1302
 3925SOL    MW415434   4.781   0.981   4.965  0.0514  0.5203  0.6761
 3926SOL     OW15435   4.869   4.342   4.365 -0.2655  0.8292 -0.0295
 3926SOL    HW215436   4.894   4.254   4.393 -1.2424  0.0544 -1.4585
 3926SOL    HW315437   4.807   4.327   4.293 -0.5365  2.6888 -0.2195
 3926SOL    MW415438   4.864   4.328   4.359 -0.0602  0.3945 -0.4052
 3927SOL     OW15439   0.771   5.796   4.137  0.1026 -0.2964  0.0584
 3927SOL    HW215440   0.726   5.879   4.124  1.1251  0.1245 -0.8998
 3927SOL    HW315441   0.728   5.736   4.076 -0.6512 -0.5043  0.7678
 3927SOL    MW415442   0.759   5.799   4.127 -0.1499  0.5586 -0.0026
 3928SOL     OW15443   3.413   1.175   5.122  0.2791  0.1185  0.3035
 3928SOL    HW215444   3.356   1.125   5.181  0.6243  1.1337  1.5291
 3928SOL    HW315445   3.438   1.252   5.172  1.9795  0.1708 -0.5682
 3928SOL    MW415446   3.409   1.178   5.136  0.2432  0.1559 -0.3168
 3929SOL     OW15447   4.080   5.339   3.662  0.1075  0.6441 -0.7162
 3929SOL    HW215448   4.010   5.362   3.722 -0.1533  0.5606 -0.9865
 3929SOL    HW315449   4.143   5.291   3.715 -0.2777  0.2837 -0.5837
 3929SOL    MW415450   4.079   5.336   3.677  0.0867 -0.1483  0.8552
 3930SOL     OW15451   3.819   5.138   3.375 -0.1742 -0.4200 -0.2657
 3930SOL    HW215452   3.902   5.104   3.408 -0.3688 -0.4893  0.1645
 3930SOL    HW315453   3.796   5.208   3.437 -0.6182 -0.6510 -0.1675
 3930SOL    MW415454   3.827   5.143   3.388  0.3301  0.0207  0.0286
 3931SOL     OW15455   3.996   1.735   5.332 -0.0264  0.2887 -0.7619
 3931SOL    HW215456   3.938   1.800   5.371  0.1197  0.5239 -0.9286
 3931SOL    HW315457   3.938   1.674   5.287 -0.3709 -1.3023  1.6936
 3931SOL    MW415458   3.981   1.736   5.331  0.0649 -0.7717 -0.3320
 3932SOL     OW15459   0.163   6.000   3.475 -0.2806 -0.4801  0.1867
 3932SOL    HW215460   0.151   6.041   3.561  1.0114 -2.1723  1.2406
 3932SOL    HW315461   0.084   5.947   3.464 -0.5095 -0.1613  0.2827
 3932SOL    MW415462   0.151   5.998   3.485 -0.1285  0.2058  0.0971
 3933SOL     OW15463   6.304   3.025   1.140 -0.2936  0.2930  0.9926
 3933SOL    HW215464   6.215   2.990   1.133 -0.0515 -0.1372 -0.3042
 3933SOL    HW315465   6.292   3.118   1.158 -0.9721 -0.1283  2.9671
 3933SOL    MW415466   6.291   3.032   1.141  0.1385  0.2186 -0.0810
 3934SOL     OW15467   0.170   0.288   5.801 -0.3205 -0.5520  0.3782
 3934SOL    HW215468   0.195   0.278   5.893 -1.2476 -0.3187  0.6623
 3934SOL    HW315469   0.086   0.333   5.804  0.1262  0.3885 -0.6256
 3934SOL    MW415470   0.162   0.292   5.814 -0.7422 -0.0615 -0.5032
 3935SOL     OW15471   0.945   3.725   3.802  0.2869  0.0939  0.0692
 3935SOL    HW215472   0.961   3.761   3.715 -0.2266  0.9406  0.3106
 3935SOL    HW315473   0.992   3.642   3.803  1.0676  0.5147 -0.6930
 3935SOL    MW415474   0.953   3.719   3.791  0.0802  0.3386 -0.7100
 3936SOL     OW15475   5.911   1.361   0.364 -0.5809  0.2049  0.0693
 3936SOL    HW215476   5.906   1.457   0.369 -2.8910  0.1445  0.2021
 3936SOL    HW315477   5.838   1.337   0.307 -1.7545 -1.6138  2.2060
 3936SOL    MW415478   5.901   1.371   0.357 -0.4359 -0.1598  0.8437
 3937SOL     OW15479   5.209   2.846   3.472  0.5225 -0.1756 -0.0768
 3937SOL    HW215480   5.281   2.849   3.409  0.2879  1.4184 -0.2945
 3937SOL    HW315481   5.198   2.936   3.501 -1.3389 -0.3791 -0.0052
 3937SOL    MW415482   5.217   2.858   3.467 -0.8034  0.2476 -0.4460
 3938SOL     OW15483   3.076   5.185   1.256  0.1321  0.2107 -0.4217
 3938SOL    HW215484   3.095   5.109   1.311  1.3123  0.4460 -0.4833
 3938SOL    HW315485   3.139   5.179   1.184  1.1300  1.9053  0.2365
 3938SOL    MW415486   3.087   5.175   1.254 -0.5321  0.0301 -0.2984
 3939SOL     OW15487   6.230   2.899   4.653 -0.5654 -0.1847 -0.1469
 3939SOL    HW215488   6.225   2.989   4.623  1.4139  0.0948  0.2541
 3939SOL    HW315489   6.286   2.854   4.590 -2.2449 -1.4079 -0.8572
 3939SOL    MW415490   6.236   2.905   4.641  0.7164 -0.4414  0.2144
 3940SOL     OW15491   2.120   5.631   5.460  0.0542  0.1521 -0.2454
 3940SOL    HW215492   2.030   5.613   5.434  0.4102 -0.9351 -0.7529
 3940SOL    HW315493   2.169   5.633   5.378  0.4955  0.8061  0.0218
 3940SOL    MW415494   2.115   5.629   5.446  0.1122 -0.3030 -0.0709
 3941SOL     OW15495   4.414   4.526   0.939  0.8458 -0.1100 -0.4519
 3941SOL    HW215496   4.340   4.477   0.974 -0.9219  0.8103 -2.6339
 3941SOL    HW315497   4.469   4.460   0.896  1.1068 -0.7390  0.8137
 3941SOL    MW415498   4.412   4.511   0.938  0.0329  0.7151 -0.2959
 3942SOL     OW15499   2.525   1.053   1.006 -0.3316 -0.4986 -0.1956
 3942SOL    HW215500   2.442   1.074   0.964  0.4318 -1.3776 -2.2990
 3942SOL    HW315501   2.581   1.129   0.986 -0.0013 -0.8637 -0.6768
 3942SOL    MW415502   2.522   1.066   0.998 -0.4741 -0.6199  0.5462
 3943SOL     OW15503   0.368   2.149   5.801 -0.3931 -0.0417 -0.4258
 3943SOL    HW215504   0.463   2.150   5.810 -0.4599 -1.2960  0.6863
 3943SOL    HW315505   0.335   2.159   5.890 -1.3111  0.0611 -0.7668
 3943SOL    MW415506   0.376   2.151   5.814  0.2908 -0.4616 -0.4712
 3944SOL     OW15507   4.353   5.798   3.583  0.2348  0.5762  0.0942
 3944SOL    HW215508   4.311   5.717   3.555  0.8841  0.0786  0.5284
 3944SOL    HW315509   4.313   5.866   3.529 -0.3486 -0.0263 -0.2426
 3944SOL    MW415510   4.342   5.797   3.572 -0.0603 -0.2357 -0.6181
 3945SOL     OW15511   5.797   0.590   1.824  0.1859  0.6618  0.0462
 3945SOL    HW215512   5.718   0.624   1.781 -1.1360  0.5272  2.2018
 3945SOL    HW315513   5.812   0.650   1.898  0.1848 -1.0895  1.5515
 3945SOL    MW415514   5.789   0.603   1.828 -0.4151  0.3143 -0.2843
 3946SOL     OW15515   3.096   3.956   1.956 -0.0133  0.0336 -0.1536
 3946SOL    HW215516   3.036   3.884   1.939  0.3107 -0.4889  0.8640
 3946SOL    HW315517   3.182   3.923   1.931  0.6354 -1.1007  3.1203
 3946SOL    MW415518   3.099   3.942   1.950 -0.1866  0.0837 -0.1646
 3947SOL     OW15519   3.031   4.441   1.480 -0.0627 -0.2972 -0.1586
 3947SOL    HW215520   3.104   4.479   1.431  0.7426 -1.1494  0.3562
 3947SOL    HW315521   3.032   4.485   1.564  0.2602 -0.7513  0.0797
 3947SOL    MW415522   3.040   4.452   1.485  0.0793 -0.3007  0.1362
 3948SOL     OW15523   2.763   4.032   0.886 -0.4671  0.0656  0.0005
 3948SOL    HW215524   2.667   4.026   0.890 -0.5107  0.2927 -0.6075
 3948SOL    HW315525   2.789   4.058   0.974 -0.9977  0.4104  0.0591
 3948SOL    MW415526   2.753   4.034   0.898 -0.0455  0.0767 -0.2607
 3949SOL     OW15527   4.779   6.062   0.708 -0.6206  0.0517  0.0256
 3949SOL    HW215528   4.788   5.968   0.688 -1.1660 -0.3649  1.5816
 3949SOL    HW315529   4.688   6.073   0.733 -0.4349  0.8829  0.3794
 3949SOL    MW415530   4.768   6.051   0.709  0.5436  0.2653 -0.1781
 3950SOL     OW15531   2.159   5.098   3.917  0.1368 -0.3427 -0.5546
 3950SOL    HW215532   2.065   5.088   3.899 -0.3038  2.1625  0.0442
 3950SOL    HW315533   2.168   5.073   4.009  0.0618 -0.5386 -0.5988
 3950SOL    MW415534   2.148   5.093   3.927  0.2225  0.1182 -0.1147
 3951SOL     OW15535   2.815   4.435   3.911 -0.9074  0.5605  0.0287
 3951SOL    HW215536   2.726   4.414   3.940  0.1893 -2.7424  1.4927
 3951SOL    HW315537   2.810   4.432   3.815 -1.9613 -2.0110  0.0919
 3951SOL    MW415538   2.802   4.432   3.902 -0.2101  0.3479  0.2653
 3952SOL     OW15539   6.298   2.502   0.192  0.0430 -0.0214  0.3210
 3952SOL    HW215540   6.228   2.549   0.147  0.8602 -0.1935 -1.1875
 3952SOL    HW315541   6.313   2.423   0.140  1.1017 -0.1760  0.8171
 3952SOL    MW415542   6.291   2.498   0.179 -0.3938 -0.2382  0.0616
 3953SOL     OW15543   0.228   3.432   4.795  0.0352 -0.1176 -0.1475
 3953SOL    HW215544   0.168   3.506   4.784  0.8145  0.9464  2.0489
 3953SOL    HW315545   0.191   3.363   4.741 -3.4022  0.3518  1.3414
 3953SOL    MW415546   0.215   3.433   4.787 -0.0952  0.0594  0.3901
 3954SOL     OW15547   1.823   4.773   6.285 -0.2804 -0.3019  0.2696
 3954SOL    HW215548   1.873   4.721   6.222 -0.6252 -0.3648  0.0487
 3954SOL    HW315549   1.757   4.818   6.233  0.6818  1.2153  0.2976
 3954SOL    MW415550   1.821   4.772   6.270 -0.0931 -0.4226  0.6034
 3955SOL     OW15551   0.335   3.065   3.050 -0.8326  0.2927  0.0478
 3955SOL    HW215552   0.376   3.151   3.034  1.8293 -0.9408 -0.3011
 3955SOL    HW315553   0.311   3.067   3.142  3.8822 -0.2145  1.5699
 3955SOL    MW415554   0.337   3.077   3.060 -0.4750 -0.0203  0.3162
 3956SOL     OW15555   3.672   2.561   3.808 -0.8571 -0.7758  0.5040
 3956SOL    HW215556   3.663   2.528   3.897  0.8494 -0.4779  0.8044
 3956SOL    HW315557   3.693   2.484   3.755 -0.0039 -0.6688  0.6800
 3956SOL    MW415558   3.673   2.547   3.812  0.4697  0.0788 -0.1030
 3957SOL     OW15559   1.514   1.045   2.473 -0.2199 -0.2703  0.1486
 3957SOL    HW215560   1.550   1.020   2.388  0.3731 -1.4506  0.7123
 3957SOL    HW315561   1.535   1.138   2.481 -0.4377 -0.0955 -1.0578
 3957SOL    MW415562   1.522   1.054   2.463  0.0265 -0.0546  0.3205
 3958SOL     OW15563   4.026   0.490   5.601  0.3435  0.2797  0.1543
 3958SOL    HW215564   3.970   0.415   5.581  1.7210 -0.4774 -1.0734
 3958SOL    HW315565   4.053   0.523   5.515  1.3237  0.9572  0.7070
 3958SOL    MW415566   4.023   0.484   5.587 -0.2018  0.1825 -0.3198
 3959SOL     OW15567   1.928   3.041   1.094 -0.1152 -0.8824 -0.1736
 3959SOL    HW215568   1.891   2.967   1.046 -0.9168 -1.6122  1.4883
 3959SOL    HW315569   1.872   3.051   1.171  1.2227  0.1103  0.7289
 3959SOL    MW415570   1.915   3.033   1.097 -0.0018  0.3249 -0.5621
 3960SOL     OW15571   3.176   3.561   4.394  0.4454  0.1469  0.3351
 3960SOL    HW215572   3.127   3.564   4.312 -1.5710  0.4207  1.4848
 3960SOL    HW315573   3.262   3.596   4.372  0.2463 -0.6398 -1.8404
 3960SOL    MW415574   3.181   3.566   4.381 -0.1194  0.1463  0.4521
 3961SOL     OW15575   0.482   4.789   5.536  0.3709  0.0252 -0.0275
 3961SOL    HW215576   0.420   4.727   5.496  0.6411 -0.3920  0.1866
 3961SOL    HW315577   0.563   4.778   5.487  0.9593 -1.0969  1.1229
 3961SOL    MW415578   0.484   4.779   5.524  0.2904 -0.0033 -0.1329
 3962SOL     OW15579   5.990   1.852   4.309 -0.3054  0.4395  0.3472
 3962SOL    HW215580   6.015   1.945   4.312  0.9522  0.1237  0.3703
 3962SOL    HW315581   5.914   1.849   4.251 -0.3716  1.4846  0.3644
 3962SOL    MW415582   5.983   1.864   4.302 -0.5448 -0.1678 -0.0409
 3963SOL     OW15583   5.051   3.361   5.429  0.5713  0.1357  0.1637
 3963SOL    HW215584   4.988   3.431   5.445 -0.3894 -0.7657  0.4496
 3963SOL    HW315585   5.136   3.405   5.428  0.1369  1.1028  1.8129
 3963SOL    MW415586   5.054   3.376   5.431 -0.3438 -0.4900  0.1918
 3964SOL     OW15587   1.128   1.816   5.669 -0.3559 -0.4821  0.7760
 3964SOL    HW215588   1.147   1.850   5.582 -1.3277 -0.0204  0.7367
 3964SOL    HW315589   1.158   1.886   5.729  0.0799 -0.6933  0.8115
 3964SOL    MW415590   1.135   1.830   5.666  0.1531 -0.2033 -0.1352
 3965SOL     OW15591   5.544   2.413   1.917 -0.0809 -0.7467 -0.1715
 3965SOL    HW215592   5.589   2.497   1.927 -1.4548 -0.0594  0.6312
 3965SOL    HW315593   5.555   2.370   2.002 -0.5202 -0.7770 -0.1279
 3965SOL    MW415594   5.551   2.419   1.929 -0.5765 -0.2423  0.5118
 3966SOL     OW15595   6.114   0.698   1.951  0.4982  0.0388 -0.2175
 3966SOL    HW215596   6.184   0.761   1.966  0.0080  1.2111 -2.4193
 3966SOL    HW315597   6.151   0.614   1.977  0.9792  1.2106  3.3534
 3966SOL    MW415598   6.128   0.695   1.956 -0.1579 -0.0461  0.1812
 3967SOL     OW15599   2.823   6.140   4.282  0.2534  0.0894 -0.1406
 3967SOL    HW215600   2.906   6.169   4.244  0.0281 -0.0832 -0.7764
 3967SOL    HW315601   2.760   6.145   4.210  0.3072 -2.4664 -0.4621
 3967SOL    MW415602   2.825   6.145   4.267 -0.1167  0.0347  1.0894
 3968SOL     OW15603   0.279   5.730   3.583 -0.3117 -0.4100 -0.3220
 3968SOL    HW215604   0.204   5.787   3.600 -0.3897 -0.0375 -1.7205
 3968SOL    HW315605   0.343   5.751   3.651 -1.3839 -0.5839  0.7590
 3968SOL    MW415606   0.278   5.740   3.594  0.2814 -0.0489  0.1800
 3969SOL     OW15607   3.996   4.914   4.646 -0.4141 -0.5217  0.2093
 3969SOL    HW215608   3.920   4.971   4.659 -0.9411 -0.6300 -2.0899
 3969SOL    HW315609   3.959   4.829   4.624  0.3509 -0.5030 -1.2384
 3969SOL    MW415610   3.981   4.910   4.645 -0.2825  0.2135  0.2846
 3970SOL     OW15611   3.696   1.127   0.617 -0.3422  0.1987 -0.5452
 3970SOL    HW215612   3.733   1.203   0.662  0.0657 -0.3304  0.0209
 3970SOL    HW315613   3.725   1.136   0.526  0.3664  0.3002 -0.3109
 3970SOL    MW415614   3.705   1.138   0.611 -0.6571  0.1445 -0.1159
 3971SOL     OW15615   5.041   4.485   5.811 -0.4492  0.5272  0.0442
 3971SOL    HW215616   5.065   4.539   5.735  0.0489  0.7626  0.3634
 3971SOL    HW315617   4.948   4.504   5.825 -0.7342 -0.0557 -0.9382
 3971SOL    MW415618   5.032   4.495   5.803 -0.5209 -0.0317  0.3842
 3972SOL     OW15619   3.475   4.757   1.127  0.6307  0.4581  0.2848
 3972SOL    HW215620   3.423   4.762   1.207 -1.6854 -3.9115 -0.6094
 3972SOL    HW315621   3.550   4.701   1.150 -0.8932 -2.2193 -0.7024
 3972SOL    MW415622   3.478   4.750   1.141 -0.3340 -0.5449 -0.0910
 3973SOL     OW15623   5.139   4.177   4.169  1.0820 -0.5272  0.3466
 3973SOL    HW215624   5.156   4.236   4.096  0.0014  0.6941  1.0265
 3973SOL    HW315625   5.177   4.221   4.245 -0.4695 -0.2653  1.0044
 3973SOL    MW415626   5.146   4.191   4.169  0.0888  0.1938 -0.2281
 3974SOL     OW15627   0.358   2.283   5.240 -0.5786 -0.1230  0.2169
 3974SOL    HW215628   0.291   2.337   5.199 -1.6627 -0.8618  0.9687
 3974SOL    HW315629   0.352   2.305   5.333  0.1139 -0.3351  0.3197
 3974SOL    MW415630   0.348   2.293   5.247 -0.0689  0.1427 -0.1226
 3975SOL     OW15631   0.500   3.001   2.486  0.0278  0.6640 -0.9824
 3975SOL    HW215632   0.436   2.985   2.417  0.2669  0.8182 -1.2397
 3975SOL    HW315633   0.573   2.943   2.466 -0.2787  0.0428 -0.3500
 3975SOL    MW415634   0.501   2.991   2.475  0.5500 -0.2529 -0.0247
 3976SOL     OW15635   3.189   3.824   4.941 -0.2709 -0.4866 -0.0057
 3976SOL    HW215636   3.235   3.751   4.984  1.6422  0.0970 -0.9200
 3976SOL    HW315637   3.193   3.803   4.848  0.9640  1.0655 -0.3562
 3976SOL    MW415638   3.196   3.811   4.934  0.1078  0.3518 -0.0191
 3977SOL     OW15639   1.896   0.067   5.694  0.0823 -0.3801  0.5736
 3977SOL    HW215640   1.977   0.038   5.736 -0.2518 -1.7467  0.3204
 3977SOL    HW315641   1.869  -0.007   5.639 -0.5167  0.6408 -0.5562
 3977SOL    MW415642   1.903   0.053   5.692  0.2758  0.2597  0.2549
 3978SOL     OW15643   0.832   3.363   0.445 -0.0716 -0.1416  0.0768
 3978SOL    HW215644   0.911   3.400   0.405 -0.6313 -1.6674 -2.7137
 3978SOL    HW315645   0.857   3.346   0.536  1.1156  4.0967  0.7582
 3978SOL    MW415646   0.846   3.365   0.452  0.0288  0.4628 -0.2735
 3979SOL     OW15647   2.699   4.970   3.382  0.0380  0.0181  0.0619
 3979SOL    HW215648   2.732   4.929   3.301 -0.7339  0.9665 -0.7620
 3979SOL    HW315649   2.651   4.900   3.426 -0.8030 -0.1275 -1.0521
 3979SOL    MW415650   2.697   4.955   3.377 -0.0123 -0.3154  0.0843
 3980SOL     OW15651   0.654   4.725   3.431 -0.2495 -1.0780  0.3083
 3980SOL    HW215652   0.743   4.688   3.422 -0.3399 -1.4902  1.0699
 3980SOL    HW315653   0.603   4.680   3.363  0.1071 -0.8706 -0.1055
 3980SOL    MW415654   0.659   4.714   3.421  0.5495  0.2967 -0.4239
 3981SOL     OW15655   0.470   2.575   2.690  0.0989 -0.2587 -0.2644
 3981SOL    HW215656   0.500   2.663   2.710  0.6105 -0.7912  1.4143
 3981SOL    HW315657   0.543   2.518   2.712 -0.5006 -1.1861 -0.5682
 3981SOL    MW415658   0.483   2.579   2.695  0.0504 -0.0510 -0.1881
 3982SOL     OW15659   2.837   2.764   4.517  0.1416  0.3279 -0.0725
 3982SOL    HW215660   2.931   2.777   4.502  0.3758 -1.2086 -0.1221
 3982SOL    HW315661   2.833   2.706   4.593 -0.7820  0.3575 -0.0857
 3982SOL    MW415662   2.849   2.758   4.525  0.2016  0.4029 -0.5653
 3983SOL     OW15663   6.365   2.733   3.566 -0.3358 -0.1462 -0.0463
 3983SOL    HW215664   6.292   2.672   3.574 -0.6880  0.4507  1.5919
 3983SOL    HW315665   6.327   2.811   3.525 -0.7328  0.3243  1.1941
 3983SOL    MW415666   6.351   2.735   3.561  1.1739  0.1525 -0.1852
 3984SOL     OW15667   1.323   4.869   0.142  0.2555 -0.1139  0.7272
 3984SOL    HW215668   1.240   4.824   0.162  0.6319 -1.6099 -0.8400
 3984SOL    HW315669   1.298   4.961   0.133 -0.6963 -0.0489  3.1839
 3984SOL    MW415670   1.309   4.875   0.143  0.3496 -0.4932 -0.0517
 3985SOL     OW15671   3.257   1.030   5.326  0.7270  0.2364 -0.1141
 3985SOL    HW215672   3.227   1.074   5.406  0.2415 -0.6011  0.1802
 3985SOL    HW315673   3.335   0.982   5.353 -1.3777 -2.9823  0.8520
 3985SOL    MW415674   3.264   1.030   5.340 -0.2792  0.0240 -0.0509
 3986SOL     OW15675   6.349   4.127   4.426 -0.7423  0.2492 -0.2082
 3986SOL    HW215676   6.399   4.200   4.462  0.2622 -1.4914  2.1908
 3986SOL    HW315677   6.401   4.098   4.350 -0.7574  1.4897 -0.7182
 3986SOL    MW415678   6.363   4.132   4.420  0.1345 -0.4681 -0.0828
 3987SOL     OW15679   5.756   2.025   5.377 -0.1925 -0.0937  0.1908
 3987SOL    HW215680   5.770   2.118   5.362  0.1020 -0.1085  0.3624
 3987SOL    HW315681   5.827   1.982   5.330 -0.6531 -0.2626 -0.3608
 3987SOL    MW415682   5.767   2.032   5.369 -0.5290  0.3193 -0.3369
 3988SOL     OW15683   5.829   4.037   1.126  0.1433  0.5923 -0.4785
 3988SOL    HW215684   5.801   4.127   1.110 -2.2144 -0.0658 -0.4490
 3988SOL    HW315685   5.782   4.011   1.206  2.2728 -0.0868  0.6209
 3988SOL    MW415686   5.819   4.045   1.135  0.4633  0.2844 -0.3502
 3989SOL     OW15687   1.245   6.152   0.041  0.0113 -0.0713  0.7851
 3989SOL    HW215688   1.186   6.224   0.063 -0.8955  0.0914 -1.8217
 3989SOL    HW315689   1.246   6.150  -0.054  1.1066 -2.6413  0.7617
 3989SOL    MW415690   1.238   6.161   0.032 -0.0139  0.5879  0.1421
 3990SOL     OW15691   0.070   5.078   3.347 -0.3977  0.3645  0.1109
 3990SOL    HW215692   0.134   5.147   3.328  1.1188 -0.9163  0.3725
 3990SOL    HW315693   0.038   5.050   3.261  1.1831 -0.5835 -0.2016
 3990SOL    MW415694   0.074   5.083   3.333 -0.8447 -0.3374  0.2823
 3991SOL     OW15695   1.526   2.218   4.801 -0.1921  0.0956  0.0314
 3991SOL    HW215696   1.563   2.150   4.745  0.6343  0.4993  0.0797
 3991SOL    HW315697   1.586   2.223   4.876 -0.3333  0.7650  0.1064
 3991SOL    MW415698   1.539   2.209   4.803  0.3326 -0.2038  0.1816
 3992SOL     OW15699   1.176   0.341   2.890  0.0974 -0.0166 -0.5394
 3992SOL    HW215700   1.183   0.378   2.802  0.1077  0.6874 -0.2551
 3992SOL    HW315701   1.083   0.322   2.901 -0.3928  2.3991  0.2412
 3992SOL    MW415702   1.165   0.344   2.880  0.5406  0.0577  0.4127
 3993SOL     OW15703   0.718   0.501   0.755 -0.2792  0.0956 -0.5080
 3993SOL    HW215704   0.718   0.425   0.814  3.8903  1.2155  1.3708
 3993SOL    HW315705   0.697   0.575   0.811  0.4446  0.8136 -1.1472
 3993SOL    MW415706   0.715   0.501   0.770 -0.1615  0.2449 -0.5351
 3994SOL     OW15707   4.919   5.045   3.491 -0.1363 -0.3820 -0.6613
 3994SOL    HW215708   4.981   5.075   3.424 -1.0336  0.6381 -1.0607
 3994SOL    HW315709   4.897   5.124   3.540 -1.1391 -0.7214 -0.5384
 3994SOL    MW415710   4.925   5.059   3.489  0.4609 -0.0034 -0.4359
 3995SOL     OW15711   2.782   4.472   1.815  0.4825  0.2636 -0.1210
 3995SOL    HW215712   2.714   4.459   1.881  1.8529  0.5403  1.4162
 3995SOL    HW315713   2.770   4.562   1.786 -0.7845 -0.1784 -1.0778
 3995SOL    MW415714   2.772   4.482   1.820 -0.0242 -0.0414  0.4563
 3996SOL     OW15715   0.516   4.564   2.698  0.7123  0.4752  0.4227
 3996SOL    HW215716   0.481   4.563   2.787  0.6101  1.4343  0.4117
 3996SOL    HW315717   0.534   4.657   2.681  1.9603  0.1602 -0.0820
 3996SOL    MW415718   0.514   4.576   2.707 -0.2438  0.4212  0.8414
 3997SOL     OW15719   6.296   0.238   1.203 -0.1914 -0.2930  0.5024
 3997SOL    HW215720   6.208   0.268   1.226 -0.2046  0.4619 -0.4916
 3997SOL    HW315721   6.283   0.182   1.127  0.1779 -0.2356  0.3938
 3997SOL    MW415722   6.283   0.234   1.196 -0.0226 -0.5443 -0.2499
 3998SOL     OW15723   4.003   1.693   4.341  0.6780 -0.0009  0.2134
 3998SOL    HW215724   3.939   1.621   4.347  0.0693  0.5312  0.1474
 3998SOL    HW315725   4.072   1.668   4.403  0.0839 -0.2536  0.7824
 3998SOL    MW415726   4.004   1.680   4.350  0.5995 -0.1137 -0.0738
 3999SOL     OW15727   3.395   2.044   6.092  0.3631 -0.2939 -0.0237
 3999SOL    HW215728   3.314   2.086   6.120 -0.6528 -1.9764 -0.2745
 3999SOL    HW315729   3.464   2.094   6.135 -0.5568  3.0076 -2.0447
 3999SOL    MW415730   3.393   2.056   6.102 -0.4473  0.0839 -0.6177
 4000SOL     OW15731   4.854   1.344   2.939  0.5972  0.5729  0.5587
 4000SOL    HW215732   4.907   1.265   2.927  1.7866  1.0784  2.1110
 4000SOL    HW315733   4.914   1.416   2.922  0.5100  1.1679  2.5788
 4000SOL    MW415734   4.869   1.343   2.935  0.6037 -0.1133  0.2016
 4001SOL     OW15735   1.238   5.656   0.571 -0.3247 -0.0568  0.0655
 4001SOL    HW215736   1.330   5.677   0.586 -0.7135  2.8883 -0.9784
 4001SOL    HW315737   1.233   5.636   0.478 -1.0958  2.8275 -0.6163
 4001SOL    MW415738   1.250   5.656   0.561  0.2626  0.4062 -0.6629
 4002SOL     OW15739   1.454   0.299   3.516 -0.5904  0.1195 -0.0391
 4002SOL    HW215740   1.405   0.221   3.543 -0.8864  0.0392 -0.7856
 4002SOL    HW315741   1.387   0.361   3.489 -0.2977  0.0372 -0.9948
 4002SOL    MW415742   1.439   0.297   3.516  0.0917 -0.4158  0.1544
 4003SOL     OW15743   0.496   1.529   0.249  0.0352 -0.2603 -0.3039
 4003SOL    HW215744   0.448   1.563   0.325 -0.2980 -0.9731 -0.1813
 4003SOL    HW315745   0.431   1.527   0.179 -0.0250 -0.9075 -0.2311
 4003SOL    MW415746   0.481   1.533   0.250  0.3800 -0.5217 -0.2052
 4004SOL     OW15747   4.336   3.570   1.740 -0.3478 -0.2210 -0.1031
 4004SOL    HW215748   4.259   3.580   1.796 -1.0340 -0.4858 -0.9751
 4004SOL    HW315749   4.321   3.487   1.693  0.9218 -0.7632  0.3988
 4004SOL    MW415750   4.324   3.560   1.741  0.3403 -0.8467 -0.1379
 4005SOL     OW15751   6.218   6.255   1.228  0.0722  0.1515  0.7394
 4005SOL    HW215752   6.189   6.219   1.145  1.6692  1.6288 -0.5359
 4005SOL    HW315753   6.142   6.301   1.263 -0.6148 -0.4918  0.1109
 4005SOL    MW415754   6.204   6.256   1.222  0.8349 -0.1022  0.2374
 4006SOL     OW15755   1.778   4.980   3.184 -0.4545 -0.1291 -0.7416
 4006SOL    HW215756   1.745   4.890   3.190 -0.9380  0.0960  0.2875
 4006SOL    HW315757   1.856   4.981   3.240  0.3095 -0.2197 -1.7807
 4006SOL    MW415758   1.784   4.968   3.192 -0.4979 -0.2423 -0.0976
 4007SOL     OW15759   4.775   4.789   4.231 -0.3364 -0.2079  0.5868
 4007SOL    HW215760   4.813   4.739   4.303  0.8463 -0.0271  0.1103
 4007SOL    HW315761   4.684   4.805   4.258 -0.0513 -0.5571  1.8032
 4007SOL    MW415762   4.768   4.784   4.244 -0.7397 -0.0754 -0.6738
 4008SOL     OW15763   4.651   2.525   6.277  0.5070  0.2952 -0.1009
 4008SOL    HW215764   4.727   2.545   6.331 -0.3697  0.3715  1.1441
 4008SOL    HW315765   4.576   2.545   6.332 -0.4283  0.1384 -1.2683
 4008SOL    MW415766   4.651   2.530   6.291  0.2636  0.4237  0.0462
 4009SOL     OW15767   5.402   2.517   3.901  0.0165 -0.0831  0.2679
 4009SOL    HW215768   5.427   2.522   3.809  0.9101  0.1924  0.5071
 4009SOL    HW315769   5.474   2.468   3.943 -0.6393 -0.6731  0.7284
 4009SOL    MW415770   5.415   2.511   3.895 -0.2520  0.4231  0.2965
 4010SOL     OW15771   6.408   5.433   1.928 -0.3446 -0.2675 -0.1784
 4010SOL    HW215772   6.366   5.422   2.013 -2.7096 -0.2891 -1.2575
 4010SOL    HW315773   6.391   5.525   1.905 -1.1074 -0.6522 -1.2587
 4010SOL    MW415774   6.400   5.444   1.936 -0.0022 -0.6849  0.5735
 4011SOL     OW15775   0.537   2.288   2.760 -0.6036  0.2851 -0.5435
 4011SOL    HW215776   0.556   2.195   2.765  2.7696  0.7492 -1.9570
 4011SOL    HW315777   0.549   2.321   2.849  0.4674 -0.3010 -0.4638
 4011SOL    MW415778   0.541   2.280   2.772  0.1989  0.1357  0.2857
 4012SOL     OW15779   0.403   0.809   4.050  0.2218 -0.2836 -0.4874
 4012SOL    HW215780   0.474   0.751   4.021 -0.4530 -2.0486  1.1550
 4012SOL    HW315781   0.357   0.758   4.117 -1.8759  1.2782 -0.6567
 4012SOL    MW415782   0.406   0.795   4.055  0.7421  0.1161 -0.0840
 4013SOL     OW15783   5.338   4.148   5.859  1.0226 -0.1575  0.2770
 4013SOL    HW215784   5.414   4.125   5.912  0.1632 -0.9040  1.2261
 4013SOL    HW315785   5.268   4.090   5.890 -0.0529  0.7931 -0.2825
 4013SOL    MW415786   5.339   4.137   5.870 -0.5208 -0.4796 -0.1429
 4014SOL     OW15787   2.215   3.046   0.234  0.3589  0.2237 -0.3344
 4014SOL    HW215788   2.176   3.048   0.146  1.3610 -1.2126 -0.8423
 4014SOL    HW315789   2.286   3.110   0.230  2.0658 -1.6208 -1.4487
 4014SOL    MW415790   2.219   3.054   0.222  0.0370  0.6032  0.2497
 4015SOL     OW15791   1.842   4.675   5.103 -0.5487 -0.2937  0.4829
 4015SOL    HW215792   1.832   4.728   5.024 -2.1507  0.0441  0.8656
 4015SOL    HW315793   1.801   4.591   5.080  0.0529 -0.6219  0.5838
 4015SOL    MW415794   1.835   4.671   5.089 -0.1608  0.8928 -0.0200
 4016SOL     OW15795   0.147   2.028   1.862 -0.2561 -0.6165 -0.5189
 4016SOL    HW215796   0.157   2.046   1.955  1.3563 -2.3454 -0.2951
 4016SOL    HW315797   0.056   2.052   1.842 -0.1188  1.4339  1.0500
 4016SOL    MW415798   0.136   2.033   1.871 -0.3011 -0.1009  0.0183
 4017SOL     OW15799   5.735   5.362   0.554  0.8060  0.4361 -0.4548
 4017SOL    HW215800   5.818   5.368   0.601  0.8316  0.4786 -0.5048
 4017SOL    HW315801   5.670   5.394   0.617  0.1339 -3.6514  1.2618
 4017SOL    MW415802   5.737   5.367   0.569  0.4875 -0.4459  0.3784
 4018SOL     OW15803   0.398   4.132   0.890 -0.6878  0.3149  1.0118
 4018SOL    HW215804   0.399   4.053   0.836 -0.4354 -0.0837  1.5890
 4018SOL    HW315805   0.428   4.202   0.831  0.6818 -0.3109  0.9456
 4018SOL    MW415806   0.402   4.131   0.875  0.4623 -0.0114 -0.6712
 4019SOL     OW15807   6.047   3.665   1.963 -0.1061  0.3242 -0.3185
 4019SOL    HW215808   6.057   3.671   2.058 -0.1792  1.6046 -0.3772
 4019SOL    HW315809   5.968   3.613   1.951 -1.0857  1.5853  0.3686
 4019SOL    MW415810   6.038   3.659   1.974  0.6181 -0.1186  0.0556
 4020SOL     OW15811   5.168   4.365   4.635 -1.1403 -0.0807  0.5481
 4020SOL    HW215812   5.111   4.419   4.690  0.9943  0.0284  2.8315
 4020SOL    HW315813   5.155   4.276   4.669  0.4911  0.0419  1.5806
 4020SOL    MW415814   5.158   4.360   4.647  0.5090  0.3221  0.0492
 4021SOL     OW15815   2.853   5.933   5.987 -0.2303  0.1540 -0.3875
 4021SOL    HW215816   2.758   5.944   5.983 -0.5009 -0.4625  2.3122
 4021SOL    HW315817   2.883   6.010   6.036  0.4033 -0.5920  0.4235
 4021SOL    MW415818   2.845   5.945   5.993 -0.4252 -0.5094 -0.5974
 4022SOL     OW15819   4.281   0.522   4.927 -0.0109 -0.7534 -0.2074
 4022SOL    HW215820   4.281   0.617   4.939  2.9198 -0.5261 -1.2036
 4022SOL    HW315821   4.188   0.499   4.920 -0.8066  2.3786 -2.3661
 4022SOL    MW415822   4.268   0.532   4.928  0.1983  0.6552  0.2254
 4023SOL     OW15823   4.573   0.650   2.529 -0.7684 -0.2716 -0.2675
 4023SOL    HW215824   4.637   0.709   2.569 -0.3027 -0.3862 -0.8415
 4023SOL    HW315825   4.526   0.705   2.466 -0.5419 -0.4437 -0.5829
 4023SOL    MW415826   4.575   0.665   2.526  0.1009  0.5684  0.0441
 4024SOL     OW15827   5.518   2.923   5.867  0.4113  0.1952 -0.2228
 4024SOL    HW215828   5.536   2.873   5.946 -0.4532  1.4517  0.8274
 4024SOL    HW315829   5.422   2.927   5.863  0.4537  0.5276 -1.0754
 4024SOL    MW415830   5.508   2.917   5.877  0.1521  0.0073 -0.2223
 4025SOL     OW15831   4.464   6.165   6.021  0.3058 -0.3285 -0.5298
 4025SOL    HW215832   4.551   6.169   5.982  0.6469  0.0098  0.2403
 4025SOL    HW315833   4.456   6.248   6.068 -1.0381  0.3230 -1.8381
 4025SOL    MW415834   4.474   6.177   6.022 -0.5855  0.2600  0.3256
 4026SOL     OW15835   2.331   0.222   0.877 -0.1965  0.3941 -0.2473
 4026SOL    HW215836   2.379   0.151   0.920  1.3572  0.1424 -2.2628
 4026SOL    HW315837   2.390   0.298   0.882 -0.6146  0.7512 -0.6322
 4026SOL    MW415838   2.345   0.223   0.883 -0.6041  0.2380  0.2910
 4027SOL     OW15839   5.227   6.236   3.985 -0.6548 -0.1239  0.3044
 4027SOL    HW215840   5.307   6.285   3.962 -0.5491 -0.7304 -0.6439
 4027SOL    HW315841   5.163   6.304   4.004 -0.1689  0.3794  0.1828
 4027SOL    MW415842   5.229   6.252   3.984 -0.5346  0.0575  0.0214
 4028SOL     OW15843   0.041   2.239   3.011 -0.6000 -0.1497  0.2213
 4028SOL    HW215844   0.113   2.253   2.950 -0.1259 -1.2856  0.5048
 4028SOL    HW315845  -0.037   2.265   2.962 -0.1512 -0.3429 -0.6129
 4028SOL    MW415846   0.040   2.244   2.996 -0.1911  0.2463  0.0547
 4029SOL     OW15847   0.918   1.452   2.303  0.5544  0.8270 -0.2857
 4029SOL    HW215848   0.961   1.508   2.367 -0.4280 -1.7290  2.8503
 4029SOL    HW315849   0.855   1.509   2.260  1.2470  2.6587  0.9881
 4029SOL    MW415850   0.916   1.467   2.305 -0.6025  0.2437  0.2161
 4030SOL     OW15851   0.605   4.372   5.905 -0.0506 -0.0927  0.2783
 4030SOL    HW215852   0.552   4.309   5.857 -1.5351  0.5276  1.0471
 4030SOL    HW315853   0.607   4.450   5.848  0.9107 -0.4531 -0.2024
 4030SOL    MW415854   0.598   4.374   5.891  0.5018 -0.8923  0.0324
 4031SOL     OW15855   2.853   1.710   5.912 -0.1739 -0.0570  0.0386
 4031SOL    HW215856   2.840   1.744   6.000  0.8186  1.8495 -0.5007
 4031SOL    HW315857   2.785   1.752   5.859 -1.5097 -2.0690  0.0348
 4031SOL    MW415858   2.842   1.720   5.916 -0.6068 -0.0264  0.1823
 4032SOL     OW15859   3.625   0.733   3.104 -0.1176 -0.2520 -0.0085
 4032SOL    HW215860   3.678   0.670   3.153 -0.6040 -1.1927 -0.6698
 4032SOL    HW315861   3.552   0.753   3.163  0.3965  0.2420  0.4792
 4032SOL    MW415862   3.622   0.727   3.119  0.2650 -0.3637  0.1154
 4033SOL     OW15863   4.792   2.156   5.164 -0.3150 -1.0633 -0.3971
 4033SOL    HW215864   4.751   2.190   5.244  0.5697  0.6287 -0.6355
 4033SOL    HW315865   4.777   2.061   5.169 -0.5211 -0.9757  1.6372
 4033SOL    MW415866   4.784   2.148   5.175  0.0092 -0.6248 -0.0806
 4034SOL     OW15867   6.093   4.654   0.249 -0.7441 -0.5448 -0.1995
 4034SOL    HW215868   6.163   4.668   0.186  0.6340 -2.1566  0.8956
 4034SOL    HW315869   6.057   4.568   0.227  0.0806 -1.3566  1.4489
 4034SOL    MW415870   6.097   4.645   0.238  0.3887 -0.2370  0.0953
 4035SOL     OW15871   6.254   3.846   5.627  0.2902 -0.0450  0.6136
 4035SOL    HW215872   6.217   3.816   5.544 -1.4174  1.5392  0.7332
 4035SOL    HW315873   6.191   3.818   5.693  0.1764  1.1524  1.0374
 4035SOL    MW415874   6.241   3.838   5.625 -0.5074 -0.1776  0.4454
 4036SOL     OW15875   4.671   4.048   1.541 -0.2644  0.4127 -0.0122
 4036SOL    HW215876   4.715   4.014   1.463  0.0486  0.0619  0.3110
 4036SOL    HW315877   4.641   3.969   1.588 -0.4295  0.6181  0.2297
 4036SOL    MW415878   4.673   4.033   1.537 -0.5486 -0.3494 -0.0801
 4037SOL     OW15879   5.334   5.086   2.159 -0.0365 -0.7664 -0.2344
 4037SOL    HW215880   5.315   5.012   2.218 -0.1863 -0.3368  0.2680
 4037SOL    HW315881   5.348   5.160   2.218 -2.0738  0.1192 -0.7480
 4037SOL    MW415882   5.333   5.086   2.175  0.4507  0.9873  0.2078
 4038SOL     OW15883   5.665   5.211   1.807  0.0155  0.6935  0.4036
 4038SOL    HW215884   5.641   5.230   1.716  1.6602  1.7555  0.1549
 4038SOL    HW315885   5.676   5.116   1.809  1.8187  0.8156 -1.0342
 4038SOL    MW415886   5.663   5.201   1.795 -0.6076  0.1031  0.4586
 4039SOL     OW15887   4.199   5.794   5.705  0.0353  0.1050 -0.0899
 4039SOL    HW215888   4.252   5.794   5.625  1.5170 -0.3631  0.8542
 4039SOL    HW315889   4.154   5.710   5.703 -0.2636  0.2748 -0.6367
 4039SOL    MW415890   4.200   5.783   5.694  0.3191  0.5291 -0.4774
 4040SOL     OW15891   3.856   0.555   4.067  0.3869 -0.2190 -0.7267
 4040SOL    HW215892   3.771   0.515   4.050  0.4289 -0.1760 -1.0303
 4040SOL    HW315893   3.910   0.482   4.099 -0.2160  0.0481  1.0355
 4040SOL    MW415894   3.852   0.540   4.069  0.4597 -0.4315 -0.2518
 4041SOL     OW15895   2.743   2.288   1.683 -0.4579  0.2266 -0.4685
 4041SOL    HW215896   2.713   2.301   1.773  0.9802  0.8312 -0.0506
 4041SOL    HW315897   2.663   2.275   1.632 -1.2425 -1.3024  1.0759
 4041SOL    MW415898   2.729   2.288   1.688 -0.0772 -0.3120 -0.0151
 4042SOL     OW15899   4.582   2.170   4.295  0.1972 -0.2213  0.2408
 4042SOL    HW215900   4.527   2.199   4.222 -0.0241 -2.4474 -0.5478
 4042SOL    HW315901   4.529   2.104   4.339  1.6770 -1.3969  0.3191
 4042SOL    MW415902   4.567   2.165   4.291  0.1386 -0.3059 -0.3266
 4043SOL     OW15903   5.657   5.069   2.767  0.3349  0.1879  0.9962
 4043SOL    HW215904   5.665   5.157   2.730 -1.2661  0.2371  0.7220
 4043SOL    HW315905   5.633   5.084   2.859  1.1207  0.0280  1.2397
 4043SOL    MW415906   5.655   5.083   2.775  0.2630 -0.1123  0.0937
 4044SOL     OW15907   4.510   5.672   5.052  0.3459 -0.2644  0.1181
 4044SOL    HW215908   4.420   5.665   5.020 -0.3341  1.6335  1.4386
 4044SOL    HW315909   4.564   5.668   4.973 -0.9100 -0.8225 -0.7482
 4044SOL    MW415910   4.505   5.670   5.037  0.1624  0.6025  0.0063
 4045SOL     OW15911   5.974   1.559   1.877  0.4112  0.1256 -0.6630
 4045SOL    HW215912   5.962   1.526   1.966  0.2045 -0.3428 -0.8620
 4045SOL    HW315913   5.977   1.654   1.887 -0.2691  0.1058 -0.2327
 4045SOL    MW415914   5.973   1.567   1.890 -0.4968  0.1299  0.0207
 4046SOL     OW15915   6.302   2.961   3.447 -0.2194 -0.1593 -0.7699
 4046SOL    HW215916   6.304   3.038   3.503  0.3317 -1.3327  0.8921
 4046SOL    HW315917   6.233   2.979   3.383 -1.2524  1.0197  0.6173
 4046SOL    MW415918   6.293   2.973   3.446 -0.3502  0.2249  0.5504
 4047SOL     OW15919   5.731   2.505   3.699  0.0108  0.2639  1.0251
 4047SOL    HW215920   5.781   2.586   3.688  0.1082  0.4881  2.7238
 4047SOL    HW315921   5.646   2.523   3.658  1.1279  0.0028 -1.5709
 4047SOL    MW415922   5.726   2.518   3.692 -0.3682  0.0494 -0.1901
 4048SOL     OW15923   5.642   4.949   0.310 -0.0413  0.1617 -0.2088
 4048SOL    HW215924   5.699   4.896   0.366 -0.2428  0.2395  0.0761
 4048SOL    HW315925   5.677   5.038   0.317 -0.4617  0.2897  0.3237
 4048SOL    MW415926   5.654   4.954   0.318  0.5110 -0.1258 -0.3221
 4049SOL     OW15927   0.241   3.816   4.650 -0.7632 -0.6123 -0.4068
 4049SOL    HW215928   0.331   3.821   4.680 -0.3225 -5.0502 -0.2636
 4049SOL    HW315929   0.235   3.880   4.579  2.6579 -0.5095 -0.7539
 4049SOL    MW415930   0.252   3.825   4.645 -0.5917  0.4723  0.3490
 4050SOL     OW15931   0.537   3.694   3.634  0.3368 -0.3236  0.3751
 4050SOL    HW215932   0.573   3.750   3.566  0.8332 -1.3083 -0.2045
 4050SOL    HW315933   0.443   3.688   3.614  0.3211  0.1188  0.3201
 4050SOL    MW415934   0.529   3.700   3.623 -0.1447  0.0683  0.2210
 4051SOL     OW15935   4.367   5.860   4.755  0.1602  0.0692 -0.1263
 4051SOL    HW215936   4.424   5.902   4.820  2.4860 -1.1682 -1.2066
 4051SOL    HW315937   4.419   5.786   4.722 -2.3401 -1.4878 -0.8460
 4051SOL    MW415938   4.382   5.856   4.759  0.1409  0.4470 -0.0681
 4052SOL     OW15939   1.429   2.601   1.676 -0.1350 -0.2640  0.5612
 4052SOL    HW215940   1.506   2.594   1.733  0.1775  1.0814  0.3397
 4052SOL    HW315941   1.405   2.693   1.680 -1.5522 -0.6069  0.3607
 4052SOL    MW415942   1.436   2.612   1.684 -0.1221  0.0730 -0.0759
 4053SOL     OW15943   1.967   1.887   3.005 -0.1901 -0.8221  0.2390
 4053SOL    HW215944   2.030   1.921   3.069  0.2231 -0.5400 -0.3079
 4053SOL    HW315945   1.899   1.845   3.058 -0.0246 -0.3019  0.8715
 4053SOL    MW415946   1.967   1.886   3.020  0.2665 -0.1099  0.5534
 4054SOL     OW15947   0.828   3.516   1.228  0.5576 -0.1008 -0.0275
 4054SOL    HW215948   0.912   3.533   1.271  0.6433 -1.6702  0.4922
 4054SOL    HW315949   0.777   3.467   1.293 -0.2927 -0.2461 -0.7871
 4054SOL    MW415950   0.832   3.511   1.242  0.1141  0.3127  0.2296
 4055SOL     OW15951   5.102   3.290   4.894  0.4607  0.4932 -0.0928
 4055SOL    HW215952   5.082   3.344   4.971 -1.9794 -0.6466  0.1631
 4055SOL    HW315953   5.128   3.205   4.930  0.2985  0.2603 -0.5181
 4055SOL    MW415954   5.103   3.286   4.909 -0.3867  0.0647 -0.3551
 4056SOL     OW15955   2.725   4.942   4.912  0.3871  0.2364  0.5569
 4056SOL    HW215956   2.638   4.966   4.943 -0.1793 -0.3493 -0.5144
 4056SOL    HW315957   2.763   4.890   4.983  0.2026  1.2084  1.3793
 4056SOL    MW415958   2.719   4.938   4.925 -0.4035 -0.5542  0.2329
 4057SOL     OW15959   5.575   2.843   0.774  0.1171  0.0659  0.3197
 4057SOL    HW215960   5.493   2.893   0.764 -0.5432 -1.0550 -0.0853
 4057SOL    HW315961   5.638   2.889   0.718 -0.9053 -0.4355 -1.3152
 4057SOL    MW415962   5.572   2.856   0.765 -0.4657 -0.1331  0.5757
 4058SOL     OW15963   6.238   4.343   0.336 -0.4358 -0.1380 -0.1442
 4058SOL    HW215964   6.245   4.247   0.339  1.0947 -0.1215 -1.7146
 4058SOL    HW315965   6.171   4.360   0.270 -0.8419 -0.1337  0.2713
 4058SOL    MW415966   6.230   4.333   0.328  0.4943 -0.1249 -0.4675
 4059SOL     OW15967   5.315   0.224   4.221  0.0538 -0.1490  0.2625
 4059SOL    HW215968   5.364   0.159   4.271 -1.2536 -0.2580  1.4449
 4059SOL    HW315969   5.264   0.271   4.287 -0.8157  0.4918 -0.8452
 4059SOL    MW415970   5.315   0.222   4.236  0.2380 -0.3526 -0.5304
 4060SOL     OW15971   3.089   2.002   0.574 -0.1521  0.3712 -0.1165
 4060SOL    HW215972   3.132   1.917   0.589  0.6693  0.8889  0.5194
 4060SOL    HW315973   3.028   2.010   0.647 -0.1205  0.3982 -0.0932
 4060SOL    MW415974   3.086   1.992   0.585 -0.2451  0.3793 -0.1818
 4061SOL     OW15975   6.267   3.495   1.987 -0.2072  0.2849  0.2184
 4061SOL    HW215976   6.347   3.539   2.014 -0.6406  0.7008  0.8612
 4061SOL    HW315977   6.210   3.565   1.955  0.5753 -0.2608 -2.6352
 4061SOL    MW415978   6.270   3.510   1.986  0.5015  0.0212 -0.2648
 4062SOL     OW15979   1.448   3.308   4.479 -0.0415  0.2328 -0.3791
 4062SOL    HW215980   1.397   3.236   4.517  1.3738 -0.6358  0.0005
 4062SOL    HW315981   1.384   3.375   4.458 -1.0765  0.2530  2.4042
 4062SOL    MW415982   1.433   3.307   4.481 -0.2388  0.5271 -0.1936
 4063SOL     OW15983   5.148   2.844   5.272 -0.2640  0.2347 -0.7148
 4063SOL    HW215984   5.089   2.867   5.201 -0.3298  0.2922 -0.6427
 4063SOL    HW315985   5.153   2.923   5.326 -1.1796 -0.1772  0.0061
 4063SOL    MW415986   5.141   2.857   5.270  0.2309  0.0706  0.0079
 4064SOL     OW15987   3.077   5.267   3.025 -0.8237 -0.4900  0.2437
 4064SOL    HW215988   3.072   5.316   3.106  0.1635 -0.0729  0.0679
 4064SOL    HW315989   3.137   5.317   2.970 -1.5961 -0.6761 -0.8126
 4064SOL    MW415990   3.084   5.280   3.028  0.4245 -0.3784 -0.3024
 4065SOL     OW15991   5.386   0.062   3.144  0.9129 -0.7780 -0.0889
 4065SOL    HW215992   5.349   0.037   3.229 -0.7862 -1.6999 -1.0490
 4065SOL    HW315993   5.478   0.036   3.150  1.9598  2.7400  2.8527
 4065SOL    MW415994   5.393   0.055   3.156 -0.2476 -1.1663  1.6946
 4066SOL     OW15995   0.461   0.047   2.813 -0.2574  0.5033 -0.5092
 4066SOL    HW215996   0.495  -0.034   2.775  1.8764  0.7974  0.6436
 4066SOL    HW315997   0.396   0.018   2.878  2.1562 -0.5162  1.5983
 4066SOL    MW415998   0.457   0.033   2.816  0.2957 -0.0231 -0.2160
 4067SOL     OW15999   5.039   6.073   3.879  0.8358 -0.2402 -0.6795
 4067SOL    HW216000   4.990   6.124   3.814  0.6385 -0.2241 -0.5199
 4067SOL    HW316001   5.120   6.121   3.890  0.9956 -0.3984 -1.1291
 4067SOL    MW416002   5.043   6.086   3.872 -0.1514  0.3103 -0.3512
 4068SOL     OW16003   4.321   0.967   4.720  0.1739  0.1481 -0.1045
 4068SOL    HW216004   4.354   0.908   4.652 -0.0540  0.3218 -0.3687
 4068SOL    HW316005   4.370   1.049   4.707  0.2666  0.1205  0.0636
 4068SOL    MW416006   4.332   0.970   4.709 -0.1914  0.1668  0.3047
 4069SOL     OW16007   5.494   0.139   6.240  0.3804  0.1948  0.0785
 4069SOL    HW216008   5.529   0.228   6.235 -0.8282  0.6920  0.0105
 4069SOL    HW316009   5.464   0.120   6.151 -1.4821  0.6480  0.5671
 4069SOL    MW416010   5.494   0.148   6.228  0.3316  0.6021 -0.7152
 4070SOL     OW16011   0.955   6.278   5.683 -0.0498 -1.0182  0.5665
 4070SOL    HW216012   0.930   6.370   5.688  0.6876 -0.7613 -0.2217
 4070SOL    HW316013   0.955   6.258   5.589  1.6703 -1.2714  0.5869
 4070SOL    MW416014   0.951   6.287   5.671  0.3375  0.7205 -0.1296
 4071SOL     OW16015   0.202   4.192   4.661  0.5199 -0.5097  0.0884
 4071SOL    HW216016   0.235   4.143   4.585 -0.1797  0.1200 -0.6416
 4071SOL    HW316017   0.130   4.244   4.626 -0.3366 -0.7964  1.3598
 4071SOL    MW416018   0.197   4.192   4.646 -0.5512 -0.5967 -0.4796
 4072SOL     OW16019   5.245   0.559   3.991 -0.1643 -0.3357  0.0402
 4072SOL    HW216020   5.165   0.594   3.952  1.4224  1.5487 -1.7761
 4072SOL    HW316021   5.291   0.636   4.023  0.8609 -1.4006  1.2363
 4072SOL    MW416022   5.241   0.574   3.990 -0.0861 -0.0128 -0.4517
 4073SOL     OW16023   1.641   2.822   2.269 -0.2527 -0.2680 -0.3255
 4073SOL    HW216024   1.675   2.848   2.183 -2.0193 -0.8392 -1.2578
 4073SOL    HW316025   1.690   2.743   2.291 -0.0783 -0.3645 -1.0302
 4073SOL    MW416026   1.652   2.815   2.260  0.5262 -0.1666  0.2970
 4074SOL     OW16027   2.637   2.719   2.016 -0.0522  0.2865  0.1523
 4074SOL    HW216028   2.553   2.740   1.976  0.1484 -1.0953 -1.1078
 4074SOL    HW316029   2.701   2.768   1.965 -0.0062  0.4909  0.4071
 4074SOL    MW416030   2.635   2.728   2.004  0.3624  0.3867 -0.0628
 4075SOL     OW16031   5.082   4.925   0.492  0.1085 -0.2603  0.5641
 4075SOL    HW216032   5.088   4.958   0.581  0.5255  0.7517  0.1830
 4075SOL    HW316033   5.134   4.987   0.440  0.1089 -0.9910 -0.3347
 4075SOL    MW416034   5.090   4.938   0.497  0.3809 -0.2168  0.2040
 4076SOL     OW16035   2.453   5.257   4.270  0.6599 -0.1860 -0.1928
 4076SOL    HW216036   2.389   5.246   4.340  0.0121 -1.2318 -0.9156
 4076SOL    HW316037   2.533   5.287   4.314 -0.3235  1.1987  0.7171
 4076SOL    MW416038   2.455   5.260   4.285 -0.3448 -0.8829 -0.5002
 4077SOL     OW16039   3.180   2.272   3.897 -0.6712 -0.1191  0.4324
 4077SOL    HW216040   3.234   2.348   3.877 -0.4671 -0.3668  0.0252
 4077SOL    HW316041   3.101   2.284   3.844  0.6190 -1.6613 -1.9890
 4077SOL    MW416042   3.176   2.284   3.887  0.2339 -0.5073  0.3083
 4078SOL     OW16043   1.193   1.967   5.435 -0.1823  0.2594  0.2143
 4078SOL    HW216044   1.214   1.900   5.370 -0.1040 -0.3463  0.8384
 4078SOL    HW316045   1.262   2.033   5.425  0.9208 -0.7382  0.9066
 4078SOL    MW416046   1.205   1.966   5.425 -0.1864 -0.4673  0.2431
 4079SOL     OW16047   2.773   0.642   1.013  0.3229 -0.2109 -0.4375
 4079SOL    HW216048   2.847   0.584   1.033  0.0480 -0.0555  1.1697
 4079SOL    HW316049   2.768   0.642   0.917  1.0234 -1.9626 -0.5153
 4079SOL    MW416050   2.782   0.634   1.003 -0.3600  0.4156 -0.1336
 4080SOL     OW16051   0.352   6.324   5.672  0.2028  0.2487  0.0055
 4080SOL    HW216052   0.269   6.371   5.678  0.9928  1.6770  0.1135
 4080SOL    HW316053   0.345   6.274   5.590 -0.5872  0.6918 -0.2059
 4080SOL    MW416054   0.340   6.324   5.662  0.3504  0.3132  0.2759
 4081SOL     OW16055   2.872   4.241   5.506  0.3076 -0.7125 -0.0990
 4081SOL    HW216056   2.906   4.328   5.483 -0.7189 -0.1073  0.5972
 4081SOL    HW316057   2.812   4.219   5.435  0.3767 -0.7515 -0.1464
 4081SOL    MW416058   2.869   4.250   5.494  0.4835 -0.1693  0.4219
 4082SOL     OW16059   5.573   2.983   3.795  0.3268 -0.9638  0.1309
 4082SOL    HW216060   5.529   2.986   3.880  0.0312 -0.6328 -0.0277
 4082SOL    HW316061   5.532   3.054   3.745  0.3626 -1.2817 -0.3545
 4082SOL    MW416062   5.562   2.993   3.800  0.0436 -0.0278  0.0187
 4083SOL     OW16063   3.603   4.631   0.587 -0.9637 -0.6977 -0.3581
 4083SOL    HW216064   3.681   4.643   0.642 -0.0504  0.0811 -1.7663
 4083SOL    HW316065   3.637   4.624   0.498 -2.4926 -0.6805 -0.9759
 4083SOL    MW416066   3.618   4.631   0.583 -0.2560 -0.3794  0.3805
 4084SOL     OW16067   2.668   4.592   0.544 -0.0381  0.1750  0.3684
 4084SOL    HW216068   2.736   4.539   0.502 -0.8800 -1.5716  1.1370
 4084SOL    HW316069   2.656   4.552   0.630 -1.4517  0.9639  0.5639
 4084SOL    MW416070   2.676   4.580   0.550 -0.1073 -0.5324 -0.2899
 4085SOL     OW16071   2.430   4.426   4.410  0.1059  0.3617 -0.0592
 4085SOL    HW216072   2.495   4.357   4.419 -1.3151 -0.9501  0.5976
 4085SOL    HW316073   2.422   4.464   4.497 -0.3917  0.1338  0.0011
 4085SOL    MW416074   2.437   4.422   4.423 -0.5512 -0.0539 -0.1784
 4086SOL     OW16075   4.400   0.693   1.674  0.4844  0.6280  0.2064
 4086SOL    HW216076   4.439   0.653   1.751 -0.0566  2.0225  1.2525
 4086SOL    HW316077   4.345   0.763   1.709 -2.0472 -0.4977 -1.2561
 4086SOL    MW416078   4.398   0.697   1.689 -0.3087  0.1184  0.0509
 4087SOL     OW16079   5.588   5.448   3.220  0.4461 -0.1653 -0.6360
 4087SOL    HW216080   5.638   5.529   3.206  0.5312 -0.3117 -1.2187
 4087SOL    HW316081   5.528   5.444   3.146 -0.8456  0.2985  0.3415
 4087SOL    MW416082   5.587   5.458   3.208 -0.0362 -0.3406  0.6257
 4088SOL     OW16083   0.409   2.738   1.719 -0.2864 -0.3492 -0.2544
 4088SOL    HW216084   0.354   2.774   1.649 -0.3591  1.7005  0.7863
 4088SOL    HW316085   0.354   2.742   1.797  0.4704 -0.7445  0.3126
 4088SOL    MW416086   0.395   2.743   1.720  0.2040  0.3726  0.3990
 4089SOL     OW16087   1.199   0.044   3.824 -0.0589 -0.5755 -0.3300
 4089SOL    HW216088   1.194   0.021   3.731 -0.4820 -2.4929  0.1315
 4089SOL    HW316089   1.245  -0.029   3.865 -0.8509 -0.2956  1.1425
 4089SOL    MW416090   1.204   0.031   3.817 -0.4089 -0.2636  0.2409
 4090SOL     OW16091   6.356   3.988   0.655 -0.3656 -0.9435 -0.4213
 4090SOL    HW216092   6.363   4.077   0.691  1.3669 -1.7215  1.4115
 4090SOL    HW316093   6.289   3.945   0.709 -0.6124 -0.9926 -0.7634
 4090SOL    MW416094   6.348   3.994   0.667  0.3887  0.0828  0.4791
 4091SOL     OW16095   0.847   4.892   3.164  0.3760 -0.2858  0.2783
 4091SOL    HW216096   0.817   4.941   3.240  0.2259  0.7270 -0.4228
 4091SOL    HW316097   0.874   4.958   3.101 -2.4731 -0.9436 -1.8188
 4091SOL    MW416098   0.847   4.907   3.166  0.7966  0.0035 -0.0576
 4092SOL     OW16099   4.865   2.472   4.592 -0.2458 -0.0350 -0.2293
 4092SOL    HW216100   4.793   2.433   4.543 -1.3352  1.2160  0.3133
 4092SOL    HW316101   4.841   2.460   4.684  1.4063 -1.6820  0.0529
 4092SOL    MW416102   4.853   2.465   4.598  0.3603 -0.0190 -0.1703
 4093SOL     OW16103   0.340   3.295   5.003  0.2814  0.4784  0.1506
 4093SOL    HW216104   0.422   3.331   5.037  0.5314  0.9902 -0.9539
 4093SOL    HW316105   0.305   3.363   4.946  0.5053 -0.7994 -1.5922
 4093SOL    MW416106   0.346   3.309   5.000 -0.4522  0.1147 -0.1336
 4094SOL     OW16107   3.424   3.832   3.115 -0.3164  0.4766 -0.3270
 4094SOL    HW216108   3.479   3.891   3.167 -1.6080  0.4130  1.2121
 4094SOL    HW316109   3.477   3.754   3.103  0.2827  0.7680  0.3268
 4094SOL    MW416110   3.438   3.830   3.120  0.3121  0.1333  0.6484
 4095SOL     OW16111   3.281   4.140   1.339 -0.0034  0.1812  0.2407
 4095SOL    HW216112   3.231   4.207   1.293 -1.4145 -0.3769  0.9206
 4095SOL    HW316113   3.215   4.080   1.374  1.2448 -2.4998 -1.6764
 4095SOL    MW416114   3.266   4.141   1.337  0.2571 -0.5746 -0.0571
 4096SOL     OW16115   0.226   1.449   3.700  0.0002  0.4480  0.2870
 4096SOL    HW216116   0.280   1.460   3.778 -1.7752 -1.7243  1.9665
 4096SOL    HW316117   0.178   1.531   3.693  0.0637  0.6228  1.5977
 4096SOL    MW416118   0.227   1.461   3.709  0.1301 -0.4265  0.0587
 4097SOL     OW16119   4.457   1.620   2.008  0.1641 -0.6083 -0.3311
 4097SOL    HW216120   4.542   1.575   2.003  0.9209  0.6162  0.7612
 4097SOL    HW316121   4.433   1.616   2.100  0.0122  0.7426 -0.2891
 4097SOL    MW416122   4.465   1.613   2.020 -0.1024  0.1011 -0.0356
 4098SOL     OW16123   4.037   1.582   3.373 -0.2218  0.1010  0.7666
 4098SOL    HW216124   4.106   1.528   3.410 -0.7367 -1.2459 -0.1544
 4098SOL    HW316125   3.956   1.535   3.392 -0.5118 -0.8654 -2.2121
 4098SOL    MW416126   4.035   1.569   3.380  0.0905  0.5479  0.3035
 4099SOL     OW16127   0.602   0.211   3.405  0.6352  0.4372 -0.2076
 4099SOL    HW216128   0.557   0.209   3.490 -0.3495  0.6260 -0.7143
 4099SOL    HW316129   0.650   0.129   3.401 -2.1911 -1.2934 -0.9767
 4099SOL    MW416130   0.602   0.200   3.416 -0.0218 -0.6572  0.5632
 4100SOL     OW16131   1.913   0.478   0.701  0.5255  0.4630  0.2365
 4100SOL    HW216132   1.891   0.439   0.617 -2.6836  1.3274  0.5386
 4100SOL    HW316133   1.994   0.434   0.728  0.9728 -0.7002 -2.6710
 4100SOL    MW416134   1.921   0.467   0.694  0.1035  0.1951  0.0302
 4101SOL     OW16135   1.311   4.635   1.967  0.5715 -0.5940 -0.3469
 4101SOL    HW216136   1.338   4.545   1.947  0.4567 -0.7200  0.0552
 4101SOL    HW316137   1.390   4.688   1.950  0.9822 -0.9179  0.4880
 4101SOL    MW416138   1.325   4.630   1.962  0.6824  0.0628 -0.5133
 4102SOL     OW16139   2.898   5.352   2.008  0.3676 -0.9345  0.4976
 4102SOL    HW216140   2.911   5.262   1.979  0.6046 -0.3112 -1.4669
 4102SOL    HW316141   2.972   5.401   1.972 -0.4496  0.2798  0.3816
 4102SOL    MW416142   2.909   5.347   2.000 -0.1018 -0.3650 -0.2089
 4103SOL     OW16143   3.089   3.930   6.047 -0.3926  0.1999  0.5022
 4103SOL    HW216144   3.141   4.004   6.015 -0.6204 -0.4589 -1.4741
 4103SOL    HW316145   3.076   3.949   6.140  1.0263  1.7615  0.4237
 4103SOL    MW416146   3.094   3.943   6.055  0.5084  0.4255 -0.3557
 4104SOL     OW16147   5.713   3.009   1.416  0.3232  0.2306  0.1241
 4104SOL    HW216148   5.663   3.090   1.422  1.1011  0.7422 -0.1254
 4104SOL    HW316149   5.647   2.939   1.417 -0.3318  0.8401  0.7851
 4104SOL    MW416150   5.698   3.010   1.417  0.1511 -0.2747 -0.1733
 4105SOL     OW16151   2.008   0.504   3.959  0.0270 -0.3663  0.1552
 4105SOL    HW216152   2.050   0.418   3.955  0.0811 -0.3273 -0.1866
 4105SOL    HW316153   1.974   0.518   3.870  0.1825  0.0455  0.1581
 4105SOL    MW416154   2.009   0.495   3.947  0.0671  0.2199 -0.3746
 4106SOL     OW16155   1.389   6.424   3.184 -0.1405 -0.0553  0.4324
 4106SOL    HW216156   1.329   6.487   3.143  1.0077  1.6374  1.2167
 4106SOL    HW316157   1.443   6.391   3.112  0.4343  1.2627  0.2243
 4106SOL    MW416158   1.388   6.428   3.169  0.3529 -0.4597  0.4333
 4107SOL     OW16159   5.394   3.095   0.483 -0.1756 -0.0489 -0.0395
 4107SOL    HW216160   5.405   3.110   0.577 -1.4594 -1.7624  0.4366
 4107SOL    HW316161   5.471   3.043   0.458  0.2345  0.5191  0.0217
 4107SOL    MW416162   5.406   3.090   0.492  0.1889 -0.2629 -0.5643
 4108SOL     OW16163   0.435   1.740   5.815 -0.0993 -0.7288  0.0110
 4108SOL    HW216164   0.457   1.775   5.729 -1.1750  0.2045  0.0952
 4108SOL    HW316165   0.494   1.784   5.875 -0.1422 -0.5058 -0.1111
 4108SOL    MW416166   0.446   1.750   5.812  0.0133  0.2168 -1.1323
 4109SOL     OW16167   5.302   5.829   4.004 -0.2337 -0.7073 -0.2709
 4109SOL    HW216168   5.286   5.911   4.050  0.3959 -1.0452  0.5775
 4109SOL    HW316169   5.331   5.769   4.072  2.5818 -0.7069 -1.3389
 4109SOL    MW416170   5.304   5.832   4.019 -0.2779  0.1779  0.0308
 4110SOL     OW16171   5.653   5.266   5.575 -0.2104 -1.0245  0.1643
 4110SOL    HW216172   5.719   5.303   5.633 -0.6430 -0.3895  0.2574
 4110SOL    HW316173   5.616   5.341   5.529  0.2473 -1.5305 -1.0820
 4110SOL    MW416174   5.657   5.281   5.577 -0.4797 -0.0538  0.1122
 4111SOL     OW16175   0.756   1.071   4.854 -0.1072 -0.4695  0.4186
 4111SOL    HW216176   0.798   1.157   4.862 -0.5691 -0.3613  2.0553
 4111SOL    HW316177   0.672   1.081   4.897 -1.2933 -1.0815 -1.6119
 4111SOL    MW416178   0.751   1.084   4.861 -0.2097  0.4274 -0.6533
 4112SOL     OW16179   4.567   4.158   3.984 -0.3434 -0.4700  0.0488
 4112SOL    HW216180   4.507   4.141   4.056  0.6517  0.5180  1.1479
 4112SOL    HW316181   4.535   4.240   3.945  1.5237  1.3547  2.0923
 4112SOL    MW416182   4.555   4.167   3.988 -0.3551  0.0079  0.1086
 4113SOL     OW16183   1.157   5.348   0.451 -0.1109  0.3002 -0.5554
 4113SOL    HW216184   1.185   5.353   0.543  0.2062 -0.9832 -0.5574
 4113SOL    HW316185   1.231   5.383   0.401  0.3988 -0.5213 -0.3991
 4113SOL    MW416186   1.171   5.353   0.457  0.0203  0.3160  0.2027
 4114SOL     OW16187   3.939   3.149   3.115  0.3599 -0.1905 -0.1909
 4114SOL    HW216188   3.909   3.239   3.125  0.5232 -0.2959  1.6328
 4114SOL    HW316189   3.860   3.098   3.099  0.1692  0.1643 -0.3672
 4114SOL    MW416190   3.925   3.154   3.114  0.6294 -0.1740 -0.1883
 4115SOL     OW16191   4.133   0.494   1.650  0.1853  0.1095  0.0011
 4115SOL    HW216192   4.118   0.557   1.721  0.1506  0.6966 -0.5155
 4115SOL    HW316193   4.204   0.532   1.599  0.5611 -0.5673  0.0127
 4115SOL    MW416194   4.140   0.507   1.653  0.2889 -0.5078 -0.2685
 4116SOL     OW16195   0.727   0.333   2.722  0.1013 -0.0273  0.2627
 4116SOL    HW216196   0.797   0.369   2.777  1.7111 -0.7734 -1.2355
 4116SOL    HW316197   0.749   0.241   2.712 -2.2636 -0.8091  1.4436
 4116SOL    MW416198   0.739   0.326   2.728  0.4516  0.0543 -0.3373
 4117SOL     OW16199   4.475   2.855   6.009  0.2978 -0.1210 -0.1577
 4117SOL    HW216200   4.548   2.793   6.013  0.0544 -0.3640  1.7087
 4117SOL    HW316201   4.399   2.803   6.033 -0.7024 -0.0637 -2.8771
 4117SOL    MW416202   4.475   2.840   6.013 -0.3649  0.4509  0.0159
 4118SOL     OW16203   0.234   2.294   4.697 -0.0413  0.1748  0.9147
 4118SOL    HW216204   0.243   2.303   4.792 -0.5653 -1.4971  1.1638
 4118SOL    HW316205   0.192   2.374   4.669  0.3037  0.7863  2.0674
 4118SOL    MW416206   0.230   2.305   4.706 -0.4754  0.2215  0.2128
 4119SOL     OW16207   1.014   5.642   6.034 -0.0014 -0.4429 -0.1901
 4119SOL    HW216208   1.024   5.575   6.102 -0.3637 -0.0257  0.2889
 4119SOL    HW316209   1.021   5.725   6.082  0.2792 -0.1408 -0.7502
 4119SOL    MW416210   1.016   5.645   6.049  0.4820  1.1077  0.5786
 4120SOL     OW16211   3.425   5.788   4.516 -0.2517 -0.5668  0.7124
 4120SOL    HW216212   3.335   5.786   4.483  0.0144  1.6731 -0.3230
 4120SOL    HW316213   3.421   5.845   4.593  0.3729  0.0301  0.3114
 4120SOL    MW416214   3.413   5.795   4.522 -0.1549  0.5264  0.6287
 4121SOL     OW16215   4.014   3.404   3.555 -0.1570 -0.7190  0.3040
 4121SOL    HW216216   4.048   3.479   3.506  0.2632 -2.5312 -2.4584
 4121SOL    HW316217   3.920   3.406   3.539 -0.2344 -0.4562  0.7682
 4121SOL    MW416218   4.006   3.414   3.546 -0.1112  0.1853  0.0938
 4122SOL     OW16219   2.966   2.166   1.582  0.0322  0.3125  0.4906
 4122SOL    HW216220   3.047   2.215   1.568 -0.6225  2.0301  2.1672
 4122SOL    HW316221   2.905   2.231   1.617 -1.0702 -1.5928  2.3813
 4122SOL    MW416222   2.969   2.181   1.585  0.1341 -0.5145 -0.0391
 4123SOL     OW16223   1.245   0.119   1.671 -0.2990 -0.0832  0.1623
 4123SOL    HW216224   1.275   0.078   1.752  0.6759  0.0270 -0.1315
 4123SOL    HW316225   1.291   0.202   1.667 -0.5140  0.0181 -0.3929
 4123SOL    MW416226   1.255   0.124   1.681  0.0957  0.1303 -0.4677
 4124SOL     OW16227   6.226   1.588   1.958  0.0430  0.4104 -0.1620
 4124SOL    HW216228   6.266   1.501   1.948 -0.3676 -0.1011  2.0073
 4124SOL    HW316229   6.133   1.574   1.941  0.0642  0.5663 -0.4145
 4124SOL    MW416230   6.219   1.575   1.955  0.4022 -0.0226  0.0557
 4125SOL     OW16231   2.373   4.598   6.158  1.0465 -0.0628  1.0992
 4125SOL    HW216232   2.458   4.640   6.169  2.1223 -1.9095  0.2577
 4125SOL    HW316233   2.383   4.512   6.199  0.4769 -1.3609 -1.3131
 4125SOL    MW416234   2.385   4.592   6.165 -0.1618 -0.0934 -0.7840
 4126SOL     OW16235   3.874   4.603   5.992 -0.2744 -0.4181  0.0050
 4126SOL    HW216236   3.854   4.697   5.995  0.1822 -0.2324 -1.7972
 4126SOL    HW316237   3.923   4.587   6.073  1.1172  1.2783 -0.4307
 4126SOL    MW416238   3.878   4.613   6.003  0.4302  0.0151 -0.0658
 4127SOL     OW16239   4.940   5.717   5.653  0.2947 -0.3556 -0.1941
 4127SOL    HW216240   4.868   5.765   5.694 -0.5194 -2.4278  0.9833
 4127SOL    HW316241   4.897   5.656   5.594  1.2974  0.3028 -1.6532
 4127SOL    MW416242   4.925   5.715   5.651 -0.0789 -0.6729 -0.0714
 4128SOL     OW16243   5.885   1.730   5.072  0.3237  0.3130 -0.1420
 4128SOL    HW216244   5.840   1.664   5.126 -3.5048  0.8828 -2.2712
 4128SOL    HW316245   5.892   1.690   4.986  0.0982  1.8068 -0.8812
 4128SOL    MW416246   5.880   1.716   5.068 -0.1625  0.2150 -0.1004
 4129SOL     OW16247   2.308   2.014   1.886  0.4530 -0.0054  0.1516
 4129SOL    HW216248   2.215   2.023   1.906  0.2579 -0.5172 -0.4779
 4129SOL    HW316249   2.348   2.093   1.922 -1.2100  4.0035 -5.3669
 4129SOL    MW416250   2.301   2.026   1.893 -0.1018  0.1382 -0.1346
 4130SOL     OW16251   3.569   1.988   6.396  0.0175  0.0664 -0.6892
 4130SOL    HW216252   3.474   1.980   6.403  0.1152 -0.7110 -0.1127
 4130SOL    HW316253   3.583   2.072   6.353 -0.9113  0.4778 -0.2018
 4130SOL    MW416254   3.559   1.998   6.391 -0.3761 -0.1141  0.9217
 4131SOL     OW16255   3.874   4.147   4.222 -0.1844  0.6864 -0.0183
 4131SOL    HW216256   3.962   4.112   4.211  0.4199  2.4434 -1.2481
 4131SOL    HW316257   3.855   4.136   4.315  2.1784  2.0683  0.7128
 4131SOL    MW416258   3.883   4.141   4.233 -0.2084 -0.1471  0.3225
 4132SOL     OW16259   4.204   2.905   0.647  0.2213  0.2004 -0.3558
 4132SOL    HW216260   4.189   2.950   0.731  1.8848  0.0483  0.0659
 4132SOL    HW316261   4.148   2.828   0.651  0.6790 -0.0947  0.8833
 4132SOL    MW416262   4.194   2.901   0.659 -0.0606  0.1507  0.1684
 4133SOL     OW16263   2.244   3.580   4.841 -0.1027 -0.0112 -0.3160
 4133SOL    HW216264   2.248   3.515   4.771  1.8941 -0.8972  0.5417
 4133SOL    HW316265   2.268   3.662   4.799  1.1236 -0.5425 -0.7013
 4133SOL    MW416266   2.248   3.582   4.826 -0.1295  0.2163  0.0210
 4134SOL     OW16267   6.382   2.051   1.451  0.5718  0.0402 -0.3593
 4134SOL    HW216268   6.390   2.054   1.356  1.3051  1.4978 -0.2926
 4134SOL    HW316269   6.425   1.970   1.476 -0.7540 -1.0050 -1.3363
 4134SOL    MW416270   6.389   2.041   1.442  0.0419 -0.0190  0.3277
 4135SOL     OW16271   4.799   0.685   0.482  0.3317  0.7088  0.0450
 4135SOL    HW216272   4.716   0.730   0.467 -0.9487 -0.7292  2.2822
 4135SOL    HW316273   4.795   0.658   0.574  2.5328 -0.9405 -0.2694
 4135SOL    MW416274   4.788   0.688   0.492  0.1022  0.0358  0.4622
 4136SOL     OW16275   4.620   4.404   4.516  0.6729 -0.2077  0.1744
 4136SOL    HW216276   4.601   4.484   4.468  0.2567  0.1334  0.8972
 4136SOL    HW316277   4.714   4.391   4.504  0.7435  0.3878  0.0527
 4136SOL    MW416278   4.630   4.413   4.508  0.3035 -0.8340  0.0372
 4137SOL     OW16279   0.116   2.600   0.272  0.0521  0.6070 -0.6705
 4137SOL    HW216280   0.183   2.531   0.273  0.7512  1.2506 -1.3828
 4137SOL    HW316281   0.038   2.557   0.236 -0.1754 -0.3577  0.9029
 4137SOL    MW416282   0.115   2.585   0.267 -0.1108  0.1001 -0.1532
 4138SOL     OW16283   2.572   3.925   2.610  0.0488 -0.0773 -0.1362
 4138SOL    HW216284   2.576   4.016   2.581 -0.1737 -0.1034 -0.2493
 4138SOL    HW316285   2.513   3.927   2.686  1.9008  0.2618  1.3524
 4138SOL    MW416286   2.565   3.937   2.616  0.0091  0.0629  0.5804
 4139SOL     OW16287   3.997   3.964   3.056  0.3765  0.1395 -0.0677
 4139SOL    HW216288   4.038   3.936   2.974 -0.5311 -1.1693 -0.1207
 4139SOL    HW316289   3.915   3.914   3.059 -1.1350  2.5014  0.1056
 4139SOL    MW416290   3.991   3.954   3.045 -0.0832  0.5218 -0.1010
 4140SOL     OW16291   5.739   1.984   3.698  0.1768  0.6830  0.0650
 4140SOL    HW216292   5.762   2.011   3.787 -1.4050 -0.5970  0.9160
 4140SOL    HW316293   5.648   2.012   3.687 -0.8992 -2.2871  0.2767
 4140SOL    MW416294   5.730   1.991   3.708  0.4307  0.1956 -0.0372
 4141SOL     OW16295   0.610   4.542   3.073 -0.3303 -0.0237 -0.0390
 4141SOL    HW216296   0.644   4.471   3.126  1.2079 -1.8428 -3.2113
 4141SOL    HW316297   0.530   4.506   3.033  0.4949 -0.0740 -1.7201
 4141SOL    MW416298   0.604   4.528   3.074  0.3763  0.4527  0.6713
 4142SOL     OW16299   5.257   5.016   5.840 -0.0269 -1.0502  0.2389
 4142SOL    HW216300   5.309   5.034   5.761  0.4807 -0.6327  0.6662
 4142SOL    HW316301   5.320   4.980   5.902 -0.1677 -0.1850  0.8964
 4142SOL    MW416302   5.272   5.013   5.838 -0.4940  0.3170  0.2930
 4143SOL     OW16303   5.876   5.247   4.977  0.4599 -0.4546 -0.2417
 4143SOL    HW216304   5.785   5.267   4.998  0.1006 -1.9581 -0.2731
 4143SOL    HW316305   5.883   5.152   4.985  2.1831 -0.3267  0.3574
 4143SOL    MW416306   5.865   5.237   4.981  0.0821 -0.3128 -0.2249
 4144SOL     OW16307   0.434   3.555   4.671 -0.2134 -0.4361 -0.1149
 4144SOL    HW216308   0.466   3.624   4.729  1.0776 -0.2594 -0.9692
 4144SOL    HW316309   0.361   3.515   4.718 -0.1678  0.6748  0.9512
 4144SOL    MW416310   0.429   3.559   4.685 -0.0959  0.6839 -0.4192
 4145SOL     OW16311   1.525   1.708   5.985 -0.0970  0.3494  0.1151
 4145SOL    HW216312   1.604   1.706   5.931  0.4212  2.3995  0.6947
 4145SOL    HW316313   1.531   1.629   6.039  1.1103  0.0138 -0.4776
 4145SOL    MW416314   1.537   1.698   5.985 -0.3615 -0.0197  0.3202
 4146SOL     OW16315   4.091   1.592   5.018 -0.1268  0.4706 -0.5121
 4146SOL    HW216316   4.107   1.519   5.078 -0.0244  1.1378  0.2840
 4146SOL    HW316317   3.997   1.589   5.001 -0.5860  1.6266  1.4957
 4146SOL    MW416318   4.081   1.582   5.023  0.4240 -0.1710  0.1247
 4147SOL     OW16319   1.173   4.915   4.467  0.0968  0.9966 -0.1025
 4147SOL    HW216320   1.078   4.925   4.456 -0.0015  0.8540  0.5631
 4147SOL    HW316321   1.189   4.822   4.450 -0.4818  0.0703  3.5410
 4147SOL    MW416322   1.162   4.904   4.463 -0.4690  0.0181  0.4178
 4148SOL     OW16323   1.900   3.251   5.999  0.0075 -0.1947  0.1371
 4148SOL    HW216324   1.957   3.300   6.059  0.0697  0.6865 -0.6265
 4148SOL    HW316325   1.938   3.264   5.913 -1.6103  0.8607 -0.4669
 4148SOL    MW416326   1.913   3.259   5.996  0.1742 -0.3595 -0.1638
 4149SOL     OW16327   1.529   5.611   1.250  1.0427  0.2204 -0.7347
 4149SOL    HW216328   1.528   5.637   1.158  2.1533  0.8770 -0.5805
 4149SOL    HW316329   1.618   5.629   1.279  0.2802  1.5631  0.9038
 4149SOL    MW416330   1.541   5.617   1.242  0.7466  0.4627 -0.3687
 4150SOL     OW16331   2.169   2.498   4.546  0.2859  0.1488 -0.6437
 4150SOL    HW216332   2.145   2.591   4.549  0.2141  0.1417 -1.0548
 4150SOL    HW316333   2.091   2.454   4.511  0.9719  0.1516 -2.2414
 4150SOL    MW416334   2.155   2.504   4.542  0.0545  0.3466 -0.2148
 4151SOL     OW16335   4.607   1.387   4.028 -0.3572  0.2546 -0.5293
 4151SOL    HW216336   4.525   1.410   3.985 -0.6550  0.0613 -0.0702
 4151SOL    HW316337   4.662   1.464   4.017 -0.5809  0.3656 -0.8880
 4151SOL    MW416338   4.603   1.401   4.021  0.4160  0.2384 -0.3377
 4152SOL     OW16339   5.132   5.389   3.000 -0.2967  0.7211  0.3669
 4152SOL    HW216340   5.056   5.445   3.015 -0.3604  0.5985  0.5160
 4152SOL    HW316341   5.096   5.312   2.956  0.0085  1.4128 -1.1481
 4152SOL    MW416342   5.117   5.386   2.996 -0.6115  0.7429  0.8367
 4153SOL     OW16343   4.583   2.847   3.711  0.3950  0.5180 -0.2502
 4153SOL    HW216344   4.575   2.858   3.616 -0.3424  0.1273 -0.2370
 4153SOL    HW316345   4.668   2.806   3.723  1.3031  2.1914 -0.6031
 4153SOL    MW416346   4.593   2.843   3.700  0.2292 -0.7760 -0.2765
 4154SOL     OW16347   1.372   0.956   0.515 -0.1755 -0.1869 -0.4059
 4154SOL    HW216348   1.345   1.036   0.559 -0.8507 -0.0633 -1.0189
 4154SOL    HW316349   1.290   0.913   0.492  0.1797 -1.2164  0.2012
 4154SOL    MW416350   1.358   0.961   0.518 -0.0866  0.1076  0.2224
 4155SOL     OW16351   0.232   2.028   0.035  0.5794 -0.1376 -0.4933
 4155SOL    HW216352   0.304   2.000   0.092 -1.3436 -1.6713  1.3693
 4155SOL    HW316353   0.230   1.964  -0.036 -1.0240 -2.3475  1.3678
 4155SOL    MW416354   0.241   2.016   0.033 -0.0802  0.1928  0.0160
 4156SOL     OW16355   5.012   0.140   4.839 -0.1614 -0.1221 -0.1816
 4156SOL    HW216356   5.017   0.216   4.781 -1.0240  1.4569  1.7121
 4156SOL    HW316357   4.933   0.094   4.812 -0.7530  0.8012 -0.0411
 4156SOL    MW416358   5.002   0.144   4.828  0.6629  0.7332  0.0061
 4157SOL     OW16359   0.066   3.595   2.149  0.5447 -0.0771 -0.0631
 4157SOL    HW216360   0.007   3.556   2.212  2.6006 -0.4610  1.7410
 4157SOL    HW316361   0.146   3.543   2.155  1.1351  0.4412 -2.3533
 4157SOL    MW416362   0.069   3.583   2.158 -0.0866 -0.1014 -0.1105
 4158SOL     OW16363   0.443   1.823   2.784  0.7047  0.2861  0.2185
 4158SOL    HW216364   0.517   1.883   2.771  1.3224 -0.6301 -0.5847
 4158SOL    HW316365   0.373   1.860   2.730  0.7118  0.8980  0.6121
 4158SOL    MW416366   0.444   1.836   2.775  0.1538  0.3358  0.5667
 4159SOL     OW16367   2.689   5.994   5.299  0.9061  0.0324 -0.3442
 4159SOL    HW216368   2.677   6.039   5.216  0.7385 -1.0856 -0.9473
 4159SOL    HW316369   2.735   5.913   5.276  1.1201 -0.1544  0.6887
 4159SOL    MW416370   2.694   5.989   5.285  0.4291  0.1526  0.8318
 4160SOL     OW16371   4.793   2.590   1.452 -0.6077 -0.2662 -0.2189
 4160SOL    HW216372   4.751   2.519   1.404  1.1142 -0.6291 -1.2517
 4160SOL    HW316373   4.749   2.590   1.538 -0.0243 -3.2338  0.1753
 4160SOL    MW416374   4.782   2.581   1.457  0.0631 -0.0691 -0.0947
 4161SOL     OW16375   0.834   2.131   0.300 -0.1482 -0.0259 -0.8765
 4161SOL    HW216376   0.877   2.079   0.232  1.2101  0.2503 -0.2678
 4161SOL    HW316377   0.812   2.067   0.369  0.7776  0.0571 -0.4874
 4161SOL    MW416378   0.837   2.115   0.300 -0.4972  0.5440  0.4742
 4162SOL     OW16379   5.655   2.790   6.056  0.1977 -0.6040  0.0300
 4162SOL    HW216380   5.673   2.696   6.048  0.6889 -0.4724 -0.4138
 4162SOL    HW316381   5.724   2.824   6.113  2.4103  0.1784 -2.8909
 4162SOL    MW416382   5.666   2.782   6.063  0.6119 -0.7640  0.3590
 4163SOL     OW16383   2.448   3.310   0.601 -0.4656  0.0109 -0.2035
 4163SOL    HW216384   2.409   3.264   0.675 -1.5472  1.0299 -0.1031
 4163SOL    HW316385   2.476   3.241   0.541 -1.0079 -0.7880  0.4449
 4163SOL    MW416386   2.447   3.295   0.603 -0.1136  0.3107  0.6009
 4164SOL     OW16387   2.087   1.204   1.282  0.2086 -0.1559  0.0000
 4164SOL    HW216388   2.145   1.137   1.246  1.7083  1.1618 -0.1480
 4164SOL    HW316389   2.139   1.284   1.280 -0.8584  0.6594  1.9162
 4164SOL    MW416390   2.102   1.205   1.277  0.1059 -0.2865 -0.6829
 4165SOL     OW16391   3.231   6.055   0.458  0.1183  0.0235 -0.0995
 4165SOL    HW216392   3.225   5.963   0.432  0.8468 -0.1583  0.3456
 4165SOL    HW316393   3.163   6.067   0.524  0.1288 -0.2363 -0.0429
 4165SOL    MW416394   3.221   6.045   0.463 -0.7586 -0.0837  0.4475
 4166SOL     OW16395   6.277   0.364   6.065 -0.5247  0.2068  0.0549
 4166SOL    HW216396   6.296   0.432   6.130  0.8527 -0.7638  0.7151
 4166SOL    HW316397   6.328   0.389   5.988 -1.6373  0.9985 -0.4541
 4166SOL    MW416398   6.286   0.377   6.064 -0.0944  0.0849  0.5868
 4167SOL     OW16399   3.038   4.522   0.253 -0.3480  1.1529  0.3612
 4167SOL    HW216400   3.041   4.430   0.226  0.7099  1.7547 -1.7276
 4167SOL    HW316401   3.122   4.537   0.297  0.5394  1.7067 -1.4592
 4167SOL    MW416402   3.050   4.512   0.256 -0.2669 -0.2109 -0.1107
 4168SOL     OW16403   2.907   4.535   0.918 -0.0447 -0.3902  0.6139
 4168SOL    HW216404   2.981   4.509   0.864  1.0501  2.5743  0.5144
 4168SOL    HW316405   2.831   4.494   0.876  1.0621 -0.1746 -1.7329
 4168SOL    MW416406   2.906   4.526   0.906 -0.2943 -0.1617  0.4423
 4169SOL     OW16407   5.720   5.696   6.089 -0.0607 -0.0197 -0.3816
 4169SOL    HW216408   5.741   5.663   6.002  0.0670  0.1775 -0.4239
 4169SOL    HW316409   5.788   5.760   6.108  0.9039 -1.2817  0.5594
 4169SOL    MW416410   5.732   5.700   6.080 -0.2829  0.8022  0.2825
 4170SOL     OW16411   2.910   4.997   1.123 -0.4547  0.0372 -0.0383
 4170SOL    HW216412   2.972   5.070   1.111 -1.1462  0.7451  0.5678
 4170SOL    HW316413   2.908   4.954   1.037 -0.1059  0.7949 -0.4465
 4170SOL    MW416414   2.918   5.001   1.110 -0.2414  0.3304  0.2887
 4171SOL     OW16415   3.598   1.220   0.122  0.1007 -0.2598 -0.3241
 4171SOL    HW216416   3.569   1.130   0.139 -1.1175  0.1339 -0.2405
 4171SOL    HW316417   3.596   1.262   0.207 -0.8376  0.2576 -0.5897
 4171SOL    MW416418   3.594   1.213   0.135  0.2536 -0.3939 -0.2170
 4172SOL     OW16419   1.949   1.329   5.667 -0.0304 -0.2829 -0.1420
 4172SOL    HW216420   1.940   1.269   5.740 -2.0056 -1.1493 -1.0417
 4172SOL    HW316421   1.871   1.384   5.671  0.4928  0.5418 -0.8450
 4172SOL    MW416422   1.937   1.328   5.677  0.2920  0.1086  0.5231
 4173SOL     OW16423   1.794   4.525   2.750 -0.1513  0.1992  0.5592
 4173SOL    HW216424   1.802   4.488   2.838  0.4464 -0.8252  0.0866
 4173SOL    HW316425   1.881   4.560   2.730 -0.1964  0.1373  0.2450
 4173SOL    MW416426   1.806   4.525   2.759 -0.2414  0.3839  0.4549
 4174SOL     OW16427   4.820   3.391   2.291  0.3633  0.3509 -0.3809
 4174SOL    HW216428   4.879   3.384   2.217  1.5903 -1.1188  0.6587
 4174SOL    HW316429   4.750   3.328   2.273  1.6220 -1.3883  0.4642
 4174SOL    MW416430   4.818   3.382   2.279  0.0387 -0.0140 -0.9338
 4175SOL     OW16431   3.266   4.697   1.987 -0.0734 -0.4453 -0.1080
 4175SOL    HW216432   3.211   4.773   2.001  0.0210 -0.3292 -0.3725
 4175SOL    HW316433   3.211   4.622   2.011  0.8071 -0.1739  3.3829
 4175SOL    MW416434   3.252   4.697   1.992  0.0521  0.1447 -0.2855
 4176SOL     OW16435   6.138   4.763   5.853 -0.6493 -0.0979  0.0017
 4176SOL    HW216436   6.118   4.810   5.772 -0.5008  0.5894  0.3518
 4176SOL    HW316437   6.232   4.772   5.863 -0.7081  0.0925  0.4092
 4176SOL    MW416438   6.147   4.771   5.844 -0.2838 -0.4862  0.0346
 4177SOL     OW16439   5.230   6.200   0.679 -0.1878  0.2655 -0.0297
 4177SOL    HW216440   5.271   6.200   0.593  0.0779 -1.7155  0.0640
 4177SOL    HW316441   5.169   6.274   0.676  0.4578  0.7729 -1.5921
 4177SOL    MW416442   5.227   6.210   0.667 -0.2807 -0.1679 -0.2191
 4178SOL     OW16443   5.805   2.559   5.487  0.0159  0.0636 -1.5528
 4178SOL    HW216444   5.801   2.633   5.548 -0.5219 -0.6937 -0.6451
 4178SOL    HW316445   5.718   2.557   5.447 -0.8653 -1.5763  0.2845
 4178SOL    MW416446   5.793   2.569   5.490  0.2521 -0.2037 -0.1574
 4179SOL     OW16447   5.448   1.856   5.662 -0.1978  0.1537  0.1938
 4179SOL    HW216448   5.385   1.805   5.611 -0.1432 -0.4702  0.7384
 4179SOL    HW316449   5.473   1.927   5.604  0.5631 -1.0505 -1.0091
 4179SOL    MW416450   5.443   1.858   5.648 -0.1117 -0.2064  0.4878
 4180SOL     OW16451   4.833   4.246   6.055 -0.7167  0.3801 -0.4009
 4180SOL    HW216452   4.842   4.341   6.065 -1.6935  0.4216  0.1711
 4180SOL    HW316453   4.869   4.228   5.968  2.0193  0.8884  0.5457
 4180SOL    MW416454   4.839   4.256   6.045 -0.3062 -0.5578 -0.1578
 4181SOL     OW16455   3.501   4.383   2.810 -0.5884 -0.3117 -0.1275
 4181SOL    HW216456   3.589   4.393   2.845 -1.3840 -0.2003  1.9867
 4181SOL    HW316457   3.493   4.290   2.790 -0.7492 -0.7861  1.9614
 4181SOL    MW416458   3.512   4.372   2.812  0.4287  0.0421 -0.3147
 4182SOL     OW16459   3.271   5.748   5.432  0.0286 -0.1492  0.1385
 4182SOL    HW216460   3.357   5.775   5.465 -0.1288  0.4053  0.0976
 4182SOL    HW316461   3.236   5.826   5.389 -0.2264 -0.5593 -0.4030
 4182SOL    MW416462   3.278   5.762   5.431  0.1285 -0.1355 -0.3199
 4183SOL     OW16463   5.470   1.180   3.206  0.0213 -0.1900  0.0965
 4183SOL    HW216464   5.477   1.249   3.141 -1.0921 -0.1545 -0.0110
 4183SOL    HW316465   5.555   1.137   3.205  0.3877  0.5224 -0.5691
 4183SOL    MW416466   5.482   1.184   3.197 -0.5502 -0.4496  0.0596
 4184SOL     OW16467   5.082   2.697   5.868  0.1426 -0.1251  0.9656
 4184SOL    HW216468   5.009   2.746   5.830 -0.1388 -1.0111  0.3116
 4184SOL    HW316469   5.053   2.677   5.957  0.1368  0.6256  1.1375
 4184SOL    MW416470   5.069   2.700   5.874  0.2800 -0.2487 -0.1849
 4185SOL     OW16471   0.802   3.634   1.911 -0.0976 -0.0377 -0.2197
 4185SOL    HW216472   0.876   3.573   1.910 -0.9750 -1.1880 -2.7363
 4185SOL    HW316473   0.842   3.720   1.915  1.3589 -0.6526 -0.7028
 4185SOL    MW416474   0.817   3.637   1.912 -0.0248  0.1561  0.7709
 4186SOL     OW16475   5.448   1.325   1.615 -0.3752  0.0128  0.1705
 4186SOL    HW216476   5.356   1.336   1.639 -0.4667 -0.2203 -0.0729
 4186SOL    HW316477   5.451   1.242   1.567 -0.1860  0.4471 -0.5830
 4186SOL    MW416478   5.436   1.315   1.612  0.2098  0.3850  0.0120
 4187SOL     OW16479   0.252   6.113   5.192 -0.1548 -0.5296 -0.5905
 4187SOL    HW216480   0.206   6.178   5.139 -0.5961 -1.2669 -1.1296
 4187SOL    HW316481   0.203   6.032   5.178 -0.5054 -0.6826  1.2360
 4187SOL    MW416482   0.239   6.111   5.183  0.5046  0.0577  0.1356
 4188SOL     OW16483   2.350   2.341   5.759 -0.0439 -0.2815  0.1165
 4188SOL    HW216484   2.403   2.370   5.684  2.1998 -0.1891  1.6318
 4188SOL    HW316485   2.353   2.245   5.754 -1.6894 -0.3069 -1.0473
 4188SOL    MW416486   2.357   2.332   5.748 -0.0236 -0.4781 -0.9527
 4189SOL     OW16487   2.856   5.193   4.859  0.0977 -0.0948 -0.0490
 4189SOL    HW216488   2.827   5.106   4.885 -1.0252  0.0994 -0.5663
 4189SOL    HW316489   2.943   5.203   4.898 -0.9788 -0.2587  2.5932
 4189SOL    MW416490   2.864   5.183   4.867 -0.5005 -0.2196 -0.4355
 4190SOL     OW16491   2.740   2.489   2.191  0.6448 -0.1111  0.0496
 4190SOL    HW216492   2.697   2.510   2.275  0.6170 -1.5595  0.4350
 4190SOL    HW316493   2.722   2.564   2.135 -3.7076 -1.1072 -0.2983
 4190SOL    MW416494   2.732   2.501   2.195  0.4996 -0.4483  0.5643
 4191SOL     OW16495   3.596   4.151   0.426 -0.6342 -0.2578 -0.4233
 4191SOL    HW216496   3.553   4.075   0.387 -1.6572  0.5241 -0.8661
 4191SOL    HW316497   3.582   4.141   0.520 -1.4965 -0.1910 -0.5406
 4191SOL    MW416498   3.589   4.139   0.433 -0.1720 -0.1222  0.4326
 4192SOL     OW16499   3.821   5.726   5.598  0.3296  0.2248 -0.3205
 4192SOL    HW216500   3.863   5.691   5.519  0.6171  2.0342 -1.0135
 4192SOL    HW316501   3.853   5.816   5.604 -0.2256  0.3406  1.4973
 4192SOL    MW416502   3.831   5.734   5.588 -0.1416 -0.0994 -0.0734
 4193SOL     OW16503   3.977   1.079   2.275 -0.0012 -0.5597  0.1776
 4193SOL    HW216504   3.929   1.035   2.205 -0.6143 -1.1775  0.9505
 4193SOL    HW316505   3.930   1.161   2.290  1.2516  0.4975 -1.3932
 4193SOL    MW416506   3.964   1.084   2.268  0.4202  0.4729  0.2265
 4194SOL     OW16507   4.435   0.121   2.364  0.1725  0.1749 -0.3999
 4194SOL    HW216508   4.399   0.209   2.370 -1.9141 -0.6023 -0.5121
 4194SOL    HW316509   4.451   0.095   2.454  1.4069  0.8580 -0.3961
 4194SOL    MW416510   4.432   0.129   2.376 -0.4137 -0.5611 -0.5454
 4195SOL     OW16511   2.805   5.767   1.132 -0.0374 -0.2616  0.4892
 4195SOL    HW216512   2.720   5.737   1.100  0.5768  0.4338 -1.9852
 4195SOL    HW316513   2.807   5.860   1.111  0.7176  0.0838  1.9905
 4195SOL    MW416514   2.795   5.775   1.125  0.1961  0.2739  0.1998
 4196SOL     OW16515   2.367   0.553   2.151  0.4062 -0.9627  0.1227
 4196SOL    HW216516   2.357   0.522   2.242  0.9878 -0.2297  0.4439
 4196SOL    HW316517   2.283   0.595   2.131  0.5819 -0.3536  0.6331
 4196SOL    MW416518   2.354   0.554   2.161 -0.0846 -0.1919 -0.1404
 4197SOL     OW16519   1.449   4.580   3.194  0.2570 -0.6152  0.1804
 4197SOL    HW216520   1.430   4.660   3.145 -2.1105 -0.2640  1.5134
 4197SOL    HW316521   1.451   4.608   3.286  1.0392 -1.8448  0.5673
 4197SOL    MW416522   1.447   4.594   3.200 -0.2695  0.1863 -0.5144
 4198SOL     OW16523   3.219   2.251   0.631  0.0999 -0.2437  0.6879
 4198SOL    HW216524   3.195   2.176   0.576  0.0474 -0.2725  0.7489
 4198SOL    HW316525   3.135   2.291   0.654  0.0859 -0.5772  1.2308
 4198SOL    MW416526   3.205   2.246   0.627  0.4648  0.5808 -0.1389
 4199SOL     OW16527   3.739   0.973   2.957  0.6807  0.6760 -0.1008
 4199SOL    HW216528   3.697   0.913   3.019 -2.8026  1.6146 -1.2969
 4199SOL    HW316529   3.712   1.060   2.986  4.3844  1.7305  0.7128
 4199SOL    MW416530   3.730   0.976   2.969 -0.0807 -0.5234 -0.4310
 4200SOL     OW16531   2.089   1.826   0.255  0.4054 -0.0066 -0.0514
 4200SOL    HW216532   2.032   1.772   0.310 -0.0464  1.3252  0.8557
 4200SOL    HW316533   2.028   1.874   0.198  0.7436  0.1004 -0.3262
 4200SOL    MW416534   2.073   1.826   0.255  0.3575  0.0831 -0.1991
 4201SOL     OW16535   1.037   1.007   5.944 -0.1084 -0.0882 -0.0864
 4201SOL    HW216536   0.953   0.964   5.924 -1.2368  1.0913  1.8751
 4201SOL    HW316537   1.057   0.980   6.033  1.1630  0.3851 -0.2169
 4201SOL    MW416538   1.028   0.998   5.953  0.3754 -0.7879  0.5676
 4202SOL     OW16539   1.892   5.832   4.743  0.3485 -0.6687  0.3887
 4202SOL    HW216540   1.976   5.785   4.747  0.5642 -0.2029  2.4595
 4202SOL    HW316541   1.900   5.888   4.666  0.9465 -2.3767 -0.8748
 4202SOL    MW416542   1.904   5.833   4.733  0.0253  0.1610 -0.5646
 4203SOL     OW16543   2.950   4.822   5.036  0.6318  0.3921  0.3921
 4203SOL    HW216544   2.979   4.848   4.949 -0.4885 -0.9099 -0.4127
 4203SOL    HW316545   2.917   4.733   5.024  0.1180  0.3315  2.0772
 4203SOL    MW416546   2.950   4.814   5.023 -0.4353  0.0110 -0.5142
 4204SOL     OW16547   2.819   3.779   2.552  0.2677  0.6916  0.0160
 4204SOL    HW216548   2.732   3.814   2.570  0.3553  1.3894 -0.9149
 4204SOL    HW316549   2.863   3.782   2.637 -0.3617  1.0222  0.3405
 4204SOL    MW416550   2.813   3.784   2.566 -0.1569 -0.3059 -0.1883
 4205SOL     OW16551   4.490   0.974   3.507 -0.0043  0.6490 -0.4676
 4205SOL    HW216552   4.527   0.940   3.426 -1.6034  1.3211 -1.5433
 4205SOL    HW316553   4.549   1.044   3.534  0.4065  0.5867 -1.1943
 4205SOL    MW416554   4.502   0.979   3.500  0.0619  0.1314 -0.3084
 4206SOL     OW16555   4.086   5.896   5.223 -0.3959 -0.2845 -0.6079
 4206SOL    HW216556   4.177   5.886   5.193 -0.2497 -2.7092  0.3630
 4206SOL    HW316557   4.035   5.905   5.143  0.6581  0.7954 -1.1863
 4206SOL    MW416558   4.091   5.896   5.209 -0.4279 -0.3173  0.2458
 4207SOL     OW16559   5.667   4.104   2.218  0.3824 -0.0447  0.0763
 4207SOL    HW216560   5.619   4.186   2.224  1.4627  0.7544 -1.6391
 4207SOL    HW316561   5.755   4.129   2.190  0.7711 -1.7755 -0.3620
 4207SOL    MW416562   5.672   4.118   2.215  0.1956 -0.2341 -0.2249
 4208SOL     OW16563   0.103   4.297   2.878 -0.5359  0.2712  0.1726
 4208SOL    HW216564   0.148   4.243   2.813 -0.4133 -0.1668  0.6107
 4208SOL    HW316565   0.110   4.247   2.959 -0.5280  0.8932  0.5644
 4208SOL    MW416566   0.110   4.283   2.880  0.5170  0.4637  0.3853
 4209SOL     OW16567   0.632   4.528   2.261 -0.5360  0.0374  0.3056
 4209SOL    HW216568   0.675   4.464   2.319  1.2170  0.2274 -0.7196
 4209SOL    HW316569   0.640   4.611   2.307  1.6136  0.3399 -0.5043
 4209SOL    MW416570   0.639   4.530   2.275  0.3283 -0.3101  0.4135
 4210SOL     OW16571   6.250   5.876   4.414 -0.5887  0.4911  0.5019
 4210SOL    HW216572   6.155   5.866   4.414 -0.4775 -1.8565 -2.0826
 4210SOL    HW316573   6.266   5.946   4.351 -0.5957  0.1358  0.0988
 4210SOL    MW416574   6.239   5.884   4.405 -0.0751  0.2946 -0.2237
 4211SOL     OW16575   6.026   5.475   0.429 -0.2136 -0.3570 -0.7265
 4211SOL    HW216576   6.104   5.506   0.383 -0.4977  1.2039 -0.2322
 4211SOL    HW316577   5.964   5.547   0.421  0.2295  0.7645  3.3412
 4211SOL    MW416578   6.028   5.488   0.422 -0.3434 -0.6966  0.1974
 4212SOL     OW16579   3.677   3.896   6.318  0.0194  0.1596 -0.0987
 4212SOL    HW216580   3.586   3.918   6.336  0.0046  0.2492 -0.2829
 4212SOL    HW316581   3.716   3.882   6.405 -0.5949 -1.6612 -0.0788
 4212SOL    MW416582   3.670   3.897   6.332 -0.2935  0.0199 -0.3091
 4213SOL     OW16583   4.109   5.091   0.938 -0.0519 -0.5804  0.3337
 4213SOL    HW216584   4.200   5.098   0.908 -0.3770  3.5931 -0.2573
 4213SOL    HW316585   4.116   5.078   1.032  1.1852 -0.6239  0.2511
 4213SOL    MW416586   4.122   5.091   0.947  0.1537 -0.0070  0.4452
 4214SOL     OW16587   2.493   0.065   3.056  0.0627  0.5852  0.1090
 4214SOL    HW216588   2.458   0.153   3.039 -0.5251  0.6152  1.3814
 4214SOL    HW316589   2.415   0.009   3.059  0.5036 -0.2580 -2.0075
 4214SOL    MW416590   2.478   0.069   3.054 -0.1346 -0.4069 -0.1831
 4215SOL     OW16591   1.015   0.671   5.796  0.0566 -0.1728 -0.0296
 4215SOL    HW216592   1.104   0.676   5.829 -0.4024  0.0564  1.2295
 4215SOL    HW316593   0.976   0.596   5.841 -0.8752  0.7214  0.7174
 4215SOL    MW416594   1.021   0.662   5.807 -0.3739 -0.0964 -0.2829
 4216SOL     OW16595   5.209   6.404   5.880  0.0414 -0.1042  0.6331
 4216SOL    HW216596   5.240   6.453   5.805 -0.4051  0.7654  1.0038
 4216SOL    HW316597   5.127   6.364   5.850  1.3995 -2.3684 -0.3321
 4216SOL    MW416598   5.202   6.405   5.866  0.2594 -0.3867  0.3871
 4217SOL     OW16599   5.560   4.724   3.967  0.7746  0.1935 -0.0914
 4217SOL    HW216600   5.473   4.745   3.935  0.8338 -0.2178 -0.5265
 4217SOL    HW316601   5.617   4.733   3.891  0.7285 -1.9967 -0.4361
 4217SOL    MW416602   5.556   4.728   3.953  0.5973 -0.2069  0.0106
 4218SOL     OW16603   3.345   2.506   0.650 -0.5132  0.2748  0.1667
 4218SOL    HW216604   3.393   2.470   0.575  1.1879  0.8415  0.9221
 4218SOL    HW316605   3.271   2.447   0.662  0.6171 -1.3229 -0.3774
 4218SOL    MW416606   3.342   2.494   0.642  0.2857  0.3030 -0.3630
 4219SOL     OW16607   5.688   5.693   3.155  0.5059 -0.3652  0.0002
 4219SOL    HW216608   5.677   5.670   3.063  1.1058 -1.2408  0.1309
 4219SOL    HW316609   5.599   5.709   3.187  0.2453 -0.6011 -0.5973
 4219SOL    MW416610   5.675   5.692   3.147 -0.2980  0.1342 -0.3098
 4220SOL     OW16611   2.717   3.846   3.162  0.5279 -0.6352 -0.2538
 4220SOL    HW216612   2.694   3.772   3.217 -0.5051 -0.0186  0.1814
 4220SOL    HW316613   2.674   3.921   3.203 -1.0894 -0.2723 -2.3772
 4220SOL    MW416614   2.708   3.846   3.174  0.6369 -0.3093  0.6506
 4221SOL     OW16615   6.424   5.540   3.500  0.4193 -0.1000  0.2510
 4221SOL    HW216616   6.414   5.499   3.587 -0.8258 -0.8682 -0.2260
 4221SOL    HW316617   6.408   5.633   3.516 -0.3961 -0.3129  0.7682
 4221SOL    MW416618   6.420   5.547   3.514 -0.4824  0.0831 -0.0426
 4222SOL     OW16619   1.270   6.156   5.006  0.0157  0.4141  0.3030
 4222SOL    HW216620   1.318   6.198   4.935 -1.3640 -0.6080 -1.2969
 4222SOL    HW316621   1.335   6.145   5.076  0.8229  3.7352  0.2664
 4222SOL    MW416622   1.285   6.160   5.006  0.2128  0.3622  0.2881
 4223SOL     OW16623   2.373   2.487   1.506  0.5418  0.1515 -0.1070
 4223SOL    HW216624   2.393   2.566   1.556  1.7133 -0.5774  0.6089
 4223SOL    HW316625   2.456   2.441   1.499  0.0713 -0.5473 -1.3733
 4223SOL    MW416626   2.386   2.491   1.512  0.1659 -0.2600  0.8772
 4224SOL     OW16627   0.625   5.284   4.107  0.1043  0.0440  0.0306
 4224SOL    HW216628   0.640   5.332   4.025 -1.0228  0.0325 -0.1954
 4224SOL    HW316629   0.531   5.290   4.121  0.3781  0.7766  1.7898
 4224SOL    MW416630   0.615   5.292   4.098 -0.2469  0.2387  0.6450
 4225SOL     OW16631   5.382   3.781   5.902 -0.1719 -0.3721  0.2269
 4225SOL    HW216632   5.346   3.697   5.875 -0.8986 -0.1237  0.4026
 4225SOL    HW316633   5.408   3.767   5.993 -0.1541 -0.4497  0.2103
 4225SOL    MW416634   5.381   3.768   5.910 -0.0403 -0.5749 -0.1535
 4226SOL     OW16635   3.764   2.350   3.621  0.2524 -0.3684 -0.0715
 4226SOL    HW216636   3.711   2.301   3.558  1.2898 -0.6293 -0.7654
 4226SOL    HW316637   3.826   2.399   3.567  1.1230 -0.5463  0.7540
 4226SOL    MW416638   3.765   2.350   3.606 -0.1169  0.1409  0.0768
 4227SOL     OW16639   4.281   3.841   0.262  0.1415  0.5738 -0.2044
 4227SOL    HW216640   4.303   3.765   0.208  0.4003  2.1715 -2.5198
 4227SOL    HW316641   4.186   3.838   0.270 -0.1986  1.4659 -2.8038
 4227SOL    MW416642   4.272   3.831   0.256  0.3206 -0.5278 -0.1855
 4228SOL     OW16643   4.501   5.091   0.596  0.1790  0.4372  0.3756
 4228SOL    HW216644   4.453   5.095   0.679 -0.6292 -0.2921 -0.0443
 4228SOL    HW316645   4.594   5.094   0.622 -0.0531 -0.2345  1.3422
 4228SOL    MW416646   4.507   5.092   0.610  0.1073  0.4372 -0.3486
 4229SOL     OW16647   2.290   3.923   5.901  0.6676 -0.2745 -0.0917
 4229SOL    HW216648   2.352   3.983   5.942  0.6507 -0.5025  0.2707
 4229SOL    HW316649   2.328   3.904   5.815  0.8056  0.0400 -0.1018
 4229SOL    MW416650   2.303   3.929   5.895  0.1812 -0.1633  0.4588
 4230SOL     OW16651   5.079   5.663   4.981  0.7603  0.5255 -0.4753
 4230SOL    HW216652   5.017   5.672   5.053  0.6597 -1.3043 -0.2831
 4230SOL    HW316653   5.047   5.588   4.930  3.2190 -1.0525  0.1163
 4230SOL    MW416654   5.067   5.654   4.983 -0.5481 -0.3415 -0.3611
 4231SOL     OW16655   4.332   4.636   3.331  0.3469  0.2125  0.1425
 4231SOL    HW216656   4.264   4.660   3.267  1.0197  1.2539 -0.2056
 4231SOL    HW316657   4.414   4.661   3.288  0.8128  0.9391  1.4201
 4231SOL    MW416658   4.334   4.642   3.317 -0.3706 -0.4798  0.6804
 4232SOL     OW16659   5.437   2.100   5.506 -0.0532  0.4557  0.2202
 4232SOL    HW216660   5.400   2.159   5.440 -1.5930  1.3465  1.7896
 4232SOL    HW316661   5.486   2.157   5.565  0.7121 -0.2329  0.2678
 4232SOL    MW416662   5.438   2.115   5.505  0.5796 -0.6947 -0.1822
 4233SOL     OW16663   1.184   4.387   0.634  0.3121  0.2834 -0.2586
 4233SOL    HW216664   1.240   4.417   0.562  3.1100 -1.7002  0.9078
 4233SOL    HW316665   1.136   4.312   0.598 -0.3413  0.9422 -0.7838
 4233SOL    MW416666   1.185   4.381   0.620 -0.4366 -0.1604  0.0906
 4234SOL     OW16667   5.140   6.224   4.921 -0.3312 -0.7217 -0.6921
 4234SOL    HW216668   5.232   6.209   4.943 -0.5339 -0.8481  0.0891
 4234SOL    HW316669   5.142   6.272   4.838  0.4936  1.0857  0.3358
 4234SOL    MW416670   5.152   6.228   4.913 -0.2906 -0.5122 -0.5887
 4235SOL     OW16671   6.191   1.022   3.527 -0.1717 -0.1179 -0.8351
 4235SOL    HW216672   6.269   1.008   3.581  0.2883 -0.7075 -1.6471
 4235SOL    HW316673   6.212   1.098   3.473 -0.5672  0.3667 -0.3177
 4235SOL    MW416674   6.204   1.030   3.527 -0.2392 -0.2932  0.5937
 4236SOL     OW16675   6.379   3.566   3.599 -0.3403 -0.1291  0.1765
 4236SOL    HW216676   6.406   3.592   3.511  1.4911 -2.0933  0.0497
 4236SOL    HW316677   6.351   3.647   3.641 -0.8849  0.9257 -2.0598
 4236SOL    MW416678   6.379   3.580   3.593 -0.3054 -0.3586 -0.7022
 4237SOL     OW16679   2.531   1.396   0.388 -0.3490  0.2930  0.0636
 4237SOL    HW216680   2.591   1.322   0.382  1.2342  1.6527 -2.2817
 4237SOL    HW316681   2.449   1.363   0.352  0.1256 -0.5355 -0.2870
 4237SOL    MW416682   2.528   1.382   0.383  0.9940  0.2971  0.2048
 4238SOL     OW16683   0.078   0.378   4.157 -0.7346 -0.2503 -0.3262
 4238SOL    HW216684  -0.010   0.375   4.119 -1.1877  2.5689  0.2977
 4238SOL    HW316685   0.129   0.434   4.098  0.2502 -0.7034  0.0675
 4238SOL    MW416686   0.073   0.385   4.144  0.0170  0.3122  0.2229
 4239SOL     OW16687   1.626   4.245   4.878 -0.3546 -0.1920 -0.5657
 4239SOL    HW216688   1.577   4.287   4.949 -0.7570 -0.9110 -0.4152
 4239SOL    HW316689   1.620   4.151   4.896 -0.5400 -0.3913 -1.6050
 4239SOL    MW416690   1.619   4.238   4.890 -0.1217  0.8763 -0.8885
 4240SOL     OW16691   1.781   5.795   4.197 -0.1207 -0.3793  0.8208
 4240SOL    HW216692   1.745   5.745   4.124 -0.5923  0.3945  0.5126
 4240SOL    HW316693   1.805   5.879   4.159  0.2586 -0.2059  1.4260
 4240SOL    MW416694   1.780   5.799   4.183 -0.0084 -0.0976  0.0054
 4241SOL     OW16695   5.669   4.933   1.802  0.1946 -0.3430  0.0076
 4241SOL    HW216696   5.716   4.861   1.844 -0.0302 -0.7845 -0.4922
 4241SOL    HW316697   5.578   4.922   1.829  0.2700  0.1753  0.5056
 4241SOL    MW416698   5.664   4.922   1.811  0.2722  0.2635  0.2590
 4242SOL     OW16699   4.769   3.845   0.098  0.2719  0.5351 -0.6330
 4242SOL    HW216700   4.764   3.848   0.194  0.1090 -0.3835 -0.6095
 4242SOL    HW316701   4.753   3.935   0.071 -0.5249  0.6447  0.1706
 4242SOL    MW416702   4.767   3.857   0.107 -0.0256 -0.1036 -0.1406
 4243SOL     OW16703   5.488   4.443   0.259  0.0137 -0.2550 -0.3739
 4243SOL    HW216704   5.481   4.363   0.207  1.8281 -1.9059  1.7236
 4243SOL    HW316705   5.555   4.495   0.214  0.5966 -1.0462 -0.4402
 4243SOL    MW416706   5.496   4.440   0.246 -0.0204  0.1292 -0.2911
 4244SOL     OW16707   2.985   2.094   4.272 -0.0969  0.2292 -0.0567
 4244SOL    HW216708   2.892   2.094   4.293 -0.0467  2.5704  0.3993
 4244SOL    HW316709   2.995   2.024   4.207 -2.0715 -0.3366  0.1929
 4244SOL    MW416710   2.974   2.085   4.266  0.2461  0.1772  0.3198
 4245SOL     OW16711   1.309   0.276   2.010  0.1581 -0.0598  0.1986
 4245SOL    HW216712   1.389   0.293   1.960  0.3650 -0.0623  0.5269
 4245SOL    HW316713   1.277   0.192   1.977 -0.1316  0.2973 -0.4743
 4245SOL    MW416714   1.315   0.267   1.999  0.1214  0.6443 -0.1931
 4246SOL     OW16715   5.010   5.619   3.746 -0.3007 -0.7231 -0.4430
 4246SOL    HW216716   4.955   5.599   3.822 -2.5419 -0.0317 -1.7873
 4246SOL    HW316717   5.067   5.690   3.777  0.1916 -1.7272  1.1054
 4246SOL    MW416718   5.010   5.626   3.760 -0.5117 -0.0042  0.5878
 4247SOL     OW16719   1.703   6.285   3.588  0.8495  0.2004 -0.4911
 4247SOL    HW216720   1.622   6.305   3.540 -0.1956 -0.1685  1.0437
 4247SOL    HW316721   1.674   6.271   3.679  2.3099 -2.3616 -0.3343
 4247SOL    MW416722   1.688   6.286   3.594 -0.3600 -0.7886 -0.4006
 4248SOL     OW16723   5.967   0.970   3.672  0.1571 -0.0009 -0.0903
 4248SOL    HW216724   6.024   0.978   3.595 -0.5874  0.1381 -0.6411
 4248SOL    HW316725   5.893   0.919   3.641 -0.4309  0.5514  0.3797
 4248SOL    MW416726   5.965   0.964   3.658 -0.1655  0.2111 -0.5938
 4249SOL     OW16727   3.805   5.233   2.933 -0.3194 -0.5372  0.0501
 4249SOL    HW216728   3.775   5.289   2.862 -0.1053 -0.1822  0.2340
 4249SOL    HW316729   3.726   5.189   2.964 -0.4025 -0.7512 -0.4520
 4249SOL    MW416730   3.791   5.235   2.928  0.2682  0.3921 -0.3093
 4250SOL     OW16731   5.953   3.616   5.640  0.3046  0.2374  0.2987
 4250SOL    HW216732   5.862   3.637   5.619 -0.6106 -2.8233  0.7917
 4250SOL    HW316733   5.982   3.688   5.696 -1.5702  1.5881 -0.3653
 4250SOL    MW416734   5.945   3.628   5.644 -0.2860 -0.0522 -0.4329
 4251SOL     OW16735   1.922   5.419   6.354 -0.0213  0.6810  0.0988
 4251SOL    HW216736   1.843   5.399   6.304  0.4760 -0.1190 -0.4037
 4251SOL    HW316737   1.896   5.411   6.445 -0.1896 -1.0544 -0.0659
 4251SOL    MW416738   1.908   5.415   6.359 -0.2804  0.2669  0.1872
 4252SOL     OW16739   6.039   2.385   5.482  0.5638  0.0972 -0.0282
 4252SOL    HW216740   6.120   2.416   5.521  1.1619  1.2533 -2.0264
 4252SOL    HW316741   5.982   2.463   5.480 -0.7858 -0.7874  1.7107
 4252SOL    MW416742   6.042   2.400   5.487  0.2525 -0.0687  0.1705
 4253SOL     OW16743   3.435   3.803   0.844 -0.1896  0.2753  0.3868
 4253SOL    HW216744   3.363   3.826   0.902 -0.9863  2.4461 -1.3319
 4253SOL    HW316745   3.489   3.881   0.840  0.5529 -0.2706 -0.7863
 4253SOL    MW416746   3.432   3.816   0.851  0.1248 -0.0370  0.2081
 4254SOL     OW16747   1.149   2.662   0.154  0.4720  0.0684 -0.4544
 4254SOL    HW216748   1.142   2.650   0.249 -1.3715  1.5927 -0.3103
 4254SOL    HW316749   1.226   2.612   0.128  1.3498  0.0594  1.9274
 4254SOL    MW416750   1.158   2.654   0.163 -0.1858  0.1198 -0.0881
 4255SOL     OW16751   0.785   5.592   1.088  0.2167  0.2534 -0.1634
 4255SOL    HW216752   0.739   5.521   1.044  0.0957  0.6203 -0.6395
 4255SOL    HW316753   0.838   5.549   1.155 -1.2029 -0.1557  0.7589
 4255SOL    MW416754   0.786   5.577   1.091 -0.1375  0.0016 -0.3342
 4256SOL     OW16755   5.659   6.118   0.288 -0.1862 -0.4184  0.6400
 4256SOL    HW216756   5.665   6.084   0.377  0.7231 -0.1977  0.6742
 4256SOL    HW316757   5.569   6.150   0.280 -1.1346 -2.8204  0.6015
 4256SOL    MW416758   5.648   6.117   0.299  0.3526 -0.6003  0.2554
 4257SOL     OW16759   6.007   4.744   4.782  0.6010 -0.0567  0.2596
 4257SOL    HW216760   6.011   4.801   4.859 -0.7934  1.4739 -0.7326
 4257SOL    HW316761   5.956   4.668   4.810  0.4951  0.2693  0.9657
 4257SOL    MW416762   6.001   4.741   4.796  0.2665  0.5209  0.5428
 4258SOL     OW16763   4.491   0.466   0.243  0.0843 -0.3669  0.1456
 4258SOL    HW216764   4.576   0.460   0.201  0.2296 -2.8456  0.6388
 4258SOL    HW316765   4.446   0.537   0.197  1.5071 -0.6510 -1.8090
 4258SOL    MW416766   4.496   0.475   0.231 -0.6637  0.1162 -0.1952
 4259SOL     OW16767   1.566   3.919   5.326  0.4704  0.0915 -0.2381
 4259SOL    HW216768   1.558   4.014   5.319 -2.1379  0.0436  1.1057
 4259SOL    HW316769   1.560   3.901   5.420  2.7787 -1.3349 -0.2732
 4259SOL    MW416770   1.564   3.929   5.338  0.0947 -0.2567  0.1620
 4260SOL     OW16771   3.733   4.085   4.451 -1.1448 -0.0309  0.3384
 4260SOL    HW216772   3.696   4.166   4.416  0.3348  0.1635 -0.8725
 4260SOL    HW316773   3.795   4.115   4.518 -0.3546 -0.1230 -0.3398
 4260SOL    MW416774   3.737   4.100   4.455 -0.0941  0.0236 -0.0686
 4261SOL     OW16775   3.408   3.088   4.104 -0.0228 -0.2387 -0.5343
 4261SOL    HW216776   3.424   3.129   4.019 -1.2418 -1.5694 -1.4539
 4261SOL    HW316777   3.489   3.041   4.123  0.8946  1.4394 -0.1015
 4261SOL    MW416778   3.421   3.088   4.095  0.3811  0.2041  0.1179
 4262SOL     OW16779   4.522   4.343   2.511  0.1367 -0.0027 -0.2300
 4262SOL    HW216780   4.591   4.279   2.493  1.0085  1.1054 -0.9621
 4262SOL    HW316781   4.441   4.297   2.489  0.8163 -0.5310 -1.8357
 4262SOL    MW416782   4.520   4.329   2.505  0.1680 -0.8198 -0.6379
 4263SOL     OW16783   4.070   2.704   0.202 -0.7296  0.2076  0.0454
 4263SOL    HW216784   4.092   2.611   0.215 -1.9164  0.1117  1.6358
 4263SOL    HW316785   3.976   2.709   0.219 -0.6346  1.7472  0.2202
 4263SOL    MW416786   4.061   2.692   0.206  0.2591  0.0779 -0.1310
 4264SOL     OW16787   4.922   6.146   2.132  0.2081  0.3093 -0.0858
 4264SOL    HW216788   4.912   6.241   2.128  0.1851  0.3024 -0.2129
 4264SOL    HW316789   4.983   6.131   2.204  1.9256  0.5472 -1.4180
 4264SOL    MW416790   4.929   6.156   2.141 -0.5201  0.3138  0.0361
 4265SOL     OW16791   5.074   0.323   6.224  0.5649 -0.2155 -0.2488
 4265SOL    HW216792   5.038   0.411   6.214 -0.0741 -0.4220  0.1206
 4265SOL    HW316793   5.034   0.273   6.152 -1.3010 -0.8622  1.1437
 4265SOL    MW416794   5.064   0.328   6.213  0.0885 -0.0414  0.4918
 4266SOL     OW16795   1.405   0.973   4.159 -0.0721  0.5393  0.3053
 4266SOL    HW216796   1.409   0.881   4.132 -2.2949  0.4205  0.1957
 4266SOL    HW316797   1.496   0.998   4.173  0.5457 -1.9455  1.2582
 4266SOL    MW416798   1.418   0.964   4.157 -0.0417 -0.2787  0.3350
 4267SOL     OW16799   1.444   0.239   0.016  0.2022  0.7931  0.2226
 4267SOL    HW216800   1.452   0.145   0.004  0.0178  0.8972 -0.8407
 4267SOL    HW316801   1.489   0.257   0.098  0.7010 -0.1467  0.1699
 4267SOL    MW416802   1.451   0.229   0.025 -0.0652  0.3401 -0.2209
 4268SOL     OW16803   0.800   0.589   0.255 -0.1209  0.4027 -0.4966
 4268SOL    HW216804   0.769   0.653   0.191 -1.6754  0.4969  0.3186
 4268SOL    HW316805   0.815   0.509   0.204 -0.9046  0.6072 -1.0559
 4268SOL    MW416806   0.798   0.587   0.240 -0.2377 -0.3470  0.1519
 4269SOL     OW16807   6.306   4.635   1.814  0.8455  0.6177 -0.1974
 4269SOL    HW216808   6.375   4.608   1.753 -0.1957 -0.5946 -0.9105
 4269SOL    HW316809   6.240   4.566   1.806 -0.3866  1.6667  0.5611
 4269SOL    MW416810   6.306   4.622   1.805  0.5990 -0.1575  0.0251
 4270SOL     OW16811   2.474   0.949   0.393  0.1205  0.1063  0.2625
 4270SOL    HW216812   2.481   0.943   0.298 -0.9758 -0.0814  0.1862
 4270SOL    HW316813   2.535   1.020   0.417  0.7698 -0.1754 -0.5133
 4270SOL    MW416814   2.483   0.958   0.384  0.5022 -0.4720 -0.4689
 4271SOL     OW16815   1.485   5.220   1.762 -0.0920  0.4327 -0.1531
 4271SOL    HW216816   1.421   5.187   1.825  1.7617 -2.7420  0.2661
 4271SOL    HW316817   1.444   5.299   1.727 -3.5283 -0.5253  1.2064
 4271SOL    MW416818   1.471   5.226   1.765  0.1882 -0.9450  0.4832
 4272SOL     OW16819   4.302   4.811   2.405  0.2436 -0.0330 -0.0033
 4272SOL    HW216820   4.293   4.738   2.344  0.9829  0.5077 -0.7857
 4272SOL    HW316821   4.373   4.785   2.464 -0.4277 -0.5280  0.6057
 4272SOL    MW416822   4.310   4.798   2.405 -0.0184 -0.0716  0.2186
 4273SOL     OW16823   1.883   1.332   3.795  0.6696 -0.9961  0.2554
 4273SOL    HW216824   1.895   1.390   3.870 -0.4393 -0.1433 -0.1929
 4273SOL    HW316825   1.960   1.348   3.739  0.2107  0.3310 -0.0273
 4273SOL    MW416826   1.895   1.342   3.797  0.1822  0.2601 -0.0161
 4274SOL     OW16827   5.506   2.288   5.919 -0.1208 -0.0616 -0.0731
 4274SOL    HW216828   5.449   2.213   5.932 -1.7525  1.1794  0.2664
 4274SOL    HW316829   5.461   2.361   5.961  1.3288  1.1545 -0.5114
 4274SOL    MW416830   5.492   2.288   5.926 -0.3528 -0.6366  0.0238
 4275SOL     OW16831   3.674   3.993   4.106 -0.5853  0.2394 -0.3740
 4275SOL    HW216832   3.737   4.055   4.142 -0.8801  0.7595 -0.7363
 4275SOL    HW316833   3.708   3.907   4.130 -1.7334  0.5554  2.8412
 4275SOL    MW416834   3.687   3.990   4.114 -0.0011  0.5037  0.7278
 4276SOL     OW16835   4.359   3.249   2.384  0.1757 -0.1322  0.7777
 4276SOL    HW216836   4.272   3.215   2.408  0.9673 -2.2316  0.8566
 4276SOL    HW316837   4.401   3.268   2.468 -0.2633  1.1316  0.7341
 4276SOL    MW416838   4.353   3.247   2.398  0.1240 -0.3779  0.3429
 4277SOL     OW16839   0.629   4.675   4.778  0.2664  0.5305 -0.9186
 4277SOL    HW216840   0.599   4.586   4.758 -0.9544  0.6278  0.3252
 4277SOL    HW316841   0.630   4.679   4.873  0.2565  1.8768 -0.9543
 4277SOL    MW416842   0.626   4.664   4.788 -0.8893  1.1043  0.0266
 4278SOL     OW16843   5.233   1.456   0.815 -0.3926 -0.1102  0.2334
 4278SOL    HW216844   5.157   1.499   0.775 -0.9018 -0.6176  0.6376
 4278SOL    HW316845   5.295   1.527   0.830 -0.9680  0.3858  0.3085
 4278SOL    MW416846   5.231   1.471   0.812  0.2053 -0.0591  0.4473
 4279SOL     OW16847   3.318   3.061   3.303 -0.2417  0.2884 -0.1898
 4279SOL    HW216848   3.335   3.128   3.368  0.1561 -1.2396  1.3508
 4279SOL    HW316849   3.398   3.009   3.298 -0.4188  0.0839 -1.5717
 4279SOL    MW416850   3.331   3.063   3.311 -0.6745  0.5424 -0.3672
 4280SOL     OW16851   1.278   4.248   5.498 -0.0966 -0.1140 -0.2245
 4280SOL    HW216852   1.286   4.250   5.403 -2.0678 -0.1273 -0.4287
 4280SOL    HW316853   1.194   4.290   5.516  0.0979 -0.3839  1.4907
 4280SOL    MW416854   1.268   4.254   5.488 -0.1285 -0.4448 -0.8270
 4281SOL     OW16855   4.176   4.096   5.033 -0.6223  0.1388 -0.0879
 4281SOL    HW216856   4.261   4.089   4.989  0.0254 -0.6630  1.2374
 4281SOL    HW316857   4.125   4.023   4.998 -0.6226  0.3522 -0.5476
 4281SOL    MW416858   4.180   4.085   5.023 -0.4572  0.1709  0.5503
 4282SOL     OW16859   5.750   2.035   2.804  0.0393  0.1852  0.3473
 4282SOL    HW216860   5.685   2.105   2.793  0.1405  0.3833  0.9635
 4282SOL    HW316861   5.705   1.971   2.860  0.5988  0.6300  1.3270
 4282SOL    MW416862   5.735   2.036   2.810 -0.6389 -0.1553  0.4101
 4283SOL     OW16863   3.036   0.777   1.821 -0.0476 -0.3725 -0.1398
 4283SOL    HW216864   2.953   0.823   1.824 -0.5387 -1.3007  1.3665
 4283SOL    HW316865   3.056   0.757   1.912  1.8490 -0.1558 -0.4643
 4283SOL    MW416866   3.028   0.781   1.833  0.4967 -0.1963 -0.1910
 4284SOL     OW16867   0.063   5.345   4.804  0.0506  0.0901  0.0663
 4284SOL    HW216868   0.145   5.306   4.772  0.2003 -0.0911  0.6510
 4284SOL    HW316869   0.091   5.421   4.856 -0.1507  0.0308  0.2628
 4284SOL    MW416870   0.078   5.350   4.806  0.0242 -0.9392  0.6228
 4285SOL     OW16871   1.370   4.869   0.449  0.1831  0.4222 -0.5837
 4285SOL    HW216872   1.388   4.817   0.370  1.5359  1.3701 -0.9498
 4285SOL    HW316873   1.303   4.930   0.422 -1.3329 -0.9969 -0.1857
 4285SOL    MW416874   1.364   4.870   0.435  0.8300 -0.1052  0.0691
 4286SOL     OW16875   2.148   2.767   0.835 -0.4147 -0.8577  0.1949
 4286SOL    HW216876   2.170   2.841   0.891 -0.6488  0.1296 -0.9646
 4286SOL    HW316877   2.053   2.757   0.844 -0.7375  0.4211 -1.2689
 4286SOL    MW416878   2.138   2.775   0.843 -0.2861  0.3479 -0.3702
 4287SOL     OW16879   4.561   5.885   3.019  0.0382  0.5055  0.4744
 4287SOL    HW216880   4.575   5.979   3.005  1.1750  0.3606  0.4943
 4287SOL    HW316881   4.531   5.879   3.110 -1.7250  0.9731 -0.0415
 4287SOL    MW416882   4.559   5.897   3.029 -0.0984  0.2376  0.3150
 4288SOL     OW16883   2.054   0.394   2.258  0.2327 -0.4505  0.2466
 4288SOL    HW216884   2.039   0.473   2.310  0.8375  0.3343 -0.7324
 4288SOL    HW316885   2.124   0.347   2.305 -1.3862 -1.3763  1.8421
 4288SOL    MW416886   2.061   0.398   2.271  1.0893 -0.3522  0.4450
 4289SOL     OW16887   3.850   1.841   2.331  0.0396  0.1601 -0.4563
 4289SOL    HW216888   3.827   1.848   2.239 -1.8105 -1.5430 -0.1850
 4289SOL    HW316889   3.793   1.904   2.375 -2.0048 -1.8105 -0.1227
 4289SOL    MW416890   3.839   1.850   2.325  0.6296  0.4345  0.0316
 4290SOL     OW16891   2.244   3.418   2.086  0.3295 -0.8298 -0.3701
 4290SOL    HW216892   2.201   3.365   2.153 -0.5044 -0.8638 -0.9221
 4290SOL    HW316893   2.174   3.443   2.026  0.9094 -0.0317 -0.7297
 4290SOL    MW416894   2.229   3.414   2.087 -0.0182  0.0673  0.6536
 4291SOL     OW16895   1.815   1.335   4.278 -0.4132 -0.3515 -0.4300
 4291SOL    HW216896   1.884   1.398   4.300  0.9827 -2.5177  2.0732
 4291SOL    HW316897   1.764   1.327   4.358 -1.3080 -1.5070 -1.0869
 4291SOL    MW416898   1.817   1.343   4.292 -0.0762  0.0089  0.5614
 4292SOL     OW16899   5.743   0.484   1.224 -0.6409  0.1364 -0.2212
 4292SOL    HW216900   5.816   0.488   1.163 -1.5310  0.3698 -1.3002
 4292SOL    HW316901   5.776   0.433   1.298 -0.1987 -2.0454 -1.8258
 4292SOL    MW416902   5.757   0.478   1.226 -0.2358 -0.1208  0.5334
 4293SOL     OW16903   6.384   6.287   0.452  0.1510  0.3718 -0.2659
 4293SOL    HW216904   6.425   6.310   0.535  1.9061  0.2456 -1.0483
 4293SOL    HW316905   6.426   6.345   0.388 -0.0621 -0.5466 -1.2704
 4293SOL    MW416906   6.395   6.298   0.454  0.1956 -0.0188 -0.5314
 4294SOL     OW16907   4.558   1.749   5.392  0.1687 -0.1047 -0.1682
 4294SOL    HW216908   4.508   1.712   5.464  0.5834 -0.7575 -0.2060
 4294SOL    HW316909   4.528   1.702   5.314  1.8605 -1.6091  0.0030
 4294SOL    MW416910   4.548   1.738   5.391 -0.4003 -0.4621 -0.2671
 4295SOL     OW16911   2.365   1.323   3.431  0.0918 -0.0302  0.3688
 4295SOL    HW216912   2.270   1.315   3.429 -0.1624  2.1194  1.2525
 4295SOL    HW316913   2.391   1.287   3.516 -0.4010  2.5663  1.7379
 4295SOL    MW416914   2.356   1.317   3.442 -0.0342 -0.4134 -0.7642
 4296SOL     OW16915   2.649   6.147   0.346  0.4672  0.0591  0.0544
 4296SOL    HW216916   2.744   6.148   0.332  0.4201  2.4707 -0.5656
 4296SOL    HW316917   2.639   6.147   0.441  1.0736 -0.5939  0.1271
 4296SOL    MW416918   2.660   6.147   0.357  0.0051  0.9293  0.2797
 4297SOL     OW16919   2.872   1.374   5.726 -0.0886  0.3220  0.6157
 4297SOL    HW216920   2.839   1.411   5.644 -0.7000 -0.3900  0.5252
 4297SOL    HW316921   2.803   1.393   5.790  0.0352  0.1922  0.7891
 4297SOL    MW416922   2.858   1.382   5.724  0.3764  0.3664 -0.4653
 4298SOL     OW16923   2.681   6.414   1.640  0.4982 -0.1962 -0.8058
 4298SOL    HW216924   2.685   6.494   1.692  1.1325  0.3251 -1.6316
 4298SOL    HW316925   2.772   6.391   1.623  0.3784 -1.8908  0.5888
 4298SOL    MW416926   2.693   6.421   1.644 -0.1815 -0.3702  0.1885
 4299SOL     OW16927   5.819   3.792   0.667  0.1873 -0.4456  0.2612
 4299SOL    HW216928   5.792   3.821   0.754 -0.2682  0.6998 -0.2477
 4299SOL    HW316929   5.737   3.769   0.623 -0.3461  4.2487 -1.7399
 4299SOL    MW416930   5.805   3.793   0.673  0.0316 -0.1693 -0.0085
 4300SOL     OW16931   2.103   4.580   2.287  0.2289  0.2020 -0.0505
 4300SOL    HW216932   2.120   4.486   2.292 -0.7468 -0.1022 -1.7731
 4300SOL    HW316933   2.009   4.587   2.266  0.6043  1.4914 -1.4980
 4300SOL    MW416934   2.093   4.569   2.285 -0.8917 -0.0836  0.3363
 4301SOL     OW16935   0.297   0.852   5.945  0.3912 -0.0910  0.1248
 4301SOL    HW216936   0.236   0.813   5.882  0.9350  0.4892 -0.7945
 4301SOL    HW316937   0.319   0.937   5.907  4.2863 -1.5247 -1.3640
 4301SOL    MW416938   0.292   0.858   5.931  0.2505  0.3532 -0.4821
 4302SOL     OW16939   5.368   4.138   3.892  0.0408 -0.1494  0.1609
 4302SOL    HW216940   5.386   4.092   3.974 -0.2189  1.4282  1.1475
 4302SOL    HW316941   5.438   4.111   3.833  2.0916  1.0906  1.9050
 4302SOL    MW416942   5.379   4.128   3.895 -0.6592  0.1518  0.5814
 4303SOL     OW16943   4.531   0.554   4.836 -0.0029 -0.0668 -0.4732
 4303SOL    HW216944   4.450   0.533   4.883  0.0675  1.3036  0.3116
 4303SOL    HW316945   4.583   0.474   4.843 -1.4534 -1.1566 -1.4278
 4303SOL    MW416946   4.527   0.541   4.843  0.0083  0.3309  0.7100
 4304SOL     OW16947   2.480   3.961   6.289  0.3858  0.3016 -0.4471
 4304SOL    HW216948   2.420   3.896   6.253  0.0352 -0.0087  0.6732
 4304SOL    HW316949   2.487   4.028   6.221 -2.7764  1.3677  0.1303
 4304SOL    MW416950   2.473   3.961   6.275  0.3877  0.2205  0.1630
 4305SOL     OW16951   6.060   2.778   5.532 -0.2497  0.5609 -0.5461
 4305SOL    HW216952   6.101   2.864   5.519 -0.6132  0.7145 -0.7006
 4305SOL    HW316953   5.967   2.798   5.544 -0.1502  0.2855  0.7293
 4305SOL    MW416954   6.053   2.792   5.532  0.4186 -0.6027  0.0487
 4306SOL     OW16955   1.045   3.196   2.074 -0.3127 -0.3398  0.6007
 4306SOL    HW216956   1.124   3.162   2.117  0.3849  1.2400  0.6480
 4306SOL    HW316957   0.978   3.194   2.142 -0.1266 -1.0559  0.7674
 4306SOL    MW416958   1.047   3.191   2.089 -0.1544  0.4533  0.0353
 4307SOL     OW16959   5.398   5.586   0.742 -0.5237 -0.0283  0.1479
 4307SOL    HW216960   5.403   5.653   0.810  0.6245  1.3386 -1.2248
 4307SOL    HW316961   5.318   5.537   0.763 -0.5641  0.7688  2.0666
 4307SOL    MW416962   5.388   5.588   0.754 -0.1435 -0.1095 -0.1798
 4308SOL     OW16963   5.038   2.621   5.392 -0.3491 -0.0082  0.0262
 4308SOL    HW216964   5.116   2.583   5.433 -1.5253 -1.2745  1.1830
 4308SOL    HW316965   5.070   2.700   5.348  1.9110 -1.4725 -1.1274
 4308SOL    MW416966   5.053   2.626   5.391 -0.3980  0.8517 -0.1530
 4309SOL     OW16967   4.258   2.541   5.864 -0.5430 -0.2919  0.4356
 4309SOL    HW216968   4.233   2.450   5.879 -0.1463 -0.4143  0.3719
 4309SOL    HW316969   4.243   2.584   5.949 -0.8881 -0.3774  0.4185
 4309SOL    MW416970   4.253   2.535   5.877 -0.6027  0.6816  0.1298
 4310SOL     OW16971   0.603   0.198   4.641  0.2969 -0.5553 -0.3253
 4310SOL    HW216972   0.638   0.210   4.553 -0.1873  2.2054 -0.2481
 4310SOL    HW316973   0.676   0.163   4.692  1.3583  0.1992 -1.2824
 4310SOL    MW416974   0.617   0.195   4.636 -0.1127  0.6189  0.2238
 4311SOL     OW16975   3.042   4.010   3.652 -0.1229 -1.0592  0.1585
 4311SOL    HW216976   2.979   4.051   3.593  1.1155 -0.0955 -0.5412
 4311SOL    HW316977   3.023   4.048   3.738  0.6046  0.5999 -0.3651
 4311SOL    MW416978   3.031   4.020   3.656  0.1595 -0.6815 -0.7314
 4312SOL     OW16979   1.377   0.535   0.368 -0.1753 -0.1725 -0.7570
 4312SOL    HW216980   1.408   0.588   0.440 -0.2277  0.0634 -0.9075
 4312SOL    HW316981   1.283   0.550   0.366  0.0236  1.1288 -1.9110
 4312SOL    MW416982   1.369   0.544   0.377  0.3756  0.3262 -0.2723
 4313SOL     OW16983   2.569   3.522   1.582 -0.0869  0.2791 -0.0138
 4313SOL    HW216984   2.481   3.503   1.547 -0.5555  1.6052  0.4012
 4313SOL    HW316985   2.616   3.439   1.573 -1.3391 -0.4240 -0.3622
 4313SOL    MW416986   2.563   3.509   1.576 -0.1563 -0.0003 -0.3090
 4314SOL     OW16987   2.583   3.195   3.846  0.1067  1.2332  0.1075
 4314SOL    HW216988   2.519   3.180   3.916 -1.4548  1.7411 -1.1442
 4314SOL    HW316989   2.583   3.290   3.834 -1.2067  1.0458 -1.8904
 4314SOL    MW416990   2.574   3.205   3.854 -0.0942  0.2120 -0.1236
 4315SOL     OW16991   0.319   3.149   6.010  0.4275  0.6630 -0.3333
 4315SOL    HW216992   0.402   3.145   5.964  0.7028  0.5502  0.1626
 4315SOL    HW316993   0.254   3.169   5.942  0.6557 -0.6627 -0.9608
 4315SOL    MW416994   0.321   3.151   5.995  0.3401  0.1565 -0.0740
 4316SOL     OW16995   5.000   1.621   5.523 -0.4374  0.3460 -0.3629
 4316SOL    HW216996   4.982   1.618   5.617 -0.9277 -3.3960 -0.4263
 4316SOL    HW316997   4.914   1.612   5.482 -0.0047 -0.9027 -1.0547
 4316SOL    MW416998   4.986   1.620   5.530  0.2584 -0.4697  0.2266
 4317SOL     OW16999   4.010   5.584   3.822  0.1706  0.1450  1.2157
 4317SOL    HW217000   3.976   5.570   3.910  0.0873 -0.1932  1.1318
 4317SOL    HW317001   3.938   5.626   3.775 -1.1052 -2.7612  0.3384
 4317SOL    MW417002   3.996   5.588   3.827 -0.2075 -0.2701 -0.0743
 4318SOL     OW17003   3.765   2.104   0.245  0.1820  0.2548  0.1588
 4318SOL    HW217004   3.755   2.021   0.197  0.2390  0.4354 -0.1651
 4318SOL    HW317005   3.676   2.139   0.251 -0.1530 -0.7546  1.9767
 4318SOL    MW417006   3.752   2.097   0.240  0.3755 -0.4122  0.0888
 4319SOL     OW17007   3.457   3.504   0.496  0.4354  0.3403  0.1250
 4319SOL    HW217008   3.410   3.504   0.579  0.3445 -1.6491  0.1232
 4319SOL    HW317009   3.387   3.504   0.430  0.4613 -0.2769  0.0918
 4319SOL    MW417010   3.441   3.504   0.498 -0.0636 -0.5487 -0.0723
 4320SOL     OW17011   1.468   3.554   4.836  0.4989  0.4168 -0.2173
 4320SOL    HW217012   1.470   3.616   4.764  0.0827  1.0128  0.2622
 4320SOL    HW317013   1.544   3.576   4.890  0.2799  0.5986  0.0208
 4320SOL    MW417014   1.478   3.565   4.834 -0.6987  0.2090 -0.7602
 4321SOL     OW17015   4.487   2.331   6.004  0.2536  0.0952  0.2124
 4321SOL    HW217016   4.583   2.339   6.007  0.1428  1.8238  0.1181
 4321SOL    HW317017   4.461   2.380   5.926 -0.7588  0.3786  0.7066
 4321SOL    MW417018   4.496   2.339   5.994 -0.2329 -0.1202  0.0199
 4322SOL     OW17019   2.572   5.103   2.157 -0.2610  0.0125  0.6333
 4322SOL    HW217020   2.517   5.040   2.204 -0.3344  0.3082  0.9458
 4322SOL    HW317021   2.643   5.124   2.219 -0.6937  0.8689  0.8516
 4322SOL    MW417022   2.574   5.097   2.172  0.2105  0.3121  0.2114
 4323SOL     OW17023   3.108   2.534   0.395 -0.0177 -0.5865 -0.1944
 4323SOL    HW217024   3.110   2.566   0.485  1.1430 -0.1494 -0.3585
 4323SOL    HW317025   3.079   2.443   0.402 -0.9989 -0.2396  0.5025
 4323SOL    MW417026   3.104   2.526   0.408 -0.0095  0.5348  0.2559
 4324SOL     OW17027   0.569   3.852   0.426  0.3106  0.0867 -0.0703
 4324SOL    HW217028   0.619   3.929   0.401  0.8882 -0.5872 -1.0394
 4324SOL    HW317029   0.480   3.870   0.394  0.9524 -0.6194 -2.4746
 4324SOL    MW417030   0.563   3.864   0.418 -0.7960  0.0354  0.2966
 4325SOL     OW17031   3.285   5.706   4.103 -1.1499  0.1314 -0.0349
 4325SOL    HW217032   3.244   5.784   4.140 -0.1938  1.2967 -1.3102
 4325SOL    HW317033   3.365   5.695   4.154  1.3513  3.0806 -2.9190
 4325SOL    MW417034   3.290   5.715   4.115 -0.0279 -0.3263  0.1353
 4326SOL     OW17035   6.276   2.225   2.532  0.4467 -0.3061 -0.0864
 4326SOL    HW217036   6.216   2.153   2.552  0.5434 -0.9903 -2.0171
 4326SOL    HW317037   6.218   2.301   2.519  0.0288 -0.8040 -1.2572
 4326SOL    MW417038   6.260   2.226   2.533 -0.6706  0.2335 -0.7668
 4327SOL     OW17039   4.885   3.232   1.825  0.7294  0.0876 -0.6823
 4327SOL    HW217040   4.912   3.257   1.736 -1.6079 -0.2735 -1.5447
 4327SOL    HW317041   4.841   3.309   1.859  0.1956 -0.3087 -0.4617
 4327SOL    MW417042   4.883   3.245   1.817 -0.2613  0.1353  0.0567
 4328SOL     OW17043   0.642   0.089   1.899  0.2124  0.0920  0.2865
 4328SOL    HW217044   0.737   0.095   1.913  0.0888 -1.1925  1.9470
 4328SOL    HW317045   0.632   0.027   1.827  0.6403  0.7068 -0.3141
 4328SOL    MW417046   0.653   0.082   1.891 -0.1244  0.2042  0.1272
 4329SOL     OW17047   1.767   0.150   0.161 -0.4484  0.0798  0.3432
 4329SOL    HW217048   1.759   0.195   0.077 -1.7253  0.1700  0.4920
 4329SOL    HW317049   1.690   0.092   0.164 -0.4810  0.1717  1.4988
 4329SOL    MW417050   1.756   0.148   0.150 -0.3412  0.4129 -0.0236
 4330SOL     OW17051   2.080   4.092   0.379 -0.6301  0.0565 -0.1824
 4330SOL    HW217052   2.022   4.127   0.447 -0.1822  1.8991 -0.6823
 4330SOL    HW317053   2.164   4.079   0.423 -0.6701  0.0680 -0.1030
 4330SOL    MW417054   2.084   4.095   0.394  0.5656  0.4010  0.0770
 4331SOL     OW17055   3.564   2.947   3.266 -0.1039 -0.1848  0.3961
 4331SOL    HW217056   3.627   2.880   3.238  0.3593  1.0897 -1.7963
 4331SOL    HW317057   3.613   3.000   3.328 -0.4082 -1.6846  2.0009
 4331SOL    MW417058   3.579   2.945   3.270 -0.0070  0.0256  0.6122
 4332SOL     OW17059   0.951   0.559   5.531  0.4208  0.3612 -0.2214
 4332SOL    HW217060   0.976   0.586   5.620 -0.2543 -0.2162  0.1595
 4332SOL    HW317061   0.921   0.639   5.489 -1.5115  0.2718  0.8654
 4332SOL    MW417062   0.950   0.573   5.537 -0.1538  0.6060  0.1187
 4333SOL     OW17063   3.848   1.112   6.343 -0.0552  0.0716  0.1977
 4333SOL    HW217064   3.802   1.171   6.403 -1.1957 -1.3542  0.7783
 4333SOL    HW317065   3.778   1.062   6.301  0.9128 -1.8187  0.7439
 4333SOL    MW417066   3.832   1.113   6.346 -0.0687  0.1069  0.1475
 4334SOL     OW17067   5.885   6.046   5.902  0.3278  0.2128  0.2938
 4334SOL    HW217068   5.829   5.988   5.850  1.8098 -1.1567  0.1395
 4334SOL    HW317069   5.911   5.994   5.978  1.8050  0.5761  0.0865
 4334SOL    MW417070   5.881   6.032   5.905  0.0585  0.1651 -0.2721
 4335SOL     OW17071   2.651   4.508   4.987  0.3714 -0.1187 -0.0701
 4335SOL    HW217072   2.589   4.445   5.022  0.9364  0.6104  2.4041
 4335SOL    HW317073   2.620   4.593   5.018  0.5919  0.6848 -1.8922
 4335SOL    MW417074   2.639   4.511   4.996 -0.0425 -0.2317  0.2056
 4336SOL     OW17075   4.174   3.665   3.449  0.3762 -0.4959 -0.0084
 4336SOL    HW217076   4.259   3.621   3.448  0.1839 -0.9401  1.2618
 4336SOL    HW317077   4.194   3.756   3.472  0.6264 -0.2614 -1.1039
 4336SOL    MW417078   4.187   3.671   3.452  0.2742  0.5072  0.1996
 4337SOL     OW17079   2.880   0.168   4.700 -0.3756 -0.2858 -0.5095
 4337SOL    HW217080   2.788   0.145   4.714 -0.0321 -0.9831  0.7501
 4337SOL    HW317081   2.879   0.222   4.621 -1.8417 -0.4277 -0.6232
 4337SOL    MW417082   2.868   0.172   4.691  0.1140 -0.1740 -0.2497
 4338SOL     OW17083   0.564   2.685   4.718  0.8584 -0.0456 -0.5454
 4338SOL    HW217084   0.504   2.757   4.698  1.4769  0.5538 -0.2785
 4338SOL    HW317085   0.623   2.721   4.784  0.8140 -0.9832  0.0228
 4338SOL    MW417086   0.564   2.699   4.724  0.9716 -0.0464 -0.3288
 4339SOL     OW17087   3.843   5.875   0.957 -0.1029 -0.5003 -0.5766
 4339SOL    HW217088   3.938   5.879   0.963 -0.1028 -1.3642  0.2001
 4339SOL    HW317089   3.816   5.816   1.028 -1.1105 -1.3951 -1.6467
 4339SOL    MW417090   3.852   5.868   0.967 -0.2562 -0.3352 -0.0636
 4340SOL     OW17091   3.554   6.295   3.371 -0.6431  0.2126  0.2570
 4340SOL    HW217092   3.640   6.314   3.409 -0.8677 -0.9559  1.4169
 4340SOL    HW317093   3.510   6.379   3.369  0.6209  0.8919 -0.6422
 4340SOL    MW417094   3.560   6.308   3.376  0.0629 -0.3689  0.1057
 4341SOL     OW17095   5.602   4.117   5.683  0.7212  0.4656 -0.5385
 4341SOL    HW217096   5.574   4.208   5.673 -0.2648  0.4447  1.5124
 4341SOL    HW317097   5.531   4.066   5.645 -0.2619  0.5058  1.1822
 4341SOL    MW417098   5.589   4.123   5.676  0.0450 -0.1873  0.7431
 4342SOL     OW17099   3.718   1.889   6.053 -0.3063  0.4480 -0.2535
 4342SOL    HW217100   3.706   1.971   6.004 -0.6408  1.4796  1.4883
 4342SOL    HW317101   3.809   1.893   6.084 -0.1543 -0.1185 -0.6087
 4342SOL    MW417102   3.729   1.900   6.050 -0.1430  0.1265  0.3165
 4343SOL     OW17103   2.788   2.146   3.651 -0.7614  0.0027 -0.8942
 4343SOL    HW217104   2.854   2.212   3.674  0.3507 -0.2417 -3.0299
 4343SOL    HW317105   2.782   2.090   3.728  0.4281  0.9236 -0.0821
 4343SOL    MW417106   2.796   2.148   3.664  0.4973 -0.3368 -0.4565
 4344SOL     OW17107   5.175   3.468   2.510  0.1513  0.0020 -0.0491
 4344SOL    HW217108   5.206   3.488   2.598 -0.2676  1.0086 -0.1100
 4344SOL    HW317109   5.097   3.523   2.499 -0.3656 -0.8380 -0.6923
 4344SOL    MW417110   5.169   3.478   2.520 -0.4008  0.3011  0.1233
 4345SOL     OW17111   3.019   1.007   2.964 -0.3331 -0.3815 -0.2309
 4345SOL    HW217112   3.111   1.029   2.979  0.2271 -1.3174 -2.0485
 4345SOL    HW317113   3.021   0.919   2.925 -1.9624 -0.2155 -0.7726
 4345SOL    MW417114   3.032   0.998   2.961 -0.0201 -0.2072 -0.5163
 4346SOL     OW17115   4.909   2.110   1.063 -0.0133  0.5218 -0.2859
 4346SOL    HW217116   4.994   2.087   1.102 -1.2202 -1.1313  1.5022
 4346SOL    HW317117   4.862   2.027   1.056 -1.0573  1.2097 -2.4699
 4346SOL    MW417118   4.914   2.096   1.067  0.0673 -0.0693 -0.4716
 4347SOL     OW17119   3.080   1.006   5.955  0.3293  0.5881  0.1236
 4347SOL    HW217120   3.094   1.065   6.029  0.0101  0.7186  0.0808
 4347SOL    HW317121   3.053   1.064   5.883  3.6048  0.9269 -1.0288
 4347SOL    MW417122   3.078   1.022   5.955  0.0696 -0.4750 -0.1676
 4348SOL     OW17123   0.276   3.897   1.390 -0.1826 -0.0358 -0.0249
 4348SOL    HW217124   0.253   3.958   1.460  0.3074 -0.4479  0.4994
 4348SOL    HW317125   0.366   3.920   1.367 -0.3858  0.1891 -0.6227
 4348SOL    MW417126   0.285   3.908   1.396  0.3606  0.0584 -0.0619
 4349SOL     OW17127   0.435   3.462   6.123  0.3651  0.0139 -0.0514
 4349SOL    HW217128   0.500   3.531   6.136  0.3482  0.0748 -0.2707
 4349SOL    HW317129   0.476   3.383   6.158 -0.6102  0.5832  2.6024
 4349SOL    MW417130   0.449   3.461   6.129  0.0178 -0.5816 -0.1690
 4350SOL     OW17131   5.414   3.076   4.620 -0.0868  0.9091  0.3011
 4350SOL    HW217132   5.360   3.033   4.554  0.4088  2.7377 -1.3957
 4350SOL    HW317133   5.359   3.147   4.654  0.3175  1.1418  0.4780
 4350SOL    MW417134   5.400   3.080   4.616  0.1379  0.4589  0.0279
 4351SOL     OW17135   3.934   4.383   3.332  0.1907  0.3146 -0.5724
 4351SOL    HW217136   3.938   4.316   3.264  0.4371  0.8356 -1.0794
 4351SOL    HW317137   3.857   4.435   3.309 -0.5314 -0.3171  0.3256
 4351SOL    MW417138   3.924   4.381   3.320  0.4707 -0.2300 -0.5521
 4352SOL     OW17139   3.078   0.218   1.381  0.2189 -0.3491 -1.4625
 4352SOL    HW217140   3.054   0.163   1.455  0.5117  0.4432 -0.7665
 4352SOL    HW317141   3.130   0.161   1.324  2.0662 -0.3251  0.1079
 4352SOL    MW417142   3.081   0.203   1.383 -0.3097  0.0777  0.9654
 4353SOL     OW17143   3.349   1.117   1.594  0.1439  0.3390  0.0134
 4353SOL    HW217144   3.382   1.028   1.584 -0.6307 -0.0484  0.7794
 4353SOL    HW317145   3.254   1.108   1.588  0.0559  1.1121  0.1052
 4353SOL    MW417146   3.341   1.104   1.592 -0.4420 -0.8530 -0.0598
 4354SOL     OW17147   5.479   3.933   0.471  0.2093  0.0197 -0.4257
 4354SOL    HW217148   5.425   3.971   0.540  0.4704 -0.2343 -0.0788
 4354SOL    HW317149   5.546   4.000   0.454  0.3198 -0.0388 -0.2257
 4354SOL    MW417150   5.481   3.947   0.478 -0.8869  0.5224 -0.0640
 4355SOL     OW17151   4.621   5.609   5.681  0.0832  0.1200  0.0533
 4355SOL    HW217152   4.665   5.552   5.618 -0.8819 -0.2823 -0.2691
 4355SOL    HW317153   4.556   5.553   5.724  0.4175  0.5059  1.0896
 4355SOL    MW417154   4.618   5.594   5.678 -0.2754 -0.0501  0.0872
 4356SOL     OW17155   1.498   1.645   2.014  0.1975 -0.4230 -0.2930
 4356SOL    HW217156   1.571   1.707   2.009 -0.2122  0.3078  1.6870
 4356SOL    HW317157   1.520   1.589   2.089 -1.5545  0.2459  0.7796
 4356SOL    MW417158   1.511   1.646   2.023 -0.2410 -0.2529  0.3467
 4357SOL     OW17159   4.617   5.115   1.147 -0.0659 -0.6049 -0.6375
 4357SOL    HW217160   4.531   5.122   1.188  1.4309  1.2399  2.5482
 4357SOL    HW317161   4.642   5.205   1.126  0.8739 -1.1612 -2.1115
 4357SOL    MW417162   4.609   5.128   1.149  0.7682 -0.0303 -0.4749
 4358SOL     OW17163   4.072   2.959   6.055  0.4084 -0.6242  0.3185
 4358SOL    HW217164   4.014   3.024   6.015  0.0792 -1.3235 -0.3646
 4358SOL    HW317165   4.030   2.939   6.139  0.7002  0.2930  0.7005
 4358SOL    MW417166   4.059   2.965   6.061 -0.5553 -0.0216 -0.3500
 4359SOL     OW17167   5.073   6.197   0.015  0.1479  0.7204  0.3492
 4359SOL    HW217168   4.998   6.167  -0.036  0.0165  1.5622  0.0322
 4359SOL    HW317169   5.146   6.195  -0.046  0.7144 -1.4563  1.0263
 4359SOL    MW417170   5.073   6.193   0.001  0.3517 -0.2090 -0.0684
 4360SOL     OW17171   0.628   2.946   4.946  0.0277 -0.3944 -0.1931
 4360SOL    HW217172   0.558   3.011   4.936  0.0015  0.1906  2.7896
 4360SOL    HW317173   0.700   2.980   4.894 -0.7747  0.7980 -0.5639
 4360SOL    MW417174   0.628   2.959   4.938 -0.0445 -0.0255 -0.1754
 4361SOL     OW17175   3.499   3.378   5.994 -0.1194 -0.7600 -0.0760
 4361SOL    HW217176   3.578   3.369   6.048 -0.0837 -1.1679 -0.1958
 4361SOL    HW317177   3.430   3.399   6.056 -0.2316 -1.9863  0.2219
 4361SOL    MW417178   3.501   3.380   6.009  0.3446 -0.3685 -0.2045
 4362SOL     OW17179   3.390   5.416   6.268  0.0871 -0.0451 -0.3005
 4362SOL    HW217180   3.439   5.334   6.267  3.7932  1.9149 -1.9624
 4362SOL    HW317181   3.355   5.424   6.180 -2.2919 -0.7890  0.5049
 4362SOL    MW417182   3.392   5.406   6.256 -0.3346 -0.0966 -0.4214
 4363SOL     OW17183   3.994   1.907   5.681  0.7731 -0.1248  0.2328
 4363SOL    HW217184   3.946   1.828   5.706 -0.3042  0.1658 -0.8469
 4363SOL    HW317185   4.053   1.924   5.755 -1.0011 -0.3180  1.7565
 4363SOL    MW417186   3.996   1.899   5.694  0.2231  0.2224  0.2191
 4364SOL     OW17187   0.495   0.313   3.179 -0.3438  0.0088 -0.0475
 4364SOL    HW217188   0.536   0.267   3.252  0.8753  2.0729  0.6466
 4364SOL    HW317189   0.545   0.285   3.102  0.7226  0.5268  0.4327
 4364SOL    MW417190   0.507   0.303   3.178  0.4577 -0.0784  0.5906
 4365SOL     OW17191   5.763   3.278   1.696  0.2207 -0.0869 -0.0772
 4365SOL    HW217192   5.715   3.326   1.629  1.0285  0.4405 -0.2871
 4365SOL    HW317193   5.725   3.190   1.695  1.2301 -0.5684 -2.3283
 4365SOL    MW417194   5.752   3.273   1.687  0.4879 -0.3253 -0.1466
 4366SOL     OW17195   5.173   2.041   3.385  0.6906 -0.0442 -0.1028
 4366SOL    HW217196   5.238   1.978   3.353  0.5381  0.6258 -1.8812
 4366SOL    HW317197   5.184   2.117   3.327  2.3591  2.5160  3.2425
 4366SOL    MW417198   5.183   2.043   3.373 -0.5826 -0.1326  0.7543
 4367SOL     OW17199   5.783   5.758   3.911 -0.7039 -0.0290 -0.0870
 4367SOL    HW217200   5.858   5.756   3.852 -0.9547  1.1563 -0.4764
 4367SOL    HW317201   5.748   5.847   3.902 -1.2177 -0.0721  1.2530
 4367SOL    MW417202   5.788   5.770   3.902  0.1429  0.0417 -0.0127
 4368SOL     OW17203   1.026   2.260   1.849  0.1480  0.2206  0.0325
 4368SOL    HW217204   1.101   2.316   1.829  0.3007  0.2075  0.5514
 4368SOL    HW317205   0.987   2.240   1.764  0.2510  0.8938 -0.1777
 4368SOL    MW417206   1.031   2.265   1.835 -0.3137  0.3973 -0.3226
 4369SOL     OW17207   5.887   6.200   4.980 -0.3516 -0.4624 -0.4732
 4369SOL    HW217208   5.953   6.250   4.931  0.0927 -1.0711 -0.5113
 4369SOL    HW317209   5.908   6.108   4.961  1.5229 -0.8779  2.8977
 4369SOL    MW417210   5.899   6.194   4.971 -0.7258  0.7107 -0.2961
 4370SOL     OW17211   6.244   3.170   3.621  0.9570 -0.7198 -0.3387
 4370SOL    HW217212   6.220   3.219   3.700  0.2984 -0.9687 -0.3799
 4370SOL    HW317213   6.230   3.232   3.550  0.7573 -0.7554 -0.3317
 4370SOL    MW417214   6.239   3.185   3.622  0.0894 -0.0507 -0.0440
 4371SOL     OW17215   5.914   5.202   4.561  0.3869  0.0187  0.4423
 4371SOL    HW217216   5.891   5.286   4.601 -0.8042  0.9135 -1.8943
 4371SOL    HW317217   5.856   5.138   4.601 -2.7603  1.3506 -1.6469
 4371SOL    MW417218   5.904   5.205   4.571  0.5957  0.4076 -0.0013
 4372SOL     OW17219   5.165   1.628   2.080 -0.1705 -0.1262  0.0208
 4372SOL    HW217220   5.162   1.719   2.112 -2.1277  0.4153 -1.4869
 4372SOL    HW317221   5.253   1.618   2.045  0.4763  0.7726  1.2890
 4372SOL    MW417222   5.176   1.639   2.080 -0.9804  0.2620 -0.5093
 4373SOL     OW17223   0.873   4.002   4.348 -0.1869 -0.5111  0.9052
 4373SOL    HW217224   0.811   3.956   4.291  0.4843  1.4690 -1.6113
 4373SOL    HW317225   0.817   4.050   4.409 -1.2017  0.5619 -0.7634
 4373SOL    MW417226   0.857   4.002   4.348  0.0027  0.0108  0.0809
 4374SOL     OW17227   3.614   5.951   4.064 -0.0660  0.3090  0.3548
 4374SOL    HW217228   3.569   5.876   4.103  2.4392 -1.8370 -0.5844
 4374SOL    HW317229   3.706   5.926   4.065  0.9377  3.6128  0.3434
 4374SOL    MW417230   3.620   5.938   4.070 -0.1922 -0.1988 -0.5745
 4375SOL     OW17231   4.020   2.648   4.125 -0.4108 -0.5105  0.4673
 4375SOL    HW217232   4.029   2.740   4.147  2.5897 -0.6731  0.2949
 4375SOL    HW317233   3.947   2.617   4.180 -0.0185  1.4417  2.2130
 4375SOL    MW417234   4.012   2.656   4.135  0.2206  0.6849  0.1736
 4376SOL     OW17235   4.099   3.500   6.019  0.0807 -0.0123  0.0901
 4376SOL    HW217236   4.004   3.502   6.031 -0.0748  4.7931 -0.0121
 4376SOL    HW317237   4.133   3.468   6.103 -1.5842 -0.1062  0.7656
 4376SOL    MW417238   4.091   3.496   6.032  0.5274 -0.6439  0.1038
 4377SOL     OW17239   4.668   1.309   2.738 -0.0740  0.3601 -0.2311
 4377SOL    HW217240   4.580   1.301   2.774 -0.1378  2.6003  0.2196
 4377SOL    HW317241   4.725   1.312   2.815  0.2554  0.4181 -0.4743
 4377SOL    MW417242   4.664   1.308   2.753  0.2589 -0.7749 -0.6824
 4378SOL     OW17243   4.831   5.211   1.565 -0.0482  0.4254  0.4517
 4378SOL    HW217244   4.780   5.137   1.597  0.6261  0.2405  1.1327
 4378SOL    HW317245   4.888   5.175   1.497  1.2587 -0.0027  1.7124
 4378SOL    MW417246   4.832   5.197   1.561  0.2316 -0.1485  0.6965
 4379SOL     OW17247   3.197   4.628   4.850 -0.2109  0.2979 -0.0364
 4379SOL    HW217248   3.170   4.582   4.771  0.7074 -0.4172  0.0499
 4379SOL    HW317249   3.127   4.610   4.913 -0.5774  0.2451 -0.4537
 4379SOL    MW417250   3.184   4.619   4.848  0.1408 -0.8210  0.3861
 4380SOL     OW17251   4.725   1.500   1.858 -0.1408  0.0025 -0.3722
 4380SOL    HW217252   4.732   1.453   1.775 -1.4494 -0.2092 -0.3760
 4380SOL    HW317253   4.712   1.592   1.832 -1.6403 -0.2113 -0.4370
 4380SOL    MW417254   4.724   1.506   1.844  0.1642 -0.7727 -0.7425
 4381SOL     OW17255   4.232   1.643   5.487 -0.2877  0.0505  0.4471
 4381SOL    HW217256   4.269   1.558   5.462 -0.5273  0.0431  0.1091
 4381SOL    HW317257   4.155   1.653   5.430 -0.8164  0.0525  1.1460
 4381SOL    MW417258   4.227   1.633   5.476 -0.4197  0.2723 -0.5184
 4382SOL     OW17259   2.301   1.291   5.996 -0.0716  0.1907  0.3693
 4382SOL    HW217260   2.319   1.252   6.082  1.7329  1.3458  0.5552
 4382SOL    HW317261   2.333   1.226   5.933  0.7831  0.3629  0.6249
 4382SOL    MW417262   2.307   1.277   5.999 -0.0491 -0.5801  0.0832
 4383SOL     OW17263   0.263   0.351   2.458 -0.9478 -0.0340  0.7752
 4383SOL    HW217264   0.317   0.404   2.399  0.7716 -0.6136  1.7426
 4383SOL    HW317265   0.193   0.318   2.403  0.1319  0.1206 -0.7641
 4383SOL    MW417266   0.261   0.354   2.443 -0.0719  0.7356 -0.1194
 4384SOL     OW17267   5.184   6.024   4.442  0.2741  0.0057  0.0890
 4384SOL    HW217268   5.107   6.080   4.433  0.7372  0.5460 -0.6051
 4384SOL    HW317269   5.231   6.034   4.360  2.2087  1.4037  1.2746
 4384SOL    MW417270   5.180   6.032   4.430  0.6424 -0.6196 -0.1089
 4385SOL     OW17271   4.061   0.715   1.846  0.2695  0.6638  0.4558
 4385SOL    HW217272   4.092   0.660   1.919 -0.6496 -0.0259  0.3434
 4385SOL    HW317273   4.089   0.804   1.870  2.7371  0.0497  0.1277
 4385SOL    MW417274   4.069   0.720   1.859 -0.1691  0.0425  0.1200
 4386SOL     OW17275   4.873   1.590   4.965  0.1028 -0.1991 -0.7973
 4386SOL    HW217276   4.817   1.531   5.015  0.9743  0.1577  0.6551
 4386SOL    HW317277   4.937   1.534   4.922  0.4317 -0.3746 -0.0776
 4386SOL    MW417278   4.874   1.575   4.966 -0.6036  0.5553  0.0759
 4387SOL     OW17279   5.597   1.348   2.329  0.3296 -0.4416 -0.4612
 4387SOL    HW217280   5.652   1.345   2.250  0.6046 -0.8013 -0.2600
 4387SOL    HW317281   5.571   1.440   2.336  0.4265 -0.3767 -0.8860
 4387SOL    MW417282   5.601   1.360   2.319  0.1549  0.3107  0.0226
 4388SOL     OW17283   2.207   4.681   4.521 -0.0912 -0.1483 -0.0973
 4388SOL    HW217284   2.182   4.643   4.436  0.8482 -0.5464 -0.2079
 4388SOL    HW317285   2.168   4.768   4.521 -0.3600 -0.2617 -0.8060
 4388SOL    MW417286   2.198   4.687   4.510 -1.3388  0.0370 -0.6892
 4389SOL     OW17287   0.065   4.394   4.090 -0.1238  0.1988 -0.0382
 4389SOL    HW217288   0.118   4.445   4.029  0.2711 -0.9457 -0.6727
 4389SOL    HW317289   0.020   4.460   4.144 -0.1390  1.2205 -1.2590
 4389SOL    MW417290   0.066   4.409   4.089 -0.1599 -0.6391 -0.0894
 4390SOL     OW17291   4.345   6.103   0.599  0.3514  0.0654  0.3197
 4390SOL    HW217292   4.389   6.117   0.515  1.0838  1.5358  0.9195
 4390SOL    HW317293   4.280   6.173   0.603  0.1721 -0.1320  0.8868
 4390SOL    MW417294   4.342   6.115   0.588  0.5603  0.0175 -0.5530
 4391SOL     OW17295   6.219   2.043   3.506 -0.1844 -0.2251  0.1429
 4391SOL    HW217296   6.126   2.022   3.513 -0.0618 -0.6377  0.6040
 4391SOL    HW317297   6.221   2.138   3.495 -0.6760 -0.2551 -0.2247
 4391SOL    MW417298   6.207   2.053   3.506 -0.0271  0.2667 -0.2673
 4392SOL     OW17299   5.692   3.489   2.232 -0.0389  0.0584 -0.6886
 4392SOL    HW217300   5.674   3.477   2.139 -0.6648  0.7801 -0.6653
 4392SOL    HW317301   5.664   3.578   2.251 -0.1254 -0.1540  0.2378
 4392SOL    MW417302   5.686   3.499   2.222 -0.3462  0.1917 -0.2673
 4393SOL     OW17303   2.851   0.604   4.008 -0.8157  0.1220 -0.5538
 4393SOL    HW217304   2.801   0.533   4.048 -0.9926 -1.0413 -2.6947
 4393SOL    HW317305   2.786   0.658   3.964 -0.5798  1.1467  0.2950
 4393SOL    MW417306   2.836   0.602   4.008  0.1479  0.5651 -0.2243
 4394SOL     OW17307   4.220   6.410   2.017  0.0609 -0.4913 -0.1999
 4394SOL    HW217308   4.161   6.485   2.028  1.4534  0.7387 -0.6669
 4394SOL    HW317309   4.196   6.372   1.933 -0.1303 -0.0614 -0.3420
 4394SOL    MW417310   4.209   6.415   2.008 -0.2133  0.0161  0.0030
 4395SOL     OW17311   2.549   0.629   1.794  0.3340  0.9872 -0.0929
 4395SOL    HW217312   2.497   0.555   1.825 -0.4395  0.9219 -1.4462
 4395SOL    HW317313   2.516   0.705   1.843  0.0748  0.6890  0.1953
 4395SOL    MW417314   2.538   0.629   1.805 -0.0385 -0.9317  0.1448
 4396SOL     OW17315   5.067   5.176   5.498  0.2670 -0.3683  0.2929
 4396SOL    HW217316   5.163   5.182   5.494  0.3126 -1.1979 -0.2902
 4396SOL    HW317317   5.042   5.230   5.572  1.2731 -0.9329  1.0696
 4396SOL    MW417318   5.076   5.184   5.507  0.4288 -0.7257  0.3072
 4397SOL     OW17319   5.030   6.413   4.084  0.1596 -0.3394  0.7534
 4397SOL    HW217320   4.968   6.354   4.127 -0.8571 -0.5746 -0.9136
 4397SOL    HW317321   4.983   6.496   4.076  0.0892 -0.4756 -0.3961
 4397SOL    MW417322   5.016   6.416   4.088 -0.2744 -0.1115  0.7319
 4398SOL     OW17323   4.228   2.728   6.066  0.3113 -0.2664 -0.3278
 4398SOL    HW217324   4.175   2.807   6.080 -0.8301 -0.7998 -1.4242
 4398SOL    HW317325   4.246   2.696   6.155  0.6208  1.0938  0.1259
 4398SOL    MW417326   4.223   2.735   6.080  0.1062 -0.5192 -0.5863
 4399SOL     OW17327   2.902   5.019   6.201 -0.1978  0.4681  0.1789
 4399SOL    HW217328   2.909   5.038   6.107  0.8243  0.2144  0.1917
 4399SOL    HW317329   2.993   5.010   6.230 -0.5101  0.4379  1.1760
 4399SOL    MW417330   2.915   5.020   6.192 -0.1991 -0.0224 -0.9862
 4400SOL     OW17331   4.178   1.653   4.531  0.0757  0.1332  0.1688
 4400SOL    HW217332   4.253   1.709   4.511 -0.9786  1.6362  0.3070
 4400SOL    HW317333   4.189   1.630   4.623 -0.1738  1.2053  0.4718
 4400SOL    MW417334   4.189   1.657   4.540  0.2795  0.1052  0.4043
 4401SOL     OW17335   1.877   5.782   0.617  0.0778  0.3594 -0.0071
 4401SOL    HW217336   1.798   5.729   0.610 -0.8327  1.6320  0.3039
 4401SOL    HW317337   1.934   5.731   0.674  0.1558 -1.3206 -1.4777
 4401SOL    MW417338   1.874   5.768   0.623  0.0305  0.9067  0.3489
 4402SOL     OW17339   4.695   0.093   6.233  0.3724  0.2286  0.2652
 4402SOL    HW217340   4.732   0.138   6.309 -0.4815  0.0648  0.7953
 4402SOL    HW317341   4.754   0.019   6.219 -0.0802 -0.4077  1.5073
 4402SOL    MW417342   4.707   0.089   6.241  0.1847 -0.0114  0.1471
 4403SOL     OW17343   1.489   1.630   2.540  0.1606  0.2921  0.2941
 4403SOL    HW217344   1.478   1.606   2.632 -2.0097  0.3643  0.1236
 4403SOL    HW317345   1.479   1.726   2.540 -2.9474  0.0637 -0.2802
 4403SOL    MW417346   1.486   1.640   2.553  0.2271 -0.0041  0.4818
 4404SOL     OW17347   1.330   4.597   0.227 -0.0414 -0.1557 -0.1241
 4404SOL    HW217348   1.345   4.524   0.166 -0.8396 -2.1120  1.8576
 4404SOL    HW317349   1.237   4.616   0.218  0.0578  0.2677 -0.2550
 4404SOL    MW417350   1.320   4.590   0.217 -0.3132  0.1734 -0.4183
 4405SOL     OW17351   5.366   4.818   3.095 -0.4299 -0.3136  0.5248
 4405SOL    HW217352   5.345   4.782   3.009 -0.2628  1.5795 -0.3484
 4405SOL    HW317353   5.326   4.757   3.157 -1.4880 -1.1308 -0.9079
 4405SOL    MW417354   5.358   4.805   3.092 -0.1352  0.4038  0.7843
 4406SOL     OW17355   4.167   0.574   3.730  0.2759 -0.4707  0.2087
 4406SOL    HW217356   4.227   0.595   3.658  1.8438  1.0987  1.8702
 4406SOL    HW317357   4.168   0.479   3.736  1.1815 -0.5511 -0.9742
 4406SOL    MW417358   4.175   0.564   3.721 -0.4269  0.2248  0.3425
 4407SOL     OW17359   4.487   6.093   0.825  0.2490  0.0954  0.2253
 4407SOL    HW217360   4.458   6.089   0.734  0.0697 -1.7423  0.3187
 4407SOL    HW317361   4.448   6.172   0.860 -1.3820 -0.2417 -0.7552
 4407SOL    MW417362   4.478   6.103   0.818 -0.1238 -0.2106 -0.5999
 4408SOL     OW17363   4.251   1.056   2.809 -0.5021  0.0523 -0.0509
 4408SOL    HW217364   4.162   1.057   2.844  0.1798 -0.3813  1.7869
 4408SOL    HW317365   4.248   0.991   2.739 -1.7816  0.5813 -0.5268
 4408SOL    MW417366   4.239   1.048   2.804  0.5764 -0.0887 -0.0080
 4409SOL     OW17367   5.572   3.850   3.512  0.0154 -0.2141  0.2421
 4409SOL    HW217368   5.553   3.902   3.434 -0.1688  0.4491  0.7141
 4409SOL    HW317369   5.586   3.761   3.479 -1.0662 -0.1586 -0.4424
 4409SOL    MW417370   5.571   3.845   3.497  0.2342  0.4078  0.0109
 4410SOL     OW17371   5.098   4.686   3.743  0.2182 -0.2995 -0.6010
 4410SOL    HW217372   5.145   4.700   3.825  0.0833 -0.5190 -0.4868
 4410SOL    HW317373   5.009   4.667   3.769  0.0450  0.1811 -0.8204
 4410SOL    MW417374   5.093   4.685   3.757  0.0452  0.2078 -0.4942
 4411SOL     OW17375   1.973   1.722   3.870  0.1392 -0.0119 -0.5109
 4411SOL    HW217376   1.909   1.763   3.928  0.8335 -0.7832  0.8454
 4411SOL    HW317377   2.021   1.795   3.832  1.4152  0.5083  1.9293
 4411SOL    MW417378   1.971   1.737   3.873 -0.2989 -0.5702  0.1536
 4412SOL     OW17379   1.014   3.870   6.199  0.2047  0.1559 -0.1923
 4412SOL    HW217380   1.029   3.903   6.111  1.6989  0.8767  0.3004
 4412SOL    HW317381   0.927   3.902   6.222 -1.0533 -1.6152 -2.0485
 4412SOL    MW417382   1.004   3.878   6.191  0.4596 -0.3739 -0.2005
 4413SOL     OW17383   1.700   3.871   6.302  0.4125 -0.2934 -0.0327
 4413SOL    HW217384   1.711   3.804   6.234 -0.2972 -0.7502  0.2850
 4413SOL    HW317385   1.607   3.868   6.322  0.2377  1.2756 -0.4877
 4413SOL    MW417386   1.689   3.862   6.295 -0.2445  0.0388  0.0349
 4414SOL     OW17387   6.051   3.633   0.716 -0.0897 -0.0785  0.1875
 4414SOL    HW217388   6.088   3.718   0.737  0.2503  0.4803 -2.3648
 4414SOL    HW317389   5.958   3.651   0.699 -0.2336 -0.4133  0.5869
 4414SOL    MW417390   6.044   3.646   0.717 -0.0302  0.0159 -0.2508
 4415SOL     OW17391   1.470   5.070   4.825  0.4146 -0.2284  0.4108
 4415SOL    HW217392   1.457   5.158   4.790  1.2721 -0.5448 -0.7688
 4415SOL    HW317393   1.481   5.015   4.748 -1.0096 -1.5429  1.0993
 4415SOL    MW417394   1.470   5.075   4.810  0.6270 -0.0743 -0.1986
 4416SOL     OW17395   3.782   5.176   6.305  0.1081 -0.1007 -0.4698
 4416SOL    HW217396   3.788   5.235   6.230  1.3996  0.4973  0.0772
 4416SOL    HW317397   3.688   5.165   6.319 -0.1856  2.1022 -0.3705
 4416SOL    MW417398   3.771   5.182   6.297  0.5177 -0.3229 -0.4125
 4417SOL     OW17399   1.837   5.606   2.105  0.5192  0.2657 -0.4278
 4417SOL    HW217400   1.787   5.654   2.170  0.3655  0.3362 -0.5972
 4417SOL    HW317401   1.781   5.605   2.027  0.2099 -0.8238 -0.2010
 4417SOL    MW417402   1.823   5.612   2.103  0.4157 -0.8974 -0.2643
 4418SOL     OW17403   3.301   1.922   5.443  0.4083  0.5010 -0.1180
 4418SOL    HW217404   3.252   1.880   5.372  1.3506 -2.8765  1.0218
 4418SOL    HW317405   3.240   1.987   5.479 -1.6610 -0.6307 -1.3522
 4418SOL    MW417406   3.286   1.925   5.438  0.1348 -0.1930 -0.1859
 4419SOL     OW17407   4.843   3.728   1.824 -0.3030 -0.0335  0.5071
 4419SOL    HW217408   4.811   3.818   1.835  0.4475  0.3747 -0.4970
 4419SOL    HW317409   4.937   3.734   1.839  0.0080 -0.3278 -1.1347
 4419SOL    MW417410   4.851   3.741   1.827 -0.0341  0.3499 -0.4268
 4420SOL     OW17411   4.279   4.562   4.969  0.1561 -0.1090 -0.4534
 4420SOL    HW217412   4.368   4.532   4.951 -0.1183 -0.1065 -1.9958
 4420SOL    HW317413   4.229   4.481   4.984  0.1479 -0.2129 -1.0054
 4420SOL    MW417414   4.284   4.547   4.969 -0.5069 -0.1270  0.5572
 4421SOL     OW17415   0.442   4.506   6.091  0.1033 -0.6492  0.2742
 4421SOL    HW217416   0.464   4.497   6.183  1.7066  1.1857  0.1260
 4421SOL    HW317417   0.506   4.450   6.046  0.7704  0.1803  0.1714
 4421SOL    MW417418   0.453   4.497   6.097  0.4999  0.0649 -0.2876
 4422SOL     OW17419   3.969   5.719   2.904  0.0485  0.6704 -0.1886
 4422SOL    HW217420   4.009   5.783   2.963 -1.9648  2.4012 -0.5953
 4422SOL    HW317421   4.024   5.641   2.913  1.4835  1.8119  1.7654
 4422SOL    MW417422   3.982   5.717   2.913  0.9190 -0.6009 -0.2451
 4423SOL     OW17423   5.948   5.433   2.741  0.1631 -0.0864 -0.3779
 4423SOL    HW217424   6.024   5.376   2.724 -0.4764 -1.1200  0.1384
 4423SOL    HW317425   5.960   5.506   2.680  1.8511  0.0545  0.0649
 4423SOL    MW417426   5.960   5.435   2.730  0.3261  0.1462  0.0142
 4424SOL     OW17427   5.657   3.099   5.151 -0.6079  0.2952  0.2591
 4424SOL    HW217428   5.633   3.007   5.144 -0.5553  0.1799  1.3929
 4424SOL    HW317429   5.664   3.115   5.245 -2.9635  2.0587  0.2118
 4424SOL    MW417430   5.655   3.089   5.162 -0.1191  0.3793 -0.1225
 4425SOL     OW17431   4.076   4.643   4.201  0.2133  0.1509 -0.5937
 4425SOL    HW217432   4.053   4.653   4.109  0.9531  1.8414 -0.6292
 4425SOL    HW317433   4.149   4.704   4.215  2.8962 -2.8957  0.1573
 4425SOL    MW417434   4.083   4.652   4.191  0.0185  0.2115  0.3275
 4426SOL     OW17435   1.808   4.182   0.237  0.0143 -0.3683 -0.4308
 4426SOL    HW217436   1.851   4.267   0.249 -2.6544  1.2680 -1.5404
 4426SOL    HW317437   1.787   4.179   0.144 -2.0378 -1.1542  0.0114
 4426SOL    MW417438   1.811   4.193   0.226 -0.3821  0.0681  0.1333
 4427SOL     OW17439   4.617   6.315   4.322 -0.1663 -1.1892 -0.0290
 4427SOL    HW217440   4.628   6.225   4.352  0.6216 -0.6401  1.4187
 4427SOL    HW317441   4.526   6.336   4.342 -0.5941 -1.9206 -1.1436
 4427SOL    MW417442   4.606   6.306   4.329 -0.1298 -0.0798  0.0724
 4428SOL     OW17443   0.650   4.904   1.595  0.0427 -0.0122 -0.1800
 4428SOL    HW217444   0.560   4.930   1.616  0.0657  0.0589 -0.1702
 4428SOL    HW317445   0.700   4.924   1.674 -0.4532 -2.7388  0.9301
 4428SOL    MW417446   0.644   4.910   1.608 -0.0505  0.1005 -0.6601
 4429SOL     OW17447   1.531   3.512   2.618  0.0137  0.3842  0.5661
 4429SOL    HW217448   1.609   3.477   2.660 -1.2960  0.3101  3.1367
 4429SOL    HW317449   1.520   3.599   2.655 -1.1196  0.3957  0.2585
 4429SOL    MW417450   1.540   3.518   2.628 -0.4741  0.2019  0.1350
 4430SOL     OW17451   3.893   1.813   4.119  0.6318 -0.5739 -0.0969
 4430SOL    HW217452   3.940   1.789   4.198  1.1921  0.5132 -0.0819
 4430SOL    HW317453   3.958   1.856   4.063 -0.0902  0.0284 -0.5110
 4430SOL    MW417454   3.907   1.815   4.122 -0.3383 -0.0216  0.0188
 4431SOL     OW17455   4.123   2.561   3.731  0.5823 -0.1625  0.0908
 4431SOL    HW217456   4.064   2.610   3.788  0.3928 -1.4465  1.0494
 4431SOL    HW317457   4.211   2.589   3.756  0.4362  0.7320 -0.3742
 4431SOL    MW417458   4.127   2.571   3.742  0.4143 -0.3888  0.1520
 4432SOL     OW17459   4.772   5.927   5.270 -0.1348 -0.2428  0.7305
 4432SOL    HW217460   4.686   5.890   5.291 -0.6196  1.4466  1.8762
 4432SOL    HW317461   4.755   5.987   5.198  0.0778  0.1489  1.0074
 4432SOL    MW417462   4.758   5.930   5.263  0.0509 -0.0200 -0.1572
 4433SOL     OW17463   1.546   5.902   6.390 -0.8016  0.0598 -0.2723
 4433SOL    HW217464   1.451   5.911   6.399 -0.6915  2.0109 -0.6280
 4433SOL    HW317465   1.570   5.969   6.326  1.1400  1.4667  1.7648
 4433SOL    MW417466   1.536   5.912   6.383  0.1710 -0.5362 -0.8019
 4434SOL     OW17467   5.897   4.513   6.350  0.0281 -0.3315 -0.3063
 4434SOL    HW217468   5.869   4.437   6.300  0.9189 -0.5544 -0.4914
 4434SOL    HW317469   5.827   4.577   6.339 -1.2068 -1.4529  0.6566
 4434SOL    MW417470   5.884   4.512   6.342  0.2782  0.0013 -0.1510
 4435SOL     OW17471   5.288   4.556   3.168  0.3477  0.0458  1.0690
 4435SOL    HW217472   5.192   4.561   3.164  0.3769 -0.1853 -1.1669
 4435SOL    HW317473   5.307   4.533   3.258 -1.7260 -0.1387  1.5066
 4435SOL    MW417474   5.278   4.554   3.179 -0.1537  0.7033  0.4215
 4436SOL     OW17475   1.613   5.746   4.766  0.1911  0.3770 -0.0407
 4436SOL    HW217476   1.630   5.663   4.810 -0.0849  0.6142  0.5186
 4436SOL    HW317477   1.697   5.768   4.724  1.2320  1.3330  2.3559
 4436SOL    MW417478   1.627   5.738   4.767 -0.1885 -0.4896 -0.9570
 4437SOL     OW17479   2.051   6.208   5.998  0.4475  0.2092  0.6381
 4437SOL    HW217480   2.115   6.139   5.986  1.7051  1.1173  1.8639
 4437SOL    HW317481   2.059   6.233   6.090 -0.7221  1.2648  0.4808
 4437SOL    MW417482   2.060   6.202   6.008  0.1784 -0.4354  0.6517
 4438SOL     OW17483   3.374   5.001   0.399 -0.3475 -0.2212  0.0901
 4438SOL    HW217484   3.299   5.042   0.441  0.2545 -0.5863  1.5849
 4438SOL    HW317485   3.412   4.945   0.467  0.8862 -0.5462 -0.8341
 4438SOL    MW417486   3.369   4.999   0.413  0.3163  0.1131 -0.0900
 4439SOL     OW17487   5.814   2.580   0.668 -0.6362  0.1631  0.1684
 4439SOL    HW217488   5.858   2.497   0.649  1.7086  0.7012  2.6816
 4439SOL    HW317489   5.724   2.567   0.637  0.5350 -1.9687 -2.7628
 4439SOL    MW417490   5.808   2.567   0.661 -0.3848 -0.2672 -0.1599
 4440SOL     OW17491   3.311   6.175   3.791  0.0962  0.5704 -0.4957
 4440SOL    HW217492   3.267   6.091   3.807 -0.4190  0.7410 -0.9822
 4440SOL    HW317493   3.326   6.177   3.697 -0.9583  1.5218 -0.6709
 4440SOL    MW417494   3.307   6.164   3.781 -0.0686  0.6809  0.0173
 4441SOL     OW17495   4.777   0.013   4.508 -0.1587  0.1432  0.2810
 4441SOL    HW217496   4.825  -0.068   4.526 -0.6616  0.0471  1.2743
 4441SOL    HW317497   4.713  -0.012   4.442 -0.5969 -0.3904  0.8925
 4441SOL    MW417498   4.775  -0.001   4.502  0.0936 -0.4101 -0.0064
 4442SOL     OW17499   4.783   5.075   3.235  0.6391  0.7311 -0.2514
 4442SOL    HW217500   4.795   5.064   3.329  1.4922  2.2560 -0.1656
 4442SOL    HW317501   4.858   5.030   3.196 -0.1307 -0.5912 -0.2659
 4442SOL    MW417502   4.795   5.067   3.242 -0.3486  0.1917 -0.1486
 4443SOL     OW17503   4.665   5.216   5.631 -0.4107 -0.5740  0.3262
 4443SOL    HW217504   4.577   5.221   5.669 -0.6510 -0.0629 -0.2767
 4443SOL    HW317505   4.653   5.244   5.540  0.4380 -0.1267  0.3442
 4443SOL    MW417506   4.652   5.220   5.624 -0.6793 -0.7192 -0.4062
 4444SOL     OW17507   5.401   4.889   1.781 -0.2240 -0.2817  0.5647
 4444SOL    HW217508   5.339   4.871   1.710  0.0270 -1.7605  0.6888
 4444SOL    HW317509   5.355   4.862   1.861 -0.0648  0.2873  0.8585
 4444SOL    MW417510   5.386   4.883   1.782 -0.1433 -0.0387  0.2359
 4445SOL     OW17511   4.712   0.292   5.846  0.1143 -0.2512 -0.0083
 4445SOL    HW217512   4.671   0.211   5.878  0.3731 -0.3691  0.0287
 4445SOL    HW317513   4.778   0.313   5.912  0.8342 -0.6366 -0.5735
 4445SOL    MW417514   4.716   0.284   5.859  0.3883 -0.2943  0.5512
 4446SOL     OW17515   3.241   3.153   1.233 -0.7112  0.1643 -0.3725
 4446SOL    HW217516   3.233   3.240   1.273 -2.0532  0.3977 -1.0773
 4446SOL    HW317517   3.250   3.171   1.139 -0.0497 -0.4460 -0.4378
 4446SOL    MW417518   3.241   3.167   1.226 -0.3015 -0.5260  0.1843
 4447SOL     OW17519   0.324   1.255   1.971  0.7778 -0.6307  0.1763
 4447SOL    HW217520   0.262   1.328   1.975 -0.0358 -1.3272  0.9819
 4447SOL    HW317521   0.398   1.282   2.026  0.0830 -0.7430  1.2066
 4447SOL    MW417522   0.325   1.268   1.979 -0.4391 -0.1501  0.3027
 4448SOL     OW17523   3.978   5.915   3.090  0.5159 -0.4715 -0.4932
 4448SOL    HW217524   4.030   5.990   3.066  1.5846 -0.1164  2.4439
 4448SOL    HW317525   3.887   5.942   3.074  0.8724  1.4760  0.4513
 4448SOL    MW417526   3.973   5.928   3.085  0.2765  0.2119  0.5334
 4449SOL     OW17527   3.482   5.790   3.800  0.7674  0.3592 -0.3327
 4449SOL    HW217528   3.530   5.870   3.778 -0.6170  1.3036 -0.0699
 4449SOL    HW317529   3.391   5.818   3.804  0.2740 -1.2139 -0.0486
 4449SOL    MW417530   3.476   5.804   3.797 -0.3248 -1.2021  0.2893
 4450SOL     OW17531   5.866   0.315   2.830 -0.3783 -0.4864 -0.5675
 4450SOL    HW217532   5.914   0.286   2.908 -1.4666  1.7610  1.0526
 4450SOL    HW317533   5.775   0.287   2.846 -0.6745  0.2827 -0.8541
 4450SOL    MW417534   5.860   0.308   2.842 -0.1881  0.3878  0.2296
 4451SOL     OW17535   2.466   5.504   5.814 -0.2683  0.0915  0.2610
 4451SOL    HW217536   2.481   5.436   5.880  0.2167 -0.5994 -0.5426
 4451SOL    HW317537   2.408   5.462   5.750  1.8468 -0.3704 -1.4430
 4451SOL    MW417538   2.460   5.489   5.815 -0.3741  0.6343  0.1327
 4452SOL     OW17539   6.143   6.020   5.440 -0.2167  0.2280 -0.3986
 4452SOL    HW217540   6.158   5.943   5.385  0.7590 -0.9398  1.4193
 4452SOL    HW317541   6.048   6.025   5.449 -0.2880 -2.5788  1.7731
 4452SOL    MW417542   6.133   6.010   5.434 -0.4138 -0.0760  0.1644
 4453SOL     OW17543   1.573   3.627   0.483  0.1174 -0.0892 -0.1187
 4453SOL    HW217544   1.537   3.640   0.395  0.2342  0.3270 -0.1107
 4453SOL    HW317545   1.653   3.578   0.469  0.3552  0.3383 -0.2911
 4453SOL    MW417546   1.579   3.622   0.470 -0.3486  0.2104  0.4788
 4454SOL     OW17547   5.956   4.013   3.988 -0.2569 -0.2422 -0.0787
 4454SOL    HW217548   6.044   4.045   3.970 -0.7312  1.6068  0.6006
 4454SOL    HW317549   5.962   3.973   4.074  0.2901 -1.8808 -0.8311
 4454SOL    MW417550   5.968   4.012   3.997 -0.0489  0.1391 -0.3995
 4455SOL     OW17551   0.577   2.674   4.141  0.3482 -0.6873  0.0416
 4455SOL    HW217552   0.598   2.638   4.228 -1.4191  0.6941  1.1249
 4455SOL    HW317553   0.535   2.602   4.095 -0.5320 -0.8934  1.1051
 4455SOL    MW417554   0.574   2.660   4.147  0.6282  0.1568 -0.3314
 4456SOL     OW17555   1.202   4.925   1.286 -0.0246  0.0856  0.0355
 4456SOL    HW217556   1.180   4.947   1.377 -0.2881  0.1914 -0.0541
 4456SOL    HW317557   1.196   5.008   1.239  2.6827  0.5867  0.3954
 4456SOL    MW417558   1.199   4.939   1.292  0.0454  0.2874 -0.1894
 4457SOL     OW17559   2.615   0.119   4.442  0.8023  0.8737 -0.2188
 4457SOL    HW217560   2.637   0.038   4.488  1.4675 -0.0196 -2.0205
 4457SOL    HW317561   2.564   0.169   4.505 -0.6736 -1.4601  0.5585
 4457SOL    MW417562   2.611   0.115   4.456 -0.2992  0.6630  0.2429
 4458SOL     OW17563   4.641   2.067   6.347  0.1291 -0.2951 -0.0859
 4458SOL    HW217564   4.579   2.132   6.314 -2.7575 -3.4984 -1.6479
 4458SOL    HW317565   4.599   2.033   6.426  1.0759 -0.9301  0.1578
 4458SOL    MW417566   4.627   2.071   6.353  0.1739 -0.1538  0.3943
 4459SOL     OW17567   5.322   5.267   5.469 -0.0217  0.4694  0.1930
 4459SOL    HW217568   5.347   5.276   5.376  2.0212  0.8254  0.7270
 4459SOL    HW317569   5.331   5.355   5.505  0.6449  0.0705  1.0430
 4459SOL    MW417570   5.327   5.280   5.461 -0.1580  0.1898 -0.2777
 4460SOL     OW17571   0.362   2.812   0.924  0.4451  0.4539  0.2584
 4460SOL    HW217572   0.346   2.903   0.948  0.2710 -0.1112  2.4284
 4460SOL    HW317573   0.279   2.768   0.938  0.9842 -0.3718  0.9157
 4460SOL    MW417574   0.349   2.819   0.929 -0.9961 -0.6615  0.0362
 4461SOL     OW17575   1.050   4.853   1.585 -0.0828  0.3102  0.8108
 4461SOL    HW217576   1.102   4.774   1.600  1.3991  0.8867 -0.9842
 4461SOL    HW317577   1.065   4.907   1.663  0.6021 -0.2703  1.0932
 4461SOL    MW417578   1.059   4.850   1.597 -0.0934  0.7116  1.0994
 4462SOL     OW17579   2.044   2.305   6.127  0.0621 -0.4512  0.2070
 4462SOL    HW217580   2.130   2.263   6.136 -0.4164 -1.3697  0.5834
 4462SOL    HW317581   2.039   2.330   6.035  0.5947 -0.6840  0.1115
 4462SOL    MW417582   2.055   2.303   6.116  0.0880 -0.6499 -0.0061
 4463SOL     OW17583   5.571   3.973   3.765  0.5537  0.0537 -0.9325
 4463SOL    HW217584   5.558   3.908   3.696 -1.1009 -0.1447 -0.4548
 4463SOL    HW317585   5.652   4.018   3.739  1.7000 -2.0972 -1.3208
 4463SOL    MW417586   5.580   3.970   3.752 -0.0107 -0.0827 -0.0778
 4464SOL     OW17587   1.319   5.840   5.256 -0.2757  0.5624 -0.3700
 4464SOL    HW217588   1.306   5.749   5.284  0.4027 -0.5284 -3.1889
 4464SOL    HW317589   1.391   5.872   5.309 -1.6729  0.1370  1.9312
 4464SOL    MW417590   1.327   5.832   5.266 -0.0479  0.4595 -0.0961
 4465SOL     OW17591   0.552   0.787   3.086 -0.2764  0.0768  0.5992
 4465SOL    HW217592   0.488   0.854   3.060 -1.5530 -0.7328  1.5529
 4465SOL    HW317593   0.615   0.834   3.140  0.0953  0.9321 -0.5212
 4465SOL    MW417594   0.552   0.802   3.090  0.2029  0.2582  0.4810
 4466SOL     OW17595   1.518   1.223   5.471  0.3291 -0.0451  0.0550
 4466SOL    HW217596   1.553   1.272   5.397 -1.4461 -1.3871 -1.7981
 4466SOL    HW317597   1.463   1.286   5.517  0.7214  0.5750 -0.3080
 4466SOL    MW417598   1.515   1.238   5.467  0.8070  0.0643 -0.5314
 4467SOL     OW17599   0.453   3.887   6.158  0.1408 -0.1866 -0.1776
 4467SOL    HW217600   0.433   3.971   6.199  2.0724  1.1523 -1.7988
 4467SOL    HW317601   0.509   3.842   6.221  0.6818  0.5975 -0.0796
 4467SOL    MW417602   0.458   3.892   6.172 -0.7521 -0.6861  0.1499
 4468SOL     OW17603   3.592   3.536   4.150  0.2268  0.5128 -0.2588
 4468SOL    HW217604   3.537   3.591   4.206 -1.2321  0.4767 -1.5964
 4468SOL    HW317605   3.573   3.446   4.178  1.0019  0.5709  0.4922
 4468SOL    MW417606   3.582   3.531   4.161  0.2576  0.0218  0.1926
 4469SOL     OW17607   4.447   1.781   4.708 -0.1329 -0.8345 -0.1083
 4469SOL    HW217608   4.441   1.876   4.695 -0.3072 -0.6572  1.1139
 4469SOL    HW317609   4.540   1.765   4.722 -0.1456 -0.7896  0.0321
 4469SOL    MW417610   4.458   1.792   4.708 -0.0982 -0.1775 -0.1245
 4470SOL     OW17611   1.641   5.430   4.373  0.2949 -0.3291  0.2587
 4470SOL    HW217612   1.585   5.455   4.446  0.3187 -1.2025  0.5864
 4470SOL    HW317613   1.588   5.446   4.295  0.5385  1.3157  0.4090
 4470SOL    MW417614   1.627   5.435   4.372  0.2461  0.1625 -0.6954
 4471SOL     OW17615   2.258   4.346   4.756  0.3073 -0.5010 -0.0505
 4471SOL    HW217616   2.199   4.376   4.826  0.8676  0.6670 -0.0434
 4471SOL    HW317617   2.200   4.322   4.684 -0.1973  0.4902  0.0044
 4471SOL    MW417618   2.243   4.347   4.756  0.8210 -0.0186 -0.5257
 4472SOL     OW17619   1.593   1.991   5.371  0.0940 -0.1111  0.3448
 4472SOL    HW217620   1.571   1.933   5.444 -4.8319  0.9520  0.0217
 4472SOL    HW317621   1.524   2.057   5.371  1.4140  1.5685 -3.6523
 4472SOL    MW417622   1.581   1.992   5.381 -0.2736  0.5491 -0.1433
 4473SOL     OW17623   0.663   5.605   6.125 -0.3452  0.2986 -0.0550
 4473SOL    HW217624   0.619   5.683   6.092 -2.4938 -0.6293  0.3670
 4473SOL    HW317625   0.693   5.558   6.047 -0.0158  1.0022 -0.3553
 4473SOL    MW417626   0.661   5.609   6.111  0.1063  0.2329 -0.5610
 4474SOL     OW17627   3.147   3.246   4.172  0.4736  0.3034 -0.1778
 4474SOL    HW217628   3.139   3.230   4.078  1.0549  1.6633 -0.4897
 4474SOL    HW317629   3.065   3.290   4.196  1.2518  2.0651 -0.5693
 4474SOL    MW417630   3.135   3.250   4.163 -0.0883  0.3447  0.0484
 4475SOL     OW17631   0.473   0.867   2.317  0.6852  0.2971  0.1935
 4475SOL    HW217632   0.415   0.914   2.258  1.0546  0.4057 -0.0828
 4475SOL    HW317633   0.558   0.868   2.274  0.5382 -1.3302 -0.2240
 4475SOL    MW417634   0.477   0.873   2.304 -0.0028  0.0789 -0.3823
 4476SOL     OW17635   4.161   3.497   4.500 -0.3209 -0.6730  0.0574
 4476SOL    HW217636   4.116   3.480   4.417 -0.4632  1.2983 -0.3257
 4476SOL    HW317637   4.091   3.500   4.565 -0.4592 -0.1839 -0.1083
 4476SOL    MW417638   4.146   3.496   4.498  0.4427 -0.3541  0.0409
 4477SOL     OW17639   4.495   5.716   0.729 -0.0642 -0.0517  0.2418
 4477SOL    HW217640   4.476   5.763   0.810  0.1111 -0.2914  0.4239
 4477SOL    HW317641   4.576   5.756   0.697 -0.9494  1.1156 -0.6465
 4477SOL    MW417642   4.504   5.728   0.735 -0.1090  0.0724  0.1585
 4478SOL     OW17643   5.643   1.738   6.066  0.7136 -0.0707 -0.0420
 4478SOL    HW217644   5.623   1.767   6.155 -0.7729 -1.7171  0.2203
 4478SOL    HW317645   5.636   1.818   6.013  0.1913  0.6804  1.1114
 4478SOL    MW417646   5.639   1.753   6.071 -0.1333 -0.2705 -0.2203
 4479SOL     OW17647   0.258   2.589   3.654 -0.3136 -0.7378 -0.5363
 4479SOL    HW217648   0.312   2.668   3.651 -0.1146 -0.7956  0.8723
 4479SOL    HW317649   0.183   2.613   3.708 -0.0964 -1.5996  0.1740
 4479SOL    MW417650   0.255   2.603   3.660  0.3701  0.0562  0.5778
 4480SOL     OW17651   0.178   5.336   3.238 -0.6727 -0.2664  0.4011
 4480SOL    HW217652   0.083   5.346   3.230 -0.9180 -1.8715  1.0483
 4480SOL    HW317653   0.209   5.327   3.147 -1.0268  0.9956  0.1410
 4480SOL    MW417654   0.170   5.336   3.225 -0.1374  0.3299 -0.2100
 4481SOL     OW17655   2.420   5.059   1.763  0.9130 -0.4813  0.0041
 4481SOL    HW217656   2.488   5.012   1.811  0.8597  0.9828  1.6333
 4481SOL    HW317657   2.339   5.017   1.790  0.7272  1.2187  2.5657
 4481SOL    MW417658   2.418   5.048   1.773  0.0148 -0.9243 -0.0583
 4482SOL     OW17659   0.670   5.124   3.041 -0.2078  0.2695 -0.4754
 4482SOL    HW217660   0.626   5.056   3.093  1.4046  0.2860  0.9925
 4482SOL    HW317661   0.599   5.183   3.015 -1.4367 -1.1565 -0.5296
 4482SOL    MW417662   0.655   5.123   3.044 -0.0003  0.1032  0.2690
 4483SOL     OW17663   0.392   4.862   5.827 -0.0567 -0.3088 -0.2404
 4483SOL    HW217664   0.472   4.861   5.776  0.0502 -0.7328 -0.0706
 4483SOL    HW317665   0.420   4.842   5.917 -0.3808 -0.7896 -0.2379
 4483SOL    MW417666   0.406   4.859   5.832 -0.1447  0.1460  0.6675
 4484SOL     OW17667   2.207   3.055   2.985 -0.6586  0.3494 -0.0681
 4484SOL    HW217668   2.204   3.144   3.019  1.0092  0.8162 -1.0331
 4484SOL    HW317669   2.167   3.061   2.898 -0.3333  0.2189 -0.2293
 4484SOL    MW417670   2.202   3.067   2.978 -0.4659  0.4648  0.2590
 4485SOL     OW17671   6.099   2.039   3.912 -0.3345 -0.2324 -0.1886
 4485SOL    HW217672   6.127   1.979   3.981 -0.5088 -0.5663 -0.4083
 4485SOL    HW317673   6.169   2.104   3.907  0.3707 -1.0024 -0.6682
 4485SOL    MW417674   6.112   2.040   3.920 -0.0018  0.1519 -0.2061
 4486SOL     OW17675   4.693   3.456   3.344  0.1714  0.2318  0.1290
 4486SOL    HW217676   4.712   3.366   3.316 -0.5248  0.1485 -0.0902
 4486SOL    HW317677   4.674   3.448   3.437 -1.8236 -0.1718 -0.2609
 4486SOL    MW417678   4.693   3.443   3.352 -0.1710  0.5133 -0.0927
 4487SOL     OW17679   2.425   1.400   1.599  0.0806  0.0878  0.1860
 4487SOL    HW217680   2.494   1.439   1.652 -0.5750  1.6046 -0.0429
 4487SOL    HW317681   2.439   1.305   1.608  4.6965  0.1510 -3.0570
 4487SOL    MW417682   2.436   1.392   1.608  0.8311  0.0399  0.7857
 4488SOL     OW17683   4.178   4.523   2.605 -0.7206  0.2109 -0.4780
 4488SOL    HW217684   4.187   4.482   2.519 -1.7134 -1.0278 -0.0194
 4488SOL    HW317685   4.205   4.455   2.667 -0.2965  0.9925  0.2144
 4488SOL    MW417686   4.182   4.508   2.602  0.0194  0.2337 -0.4313
 4489SOL     OW17687   1.612   2.767   4.855 -0.0624 -0.0321 -0.3346
 4489SOL    HW217688   1.679   2.708   4.821  0.0522  0.3151 -0.7089
 4489SOL    HW317689   1.529   2.722   4.838  0.0488 -0.2950 -0.1967
 4489SOL    MW417690   1.609   2.753   4.849  0.0916 -0.2431 -0.2559
 4490SOL     OW17691   5.953   1.338   0.780 -1.0363 -0.3974  0.6132
 4490SOL    HW217692   5.933   1.255   0.735  1.4517 -1.2712  0.9322
 4490SOL    HW317693   5.987   1.310   0.865  0.3249  0.9182  0.5278
 4490SOL    MW417694   5.955   1.323   0.785 -0.0549 -0.0162 -0.3442
 4491SOL     OW17695   5.643   3.608   4.107  0.6223  0.3625 -0.7694
 4491SOL    HW217696   5.670   3.689   4.063  0.0680  0.8906 -0.1607
 4491SOL    HW317697   5.705   3.600   4.181  1.0099 -0.0633 -1.1306
 4491SOL    MW417698   5.655   3.618   4.111 -0.4257  0.0646 -0.3017
 4492SOL     OW17699   4.531   2.051   0.163 -0.1259 -0.2814 -0.6583
 4492SOL    HW217700   4.505   2.142   0.148 -0.0509 -0.2439 -0.5614
 4492SOL    HW317701   4.618   2.057   0.203 -0.6726 -0.3418  0.6095
 4492SOL    MW417702   4.539   2.064   0.166  1.2794 -0.3519 -0.0717
 4493SOL     OW17703   1.673   0.592   2.215  0.2786 -0.1771 -0.0563
 4493SOL    HW217704   1.684   0.523   2.280 -1.7143  0.1545  0.7197
 4493SOL    HW317705   1.578   0.596   2.201  0.4689  1.4387 -1.1507
 4493SOL    MW417706   1.662   0.583   2.221 -0.4309  0.1877  0.5867
 4494SOL     OW17707   2.483   1.293   0.761 -0.5525  0.1718  0.1009
 4494SOL    HW217708   2.435   1.259   0.686 -0.0833  0.4771 -0.3358
 4494SOL    HW317709   2.423   1.280   0.835 -1.4428  0.8628 -0.4891
 4494SOL    MW417710   2.469   1.286   0.761  0.1483  0.5825 -0.2477
 4495SOL     OW17711   2.592   5.403   3.548  0.4128 -0.1683 -0.1966
 4495SOL    HW217712   2.548   5.456   3.481  0.6323 -1.2215 -1.2070
 4495SOL    HW317713   2.522   5.350   3.586  0.3180  0.3060  0.3025
 4495SOL    MW417714   2.577   5.403   3.544 -0.2564  0.1642 -0.3959
 4496SOL     OW17715   5.443   1.563   6.006  0.2473  0.2438  0.0337
 4496SOL    HW217716   5.393   1.538   6.084 -1.5510 -0.1391 -1.1824
 4496SOL    HW317717   5.502   1.632   6.037 -0.3506  0.0543  1.7342
 4496SOL    MW417718   5.444   1.569   6.021  0.0985 -0.0589 -0.2717
 4497SOL     OW17719   3.598   5.992   5.722  0.1927 -0.0574  0.3738
 4497SOL    HW217720   3.674   6.031   5.764 -1.0718  2.4423  0.5235
 4497SOL    HW317721   3.547   5.954   5.793  0.4444 -0.2075  0.4747
 4497SOL    MW417722   3.602   5.992   5.737  0.1771  0.1813  0.4472
 4498SOL     OW17723   0.401   3.933   5.854  0.0190 -0.0254  0.0393
 4498SOL    HW217724   0.377   3.847   5.821  0.6906  0.3210 -1.4620
 4498SOL    HW317725   0.418   3.920   5.947 -0.2301 -1.4304 -0.0961
 4498SOL    MW417726   0.400   3.920   5.862 -0.0765 -0.0182 -0.2182
 4499SOL     OW17727   3.378   4.640   6.023 -0.0733  0.1447 -0.2547
 4499SOL    HW217728   3.451   4.685   6.065  0.7794 -2.3373  1.1530
 4499SOL    HW317729   3.304   4.701   6.031  0.4658  0.5428  3.4497
 4499SOL    MW417730   3.378   4.654   6.030  0.4344  0.1159  0.4200
 4500SOL     OW17731   3.165   4.253   0.245  0.4050  0.1232  0.3516
 4500SOL    HW217732   3.175   4.159   0.232  0.9954  0.2320 -0.0461
 4500SOL    HW317733   3.209   4.270   0.329  2.8925  0.4436 -0.9126
 4500SOL    MW417734   3.172   4.243   0.254  0.4305  0.2278  0.0883
 4501SOL     OW17735   4.808   5.327   6.384  0.3793  0.2977 -0.0840
 4501SOL    HW217736   4.754   5.250   6.402 -1.1489  1.8732  2.6728
 4501SOL    HW317737   4.822   5.325   6.289 -1.9442 -1.8251 -0.4805
 4501SOL    MW417738   4.803   5.316   6.374 -0.2209  0.2828  0.2797
 4502SOL     OW17739   5.444   2.689   6.424  0.3396 -0.6795  0.1527
 4502SOL    HW217740   5.450   2.614   6.365 -1.0411  0.4540 -1.5230
 4502SOL    HW317741   5.350   2.703   6.435  0.5780  0.6130  0.7044
 4502SOL    MW417742   5.433   2.681   6.418  0.1082  0.3202 -0.0288
 4503SOL     OW17743   0.329   1.058   5.747 -0.2286 -1.0523  0.1921
 4503SOL    HW217744   0.297   1.038   5.659 -1.4490  0.0023  0.3626
 4503SOL    HW317745   0.419   1.026   5.748 -1.2016 -4.1268 -0.3349
 4503SOL    MW417746   0.337   1.051   5.736  0.3089  0.1536 -0.0930
 4504SOL     OW17747   1.547   4.891   5.064  0.0072  0.3181 -0.0570
 4504SOL    HW217748   1.544   4.805   5.021 -1.5008  0.4222 -0.2021
 4504SOL    HW317749   1.507   4.951   5.001 -1.1337  0.6865  0.9768
 4504SOL    MW417750   1.541   4.887   5.050  0.2390  0.3909 -0.5484
 4505SOL     OW17751   4.136   4.432   0.948 -0.8375 -0.5347  0.6452
 4505SOL    HW217752   4.147   4.338   0.933  1.3423 -0.2017 -0.1498
 4505SOL    HW317753   4.121   4.469   0.861  0.1047  0.0612  0.7280
 4505SOL    MW417754   4.135   4.424   0.935 -0.3207 -0.2486  0.0227
 4506SOL     OW17755   4.889   6.372   5.176 -0.6810  0.0273 -0.0057
 4506SOL    HW217756   4.891   6.449   5.118  0.7169 -0.4455 -0.6428
 4506SOL    HW317757   4.820   6.390   5.238 -2.4357  0.4701 -1.9695
 4506SOL    MW417758   4.880   6.384   5.176 -0.5680 -0.1733 -0.0138
 4507SOL     OW17759   1.272   5.459   1.980 -0.5980 -0.2850  0.0674
 4507SOL    HW217760   1.224   5.499   2.052 -1.3529  0.4302 -0.8034
 4507SOL    HW317761   1.260   5.365   1.993 -0.2682 -0.1872  1.1657
 4507SOL    MW417762   1.264   5.452   1.991  0.1862 -0.2012  0.0964
 4508SOL     OW17763   5.557   2.495   5.376  0.0757  0.1914  0.3808
 4508SOL    HW217764   5.561   2.580   5.332  2.3862  1.0646  2.0601
 4508SOL    HW317765   5.565   2.431   5.305 -0.1821  1.3895 -0.7753
 4508SOL    MW417766   5.558   2.498   5.361  0.2079  0.5140  0.1361
 4509SOL     OW17767   2.623   0.910   5.335 -0.1339 -0.0797  0.0314
 4509SOL    HW217768   2.669   0.910   5.251 -2.1440  0.8072 -1.1426
 4509SOL    HW317769   2.581   0.825   5.339 -2.6434  0.9834 -1.4689
 4509SOL    MW417770   2.624   0.899   5.325  0.6672  0.4671  0.1060
 4510SOL     OW17771   6.063   1.501   2.777  0.0959 -0.2885 -0.0834
 4510SOL    HW217772   5.975   1.536   2.768 -0.7303 -1.7215  1.7465
 4510SOL    HW317773   6.052   1.406   2.769  1.4537 -0.5041  0.3700
 4510SOL    MW417774   6.050   1.493   2.774  0.1387 -0.0316 -0.2274
 4511SOL     OW17775   3.966   2.796   2.448 -0.0962 -0.3964  0.0409
 4511SOL    HW217776   3.934   2.789   2.358  0.6844  0.2441 -0.2880
 4511SOL    HW317777   3.954   2.888   2.471 -0.3965 -0.5770  0.6454
 4511SOL    MW417778   3.960   2.807   2.439 -0.0710 -0.1742 -0.1008
 4512SOL     OW17779   0.583   5.290   5.712  0.0593  0.1794  0.0818
 4512SOL    HW217780   0.519   5.319   5.647  0.9219  1.7897 -0.0983
 4512SOL    HW317781   0.533   5.235   5.772 -1.1509  0.1571 -0.9041
 4512SOL    MW417782   0.568   5.286   5.711 -0.2414  0.6892 -0.0330
 4513SOL     OW17783   2.708   3.520   1.844 -0.5486  0.3424  0.5327
 4513SOL    HW217784   2.691   3.526   1.750 -0.3029 -2.1412  0.2652
 4513SOL    HW317785   2.782   3.460   1.852 -0.5696  0.4904  2.3084
 4513SOL    MW417786   2.715   3.513   1.833 -0.1596 -0.3617  0.0237
 4514SOL     OW17787   0.122   3.440   4.084  0.0612  0.3407 -0.3955
 4514SOL    HW217788   0.118   3.364   4.026  3.5673  0.1235 -0.5827
 4514SOL    HW317789   0.144   3.513   4.027  4.1460  0.0239  0.4237
 4514SOL    MW417790   0.125   3.439   4.069  0.1804  0.4528 -0.0411
 4515SOL     OW17791   4.696   1.462   0.579 -0.0775 -0.1695  0.6510
 4515SOL    HW217792   4.788   1.438   0.571  0.2134  0.7296  1.1397
 4515SOL    HW317793   4.676   1.505   0.496  0.4315  1.1540  1.1926
 4515SOL    MW417794   4.706   1.464   0.567  0.5761 -0.1081  0.7242
 4516SOL     OW17795   4.520   2.922   3.445 -0.4249 -0.3391  0.1165
 4516SOL    HW217796   4.484   2.833   3.447 -1.1395 -0.0938 -1.0273
 4516SOL    HW317797   4.444   2.978   3.429  0.1480  0.4079 -0.0234
 4516SOL    MW417798   4.505   2.918   3.443  0.2123  0.1868  0.2311
 4517SOL     OW17799   1.986   2.615   1.715 -0.3487 -0.0047 -0.0926
 4517SOL    HW217800   2.014   2.691   1.663  0.7228  0.0011  0.4527
 4517SOL    HW317801   2.043   2.544   1.684 -1.9150 -0.8298 -1.1986
 4517SOL    MW417802   1.997   2.616   1.704  0.8838 -0.2320 -0.0294
 4518SOL     OW17803   4.451   5.861   0.969 -0.4066 -0.2401 -0.1608
 4518SOL    HW217804   4.540   5.876   1.003 -0.0878 -1.8735 -0.2268
 4518SOL    HW317805   4.428   5.944   0.928  0.3998  0.8042  1.3630
 4518SOL    MW417806   4.460   5.874   0.968 -0.0924 -0.1324 -0.1613
 4519SOL     OW17807   2.274   4.686   0.496  0.1524  0.0557 -0.3180
 4519SOL    HW217808   2.317   4.616   0.446  1.5049  1.2919 -0.9740
 4519SOL    HW317809   2.316   4.766   0.465  0.1947  0.9839  1.9892
 4519SOL    MW417810   2.285   4.687   0.485  0.0961  0.1338 -0.0306
 4520SOL     OW17811   4.989   0.599   6.130 -0.2287  0.2195 -0.0019
 4520SOL    HW217812   4.947   0.672   6.084  1.1929 -0.1923 -2.0860
 4520SOL    HW317813   5.026   0.639   6.209 -1.1098  1.3462 -0.1242
 4520SOL    MW417814   4.988   0.614   6.135 -0.0889 -0.4333  0.1182
 4521SOL     OW17815   1.137   1.172   5.042 -0.6988 -0.0049 -0.3501
 4521SOL    HW217816   1.113   1.130   5.124 -1.2640  1.3792  0.2323
 4521SOL    HW317817   1.091   1.122   4.975  0.8393 -1.9986 -0.0094
 4521SOL    MW417818   1.128   1.160   5.044  0.5722  0.3334  0.1770
 4522SOL     OW17819   6.364   2.262   1.033 -0.0545  0.1830  0.4220
 4522SOL    HW217820   6.453   2.245   1.003 -0.2258 -1.0926  0.5681
 4522SOL    HW317821   6.349   2.196   1.101 -2.2287 -1.8583 -1.8423
 4522SOL    MW417822   6.374   2.251   1.038 -0.2900  0.4625  0.2676
 4523SOL     OW17823   3.177   1.775   6.144 -0.3734  0.1612  0.1191
 4523SOL    HW217824   3.168   1.831   6.067  1.3051  1.9262  1.1182
 4523SOL    HW317825   3.176   1.686   6.110 -2.1531  0.8007 -1.6407
 4523SOL    MW417826   3.176   1.770   6.130  0.1386  0.2098 -0.3934
 4524SOL     OW17827   5.874   1.318   5.438 -0.1992  0.5834  0.0310
 4524SOL    HW217828   5.793   1.350   5.399 -0.7185  0.4717  0.9926
 4524SOL    HW317829   5.850   1.234   5.478 -0.2001  1.5778  2.2762
 4524SOL    MW417830   5.860   1.311   5.438 -0.5565 -0.2607  0.4420
 4525SOL     OW17831   2.631   5.360   4.828 -0.6127  0.2764  0.3066
 4525SOL    HW217832   2.712   5.313   4.810 -0.8167  0.6664 -1.8486
 4525SOL    HW317833   2.653   5.417   4.902  0.9644  0.1163 -0.0058
 4525SOL    MW417834   2.644   5.361   4.836  0.6546 -0.5231  0.0646
 4526SOL     OW17835   5.875   4.047   6.070  0.0727 -0.3302  0.2224
 4526SOL    HW217836   5.839   4.018   5.986  0.9749 -2.1382  0.4161
 4526SOL    HW317837   5.969   4.056   6.054  0.2234 -0.4941  0.9758
 4526SOL    MW417838   5.883   4.044   6.057  0.1975  0.3869 -0.0990
 4527SOL     OW17839   1.213   1.917   0.723 -0.3967 -0.8408 -0.2051
 4527SOL    HW217840   1.307   1.923   0.735 -0.3939 -1.1594 -0.0672
 4527SOL    HW317841   1.199   1.941   0.631 -0.0247 -2.2517 -0.6589
 4527SOL    MW417842   1.223   1.921   0.712  0.3211  0.5386 -0.4300
 4528SOL     OW17843   6.208   2.419   0.860  0.3612 -0.0435  0.1245
 4528SOL    HW217844   6.251   2.351   0.912  0.4254  0.0660  0.2142
 4528SOL    HW317845   6.238   2.501   0.898  2.5306  0.1110 -1.7327
 4528SOL    MW417846   6.217   2.421   0.872  0.6740  0.1420 -0.1745
 4529SOL     OW17847   1.779   5.822   2.304  0.2985  0.4924  0.8252
 4529SOL    HW217848   1.862   5.870   2.303 -0.5928  2.1644 -1.2735
 4529SOL    HW317849   1.724   5.871   2.365  0.2708  0.4565  0.8289
 4529SOL    MW417850   1.783   5.835   2.312  0.3695 -0.3326 -0.6101
 4530SOL     OW17851   3.452   0.970   3.509 -0.2538  0.0099  0.6856
 4530SOL    HW217852   3.533   0.960   3.459 -0.9974  0.3390 -0.6126
 4530SOL    HW317853   3.477   1.027   3.583  0.6594  0.2404  0.2106
 4530SOL    MW417854   3.466   0.976   3.512  0.7847  0.1863 -0.2151
 4531SOL     OW17855   2.228   6.359   4.354 -0.3213  0.5600 -0.6648
 4531SOL    HW217856   2.252   6.336   4.444 -0.6129 -2.0997 -1.2077
 4531SOL    HW317857   2.302   6.410   4.322  0.2331  0.6797  0.7333
 4531SOL    MW417858   2.241   6.363   4.362  0.1063 -0.4054 -0.0648
 4532SOL     OW17859   1.870   3.903   0.302 -0.3067  0.0198  0.0752
 4532SOL    HW217860   1.953   3.894   0.348  0.8673  1.0963 -1.7265
 4532SOL    HW317861   1.870   3.992   0.269 -1.2834 -0.5690 -1.6436
 4532SOL    MW417862   1.881   3.913   0.304  0.1508  0.0293  0.1160
 4533SOL     OW17863   2.173   3.831   1.120 -0.1116  0.3864  0.7258
 4533SOL    HW217864   2.129   3.770   1.179 -0.3013  0.8242  1.0408
 4533SOL    HW317865   2.114   3.907   1.115  0.3154  0.7181  0.6635
 4533SOL    MW417866   2.159   3.833   1.127  0.2279 -0.2202 -0.9920
 4534SOL     OW17867   3.188   5.567   0.649 -0.3097 -0.6171  0.2361
 4534SOL    HW217868   3.159   5.637   0.591 -1.3557 -0.3493  1.0579
 4534SOL    HW317869   3.268   5.532   0.607 -0.1268  0.6371 -0.4944
 4534SOL    MW417870   3.195   5.571   0.636 -0.1692  0.0957 -0.0059
 4535SOL     OW17871   3.223   3.509   5.346 -0.2383 -0.6813 -0.0771
 4535SOL    HW217872   3.240   3.578   5.410 -0.4283  1.2243 -1.9770
 4535SOL    HW317873   3.295   3.447   5.358  0.9073  0.7071  0.5918
 4535SOL    MW417874   3.235   3.510   5.356  0.3760 -0.5749  0.4604
 4536SOL     OW17875   4.476   1.094   1.831 -0.5226  0.0630  0.3456
 4536SOL    HW217876   4.450   1.176   1.791  0.5041 -0.3092 -1.1541
 4536SOL    HW317877   4.512   1.042   1.759 -1.1110 -1.6915  1.2600
 4536SOL    MW417878   4.477   1.098   1.816  0.0571  0.0707 -0.0129
 4537SOL     OW17879   0.538   1.312   2.151 -0.5146 -0.0470  0.2448
 4537SOL    HW217880   0.582   1.327   2.234  0.1160 -2.0809  0.3325
 4537SOL    HW317881   0.547   1.394   2.103  2.0561  0.1058  0.8767
 4537SOL    MW417882   0.545   1.325   2.155 -0.1892 -0.3114  0.1800
 4538SOL     OW17883   1.538   4.403   0.920  0.3436 -0.1461 -0.0789
 4538SOL    HW217884   1.467   4.359   0.874 -0.5298  0.9588  0.1753
 4538SOL    HW317885   1.561   4.478   0.865  1.2328 -0.4139 -0.0937
 4538SOL    MW417886   1.532   4.407   0.907 -0.5330 -0.0695  0.2647
 4539SOL     OW17887   4.262   5.991   3.395 -0.2172 -0.4298 -0.1985
 4539SOL    HW217888   4.189   5.941   3.357 -1.4347  1.0567  0.1153
 4539SOL    HW317889   4.226   6.077   3.413  2.0112  0.8381 -1.3464
 4539SOL    MW417890   4.248   5.996   3.393 -0.4379 -0.2075  0.3148
 4540SOL     OW17891   6.196   3.246   5.968 -0.2813  0.4555  0.2232
 4540SOL    HW217892   6.170   3.154   5.969  1.3571 -0.0572 -0.1812
 4540SOL    HW317893   6.202   3.269   5.875  0.0733  0.7214  0.3058
 4540SOL    MW417894   6.194   3.237   5.956  0.3974  0.1573  0.1287
 4541SOL     OW17895   5.671   0.634   0.498 -0.1656  0.1877 -0.0769
 4541SOL    HW217896   5.643   0.725   0.508 -1.5349  0.1776 -2.9446
 4541SOL    HW317897   5.591   0.586   0.477  0.9465 -1.1212 -1.5473
 4541SOL    MW417898   5.657   0.640   0.497  0.3938 -0.2088 -0.4246
 4542SOL     OW17899   4.028   4.049   3.942  1.2861  0.7160  0.3433
 4542SOL    HW217900   3.975   4.127   3.958 -0.8126 -0.8528  1.5905
 4542SOL    HW317901   4.062   4.025   4.028  0.5167 -0.6417  0.2934
 4542SOL    MW417902   4.025   4.056   3.955 -0.2714 -0.0686  0.0468
 4543SOL     OW17903   3.328   3.593   2.800  0.1929  0.6948  0.2452
 4543SOL    HW217904   3.274   3.542   2.740 -0.6264  1.1784  0.5621
 4543SOL    HW317905   3.274   3.605   2.877  0.2568  2.2659  0.0796
 4543SOL    MW417906   3.314   3.588   2.802  0.9590  0.3240 -0.2073
 4544SOL     OW17907   2.126   5.629   6.301  0.3841  0.4171  0.1801
 4544SOL    HW217908   2.200   5.593   6.253  0.6178 -0.0479  0.8665
 4544SOL    HW317909   2.069   5.553   6.316  0.7805  0.3545  1.4655
 4544SOL    MW417910   2.128   5.614   6.297  0.0726 -0.7271 -0.3707
 4545SOL     OW17911   0.107   2.214   3.764  0.2244 -0.0762  0.4331
 4545SOL    HW217912   0.095   2.137   3.709  2.9714 -1.0541  1.0165
 4545SOL    HW317913   0.174   2.265   3.719  0.4291  0.5672  1.4277
 4545SOL    MW417914   0.114   2.211   3.751 -0.7535 -0.3528 -0.1156
 4546SOL     OW17915   1.349   3.970   4.148  0.3763  0.2406  0.1308
 4546SOL    HW217916   1.260   3.940   4.132  0.1730  0.1127  1.4169
 4546SOL    HW317917   1.405   3.911   4.098 -0.1513 -0.9191  0.8733
 4546SOL    MW417918   1.345   3.959   4.139 -0.0112  0.2756  1.2124
 4547SOL     OW17919   4.513   3.469   4.088 -0.3195  0.1691 -0.3655
 4547SOL    HW217920   4.479   3.476   4.178  0.0133  0.4680 -0.2584
 4547SOL    HW317921   4.436   3.462   4.033 -0.5175 -0.9537  0.0193
 4547SOL    MW417922   4.499   3.469   4.093 -0.4120 -0.3172 -0.5654
 4548SOL     OW17923   4.320   5.154   3.366  0.5383 -0.5991 -0.1176
 4548SOL    HW217924   4.332   5.248   3.382 -1.6053  0.1170 -2.0338
 4548SOL    HW317925   4.392   5.130   3.309 -0.6363  0.7977 -2.3534
 4548SOL    MW417926   4.331   5.164   3.360 -0.2679 -0.1684  0.3167
 4549SOL     OW17927   1.161   3.430   3.517  0.3195 -0.4962  0.2842
 4549SOL    HW217928   1.068   3.452   3.512  0.1007 -1.6540 -2.3990
 4549SOL    HW317929   1.206   3.514   3.528 -0.9921  0.1038  1.2986
 4549SOL    MW417930   1.155   3.444   3.518 -0.3197  0.2360 -0.1586
 4550SOL     OW17931   3.694   4.282   5.699 -0.2939  0.1093 -0.0793
 4550SOL    HW217932   3.632   4.211   5.683  0.5818 -1.1770  1.8253
 4550SOL    HW317933   3.642   4.351   5.741 -0.8182 -0.1084 -0.3683
 4550SOL    MW417934   3.679   4.282   5.702  0.0853 -0.5367 -0.1797
 4551SOL     OW17935   0.285   5.430   2.446  0.4053  0.6518  0.1618
 4551SOL    HW217936   0.261   5.457   2.534  0.1099  1.0707 -0.0423
 4551SOL    HW317937   0.380   5.440   2.442  0.5079 -0.0892  0.6706
 4551SOL    MW417938   0.294   5.435   2.457 -0.2849 -0.4755  0.2903
 4552SOL     OW17939   1.509   1.826   0.951 -0.3348 -0.4517  0.9763
 4552SOL    HW217940   1.422   1.793   0.974 -0.3947 -0.1573  1.1732
 4552SOL    HW317941   1.566   1.789   1.018 -0.5318  0.5242  1.7034
 4552SOL    MW417942   1.505   1.816   0.963  0.3244 -0.1760 -0.4309
 4553SOL     OW17943   0.739   4.749   0.979 -0.1328 -0.0932  0.4469
 4553SOL    HW217944   0.800   4.682   1.007  0.3582  0.0084 -0.3354
 4553SOL    HW317945   0.757   4.824   1.035 -0.8721 -0.6879  1.5101
 4553SOL    MW417946   0.749   4.750   0.990 -0.1047 -0.6411  0.0551
 4554SOL     OW17947   1.544   2.283   0.410  0.3666  0.2186 -0.7444
 4554SOL    HW217948   1.586   2.266   0.495  0.1438 -0.2111 -0.7179
 4554SOL    HW317949   1.563   2.206   0.358  0.4308  0.4474 -1.0584
 4554SOL    MW417950   1.552   2.270   0.415  0.2730 -1.0204  0.0430
 4555SOL     OW17951   3.431   2.612   3.333  0.3677  0.3155 -0.0913
 4555SOL    HW217952   3.426   2.517   3.324  2.6500  0.1877 -0.6336
 4555SOL    HW317953   3.398   2.647   3.251 -2.1779  0.1182  0.7709
 4555SOL    MW417954   3.426   2.604   3.321  0.7911 -0.1869  0.1225
 4556SOL     OW17955   4.555   1.897   4.992  0.1208  0.4378 -0.3230
 4556SOL    HW217956   4.541   1.970   4.932 -0.3567  1.1105  0.5851
 4556SOL    HW317957   4.622   1.844   4.950  2.0677  2.5159 -0.0348
 4556SOL    MW417958   4.562   1.900   4.979  0.1664  0.4658  0.2003
 4557SOL     OW17959   0.371   1.940   1.444  0.3307 -0.0396 -0.4614
 4557SOL    HW217960   0.446   1.883   1.461 -0.6888 -1.4478 -0.4782
 4557SOL    HW317961   0.392   2.022   1.488  1.9652 -0.3238 -0.6482
 4557SOL    MW417962   0.384   1.943   1.452  0.5424 -0.2549 -0.2020
 4558SOL     OW17963   1.476   3.601   1.796 -0.3408 -0.0809 -0.4638
 4558SOL    HW217964   1.424   3.633   1.722 -0.4669 -0.2762 -0.4582
 4558SOL    HW317965   1.537   3.673   1.814 -1.9839  1.0560  0.9001
 4558SOL    MW417966   1.478   3.615   1.788  0.0677  0.8806 -0.1780
 4559SOL     OW17967   1.965   4.950   3.390 -0.1572 -0.6884 -0.2988
 4559SOL    HW217968   2.052   4.936   3.352 -0.4541  1.1263 -1.7805
 4559SOL    HW317969   1.922   4.864   3.382  1.4344 -1.5845  0.3749
 4559SOL    MW417970   1.971   4.937   3.384  0.4535 -0.2604 -0.0400
 4560SOL     OW17971   1.679   2.694   3.362  0.5215  0.4195  0.0055
 4560SOL    HW217972   1.622   2.728   3.430  1.9219  2.2953  0.3270
 4560SOL    HW317973   1.744   2.642   3.409  0.7163  0.6272 -0.0307
 4560SOL    MW417974   1.680   2.691   3.377  0.4521 -0.3394 -0.1016
 4561SOL     OW17975   4.053   5.655   0.080  0.2957 -0.2262 -0.2900
 4561SOL    HW217976   4.010   5.663   0.165  0.7072  0.4034 -0.1405
 4561SOL    HW317977   3.994   5.700   0.019  0.3429 -0.0824 -0.2274
 4561SOL    MW417978   4.039   5.662   0.083 -0.1074  0.0055 -0.5692
 4562SOL     OW17979   0.386   0.975   3.354 -0.3625  0.3931  0.2175
 4562SOL    HW217980   0.325   0.989   3.426 -2.1617 -0.3568 -1.0902
 4562SOL    HW317981   0.337   0.924   3.290  2.0912 -1.5534 -0.2920
 4562SOL    MW417982   0.372   0.970   3.355 -0.7765 -0.0557 -0.0316
 4563SOL     OW17983   5.632   4.659   3.155 -0.3682  0.1999  0.1472
 4563SOL    HW217984   5.562   4.719   3.130 -0.4622  0.2524  0.5292
 4563SOL    HW317985   5.708   4.690   3.105 -0.5595  0.2842 -0.0930
 4563SOL    MW417986   5.633   4.671   3.145 -0.4720  0.2313  0.1793
 4564SOL     OW17987   3.914   1.248   1.800  0.0718 -0.0215  0.4656
 4564SOL    HW217988   3.969   1.182   1.843  1.9142  0.0297 -1.6512
 4564SOL    HW317989   3.943   1.331   1.838  1.7655  0.0336 -0.8298
 4564SOL    MW417990   3.925   1.250   1.811  0.2007 -0.5544  0.5318
 4565SOL     OW17991   4.050   3.760   0.051 -0.2334 -0.0630 -0.4183
 4565SOL    HW217992   3.989   3.716  -0.008 -1.1685  0.6921 -0.0459
 4565SOL    HW317993   4.064   3.697   0.122  1.0653 -1.0581 -1.5126
 4565SOL    MW417994   4.044   3.746   0.053 -0.4513 -0.0696 -0.2001
 4566SOL     OW17995   0.191   0.848   0.874 -0.4101  0.0921  0.5265
 4566SOL    HW217996   0.136   0.907   0.822  0.1526 -0.1139 -0.3230
 4566SOL    HW317997   0.264   0.902   0.903 -0.4106  0.0555  0.5967
 4566SOL    MW417998   0.193   0.863   0.871 -0.7342 -0.5568  0.2098
 4567SOL     OW17999   0.755   5.360   4.355  0.2338 -0.3386 -0.0614
 4567SOL    HW218000   0.696   5.332   4.284 -1.0384 -1.2824  1.3241
 4567SOL    HW318001   0.709   5.434   4.396  0.2931 -0.6817  0.6334
 4567SOL    MW418002   0.741   5.366   4.351  0.5920  0.2387  0.4942
 4568SOL     OW18003   5.453   3.354   4.069 -0.3106 -0.2229 -0.1278
 4568SOL    HW218004   5.485   3.292   4.134 -1.6403  0.3906  1.1457
 4568SOL    HW318005   5.502   3.435   4.087 -3.1667  1.0838  2.5886
 4568SOL    MW418006   5.464   3.356   4.080 -0.7687  0.4558  0.3806
 4569SOL     OW18007   2.494   3.997   5.432 -0.7146 -0.0972  0.2170
 4569SOL    HW218008   2.566   4.050   5.397 -1.0702 -0.7073 -1.5444
 4569SOL    HW318009   2.417   4.054   5.426 -0.7461 -0.1472  0.1387
 4569SOL    MW418010   2.494   4.011   5.426  0.2453 -0.2347  0.6628
 4570SOL     OW18011   5.184   2.550   3.293  0.2109  0.7901  0.5803
 4570SOL    HW218012   5.264   2.599   3.311  0.3119  0.6181  0.6032
 4570SOL    HW318013   5.192   2.525   3.201 -0.4907  2.0170  0.1623
 4570SOL    MW418014   5.196   2.553   3.283  0.0677 -0.6927  0.2267
 4571SOL     OW18015   5.072   5.312   5.269  0.5287  0.0338  0.0201
 4571SOL    HW218016   5.067   5.262   5.351  0.1878  0.0270 -0.0014
 4571SOL    HW318017   5.122   5.390   5.291 -1.0919  0.9275  0.7076
 4571SOL    MW418018   5.078   5.315   5.283 -0.0773  0.3398  0.2719
 4572SOL     OW18019   1.751   1.531   2.399  0.4672 -0.0981  0.0874
 4572SOL    HW218020   1.657   1.547   2.405  0.0606 -1.1373 -2.3154
 4572SOL    HW318021   1.788   1.614   2.367 -0.2416 -0.7561 -2.7057
 4572SOL    MW418022   1.743   1.544   2.396 -0.7539 -0.2787 -0.0368
 4573SOL     OW18023   5.974   6.251   3.421 -0.0192 -0.0490 -0.0797
 4573SOL    HW218024   5.946   6.214   3.504  2.3386 -0.2854  0.6962
 4573SOL    HW318025   5.937   6.339   3.419 -2.1154 -0.8748  0.0458
 4573SOL    MW418026   5.966   6.258   3.431 -0.3084  0.1954 -0.1381
 4574SOL     OW18027   1.386   0.748   0.173  0.0686 -0.1911  0.4327
 4574SOL    HW218028   1.445   0.737   0.098  0.7692  1.0052  0.7625
 4574SOL    HW318029   1.384   0.663   0.215  0.0958 -0.7375 -0.6401
 4574SOL    MW418030   1.394   0.736   0.168  0.0583 -0.0635 -0.0076
 4575SOL     OW18031   1.526   0.027   0.500  0.4951 -0.0948  0.0568
 4575SOL    HW218032   1.463  -0.013   0.559 -0.5621  1.0490 -0.2677
 4575SOL    HW318033   1.551   0.109   0.543 -1.5509  1.5940 -1.7607
 4575SOL    MW418034   1.521   0.032   0.513 -0.6653  0.2816  0.4502
 4576SOL     OW18035   1.172   0.304   0.110 -0.6318  0.1928 -0.0027
 4576SOL    HW218036   1.192   0.397   0.103  0.2701  0.0910  0.9949
 4576SOL    HW318037   1.240   0.261   0.059 -1.6631  0.1002 -1.3709
 4576SOL    MW418038   1.183   0.311   0.102 -1.0636  0.9102 -0.1127
 4577SOL     OW18039   4.254   4.594   4.686  0.2086 -0.2343 -0.4204
 4577SOL    HW218040   4.259   4.578   4.780 -3.5604 -1.8336 -0.2902
 4577SOL    HW318041   4.162   4.619   4.672  0.9437  1.1096 -3.5542
 4577SOL    MW418042   4.242   4.595   4.697 -0.2434  0.1749 -0.5899
 4578SOL     OW18043   2.276   2.855   6.044  0.3715  0.4932 -0.6084
 4578SOL    HW218044   2.211   2.786   6.055 -1.0383  1.8261 -0.2157
 4578SOL    HW318045   2.313   2.867   6.132 -0.2347  1.0395 -0.4260
 4578SOL    MW418046   2.273   2.848   6.057 -0.4599 -0.3535  0.0687
 4579SOL     OW18047   3.763   1.703   2.929  0.3037 -0.2774  0.7374
 4579SOL    HW218048   3.669   1.705   2.947 -0.1513 -3.3653 -0.5195
 4579SOL    HW318049   3.804   1.738   3.008 -1.8869  1.2374  1.2794
 4579SOL    MW418050   3.756   1.708   2.942 -0.0629  0.3571 -0.1306
 4580SOL     OW18051   1.288   4.607   2.864  0.2115  0.1118  0.1067
 4580SOL    HW218052   1.365   4.550   2.864 -0.1012 -0.3114  0.3222
 4580SOL    HW318053   1.312   4.679   2.806  1.4813  0.9238  1.5564
 4580SOL    MW418054   1.302   4.609   2.856 -0.3156 -0.2979 -0.1521
 4581SOL     OW18055   0.470   4.993   2.211 -0.3530 -0.5011 -0.2102
 4581SOL    HW218056   0.418   4.950   2.143 -1.2293  1.2564 -0.6970
 4581SOL    HW318057   0.405   5.031   2.270  0.4015 -1.7111  1.4646
 4581SOL    MW418058   0.454   4.992   2.210  0.7145  0.3406  0.0142
 4582SOL     OW18059   1.247   4.636   4.404  0.2709 -0.3262  0.1122
 4582SOL    HW218060   1.324   4.669   4.357 -2.1774  0.6434 -3.7281
 4582SOL    HW318061   1.239   4.545   4.375 -1.5970  0.4498 -2.1312
 4582SOL    MW418062   1.256   4.628   4.394  0.0643 -0.2166 -0.1339
 4583SOL     OW18063   5.205   0.619   1.521  0.4335 -0.5479 -0.0820
 4583SOL    HW218064   5.157   0.674   1.583 -1.3433 -1.2571 -0.7696
 4583SOL    HW318065   5.271   0.575   1.574  1.4593  1.6905  0.6032
 4583SOL    MW418066   5.207   0.621   1.536  0.4809  0.9544 -0.6141
 4584SOL     OW18067   0.116   1.930   4.419  0.4539 -0.2268 -0.4752
 4584SOL    HW218068   0.072   1.976   4.348 -1.0080 -0.8864 -0.0439
 4584SOL    HW318069   0.083   1.971   4.499  1.7127  0.1895 -0.1419
 4584SOL    MW418070   0.106   1.941   4.420  0.1161  0.4032 -0.0023
 4585SOL     OW18071   0.065   0.225   2.284 -0.1356 -1.0738 -0.0863
 4585SOL    HW218072   0.106   0.261   2.206  2.2633 -0.3896  1.4035
 4585SOL    HW318073  -0.014   0.278   2.297  1.5605  1.5135  0.1617
 4585SOL    MW418074   0.060   0.237   2.276 -0.0427 -0.2307 -0.4347
 4586SOL     OW18075   2.891   3.241   2.054 -0.0188  0.2538 -0.1017
 4586SOL    HW218076   2.818   3.303   2.066  1.9122  2.3111  2.1643
 4586SOL    HW318077   2.869   3.167   2.110 -0.6531  0.5642  0.0687
 4586SOL    MW418078   2.878   3.240   2.063 -0.1008 -0.4166  0.2419
 4587SOL     OW18079   5.976   4.344   0.848  0.0550  0.0896  0.1976
 4587SOL    HW218080   5.944   4.422   0.803  0.0468 -0.3408 -0.5492
 4587SOL    HW318081   5.903   4.315   0.903 -0.8433 -0.8249 -1.4024
 4587SOL    MW418082   5.962   4.351   0.850  0.1561 -0.3635 -0.1320
 4588SOL     OW18083   5.863   0.021   1.953 -0.6405 -0.1898  0.2364
 4588SOL    HW218084   5.769   0.039   1.957 -0.8260 -0.3790 -2.0077
 4588SOL    HW318085   5.869  -0.070   1.926  0.2105 -0.3146  0.8030
 4588SOL    MW418086   5.851   0.011   1.950 -0.3257  0.4824  0.6915
 4589SOL     OW18087   2.380   0.944   5.588  0.5304  0.1995 -0.0925
 4589SOL    HW218088   2.422   0.858   5.584 -0.6044 -0.4099  0.6937
 4589SOL    HW318089   2.414   0.984   5.668  0.2732  0.0720  0.0782
 4589SOL    MW418090   2.390   0.938   5.598 -0.4485 -0.3079  0.0444
 4590SOL     OW18091   5.797   4.739   0.456  0.0678 -0.0152 -0.3099
 4590SOL    HW218092   5.889   4.719   0.474  0.8237  1.9210 -1.7098
 4590SOL    HW318093   5.753   4.729   0.540  1.7122 -0.2125  0.5563
 4590SOL    MW418094   5.803   4.735   0.469  0.8762  0.7730 -1.0603
 4591SOL     OW18095   0.412   0.430   5.093 -0.2324  0.3503 -0.2863
 4591SOL    HW218096   0.441   0.363   5.031  0.1392  0.9296 -0.7492
 4591SOL    HW318097   0.414   0.386   5.178 -0.8838 -0.4955 -0.6868
 4591SOL    MW418098   0.416   0.415   5.096  0.3982  0.5876  0.1127
 4592SOL     OW18099   2.155   1.563   5.296  0.3179 -0.2438 -0.1659
 4592SOL    HW218100   2.107   1.594   5.372  1.0194 -0.4804  0.3909
 4592SOL    HW318101   2.209   1.638   5.269  0.1090 -0.1764 -0.4072
 4592SOL    MW418102   2.156   1.577   5.302  0.1706  0.4214 -0.1594
 4593SOL     OW18103   6.344   0.588   0.907  0.4498 -0.4611  0.3942
 4593SOL    HW218104   6.336   0.651   0.835  2.6046 -0.2436  0.2668
 4593SOL    HW318105   6.270   0.529   0.896  0.0616  0.2764 -1.3022
 4593SOL    MW418106   6.333   0.589   0.896 -0.0659 -0.4108 -0.0100
 4594SOL     OW18107   1.084   2.121   4.178 -0.1066  0.2646 -0.1426
 4594SOL    HW218108   1.017   2.059   4.206  1.7382 -1.8109 -0.0500
 4594SOL    HW318109   1.135   2.073   4.113 -1.0568  3.1336 -3.3038
 4594SOL    MW418110   1.082   2.106   4.173 -0.1231  0.3750  0.0560
 4595SOL     OW18111   2.314   5.922   1.191 -0.0965  0.1105 -0.5030
 4595SOL    HW218112   2.373   5.996   1.207  0.6274 -0.9115  2.1009
 4595SOL    HW318113   2.244   5.933   1.255  0.2297 -1.6140  0.2088
 4595SOL    MW418114   2.312   5.933   1.202  0.2802 -0.0506 -0.5636
 4596SOL     OW18115   5.233   1.447   5.551  0.5017 -0.0793 -0.0900
 4596SOL    HW218116   5.259   1.487   5.634  0.2629 -1.9275  0.9263
 4596SOL    HW318117   5.161   1.500   5.520  0.6663  0.7079  0.8356
 4596SOL    MW418118   5.227   1.459   5.558 -0.1106 -0.3427  0.3851
 4597SOL     OW18119   0.415   3.109   0.950 -0.2577  0.0758 -0.1541
 4597SOL    HW218120   0.509   3.100   0.962 -0.2391  1.0467  0.5441
 4597SOL    HW318121   0.405   3.151   0.864  0.0431  1.5446  0.4989
 4597SOL    MW418122   0.426   3.114   0.940  0.6881 -0.4381  0.9504
 4598SOL     OW18123   5.925   5.358   0.170 -0.1154 -0.6871 -0.1998
 4598SOL    HW218124   5.891   5.448   0.171 -0.6114 -0.8776  0.3410
 4598SOL    HW318125   5.985   5.354   0.244 -0.8790 -1.0928  0.4104
 4598SOL    MW418126   5.928   5.369   0.180  0.4898  0.0113  0.2827
 4599SOL     OW18127   2.664   2.906   0.080 -0.3257 -0.1854  0.2428
 4599SOL    HW218128   2.712   2.887  -0.000 -2.6875 -2.4267 -0.7898
 4599SOL    HW318129   2.631   2.995   0.066 -0.3605 -0.3817 -1.1385
 4599SOL    MW418130   2.666   2.916   0.067  0.1609  0.5076  0.3707
 4600SOL     OW18131   3.432   1.825   3.586  0.5742  0.0887  0.0421
 4600SOL    HW218132   3.401   1.914   3.566 -0.6964 -0.1330  0.8709
 4600SOL    HW318133   3.444   1.826   3.681 -2.3508 -1.4255  0.5457
 4600SOL    MW418134   3.429   1.837   3.596  0.4338  0.0142  0.6157
 4601SOL     OW18135   0.145   4.520   1.735  0.2696  0.3940 -0.1366
 4601SOL    HW218136   0.146   4.440   1.682 -1.7504 -0.1068  0.4981
 4601SOL    HW318137   0.197   4.498   1.812 -1.3303 -0.8154  0.6519
 4601SOL    MW418138   0.152   4.507   1.738 -0.1040  0.2393 -0.1263
 4602SOL     OW18139   1.691   5.520   5.926  0.2296  0.2313 -0.1944
 4602SOL    HW218140   1.772   5.487   5.886  0.6651  0.4392  0.5045
 4602SOL    HW318141   1.712   5.609   5.954 -0.3767  0.4456 -0.3966
 4602SOL    MW418142   1.704   5.527   5.924 -0.1332  0.3213 -0.8822
 4603SOL     OW18143   5.162   3.275   3.018  0.0972 -0.1222 -0.1811
 4603SOL    HW218144   5.193   3.220   2.946 -0.0884 -0.4744  0.0073
 4603SOL    HW318145   5.235   3.277   3.080  0.8180  1.3508 -1.0170
 4603SOL    MW418146   5.176   3.268   3.017 -0.1243  0.4101 -0.7573
 4604SOL     OW18147   1.588   2.800   3.603  0.2138 -0.0003 -0.2723
 4604SOL    HW218148   1.562   2.884   3.639 -0.9990  0.1787 -1.4547
 4604SOL    HW318149   1.541   2.735   3.656 -1.6398  0.2644 -1.4722
 4604SOL    MW418150   1.578   2.802   3.614 -0.0663  0.2246 -0.6456
 4605SOL     OW18151   0.981   3.121   3.215 -0.0497 -0.0741 -0.2362
 4605SOL    HW218152   0.916   3.053   3.236  1.3229 -1.5195 -0.4639
 4605SOL    HW318153   1.063   3.087   3.251  0.6240  1.6714 -0.0339
 4605SOL    MW418154   0.983   3.108   3.223  0.1091 -0.0858  0.1433
 4606SOL     OW18155   0.195   5.194   5.023  0.5142 -0.1420 -0.3388
 4606SOL    HW218156   0.135   5.125   4.994 -1.1624  1.2981 -0.4417
 4606SOL    HW318157   0.207   5.249   4.945 -0.0073  0.9562  0.3472
 4606SOL    MW418158   0.189   5.192   5.009  0.4433 -0.2769 -0.2380
 4607SOL     OW18159   2.466   3.235   2.449 -0.2742 -0.4924 -0.3092
 4607SOL    HW218160   2.470   3.324   2.483  0.9324 -0.2980 -0.9053
 4607SOL    HW318161   2.449   3.181   2.526  1.5071  0.0202  0.5101
 4607SOL    MW418162   2.465   3.240   2.463  0.5898 -0.6964  0.5396
 4608SOL     OW18163   6.040   4.454   6.018  0.1506  0.1058  0.5251
 4608SOL    HW218164   5.963   4.505   5.994 -0.5032 -1.4407 -0.8790
 4608SOL    HW318165   6.114   4.514   6.009 -0.9114  1.9157  2.8741
 4608SOL    MW418166   6.040   4.468   6.014 -0.0752 -0.1001  0.5829
 4609SOL     OW18167   5.594   2.325   2.176  0.5333  0.1300  1.2346
 4609SOL    HW218168   5.657   2.376   2.227  1.4824 -0.3807  0.6032
 4609SOL    HW318169   5.511   2.340   2.220  0.5737  2.9194  0.6069
 4609SOL    MW418170   5.592   2.334   2.188  1.0612  0.4237 -0.6464
 4610SOL     OW18171   2.359   0.472   4.360 -0.0858  0.1205 -0.0803
 4610SOL    HW218172   2.290   0.533   4.389 -0.4264 -0.0748 -0.4659
 4610SOL    HW318173   2.393   0.435   4.441  1.0533  1.7983  0.2690
 4610SOL    MW418174   2.354   0.475   4.374  0.2378  0.4121 -0.4073
 4611SOL     OW18175   4.360   0.147   4.518  0.0658 -0.0871 -0.1817
 4611SOL    HW218176   4.303   0.195   4.578  0.0698 -1.0840  0.6347
 4611SOL    HW318177   4.442   0.137   4.566  0.1205 -0.7642 -0.4126
 4611SOL    MW418178   4.363   0.152   4.532 -0.0018  0.7425 -0.3424
 4612SOL     OW18179   2.216   4.380   1.121 -0.4234  0.2051  0.0660
 4612SOL    HW218180   2.173   4.393   1.037  1.7286 -2.2955 -1.5846
 4612SOL    HW318181   2.158   4.322   1.169 -1.0938  0.6595 -0.1883
 4612SOL    MW418182   2.203   4.374   1.116 -0.1614 -0.4600 -0.4532
 4613SOL     OW18183   3.394   4.185   3.839 -0.0441 -0.2211 -0.2140
 4613SOL    HW218184   3.328   4.140   3.891 -0.0199  1.8709  1.7826
 4613SOL    HW318185   3.358   4.188   3.750 -1.8852 -0.5609  0.4906
 4613SOL    MW418186   3.381   4.180   3.834  0.1879 -0.1301 -0.2475
 4614SOL     OW18187   5.045   4.170   5.374 -0.3352  0.2189  0.4597
 4614SOL    HW218188   4.954   4.190   5.351 -0.7592 -1.2144  0.8252
 4614SOL    HW318189   5.078   4.252   5.410 -0.5918  1.6362 -2.2858
 4614SOL    MW418190   5.037   4.184   5.376  0.6203 -0.2863 -0.4309
 4615SOL     OW18191   3.773   3.181   1.183  0.0964 -0.1926 -0.2222
 4615SOL    HW218192   3.716   3.107   1.164 -0.2326  0.5658 -2.4299
 4615SOL    HW318193   3.721   3.259   1.162  0.6449  0.6836  1.4470
 4615SOL    MW418194   3.759   3.182   1.178  0.2947 -0.8137 -0.3763
 4616SOL     OW18195   5.208   0.290   0.669 -0.2432  0.1395  0.6782
 4616SOL    HW218196   5.224   0.384   0.657  0.0652 -0.1235 -1.5198
 4616SOL    HW318197   5.267   0.248   0.606 -0.8549 -1.4954  1.1501
 4616SOL    MW418198   5.218   0.297   0.659  0.0754 -0.6525 -0.1346
 4617SOL     OW18199   3.094   6.129   6.399 -0.6723 -0.0810 -0.3701
 4617SOL    HW218200   3.046   6.131   6.316  0.3346  0.7901 -0.9448
 4617SOL    HW318201   3.068   6.210   6.444 -1.1060 -0.4810  0.1182
 4617SOL    MW418202   3.084   6.140   6.394  0.7417 -0.1068  0.6348
 4618SOL     OW18203   3.173   1.524   0.089  0.5537  0.1412  0.0472
 4618SOL    HW218204   3.118   1.593   0.053 -1.1799 -1.0372  0.2885
 4618SOL    HW318205   3.262   1.553   0.072 -0.0621  2.7717  0.8099
 4618SOL    MW418206   3.177   1.537   0.082  0.7882 -0.6096 -0.7852
 4619SOL     OW18207   2.119   1.057   2.310  0.3219 -0.0752  0.2237
 4619SOL    HW218208   2.070   1.033   2.389  0.7653  1.1689  0.8944
 4619SOL    HW318209   2.193   0.996   2.309 -0.9480 -1.7127 -0.5852
 4619SOL    MW418210   2.122   1.046   2.320  0.0272 -0.1511 -0.2418
 4620SOL     OW18211   4.070   3.953   5.517 -0.1676  0.5383  0.4037
 4620SOL    HW218212   4.162   3.972   5.501 -0.0742 -0.0120  0.2948
 4620SOL    HW318213   4.023   3.997   5.446 -0.0728  1.6799  1.0232
 4620SOL    MW418214   4.076   3.961   5.506  0.2379  0.5398  0.1293
 4621SOL     OW18215   2.293   0.213   6.174  0.2678 -0.0531 -0.0458
 4621SOL    HW218216   2.267   0.247   6.088  0.7315  1.7837  0.5060
 4621SOL    HW318217   2.355   0.143   6.154 -0.1224 -0.0891 -1.2086
 4621SOL    MW418218   2.297   0.208   6.160 -0.0650  0.2896  0.6665
 4622SOL     OW18219   4.932   3.851   5.817  0.0834  0.6851  0.4907
 4622SOL    HW218220   4.959   3.887   5.733  0.1113  0.4718  0.4065
 4622SOL    HW318221   4.838   3.868   5.821 -0.2162 -0.6659 -0.2814
 4622SOL    MW418222   4.923   3.858   5.806  0.5692  0.1454  0.4353
 4623SOL     OW18223   4.048   2.700   2.834  0.1017 -0.7541 -0.0008
 4623SOL    HW218224   4.047   2.634   2.764  1.0960 -0.4576 -0.3013
 4623SOL    HW318225   4.122   2.756   2.813 -0.9687  0.7144  0.0299
 4623SOL    MW418226   4.057   2.698   2.822 -0.0454  0.1811 -0.1237
 4624SOL     OW18227   1.558   1.377   5.245 -0.8578 -0.4632  0.2931
 4624SOL    HW218228   1.522   1.329   5.170 -0.0026  1.3830 -1.4179
 4624SOL    HW318229   1.645   1.403   5.216 -0.1193 -0.4923  2.3476
 4624SOL    MW418230   1.565   1.374   5.231 -0.4036  0.2022 -0.3253
 4625SOL     OW18231   5.153   4.686   1.156  0.5536  0.3675 -0.3293
 4625SOL    HW218232   5.068   4.717   1.124 -0.2157 -0.1094  1.1450
 4625SOL    HW318233   5.207   4.765   1.158  0.3558  0.5740 -1.8435
 4625SOL    MW418234   5.149   4.701   1.152  0.2840 -0.5487 -0.4596
 4626SOL     OW18235   5.326   1.390   1.152  0.0287  0.4581  0.1330
 4626SOL    HW218236   5.366   1.476   1.167  0.2930  0.4512 -0.4980
 4626SOL    HW318237   5.399   1.336   1.121 -0.3165  0.2453 -0.3123
 4626SOL    MW418238   5.341   1.395   1.150  1.4569 -0.4649  0.1765
 4627SOL     OW18239   1.120   3.820   4.330 -0.5573 -0.1220 -0.4070
 4627SOL    HW218240   1.071   3.899   4.305  1.0174  1.1548  0.3514
 4627SOL    HW318241   1.075   3.788   4.408 -0.5959  0.6245 -0.1140
 4627SOL    MW418242   1.107   3.827   4.337 -0.4526 -0.6630  0.2294
 4628SOL     OW18243   1.848   4.808   0.536 -0.2946 -0.1055 -0.2507
 4628SOL    HW218244   1.791   4.758   0.477  0.2964 -2.2306  0.9007
 4628SOL    HW318245   1.915   4.746   0.563 -0.2150  0.9574  2.2050
 4628SOL    MW418246   1.849   4.793   0.532 -0.0083 -0.3490 -0.7210
 4629SOL     OW18247   0.451   4.846   0.740 -0.2246 -0.0801  0.4244
 4629SOL    HW218248   0.406   4.779   0.792  2.7291 -0.8767  2.2281
 4629SOL    HW318249   0.482   4.909   0.805  2.3381 -0.3163 -0.4494
 4629SOL    MW418250   0.449   4.845   0.756 -0.1618  0.3324  0.2177
 4630SOL     OW18251   2.403   5.763   2.493  0.1443 -0.3169 -0.3406
 4630SOL    HW218252   2.384   5.839   2.437  1.8222  1.1501  0.9825
 4630SOL    HW318253   2.361   5.784   2.576 -0.0592 -1.2492 -0.1970
 4630SOL    MW418254   2.395   5.776   2.496  0.0304  0.1687 -0.1735
 4631SOL     OW18255   2.958   4.795   4.608 -0.9349  0.3618 -0.3888
 4631SOL    HW218256   3.024   4.826   4.547  1.4158  0.7343  2.1553
 4631SOL    HW318257   2.952   4.701   4.592  1.8324 -0.0758  0.6337
 4631SOL    MW418258   2.966   4.787   4.598  0.0580  0.5793  0.7187
 4632SOL     OW18259   5.179   4.045   5.166 -0.1669 -0.2453  0.0158
 4632SOL    HW218260   5.129   4.080   5.240 -0.2607  2.3576 -1.1725
 4632SOL    HW318261   5.267   4.081   5.176 -0.3214  0.6148 -1.3854
 4632SOL    MW418262   5.184   4.054   5.177 -0.6177  0.2173  0.4155
 4633SOL     OW18263   0.672   3.989   4.848 -0.5573  0.3150 -0.5491
 4633SOL    HW218264   0.752   3.956   4.888 -1.0006 -2.2186 -1.5575
 4633SOL    HW318265   0.681   4.084   4.850  1.5325  0.1505  1.1774
 4633SOL    MW418266   0.684   3.997   4.854 -0.4514 -0.3310 -0.2849
 4634SOL     OW18267   2.464   3.266   4.849  0.4850  0.2479  0.3834
 4634SOL    HW218268   2.545   3.243   4.895 -0.0754 -1.7420  0.4537
 4634SOL    HW318269   2.480   3.354   4.815  2.3551  0.2307  1.1191
 4634SOL    MW418270   2.477   3.275   4.850 -0.3145 -0.3801 -0.6529
 4635SOL     OW18271   6.384   5.052   0.552  0.3766 -0.3275 -0.0898
 4635SOL    HW218272   6.401   5.098   0.470  0.1330 -0.4760 -0.2245
 4635SOL    HW318273   6.471   5.038   0.589  0.6354 -1.6258 -1.0769
 4635SOL    MW418274   6.398   5.056   0.546  0.4606 -0.3387 -0.3590
 4636SOL     OW18275   0.164   3.288   2.097  0.4322  0.5930  0.4887
 4636SOL    HW218276   0.235   3.287   2.161  0.1753  0.4175  0.7740
 4636SOL    HW318277   0.174   3.206   2.049 -0.1723  0.0898  1.1961
 4636SOL    MW418278   0.175   3.277   2.099  0.0614  0.1055 -0.3012
 4637SOL     OW18279   2.472   4.946   5.953 -0.1187  0.0918  0.0269
 4637SOL    HW218280   2.407   4.988   5.896 -1.9305 -0.2489  1.7643
 4637SOL    HW318281   2.422   4.915   6.028  1.7192 -2.0972  0.4586
 4637SOL    MW418282   2.457   4.947   5.955 -0.0989  0.4102  0.0214
 4638SOL     OW18283   1.658   5.046   5.249  0.5715 -0.1813  0.3686
 4638SOL    HW218284   1.751   5.043   5.224  0.4066 -0.0092 -0.3032
 4638SOL    HW318285   1.618   4.974   5.200  0.5862 -1.1788  1.7674
 4638SOL    MW418286   1.665   5.036   5.239 -0.3153 -0.6615  0.3666
 4639SOL     OW18287   2.927   6.151   1.462 -0.2248  0.2437 -0.3007
 4639SOL    HW218288   3.014   6.188   1.449  0.4471 -0.2433  2.2252
 4639SOL    HW318289   2.934   6.062   1.427  0.1875  0.3059 -0.3825
 4639SOL    MW418290   2.939   6.144   1.455 -0.0383  0.5642  0.4942
 4640SOL     OW18291   5.426   3.762   2.587  0.2781  0.2892  0.1251
 4640SOL    HW218292   5.454   3.814   2.662 -0.8634  0.6869  0.2961
 4640SOL    HW318293   5.506   3.717   2.558  0.5141 -0.8564  2.3180
 4640SOL    MW418294   5.441   3.763   2.593 -0.4130 -0.5711  0.3001
 4641SOL     OW18295   4.377   4.016   6.102 -0.3533  0.1439  0.0636
 4641SOL    HW218296   4.290   4.043   6.074 -1.1568 -2.1187  0.2135
 4641SOL    HW318297   4.362   3.950   6.170  1.5090  1.2539  1.6716
 4641SOL    MW418298   4.364   4.011   6.108  0.0945  0.0642 -0.1841
 4642SOL     OW18299   2.527   3.892   0.520  0.5121  1.0651 -0.5424
 4642SOL    HW218300   2.581   3.924   0.592  1.2866  0.2101 -0.7113
 4642SOL    HW318301   2.440   3.880   0.558  0.9700  0.3729  0.3443
 4642SOL    MW418302   2.523   3.895   0.534 -0.1061 -0.0517  0.3076
 4643SOL     OW18303   0.638   4.005   3.774 -0.0602 -0.2794  0.1931
 4643SOL    HW218304   0.637   3.916   3.808 -0.6435  0.3297  1.8543
 4643SOL    HW318305   0.725   4.015   3.736  0.0233 -1.5330  0.0275
 4643SOL    MW418306   0.650   3.995   3.773 -0.0142 -0.0012  0.0539
 4644SOL     OW18307   1.091   4.668   4.833  0.3541  0.1717 -0.5673
 4644SOL    HW218308   1.168   4.688   4.780  0.4555  0.6084 -0.2635
 4644SOL    HW318309   1.023   4.726   4.798  0.1779 -0.1659 -0.7916
 4644SOL    MW418310   1.092   4.678   4.821 -0.7361  0.4347 -0.8549
 4645SOL     OW18311   2.105   3.123   1.416 -0.1216  0.4457  0.3446
 4645SOL    HW218312   2.164   3.187   1.377  0.8525 -0.4819  0.2524
 4645SOL    HW318313   2.129   3.040   1.375 -2.3059  0.2083 -0.5970
 4645SOL    MW418314   2.116   3.120   1.406  0.5212 -0.6580  0.4940
 4646SOL     OW18315   4.754   5.231   4.802 -0.2610  0.2204 -0.3524
 4646SOL    HW218316   4.755   5.260   4.711 -0.7072 -0.2918 -0.5238
 4646SOL    HW318317   4.823   5.164   4.807  0.5881  1.0948 -0.0190
 4646SOL    MW418318   4.763   5.226   4.791 -0.5748  0.1054 -0.1907
 4647SOL     OW18319   2.637   2.575   1.370 -0.2288  0.3364  0.0490
 4647SOL    HW218320   2.658   2.607   1.282 -0.9761 -0.0124 -0.2657
 4647SOL    HW318321   2.570   2.636   1.402 -0.9941 -0.3571 -0.1960
 4647SOL    MW418322   2.631   2.587   1.363 -0.5898  0.3066  0.3765
 4648SOL     OW18323   1.281   3.069   6.270 -0.2985 -0.2932  0.1646
 4648SOL    HW218324   1.237   3.008   6.330  0.1660  0.6111  1.4838
 4648SOL    HW318325   1.305   3.016   6.195  1.6884 -2.1972  2.0024
 4648SOL    MW418326   1.278   3.054   6.268 -0.2160  0.2068 -0.4445
 4649SOL     OW18327   2.013   3.424   1.886 -0.2848 -0.1678  0.9852
 4649SOL    HW218328   1.924   3.454   1.901 -0.4841 -0.1035 -0.2404
 4649SOL    HW318329   2.052   3.493   1.831  0.7722  0.1990  2.1469
 4649SOL    MW418330   2.007   3.437   1.881 -0.2601  0.2278 -0.6741
 4650SOL     OW18331   5.252   2.433   3.016 -0.1262 -0.4159 -0.6988
 4650SOL    HW218332   5.325   2.493   3.030 -0.4918 -0.3216  1.1010
 4650SOL    HW318333   5.191   2.483   2.960 -0.2145  0.7435  0.3833
 4650SOL    MW418334   5.253   2.448   3.010 -0.0854  0.1477 -0.2208
 4651SOL     OW18335   0.599   1.478   3.678  0.2369  0.5357 -0.4363
 4651SOL    HW218336   0.541   1.407   3.650 -1.0966  1.6073 -0.5208
 4651SOL    HW318337   0.635   1.513   3.597 -0.1643  0.7981 -0.5082
 4651SOL    MW418338   0.596   1.473   3.664  0.3134  0.1815 -0.2141
 4652SOL     OW18339   5.787   0.776   4.932  0.6833  0.3019  0.6878
 4652SOL    HW218340   5.826   0.690   4.914 -0.2544 -0.0880  0.4572
 4652SOL    HW318341   5.827   0.803   5.015  0.9880 -0.3597  0.7644
 4652SOL    MW418342   5.798   0.768   4.941  0.4690 -0.2972  0.7550
 4653SOL     OW18343   5.968   1.066   3.320  0.1742 -0.1685  0.1231
 4653SOL    HW218344   5.950   0.973   3.330 -0.2630 -0.0968  0.0635
 4653SOL    HW318345   6.057   1.071   3.286 -0.9055 -0.7455 -3.1395
 4653SOL    MW418346   5.977   1.055   3.317 -0.4723  0.0180 -0.6908
 4654SOL     OW18347   0.810   0.367   0.101  0.6540  0.3855  0.1055
 4654SOL    HW218348   0.846   0.285   0.136  0.6202  0.9056  1.4405
 4654SOL    HW318349   0.735   0.340   0.048  1.4603 -0.5342 -0.6015
 4654SOL    MW418350   0.805   0.352   0.099 -0.4306  0.6304  0.2004
 4655SOL     OW18351   3.818   4.434   5.482 -0.3903  0.1219 -0.7268
 4655SOL    HW218352   3.762   4.451   5.406  0.7620  0.0649 -1.6086
 4655SOL    HW318353   3.763   4.381   5.540 -1.8315  1.4682 -0.7948
 4655SOL    MW418354   3.803   4.429   5.480 -0.1479  0.1611  0.7828
 4656SOL     OW18355   2.295   3.779   1.760  0.3473 -0.5109 -0.5379
 4656SOL    HW218356   2.361   3.731   1.809  1.3240  0.2840 -1.0261
 4656SOL    HW318357   2.231   3.805   1.825  0.1503 -1.8783 -0.1675
 4656SOL    MW418358   2.296   3.776   1.775  0.5833  0.2945 -0.0170
 4657SOL     OW18359   2.179   2.794   3.124 -0.3754 -0.0528 -0.1347
 4657SOL    HW218360   2.269   2.763   3.125 -0.1638  0.4914  1.6825
 4657SOL    HW318361   2.180   2.871   3.067  0.7868  1.1331  1.4022
 4657SOL    MW418362   2.191   2.800   3.117 -0.6359  0.3800 -0.0738
 4658SOL     OW18363   3.663   1.774   3.402  0.1534 -0.2383 -0.3366
 4658SOL    HW218364   3.599   1.792   3.471  0.0921  0.6692 -0.6180
 4658SOL    HW318365   3.642   1.836   3.333  0.6449 -0.6823 -0.8962
 4658SOL    MW418366   3.652   1.785   3.402 -0.8339 -0.3450  0.4915
 4659SOL     OW18367   1.791   5.371   2.622  0.1645  0.2697  1.0186
 4659SOL    HW218368   1.820   5.391   2.533 -1.3091 -1.1725  0.1597
 4659SOL    HW318369   1.728   5.440   2.643 -0.7609 -0.3193  0.2488
 4659SOL    MW418370   1.787   5.383   2.613 -0.0992 -0.1794 -0.1292
 4660SOL     OW18371   4.766   1.778   1.809 -0.6622  0.1365  0.1936
 4660SOL    HW218372   4.793   1.741   1.725 -0.4086  0.1169  0.2817
 4660SOL    HW318373   4.721   1.859   1.786  1.5077  1.4133  0.1163
 4660SOL    MW418374   4.764   1.784   1.795  0.4577 -0.7970  0.7762
 4661SOL     OW18375   3.111   0.936   2.428 -0.1970 -0.3477 -0.1412
 4661SOL    HW218376   3.109   0.877   2.503  1.9280  0.7682  0.8748
 4661SOL    HW318377   3.204   0.947   2.408 -0.5363  1.9920 -0.7955
 4661SOL    MW418378   3.123   0.930   2.435  0.7543  0.5050 -0.0352
 4662SOL     OW18379   0.894   0.299   1.428  0.0913 -0.0121 -0.5204
 4662SOL    HW218380   0.959   0.325   1.493 -0.5941  0.8801 -0.1632
 4662SOL    HW318381   0.810   0.325   1.467 -0.2954  0.9992 -1.9635
 4662SOL    MW418382   0.892   0.306   1.442  0.6644 -0.1389  0.6117
 4663SOL     OW18383   3.935   3.387   1.536 -0.3732  0.0208  0.2932
 4663SOL    HW218384   3.901   3.431   1.458  0.1731  0.8300  0.4946
 4663SOL    HW318385   3.935   3.294   1.514  1.7580  0.3583 -1.5088
 4663SOL    MW418386   3.930   3.381   1.523 -0.4016  0.0000  0.0564
 4664SOL     OW18387   4.589   5.580   3.413 -0.0313 -0.1356 -0.1965
 4664SOL    HW218388   4.558   5.668   3.394 -2.5020 -0.2842  2.4838
 4664SOL    HW318389   4.515   5.523   3.392  1.1094 -1.4571 -0.7821
 4664SOL    MW418390   4.575   5.584   3.408 -0.2902 -0.4018  0.1254
 4665SOL     OW18391   2.638   3.470   5.707 -0.5233  0.6699 -0.8214
 4665SOL    HW218392   2.576   3.495   5.638 -0.3778 -1.8494 -1.9855
 4665SOL    HW318393   2.722   3.503   5.675 -0.7358  1.1422 -0.9087
 4665SOL    MW418394   2.641   3.477   5.693  0.2402  0.0520  0.1335
 4666SOL     OW18395   1.904   0.378   2.993 -0.7764  0.7222  0.2397
 4666SOL    HW218396   1.845   0.382   2.918 -0.2621  0.0396 -0.2212
 4666SOL    HW318397   1.945   0.464   2.995 -1.4716  1.0596  0.3083
 4666SOL    MW418398   1.902   0.389   2.983 -0.1953 -0.3310  0.6191
 4667SOL     OW18399   4.539   0.451   6.227 -0.1206 -0.5446  0.2661
 4667SOL    HW218400   4.463   0.458   6.169  0.3549 -2.6126 -0.7115
 4667SOL    HW318401   4.520   0.376   6.283  1.1919 -1.1481 -0.0442
 4667SOL    MW418402   4.527   0.442   6.226 -0.1495  0.4324  0.7132
 4668SOL     OW18403   2.353   5.156   2.949  0.3324 -0.3167 -0.2327
 4668SOL    HW218404   2.387   5.199   3.028  0.2318 -0.5152 -0.0803
 4668SOL    HW318405   2.428   5.150   2.890 -0.0376  1.8202 -1.0457
 4668SOL    MW418406   2.367   5.161   2.952  0.3960 -0.4347  0.6568
 4669SOL     OW18407   3.431   1.681   2.981  0.5842 -0.3249  0.2167
 4669SOL    HW218408   3.380   1.756   2.951  0.5670 -0.1052  0.7711
 4669SOL    HW318409   3.457   1.635   2.901 -0.8712 -0.6992 -0.0541
 4669SOL    MW418410   3.428   1.685   2.967 -0.1241 -0.2031  0.6678
 4670SOL     OW18411   2.726   4.588   3.433  0.1037  0.0560 -0.0327
 4670SOL    HW218412   2.690   4.521   3.374 -0.0885  0.1120  0.0188
 4670SOL    HW318413   2.652   4.648   3.447  0.1567  0.0524  0.2509
 4670SOL    MW418414   2.711   4.587   3.427 -0.1979  0.6119  0.1084
 4671SOL     OW18415   2.053   5.702   1.689 -0.1744  0.8018  0.1073
 4671SOL    HW218416   2.029   5.623   1.641  1.0737 -0.7986  1.9759
 4671SOL    HW318417   2.117   5.746   1.634 -1.0237  0.6403 -1.0401
 4671SOL    MW418418   2.058   5.698   1.675  0.1174 -0.5864 -1.0547
 4672SOL     OW18419   0.510   2.377   3.463 -0.0239  0.3939  0.4898
 4672SOL    HW218420   0.554   2.350   3.382  0.8994 -1.7974  1.6247
 4672SOL    HW318421   0.426   2.413   3.434  0.4553  0.0877 -1.4572
 4672SOL    MW418422   0.505   2.378   3.448 -0.0255 -0.5201 -0.1882
 4673SOL     OW18423   4.686   0.086   4.116 -0.3329  0.1702  0.4273
 4673SOL    HW218424   4.684   0.049   4.028 -1.8835  1.6181 -0.2071
 4673SOL    HW318425   4.643   0.021   4.171 -0.2032 -0.3385 -0.0689
 4673SOL    MW418426   4.680   0.073   4.112 -0.6370 -0.4196 -0.0934
 4674SOL     OW18427   3.795   3.698   5.400  0.4620  0.1504  0.0058
 4674SOL    HW218428   3.810   3.617   5.351  1.5953 -0.1325  0.7691
 4674SOL    HW318429   3.877   3.713   5.447 -0.2362  0.9571  1.0125
 4674SOL    MW418430   3.808   3.689   5.400 -0.8674  0.1406  0.0533
 4675SOL     OW18431   6.233   5.771   5.742  1.0461  0.7517  0.1811
 4675SOL    HW218432   6.277   5.722   5.673 -0.5202  1.0653 -1.1012
 4675SOL    HW318433   6.256   5.862   5.726  1.1494  0.7739  0.4440
 4675SOL    MW418434   6.242   5.776   5.731  0.0940  0.2732  0.0118
 4676SOL     OW18435   1.875   4.308   2.585 -0.1428 -0.0500  0.0377
 4676SOL    HW218436   1.830   4.357   2.654  0.6552  0.4423  0.2179
 4676SOL    HW318437   1.967   4.329   2.597  0.2018 -1.4426 -0.0048
 4676SOL    MW418438   1.881   4.317   2.596 -0.4460  0.3141 -0.3064
 4677SOL     OW18439   5.074   3.982   3.865 -0.6479 -0.5182  0.4224
 4677SOL    HW218440   4.980   3.982   3.882 -0.7464  0.4765 -0.0295
 4677SOL    HW318441   5.113   3.961   3.950 -1.2420  1.0711  1.1387
 4677SOL    MW418442   5.067   3.980   3.879  0.8307 -0.7538 -0.1215
 4678SOL     OW18443   3.167   5.762   4.423  0.8161  0.0362  0.2756
 4678SOL    HW218444   3.122   5.843   4.398  1.8030  0.0846 -1.5401
 4678SOL    HW318445   3.097   5.697   4.429  0.1753  0.7074  0.3078
 4678SOL    MW418446   3.152   5.764   4.420  0.5318 -0.3688 -0.2754
 4679SOL     OW18447   3.778   1.988   3.493 -0.5246 -0.7995  0.2118
 4679SOL    HW218448   3.853   1.951   3.541 -0.9256 -1.9061  0.0153
 4679SOL    HW318449   3.734   1.912   3.456 -0.3966  0.0024 -1.6781
 4679SOL    MW418450   3.782   1.973   3.494  0.0142 -0.5644 -0.1595
 4680SOL     OW18451   2.211   5.017   6.382  0.4135 -0.1414 -0.0507
 4680SOL    HW218452   2.198   4.937   6.331 -0.3857 -0.5143  0.7077
 4680SOL    HW318453   2.155   5.082   6.339  0.0152 -0.3583  0.1334
 4680SOL    MW418454   2.202   5.015   6.369  0.1192  0.0102  0.2478
 4681SOL     OW18455   0.430   0.529   6.228  0.2754  0.6820  0.5393
 4681SOL    HW218456   0.470   0.446   6.255 -0.3591  0.7015  1.6135
 4681SOL    HW318457   0.414   0.519   6.134 -0.5686 -0.7660  0.8096
 4681SOL    MW418458   0.433   0.517   6.219 -0.0984 -0.3007 -0.3443
 4682SOL     OW18459   3.112   3.888   5.281  0.7888 -0.2431  0.1103
 4682SOL    HW218460   3.103   3.793   5.268  0.3410 -0.1565 -0.2261
 4682SOL    HW318461   3.206   3.904   5.275  0.8948 -0.7154  0.5033
 4682SOL    MW418462   3.123   3.877   5.278  0.2090 -0.0666  0.3342
 4683SOL     OW18463   3.835   2.323   1.444  0.0661  0.9594 -0.3973
 4683SOL    HW218464   3.835   2.253   1.510  0.1639  2.2269  1.0113
 4683SOL    HW318465   3.928   2.341   1.429  0.0790 -0.0630 -1.7547
 4683SOL    MW418466   3.847   2.316   1.451  0.6056  0.3636 -0.5316
 4684SOL     OW18467   0.489   2.083   3.899  0.4255 -0.4263 -0.4065
 4684SOL    HW218468   0.467   2.142   3.971  1.5537 -0.4461 -0.0366
 4684SOL    HW318469   0.421   2.100   3.833  2.0764  3.1979 -1.4282
 4684SOL    MW418470   0.477   2.093   3.900  0.1808 -0.1370 -0.3708
 4685SOL     OW18471   1.394   4.393   1.900 -0.2138  0.3636 -0.0591
 4685SOL    HW218472   1.326   4.328   1.888 -0.7413  0.3531  2.4803
 4685SOL    HW318473   1.473   4.343   1.918  0.3359  0.3984 -2.1357
 4685SOL    MW418474   1.395   4.378   1.900  0.1048 -0.1185 -0.0693
 4686SOL     OW18475   5.330   4.520   4.160 -0.2803 -0.0108 -0.1587
 4686SOL    HW218476   5.418   4.533   4.195 -0.4186  1.4014 -0.2757
 4686SOL    HW318477   5.274   4.510   4.237 -0.0561 -0.7064 -0.0799
 4686SOL    MW418478   5.334   4.521   4.174  0.3481  0.2727 -0.4037
 4687SOL     OW18479   4.629   6.109   3.373 -0.7396 -0.4324  0.0006
 4687SOL    HW218480   4.621   6.193   3.328 -1.2538 -0.6467 -0.3214
 4687SOL    HW318481   4.710   6.116   3.424 -0.0419 -0.2566 -1.1077
 4687SOL    MW418482   4.638   6.121   3.374 -0.1398 -0.4604  0.0789
 4688SOL     OW18483   2.321   0.697   5.080 -0.7093 -0.1088  0.2181
 4688SOL    HW218484   2.266   0.766   5.043  1.5809  1.8668  0.2001
 4688SOL    HW318485   2.333   0.635   5.008 -2.4037 -0.3005  0.0645
 4688SOL    MW418486   2.316   0.698   5.066  0.0828 -0.1341  0.5336
 4689SOL     OW18487   5.137   0.334   1.444  0.4463  0.1891  0.5767
 4689SOL    HW218488   5.162   0.424   1.466 -2.0227  1.3295 -0.8473
 4689SOL    HW318489   5.179   0.317   1.360  0.8072  0.0478  0.7833
 4689SOL    MW418490   5.146   0.344   1.436  0.1364  0.3477 -0.0785
 4690SOL     OW18491   3.168   1.860   2.284  0.1614 -0.1857 -0.2568
 4690SOL    HW218492   3.132   1.828   2.202  1.6531 -1.7599 -0.3547
 4690SOL    HW318493   3.155   1.788   2.346 -0.2081  0.6676  0.6816
 4690SOL    MW418494   3.162   1.846   2.282  0.3155  0.4224  0.6391
 4691SOL     OW18495   1.246   5.090   0.313 -0.1640  0.6264  0.1702
 4691SOL    HW218496   1.234   5.180   0.342  0.0609  0.6328  0.2418
 4691SOL    HW318497   1.162   5.047   0.333 -0.7695  1.1530 -1.1305
 4691SOL    MW418498   1.233   5.096   0.320  0.0121 -0.2466  0.0907
 4692SOL     OW18499   3.733   2.697   2.561 -0.3767  0.7757 -0.2058
 4692SOL    HW218500   3.719   2.721   2.652  1.1423 -0.5069  0.4062
 4692SOL    HW318501   3.813   2.743   2.535  1.6969 -2.1012  0.5232
 4692SOL    MW418502   3.742   2.706   2.570  0.3327  0.0214 -0.1606
 4693SOL     OW18503   4.850   4.532   6.118 -0.4978  0.2415 -0.0991
 4693SOL    HW218504   4.919   4.593   6.142 -0.1052  0.6416 -2.0638
 4693SOL    HW318505   4.768   4.576   6.143 -0.1115  0.2460  1.2167
 4693SOL    MW418506   4.848   4.546   6.125 -0.2871 -0.3414 -0.4986
 4694SOL     OW18507   2.222   5.322   6.013  0.2931 -0.2469 -0.5464
 4694SOL    HW218508   2.238   5.249   5.953  0.8576 -0.5071 -0.0865
 4694SOL    HW318509   2.192   5.393   5.956 -1.7372 -1.2686 -0.8390
 4694SOL    MW418510   2.220   5.322   5.997 -0.8356 -0.0345 -0.0742
 4695SOL     OW18511   3.520   2.565   0.874  0.0737  0.5423 -0.3198
 4695SOL    HW218512   3.462   2.569   0.798 -0.7304  2.4236  0.3154
 4695SOL    HW318513   3.578   2.491   0.857 -1.5719 -0.4938 -1.6670
 4695SOL    MW418514   3.520   2.556   0.862  0.0874 -0.4663 -0.3649
 4696SOL     OW18515   4.771   2.951   1.618 -0.5273  0.0768 -0.2066
 4696SOL    HW218516   4.769   2.859   1.644  1.2185  0.2760  0.8390
 4696SOL    HW318517   4.694   2.990   1.659  0.7044 -0.1984  2.6567
 4696SOL    MW418518   4.761   2.944   1.627  0.6664  0.2673 -0.2397
 4697SOL     OW18519   5.416   5.486   3.641  0.2563  0.0664 -0.3711
 4697SOL    HW218520   5.453   5.435   3.713  1.1447  1.3865  0.1554
 4697SOL    HW318521   5.326   5.455   3.633 -0.1804  0.5343  1.9921
 4697SOL    MW418522   5.409   5.475   3.650 -0.4201  0.1318 -0.2339
 4698SOL     OW18523   6.123   3.761   6.096 -0.0982  0.2604 -0.1525
 4698SOL    HW218524   6.201   3.718   6.130  1.2528  1.6357 -1.3408
 4698SOL    HW318525   6.056   3.746   6.163  0.8092 -1.9563  0.3657
 4698SOL    MW418526   6.124   3.753   6.110 -0.1873 -0.1532 -0.5758
 4699SOL     OW18527   2.281   3.748   0.853  0.5743  0.7527 -0.0000
 4699SOL    HW218528   2.371   3.721   0.873  0.3277  0.8793  1.3865
 4699SOL    HW318529   2.245   3.775   0.938 -1.1808 -0.4806 -0.2899
 4699SOL    MW418530   2.288   3.748   0.867 -0.0320 -0.4253 -0.5134
 4700SOL     OW18531   1.078   5.184   5.561  0.4154  0.1396 -0.6020
 4700SOL    HW218532   1.165   5.195   5.523  1.7960 -2.5365  1.4327
 4700SOL    HW318533   1.045   5.102   5.524 -1.0893  0.8782 -0.9971
 4700SOL    MW418534   1.085   5.175   5.551 -0.0851 -0.0314  0.3946
 4701SOL     OW18535   3.252   3.978   0.575 -0.1244 -0.1339  0.2163
 4701SOL    HW218536   3.207   3.948   0.654  0.3363 -1.8144 -0.1225
 4701SOL    HW318537   3.345   3.977   0.597 -0.0760  0.9490  0.1334
 4701SOL    MW418538   3.258   3.974   0.588 -0.2398  0.2228 -0.0940
 4702SOL     OW18539   0.588   1.607   1.140  0.1752  0.0952 -0.4894
 4702SOL    HW218540   0.588   1.695   1.178 -0.7834 -0.2992  0.4579
 4702SOL    HW318541   0.611   1.622   1.048  0.6217  1.2658 -0.2128
 4702SOL    MW418542   0.591   1.621   1.133  0.6563  0.0986  0.6808
 4703SOL     OW18543   4.140   5.134   4.468 -0.4724  0.3686 -0.0482
 4703SOL    HW218544   4.111   5.197   4.534  0.1139  0.2613  0.3185
 4703SOL    HW318545   4.069   5.070   4.461 -0.1441 -0.1388  1.1480
 4703SOL    MW418546   4.127   5.134   4.476  0.2092  0.5225 -0.3116
 4704SOL     OW18547   0.354   4.112   4.906  0.1923 -0.4208 -0.2431
 4704SOL    HW218548   0.332   4.142   4.818 -0.2055  0.2019  0.0507
 4704SOL    HW318549   0.298   4.165   4.963  1.4447  0.1899  0.4650
 4704SOL    MW418550   0.343   4.123   4.902  0.5807  0.3090  0.3508
 4705SOL     OW18551   5.990   0.473   5.342  0.2813  0.2253  0.3977
 4705SOL    HW218552   5.899   0.502   5.336 -0.3538 -1.4808  1.1718
 4705SOL    HW318553   6.012   0.443   5.253 -0.1448  0.0344  0.3537
 4705SOL    MW418554   5.981   0.473   5.329 -0.4654  0.0072 -0.0594
 4706SOL     OW18555   5.179   5.480   4.480 -0.3128  1.0613  0.1360
 4706SOL    HW218556   5.257   5.430   4.455 -0.7332 -0.6454  1.9306
 4706SOL    HW318557   5.209   5.570   4.488  1.4742  0.4524  0.7238
 4706SOL    MW418558   5.193   5.485   4.478  0.2329 -0.2174 -0.4296
 4707SOL     OW18559   1.533   0.420   3.273 -0.6227 -0.2888  0.7751
 4707SOL    HW218560   1.495   0.377   3.196 -1.9229  1.1661  0.5570
 4707SOL    HW318561   1.496   0.374   3.348 -0.9210 -0.4379  0.5360
 4707SOL    MW418562   1.523   0.408   3.273  0.1988  0.4773  0.0231
 4708SOL     OW18563   4.723   4.090   3.640 -0.5421 -0.5011 -0.5498
 4708SOL    HW218564   4.812   4.088   3.604  0.1186 -2.8939  1.0189
 4708SOL    HW318565   4.712   4.180   3.669  1.1957 -0.0423 -1.1584
 4708SOL    MW418566   4.733   4.102   3.639 -0.4657  0.6162  1.1019
 4709SOL     OW18567   0.750   2.853   1.993  0.3179  0.1727 -0.0451
 4709SOL    HW218568   0.723   2.850   1.901  3.9333  1.1466 -1.3107
 4709SOL    HW318569   0.673   2.886   2.040 -2.1622 -1.8492 -2.3933
 4709SOL    MW418570   0.736   2.857   1.987  0.6034  0.0201  0.1444
 4710SOL     OW18571   1.612   3.539   2.340  0.3445 -0.0997 -0.2926
 4710SOL    HW218572   1.562   3.529   2.260  1.0035 -0.9632 -0.6104
 4710SOL    HW318573   1.550   3.520   2.411 -1.4453  4.6561 -0.2358
 4710SOL    MW418574   1.597   3.535   2.339 -0.5299  0.0947  0.4732
 4711SOL     OW18575   2.821   5.119   0.813 -0.1314 -0.4066  0.0261
 4711SOL    HW218576   2.810   5.194   0.871 -0.9435  0.6029 -1.3566
 4711SOL    HW318577   2.761   5.053   0.847 -0.2926  0.0132  0.5679
 4711SOL    MW418578   2.812   5.121   0.825  0.0789  0.0530  0.6281
 4712SOL     OW18579   5.570   1.843   0.990  0.0876  0.1053 -0.1396
 4712SOL    HW218580   5.597   1.892   1.068 -0.7830 -1.9675  1.5629
 4712SOL    HW318581   5.652   1.814   0.950  0.5504  1.3601 -0.1435
 4712SOL    MW418582   5.584   1.846   0.995  0.4775 -0.1717 -0.4338
 4713SOL     OW18583   6.321   0.451   2.360 -0.0067  0.2196  0.0578
 4713SOL    HW218584   6.385   0.519   2.338  0.8618 -0.0417  1.5938
 4713SOL    HW318585   6.313   0.456   2.455 -0.0641 -1.6833  0.1918
 4713SOL    MW418586   6.328   0.461   2.369  0.3109 -0.0740  0.1585
 4714SOL     OW18587   3.884   4.305   3.940  0.2623  0.4639  0.3975
 4714SOL    HW218588   3.840   4.270   4.017  1.2977  0.1932  0.8892
 4714SOL    HW318589   3.822   4.292   3.868 -0.6430  0.5618  1.1475
 4714SOL    MW418590   3.870   4.299   3.941 -0.0499 -0.2616 -0.0552
 4715SOL     OW18591   2.778   0.534   3.147 -0.0291  0.2580  0.2364
 4715SOL    HW218592   2.856   0.478   3.149  0.5301  1.0458  1.0915
 4715SOL    HW318593   2.790   0.590   3.070 -0.1508 -0.1666 -0.0956
 4715SOL    MW418594   2.790   0.534   3.137 -0.0249  0.2286  0.1764
 4716SOL     OW18595   2.057   5.953   3.883 -0.2533  0.2391  0.0244
 4716SOL    HW218596   2.100   5.952   3.969  0.7665  0.4634 -0.4750
 4716SOL    HW318597   1.994   6.025   3.888  1.5463  1.8775 -0.2372
 4716SOL    MW418598   2.054   5.962   3.895 -0.0225  0.4689 -0.2334
 4717SOL     OW18599   2.299   5.316   0.403 -0.6866 -0.1366  0.0950
 4717SOL    HW218600   2.335   5.382   0.343  0.7702  1.2231  2.3157
 4717SOL    HW318601   2.341   5.334   0.487 -0.0575 -4.0775  0.8282
 4717SOL    MW418602   2.310   5.327   0.406 -0.3732  0.5658  0.7889
 4718SOL     OW18603   1.259   2.778   3.974  0.2034  0.3380 -0.1954
 4718SOL    HW218604   1.165   2.785   3.963  0.0445 -0.4504  0.5235
 4718SOL    HW318605   1.284   2.859   4.020 -0.0757  0.6604 -0.6073
 4718SOL    MW418606   1.250   2.790   3.979 -0.1045  0.1304  0.0849
 4719SOL     OW18607   5.570   2.908   4.088 -0.1848 -0.6222 -0.1763
 4719SOL    HW218608   5.488   2.957   4.100 -1.3281 -2.3329 -0.6217
 4719SOL    HW318609   5.631   2.949   4.149 -0.8935  1.6919 -0.9177
 4719SOL    MW418610   5.567   2.920   4.098 -1.2764  0.5362  0.3643
 4720SOL     OW18611   4.012   5.029   4.096 -0.5207  0.7550  0.0776
 4720SOL    HW218612   4.059   5.110   4.115 -1.1707  1.0289  0.5677
 4720SOL    HW318613   3.976   5.002   4.181 -1.2575  0.5636 -0.2899
 4720SOL    MW418614   4.014   5.036   4.110  0.3420  0.3498 -0.0187
 4721SOL     OW18615   3.842   4.730   3.580  0.2427  0.2865  0.7223
 4721SOL    HW218616   3.871   4.681   3.657 -1.3145  0.3273  1.3492
 4721SOL    HW318617   3.849   4.822   3.605  0.0854  0.3108  0.6752
 4721SOL    MW418618   3.847   4.735   3.593  0.4410 -1.0282  0.1219
 4722SOL     OW18619   1.319   5.156   5.411  0.3119  0.4021 -0.5685
 4722SOL    HW218620   1.370   5.217   5.465 -1.3847  0.4871  1.0551
 4722SOL    HW318621   1.337   5.070   5.450 -1.3648  0.5278  0.5956
 4722SOL    MW418622   1.328   5.153   5.423  0.4460 -0.1714  0.2942
 4723SOL     OW18623   4.808   1.571   3.778  0.0935  0.3083 -0.5593
 4723SOL    HW218624   4.722   1.569   3.736  0.8911 -2.4236 -2.3276
 4723SOL    HW318625   4.870   1.583   3.706  1.3347 -1.1970  0.2076
 4723SOL    MW418626   4.805   1.572   3.763 -0.8503 -0.0235 -0.6001
 4724SOL     OW18627   5.527   1.988   1.291 -0.0891  0.2018 -0.4348
 4724SOL    HW218628   5.588   2.002   1.364  1.4411 -1.5164 -1.2903
 4724SOL    HW318629   5.474   1.913   1.319  0.0204 -0.0078 -0.7825
 4724SOL    MW418630   5.528   1.980   1.304  0.0700 -0.2102 -0.0065
 4725SOL     OW18631   5.941   1.936   4.747 -0.0398 -0.5272  0.0543
 4725SOL    HW218632   5.899   1.852   4.768 -0.9785  0.1258  0.8827
 4725SOL    HW318633   5.875   1.983   4.696 -0.3403  0.4791  1.3053
 4725SOL    MW418634   5.927   1.931   4.743 -0.6657  0.2092  0.0527
 4726SOL     OW18635   6.118   4.627   5.190  0.1672  0.1870 -0.3210
 4726SOL    HW218636   6.195   4.578   5.162  0.5467  0.3261  0.4604
 4726SOL    HW318637   6.143   4.667   5.273 -0.7359  0.2581 -0.0675
 4726SOL    MW418638   6.131   4.626   5.198 -0.2982 -0.4235 -0.2407
 4727SOL     OW18639   2.948   0.809   5.354  0.2278 -0.2387 -0.2691
 4727SOL    HW218640   3.033   0.767   5.336  0.3115  0.2444 -1.0666
 4727SOL    HW318641   2.971   0.898   5.381  0.0912 -0.8617  2.1361
 4727SOL    MW418642   2.962   0.816   5.355 -0.2033 -0.7117  0.0606
 4728SOL     OW18643   3.628   4.798   1.959  0.1809  0.5166 -0.1523
 4728SOL    HW218644   3.545   4.823   1.919  0.5145  0.9650 -0.5792
 4728SOL    HW318645   3.633   4.704   1.948  1.4613  0.8674 -3.5563
 4728SOL    MW418646   3.618   4.789   1.953  0.1655 -0.0551 -0.5810
 4729SOL     OW18647   0.043   3.314   3.663  0.3796  0.2975 -0.5775
 4729SOL    HW218648   0.029   3.408   3.650 -0.1133 -0.0041 -2.4574
 4729SOL    HW318649  -0.040   3.274   3.637  0.6184 -0.6745  0.1191
 4729SOL    MW418650   0.030   3.321   3.658 -0.7035 -0.0215 -0.1033
 4730SOL     OW18651   3.721   3.319   5.561  0.1297 -0.5275 -0.4431
 4730SOL    HW218652   3.687   3.253   5.623  0.9007 -0.3872  0.1424
 4730SOL    HW318653   3.793   3.275   5.517 -0.3134 -0.5685 -1.1386
 4730SOL    MW418654   3.726   3.304   5.564  0.2306 -0.3046 -0.8102
 4731SOL     OW18655   2.656   2.508   2.865  0.1859  0.0469 -0.2294
 4731SOL    HW218656   2.719   2.481   2.931 -0.3933 -0.5462  0.0996
 4731SOL    HW318657   2.697   2.483   2.782 -0.1033 -1.4705  0.0386
 4731SOL    MW418658   2.669   2.501   2.862  0.5623  0.0895  0.8212
 4732SOL     OW18659   3.344   4.698   5.197  0.4839 -0.4667  0.0647
 4732SOL    HW218660   3.342   4.793   5.190  2.7384 -0.4960 -2.9104
 4732SOL    HW318661   3.369   4.681   5.288 -0.1872  1.7358  0.7176
 4732SOL    MW418662   3.347   4.708   5.208 -0.4988 -0.3429  0.3262
 4733SOL     OW18663   1.220   4.148   1.706 -0.4202  0.1954  0.3549
 4733SOL    HW218664   1.157   4.080   1.683  0.6050 -1.5401  2.3564
 4733SOL    HW318665   1.188   4.183   1.789 -1.4225  2.9147 -1.0408
 4733SOL    MW418666   1.208   4.144   1.714 -0.4378 -0.3590 -0.6202
 4734SOL     OW18667   4.045   0.576   1.162 -0.2326  0.4857  0.5088
 4734SOL    HW218668   4.084   0.578   1.075 -2.3489  0.1463 -0.5020
 4734SOL    HW318669   4.090   0.645   1.210  1.3998  0.2724 -0.6378
 4734SOL    MW418670   4.056   0.585   1.157  0.0600 -0.1649  0.2723
 4735SOL     OW18671   3.664   4.169   6.159  0.2815 -0.2465  0.6669
 4735SOL    HW218672   3.716   4.124   6.225  0.4528 -1.5422 -0.3088
 4735SOL    HW318673   3.728   4.199   6.094 -0.0252 -0.2775  0.3480
 4735SOL    MW418674   3.679   4.167   6.159  0.2494  0.6640  1.2063
 4736SOL     OW18675   1.950   3.470   2.216  0.0633 -0.0417 -0.1823
 4736SOL    HW218676   1.919   3.443   2.303  0.3429  0.0542 -0.0508
 4736SOL    HW318677   1.882   3.440   2.156 -0.2511  0.1048  0.0970
 4736SOL    MW418678   1.937   3.463   2.220 -0.2398 -0.1245 -0.4697
 4737SOL     OW18679   4.504   1.795   2.502  0.4234  0.3494  0.2194
 4737SOL    HW218680   4.514   1.848   2.581  0.1687  0.4868  0.1608
 4737SOL    HW318681   4.541   1.710   2.526 -0.1591  0.2173  0.6777
 4737SOL    MW418682   4.510   1.790   2.516 -0.0467  0.1384 -0.1484
 4738SOL     OW18683   2.063   6.420   1.457 -0.0718 -0.3180  0.1903
 4738SOL    HW218684   2.115   6.387   1.530  0.7187 -0.0954 -0.2573
 4738SOL    HW318685   1.985   6.365   1.456  0.0784 -0.5569  0.9772
 4738SOL    MW418686   2.060   6.408   1.467  0.3667 -0.4669 -0.4064
 4739SOL     OW18687   0.252   0.681   1.681  0.7680  0.0639 -0.0761
 4739SOL    HW218688   0.185   0.744   1.654 -0.4599 -0.8508  0.7240
 4739SOL    HW318689   0.231   0.601   1.632  1.3094 -0.2185  0.1472
 4739SOL    MW418690   0.240   0.679   1.671 -0.0278 -0.5635  0.2860
 4740SOL     OW18691   2.670   4.458   5.682 -0.1139  0.1767  0.0280
 4740SOL    HW218692   2.608   4.454   5.610 -0.0994  0.4284  0.0009
 4740SOL    HW318693   2.727   4.532   5.662 -0.9864  1.1452  0.9949
 4740SOL    MW418694   2.669   4.467   5.670  0.2926  0.2736  0.3691
 4741SOL     OW18695   0.894   5.029   4.344 -0.0664 -0.0192  0.1564
 4741SOL    HW218696   0.926   5.100   4.400  0.1199 -0.9146  1.2387
 4741SOL    HW318697   0.805   5.013   4.375  0.5529 -1.5206  1.2550
 4741SOL    MW418698   0.887   5.036   4.356  0.2916  0.6292  0.3852
 4742SOL     OW18699   4.777   5.331   3.093 -0.5608  0.4603  0.3499
 4742SOL    HW218700   4.782   5.268   3.165  2.2815  0.4555  0.2648
 4742SOL    HW318701   4.812   5.412   3.131 -1.7436  1.2850 -0.2657
 4742SOL    MW418702   4.782   5.334   3.108 -0.0787 -0.5142  0.3957
 4743SOL     OW18703   1.305   3.218   1.439  0.4474  0.4474 -0.3833
 4743SOL    HW218704   1.397   3.188   1.442  0.4274  0.3391 -0.7427
 4743SOL    HW318705   1.265   3.180   1.517  1.0784  1.7644  0.6178
 4743SOL    MW418706   1.312   3.209   1.450  0.4235  0.1995  0.1726
 4744SOL     OW18707   4.945   5.594   2.985 -0.3427  0.2532 -0.1823
 4744SOL    HW218708   4.936   5.686   3.010 -1.0212  0.1510 -0.0398
 4744SOL    HW318709   4.995   5.596   2.904 -1.6607  0.8468 -1.0033
 4744SOL    MW418710   4.951   5.607   2.978  0.1658  0.1383  0.4230
 4745SOL     OW18711   3.037   3.056   5.418  0.5743 -0.1589  0.1778
 4745SOL    HW218712   2.999   2.979   5.377 -1.2828 -0.0069  1.4923
 4745SOL    HW318713   3.040   3.035   5.511  2.3221  0.4600  0.2972
 4745SOL    MW418714   3.033   3.043   5.425 -0.1402 -0.0340  0.1352
 4746SOL     OW18715   5.802   5.014   1.313  0.4875 -0.6607  0.3616
 4746SOL    HW218716   5.835   4.998   1.401 -1.1255  0.9114  1.3295
 4746SOL    HW318717   5.880   5.029   1.260  1.4483  0.4836  1.9920
 4746SOL    MW418718   5.816   5.014   1.318  0.1687  0.3452 -0.1332
 4747SOL     OW18719   4.385   2.451   1.856  0.7047 -0.0493 -0.5697
 4747SOL    HW218720   4.368   2.514   1.926 -0.5832  0.4270 -1.2735
 4747SOL    HW318721   4.447   2.389   1.894  0.3201  0.4040  0.8756
 4747SOL    MW418722   4.391   2.451   1.870 -0.9192 -0.1415 -0.1190
 4748SOL     OW18723   1.269   1.719   3.424 -0.3999 -0.6593 -0.2809
 4748SOL    HW218724   1.364   1.706   3.425 -0.0455  1.4706 -1.7124
 4748SOL    HW318725   1.247   1.730   3.331 -2.0215 -0.8560  0.0503
 4748SOL    MW418726   1.278   1.718   3.412 -0.0347 -0.5305  0.2849
 4749SOL     OW18727   4.217   2.016   0.900 -0.1245  0.0714 -0.4509
 4749SOL    HW218728   4.138   1.996   0.950  0.4126  0.8751  0.7492
 4749SOL    HW318729   4.249   2.098   0.937 -0.3361  1.3696 -2.8737
 4749SOL    MW418730   4.211   2.024   0.911 -0.3036  0.0589 -0.0698
 4750SOL     OW18731   0.649   2.028   2.799  0.1571 -0.6084  0.1450
 4750SOL    HW218732   0.666   2.014   2.892  1.7003 -0.3715 -0.0815
 4750SOL    HW318733   0.735   2.022   2.758  0.0572  2.7794 -0.8270
 4750SOL    MW418734   0.663   2.025   2.806  0.7117  0.0664  0.0756
 4751SOL     OW18735   2.247   1.331   5.409  0.2513 -0.4998  0.0406
 4751SOL    HW218736   2.223   1.418   5.379  0.0720 -0.0623  1.4280
 4751SOL    HW318737   2.227   1.330   5.502 -2.4885 -2.9562 -0.4424
 4751SOL    MW418738   2.242   1.342   5.417  0.4590 -0.0511  0.4926
 4752SOL     OW18739   4.265   4.563   2.211 -0.1835 -0.1591 -0.4415
 4752SOL    HW218740   4.324   4.490   2.228  0.1628  0.2801  0.3110
 4752SOL    HW318741   4.178   4.523   2.204 -0.1184 -0.5651  0.8168
 4752SOL    MW418742   4.261   4.548   2.213 -0.4422 -0.8169  0.7641
 4753SOL     OW18743   3.945   4.965   6.211 -0.3402 -0.2832  0.2857
 4753SOL    HW218744   3.906   4.947   6.125 -0.2239 -0.2058  0.2151
 4753SOL    HW318745   3.880   5.019   6.256 -1.2078 -1.8383  0.9501
 4753SOL    MW418746   3.931   4.970   6.205  0.4363 -0.9045  0.0935
 4754SOL     OW18747   0.227   3.063   1.952 -0.1007 -0.0897 -0.0454
 4754SOL    HW218748   0.149   3.062   1.896 -0.2248  1.0509  0.0870
 4754SOL    HW318749   0.300   3.074   1.891 -0.1596  0.1770 -0.0724
 4754SOL    MW418750   0.226   3.064   1.936  0.5817 -0.4340 -0.0308
 4755SOL     OW18751   6.206   2.553   0.463  0.1801  0.6241 -0.3507
 4755SOL    HW218752   6.230   2.540   0.371  0.8240 -3.2441  0.1981
 4755SOL    HW318753   6.116   2.521   0.469 -0.4510  2.3856  0.1301
 4755SOL    MW418754   6.197   2.547   0.452  0.1621 -0.2787  0.1990
 4756SOL     OW18755   0.406   4.974   3.281  0.5520  0.4001 -0.1255
 4756SOL    HW218756   0.379   4.935   3.364 -0.2972  0.1156 -0.5177
 4756SOL    HW318757   0.474   4.916   3.248  0.3325  0.0718 -0.0048
 4756SOL    MW418758   0.411   4.961   3.288 -0.0751 -0.1038 -0.5363
 4757SOL     OW18759   2.148   5.285   1.593  0.2523  0.7231 -0.0004
 4757SOL    HW218760   2.095   5.351   1.548  1.8773  0.2693 -2.8332
 4757SOL    HW318761   2.213   5.336   1.642 -0.0600  1.2345 -0.1031
 4757SOL    MW418762   2.150   5.301   1.593  0.0661 -0.1922 -0.6028
 4758SOL     OW18763   6.420   2.941   4.855 -0.8687 -0.1102  0.1251
 4758SOL    HW218764   6.442   3.032   4.877 -0.4390 -0.1098 -0.2866
 4758SOL    HW318765   6.358   2.949   4.783  0.4295 -0.1452 -1.0493
 4758SOL    MW418766   6.415   2.954   4.848 -0.3832 -0.1710  0.3774
 4759SOL     OW18767   1.808   5.831   1.813 -0.0892 -0.1823  0.0666
 4759SOL    HW218768   1.879   5.774   1.783  0.8400 -0.1601  2.0563
 4759SOL    HW318769   1.851   5.914   1.833 -0.6536 -0.1643  1.2998
 4759SOL    MW418770   1.823   5.834   1.812 -0.2221  0.4210  0.2074
 4760SOL     OW18771   5.297   0.702   5.282  0.0233 -0.5787  0.1386
 4760SOL    HW218772   5.251   0.618   5.284 -0.7997 -0.1249  1.0662
 4760SOL    HW318773   5.233   0.764   5.247 -0.0655  0.0263  1.2891
 4760SOL    MW418774   5.283   0.699   5.278  0.1767 -0.1836 -0.1282
 4761SOL     OW18775   1.864   2.324   5.716 -0.3103  0.4678  0.4930
 4761SOL    HW218776   1.827   2.276   5.642 -1.5370  0.9845  0.7608
 4761SOL    HW318777   1.789   2.362   5.761  0.3895  0.0665  2.0896
 4761SOL    MW418778   1.849   2.323   5.712  0.2625 -0.0138  0.0277
 4762SOL     OW18779   0.081   4.129   0.185  0.7563 -0.1751  0.2890
 4762SOL    HW218780  -0.004   4.111   0.226 -0.8550  2.0545 -1.8223
 4762SOL    HW318781   0.114   4.043   0.161 -0.0617 -1.2340  2.6431
 4762SOL    MW418782   0.074   4.115   0.188  0.2292  0.6624  0.1807
 4763SOL     OW18783   1.920   4.419   3.971 -0.6714 -0.4738  0.3368
 4763SOL    HW218784   1.934   4.366   3.893  1.1234 -0.9237  0.9012
 4763SOL    HW318785   1.878   4.359   4.033 -1.8200 -0.2040 -0.1622
 4763SOL    MW418786   1.916   4.404   3.969  0.3985  0.0312  0.5701
 4764SOL     OW18787   5.135   0.737   1.066 -0.2716  0.1130  0.8745
 4764SOL    HW218788   5.228   0.720   1.053 -0.9503 -3.9113  0.0422
 4764SOL    HW318789   5.123   0.736   1.161  0.4420  0.1841  0.9719
 4764SOL    MW418790   5.145   0.735   1.077  0.6959  0.0172  0.7402
 4765SOL     OW18791   1.349   1.251   6.053  1.2399 -0.0651  0.0070
 4765SOL    HW218792   1.264   1.230   6.092  1.4408  0.2965  0.6550
 4765SOL    HW318793   1.404   1.175   6.074  0.5019 -1.3274 -2.3109
 4765SOL    MW418794   1.345   1.238   6.061 -0.0000  0.1000  0.1165
 4766SOL     OW18795   1.650   2.608   1.955 -0.2217  0.3896  0.3648
 4766SOL    HW218796   1.708   2.567   2.018 -2.1319 -2.3215  0.5276
 4766SOL    HW318797   1.679   2.576   1.870  0.2212  1.2889  0.1647
 4766SOL    MW418798   1.661   2.598   1.952 -0.0053  0.5501  0.7707
 4767SOL     OW18799   0.497   1.452   5.808 -0.2666  0.0421  0.6921
 4767SOL    HW218800   0.470   1.542   5.794  1.1355  0.3650 -0.1240
 4767SOL    HW318801   0.527   1.422   5.722 -1.3385 -1.4473  0.7905
 4767SOL    MW418802   0.497   1.460   5.795  0.3879  0.1051 -0.4207
 4768SOL     OW18803   1.006   2.259   5.685  0.4060 -0.0453  0.0455
 4768SOL    HW218804   0.948   2.331   5.709  0.8598  0.5756 -0.6922
 4768SOL    HW318805   0.959   2.211   5.616 -0.2903 -1.0108  1.1521
 4768SOL    MW418806   0.992   2.262   5.679 -0.6350 -0.4031  0.0470
 4769SOL     OW18807   2.976   4.933   1.638 -0.1567 -0.3625 -0.0585
 4769SOL    HW218808   3.006   4.842   1.638  0.1874 -0.2771 -1.4956
 4769SOL    HW318809   2.882   4.928   1.621  0.1945 -0.4237 -2.3321
 4769SOL    MW418810   2.968   4.921   1.636 -0.1225 -0.0941 -0.7340
 4770SOL     OW18811   3.178   6.358   1.765 -0.1571 -0.2974  0.4652
 4770SOL    HW218812   3.240   6.393   1.829 -1.4426  1.3413  0.8712
 4770SOL    HW318813   3.172   6.265   1.786  0.3188 -0.0119  1.9822
 4770SOL    MW418814   3.185   6.350   1.776  0.1719 -0.0670 -0.2464
 4771SOL     OW18815   1.828   2.695   4.478 -0.1370 -0.0644 -0.4275
 4771SOL    HW218816   1.802   2.641   4.403 -0.6132 -2.1441  1.1502
 4771SOL    HW318817   1.916   2.727   4.455  0.1528 -1.4972 -1.4330
 4771SOL    MW418818   1.836   2.692   4.465  0.2054  0.3029  0.2679
 4772SOL     OW18819   2.316   0.278   5.200  0.4470  0.3863 -0.0734
 4772SOL    HW218820   2.304   0.237   5.115 -0.5478  1.3276 -0.4056
 4772SOL    HW318821   2.239   0.334   5.212  0.1447 -0.3361  1.8092
 4772SOL    MW418822   2.304   0.280   5.191  0.2333 -0.4913  0.9474
 4773SOL     OW18823   4.301   1.398   4.502  0.3703 -0.4589 -0.3231
 4773SOL    HW218824   4.324   1.391   4.410 -3.3519 -0.8971 -1.3506
 4773SOL    HW318825   4.267   1.486   4.513  1.7968 -0.0198  0.9691
 4773SOL    MW418826   4.300   1.408   4.492 -0.7068 -0.2196  0.6545
 4774SOL     OW18827   1.831   6.220   1.634  0.2404  0.1613 -0.3138
 4774SOL    HW218828   1.774   6.153   1.595  0.5705  0.4904 -1.4178
 4774SOL    HW318829   1.872   6.177   1.708  0.3548 -0.8289 -0.9348
 4774SOL    MW418830   1.829   6.206   1.638 -0.4676  0.0964 -0.5296
 4775SOL     OW18831   1.700   1.000   5.462  0.4848 -0.4334  0.1281
 4775SOL    HW218832   1.666   0.927   5.514  2.2137 -1.8762 -0.6721
 4775SOL    HW318833   1.632   1.067   5.468 -1.8807 -2.6467 -0.3504
 4775SOL    MW418834   1.686   0.999   5.470 -0.7253 -0.2519 -0.0267
 4776SOL     OW18835   5.235   6.026   5.768 -0.6439 -0.2952  0.0740
 4776SOL    HW218836   5.276   5.940   5.782 -1.4397 -0.8581 -0.9431
 4776SOL    HW318837   5.184   6.040   5.848 -1.0765 -1.1045 -0.0524
 4776SOL    MW418838   5.234   6.016   5.781  0.3341 -0.0282  0.2847
 4777SOL     OW18839   2.322   5.267   2.153 -0.5389 -0.0371  0.2334
 4777SOL    HW218840   2.333   5.349   2.201 -2.5132  0.2758  0.2698
 4777SOL    HW318841   2.410   5.240   2.130  0.1920  1.8978  0.5702
 4777SOL    MW418842   2.335   5.274   2.156 -0.2207  0.2193  0.1748
 4778SOL     OW18843   2.382   1.537   5.779 -0.3369 -0.0890  0.2376
 4778SOL    HW218844   2.351   1.456   5.739  0.2321 -0.7472  1.0941
 4778SOL    HW318845   2.476   1.525   5.788 -0.4710 -0.1208  2.0536
 4778SOL    MW418846   2.390   1.525   5.775 -0.8336  0.4689 -0.7581
 4779SOL     OW18847   5.770   5.612   3.630 -0.0380 -0.3915  0.0239
 4779SOL    HW218848   5.788   5.549   3.700  2.0042  0.8222  0.6647
 4779SOL    HW318849   5.699   5.666   3.664 -0.2793 -0.9305  0.3980
 4779SOL    MW418850   5.763   5.611   3.644  0.9857 -0.5835 -0.2159
 4780SOL     OW18851   6.205   4.728   3.597  0.8505  0.2196  0.4322
 4780SOL    HW218852   6.164   4.709   3.513 -2.1009  0.3967  1.7288
 4780SOL    HW318853   6.163   4.668   3.659  2.0169  0.9556  2.0188
 4780SOL    MW418854   6.194   4.718   3.594 -0.2326  0.6601  0.5423
 4781SOL     OW18855   3.062   4.394   4.055  0.1479  0.3525  0.2497
 4781SOL    HW218856   3.135   4.422   4.000  0.1689 -1.1743 -0.5589
 4781SOL    HW318857   2.984   4.424   4.007  0.0906 -2.4210 -1.6100
 4781SOL    MW418858   3.061   4.402   4.041 -0.1172  0.6817 -0.2589
 4782SOL     OW18859   0.094   5.241   1.591  0.0013  0.2090 -0.3372
 4782SOL    HW218860   0.178   5.270   1.627 -0.3225 -0.3320  0.9458
 4782SOL    HW318861   0.076   5.301   1.519  0.6545  1.4396  0.4835
 4782SOL    MW418862   0.103   5.252   1.586 -0.3943  0.2606  0.3178
 4783SOL     OW18863   3.891   3.183   5.403 -0.5291 -0.0329  0.5038
 4783SOL    HW218864   3.894   3.089   5.385  0.2539 -0.3144  1.9447
 4783SOL    HW318865   3.971   3.218   5.363  0.3373 -0.3831  1.8357
 4783SOL    MW418866   3.902   3.175   5.396 -0.2677 -0.1179  0.0227
 4784SOL     OW18867   0.978   3.496   2.216 -0.6645 -0.4949  0.3479
 4784SOL    HW218868   0.904   3.454   2.172 -1.3384 -0.9145  1.8497
 4784SOL    HW318869   0.960   3.487   2.309  1.5997 -1.2057  0.7876
 4784SOL    MW418870   0.966   3.489   2.222 -0.0224 -0.1707 -0.8616
 4785SOL     OW18871   0.973   6.316   1.011  0.4025 -0.3093  0.4926
 4785SOL    HW218872   1.040   6.354   1.068  0.4558 -0.7731  0.7457
 4785SOL    HW318873   0.891   6.335   1.056  0.3154  0.7051 -0.0715
 4785SOL    MW418874   0.971   6.323   1.025  0.1970 -0.0820 -0.8743
 4786SOL     OW18875   3.792   0.530   3.201  0.0983 -0.2122  0.3674
 4786SOL    HW218876   3.833   0.463   3.147  0.5741  1.6006 -1.6251
 4786SOL    HW318877   3.859   0.554   3.265  0.2056 -1.0420  0.5753
 4786SOL    MW418878   3.806   0.525   3.202 -0.0278  0.5063 -0.3183
 4787SOL     OW18879   2.332   6.418   5.649  0.0082 -0.2159  0.3030
 4787SOL    HW218880   2.414   6.429   5.696  1.0973  1.4347 -1.8591
 4787SOL    HW318881   2.265   6.447   5.711  1.0335 -1.2259  1.9554
 4787SOL    MW418882   2.334   6.423   5.663 -0.4399  0.1025 -0.0052
 4788SOL     OW18883   3.734   4.914   5.082 -0.0488  0.7185  0.3739
 4788SOL    HW218884   3.672   4.858   5.130 -0.5900  0.1861 -0.9000
 4788SOL    HW318885   3.813   4.912   5.136 -0.4751 -0.2527  1.0073
 4788SOL    MW418886   3.736   4.906   5.095 -0.8121 -0.0198  0.2369
 4789SOL     OW18887   6.124   5.833   5.234  0.3736  0.2865 -0.4010
 4789SOL    HW218888   6.166   5.862   5.153 -0.0322  0.3700 -0.5851
 4789SOL    HW318889   6.140   5.738   5.236  0.2973  0.2682 -0.6306
 4789SOL    MW418890   6.132   5.824   5.224 -0.8613 -0.0016  0.1059
 4790SOL     OW18891   5.098   0.760   0.433  0.2963  0.0651  0.7439
 4790SOL    HW218892   5.009   0.725   0.433  0.5176 -0.7242 -2.0678
 4790SOL    HW318893   5.114   0.784   0.342  3.1993 -0.4198  1.0460
 4790SOL    MW418894   5.088   0.758   0.421  0.0881  0.1205 -0.3294
 4791SOL     OW18895   5.728   1.378   5.736 -0.1528  0.3209 -0.7012
 4791SOL    HW218896   5.774   1.448   5.689  0.5129 -0.1188 -0.7200
 4791SOL    HW318897   5.655   1.422   5.779  0.4130  1.0808 -0.4898
 4791SOL    MW418898   5.724   1.393   5.735 -0.6283 -0.2655  0.1728
 4792SOL     OW18899   4.161   1.516   2.624  0.1325  0.6733  0.2078
 4792SOL    HW218900   4.152   1.582   2.555 -0.0584  1.2804  0.7983
 4792SOL    HW318901   4.140   1.563   2.705  1.8320  0.3902  0.8732
 4792SOL    MW418902   4.157   1.531   2.626 -0.6049 -0.5101 -0.0439
 4793SOL     OW18903   1.571   0.901   3.013 -0.0029  0.6071  0.0207
 4793SOL    HW218904   1.596   0.951   3.091 -1.4128  1.2211  0.1152
 4793SOL    HW318905   1.527   0.823   3.047  0.0793  0.4844 -0.1547
 4793SOL    MW418906   1.568   0.898   3.028  0.4556 -0.0737 -0.3140
 4794SOL     OW18907   5.583   4.979   4.866 -0.4192 -0.1307 -0.0842
 4794SOL    HW218908   5.492   4.965   4.838 -0.8141  0.6879  0.7290
 4794SOL    HW318909   5.595   4.919   4.939  0.1731 -1.2763 -1.0896
 4794SOL    MW418910   5.573   4.969   4.872  0.1948  0.6708  0.2310
 4795SOL     OW18911   0.653   6.385   1.644  0.2878 -0.1319  0.1182
 4795SOL    HW218912   0.600   6.337   1.581  1.6613 -0.8324 -0.5253
 4795SOL    HW318913   0.731   6.412   1.596  0.2512  1.4691  0.8662
 4795SOL    MW418914   0.656   6.383   1.630 -0.2540  0.5759  0.5955
 4796SOL     OW18915   0.471   5.670   2.655  0.5192 -0.4845  0.0021
 4796SOL    HW218916   0.481   5.576   2.673 -0.6272 -0.7480 -0.6295
 4796SOL    HW318917   0.398   5.698   2.710  0.8187  0.0416  0.1442
 4796SOL    MW418918   0.463   5.661   2.665 -0.1512  0.3178  0.7426
 4797SOL     OW18919   5.516   3.740   4.344  0.3507  0.2882 -0.0166
 4797SOL    HW218920   5.538   3.689   4.266 -0.3905 -0.4563  0.2492
 4797SOL    HW318921   5.582   3.809   4.347 -0.3725  1.1635 -2.0591
 4797SOL    MW418922   5.527   3.743   4.334 -0.1295 -0.2573 -0.3534
 4798SOL     OW18923   2.938   3.847   4.178  0.0957 -0.8070 -0.0076
 4798SOL    HW218924   2.989   3.767   4.166  0.2451 -0.8790  1.0487
 4798SOL    HW318925   2.986   3.896   4.244 -0.5487 -0.3162  0.1033
 4798SOL    MW418926   2.951   3.843   4.185 -0.0951 -0.1466  0.3389
 4799SOL     OW18927   3.818   2.270   6.277  0.7607  0.3164  0.1350
 4799SOL    HW218928   3.863   2.262   6.193 -0.1490  1.8059 -0.5429
 4799SOL    HW318929   3.727   2.247   6.257  0.4963  0.8804  0.6610
 4799SOL    MW418930   3.812   2.266   6.263  0.1976 -0.0114  0.6808
 4800SOL     OW18931   2.567   0.522   3.644  0.0952 -0.6147 -0.0499
 4800SOL    HW218932   2.614   0.599   3.675 -0.6427 -0.7702  1.5512
 4800SOL    HW318933   2.633   0.472   3.595  0.6379  0.8912 -0.9297
 4800SOL    MW418934   2.582   0.526   3.642 -0.0197 -0.3286 -0.0243
 4801SOL     OW18935   1.554   0.284   1.866 -0.1427  0.3275  0.1604
 4801SOL    HW218936   1.610   0.348   1.910 -2.3048  1.1239  1.9254
 4801SOL    HW318937   1.524   0.330   1.787  1.1865  0.0773 -0.5289
 4801SOL    MW418938   1.558   0.299   1.861 -0.3151 -0.1531  0.0909
 4802SOL     OW18939   4.141   1.909   2.936  0.4833  0.2358  0.2644
 4802SOL    HW218940   4.063   1.947   2.976  0.3998  1.2763 -0.8430
 4802SOL    HW318941   4.197   1.885   3.010 -0.9075 -0.6350  1.0748
 4802SOL    MW418942   4.138   1.911   2.951  0.0973  0.3762 -0.0265
 4803SOL     OW18943   5.730   1.894   1.801  0.0260  0.2470 -0.4620
 4803SOL    HW218944   5.711   1.854   1.716 -2.2018  1.4758 -0.6142
 4803SOL    HW318945   5.765   1.822   1.853  2.1279 -0.4016 -2.5707
 4803SOL    MW418946   5.732   1.879   1.796 -0.2464  0.2410  0.1590
 4804SOL     OW18947   2.489   4.247   4.663  0.8418  0.1344 -0.0118
 4804SOL    HW218948   2.412   4.259   4.720  1.4018 -0.9403  1.0293
 4804SOL    HW318949   2.563   4.275   4.716  1.2062  0.8924 -0.9072
 4804SOL    MW418950   2.488   4.252   4.678 -0.1368 -0.1647  0.4059
 4805SOL     OW18951   6.177   4.900   5.590 -0.9063  0.4195  0.7885
 4805SOL    HW218952   6.261   4.918   5.633 -1.0151 -1.0799  1.7232
 4805SOL    HW318953   6.137   4.986   5.578  1.6394  1.4120 -1.6144
 4805SOL    MW418954   6.183   4.914   5.594 -0.0953 -0.0093 -0.1010
 4806SOL     OW18955   2.829   3.531   0.226  0.1217  0.2822  0.3251
 4806SOL    HW218956   2.736   3.517   0.204 -0.1241 -1.1838  2.0852
 4806SOL    HW318957   2.837   3.626   0.235 -0.5422  0.6955 -2.3637
 4806SOL    MW418958   2.817   3.542   0.224  0.2312  0.6100  0.1576
 4807SOL     OW18959   0.980   3.877   1.392  0.0193 -0.3417  0.2178
 4807SOL    HW218960   1.011   3.904   1.478 -0.9772  0.4872  0.3405
 4807SOL    HW318961   0.892   3.844   1.407 -1.5004  2.7981 -0.8296
 4807SOL    MW418962   0.972   3.876   1.405 -0.4633  0.5767  0.1026
 4808SOL     OW18963   1.702   4.603   3.961 -0.3887  0.1248 -0.4377
 4808SOL    HW218964   1.785   4.565   3.985 -1.2665 -0.7773  1.3032
 4808SOL    HW318965   1.709   4.619   3.867  1.6318 -0.1552 -0.3600
 4808SOL    MW418966   1.714   4.600   3.951 -0.0537  0.3255  0.5539
 4809SOL     OW18967   2.738   4.753   2.116  0.3340 -0.1207  0.2459
 4809SOL    HW218968   2.829   4.742   2.143  0.5180  0.5153 -0.0961
 4809SOL    HW318969   2.691   4.767   2.199  0.8504  1.4875  0.3107
 4809SOL    MW418970   2.744   4.754   2.131  0.1328  0.6100 -0.6303
 4810SOL     OW18971   6.003   2.666   1.124  0.3386 -0.6208  0.4783
 4810SOL    HW218972   5.949   2.662   1.045  2.4406  0.6737 -1.1364
 4810SOL    HW318973   6.007   2.760   1.146  0.4356 -0.8832  1.6798
 4810SOL    MW418974   5.996   2.678   1.117 -0.5567  0.0027  0.6247
 4811SOL     OW18975   0.286   3.083   0.696 -0.2049 -1.3034  0.0436
 4811SOL    HW218976   0.366   3.036   0.719  1.7151  1.7179  0.0346
 4811SOL    HW318977   0.225   3.064   0.767  1.1984 -2.1194  1.0617
 4811SOL    MW418978   0.288   3.074   0.708  0.0836 -0.2764 -0.2127
 4812SOL     OW18979   4.822   1.384   0.028 -0.3866 -0.1057 -0.0273
 4812SOL    HW218980   4.784   1.438  -0.041  0.4851  1.1870  0.4782
 4812SOL    HW318981   4.755   1.382   0.097 -1.0757 -1.0346 -0.6978
 4812SOL    MW418982   4.808   1.391   0.028 -0.6769  0.3059  0.0471
 4813SOL     OW18983   0.891   6.342   4.972  0.1844 -0.0641  0.2050
 4813SOL    HW218984   0.832   6.289   5.026  1.6869 -1.4683  0.5407
 4813SOL    HW318985   0.972   6.348   5.023  0.9169  0.3692 -0.9721
 4813SOL    MW418986   0.894   6.336   4.986 -0.0775  0.3214  0.4121
 4814SOL     OW18987   4.407   2.599   2.787  0.2373 -0.0591 -0.4656
 4814SOL    HW218988   4.374   2.531   2.728 -3.2741  1.3997 -0.4035
 4814SOL    HW318989   4.369   2.577   2.872 -0.8666  1.8543 -0.4220
 4814SOL    MW418990   4.398   2.587   2.791 -0.0948  0.0069 -0.9688
 4815SOL     OW18991   3.644   3.115   3.763 -0.1997 -0.0263  0.4571
 4815SOL    HW218992   3.648   3.040   3.822  1.7317 -0.5426 -0.2675
 4815SOL    HW318993   3.714   3.173   3.792 -0.0773  0.3256 -0.5033
 4815SOL    MW418994   3.654   3.113   3.775  0.2583 -0.1899  0.1960
 4816SOL     OW18995   2.949   4.064   5.161 -0.1063 -0.2940  0.6680
 4816SOL    HW218996   2.914   4.023   5.082  0.0881 -1.5894  1.2353
 4816SOL    HW318997   3.008   3.999   5.198  0.0531  0.4250  1.7253
 4816SOL    MW418998   2.952   4.050   5.155  0.0860  0.4467  0.7315
 4817SOL     OW18999   4.223   4.686   6.002 -0.2813  0.2465  0.8932
 4817SOL    HW219000   4.214   4.666   5.909  0.6450 -1.8172  1.1841
 4817SOL    HW319001   4.202   4.779   6.009 -1.3796  0.2129 -1.2118
 4817SOL    MW419002   4.219   4.695   5.991  0.0262 -0.0525  0.2893
 4818SOL     OW19003   3.025   1.786   3.452  0.1679 -0.4586 -0.3957
 4818SOL    HW219004   2.994   1.795   3.543 -0.5416  1.6134 -0.7788
 4818SOL    HW319005   2.967   1.721   3.414  0.4035 -1.2768  0.5983
 4818SOL    MW419006   3.013   1.779   3.459  0.7671 -0.3065  0.4055
 4819SOL     OW19007   0.098   2.845   1.148  0.4934  0.1412  0.1252
 4819SOL    HW219008   0.020   2.899   1.138 -0.8968 -1.7937 -0.0529
 4819SOL    HW319009   0.100   2.789   1.070  0.9293 -1.2020  1.0588
 4819SOL    MW419010   0.088   2.845   1.136  0.4443  0.0192  0.2105
 4820SOL     OW19011   2.844   0.276   4.450 -0.3035  0.4823  0.0810
 4820SOL    HW219012   2.924   0.245   4.407 -0.5192  0.1652 -0.0996
 4820SOL    HW319013   2.779   0.208   4.431 -0.5016  0.5198  0.5910
 4820SOL    MW419014   2.846   0.263   4.442  0.0944  0.1123 -0.7720
 4821SOL     OW19015   1.406   5.304   5.623 -0.3525  0.2484  0.0903
 4821SOL    HW219016   1.411   5.333   5.715 -0.5299 -0.1456  0.2245
 4821SOL    HW319017   1.485   5.252   5.610  0.4950  1.6125 -0.4481
 4821SOL    MW419018   1.417   5.301   5.633 -0.5224  0.0684 -0.2970
 4822SOL     OW19019   0.083   1.799   1.166 -0.1709  0.1226 -0.1147
 4822SOL    HW219020   0.173   1.769   1.150 -0.2935  0.0689 -0.7445
 4822SOL    HW319021   0.080   1.818   1.260 -0.1795 -2.1971  0.4119
 4822SOL    MW419022   0.095   1.797   1.176 -0.4027  0.6031 -0.2532
 4823SOL     OW19023   1.334   1.775   4.293  0.1563 -0.0845 -0.5826
 4823SOL    HW219024   1.241   1.793   4.308  0.3405  0.5874 -0.2130
 4823SOL    HW319025   1.339   1.679   4.287 -0.4000 -0.2023  0.5055
 4823SOL    MW419026   1.322   1.764   4.294  0.0485  0.3214 -0.4591
 4824SOL     OW19027   0.879   3.427   1.567  0.5313 -0.3237  0.4213
 4824SOL    HW219028   0.860   3.334   1.555  1.8665 -0.7125  1.1109
 4824SOL    HW319029   0.942   3.430   1.639  0.0509  1.1675  0.8299
 4824SOL    MW419030   0.885   3.415   1.575  0.3809  0.1355  0.5221
 4825SOL     OW19031   3.881   3.015   0.274  0.7168  0.6990  0.0729
 4825SOL    HW219032   3.801   3.040   0.320 -0.3129 -0.9737 -0.7432
 4825SOL    HW319033   3.881   2.920   0.275  2.1020  0.6568 -0.9783
 4825SOL    MW419034   3.871   3.006   0.280  0.4880  0.7784  0.1189
 4826SOL     OW19035   5.450   2.543   5.698 -0.2159 -0.3340  0.1734
 4826SOL    HW219036   5.522   2.488   5.668  2.0485  0.5270  3.4792
 4826SOL    HW319037   5.473   2.631   5.668 -2.1885 -0.5571 -2.3457
 4826SOL    MW419038   5.463   2.548   5.690 -0.0197  1.1797  0.4459
 4827SOL     OW19039   2.511   3.984   4.318 -0.4929  0.0676  0.1184
 4827SOL    HW219040   2.569   4.023   4.383 -2.9805  0.0420  2.5796
 4827SOL    HW319041   2.479   4.059   4.267  0.6880  0.2151 -0.4425
 4827SOL    MW419042   2.514   3.999   4.320  0.7962  0.1084  0.6873
 4828SOL     OW19043   4.115   5.118   1.401  0.4265 -0.3578 -0.3069
 4828SOL    HW219044   4.061   5.095   1.326 -0.1292  0.4966 -0.1868
 4828SOL    HW319045   4.107   5.044   1.461  0.1633 -0.6548 -0.7058
 4828SOL    MW419046   4.107   5.105   1.399 -0.6546  0.0144 -0.3727
 4829SOL     OW19047   6.120   0.588   1.472 -0.4009  0.6417  0.2829
 4829SOL    HW219048   6.096   0.681   1.469 -0.2898  0.8367  3.0144
 4829SOL    HW319049   6.059   0.550   1.535 -1.8783 -1.6874 -2.3434
 4829SOL    MW419050   6.109   0.595   1.480  0.9343 -0.0401  0.1432
 4830SOL     OW19051   3.285   4.992   2.572  0.2427 -0.2917 -0.1521
 4830SOL    HW219052   3.213   4.973   2.511  1.5173  0.9387 -2.1374
 4830SOL    HW319053   3.358   4.938   2.540  0.7941  0.0071  0.5995
 4830SOL    MW419054   3.285   4.982   2.559  0.5074 -0.7275  1.0690
 4831SOL     OW19055   4.244   4.891   2.058  0.1760 -0.4643 -0.1232
 4831SOL    HW219056   4.331   4.853   2.045  1.7806  1.4386  3.5650
 4831SOL    HW319057   4.260   4.984   2.072 -2.6715  0.1922 -0.5788
 4831SOL    MW419058   4.258   4.898   2.058  0.1050  0.1727 -0.0392
 4832SOL     OW19059   2.178   1.524   3.905  0.2976 -0.1014  0.2295
 4832SOL    HW219060   2.160   1.471   3.827  0.8205  0.4895 -0.3026
 4832SOL    HW319061   2.109   1.590   3.906 -0.6804 -1.0738  1.1956
 4832SOL    MW419062   2.167   1.525   3.895  0.2694  0.8710 -0.2058
 4833SOL     OW19063   0.851   5.219   5.774 -0.6745  0.2951 -0.0603
 4833SOL    HW219064   0.914   5.260   5.714 -1.3250  0.9236 -0.3336
 4833SOL    HW319065   0.771   5.212   5.723 -0.9127 -0.2357  0.3773
 4833SOL    MW419066   0.849   5.224   5.760 -0.1508 -0.6142  1.0754
 4834SOL     OW19067   5.795   5.623   0.909  0.1601 -0.9739 -0.5814
 4834SOL    HW219068   5.799   5.719   0.901  0.2505 -1.0139 -1.0364
 4834SOL    HW319069   5.721   5.607   0.967  0.1574 -0.6258 -0.4853
 4834SOL    MW419070   5.786   5.634   0.915 -0.2024  0.0641 -0.5578
 4835SOL     OW19071   6.289   1.849   2.029  0.3922  0.2759 -0.2151
 4835SOL    HW219072   6.292   1.825   2.122 -0.2667 -0.1497 -0.2960
 4835SOL    HW319073   6.249   1.773   1.986  5.1113 -1.7991 -1.6007
 4835SOL    MW419074   6.284   1.836   2.035  0.1983 -0.4355  0.7406
 4836SOL     OW19075   3.776   0.601   0.418 -0.0700 -0.5415  0.1964
 4836SOL    HW219076   3.851   0.541   0.426  1.6159  1.0588 -2.2788
 4836SOL    HW319077   3.733   0.574   0.337 -0.6519  0.1565  0.2689
 4836SOL    MW419078   3.780   0.589   0.408  0.1170 -0.8602 -0.0863
 4837SOL     OW19079   2.966   5.102   4.051  0.1989  0.0339  0.4128
 4837SOL    HW219080   2.916   5.055   4.118 -2.1582 -0.0381 -1.2709
 4837SOL    HW319081   2.937   5.063   3.968  2.6498  0.4490 -0.7248
 4837SOL    MW419082   2.955   5.091   4.049  0.3299  0.3664  0.0013
 4838SOL     OW19083   0.597   3.503   0.071  0.3554 -0.0612  0.0384
 4838SOL    HW219084   0.598   3.561   0.147 -0.6067 -3.2584  2.6953
 4838SOL    HW319085   0.504   3.489   0.053  0.5519 -1.0719 -0.2573
 4838SOL    MW419086   0.585   3.509   0.079  0.1202  0.4737 -0.0295
 4839SOL     OW19087   6.392   1.803   2.522 -0.6026 -0.1806 -0.1076
 4839SOL    HW219088   6.366   1.760   2.603  1.6278 -0.0094  0.7549
 4839SOL    HW319089   6.431   1.733   2.469  0.4303  0.2132  0.1173
 4839SOL    MW419090   6.394   1.788   2.526  0.0650  0.0608 -0.2641
 4840SOL     OW19091   6.091   0.066   3.661  0.0695 -0.2205 -0.1132
 4840SOL    HW219092   6.118   0.157   3.657 -1.1155  0.1592  0.0935
 4840SOL    HW319093   6.029   0.056   3.589  1.8953 -1.4919 -1.5965
 4840SOL    MW419094   6.087   0.077   3.651  0.0925  0.2451 -0.5209
 4841SOL     OW19095   1.802   2.107   3.715  0.4005 -0.4429  0.1088
 4841SOL    HW219096   1.862   2.174   3.750  1.0494 -0.0367 -1.6771
 4841SOL    HW319097   1.790   2.046   3.788  0.4882  1.1278  1.5199
 4841SOL    MW419098   1.809   2.108   3.729 -0.5703  0.5843 -0.2210
 4842SOL     OW19099   3.272   1.120   3.062 -0.4626 -0.8113  0.1419
 4842SOL    HW219100   3.299   1.108   3.154  2.8814  0.0448 -0.5884
 4842SOL    HW319101   3.274   1.214   3.049  2.7040 -0.9750 -1.6033
 4842SOL    MW419102   3.276   1.131   3.073 -0.7316 -0.7278  0.1297
 4843SOL     OW19103   3.746   6.259   4.010  0.6825  0.1579  0.2597
 4843SOL    HW219104   3.741   6.333   4.070  0.9587  0.1963  0.2336
 4843SOL    HW319105   3.666   6.209   4.027  0.5028  0.4541  0.2858
 4843SOL    MW419106   3.734   6.262   4.020 -0.4511 -0.0561 -0.7870
 4844SOL     OW19107   4.679   5.115   0.323  0.0972  0.0109 -0.4532
 4844SOL    HW219108   4.629   5.124   0.405  1.6824 -1.7760  0.8084
 4844SOL    HW319109   4.761   5.161   0.340  1.4226 -2.3395 -0.0687
 4844SOL    MW419110   4.683   5.122   0.336 -0.1646  0.2869 -0.0167
 4845SOL     OW19111   5.441   6.134   5.384  0.7317  0.2999 -0.5663
 4845SOL    HW219112   5.499   6.209   5.394  3.4997 -1.0542 -4.0291
 4845SOL    HW319113   5.487   6.061   5.426 -0.9974  0.0907  1.0848
 4845SOL    MW419114   5.455   6.134   5.391 -0.1383 -0.1210  0.1111
 4846SOL     OW19115   2.416   1.021   4.026  0.0173 -0.1985 -0.2176
 4846SOL    HW219116   2.437   1.112   4.002  0.0585 -0.5939 -1.7874
 4846SOL    HW319117   2.322   1.023   4.043  0.0780  0.2057  0.0992
 4846SOL    MW419118   2.406   1.033   4.025 -0.3752  0.5586  0.2978
 4847SOL     OW19119   0.132   4.010   4.239 -0.0946  0.1991  0.0821
 4847SOL    HW219120   0.156   4.068   4.167  0.7277  0.4513  0.5408
 4847SOL    HW319121   0.090   3.935   4.196 -1.5714  1.3130 -0.4755
 4847SOL    MW419122   0.130   4.008   4.223  0.1307 -0.4898  0.9277
 4848SOL     OW19123   0.369   3.336   3.816 -0.1427 -0.0642  0.1156
 4848SOL    HW219124   0.424   3.304   3.744  0.4671  0.6728  0.2430
 4848SOL    HW319125   0.322   3.259   3.847 -1.4331 -0.1943 -1.9479
 4848SOL    MW419126   0.370   3.322   3.810 -0.1570  1.1933  0.0070
 4849SOL     OW19127   5.452   6.080   3.621  0.5591 -0.6273  0.1395
 4849SOL    HW219128   5.406   6.161   3.641  1.5614 -0.3315  1.4249
 4849SOL    HW319129   5.391   6.029   3.569 -1.3720 -0.4348  2.0935
 4849SOL    MW419130   5.438   6.084   3.617  0.2719 -0.1897  0.0081
 4850SOL     OW19131   4.102   6.402   5.799  0.7664 -0.6152 -0.3449
 4850SOL    HW219132   4.010   6.401   5.771 -0.4988  4.1477  2.5574
 4850SOL    HW319133   4.107   6.332   5.864 -0.6422 -1.1774 -0.7814
 4850SOL    MW419134   4.090   6.392   5.804  0.4067 -0.1279  0.6549
 4851SOL     OW19135   0.231   1.948   0.804 -0.2277  0.9052 -0.1013
 4851SOL    HW219136   0.268   1.895   0.875 -0.5321  1.3735  0.4184
 4851SOL    HW319137   0.305   2.001   0.773 -0.2953  1.3597  0.4896
 4851SOL    MW419138   0.246   1.948   0.810 -0.0365 -0.4456 -0.8969
 4852SOL     OW19139   5.731   2.595   3.356  0.3505  0.3037 -0.2123
 4852SOL    HW219140   5.774   2.602   3.271  0.1878 -0.0322 -0.3200
 4852SOL    HW319141   5.803   2.597   3.420  0.5129 -0.1278 -0.3853
 4852SOL    MW419142   5.746   2.596   3.354  0.3026 -0.1419 -0.9731
 4853SOL     OW19143   0.392   3.820   0.218  0.0581 -0.2573 -0.3763
 4853SOL    HW219144   0.400   3.728   0.242 -0.9835 -0.7075 -1.6097
 4853SOL    HW319145   0.298   3.833   0.202  0.2156  0.9660 -0.4029
 4853SOL    MW419146   0.381   3.809   0.219 -0.0870  0.2546  0.0267
 4854SOL     OW19147   2.127   4.495   4.968 -0.1069  0.2466 -0.1986
 4854SOL    HW219148   2.042   4.536   4.981  0.1856  1.0450 -0.7397
 4854SOL    HW319149   2.148   4.456   5.053 -0.5501  0.9163  0.2277
 4854SOL    MW419150   2.119   4.495   4.981 -0.8046  0.5981  0.1753
 4855SOL     OW19151   2.917   3.522   5.577  0.0601  0.1292 -0.5680
 4855SOL    HW219152   2.945   3.468   5.503  1.2666 -1.1453  0.7659
 4855SOL    HW319153   2.991   3.580   5.594  0.2016 -0.2787  0.2510
 4855SOL    MW419154   2.930   3.522   5.570  0.2418 -0.3804 -0.5313
 4856SOL     OW19155   1.915   4.400   1.464  0.3751 -0.3622 -0.1361
 4856SOL    HW219156   1.837   4.436   1.421 -2.4674 -3.4762  1.8484
 4856SOL    HW319157   1.963   4.476   1.495 -1.8340  1.7488 -1.5130
 4856SOL    MW419158   1.911   4.415   1.462  0.4651 -0.5711 -0.0376
 4857SOL     OW19159   1.494   1.943   0.673 -0.9076  0.4509  0.6345
 4857SOL    HW219160   1.476   1.866   0.620 -2.7302  1.4064 -0.2244
 4857SOL    HW319161   1.536   1.909   0.752 -1.2378 -1.3603  0.0569
 4857SOL    MW419162   1.497   1.929   0.677  0.0033  0.2287  0.2139
 4858SOL     OW19163   6.408   1.235   0.914  0.7776  0.1248 -0.3820
 4858SOL    HW219164   6.412   1.279   0.829  0.3675 -0.4437 -0.7047
 4858SOL    HW319165   6.499   1.220   0.938  0.8813 -0.1585 -0.9556
 4858SOL    MW419166   6.420   1.239   0.906 -1.0629  0.1767 -0.4581
 4859SOL     OW19167   4.368   3.594   1.229  0.0919  0.4731 -0.0963
 4859SOL    HW219168   4.370   3.508   1.271 -0.5445  0.0384 -0.9209
 4859SOL    HW319169   4.329   3.652   1.294  0.9724  0.2514  0.6486
 4859SOL    MW419170   4.363   3.590   1.243  0.0398 -0.1292 -0.0145
 4860SOL     OW19171   3.954   4.145   0.817 -0.5152 -0.4599 -0.3722
 4860SOL    HW219172   3.895   4.070   0.827 -2.1739  0.7673 -0.4457
 4860SOL    HW319173   3.896   4.221   0.823  0.5968  0.7723 -3.3980
 4860SOL    MW419174   3.938   4.145   0.819 -0.7466 -0.6346 -0.1291
 4861SOL     OW19175   6.376   3.264   0.732  0.1021 -0.3863 -0.6955
 4861SOL    HW219176   6.413   3.177   0.747  0.3945 -0.2948 -0.8691
 4861SOL    HW319177   6.281   3.250   0.729  0.1796 -0.8109 -1.4240
 4861SOL    MW419178   6.368   3.251   0.733  0.4055  0.2767  0.6361
 4862SOL     OW19179   0.431   0.794   6.288 -0.3123 -0.1161 -0.1780
 4862SOL    HW219180   0.522   0.793   6.319 -0.7760 -0.3330  1.2036
 4862SOL    HW319181   0.411   0.703   6.269 -0.9749 -0.4150  1.7810
 4862SOL    MW419182   0.441   0.782   6.290 -0.0140 -0.7805  0.1273
 4863SOL     OW19183   4.820   3.390   0.333 -0.4784  0.1555  0.0575
 4863SOL    HW219184   4.735   3.400   0.291 -1.0054  2.1717  1.4493
 4863SOL    HW319185   4.811   3.313   0.389 -0.6020 -1.0033 -1.5190
 4863SOL    MW419186   4.808   3.381   0.335  0.1642 -0.0810  0.0030
 4864SOL     OW19187   5.516   4.735   2.507 -0.3547 -0.3979 -0.1460
 4864SOL    HW219188   5.587   4.724   2.444  0.0105 -2.5493  0.5434
 4864SOL    HW319189   5.458   4.661   2.490 -1.8564  0.7029  0.0498
 4864SOL    MW419190   5.518   4.723   2.497 -0.0351 -0.5437 -0.1194
 4865SOL     OW19191   4.418   0.166   1.964 -0.2014  0.0059 -0.1001
 4865SOL    HW219192   4.352   0.108   2.001  0.0636 -0.4032 -0.2607
 4865SOL    HW319193   4.380   0.198   1.882 -0.7672  0.8685  0.4740
 4865SOL    MW419194   4.404   0.163   1.958 -0.3467 -0.6357  0.5344
 4866SOL     OW19195   2.848   4.185   1.141 -0.1683 -0.1261  0.6010
 4866SOL    HW219196   2.820   4.265   1.097  1.5553 -0.7856 -1.9268
 4866SOL    HW319197   2.943   4.196   1.153  0.1462 -1.8647 -0.0244
 4866SOL    MW419198   2.857   4.197   1.137 -0.0096 -0.4547  0.0818
 4867SOL     OW19199   2.634   5.444   2.099 -0.8715 -0.0867 -0.5635
 4867SOL    HW219200   2.719   5.414   2.068  0.6351 -0.3882  3.3009
 4867SOL    HW319201   2.570   5.400   2.043  1.4203 -3.5429 -0.7126
 4867SOL    MW419202   2.636   5.435   2.088  0.3662 -0.2821  0.1078
 4868SOL     OW19203   3.610   0.874   0.658  0.6695 -0.0003  1.1725
 4868SOL    HW219204   3.605   0.830   0.574 -1.1899  0.3471  1.0480
 4868SOL    HW319205   3.619   0.967   0.637 -2.8309  0.4867  1.1513
 4868SOL    MW419206   3.610   0.880   0.644  0.4158  0.2799  0.0889
 4869SOL     OW19207   1.957   5.476   1.544 -0.4160  0.2239 -0.0772
 4869SOL    HW219208   1.897   5.424   1.490 -1.3948  1.5200 -0.2906
 4869SOL    HW319209   1.928   5.461   1.634  0.3043 -0.8137 -0.0087
 4869SOL    MW419210   1.945   5.467   1.549 -0.3374 -0.6845 -0.0146
 4870SOL     OW19211   3.531   0.610   4.041 -0.0165 -0.0331  0.2821
 4870SOL    HW219212   3.522   0.518   4.018  0.0933 -0.1504  0.7003
 4870SOL    HW319213   3.535   0.611   4.137  0.5536  0.3571  0.2597
 4870SOL    MW419214   3.530   0.598   4.051 -0.6435  0.2176  0.4338
 4871SOL     OW19215   3.264   5.891   1.492 -0.1988  0.8721 -0.6051
 4871SOL    HW219216   3.201   5.826   1.522  0.5968 -0.1294 -1.0384
 4871SOL    HW319217   3.212   5.953   1.440 -1.0940  1.0487  0.4681
 4871SOL    MW419218   3.249   5.891   1.489 -0.5296  0.0272  0.1552
 4872SOL     OW19219   0.077   2.002   3.590  0.1124 -0.1052 -0.3342
 4872SOL    HW219220  -0.009   1.984   3.554 -1.2878 -0.7503  2.9769
 4872SOL    HW319221   0.100   1.923   3.640  1.2098  1.1533  1.2848
 4872SOL    MW419222   0.069   1.990   3.592 -0.0945  0.0086 -0.7710
 4873SOL     OW19223   2.291   5.151   2.447  0.0897  0.0088  0.0287
 4873SOL    HW219224   2.360   5.107   2.496  1.7546  2.2957 -0.1404
 4873SOL    HW319225   2.323   5.154   2.357 -0.0605  1.3934  0.0070
 4873SOL    MW419226   2.304   5.145   2.441  0.0158 -0.0620 -0.5392
 4874SOL     OW19227   5.452   5.697   5.452  0.7256 -0.0847 -0.5974
 4874SOL    HW219228   5.424   5.768   5.394  1.4197  1.7795  1.2093
 4874SOL    HW319229   5.503   5.741   5.520  2.2699 -2.5103 -0.0769
 4874SOL    MW419230   5.455   5.712   5.454  0.0667 -0.1145 -0.0404
 4875SOL     OW19231   3.811   2.284   4.500 -0.1436  0.2424  0.0106
 4875SOL    HW219232   3.824   2.252   4.589  0.7974 -1.3983 -0.6778
 4875SOL    HW319233   3.896   2.321   4.474 -0.0556 -0.3895 -0.6240
 4875SOL    MW419234   3.824   2.285   4.508 -0.3344  0.4723 -0.2247
 4876SOL     OW19235   1.806   4.754   2.509  0.2271  0.1131 -0.3275
 4876SOL    HW219236   1.800   4.680   2.570  1.3594  0.8554  0.7282
 4876SOL    HW319237   1.716   4.780   2.493 -0.2333 -1.7616 -1.0787
 4876SOL    MW419238   1.793   4.747   2.515  0.0929  0.0487  0.1841
 4877SOL     OW19239   4.379   2.212   2.423  0.0779 -0.3969 -0.2060
 4877SOL    HW219240   4.360   2.267   2.499 -1.2534 -0.6210 -0.3634
 4877SOL    HW319241   4.470   2.184   2.437 -0.5931 -1.7192  2.1334
 4877SOL    MW419242   4.388   2.215   2.435  0.4228  0.0345 -0.0749
 4878SOL     OW19243   6.232   1.894   0.112 -0.3811  0.0179 -0.5027
 4878SOL    HW219244   6.188   1.820   0.070 -2.0468  0.3244  0.6037
 4878SOL    HW319245   6.221   1.879   0.206 -0.5565  1.5263 -0.2546
 4878SOL    MW419246   6.224   1.883   0.119 -0.4946 -0.0441 -0.4322
 4879SOL     OW19247   4.422   1.626   3.281 -0.0279  0.0103  0.2973
 4879SOL    HW219248   4.373   1.557   3.326 -2.2522  0.2626 -1.5203
 4879SOL    HW319249   4.354   1.686   3.248  1.7281  2.0438  0.1836
 4879SOL    MW419250   4.406   1.625   3.282 -0.5418 -0.0678 -0.5239
 4880SOL     OW19251   3.203   5.401   1.378 -0.0831 -0.0608 -0.1689
 4880SOL    HW219252   3.138   5.336   1.352 -1.4502  1.0651  0.3309
 4880SOL    HW319253   3.197   5.469   1.311 -0.4419  0.7148  0.6238
 4880SOL    MW419254   3.194   5.401   1.366  0.5341  0.5586  0.1191
 4881SOL     OW19255   2.565   3.514   1.220  0.5457 -0.7978  0.7168
 4881SOL    HW219256   2.482   3.546   1.255  0.7205 -1.3164  1.6270
 4881SOL    HW319257   2.541   3.441   1.163  0.3011 -0.2788  0.1448
 4881SOL    MW419258   2.551   3.509   1.217 -0.2616 -0.6006 -0.4581
 4882SOL     OW19259   3.743   5.572   6.042  0.1896  0.1233  0.1957
 4882SOL    HW219260   3.695   5.636   6.095  1.7705  3.0651 -1.6501
 4882SOL    HW319261   3.700   5.574   5.957 -0.9971 -2.9557  0.5966
 4882SOL    MW419262   3.731   5.581   6.038 -0.1124 -0.2796 -0.1842
 4883SOL     OW19263   3.766   1.842   0.114 -0.5041  0.6064 -0.1396
 4883SOL    HW219264   3.686   1.875   0.073 -0.0996  0.4883 -1.0557
 4883SOL    HW319265   3.780   1.756   0.074 -0.0607  0.5124  0.2007
 4883SOL    MW419266   3.757   1.835   0.103  0.1029  0.6936  0.2440
 4884SOL     OW19267   2.594   2.517   4.820  0.7320 -0.1446  0.3468
 4884SOL    HW219268   2.673   2.558   4.784  0.0136 -0.3140 -1.5339
 4884SOL    HW319269   2.621   2.429   4.845  0.5296 -1.3639 -3.2592
 4884SOL    MW419270   2.608   2.511   4.819 -0.4837  0.3085  0.2695
 4885SOL     OW19271   1.410   1.035   0.235  0.5718  0.2339 -0.9000
 4885SOL    HW219272   1.388   0.945   0.214  0.8621  0.5927 -3.0417
 4885SOL    HW319273   1.417   1.038   0.330 -2.2720 -1.3179 -0.5596
 4885SOL    MW419274   1.408   1.024   0.244 -0.6190  0.1945 -0.9721
 4886SOL     OW19275   3.174   5.982   4.191  0.1860 -0.3553  0.5281
 4886SOL    HW219276   3.156   6.076   4.187  1.7025 -0.0914 -1.2609
 4886SOL    HW319277   3.263   5.976   4.226 -0.1435 -1.1856  1.2755
 4886SOL    MW419278   3.183   5.994   4.195 -0.2923 -0.3777  1.2496
 4887SOL     OW19279   0.680   0.289   2.231  0.0030 -0.1766  0.0417
 4887SOL    HW219280   0.661   0.304   2.323  2.0205 -0.5862  0.5868
 4887SOL    HW319281   0.597   0.264   2.192 -0.5774 -1.6760  2.1128
 4887SOL    MW419282   0.667   0.288   2.238 -0.0334 -0.0497  0.0574
 4888SOL     OW19283   3.656   3.799   4.388 -0.2468  0.0113  0.6479
 4888SOL    HW219284   3.710   3.878   4.394  1.0623 -0.5545 -2.0809
 4888SOL    HW319285   3.712   3.729   4.423 -1.4205  0.1641  3.1071
 4888SOL    MW419286   3.671   3.800   4.394 -0.1740 -0.1331 -0.7363
 4889SOL     OW19287   2.836   5.327   1.355 -0.1004 -0.0597 -0.0335
 4889SOL    HW219288   2.840   5.254   1.417 -2.0128 -1.2144 -1.1791
 4889SOL    HW319289   2.908   5.311   1.294  1.7305  1.0262  1.6834
 4889SOL    MW419290   2.846   5.316   1.355 -0.3127 -0.2340 -0.1097
 4890SOL     OW19291   3.017   4.307   4.332 -0.0673  0.0681 -0.0677
 4890SOL    HW219292   3.032   4.323   4.239 -0.2980 -1.1462 -0.3335
 4890SOL    HW319293   2.934   4.350   4.351  0.1454  0.6035 -0.3458
 4890SOL    MW419294   3.008   4.315   4.322  0.2921  0.7768  0.4106
 4891SOL     OW19295   3.892   1.109   5.946 -0.0543  0.2580  0.5747
 4891SOL    HW219296   3.943   1.138   5.870 -1.7454 -0.5681 -0.9464
 4891SOL    HW319297   3.944   1.039   5.985 -0.1591 -0.8779 -1.2023
 4891SOL    MW419298   3.906   1.104   5.941  0.6133  0.4167  0.6701
 4892SOL     OW19299   2.028   6.392   3.945 -0.4774 -0.2550  0.0481
 4892SOL    HW219300   2.007   6.371   4.036 -0.0451 -1.1650 -0.0458
 4892SOL    HW319301   2.120   6.418   3.947  0.3788 -2.9483 -0.4759
 4892SOL    MW419302   2.037   6.393   3.957 -0.3411 -0.7089 -0.3840
 4893SOL     OW19303   2.256   1.417   4.148 -0.6048  0.1162  0.3772
 4893SOL    HW219304   2.216   1.330   4.148 -1.2088  0.3554  1.9790
 4893SOL    HW319305   2.215   1.462   4.074 -0.1998 -0.9866 -0.5418
 4893SOL    MW419306   2.245   1.411   4.138  0.4707 -0.0351 -0.2134
 4894SOL     OW19307   5.644   3.692   3.068  0.0439 -0.8064  0.3925
 4894SOL    HW219308   5.611   3.605   3.092  0.4880 -1.0436  0.1536
 4894SOL    HW319309   5.682   3.726   3.150 -1.4925 -0.1951  0.8760
 4894SOL    MW419310   5.645   3.685   3.082 -0.0036  0.2986  0.1382
 4895SOL     OW19311   1.511   1.592   4.870  0.3589 -0.3027 -0.2420
 4895SOL    HW219312   1.486   1.663   4.811 -1.0607 -1.4579 -1.1186
 4895SOL    HW319313   1.542   1.635   4.949  0.5820  1.2809 -1.1619
 4895SOL    MW419314   1.511   1.607   4.873  0.5948  0.0244  0.6904
 4896SOL     OW19315   5.913   2.905   1.859  0.3299 -0.1272 -0.2350
 4896SOL    HW219316   5.906   2.812   1.880  2.5900 -0.4153 -0.4476
 4896SOL    HW319317   5.983   2.909   1.793  1.6020  1.8715  1.1487
 4896SOL    MW419318   5.922   2.893   1.853  0.1589  0.1757  0.4815
 4897SOL     OW19319   5.915   0.879   1.788  0.6385  0.3840 -0.2860
 4897SOL    HW219320   5.966   0.808   1.826  0.0660  0.1160 -0.0144
 4897SOL    HW319321   5.973   0.917   1.722  1.2795  0.2416  0.1889
 4897SOL    MW419322   5.929   0.875   1.784 -0.1393  0.6691 -0.5923
 4898SOL     OW19323   3.092   1.032   3.276 -0.1367  0.2523  0.6832
 4898SOL    HW219324   3.100   1.125   3.258 -1.8473  0.3098  0.0205
 4898SOL    HW319325   3.111   1.023   3.370  0.3320  1.2049  0.6866
 4898SOL    MW419326   3.096   1.043   3.286  0.4833 -0.1482  0.3822
 4899SOL     OW19327   3.498   3.705   1.738 -0.1171 -0.3072  0.2900
 4899SOL    HW219328   3.592   3.697   1.724 -0.1026 -1.2583  0.8839
 4899SOL    HW319329   3.459   3.659   1.664 -0.1614  1.3590 -0.7743
 4899SOL    MW419330   3.505   3.698   1.726 -0.0871 -0.3786 -0.5169
 4900SOL     OW19331   4.103   2.545   2.403  0.4193  0.4443  0.0474
 4900SOL    HW219332   4.074   2.635   2.418 -2.0127 -0.4319  1.2108
 4900SOL    HW319333   4.052   2.515   2.328  0.0523 -0.4132  0.6201
 4900SOL    MW419334   4.093   2.553   2.395  0.4979 -0.3395 -0.0498
 4901SOL     OW19335   2.510   3.600   4.304  0.1127 -0.2255  0.4743
 4901SOL    HW219336   2.576   3.598   4.373 -1.6495  0.0033  2.2713
 4901SOL    HW319337   2.536   3.673   4.248  0.4475  0.9917  2.1459
 4901SOL    MW419338   2.522   3.609   4.306  0.0876 -0.0998 -0.4685
 4902SOL     OW19339   5.778   5.271   3.151  0.4802 -0.0984  0.0908
 4902SOL    HW219340   5.730   5.346   3.185  0.8921  0.5037 -0.6198
 4902SOL    HW319341   5.714   5.221   3.101  0.6760  1.0212 -1.3627
 4902SOL    MW419342   5.764   5.274   3.149 -0.7722 -0.3505  0.2279
 4903SOL     OW19343   1.922   4.611   1.032  0.4414 -0.4192  0.8756
 4903SOL    HW219344   1.872   4.534   1.004  3.0395 -1.3176 -1.7616
 4903SOL    HW319345   1.880   4.684   0.986  0.8242 -1.0028 -0.4536
 4903SOL    MW419346   1.910   4.611   1.022 -0.0230  0.1384  0.7417
 4904SOL     OW19347   4.455   3.351   5.474  0.6288 -0.3577 -0.0323
 4904SOL    HW219348   4.446   3.264   5.514  0.7501 -1.0728 -1.4904
 4904SOL    HW319349   4.378   3.399   5.505  0.7179 -0.8654  1.0345
 4904SOL    MW419350   4.443   3.345   5.483 -0.3057 -0.0911 -0.1745
 4905SOL     OW19351   4.798   1.210   4.367  0.1034 -0.1887 -0.3541
 4905SOL    HW219352   4.799   1.298   4.329 -1.3410 -0.3095 -0.7301
 4905SOL    HW319353   4.890   1.191   4.386  0.6879  0.5959 -2.1451
 4905SOL    MW419354   4.810   1.219   4.364 -0.4716 -0.5084  0.3214
 4906SOL     OW19355   0.580   0.342   2.479 -0.2750  0.0506  0.1874
 4906SOL    HW219356   0.531   0.422   2.461 -0.3221 -0.0955 -0.3314
 4906SOL    HW319357   0.629   0.362   2.559  1.1125  1.2340 -0.9027
 4906SOL    MW419358   0.580   0.355   2.487  0.3548  0.2641 -0.0232
 4907SOL     OW19359   2.636   4.177   3.623  0.1731  0.2990  0.0055
 4907SOL    HW219360   2.653   4.139   3.709  0.4795 -0.3401 -0.3319
 4907SOL    HW319361   2.551   4.143   3.598  0.4736 -0.2154 -0.3224
 4907SOL    MW419362   2.627   4.168   3.631 -0.2549  0.9510  0.2188
 4908SOL     OW19363   0.218   4.749   6.346  0.5378  0.5691  0.5166
 4908SOL    HW219364   0.162   4.803   6.402  0.7522 -0.2917  1.6103
 4908SOL    HW319365   0.274   4.702   6.408  1.4466  0.2947 -0.4866
 4908SOL    MW419366   0.218   4.750   6.362  0.2603 -0.1048 -0.1709
 4909SOL     OW19367   6.037   1.609   4.057  0.4346  0.5413  0.4124
 4909SOL    HW219368   5.988   1.585   4.136  1.8890  0.9576  1.4929
 4909SOL    HW319369   5.975   1.661   4.005 -0.7439 -0.2512  0.9817
 4909SOL    MW419370   6.022   1.613   4.061  0.4499  0.0034  0.1596
 4910SOL     OW19371   3.696   3.964   1.125  0.1034 -0.1808 -0.0251
 4910SOL    HW219372   3.738   3.891   1.169  0.8149 -0.6229 -1.3920
 4910SOL    HW319373   3.756   4.038   1.138 -0.4677  0.1167  1.0898
 4910SOL    MW419374   3.709   3.964   1.133 -0.2321 -0.0763 -0.1877
 4911SOL     OW19375   0.128   3.951   4.876 -0.1312 -0.0106 -0.0807
 4911SOL    HW219376   0.141   3.917   4.788  0.0307 -0.0241 -0.0524
 4911SOL    HW319377   0.211   3.995   4.897 -0.4803  0.7538 -0.2758
 4911SOL    MW419378   0.141   3.952   4.867 -0.1371 -0.0296  0.1821
 4912SOL     OW19379   4.187   6.194   5.950  0.5345 -0.3142  0.1992
 4912SOL    HW219380   4.279   6.168   5.945  0.5032 -0.3921  0.0138
 4912SOL    HW319381   4.138   6.112   5.936  0.4326 -0.0844 -0.9361
 4912SOL    MW419382   4.192   6.180   5.947 -0.4272  0.1832  0.2525
 4913SOL     OW19383   3.114   4.689   2.668  0.3485  0.0551 -0.3189
 4913SOL    HW219384   3.064   4.770   2.661  0.3359  0.0423 -0.3728
 4913SOL    HW319385   3.200   4.716   2.699  1.2765  0.4093 -2.9881
 4913SOL    MW419386   3.118   4.703   2.671  0.6121 -0.0231  0.2361
 4914SOL     OW19387   5.655   3.293   0.122 -0.3178 -0.0557 -0.0694
 4914SOL    HW219388   5.668   3.212   0.073 -0.6035 -0.4798  0.5380
 4914SOL    HW319389   5.671   3.363   0.059  0.4955 -0.5857 -0.4535
 4914SOL    MW419390   5.659   3.292   0.107 -0.4089  0.0315 -0.2854
 4915SOL     OW19391   5.376   0.081   1.373 -0.5950 -0.0216 -0.2987
 4915SOL    HW219392   5.290   0.063   1.337 -0.7921  1.9170 -0.9167
 4915SOL    HW319393   5.362   0.090   1.467 -1.4427  1.9308 -0.5541
 4915SOL    MW419394   5.363   0.080   1.381  0.3441 -0.0706 -0.3982
 4916SOL     OW19395   6.384   2.524   5.864  0.2466 -0.4299  0.3162
 4916SOL    HW219396   6.401   2.598   5.922  0.4951  0.1289 -0.4484
 4916SOL    HW319397   6.468   2.508   5.821 -0.1506 -0.2287 -0.5640
 4916SOL    MW419398   6.397   2.532   5.866  0.2309 -0.2976  0.2213
 4917SOL     OW19399   1.532   0.087   5.544  0.6073  0.1361  0.1324
 4917SOL    HW219400   1.484   0.117   5.621 -0.0744  0.4279 -0.3915
 4917SOL    HW319401   1.559  -0.002   5.565 -0.6568 -0.2443  0.2354
 4917SOL    MW419402   1.529   0.079   5.557 -0.4232  0.4682  0.3094
 4918SOL     OW19403   3.787   1.535   3.488  0.6784 -0.4631  0.5484
 4918SOL    HW219404   3.768   1.625   3.464 -0.9886  0.0871  3.4246
 4918SOL    HW319405   3.826   1.541   3.575  0.5816 -2.5162  0.7947
 4918SOL    MW419406   3.790   1.547   3.496  0.4956  0.4043 -0.2731
 4919SOL     OW19407   1.450   4.381   5.059  0.3246  0.1202 -0.4733
 4919SOL    HW219408   1.472   4.334   5.140  0.4729 -0.1682 -0.6828
 4919SOL    HW319409   1.364   4.348   5.035 -0.0087  0.6836 -0.0786
 4919SOL    MW419410   1.442   4.371   5.067 -0.3634  0.2486  0.0925
 4920SOL     OW19411   0.909   0.699   4.099  0.4728  0.3979 -0.3260
 4920SOL    HW219412   0.990   0.651   4.086 -1.3911 -2.4165 -2.8630
 4920SOL    HW319413   0.871   0.661   4.178  0.1321 -0.6975 -0.9930
 4920SOL    MW419414   0.915   0.688   4.108  0.2765  0.2946  0.1550
 4921SOL     OW19415   4.270   2.152   4.315  0.1931  0.6732 -0.1717
 4921SOL    HW219416   4.337   2.090   4.286 -0.3593  0.5065 -1.1341
 4921SOL    HW319417   4.214   2.163   4.239 -1.1633  0.4417  0.7681
 4921SOL    MW419418   4.272   2.145   4.301  0.1965 -0.2201  0.1977
 4922SOL     OW19419   1.858   5.604   2.467 -1.0566 -0.0908 -0.2354
 4922SOL    HW219420   1.820   5.671   2.410 -1.6403  0.2810  0.5830
 4922SOL    HW319421   1.950   5.601   2.442 -0.9326  1.3122 -0.0031
 4922SOL    MW419422   1.865   5.612   2.456 -0.0896  0.6287 -0.3953
 4923SOL     OW19423   5.431   0.264   5.457  0.4688  0.4502 -0.1609
 4923SOL    HW219424   5.417   0.184   5.406  2.3403 -0.1633  0.2200
 4923SOL    HW319425   5.519   0.256   5.492 -0.5975  0.9717  2.9777
 4923SOL    MW419426   5.441   0.253   5.455  0.0160  0.5870 -0.2697
 4924SOL     OW19427   4.118   5.925   1.009 -0.0091  0.1558  0.2724
 4924SOL    HW219428   4.159   5.968   1.083  1.6290 -0.5598 -0.1814
 4924SOL    HW319429   4.178   5.854   0.985 -0.6077  0.2009 -1.5712
 4924SOL    MW419430   4.131   5.921   1.015  0.2719  0.0865 -0.2752
 4925SOL     OW19431   6.374   4.523   5.137  0.4597  0.2371 -0.3751
 4925SOL    HW219432   6.461   4.560   5.153  0.4736  0.0204  0.0727
 4925SOL    HW319433   6.375   4.438   5.181  0.6630 -0.6293 -1.9766
 4925SOL    MW419434   6.386   4.517   5.145  0.5132 -0.1127 -0.3597
 4926SOL     OW19435   1.459   6.402   2.116 -0.3689 -0.2072  0.4861
 4926SOL    HW219436   1.385   6.365   2.164  0.3932 -0.9414  1.1514
 4926SOL    HW319437   1.531   6.340   2.133 -0.4284 -1.4083 -2.8876
 4926SOL    MW419438   1.459   6.389   2.124  0.0194 -0.8852 -0.0546
 4927SOL     OW19439   6.190   1.843   4.624 -0.1744  0.3411 -0.3119
 4927SOL    HW219440   6.154   1.798   4.548 -1.6546 -1.7843  1.5431
 4927SOL    HW319441   6.114   1.879   4.669  0.7159  1.8628  0.0646
 4927SOL    MW419442   6.175   1.842   4.620 -0.3324 -0.8531 -0.2941
 4928SOL     OW19443   5.646   6.387   3.677 -0.0526  0.5156 -0.4370
 4928SOL    HW219444   5.624   6.383   3.584 -2.3355 -1.5573  0.0950
 4928SOL    HW319445   5.701   6.310   3.692  0.5940  1.0293 -0.1209
 4928SOL    MW419446   5.650   6.376   3.667 -0.0591 -0.0287 -0.1656
 4929SOL     OW19447   4.213   1.221   3.592  0.1875 -0.5948  0.2389
 4929SOL    HW219448   4.122   1.230   3.565  0.0200  2.4081  1.3653
 4929SOL    HW319449   4.209   1.188   3.682  0.2376 -0.8186  0.1599
 4929SOL    MW419450   4.201   1.218   3.600  0.2189 -0.8705 -0.0243
 4930SOL     OW19451   5.510   2.325   2.491 -0.0616 -0.4665 -0.3470
 4930SOL    HW219452   5.442   2.322   2.424  0.2085  0.6770 -0.7052
 4930SOL    HW319453   5.463   2.346   2.572 -0.3626 -1.6400 -0.2039
 4930SOL    MW419454   5.495   2.328   2.493  0.5072  0.3308  0.2123
 4931SOL     OW19455   2.094   5.027   1.691  0.6094 -0.6956 -0.2326
 4931SOL    HW219456   2.121   5.118   1.681  0.3301 -0.3306  1.8552
 4931SOL    HW319457   2.021   5.017   1.631  0.4573  0.5512 -0.2885
 4931SOL    MW419458   2.088   5.038   1.682 -0.6365  0.3764  0.1666
 4932SOL     OW19459   5.783   1.765   0.269  0.0623 -0.1317 -0.2980
 4932SOL    HW219460   5.848   1.723   0.325  0.1107 -0.4183 -0.5686
 4932SOL    HW319461   5.818   1.757   0.180 -1.3680 -2.3006 -0.7396
 4932SOL    MW419462   5.796   1.758   0.265 -0.1133  0.1378  0.0904
 4933SOL     OW19463   5.972   1.899   5.263 -0.3518  0.1093  0.3429
 4933SOL    HW219464   6.026   1.960   5.212 -2.0596  0.8023 -0.7193
 4933SOL    HW319465   5.948   1.831   5.200 -0.0188 -0.6763  1.0425
 4933SOL    MW419466   5.976   1.898   5.248  0.1085 -0.4650  0.1463
 4934SOL     OW19467   3.359   3.831   3.830 -0.3135 -0.7034  0.2949
 4934SOL    HW219468   3.443   3.876   3.821  1.0085 -2.5452  2.3644
 4934SOL    HW319469   3.301   3.896   3.869  0.9253 -0.1177  1.2286
 4934SOL    MW419470   3.363   3.845   3.834 -0.3770  0.5957 -0.1493
 4935SOL     OW19471   0.762   0.437   1.812 -0.1920  0.5151 -0.3343
 4935SOL    HW219472   0.694   0.383   1.771  0.0866  1.5092 -2.2379
 4935SOL    HW319473   0.815   0.469   1.739  1.0178  1.5211  0.9208
 4935SOL    MW419474   0.760   0.434   1.797 -0.6350  0.0673 -0.3703
 4936SOL     OW19475   3.239   5.638   3.157 -0.4777  0.7528  0.4711
 4936SOL    HW219476   3.327   5.605   3.139 -0.3456  1.7041 -0.8066
 4936SOL    HW319477   3.190   5.561   3.185  0.6241  0.1111  0.7061
 4936SOL    MW419478   3.244   5.624   3.158  0.0008 -0.0360 -0.1893
 4937SOL     OW19479   5.935   4.403   4.112 -0.5934  0.6041  0.5666
 4937SOL    HW219480   5.992   4.394   4.188  0.0954  3.0752  0.4480
 4937SOL    HW319481   5.984   4.363   4.040  0.1982  1.0552  0.8388
 4937SOL    MW419482   5.949   4.397   4.112  0.3122 -0.4622  0.1133
 4938SOL     OW19483   0.020   5.183   6.380  0.4968  0.5363 -0.0416
 4938SOL    HW219484  -0.035   5.146   6.311  0.6571  3.2538 -1.7635
 4938SOL    HW319485  -0.038   5.241   6.429  1.0286  0.7511  0.3491
 4938SOL    MW419486   0.005   5.186   6.378  0.3376 -0.1093 -0.0012
 4939SOL     OW19487   2.116   0.684   2.084 -0.3010  0.2973  0.4211
 4939SOL    HW219488   2.061   0.682   2.163 -0.9844  4.2218  0.2329
 4939SOL    HW319489   2.066   0.634   2.019 -2.2855  1.2861  1.0944
 4939SOL    MW419490   2.102   0.677   2.086  0.6536 -0.1967 -0.1682
 4940SOL     OW19491   4.386   4.069   4.845 -0.3965  0.2403 -0.0271
 4940SOL    HW219492   4.397   4.123   4.767 -0.3157 -1.4823 -1.2794
 4940SOL    HW319493   4.438   4.113   4.912  0.3159  1.2726 -1.2022
 4940SOL    MW419494   4.394   4.082   4.843  0.2875  0.4625  0.0802
 4941SOL     OW19495   1.078   1.436   3.077  0.2588 -0.4382  0.5131
 4941SOL    HW219496   1.116   1.478   2.999  0.8737 -0.1303  0.9695
 4941SOL    HW319497   1.045   1.352   3.044 -1.2010  0.4657 -0.4509
 4941SOL    MW419498   1.079   1.430   3.062  0.3120  0.5244  0.2924
 4942SOL     OW19499   4.554   3.386   0.210 -0.4876 -0.7522 -0.2049
 4942SOL    HW219500   4.558   3.291   0.217  1.7368 -0.8513 -1.9950
 4942SOL    HW319501   4.527   3.403   0.120  0.3447  0.3025 -0.2779
 4942SOL    MW419502   4.551   3.376   0.199  0.1121  0.4476  0.4726
 4943SOL     OW19503   3.156   2.438   3.140 -0.2554 -0.4168  0.0234
 4943SOL    HW219504   3.248   2.422   3.162  0.2420 -0.2478 -1.7651
 4943SOL    HW319505   3.146   2.533   3.151  0.3540 -0.1256 -1.5795
 4943SOL    MW419506   3.167   2.448   3.145  0.0217 -0.3407  0.2935
 4944SOL     OW19507   0.603   5.944   3.382  0.0886 -0.4480 -0.2645
 4944SOL    HW219508   0.523   5.996   3.376  1.3924  1.7082 -0.0599
 4944SOL    HW319509   0.631   5.953   3.473  0.8023 -0.7732 -0.4424
 4944SOL    MW419510   0.596   5.952   3.393  0.1391  0.2081 -0.3805
 4945SOL     OW19511   1.880   0.773   5.965 -0.2943 -0.3913 -0.0945
 4945SOL    HW219512   1.846   0.790   6.053 -1.8912  3.3874 -1.2653
 4945SOL    HW319513   1.810   0.800   5.906  1.1045 -1.8687 -2.6164
 4945SOL    MW419514   1.866   0.779   5.969  0.2776  0.4592 -0.0219
 4946SOL     OW19515   4.077   0.171   0.217  0.0744 -0.1525 -0.6502
 4946SOL    HW219516   4.011   0.160   0.149  1.3922 -0.0670 -2.0081
 4946SOL    HW319517   4.050   0.249   0.265 -0.7642 -0.0812 -1.2223
 4946SOL    MW419518   4.065   0.180   0.215 -0.2677  0.0959 -0.0481
 4947SOL     OW19519   5.508   0.350   0.182  0.2922  0.7065 -0.0247
 4947SOL    HW219520   5.538   0.260   0.198  0.7104  1.0765  1.4236
 4947SOL    HW319521   5.428   0.339   0.129  1.2024 -0.4272 -1.2272
 4947SOL    MW419522   5.501   0.337   0.177  0.2643  0.7011 -0.3272
 4948SOL     OW19523   5.005   2.952   5.059  0.2703  0.4551 -0.9044
 4948SOL    HW219524   4.956   2.883   5.014 -0.8934 -0.9955  2.2343
 4948SOL    HW319525   4.944   3.026   5.063 -0.4291 -0.1483  0.0302
 4948SOL    MW419526   4.991   2.952   5.054  0.9861  0.1978 -0.5207
 4949SOL     OW19527   3.922   3.414   4.293 -0.4207  0.2727 -0.3352
 4949SOL    HW219528   3.949   3.460   4.214  3.7367  0.2638  0.8544
 4949SOL    HW319529   3.876   3.336   4.261  2.6835 -0.7092 -2.9963
 4949SOL    MW419530   3.920   3.410   4.279 -0.1689 -0.3887  0.1302
 4950SOL     OW19531   3.516   2.735   4.732 -0.6681  0.4732  0.3558
 4950SOL    HW219532   3.486   2.705   4.646  1.1925 -1.5649  0.3126
 4950SOL    HW319533   3.443   2.716   4.791 -1.7749  1.4223 -0.6628
 4950SOL    MW419534   3.503   2.728   4.728  0.0393  0.3266 -0.2974
 4951SOL     OW19535   3.354   6.109   6.226 -0.3230 -0.3593 -0.2595
 4951SOL    HW219536   3.443   6.141   6.244  0.0182  1.0134 -3.6609
 4951SOL    HW319537   3.302   6.140   6.300  1.8320 -0.5539  1.4550
 4951SOL    MW419538   3.359   6.117   6.238  0.4122  0.2780  0.3251
 4952SOL     OW19539   0.519   4.410   4.692  0.1321 -0.1487 -0.3383
 4952SOL    HW219540   0.423   4.419   4.696  0.0913  0.0599 -1.4575
 4952SOL    HW319541   0.537   4.388   4.601  1.0925 -1.0879  0.0561
 4952SOL    MW419542   0.508   4.408   4.681 -0.3560 -0.0439 -0.0858
 4953SOL     OW19543   3.763   0.341   4.842  0.2186  0.1632  0.4345
 4953SOL    HW219544   3.719   0.337   4.927 -1.2844 -0.6352 -0.3363
 4953SOL    HW319545   3.733   0.423   4.803 -1.7732 -0.9970 -0.6457
 4953SOL    MW419546   3.753   0.351   4.848 -0.0243  0.0143 -0.3659
 4954SOL     OW19547   0.051   3.250   5.894 -0.6769  0.1293 -0.1583
 4954SOL    HW219548   0.066   3.315   5.826 -1.0395 -0.1576 -0.5227
 4954SOL    HW319549  -0.045   3.247   5.904 -0.7312 -1.0497 -0.8574
 4954SOL    MW419550   0.040   3.258   5.887  0.1509  0.1974 -0.6640
 4955SOL     OW19551   4.490   3.661   5.146 -0.4819  0.1200  0.3234
 4955SOL    HW219552   4.451   3.621   5.224 -0.1478 -0.7309  0.0586
 4955SOL    HW319553   4.563   3.605   5.124  0.8242  1.6009  0.6999
 4955SOL    MW419554   4.494   3.648   5.154  0.9896  0.2837 -0.4813
 4956SOL     OW19555   2.031   3.787   3.439 -0.0652  0.4269  0.4783
 4956SOL    HW219556   2.051   3.695   3.457 -0.3946  0.6791  2.3017
 4956SOL    HW319557   1.960   3.808   3.500 -2.6806  0.8966 -2.4309
 4956SOL    MW419558   2.024   3.777   3.449  0.2636  0.5023 -0.2687
 4957SOL     OW19559   0.630   1.076   2.034 -0.0768  0.3899 -0.7565
 4957SOL    HW219560   0.541   1.041   2.024 -0.3216  0.7287  0.1600
 4957SOL    HW319561   0.617   1.169   2.055  0.4355  0.1592  0.7180
 4957SOL    MW419562   0.616   1.084   2.035  0.4604 -0.2936  0.2915
 4958SOL     OW19563   5.110   1.670   4.266  0.3117  0.3149 -0.2748
 4958SOL    HW219564   5.199   1.639   4.284  0.2848  0.3863 -0.0061
 4958SOL    HW319565   5.058   1.590   4.258  0.3734  0.2754 -0.2840
 4958SOL    MW419566   5.115   1.655   4.268  0.4594 -0.2082 -0.5257
 4959SOL     OW19567   5.456   5.757   3.392 -0.0649  0.2333  0.7933
 4959SOL    HW219568   5.407   5.678   3.371 -1.7476  1.7151 -1.1878
 4959SOL    HW319569   5.465   5.755   3.488 -2.5174 -0.9625  1.0514
 4959SOL    MW419570   5.451   5.746   3.402 -0.0171  0.3308  0.1671
 4960SOL     OW19571   5.419   0.951   0.071 -0.0755 -0.0025  0.4505
 4960SOL    HW219572   5.435   0.913  -0.015  1.8264  1.9597 -0.1332
 4960SOL    HW319573   5.497   0.929   0.122 -0.3732  0.3960  1.0912
 4960SOL    MW419574   5.431   0.943   0.067  0.0804 -0.3394 -0.3570
 4961SOL     OW19575   0.288   3.473   1.914  0.4211 -0.3662  0.2539
 4961SOL    HW219576   0.241   3.414   1.972 -0.0031 -0.5967 -0.3215
 4961SOL    HW319577   0.380   3.464   1.940  0.2442 -0.5198  0.8376
 4961SOL    MW419578   0.294   3.464   1.925  0.0801 -0.3113  0.1995
 4962SOL     OW19579   1.572   5.376   3.975  0.1666 -0.4816  0.1800
 4962SOL    HW219580   1.572   5.281   3.979 -2.1443 -0.5484 -0.3048
 4962SOL    HW319581   1.503   5.403   4.036  1.4375  0.9643  1.0722
 4962SOL    MW419582   1.563   5.367   3.984  0.4341  0.0944  0.4823
 4963SOL     OW19583   2.830   2.892   1.935  0.0404 -0.7791  0.1640
 4963SOL    HW219584   2.856   2.971   1.889  0.5846 -1.8498 -1.4444
 4963SOL    HW319585   2.823   2.918   2.027  0.0187  1.1524 -0.3603
 4963SOL    MW419586   2.832   2.906   1.941 -0.2921  0.3864  0.0633
 4964SOL     OW19587   5.171   5.904   4.707  0.4409  0.2127  0.0009
 4964SOL    HW219588   5.237   5.954   4.756  0.1590  1.2218 -0.6114
 4964SOL    HW319589   5.164   5.949   4.623 -0.5323 -0.2796 -0.2005
 4964SOL    MW419590   5.179   5.917   4.703  0.3677  0.0960 -0.0096
 4965SOL     OW19591   4.290   3.574   4.965  0.6030 -0.5706  0.5895
 4965SOL    HW219592   4.361   3.583   5.028 -0.1446 -0.5028  1.4301
 4965SOL    HW319593   4.302   3.649   4.906  0.8497 -0.1981  1.1035
 4965SOL    MW419594   4.301   3.585   4.965  0.0634  0.0120  0.2908
 4966SOL     OW19595   2.342   1.758   2.159 -0.4455  0.2941 -0.1522
 4966SOL    HW219596   2.413   1.700   2.188  1.5695  1.2078 -2.7827
 4966SOL    HW319597   2.340   1.747   2.064 -0.7717  3.5906 -0.6460
 4966SOL    MW419598   2.351   1.749   2.150 -0.7322 -0.3030 -0.0491
 4967SOL     OW19599   3.058   0.874   1.020  0.4675 -0.3421  0.3735
 4967SOL    HW219600   2.975   0.909   1.051  0.8502  0.2189  0.7846
 4967SOL    HW319601   3.080   0.928   0.945 -0.3712 -1.5864 -0.8255
 4967SOL    MW419602   3.050   0.886   1.014  0.2797 -0.1552  0.2211
 4968SOL     OW19603   1.058   5.468   2.217 -0.1144  0.0018 -0.3852
 4968SOL    HW219604   1.128   5.429   2.267  0.6519  2.0126  0.2189
 4968SOL    HW319605   1.016   5.395   2.172  0.8192 -1.5309  1.1336
 4968SOL    MW419606   1.061   5.453   2.217  0.1687 -0.5552 -0.0029
 4969SOL     OW19607   3.484   0.062   4.930  0.1975  0.0576 -0.3158
 4969SOL    HW219608   3.453   0.076   4.840 -5.0515  0.6084  1.2235
 4969SOL    HW319609   3.493  -0.033   4.938 -0.4187 -0.0900 -1.1882
 4969SOL    MW419610   3.481   0.052   4.919 -0.3629  0.2702  0.6861
 4970SOL     OW19611   0.705   3.059   1.524 -0.1978 -1.1404  0.1735
 4970SOL    HW219612   0.611   3.077   1.525  0.0986  0.6091  0.4811
 4970SOL    HW319613   0.723   3.029   1.435 -0.8381 -0.1221 -0.3220
 4970SOL    MW419614   0.695   3.057   1.512  0.7454  0.3151  0.2490
 4971SOL     OW19615   4.517   0.394   2.084  0.3818 -0.1042  0.1999
 4971SOL    HW219616   4.470   0.319   2.048  2.3532 -1.1533 -0.3338
 4971SOL    HW319617   4.601   0.394   2.038  0.8688  1.7698  0.9995
 4971SOL    MW419618   4.522   0.384   2.074 -0.0387  0.3266  0.4949
 4972SOL     OW19619   5.188   3.591   4.888 -0.3247 -0.1122 -0.3505
 4972SOL    HW219620   5.276   3.552   4.893 -0.2806  0.0142 -0.1239
 4972SOL    HW319621   5.202   3.683   4.911 -0.2816  0.2615 -1.7823
 4972SOL    MW419622   5.202   3.598   4.892 -0.2145  0.4325 -0.3582
 4973SOL     OW19623   6.414   2.299   6.031  0.3336  0.0272 -0.2657
 4973SOL    HW219624   6.378   2.376   5.986 -1.5256 -0.5802  0.0719
 4973SOL    HW319625   6.432   2.329   6.120  0.6945  0.3522 -0.4466
 4973SOL    MW419626   6.411   2.313   6.036 -0.0063 -0.1431  0.0669
 4974SOL     OW19627   1.035   3.157   4.457  0.6503  0.2108  0.1755
 4974SOL    HW219628   0.944   3.154   4.428  0.2540  1.3170  1.2018
 4974SOL    HW319629   1.067   3.242   4.426  1.4652 -0.3423 -0.5265
 4974SOL    MW419630   1.027   3.168   4.449 -0.3148  0.0192 -0.0331
 4975SOL     OW19631   4.413   0.412   4.366 -0.0341 -0.4457 -0.3032
 4975SOL    HW219632   4.492   0.441   4.411  0.3747 -1.0774 -0.6141
 4975SOL    HW319633   4.397   0.324   4.399 -0.6687 -0.2892 -0.1701
 4975SOL    MW419634   4.421   0.404   4.377  0.5568 -0.0461 -0.3581
 4976SOL     OW19635   1.748   1.524   2.850  0.2298 -0.0144 -0.3464
 4976SOL    HW219636   1.813   1.468   2.808  0.6037  0.4721 -0.4076
 4976SOL    HW319637   1.744   1.603   2.796  2.1618  1.4962  1.5795
 4976SOL    MW419638   1.756   1.527   2.837  0.0523  0.7455 -0.0383
 4977SOL     OW19639   4.115   4.970   4.896 -0.2589  0.3668  0.2663
 4977SOL    HW219640   4.062   4.953   4.817 -0.0429  0.6331  0.0616
 4977SOL    HW319641   4.080   5.052   4.931 -1.5843 -0.6704  1.4924
 4977SOL    MW419642   4.103   4.978   4.890 -0.5396  0.5073  0.1418
 4978SOL     OW19643   2.005   3.712   3.786  0.1603 -0.0434 -0.2158
 4978SOL    HW219644   1.962   3.729   3.702  1.6174  1.0052 -0.7916
 4978SOL    HW319645   2.088   3.672   3.762  0.8468  0.7967  0.6753
 4978SOL    MW419646   2.010   3.709   3.771 -0.6395 -0.5908 -0.0997
 4979SOL     OW19647   3.363   6.022   5.410  0.4622  0.1629 -0.7665
 4979SOL    HW219648   3.437   5.979   5.366 -0.2161 -2.3336  0.3739
 4979SOL    HW319649   3.322   6.074   5.341  2.1838  0.1435 -1.8817
 4979SOL    MW419650   3.367   6.023   5.395 -0.0217 -0.2010 -0.0785
 4980SOL     OW19651   0.149   3.375   0.917  0.0672  0.6758  0.1097
 4980SOL    HW219652   0.225   3.395   0.862 -1.3987  1.4595 -1.7582
 4980SOL    HW319653   0.079   3.357   0.854 -1.2549 -0.2250  1.7714
 4980SOL    MW419654   0.150   3.375   0.901 -0.4311 -0.2081  0.4057
 4981SOL     OW19655   4.955   0.851   3.020 -0.0704 -0.2465 -0.2310
 4981SOL    HW219656   5.012   0.806   2.957  0.9781  0.1663  0.3984
 4981SOL    HW319657   4.948   0.940   2.988 -0.6972 -0.3903 -0.5152
 4981SOL    MW419658   4.961   0.856   3.008 -0.3331 -0.0699  0.1438
 4982SOL     OW19659   5.101   0.622   3.670 -0.0382  0.5654 -1.0362
 4982SOL    HW219660   5.081   0.632   3.763 -1.8826  0.8571 -1.4188
 4982SOL    HW319661   5.083   0.530   3.652  3.4659 -0.3496 -0.4739
 4982SOL    MW419662   5.096   0.611   3.680 -0.4675 -0.2741 -0.4373
 4983SOL     OW19663   4.794   0.918   1.624  0.1662  0.3796  0.3642
 4983SOL    HW219664   4.797   0.869   1.542  0.1553  1.5702 -0.3663
 4983SOL    HW319665   4.780   0.852   1.691 -3.0550 -0.3535 -0.8695
 4983SOL    MW419666   4.793   0.903   1.622  0.3131  0.5615 -0.2815
 4984SOL     OW19667   2.089   5.200   6.232  0.1135 -0.7383  0.0458
 4984SOL    HW219668   2.023   5.262   6.261 -0.3350 -0.4261 -1.5312
 4984SOL    HW319669   2.141   5.248   6.167  1.2593 -1.2889  0.5117
 4984SOL    MW419670   2.087   5.214   6.227  0.7325  0.3477 -0.4725
 4985SOL     OW19671   3.193   4.980   1.945  0.5410  0.1083  0.2536
 4985SOL    HW219672   3.100   4.996   1.956  0.6537  0.9266  0.0694
 4985SOL    HW319673   3.235   5.063   1.966  1.2663 -0.3801  0.8174
 4985SOL    MW419674   3.186   4.993   1.949  0.2628  0.1451  0.2125
 4986SOL     OW19675   3.301   0.334   0.120 -0.2321 -0.0316 -0.1390
 4986SOL    HW219676   3.294   0.313   0.213  0.6188  0.5611  0.0798
 4986SOL    HW319677   3.212   0.352   0.091 -0.3821  0.8473  0.8330
 4986SOL    MW419678   3.289   0.333   0.128  0.1113  0.1727  0.1692
 4987SOL     OW19679   1.182   4.312   2.613 -0.1722  0.1094  0.3309
 4987SOL    HW219680   1.156   4.404   2.606 -0.2083  0.1022  0.3723
 4987SOL    HW319681   1.278   4.314   2.611 -0.1756  0.0443 -1.0916
 4987SOL    MW419682   1.191   4.325   2.612 -0.5203 -0.2225 -0.3434
 4988SOL     OW19683   5.841   5.679   0.439  1.0120 -0.3440 -0.4729
 4988SOL    HW219684   5.883   5.760   0.409 -0.4451  0.4382 -0.4956
 4988SOL    HW319685   5.766   5.709   0.489 -0.5167 -1.6859 -1.8733
 4988SOL    MW419686   5.837   5.694   0.442  0.0889 -0.1819  0.1374
 4989SOL     OW19687   0.504   4.361   0.730  0.0647 -0.1583  0.1621
 4989SOL    HW219688   0.581   4.373   0.785  0.6257  0.3112 -0.6996
 4989SOL    HW319689   0.536   4.377   0.641 -0.9848 -0.1572 -0.2230
 4989SOL    MW419690   0.518   4.364   0.726 -1.1240 -0.6596  0.1190
 4990SOL     OW19691   0.358   5.339   4.091 -0.0285 -0.9837 -0.0900
 4990SOL    HW219692   0.398   5.389   4.020  1.2535 -0.1241  1.1819
 4990SOL    HW319693   0.285   5.394   4.120 -0.1082 -0.9982 -0.2572
 4990SOL    MW419694   0.353   5.353   4.085  0.2980 -0.6223  0.1231
 4991SOL     OW19695   0.682   1.578   5.224 -0.2762  0.0372  0.5748
 4991SOL    HW219696   0.591   1.606   5.212  0.0898  1.2294  0.5421
 4991SOL    HW319697   0.719   1.577   5.136  0.0519  0.6070  0.7089
 4991SOL    MW419698   0.675   1.581   5.211 -0.1556 -0.1111 -0.3806
 4992SOL     OW19699   6.231   3.361   1.431 -0.4199 -0.2838 -0.4833
 4992SOL    HW219700   6.243   3.278   1.478  0.3918 -0.1506 -0.4454
 4992SOL    HW319701   6.298   3.419   1.467 -0.9686  0.3918 -0.5254
 4992SOL    MW419702   6.241   3.358   1.442 -0.4525 -0.1927 -0.2007
 4993SOL     OW19703   6.131   1.799   5.492  0.0565  0.6477  0.6573
 4993SOL    HW219704   6.143   1.714   5.450 -0.1533 -0.4466  2.6967
 4993SOL    HW319705   6.076   1.848   5.431 -1.7696 -1.5018  0.4287
 4993SOL    MW419706   6.125   1.794   5.478 -0.8269  0.0527  0.4430
 4994SOL     OW19707   2.479   0.684   5.571 -0.2194 -0.0293 -0.1454
 4994SOL    HW219708   2.573   0.680   5.556  0.0261 -2.8327  1.4039
 4994SOL    HW319709   2.446   0.601   5.537 -1.8566  0.1722  0.8507
 4994SOL    MW419710   2.487   0.672   5.565 -0.1147 -0.0356  0.7623
 4995SOL     OW19711   3.063   3.746   3.415 -0.2472  0.1459 -0.1217
 4995SOL    HW219712   3.141   3.747   3.471  0.0730 -1.0706 -0.5085
 4995SOL    HW319713   2.997   3.792   3.466  0.5280  0.5802  0.5173
 4995SOL    MW419714   3.065   3.752   3.429  0.0907  0.0296 -0.3922
 4996SOL     OW19715   3.080   4.063   5.502 -0.4250  0.6403  0.7155
 4996SOL    HW219716   3.060   3.994   5.439 -0.5513  1.6686 -0.4051
 4996SOL    HW319717   2.998   4.113   5.509 -1.2801 -0.9140  3.6889
 4996SOL    MW419718   3.066   4.060   5.495  0.0982 -0.2415  0.2258
 4997SOL     OW19719   4.901   4.915   2.573  0.1645 -0.1574 -0.4151
 4997SOL    HW219720   4.826   4.869   2.535 -0.5865  0.4870  0.2286
 4997SOL    HW319721   4.893   4.899   2.667  0.9350 -0.2146 -0.3555
 4997SOL    MW419722   4.890   4.907   2.581 -0.7559  0.4857  0.2436
 4998SOL     OW19723   2.241   1.843   4.070  0.2950 -0.4984 -0.2979
 4998SOL    HW219724   2.293   1.906   4.118 -1.3885 -0.2344  1.3158
 4998SOL    HW319725   2.261   1.759   4.111 -0.5299 -0.3916  0.3464
 4998SOL    MW419726   2.250   1.840   4.082 -0.0145  0.2376 -0.1161
 4999SOL     OW19727   3.756   2.401   0.817  0.1674  0.6866 -0.0373
 4999SOL    HW219728   3.841   2.389   0.860 -0.9529  0.2336  2.1731
 4999SOL    HW319729   3.724   2.312   0.802 -1.3426  0.7730  2.2287
 4999SOL    MW419730   3.763   2.388   0.821 -0.4445  0.4559  0.2497
 5000SOL     OW19731   0.027   1.719   5.513 -0.6505 -0.6081 -0.0053
 5000SOL    HW219732   0.017   1.698   5.606 -1.2871  0.7216  0.2623
 5000SOL    HW319733  -0.046   1.674   5.470 -1.0667 -0.2622  0.3259
 5000SOL    MW419734   0.016   1.710   5.520  0.1763 -0.2879  0.0888
 5001SOL     OW19735   1.815   3.836   3.609  0.6256 -0.3672  0.1077
 5001SOL    HW219736   1.741   3.787   3.645 -0.2178  0.1637 -0.8571
 5001SOL    HW319737   1.794   3.927   3.629 -0.3524  0.0612 -2.4499
 5001SOL    MW419738   1.802   3.842   3.617  0.9253 -0.9390  0.2285
 5002SOL     OW19739   4.642   5.015   3.815  0.1376  0.1034 -0.3782
 5002SOL    HW219740   4.607   5.068   3.744 -0.8110 -0.1859 -0.1429
 5002SOL    HW319741   4.567   5.001   3.873  0.8819  0.2829  0.6465
 5002SOL    MW419742   4.627   5.020   3.813  0.1328  0.2021 -0.5500
 5003SOL     OW19743   5.931   3.480   4.856  0.0273 -0.2050  0.0384
 5003SOL    HW219744   5.907   3.491   4.948 -0.5755 -0.3536 -0.0931
 5003SOL    HW319745   5.855   3.437   4.817 -0.8704  2.2151 -1.0933
 5003SOL    MW419746   5.917   3.476   4.863 -0.0351  0.5989 -0.2795
 5004SOL     OW19747   2.068   2.838   1.586 -0.2943 -0.2227 -0.0432
 5004SOL    HW219748   2.002   2.907   1.592 -0.2312 -0.2547  1.1636
 5004SOL    HW319749   2.151   2.884   1.596 -0.1885 -0.3301 -0.4173
 5004SOL    MW419750   2.070   2.853   1.588  0.3100  0.3625  0.1258
 5005SOL     OW19751   2.988   5.765   0.931 -0.1676  0.3161 -0.5663
 5005SOL    HW219752   2.933   5.726   0.999 -0.1640 -0.2041 -0.8487
 5005SOL    HW319753   3.042   5.692   0.900  0.9621  0.9102 -0.0269
 5005SOL    MW419754   2.988   5.750   0.936  0.4886  0.1590 -0.3528
 5006SOL     OW19755   1.160   4.735   3.078 -0.8539  0.0666 -0.7610
 5006SOL    HW219756   1.135   4.818   3.037 -1.0590  0.4963  0.1958
 5006SOL    HW319757   1.221   4.695   3.016  0.0220  1.3892 -0.8058
 5006SOL    MW419758   1.165   4.741   3.064 -0.0846  0.3130 -0.1923
 5007SOL     OW19759   3.723   0.163   4.639 -0.2190 -0.2112  0.1924
 5007SOL    HW219760   3.738   0.226   4.710  0.5189  0.6019 -0.6459
 5007SOL    HW319761   3.719   0.217   4.560  2.2295 -1.3295 -0.7967
 5007SOL    MW419762   3.725   0.179   4.638 -0.3964  0.1134 -0.1805
 5008SOL     OW19763   5.830   1.014   1.465 -0.0874 -0.3265  0.0659
 5008SOL    HW219764   5.742   0.977   1.456 -0.0852 -0.5903  1.0841
 5008SOL    HW319765   5.887   0.949   1.423 -0.1151 -1.4089  1.6280
 5008SOL    MW419766   5.826   1.000   1.458  0.3404  0.2470  0.0254
 5009SOL     OW19767   5.746   6.253   2.506 -0.2874  0.4213  0.1270
 5009SOL    HW219768   5.711   6.260   2.595  0.4837  1.4901  0.3590
 5009SOL    HW319769   5.670   6.269   2.449 -0.3961  1.6827  0.6138
 5009SOL    MW419770   5.731   6.256   2.510 -0.1713  0.1642  0.6380
 5010SOL     OW19771   4.841   4.330   0.164  0.3796 -0.6926 -0.4274
 5010SOL    HW219772   4.846   4.316   0.259  0.5421  1.3046 -0.0996
 5010SOL    HW319773   4.801   4.250   0.130  0.6029 -1.5787  1.2820
 5010SOL    MW419774   4.836   4.317   0.172 -0.2389  0.6921  0.1131
 5011SOL     OW19775   5.239   0.120   6.370 -0.9914 -0.3843  0.0664
 5011SOL    HW219776   5.321   0.132   6.323 -1.5413  0.7781 -0.6373
 5011SOL    HW319777   5.176   0.175   6.323 -1.4871  1.1687  2.3582
 5011SOL    MW419778   5.241   0.129   6.358  0.1271  0.2695 -0.3304
 5012SOL     OW19779   0.437   0.784   0.329 -0.0949 -0.0724  0.0367
 5012SOL    HW219780   0.396   0.828   0.254 -3.2463 -0.1838  1.5359
 5012SOL    HW319781   0.380   0.805   0.403  1.6930 -1.7347  2.0161
 5012SOL    MW419782   0.424   0.793   0.329 -0.2025  0.2457 -0.2697
 5013SOL     OW19783   2.319   4.134   1.364  1.0679  0.1749 -0.8201
 5013SOL    HW219784   2.352   4.084   1.289  0.3835 -0.0151 -1.0022
 5013SOL    HW319785   2.225   4.144   1.347  0.4711 -1.6716  1.0240
 5013SOL    MW419786   2.311   4.129   1.352  0.1201 -0.2406  0.1054
 5014SOL     OW19787   2.456   4.549   2.339  0.1540  0.2637  0.3025
 5014SOL    HW219788   2.426   4.625   2.290 -0.8406 -1.5748 -2.1456
 5014SOL    HW319789   2.547   4.536   2.310  0.4235  0.6474  0.9444
 5014SOL    MW419790   2.464   4.557   2.329 -0.7083 -0.3535  0.0794
 5015SOL     OW19791   0.614   4.457   4.081  0.1837  0.1570 -0.1538
 5015SOL    HW219792   0.672   4.397   4.127 -0.2148  1.6043  2.4402
 5015SOL    HW319793   0.643   4.544   4.108 -3.4492  0.9507  1.8051
 5015SOL    MW419794   0.625   4.461   4.090  0.6171  0.1019  0.0340
 5016SOL     OW19795   4.537   0.536   0.791 -0.2957  0.6262 -0.4480
 5016SOL    HW219796   4.522   0.548   0.698 -0.0809  1.4789 -0.3839
 5016SOL    HW319797   4.483   0.603   0.833  1.4661  1.8943 -0.0876
 5016SOL    MW419798   4.528   0.547   0.785 -0.5199 -0.3172 -0.2309
 5017SOL     OW19799   4.679   4.937   4.629 -0.0264  0.4664 -0.5311
 5017SOL    HW219800   4.750   4.921   4.568  0.1226  1.3230 -0.5909
 5017SOL    HW319801   4.716   4.918   4.715 -0.5082 -1.6531 -0.7499
 5017SOL    MW419802   4.693   4.933   4.632 -0.0006 -0.0958  0.2044
 5018SOL     OW19803   4.142   1.670   2.229 -0.3805  0.1706  0.3019
 5018SOL    HW219804   4.169   1.754   2.191  0.2799  0.3282  1.0789
 5018SOL    HW319805   4.111   1.692   2.317  0.9732 -0.5222  0.9851
 5018SOL    MW419806   4.142   1.684   2.235 -0.2426  0.2300 -0.1844
 5019SOL     OW19807   0.706   3.588   4.924  0.2835 -0.4692 -0.6288
 5019SOL    HW219808   0.707   3.649   4.850  0.2094  1.3535  0.8265
 5019SOL    HW319809   0.793   3.598   4.963 -0.0055 -0.7233  0.0795
 5019SOL    MW419810   0.718   3.597   4.919  0.4971  0.3555 -0.1714
 5020SOL     OW19811   6.026   1.473   6.113  0.6178 -0.2129 -0.2747
 5020SOL    HW219812   6.076   1.553   6.127 -0.9828  0.4756  1.9792
 5020SOL    HW319813   5.946   1.502   6.069 -0.4725 -0.3504  1.5433
 5020SOL    MW419814   6.022   1.487   6.109  0.0732 -0.2111 -0.2693
 5021SOL     OW19815   2.483   3.604   5.519  0.7925 -0.0140 -0.3768
 5021SOL    HW219816   2.426   3.662   5.570  1.0436  1.7915 -2.0452
 5021SOL    HW319817   2.424   3.539   5.481  0.3588 -0.2597  0.6987
 5021SOL    MW419818   2.468   3.603   5.521 -0.0373  0.1727 -0.3638
 5022SOL     OW19819   4.999   0.835   5.943 -0.0788  0.1908  0.7868
 5022SOL    HW219820   4.999   0.914   5.997 -0.1235  0.5410  0.2731
 5022SOL    HW319821   4.960   0.862   5.860  0.1785 -0.2971  0.5033
 5022SOL    MW419822   4.994   0.849   5.939  0.3844  0.3355  0.0525
 5023SOL     OW19823   0.551   1.523   1.970  0.1954  0.5444 -0.7882
 5023SOL    HW219824   0.627   1.579   1.986  0.1518  0.1657  1.0194
 5023SOL    HW319825   0.477   1.583   1.966  0.0196  0.6754  2.0425
 5023SOL    MW419826   0.551   1.538   1.972  0.2424 -0.1721  0.2300
 5024SOL     OW19827   6.432   0.107   4.762 -0.3448  0.0519  0.0912
 5024SOL    HW219828   6.364   0.042   4.748  0.4346 -0.4766 -1.5882
 5024SOL    HW319829   6.514   0.059   4.750  0.3443  0.7022  1.9123
 5024SOL    MW419830   6.434   0.092   4.758  0.3000 -0.0343 -0.0968
 5025SOL     OW19831   1.121   0.068   6.291  0.4341 -0.6847  0.4822
 5025SOL    HW219832   1.174   0.139   6.254  1.0620 -0.5603  1.5897
 5025SOL    HW319833   1.035   0.106   6.303  0.8281 -0.0177  1.2912
 5025SOL    MW419834   1.117   0.082   6.288  0.0628 -0.1697  0.0597
 5026SOL     OW19835   3.420   3.680   4.325 -0.3774 -0.5083  0.2940
 5026SOL    HW219836   3.494   3.715   4.374  0.1050 -0.4058 -0.4885
 5026SOL    HW319837   3.372   3.757   4.295 -0.4755 -0.5645  0.3051
 5026SOL    MW419838   3.424   3.695   4.327  0.5044  0.5718 -0.0770
 5027SOL     OW19839   2.119   5.461   0.672  0.2457  0.0670  0.2244
 5027SOL    HW219840   2.099   5.545   0.714  0.1664 -0.6552  1.7107
 5027SOL    HW319841   2.118   5.480   0.579  0.7304  1.8307  0.5358
 5027SOL    MW419842   2.116   5.474   0.666  0.0198 -0.0301 -0.1815
 5028SOL     OW19843   4.672   1.070   0.211  0.3389  0.1060  0.1596
 5028SOL    HW219844   4.580   1.042   0.205 -0.0684  1.4476 -0.4926
 5028SOL    HW319845   4.703   1.033   0.293 -1.4070  1.2561  1.4221
 5028SOL    MW419846   4.664   1.062   0.221 -0.3530 -0.0418  0.3675
 5029SOL     OW19847   0.730   4.467   0.135 -0.1442 -0.0658  0.8033
 5029SOL    HW219848   0.736   4.532   0.206 -2.5672  1.1038  0.0403
 5029SOL    HW319849   0.672   4.400   0.170  0.5391 -0.7012  0.7448
 5029SOL    MW419850   0.723   4.467   0.149 -0.3045  0.4583 -0.3936
 5030SOL     OW19851   2.791   1.711   2.093 -0.1730 -0.1189  0.9272
 5030SOL    HW219852   2.769   1.723   2.185  0.3389 -0.2965  1.0768
 5030SOL    HW319853   2.739   1.636   2.065  0.6727 -0.9112  1.4355
 5030SOL    MW419854   2.781   1.703   2.101  0.1361 -0.3512 -0.7079
 5031SOL     OW19855   1.436   0.629   4.398  0.1891  0.5732  0.1054
 5031SOL    HW219856   1.429   0.655   4.306 -0.4100 -0.6228 -0.2075
 5031SOL    HW319857   1.482   0.701   4.440  0.5781  1.0812 -1.1573
 5031SOL    MW419858   1.441   0.642   4.391 -0.3571 -0.1993 -0.0625
 5032SOL     OW19859   1.327   5.041   0.818 -0.6744 -0.0024  0.0848
 5032SOL    HW219860   1.363   4.998   0.896  0.7601 -0.2444 -0.6710
 5032SOL    HW319861   1.404   5.066   0.768 -1.5673  0.9389 -0.8413
 5032SOL    MW419862   1.342   5.039   0.822  0.3193 -0.2257  0.7549
 5033SOL     OW19863   5.863   4.492   5.159  0.6462 -0.3010  0.4510
 5033SOL    HW219864   5.935   4.554   5.170  0.6064 -0.1233 -0.2393
 5033SOL    HW319865   5.846   4.458   5.247  0.8621  0.4482  0.7845
 5033SOL    MW419866   5.870   4.496   5.172  0.8802 -0.3346  0.1313
 5034SOL     OW19867   5.669   1.427   0.853  0.2378  0.2797 -0.0515
 5034SOL    HW219868   5.660   1.521   0.873 -0.2063  0.5627 -1.4499
 5034SOL    HW319869   5.758   1.419   0.818  0.7257 -0.0735  1.1860
 5034SOL    MW419870   5.680   1.439   0.851 -0.0633  0.2100 -0.2564
 5035SOL     OW19871   6.275   5.813   4.766  0.0290  0.8845 -0.7395
 5035SOL    HW219872   6.367   5.837   4.778  0.3272 -0.8389  0.8759
 5035SOL    HW319873   6.278   5.728   4.721 -0.7108  0.3954  0.1006
 5035SOL    MW419874   6.288   5.805   4.761  0.4166  0.0809  0.4711
 5036SOL     OW19875   2.853   4.097   3.459 -0.4967  0.3787 -0.0629
 5036SOL    HW219876   2.892   4.159   3.397  1.0849  0.4377  0.9352
 5036SOL    HW319877   2.769   4.136   3.483 -0.1574  1.4202 -0.5304
 5036SOL    MW419878   2.847   4.110   3.454  0.1015  0.3804  0.2232
 5037SOL     OW19879   5.416   1.157   1.365 -1.1303  0.8189  0.2033
 5037SOL    HW219880   5.338   1.208   1.386 -1.3437  0.3556  0.5573
 5037SOL    HW319881   5.409   1.140   1.271 -1.5331  0.6579  0.2616
 5037SOL    MW419882   5.405   1.162   1.355 -0.0840 -0.1899 -0.3481
 5038SOL     OW19883   3.359   2.815   5.985  0.3404 -0.3261  0.0920
 5038SOL    HW219884   3.386   2.826   6.076 -0.6584 -0.7913  0.4595
 5038SOL    HW319885   3.296   2.743   5.987  0.5579 -0.5628 -1.0203
 5038SOL    MW419886   3.354   2.807   5.997  0.6238  0.2778 -0.5248
 5039SOL     OW19887   2.399   0.750   0.858 -1.0240  0.0392  0.1114
 5039SOL    HW219888   2.337   0.811   0.817 -1.9004 -1.1316 -0.3586
 5039SOL    HW319889   2.351   0.712   0.931 -0.0199  0.8799  1.2431
 5039SOL    MW419890   2.384   0.753   0.862 -0.1449  0.5009 -0.0029
 5040SOL     OW19891   3.869   0.477   5.169 -0.0115 -0.2004 -0.6854
 5040SOL    HW219892   3.919   0.398   5.148 -1.8368 -1.9261  0.9903
 5040SOL    HW319893   3.811   0.450   5.241 -2.3481  2.0286 -1.5876
 5040SOL    MW419894   3.868   0.463   5.176 -0.4140 -0.4983  0.6758
 5041SOL     OW19895   4.357   1.432   5.363  0.0765  0.2325  0.1977
 5041SOL    HW219896   4.323   1.365   5.421 -0.1182 -0.3654 -0.5975
 5041SOL    HW319897   4.445   1.401   5.338 -0.3292 -0.1536 -0.8171
 5041SOL    MW419898   4.364   1.419   5.367 -0.1276  0.0658  0.5164
 5042SOL     OW19899   1.355   1.149   4.379  0.9824 -0.1592 -0.2151
 5042SOL    HW219900   1.384   1.123   4.467 -0.3904 -1.3601 -0.0749
 5042SOL    HW319901   1.368   1.072   4.325 -2.3558 -1.0334 -0.0009
 5042SOL    MW419902   1.360   1.136   4.384 -0.6984 -0.4457  0.1928
 5043SOL     OW19903   2.905   5.307   6.271 -0.5729  0.2923 -0.1683
 5043SOL    HW219904   2.884   5.219   6.240 -3.0959  0.1996  1.5664
 5043SOL    HW319905   2.990   5.297   6.314  0.6048 -0.5950 -2.4920
 5043SOL    MW419906   2.914   5.294   6.272 -0.0992 -0.2838 -0.0608
 5044SOL     OW19907   0.330   1.606   2.508  0.1826 -0.3046 -0.0660
 5044SOL    HW219908   0.285   1.652   2.438 -3.9315 -1.1020  1.7774
 5044SOL    HW319909   0.313   1.513   2.492  0.8771 -0.6314  0.9426
 5044SOL    MW419910   0.322   1.600   2.497 -0.2942  0.6012  0.1787
 5045SOL     OW19911   4.105   6.329   0.319 -0.5367 -0.0713  0.0703
 5045SOL    HW219912   4.064   6.282   0.246 -1.5189 -0.2725  0.7306
 5045SOL    HW319913   4.069   6.418   0.314  1.0178  0.5442 -0.9409
 5045SOL    MW419914   4.095   6.335   0.309 -0.5571 -0.0246  0.3467
 5046SOL     OW19915   5.494   2.017   0.114 -0.2031 -0.3490 -0.4663
 5046SOL    HW219916   5.423   2.058   0.163 -0.3469 -0.9360 -0.1696
 5046SOL    HW319917   5.532   2.088   0.062 -0.7310  0.0582 -0.3046
 5046SOL    MW419918   5.490   2.031   0.114 -0.2568 -0.1619  0.2876
 5047SOL     OW19919   2.392   4.296   2.182  0.5234 -0.1096 -0.3371
 5047SOL    HW219920   2.420   4.370   2.235  0.4518  0.3834 -0.9738
 5047SOL    HW319921   2.451   4.297   2.107 -0.5192  0.3138 -1.1784
 5047SOL    MW419922   2.404   4.306   2.179 -0.0438 -0.0671 -0.1254
 5048SOL     OW19923   2.265   5.628   5.234 -0.4570 -0.5621  0.0032
 5048SOL    HW219924   2.339   5.686   5.215 -1.3887  0.2644 -1.3058
 5048SOL    HW319925   2.302   5.540   5.232  0.5981 -0.1327 -0.0253
 5048SOL    MW419926   2.279   5.624   5.231 -0.2778  0.1576 -0.6632
 5049SOL     OW19927   0.491   5.913   0.791  1.0414  0.6327 -0.2123
 5049SOL    HW219928   0.492   5.834   0.844 -0.3973 -0.1033 -1.1980
 5049SOL    HW319929   0.398   5.928   0.772  1.3102  2.3694 -0.3344
 5049SOL    MW419930   0.479   5.905   0.795 -0.1642  0.3441  0.3342
 5050SOL     OW19931   1.662   2.799   5.429  0.2253  1.0437  0.2061
 5050SOL    HW219932   1.608   2.872   5.399  1.5238  1.8348 -0.3066
 5050SOL    HW319933   1.632   2.783   5.519  0.2054  2.5183  0.4916
 5050SOL    MW419934   1.651   2.807   5.437  0.0013  0.3707  0.3205
 5051SOL     OW19935   0.161   0.982   3.552  0.2328  0.4173 -0.1851
 5051SOL    HW219936   0.110   0.970   3.471  0.1946  2.4995 -0.5394
 5051SOL    HW319937   0.099   0.965   3.622 -0.3424  0.7095 -0.6106
 5051SOL    MW419938   0.146   0.978   3.550  0.2401  0.1535  0.2809
 5052SOL     OW19939   0.577   0.323   6.354  0.0573  0.7813  0.3129
 5052SOL    HW219940   0.577   0.262   6.280  0.7749 -0.1338  1.0471
 5052SOL    HW319941   0.493   0.308   6.397  0.4602 -0.1182  0.8142
 5052SOL    MW419942   0.566   0.313   6.350 -0.1196  0.1469 -0.2314
 5053SOL     OW19943   1.970   4.949   1.924  0.2596  0.3426  0.7751
 5053SOL    HW219944   2.011   4.994   1.850  0.7684 -0.7994  0.3382
 5053SOL    HW319945   1.956   4.860   1.893  0.1602 -0.0645  1.9458
 5053SOL    MW419946   1.973   4.943   1.910  1.0398  0.1617 -0.1102
 5054SOL     OW19947   4.660   2.976   2.405 -0.4585  0.5499  0.2025
 5054SOL    HW219948   4.569   2.948   2.396 -0.4940  0.8314 -0.3109
 5054SOL    HW319949   4.699   2.909   2.462 -0.6645 -0.2774 -0.6084
 5054SOL    MW419950   4.653   2.963   2.412  0.3482  0.4251  0.1788
 5055SOL     OW19951   5.905   5.121   1.584 -0.3104 -0.9028  0.2223
 5055SOL    HW219952   5.967   5.192   1.563  0.4716 -1.8210 -0.6574
 5055SOL    HW319953   5.922   5.102   1.676 -0.5324  0.0403  0.4759
 5055SOL    MW419954   5.915   5.128   1.593  0.4378 -0.1719 -0.1285
 5056SOL     OW19955   1.937   1.139   0.035 -0.0860  0.2808  0.5061
 5056SOL    HW219956   1.984   1.126   0.117  0.2143  0.8174  0.4196
 5056SOL    HW319957   1.922   1.050   0.002  2.1755  0.1149 -0.2128
 5056SOL    MW419958   1.941   1.126   0.041 -0.0849 -0.3646  0.5467
 5057SOL     OW19959   5.699   1.982   2.456  0.5981  0.1392  0.2095
 5057SOL    HW219960   5.613   1.999   2.492  0.5464  0.5836 -0.1202
 5057SOL    HW319961   5.734   1.911   2.511 -0.7723 -1.4917 -0.9112
 5057SOL    MW419962   5.693   1.975   2.468  0.2029  0.1678 -0.1333
 5058SOL     OW19963   1.085   0.793   2.828  0.0369  0.7916 -0.1419
 5058SOL    HW219964   1.029   0.842   2.888  0.1282 -1.1174  1.6267
 5058SOL    HW319965   1.040   0.797   2.743 -1.6083  1.1755  0.7200
 5058SOL    MW419966   1.072   0.800   2.824 -0.0875  0.4050  0.1860
 5059SOL     OW19967   0.241   2.764   1.517 -0.4077 -0.3366 -0.8082
 5059SOL    HW219968   0.241   2.823   1.441 -0.9110  0.0696 -0.4943
 5059SOL    HW319969   0.149   2.741   1.529 -0.3350 -0.3450 -0.2728
 5059SOL    MW419970   0.229   2.769   1.508 -0.2519  0.2307 -0.4204
 5060SOL     OW19971   2.623   0.200   4.997  0.2422 -0.3409 -0.3190
 5060SOL    HW219972   2.715   0.226   4.997 -0.1447  1.0877  0.0686
 5060SOL    HW319973   2.623   0.114   5.040  1.1267  0.6717  1.8512
 5060SOL    MW419974   2.635   0.192   5.002  0.0731  0.6284 -0.2079
 5061SOL     OW19975   2.095   2.478   1.443  0.0837  0.0486 -0.3859
 5061SOL    HW219976   2.103   2.382   1.441  0.6124  0.0889 -3.1021
 5061SOL    HW319977   2.185   2.509   1.456 -0.0481  0.2175  0.1763
 5061SOL    MW419978   2.108   2.469   1.445 -0.2196 -0.1997  0.5373
 5062SOL     OW19979   1.874   2.808   5.957 -0.1992 -0.2650 -0.3491
 5062SOL    HW219980   1.788   2.778   5.988 -0.3687  0.1292 -0.4347
 5062SOL    HW319981   1.936   2.743   5.991 -0.4235 -0.0574  0.4919
 5062SOL    MW419982   1.871   2.795   5.966  0.0676  0.0688  0.0555
 5063SOL     OW19983   6.351   5.256   2.367 -0.3153 -0.3208  0.2446
 5063SOL    HW219984   6.423   5.210   2.324 -1.4009  0.2843 -2.3745
 5063SOL    HW319985   6.273   5.226   2.321 -1.4456  1.2168  1.0827
 5063SOL    MW419986   6.350   5.246   2.356 -0.4533 -0.0305 -0.7147
 5064SOL     OW19987   5.158   0.857   6.266 -0.7871 -0.0243 -0.8126
 5064SOL    HW219988   5.105   0.891   6.194 -0.1933  0.8474 -0.8439
 5064SOL    HW319989   5.241   0.833   6.226 -0.3108  0.8385 -0.3518
 5064SOL    MW419990   5.162   0.858   6.251 -0.3847  0.3486 -0.3087
 5065SOL     OW19991   3.029   2.438   2.198  0.8297  0.0972 -0.4571
 5065SOL    HW219992   2.936   2.460   2.191  0.5560 -0.9886 -0.3267
 5065SOL    HW319993   3.073   2.523   2.206  0.0066  0.7172 -2.0716
 5065SOL    MW419994   3.023   2.452   2.198 -0.4316 -0.0969  0.0905
 5066SOL     OW19995   1.139   1.597   2.740 -0.2582  0.5457 -0.0417
 5066SOL    HW219996   1.183   1.683   2.740  1.0722 -0.0845  1.7821
 5066SOL    HW319997   1.209   1.535   2.722 -1.2211 -0.2107 -1.3664
 5066SOL    MW419998   1.154   1.600   2.737 -0.1826  0.2407 -0.2306
 5067SOL     OW19999   4.160   4.976   0.379 -0.3409  0.3815 -0.2344
 5067SOL    HW220000   4.197   5.059   0.349  0.0252  0.1901 -0.3198
 5067SOL    HW320001   4.226   4.911   0.355 -0.8430  0.0059 -0.6033
 5067SOL    MW420002   4.174   4.979   0.372  0.1442  0.1279 -0.7287
 5068SOL     OW20003   1.701   1.006   3.234 -0.5790  0.6600 -0.4786
 5068SOL    HW220004   1.772   0.973   3.180 -0.1292  1.4862 -0.4176
 5068SOL    HW320005   1.715   1.101   3.236  0.3598  0.5530  2.3553
 5068SOL    MW420006   1.712   1.014   3.227 -0.0116 -0.0674 -0.2998
 5069SOL     OW20007   0.225   0.105   2.665 -0.2308 -0.1808  0.1312
 5069SOL    HW220008   0.254   0.148   2.584 -0.5641  1.4382  0.8491
 5069SOL    HW320009   0.304   0.063   2.699  0.4172  0.9637  0.0775
 5069SOL    MW420010   0.239   0.105   2.659  0.0982  0.6862  0.0166
 5070SOL     OW20011   1.917   0.064   6.028 -0.0410 -0.0646 -0.6865
 5070SOL    HW220012   1.853   0.006   5.987 -0.6017 -0.1864  0.3072
 5070SOL    HW320013   1.892   0.152   6.001  0.6586 -0.2475 -1.9965
 5070SOL    MW420014   1.905   0.068   6.019  0.0677  0.1566  1.0771
 5071SOL     OW20015   0.213   0.906   4.300 -0.4777 -0.3768 -0.0405
 5071SOL    HW220016   0.156   0.903   4.377 -0.7265 -0.7328 -0.2353
 5071SOL    HW320017   0.268   0.828   4.308  0.1330  0.0766  0.2563
 5071SOL    MW420018   0.213   0.895   4.311 -0.8528 -0.0741 -0.0321
 5072SOL     OW20019   4.581   4.588   3.656 -0.0880  0.1298  0.0231
 5072SOL    HW220020   4.627   4.671   3.642 -0.2307 -0.1617 -2.6479
 5072SOL    HW320021   4.650   4.526   3.680  0.2088  0.7155  0.7145
 5072SOL    MW420022   4.596   4.591   3.657  0.0956  0.1354 -0.4482
 5073SOL     OW20023   2.128   1.971   4.765  0.0191 -0.0145 -0.2054
 5073SOL    HW220024   2.185   1.895   4.756 -0.1978 -0.2228  0.1557
 5073SOL    HW320025   2.149   2.008   4.851 -1.2929 -0.8626  0.5200
 5073SOL    MW420026   2.138   1.966   4.775  0.1637  0.2451  0.6129
 5074SOL     OW20027   1.443   4.666   1.362  0.3807  0.3278 -0.0611
 5074SOL    HW220028   1.384   4.620   1.303 -0.8549 -0.1344  1.4738
 5074SOL    HW320029   1.503   4.599   1.395 -1.1035 -0.1741  1.7889
 5074SOL    MW420030   1.443   4.651   1.359 -0.2047  0.3441 -0.0656
 5075SOL     OW20031   2.472   0.095   0.226  0.2786 -0.4023  0.2709
 5075SOL    HW220032   2.386   0.133   0.209  1.4003  1.5280 -1.6525
 5075SOL    HW320033   2.488   0.040   0.149  0.6822 -0.9172  0.7227
 5075SOL    MW420034   2.463   0.093   0.213  0.3631  0.4391 -0.2197
 5076SOL     OW20035   0.979   3.368   1.828 -0.2444  0.4276 -0.1500
 5076SOL    HW220036   0.978   3.285   1.781 -1.5239  0.2891  0.1036
 5076SOL    HW320037   0.964   3.345   1.919 -1.7466  1.0097 -0.2230
 5076SOL    MW420038   0.977   3.354   1.834  0.3487  0.3545 -0.5216
 5077SOL     OW20039   4.912   1.802   2.610 -0.4704 -0.5268 -0.2099
 5077SOL    HW220040   4.836   1.751   2.638 -1.1126 -0.0092 -0.9554
 5077SOL    HW320041   4.987   1.757   2.649 -1.2829  0.1523  2.3302
 5077SOL    MW420042   4.912   1.790   2.619  0.0937  0.0226 -0.7961
 5078SOL     OW20043   0.117   3.295   0.397 -0.1028 -0.9423  0.1834
 5078SOL    HW220044   0.027   3.317   0.421  0.3472  0.9718  0.3050
 5078SOL    HW320045   0.171   3.344   0.460  1.0279 -2.1179  0.1682
 5078SOL    MW420046   0.113   3.305   0.409  0.1130 -0.3534 -0.1968
 5079SOL     OW20047   0.363   4.594   3.550 -0.0486 -0.2261  0.1040
 5079SOL    HW220048   0.273   4.561   3.553 -0.1858  0.0801 -0.5877
 5079SOL    HW320049   0.416   4.520   3.578 -0.5902 -0.0982  1.5619
 5079SOL    MW420050   0.358   4.580   3.554  0.9785 -0.2746  0.3386
 5080SOL     OW20051   5.485   3.803   5.315  0.6796 -0.1993  0.0207
 5080SOL    HW220052   5.489   3.853   5.397 -0.5192  0.0038 -0.0271
 5080SOL    HW320053   5.427   3.854   5.259 -0.6524 -1.6827 -0.0032
 5080SOL    MW420054   5.478   3.816   5.319 -0.0339  0.3017 -0.2192
 5081SOL     OW20055   3.738   0.275   4.107 -0.3205 -0.1916  0.6144
 5081SOL    HW220056   3.826   0.238   4.115 -0.6795 -1.9179 -1.9242
 5081SOL    HW320057   3.690   0.240   4.182  1.2966  1.5244  2.5668
 5081SOL    MW420058   3.744   0.265   4.118  0.1216 -0.4272  0.4037
 5082SOL     OW20059   5.160   4.698   5.114  0.3862 -0.1945 -0.7457
 5082SOL    HW220060   5.072   4.685   5.149  0.6593 -1.5715 -0.5122
 5082SOL    HW320061   5.218   4.677   5.187  0.9302 -1.5260 -1.5240
 5082SOL    MW420062   5.156   4.693   5.128 -0.5833  0.2750  0.5933
 5083SOL     OW20063   4.319   5.209   3.785  0.0664  0.0126 -0.0634
 5083SOL    HW220064   4.275   5.137   3.831 -1.7003  1.3661  0.4713
 5083SOL    HW320065   4.370   5.253   3.853 -0.5642  0.5210  0.0936
 5083SOL    MW420066   4.320   5.205   3.800 -0.1975 -0.3909 -0.1523
 5084SOL     OW20067   5.951   5.773   5.716 -0.2854 -0.6457  0.2158
 5084SOL    HW220068   5.910   5.708   5.774  1.3118 -1.6833  0.2730
 5084SOL    HW320069   6.042   5.776   5.746 -0.3944  1.9857  0.4825
 5084SOL    MW420070   5.958   5.765   5.728 -0.6597  0.1974  0.9644
 5085SOL     OW20071   3.499   1.870   5.262  0.1982  0.5879  0.0275
 5085SOL    HW220072   3.434   1.887   5.330  1.6056  0.7068  1.3848
 5085SOL    HW320073   3.501   1.950   5.210 -0.0076  0.9667  0.5952
 5085SOL    MW420074   3.490   1.883   5.264 -0.0939  0.0677  0.0745
 5086SOL     OW20075   2.674   0.629   5.026 -0.0810 -0.0463  0.8236
 5086SOL    HW220076   2.689   0.723   5.011  1.5967  0.1900  3.3144
 5086SOL    HW320077   2.761   0.594   5.043 -0.7893 -1.9208  0.7714
 5086SOL    MW420078   2.688   0.637   5.026  0.2252 -0.1719  0.1433
 5087SOL     OW20079   4.617   5.816   3.731  0.0121 -0.0415  0.6773
 5087SOL    HW220080   4.699   5.828   3.682 -0.6153 -1.1306 -0.7024
 5087SOL    HW320081   4.553   5.790   3.665 -1.9814  2.5777  1.3999
 5087SOL    MW420082   4.620   5.814   3.716 -0.5108 -0.3130  0.3778
 5088SOL     OW20083   5.819   4.827   4.340  0.1816  0.5066 -0.2993
 5088SOL    HW220084   5.863   4.771   4.404 -1.9913  0.3777  1.2142
 5088SOL    HW320085   5.842   4.790   4.255 -1.1863 -2.8196  0.6331
 5088SOL    MW420086   5.828   4.815   4.337 -0.4832  0.5281 -0.7135
 5089SOL     OW20087   2.434   1.097   4.315  0.2259  0.6546  0.1418
 5089SOL    HW220088   2.490   1.039   4.366 -0.1694  2.1836  2.4458
 5089SOL    HW320089   2.473   1.097   4.228  1.1963 -1.7215  0.4872
 5089SOL    MW420090   2.446   1.089   4.310 -0.0444 -0.3814  0.0522
 5090SOL     OW20091   6.057   0.934   3.928  0.0193  0.2774 -0.1961
 5090SOL    HW220092   6.006   0.937   3.847  1.5371  1.2753 -1.1798
 5090SOL    HW320093   6.116   1.010   3.921  0.5552  0.0537  1.5982
 5090SOL    MW420094   6.058   0.945   3.916 -0.0176  0.3559 -0.1644
 5091SOL     OW20095   4.852   5.252   2.226  0.2927 -0.2941  0.1236
 5091SOL    HW220096   4.916   5.261   2.296 -1.4985 -1.4200  2.0102
 5091SOL    HW320097   4.807   5.169   2.244 -1.5736  0.3440 -1.2030
 5091SOL    MW420098   4.854   5.243   2.237 -0.0239 -0.3830  0.4821
 5092SOL     OW20099   6.264   3.172   4.562  0.0788  0.0958 -0.1728
 5092SOL    HW220100   6.281   3.195   4.470  0.1131 -1.2189 -0.5075
 5092SOL    HW320101   6.349   3.181   4.605  0.8729 -2.6083 -1.0162
 5092SOL    MW420102   6.277   3.176   4.555  0.2523  0.5898  0.4034
 5093SOL     OW20103   1.780   0.147   1.724  0.0694 -0.7647  0.1356
 5093SOL    HW220104   1.718   0.212   1.757 -0.4294 -1.2327  0.1439
 5093SOL    HW320105   1.725   0.077   1.689  0.5990 -0.9074 -0.4250
 5093SOL    MW420106   1.765   0.146   1.724  0.2181  0.9237  0.4185
 5094SOL     OW20107   5.859   5.491   5.355  0.0510  0.0562  0.1001
 5094SOL    HW220108   5.766   5.504   5.374  0.1138  2.1085 -0.6824
 5094SOL    HW320109   5.866   5.504   5.260  0.7963 -2.7411 -0.3212
 5094SOL    MW420110   5.848   5.494   5.345 -0.0543 -0.1812  0.3845
 5095SOL     OW20111   6.366   0.376   0.410  0.3508  0.5829  0.2921
 5095SOL    HW220112   6.394   0.286   0.426 -0.4437  0.2492 -0.1611
 5095SOL    HW320113   6.276   0.369   0.381  0.7567  1.4065 -1.2690
 5095SOL    MW420114   6.358   0.363   0.409 -0.2939 -0.0396 -0.2698
 5096SOL     OW20115   6.219   3.262   3.162 -0.5317  0.0792  0.5225
 5096SOL    HW220116   6.202   3.177   3.122 -0.6258  1.0384 -1.5957
 5096SOL    HW320117   6.315   3.269   3.162 -0.2414 -1.4604  4.0657
 5096SOL    MW420118   6.230   3.252   3.157 -0.3340  0.0845  0.7086
 5097SOL     OW20119   3.824   4.792   0.014  0.1255 -0.3176 -0.3773
 5097SOL    HW220120   3.885   4.822  -0.053  2.1153  1.4940  2.0691
 5097SOL    HW320121   3.811   4.868   0.071 -1.3417 -1.7893  1.3808
 5097SOL    MW420122   3.830   4.806   0.013 -0.2964 -0.2275  0.2435
 5098SOL     OW20123   0.949   4.566   1.019 -0.2107  0.2624 -0.1113
 5098SOL    HW220124   1.032   4.550   0.974 -0.7985 -0.3864 -0.9944
 5098SOL    HW320125   0.929   4.483   1.063  0.7938  1.1280  2.1716
 5098SOL    MW420126   0.957   4.553   1.019  0.2184 -0.1028 -0.5431
 5099SOL     OW20127   4.622   2.391   4.438 -0.0854 -0.1472  0.1012
 5099SOL    HW220128   4.590   2.473   4.403  1.3105  0.4027  0.0379
 5099SOL    HW320129   4.599   2.325   4.373  0.0175  0.4245 -0.5171
 5099SOL    MW420130   4.615   2.393   4.425  0.6041 -0.2755  0.1658
 5100SOL     OW20131   0.719   1.663   5.537  0.3853 -0.4309 -0.6003
 5100SOL    HW220132   0.766   1.685   5.618 -0.9229  1.7701 -0.3524
 5100SOL    HW320133   0.777   1.696   5.468  0.5949 -0.5015 -0.4620
 5100SOL    MW420134   0.733   1.671   5.539  0.0589 -0.2167  0.2438
 5101SOL     OW20135   1.844   5.966   5.163  0.6120  0.3934 -0.2343
 5101SOL    HW220136   1.827   6.012   5.081  2.2385  0.2785 -0.6639
 5101SOL    HW320137   1.896   5.890   5.138 -0.6111 -0.7966  0.6767
 5101SOL    MW420138   1.849   5.962   5.149  0.0891 -0.6103  0.2029
 5102SOL     OW20139   0.082   2.395   4.319 -0.2406  0.3986 -0.4526
 5102SOL    HW220140   0.015   2.420   4.382 -0.9920  1.1019 -1.5055
 5102SOL    HW320141   0.050   2.427   4.235  0.3746 -1.1738 -1.3386
 5102SOL    MW420142   0.069   2.402   4.316  0.0508  0.6076 -0.2373
 5103SOL     OW20143   0.633   4.735   0.307 -0.8224 -0.2022 -0.1666
 5103SOL    HW220144   0.649   4.721   0.400 -1.9022 -0.0296  0.0687
 5103SOL    HW320145   0.711   4.780   0.275 -0.6664  0.2232  0.7793
 5103SOL    MW420146   0.645   4.739   0.315  0.1439 -0.4136  0.9064
 5104SOL     OW20147   5.460   5.205   6.114 -0.1331  0.5534 -0.5012
 5104SOL    HW220148   5.444   5.298   6.128  0.5277  0.5714  0.1685
 5104SOL    HW320149   5.530   5.183   6.174 -1.9240 -0.9578  1.1573
 5104SOL    MW420150   5.467   5.214   6.123  0.0335  0.4201 -0.1423
 5105SOL     OW20151   3.230   0.655   0.944  0.2765 -0.0642 -0.6559
 5105SOL    HW220152   3.312   0.703   0.952  1.4509 -2.2676  3.1986
 5105SOL    HW320153   3.163   0.716   0.974  1.0592  0.5755 -0.1672
 5105SOL    MW420154   3.232   0.669   0.949  0.0895 -0.5322  0.4298
 5106SOL     OW20155   2.645   0.821   0.766  0.1005  0.2835 -0.0041
 5106SOL    HW220156   2.569   0.812   0.823 -0.2274 -0.5774 -0.5512
 5106SOL    HW320157   2.615   0.789   0.681  1.5905 -2.0287  0.2358
 5106SOL    MW420158   2.631   0.815   0.762  0.3111  0.1382  0.0647
 5107SOL     OW20159   0.725   3.354   4.155 -0.1302 -0.6771 -0.1296
 5107SOL    HW220160   0.759   3.316   4.075 -2.7354 -0.9502 -1.2039
 5107SOL    HW320161   0.772   3.437   4.165  0.3826 -0.7450 -1.8101
 5107SOL    MW420162   0.736   3.360   4.146 -0.0029  0.0298  0.5787
 5108SOL     OW20163   6.180   2.580   1.476 -0.0794 -0.5199 -0.6104
 5108SOL    HW220164   6.149   2.509   1.419 -0.3119 -0.3040 -0.7547
 5108SOL    HW320165   6.105   2.638   1.486 -0.6928 -1.5777  1.5516
 5108SOL    MW420166   6.166   2.578   1.470 -0.2469 -0.0618  0.0628
 5109SOL     OW20167   6.092   2.882   2.410  0.5173  0.1756 -0.6544
 5109SOL    HW220168   6.152   2.900   2.337 -0.8357 -0.4224 -1.9593
 5109SOL    HW320169   6.010   2.923   2.384  0.0354  0.0284  0.5929
 5109SOL    MW420170   6.089   2.890   2.397  0.1582  0.4610 -0.6357
 5110SOL     OW20171   4.341   2.681   0.978 -0.3043 -0.2973 -0.1909
 5110SOL    HW220172   4.421   2.724   1.009 -0.1634 -1.2403  0.8078
 5110SOL    HW320173   4.372   2.620   0.911  0.0485 -1.7884  1.2803
 5110SOL    MW420174   4.356   2.679   0.973  0.0128 -0.3460 -0.3783
 5111SOL     OW20175   2.911   0.461   2.579  0.0205 -0.3375  0.8950
 5111SOL    HW220176   2.978   0.394   2.586  0.3346 -0.2416 -0.8554
 5111SOL    HW320177   2.852   0.430   2.510  0.0537  1.0534  0.1900
 5111SOL    MW420178   2.912   0.448   2.571 -0.5712  0.0902 -0.1073
 5112SOL     OW20179   5.884   1.141   2.081 -0.0229 -0.4186  0.3347
 5112SOL    HW220180   5.801   1.095   2.090 -0.2998 -0.1340 -0.7174
 5112SOL    HW320181   5.946   1.087   2.129 -0.1878 -2.3301 -1.4866
 5112SOL    MW420182   5.881   1.128   2.089  0.1245 -0.4912  0.1309
 5113SOL     OW20183   3.264   5.251   1.731 -0.2918  0.5393  0.1279
 5113SOL    HW220184   3.257   5.233   1.825 -1.6087 -0.3623 -0.1206
 5113SOL    HW320185   3.322   5.182   1.698  0.0113  0.7385  0.2374
 5113SOL    MW420186   3.271   5.240   1.739 -0.9338 -0.1032  0.2937
 5114SOL     OW20187   5.955   5.190   3.334 -0.0875  0.2681  0.1151
 5114SOL    HW220188   5.918   5.129   3.398  0.9359 -2.0000 -1.3363
 5114SOL    HW320189   5.879   5.221   3.284 -0.5685 -0.1458  0.5737
 5114SOL    MW420190   5.940   5.186   3.336  0.2072 -0.0151 -0.1196
 5115SOL     OW20191   3.649   4.911   3.345 -0.3739  0.7665 -0.1149
 5115SOL    HW220192   3.695   4.993   3.361 -0.2681  0.4664  1.1872
 5115SOL    HW320193   3.703   4.865   3.281  2.0581 -0.2761  2.4884
 5115SOL    MW420194   3.662   4.916   3.339 -0.0007  0.6993 -0.2928
 5116SOL     OW20195   1.334   0.849   2.111  0.4111 -0.3071  0.0132
 5116SOL    HW220196   1.284   0.877   2.188 -1.1127 -2.0116 -0.2717
 5116SOL    HW320197   1.293   0.893   2.038  0.6018 -0.1945 -0.0270
 5116SOL    MW420198   1.322   0.858   2.112 -0.3013  0.1113 -0.0245
 5117SOL     OW20199   4.921   0.517   5.026  0.2375  0.0422 -1.1296
 5117SOL    HW220200   4.916   0.422   5.041 -2.1345  0.3771  0.6598
 5117SOL    HW320201   4.850   0.535   4.964 -0.1706  0.7998 -0.4553
 5117SOL    MW420202   4.911   0.507   5.020  0.6117 -0.3573 -0.5250
 5118SOL     OW20203   1.048   2.466   4.403  0.5583 -0.4062 -0.3312
 5118SOL    HW220204   1.114   2.481   4.336  2.1958  0.3627  1.3759
 5118SOL    HW320205   1.095   2.425   4.476 -0.6805  0.7067  1.1773
 5118SOL    MW420206   1.063   2.463   4.404  0.4173 -0.2139 -0.2110
 5119SOL     OW20207   0.020   1.356   6.197 -0.4449 -0.0114 -0.3861
 5119SOL    HW220208  -0.002   1.271   6.159 -1.9031 -0.2303  0.7980
 5119SOL    HW320209   0.052   1.335   6.285  0.5179  0.5964 -0.5833
 5119SOL    MW420210   0.021   1.342   6.204  0.5475  0.7190 -0.3224
 5120SOL     OW20211   1.285   1.851   1.251  0.5425 -0.6898  0.0970
 5120SOL    HW220212   1.228   1.924   1.278  0.0924 -1.6830  2.0024
 5120SOL    HW320213   1.373   1.878   1.278  0.8737  0.3011 -1.7359
 5120SOL    MW420214   1.289   1.864   1.258 -0.5336 -0.4260 -0.3185
 5121SOL     OW20215   0.675   0.467   1.130 -0.1273  0.9452  0.3141
 5121SOL    HW220216   0.649   0.559   1.128 -0.4606  0.8469 -1.0226
 5121SOL    HW320217   0.649   0.436   1.217 -0.5287  1.9560  0.5651
 5121SOL    MW420218   0.668   0.475   1.141 -0.0980 -0.3718  0.2972
 5122SOL     OW20219   5.419   0.419   2.119 -0.1084 -0.3221  0.0556
 5122SOL    HW220220   5.450   0.499   2.161  0.5394 -0.0847 -0.8234
 5122SOL    HW320221   5.488   0.398   2.055 -0.0464 -1.8382  0.5845
 5122SOL    MW420222   5.432   0.427   2.116 -0.4839  0.2273 -0.1781
 5123SOL     OW20223   3.745   1.979   4.952  0.3244  0.4281 -0.2503
 5123SOL    HW220224   3.670   1.998   5.008 -0.6288 -1.3198 -0.8431
 5123SOL    HW320225   3.821   1.991   5.008 -0.5906 -1.3980  1.5074
 5123SOL    MW420226   3.745   1.983   4.966  0.1184  0.2530 -0.1342
 5124SOL     OW20227   5.772   5.951   2.519  0.4742  0.3880 -0.4941
 5124SOL    HW220228   5.690   5.910   2.491  0.2282  0.0321  0.7184
 5124SOL    HW320229   5.760   6.044   2.497 -0.4325  0.4117  0.0690
 5124SOL    MW420230   5.760   5.958   2.512  0.0942 -0.5424 -0.7200
 5125SOL     OW20231   2.507   5.877   2.093  0.0288  0.4800 -0.1049
 5125SOL    HW220232   2.585   5.826   2.118  1.2329  1.7162 -1.1685
 5125SOL    HW320233   2.541   5.965   2.074 -1.8724  1.4635  0.8496
 5125SOL    MW420234   2.522   5.882   2.094  0.2446 -0.0307 -0.2960
 5126SOL     OW20235   6.031   1.241   1.076 -0.2406  0.4703  0.0400
 5126SOL    HW220236   6.051   1.324   1.119  1.1527  0.0067  0.3550
 5126SOL    HW320237   5.955   1.207   1.123 -0.1605  1.0664  0.6130
 5126SOL    MW420238   6.024   1.247   1.088  0.2322  0.1723 -0.1886
 5127SOL     OW20239   0.520   2.765   5.125  0.1663  0.0829  0.6297
 5127SOL    HW220240   0.484   2.696   5.070 -2.2940  0.7227  1.3008
 5127SOL    HW320241   0.549   2.832   5.063 -0.7641 -0.0279  0.0589
 5127SOL    MW420242   0.519   2.765   5.110 -0.2036 -0.0023  0.2791
 5128SOL     OW20243   3.956   1.668   1.360 -0.1738 -0.3807 -0.5764
 5128SOL    HW220244   3.979   1.746   1.410 -0.7832  0.4362 -1.5575
 5128SOL    HW320245   3.862   1.660   1.370 -0.1110 -1.0268 -0.4473
 5128SOL    MW420246   3.947   1.677   1.368 -0.0254 -0.3924  0.4157
 5129SOL     OW20247   4.910   2.068   2.390  0.4652 -0.2375  0.4219
 5129SOL    HW220248   4.836   2.031   2.438  1.8823 -0.6046  2.4824
 5129SOL    HW320249   4.912   2.160   2.417  0.1856  0.0043 -0.3828
 5129SOL    MW420250   4.901   2.075   2.400  0.0534  0.4936  0.1219
 5130SOL     OW20251   0.201   2.013   5.608 -0.1995 -0.1649 -0.4469
 5130SOL    HW220252   0.259   2.061   5.666  1.1774 -0.2523 -1.6989
 5130SOL    HW320253   0.128   2.072   5.592 -1.1858 -0.5394  2.1809
 5130SOL    MW420254   0.199   2.027   5.613 -0.8547 -0.2198  0.3823
 5131SOL     OW20255   2.989   1.328   0.663 -0.0796  0.3260  0.1117
 5131SOL    HW220256   2.965   1.319   0.571  0.3622  2.7195 -0.3127
 5131SOL    HW320257   2.971   1.243   0.701 -1.5669 -0.3350 -1.8972
 5131SOL    MW420258   2.983   1.316   0.656  0.7804 -0.0765  0.6626
 5132SOL     OW20259   4.944   2.276   2.048 -0.3958 -0.0323  0.1036
 5132SOL    HW220260   4.991   2.212   1.993  1.3212  0.9060  0.4339
 5132SOL    HW320261   4.874   2.225   2.088  1.2511 -1.8776  0.7883
 5132SOL    MW420262   4.941   2.261   2.046  0.0306 -0.0009  0.3722
 5133SOL     OW20263   5.869   0.320   4.227  0.5498  0.0239  0.7035
 5133SOL    HW220264   5.862   0.273   4.310 -1.6951 -1.6417 -0.2985
 5133SOL    HW320265   5.779   0.323   4.194  1.2239  1.5583 -1.1802
 5133SOL    MW420266   5.856   0.314   4.233  0.7513  0.0483  0.2605
 5134SOL     OW20267   4.190   6.308   3.728 -0.2472  0.0612  0.1601
 5134SOL    HW220268   4.177   6.214   3.732 -0.0390  0.0328  0.1865
 5134SOL    HW320269   4.102   6.345   3.732 -0.3881 -0.1571 -0.7341
 5134SOL    MW420270   4.177   6.301   3.729  0.1210  0.6696 -0.0091
 5135SOL     OW20271   1.340   5.111   1.539  0.2152  0.1274  0.4550
 5135SOL    HW220272   1.386   5.157   1.609  1.5013 -0.7238  0.2059
 5135SOL    HW320273   1.374   5.022   1.543  1.0433  0.2766 -1.8391
 5135SOL    MW420274   1.350   5.105   1.548  0.6284 -0.0378 -0.7965
 5136SOL     OW20275   2.677   0.174   6.332 -0.5199 -0.4044  0.0383
 5136SOL    HW220276   2.630   0.252   6.303  0.1466  0.3253  0.9097
 5136SOL    HW320277   2.609   0.106   6.335 -1.2254  0.2768 -0.1495
 5136SOL    MW420278   2.662   0.175   6.328  0.1485 -0.2852 -0.0379
 5137SOL     OW20279   5.607   3.799   2.321 -0.2223 -0.3591 -0.2743
 5137SOL    HW220280   5.543   3.866   2.296 -0.8574 -0.6886  0.4219
 5137SOL    HW320281   5.652   3.836   2.397  0.5549 -0.0531 -0.8705
 5137SOL    MW420282   5.604   3.813   2.328  0.1589 -0.1468 -0.3094
 5138SOL     OW20283   4.826   6.144   6.298 -0.3008 -0.3718  0.1326
 5138SOL    HW220284   4.788   6.057   6.285 -0.1068 -0.7589  1.9392
 5138SOL    HW320285   4.777   6.180   6.372  1.5076 -0.0784  1.2283
 5138SOL    MW420286   4.814   6.137   6.306  0.1012 -0.4854 -0.4584
 5139SOL     OW20287   2.077   6.323   5.229 -0.0282 -0.1404 -0.4865
 5139SOL    HW220288   2.128   6.291   5.155  2.4329  0.1760  0.9534
 5139SOL    HW320289   2.139   6.377   5.279 -1.8229  0.3517  1.3375
 5139SOL    MW420290   2.092   6.326   5.226  0.4715 -0.3405  0.1069
 5140SOL     OW20291   3.358   3.471   4.015 -0.4106  0.1895  0.0314
 5140SOL    HW220292   3.433   3.509   4.061 -0.4066  0.9366 -0.5654
 5140SOL    HW320293   3.386   3.383   3.993  0.5215  0.6375 -0.6661
 5140SOL    MW420294   3.372   3.465   4.018  0.7720  0.2272  0.7284
 5141SOL     OW20295   4.941   6.204   4.510 -0.0229  0.6523 -0.0021
 5141SOL    HW220296   5.002   6.257   4.561 -0.6884  1.9956 -0.5403
 5141SOL    HW320297   4.899   6.148   4.575 -0.6571  2.1372  0.9457
 5141SOL    MW420298   4.943   6.204   4.525 -0.0930 -0.8924 -0.4277
 5142SOL     OW20299   2.438   2.786   1.394  0.6118 -0.2522  0.5854
 5142SOL    HW220300   2.361   2.833   1.362  0.8580 -0.7444 -0.7949
 5142SOL    HW320301   2.510   2.849   1.384  1.0034 -0.9580 -1.5859
 5142SOL    MW420302   2.437   2.801   1.388  0.1670 -0.1510 -0.0912
 5143SOL     OW20303   3.202   4.315   2.745  1.2116 -0.4116 -0.4695
 5143SOL    HW220304   3.253   4.305   2.665  2.0510  1.2721 -0.1891
 5143SOL    HW320305   3.159   4.400   2.736 -2.3849 -2.1091 -1.0992
 5143SOL    MW420306   3.203   4.325   2.734 -0.1571 -0.0844 -0.4430
 5144SOL     OW20307   2.698   1.461   2.738 -0.6154  0.5462  0.4131
 5144SOL    HW220308   2.642   1.384   2.723 -0.2492  0.2031  0.7520
 5144SOL    HW320309   2.637   1.534   2.747 -0.8957  0.6906 -2.0271
 5144SOL    MW420310   2.683   1.460   2.737  0.2039 -0.3568 -0.1440
 5145SOL     OW20311   6.246   1.502   2.987  0.4987 -0.5134  0.0055
 5145SOL    HW220312   6.180   1.488   2.919 -0.5493 -0.4331  0.9765
 5145SOL    HW320313   6.322   1.452   2.957  0.6967  0.8958 -2.0753
 5145SOL    MW420314   6.247   1.494   2.974 -0.2406  0.3734  0.2574
 5146SOL     OW20315   5.792   0.869   5.963  0.2491  0.0861 -0.3330
 5146SOL    HW220316   5.701   0.896   5.978 -0.2108 -1.2462 -0.5560
 5146SOL    HW320317   5.836   0.949   5.934 -0.8096  0.7946 -0.0688
 5146SOL    MW420318   5.786   0.883   5.961  0.0012  0.0359 -0.4544
 5147SOL     OW20319   0.074   4.168   0.995  0.0204 -0.0415 -0.7123
 5147SOL    HW220320   0.128   4.153   0.917  0.8293 -1.6927  0.1108
 5147SOL    HW320321   0.018   4.091   1.001  1.1947 -0.8151  1.2789
 5147SOL    MW420322   0.074   4.156   0.986  0.6069  0.7401  0.2839
 5148SOL     OW20323   1.883   5.186   5.671 -0.0698 -0.0382  0.1775
 5148SOL    HW220324   1.959   5.141   5.635 -0.1588  0.5538 -0.7734
 5148SOL    HW320325   1.809   5.155   5.618 -0.1960  0.8724 -0.1953
 5148SOL    MW420326   1.883   5.176   5.660  0.1637  0.5820 -0.0642
 5149SOL     OW20327   5.425   6.198   4.618  0.4740  0.1266  0.2856
 5149SOL    HW220328   5.448   6.150   4.539 -1.0337 -1.6499  0.8627
 5149SOL    HW320329   5.509   6.220   4.658  1.2457  0.7407 -1.5902
 5149SOL    MW420330   5.439   6.194   4.613 -0.1132  0.0216 -0.2056
 5150SOL     OW20331   0.527   5.416   3.853 -0.1759 -0.3192  0.3808
 5150SOL    HW220332   0.450   5.436   3.800  0.1489  0.3904  0.1612
 5150SOL    HW320333   0.591   5.380   3.791  0.1315  0.3221  0.3171
 5150SOL    MW420334   0.525   5.414   3.838  0.3819 -0.0716  0.4539
 5151SOL     OW20335   4.192   0.874   4.363 -0.2075  0.0262  0.1545
 5151SOL    HW220336   4.109   0.864   4.410  0.9900 -0.0216  2.4048
 5151SOL    HW320337   4.184   0.957   4.316 -1.5844 -0.0701  0.1809
 5151SOL    MW420338   4.180   0.883   4.363 -0.3123  0.6302 -0.1475
 5152SOL     OW20339   5.512   0.088   4.370 -0.0765  0.2413 -0.1472
 5152SOL    HW220340   5.461   0.013   4.401 -1.0640  0.1122 -1.9624
 5152SOL    HW320341   5.586   0.050   4.324 -0.2500  0.3836 -0.5470
 5152SOL    MW420342   5.515   0.073   4.368 -0.6631  0.5874  0.0495
 5153SOL     OW20343   3.034   1.626   4.082  0.5554 -0.0232  0.0892
 5153SOL    HW220344   2.951   1.612   4.038  1.8371 -0.0997 -2.4719
 5153SOL    HW320345   3.049   1.720   4.077  1.2065 -0.1532 -0.6831
 5153SOL    MW420346   3.025   1.636   4.076 -0.0795 -0.0462  0.7475
 5154SOL     OW20347   2.217   3.137   4.395  0.1094 -0.3724 -0.1634
 5154SOL    HW220348   2.143   3.125   4.454  1.2093 -0.9097  1.1846
 5154SOL    HW320349   2.234   3.051   4.359  0.1369 -0.2750 -0.3822
 5154SOL    MW420350   2.210   3.124   4.398  0.0503 -0.2592 -0.4665
 5155SOL     OW20351   2.611   0.403   1.105  0.3661 -0.1894  0.0133
 5155SOL    HW220352   2.647   0.360   1.183 -3.3708  0.3002  2.2877
 5155SOL    HW320353   2.660   0.486   1.099  1.1029 -0.4717  1.5291
 5155SOL    MW420354   2.622   0.408   1.115  0.3393 -0.4206 -0.0205
 5156SOL     OW20355   5.629   6.052   3.207 -0.0533  0.4365 -0.0344
 5156SOL    HW220356   5.640   6.050   3.302  1.7469  2.1798 -0.1538
 5156SOL    HW320357   5.711   6.090   3.174 -0.9948  0.6929 -2.2279
 5156SOL    MW420358   5.641   6.056   3.215  0.2138  0.6870  0.1958
 5157SOL     OW20359   3.847   2.009   3.004  0.1377  0.3796  0.2925
 5157SOL    HW220360   3.859   2.048   3.091 -2.4606 -1.2199  1.5045
 5157SOL    HW320361   3.835   2.084   2.946  1.4791  1.4826  1.3732
 5157SOL    MW420362   3.847   2.024   3.008  0.1659  0.2126  0.3562
 5158SOL     OW20363   0.721   0.915   1.636  0.1168 -0.2856  0.1050
 5158SOL    HW220364   0.739   0.892   1.728  1.0299  0.6420  0.1828
 5158SOL    HW320365   0.725   1.010   1.635 -0.1575 -0.2834 -0.8520
 5158SOL    MW420366   0.724   0.924   1.648  0.2347 -0.9312 -0.3830
 5159SOL     OW20367   5.605   4.214   3.495  0.1986 -0.3345  0.3159
 5159SOL    HW220368   5.654   4.192   3.575 -2.0972  2.0860  2.5875
 5159SOL    HW320369   5.514   4.219   3.524 -0.7911  0.2491 -2.6160
 5159SOL    MW420370   5.600   4.212   3.509  0.5719  0.1381  0.5934
 5160SOL     OW20371   3.827   2.901   1.516  0.0303  1.0346  0.4119
 5160SOL    HW220372   3.912   2.880   1.557  0.5546  0.6163 -0.8529
 5160SOL    HW320373   3.763   2.880   1.584  0.9167  1.2352  1.3536
 5160SOL    MW420374   3.830   2.896   1.531  0.2089 -0.0554 -0.1907
 5161SOL     OW20375   0.580   2.656   1.003  0.4472  0.1873  0.5119
 5161SOL    HW220376   0.507   2.710   0.972  1.1477  0.6661 -0.3364
 5161SOL    HW320377   0.539   2.573   1.028 -0.3183  0.2564 -0.4500
 5161SOL    MW420378   0.565   2.652   1.002 -0.3749  0.1651 -0.1979
 5162SOL     OW20379   0.957   4.961   5.127 -0.2122 -0.5797  0.2045
 5162SOL    HW220380   1.051   4.950   5.111 -0.1787  0.6421 -0.5226
 5162SOL    HW320381   0.932   5.037   5.075 -1.8422 -1.5397 -0.4967
 5162SOL    MW420382   0.966   4.969   5.118  0.1886  0.1182  0.1165
 5163SOL     OW20383   0.915   1.245   0.096  0.1701 -0.5132 -0.4126
 5163SOL    HW220384   0.886   1.319   0.042 -1.6580 -2.0094 -1.6188
 5163SOL    HW320385   0.837   1.190   0.105  1.3493 -2.0765  0.8449
 5163SOL    MW420386   0.901   1.247   0.090  0.4303 -0.7300 -0.1503
 5164SOL     OW20387   2.570   2.945   0.673  0.6268 -0.5324  0.0002
 5164SOL    HW220388   2.535   2.973   0.588  0.4753 -1.3699 -0.2272
 5164SOL    HW320389   2.635   2.878   0.651  1.2591 -0.0959  0.5041
 5164SOL    MW420390   2.574   2.940   0.659  0.5218 -0.2508 -0.0140
 5165SOL     OW20391   3.454   1.821   1.399  0.0962 -0.2233  0.1269
 5165SOL    HW220392   3.467   1.905   1.442  0.4667  0.6916 -1.7028
 5165SOL    HW320393   3.359   1.810   1.395  0.0410  0.2862  0.0227
 5165SOL    MW420394   3.443   1.830   1.404 -0.7301  0.5364  0.2920
 5166SOL     OW20395   4.200   2.027   1.279 -0.0757  0.2160 -0.2927
 5166SOL    HW220396   4.155   2.080   1.213 -1.4186 -0.6790 -0.1367
 5166SOL    HW320397   4.292   2.031   1.253 -0.6799 -1.2460 -3.1046
 5166SOL    MW420398   4.206   2.035   1.267 -0.0191  0.1612  0.2762
 5167SOL     OW20399   2.492   2.084   4.921  0.2027 -0.1052  0.1995
 5167SOL    HW220400   2.438   2.140   4.866 -2.1644 -4.1905 -2.0816
 5167SOL    HW320401   2.437   2.064   4.997  0.5205 -0.3741  0.3601
 5167SOL    MW420402   2.478   2.089   4.924  0.1854  0.0947 -0.4084
 5168SOL     OW20403   5.436   3.591   2.058  0.6975  0.3380  0.1557
 5168SOL    HW220404   5.404   3.556   2.141 -0.8041  1.2925  0.0230
 5168SOL    HW320405   5.396   3.678   2.052  0.6409  0.2269 -1.6275
 5168SOL    MW420406   5.426   3.598   2.068  0.2753 -0.2288 -0.4816
 5169SOL     OW20407   1.284   5.120   5.129  0.4442  0.2162  0.1606
 5169SOL    HW220408   1.291   5.149   5.221  0.3309  0.6063  0.0504
 5169SOL    HW320409   1.230   5.187   5.088  0.8532  0.2691 -0.2914
 5169SOL    MW420410   1.278   5.133   5.136 -0.3025  1.1536  0.2831
 5170SOL     OW20411   0.223   4.149   3.983 -0.5724 -0.1180 -0.1926
 5170SOL    HW220412   0.318   4.157   3.982 -0.5984  0.4719  0.7585
 5170SOL    HW320413   0.191   4.239   3.981 -1.0492 -0.1948  1.7437
 5170SOL    MW420414   0.231   4.162   3.983  0.0578 -0.5735 -0.4036
 5171SOL     OW20415   3.530   4.827   6.148 -0.2531  0.3874 -0.3861
 5171SOL    HW220416   3.534   4.794   6.238 -0.9366 -0.1413 -0.5421
 5171SOL    HW320417   3.455   4.886   6.148 -0.1873  0.4710 -0.5829
 5171SOL    MW420418   3.521   4.830   6.160 -0.0814 -0.0174  0.2002
 5172SOL     OW20419   6.223   3.705   1.241 -0.5660 -0.1460 -0.2453
 5172SOL    HW220420   6.205   3.724   1.333 -1.8081 -0.0667 -0.4909
 5172SOL    HW320421   6.316   3.723   1.231 -0.8666  2.0484  0.4576
 5172SOL    MW420422   6.233   3.710   1.252 -0.6456  0.1177  0.3370
 5173SOL     OW20423   0.959   0.127   0.167 -0.0296  0.7067 -0.5811
 5173SOL    HW220424   1.033   0.185   0.150  0.7342 -0.4616 -1.3847
 5173SOL    HW320425   0.996   0.039   0.166 -1.0470  0.2050  1.3035
 5173SOL    MW420426   0.974   0.123   0.164  0.2545  0.7589 -0.2945
 5174SOL     OW20427   5.287   3.790   4.024 -0.5048  0.3655 -1.0862
 5174SOL    HW220428   5.220   3.741   4.071 -2.4024  1.6365 -2.3299
 5174SOL    HW320429   5.324   3.726   3.962 -1.1049 -0.1563 -0.9194
 5174SOL    MW420430   5.283   3.775   4.022  0.5039  0.2479 -0.4955
 5175SOL     OW20431   4.098   4.573   0.721  0.2898  0.0950  0.4615
 5175SOL    HW220432   4.173   4.542   0.671  0.4484 -1.2981  1.4791
 5175SOL    HW320433   4.130   4.651   0.767  1.0169 -0.2835  0.6128
 5175SOL    MW420434   4.112   4.579   0.721 -0.5597 -0.4483  0.6585
 5176SOL     OW20435   5.126   1.165   4.341  0.4759 -0.8721 -0.0001
 5176SOL    HW220436   5.189   1.126   4.281  0.3286 -1.4923  0.2423
 5176SOL    HW320437   5.116   1.101   4.411 -0.5610 -0.8759 -0.1270
 5176SOL    MW420438   5.133   1.151   4.342  0.2748  0.1973 -0.4174
 5177SOL     OW20439   2.633   0.806   2.927 -0.4767  0.4796 -0.1403
 5177SOL    HW220440   2.656   0.854   3.007  0.9757  0.9259 -0.7997
 5177SOL    HW320441   2.715   0.767   2.898 -0.6778  1.4859 -2.1927
 5177SOL    MW420442   2.647   0.807   2.934  0.1315  0.2567 -0.0020
 5178SOL     OW20443   3.691   0.224   5.856  0.6225 -0.1783 -0.5351
 5178SOL    HW220444   3.612   0.198   5.808  0.2286 -1.1439  0.5814
 5178SOL    HW320445   3.666   0.306   5.899  0.6465  0.1649 -1.1667
 5178SOL    MW420446   3.677   0.231   5.856 -0.4355 -0.3257 -0.1268
 5179SOL     OW20447   2.832   3.597   4.046 -0.3033 -0.2264  0.2956
 5179SOL    HW220448   2.832   3.526   4.110  0.6913  1.2123  2.0185
 5179SOL    HW320449   2.772   3.662   4.084 -0.0095  0.4962 -0.4509
 5179SOL    MW420450   2.824   3.596   4.060  0.3577  0.4538 -0.3712
 5180SOL     OW20451   1.187   2.951   4.368 -0.4574  0.3375  0.1004
 5180SOL    HW220452   1.122   3.019   4.386 -1.9467 -1.2229  0.8831
 5180SOL    HW320453   1.161   2.877   4.423  0.6130 -1.1906 -1.3375
 5180SOL    MW420454   1.175   2.950   4.378  0.1597 -0.7439  0.6469
 5181SOL     OW20455   3.723   4.283   3.668 -0.5937 -0.4002  0.0545
 5181SOL    HW220456   3.711   4.189   3.657  0.0779 -0.3425 -1.2974
 5181SOL    HW320457   3.814   4.299   3.644 -0.6179  0.5625  0.5551
 5181SOL    MW420458   3.733   4.273   3.664  0.6504  0.1367 -0.1532
 5182SOL     OW20459   4.909   0.430   5.535  0.1370 -0.0873 -0.8295
 5182SOL    HW220460   4.939   0.413   5.624 -1.7800  1.1587  0.1310
 5182SOL    HW320461   4.922   0.524   5.522  0.2272 -0.2195 -1.7960
 5182SOL    MW420462   4.915   0.441   5.545 -0.6011 -0.2541  0.1284
 5183SOL     OW20463   4.469   2.443   2.208  0.0681  0.2192 -0.0009
 5183SOL    HW220464   4.404   2.376   2.187  1.3810 -0.4015 -2.6132
 5183SOL    HW320465   4.434   2.488   2.284 -1.5036 -2.5777  1.0943
 5183SOL    MW420466   4.456   2.440   2.215  0.3043  0.4776 -0.1632
 5184SOL     OW20467   0.214   1.269   1.700 -0.1984 -0.2674  0.6725
 5184SOL    HW220468   0.265   1.226   1.632  0.1145  1.5259 -0.3008
 5184SOL    HW320469   0.260   1.249   1.782  0.4813 -0.9334  0.1340
 5184SOL    MW420470   0.226   1.261   1.702 -0.4270  0.3215 -0.1011
 5185SOL     OW20471   5.723   3.096   5.444 -0.0077  0.3968  0.4971
 5185SOL    HW220472   5.648   3.152   5.465 -0.5244  0.4723 -1.3635
 5185SOL    HW320473   5.719   3.025   5.509 -1.8211  0.2914  0.3223
 5185SOL    MW420474   5.712   3.094   5.455  0.4352 -0.3930 -0.6524
 5186SOL     OW20475   4.363   3.994   2.211  0.4739  0.2346 -0.3875
 5186SOL    HW220476   4.314   3.932   2.264 -0.1699  0.0039 -1.2129
 5186SOL    HW320477   4.296   4.035   2.155  1.3273 -0.8361 -2.2932
 5186SOL    MW420478   4.347   3.991   2.210  0.1774 -0.1644  0.2484
 5187SOL     OW20479   5.916   2.313   0.818  0.0773 -0.3123 -0.3350
 5187SOL    HW220480   5.891   2.309   0.910 -0.4857  0.3508 -0.4546
 5187SOL    HW320481   6.004   2.351   0.819  0.1693 -0.5338 -0.0547
 5187SOL    MW420482   5.924   2.318   0.830 -0.1669 -0.7837  0.3292
 5188SOL     OW20483   4.034   5.452   2.872  0.2770  0.6167 -0.9886
 5188SOL    HW220484   3.946   5.415   2.876 -0.7764  3.0468  0.2490
 5188SOL    HW320485   4.071   5.434   2.959  0.6062  0.5184 -1.1497
 5188SOL    MW420486   4.027   5.444   2.884 -0.5530 -0.4779  0.2154
 5189SOL     OW20487   4.750   3.456   5.951  0.0886 -0.1932  0.1211
 5189SOL    HW220488   4.780   3.365   5.944 -0.7184 -0.5703  1.2900
 5189SOL    HW320489   4.655   3.451   5.943  0.1545  0.8732 -2.4481
 5189SOL    MW420490   4.741   3.444   5.949 -0.0811 -0.0098 -0.2453
 5190SOL     OW20491   4.154   3.639   1.940 -0.5460  0.5690  0.4804
 5190SOL    HW220492   4.087   3.582   1.901  2.5702 -2.6549 -0.6395
 5190SOL    HW320493   4.127   3.727   1.915 -4.5336 -0.4482  0.4965
 5190SOL    MW420494   4.141   3.643   1.931  0.5532 -0.1805  0.1021
 5191SOL     OW20495   3.107   4.458   1.982  0.2146 -0.6052  0.3951
 5191SOL    HW220496   3.151   4.422   1.905 -1.3482  1.7594 -1.7805
 5191SOL    HW320497   3.041   4.393   2.005  1.2600 -1.7280  0.3305
 5191SOL    MW420498   3.104   4.445   1.975  0.0140 -0.0797 -0.1186
 5192SOL     OW20499   5.988   2.693   2.861 -0.4430 -0.7021 -0.8661
 5192SOL    HW220500   6.071   2.645   2.854  0.2766  0.5396 -1.2717
 5192SOL    HW320501   5.921   2.628   2.844  0.3789 -1.9881  0.6112
 5192SOL    MW420502   5.990   2.678   2.858  0.8006  0.3178  0.2867
 5193SOL     OW20503   5.214   4.344   3.987  0.1124 -0.3277 -0.0843
 5193SOL    HW220504   5.266   4.408   4.036 -1.3942  1.9587 -1.2583
 5193SOL    HW320505   5.278   4.289   3.943  1.6087  1.8952 -0.8923
 5193SOL    MW420506   5.229   4.345   3.988 -0.0858 -0.2264  0.9202
 5194SOL     OW20507   3.179   2.673   2.203  0.4482 -0.1051 -0.2163
 5194SOL    HW220508   3.274   2.675   2.218  0.6528 -2.6697 -0.7342
 5194SOL    HW320509   3.169   2.695   2.111  0.4686  0.7280 -0.0276
 5194SOL    MW420510   3.190   2.676   2.193  0.2983 -0.2825 -0.2972
 5195SOL     OW20511   2.351   6.140   2.343  0.4379 -0.4937  0.2631
 5195SOL    HW220512   2.435   6.141   2.389  0.7668  0.0576 -0.3327
 5195SOL    HW320513   2.308   6.222   2.370  0.0844 -0.7834  0.5819
 5195SOL    MW420514   2.356   6.151   2.353 -0.1474 -0.6066  0.6423
 5196SOL     OW20515   3.623   0.012   2.325 -0.9393  0.1550 -0.5095
 5196SOL    HW220516   3.598   0.006   2.233 -1.5374  0.9020 -0.4116
 5196SOL    HW320517   3.697   0.073   2.326 -3.1745  3.0986 -0.1808
 5196SOL    MW420518   3.629   0.020   2.313 -0.4328  0.2594  0.5047
 5197SOL     OW20519   5.033   2.708   1.407 -0.0100 -0.1493 -0.3823
 5197SOL    HW220520   4.950   2.666   1.430 -0.6176  1.0815 -0.2437
 5197SOL    HW320521   5.027   2.795   1.447  0.9855  0.2618 -1.1048
 5197SOL    MW420522   5.021   2.714   1.416 -0.2846  0.1131  0.2923
 5198SOL     OW20523   0.708   2.819   0.554 -0.0113  0.0109  0.2435
 5198SOL    HW220524   0.725   2.859   0.469  0.5834  0.2903  0.4841
 5198SOL    HW320525   0.795   2.810   0.594 -0.4444  2.4728  1.9779
 5198SOL    MW420526   0.722   2.823   0.548 -0.7085 -0.2931 -0.3163
 5199SOL     OW20527   3.122   3.586   0.755 -0.1125  0.0971 -0.1070
 5199SOL    HW220528   3.093   3.563   0.844  0.7125  1.1868  0.4761
 5199SOL    HW320529   3.072   3.664   0.733  0.6306  0.5923 -0.0610
 5199SOL    MW420530   3.112   3.593   0.764 -0.1683 -0.2787  0.3729
 5200SOL     OW20531   5.503   0.343   1.431 -0.4040 -0.7461  0.0124
 5200SOL    HW220532   5.453   0.331   1.350  2.0257 -2.3190 -1.3775
 5200SOL    HW320533   5.514   0.254   1.465 -0.7205 -0.1751  1.7121
 5200SOL    MW420534   5.498   0.330   1.424 -0.0854  0.1044  0.2517
 5201SOL     OW20535   0.677   4.538   3.640  0.1013  0.2770  0.0739
 5201SOL    HW220536   0.646   4.578   3.559  2.2159  1.0168 -0.4106
 5201SOL    HW320537   0.696   4.612   3.697 -1.8933 -0.2361  1.5328
 5201SOL    MW420538   0.675   4.553   3.637 -0.0630  0.0813 -0.5854
 5202SOL     OW20539   0.582   1.718   3.307 -0.2237 -0.0361  0.0934
 5202SOL    HW220540   0.494   1.754   3.306 -0.2234 -0.0354  0.0877
 5202SOL    HW320541   0.639   1.794   3.312 -0.1743  0.0635 -1.4420
 5202SOL    MW420542   0.578   1.733   3.307 -0.1313  0.0034  0.9984
 5203SOL     OW20543   4.746   1.174   1.043 -0.0178 -0.0160  0.0073
 5203SOL    HW220544   4.782   1.173   1.131 -1.4865 -1.9953  0.6562
 5203SOL    HW320545   4.651   1.175   1.056 -0.2684 -0.3397 -1.5392
 5203SOL    MW420546   4.738   1.174   1.056 -0.1153  0.0478 -0.2590
 5204SOL     OW20547   0.161   6.129   3.725 -0.5286  0.0026  0.1316
 5204SOL    HW220548   0.224   6.088   3.784 -0.9456  0.0178  0.5848
 5204SOL    HW320549   0.076   6.117   3.767 -0.7279  0.7674 -0.0381
 5204SOL    MW420550   0.158   6.122   3.738 -0.0479  0.5261 -0.1591
 5205SOL     OW20551   1.514   5.673   0.987  0.2092  0.1292  0.0304
 5205SOL    HW220552   1.502   5.605   0.921  0.3636 -1.2176  1.3441
 5205SOL    HW320553   1.441   5.733   0.973 -1.4055 -1.6468  0.4182
 5205SOL    MW420554   1.503   5.672   0.977 -0.8739  0.3916 -0.0112
 5206SOL     OW20555   1.396   3.748   1.545  0.0204  0.4154  0.1208
 5206SOL    HW220556   1.397   3.724   1.452  0.0873  1.3684 -0.1304
 5206SOL    HW320557   1.432   3.837   1.547 -2.3446  1.4276  0.7534
 5206SOL    MW420558   1.401   3.756   1.533  0.0678 -0.1107  0.3936
 5207SOL     OW20559   3.434   3.169   0.317  0.1317  0.4613 -0.0851
 5207SOL    HW220560   3.397   3.253   0.291 -1.1812  0.1640  0.7153
 5207SOL    HW320561   3.360   3.109   0.317  0.6925 -0.2772  1.1347
 5207SOL    MW420562   3.419   3.172   0.314 -0.0350 -0.0541 -0.3162
 5208SOL     OW20563   0.530   4.161   5.124 -0.3573 -0.0693  0.4643
 5208SOL    HW220564   0.599   4.096   5.133 -0.7409 -0.3803  1.2589
 5208SOL    HW320565   0.486   4.139   5.042  0.5474  0.2026 -0.1067
 5208SOL    MW420566   0.534   4.150   5.114  0.4452 -0.0740  0.2428
 5209SOL     OW20567   1.466   3.549   2.077  0.3573 -0.3963  0.2027
 5209SOL    HW220568   1.476   3.562   1.983 -2.2843  0.6973 -0.0072
 5209SOL    HW320569   1.383   3.503   2.087  0.4799 -0.3114  2.0275
 5209SOL    MW420570   1.457   3.544   2.066 -0.5717 -0.4480 -0.1722
 5210SOL     OW20571   4.119   4.257   1.267 -0.1601  0.5855  0.2851
 5210SOL    HW220572   4.204   4.247   1.223 -0.9290 -1.7841 -0.7967
 5210SOL    HW320573   4.128   4.203   1.346 -1.5781 -2.3188 -1.3758
 5210SOL    MW420574   4.132   4.248   1.272 -0.4795  0.2498  0.1162
 5211SOL     OW20575   0.937   1.450   5.889  0.1659 -0.3676  0.1971
 5211SOL    HW220576   0.861   1.398   5.914 -0.3510  0.6662  0.8276
 5211SOL    HW320577   0.986   1.393   5.830 -1.1212 -1.0429 -0.2746
 5211SOL    MW420578   0.933   1.436   5.884 -0.0095  0.4032 -0.2561
 5212SOL     OW20579   1.631   3.657   4.356 -0.1212  0.1054 -0.4866
 5212SOL    HW220580   1.617   3.593   4.286 -0.5734 -0.0484 -0.2569
 5212SOL    HW320581   1.724   3.650   4.376  0.2413  0.8982 -1.7980
 5212SOL    MW420582   1.641   3.647   4.349 -0.2001  0.0436  0.0071
 5213SOL     OW20583   2.875   3.319   1.067  0.3963  0.3010  0.1141
 5213SOL    HW220584   2.890   3.368   1.148 -0.1249  1.9601 -0.7402
 5213SOL    HW320585   2.937   3.247   1.070  2.8764  2.3173  0.4054
 5213SOL    MW420586   2.885   3.316   1.078  0.6509 -0.0645  0.5757
 5214SOL     OW20587   3.786   0.762   6.190 -0.1016 -0.6412 -0.3183
 5214SOL    HW220588   3.714   0.756   6.127 -0.1550 -0.2804 -0.2940
 5214SOL    HW320589   3.814   0.672   6.203 -4.0801 -1.6276  3.8163
 5214SOL    MW420590   3.780   0.750   6.183 -0.0294  0.1763  0.0824
 5215SOL     OW20591   0.643   0.927   3.733 -0.6171  0.1211 -0.3153
 5215SOL    HW220592   0.574   0.868   3.764  0.0412 -0.7661 -0.4888
 5215SOL    HW320593   0.658   0.987   3.806  2.0694 -2.9347  1.9733
 5215SOL    MW420594   0.636   0.927   3.747 -0.3598  0.3396  0.5415
 5216SOL     OW20595   0.844   5.893   3.246 -0.2892 -0.1442  0.8034
 5216SOL    HW220596   0.774   5.942   3.289 -1.0742 -0.5476  0.0280
 5216SOL    HW320597   0.798   5.835   3.184  0.7179 -0.5702  0.4317
 5216SOL    MW420598   0.829   5.891   3.243 -0.5411 -0.7428 -0.6398
 5217SOL     OW20599   2.926   5.688   2.958  0.2335 -0.3116 -0.3871
 5217SOL    HW220600   2.881   5.607   2.984  1.5966 -0.9285  0.1483
 5217SOL    HW320601   2.917   5.690   2.862 -1.1154 -0.2816 -0.2789
 5217SOL    MW420602   2.918   5.677   2.949 -0.2569  0.2600  0.1246
 5218SOL     OW20603   6.325   5.382   3.245 -0.1342  0.2583 -0.3922
 5218SOL    HW220604   6.348   5.427   3.327 -0.7246  1.9130 -1.0807
 5218SOL    HW320605   6.241   5.340   3.264 -0.5129  1.0444 -0.2635
 5218SOL    MW420606   6.317   5.382   3.259  0.1612 -0.8916 -0.2858
 5219SOL     OW20607   5.613   0.886   5.618 -0.0976  0.4071  0.1821
 5219SOL    HW220608   5.521   0.873   5.644  0.6290 -1.2030  2.2211
 5219SOL    HW320609   5.648   0.797   5.612  1.3251  1.0057 -0.6239
 5219SOL    MW420610   5.605   0.872   5.621 -0.1983 -0.1663 -0.2839
 5220SOL     OW20611   3.038   5.148   5.611 -0.1249 -0.2802 -0.3016
 5220SOL    HW220612   2.963   5.199   5.640  0.2083  1.2414 -1.8925
 5220SOL    HW320613   3.002   5.065   5.582 -1.3256  0.6711 -1.6558
 5220SOL    MW420614   3.024   5.144   5.611  0.0213  0.6014 -0.2836
 5221SOL     OW20615   5.483   2.612   3.029 -0.0170 -0.3971  0.1569
 5221SOL    HW220616   5.473   2.650   3.116  0.8800 -0.6595  0.3807
 5221SOL    HW320617   5.497   2.687   2.972  1.2036 -0.3354  0.5157
 5221SOL    MW420618   5.483   2.627   3.033  0.2601 -0.3418 -0.0534
 5222SOL     OW20619   0.590   5.553   4.471 -0.1589 -0.0302  0.3937
 5222SOL    HW220620   0.557   5.581   4.386  1.7473 -0.9721 -0.7121
 5222SOL    HW320621   0.512   5.528   4.520 -1.2881  0.3691 -1.1336
 5222SOL    MW420622   0.575   5.553   4.466 -0.2864  0.4764  0.2155
 5223SOL     OW20623   2.049   2.843   4.370  0.2867 -0.1304  0.1326
 5223SOL    HW220624   2.123   2.858   4.429 -0.4739  0.2110  1.0195
 5223SOL    HW320625   2.089   2.805   4.291  1.2672 -0.9932  1.0100
 5223SOL    MW420626   2.064   2.840   4.367 -0.1112 -0.0098 -0.7549
 5224SOL     OW20627   0.101   1.339   4.698  0.0154 -0.4488  0.0680
 5224SOL    HW220628   0.131   1.289   4.623  1.3061  1.2165 -0.5947
 5224SOL    HW320629   0.085   1.427   4.664 -2.3810 -0.3890  1.1378
 5224SOL    MW420630   0.103   1.344   4.684 -0.4010 -0.7186  0.9579
 5225SOL     OW20631   4.831   6.089   4.747 -0.0874  0.2101  0.2449
 5225SOL    HW220632   4.879   6.021   4.794  0.6519  0.5718  0.0172
 5225SOL    HW320633   4.739   6.062   4.754  0.0945 -0.2323  1.0953
 5225SOL    MW420634   4.825   6.076   4.754 -0.1476  0.1436 -0.4694
 5226SOL     OW20635   5.752   4.372   5.401  0.5583 -0.1099 -0.3649
 5226SOL    HW220636   5.666   4.334   5.382  1.0643 -0.8438 -1.2710
 5226SOL    HW320637   5.733   4.450   5.454 -0.7148  0.1668 -1.1867
 5226SOL    MW420638   5.738   4.377   5.405 -0.7300 -0.7420 -0.2021
 5227SOL     OW20639   3.651   3.980   3.215 -0.4230  0.2965  0.0022
 5227SOL    HW220640   3.636   4.073   3.198  0.6066  0.4221 -0.2965
 5227SOL    HW320641   3.683   3.945   3.132  1.3800  0.1787  0.6964
 5227SOL    MW420642   3.653   3.988   3.202  0.7806 -0.2395 -0.0730
 5228SOL     OW20643   1.645   4.460   1.404  0.3989  0.5313 -0.8701
 5228SOL    HW220644   1.625   4.398   1.474  1.1319  1.5898  0.3383
 5228SOL    HW320645   1.644   4.408   1.324  0.8626 -1.0075  0.0822
 5228SOL    MW420646   1.642   4.445   1.403 -0.0901 -0.3445  0.0138
 5229SOL     OW20647   5.446   5.342   1.229  0.1386  0.5810  0.9435
 5229SOL    HW220648   5.392   5.418   1.209  1.7307  2.3381  2.8570
 5229SOL    HW320649   5.411   5.309   1.312 -0.3850 -0.6638  0.2475
 5229SOL    MW420650   5.435   5.348   1.238 -0.1753  0.3148  0.4330
 5230SOL     OW20651   2.838   4.189   1.802  0.1249 -0.3953 -0.1568
 5230SOL    HW220652   2.909   4.169   1.740 -0.0677 -0.9028 -0.2180
 5230SOL    HW320653   2.786   4.256   1.757  0.3023 -0.3585 -0.3103
 5230SOL    MW420654   2.841   4.195   1.788 -0.2607 -0.2172 -0.1779
 5231SOL     OW20655   3.161   0.504   1.419  0.1428 -0.0710 -0.4173
 5231SOL    HW220656   3.236   0.513   1.478 -0.6588 -0.5503  0.7224
 5231SOL    HW320657   3.161   0.412   1.394  0.1031 -0.0093 -0.6445
 5231SOL    MW420658   3.171   0.493   1.424  0.1236 -0.1906  0.4521
 5232SOL     OW20659   1.414   0.438   4.664  0.3412  0.7104 -0.1389
 5232SOL    HW220660   1.443   0.372   4.726 -0.4840 -0.0267 -0.5257
 5232SOL    HW320661   1.481   0.437   4.596 -1.0567 -1.8299 -1.6377
 5232SOL    MW420662   1.427   0.429   4.663 -0.6338  0.1815  0.3471
 5233SOL     OW20663   4.801   4.025   1.797 -0.4270  0.0459 -0.0731
 5233SOL    HW220664   4.767   4.114   1.792 -0.3231  0.1377  0.7687
 5233SOL    HW320665   4.857   4.016   1.720 -2.6827 -0.2637 -1.8017
 5233SOL    MW420666   4.804   4.035   1.786  0.3635  0.2634  0.3364
 5234SOL     OW20667   0.539   3.102   5.317 -0.3084 -0.6262  0.2386
 5234SOL    HW220668   0.460   3.064   5.281 -0.2367 -1.3769  0.8340
 5234SOL    HW320669   0.589   3.133   5.241 -1.6220  0.8143 -0.0848
 5234SOL    MW420670   0.535   3.101   5.302  0.0625 -0.0086 -0.1033
 5235SOL     OW20671   0.190   2.186   1.000  0.1165 -0.3749  0.5064
 5235SOL    HW220672   0.251   2.149   0.936 -0.1519 -1.3390  0.7990
 5235SOL    HW320673   0.225   2.160   1.085  0.2477  0.5616  0.7447
 5235SOL    MW420674   0.203   2.178   1.003 -0.0512  0.0411 -0.3105
 5236SOL     OW20675   5.998   4.745   5.424  0.0488 -0.2133  0.5860
 5236SOL    HW220676   6.010   4.657   5.461 -0.2265  0.0469  1.2970
 5236SOL    HW320677   6.048   4.803   5.481  1.2971 -0.0475 -0.6109
 5236SOL    MW420678   6.006   4.741   5.436 -0.4722  0.0472 -0.5883
 5237SOL     OW20679   3.024   6.338   0.142  0.2450 -0.2430 -0.2381
 5237SOL    HW220680   2.973   6.417   0.160 -1.4640 -1.2737 -0.3907
 5237SOL    HW320681   2.996   6.275   0.208  1.8593 -0.6444  0.1117
 5237SOL    MW420682   3.014   6.340   0.153 -0.1546 -0.2593 -0.0661
 5238SOL     OW20683   5.544   1.463   3.853 -0.4432  0.1302  0.4287
 5238SOL    HW220684   5.513   1.477   3.942 -1.0376 -1.2659  0.4541
 5238SOL    HW320685   5.630   1.421   3.864  0.4330  1.7948  0.3311
 5238SOL    MW420686   5.551   1.460   3.866  0.4704  0.3331 -1.0369
 5239SOL     OW20687   0.205   4.841   4.605 -0.5599  0.1570  0.3638
 5239SOL    HW220688   0.299   4.858   4.600 -0.4149 -0.2051  1.5663
 5239SOL    HW320689   0.167   4.902   4.542  0.5683 -0.5094 -1.0102
 5239SOL    MW420690   0.213   4.852   4.596  0.3334 -0.2939  0.0387
 5240SOL     OW20691   0.436   0.210   1.254  0.2152 -0.5490 -0.2630
 5240SOL    HW220692   0.393   0.224   1.169 -0.7806  0.3097  0.3608
 5240SOL    HW320693   0.369   0.166   1.307 -0.0427  1.0719  0.8184
 5240SOL    MW420694   0.421   0.206   1.249 -0.2225  0.0297 -0.2650
 5241SOL     OW20695   3.653   3.625   4.836  0.2607  0.4156 -0.2015
 5241SOL    HW220696   3.710   3.555   4.867 -2.8659 -1.2053  2.5928
 5241SOL    HW320697   3.661   3.694   4.901  0.7061  1.1947 -1.0579
 5241SOL    MW420698   3.661   3.625   4.848  0.1122  0.0401  0.1890
 5242SOL     OW20699   3.405   1.897   3.853  0.6010 -0.4965  0.2621
 5242SOL    HW220700   3.317   1.929   3.835  0.7515 -1.0490 -1.7744
 5242SOL    HW320701   3.392   1.813   3.897  0.1904  0.6727  2.5211
 5242SOL    MW420702   3.391   1.890   3.856  0.3601 -0.1623  0.0557
 5243SOL     OW20703   2.858   1.990   1.284  0.0768  0.5247 -0.0994
 5243SOL    HW220704   2.854   1.972   1.378 -1.0479 -3.5392 -0.7454
 5243SOL    HW320705   2.938   1.946   1.255  0.1413  1.3051 -1.1486
 5243SOL    MW420706   2.868   1.982   1.293 -0.1889  0.0851 -0.8768
 5244SOL     OW20707   1.818   1.770   3.484 -0.7682 -0.3544  0.0763
 5244SOL    HW220708   1.772   1.693   3.449 -0.7942 -0.4017  0.2131
 5244SOL    HW320709   1.817   1.833   3.413  1.4254 -1.3567 -0.9401
 5244SOL    MW420710   1.812   1.768   3.470  0.4366 -0.5353  0.3865
 5245SOL     OW20711   3.889   1.760   3.188  0.5389 -0.4135 -0.2315
 5245SOL    HW220712   3.953   1.706   3.234  2.2233  0.2512 -1.7017
 5245SOL    HW320713   3.811   1.755   3.243  0.8951 -3.5293  0.1931
 5245SOL    MW420714   3.887   1.752   3.201  0.6356  0.1391 -1.0158
 5246SOL     OW20715   2.321   5.651   0.492 -0.1344  0.2592  0.5075
 5246SOL    HW220716   2.364   5.653   0.406  1.0266  2.2035  1.0733
 5246SOL    HW320717   2.246   5.711   0.482  0.4271  1.0638  1.0355
 5246SOL    MW420718   2.317   5.659   0.479 -0.4112  0.0306 -0.1010
 5247SOL     OW20719   4.933   0.369   2.850 -0.3911  0.0617  0.4185
 5247SOL    HW220720   4.898   0.282   2.831  0.0816  0.1987 -1.2687
 5247SOL    HW320721   4.916   0.382   2.943 -0.7780 -1.6914  0.6313
 5247SOL    MW420722   4.926   0.359   2.860  0.4261  0.2506  0.1687
 5248SOL     OW20723   1.605   1.229   2.928  0.2974  0.3616 -0.4122
 5248SOL    HW220724   1.510   1.237   2.924  0.1750 -0.8729 -0.4205
 5248SOL    HW320725   1.625   1.157   2.868  1.3825  1.5075 -1.4904
 5248SOL    MW420726   1.595   1.220   2.920  0.0486  0.2160 -0.7549
 5249SOL     OW20727   4.160   0.651   5.390  0.1370  0.0190 -0.1110
 5249SOL    HW220728   4.196   0.588   5.328 -0.5619 -0.1438 -0.3576
 5249SOL    HW320729   4.097   0.702   5.339 -0.5834 -0.2387  0.4977
 5249SOL    MW420730   4.156   0.650   5.375 -0.2934 -0.0264  0.3439
 5250SOL     OW20731   1.946   6.071   4.587  0.5833  0.5393  0.2213
 5250SOL    HW220732   2.005   6.059   4.512  0.4052 -0.9674  0.2882
 5250SOL    HW320733   1.863   6.097   4.548  0.8711  1.1913  0.0195
 5250SOL    MW420734   1.943   6.073   4.572  0.4566  0.4710  0.3337
 5251SOL     OW20735   5.882   3.140   2.037  0.6325 -0.1024 -0.0671
 5251SOL    HW220736   5.964   3.189   2.031  2.1171 -2.0742  1.9874
 5251SOL    HW320737   5.898   3.060   1.986 -0.5678  0.0913 -0.7893
 5251SOL    MW420738   5.895   3.136   2.030  0.6953 -0.3205  0.6852
 5252SOL     OW20739   3.282   3.997   5.672 -0.4694 -0.4463  0.2379
 5252SOL    HW220740   3.210   4.026   5.616 -0.8479 -0.1669  0.8560
 5252SOL    HW320741   3.358   3.997   5.615 -1.0859 -1.4886 -0.6300
 5252SOL    MW420742   3.282   4.001   5.657  0.1056  0.1683 -0.5585
 5253SOL     OW20743   2.549   2.280   2.560 -0.8755 -0.4993 -0.4951
 5253SOL    HW220744   2.567   2.223   2.486 -1.7480 -2.0553  0.4250
 5253SOL    HW320745   2.634   2.291   2.603 -0.9748 -2.9871  0.5417
 5253SOL    MW420746   2.563   2.274   2.556 -0.2280 -0.6989 -0.7964
 5254SOL     OW20747   2.935   5.684   0.272  0.1362  0.4191 -0.1416
 5254SOL    HW220748   2.852   5.707   0.315 -0.1290  0.7825 -0.8379
 5254SOL    HW320749   2.915   5.685   0.178  0.8277  0.1000 -0.3007
 5254SOL    MW420750   2.921   5.687   0.265 -0.4270 -0.3687  0.1597
 5255SOL     OW20751   6.414   2.377   2.137  0.5212 -0.1653 -0.1608
 5255SOL    HW220752   6.465   2.414   2.209 -0.6050 -1.2749  1.2698
 5255SOL    HW320753   6.478   2.365   2.066  1.7261  0.6819  0.7361
 5255SOL    MW420754   6.429   2.380   2.137  0.6330 -0.8778  0.2838
 5256SOL     OW20755   5.052   0.159   1.950 -0.0422 -0.1978 -0.4180
 5256SOL    HW220756   5.115   0.229   1.928 -0.4746 -0.1185 -1.4959
 5256SOL    HW320757   5.074   0.088   1.889 -0.6008 -0.4005 -0.3841
 5256SOL    MW420758   5.063   0.159   1.939 -0.1330 -0.3873 -0.1572
 5257SOL     OW20759   0.432   0.880   1.611 -0.0063 -0.0653 -0.3757
 5257SOL    HW220760   0.367   0.828   1.658 -0.7974  2.6544  1.8172
 5257SOL    HW320761   0.515   0.859   1.654 -0.3633  0.6432  0.6960
 5257SOL    MW420762   0.434   0.871   1.623 -0.4623 -0.4653  0.5217
 5258SOL     OW20763   1.560   0.791   2.739 -0.2413  0.0868  0.0740
 5258SOL    HW220764   1.536   0.823   2.826  1.3829  0.8768  0.2709
 5258SOL    HW320765   1.629   0.726   2.755  1.6882  1.8264 -0.6536
 5258SOL    MW420766   1.566   0.787   2.753  0.2133  0.0580 -0.1398
 5259SOL     OW20767   6.342   0.362   5.767 -0.3752  0.6359 -0.1010
 5259SOL    HW220768   6.315   0.449   5.737 -1.7640  0.8155  1.5090
 5259SOL    HW320769   6.260   0.312   5.772  0.1175 -0.1146  0.9446
 5259SOL    MW420770   6.327   0.367   5.764  0.1927 -0.1722 -0.4083
 5260SOL     OW20771   3.919   0.282   6.390  0.5248 -0.3655 -0.5004
 5260SOL    HW220772   3.954   0.367   6.363 -0.6834 -0.0725 -1.2401
 5260SOL    HW320773   3.910   0.232   6.309  0.0908 -0.7531 -0.2201
 5260SOL    MW420774   3.922   0.287   6.376 -0.6633 -0.7022  0.7621
 5261SOL     OW20775   5.511   4.506   6.276  0.1034 -0.3799  0.0007
 5261SOL    HW220776   5.466   4.590   6.271 -0.9602 -0.9545 -0.5346
 5261SOL    HW320777   5.443   4.443   6.300  0.4924 -1.3702 -1.3528
 5261SOL    MW420778   5.496   4.509   6.279 -0.6715  0.2797  0.5730
 5262SOL     OW20779   2.542   4.458   2.662 -0.2229 -0.3094  0.0204
 5262SOL    HW220780   2.518   4.434   2.572 -2.6906 -1.4226  0.8884
 5262SOL    HW320781   2.630   4.423   2.674 -0.2245 -0.9771 -1.6666
 5262SOL    MW420782   2.550   4.450   2.652 -0.0408 -0.4298  0.4651
 5263SOL     OW20783   3.839   6.168   5.807  0.1759 -0.4103 -0.2164
 5263SOL    HW220784   3.828   6.262   5.794  0.1872  0.1948  3.1599
 5263SOL    HW320785   3.925   6.148   5.769 -0.1038  0.7776 -1.5401
 5263SOL    MW420786   3.849   6.178   5.801  0.5503 -0.3858  0.1349
 5264SOL     OW20787   4.076   0.264   1.991 -0.0466  0.5849 -0.4097
 5264SOL    HW220788   4.020   0.225   1.924  0.5006 -0.3211 -0.3600
 5264SOL    HW320789   4.034   0.243   2.074  0.6938 -0.7003 -0.3317
 5264SOL    MW420790   4.063   0.256   1.993  0.1306  0.0687  0.3685
 5265SOL     OW20791   1.359   1.616   3.878 -0.0754  0.4424  0.1247
 5265SOL    HW220792   1.312   1.667   3.812 -1.0133  0.0505  0.4707
 5265SOL    HW320793   1.434   1.671   3.903 -0.7484  1.3916  0.0893
 5265SOL    MW420794   1.363   1.630   3.873  0.1831  0.3323  0.1951
 5266SOL     OW20795   0.164   1.805   0.375 -0.6027 -0.1422 -0.0938
 5266SOL    HW220796   0.236   1.856   0.338  0.8955 -1.9454  0.1494
 5266SOL    HW320797   0.129   1.860   0.445 -1.2788  1.8896 -1.9254
 5266SOL    MW420798   0.169   1.819   0.380  0.0496 -0.6367 -0.3502
 5267SOL     OW20799   2.862   0.666   2.910  0.0587 -0.0051  0.2224
 5267SOL    HW220800   2.853   0.576   2.879 -1.1500  0.9844 -2.6002
 5267SOL    HW320801   2.954   0.688   2.894  0.6392 -0.9921  1.9146
 5267SOL    MW420802   2.873   0.657   2.904 -0.2004 -0.4447  0.3542
 5268SOL     OW20803   5.740   0.184   5.048  0.1089  0.2860  0.1664
 5268SOL    HW220804   5.746   0.175   5.143 -2.6612  1.1685  0.5419
 5268SOL    HW320805   5.819   0.142   5.014  0.8337 -0.6823  2.8023
 5268SOL    MW420806   5.751   0.177   5.056  0.5453  0.5486 -0.5349
 5269SOL     OW20807   3.210   2.278   2.635 -0.6042 -0.3039  0.3578
 5269SOL    HW220808   3.168   2.334   2.700  1.7236  1.0341  0.8345
 5269SOL    HW320809   3.161   2.294   2.554 -2.1696 -0.3174  1.2643
 5269SOL    MW420810   3.198   2.287   2.633 -0.3566  0.0001 -0.1116
 5270SOL     OW20811   1.879   4.158   3.366 -0.1454 -0.1784 -0.4625
 5270SOL    HW220812   1.846   4.161   3.456  0.6163 -1.4534 -0.1220
 5270SOL    HW320813   1.959   4.107   3.371 -0.3354 -0.6737 -1.9546
 5270SOL    MW420814   1.885   4.152   3.379  0.3230 -0.2922  0.0868
 5271SOL     OW20815   1.356   0.152   5.841  0.2195 -0.6220 -0.4480
 5271SOL    HW220816   1.300   0.218   5.881 -1.6842 -0.8828 -2.4476
 5271SOL    HW320817   1.361   0.081   5.906  1.3425  0.9433  1.2490
 5271SOL    MW420818   1.349   0.151   5.855 -0.0944 -0.0838 -0.1708
 5272SOL     OW20819   2.584   2.798   0.928  0.5942 -0.9198 -0.1136
 5272SOL    HW220820   2.601   2.859   0.856  0.3301 -0.0853  0.5101
 5272SOL    HW320821   2.572   2.713   0.886 -0.0119 -0.3663 -1.0891
 5272SOL    MW420822   2.585   2.795   0.913 -0.4225 -0.1085 -0.6205
 5273SOL     OW20823   4.073   1.131   4.791 -0.3083 -0.3767 -0.3227
 5273SOL    HW220824   4.083   1.112   4.885 -1.1348 -2.1753 -0.5507
 5273SOL    HW320825   4.138   1.076   4.748 -0.7363 -0.4743 -0.8586
 5273SOL    MW420826   4.083   1.121   4.798 -0.1196 -0.1221  0.3780
 5274SOL     OW20827   2.728   2.788   1.652  0.0300 -0.5087 -0.0930
 5274SOL    HW220828   2.767   2.703   1.630  0.5002 -0.2135 -0.4532
 5274SOL    HW320829   2.768   2.812   1.735  0.3903 -0.3522 -0.3066
 5274SOL    MW420830   2.739   2.780   1.660  0.5263  0.0105  0.0354
 5275SOL     OW20831   1.450   5.659   3.186  0.3531  0.3939  0.4099
 5275SOL    HW220832   1.519   5.719   3.214  1.5201 -0.3839 -0.6497
 5275SOL    HW320833   1.488   5.572   3.198 -0.8860 -0.0993  0.8745
 5275SOL    MW420834   1.464   5.655   3.191  0.1335  0.9033 -0.0559
 5276SOL     OW20835   0.560   2.519   0.661  0.0649 -0.0455 -0.0291
 5276SOL    HW220836   0.561   2.615   0.658  0.5202  0.0137  1.4332
 5276SOL    HW320837   0.624   2.493   0.594 -0.4935  0.6421 -0.8498
 5276SOL    MW420838   0.569   2.528   0.651 -0.4083 -0.5927  0.4466
 5277SOL     OW20839   0.572   0.687   5.897 -0.4268  0.5413  0.0321
 5277SOL    HW220840   0.549   0.700   5.805  2.4806  1.7850 -0.6267
 5277SOL    HW320841   0.556   0.772   5.938 -1.4932  0.0525  0.6798
 5277SOL    MW420842   0.567   0.700   5.890  0.2380 -0.5340 -0.1747
 5278SOL     OW20843   2.582   1.900   6.229  0.2969 -0.2399  0.3171
 5278SOL    HW220844   2.529   1.856   6.163 -0.7450  0.9744  0.3047
 5278SOL    HW320845   2.544   1.873   6.313  1.5174 -1.6530  0.4666
 5278SOL    MW420846   2.570   1.890   6.232 -0.9129 -0.1176 -0.3760
 5279SOL     OW20847   2.827   1.815   6.155  0.0035  0.5073 -0.1313
 5279SOL    HW220848   2.752   1.856   6.199  0.8673 -1.1271  3.2340
 5279SOL    HW320849   2.902   1.868   6.183  0.3643  0.9209 -1.8034
 5279SOL    MW420850   2.827   1.827   6.165 -0.9416 -0.2831 -0.8670
 5280SOL     OW20851   2.532   0.915   3.675  0.2276  0.6708 -0.7490
 5280SOL    HW220852   2.462   0.879   3.729 -0.3757  2.1196 -0.5317
 5280SOL    HW320853   2.512   0.885   3.587 -1.5789  2.3217 -0.9604
 5280SOL    MW420854   2.520   0.906   3.671 -0.0835  0.1333 -0.7553
 5281SOL     OW20855   4.974   1.055   6.153  0.6098 -0.5853  0.2624
 5281SOL    HW220856   4.931   1.051   6.239 -2.0557 -1.7621 -1.0061
 5281SOL    HW320857   4.920   1.116   6.103  2.4657  0.5264 -0.4568
 5281SOL    MW420858   4.961   1.063   6.158 -0.6798 -0.3005 -0.2917
 5282SOL     OW20859   0.568   3.634   0.840 -0.3279 -0.2511  0.2349
 5282SOL    HW220860   0.623   3.658   0.766  0.3713 -0.3933  0.7031
 5282SOL    HW320861   0.560   3.714   0.892 -1.4025  0.0415 -0.3451
 5282SOL    MW420862   0.574   3.648   0.837  0.6018 -0.2946 -0.3448
 5283SOL     OW20863   0.628   1.625   2.857  0.7378  0.1661  0.4457
 5283SOL    HW220864   0.582   1.549   2.823 -0.8646  0.6128  1.5301
 5283SOL    HW320865   0.566   1.697   2.847  0.9514  0.6724  2.4693
 5283SOL    MW420866   0.614   1.624   2.851 -0.2187  0.2246 -0.6773
 5284SOL     OW20867   3.668   5.552   5.766  0.2980  0.2214 -0.0494
 5284SOL    HW220868   3.717   5.608   5.706 -1.0765 -0.3963 -1.8321
 5284SOL    HW320869   3.578   5.586   5.764  0.1229 -0.0513  1.3965
 5284SOL    MW420870   3.662   5.564   5.758  0.3273  0.1792 -0.2978
 5285SOL     OW20871   2.599   4.275   1.607  0.4099  0.1489  0.0671
 5285SOL    HW220872   2.609   4.368   1.584 -1.1674 -0.0465 -1.6649
 5285SOL    HW320873   2.632   4.228   1.530  0.3570 -0.7174  0.5591
 5285SOL    MW420874   2.605   4.281   1.593 -0.2041  0.1389  0.5241
 5286SOL     OW20875   0.577   5.947   0.144 -0.4159 -0.2126  0.1288
 5286SOL    HW220876   0.649   5.884   0.136 -0.5849 -0.2076 -1.9006
 5286SOL    HW320877   0.560   5.952   0.238  1.8231 -0.6733  0.6174
 5286SOL    MW420878   0.584   5.939   0.156 -0.0620 -0.2967  0.1370
 5287SOL     OW20879   3.313   0.527   4.959 -0.2109  0.0289 -0.2005
 5287SOL    HW220880   3.260   0.460   5.000  0.3587  0.6814  1.6919
 5287SOL    HW320881   3.343   0.487   4.877 -0.1553 -1.8762  0.7073
 5287SOL    MW420882   3.310   0.513   4.953 -0.1544 -0.3869  0.2225
 5288SOL     OW20883   0.843   1.573   1.920  0.2184 -0.1401  0.6709
 5288SOL    HW220884   0.852   1.483   1.951  1.9123 -0.3215 -0.2148
 5288SOL    HW320885   0.853   1.626   1.999  1.6689 -0.6847  0.8927
 5288SOL    MW420886   0.846   1.568   1.935 -0.1701 -0.3720 -0.0310
 5289SOL     OW20887   6.227   0.968   1.885 -0.6338  0.5209  0.7722
 5289SOL    HW220888   6.315   0.999   1.863 -0.4714  0.6933  1.6190
 5289SOL    HW320889   6.183   0.959   1.800  0.5558 -0.7042  0.2396
 5289SOL    MW420890   6.233   0.971   1.871  0.9965  0.6523 -0.1526
 5290SOL     OW20891   3.277   5.553   3.645  0.1302 -0.3734 -0.4541
 5290SOL    HW220892   3.297   5.536   3.737 -1.7022 -0.5422 -0.0476
 5290SOL    HW320893   3.181   5.548   3.639  0.2457 -1.3045 -2.5684
 5290SOL    MW420894   3.267   5.550   3.656 -0.1282 -0.3050 -0.2933
 5291SOL     OW20895   4.012   2.683   0.674  0.2360 -0.1987 -0.2604
 5291SOL    HW220896   3.965   2.761   0.702  1.0433  0.1503  0.1536
 5291SOL    HW320897   4.039   2.641   0.756  1.5443  0.1689 -0.4836
 5291SOL    MW420898   4.009   2.688   0.689  0.3937 -0.2235 -0.1904
 5292SOL     OW20899   5.504   2.798   1.325 -0.1311 -0.4486  0.2413
 5292SOL    HW220900   5.438   2.774   1.390 -1.9368  2.5617 -0.2921
 5292SOL    HW320901   5.529   2.715   1.285 -2.1884 -1.9291  1.7611
 5292SOL    MW420902   5.499   2.784   1.329 -0.5732 -0.1080 -0.3903
 5293SOL     OW20903   3.297   0.247   1.632 -0.2175 -0.9464 -0.5904
 5293SOL    HW220904   3.202   0.258   1.632 -0.1633 -0.3763 -1.5916
 5293SOL    HW320905   3.330   0.329   1.596  0.7121 -0.7471  0.6611
 5293SOL    MW420906   3.289   0.260   1.628  0.2869 -0.0685  0.4600
 5294SOL     OW20907   3.812   1.217   0.918 -0.5533 -0.4134  0.3774
 5294SOL    HW220908   3.859   1.200   0.999 -1.3997 -0.0469  0.9532
 5294SOL    HW320909   3.827   1.310   0.900  0.2345 -0.6606 -0.2818
 5294SOL    MW420910   3.820   1.227   0.926  0.6204  0.4922 -0.0726
 5295SOL     OW20911   1.514   2.815   5.674  0.4478  0.6413  0.3134
 5295SOL    HW220912   1.554   2.886   5.724 -0.2321  0.3817  1.2591
 5295SOL    HW320913   1.487   2.751   5.740  0.4031 -0.1625 -0.4695
 5295SOL    MW420914   1.515   2.816   5.689  0.1444 -0.0710 -0.3265
 5296SOL     OW20915   4.851   6.219   1.691  0.0507  0.2785  0.3906
 5296SOL    HW220916   4.844   6.258   1.603 -0.0092  0.6313  0.5513
 5296SOL    HW320917   4.880   6.129   1.674 -1.5053 -0.1631 -0.0965
 5296SOL    MW420918   4.854   6.212   1.677  0.1592 -0.2011 -0.9425
 5297SOL     OW20919   3.341   5.938   3.427 -0.2151  0.3606  0.1935
 5297SOL    HW220920   3.373   5.849   3.438  1.6307  0.7060 -1.6856
 5297SOL    HW320921   3.295   5.936   3.343 -0.2650  1.1451  0.1929
 5297SOL    MW420922   3.339   5.926   3.417  0.6054  0.1581  0.6547
 5298SOL     OW20923   3.626   1.191   3.060  0.2364 -0.0338 -0.1975
 5298SOL    HW220924   3.556   1.196   3.125 -0.6196 -0.3965 -1.0798
 5298SOL    HW320925   3.598   1.249   2.990  1.5788  1.0629  0.1142
 5298SOL    MW420926   3.613   1.200   3.060  0.6668  0.3989  0.1001
 5299SOL     OW20927   3.953   4.031   3.645 -0.0071 -0.2845  0.1505
 5299SOL    HW220928   3.991   4.024   3.732  1.7554  0.6061 -0.5054
 5299SOL    HW320929   3.950   4.124   3.626 -1.5064 -0.3931 -0.2879
 5299SOL    MW420930   3.957   4.042   3.654 -0.3802  0.0610  0.9202
 5300SOL     OW20931   0.375   3.826   1.916  0.3871 -0.1284  0.8555
 5300SOL    HW220932   0.416   3.900   1.871  0.8356 -0.2009  1.1462
 5300SOL    HW320933   0.358   3.762   1.846 -2.6353  1.3418  0.0405
 5300SOL    MW420934   0.378   3.827   1.901 -0.1168 -0.1049  0.8044
 5301SOL     OW20935   1.980   1.742   6.028 -0.5093 -0.2652  0.3898
 5301SOL    HW220936   1.972   1.826   5.985  1.8008  0.4168  1.1487
 5301SOL    HW320937   2.027   1.687   5.966  0.6622 -0.0361  1.0566
 5301SOL    MW420938   1.985   1.746   6.014 -0.3003  0.2585  0.1541
 5302SOL     OW20939   5.219   3.163   1.821 -0.1636  0.2925 -0.1876
 5302SOL    HW220940   5.193   3.164   1.913 -1.8555  1.1756 -0.6224
 5302SOL    HW320941   5.206   3.072   1.793 -1.3454  0.3711  0.0335
 5302SOL    MW420942   5.214   3.151   1.829 -0.0944  0.1507 -0.1342
 5303SOL     OW20943   3.598   3.569   3.128  0.2972 -0.0522  0.3429
 5303SOL    HW220944   3.512   3.545   3.164  0.3730 -2.7440 -0.9576
 5303SOL    HW320945   3.651   3.593   3.204 -1.3396  0.8461  1.2564
 5303SOL    MW420946   3.593   3.569   3.142  0.2074  0.2879  0.0739
 5304SOL     OW20947   3.866   4.819   2.839  0.3153  0.1603 -0.6273
 5304SOL    HW220948   3.890   4.727   2.847 -0.5927 -0.0860 -0.6117
 5304SOL    HW320949   3.794   4.820   2.776  0.6071  0.9156 -0.9663
 5304SOL    MW420950   3.860   4.807   2.832 -0.2879  0.0632 -0.2663
 5305SOL     OW20951   6.103   4.261   3.002 -0.2653 -0.3270 -0.3204
 5305SOL    HW220952   6.076   4.181   3.047 -0.2311  0.2973  0.8611
 5305SOL    HW320953   6.041   4.327   3.033 -0.0997  0.1792 -1.0446
 5305SOL    MW420954   6.091   4.259   3.012  0.1807 -0.3641  0.3424
 5306SOL     OW20955   2.010   6.276   6.281 -0.1517 -0.0736 -0.2695
 5306SOL    HW220956   2.035   6.294   6.372 -0.1402 -0.6087 -0.1646
 5306SOL    HW320957   1.927   6.323   6.270  1.1399  2.1919 -0.8054
 5306SOL    MW420958   2.002   6.284   6.292  0.3043  1.1972  0.1726
 5307SOL     OW20959   4.087   4.805   1.405  0.6113  0.3458  0.4553
 5307SOL    HW220960   4.038   4.805   1.488  0.5734 -0.3659  0.4408
 5307SOL    HW320961   4.155   4.740   1.418  0.0014 -0.5036 -0.4168
 5307SOL    MW420962   4.089   4.797   1.418 -0.3665 -0.0640 -0.1525
 5308SOL     OW20963   4.914   3.158   4.516 -0.2651  0.3468  0.1095
 5308SOL    HW220964   4.997   3.203   4.498 -1.0120  1.6285 -0.3418
 5308SOL    HW320965   4.907   3.157   4.611  0.3642  0.0545  0.1540
 5308SOL    MW420966   4.924   3.164   4.526  0.7296 -0.0687 -0.2785
 5309SOL     OW20967   6.077   3.550   4.079  0.0710 -0.3169  0.5330
 5309SOL    HW220968   6.001   3.524   4.026 -0.5991  0.7056  0.9470
 5309SOL    HW320969   6.077   3.489   4.153  0.0014 -0.6983  0.2185
 5309SOL    MW420970   6.067   3.539   4.082  0.2413 -0.6537 -0.0243
 5310SOL     OW20971   1.358   3.322   1.789 -0.6965  0.4136  0.0799
 5310SOL    HW220972   1.376   3.406   1.748 -1.2731 -0.3910 -1.9379
 5310SOL    HW320973   1.319   3.344   1.874  1.3950  2.1395  0.6647
 5310SOL    MW420974   1.355   3.336   1.795  0.2966 -0.4791 -0.0743
 5311SOL     OW20975   3.495   3.044   1.911 -0.5186  0.0752  0.6994
 5311SOL    HW220976   3.520   3.124   1.863  2.3154 -0.6928  0.6864
 5311SOL    HW320977   3.473   3.075   1.999 -0.2641  0.9482  0.4680
 5311SOL    MW420978   3.496   3.059   1.916 -0.0211 -0.1435  0.0878
 5312SOL     OW20979   6.067   6.005   1.868  0.1906 -0.1546  0.0298
 5312SOL    HW220980   6.160   5.996   1.847  0.0765 -1.1091 -0.1166
 5312SOL    HW320981   6.027   5.925   1.834 -0.4154 -0.5621  1.5953
 5312SOL    MW420982   6.074   5.994   1.861  0.2157  0.0736 -0.2031
 5313SOL     OW20983   5.781   5.975   4.512 -0.2354 -0.1621 -0.1619
 5313SOL    HW220984   5.856   5.945   4.565  0.1375 -0.9551 -1.1141
 5313SOL    HW320985   5.801   6.066   4.492  0.9467 -0.6202 -1.1750
 5313SOL    MW420986   5.794   5.983   4.517  0.0234 -0.0134 -0.0734
 5314SOL     OW20987   5.922   0.215   3.869  0.1410 -0.0892 -0.1325
 5314SOL    HW220988   5.981   0.176   3.805  0.4426 -1.1249  0.7407
 5314SOL    HW320989   5.974   0.283   3.912  0.2437 -0.0449 -0.3272
 5314SOL    MW420990   5.937   0.219   3.867  0.0338  0.5704  0.1834
 5315SOL     OW20991   4.874   6.102   5.481  0.0387  0.0976 -0.0207
 5315SOL    HW220992   4.970   6.110   5.488 -0.0242  0.1302  0.9488
 5315SOL    HW320993   4.860   6.028   5.423  0.6639 -0.3426  0.3780
 5315SOL    MW420994   4.885   6.093   5.475 -0.3877  0.1134 -0.3170
 5316SOL     OW20995   4.856   1.946   1.384  0.2902 -0.0113 -0.0109
 5316SOL    HW220996   4.792   2.016   1.376 -0.3269 -0.2497  2.2321
 5316SOL    HW320997   4.917   1.976   1.451  3.9146  1.1283 -3.4027
 5316SOL    MW420998   4.855   1.959   1.392  0.6075 -0.0510 -0.0700
 5317SOL     OW20999   5.293   2.860   0.823 -0.1396 -0.2110 -0.3973
 5317SOL    HW221000   5.250   2.810   0.753  0.5645 -0.0467 -0.9667
 5317SOL    HW321001   5.247   2.943   0.825 -2.8759 -1.6240  2.1311
 5317SOL    MW421002   5.282   2.864   0.814  0.0372  0.4457  0.0392
 5318SOL     OW21003   5.227   3.852   3.634  0.5377  0.1309 -0.1029
 5318SOL    HW221004   5.189   3.893   3.711 -1.4163 -0.8192 -0.4922
 5318SOL    HW321005   5.298   3.798   3.668  1.5506  1.8652  0.6735
 5318SOL    MW421006   5.231   3.850   3.648  0.5991 -0.1479 -0.0320
 5319SOL     OW21007   6.185   6.200   0.638  0.1660 -0.3297  0.0561
 5319SOL    HW221008   6.235   6.134   0.686  0.1596 -1.3736 -1.2991
 5319SOL    HW321009   6.246   6.232   0.572 -0.5061 -0.5974 -0.7107
 5319SOL    MW421010   6.200   6.196   0.636 -0.5771  0.2321 -0.5682
 5320SOL     OW21011   4.092   2.239   4.791 -0.0125  0.1518  0.0706
 5320SOL    HW221012   4.000   2.225   4.812  0.6440 -1.2685  2.2897
 5320SOL    HW321013   4.131   2.152   4.795  1.3013  0.5887 -1.7843
 5320SOL    MW421014   4.085   2.226   4.794 -0.0163 -0.5422 -0.2592
 5321SOL     OW21015   2.154   4.737   1.374 -0.0347 -0.4714 -0.1106
 5321SOL    HW221016   2.210   4.805   1.411  0.4697 -1.1338  0.3759
 5321SOL    HW321017   2.213   4.683   1.321 -0.9032  1.0173 -2.7698
 5321SOL    MW421018   2.169   4.739   1.372 -0.3715  0.3203  0.2323
 5322SOL     OW21019   1.017   4.721   1.277 -0.3843 -0.1193  0.1244
 5322SOL    HW221020   1.095   4.777   1.279 -0.8290  0.5199 -0.0333
 5322SOL    HW321021   0.947   4.779   1.246 -1.2598 -0.2384  1.7396
 5322SOL    MW421022   1.018   4.736   1.273 -0.2198  0.0252  0.6055
 5323SOL     OW21023   5.937   2.915   4.978  0.0318  0.3709 -0.0095
 5323SOL    HW221024   6.031   2.917   4.995 -0.3013  2.6495  2.1457
 5323SOL    HW321025   5.921   2.993   4.925 -0.5165 -0.6524 -1.3838
 5323SOL    MW421026   5.947   2.926   4.973 -0.4181 -0.0560 -0.0063
 5324SOL     OW21027   3.387   1.064   1.931  0.2455  0.1631 -0.4471
 5324SOL    HW221028   3.408   0.996   1.867  0.9199  0.6264 -0.7334
 5324SOL    HW321029   3.292   1.058   1.942  0.2161 -0.4052 -0.9358
 5324SOL    MW421030   3.377   1.054   1.924  0.1590  0.1615  0.1614
 5325SOL     OW21031   5.465   4.822   6.004 -0.1779  0.0127  0.8368
 5325SOL    HW221032   5.550   4.861   6.022  0.0829  0.0140 -0.2912
 5325SOL    HW321033   5.437   4.783   6.087 -0.1048  1.9101  1.7868
 5325SOL    MW421034   5.472   4.822   6.017  0.5753 -0.2066  0.3276
 5326SOL     OW21035   2.651   4.664   5.864 -0.2293 -0.2035  0.1298
 5326SOL    HW221036   2.612   4.642   5.949 -0.1590 -0.7454  0.0270
 5326SOL    HW321037   2.670   4.579   5.824  1.3139  0.0467  0.2926
 5326SOL    MW421038   2.648   4.650   5.870  0.5107  0.0295 -0.0127
 5327SOL     OW21039   4.956   6.307   5.788  0.2742 -0.3776  0.6630
 5327SOL    HW221040   4.894   6.366   5.744 -0.1519  0.3015  2.1287
 5327SOL    HW321041   4.988   6.250   5.718 -1.1314  0.0169 -0.3428
 5327SOL    MW421042   4.952   6.307   5.773  0.3921 -0.2208  0.0546
 5328SOL     OW21043   3.442   1.603   0.028  0.0419  0.4056 -0.0300
 5328SOL    HW221044   3.490   1.526  -0.001 -0.3543 -0.4818  1.5610
 5328SOL    HW321045   3.430   1.655  -0.052 -0.6084 -1.6613 -1.3680
 5328SOL    MW421046   3.447   1.600   0.013 -0.0113  0.0013 -0.1923
 5329SOL     OW21047   3.130   3.951   6.323  0.3153  0.0457  0.0764
 5329SOL    HW221048   3.122   3.855   6.325  0.6459  0.0181  0.0723
 5329SOL    HW321049   3.224   3.967   6.332  0.2098  0.3863  0.6356
 5329SOL    MW421050   3.141   3.940   6.325  0.0053 -0.4182 -0.2518
 5330SOL     OW21051   2.517   3.626   0.470 -0.4655  0.3403  0.6147
 5330SOL    HW221052   2.508   3.721   0.475  0.2533  0.3963  1.1098
 5330SOL    HW321053   2.428   3.593   0.461 -0.6452  1.1125 -0.7147
 5330SOL    MW421054   2.504   3.634   0.470 -0.7757 -0.6917  0.6556
 5331SOL     OW21055   6.350   2.449   4.089 -0.2341  0.1796 -0.6024
 5331SOL    HW221056   6.308   2.401   4.017 -0.3793  0.3450 -0.6293
 5331SOL    HW321057   6.279   2.463   4.152  0.4660 -2.5834  0.9926
 5331SOL    MW421058   6.335   2.444   4.088 -0.4116  0.0053 -0.4872
 5332SOL     OW21059   3.562   5.593   4.940 -0.8135  0.2060 -0.0043
 5332SOL    HW221060   3.558   5.580   5.034 -1.4952 -1.4748 -0.2242
 5332SOL    HW321061   3.529   5.511   4.903  0.2757  0.4788 -1.7118
 5332SOL    MW421062   3.557   5.580   4.947 -0.0120 -0.7837  0.1410
 5333SOL     OW21063   0.550   0.208   6.103  0.1206 -0.0209  0.0783
 5333SOL    HW221064   0.555   0.127   6.052  1.6300 -0.6674  1.1747
 5333SOL    HW321065   0.581   0.276   6.043  1.7975 -0.7602  0.0392
 5333SOL    MW421066   0.555   0.207   6.088  0.2211 -0.1310  0.4371
 5334SOL     OW21067   4.744   0.382   4.728  0.1407 -0.1052 -0.5375
 5334SOL    HW221068   4.816   0.366   4.668 -0.6388  0.3195 -1.6130
 5334SOL    HW321069   4.691   0.302   4.724 -0.3836  0.2605 -1.1085
 5334SOL    MW421070   4.746   0.369   4.720 -0.1781 -0.0372  0.5650
 5335SOL     OW21071   2.046   6.214   3.499  0.2859 -0.7996  0.1746
 5335SOL    HW221072   1.982   6.270   3.543  1.2755  0.2297  0.3517
 5335SOL    HW321073   2.030   6.126   3.534 -2.0572 -0.8928 -0.9654
 5335SOL    MW421074   2.036   6.209   3.510 -0.1718 -0.1856 -0.3612
 5336SOL     OW21075   0.838   3.099   3.703  0.4285 -0.1699 -0.0520
 5336SOL    HW221076   0.925   3.117   3.667  0.1992 -0.0238 -0.5518
 5336SOL    HW321077   0.828   3.004   3.693  0.3677 -0.1318 -0.3851
 5336SOL    MW421078   0.848   3.088   3.697 -0.6629 -0.5345 -0.1123
 5337SOL     OW21079   5.289   5.873   2.363  0.4677  0.1199 -0.0265
 5337SOL    HW221080   5.307   5.900   2.273  0.4737  1.3688  0.3268
 5337SOL    HW321081   5.217   5.930   2.391 -0.1675 -0.8888  0.4672
 5337SOL    MW421082   5.282   5.884   2.355  0.7843  0.4424  1.0524
 5338SOL     OW21083   3.730   0.739   5.373 -0.2472 -0.5369  0.2070
 5338SOL    HW221084   3.721   0.647   5.396 -0.2736 -0.0970  2.1109
 5338SOL    HW321085   3.645   0.778   5.394  0.5781  0.4021  2.0787
 5338SOL    MW421086   3.717   0.732   5.379  0.5215  0.4863 -0.0103
 5339SOL     OW21087   6.009   5.487   6.317  0.3103 -0.5601 -0.3016
 5339SOL    HW221088   5.945   5.422   6.287 -0.1192  0.1529 -0.9781
 5339SOL    HW321089   5.966   5.530   6.390 -0.2834  0.3705 -1.1731
 5339SOL    MW421090   5.995   5.484   6.322  0.2580  0.2844  0.1071
 5340SOL     OW21091   5.375   5.086   0.425 -0.4962  0.0307  0.3915
 5340SOL    HW221092   5.388   4.999   0.388 -0.5151  0.3063 -0.2642
 5340SOL    HW321093   5.302   5.122   0.376 -1.4690 -0.1412  1.6505
 5340SOL    MW421094   5.367   5.079   0.414 -0.0734  0.0341 -0.0668
 5341SOL     OW21095   3.930   3.429   0.630 -0.0549 -0.2789  0.0115
 5341SOL    HW221096   3.835   3.432   0.624  0.0568  0.0709 -2.3799
 5341SOL    HW321097   3.948   3.344   0.671 -1.3677 -0.0119  1.2525
 5341SOL    MW421098   3.920   3.418   0.635  0.2208  0.6094  0.1215
 5342SOL     OW21099   2.296   4.931   4.402 -0.1890 -0.0299  0.1961
 5342SOL    HW221100   2.355   4.989   4.449  0.3016 -0.0588 -0.3623
 5342SOL    HW321101   2.338   4.845   4.407  0.1576  0.0630 -0.7286
 5342SOL    MW421102   2.310   4.927   4.409  0.0094 -1.1595 -0.1865
 5343SOL     OW21103   6.279   3.992   2.194  0.4416  0.0543 -0.3875
 5343SOL    HW221104   6.359   3.978   2.244 -0.2570  0.5318  0.9243
 5343SOL    HW321105   6.309   4.029   2.111  1.6774 -1.3729 -0.6165
 5343SOL    MW421106   6.293   3.995   2.190 -0.2497  0.3101 -0.1070
 5344SOL     OW21107   5.170   5.612   3.362  0.0090 -0.6493 -0.6563
 5344SOL    HW221108   5.148   5.571   3.445 -1.7031 -1.0387 -1.2500
 5344SOL    HW321109   5.183   5.539   3.302 -2.4695 -0.4343 -1.5811
 5344SOL    MW421110   5.169   5.597   3.365  0.6469  0.1159  0.8869
 5345SOL     OW21111   6.095   5.689   3.063 -0.3875 -0.1003  0.5754
 5345SOL    HW221112   6.086   5.593   3.058 -1.6484  0.0201  0.3484
 5345SOL    HW321113   6.008   5.722   3.045  0.2162  1.1307 -0.1721
 5345SOL    MW421114   6.083   5.681   3.060 -0.4623  0.5229  0.4750
 5346SOL     OW21115   5.236   4.749   3.989 -0.1103  0.6584  0.1623
 5346SOL    HW221116   5.175   4.813   4.026 -0.3270 -0.6032  2.1053
 5346SOL    HW321117   5.246   4.683   4.058  1.3347 -0.5780 -1.1759
 5346SOL    MW421118   5.229   4.749   4.003 -0.6504  0.3810  0.3861
 5347SOL     OW21119   2.873   4.856   3.195  0.0223  0.4668  0.2103
 5347SOL    HW221120   2.908   4.853   3.284 -0.0147  1.4008  0.2718
 5347SOL    HW321121   2.948   4.879   3.140  0.2013 -0.7968 -0.1134
 5347SOL    MW421122   2.888   4.859   3.199 -0.4620  0.7986  0.0220
 5348SOL     OW21123   4.085   4.980   3.811  0.2398 -0.5649  0.1831
 5348SOL    HW221124   4.086   4.999   3.905 -1.4798 -1.4501  0.4087
 5348SOL    HW321125   4.155   4.916   3.800  1.0118  0.1609  0.6984
 5348SOL    MW421126   4.095   4.974   3.822  0.3317 -0.3613  0.1768
 5349SOL     OW21127   1.167   6.330   5.865 -0.2980 -0.4290 -0.3456
 5349SOL    HW221128   1.100   6.280   5.819 -0.1557 -2.7510  1.7316
 5349SOL    HW321129   1.247   6.277   5.857  0.7462  1.1393 -0.8197
 5349SOL    MW421130   1.169   6.316   5.858  0.0764 -0.5932  0.6693
 5350SOL     OW21131   1.915   3.826   4.651 -0.2529 -0.1088  0.3846
 5350SOL    HW221132   1.911   3.829   4.747 -1.1914  0.8431  0.3424
 5350SOL    HW321133   1.990   3.880   4.629 -0.1023 -0.2347  0.5869
 5350SOL    MW421134   1.924   3.834   4.661  0.0479 -0.0498 -0.6166
 5351SOL     OW21135   1.179   4.169   1.199 -0.4832 -0.2239 -0.2420
 5351SOL    HW221136   1.092   4.170   1.240 -0.7975 -1.6004 -0.8291
 5351SOL    HW321137   1.161   4.175   1.105  0.2205  2.7095 -0.2943
 5351SOL    MW421138   1.165   4.170   1.192 -0.2009  0.0842 -0.1356
 5352SOL     OW21139   6.280   6.036   5.670 -0.2878  0.0845  0.6486
 5352SOL    HW221140   6.235   6.045   5.585 -0.2833  0.5674  0.6910
 5352SOL    HW321141   6.368   6.069   5.653  0.7397 -2.6863  0.0481
 5352SOL    MW421142   6.285   6.042   5.656 -0.2306  0.3254  0.8900
 5353SOL     OW21143   5.277   1.838   1.022 -0.8989 -0.3377 -0.2529
 5353SOL    HW221144   5.361   1.805   1.053 -0.8381  1.7315  2.0446
 5353SOL    HW321145   5.222   1.760   1.014  0.7600 -1.5541 -0.3798
 5353SOL    MW421146   5.281   1.823   1.025 -0.2163  0.1550 -0.5988
 5354SOL     OW21147   1.260   3.864   5.249  0.4453  0.0030  0.5421
 5354SOL    HW221148   1.258   3.854   5.345  1.0519 -0.5227  0.5047
 5354SOL    HW321149   1.169   3.848   5.223  0.1733  0.6216  1.0665
 5354SOL    MW421150   1.247   3.860   5.258 -0.2306 -0.0041 -0.0504
 5355SOL     OW21151   5.807   4.751   3.850 -0.2587 -0.3255  0.3169
 5355SOL    HW221152   5.873   4.800   3.801 -1.6573  1.2407 -0.1322
 5355SOL    HW321153   5.845   4.740   3.937  0.5396  0.6942  0.1253
 5355SOL    MW421154   5.820   4.756   3.855 -0.2123 -0.1374 -0.4910
 5356SOL     OW21155   1.025   5.039   0.966  0.2382  0.2134 -0.1262
 5356SOL    HW221156   1.096   5.087   1.009 -0.6714  0.3847  1.2380
 5356SOL    HW321157   1.061   4.951   0.953  0.2858 -0.0993  1.7963
 5356SOL    MW421158   1.040   5.033   0.970  0.2049 -0.2504  0.5072
 5357SOL     OW21159   0.724   2.195   4.109  0.1886 -0.3880 -0.5816
 5357SOL    HW221160   0.748   2.264   4.171 -1.3863 -0.4501  0.1608
 5357SOL    HW321161   0.646   2.154   4.147  0.3833 -1.7966 -1.6020
 5357SOL    MW421162   0.717   2.199   4.122  0.1996 -0.3079 -0.1565
 5358SOL     OW21163   4.713   4.997   2.253  0.5958  0.0840 -0.2582
 5358SOL    HW221164   4.787   4.936   2.252  0.0823 -0.5407 -1.4587
 5358SOL    HW321165   4.690   5.009   2.161  0.1506  1.4592  0.0056
 5358SOL    MW421166   4.720   4.991   2.241  0.7462  0.0565  0.3430
 5359SOL     OW21167   1.728   1.925   4.757  0.2347  0.3846 -0.0309
 5359SOL    HW221168   1.784   1.862   4.711  0.8100  1.0996 -0.3488
 5359SOL    HW321169   1.720   1.891   4.846  0.5871 -0.0997 -0.1835
 5359SOL    MW421170   1.735   1.912   4.763 -0.7548 -0.2993 -0.0323
 5360SOL     OW21171   6.366   2.254   0.075  0.1236  0.0188 -0.1811
 5360SOL    HW221172   6.417   2.209   0.143 -1.6916 -0.2292  1.0831
 5360SOL    HW321173   6.370   2.195  -0.001  1.5687 -0.0464 -0.0865
 5360SOL    MW421174   6.373   2.240   0.074  0.2042  0.0937  0.0512
 5361SOL     OW21175   4.714   5.894   6.250 -0.2004 -0.7663 -0.3550
 5361SOL    HW221176   4.749   5.845   6.325 -1.9748  0.2423  1.2178
 5361SOL    HW321177   4.621   5.872   6.248 -0.4184  0.1590 -1.5285
 5361SOL    MW421178   4.707   5.885   6.260  0.6833 -0.6053 -0.6141
 5362SOL     OW21179   4.415   1.437   4.981 -0.2581 -0.5117 -0.2096
 5362SOL    HW221180   4.337   1.407   5.027 -0.9050  0.0735 -0.8885
 5362SOL    HW321181   4.381   1.489   4.908  0.7875  0.8807  0.2472
 5362SOL    MW421182   4.400   1.440   4.977 -0.0193 -0.6853  0.2453
 5363SOL     OW21183   6.308   6.361   5.030 -0.5253 -0.0683 -0.0685
 5363SOL    HW221184   6.396   6.341   4.997 -0.0956  1.5505  0.0189
 5363SOL    HW321185   6.300   6.307   5.109  0.0623 -0.8477 -0.5264
 5363SOL    MW421186   6.319   6.351   5.036 -0.0375 -0.6843 -0.1647
 5364SOL     OW21187   3.192   5.523   4.588 -0.3830  0.4163 -0.1193
 5364SOL    HW221188   3.223   5.612   4.573 -2.1371  0.8340 -1.5737
 5364SOL    HW321189   3.101   5.524   4.560 -0.5199 -1.7776  0.0792
 5364SOL    MW421190   3.184   5.535   4.582 -0.5243  0.3880 -0.1196
 5365SOL     OW21191   2.922   2.853   4.828 -0.0968  0.8076 -0.1287
 5365SOL    HW221192   2.903   2.896   4.911  0.2606  1.0674 -0.1768
 5365SOL    HW321193   3.016   2.870   4.813 -0.1828  0.8570 -0.6332
 5365SOL    MW421194   2.932   2.861   4.837  0.2291  0.1446  0.0250
 5366SOL     OW21195   4.540   3.121   3.752  0.7239  0.0997 -0.2116
 5366SOL    HW221196   4.619   3.175   3.753  1.0473 -0.1819 -2.9693
 5366SOL    HW321197   4.566   3.042   3.705 -1.3478  0.3020 -1.8028
 5366SOL    MW421198   4.554   3.118   3.746 -0.2285  0.0007  0.1287
 5367SOL     OW21199   1.613   5.266   0.468 -0.3027 -0.2442  0.0175
 5367SOL    HW221200   1.675   5.305   0.529 -0.8162  1.3737 -0.4470
 5367SOL    HW321201   1.591   5.181   0.507  1.1510 -0.2695  0.8581
 5367SOL    MW421202   1.618   5.260   0.481  0.2924 -0.0417 -0.6139
 5368SOL     OW21203   6.326   0.319   5.235 -0.3897 -0.0796 -0.2035
 5368SOL    HW221204   6.320   0.378   5.160 -1.4413 -0.7909 -0.7104
 5368SOL    HW321205   6.267   0.247   5.214  2.0073 -2.1521 -0.3270
 5368SOL    MW421206   6.317   0.317   5.223 -0.0808  0.0768 -0.3371
 5369SOL     OW21207   0.152   4.069   3.040  0.4228 -0.3668  0.3580
 5369SOL    HW221208   0.121   4.032   2.957  2.4387 -0.8762 -0.2092
 5369SOL    HW321209   0.129   4.002   3.105  1.0398 -1.1191 -0.1734
 5369SOL    MW421210   0.145   4.055   3.038 -0.5533  0.1290  0.3129
 5370SOL     OW21211   4.629   6.153   2.952 -0.7542 -0.0469  0.0320
 5370SOL    HW221212   4.720   6.145   2.926  0.2257  2.0528  2.3986
 5370SOL    HW321213   4.596   6.228   2.903 -0.8555 -0.0527  0.0895
 5370SOL    MW421214   4.636   6.162   2.942 -0.3663  0.0456  0.2100
 5371SOL     OW21215   5.924   5.187   6.360  0.1842  0.2472  0.2377
 5371SOL    HW221216   5.833   5.160   6.351 -0.0898  1.3786 -0.5197
 5371SOL    HW321217   5.924   5.252   6.430  0.4861 -0.0356  0.5099
 5371SOL    MW421218   5.912   5.192   6.368 -0.0346 -0.1897 -0.2122
 5372SOL     OW21219   5.421   2.133   0.603  0.1723  0.1870  0.0632
 5372SOL    HW221220   5.389   2.106   0.689  1.2445  1.7548  1.0236
 5372SOL    HW321221   5.509   2.095   0.598  0.1303  0.1418 -0.3148
 5372SOL    MW421222   5.429   2.125   0.614 -0.9410 -0.0375  0.2426
 5373SOL     OW21223   0.842   4.918   1.167  0.5164  0.4395 -0.0979
 5373SOL    HW221224   0.841   4.973   1.246  1.2616 -0.7841  0.7951
 5373SOL    HW321225   0.910   4.956   1.112 -0.0572  1.3486 -0.1943
 5373SOL    MW421226   0.851   4.930   1.170  0.3523  0.0793 -0.0111
 5374SOL     OW21227   4.149   1.306   0.074 -0.0314 -0.1742 -0.2812
 5374SOL    HW221228   4.186   1.219   0.059  1.0235  0.3676 -0.9948
 5374SOL    HW321229   4.073   1.291   0.130  2.3939 -1.2071  3.0450
 5374SOL    MW421230   4.144   1.292   0.080 -0.4744  0.2518 -0.2832
 5375SOL     OW21231   5.300   4.222   1.242  0.4466  0.0705 -0.0869
 5375SOL    HW221232   5.292   4.278   1.165 -1.0088  0.2378  0.1395
 5375SOL    HW321233   5.279   4.134   1.211  0.2358  0.0763  0.0324
 5375SOL    MW421234   5.296   4.218   1.228  0.2693  0.1271 -0.2099
 5376SOL     OW21235   1.129   0.643   3.731 -0.3788  0.1485 -0.1646
 5376SOL    HW221236   1.052   0.698   3.746 -0.3036  0.1037  0.4314
 5376SOL    HW321237   1.201   0.705   3.723 -0.0222  0.1232  2.1747
 5376SOL    MW421238   1.128   0.658   3.732 -0.3233  0.0472  0.3780
 5377SOL     OW21239   3.905   0.626   3.773 -0.2939  0.3109  0.2762
 5377SOL    HW221240   3.996   0.600   3.762 -0.4594  0.1128 -0.7446
 5377SOL    HW321241   3.891   0.628   3.868  0.5038 -0.6007  0.4201
 5377SOL    MW421242   3.915   0.623   3.784  0.2386 -0.2557 -0.3006
 5378SOL     OW21243   2.382   1.756   6.089  0.3072  0.2053 -0.7752
 5378SOL    HW221244   2.389   1.801   6.005 -2.5426 -0.3320 -1.4102
 5378SOL    HW321245   2.304   1.795   6.130  1.1608 -0.1223  1.2831
 5378SOL    MW421246   2.373   1.767   6.084 -0.0832 -0.4670 -0.6347
 5379SOL     OW21247   5.564   3.672   1.385 -0.8196 -0.3577  0.2423
 5379SOL    HW221248   5.594   3.757   1.353  1.2878 -1.2068 -0.1549
 5379SOL    HW321249   5.511   3.694   1.463 -0.5681  1.3093 -0.0067
 5379SOL    MW421250   5.561   3.686   1.391  0.0650  0.0893  0.2333
 5380SOL     OW21251   4.106   0.848   0.208  0.7922 -0.0735  0.5715
 5380SOL    HW221252   4.017   0.858   0.240 -0.2518 -1.8640 -1.4818
 5380SOL    HW321253   4.162   0.873   0.282 -1.3773  0.8925  1.9719
 5380SOL    MW421254   4.102   0.853   0.222 -0.7748  0.3663  0.5065
 5381SOL     OW21255   1.565   0.866   4.499 -0.5831 -0.0787 -0.0811
 5381SOL    HW221256   1.622   0.940   4.477 -0.5091 -0.1128 -0.0062
 5381SOL    HW321257   1.560   0.867   4.595  0.7964 -1.1954  0.0279
 5381SOL    MW421258   1.572   0.876   4.509 -0.1240 -0.6503 -0.0979
 5382SOL     OW21259   0.800   1.538   4.975  0.0315 -0.0286  0.4357
 5382SOL    HW221260   0.834   1.594   4.905  0.7204  1.8616  2.2050
 5382SOL    HW321261   0.878   1.504   5.018 -0.3887 -1.5924  0.0525
 5382SOL    MW421262   0.815   1.541   4.971  0.6071 -0.0115 -0.2326
 5383SOL     OW21263   4.512   0.997   2.932  0.4277  0.4701  0.3047
 5383SOL    HW221264   4.441   1.023   2.873 -0.0361  0.8466  1.0078
 5383SOL    HW321265   4.515   1.067   2.998  0.5939 -0.1918  1.0183
 5383SOL    MW421266   4.503   1.010   2.933 -0.1557 -0.3140  0.2718
 5384SOL     OW21267   5.681   4.345   4.331 -0.6545  0.0979 -0.5954
 5384SOL    HW221268   5.595   4.322   4.365  0.3153 -0.2906  1.7868
 5384SOL    HW321269   5.712   4.264   4.289 -0.4666 -0.5900  0.7939
 5384SOL    MW421270   5.674   4.331   4.330  0.7124 -0.3254  0.0718
 5385SOL     OW21271   1.052   1.774   4.328 -0.1750 -0.2567 -0.0523
 5385SOL    HW221272   1.015   1.686   4.320  0.0517 -0.4658  1.0103
 5385SOL    HW321273   0.980   1.832   4.305 -0.8660 -0.6861  0.9712
 5385SOL    MW421274   1.038   1.770   4.324  0.4024 -0.0603  0.1645
 5386SOL     OW21275   2.849   1.556   1.648 -0.1098  0.5834  0.2041
 5386SOL    HW221276   2.855   1.505   1.729  0.8175  0.7051  0.2254
 5386SOL    HW321277   2.911   1.514   1.589 -1.0215  0.2943 -0.5718
 5386SOL    MW421278   2.858   1.544   1.651 -0.5362 -0.4058  0.1440
 5387SOL     OW21279   1.170   2.829   3.059 -0.2468 -0.5240  0.6248
 5387SOL    HW221280   1.114   2.863   2.989 -1.4460  0.2844  1.9294
 5387SOL    HW321281   1.255   2.815   3.017 -1.3773 -1.7989 -1.4222
 5387SOL    MW421282   1.174   2.831   3.044  0.5714  0.0795 -0.1403
 5388SOL     OW21283   3.580   1.242   2.040  0.1108  0.0458 -0.1051
 5388SOL    HW221284   3.640   1.171   2.061 -0.7219 -1.0306 -1.2427
 5388SOL    HW321285   3.518   1.204   1.977  0.4442  2.1170 -1.8327
 5388SOL    MW421286   3.580   1.228   2.034  0.4064 -0.4232  0.3859
 5389SOL     OW21287   0.581   4.270   0.257 -0.5609  0.1852  0.3925
 5389SOL    HW221288   0.626   4.195   0.297 -1.4586 -0.1210  0.8540
 5389SOL    HW321289   0.489   4.246   0.259 -0.8006  1.0568 -0.0044
 5389SOL    MW421290   0.575   4.257   0.263  0.3655 -0.2971  0.4007
 5390SOL     OW21291   6.043   0.533   0.585 -0.2507  0.0948 -0.0828
 5390SOL    HW221292   5.976   0.554   0.650 -1.0559 -1.8320 -0.2012
 5390SOL    HW321293   6.036   0.602   0.519 -0.6039  1.1272  0.9981
 5390SOL    MW421294   6.033   0.545   0.585 -0.4504  0.1725 -0.5015
 5391SOL     OW21295   3.681   2.872   2.136 -0.2882  0.1707  0.2574
 5391SOL    HW221296   3.719   2.959   2.131  0.6254 -0.2423 -0.1384
 5391SOL    HW321297   3.661   2.849   2.045  0.0096 -0.2638  0.2986
 5391SOL    MW421298   3.683   2.880   2.123 -0.6185 -0.7903 -0.0049
 5392SOL     OW21299   2.619   4.742   5.127 -0.1739 -0.1263  0.3986
 5392SOL    HW221300   2.645   4.733   5.219  2.2799  0.5753 -0.1431
 5392SOL    HW321301   2.558   4.815   5.126 -2.0047 -1.5423  1.7133
 5392SOL    MW421302   2.614   4.750   5.139  0.2365 -0.0303  0.1614
 5393SOL     OW21303   3.900   0.726   1.604  0.2462  0.7529 -0.0840
 5393SOL    HW221304   3.835   0.795   1.589 -0.7140  0.5141  2.5731
 5393SOL    HW321305   3.954   0.759   1.676  1.8157  0.0443 -0.8869
 5393SOL    MW421306   3.899   0.740   1.611  0.2280 -0.0496 -0.5618
 5394SOL     OW21307   2.819   2.539   1.582 -0.0031 -0.5479  0.0044
 5394SOL    HW221308   2.773   2.546   1.499 -1.4537  0.3775  0.8541
 5394SOL    HW321309   2.800   2.451   1.614 -0.3954 -0.5071 -0.1155
 5394SOL    MW421310   2.811   2.529   1.576  0.8646 -0.4853  0.0938
 5395SOL     OW21311   2.761   1.186   1.602  0.0856 -0.0941 -0.3194
 5395SOL    HW221312   2.754   1.116   1.537  0.3336  0.6798 -1.2084
 5395SOL    HW321313   2.771   1.266   1.550 -0.6075  0.6597  0.6645
 5395SOL    MW421314   2.762   1.187   1.586 -0.3956  0.1431  0.2903
 5396SOL     OW21315   1.850   5.335   2.182  0.5766  0.2739  0.0524
 5396SOL    HW221316   1.840   5.424   2.147 -1.2437 -0.4347 -1.3567
 5396SOL    HW321317   1.785   5.330   2.252 -1.5145 -0.8296 -1.8446
 5396SOL    MW421318   1.840   5.346   2.187 -0.1862  0.6315 -0.2281
 5397SOL     OW21319   4.894   5.266   0.394  0.3094  0.2788  0.3830
 5397SOL    HW221320   4.930   5.319   0.466  0.8517  1.0833 -0.4591
 5397SOL    HW321321   4.885   5.328   0.321 -1.2610 -0.2816  0.0665
 5397SOL    MW421322   4.898   5.282   0.394 -0.2719  0.4832 -0.9568
 5398SOL     OW21323   3.423   4.041   1.107 -0.2456  0.0670 -0.0619
 5398SOL    HW221324   3.514   4.025   1.129 -0.5945 -1.1552  0.5887
 5398SOL    HW321325   3.381   4.065   1.189 -0.4172  1.1219 -0.4452
 5398SOL    MW421326   3.429   4.042   1.120  0.3676 -0.6807 -0.1542
 5399SOL     OW21327   2.360   1.665   4.261  0.1033  0.2453  0.0946
 5399SOL    HW221328   2.438   1.673   4.316 -0.8513 -0.4140  1.6010
 5399SOL    HW321329   2.345   1.571   4.255 -0.7179  0.3789  0.0055
 5399SOL    MW421330   2.369   1.654   4.267  0.1772  0.3367  0.5868
 5400SOL     OW21331   3.763   2.515   1.172 -0.0483  0.6227  1.2824
 5400SOL    HW221332   3.690   2.492   1.229  0.2738  0.1081  1.4926
 5400SOL    HW321333   3.749   2.463   1.093 -0.8119  1.7614  0.6356
 5400SOL    MW421334   3.752   2.505   1.169  0.4974 -0.1450 -0.1527
 5401SOL     OW21335   1.606   4.008   2.798  0.0546  0.4083 -0.3782
 5401SOL    HW221336   1.618   4.022   2.704 -0.3361  3.2260 -0.1194
 5401SOL    HW321337   1.609   3.913   2.810 -2.0289 -0.1914 -3.5231
 5401SOL    MW421338   1.608   3.998   2.787  0.4219 -0.0413 -0.2976
 5402SOL     OW21339   2.395   4.177   4.175 -0.1076 -0.4900  0.1240
 5402SOL    HW221340   2.464   4.220   4.125 -0.7555  0.4589  0.0053
 5402SOL    HW321341   2.360   4.110   4.116  0.4396 -0.7016  0.0384
 5402SOL    MW421342   2.399   4.174   4.160 -0.4390  0.1686  0.3814
 5403SOL     OW21343   4.858   0.799   5.669 -0.4081 -0.1816 -0.9816
 5403SOL    HW221344   4.787   0.842   5.621 -1.8451  1.1875  2.1026
 5403SOL    HW321345   4.814   0.736   5.726  0.5889  1.5269  1.8719
 5403SOL    MW421346   4.843   0.797   5.670  0.2754  0.4327 -0.5134
 5404SOL     OW21347   0.588   5.040   0.493  0.0396  0.9931 -0.6751
 5404SOL    HW221348   0.520   4.973   0.485 -0.3077  0.8147  2.5244
 5404SOL    HW321349   0.642   5.011   0.566  2.5011  2.1031 -1.9254
 5404SOL    MW421350   0.586   5.027   0.501 -0.0788 -0.2376 -0.0613
 5405SOL     OW21351   3.922   0.901   5.479  0.1106  0.0446 -0.4339
 5405SOL    HW221352   3.859   0.853   5.426 -0.8137  0.6155  0.1145
 5405SOL    HW321353   3.878   0.984   5.500  0.9300  0.3430  0.1936
 5405SOL    MW421354   3.908   0.906   5.475 -0.9350  0.7467 -0.4229
 5406SOL     OW21355   5.216   0.271   3.092 -0.0501 -0.6616  0.3129
 5406SOL    HW221356   5.288   0.213   3.117  0.5328 -0.2692 -0.4087
 5406SOL    HW321357   5.194   0.244   3.003 -2.7839 -2.7298  1.4520
 5406SOL    MW421358   5.222   0.260   3.083 -0.1742  0.5026  0.3437
 5407SOL     OW21359   4.694   4.137   2.438  0.2018 -0.3613 -0.3301
 5407SOL    HW221360   4.655   4.053   2.462  0.8906 -0.4490  0.5187
 5407SOL    HW321361   4.788   4.123   2.447  0.3684  0.2655 -0.9891
 5407SOL    MW421362   4.701   4.124   2.442  0.2584  0.0631  0.2919
 5408SOL     OW21363   6.027   3.835   3.764 -0.1005 -0.2888  0.1010
 5408SOL    HW221364   6.118   3.819   3.789 -0.2230 -0.8037  0.2399
 5408SOL    HW321365   6.005   3.920   3.802 -0.1761 -0.8975  1.4671
 5408SOL    MW421366   6.036   3.844   3.772 -0.6391  0.4633 -0.5113
 5409SOL     OW21367   2.028   4.030   0.871  0.0468 -0.0347 -0.7369
 5409SOL    HW221368   1.975   4.084   0.812 -0.3678 -1.1533 -1.4288
 5409SOL    HW321369   2.119   4.049   0.846  0.0035  1.6731  0.2560
 5409SOL    MW421370   2.033   4.040   0.860  0.0501  0.5519 -0.2948
 5410SOL     OW21371   2.330   5.973   3.482 -0.1197  0.3565  0.2682
 5410SOL    HW221372   2.319   5.880   3.503 -3.1005  0.6686  0.5238
 5410SOL    HW321373   2.317   6.018   3.565 -1.8933  1.0828 -0.3323
 5410SOL    MW421374   2.326   5.967   3.496  0.0602  0.2268  0.4001
 5411SOL     OW21375   2.955   4.741   4.153 -0.1753  0.3754 -0.0555
 5411SOL    HW221376   2.911   4.748   4.068  0.7845  1.2863 -0.4992
 5411SOL    HW321377   2.933   4.822   4.198 -0.9387 -0.2361  0.7198
 5411SOL    MW421378   2.946   4.752   4.148  0.3070  0.1503  0.1185
 5412SOL     OW21379   0.228   5.859   2.372 -0.4518  0.6554 -0.1757
 5412SOL    HW221380   0.189   5.851   2.459 -1.0250 -1.0294 -0.5540
 5412SOL    HW321381   0.196   5.783   2.324  2.3085 -0.1647 -0.8893
 5412SOL    MW421382   0.219   5.848   2.377  0.8914 -0.4172 -0.3033
 5413SOL     OW21383   5.014   5.591   2.633 -0.1771 -0.4761  0.4353
 5413SOL    HW221384   4.979   5.667   2.586  0.8099 -0.8005 -0.8826
 5413SOL    HW321385   4.938   5.536   2.648 -0.4879 -0.5134 -1.1151
 5413SOL    MW421386   4.999   5.594   2.628 -0.9828  0.0990 -0.0642
 5414SOL     OW21387   2.574   4.535   1.536 -0.3025 -0.2483  0.1756
 5414SOL    HW221388   2.586   4.572   1.624 -1.3663  0.7337 -0.0671
 5414SOL    HW321389   2.662   4.534   1.498 -0.2161  2.1558  0.1647
 5414SOL    MW421390   2.587   4.540   1.543  0.3211  0.3166 -0.4565
 5415SOL     OW21391   4.748   5.791   0.637  0.3247  0.0199  0.0087
 5415SOL    HW221392   4.820   5.776   0.575  0.6479  0.6673  0.2171
 5415SOL    HW321393   4.739   5.707   0.683  0.5478 -0.2504 -0.4256
 5415SOL    MW421394   4.756   5.778   0.635 -0.2628 -0.1436  0.1131
 5416SOL     OW21395   0.514   0.441   4.713  0.2583  0.0457  0.6695
 5416SOL    HW221396   0.586   0.503   4.723  0.3427  0.0106  0.2977
 5416SOL    HW321397   0.557   0.356   4.701  0.1710  0.0865  0.0146
 5416SOL    MW421398   0.529   0.438   4.713  0.0260 -0.0011  0.0514
 5417SOL     OW21399   2.693   0.317   0.257  0.0025 -0.7144  0.1041
 5417SOL    HW221400   2.629   0.257   0.219 -0.3369  1.6023 -3.4699
 5417SOL    HW321401   2.642   0.378   0.310 -0.0581 -1.5640  1.0616
 5417SOL    MW421402   2.678   0.317   0.259  0.1263  0.3728  0.4473
 5418SOL     OW21403   1.662   3.806   3.146 -0.2276  0.4306 -0.0297
 5418SOL    HW221404   1.678   3.730   3.202 -1.1615  0.1030 -0.1895
 5418SOL    HW321405   1.695   3.780   3.060  1.8208  1.1793  0.4774
 5418SOL    MW421406   1.669   3.793   3.142 -0.3458 -0.8399 -0.7597
 5419SOL     OW21407   2.896   5.546   2.350  0.1263 -0.0027  0.3245
 5419SOL    HW221408   2.814   5.510   2.384 -0.4558 -0.0252 -1.0446
 5419SOL    HW321409   2.930   5.477   2.293  1.7169 -0.4715  1.7519
 5419SOL    MW421410   2.890   5.532   2.347 -0.0689  0.2364  0.3658
 5420SOL     OW21411   5.474   1.419   4.111  0.0890 -0.4382  0.6065
 5420SOL    HW221412   5.418   1.468   4.171  0.9689  0.3651  0.7886
 5420SOL    HW321413   5.551   1.396   4.163 -0.2786 -2.0135  0.5222
 5420SOL    MW421414   5.477   1.422   4.126 -0.2868 -0.5421 -0.1125
 5421SOL     OW21415   1.272   1.846   5.175 -0.3463  0.6423  0.2580
 5421SOL    HW221416   1.326   1.892   5.110 -2.4497 -0.5907 -2.5883
 5421SOL    HW321417   1.266   1.756   5.141 -0.5559 -0.4297  2.9038
 5421SOL    MW421418   1.278   1.840   5.162 -0.4986  0.1426 -0.2375
 5422SOL     OW21419   1.090   2.423   6.071 -0.0190  0.2761  0.5283
 5422SOL    HW221420   1.130   2.389   5.992  0.6905 -0.9601  1.3894
 5422SOL    HW321421   1.158   2.477   6.112  0.4827 -1.0301  1.4889
 5422SOL    MW421422   1.104   2.426   6.066 -0.0031 -0.3293 -0.3700
 5423SOL     OW21423   5.590   4.971   4.379  0.1777  0.1037  0.8252
 5423SOL    HW221424   5.615   5.063   4.385 -0.0023  0.2776 -0.6932
 5423SOL    HW321425   5.672   4.923   4.390  0.8340  0.5813 -1.4330
 5423SOL    MW421426   5.604   4.976   4.381 -0.0315  0.4921  0.1270
 5424SOL     OW21427   0.365   1.101   0.445 -0.2940 -0.8798 -0.2823
 5424SOL    HW221428   0.419   1.073   0.519  1.9624 -0.1349 -1.5153
 5424SOL    HW321429   0.299   1.033   0.436  1.3228 -2.6560  0.4938
 5424SOL    MW421430   0.364   1.088   0.454  0.0892 -0.2682 -0.1232
 5425SOL     OW21431   0.349   5.917   1.544 -0.2387  0.0474 -0.2981
 5425SOL    HW221432   0.432   5.951   1.576  0.3670 -0.3669 -1.3913
 5425SOL    HW321433   0.335   5.837   1.595 -0.3376  0.4833  0.3803
 5425SOL    MW421434   0.358   5.911   1.555  0.0483  0.3350  0.3252
 5426SOL     OW21435   2.917   3.792   0.850 -0.2399  0.1347 -0.5332
 5426SOL    HW221436   2.873   3.872   0.879  1.2534  0.7389  0.2212
 5426SOL    HW321437   2.853   3.722   0.866 -1.6891  1.1936 -1.5072
 5426SOL    MW421438   2.903   3.793   0.856 -0.1737  0.4895  0.5990
 5427SOL     OW21439   2.110   0.042   0.398 -0.5772 -0.2529  0.3560
 5427SOL    HW221440   2.164   0.080   0.468  0.8151 -1.3456 -0.0528
 5427SOL    HW321441   2.042  -0.007   0.444  0.8100 -1.6504  1.0455
 5427SOL    MW421442   2.108   0.041   0.413 -0.0914 -0.0180  0.0745
 5428SOL     OW21443   5.057   2.705   1.131 -0.3514  0.3312  0.1121
 5428SOL    HW221444   5.014   2.624   1.106 -0.4110 -0.2566  1.9790
 5428SOL    HW321445   5.063   2.701   1.226  2.7468  0.9510  0.0417
 5428SOL    MW421446   5.052   2.694   1.140  0.2399  0.2437  0.6621
 5429SOL     OW21447   5.761   2.962   0.597 -0.3755  0.2216  0.6454
 5429SOL    HW221448   5.844   2.916   0.593  0.2094  1.2461  0.6771
 5429SOL    HW321449   5.716   2.939   0.516  0.2498  0.2271  0.2966
 5429SOL    MW421450   5.766   2.953   0.586  0.2532  0.3048 -0.2743
 5430SOL     OW21451   2.319   6.083   5.249  0.1972  0.0738 -0.3103
 5430SOL    HW221452   2.230   6.065   5.279 -0.0613  0.1850 -0.9948
 5430SOL    HW321453   2.308   6.124   5.163  0.8988  0.3547 -0.2766
 5430SOL    MW421454   2.306   6.086   5.242  0.0523  0.0980  0.0800
 5431SOL     OW21455   4.858   1.955   5.768  0.7171  0.1709 -0.0768
 5431SOL    HW221456   4.765   1.945   5.748  1.2397 -0.6641 -2.3449
 5431SOL    HW321457   4.859   2.004   5.851 -1.7140  0.2630 -0.0203
 5431SOL    MW421458   4.846   1.960   5.777 -0.4578 -0.3444 -0.0605
 5432SOL     OW21459   5.013   3.436   2.081 -0.2234 -0.5577 -0.7913
 5432SOL    HW221460   5.052   3.519   2.108  0.4939 -0.9644 -0.5466
 5432SOL    HW321461   4.939   3.461   2.026  0.5664  0.2392 -1.5219
 5432SOL    MW421462   5.009   3.450   2.077  0.1620  0.2180  0.2312
 5433SOL     OW21463   4.991   1.029   0.104  0.9468 -0.2745  0.3480
 5433SOL    HW221464   5.047   1.104   0.123  1.6606 -0.4690 -0.8778
 5433SOL    HW321465   4.943   1.013   0.185  1.2803  1.0763  0.8343
 5433SOL    MW421466   4.992   1.036   0.117 -0.4077  0.1751 -0.1558
 5434SOL     OW21467   3.213   1.114   5.606 -0.2626  0.1172 -0.3115
 5434SOL    HW221468   3.119   1.119   5.620 -0.0882  0.7927  0.7507
 5434SOL    HW321469   3.237   1.026   5.632 -0.6212 -0.1179 -0.7608
 5434SOL    MW421470   3.204   1.103   5.612 -0.5219 -0.1068  0.2410
 5435SOL     OW21471   5.238   6.393   1.146 -0.6588  0.2563 -0.0167
 5435SOL    HW221472   5.312   6.426   1.096  0.3868 -0.3526  1.0617
 5435SOL    HW321473   5.203   6.321   1.094 -0.4486  0.5098 -0.5080
 5435SOL    MW421474   5.243   6.388   1.133  0.0449  0.7133 -0.5283
 5436SOL     OW21475   5.626   2.287   5.185  0.2052 -0.5540 -0.0887
 5436SOL    HW221476   5.545   2.251   5.221  0.1085  0.0061  0.2527
 5436SOL    HW321477   5.643   2.234   5.106 -0.3467 -0.8420 -0.0154
 5436SOL    MW421478   5.618   2.275   5.179  0.1613 -0.1206 -0.4451
 5437SOL     OW21479   1.238   4.512   5.269  0.0977 -0.2696  0.0936
 5437SOL    HW221480   1.198   4.483   5.187 -0.3305 -3.1068  1.1889
 5437SOL    HW321481   1.285   4.592   5.246 -1.1611 -0.2070 -2.5827
 5437SOL    MW421482   1.239   4.518   5.255  0.1441  0.0854 -0.7447
 5438SOL     OW21483   2.115   2.524   6.306  0.2274  0.6496  0.7579
 5438SOL    HW221484   2.208   2.508   6.323  0.3215 -1.0471 -0.9374
 5438SOL    HW321485   2.080   2.437   6.282 -1.0311  1.7671 -1.8826
 5438SOL    MW421486   2.122   2.510   6.305 -0.2344  0.3399 -0.0760
 5439SOL     OW21487   1.822   1.140   1.167 -0.0348  0.3075  0.1499
 5439SOL    HW221488   1.820   1.044   1.173 -1.7311  0.3187  0.1742
 5439SOL    HW321489   1.910   1.164   1.197  0.2583 -1.2094  0.5819
 5439SOL    MW421490   1.833   1.130   1.172 -0.2283  0.0453 -0.2944
 5440SOL     OW21491   0.900   1.538   1.392  0.6442 -0.6658 -0.5534
 5440SOL    HW221492   0.988   1.506   1.411  0.8055  1.1258  2.5536
 5440SOL    HW321493   0.854   1.530   1.476 -1.8771 -0.6730 -1.8623
 5440SOL    MW421494   0.906   1.533   1.406 -0.2132 -0.0920  0.2605
 5441SOL     OW21495   6.320   4.747   5.409  0.6650  0.4449  0.2066
 5441SOL    HW221496   6.407   4.777   5.383  0.1837  0.7733 -1.1184
 5441SOL    HW321497   6.278   4.824   5.447  0.5321  0.6063 -0.2691
 5441SOL    MW421498   6.326   4.761   5.411  0.0881 -0.4696  0.8484
 5442SOL     OW21499   5.279   5.644   0.115 -0.5409 -0.1216  0.0169
 5442SOL    HW221500   5.329   5.693   0.180  1.0122 -0.7876 -0.6150
 5442SOL    HW321501   5.265   5.559   0.156 -1.0967  0.0372  0.1592
 5442SOL    MW421502   5.284   5.639   0.129 -0.2176  0.0237 -0.3647
 5443SOL     OW21503   3.418   6.002   4.317 -0.3873  0.1776 -0.0692
 5443SOL    HW221504   3.443   5.938   4.384  0.7026  1.4495  0.7926
 5443SOL    HW321505   3.363   6.065   4.364 -1.2885 -0.0018 -0.8659
 5443SOL    MW421506   3.414   6.002   4.332  0.2630  0.0988 -0.0262
 5444SOL     OW21507   3.874   4.037   1.406  0.1426  0.0938  0.3913
 5444SOL    HW221508   3.817   4.007   1.477  0.3110  0.2881  0.6138
 5444SOL    HW321509   3.898   3.958   1.359  1.1456 -0.2251  1.3908
 5444SOL    MW421510   3.869   4.023   1.409  0.3687 -0.3721 -0.4321
 5445SOL     OW21511   1.599   1.414   4.476 -0.5253  0.3154  0.3069
 5445SOL    HW221512   1.632   1.334   4.516 -0.4831 -0.8840 -1.9480
 5445SOL    HW321513   1.536   1.384   4.410 -0.2143  2.1023 -0.8832
 5445SOL    MW421514   1.595   1.400   4.472  0.2618  0.1583 -0.3139
 5446SOL     OW21515   1.083   2.936   1.466 -0.1687  0.0081 -0.6419
 5446SOL    HW221516   0.996   2.959   1.434 -1.1539  0.5080  2.1119
 5446SOL    HW321517   1.123   3.021   1.489  0.2479 -0.3354 -0.0531
 5446SOL    MW421518   1.077   2.950   1.465 -0.5252 -0.1274  0.3633
 5447SOL     OW21519   1.420   5.085   2.884 -0.4322 -0.3605 -0.0865
 5447SOL    HW221520   1.496   5.119   2.837  0.8038 -3.2238 -0.4258
 5447SOL    HW321521   1.424   5.126   2.970  2.2611 -1.2312  0.3103
 5447SOL    MW421522   1.431   5.095   2.889 -0.0623  0.1435 -0.1938
 5448SOL     OW21523   4.260   5.159   2.182  0.2542  0.2889 -0.1872
 5448SOL    HW221524   4.330   5.154   2.247 -2.2091  1.6655  2.8522
 5448SOL    HW321525   4.245   5.252   2.170 -1.7868  0.0661  0.2149
 5448SOL    MW421526   4.267   5.170   2.189 -0.0015 -0.1505  0.0920
 5449SOL     OW21527   1.076   3.527   0.741  0.6062 -0.5256 -0.2202
 5449SOL    HW221528   1.170   3.543   0.739  0.6803 -0.6500  1.3115
 5449SOL    HW321529   1.063   3.455   0.679  1.3639  0.1079 -1.1507
 5449SOL    MW421530   1.087   3.520   0.732 -0.2482 -0.8753  0.5483
 5450SOL     OW21531   6.190   2.130   4.577 -0.2265 -0.0759 -0.2847
 5450SOL    HW221532   6.192   2.038   4.603 -1.0387  0.2365  0.9609
 5450SOL    HW321533   6.280   2.161   4.591  0.1570 -0.7830 -1.1434
 5450SOL    MW421534   6.202   2.122   4.582  0.0519 -0.6650 -0.1774
 5451SOL     OW21535   3.949   0.543   6.239 -0.3550 -0.2334  0.4228
 5451SOL    HW221536   4.032   0.564   6.281 -0.5033  0.8178  0.2114
 5451SOL    HW321537   3.973   0.514   6.151 -0.1749 -0.6503  0.6021
 5451SOL    MW421538   3.963   0.542   6.233  0.0906 -0.6593  0.4595
 5452SOL     OW21539   2.148   5.333   1.933  0.0173 -0.2184  0.8215
 5452SOL    HW221540   2.204   5.285   1.995 -0.8089  0.5646  2.2369
 5452SOL    HW321541   2.182   5.423   1.936 -1.0888  0.1983  1.4736
 5452SOL    MW421542   2.160   5.339   1.942  0.1937  0.7752 -0.0677
 5453SOL     OW21543   5.485   1.597   3.608 -0.5524 -0.4740  0.1237
 5453SOL    HW221544   5.527   1.569   3.690  0.0450  0.7606  0.2731
 5453SOL    HW321545   5.487   1.693   3.612  0.7388 -0.3533 -1.9457
 5453SOL    MW421546   5.491   1.606   3.620  0.1241 -0.3612  0.1454
 5454SOL     OW21547   5.141   1.027   1.004 -0.6442 -0.0957 -0.2073
 5454SOL    HW221548   5.137   0.932   1.018 -2.7960  0.0263  0.4770
 5454SOL    HW321549   5.130   1.037   0.910 -1.8596 -0.5215 -0.1336
 5454SOL    MW421550   5.139   1.016   0.994 -0.1037 -0.1616 -0.8740
 5455SOL     OW21551   0.334   5.325   0.190  0.0812  0.2284 -0.1415
 5455SOL    HW221552   0.300   5.414   0.178  0.0714  0.3028  0.3992
 5455SOL    HW321553   0.400   5.334   0.258  0.5675 -0.0693 -0.5683
 5455SOL    MW421554   0.338   5.338   0.197  0.6953 -0.0190  0.0654
 5456SOL     OW21555   0.574   2.855   1.232 -0.9725  0.2756  0.1399
 5456SOL    HW221556   0.567   2.807   1.149 -1.3499 -1.4956  1.1592
 5456SOL    HW321557   0.665   2.886   1.233 -1.1550  0.9425 -1.2414
 5456SOL    MW421558   0.585   2.853   1.221  0.3126  0.1183 -0.3010
 5457SOL     OW21559   5.665   2.324   3.899 -0.1055  0.2773  0.2819
 5457SOL    HW221560   5.692   2.387   3.832  0.0903  0.7977  0.8411
 5457SOL    HW321561   5.731   2.254   3.894  1.2080  1.3786  1.4173
 5457SOL    MW421562   5.677   2.323   3.890  0.4248  0.2373  0.2004
 5458SOL     OW21563   0.146   2.388   1.887  0.5260 -0.4327  0.0525
 5458SOL    HW221564   0.229   2.363   1.927 -0.2976 -0.4450  1.9133
 5458SOL    HW321565   0.141   2.338   1.806  1.6433 -1.5902  0.6749
 5458SOL    MW421566   0.156   2.378   1.882 -0.3082  0.2349  0.0223
 5459SOL     OW21567   4.932   0.447   1.766  0.3926 -0.7954  0.2427
 5459SOL    HW221568   4.864   0.397   1.811 -0.4169  1.1016  1.2424
 5459SOL    HW321569   4.906   0.446   1.674  0.3821 -2.1330  0.2401
 5459SOL    MW421570   4.920   0.440   1.760 -0.2901  0.4668  0.2229
 5460SOL     OW21571   4.278   4.002   1.382 -0.0905  0.0552  0.1321
 5460SOL    HW221572   4.316   4.000   1.294 -1.4929  0.8426 -0.5289
 5460SOL    HW321573   4.334   4.061   1.432 -0.1065  0.7414 -0.6546
 5460SOL    MW421574   4.290   4.009   1.377  0.1405 -0.5968  0.0741
 5461SOL     OW21575   5.114   1.785   1.321 -0.0249  0.0358 -0.3745
 5461SOL    HW221576   5.169   1.785   1.400 -0.6220  0.3267  0.0464
 5461SOL    HW321577   5.135   1.867   1.278  3.9945 -2.1158 -3.1729
 5461SOL    MW421578   5.124   1.795   1.326  0.2150  0.2081  0.0595
 5462SOL     OW21579   5.965   3.517   4.524 -0.0223 -0.1467  0.5478
 5462SOL    HW221580   5.950   3.428   4.556 -2.8155 -0.1183 -0.4867
 5462SOL    HW321581   5.925   3.573   4.590 -0.2816  0.2167  0.0866
 5462SOL    MW421582   5.958   3.512   4.537  0.4483 -0.1769 -0.0791
 5463SOL     OW21583   6.389   1.099   6.080  0.3506  0.1881  0.2627
 5463SOL    HW221584   6.439   1.039   6.136  0.2635 -0.2630 -0.1385
 5463SOL    HW321585   6.299   1.068   6.085 -0.2932  2.0791  2.4462
 5463SOL    MW421586   6.384   1.087   6.088 -0.0224  0.2355  0.1241
 5464SOL     OW21587   1.302   2.849   0.902 -0.1360  0.0710 -0.2915
 5464SOL    HW221588   1.244   2.815   0.970 -0.7479  0.3656 -0.6632
 5464SOL    HW321589   1.355   2.774   0.875 -0.0293 -0.0949  0.3655
 5464SOL    MW421590   1.302   2.835   0.907 -0.7150 -0.3595  0.0685
 5465SOL     OW21591   1.042   5.212   2.788  0.3734 -0.2176  0.3295
 5465SOL    HW221592   1.106   5.235   2.720  1.3839 -1.3272  0.8777
 5465SOL    HW321593   1.052   5.282   2.853  1.0505 -0.3938  0.4233
 5465SOL    MW421594   1.052   5.224   2.787 -0.3541 -0.0936 -0.5176
 5466SOL     OW21595   1.654   0.529   2.559  0.2334 -0.7868  0.4509
 5466SOL    HW221596   1.657   0.465   2.488  0.2089 -1.2837  0.8906
 5466SOL    HW321597   1.577   0.583   2.540 -0.6204 -1.8282  0.8731
 5466SOL    MW421598   1.644   0.528   2.547 -0.5105 -0.1259  0.0425
 5467SOL     OW21599   4.360   1.343   1.728  0.6481  0.5182  0.0778
 5467SOL    HW221600   4.418   1.374   1.658 -0.3660 -1.5820 -1.8058
 5467SOL    HW321601   4.280   1.316   1.683 -0.1497 -0.6861  2.0841
 5467SOL    MW421602   4.357   1.344   1.712 -0.6900 -0.3787 -0.0979
 5468SOL     OW21603   4.751   3.213   3.249  0.0906  0.0196 -0.1501
 5468SOL    HW221604   4.695   3.152   3.201 -1.3400  1.1280  0.0343
 5468SOL    HW321605   4.807   3.253   3.183 -0.3883 -0.0068 -0.5736
 5468SOL    MW421606   4.751   3.210   3.234  0.4099  0.2807  0.2354
 5469SOL     OW21607   3.474   2.707   4.473  0.1751 -0.3098 -0.2559
 5469SOL    HW221608   3.389   2.695   4.430  0.0990  0.3046 -0.2988
 5469SOL    HW321609   3.526   2.632   4.446 -0.9462 -1.7152  1.2509
 5469SOL    MW421610   3.469   2.696   4.464 -0.0058  0.6744  0.2078
 5470SOL     OW21611   2.212   2.639   1.166 -0.7864 -0.5407  0.5246
 5470SOL    HW221612   2.125   2.618   1.131 -1.3671  0.2616  1.4520
 5470SOL    HW321613   2.251   2.554   1.185 -0.6895 -0.9914 -1.4443
 5470SOL    MW421614   2.206   2.625   1.164  0.1515 -0.0617  0.0312
 5471SOL     OW21615   5.994   4.488   5.551  0.1195  0.8499 -0.1601
 5471SOL    HW221616   5.987   4.415   5.490 -1.8781  0.5594  0.3507
 5471SOL    HW321617   6.088   4.506   5.557  0.5815 -1.1327 -0.9106
 5471SOL    MW421618   6.006   4.481   5.544 -0.1858 -0.3232 -0.6629
 5472SOL     OW21619   2.946   0.186   1.025  0.3315 -0.2700 -0.0734
 5472SOL    HW221620   2.874   0.125   1.039  0.2459  0.2612  2.2749
 5472SOL    HW321621   3.025   0.135   1.046  0.4267 -0.1614 -0.1641
 5472SOL    MW421622   2.947   0.171   1.030 -0.0137  0.5435  0.2717
 5473SOL     OW21623   6.018   5.077   1.161  0.2057 -0.4648  0.5093
 5473SOL    HW221624   6.019   5.043   1.071  0.9661  1.1336 -0.1208
 5473SOL    HW321625   6.035   5.170   1.151 -1.5293  0.0828  2.2030
 5473SOL    MW421626   6.020   5.084   1.148  0.5048 -0.3837  0.4822
 5474SOL     OW21627   4.598   5.277   2.467  0.0166 -0.1998  0.0857
 5474SOL    HW221628   4.532   5.346   2.452 -0.9602 -1.1361 -0.0440
 5474SOL    HW321629   4.563   5.201   2.421  1.3396 -0.6493 -0.1981
 5474SOL    MW421630   4.585   5.276   2.459 -0.6473  0.0436  0.1972
 5475SOL     OW21631   0.889   0.974   5.097 -0.2020  0.0071  0.4020
 5475SOL    HW221632   0.911   0.881   5.093 -2.1841 -0.4982 -0.2487
 5475SOL    HW321633   0.841   0.990   5.016  0.0583  1.5927  0.5409
 5475SOL    MW421634   0.885   0.963   5.086  0.0769  0.9552  0.4054
 5476SOL     OW21635   1.611   2.421   0.193  0.1297 -0.2546 -0.7446
 5476SOL    HW221636   1.582   2.371   0.269  0.6162 -1.8244 -1.5576
 5476SOL    HW321637   1.701   2.394   0.179  0.2511  0.5078 -1.4938
 5476SOL    MW421638   1.619   2.411   0.201 -0.3191 -0.1348 -0.3675
 5477SOL     OW21639   0.486   5.340   3.020 -0.0381  0.2913 -0.1494
 5477SOL    HW221640   0.496   5.431   3.047 -1.8230  0.3140  0.5829
 5477SOL    HW321641   0.454   5.295   3.098 -1.5316 -0.4481 -1.1369
 5477SOL    MW421642   0.483   5.346   3.034  0.4690 -0.3663 -0.1391
 5478SOL     OW21643   0.932   3.117   0.301 -0.2640 -0.2575  0.5987
 5478SOL    HW221644   0.898   3.185   0.359 -0.9093  1.1649 -1.3381
 5478SOL    HW321645   0.996   3.162   0.246  0.6676 -1.6669  0.4724
 5478SOL    MW421646   0.936   3.132   0.301  0.3557 -0.5913  0.1297
 5479SOL     OW21647   4.684   5.475   2.206  0.4018  1.0562  0.0204
 5479SOL    HW221648   4.613   5.484   2.269 -0.6053  0.8578 -1.0600
 5479SOL    HW321649   4.729   5.395   2.233 -0.2390  0.7732  0.2664
 5479SOL    MW421650   4.681   5.466   2.218  0.4849 -0.3939 -0.7255
 5480SOL     OW21651   5.193   3.397   0.711 -0.1986  0.1675 -0.1330
 5480SOL    HW221652   5.266   3.425   0.656 -0.4425  1.1876  0.0372
 5480SOL    HW321653   5.230   3.391   0.799  0.2344 -1.6343 -0.3904
 5480SOL    MW421654   5.208   3.400   0.715 -0.3374  0.2850 -0.0913
 5481SOL     OW21655   3.832   5.844   2.410  1.1085 -1.0042 -0.0352
 5481SOL    HW221656   3.865   5.868   2.497 -1.6717 -2.1345  1.4538
 5481SOL    HW321657   3.770   5.913   2.388  2.3271 -0.3294 -1.5539
 5481SOL    MW421658   3.828   5.856   2.419 -0.3865  0.5287 -0.9532
 5482SOL     OW21659   1.965   4.090   2.256  0.1752  0.6304  0.0777
 5482SOL    HW221660   1.919   4.086   2.339  0.6704  0.1286  0.3354
 5482SOL    HW321661   1.896   4.086   2.190 -0.1400 -0.5785  0.4487
 5482SOL    MW421662   1.950   4.089   2.258 -0.2542  0.1088 -0.1811
 5483SOL     OW21663   5.495   6.210   0.839  0.4622 -0.1151 -0.0755
 5483SOL    HW221664   5.566   6.237   0.781  1.3025  0.0560  1.0049
 5483SOL    HW321665   5.426   6.179   0.780  1.1802  0.3199 -1.1646
 5483SOL    MW421666   5.495   6.209   0.824  0.1736  0.4586  0.1546
 5484SOL     OW21667   1.872   3.634   4.469  0.0596 -0.8739 -0.1098
 5484SOL    HW221668   1.918   3.647   4.386  0.7979 -0.6678  0.3252
 5484SOL    HW321669   1.891   3.713   4.520 -1.0282 -0.6530 -0.0349
 5484SOL    MW421670   1.881   3.646   4.465  0.1150  0.4018  0.3046
 5485SOL     OW21671   1.109   3.257   5.464  0.6370  0.3377  0.2371
 5485SOL    HW221672   1.158   3.185   5.424 -0.7018 -0.1948 -0.4858
 5485SOL    HW321673   1.043   3.214   5.518 -0.5458  1.0078 -0.6444
 5485SOL    MW421674   1.107   3.242   5.466  0.2513  0.1658  0.2360
 5486SOL     OW21675   4.570   0.549   5.222 -0.1732 -0.1875  0.5832
 5486SOL    HW221676   4.593   0.642   5.219 -1.3338  0.1372  1.2393
 5486SOL    HW321677   4.621   0.514   5.295  0.0498 -0.0093  0.5142
 5486SOL    MW421678   4.580   0.557   5.231  0.1030 -0.2551 -0.6798
 5487SOL     OW21679   2.955   4.272   3.219 -0.0287 -0.5171  0.0641
 5487SOL    HW221680   3.040   4.287   3.259  0.2292 -0.2530 -0.5782
 5487SOL    HW321681   2.965   4.190   3.171 -0.1406 -0.4963  0.0037
 5487SOL    MW421682   2.967   4.263   3.218 -0.7276 -0.1807  0.0302
 5488SOL     OW21683   4.207   0.212   4.000  0.3051 -0.2120  0.3919
 5488SOL    HW221684   4.225   0.118   3.993  0.3544 -0.2429  0.9168
 5488SOL    HW321685   4.287   0.248   4.040  0.3072  0.0610  0.1418
 5488SOL    MW421686   4.220   0.204   4.004 -0.6708 -0.2519 -0.2661
 5489SOL     OW21687   1.254   6.226   2.212 -0.2457 -0.0236  0.3297
 5489SOL    HW221688   1.166   6.259   2.198 -0.7728 -0.7217  1.8231
 5489SOL    HW321689   1.270   6.237   2.306  0.9724 -0.5905  0.2124
 5489SOL    MW421690   1.245   6.232   2.223 -0.4772 -0.1028  0.5374
 5490SOL     OW21691   2.948   2.813   2.915 -0.2628 -0.1605 -0.2339
 5490SOL    HW221692   2.852   2.811   2.923 -0.1902 -2.5174  1.0880
 5490SOL    HW321693   2.979   2.783   3.000  1.6753  0.5165 -0.6660
 5490SOL    MW421694   2.939   2.808   2.927 -0.1419 -0.1559  0.0787
 5491SOL     OW21695   5.921   5.048   2.706  0.3039  0.5371  0.3623
 5491SOL    HW221696   5.829   5.051   2.733  0.7980  1.6534  2.0669
 5491SOL    HW321697   5.947   4.957   2.717 -0.5346  0.2518  0.0392
 5491SOL    MW421698   5.912   5.037   2.711  0.4700 -0.3624  0.1924
 5492SOL     OW21699   5.725   1.464   1.354  0.6913 -0.7342 -0.0539
 5492SOL    HW221700   5.657   1.508   1.405  1.2832 -1.2736  1.2438
 5492SOL    HW321701   5.677   1.421   1.283 -0.0167  1.0561 -0.7410
 5492SOL    MW421702   5.710   1.464   1.351  0.1081  0.7477 -0.0280
 5493SOL     OW21703   5.944   5.778   1.737  0.0668 -0.1614  0.1542
 5493SOL    HW221704   5.873   5.780   1.674 -1.0611  0.6147  1.3933
 5493SOL    HW321705   5.912   5.722   1.808  0.9359 -0.2829  0.4747
 5493SOL    MW421706   5.931   5.771   1.738 -0.1394 -0.8172  0.2880
 5494SOL     OW21707   2.463   0.389   1.896  0.2281 -0.5718 -0.5944
 5494SOL    HW221708   2.454   0.440   1.976 -0.8157 -0.2311 -0.9117
 5494SOL    HW321709   2.373   0.379   1.864  0.6173 -0.8260 -1.6444
 5494SOL    MW421710   2.450   0.394   1.902 -0.2279  0.4446 -0.4593
 5495SOL     OW21711   1.364   4.693   2.243 -0.4367 -0.0513  0.2024
 5495SOL    HW221712   1.323   4.704   2.157 -1.2672 -0.2468  0.5718
 5495SOL    HW321713   1.378   4.599   2.252  0.7217  0.0662 -0.2010
 5495SOL    MW421714   1.361   4.682   2.233  0.3742 -0.8274 -0.3350
 5496SOL     OW21715   5.339   2.989   5.560 -0.5619  0.3945 -0.3133
 5496SOL    HW221716   5.257   2.998   5.511 -0.0625 -0.2345 -1.2969
 5496SOL    HW321717   5.379   3.076   5.557 -1.9204  1.1550  1.5669
 5496SOL    MW421718   5.334   3.002   5.553 -0.6572 -0.2182 -0.6575
 5497SOL     OW21719   3.300   4.132   2.921  0.2171 -0.5666 -0.5508
 5497SOL    HW221720   3.249   4.203   2.881  0.1034 -1.0041 -1.2043
 5497SOL    HW321721   3.292   4.147   3.015 -2.0699 -1.2437 -0.5604
 5497SOL    MW421722   3.292   4.143   2.928 -0.4080  0.0198 -0.2785
 5498SOL     OW21723   5.758   0.660   5.558 -0.3858  0.0643 -0.7564
 5498SOL    HW221724   5.755   0.641   5.464 -0.7438 -0.3719 -0.6636
 5498SOL    HW321725   5.805   0.585   5.595 -0.0276  0.3571 -0.6163
 5498SOL    MW421726   5.764   0.647   5.550 -0.5815 -0.0763  0.3532
 5499SOL     OW21727   5.706   3.073   2.497  0.5156  0.0104 -0.2782
 5499SOL    HW221728   5.612   3.065   2.480  0.0708 -0.4521  1.9906
 5499SOL    HW321729   5.713   3.066   2.592  3.3211 -5.7085 -0.4861
 5499SOL    MW421730   5.694   3.071   2.508 -0.0065 -0.0058 -0.6269
 5500SOL     OW21731   3.106   2.100   6.205  0.1855 -0.4540  0.4914
 5500SOL    HW221732   3.117   2.193   6.224  0.7640 -0.3557 -0.2799
 5500SOL    HW321733   3.074   2.063   6.287  0.9786  0.2424  1.1387
 5500SOL    MW421734   3.103   2.108   6.219 -0.0879 -0.2374  0.1161
 5501SOL     OW21735   1.238   4.397   0.018  0.1325 -0.0872 -0.9788
 5501SOL    HW221736   1.165   4.454  -0.004  1.5135  1.2325 -2.3603
 5501SOL    HW321737   1.313   4.432  -0.031  1.1275 -2.9112 -1.7112
 5501SOL    MW421738   1.239   4.409   0.009  0.2368  0.6531  0.1647
 5502SOL     OW21739   4.546   6.333   4.902  0.0043  0.2540  0.0632
 5502SOL    HW221740   4.532   6.378   4.985  2.7577  2.6161 -0.6001
 5502SOL    HW321741   4.469   6.354   4.849 -1.6380 -1.0291  1.7993
 5502SOL    MW421742   4.534   6.342   4.906  0.5849  0.3288 -0.1348
 5503SOL     OW21743   1.763   2.276   3.158  0.5566  0.6155 -0.3326
 5503SOL    HW221744   1.688   2.327   3.190 -0.5854 -1.1231 -0.0963
 5503SOL    HW321745   1.731   2.233   3.079  1.5499  0.3969 -0.6297
 5503SOL    MW421746   1.749   2.277   3.152 -1.1061  0.2419 -0.0326
 5504SOL     OW21747   4.263   2.205   0.706 -0.8213  0.6308  0.0656
 5504SOL    HW221748   4.318   2.162   0.641 -1.9671  0.7686 -1.0210
 5504SOL    HW321749   4.223   2.133   0.755  0.9334  0.5231  1.4561
 5504SOL    MW421750   4.265   2.190   0.704 -0.5194  0.3210  0.0597
 5505SOL     OW21751   5.508   5.768   3.669  0.2336  0.2094 -0.0474
 5505SOL    HW221752   5.506   5.834   3.739 -3.1117  0.0741  0.1282
 5505SOL    HW321753   5.463   5.692   3.707  1.5465 -1.2182 -1.2070
 5505SOL    MW421754   5.502   5.767   3.684  0.5538  0.1832 -0.0652
 5506SOL     OW21755   4.729   4.472   5.174  0.0418 -0.0218  0.5553
 5506SOL    HW221756   4.675   4.512   5.242  0.1603  1.0843  0.0154
 5506SOL    HW321757   4.757   4.388   5.212  1.0968  1.0789  2.3363
 5506SOL    MW421758   4.725   4.466   5.188 -0.5058  0.3975  0.3124
 5507SOL     OW21759   0.715   5.954   3.628  0.0305 -0.1221 -0.6380
 5507SOL    HW221760   0.764   6.035   3.635  0.2221 -0.2698 -0.2360
 5507SOL    HW321761   0.769   5.889   3.673 -0.9658 -0.0890  0.6723
 5507SOL    MW421762   0.729   5.956   3.635  0.1459 -0.1314 -0.5995
 5508SOL     OW21763   5.983   3.481   1.439  0.5733 -0.0141 -0.0377
 5508SOL    HW221764   6.065   3.437   1.415  1.8731  1.7439  0.9578
 5508SOL    HW321765   6.000   3.517   1.526 -1.0290  0.9899 -0.1104
 5508SOL    MW421766   5.996   3.480   1.447  0.5306 -0.6655  0.0914
 5509SOL     OW21767   2.853   2.583   4.761  0.8015 -0.3180  0.2274
 5509SOL    HW221768   2.870   2.669   4.799  0.1531 -0.9883  2.2139
 5509SOL    HW321769   2.924   2.528   4.794  0.8415 -0.6989 -0.4797
 5509SOL    MW421770   2.864   2.587   4.771 -0.0774 -0.2745 -0.6056
 5510SOL     OW21771   4.196   1.852   5.125  0.2791 -0.1310 -0.4670
 5510SOL    HW221772   4.128   1.849   5.193 -0.3034  1.2039 -0.9475
 5510SOL    HW321773   4.255   1.781   5.147  0.3287  0.5055  1.7068
 5510SOL    MW421774   4.195   1.842   5.137 -0.6811  0.2082  0.1892
 5511SOL     OW21775   1.462   0.807   1.490 -0.0869  0.3256 -0.1956
 5511SOL    HW221776   1.394   0.821   1.424 -0.5523 -0.0924  0.1884
 5511SOL    HW321777   1.432   0.857   1.565 -0.5882 -0.8015  0.3860
 5511SOL    MW421778   1.449   0.815   1.491  0.1387  0.0617 -0.4540
 5512SOL     OW21779   0.078   0.249   6.077 -0.2402  0.3227 -0.0336
 5512SOL    HW221780  -0.010   0.286   6.076  0.2553  1.5382  0.0091
 5512SOL    HW321781   0.125   0.299   6.145  0.6409  0.0910 -0.4540
 5512SOL    MW421782   0.073   0.261   6.086  0.5900 -0.1870  0.1367
 5513SOL     OW21783   3.324   4.281   5.410  0.5887 -0.0946 -0.2192
 5513SOL    HW221784   3.280   4.295   5.326 -0.3797 -0.8406  0.1395
 5513SOL    HW321785   3.259   4.234   5.463  1.5417 -0.5098  0.6093
 5513SOL    MW421786   3.310   4.276   5.406  0.0229  0.2277 -0.0428
 5514SOL     OW21787   3.722   0.809   1.100 -0.1831  0.1714  0.0028
 5514SOL    HW221788   3.685   0.894   1.124 -0.6032  0.0439 -0.1701
 5514SOL    HW321789   3.781   0.829   1.028  0.5214  0.4545  0.6520
 5514SOL    MW421790   3.725   0.823   1.093  0.2720 -0.0107  0.9895
 5515SOL     OW21791   4.945   5.225   4.370  0.2325  0.3254 -0.1137
 5515SOL    HW221792   4.915   5.259   4.286 -0.4924 -0.3654 -0.1506
 5515SOL    HW321793   4.988   5.142   4.349  1.3000  0.8128  0.0567
 5515SOL    MW421794   4.947   5.219   4.356 -0.1745 -0.4348 -0.3719
 5516SOL     OW21795   1.035   1.434   5.081  0.0257 -0.0055 -0.1560
 5516SOL    HW221796   1.051   1.456   5.173 -0.5608  0.7537 -0.2264
 5516SOL    HW321797   1.050   1.340   5.077 -0.6523 -0.1873  0.8913
 5516SOL    MW421798   1.039   1.424   5.093 -0.0360 -0.1511  0.1991
 5517SOL     OW21799   2.027   0.318   0.436  0.0113 -0.3537 -0.0559
 5517SOL    HW221800   2.117   0.349   0.426 -0.3978  0.4673 -1.5485
 5517SOL    HW321801   2.032   0.225   0.416  0.5020 -0.2661 -0.3668
 5517SOL    MW421802   2.039   0.310   0.432  0.4404  0.1461 -0.2112
 5518SOL     OW21803   3.578   5.939   5.220  0.2058 -0.4119 -0.1380
 5518SOL    HW221804   3.600   5.847   5.233  0.5618 -0.4550 -1.0135
 5518SOL    HW321805   3.642   5.987   5.273  0.0339 -0.6578  0.2999
 5518SOL    MW421806   3.589   5.933   5.229  0.0418 -0.3471  0.6697
 5519SOL     OW21807   3.974   0.076   4.123 -0.3376  0.3985 -0.2433
 5519SOL    HW221808   4.033   0.096   4.197 -1.9114 -0.2786  1.2704
 5519SOL    HW321809   4.021   0.010   4.072  0.2856 -0.0390  0.8510
 5519SOL    MW421810   3.988   0.070   4.126  0.2252  0.2451 -0.0930
 5520SOL     OW21811   3.086   5.746   2.260 -0.0907 -0.0156  0.6933
 5520SOL    HW221812   3.018   5.690   2.298 -2.4754  1.5769 -0.9112
 5520SOL    HW321813   3.053   5.835   2.274  1.9332  0.8462  0.2586
 5520SOL    MW421814   3.072   5.750   2.267 -0.3633 -0.1551 -0.5325
 5521SOL     OW21815   4.853   0.461   3.593 -0.2012  0.3986 -0.1221
 5521SOL    HW221816   4.861   0.540   3.538  0.1316  0.1737 -0.3988
 5521SOL    HW321817   4.762   0.463   3.624 -0.4091  0.5056 -0.7178
 5521SOL    MW421818   4.842   0.472   3.590 -0.6211  0.3636  0.3499
 5522SOL     OW21819   2.772   2.136   2.117 -0.3556  0.2616 -0.8880
 5522SOL    HW221820   2.747   2.055   2.071  0.4753 -0.4654 -0.1014
 5522SOL    HW321821   2.762   2.205   2.051 -1.3377 -0.4386 -1.4992
 5522SOL    MW421822   2.767   2.134   2.102  0.4885 -0.0158  0.5917
 5523SOL     OW21823   0.430   5.903   4.261  0.3099  0.4054 -0.1335
 5523SOL    HW221824   0.341   5.931   4.283  0.3053  2.8447 -2.7168
 5523SOL    HW321825   0.484   5.940   4.330 -0.4520  1.0733  0.1270
 5523SOL    MW421826   0.425   5.912   4.273 -0.1729  0.3006  0.0135
 5524SOL     OW21827   0.648   0.417   5.920 -0.0306  0.2000 -0.1148
 5524SOL    HW221828   0.595   0.369   5.857 -0.5497  0.3409  0.2062
 5524SOL    HW321829   0.638   0.509   5.896  1.6183  0.1217 -1.2305
 5524SOL    MW421830   0.640   0.423   5.909 -0.1828 -0.2187  0.1582
 5525SOL     OW21831   6.303   0.918   5.135  0.1886  0.0454 -0.4701
 5525SOL    HW221832   6.343   0.944   5.218  2.1456  0.2577 -1.4234
 5525SOL    HW321833   6.233   0.981   5.122  1.1454  1.2596  0.0636
 5525SOL    MW421834   6.299   0.929   5.144 -0.4953  0.2348 -0.4958
 5526SOL     OW21835   4.401   0.785   1.182 -0.4805 -0.3497 -0.2612
 5526SOL    HW221836   4.334   0.853   1.184 -0.3776 -0.2507 -0.2424
 5526SOL    HW321837   4.368   0.718   1.242 -0.4404 -0.1889 -0.0595
 5526SOL    MW421838   4.388   0.785   1.190 -0.1174 -0.1272  0.7770
 5527SOL     OW21839   2.675   1.318   6.075 -0.4240  0.1094 -0.3169
 5527SOL    HW221840   2.727   1.392   6.107  0.4815 -0.5260 -0.2538
 5527SOL    HW321841   2.584   1.343   6.090 -0.2173  1.9046 -1.8319
 5527SOL    MW421842   2.670   1.331   6.082 -0.5777  0.1576 -1.2449
 5528SOL     OW21843   4.887   4.050   4.189 -0.1678 -0.0770 -0.1150
 5528SOL    HW221844   4.973   4.092   4.192 -1.1657  2.0407  0.5476
 5528SOL    HW321845   4.877   4.023   4.097  1.0070  0.0415 -0.2944
 5528SOL    MW421846   4.897   4.052   4.177  0.0889 -0.1509 -0.0365
 5529SOL     OW21847   1.406   0.037   6.091  0.4529  0.1456  0.3832
 5529SOL    HW221848   1.406  -0.004   6.177 -0.3617  0.6336  0.6269
 5529SOL    HW321849   1.498   0.059   6.074  0.5720  0.3416  1.2713
 5529SOL    MW421850   1.418   0.034   6.100 -1.0450 -0.1120  0.6097
 5530SOL     OW21851   3.227   6.271   2.419 -0.4747 -0.1013  0.3628
 5530SOL    HW221852   3.145   6.264   2.467 -0.3575 -1.9205  0.3817
 5530SOL    HW321853   3.269   6.185   2.431  1.1975  0.6169 -0.0482
 5530SOL    MW421854   3.222   6.258   2.427 -0.3717  0.0577 -0.9014
 5531SOL     OW21855   5.765   2.666   0.921 -0.0512  0.4623  0.6804
 5531SOL    HW221856   5.746   2.758   0.903  2.0135  0.9067  0.5686
 5531SOL    HW321857   5.787   2.629   0.835  0.6924  0.2807  0.9426
 5531SOL    MW421858   5.765   2.673   0.907  0.3980  0.8639  0.1111
 5532SOL     OW21859   5.885   4.133   2.605  0.2635 -0.0933  0.0979
 5532SOL    HW221860   5.956   4.083   2.565 -1.0487 -2.1000  0.1232
 5532SOL    HW321861   5.808   4.112   2.553 -0.5883  0.9402  0.8884
 5532SOL    MW421862   5.884   4.124   2.593  0.0760  0.2343 -0.1667
 5533SOL     OW21863   5.134   0.126   3.726 -0.3325 -0.6520 -0.1810
 5533SOL    HW221864   5.044   0.155   3.734  0.2385  1.9537 -1.9737
 5533SOL    HW321865   5.178   0.161   3.804 -0.0342  1.9841 -1.4415
 5533SOL    MW421866   5.128   0.134   3.738  0.0171  0.2806  0.2767
 5534SOL     OW21867   0.201   5.273   2.002 -0.3554 -0.6348  0.3243
 5534SOL    HW221868   0.183   5.223   2.082 -2.0765 -0.0473  0.3470
 5534SOL    HW321869   0.119   5.319   1.984  1.2688  2.7194  0.6762
 5534SOL    MW421870   0.188   5.273   2.010 -0.4132  0.4617  0.0946
 5535SOL     OW21871   3.366   1.426   1.204 -0.1737  0.1321  0.1713
 5535SOL    HW221872   3.378   1.338   1.241 -0.1964 -0.6103 -1.4703
 5535SOL    HW321873   3.433   1.432   1.136  0.0624  1.5507  0.4983
 5535SOL    MW421874   3.376   1.415   1.200 -0.0244  0.0321 -0.5699
 5536SOL     OW21875   2.923   1.124   1.276  1.0024  0.3007  0.3246
 5536SOL    HW221876   2.968   1.056   1.327  0.0169 -0.5296  0.1125
 5536SOL    HW321877   2.865   1.076   1.218  0.0581  1.3384  0.3826
 5536SOL    MW421878   2.922   1.109   1.275 -0.1977  0.2938 -0.1522
 5537SOL     OW21879   0.554   4.340   4.431 -0.4270 -0.2200 -0.4778
 5537SOL    HW221880   0.482   4.353   4.369  0.1001  1.3634 -0.8081
 5537SOL    HW321881   0.622   4.401   4.402 -0.2409  0.7499  1.7897
 5537SOL    MW421882   0.554   4.350   4.419  0.1280 -0.2682  0.1111
 5538SOL     OW21883   3.896   2.095   3.260  0.0755  0.3913  0.5071
 5538SOL    HW221884   3.873   2.188   3.259 -1.7834 -0.0227  0.0130
 5538SOL    HW321885   3.850   2.060   3.337  0.1291 -0.2423  0.2586
 5538SOL    MW421886   3.887   2.103   3.270  0.2485 -0.6084 -0.0294
 5539SOL     OW21887   1.874   0.544   3.710  0.4014 -0.1886 -0.1445
 5539SOL    HW221888   1.811   0.488   3.666  2.8149 -1.7542 -1.8533
 5539SOL    HW321889   1.821   0.605   3.761 -2.4272 -1.5565 -1.2662
 5539SOL    MW421890   1.859   0.545   3.711 -0.0437  0.4463  0.4916
 5540SOL     OW21891   1.271   1.300   2.733  0.3972 -0.6873 -0.7363
 5540SOL    HW221892   1.302   1.210   2.740 -1.9893 -1.5478 -0.0332
 5540SOL    HW321893   1.176   1.294   2.749  0.6362  2.4547  3.8599
 5540SOL    MW421894   1.262   1.287   2.736  0.0114 -0.1189 -0.3841
 5541SOL     OW21895   3.908   4.339   0.203 -0.6317  0.1548  0.5777
 5541SOL    HW221896   3.907   4.277   0.276  0.9520  0.3017  0.7592
 5541SOL    HW321897   3.866   4.292   0.131 -2.6034  0.1586  1.6657
 5541SOL    MW421898   3.902   4.325   0.203 -0.0708  0.4479 -0.6209
 5542SOL     OW21899   2.046   5.682   1.296 -0.4014 -0.3605 -0.0587
 5542SOL    HW221900   2.079   5.592   1.301 -0.3050 -0.4248 -1.4168
 5542SOL    HW321901   2.082   5.725   1.374 -1.2239 -1.7157  1.1233
 5542SOL    MW421902   2.055   5.676   1.307  0.3289  0.6079  0.7325
 5543SOL     OW21903   3.118   2.158   3.192  0.1778 -0.1756  0.5254
 5543SOL    HW221904   3.042   2.132   3.142 -0.8479 -1.7304  2.7327
 5543SOL    HW321905   3.126   2.252   3.177  0.3080 -0.5914 -2.8736
 5543SOL    MW421906   3.109   2.167   3.184 -0.1758 -0.5614  0.2104
 5544SOL     OW21907   1.964   2.066   3.499 -0.0566 -0.6873 -0.2593
 5544SOL    HW221908   1.983   2.144   3.447  0.1161  0.6438  1.6981
 5544SOL    HW321909   1.895   2.092   3.559 -2.5261 -3.1045 -1.8139
 5544SOL    MW421910   1.958   2.079   3.500  0.3540 -0.2717  0.6938
 5545SOL     OW21911   6.216   2.685   2.571  0.4308 -0.6532  0.9433
 5545SOL    HW221912   6.167   2.754   2.526  0.4551 -0.6427  0.9327
 5545SOL    HW321913   6.248   2.727   2.651  0.2156 -0.7312  1.0693
 5545SOL    MW421914   6.214   2.700   2.576 -0.6231  0.4826 -0.3721
 5546SOL     OW21915   2.225   3.307   3.095  0.0855  0.7154 -0.2658
 5546SOL    HW221916   2.288   3.335   3.162  0.7275  1.9371 -1.3296
 5546SOL    HW321917   2.139   3.327   3.133  0.4539  1.6943  0.0850
 5546SOL    MW421918   2.222   3.313   3.109 -0.0752  0.0010  0.2829
 5547SOL     OW21919   3.850   4.969   1.546  0.0155 -0.3235 -0.1219
 5547SOL    HW221920   3.819   5.039   1.489 -2.9353 -2.1118 -0.9336
 5547SOL    HW321921   3.883   5.014   1.624 -1.3075  1.9755 -0.7919
 5547SOL    MW421922   3.850   4.984   1.549 -0.4985 -0.1125 -0.0058
 5548SOL     OW21923   5.085   0.811   3.481  0.0403 -0.2029 -0.1366
 5548SOL    HW221924   5.167   0.859   3.472 -0.8045  1.1789 -0.7184
 5548SOL    HW321925   5.099   0.755   3.558  0.8266  1.4853  1.0169
 5548SOL    MW421926   5.098   0.810   3.490  0.5274  0.5427 -0.8094
 5549SOL     OW21927   4.934   3.042   6.183  0.3848 -0.7036 -0.1719
 5549SOL    HW221928   4.933   2.974   6.115  1.1779 -1.0874  0.1867
 5549SOL    HW321929   5.022   3.038   6.220  1.2034  1.9614 -1.5574
 5549SOL    MW421930   4.945   3.032   6.179  0.1731 -0.0359  0.6895
 5550SOL     OW21931   3.559   4.261   3.190  0.1173  0.0038  0.5649
 5550SOL    HW221932   3.554   4.285   3.282 -0.8218  1.1987  0.2224
 5550SOL    HW321933   3.569   4.344   3.144  2.7137 -0.6995 -0.3130
 5550SOL    MW421934   3.560   4.275   3.196 -0.0062  0.8754  0.3048
 5551SOL     OW21935   1.829   5.296   3.752 -0.2274  0.6559 -0.3719
 5551SOL    HW221936   1.897   5.253   3.701 -2.1112 -0.9006 -1.7170
 5551SOL    HW321937   1.836   5.389   3.727  0.5160  0.3080 -1.5432
 5551SOL    MW421938   1.839   5.303   3.742 -0.3921  0.5464 -0.3909
 5552SOL     OW21939   5.805   0.030   1.607 -0.6722  0.4464 -0.6201
 5552SOL    HW221940   5.773  -0.060   1.596 -0.7028  0.3317  0.2817
 5552SOL    HW321941   5.727   0.081   1.629 -0.4518  0.3989  0.3465
 5552SOL    MW421942   5.791   0.025   1.609 -0.2045  0.2972  0.3894
 5553SOL     OW21943   3.182   1.369   1.898 -0.4111 -0.0475 -0.3675
 5553SOL    HW221944   3.169   1.281   1.933  1.6532 -0.6362 -0.9734
 5553SOL    HW321945   3.217   1.419   1.971 -0.9414  0.1038 -0.2118
 5553SOL    MW421946   3.185   1.364   1.912  0.3262  0.2337 -0.4638
 5554SOL     OW21947   6.078   3.142   6.400 -0.3894 -0.3522  0.1017
 5554SOL    HW221948   6.058   3.093   6.480 -0.5505 -0.1091  0.2101
 5554SOL    HW321949   6.165   3.180   6.416 -0.2305 -0.6619 -0.0124
 5554SOL    MW421950   6.087   3.140   6.413 -0.5285  0.3487 -0.5385
 5555SOL     OW21951   5.524   5.803   2.499 -0.0001 -0.0109 -0.7399
 5555SOL    HW221952   5.459   5.852   2.449  0.1094 -0.4163 -1.2960
 5555SOL    HW321953   5.477   5.769   2.574  0.2409  2.1902  0.5002
 5555SOL    MW421954   5.509   5.805   2.502 -0.6405 -0.4752 -0.4978
 5556SOL     OW21955   6.285   3.496   6.161  0.0437 -0.3145  0.1644
 5556SOL    HW221956   6.308   3.464   6.248 -0.9135  0.9936  0.9497
 5556SOL    HW321957   6.234   3.425   6.122 -0.0024 -0.7011  0.8984
 5556SOL    MW421958   6.281   3.483   6.167 -0.4783 -0.5539 -0.5057
 5557SOL     OW21959   2.015   5.216   3.552  0.5635  0.1446 -0.1707
 5557SOL    HW221960   2.060   5.136   3.580 -0.1355  0.2704  1.3930
 5557SOL    HW321961   1.984   5.196   3.463  0.9616 -1.0854 -0.0483
 5557SOL    MW421962   2.016   5.202   3.544  0.2810 -0.8017  0.0576
 5558SOL     OW21963   3.198   3.018   2.426  0.3092 -0.3979 -0.1578
 5558SOL    HW221964   3.162   2.947   2.372  0.3919 -0.0323 -0.7025
 5558SOL    HW321965   3.224   2.975   2.507 -2.7230 -0.4644  0.9281
 5558SOL    MW421966   3.197   3.003   2.430  0.8231  0.4333 -0.6751
 5559SOL     OW21967   2.845   3.487   1.301  0.5565  0.1137 -0.2649
 5559SOL    HW221968   2.759   3.526   1.287  0.7977  1.8662  2.3629
 5559SOL    HW321969   2.873   3.520   1.387  3.0527 -1.8909 -0.1678
 5559SOL    MW421970   2.837   3.496   1.311 -0.3307  0.4525  0.4062
 5560SOL     OW21971   4.054   2.906   3.604 -0.8656  0.2151  0.4396
 5560SOL    HW221972   4.093   2.826   3.569  0.3647  1.3655 -1.0222
 5560SOL    HW321973   4.044   2.963   3.527 -4.4490  0.4678  0.8952
 5560SOL    MW421974   4.058   2.903   3.589 -0.3348  0.1893 -0.4829
 5561SOL     OW21975   3.582   2.826   5.804 -0.0836  0.0728 -0.3860
 5561SOL    HW221976   3.602   2.748   5.752  0.3908 -1.6722  2.2683
 5561SOL    HW321977   3.489   2.816   5.826 -0.5614  1.3398 -1.6405
 5561SOL    MW421978   3.572   2.815   5.800  0.2477  0.1635 -0.0989
 5562SOL     OW21979   0.235   0.551   4.032  0.2504  0.0817 -0.1832
 5562SOL    HW221980   0.307   0.508   3.986  0.4314  0.5221 -0.3139
 5562SOL    HW321981   0.191   0.603   3.964 -0.8921 -1.0672 -0.3640
 5562SOL    MW421982   0.238   0.552   4.017 -0.3528 -0.5595  0.1723
 5563SOL     OW21983   4.948   2.417   6.196  0.4489 -0.0442  0.1598
 5563SOL    HW221984   5.031   2.398   6.152  0.8014  1.4590  0.1205
 5563SOL    HW321985   4.969   2.415   6.289  0.5081  0.2057  0.1534
 5563SOL    MW421986   4.961   2.414   6.202  0.0247  0.7665  0.2608
 5564SOL     OW21987   5.106   0.011   2.209 -0.2580 -0.1951 -0.2411
 5564SOL    HW221988   5.010   0.012   2.199 -0.2283 -0.7407 -0.5929
 5564SOL    HW321989   5.139   0.000   2.120  0.1928  1.7416 -0.3694
 5564SOL    MW421990   5.097   0.010   2.196  0.5207  0.1247  0.5592
 5565SOL     OW21991   1.797   2.973   5.739 -0.5694  0.8120 -0.1155
 5565SOL    HW221992   1.827   2.966   5.649 -0.7296 -1.4576 -0.0568
 5565SOL    HW321993   1.861   2.923   5.790  1.1251  4.2952  1.5385
 5565SOL    MW421994   1.809   2.965   5.734 -0.4289 -0.0125 -0.2151
 5566SOL     OW21995   0.117   4.003   5.300  0.6797 -0.4368 -0.2958
 5566SOL    HW221996   0.157   4.068   5.243  0.7288 -1.4932 -1.5152
 5566SOL    HW321997   0.104   4.048   5.383  3.4489  0.2420 -0.1467
 5566SOL    MW421998   0.120   4.017   5.303 -0.6662  0.2691  0.5166
 5567SOL     OW21999   3.637   4.774   1.513  0.2037 -0.1632  0.4412
 5567SOL    HW222000   3.703   4.839   1.538  1.0122 -0.3156 -1.1437
 5567SOL    HW322001   3.670   4.691   1.547 -0.0622  0.0238  1.1600
 5567SOL    MW422002   3.650   4.772   1.521 -0.3747 -0.1930 -0.2107
 5568SOL     OW22003   5.080   5.831   5.426  0.0954 -0.6448  0.0282
 5568SOL    HW222004   5.114   5.741   5.430 -0.8378 -0.9538  2.7980
 5568SOL    HW322005   5.047   5.848   5.514 -1.2746  1.8553 -0.8858
 5568SOL    MW422006   5.080   5.821   5.438 -0.1812 -0.6720 -0.1089
 5569SOL     OW22007   1.288   1.198   0.596  0.2111 -0.1611 -0.0962
 5569SOL    HW222008   1.258   1.231   0.512  1.8061  2.2494  0.2042
 5569SOL    HW322009   1.213   1.211   0.655  0.3104  1.7181 -0.3260
 5569SOL    MW422010   1.274   1.204   0.593  0.2429 -0.1441  0.1074
 5570SOL     OW22011   3.077   6.036   0.669  0.4773 -0.5013  0.1019
 5570SOL    HW222012   3.103   6.014   0.758  2.6343  1.2136 -0.0026
 5570SOL    HW322013   3.030   6.119   0.677 -1.0691 -1.3280 -0.1863
 5570SOL    MW422014   3.074   6.044   0.682  0.6149 -0.2361 -0.1102
 5571SOL     OW22015   3.901   6.105   3.409 -0.2438  0.0538  0.5285
 5571SOL    HW222016   3.820   6.056   3.394  0.1516 -0.2398 -0.7903
 5571SOL    HW322017   3.877   6.173   3.472 -0.6195 -2.3013  3.0984
 5571SOL    MW422018   3.887   6.107   3.415 -0.5634  0.1408  0.4677
 5572SOL     OW22019   6.266   2.277   3.876  0.2289  0.3208  0.2473
 5572SOL    HW222020   6.342   2.257   3.821  0.3406 -0.8445  0.7928
 5572SOL    HW322021   6.194   2.289   3.814  0.6518  0.4397 -0.2242
 5572SOL    MW422022   6.266   2.276   3.861  0.4662 -0.7679  0.5103
 5573SOL     OW22023   5.172   5.399   0.805  0.1505  0.7345  0.8895
 5573SOL    HW222024   5.120   5.461   0.857 -0.0649  0.3974  1.0888
 5573SOL    HW322025   5.198   5.332   0.868  0.3302  0.5929  0.6653
 5573SOL    MW422026   5.168   5.398   0.821  0.1950 -0.0927 -0.4254
 5574SOL     OW22027   0.023   3.855   0.974  0.2462 -0.0781 -0.2821
 5574SOL    HW222028  -0.061   3.810   0.977  0.1664 -0.2144 -2.7072
 5574SOL    HW322029   0.084   3.791   0.939  0.7124  0.8556 -1.2546
 5574SOL    MW422030   0.020   3.841   0.970 -0.0632 -0.2683 -0.0998
 5575SOL     OW22031   2.144   5.641   2.389 -0.1120 -0.9028  0.1153
 5575SOL    HW222032   2.125   5.664   2.298 -0.9478  1.5338  0.7983
 5575SOL    HW322033   2.219   5.696   2.412  0.0359 -1.4297  0.9071
 5575SOL    MW422034   2.151   5.651   2.380  0.0963  0.3180  0.1961
 5576SOL     OW22035   3.648   4.785   5.677  0.5411 -0.3393  0.5446
 5576SOL    HW222036   3.667   4.694   5.700  0.2650 -0.3572  0.7190
 5576SOL    HW322037   3.671   4.792   5.585 -0.0708 -0.7766  0.3479
 5576SOL    MW422038   3.653   4.774   5.668 -0.1938 -0.2966  0.4514
 5577SOL     OW22039   2.284   0.416   0.434  0.0039  0.3544  0.5726
 5577SOL    HW222040   2.279   0.467   0.353 -0.1688 -0.4812  0.0513
 5577SOL    HW322041   2.287   0.483   0.503 -1.0056  1.0828 -0.0432
 5577SOL    MW422042   2.284   0.432   0.432  0.1449  0.2138  0.5184
 5578SOL     OW22043   1.364   1.089   3.228  0.0679  0.1234 -0.3643
 5578SOL    HW222044   1.361   0.993   3.235  1.5247  0.0431 -0.6307
 5578SOL    HW322045   1.397   1.118   3.313  0.0426  0.3596 -0.4352
 5578SOL    MW422046   1.368   1.080   3.240 -0.4360 -0.5916  0.5902
 5579SOL     OW22047   0.370   0.512   1.351 -0.4872  0.0969  0.6544
 5579SOL    HW222048   0.360   0.446   1.282  0.0144  0.4196  0.2657
 5579SOL    HW322049   0.295   0.497   1.409 -0.6887 -0.4477  0.2685
 5579SOL    MW422050   0.359   0.501   1.350 -0.1209 -0.8791  1.3995
 5580SOL     OW22051   3.432   5.918   0.909  0.5268  0.4632  0.6434
 5580SOL    HW222052   3.437   5.890   0.817  0.5430  0.3307  0.6841
 5580SOL    HW322053   3.464   5.842   0.958  1.1734  0.7808  0.7195
 5580SOL    MW422054   3.437   5.904   0.903  0.2561 -0.1715  0.4064
 5581SOL     OW22055   6.045   4.300   5.364  0.0353 -0.0787 -0.2741
 5581SOL    HW222056   6.121   4.343   5.326  0.1443  0.4600  0.5182
 5581SOL    HW322057   6.081   4.225   5.411  0.0463 -0.0180 -0.1845
 5581SOL    MW422058   6.060   4.296   5.365  0.4820  0.4836 -0.1301
 5582SOL     OW22059   0.792   1.309   6.177 -0.5402 -0.8113  0.3596
 5582SOL    HW222060   0.813   1.216   6.180 -0.1564 -0.7087  1.0465
 5582SOL    HW322061   0.845   1.348   6.247  1.3480  0.3401 -1.5857
 5582SOL    MW422062   0.802   1.302   6.187  0.5812  0.5302  0.0401
 5583SOL     OW22063   2.603   5.252   0.650 -0.2029  0.1313  0.0749
 5583SOL    HW222064   2.518   5.230   0.687 -0.4629 -2.6453 -1.8717
 5583SOL    HW322065   2.665   5.196   0.698  0.2270  0.6243  0.0973
 5583SOL    MW422066   2.600   5.241   0.661 -0.6853  0.6327 -0.7870
 5584SOL     OW22067   1.070   5.214   1.491  0.0702  0.3804 -0.2070
 5584SOL    HW222068   1.164   5.198   1.497  0.0829 -0.0078 -1.3119
 5584SOL    HW322069   1.044   5.236   1.581  0.8350 -1.5567  0.5537
 5584SOL    MW422070   1.079   5.215   1.504 -0.8415 -0.1335  0.0445
 5585SOL     OW22071   3.129   4.508   5.239 -0.0582 -0.0893 -0.7995
 5585SOL    HW222072   3.195   4.571   5.212 -0.1939 -0.3940 -1.9009
 5585SOL    HW322073   3.156   4.425   5.198 -0.4768 -0.4903 -0.2833
 5585SOL    MW422074   3.141   4.505   5.230 -0.5389  0.0961 -0.2028
 5586SOL     OW22075   4.169   0.925   1.203  0.3754  0.1237 -0.9722
 5586SOL    HW222076   4.194   0.972   1.283  1.8040 -0.5011 -1.0363
 5586SOL    HW322077   4.093   0.873   1.229  0.9422 -0.2139  0.0271
 5586SOL    MW422078   4.162   0.925   1.217  0.1024 -0.0266  0.3513
 5587SOL     OW22079   5.851   0.151   2.340  0.1648  0.1501 -0.1547
 5587SOL    HW222080   5.930   0.198   2.367  0.0134  0.3358 -0.0354
 5587SOL    HW322081   5.829   0.189   2.255  0.2342  0.0622 -0.2118
 5587SOL    MW422082   5.859   0.162   2.332  0.1639  0.5852  0.3243
 5588SOL     OW22083   5.426   1.609   1.983 -0.2207 -0.5136 -0.1685
 5588SOL    HW222084   5.507   1.561   1.966  0.6187  0.7362  0.1746
 5588SOL    HW322085   5.451   1.679   2.043 -1.7419 -0.6308  0.6610
 5588SOL    MW422086   5.440   1.612   1.989 -0.9404  0.3240 -1.0458
 5589SOL     OW22087   2.123   0.554   2.594  0.8913  0.3658 -0.0497
 5589SOL    HW222088   2.076   0.625   2.640  1.1470 -0.6681  1.9364
 5589SOL    HW322089   2.215   0.579   2.599  0.7640  1.9144 -3.1038
 5589SOL    MW422090   2.129   0.567   2.601  0.0552 -0.0329 -0.7932
 5590SOL     OW22091   0.739   4.270   3.686  0.4786 -0.2476  0.4016
 5590SOL    HW222092   0.656   4.248   3.729 -0.7742  0.1974 -1.6679
 5590SOL    HW322093   0.730   4.362   3.661  1.6256 -0.1825  0.1581
 5590SOL    MW422094   0.727   4.279   3.689  0.3000 -0.5262 -0.1016
 5591SOL     OW22095   6.249   1.324   0.445  0.6973 -0.3404  0.1901
 5591SOL    HW222096   6.235   1.417   0.430  1.6961 -0.0850  0.7515
 5591SOL    HW322097   6.163   1.284   0.430 -0.1407  0.8634  1.5588
 5591SOL    MW422098   6.236   1.331   0.441  0.4236 -0.0675  0.1602
 5592SOL     OW22099   3.722   4.855   5.415  0.3465  0.3517  0.4488
 5592SOL    HW222100   3.810   4.870   5.382 -0.3356  1.3149 -1.0183
 5592SOL    HW322101   3.678   4.804   5.346  0.0495 -1.0960  1.6434
 5592SOL    MW422102   3.728   4.850   5.402  0.3560 -0.2876  0.2084
 5593SOL     OW22103   5.461   0.158   2.224  0.1518  0.4915 -0.4434
 5593SOL    HW222104   5.469   0.248   2.193  1.3986  0.8003  0.6924
 5593SOL    HW322105   5.482   0.163   2.317 -2.9619 -0.4812  0.4315
 5593SOL    MW422106   5.465   0.171   2.232  0.4524  0.2642  0.0725
 5594SOL     OW22107   3.912   2.283   6.020 -0.0792  0.3682  0.3254
 5594SOL    HW222108   3.905   2.366   5.973  0.7615  0.8014  0.9197
 5594SOL    HW322109   3.833   2.235   5.998 -1.7750  2.2924  1.7940
 5594SOL    MW422110   3.901   2.287   6.011 -0.1825 -0.1739  0.0460
 5595SOL     OW22111   0.073   1.482   5.957 -0.1007  0.0573 -0.1393
 5595SOL    HW222112   0.144   1.422   5.934  0.4738  0.1979  1.1466
 5595SOL    HW322113   0.046   1.454   6.045  0.1205  1.6219  0.4544
 5595SOL    MW422114   0.079   1.470   5.966 -0.6786 -0.1400 -0.0979
 5596SOL     OW22115   5.166   3.059   6.307 -0.3276  0.4195  0.0860
 5596SOL    HW222116   5.199   3.100   6.227 -3.0787 -0.1696 -1.4817
 5596SOL    HW322117   5.138   3.132   6.361  1.0934  0.8008  0.3645
 5596SOL    MW422118   5.167   3.074   6.303 -0.1964  1.0220  0.2151
 5597SOL     OW22119   2.887   0.720   0.307  0.0446  0.2785 -0.4765
 5597SOL    HW222120   2.937   0.791   0.268 -1.6378  0.7915 -1.8394
 5597SOL    HW322121   2.953   0.659   0.342  1.6103  0.6225 -2.6667
 5597SOL    MW422122   2.902   0.721   0.307 -0.0979 -0.5439 -0.4201
 5598SOL     OW22123   1.745   3.513   1.989  0.7585  0.5901  0.4149
 5598SOL    HW222124   1.664   3.547   2.026  0.5278 -0.1346  0.6018
 5598SOL    HW322125   1.726   3.505   1.895  0.1618 -0.7184  0.6088
 5598SOL    MW422126   1.731   3.516   1.981 -0.6026 -0.6927 -0.1494
 5599SOL     OW22127   1.499   5.139   2.143  0.1110 -0.0345 -0.2040
 5599SOL    HW222128   1.589   5.107   2.147 -0.3320 -1.3456 -0.2651
 5599SOL    HW322129   1.508   5.233   2.127  1.4741 -0.0124  0.5313
 5599SOL    MW422130   1.512   5.147   2.141 -0.0205  0.6395  0.3905
 5600SOL     OW22131   0.102   0.752   5.743  0.3899 -0.2331  0.0278
 5600SOL    HW222132   0.127   0.821   5.681 -2.0867  0.0031 -0.8127
 5600SOL    HW322133   0.134   0.671   5.702  0.0157  0.0656 -0.8893
 5600SOL    MW422134   0.110   0.750   5.729 -0.2916  0.2443 -0.2008
 5601SOL     OW22135   2.907   2.632   3.403 -0.1835  0.6000 -0.4454
 5601SOL    HW222136   2.928   2.700   3.339  1.7944 -0.0291 -0.5187
 5601SOL    HW322137   2.883   2.679   3.482  1.9180  1.4257 -0.2510
 5601SOL    MW422138   2.907   2.647   3.405 -0.7145  0.1368  0.4708
 5602SOL     OW22139   2.820   4.069   2.829 -0.2127  0.9346  1.0048
 5602SOL    HW222140   2.868   4.038   2.906 -1.1893  0.4513  1.4387
 5602SOL    HW322141   2.887   4.105   2.771  1.0968 -2.1278  0.3830
 5602SOL    MW422142   2.835   4.070   2.831 -0.2406  0.3208 -0.2171
 5603SOL     OW22143   3.955   3.129   1.364 -0.0020  0.0123  0.1882
 5603SOL    HW222144   3.890   3.146   1.297 -0.1456  2.0637  0.7673
 5603SOL    HW322145   3.932   3.043   1.399 -1.0149 -0.2821 -1.1387
 5603SOL    MW422146   3.944   3.120   1.360 -0.2367 -0.0479 -0.7614
 5604SOL     OW22147   5.637   0.410   4.919  0.1198 -0.3369 -0.4236
 5604SOL    HW222148   5.678   0.335   4.963  1.8219  0.4914 -0.5172
 5604SOL    HW322149   5.581   0.449   4.986  0.3468 -0.8411  0.0717
 5604SOL    MW422150   5.635   0.405   4.933 -0.4162 -0.0418  0.7715
 5605SOL     OW22151   4.648   4.543   2.374 -0.4122 -0.7435  0.4481
 5605SOL    HW222152   4.648   4.564   2.281 -2.9639 -0.9918  0.3175
 5605SOL    HW322153   4.586   4.471   2.383  0.8478 -1.6927  2.1765
 5605SOL    MW422154   4.640   4.537   2.363 -0.1393  0.2798 -0.2517
 5606SOL     OW22155   4.227   4.457   3.729  0.6172 -0.6154 -0.1018
 5606SOL    HW222156   4.226   4.524   3.661 -0.3533 -0.2479  0.2532
 5606SOL    HW322157   4.252   4.377   3.683  1.5036 -0.0809 -0.5852
 5606SOL    MW422158   4.230   4.455   3.714  0.1394 -0.0495 -0.2053
 5607SOL     OW22159   4.939   2.605   0.756  0.0956  0.0243  0.1055
 5607SOL    HW222160   4.985   2.589   0.838 -0.9688 -1.3148  0.4666
 5607SOL    HW322161   4.850   2.574   0.771 -0.1892 -0.0327 -1.4815
 5607SOL    MW422162   4.933   2.599   0.769  0.1477  0.7005  0.7703
 5608SOL     OW22163   0.390   0.508   2.055 -0.9039 -0.1508 -0.2258
 5608SOL    HW222164   0.445   0.430   2.046 -0.8612 -0.0578 -0.7870
 5608SOL    HW322165   0.422   0.568   1.987 -2.8099 -0.7440 -1.7431
 5608SOL    MW422166   0.401   0.506   2.045  0.6188 -0.2018 -0.0568
 5609SOL     OW22167   2.590   3.267   1.084 -0.4360  0.3668 -0.2297
 5609SOL    HW222168   2.597   3.258   0.989 -1.8577 -1.1897 -0.2359
 5609SOL    HW322169   2.676   3.296   1.112  0.1428  0.4018 -1.9478
 5609SOL    MW422170   2.602   3.269   1.075  0.0298 -0.3279 -0.5003
 5610SOL     OW22171   0.468   2.418   1.061 -0.5887  0.3152  0.6181
 5610SOL    HW222172   0.375   2.397   1.070  0.1008 -3.4122  0.6558
 5610SOL    HW322173   0.508   2.384   1.141  1.1463 -1.3717 -0.8388
 5610SOL    MW422174   0.461   2.410   1.073 -0.2468  0.5814 -0.1225
 5611SOL     OW22175   2.469   4.432   3.533 -0.7647  0.4799 -0.3218
 5611SOL    HW222176   2.407   4.479   3.477  0.3465  2.2584 -0.1502
 5611SOL    HW322177   2.544   4.413   3.476 -0.6817  0.0429 -0.0711
 5611SOL    MW422178   2.471   4.436   3.518  0.1864 -0.2260 -0.1804
 5612SOL     OW22179   4.308   0.892   0.466 -0.5457 -0.9066 -0.1167
 5612SOL    HW222180   4.238   0.957   0.467 -1.1871 -1.5178 -1.6958
 5612SOL    HW322181   4.344   0.897   0.377 -0.0972 -2.1665 -0.0212
 5612SOL    MW422182   4.304   0.901   0.454 -0.5596 -0.0772 -0.1569
 5613SOL     OW22183   4.286   1.836   0.702 -0.3716 -0.1914  0.2638
 5613SOL    HW222184   4.256   1.904   0.763 -1.8462 -1.1767  0.7092
 5613SOL    HW322185   4.206   1.809   0.657  0.0437 -2.1415  0.6352
 5613SOL    MW422186   4.271   1.842   0.704 -0.1265  1.3481 -0.3495
 5614SOL     OW22187   1.774   1.685   0.668  0.5231  0.2667 -0.1015
 5614SOL    HW222188   1.817   1.685   0.583 -0.7899 -0.2948 -0.8052
 5614SOL    HW322189   1.766   1.592   0.691 -3.0187  0.0439 -1.5064
 5614SOL    MW422190   1.778   1.673   0.660  0.2137 -0.1748 -0.8984
 5615SOL     OW22191   5.545   5.328   3.867  0.2851  0.1107 -0.8883
 5615SOL    HW222192   5.586   5.267   3.806  0.0868  0.5127 -1.4408
 5615SOL    HW322193   5.474   5.278   3.908  0.9074 -0.3900 -0.4137
 5615SOL    MW422194   5.541   5.314   3.864  0.2423 -0.1547 -0.5517
 5616SOL     OW22195   2.884   0.760   3.316 -0.0030 -0.0588  0.2170
 5616SOL    HW222196   2.977   0.759   3.293 -0.1108 -2.1139 -0.2819
 5616SOL    HW322197   2.847   0.683   3.273 -1.7839  0.2412  1.1049
 5616SOL    MW422198   2.891   0.750   3.307 -0.2845  0.1558  0.1978
 5617SOL     OW22199   1.718   3.540   1.245 -0.5783 -0.3611 -0.4117
 5617SOL    HW222200   1.638   3.552   1.194 -0.2515 -0.2693 -0.9152
 5617SOL    HW322201   1.689   3.533   1.336 -1.0282  1.5444 -0.3731
 5617SOL    MW422202   1.704   3.541   1.251  0.0619  0.5011 -0.0156
 5618SOL     OW22203   5.870   1.546   1.098 -0.0534  0.0420  0.2974
 5618SOL    HW222204   5.965   1.541   1.101 -0.1100 -1.4851  0.4753
 5618SOL    HW322205   5.842   1.527   1.188 -0.5358 -0.3768  0.0649
 5618SOL    MW422206   5.878   1.543   1.110 -0.2380 -0.1031  0.3580
 5619SOL     OW22207   2.689   2.634   6.043  0.3000 -0.0407  0.4355
 5619SOL    HW222208   2.600   2.600   6.049  0.8962 -1.4999  1.8064
 5619SOL    HW322209   2.688   2.714   6.096 -0.2462  0.0684  0.2614
 5619SOL    MW422210   2.677   2.640   6.051  0.2310 -0.3171 -0.4520
 5620SOL     OW22211   0.752   4.284   4.804  0.2058 -0.2119  0.4177
 5620SOL    HW222212   0.681   4.331   4.760 -0.1545 -1.0991  0.0221
 5620SOL    HW322213   0.747   4.313   4.895 -0.3202  0.1463  0.2801
 5620SOL    MW422214   0.742   4.294   4.811  0.0053 -0.0097 -0.5111
 5621SOL     OW22215   6.354   5.966   1.362  0.3131 -0.3782 -0.1162
 5621SOL    HW222216   6.390   5.908   1.428  2.5238  0.6493 -0.3372
 5621SOL    HW322217   6.282   6.012   1.406 -0.0152 -1.6499  0.7114
 5621SOL    MW422218   6.349   5.965   1.376  0.0954  0.3998  0.0489
 5622SOL     OW22219   0.290   4.505   1.042 -0.3378 -0.6180  0.8340
 5622SOL    HW222220   0.370   4.555   1.054 -0.3687 -0.8655  2.3147
 5622SOL    HW322221   0.278   4.500   0.947  1.6343 -0.9810  0.5764
 5622SOL    MW422222   0.299   4.511   1.031 -0.2517 -0.3110  0.0822
 5623SOL     OW22223   6.391   5.127   2.609  0.1139  0.1775  0.2432
 5623SOL    HW222224   6.480   5.143   2.641  1.0130 -1.1777 -1.4258
 5623SOL    HW322225   6.383   5.183   2.533 -0.4420  0.2406  0.3495
 5623SOL    MW422226   6.402   5.136   2.603  0.1870 -0.4593 -0.3768
 5624SOL     OW22227   5.746   4.855   5.331  0.1042 -0.2764  0.4666
 5624SOL    HW222228   5.837   4.838   5.354  0.8643  2.2963 -0.2892
 5624SOL    HW322229   5.745   4.946   5.301 -2.6229 -0.3919 -0.0994
 5624SOL    MW422230   5.758   4.865   5.330  0.1476 -0.0702  0.1317
 5625SOL     OW22231   3.686   0.909   1.539 -0.6227  0.3453 -0.3286
 5625SOL    HW222232   3.681   0.949   1.452  1.5170  0.5451 -0.4072
 5625SOL    HW322233   3.671   0.982   1.599  1.7389  1.0589 -0.5056
 5625SOL    MW422234   3.683   0.924   1.535  0.1666 -0.0954 -0.0764
 5626SOL     OW22235   6.288   0.999   0.503  0.1257  0.6862 -0.4076
 5626SOL    HW222236   6.286   0.905   0.522  0.7579  1.1185  2.1972
 5626SOL    HW322237   6.196   1.021   0.486 -0.3241 -0.1026  0.8347
 5626SOL    MW422238   6.275   0.990   0.504 -0.1710  0.3125  0.5898
 5627SOL     OW22239   3.084   2.464   3.532  0.1535 -0.4596 -0.2958
 5627SOL    HW222240   3.024   2.518   3.480  0.2420  2.9475  2.7279
 5627SOL    HW322241   3.031   2.433   3.606  1.6280  1.4550  1.6868
 5627SOL    MW422242   3.069   2.467   3.535 -0.0844 -0.1258  0.1428
 5628SOL     OW22243   2.610   0.403   6.175 -0.2280 -0.3708 -0.4182
 5628SOL    HW222244   2.627   0.497   6.171  0.2703 -0.4281  0.2333
 5628SOL    HW322245   2.542   0.388   6.109 -1.8340  0.7709  0.9132
 5628SOL    MW422246   2.603   0.414   6.166  0.5173 -0.5153  0.7709
 5629SOL     OW22247   1.093   0.444   1.925  0.1787  0.0745 -0.3712
 5629SOL    HW222248   1.174   0.403   1.956  0.1931  1.0389  0.9231
 5629SOL    HW322249   1.025   0.410   1.983 -0.3100 -0.4592 -1.2315
 5629SOL    MW422250   1.095   0.434   1.937  0.0624 -0.4592 -0.4087
 5630SOL     OW22251   5.828   3.765   6.192 -0.6074  0.5655 -0.5466
 5630SOL    HW222252   5.805   3.690   6.246 -1.1880 -0.4760 -2.1560
 5630SOL    HW322253   5.856   3.832   6.254 -0.2171 -0.9172  0.9527
 5630SOL    MW422254   5.829   3.764   6.207 -0.1363  0.0188 -0.3207
 5631SOL     OW22255   4.281   2.618   0.523 -0.1934 -0.4939  0.1050
 5631SOL    HW222256   4.190   2.588   0.527  0.2679 -1.9948 -0.1087
 5631SOL    HW322257   4.331   2.540   0.501  1.2225  0.2033  0.7317
 5631SOL    MW422258   4.276   2.604   0.521  0.0928  0.0262  0.2067
 5632SOL     OW22259   1.487   0.416   5.714 -0.5680  0.0501  0.5074
 5632SOL    HW222260   1.414   0.456   5.667 -0.2530 -1.7913 -1.7717
 5632SOL    HW322261   1.448   0.345   5.764 -0.4277 -0.6260 -0.3250
 5632SOL    MW422262   1.473   0.412   5.714 -0.4846  0.0778 -0.0590
 5633SOL     OW22263   0.804   4.706   4.207 -0.1067 -0.1349 -0.0404
 5633SOL    HW222264   0.751   4.767   4.156 -0.0698 -0.9465 -1.0651
 5633SOL    HW322265   0.892   4.712   4.169  0.6477  1.3219  1.7429
 5633SOL    MW422266   0.809   4.715   4.195 -0.2048  0.1663 -0.4285
 5634SOL     OW22267   1.443   4.867   1.864 -0.2442  0.5757  0.0058
 5634SOL    HW222268   1.447   4.856   1.769 -1.6714  1.9484 -0.2498
 5634SOL    HW322269   1.512   4.930   1.884  0.2472  0.0699 -0.0637
 5634SOL    MW422270   1.453   4.874   1.854  0.5259  0.3134  0.2089
 5635SOL     OW22271   4.864   4.411   3.437 -0.0483 -0.3068 -0.0739
 5635SOL    HW222272   4.797   4.350   3.408 -0.0426 -0.8355  0.9717
 5635SOL    HW322273   4.947   4.368   3.415 -0.0376 -0.9176  1.0787
 5635SOL    MW422274   4.866   4.398   3.431 -0.2887  0.3452 -0.0369
 5636SOL     OW22275   1.494   0.291   0.278  0.2305 -0.2718 -0.4762
 5636SOL    HW222276   1.449   0.364   0.320  1.6228  0.5535 -0.3876
 5636SOL    HW322277   1.587   0.308   0.291  0.6264 -1.3359 -1.6644
 5636SOL    MW422278   1.500   0.303   0.285 -0.5180  0.3266 -1.0473
 5637SOL     OW22279   4.652   1.401   4.745  0.2464  0.2260  0.6468
 5637SOL    HW222280   4.659   1.444   4.660  0.7152 -2.0100 -0.5224
 5637SOL    HW322281   4.559   1.383   4.756  0.3120 -0.5530  0.0059
 5637SOL    MW422282   4.641   1.404   4.736 -0.2015  0.3045  0.0145
 5638SOL     OW22283   5.381   1.114   5.886  0.0563  0.1910 -0.4605
 5638SOL    HW222284   5.360   1.106   5.793 -0.9535  0.4246 -0.2642
 5638SOL    HW322285   5.451   1.179   5.889 -0.7595  1.1267 -0.9689
 5638SOL    MW422286   5.388   1.122   5.874 -0.1827 -0.3585  0.3848
 5639SOL     OW22287   4.611   2.837   4.968  0.6683  1.0290  0.0713
 5639SOL    HW222288   4.699   2.801   4.959  1.5480  2.7076  1.4723
 5639SOL    HW322289   4.563   2.771   5.017  0.7387 -0.4481 -1.7310
 5639SOL    MW422290   4.616   2.824   4.973  0.4716  0.0105  0.1643
 5640SOL     OW22291   0.044   6.322   5.411  0.9485  0.0418  0.6964
 5640SOL    HW222292   0.059   6.251   5.474 -0.7464 -0.9067  0.1005
 5640SOL    HW322293   0.127   6.369   5.408  1.1922 -0.0543  3.3970
 5640SOL    MW422294   0.057   6.319   5.419  0.3291  0.9868  0.2268
 5641SOL     OW22295   5.739   0.999   4.197 -0.2040  0.5117 -0.3020
 5641SOL    HW222296   5.818   0.949   4.218 -0.5846  0.0203 -0.0429
 5641SOL    HW322297   5.666   0.941   4.220 -0.6422  0.8965 -0.7041
 5641SOL    MW422298   5.740   0.985   4.203  1.0636  0.3632  0.1212
 5642SOL     OW22299   3.951   1.442   6.069  0.2470 -0.4417 -0.3083
 5642SOL    HW222300   4.026   1.400   6.111 -0.2548  0.3997  1.5010
 5642SOL    HW322301   3.878   1.382   6.084  0.0766 -0.1614 -0.0056
 5642SOL    MW422302   3.951   1.428   6.076 -0.2786 -0.1195 -0.9285
 5643SOL     OW22303   5.522   6.297   2.288  0.2391 -0.2709 -0.7942
 5643SOL    HW222304   5.575   6.233   2.241  0.2810  0.7025 -2.1270
 5643SOL    HW322305   5.529   6.377   2.236 -1.0259  0.3992  0.0147
 5643SOL    MW422306   5.529   6.299   2.275 -0.3567  0.1960  0.1692
 5644SOL     OW22307   2.426   0.399   3.857 -0.3836  0.2030 -0.1248
 5644SOL    HW222308   2.485   0.334   3.895 -0.5343 -0.0210 -0.2751
 5644SOL    HW322309   2.484   0.468   3.826 -0.1933 -0.0661 -0.3679
 5644SOL    MW422310   2.442   0.400   3.858 -0.2795  0.2524 -0.1112
 5645SOL     OW22311   1.752   4.877   4.084 -0.1949 -0.3345  0.7048
 5645SOL    HW222312   1.694   4.809   4.048  1.7562 -2.1795  0.8517
 5645SOL    HW322313   1.700   4.957   4.080 -2.2253 -1.6193 -0.4945
 5645SOL    MW422314   1.737   4.878   4.079 -0.0960  0.4023 -0.1847
 5646SOL     OW22315   3.961   5.642   5.260 -1.1225  0.4809 -0.3314
 5646SOL    HW222316   4.012   5.723   5.249  0.1247  0.0896  2.0619
 5646SOL    HW322317   4.020   5.572   5.231 -0.8334  0.1528  1.0012
 5646SOL    MW422318   3.976   5.644   5.254 -1.0092  0.4624 -0.0806
 5647SOL     OW22319   1.597   2.306   3.748  0.5894  0.0765  0.0578
 5647SOL    HW222320   1.508   2.279   3.727  0.5344  0.7318 -0.6138
 5647SOL    HW322321   1.651   2.230   3.729  0.4267  0.3440 -1.6459
 5647SOL    MW422322   1.592   2.293   3.743 -0.2282 -0.5114 -0.0073
 5648SOL     OW22323   5.171   2.358   6.068  0.1348  0.5314 -0.3958
 5648SOL    HW222324   5.231   2.428   6.042  0.7894  0.0984 -0.1077
 5648SOL    HW322325   5.174   2.296   5.995  0.9801 -0.0629  0.1124
 5648SOL    MW422326   5.179   2.359   6.055 -0.1474 -0.2112 -0.4575
 5649SOL     OW22327   0.538   3.849   1.018  0.4353  0.3405  0.8968
 5649SOL    HW222328   0.528   3.941   1.044 -1.3984 -0.2348  2.4806
 5649SOL    HW322329   0.559   3.803   1.099 -1.0767 -0.9442  0.6115
 5649SOL    MW422330   0.540   3.855   1.032  0.1911 -0.1644  0.0466
 5650SOL     OW22331   2.830   3.371   4.228 -0.6240  0.3405  0.3735
 5650SOL    HW222332   2.765   3.307   4.198  0.0392 -0.4742  0.6238
 5650SOL    HW322333   2.807   3.388   4.319 -2.5487  2.7029 -0.4475
 5650SOL    MW422334   2.818   3.365   4.236  0.0687 -0.1310  0.3494
 5651SOL     OW22335   1.896   1.094   5.853  0.2429 -0.1278  0.5916
 5651SOL    HW222336   1.810   1.054   5.839 -0.0545  0.7901 -0.3808
 5651SOL    HW322337   1.955   1.042   5.798 -0.2400  1.0543 -1.1140
 5651SOL    MW422338   1.892   1.082   5.844  0.0037  0.0640  0.9459
 5652SOL     OW22339   3.848   2.536   5.880 -0.1494  0.1130  0.2921
 5652SOL    HW222340   3.756   2.538   5.853 -0.3259  1.1320  0.8961
 5652SOL    HW322341   3.896   2.572   5.805 -0.2179 -0.5733 -0.0858
 5652SOL    MW422342   3.842   2.541   5.866 -0.5111  0.2882  0.6914
 5653SOL     OW22343   3.802   1.127   4.795 -0.4238 -0.4000  0.4695
 5653SOL    HW222344   3.897   1.127   4.809 -0.4565 -2.2384  0.9370
 5653SOL    HW322345   3.766   1.172   4.872 -0.0277 -1.3095  1.1938
 5653SOL    MW422346   3.810   1.133   4.807 -0.8988  0.2218  0.3469
 5654SOL     OW22347   4.303   4.802   6.387  0.0536 -0.3928 -0.2459
 5654SOL    HW222348   4.213   4.794   6.418  0.6522 -0.1169  1.6747
 5654SOL    HW322349   4.334   4.712   6.380 -0.2016 -0.4704 -0.3872
 5654SOL    MW422350   4.295   4.789   6.390  0.0916 -0.1788 -0.5205
 5655SOL     OW22351   4.185   2.725   1.342 -0.1112  0.9268 -1.5790
 5655SOL    HW222352   4.168   2.707   1.434  0.1418 -0.8573 -1.8405
 5655SOL    HW322353   4.099   2.720   1.300  0.0449 -0.6278 -1.7699
 5655SOL    MW422354   4.171   2.722   1.348  0.4208 -0.9512 -0.1639
 5656SOL     OW22355   0.933   2.060   6.273 -0.2706 -0.0698  0.4520
 5656SOL    HW222356   0.909   2.152   6.278  0.6659  0.2066  0.0413
 5656SOL    HW322357   0.849   2.013   6.275 -0.7245  0.7591  1.1374
 5656SOL    MW422358   0.918   2.066   6.274  0.4202  0.0341 -0.2021
 5657SOL     OW22359   0.830   6.327   3.375 -0.2829  0.4418  0.4455
 5657SOL    HW222360   0.782   6.361   3.300 -0.4684  0.6399  0.6552
 5657SOL    HW322361   0.900   6.274   3.336 -0.8791 -0.1458  0.1453
 5657SOL    MW422362   0.833   6.325   3.360 -0.1913 -0.6086  0.7472
 5658SOL     OW22363   4.429   6.027   3.785 -0.3682 -0.1117  0.3915
 5658SOL    HW222364   4.420   6.088   3.713  0.8789  1.4346  1.4740
 5658SOL    HW322365   4.497   5.965   3.756  1.6247  1.7019  0.9313
 5658SOL    MW422366   4.437   6.027   3.772 -0.3760  0.4210  0.4708
 5659SOL     OW22367   5.586   0.981   5.365  0.3287  0.6818  0.4130
 5659SOL    HW222368   5.502   1.011   5.331  0.5437  0.5724 -0.2481
 5659SOL    HW322369   5.565   0.934   5.445 -0.4262 -0.7511 -0.5772
 5659SOL    MW422370   5.572   0.978   5.371 -0.2439 -0.3042 -0.1114
 5660SOL     OW22371   4.961   3.190   0.996 -0.3207  0.7583 -0.2536
 5660SOL    HW222372   4.888   3.201   0.935 -1.1583  1.0496  0.7666
 5660SOL    HW322373   4.931   3.124   1.058  0.5116  0.4680 -0.1522
 5660SOL    MW422374   4.947   3.183   0.996 -0.1172 -0.1457  0.1134
 5661SOL     OW22375   0.924   0.189   1.176 -0.1569 -0.5400  0.2828
 5661SOL    HW222376   0.983   0.118   1.200  2.0384  0.7762 -0.8427
 5661SOL    HW322377   0.903   0.232   1.258  0.2061 -1.2240  0.7388
 5661SOL    MW422378   0.929   0.186   1.190  0.3459 -0.2306 -0.3569
 5662SOL     OW22379   2.260   2.390   1.733 -0.3121  0.3701 -0.2482
 5662SOL    HW222380   2.180   2.346   1.705  0.7521 -1.7790 -0.1143
 5662SOL    HW322381   2.303   2.417   1.652 -0.1380 -0.4389 -0.4328
 5662SOL    MW422382   2.255   2.388   1.719  0.0654 -0.1846 -0.7031
 5663SOL     OW22383   3.514   1.284   4.549 -0.1149 -0.0465  0.0137
 5663SOL    HW222384   3.602   1.246   4.548  0.4961  1.1420  1.9436
 5663SOL    HW322385   3.476   1.253   4.631 -0.9678  0.5596 -0.1410
 5663SOL    MW422386   3.521   1.275   4.560  0.2489  0.2792 -0.4646
 5664SOL     OW22387   3.052   0.760   6.402  0.3222  0.2349 -0.1609
 5664SOL    HW222388   2.996   0.683   6.389  1.5381 -1.1745  2.3210
 5664SOL    HW322389   3.125   0.746   6.342  0.0499  0.0042 -0.4466
 5664SOL    MW422390   3.054   0.748   6.392  0.6510 -0.1689  0.4021
 5665SOL     OW22391   2.028   2.367   0.499 -0.1122  0.4586 -0.5076
 5665SOL    HW222392   2.070   2.361   0.413  0.6995  1.8128 -0.2313
 5665SOL    HW322393   1.998   2.458   0.504  0.8882  0.7358  1.0859
 5665SOL    MW422394   2.030   2.378   0.488 -0.3055  0.0631 -0.1230
 5666SOL     OW22395   4.717   3.485   5.127  0.3317  0.2381  0.0341
 5666SOL    HW222396   4.748   3.567   5.164 -0.5587  0.6313 -0.0693
 5666SOL    HW322397   4.770   3.472   5.048  1.8511 -0.3212  1.0910
 5666SOL    MW422398   4.728   3.494   5.122  0.1215 -0.1288 -0.0516
 5667SOL     OW22399   5.936   4.176   2.140 -0.1458  0.0945  0.1406
 5667SOL    HW222400   5.990   4.203   2.215  1.3249 -1.3884 -0.3156
 5667SOL    HW322401   5.931   4.254   2.085 -0.4716  0.9442  1.3305
 5667SOL    MW422402   5.943   4.190   2.143  0.4923 -0.3822  0.4511
 5668SOL     OW22403   5.244   6.334   6.176 -0.7865  0.3554  0.0425
 5668SOL    HW222404   5.259   6.413   6.228  2.7110  0.2061 -0.4855
 5668SOL    HW322405   5.206   6.365   6.094  0.7826  1.6173 -0.2572
 5668SOL    MW422406   5.241   6.348   6.172 -0.1877 -0.4115  0.2863
 5669SOL     OW22407   4.415   2.898   4.376  0.2933  0.1060  0.4326
 5669SOL    HW222408   4.432   2.958   4.448 -1.5921 -0.3629  1.3155
 5669SOL    HW322409   4.321   2.882   4.379  0.4525 -1.3587 -0.9952
 5669SOL    MW422410   4.405   2.904   4.386 -0.1811 -0.0566  0.1331
 5670SOL     OW22411   2.856   6.394   4.961 -0.1445 -0.0643  0.5016
 5670SOL    HW222412   2.948   6.369   4.953  0.2988  1.2404  1.2095
 5670SOL    HW322413   2.842   6.401   5.056 -0.0816  2.7701  0.3670
 5670SOL    MW422414   2.866   6.392   4.973 -0.0022  0.3271  0.2091
 5671SOL     OW22415   2.123   6.432   5.823  0.3936 -0.0444  0.1827
 5671SOL    HW222416   2.105   6.351   5.870 -1.8670  0.1802 -0.2048
 5671SOL    HW322417   2.096   6.502   5.882 -0.3487  0.3068 -0.5414
 5671SOL    MW422418   2.117   6.430   5.837  0.6861  0.4727 -0.2239
 5672SOL     OW22419   4.475   4.334   5.923 -1.0180  0.1812 -0.3603
 5672SOL    HW222420   4.488   4.428   5.933 -1.8228  0.2678 -0.0264
 5672SOL    HW322421   4.489   4.298   6.011 -1.4844  0.0896 -0.3220
 5672SOL    MW422422   4.479   4.342   5.936 -0.5109 -0.2068 -0.2230
 5673SOL     OW22423   2.953   0.769   6.016  0.0286 -0.5833 -0.3123
 5673SOL    HW222424   3.029   0.715   6.036  0.7856  0.4774 -0.1983
 5673SOL    HW322425   2.990   0.856   6.000 -1.1156 -0.1703 -0.7960
 5673SOL    MW422426   2.968   0.774   6.017  0.1427 -0.4871 -0.2636
 5674SOL     OW22427   5.634   2.685   1.916 -0.2874 -0.0017 -0.1814
 5674SOL    HW222428   5.728   2.666   1.924  0.2173  0.9652 -2.8473
 5674SOL    HW322429   5.609   2.714   2.004  2.6659  2.6996 -0.0197
 5674SOL    MW422430   5.643   2.686   1.929 -0.0496 -0.4743  0.8570
 5675SOL     OW22431   4.888   2.314   4.876  0.1439 -0.5032 -0.1176
 5675SOL    HW222432   4.871   2.349   4.964  1.5797 -0.6791  0.2565
 5675SOL    HW322433   4.981   2.330   4.861  0.1522 -1.3971 -1.1957
 5675SOL    MW422434   4.898   2.320   4.886  0.0819 -0.2808 -0.0603
 5676SOL     OW22435   4.954   1.574   0.816 -0.4178 -0.2868 -0.4785
 5676SOL    HW222436   4.898   1.500   0.793 -0.1152 -0.7574  0.2492
 5676SOL    HW322437   4.912   1.649   0.774 -1.3135 -0.7043 -0.3678
 5676SOL    MW422438   4.941   1.574   0.807  0.1188 -0.3597 -0.3297
 5677SOL     OW22439   0.051   2.404   6.292 -0.1057 -0.2948 -0.1534
 5677SOL    HW222440   0.084   2.488   6.259  1.5883 -1.3336 -1.2691
 5677SOL    HW322441  -0.028   2.426   6.341  0.0550  1.8888 -0.8029
 5677SOL    MW422442   0.045   2.418   6.295  0.1453  0.1262  0.6165
 5678SOL     OW22443   0.659   2.852   2.725  0.2409  0.2282  0.0035
 5678SOL    HW222444   0.734   2.820   2.675  0.8430  0.3323  0.8076
 5678SOL    HW322445   0.697   2.918   2.784 -0.2043 -0.8471  1.5313
 5678SOL    MW422446   0.674   2.857   2.726  0.3581 -0.1858  0.7662
 5679SOL     OW22447   4.187   0.644   6.327  0.2279 -0.1493 -0.2509
 5679SOL    HW222448   4.257   0.613   6.269  0.2011  1.7009 -1.3585
 5679SOL    HW322449   4.181   0.738   6.309 -1.5473  0.0051  0.9082
 5679SOL    MW422450   4.195   0.652   6.317 -0.4069  0.2482  0.1869
 5680SOL     OW22451   2.103   1.773   1.161 -0.3264  0.4525 -0.3966
 5680SOL    HW222452   2.045   1.724   1.102  0.8342  0.5916 -1.6996
 5680SOL    HW322453   2.115   1.857   1.117  3.5429 -0.7251 -2.0123
 5680SOL    MW422454   2.097   1.777   1.147 -0.1065  0.3579  0.1262
 5681SOL     OW22455   4.508   3.611   3.769  0.4807  0.3050  0.1524
 5681SOL    HW222456   4.567   3.645   3.835  3.1526 -0.0127 -1.8964
 5681SOL    HW322457   4.504   3.680   3.703  0.3155 -0.5532 -0.7621
 5681SOL    MW422458   4.515   3.625   3.769  0.1172  0.3449 -0.4738
 5682SOL     OW22459   1.821   2.462   6.192  0.0668  0.5740 -0.1581
 5682SOL    HW222460   1.899   2.408   6.177 -0.0453  0.4013 -0.1317
 5682SOL    HW322461   1.809   2.460   6.287 -0.1707  0.3107 -0.1911
 5682SOL    MW422462   1.830   2.454   6.203 -0.5567  0.3898 -0.5342
 5683SOL     OW22463   4.944   2.476   5.185 -0.1994  0.1868 -0.0739
 5683SOL    HW222464   4.995   2.396   5.174  1.8148  1.5024 -0.8617
 5683SOL    HW322465   4.978   2.516   5.264 -0.9189  0.4910  0.0944
 5683SOL    MW422466   4.955   2.470   5.194  0.5419  0.4694  0.0361
 5684SOL     OW22467   1.529   2.673   4.042 -0.4347 -0.2494  0.1817
 5684SOL    HW222468   1.569   2.610   3.983 -0.6213  0.7443 -1.0283
 5684SOL    HW322469   1.437   2.677   4.014 -0.4972  0.3265  0.4611
 5684SOL    MW422470   1.522   2.665   4.031 -0.3263 -0.1744 -0.2857
 5685SOL     OW22471   1.863   3.119   0.084 -0.1677 -0.3458 -0.3597
 5685SOL    HW222472   1.787   3.175   0.100 -0.0850 -0.5103  0.7002
 5685SOL    HW322473   1.933   3.180   0.060  0.1430  0.1333  1.5841
 5685SOL    MW422474   1.863   3.135   0.083 -0.1406 -0.2575 -0.2058
 5686SOL     OW22475   3.080   0.704   2.584  0.0255 -0.1600 -0.7535
 5686SOL    HW222476   3.032   0.622   2.577 -1.1055  0.3734  0.2893
 5686SOL    HW322477   3.095   0.715   2.678  0.7512  0.4996 -0.9371
 5686SOL    MW422478   3.076   0.695   2.595 -0.0999 -0.0866 -0.4331
 5687SOL     OW22479   2.069   5.748   0.420  0.6496 -0.3743 -0.0054
 5687SOL    HW222480   1.988   5.765   0.469  1.3173 -0.3525  1.1298
 5687SOL    HW322481   2.059   5.658   0.388 -0.5118  0.1747 -1.2952
 5687SOL    MW422482   2.057   5.739   0.422  0.2139  0.2394  0.1691
 5688SOL     OW22483   1.983   0.291   2.586  0.0872 -0.1168 -0.6259
 5688SOL    HW222484   1.898   0.317   2.621  0.5444  0.6854 -0.0967
 5688SOL    HW322485   2.032   0.372   2.578  1.3863 -0.7287  0.6389
 5688SOL    MW422486   1.978   0.305   2.589 -0.0150  0.3164  0.2637
 5689SOL     OW22487   4.814   2.790   3.207 -0.5340  0.6889  0.0935
 5689SOL    HW222488   4.907   2.804   3.187 -0.8180  1.2196 -0.9434
 5689SOL    HW322489   4.784   2.730   3.138 -0.2542 -2.0564  2.2183
 5689SOL    MW422490   4.823   2.784   3.195  0.3192  0.0954 -0.5375
 5690SOL     OW22491   4.075   1.374   1.249 -0.5671 -0.3284  0.3512
 5690SOL    HW222492   4.084   1.418   1.333 -1.4015 -4.7895  3.1128
 5690SOL    HW322493   3.981   1.378   1.230 -0.4322  0.3399 -0.2142
 5690SOL    MW422494   4.063   1.380   1.257  0.6316  0.2033  0.3836
 5691SOL     OW22495   3.493   5.471   0.948  0.1598  0.1436  0.3183
 5691SOL    HW222496   3.535   5.406   1.004  2.0664  1.1032  0.0805
 5691SOL    HW322497   3.491   5.551   1.001  0.1119  0.5198 -0.2411
 5691SOL    MW422498   3.499   5.473   0.962  0.0349 -0.3011  0.8945
 5692SOL     OW22499   4.296   4.276   3.547 -0.4686 -0.2003 -0.1797
 5692SOL    HW222500   4.372   4.316   3.506  0.8467 -1.7695  0.6178
 5692SOL    HW322501   4.332   4.207   3.603 -2.4535 -0.7652  0.4952
 5692SOL    MW422502   4.311   4.272   3.549 -0.0391 -0.6351 -0.6805
 5693SOL     OW22503   4.420   5.254   1.561 -0.0067 -0.0048  0.2270
 5693SOL    HW222504   4.332   5.286   1.582 -0.5743 -0.4802 -1.2919
 5693SOL    HW322505   4.405   5.172   1.513  1.2867 -0.2699  0.2319
 5693SOL    MW422506   4.406   5.247   1.558  0.1284 -0.9049  0.0451
 5694SOL     OW22507   2.369   5.496   0.196 -0.4944  0.7977  0.0332
 5694SOL    HW222508   2.450   5.543   0.218  0.1026 -1.0601  2.1644
 5694SOL    HW322509   2.385   5.461   0.108  1.0516  0.4971  0.4014
 5694SOL    MW422510   2.382   5.497   0.187 -0.4273 -0.6904  0.0074
 5695SOL     OW22511   5.232   3.758   2.350  0.0613 -0.2540 -1.1878
 5695SOL    HW222512   5.234   3.851   2.374 -1.3250 -0.4515 -0.2009
 5695SOL    HW322513   5.291   3.717   2.414 -1.0137 -0.3190 -0.1991
 5695SOL    MW422514   5.240   3.765   2.362 -0.1029 -0.2546 -0.4868
 5696SOL     OW22515   0.697   5.872   1.148 -0.2420  0.2108  0.2139
 5696SOL    HW222516   0.743   5.788   1.158  0.6051  0.9184  2.9688
 5696SOL    HW322517   0.735   5.910   1.068  1.3485 -0.8288  0.4276
 5696SOL    MW422518   0.708   5.866   1.139 -0.3953  0.7796  0.0127
 5697SOL     OW22519   0.291   6.001   1.945 -0.0794  0.0904 -0.0107
 5697SOL    HW222520   0.224   6.017   2.011 -0.4208  0.8478 -0.5215
 5697SOL    HW322521   0.344   6.080   1.945 -0.0027  0.0409 -0.5473
 5697SOL    MW422522   0.289   6.013   1.954  0.2833  0.2899 -0.5114
 5698SOL     OW22523   4.259   1.710   3.521 -0.0405  0.2703  0.2543
 5698SOL    HW222524   4.238   1.769   3.594 -1.4837 -0.0485  0.1270
 5698SOL    HW322525   4.174   1.693   3.479  0.5328 -0.8848 -0.4754
 5698SOL    MW422526   4.245   1.715   3.525  0.1098 -0.2815  0.2484
 5699SOL     OW22527   1.914   4.298   3.717  0.1541 -0.5449  0.2651
 5699SOL    HW222528   1.986   4.256   3.670 -0.8804 -2.1774  0.0633
 5699SOL    HW322529   1.905   4.383   3.674  1.3548 -0.6757 -0.3093
 5699SOL    MW422530   1.922   4.304   3.705  0.4089  0.2074 -0.0596
 5700SOL     OW22531   0.884   1.720   2.826 -0.1223 -0.0079 -0.0965
 5700SOL    HW222532   0.802   1.672   2.815 -0.0924 -0.1519  0.2796
 5700SOL    HW322533   0.949   1.666   2.783 -0.4644  0.8799 -1.8057
 5700SOL    MW422534   0.882   1.707   2.819  0.6023 -0.1173  0.1286
 5701SOL     OW22535   2.872   0.156   0.108 -0.4477 -0.2277  0.5306
 5701SOL    HW222536   2.813   0.140   0.035  0.6553  0.4729 -0.5412
 5701SOL    HW322537   2.818   0.198   0.175 -1.2384  0.0679 -0.2857
 5701SOL    MW422538   2.857   0.159   0.107 -0.4478 -0.5905 -0.0560
 5702SOL     OW22539   1.135   6.362   5.120  0.8862  0.1595 -0.3932
 5702SOL    HW222540   1.198   6.296   5.093  0.1865 -0.3290 -0.8668
 5702SOL    HW322541   1.144   6.367   5.215 -0.0355 -1.6627 -0.1696
 5702SOL    MW422542   1.144   6.354   5.129 -0.8316  0.8191  0.4226
 5703SOL     OW22543   1.717   2.643   1.464  0.2380 -0.1275 -0.7046
 5703SOL    HW222544   1.743   2.571   1.406  0.1374  0.0026 -0.9125
 5703SOL    HW322545   1.679   2.600   1.540 -0.2043 -0.2869 -1.0120
 5703SOL    MW422546   1.716   2.628   1.466 -0.1642  0.2165  0.5957
 5704SOL     OW22547   1.087   1.346   4.066 -0.0245 -0.1178 -0.1074
 5704SOL    HW222548   1.047   1.314   3.985 -0.0327  0.7885 -0.4714
 5704SOL    HW322549   1.181   1.348   4.048  0.3872 -3.1079  1.0457
 5704SOL    MW422550   1.094   1.342   4.053 -0.0498 -0.5133 -0.0723
 5705SOL     OW22551   5.106   0.392   4.705  0.5537 -0.2255  0.0648
 5705SOL    HW222552   5.069   0.479   4.724 -1.1857 -0.8949 -0.1150
 5705SOL    HW322553   5.184   0.388   4.761  0.3132  1.2032  0.5698
 5705SOL    MW422554   5.111   0.403   4.715  0.6890 -0.7355 -0.0547
 5706SOL     OW22555   5.878   4.688   4.105  0.4585  0.0931 -0.3028
 5706SOL    HW222556   5.900   4.596   4.096  3.0017  0.3826  1.7040
 5706SOL    HW322557   5.960   4.735   4.090 -0.1917  1.8231  1.0813
 5706SOL    MW422558   5.892   4.682   4.102 -0.2892  0.5994  0.2181
 5707SOL     OW22559   0.357   1.005   2.097  0.0397  0.1854  0.4498
 5707SOL    HW222560   0.341   1.089   2.054  0.9328  0.9847  1.5839
 5707SOL    HW322561   0.277   0.955   2.083 -0.0132  0.7121 -1.3696
 5707SOL    MW422562   0.344   1.010   2.090  0.2007  0.3877 -0.0237
 5708SOL     OW22563   4.621   2.983   3.183  0.3511 -0.3630  0.2163
 5708SOL    HW222564   4.591   2.989   3.273  0.5582  1.9596  0.2017
 5708SOL    HW322565   4.697   2.926   3.186 -0.2616 -1.1454  1.3208
 5708SOL    MW422566   4.627   2.976   3.195 -0.6882  0.0366  0.4472
 5709SOL     OW22567   1.876   2.141   1.284  0.0370  0.0566 -0.0573
 5709SOL    HW222568   1.842   2.098   1.362 -0.7061  0.5857 -0.0818
 5709SOL    HW322569   1.871   2.073   1.216  0.0368 -0.1957  0.1940
 5709SOL    MW422570   1.871   2.126   1.285  0.5900 -0.3341  0.0591
 5710SOL     OW22571   6.113   1.964   1.668  0.4832 -0.2205 -0.0060
 5710SOL    HW222572   6.173   1.902   1.626 -1.2457 -1.9844 -0.0426
 5710SOL    HW322573   6.064   2.002   1.595  0.6656  0.2435  0.1108
 5710SOL    MW422574   6.114   1.961   1.653 -0.3240 -0.1469 -0.6258
 5711SOL     OW22575   4.925   4.740   0.390 -0.1800 -0.6339  0.3174
 5711SOL    HW222576   4.972   4.726   0.308  0.0943  1.6168  0.0116
 5711SOL    HW322577   4.972   4.812   0.432 -1.2741 -0.6814  1.6964
 5711SOL    MW422578   4.937   4.748   0.385 -0.4428 -0.4561  0.1762
 5712SOL     OW22579   0.564   3.217   0.660 -0.3382 -0.4845  0.2832
 5712SOL    HW222580   0.506   3.280   0.702  0.4082  0.6215 -0.2744
 5712SOL    HW322581   0.537   3.132   0.694 -2.3280 -0.0279 -0.0218
 5712SOL    MW422582   0.553   3.214   0.670  0.1091 -0.1634 -0.1484
 5713SOL     OW22583   2.874   6.061   1.727  0.5403  0.0769  0.8843
 5713SOL    HW222584   2.890   5.967   1.717 -1.2449 -0.1916  0.2089
 5713SOL    HW322585   2.884   6.096   1.639 -1.1177  0.1136  0.6951
 5713SOL    MW422586   2.878   6.053   1.714 -0.3546 -0.4116  0.4753
 5714SOL     OW22587   0.027   4.731   1.438 -0.1664 -0.0350  0.2331
 5714SOL    HW222588  -0.048   4.765   1.390  0.1961 -0.5330 -0.7088
 5714SOL    HW322589   0.021   4.636   1.427 -0.1674 -0.1789  1.3224
 5714SOL    MW422590   0.016   4.723   1.430  0.2169  0.3884  0.3637
 5715SOL     OW22591   6.225   4.533   4.638 -0.1886 -0.6759 -0.4001
 5715SOL    HW222592   6.231   4.629   4.633  0.7933 -0.6903  0.4257
 5715SOL    HW322593   6.184   4.508   4.555  1.3370  0.3082 -1.4915
 5715SOL    MW422594   6.220   4.543   4.626 -0.1002 -0.4873 -0.1735
 5716SOL     OW22595   1.820   1.256   2.335  0.2351 -0.0278  0.1409
 5716SOL    HW222596   1.797   1.235   2.245 -1.0561 -1.4320  0.7714
 5716SOL    HW322597   1.772   1.337   2.353 -0.1237 -0.1611 -0.1906
 5716SOL    MW422598   1.811   1.264   2.326  0.1183 -0.0200  0.0049
 5717SOL     OW22599   3.128   5.748   5.669 -0.5207  0.0671 -0.3050
 5717SOL    HW222600   3.199   5.755   5.605 -0.5088  0.2112 -0.2776
 5717SOL    HW322601   3.067   5.686   5.631 -1.2028  1.1877 -1.1144
 5717SOL    MW422602   3.129   5.741   5.656  0.3758 -0.1256  0.5125
 5718SOL     OW22603   0.076   0.980   4.962 -0.4702  0.6264 -0.4983
 5718SOL    HW222604  -0.008   0.981   5.008 -0.4562  0.0034 -0.4462
 5718SOL    HW322605   0.140   0.963   5.031 -0.0968  2.8018 -0.2564
 5718SOL    MW422606   0.073   0.978   4.977  0.1632 -0.0726 -0.2097
 5719SOL     OW22607   1.195   3.614   4.155 -0.2341  0.2731 -0.1842
 5719SOL    HW222608   1.111   3.568   4.155 -0.1505  0.1199 -0.4133
 5719SOL    HW322609   1.174   3.701   4.189 -0.3379 -0.0290  0.5369
 5719SOL    MW422610   1.181   3.620   4.159  0.5410 -0.0761  0.4444
 5720SOL     OW22611   0.689   1.059   5.270  0.3655 -0.2734  0.1241
 5720SOL    HW222612   0.777   1.060   5.233 -0.2809 -0.4634 -1.5414
 5720SOL    HW322613   0.658   1.149   5.259  1.1330  0.4065  2.8545
 5720SOL    MW422614   0.696   1.071   5.264  0.3966  0.6929  0.1582
 5721SOL     OW22615   2.093   2.421   5.875  0.2218  0.0663  0.2515
 5721SOL    HW222616   2.013   2.417   5.823  0.5894  0.2310 -0.3380
 5721SOL    HW322617   2.163   2.406   5.812  0.6478 -0.2623  0.7949
 5721SOL    MW422618   2.092   2.418   5.860  0.0547 -0.0748  0.3309
 5722SOL     OW22619   0.224   4.432   3.868  0.1038  0.5123  0.4592
 5722SOL    HW222620   0.258   4.514   3.902  0.6390  0.1335  0.8716
 5722SOL    HW322621   0.300   4.390   3.827 -0.3768  0.6451 -0.5954
 5722SOL    MW422622   0.239   4.437   3.867 -0.3500 -0.0492  0.7293
 5723SOL     OW22623   4.826   5.434   5.234  0.0594  0.1398  0.2493
 5723SOL    HW222624   4.844   5.528   5.232 -1.8688  0.5371 -0.3269
 5723SOL    HW322625   4.912   5.394   5.248  0.6184  2.0640  3.5504
 5723SOL    MW422626   4.840   5.441   5.236 -0.4908 -0.2988 -0.4518
 5724SOL     OW22627   3.341   1.451   0.755 -0.0862 -0.1347  0.4720
 5724SOL    HW222628   3.245   1.456   0.758 -0.2483 -2.0246  0.0305
 5724SOL    HW322629   3.359   1.372   0.703  1.6742 -0.9429  2.1821
 5724SOL    MW422630   3.331   1.441   0.748  0.5403  0.5919  0.0704
 5725SOL     OW22631   5.117   4.978   2.021  0.2713 -0.3983  0.5446
 5725SOL    HW222632   5.171   5.051   2.050 -1.9618  0.9882  1.5468
 5725SOL    HW322633   5.047   5.019   1.970 -0.7530 -1.8782  0.6931
 5725SOL    MW422634   5.115   4.993   2.018 -0.5635 -0.0125  0.2545
 5726SOL     OW22635   1.222   0.388   3.417  0.3640  0.5024  0.4383
 5726SOL    HW222636   1.165   0.465   3.416 -0.1772  0.1363  1.3153
 5726SOL    HW322637   1.178   0.326   3.475 -0.6318 -1.6008 -2.3511
 5726SOL    MW422638   1.209   0.390   3.425  0.3118  0.0205 -0.0217
 5727SOL     OW22639   5.640   2.945   4.777 -0.1444  0.2396  0.0340
 5727SOL    HW222640   5.579   2.990   4.719 -0.1065 -0.1751 -0.3317
 5727SOL    HW322641   5.725   2.986   4.761 -0.6253  2.2405  2.0029
 5727SOL    MW422642   5.643   2.956   4.768  0.2012  0.3396  0.1102
 5728SOL     OW22643   3.043   2.792   0.296 -0.3319  0.1740  0.4625
 5728SOL    HW222644   3.026   2.799   0.202 -0.7138  0.8830  0.5775
 5728SOL    HW322645   3.075   2.703   0.308  1.0795  0.5180 -0.5493
 5728SOL    MW422646   3.045   2.782   0.285  0.0601  0.3603 -0.2191
 5729SOL     OW22647   2.958   5.558   3.672  0.3050  0.4630 -0.2541
 5729SOL    HW222648   3.004   5.476   3.691 -1.9705 -1.0656 -0.8971
 5729SOL    HW322649   2.962   5.607   3.754  0.2471 -1.0811  0.7158
 5729SOL    MW422650   2.965   5.553   3.685  0.4623 -0.3241  0.2670
 5730SOL     OW22651   4.936   4.042   2.370 -0.2255 -0.2923 -0.3581
 5730SOL    HW222652   4.903   3.961   2.333  0.1086 -1.1510  1.1070
 5730SOL    HW322653   4.973   4.016   2.455 -1.0563  1.5596  0.6277
 5730SOL    MW422654   4.937   4.028   2.377 -0.5516 -0.2355 -0.6637
 5731SOL     OW22655   0.749   0.070   0.597 -0.6518  0.6053 -0.4514
 5731SOL    HW222656   0.769   0.159   0.566 -0.6096  0.6123 -0.4044
 5731SOL    HW322657   0.700   0.030   0.526 -0.8222  0.7264 -0.4027
 5731SOL    MW422658   0.745   0.077   0.584 -0.6406  0.2205  0.0034
 5732SOL     OW22659   1.189   0.688   5.395  0.0926  0.0951  1.0515
 5732SOL    HW222660   1.111   0.718   5.442 -0.6440 -1.7335  1.0629
 5732SOL    HW322661   1.178   0.720   5.306 -0.0184  0.9509  1.3666
 5732SOL    MW422662   1.178   0.696   5.390 -0.0962  0.3503  0.0995
 5733SOL     OW22663   3.381   6.397   5.824  0.1860  0.0561  0.2872
 5733SOL    HW222664   3.375   6.309   5.788 -0.1652 -1.0574  2.8704
 5733SOL    HW322665   3.290   6.426   5.834  0.3080  1.2437 -1.6421
 5733SOL    MW422666   3.368   6.389   5.821  0.1981  0.4886  0.0086
 5734SOL     OW22667   0.420   0.788   4.902  0.2625 -0.1308  0.5982
 5734SOL    HW222668   0.421   0.805   4.808 -1.1893 -1.2044  0.3631
 5734SOL    HW322669   0.451   0.869   4.942 -1.3038  1.1694 -0.7106
 5734SOL    MW422670   0.424   0.801   4.895 -0.0846 -0.3591  0.2247
 5735SOL     OW22671   5.366   2.401   2.732 -0.5085  0.1541 -0.1901
 5735SOL    HW222672   5.420   2.387   2.810 -2.1764  1.8272  1.3847
 5735SOL    HW322673   5.277   2.377   2.760 -1.1364  0.7034 -1.6148
 5735SOL    MW422674   5.361   2.396   2.746  0.4137 -0.2950  0.1649
 5736SOL     OW22675   3.160   3.650   6.344  0.6040 -0.4316 -0.0813
 5736SOL    HW222676   3.171   3.603   6.426  1.8376  0.4235  0.2749
 5736SOL    HW322677   3.194   3.591   6.277  2.0696 -0.1149  0.3532
 5736SOL    MW422678   3.166   3.636   6.346  1.0310  0.0017 -0.5412
 5737SOL     OW22679   0.249   2.190   3.461 -0.0640 -0.7399  0.5629
 5737SOL    HW222680   0.179   2.131   3.488  0.6689 -2.1269 -0.4552
 5737SOL    HW322681   0.329   2.151   3.495  0.2926  0.5488  1.2711
 5737SOL    MW422682   0.250   2.177   3.469  0.0184  0.0661 -0.2041
 5738SOL     OW22683   2.330   6.138   0.669  0.3611 -0.4304 -0.3988
 5738SOL    HW222684   2.265   6.205   0.651  0.8529 -0.3799 -2.1646
 5738SOL    HW322685   2.289   6.056   0.639  0.1802 -0.7752  0.7479
 5738SOL    MW422686   2.316   6.136   0.663  0.0182  0.4197 -0.0623
 5739SOL     OW22687   0.514   0.115   5.106 -0.0547  0.2274  0.5873
 5739SOL    HW222688   0.446   0.097   5.041 -1.1433 -2.0060  2.1877
 5739SOL    HW322689   0.582   0.162   5.059 -1.5885  0.2658 -1.7031
 5739SOL    MW422690   0.514   0.119   5.091  0.2838 -0.4699  0.1602
 5740SOL     OW22691   2.728   2.090   5.857  0.4199 -0.0129 -0.0226
 5740SOL    HW222692   2.810   2.091   5.907  0.5724  1.1687 -0.2545
 5740SOL    HW322693   2.660   2.100   5.924  0.5299 -0.0038  0.0888
 5740SOL    MW422694   2.730   2.092   5.873 -0.2392 -0.2786  0.1135
 5741SOL     OW22695   2.034   2.864   0.585  0.4358  0.3125 -0.0704
 5741SOL    HW222696   2.109   2.841   0.641  0.3852 -1.4952 -0.7075
 5741SOL    HW322697   2.054   2.952   0.554  1.1901  0.7668  1.5784
 5741SOL    MW422698   2.047   2.873   0.589 -0.1679 -0.7417 -0.3009
 5742SOL     OW22699   4.418   3.967   1.150  0.3935 -0.2060 -0.3827
 5742SOL    HW222700   4.479   3.912   1.198  0.6707  0.1431 -0.3301
 5742SOL    HW322701   4.462   3.985   1.066  1.0415  1.2781  0.2383
 5742SOL    MW422702   4.432   3.962   1.145 -0.2206 -0.5906 -0.1176
 5743SOL     OW22703   3.309   0.793   5.606 -0.0034  0.5462  0.2774
 5743SOL    HW222704   3.397   0.756   5.605 -0.1533  0.1666  0.6468
 5743SOL    HW322705   3.256   0.727   5.652  0.3492  2.5794  3.9582
 5743SOL    MW422706   3.314   0.779   5.612  0.0908  0.4925 -0.5823
 5744SOL     OW22707   1.354   3.791   2.174 -0.6032 -0.2768 -0.0865
 5744SOL    HW222708   1.342   3.767   2.266  2.2578  0.4645  0.5727
 5744SOL    HW322709   1.386   3.710   2.133  1.3678  0.2242  0.3736
 5744SOL    MW422710   1.357   3.777   2.181  0.1135 -0.1412 -0.2865
 5745SOL     OW22711   3.346   5.681   1.306  0.1467  0.1204  0.3770
 5745SOL    HW222712   3.399   5.655   1.382  0.3094  0.1378  0.2688
 5745SOL    HW322713   3.328   5.774   1.320  0.6815  0.2667  0.0880
 5745SOL    MW422714   3.351   5.689   1.318 -0.1657  0.0237  0.5992
 5746SOL     OW22715   4.088   1.062   1.908  0.5769  0.2168  0.0211
 5746SOL    HW222716   4.024   1.015   1.961 -1.1685 -1.0628 -2.9965
 5746SOL    HW322717   4.172   1.020   1.929 -0.2999 -1.2999  0.6021
 5746SOL    MW422718   4.091   1.051   1.918  0.3156  0.1976 -0.2611
 5747SOL     OW22719   0.659   2.334   5.050 -0.3304 -0.0699 -0.0422
 5747SOL    HW222720   0.671   2.390   4.973 -1.9905  1.5456  0.8016
 5747SOL    HW322721   0.587   2.276   5.027 -2.0261  1.5893  0.8387
 5747SOL    MW422722   0.651   2.334   5.037 -0.2106  0.2213 -0.2542
 5748SOL     OW22723   4.819   4.725   5.480 -0.5314 -0.4929  0.0394
 5748SOL    HW222724   4.874   4.698   5.406  2.0766  1.8897  0.9372
 5748SOL    HW322725   4.794   4.643   5.523 -1.3126 -1.8888 -2.8214
 5748SOL    MW422726   4.823   4.710   5.476  0.4117 -0.4823  0.1138
 5749SOL     OW22727   1.834   1.980   5.724  0.3885  0.3570  0.4759
 5749SOL    HW222728   1.788   1.908   5.768  0.1128 -0.2415 -0.7420
 5749SOL    HW322729   1.884   2.023   5.793  0.7515 -1.1613  1.1964
 5749SOL    MW422730   1.835   1.976   5.739  0.5213  0.2831  0.1955
 5750SOL     OW22731   5.128   1.659   2.695 -0.4225 -0.1209  0.3107
 5750SOL    HW222732   5.155   1.588   2.636 -1.8514 -0.8030  0.4377
 5750SOL    HW322733   5.211   1.695   2.728  0.3991  0.1152 -1.8868
 5750SOL    MW422734   5.143   1.654   2.692  0.5148  0.3334  0.3604
 5751SOL     OW22735   2.747   0.673   5.829 -0.4773 -0.1059  0.0264
 5751SOL    HW222736   2.762   0.677   5.734 -1.1400 -1.3441 -0.1506
 5751SOL    HW322737   2.826   0.710   5.868  0.4130 -0.9003 -0.9848
 5751SOL    MW422738   2.759   0.678   5.822 -0.6045  0.3739  0.5352
 5752SOL     OW22739   2.412   4.344   6.265 -0.2155  0.4871  0.6611
 5752SOL    HW222740   2.319   4.363   6.274 -0.5454 -0.7430 -0.0031
 5752SOL    HW322741   2.449   4.362   6.352 -1.2650 -0.0548  1.2305
 5752SOL    MW422742   2.405   4.349   6.278  0.6055  1.0157 -0.0164
 5753SOL     OW22743   5.689   0.259   3.736 -0.1209  0.0278 -0.0585
 5753SOL    HW222744   5.777   0.257   3.776  0.1618 -1.0632 -0.7063
 5753SOL    HW322745   5.669   0.168   3.718 -0.9785  0.3627 -0.8493
 5753SOL    MW422746   5.698   0.247   3.739 -0.1922  0.2301 -0.0157
 5754SOL     OW22747   1.828   1.386   2.002 -0.3960 -0.5742  0.4792
 5754SOL    HW222748   1.871   1.303   2.021  1.0166  0.2829  1.2576
 5754SOL    HW322749   1.876   1.450   2.055 -4.1159  0.1993  3.4003
 5754SOL    MW422750   1.840   1.384   2.012 -0.1121  0.5359 -0.4851
 5755SOL     OW22751   3.857   3.462   4.930 -0.6875 -0.3554 -0.3293
 5755SOL    HW222752   3.926   3.494   4.988 -0.1194  0.0272 -1.2019
 5755SOL    HW322753   3.890   3.477   4.842 -2.0623  0.2243 -0.7819
 5755SOL    MW422754   3.870   3.468   4.926  0.1614 -0.1572  0.3209
 5756SOL     OW22755   4.166   2.029   3.414 -0.0626  0.4071  0.0921
 5756SOL    HW222756   4.155   1.981   3.496  0.0341  0.1233 -0.0625
 5756SOL    HW322757   4.080   2.028   3.374  0.2900 -1.0697 -0.7037
 5756SOL    MW422758   4.153   2.023   3.420 -0.2250 -0.0104 -0.2646
 5757SOL     OW22759   5.487   0.290   4.570  0.2706 -0.1210  0.3087
 5757SOL    HW222760   5.442   0.228   4.627 -0.3572  1.1081  1.2076
 5757SOL    HW322761   5.514   0.238   4.494  0.5494 -1.6587  1.4181
 5757SOL    MW422762   5.485   0.275   4.567 -0.0636 -0.2495  0.0184
 5758SOL     OW22763   2.819   0.768   3.590 -0.2949 -0.0526  0.3442
 5758SOL    HW222764   2.869   0.694   3.626 -1.4709  0.1568  2.5812
 5758SOL    HW322765   2.836   0.764   3.496  3.4187 -0.3424  0.8530
 5758SOL    MW422766   2.828   0.758   3.583 -0.1512  0.0637 -0.1146
 5759SOL     OW22767   2.212   5.062   5.853  0.2895 -0.0118  0.0674
 5759SOL    HW222768   2.144   5.002   5.882 -0.1899  1.1462  1.5168
 5759SOL    HW322769   2.180   5.098   5.771 -1.0916  0.8167  0.9305
 5759SOL    MW422770   2.199   5.059   5.846  0.2274 -0.0705 -0.1476
 5760SOL     OW22771   5.270   0.658   1.897 -0.7341  0.3566 -0.7634
 5760SOL    HW222772   5.217   0.686   1.823 -1.5637 -2.6675 -1.4746
 5760SOL    HW322773   5.238   0.570   1.918  3.0554 -1.1547 -0.3819
 5760SOL    MW422774   5.259   0.650   1.890 -0.3334 -0.0584  0.0003
 5761SOL     OW22775   2.320   4.498   5.880  0.5661 -0.2566 -0.0978
 5761SOL    HW222776   2.342   4.557   5.807 -3.2503 -0.9317 -2.0658
 5761SOL    HW322777   2.361   4.539   5.956  3.8495  1.1113 -2.3384
 5761SOL    MW422778   2.328   4.511   5.880  0.4697 -0.2534  0.4143
 5762SOL     OW22779   5.421   1.432   0.464  0.2056  0.2033 -0.1205
 5762SOL    HW222780   5.483   1.492   0.506 -0.7548  0.9939  0.1880
 5762SOL    HW322781   5.447   1.432   0.371  2.6314 -1.9062  0.4250
 5762SOL    MW422782   5.433   1.440   0.457  0.4294  0.2385 -0.2369
 5763SOL     OW22783   4.234   3.514   5.564  0.0857 -0.1871  0.6278
 5763SOL    HW222784   4.267   3.574   5.631  1.5702 -0.3119  0.0440
 5763SOL    HW322785   4.178   3.454   5.612  0.6237  0.1028  1.6594
 5763SOL    MW422786   4.231   3.514   5.579  0.0169  1.0965 -0.0454
 5764SOL     OW22787   2.965   6.263   3.277  0.3299  0.4088 -0.0996
 5764SOL    HW222788   2.932   6.179   3.309 -1.6686  1.1675 -0.0300
 5764SOL    HW322789   2.886   6.316   3.263  1.4585  1.8214 -1.4334
 5764SOL    MW422790   2.950   6.259   3.280  0.3342  0.1212  0.2857
 5765SOL     OW22791   4.235   0.992   3.419 -0.2048 -0.0157  0.1036
 5765SOL    HW222792   4.184   1.054   3.473 -0.2046 -0.1888  0.3029
 5765SOL    HW322793   4.326   1.008   3.444 -0.2911 -0.9748  1.0877
 5765SOL    MW422794   4.240   1.002   3.429 -0.3903 -0.0846 -0.2398
 5766SOL     OW22795   1.058   0.711   1.773 -0.0774 -0.1062  1.1140
 5766SOL    HW222796   1.149   0.680   1.775 -0.2858 -0.6968  1.8173
 5766SOL    HW322797   1.012   0.653   1.833 -0.5928  1.2439  2.0805
 5766SOL    MW422798   1.064   0.699   1.781  0.1613 -0.6213 -0.1247
 5767SOL     OW22799   5.447   0.483   3.142  0.5298  0.0736  0.6681
 5767SOL    HW222800   5.394   0.419   3.095  0.2831  0.5227  0.3272
 5767SOL    HW322801   5.533   0.441   3.150  0.0140 -0.8603  1.6509
 5767SOL    MW422802   5.451   0.469   3.137 -0.0276  0.1438 -0.4583
 5768SOL     OW22803   2.437   3.782   1.527  0.2228 -0.3847 -0.0765
 5768SOL    HW222804   2.375   3.792   1.598  0.4400  0.9140 -0.0427
 5768SOL    HW322805   2.487   3.703   1.549 -1.8667 -1.9109 -0.5007
 5768SOL    MW422806   2.436   3.773   1.539  0.1939 -0.6778  0.0439
 5769SOL     OW22807   5.049   2.997   1.520 -0.1326 -0.5015 -0.2403
 5769SOL    HW222808   5.094   2.979   1.603 -0.6787 -1.3929 -0.1259
 5769SOL    HW322809   4.956   2.992   1.542 -0.3501  1.8900 -0.3419
 5769SOL    MW422810   5.043   2.994   1.534 -0.0854 -0.4092 -0.1069
 5770SOL     OW22811   5.651   0.839   3.054  0.1310 -0.2691 -0.2839
 5770SOL    HW222812   5.586   0.853   2.984  0.6690  1.3487 -0.5045
 5770SOL    HW322813   5.734   0.863   3.014  0.9294 -2.3998 -0.0251
 5770SOL    MW422814   5.653   0.844   3.039  0.0692 -0.4240 -0.6277
 5771SOL     OW22815   4.161   0.288   3.726 -0.1101 -0.2835 -0.0678
 5771SOL    HW222816   4.095   0.221   3.708 -2.0431  1.2344  0.9639
 5771SOL    HW322817   4.186   0.273   3.817 -0.3925  0.2425  0.1015
 5771SOL    MW422818   4.155   0.277   3.736 -0.2295 -0.3395  0.1027
 5772SOL     OW22819   3.496   5.520   3.094 -0.1991  0.3132  0.0121
 5772SOL    HW222820   3.578   5.551   3.055  0.8791 -2.0567  0.2344
 5772SOL    HW322821   3.455   5.469   3.025  1.2051 -3.0104  1.4265
 5772SOL    MW422822   3.502   5.518   3.079 -0.6668  0.2118  0.5139
 5773SOL     OW22823   1.103   5.587   1.148 -0.3567  0.2764 -0.2125
 5773SOL    HW222824   1.141   5.558   1.065 -0.4847 -0.1696 -0.1196
 5773SOL    HW322825   1.079   5.505   1.193  1.4711  0.3961  1.0956
 5773SOL    MW422826   1.105   5.572   1.143  0.2261  0.3845 -0.6205
 5774SOL     OW22827   0.908   4.239   0.053 -0.2689  0.8552 -0.6770
 5774SOL    HW222828   0.860   4.321   0.060 -0.5951  0.7278 -1.3323
 5774SOL    HW322829   0.855   4.185  -0.005  1.3151  1.1920 -2.5573
 5774SOL    MW422830   0.895   4.242   0.046 -0.3114 -0.9730 -0.0027
 5775SOL     OW22831   2.275   0.827   3.796  0.1144 -0.5870 -0.2182
 5775SOL    HW222832   2.211   0.885   3.838  1.9747  1.2326  0.2648
 5775SOL    HW322833   2.292   0.759   3.862  1.2114  0.8847  1.0917
 5775SOL    MW422834   2.269   0.825   3.810  0.0012  0.0466 -0.1647
 5776SOL     OW22835   2.485   4.300   0.992  0.1341  0.3052  0.1268
 5776SOL    HW222836   2.402   4.332   1.028 -0.2357  1.0290 -1.3248
 5776SOL    HW322837   2.465   4.212   0.960 -0.2533  0.7097 -0.7749
 5776SOL    MW422838   2.472   4.292   0.993  0.3400  0.2908 -0.1690
 5777SOL     OW22839   5.824   4.265   4.666  0.5606  0.0449  0.3192
 5777SOL    HW222840   5.842   4.284   4.758 -0.8773  0.0024  0.6410
 5777SOL    HW322841   5.801   4.350   4.628 -3.4090 -0.4284  1.1681
 5777SOL    MW422842   5.823   4.279   4.673 -0.1560  0.1813 -0.4924
 5778SOL     OW22843   4.201   3.173   2.069  0.1442  0.5428  0.2188
 5778SOL    HW222844   4.253   3.248   2.099  0.4125 -0.1054  1.4188
 5778SOL    HW322845   4.113   3.208   2.060  0.5565  1.3899 -0.7980
 5778SOL    MW422846   4.197   3.188   2.071  0.1863 -0.4876  0.2904
 5779SOL     OW22847   4.264   5.420   2.689 -0.5509  0.1589  0.0734
 5779SOL    HW222848   4.339   5.434   2.746 -0.9128 -2.1778  1.2140
 5779SOL    HW322849   4.188   5.442   2.744 -0.8069  0.1253 -0.2633
 5779SOL    MW422850   4.264   5.425   2.704  0.2716 -0.4826 -0.6149
 5780SOL     OW22851   3.707   5.220   4.432  0.1579 -0.0289  0.1512
 5780SOL    HW222852   3.751   5.181   4.507  1.5001 -1.7864 -1.4185
 5780SOL    HW322853   3.641   5.278   4.469 -0.0962 -1.7764  2.6720
 5780SOL    MW422854   3.704   5.223   4.447  0.1041  0.2165  0.7047
 5781SOL     OW22855   4.986   3.317   6.369 -0.1559 -0.1503 -0.3148
 5781SOL    HW222856   4.973   3.370   6.448  0.5557  0.0145 -0.3000
 5781SOL    HW322857   4.954   3.372   6.297 -1.3829 -0.5412 -0.0961
 5781SOL    MW422858   4.980   3.331   6.370  0.0406 -0.3330 -0.6460
 5782SOL     OW22859   4.459   2.996   4.770  0.0467  0.2419  0.0003
 5782SOL    HW222860   4.509   2.958   4.842  0.5835 -1.5877 -1.2763
 5782SOL    HW322861   4.374   2.952   4.774 -0.6449  1.5736  0.6720
 5782SOL    MW422862   4.454   2.985   4.780 -0.3966 -0.0811 -0.0404
 5783SOL     OW22863   4.380   3.339   1.336  0.1858 -0.0769  0.0424
 5783SOL    HW222864   4.306   3.286   1.306  0.6385 -0.4804 -0.3772
 5783SOL    HW322865   4.367   3.347   1.431 -1.5749  1.6947 -0.2825
 5783SOL    MW422866   4.369   3.333   1.345  0.5096  0.4831 -0.3793
 5784SOL     OW22867   0.728   5.702   3.002 -0.2352  0.1249  0.2007
 5784SOL    HW222868   0.709   5.753   2.923  1.1192 -0.2575 -0.3916
 5784SOL    HW322869   0.641   5.678   3.036 -0.9267  2.7646  0.4934
 5784SOL    MW422870   0.714   5.705   2.996  0.5395  0.2353 -0.0329
 5785SOL     OW22871   2.160   5.012   4.177 -0.2630 -0.1793  0.3624
 5785SOL    HW222872   2.080   4.960   4.192 -1.0727  0.8191 -0.3680
 5785SOL    HW322873   2.204   5.011   4.262 -0.4595 -1.6957  0.4826
 5785SOL    MW422874   2.155   5.005   4.191  0.6050 -0.6961 -0.4410
 5786SOL     OW22875   1.771   1.979   1.503  0.0164  0.3677  0.4153
 5786SOL    HW222876   1.800   2.012   1.588  0.6827 -0.7262  0.6325
 5786SOL    HW322877   1.822   1.900   1.489 -2.0573 -1.0136  0.2480
 5786SOL    MW422878   1.782   1.973   1.512 -0.0501  0.1797  0.6004
 5787SOL     OW22879   5.679   1.038   1.843 -0.3923 -0.1851 -0.2400
 5787SOL    HW222880   5.681   1.134   1.836 -0.1672 -0.2054 -0.4945
 5787SOL    HW322881   5.767   1.011   1.816 -0.5720 -0.4845 -0.5373
 5787SOL    MW422882   5.691   1.047   1.838  0.2567  0.0414 -0.9960
 5788SOL     OW22883   3.951   3.859   2.206  0.0370  0.3415 -0.1487
 5788SOL    HW222884   3.999   3.938   2.180  1.5090 -0.0012  1.3343
 5788SOL    HW322885   3.884   3.891   2.267  0.2838  0.5280  0.0316
 5788SOL    MW422886   3.949   3.874   2.211  0.5859 -0.0360 -0.4092
 5789SOL     OW22887   1.484   4.629   3.498  0.0728  0.1588 -0.4880
 5789SOL    HW222888   1.457   4.704   3.551 -0.2992  1.1421 -1.9905
 5789SOL    HW322889   1.502   4.560   3.561 -0.4841  1.2264  0.8933
 5789SOL    MW422890   1.483   4.630   3.513 -0.0683 -0.2686  0.1883
 5790SOL     OW22891   6.222   5.359   5.579 -0.2342 -0.0995 -0.4183
 5790SOL    HW222892   6.143   5.413   5.578 -0.9514 -1.0891  0.5718
 5790SOL    HW322893   6.204   5.291   5.644  1.4170 -0.3862 -0.2185
 5790SOL    MW422894   6.209   5.357   5.587  0.6643  0.4051 -0.6566
 5791SOL     OW22895   6.384   3.560   1.549 -0.0491  0.1404 -0.7239
 5791SOL    HW222896   6.359   3.648   1.577 -0.4618 -0.1230 -0.2482
 5791SOL    HW322897   6.473   3.570   1.515 -0.0335  0.7108 -0.5261
 5791SOL    MW422898   6.392   3.572   1.548  0.0993  0.0982  0.4046
 5792SOL     OW22899   1.278   2.363   1.740 -0.2389 -0.8142 -0.3353
 5792SOL    HW222900   1.318   2.450   1.734  0.7624 -1.1970  0.5578
 5792SOL    HW322901   1.310   2.317   1.662 -0.7456 -0.4073 -0.7933
 5792SOL    MW422902   1.288   2.369   1.729  0.0815 -0.4141 -0.1051
 5793SOL     OW22903   1.850   2.720   3.713  0.2705  0.3640 -0.0407
 5793SOL    HW222904   1.900   2.676   3.643 -0.2276 -0.4862  0.1217
 5793SOL    HW322905   1.776   2.760   3.668  0.5111  0.7045 -0.1365
 5793SOL    MW422906   1.847   2.719   3.698 -0.1454 -0.5951  0.3562
 5794SOL     OW22907   4.815   4.010   1.314 -0.7605 -0.3460 -0.0954
 5794SOL    HW222908   4.870   4.078   1.276  1.7185 -0.8651  2.2266
 5794SOL    HW322909   4.840   3.930   1.268 -0.7144 -0.3169 -0.1204
 5794SOL    MW422910   4.825   4.008   1.303  0.1224 -0.1769 -0.2015
 5795SOL     OW22911   3.982   2.066   5.059  0.1810 -0.3698  0.6525
 5795SOL    HW222912   4.002   2.073   5.152  0.7155 -1.1423  0.6021
 5795SOL    HW322913   4.039   1.996   5.027  0.4407  0.2911 -0.3821
 5795SOL    MW422914   3.992   2.058   5.067 -0.3465 -0.1247 -0.0494
 5796SOL     OW22915   5.315   4.907   1.135 -0.4079  0.0786 -0.1004
 5796SOL    HW222916   5.409   4.890   1.149 -0.1936  0.1238 -1.3841
 5796SOL    HW322917   5.311   4.950   1.050 -1.5929  0.2001  0.0032
 5796SOL    MW422918   5.327   4.910   1.126  0.2104 -0.1610 -0.0318
 5797SOL     OW22919   3.455   0.158   0.845  0.4637 -0.3416 -0.4174
 5797SOL    HW222920   3.516   0.114   0.905  0.3565  0.2369  0.1230
 5797SOL    HW322921   3.401   0.087   0.811  1.8167 -0.9672 -1.3841
 5797SOL    MW422922   3.456   0.143   0.849 -0.0247  0.6455 -0.1957
 5798SOL     OW22923   0.846   4.366   5.333  0.9879 -1.0874  0.8177
 5798SOL    HW222924   0.889   4.451   5.318 -1.2937  0.0062 -0.0352
 5798SOL    HW322925   0.762   4.389   5.373 -0.0751 -2.8522 -0.2629
 5798SOL    MW422926   0.840   4.380   5.336 -0.6625  0.0544 -0.2203
 5799SOL     OW22927   3.195   0.111   5.224  0.5662 -0.1814 -1.0441
 5799SOL    HW222928   3.291   0.108   5.230  0.5767 -1.6247 -1.4138
 5799SOL    HW322929   3.165   0.095   5.314  0.7314 -4.0988 -1.5145
 5799SOL    MW422930   3.204   0.108   5.237  0.1162  0.1089  0.3106
 5800SOL     OW22931   4.960   2.457   1.024  0.9192 -0.2286  0.6184
 5800SOL    HW222932   4.876   2.413   1.037 -0.1524  1.3695 -0.4776
 5800SOL    HW322933   5.017   2.389   0.987  0.4069 -1.5617  2.1345
 5800SOL    MW422934   4.956   2.442   1.021  0.4162  0.7617  0.3326
 5801SOL     OW22935   3.977   0.418   5.982 -0.4591 -0.6543 -0.1227
 5801SOL    HW222936   4.011   0.503   5.954 -0.3592 -0.9341 -0.8792
 5801SOL    HW322937   3.882   0.426   5.977 -0.5491  0.0606  1.7877
 5801SOL    MW422938   3.969   0.430   5.978  0.3455  1.0852 -0.4555
 5802SOL     OW22939   0.096   3.319   6.207 -0.4817 -0.3340 -0.0009
 5802SOL    HW222940   0.147   3.264   6.267 -1.6212 -1.3531  0.0819
 5802SOL    HW322941   0.134   3.302   6.121 -0.3971 -0.7514  0.1156
 5802SOL    MW422942   0.108   3.309   6.204  0.2108 -0.7632 -0.0327
 5803SOL     OW22943   0.933   2.086   5.450 -0.6646 -0.6895  0.3712
 5803SOL    HW222944   0.950   2.148   5.379 -0.8247 -1.2900 -0.2015
 5803SOL    HW322945   1.012   2.033   5.455 -0.0280  0.3274  1.6845
 5803SOL    MW422946   0.946   2.087   5.441  0.4329 -0.0934  0.2595
 5804SOL     OW22947   4.267   2.257   5.374 -0.4142 -0.4838  0.1389
 5804SOL    HW222948   4.302   2.197   5.309 -0.1221 -0.5052  0.3139
 5804SOL    HW322949   4.287   2.344   5.340  0.4555 -0.4994  0.5808
 5804SOL    MW422950   4.275   2.261   5.361  0.4563 -0.2984  0.2327
 5805SOL     OW22951   5.648   0.370   1.948  0.4290  0.0263 -0.5441
 5805SOL    HW222952   5.723   0.344   2.002 -1.5471 -0.1745  2.3186
 5805SOL    HW322953   5.674   0.454   1.910  1.6335  0.6392  1.4890
 5805SOL    MW422954   5.661   0.377   1.950  0.5274 -0.6397  0.4768
 5806SOL     OW22955   5.284   4.954   4.852  0.5367  0.4280  0.7551
 5806SOL    HW222956   5.276   5.009   4.930 -1.7064  0.2685  0.7039
 5806SOL    HW322957   5.288   5.016   4.779  1.4883  0.5582  0.9099
 5806SOL    MW422958   5.283   4.969   4.853  0.0428  0.4443  0.4228
 5807SOL     OW22959   4.243   4.148   0.873 -0.1141 -0.3857 -0.2179
 5807SOL    HW222960   4.149   4.129   0.881 -0.0132 -0.3103  1.6055
 5807SOL    HW322961   4.277   4.076   0.819 -1.2140 -0.3786 -0.9656
 5807SOL    MW422962   4.235   4.136   0.867 -0.4269 -0.1802 -0.2371
 5808SOL     OW22963   0.776   3.263   2.551  0.1988  0.0293 -0.0975
 5808SOL    HW222964   0.773   3.203   2.626 -0.9770 -0.4278 -0.4775
 5808SOL    HW322965   0.691   3.307   2.553  0.4226  0.4983 -0.7778
 5808SOL    MW422966   0.764   3.261   2.561  0.1538 -0.2150 -0.0718
 5809SOL     OW22967   4.768   1.654   2.875  0.1133  0.5479  0.2645
 5809SOL    HW222968   4.844   1.618   2.922  1.3273 -0.1831 -2.0871
 5809SOL    HW322969   4.693   1.627   2.928  1.3602 -0.5489  1.5728
 5809SOL    MW422970   4.768   1.645   2.889 -0.2828  0.0690 -0.2696
 5810SOL     OW22971   0.146   1.251   4.136 -0.1477 -0.9431  0.0473
 5810SOL    HW222972   0.177   1.255   4.046 -0.4230  0.4995  0.0011
 5810SOL    HW322973   0.221   1.219   4.187  0.9900  1.0703 -0.2690
 5810SOL    MW422974   0.160   1.247   4.131  0.2328  0.2735  0.2205
 5811SOL     OW22975   4.672   3.182   4.242 -0.1804 -0.1546  0.1794
 5811SOL    HW222976   4.676   3.230   4.325  0.5635  1.3304 -0.6887
 5811SOL    HW322977   4.579   3.168   4.227 -0.2990 -1.5511  1.8496
 5811SOL    MW422978   4.660   3.186   4.251 -0.2960  0.8138  0.2484
 5812SOL     OW22979   1.968   3.006   3.964  0.5198 -0.1000 -0.3145
 5812SOL    HW222980   2.045   3.058   3.987  1.3365 -1.6049  0.5996
 5812SOL    HW322981   2.005   2.923   3.932 -0.7201 -0.1574 -1.6884
 5812SOL    MW422982   1.983   3.002   3.963 -0.2077  0.4328  0.0702
 5813SOL     OW22983   6.279   0.720   4.296 -0.3661 -0.1442 -0.7657
 5813SOL    HW222984   6.311   0.638   4.334  0.9025  0.0002 -1.4468
 5813SOL    HW322985   6.184   0.715   4.303 -0.2564  0.4182  3.4732
 5813SOL    MW422986   6.271   0.709   4.302  0.3412  0.4728 -0.1440
 5814SOL     OW22987   2.332   2.289   6.360 -0.1352 -0.2021 -0.2899
 5814SOL    HW222988   2.335   2.196   6.383 -0.8564 -0.1028  0.2357
 5814SOL    HW322989   2.309   2.333   6.442  0.8735  0.5088 -0.3726
 5814SOL    MW422990   2.330   2.282   6.374 -0.2764 -0.3189 -0.3949
 5815SOL     OW22991   2.422   5.936   5.672 -0.0509  0.0990 -0.5417
 5815SOL    HW222992   2.501   5.883   5.662  0.2235  0.6114 -1.1856
 5815SOL    HW322993   2.350   5.873   5.676  0.5072 -0.4959  1.8069
 5815SOL    MW422994   2.423   5.921   5.671  0.1321  0.0146  0.7822
 5816SOL     OW22995   3.639   3.034   0.018  0.1455 -0.4939 -0.2045
 5816SOL    HW222996   3.662   2.943   0.003 -0.9356 -0.6197 -1.2280
 5816SOL    HW322997   3.715   3.071   0.063  1.5485 -1.3559 -1.7414
 5816SOL    MW422998   3.652   3.027   0.022  0.5357 -0.5329  0.0478
 5817SOL     OW22999   5.715   3.673   1.686 -0.5956 -0.0645 -0.3167
 5817SOL    HW223000   5.724   3.756   1.733 -1.3558 -0.3494  0.3467
 5817SOL    HW323001   5.625   3.647   1.701 -0.4741 -0.8148 -0.8653
 5817SOL    MW423002   5.705   3.681   1.694  0.4403  1.0861 -0.5072
 5818SOL     OW23003   1.873   3.369   3.863  0.0673 -0.2861  0.1195
 5818SOL    HW223004   1.945   3.316   3.828  2.4390  3.4122 -1.1102
 5818SOL    HW323005   1.815   3.305   3.905  3.1732 -3.6771 -0.2741
 5818SOL    MW423006   1.875   3.353   3.864  0.2548 -0.3831  0.3254
 5819SOL     OW23007   3.520   4.465   0.928 -0.3020  0.0720 -0.3358
 5819SOL    HW223008   3.451   4.530   0.937 -0.2208  0.2674 -1.0151
 5819SOL    HW323009   3.598   4.516   0.906  0.1465 -0.1165  0.7681
 5819SOL    MW423010   3.521   4.480   0.926  0.2245  0.1659  0.2298
 5820SOL     OW23011   5.304   2.067   1.602  0.0629  0.1891  0.1371
 5820SOL    HW223012   5.364   2.045   1.673  0.6616  1.4359  0.0431
 5820SOL    HW323013   5.336   2.151   1.568 -2.0226  1.1665  0.4255
 5820SOL    MW423014   5.316   2.075   1.607  0.2891  0.5903 -0.1065
 5821SOL     OW23015   0.284   1.527   4.956 -0.2950  0.4039  0.0267
 5821SOL    HW223016   0.299   1.571   4.873  0.7890  0.4425  0.2340
 5821SOL    HW323017   0.201   1.563   4.988  0.4893  2.2081  0.1309
 5821SOL    MW423018   0.275   1.538   4.949  0.9353 -0.1760 -0.2932
 5822SOL     OW23019   0.322   3.422   0.036  0.2364 -0.2141  0.6479
 5822SOL    HW223020   0.258   3.476  -0.010  0.3980  0.1019  0.7901
 5822SOL    HW323021   0.310   3.334  -0.000 -2.6023 -0.9526  2.9497
 5822SOL    MW423022   0.312   3.418   0.025  0.0440 -0.7689 -0.5669
 5823SOL     OW23023   3.501   6.385   2.077 -0.3885 -0.0628  0.1849
 5823SOL    HW223024   3.428   6.421   2.027 -0.0591  1.0979  0.5164
 5823SOL    HW323025   3.555   6.341   2.012  0.4799  2.1477 -0.6678
 5823SOL    MW423026   3.498   6.384   2.062  0.6900  0.1425 -0.1241
 5824SOL     OW23027   4.256   2.528   4.065 -0.3273  0.5715  0.7054
 5824SOL    HW223028   4.190   2.582   4.109 -1.0598  1.2392 -1.0780
 5824SOL    HW323029   4.281   2.580   3.988  1.3498 -0.2514  0.6418
 5824SOL    MW423030   4.251   2.542   4.060  0.6417  0.7388  0.3380
 5825SOL     OW23031   0.642   3.506   5.348 -0.5321 -0.7558 -0.2086
 5825SOL    HW223032   0.607   3.489   5.435 -0.0352  0.0506  0.1560
 5825SOL    HW323033   0.727   3.464   5.347 -0.2295 -0.1654 -0.0462
 5825SOL    MW423034   0.649   3.498   5.359  0.5328  0.6647 -0.2011
 5826SOL     OW23035   0.545   2.176   0.390  0.2624  0.2601  0.3195
 5826SOL    HW223036   0.508   2.207   0.473  0.3366 -0.4882  0.6470
 5826SOL    HW323037   0.631   2.216   0.385 -0.3918  1.6772 -0.2400
 5826SOL    MW423038   0.551   2.185   0.400 -0.3241 -0.3274  0.0684
 5827SOL     OW23039   1.196   4.899   2.011  0.2824  0.2309  0.0654
 5827SOL    HW223040   1.274   4.884   1.957 -1.0950 -2.5664 -1.4026
 5827SOL    HW323041   1.134   4.943   1.953 -0.2527 -0.2910  0.2294
 5827SOL    MW423042   1.198   4.903   1.997  0.0007 -0.5045  0.1920
 5828SOL     OW23043   0.179   0.208   2.922  0.3684  0.7243 -0.1410
 5828SOL    HW223044   0.186   0.188   2.829 -0.6155  1.5421 -0.4098
 5828SOL    HW323045   0.225   0.137   2.965 -1.1339 -0.9393 -1.1409
 5828SOL    MW423046   0.186   0.196   2.915  0.2138 -0.8510 -0.1237
 5829SOL     OW23047   1.093   3.168   3.591 -0.5379 -0.1524 -0.1523
 5829SOL    HW223048   1.121   3.258   3.577 -0.4439 -0.4187 -1.9452
 5829SOL    HW323049   1.161   3.130   3.647 -1.0302  1.0835  1.3644
 5829SOL    MW423050   1.106   3.174   3.597 -0.2220 -1.2422 -0.2302
 5830SOL     OW23051   1.441   0.273   0.985  0.4574  0.1770 -0.0345
 5830SOL    HW223052   1.445   0.191   1.034 -0.6198  0.6371  0.8629
 5830SOL    HW323053   1.522   0.319   1.008  0.7587 -0.3477 -0.0335
 5830SOL    MW423054   1.452   0.268   0.995  0.3939 -0.6634  0.2486
 5831SOL     OW23055   1.255   6.314   2.484  0.4045 -0.8151  0.5855
 5831SOL    HW223056   1.305   6.288   2.561 -0.2488 -1.7162  0.7235
 5831SOL    HW323057   1.305   6.386   2.446  2.6453 -2.6279 -0.1449
 5831SOL    MW423058   1.268   6.320   2.489 -0.0488 -0.0569  0.0636
 5832SOL     OW23059   6.297   5.640   1.304  0.0980 -0.2738  0.1629
 5832SOL    HW223060   6.356   5.607   1.373 -1.2461  0.1400  1.5581
 5832SOL    HW323061   6.209   5.629   1.340 -0.7255 -0.8721 -1.8752
 5832SOL    MW423062   6.294   5.634   1.318  0.0529  0.4940  0.3725
 5833SOL     OW23063   4.450   6.182   3.563  0.3523 -0.1655  0.0330
 5833SOL    HW223064   4.511   6.157   3.493  0.0472 -2.1053  0.4137
 5833SOL    HW323065   4.372   6.213   3.516  0.9048  0.5461 -0.4524
 5833SOL    MW423066   4.448   6.183   3.547 -0.2298 -0.2808  0.3218
 5834SOL     OW23067   1.251   1.494   0.075 -0.5976 -0.0993  0.2640
 5834SOL    HW223068   1.235   1.491  -0.019  0.1809  3.2478 -0.0978
 5834SOL    HW323069   1.191   1.561   0.107  1.7563  1.5794  1.4329
 5834SOL    MW423070   1.241   1.502   0.067  0.1281 -0.1385  0.4080
 5835SOL     OW23071   6.100   6.290   4.838  0.5464  0.1650  0.3064
 5835SOL    HW223072   6.176   6.287   4.896  1.3414  1.5810 -0.5966
 5835SOL    HW323073   6.138   6.299   4.750 -0.6366 -1.0803 -0.3758
 5835SOL    MW423074   6.115   6.290   4.834 -0.8301  0.1383 -0.0211
 5836SOL     OW23075   0.928   5.843   1.853 -0.3540  0.2432 -0.0839
 5836SOL    HW223076   0.936   5.916   1.791  0.6654  0.5702  0.4115
 5836SOL    HW323077   0.877   5.880   1.925 -0.9646  0.0657 -0.4222
 5836SOL    MW423078   0.922   5.858   1.854 -0.7573  0.5739  0.2540
 5837SOL     OW23079   4.502   4.651   4.571  0.8598 -0.0268  0.9376
 5837SOL    HW223080   4.546   4.719   4.622  1.6389 -0.0010  0.2530
 5837SOL    HW323081   4.429   4.624   4.626 -0.2027  2.1861  0.7500
 5837SOL    MW423082   4.498   4.657   4.585  0.4929 -0.0089 -0.0236
 5838SOL     OW23083   0.263   4.145   2.708 -0.2443  0.3102 -0.6894
 5838SOL    HW223084   0.226   4.060   2.728  0.2302 -0.1833 -1.7928
 5838SOL    HW323085   0.337   4.155   2.769  0.5882 -0.7241 -1.4827
 5838SOL    MW423086   0.268   4.135   2.718 -0.1698  0.2131  0.2025
 5839SOL     OW23087   2.226   2.860   2.548 -0.2272  0.0985 -0.4053
 5839SOL    HW223088   2.222   2.842   2.454 -0.5328 -0.6869 -0.2427
 5839SOL    HW323089   2.276   2.787   2.584 -1.1093 -0.2179  0.2005
 5839SOL    MW423090   2.232   2.848   2.540 -0.3639 -0.4890 -0.3057
 5840SOL     OW23091   2.706   1.743   3.425 -0.7844 -0.3051  0.2115
 5840SOL    HW223092   2.679   1.660   3.465 -0.9891 -0.7841 -0.8834
 5840SOL    HW323093   2.753   1.789   3.495 -0.2459 -1.5476  0.6979
 5840SOL    MW423094   2.708   1.738   3.440 -0.3856  0.2116 -0.3640
 5841SOL     OW23095   2.833   2.378   3.044 -0.0784 -0.1365 -0.2770
 5841SOL    HW223096   2.802   2.370   3.134  0.9623  0.8474  0.2004
 5841SOL    HW323097   2.862   2.290   3.021  0.1029 -0.3026  0.5396
 5841SOL    MW423098   2.833   2.365   3.053  0.4530 -0.2978  0.2130
 5842SOL     OW23099   0.822   0.698   5.181  0.2638  0.3174  0.2983
 5842SOL    HW223100   0.869   0.614   5.188 -1.7146 -0.7223  2.1220
 5842SOL    HW323101   0.788   0.699   5.092  2.0803  0.2138 -0.4355
 5842SOL    MW423102   0.824   0.687   5.170 -0.4840 -0.1325  0.2384
 5843SOL     OW23103   4.335   4.648   3.015  0.0593 -0.4327  0.0750
 5843SOL    HW223104   4.423   4.610   3.013 -0.0982 -0.7666 -0.8371
 5843SOL    HW323105   4.342   4.727   2.961 -0.0106 -0.0202  0.6582
 5843SOL    MW423106   4.348   4.653   3.008  0.7446 -0.2612 -0.1946
 5844SOL     OW23107   5.466   4.025   3.310 -0.6219  0.4438 -0.2998
 5844SOL    HW223108   5.437   4.091   3.374 -3.1229 -1.0770  0.2889
 5844SOL    HW323109   5.489   4.075   3.232 -0.6708  2.1289  0.7178
 5844SOL    MW423110   5.466   4.040   3.308 -0.7904 -0.8752 -0.0860
 5845SOL     OW23111   6.438   5.940   3.093 -0.6988 -0.6785 -0.0530
 5845SOL    HW223112   6.445   5.850   3.125  0.4966 -0.0079  1.7346
 5845SOL    HW323113   6.360   5.975   3.137 -0.7846 -0.6396 -0.2341
 5845SOL    MW423114   6.428   5.933   3.103 -0.3149  0.1743 -0.3456
 5846SOL     OW23115   0.626   5.651   1.762  0.3774  0.3575 -0.1574
 5846SOL    HW223116   0.647   5.629   1.853  1.3541 -0.5904 -0.5975
 5846SOL    HW323117   0.624   5.747   1.760  2.6589  0.4556  0.3646
 5846SOL    MW423118   0.628   5.661   1.774  0.5649  0.3251  0.1582
 5847SOL     OW23119   0.503   2.536   5.280  0.2070  0.4455  0.5354
 5847SOL    HW223120   0.539   2.461   5.233 -1.0081 -0.5518  1.1289
 5847SOL    HW323121   0.541   2.613   5.236  2.0313 -0.4983  0.3617
 5847SOL    MW423122   0.513   2.537   5.268 -0.5519  0.0176 -0.0168
 5848SOL     OW23123   4.674   3.713   3.983  0.8390 -0.1969  0.2598
 5848SOL    HW223124   4.668   3.702   4.078 -0.2887  1.2927  0.3902
 5848SOL    HW323125   4.763   3.683   3.961  1.1580 -0.4480  1.7826
 5848SOL    MW423126   4.685   3.707   3.993  0.0227  0.3761 -0.4299
 5849SOL     OW23127   4.718   4.981   1.664 -0.0470  0.4284  0.0443
 5849SOL    HW223128   4.797   4.934   1.636  0.4021  1.6080 -0.7121
 5849SOL    HW323129   4.695   4.940   1.747  0.6815 -0.7218 -0.2874
 5849SOL    MW423130   4.726   4.969   1.671  0.1477  0.0689 -0.2971
 5850SOL     OW23131   0.435   0.347   4.019  0.2948 -0.1447  0.1032
 5850SOL    HW223132   0.388   0.265   4.034  0.7551 -0.1557  1.6551
 5850SOL    HW323133   0.513   0.322   3.971 -0.6869 -0.2802 -1.4879
 5850SOL    MW423134   0.439   0.333   4.015 -0.1883 -0.0656 -0.3463
 5851SOL     OW23135   1.276   4.023   4.891 -0.2865 -0.1700  0.0260
 5851SOL    HW223136   1.336   3.953   4.916  0.1923 -0.0129 -0.6515
 5851SOL    HW323137   1.220   3.985   4.823  0.1769  0.1803 -0.5652
 5851SOL    MW423138   1.277   4.009   4.885  1.0499 -0.0667  0.5429
 5852SOL     OW23139   3.056   1.102   3.771 -0.1645  0.0859  0.5759
 5852SOL    HW223140   3.101   1.050   3.704  1.4917 -1.6825  2.9060
 5852SOL    HW323141   2.965   1.072   3.767  0.4980 -2.1537  1.0168
 5852SOL    MW423142   3.050   1.091   3.762  0.5406  0.0938 -0.1729
 5853SOL     OW23143   3.585   0.829   4.751  0.4959  0.6263  0.2168
 5853SOL    HW223144   3.661   0.859   4.800  0.5065  1.2910 -0.1888
 5853SOL    HW323145   3.511   0.875   4.791  0.2571 -0.2378  0.7993
 5853SOL    MW423146   3.585   0.839   4.763 -0.3118  0.5421 -0.3013
 5854SOL     OW23147   1.558   5.650   6.283  0.4463  0.0933  0.3057
 5854SOL    HW223148   1.596   5.685   6.203  1.9034  1.8773  1.6661
 5854SOL    HW323149   1.596   5.704   6.353 -1.5589 -0.6959  2.1189
 5854SOL    MW423150   1.568   5.662   6.282  0.5023  0.5873  0.3521
 5855SOL     OW23151   6.380   2.862   5.275 -0.2527  0.5145 -0.5977
 5855SOL    HW223152   6.341   2.867   5.188 -0.3583 -2.2506 -0.7974
 5855SOL    HW323153   6.474   2.865   5.259 -0.2631 -0.4198 -0.8617
 5855SOL    MW423154   6.387   2.863   5.261 -0.2798  0.2873  0.0510
 5856SOL     OW23155   4.949   4.053   3.487  0.2361  0.1832  0.0002
 5856SOL    HW223156   5.008   3.996   3.437  0.0559  0.1249 -0.1491
 5856SOL    HW323157   5.004   4.092   3.554 -0.0035 -1.5124  1.2266
 5856SOL    MW423158   4.964   4.051   3.489  0.0814  0.0903  0.2721
 5857SOL     OW23159   3.462   1.460   4.020 -0.4009  0.0539 -0.1976
 5857SOL    HW223160   3.545   1.500   3.997 -0.2486  0.8155  1.5472
 5857SOL    HW323161   3.396   1.520   3.985 -0.2087  0.0798 -0.5170
 5857SOL    MW423162   3.464   1.473   4.013 -0.3020  0.2659  0.1976
 5858SOL     OW23163   2.597   2.491   3.725 -0.1741  0.1926 -0.3402
 5858SOL    HW223164   2.545   2.429   3.776 -0.8520  0.1522 -1.0561
 5858SOL    HW323165   2.684   2.488   3.764 -0.3447 -0.8001 -0.0112
 5858SOL    MW423166   2.602   2.482   3.737 -0.0263 -0.0014 -0.0129
 5859SOL     OW23167   4.562   3.657   0.340 -0.0164 -0.9283 -0.3902
 5859SOL    HW223168   4.576   3.563   0.338 -2.2988 -1.3046 -2.0962
 5859SOL    HW323169   4.514   3.673   0.422 -1.3988 -1.5827 -1.0428
 5859SOL    MW423170   4.558   3.647   0.351 -0.1524 -0.2737 -0.9133
 5860SOL     OW23171   1.414   6.320   4.199  0.5799 -0.4139 -0.3651
 5860SOL    HW223172   1.496   6.370   4.201  0.7473 -0.5994 -1.7727
 5860SOL    HW323173   1.350   6.378   4.240  1.8638 -1.2115  3.0959
 5860SOL    MW423174   1.416   6.334   4.205  0.1117 -1.0056 -1.0059
 5861SOL     OW23175   5.520   4.414   5.755 -0.0287  0.1247 -0.2273
 5861SOL    HW223176   5.538   4.414   5.849  0.9252  0.5599 -0.4041
 5861SOL    HW323177   5.599   4.449   5.714 -0.5298  0.2039 -1.1793
 5861SOL    MW423178   5.533   4.419   5.762  0.2421 -0.0109  0.4619
 5862SOL     OW23179   2.721   5.057   5.936 -0.0571  0.0044 -0.5337
 5862SOL    HW223180   2.645   5.018   5.980  1.3344  0.9783  3.0799
 5862SOL    HW323181   2.698   5.149   5.927 -0.1499 -0.1093 -1.4685
 5862SOL    MW423182   2.708   5.064   5.941 -0.4350 -0.2647  0.2506
 5863SOL     OW23183   6.192   5.565   5.302  0.1394 -0.4503  0.0092
 5863SOL    HW223184   6.178   5.485   5.251 -0.5835 -0.3168 -0.0240
 5863SOL    HW323185   6.162   5.543   5.390 -0.5288 -0.0801 -0.1145
 5863SOL    MW423186   6.186   5.552   5.307 -0.5541  0.1829 -0.9479
 5864SOL     OW23187   2.320   4.102   2.666  0.4259  0.2532  0.2062
 5864SOL    HW223188   2.247   4.044   2.690  0.3937  0.7277  1.2906
 5864SOL    HW323189   2.343   4.075   2.577 -0.2649 -0.7338  0.3055
 5864SOL    MW423190   2.313   4.090   2.657 -0.2254 -0.1584  0.3462
 5865SOL     OW23191   5.226   0.095   2.555  0.6076 -0.2305 -0.2453
 5865SOL    HW223192   5.225   0.136   2.468 -0.4150 -0.4605 -0.3555
 5865SOL    HW323193   5.229   0.001   2.537 -1.2437 -0.3670 -0.1030
 5865SOL    MW423194   5.226   0.088   2.541 -0.7396  0.4175  0.0260
 5866SOL     OW23195   0.122   4.613   2.998 -0.7361  0.1450  0.2380
 5866SOL    HW223196   0.093   4.630   2.908 -0.4671  0.5721  0.2288
 5866SOL    HW323197   0.097   4.691   3.047  0.2408  0.4603  0.2590
 5866SOL    MW423198   0.115   4.625   2.992  0.3447 -0.1565  0.1511
 5867SOL     OW23199   3.763   3.744   2.966  0.1578 -0.8616 -0.2156
 5867SOL    HW223200   3.701   3.680   3.002  0.2714  0.0151  1.6513
 5867SOL    HW323201   3.834   3.691   2.931 -0.6434 -1.8138 -0.4412
 5867SOL    MW423202   3.764   3.728   2.966 -0.6830  0.2422  0.5839
 5868SOL     OW23203   2.542   5.995   0.935 -0.1096  0.2056 -0.7720
 5868SOL    HW223204   2.490   5.934   0.882 -0.0094  0.5097 -1.2285
 5868SOL    HW323205   2.483   6.069   0.950 -0.0847  0.1883 -0.5883
 5868SOL    MW423206   2.527   5.997   0.930 -0.4569  0.0252  0.5674
 5869SOL     OW23207   0.615   1.484   4.106 -0.0983 -0.1416 -0.2406
 5869SOL    HW223208   0.697   1.521   4.073 -0.1320  0.3189  0.1739
 5869SOL    HW323209   0.635   1.457   4.196 -0.9481  1.9920  0.6625
 5869SOL    MW423210   0.628   1.485   4.114  0.6010  0.3603 -0.1703
 5870SOL     OW23211   5.926   5.881   6.118  1.0936  0.1954  0.2789
 5870SOL    HW223212   5.997   5.822   6.092  1.0432  0.4059 -0.3451
 5870SOL    HW323213   5.955   5.919   6.201  0.0515 -2.5763  2.0586
 5870SOL    MW423214   5.939   5.878   6.126 -0.5516 -0.3707  0.1789
 5871SOL     OW23215   1.291   2.229   5.131  0.4565  0.2361 -0.2533
 5871SOL    HW223216   1.320   2.313   5.097 -1.1668  0.6768 -0.6324
 5871SOL    HW323217   1.265   2.179   5.053 -4.3267  1.6348  0.1017
 5871SOL    MW423218   1.291   2.233   5.116 -0.6475 -0.3618 -0.1562
 5872SOL     OW23219   3.484   5.704   1.083  0.2732  0.1252 -0.0101
 5872SOL    HW223220   3.424   5.695   1.156  0.1531  0.1246 -0.1089
 5872SOL    HW323221   3.569   5.724   1.123  0.4965 -1.1681  0.2058
 5872SOL    MW423222   3.488   5.705   1.098 -0.5335  0.5926 -0.4597
 5873SOL     OW23223   4.355   0.552   2.269 -0.0991  0.4884 -0.2021
 5873SOL    HW223224   4.427   0.502   2.232 -0.2075 -0.2094  0.5035
 5873SOL    HW323225   4.308   0.489   2.324 -1.3927  0.8662 -0.8413
 5873SOL    MW423226   4.358   0.537   2.272  0.2365  0.2563  0.4614
 5874SOL     OW23227   0.086   4.891   3.859 -0.1714  0.1614 -0.7540
 5874SOL    HW223228   0.079   4.924   3.769  1.4990  0.5164 -0.7844
 5874SOL    HW323229   0.069   4.967   3.914 -1.7399 -0.1749 -0.7363
 5874SOL    MW423230   0.083   4.906   3.854  0.4618 -0.3190  0.2794
 5875SOL     OW23231   2.319   4.864   0.744 -0.3804  0.7617 -0.2720
 5875SOL    HW223232   2.333   4.932   0.677 -1.3726  1.0999 -0.1621
 5875SOL    HW323233   2.297   4.786   0.694  3.4973 -0.3452 -0.5737
 5875SOL    MW423234   2.318   4.863   0.728  0.1224 -0.0075 -0.5219
 5876SOL     OW23235   5.213   4.434   0.240 -0.3059  0.1429  0.0204
 5876SOL    HW223236   5.196   4.349   0.281 -0.0860 -0.9174 -1.9735
 5876SOL    HW323237   5.308   4.444   0.241 -0.3694  0.8382  1.0845
 5876SOL    MW423238   5.223   4.424   0.246 -0.1265 -0.6113  0.3932
 5877SOL     OW23239   5.630   0.951   0.257  0.4793 -0.3472 -0.2424
 5877SOL    HW223240   5.593   0.971   0.343  1.5785  0.1105  0.1449
 5877SOL    HW323241   5.640   1.037   0.215 -1.2966 -0.6534 -1.3840
 5877SOL    MW423242   5.627   0.965   0.262 -0.2029 -0.5330  0.0910
 5878SOL     OW23243   0.335   5.155   2.404  0.3159  0.2058 -0.4478
 5878SOL    HW223244   0.310   5.243   2.432 -0.3946  0.3591 -1.5372
 5878SOL    HW323245   0.362   5.112   2.485 -0.5560  1.0121  0.3019
 5878SOL    MW423246   0.335   5.161   2.418  0.1399 -0.2899 -0.0076
 5879SOL     OW23247   2.976   6.302   0.674 -0.3595 -0.3025 -0.3783
 5879SOL    HW223248   2.895   6.342   0.706 -0.4613  0.1626 -1.1635
 5879SOL    HW323249   2.976   6.322   0.580  0.6859 -0.2583 -0.3800
 5879SOL    MW423250   2.965   6.310   0.666 -0.6683 -0.2697  0.2866
 5880SOL     OW23251   5.696   3.297   4.275  0.3146 -0.1864 -0.3007
 5880SOL    HW223252   5.728   3.210   4.252 -0.4575 -0.6651  0.3664
 5880SOL    HW323253   5.665   3.288   4.366 -1.0457  0.4050 -0.6712
 5880SOL    MW423254   5.696   3.285   4.284  0.2848 -0.1749  0.5079
 5881SOL     OW23255   4.003   1.348   2.988  0.1897 -0.0880 -0.2476
 5881SOL    HW223256   3.933   1.352   3.054 -1.2706 -0.3196 -1.6992
 5881SOL    HW323257   4.008   1.438   2.955 -0.2814 -0.3295 -0.9849
 5881SOL    MW423258   3.994   1.360   2.993 -0.5658  0.2455  0.5163
 5882SOL     OW23259   5.628   4.399   5.051  0.0878  0.2725 -0.4504
 5882SOL    HW223260   5.705   4.442   5.088 -1.0825  1.6132  0.5321
 5882SOL    HW323261   5.555   4.456   5.075 -1.3787 -1.6255 -0.2264
 5882SOL    MW423262   5.628   4.412   5.059 -0.5701 -0.7302 -0.1744
 5883SOL     OW23263   1.650   3.286   5.732 -0.8282  0.1175 -0.4855
 5883SOL    HW223264   1.677   3.359   5.788 -0.8246  1.3407 -2.0087
 5883SOL    HW323265   1.681   3.208   5.778 -2.2983  0.8863  2.0637
 5883SOL    MW423266   1.657   3.286   5.746 -0.4539  0.1028 -0.1116
 5884SOL     OW23267   6.018   5.541   5.552  0.0758 -0.0195 -0.4005
 5884SOL    HW223268   5.955   5.524   5.483 -1.1091 -2.3951  1.1221
 5884SOL    HW323269   5.987   5.621   5.595  0.7826  1.4382 -2.4346
 5884SOL    MW423270   6.006   5.549   5.548  0.1882 -0.3163  0.5349
 5885SOL     OW23271   0.514   2.424   3.051  0.6875  0.4930  0.7905
 5885SOL    HW223272   0.436   2.479   3.060 -0.2116 -0.7242  0.7744
 5885SOL    HW323273   0.495   2.347   3.105  1.5403 -0.1912  0.1528
 5885SOL    MW423274   0.501   2.421   3.060 -0.1645  0.2920  0.2287
 5886SOL     OW23275   0.418   6.209   4.415  0.4436  0.1021 -0.4092
 5886SOL    HW223276   0.332   6.170   4.397 -1.0126  3.2956 -1.0524
 5886SOL    HW323277   0.408   6.248   4.502  1.6391 -0.4153 -0.0251
 5886SOL    MW423278   0.405   6.209   4.424  0.2259  0.1787 -0.0391
 5887SOL     OW23279   2.139   4.934   5.069 -0.6891 -0.0795  0.4273
 5887SOL    HW223280   2.200   4.900   5.135 -0.5175 -0.8258 -0.1035
 5887SOL    HW323281   2.059   4.954   5.117 -0.5723 -0.6434  0.8516
 5887SOL    MW423282   2.137   4.932   5.084 -0.3113  0.7505  0.2007
 5888SOL     OW23283   4.004   4.758   2.236 -0.6586  0.6006  0.0875
 5888SOL    HW223284   3.920   4.787   2.202 -0.8764  3.4873  2.6017
 5888SOL    HW323285   4.068   4.812   2.190  0.0073 -1.7993 -2.0479
 5888SOL    MW423286   4.002   4.769   2.226 -0.4020  0.3017  0.8517
 5889SOL     OW23287   6.273   6.013   5.015  0.2328  0.3573  0.8624
 5889SOL    HW223288   6.179   6.001   4.998  0.1680  0.8332  0.8882
 5889SOL    HW323289   6.277   6.079   5.084  0.5300 -0.7821  1.9808
 5889SOL    MW423290   6.261   6.020   5.022  0.7246 -0.3931  0.7256
 5890SOL     OW23291   3.104   3.880   1.354 -0.2431 -0.0875 -0.4353
 5890SOL    HW223292   3.042   3.875   1.427  1.0139  0.5315  0.7290
 5890SOL    HW323293   3.062   3.831   1.283 -2.1363  0.4675  0.2281
 5890SOL    MW423294   3.090   3.873   1.354 -0.5176  0.0387  0.1434
 5891SOL     OW23295   5.692   0.957   2.111  0.3303  0.7067  0.4587
 5891SOL    HW223296   5.622   0.967   2.176 -0.2678 -0.2003 -0.0315
 5891SOL    HW323297   5.648   0.962   2.027  0.9737  0.9466  0.1337
 5891SOL    MW423298   5.677   0.959   2.109  0.1346 -0.2192 -0.7365
 5892SOL     OW23299   4.946   1.037   3.626 -0.2208  0.7871  0.4344
 5892SOL    HW223300   4.910   0.990   3.702 -1.9525  0.2692 -0.6436
 5892SOL    HW323301   4.994   0.971   3.577 -0.7137  0.6691  0.1055
 5892SOL    MW423302   4.947   1.022   3.630 -0.4914 -0.2520  0.1599
 5893SOL     OW23303   2.647   1.909   5.488  0.8610  0.5339 -0.6156
 5893SOL    HW223304   2.698   1.969   5.434  1.1572 -0.6001 -1.6631
 5893SOL    HW323305   2.643   1.828   5.436 -2.5852  0.7406 -0.9002
 5893SOL    MW423306   2.653   1.906   5.474  0.1598  0.0320 -0.5367
 5894SOL     OW23307   1.983   2.296   0.958 -0.8173  0.6274  0.3681
 5894SOL    HW223308   2.004   2.367   1.018 -1.6824  0.1229  1.3000
 5894SOL    HW323309   1.888   2.301   0.947 -0.7126  0.4934 -0.6832
 5894SOL    MW423310   1.973   2.306   0.964 -0.5350 -0.6866  0.2738
 5895SOL     OW23311   3.274   3.450   4.792 -0.1202 -0.3571 -0.1216
 5895SOL    HW223312   3.335   3.396   4.841  1.4104  0.2540 -1.2521
 5895SOL    HW323313   3.329   3.519   4.754 -1.6297  0.5979 -0.6561
 5895SOL    MW423314   3.290   3.452   4.793 -0.1430 -0.8260  0.4384
 5896SOL     OW23315   0.921   3.054   0.804  0.1729 -0.5037  0.5022
 5896SOL    HW223316   0.915   3.147   0.781 -0.1236 -0.6980 -0.2370
 5896SOL    HW323317   0.988   3.050   0.872  1.7725 -0.0216 -0.9957
 5896SOL    MW423318   0.929   3.066   0.810  0.3388  0.2703 -0.1106
 5897SOL     OW23319   5.066   1.061   2.074 -0.5358  0.4762  0.3069
 5897SOL    HW223320   5.094   1.057   2.165 -1.1042 -0.1606  0.4664
 5897SOL    HW323321   5.052   0.969   2.050  0.2321  0.5923 -0.6231
 5897SOL    MW423322   5.068   1.048   2.083 -0.5500  0.3842 -0.5622
 5898SOL     OW23323   5.103   6.259   2.737 -0.1874 -0.7307  0.1968
 5898SOL    HW223324   5.143   6.187   2.688 -1.2248 -1.9974  1.1382
 5898SOL    HW323325   5.037   6.294   2.678  1.8009  1.0083 -1.1494
 5898SOL    MW423326   5.100   6.254   2.723 -0.2855  0.1352  0.6386
 5899SOL     OW23327   5.358   1.861   0.433 -0.3992  0.3599 -0.3581
 5899SOL    HW223328   5.358   1.955   0.418  1.1920  0.3924 -0.2936
 5899SOL    HW323329   5.398   1.823   0.355  0.0408 -0.1575  0.1014
 5899SOL    MW423330   5.363   1.868   0.421 -0.0416 -0.2626 -0.1134
 5900SOL     OW23331   0.679   2.861   1.729  0.2368 -0.1082  0.0583
 5900SOL    HW223332   0.587   2.843   1.743  0.7452 -2.8425  0.3927
 5900SOL    HW323333   0.681   2.949   1.691 -2.3545  0.6419  1.4466
 5900SOL    MW423334   0.667   2.870   1.726  0.6070  0.1996 -0.0087
 5901SOL     OW23335   1.381   1.907   6.105  0.4044 -0.7483  0.2448
 5901SOL    HW223336   1.424   1.845   6.046  2.9207  0.4631  0.6923
 5901SOL    HW323337   1.372   1.987   6.053  2.0729  0.1336  1.2426
 5901SOL    MW423338   1.385   1.910   6.090 -0.1819 -0.1380  0.1869
 5902SOL     OW23339   5.417   4.637   4.976  0.0665 -0.2442  0.3736
 5902SOL    HW223340   5.415   4.656   4.882 -0.0349  0.3479  0.4913
 5902SOL    HW323341   5.328   4.655   5.006  0.2854  0.2897  0.7158
 5902SOL    MW423342   5.405   4.642   4.967 -1.2124  0.7833 -0.1464
 5903SOL     OW23343   2.273   3.471   3.635 -0.1191  0.1350  0.7005
 5903SOL    HW223344   2.322   3.547   3.667 -0.7792  1.7991 -1.9303
 5903SOL    HW323345   2.229   3.436   3.713  1.3466  1.5337  2.2432
 5903SOL    MW423346   2.273   3.476   3.650  0.0749  0.1036 -0.5502
 5904SOL     OW23347   0.072   4.847   1.862  0.0160 -0.0418 -0.1748
 5904SOL    HW223348   0.021   4.915   1.817 -0.3853 -0.2084  0.0232
 5904SOL    HW323349   0.022   4.766   1.847 -0.9267  0.1177  1.7728
 5904SOL    MW423350   0.058   4.845   1.854 -0.0152 -0.0933 -0.1203
 5905SOL     OW23351   2.002   1.523   0.982  0.3475 -0.0226  0.1471
 5905SOL    HW223352   1.989   1.447   0.926 -0.8455  0.9591 -0.9446
 5905SOL    HW323353   2.058   1.581   0.931 -0.6627  0.8325 -0.0108
 5905SOL    MW423354   2.008   1.521   0.968  0.3931  0.1186 -0.7619
 5906SOL     OW23355   3.114   1.798   2.585 -0.3272 -0.2105  0.2278
 5906SOL    HW223356   3.064   1.872   2.550 -2.6094 -1.2187  1.1655
 5906SOL    HW323357   3.083   1.789   2.675 -0.6558 -2.7180 -0.0669
 5906SOL    MW423358   3.103   1.806   2.592  0.2247  0.2498 -0.5257
 5907SOL     OW23359   3.847   2.895   5.333 -0.1222  0.2168 -0.1726
 5907SOL    HW223360   3.766   2.942   5.313  0.2710  0.3354 -1.5349
 5907SOL    HW323361   3.846   2.820   5.275 -0.6837 -1.4667  1.8952
 5907SOL    MW423362   3.836   2.892   5.323 -1.2049  0.1432  0.0790
 5908SOL     OW23363   3.474   3.002   1.383 -0.5565 -0.3086  0.2960
 5908SOL    HW223364   3.421   3.032   1.309  0.5668 -0.3873 -0.5720
 5908SOL    HW323365   3.412   2.957   1.441 -1.4536 -0.2573 -0.5979
 5908SOL    MW423366   3.459   3.000   1.381 -0.3253 -0.1143 -0.1447
 5909SOL     OW23367   1.770   3.774   2.341 -0.1651  0.1324  0.3596
 5909SOL    HW223368   1.766   3.788   2.247 -0.3432 -0.6551  0.2446
 5909SOL    HW323369   1.712   3.699   2.357  0.4066 -0.1860  0.9993
 5909SOL    MW423370   1.762   3.766   2.331  0.5762 -0.6998  0.1866
 5910SOL     OW23371   5.415   4.267   2.025  0.9430  0.0610  0.1517
 5910SOL    HW223372   5.449   4.320   2.098  1.2972  0.5245 -0.3457
 5910SOL    HW323373   5.396   4.182   2.065  3.5665 -0.5357  0.2771
 5910SOL    MW423374   5.417   4.263   2.040 -0.1166 -0.2390 -0.1183
 5911SOL     OW23375   5.180   3.938   0.320 -0.3283  0.0778  0.1695
 5911SOL    HW223376   5.141   3.886   0.250  1.7719 -2.4022  0.7056
 5911SOL    HW323377   5.274   3.939   0.300  0.3674 -0.8819  3.0028
 5911SOL    MW423378   5.188   3.931   0.308 -0.2590  0.5704 -0.0089
 5912SOL     OW23379   6.314   4.623   4.222  0.5003 -0.0746  0.4309
 5912SOL    HW223380   6.302   4.623   4.127 -1.4467 -1.8920  0.5992
 5912SOL    HW323381   6.305   4.715   4.247  0.6774  0.3828 -1.0946
 5912SOL    MW423382   6.311   4.635   4.213  0.0636  0.8799 -0.2860
 5913SOL     OW23383   3.223   4.191   5.994  0.0803 -0.9464  0.0991
 5913SOL    HW223384   3.171   4.218   5.919  0.6689  1.6828  0.5352
 5913SOL    HW323385   3.226   4.268   6.051  1.8356 -1.9904  1.5618
 5913SOL    MW423386   3.217   4.204   5.992 -0.1876 -0.0569  0.3395
 5914SOL     OW23387   4.434   2.857   2.385 -0.2318 -0.2633  0.6692
 5914SOL    HW223388   4.401   2.869   2.296 -0.2189 -2.5106  0.3060
 5914SOL    HW323389   4.421   2.764   2.404  1.3592 -0.2095  2.3684
 5914SOL    MW423390   4.428   2.846   2.376 -0.0950 -0.0564 -0.0909
 5915SOL     OW23391   2.823   1.554   5.497 -0.3133  0.4179  0.4147
 5915SOL    HW223392   2.854   1.645   5.493 -0.2109  0.4160  1.1255
 5915SOL    HW323393   2.729   1.560   5.478 -0.1425  0.5619 -0.4628
 5915SOL    MW423394   2.815   1.567   5.494 -0.0904 -0.2822 -0.4622
 5916SOL     OW23395   4.512   5.974   2.443  0.5515 -0.0263  0.4062
 5916SOL    HW223396   4.432   6.024   2.458 -1.1417 -2.0711 -1.1227
 5916SOL    HW323397   4.540   5.946   2.530 -1.0298 -0.1601  0.8966
 5916SOL    MW423398   4.506   5.977   2.456 -0.3075 -0.5444  0.1464
 5917SOL     OW23399   2.003   2.287   3.832 -0.0042  0.6055 -0.4657
 5917SOL    HW223400   2.004   2.234   3.911  0.3983  2.1998  0.6632
 5917SOL    HW323401   2.078   2.256   3.781  0.5857  0.4880  0.4535
 5917SOL    MW423402   2.013   2.276   3.835  0.6201 -0.1424  0.0909
 5918SOL     OW23403   5.298   4.624   5.346 -0.0819  0.2332 -0.5128
 5918SOL    HW223404   5.355   4.548   5.346 -0.6972 -0.2324 -0.6377
 5918SOL    HW323405   5.346   4.690   5.396  0.4644 -0.2259 -0.4238
 5918SOL    MW423406   5.312   4.623   5.353  0.1891  0.1987  0.1079
 5919SOL     OW23407   3.847   1.494   4.914  0.0642 -0.2151  0.2517
 5919SOL    HW223408   3.804   1.575   4.886 -0.5844 -0.4783  0.4510
 5919SOL    HW323409   3.900   1.467   4.839  0.6369  0.6306  0.3494
 5919SOL    MW423410   3.848   1.501   4.901  0.1986 -0.5161  0.2939
 5920SOL     OW23411   2.323   0.869   2.315  0.2015  0.2350  0.4961
 5920SOL    HW223412   2.276   0.788   2.334  1.3525 -0.7268 -0.5307
 5920SOL    HW323413   2.390   0.873   2.383 -0.3334  0.7357  0.9960
 5920SOL    MW423414   2.326   0.859   2.326  0.1925 -0.3030 -0.2600
 5921SOL     OW23415   4.763   0.476   1.183 -0.1947 -0.0536  0.1645
 5921SOL    HW223416   4.715   0.558   1.194 -0.2163  0.0348 -0.5255
 5921SOL    HW323417   4.829   0.495   1.116 -1.4259 -1.0900 -1.4279
 5921SOL    MW423418   4.766   0.489   1.176 -0.3048  0.2441 -0.2569
 5922SOL     OW23419   1.887   6.373   4.967 -0.5560 -0.2116 -0.1198
 5922SOL    HW223420   1.829   6.329   5.029 -0.4055  0.6136  0.6291
 5922SOL    HW323421   1.830   6.433   4.919 -0.6777 -0.8679 -0.8276
 5922SOL    MW423422   1.872   6.375   4.969 -0.0548 -0.0574 -0.3740
 5923SOL     OW23423   4.722   3.881   5.473 -0.2373 -0.0350 -0.0940
 5923SOL    HW223424   4.793   3.938   5.502  1.5910 -1.3805 -1.6987
 5923SOL    HW323425   4.653   3.941   5.444  1.2471  1.3600 -0.8642
 5923SOL    MW423426   4.722   3.896   5.473  0.5919 -0.4063  0.2687
 5924SOL     OW23427   4.202   6.257   3.439  0.2432 -0.0385 -0.2566
 5924SOL    HW223428   4.196   6.288   3.530 -1.0881 -0.5545 -0.1497
 5924SOL    HW323429   4.241   6.331   3.392  0.6212  0.3689  0.6583
 5924SOL    MW423430   4.207   6.271   3.445  0.2024 -0.0595  0.0610
 5925SOL     OW23431   0.393   3.433   0.752 -0.0930  0.0890  0.2163
 5925SOL    HW223432   0.431   3.511   0.792  0.4782 -0.9261  1.7727
 5925SOL    HW323433   0.345   3.465   0.676  0.0868  1.9434  0.8434
 5925SOL    MW423434   0.391   3.447   0.747  0.1033  0.3366  0.7599
 5926SOL     OW23435   1.002   2.024   0.106 -0.3307 -0.2429  0.0549
 5926SOL    HW223436   1.069   2.091   0.122  0.7913 -0.8255 -1.8833
 5926SOL    HW323437   0.969   2.043   0.018 -2.3501 -0.3274  0.7344
 5926SOL    MW423438   1.006   2.036   0.097 -0.1034 -0.3351 -0.1919
 5927SOL     OW23439   5.667   2.369   4.687 -0.4513 -0.4636 -0.1791
 5927SOL    HW223440   5.633   2.417   4.762  0.2882 -0.2756  0.0388
 5927SOL    HW323441   5.674   2.435   4.618  3.0216  0.4230  0.8429
 5927SOL    MW423442   5.663   2.384   4.688 -0.2611  0.2745 -0.4430
 5928SOL     OW23443   4.121   5.856   2.431  0.1497 -0.5989 -0.3343
 5928SOL    HW223444   4.028   5.855   2.407  0.0353  0.3819  0.0466
 5928SOL    HW323445   4.160   5.919   2.371  0.7857 -1.7852 -1.2085
 5928SOL    MW423446   4.114   5.864   2.420 -0.4076  0.5042  0.1725
 5929SOL     OW23447   1.888   3.846   5.957  0.1461  0.9232  0.0881
 5929SOL    HW223448   1.834   3.889   5.891 -1.6876 -1.1608  0.1139
 5929SOL    HW323449   1.942   3.785   5.908  0.4084  0.9666  0.3214
 5929SOL    MW423450   1.888   3.844   5.942 -0.3130  0.3981 -0.4435
 5930SOL     OW23451   6.096   5.748   1.093  0.4040  0.3556 -0.4568
 5930SOL    HW223452   6.116   5.738   0.999  2.1978  1.9237 -0.3195
 5930SOL    HW323453   6.175   5.718   1.137  0.3156  1.4010  0.4539
 5930SOL    MW423454   6.109   5.743   1.086 -0.4817  0.1331  0.7056
 5931SOL     OW23455   5.927   1.650   4.794 -0.7607  0.0756 -0.7080
 5931SOL    HW223456   5.865   1.616   4.730 -1.5605 -1.2925  0.7303
 5931SOL    HW323457   6.006   1.597   4.782 -0.4274  0.7129 -1.4242
 5931SOL    MW423458   5.929   1.639   4.784 -0.6838  0.0780 -0.3332
 5932SOL     OW23459   1.988   2.386   5.214 -0.4962  0.0319  0.9369
 5932SOL    HW223460   1.947   2.450   5.273 -3.0308  0.0121 -0.6194
 5932SOL    HW323461   2.004   2.434   5.133  1.1404 -0.4060  0.9656
 5932SOL    MW423462   1.984   2.401   5.211 -0.5370 -0.7833 -0.3734
 5933SOL     OW23463   1.749   5.725   4.459  0.1044  0.9584 -0.0812
 5933SOL    HW223464   1.759   5.742   4.365  0.4214  0.2294 -0.1885
 5933SOL    HW323465   1.692   5.649   4.464 -1.0522  1.8217  0.3804
 5933SOL    MW423466   1.743   5.717   4.447  0.2148  0.4835  0.4647
 5934SOL     OW23467   2.189   6.356   2.366  0.2405  0.2696 -0.6204
 5934SOL    HW223468   2.180   6.450   2.348 -1.1069  0.1264 -0.8163
 5934SOL    HW323469   2.127   6.314   2.306 -0.3907 -0.6170  0.6055
 5934SOL    MW423470   2.179   6.363   2.355  0.1755  0.0417 -0.1316
 5935SOL     OW23471   1.226   3.050   3.374  0.2488 -0.3852  0.7632
 5935SOL    HW223472   1.318   3.070   3.354  0.2988  0.6283  1.8560
 5935SOL    HW323473   1.204   3.111   3.444 -1.4625 -0.1710  0.0777
 5935SOL    MW423474   1.235   3.061   3.381 -0.0339  0.1723  0.0413
 5936SOL     OW23475   3.591   0.613   4.319  0.5502  0.0368  0.1121
 5936SOL    HW223476   3.537   0.615   4.398 -0.5647 -2.0269 -0.5230
 5936SOL    HW323477   3.603   0.705   4.296 -0.3577  0.6354  1.8270
 5936SOL    MW423478   3.585   0.625   4.327  0.1866  0.7341 -0.5989
 5937SOL     OW23479   5.403   5.789   0.958 -0.5862 -0.7364  0.0195
 5937SOL    HW223480   5.361   5.749   1.035 -0.3574 -1.8565 -0.4231
 5937SOL    HW323481   5.337   5.849   0.924 -0.2083  0.8530  1.8647
 5937SOL    MW423482   5.389   5.792   0.964  0.4763 -0.3164 -0.0286
 5938SOL     OW23483   2.548   5.686   0.281 -0.2530  0.5877  0.8061
 5938SOL    HW223484   2.615   5.717   0.341  2.8920 -3.2869 -0.2436
 5938SOL    HW323485   2.519   5.764   0.234  3.4913  2.5736  1.4384
 5938SOL    MW423486   2.553   5.700   0.283 -0.4144  0.2732 -0.2609
 5939SOL     OW23487   5.071   1.591   3.632 -0.4297 -0.7330 -0.2821
 5939SOL    HW223488   5.087   1.674   3.676 -1.8206 -1.3032  1.4026
 5939SOL    HW323489   5.128   1.593   3.555  0.3207  1.3201  0.2729
 5939SOL    MW423490   5.081   1.602   3.627 -0.0989 -0.2765 -0.1572
 5940SOL     OW23491   5.311   0.937   0.479 -0.0341 -0.1494 -0.1083
 5940SOL    HW223492   5.230   0.886   0.482  0.1779 -0.4554  1.5491
 5940SOL    HW323493   5.284   1.023   0.447 -0.9426 -0.3911 -0.0257
 5940SOL    MW423494   5.297   0.941   0.475  0.6213  0.5434  0.5734
 5941SOL     OW23495   6.243   2.056   5.546 -0.3007  0.2061 -0.5018
 5941SOL    HW223496   6.227   1.962   5.532 -1.7632  0.4225 -0.4550
 5941SOL    HW323497   6.241   2.094   5.459  1.0857  0.1086 -0.5991
 5941SOL    MW423498   6.241   2.048   5.533  0.0592  0.1560  0.2296
 5942SOL     OW23499   1.648   0.957   1.875 -0.3974  0.4683 -0.4416
 5942SOL    HW223500   1.697   0.913   1.945  1.0846 -0.4293 -1.9671
 5942SOL    HW323501   1.703   1.031   1.851 -0.1170 -0.1295 -1.6948
 5942SOL    MW423502   1.662   0.961   1.881 -0.0068 -0.7926 -0.3010
 5943SOL     OW23503   5.590   5.783   0.563 -0.3048 -0.0970  0.9177
 5943SOL    HW223504   5.500   5.796   0.592 -0.0234  3.8269  0.6705
 5943SOL    HW323505   5.628   5.871   0.566  2.2648 -0.8378 -2.9755
 5943SOL    MW423506   5.583   5.796   0.567  0.0164  0.3848 -0.2637
 5944SOL     OW23507   5.810   4.560   4.856  0.5571 -0.0012 -0.1445
 5944SOL    HW223508   5.745   4.515   4.802  0.9058  1.3323 -1.7468
 5944SOL    HW323509   5.789   4.532   4.946 -2.5555  0.7127 -0.5052
 5944SOL    MW423510   5.798   4.550   4.861 -0.4424 -0.1281  0.2355
 5945SOL     OW23511   6.325   3.874   4.551 -0.3491  0.6455 -0.1389
 5945SOL    HW223512   6.253   3.860   4.612  0.5184  0.0339  0.7622
 5945SOL    HW323513   6.332   3.969   4.544 -0.5827  0.7199  0.5549
 5945SOL    MW423514   6.316   3.885   4.558  0.3033 -0.0494 -0.1642
 5946SOL     OW23515   3.014   6.215   1.096 -0.1605 -0.2226  0.1118
 5946SOL    HW223516   2.919   6.223   1.104 -0.0641  1.5394 -0.1085
 5946SOL    HW323517   3.027   6.147   1.031 -1.2390 -1.3819  1.0661
 5946SOL    MW423518   3.003   6.207   1.089 -0.0375  0.0050  0.2481
 5947SOL     OW23519   6.105   3.781   2.959  0.4992 -0.4104  0.7322
 5947SOL    HW223520   6.184   3.745   2.998  2.8722  0.0777 -3.0610
 5947SOL    HW323521   6.039   3.712   2.969  1.9849 -1.6916  2.2178
 5947SOL    MW423522   6.106   3.767   2.965  0.4406 -0.1565 -0.1056
 5948SOL     OW23523   2.351   0.974   6.383  0.0705 -0.5439 -0.3331
 5948SOL    HW223524   2.282   0.916   6.351  1.1259 -1.0451 -1.7712
 5948SOL    HW323525   2.416   0.915   6.420  1.8725 -0.4933 -3.1631
 5948SOL    MW423526   2.350   0.958   6.384  0.0136 -0.8592  0.0564
 5949SOL     OW23527   2.713   0.207   2.094 -0.1092  0.2920  0.2800
 5949SOL    HW223528   2.764   0.127   2.104 -0.8400 -0.1863  0.2179
 5949SOL    HW323529   2.687   0.208   2.002 -1.8659 -0.4993  0.7269
 5949SOL    MW423530   2.717   0.197   2.084 -0.1756  0.1399 -0.2066
 5950SOL     OW23531   3.724   1.268   6.088 -0.3100 -0.2065 -0.1017
 5950SOL    HW223532   3.784   1.205   6.049 -1.7050 -1.6215 -0.0486
 5950SOL    HW323533   3.670   1.298   6.016  0.5910  1.3017 -0.2059
 5950SOL    MW423534   3.725   1.264   6.074  0.1375  0.6770  0.3671
 5951SOL     OW23535   3.175   5.757   0.442 -0.5094  0.7517  0.3227
 5951SOL    HW223536   3.099   5.721   0.395 -1.2619  0.7164  1.5151
 5951SOL    HW323537   3.250   5.712   0.404 -1.2482 -0.5894  0.3553
 5951SOL    MW423538   3.175   5.746   0.431 -0.3358  0.2286  0.3859
 5952SOL     OW23539   4.862   2.955   1.904  0.3173 -0.1210 -0.6843
 5952SOL    HW223540   4.859   2.892   1.832  0.4982  0.4445 -1.1888
 5952SOL    HW323541   4.869   3.040   1.862  0.2113  0.2356 -0.0018
 5952SOL    MW423542   4.862   2.958   1.889 -0.3289 -0.2631  0.2782
 5953SOL     OW23543   2.454   1.496   6.077 -0.7830  0.3604 -0.7812
 5953SOL    HW223544   2.393   1.437   6.033 -0.3298 -0.3499 -0.4763
 5953SOL    HW323545   2.429   1.583   6.046 -1.8091  0.0687 -0.8292
 5953SOL    MW423546   2.443   1.499   6.067 -0.0465  0.8195 -0.2802
 5954SOL     OW23547   1.592   4.030   0.894 -0.2464  0.4550  0.2217
 5954SOL    HW223548   1.595   4.057   0.986  0.7967  0.0822  0.3102
 5954SOL    HW323549   1.545   4.101   0.850  0.1620  1.1517  0.8774
 5954SOL    MW423550   1.586   4.043   0.900  0.2647  0.1874 -0.6657
 5955SOL     OW23551   4.015   6.254   3.192 -0.2236  0.5609 -0.5964
 5955SOL    HW223552   3.949   6.213   3.248  1.4132 -1.0840  0.2573
 5955SOL    HW323553   4.084   6.281   3.253  0.5611  0.8506 -1.5886
 5955SOL    MW423554   4.016   6.252   3.207  0.2940  0.0409  0.1183
 5956SOL     OW23555   3.826   6.323   6.362  0.1471 -0.2275 -0.0885
 5956SOL    HW223556   3.860   6.382   6.295 -1.5010  0.1838 -0.6076
 5956SOL    HW323557   3.735   6.348   6.372  0.1393 -0.8297  1.7495
 5956SOL    MW423558   3.819   6.334   6.354 -0.7275  0.4419 -0.4238
 5957SOL     OW23559   1.625   3.372   0.650  0.1259  0.3266 -0.2216
 5957SOL    HW223560   1.574   3.311   0.704  0.5826 -0.2175 -0.3879
 5957SOL    HW323561   1.706   3.324   0.631  1.2222  1.5729  1.0009
 5957SOL    MW423562   1.629   3.358   0.655 -0.4586 -0.7346  1.0045
 5958SOL     OW23563   0.905   1.075   2.280 -0.2407  0.1300 -0.0469
 5958SOL    HW223564   0.842   1.103   2.346 -0.8888 -0.6052 -0.3368
 5958SOL    HW323565   0.986   1.120   2.303 -0.7508  0.7367  0.5979
 5958SOL    MW423566   0.907   1.084   2.292 -0.1052 -0.1752 -0.1768
 5959SOL     OW23567   1.117   3.583   1.278 -0.5409  0.4600  0.2466
 5959SOL    HW223568   1.137   3.491   1.259 -2.3252  0.2602 -0.8575
 5959SOL    HW323569   1.203   3.624   1.286  0.3288 -1.5294  2.0851
 5959SOL    MW423570   1.131   3.576   1.276 -0.2488 -0.2728  0.1119
 5960SOL     OW23571   3.152   3.605   3.021 -0.4722  0.0902 -0.2151
 5960SOL    HW223572   3.158   3.692   3.060 -1.5597  0.1717 -0.1975
 5960SOL    HW323573   3.103   3.553   3.085 -2.1575  0.1922 -1.3501
 5960SOL    MW423574   3.146   3.610   3.035 -0.1974  0.2110 -0.0175
 5961SOL     OW23575   2.081   0.988   3.914  0.2252 -0.7800  0.1310
 5961SOL    HW223576   2.045   1.034   3.838  1.0505 -0.2323  0.0577
 5961SOL    HW323577   2.004   0.953   3.960 -0.3319 -0.4125 -0.5078
 5961SOL    MW423578   2.066   0.990   3.910  0.8737  0.2172  0.1519
 5962SOL     OW23579   5.866   0.609   4.201  0.1116 -0.8013 -0.4530
 5962SOL    HW223580   5.876   0.513   4.206 -0.6782 -0.8571  0.2234
 5962SOL    HW323581   5.807   0.622   4.127 -1.3996 -0.9843  0.6646
 5962SOL    MW423582   5.860   0.598   4.192  0.1343  0.2369  0.0638
 5963SOL     OW23583   5.615   1.711   4.435  0.0396  0.1678  0.5607
 5963SOL    HW223584   5.659   1.671   4.509 -1.5069 -0.0935  1.3891
 5963SOL    HW323585   5.567   1.785   4.473  1.1219  1.5154 -0.5878
 5963SOL    MW423586   5.614   1.716   4.450  0.4276 -0.0804  0.2651
 5964SOL     OW23587   4.430   6.244   0.352  0.2138  0.8586  0.0248
 5964SOL    HW223588   4.475   6.193   0.285 -0.0257  0.2954  0.2887
 5964SOL    HW323589   4.379   6.309   0.304  0.5033  0.8376 -0.3116
 5964SOL    MW423590   4.429   6.246   0.337  0.1776  0.6534  0.2593
 5965SOL     OW23591   0.537   2.705   3.352  0.4169  0.6413  0.4922
 5965SOL    HW223592   0.613   2.726   3.299  0.2441  1.6938  0.6268
 5965SOL    HW323593   0.565   2.634   3.409  1.5955  1.5854  1.1444
 5965SOL    MW423594   0.550   2.699   3.353  0.4700  0.0315  0.0514
 5966SOL     OW23595   4.769   3.976   0.693 -0.2895  0.1032 -0.4044
 5966SOL    HW223596   4.762   3.882   0.709 -1.2637  0.3324  0.6997
 5966SOL    HW323597   4.721   3.990   0.611  0.7180 -0.4752 -1.1166
 5966SOL    MW423598   4.762   3.965   0.684 -0.2543  0.1127 -0.2897
 5967SOL     OW23599   4.035   1.941   3.631  1.2775 -0.2990  0.1270
 5967SOL    HW223600   4.028   1.867   3.691  0.9834 -0.1719  0.2522
 5967SOL    HW323601   4.011   2.017   3.684 -1.7132 -0.4616 -0.7770
 5967SOL    MW423602   4.031   1.941   3.646 -0.1825  0.1528  0.2055
 5968SOL     OW23603   2.782   5.845   3.727  0.2416 -0.2387  0.2498
 5968SOL    HW223604   2.726   5.891   3.790 -1.3567 -1.4138 -0.2406
 5968SOL    HW323605   2.738   5.858   3.643  1.5076  0.0169 -0.3800
 5968SOL    MW423606   2.769   5.853   3.724 -0.0703 -0.2428  0.1479
 5969SOL     OW23607   3.461   2.802   2.299 -0.2682  0.1439  0.1716
 5969SOL    HW223608   3.531   2.864   2.277 -1.4593  2.0073  1.2776
 5969SOL    HW323609   3.484   2.771   2.387  0.4357 -1.2319 -0.4619
 5969SOL    MW423610   3.473   2.806   2.308  0.1525 -0.4410  0.1451
 5970SOL     OW23611   5.728   4.171   0.062 -0.1924 -0.1930  0.0713
 5970SOL    HW223612   5.763   4.203  -0.021  0.3333 -2.0738 -0.4727
 5970SOL    HW323613   5.759   4.235   0.127  1.9321 -0.2853 -0.7770
 5970SOL    MW423614   5.737   4.184   0.060 -0.1790  0.0248  0.1531
 5971SOL     OW23615   5.183   1.012   4.888 -0.4790 -0.3560 -0.1433
 5971SOL    HW223616   5.111   1.074   4.873  0.8875  1.1384 -0.8188
 5971SOL    HW323617   5.232   1.013   4.806  1.1838 -0.1567  0.8127
 5971SOL    MW423618   5.180   1.020   4.875  1.0285  0.5860 -0.4358
 5972SOL     OW23619   6.068   3.167   2.761  0.5807 -0.3786 -0.0101
 5972SOL    HW223620   6.106   3.139   2.844  0.0793 -0.2377  0.2699
 5972SOL    HW323621   6.083   3.262   2.758  1.7713 -0.5672 -0.6962
 5972SOL    MW423622   6.075   3.176   2.771  0.1604  0.2168  0.3986
 5973SOL     OW23623   6.272   0.632   5.711 -0.3275 -0.4573  0.2800
 5973SOL    HW223624   6.223   0.642   5.630 -0.3230  0.4840  0.3919
 5973SOL    HW323625   6.335   0.704   5.710  0.3267 -1.0149  0.6559
 5973SOL    MW423626   6.274   0.643   5.700 -0.1143  0.2711  0.3269
 5974SOL     OW23627   2.284   2.170   3.359  0.3075 -0.5391  0.1822
 5974SOL    HW223628   2.350   2.124   3.411  0.0967 -0.0233  0.9134
 5974SOL    HW323629   2.324   2.256   3.341  1.2271 -1.3807 -2.2192
 5974SOL    MW423630   2.298   2.176   3.363  0.3584  0.2402  0.1256
 5975SOL     OW23631   3.867   4.547   4.928  0.6334  0.2447 -0.3647
 5975SOL    HW223632   3.930   4.475   4.933  0.9859  0.6185  1.4124
 5975SOL    HW323633   3.783   4.504   4.912  0.7102 -0.6786  1.4241
 5975SOL    MW423634   3.864   4.532   4.926 -0.0119 -0.1690  0.1035
 5976SOL     OW23635   4.018   3.655   3.217 -0.1929 -0.1952  0.7620
 5976SOL    HW223636   4.072   3.654   3.297 -1.0976  0.3681  1.3994
 5976SOL    HW323637   3.932   3.684   3.247 -0.7674 -0.7527 -0.2986
 5976SOL    MW423638   4.014   3.659   3.232  0.4691  0.6498 -0.5357
 5977SOL     OW23639   0.505   1.378   6.184  0.2542 -0.5640  0.0114
 5977SOL    HW223640   0.477   1.288   6.169  0.1214 -0.7010  1.0428
 5977SOL    HW323641   0.599   1.373   6.196 -0.1167 -1.1954  4.0966
 5977SOL    MW423642   0.513   1.366   6.183  0.1886 -0.0939  0.0671
 5978SOL     OW23643   0.465   0.752   5.655 -0.2091 -0.1651 -0.0767
 5978SOL    HW223644   0.392   0.704   5.616  0.8478 -0.4464 -1.8033
 5978SOL    HW323645   0.516   0.784   5.580  0.5618  1.4217  1.0625
 5978SOL    MW423646   0.462   0.750   5.640 -0.3294  0.1735 -0.2906
 5979SOL     OW23647   4.706   4.657   1.534 -0.3466  0.2956  0.8650
 5979SOL    HW223648   4.657   4.734   1.505  0.2305  0.3316 -0.0806
 5979SOL    HW323649   4.640   4.587   1.537 -0.1979 -0.1103 -2.2338
 5979SOL    MW423650   4.690   4.658   1.530  0.2962  0.2226 -0.3328
 5980SOL     OW23651   3.643   6.182   4.373 -0.7411 -0.6508 -0.5272
 5980SOL    HW223652   3.557   6.140   4.384 -0.4974 -1.1771 -0.6128
 5980SOL    HW323653   3.700   6.111   4.344 -0.8157  0.1654 -2.8232
 5980SOL    MW423654   3.639   6.167   4.371 -0.0192 -0.1133  0.2055
 5981SOL     OW23655   5.650   5.565   4.969  0.0426 -0.3602  0.2151
 5981SOL    HW223656   5.557   5.544   4.961  0.1669 -0.7669 -0.2231
 5981SOL    HW323657   5.651   5.656   4.999 -0.5006 -0.8026  1.6638
 5981SOL    MW423658   5.638   5.574   4.972  0.0950  0.2343  0.0279
 5982SOL     OW23659   5.625   2.495   4.945 -0.4419  0.1818 -0.2752
 5982SOL    HW223660   5.683   2.569   4.964 -2.0019  1.1791  0.8354
 5982SOL    HW323661   5.664   2.422   4.993  1.4122  0.0687 -1.7963
 5982SOL    MW423662   5.638   2.495   4.953  0.7313 -0.2218 -0.5431
 5983SOL     OW23663   3.083   0.323   3.657 -0.3382 -0.0013 -0.3767
 5983SOL    HW223664   3.038   0.403   3.687 -0.2073 -0.1354  0.1950
 5983SOL    HW323665   3.092   0.334   3.563 -2.7325 -0.5304 -0.7438
 5983SOL    MW423666   3.078   0.335   3.649  0.9528 -0.5132 -0.1054
 5984SOL     OW23667   0.082   4.895   6.131 -0.0313 -1.0143  0.0186
 5984SOL    HW223668   0.129   4.846   6.198  0.1423  0.0686  0.7214
 5984SOL    HW323669   0.004   4.928   6.175 -0.2884 -0.8980 -0.5153
 5984SOL    MW423670   0.078   4.893   6.146 -0.2777 -0.2940  0.4131
 5985SOL     OW23671   0.527   5.616   5.646 -0.1271  0.1887  0.3461
 5985SOL    HW223672   0.510   5.590   5.736 -0.1702  0.7544  0.5012
 5985SOL    HW323673   0.442   5.610   5.602 -0.1113 -0.0578  0.3463
 5985SOL    MW423674   0.514   5.612   5.652 -0.5373 -0.3051 -0.1053
 5986SOL     OW23675   5.383   2.040   2.910 -0.2170  0.1066  0.0317
 5986SOL    HW223676   5.411   1.976   2.845 -1.3271 -0.1822 -0.1930
 5986SOL    HW323677   5.318   1.994   2.963  0.1986  0.5373  0.9504
 5986SOL    MW423678   5.378   2.026   2.908 -0.2855 -0.8022 -0.0166
 5987SOL     OW23679   4.351   6.208   2.119  0.1522  0.3498  0.3190
 5987SOL    HW223680   4.352   6.146   2.046  2.1816 -0.5640  1.0480
 5987SOL    HW323681   4.298   6.281   2.087 -2.7457 -1.8901 -0.3879
 5987SOL    MW423682   4.344   6.209   2.105 -0.0098 -0.3029 -0.2508
 5988SOL     OW23683   0.848   6.188   3.640  0.0100 -0.3028  0.3203
 5988SOL    HW223684   0.829   6.256   3.576  1.6884 -0.9252 -0.9293
 5988SOL    HW323685   0.943   6.175   3.634 -0.3051 -3.0938  0.1043
 5988SOL    MW423686   0.858   6.195   3.631 -0.1751  0.2345  0.0543
 5989SOL     OW23687   3.687   0.391   1.446  0.5234 -0.0144 -0.6898
 5989SOL    HW223688   3.712   0.438   1.525  0.8740 -1.0893 -0.1412
 5989SOL    HW323689   3.717   0.447   1.374 -0.0854  1.1170 -0.0734
 5989SOL    MW423690   3.695   0.404   1.447 -0.7252 -0.0742 -0.2415
 5990SOL     OW23691   2.197   1.142   2.626  0.3155  0.1952 -0.2181
 5990SOL    HW223692   2.114   1.120   2.667  2.3082 -0.3678  3.9996
 5990SOL    HW323693   2.203   1.237   2.631  1.1479  0.0628  2.4009
 5990SOL    MW423694   2.187   1.151   2.632 -0.5046  0.3688  0.1091
 5991SOL     OW23695   3.544   4.074   5.593  0.1775 -0.1559 -0.2209
 5991SOL    HW223696   3.562   4.112   5.507  1.0802  1.0126  0.4582
 5991SOL    HW323697   3.596   3.994   5.594  1.4398  0.6252 -0.1967
 5991SOL    MW423698   3.554   4.069   5.581  0.5549 -0.4776  0.1950
 5992SOL     OW23699   1.490   5.479   5.313 -0.1198 -0.9174  0.3231
 5992SOL    HW223700   1.499   5.410   5.247  1.7277 -1.5792  1.2244
 5992SOL    HW323701   1.528   5.556   5.271 -0.4985 -0.8936  0.0087
 5992SOL    MW423702   1.496   5.480   5.299  0.0868 -0.6306 -0.0276
 5993SOL     OW23703   5.563   3.701   4.728 -0.1293  0.2349 -0.1382
 5993SOL    HW223704   5.657   3.691   4.716 -0.3108 -1.5884 -0.3054
 5993SOL    HW323705   5.526   3.680   4.642 -0.7334  0.2466  0.1180
 5993SOL    MW423706   5.571   3.697   4.715 -0.5066  0.1086 -0.3494
 5994SOL     OW23707   4.030   3.496   4.041 -0.4783 -0.4533  0.5500
 5994SOL    HW223708   3.977   3.548   3.981 -1.9322 -0.5021  1.7524
 5994SOL    HW323709   4.120   3.516   4.015 -1.0014  1.6232  0.1093
 5994SOL    MW423710   4.035   3.506   4.029  0.4348  0.0925 -0.7296
 5995SOL     OW23711   1.454   2.685   0.347  0.8901  0.3840  0.0070
 5995SOL    HW223712   1.475   2.711   0.257  1.1566 -0.1674 -0.0931
 5995SOL    HW323713   1.367   2.645   0.341 -0.2368  2.6289  0.4145
 5995SOL    MW423714   1.445   2.683   0.334  0.3961 -0.3019 -0.2576
 5996SOL     OW23715   3.433   3.130   6.285 -0.4441  0.4197 -0.3728
 5996SOL    HW223716   3.366   3.066   6.308 -1.0339  1.3614  0.6207
 5996SOL    HW323717   3.509   3.106   6.338  0.2105 -0.9432 -1.8586
 5996SOL    MW423718   3.434   3.118   6.295  0.3672  0.4224  0.2119
 5997SOL     OW23719   4.542   0.117   1.436 -0.6286  0.0243  0.1632
 5997SOL    HW223720   4.544   0.152   1.347  0.1835 -0.6088 -0.0815
 5997SOL    HW323721   4.524   0.023   1.425  1.0625 -0.3736  0.5459
 5997SOL    MW423722   4.540   0.109   1.423 -0.1331  1.1050 -0.3795
 5998SOL     OW23723   1.934   2.342   4.499  0.2960  0.0702  0.5993
 5998SOL    HW223724   1.842   2.352   4.473  0.3733  0.6744  0.5647
 5998SOL    HW323725   1.930   2.287   4.577 -0.1206  0.3698  0.7954
 5998SOL    MW423726   1.921   2.336   4.506  0.2410  0.7579  0.3735
 5999SOL     OW23727   2.858   6.402   3.932  0.1288 -0.1521  0.1186
 5999SOL    HW223728   2.895   6.451   3.859 -1.8331  2.6664  0.8014
 5999SOL    HW323729   2.763   6.411   3.921 -0.2963 -2.5864  1.1924
 5999SOL    MW423730   2.850   6.410   3.921  0.0361  0.3538  0.3711
 6000SOL     OW23731   3.070   6.261   4.185  0.5639  0.3758 -0.2186
 6000SOL    HW223732   3.111   6.303   4.110 -1.2516  1.2243 -0.8056
 6000SOL    HW323733   3.133   6.271   4.256  1.8497  0.5379 -1.3404
 6000SOL    MW423734   3.083   6.268   4.185  0.6248  0.2933 -0.2061
 6001SOL     OW23735   4.289   1.060   1.420 -0.9395  0.3720 -0.1532
 6001SOL    HW223736   4.371   1.030   1.459  0.8952  2.9473 -1.7436
 6001SOL    HW323737   4.247   1.110   1.490  0.5292  1.8487 -0.2736
 6001SOL    MW423738   4.294   1.063   1.435 -0.3241  0.0898  0.2346
 6002SOL     OW23739   0.508   4.063   1.387  0.1572  0.3733 -0.0356
 6002SOL    HW223740   0.506   4.050   1.293 -0.8658 -1.5925  0.2045
 6002SOL    HW323741   0.575   4.002   1.419 -1.7379 -1.4063  0.7615
 6002SOL    MW423742   0.516   4.053   1.379 -0.3800  0.6685 -0.4971
 6003SOL     OW23743   3.739   3.646   1.616 -0.1298 -0.4391  0.6557
 6003SOL    HW223744   3.747   3.590   1.539  0.2088  0.7617 -0.2059
 6003SOL    HW323745   3.830   3.670   1.637 -0.2592 -0.3437  1.1232
 6003SOL    MW423746   3.752   3.642   1.609  0.5115  0.4554 -0.3451
 6004SOL     OW23747   0.416   3.230   1.212  0.2506 -0.2592 -0.4001
 6004SOL    HW223748   0.402   3.193   1.125  1.7664  0.2481 -0.9049
 6004SOL    HW323749   0.357   3.181   1.269  0.1140 -1.4538 -1.5113
 6004SOL    MW423750   0.407   3.218   1.208  0.2995 -0.5564  0.7629
 6005SOL     OW23751   2.484   1.534   0.610  0.0742 -0.1047 -0.3041
 6005SOL    HW223752   2.502   1.496   0.524  0.6761  0.4289 -0.4221
 6005SOL    HW323753   2.491   1.460   0.670 -1.0997 -0.6352 -0.7802
 6005SOL    MW423754   2.487   1.519   0.606  0.0425  0.0836  0.3212
 6006SOL     OW23755   3.423   2.203   2.976 -0.0303  0.2429  0.3747
 6006SOL    HW223756   3.491   2.177   2.914  0.9444  1.4272  0.8936
 6006SOL    HW323757   3.370   2.125   2.988 -0.0893 -0.1110 -1.7317
 6006SOL    MW423758   3.425   2.189   2.969  0.3841  0.2901 -0.2872
 6007SOL     OW23759   5.106   5.270   6.380 -0.7271  0.7974  0.5586
 6007SOL    HW223760   5.148   5.210   6.317  0.8694 -0.3387  2.5740
 6007SOL    HW323761   5.013   5.267   6.358 -0.4887 -1.2285 -0.4060
 6007SOL    MW423762   5.100   5.262   6.369 -0.4152 -0.2750  0.0925
 6008SOL     OW23763   5.104   2.269   0.838 -0.2431 -0.1604 -0.6107
 6008SOL    HW223764   5.183   2.222   0.865 -0.0959  0.5835  0.2930
 6008SOL    HW323765   5.033   2.207   0.853  0.0364 -0.3909 -0.2359
 6008SOL    MW423766   5.105   2.255   0.843  0.0627 -0.4852 -0.3836
 6009SOL     OW23767   5.264   0.569   0.262  0.3267 -1.0385  0.6378
 6009SOL    HW223768   5.294   0.548   0.174 -0.8020 -1.4346  0.3297
 6009SOL    HW323769   5.240   0.662   0.258  0.8092 -0.9108  0.6862
 6009SOL    MW423770   5.265   0.578   0.250 -0.3824  0.8779 -0.0417
 6010SOL     OW23771   4.685   3.152   5.762 -0.0552  0.2905  0.9926
 6010SOL    HW223772   4.615   3.088   5.779  0.0179  0.4890  2.1278
 6010SOL    HW323773   4.734   3.155   5.844  1.4256  0.0110  0.1404
 6010SOL    MW423774   4.682   3.144   5.775 -0.2027  0.2929 -0.6869
 6011SOL     OW23775   2.981   5.959   3.988 -0.1591  0.1180  0.3618
 6011SOL    HW223776   3.019   5.976   3.902 -0.9850 -2.3326 -0.5787
 6011SOL    HW323777   3.055   5.965   4.049  0.6889  0.6417 -0.6963
 6011SOL    MW423778   2.996   5.962   3.985  0.6933 -0.4915  0.1481
 6012SOL     OW23779   1.450   6.395   6.360 -0.2251 -0.0084 -0.7878
 6012SOL    HW223780   1.411   6.314   6.393  0.3917  0.9220  2.5545
 6012SOL    HW323781   1.544   6.387   6.378  0.0856  0.8237 -1.8815
 6012SOL    MW423782   1.457   6.384   6.367 -0.1900  0.4294 -0.0131
 6013SOL     OW23783   4.465   5.540   4.309  0.0832  0.2830  0.1983
 6013SOL    HW223784   4.480   5.449   4.333 -2.1377  0.2824  1.9571
 6013SOL    HW323785   4.376   5.542   4.274  0.3989  1.6507 -0.6113
 6013SOL    MW423786   4.455   5.528   4.308  0.1302  0.2573  0.4678
 6014SOL     OW23787   0.477   0.242   3.650  0.2552 -0.1181  0.1783
 6014SOL    HW223788   0.498   0.330   3.681  0.9852 -0.9132  2.1221
 6014SOL    HW323789   0.500   0.185   3.723 -2.4857 -1.7226 -0.0836
 6014SOL    MW423790   0.483   0.246   3.664  0.3125 -0.1247  0.4166
 6015SOL     OW23791   0.050   6.387   0.713  0.2133  0.3498  0.3245
 6015SOL    HW223792   0.143   6.409   0.726  0.2716 -0.3017  1.0968
 6015SOL    HW323793   0.021   6.355   0.798 -0.3786 -0.6753 -0.2395
 6015SOL    MW423794   0.059   6.386   0.726  0.0989  0.3586 -0.3002
 6016SOL     OW23795   3.977   0.887   4.590 -0.2177 -0.5721  0.2231
 6016SOL    HW223796   3.927   0.969   4.588 -2.0084 -1.6153  0.2948
 6016SOL    HW323797   4.021   0.888   4.675 -0.3426  0.2485  0.2855
 6016SOL    MW423798   3.976   0.898   4.601 -0.3413 -0.2907 -0.4606
 6017SOL     OW23799   1.521   3.384   3.834  0.5449  0.0763  0.3476
 6017SOL    HW223800   1.503   3.342   3.750  0.9669  0.9035 -0.1722
 6017SOL    HW323801   1.587   3.329   3.875  0.5073 -0.2094  0.0269
 6017SOL    MW423802   1.528   3.372   3.828 -0.9876  0.1052  0.2722
 6018SOL     OW23803   0.859   2.804   2.925 -0.1014 -0.2723 -0.6908
 6018SOL    HW223804   0.851   2.775   2.834 -2.3426 -0.0793 -0.6161
 6018SOL    HW323805   0.917   2.880   2.921  0.5820 -0.8173 -1.8074
 6018SOL    MW423806   0.865   2.810   2.913  0.4884  0.2336  0.4565
 6019SOL     OW23807   2.610   4.919   0.831  0.0863  0.1116  0.0100
 6019SOL    HW223808   2.522   4.907   0.795  0.8140  0.2399 -1.8923
 6019SOL    HW323809   2.625   4.841   0.884 -1.0112 -0.1077  0.0161
 6019SOL    MW423810   2.600   4.907   0.833 -0.5836  0.6155  0.2846
 6020SOL     OW23811   1.543   4.275   3.960  0.2526  0.3481 -0.1964
 6020SOL    HW223812   1.606   4.278   4.032 -0.0847 -1.2508  0.2062
 6020SOL    HW323813   1.549   4.186   3.926 -0.2367  0.8170 -1.5811
 6020SOL    MW423814   1.552   4.263   3.965  1.0775  0.7051  0.1433
 6021SOL     OW23815   1.115   1.568   5.329  0.0374 -0.1945 -0.5092
 6021SOL    HW223816   1.108   1.488   5.383  2.6584  0.7745  1.4626
 6021SOL    HW323817   1.039   1.620   5.355 -0.7929 -1.3349 -0.5791
 6021SOL    MW423818   1.104   1.564   5.340  0.1811  0.0189 -0.4008
 6022SOL     OW23819   1.619   6.002   5.912  0.2223 -0.3391  0.3273
 6022SOL    HW223820   1.707   6.031   5.887  0.0960 -0.1683  0.0836
 6022SOL    HW323821   1.578   5.975   5.829 -0.5929  1.2759  0.1702
 6022SOL    MW423822   1.625   6.002   5.898 -0.1204 -0.0604 -0.0837
 6023SOL     OW23823   2.406   5.059   1.032 -0.0680  0.5201  0.2060
 6023SOL    HW223824   2.488   5.071   0.983 -0.8945  2.4545 -0.8208
 6023SOL    HW323825   2.414   4.972   1.071  2.0353  0.2446 -0.6891
 6023SOL    MW423826   2.418   5.049   1.031  0.4570  0.0584 -0.2813
 6024SOL     OW23827   2.904   1.118   0.836 -0.1284 -0.0603 -0.4142
 6024SOL    HW223828   2.967   1.136   0.906  1.0596  0.2150 -1.5094
 6024SOL    HW323829   2.821   1.155   0.868  0.3288 -0.1421  0.9241
 6024SOL    MW423830   2.901   1.125   0.850  0.0395  0.1340  0.0585
 6025SOL     OW23831   1.414   1.397   3.687 -0.3730  0.1514  0.2634
 6025SOL    HW223832   1.376   1.464   3.744  0.3245  0.9186 -0.1568
 6025SOL    HW323833   1.508   1.417   3.686  0.0605 -1.6711  1.2318
 6025SOL    MW423834   1.422   1.409   3.694 -0.3281  0.1704  0.2887
 6026SOL     OW23835   5.617   4.530   3.490  0.3349 -0.1135 -0.6126
 6026SOL    HW223836   5.663   4.540   3.573 -1.1980  2.6079  0.0466
 6026SOL    HW323837   5.610   4.435   3.478 -1.6268 -0.7876  3.7194
 6026SOL    MW423838   5.622   4.519   3.500 -0.6362  0.5941  0.3623
 6027SOL     OW23839   4.534   3.238   2.966  0.1665 -0.4097  0.1772
 6027SOL    HW223840   4.556   3.147   2.947 -0.1256 -0.2192 -1.2104
 6027SOL    HW323841   4.617   3.285   2.960  0.1221 -0.3958 -0.4485
 6027SOL    MW423842   4.548   3.232   2.963  0.0580  0.2607 -0.5576
 6028SOL     OW23843   4.589   3.659   1.006  0.5800  0.0071 -0.4354
 6028SOL    HW223844   4.656   3.593   1.024  0.5382 -0.0106 -0.3448
 6028SOL    HW323845   4.516   3.635   1.063  0.1630 -0.4851 -1.1573
 6028SOL    MW423846   4.588   3.647   1.016 -0.1339  0.1548 -0.2975
 6029SOL     OW23847   0.874   3.480   0.055  0.4521 -0.2869 -0.0466
 6029SOL    HW223848   0.782   3.492   0.078  0.2177 -0.4705 -0.8407
 6029SOL    HW323849   0.887   3.536  -0.022  0.1259 -2.6491 -1.9545
 6029SOL    MW423850   0.864   3.489   0.048 -0.2079  0.4889 -0.0529
 6030SOL     OW23851   2.568   3.681   0.984  0.1944 -0.0739  0.1839
 6030SOL    HW223852   2.640   3.637   0.938 -0.8210 -0.0454 -1.5162
 6030SOL    HW323853   2.570   3.642   1.072  0.7882 -1.8487 -0.5494
 6030SOL    MW423854   2.578   3.670   0.989  0.5862 -0.1815  0.3949
 6031SOL     OW23855   4.662   0.999   1.303  0.2355 -0.2817 -0.2889
 6031SOL    HW223856   4.590   1.020   1.244 -1.6556 -1.2239  1.5429
 6031SOL    HW323857   4.694   0.913   1.273 -0.7274 -0.7652  0.0320
 6031SOL    MW423858   4.657   0.990   1.291 -0.5197 -0.1568 -0.1978
 6032SOL     OW23859   4.022   0.364   4.179  0.0070 -0.2160 -0.3343
 6032SOL    HW223860   4.100   0.417   4.197  0.6172 -1.0276 -0.5048
 6032SOL    HW323861   4.056   0.289   4.130 -1.0439 -0.0441 -1.3547
 6032SOL    MW423862   4.037   0.361   4.175  0.4051  0.3273 -0.1199
 6033SOL     OW23863   0.950   5.137   0.010  0.4864  0.2856 -0.2644
 6033SOL    HW223864   0.886   5.157  -0.059  0.4165  0.6529 -0.0921
 6033SOL    HW323865   0.927   5.194   0.082 -0.1616 -0.9028  0.5059
 6033SOL    MW423866   0.939   5.147   0.010  0.0703 -0.0980 -0.4711
 6034SOL     OW23867   2.940   4.022   2.451 -0.0034  0.1031  0.2770
 6034SOL    HW223868   2.983   4.064   2.525 -1.1009 -0.1042  1.0711
 6034SOL    HW323869   2.894   3.947   2.491 -1.5139  0.6298 -0.4297
 6034SOL    MW423870   2.939   4.017   2.466  0.1522  0.6432 -0.6291
 6035SOL     OW23871   3.846   4.386   0.959 -0.2853  0.2404 -0.3186
 6035SOL    HW223872   3.936   4.415   0.973  0.2796 -1.2722 -0.6133
 6035SOL    HW323873   3.839   4.305   1.010 -1.4154  0.2186 -0.4798
 6035SOL    MW423874   3.857   4.379   0.968 -0.2307  0.2486  0.3272
 6036SOL     OW23875   0.468   5.858   3.768 -0.4432  0.2753  0.2147
 6036SOL    HW223876   0.436   5.929   3.823  0.5901  0.4900  0.5631
 6036SOL    HW323877   0.546   5.894   3.724 -0.5255 -0.2937 -0.4261
 6036SOL    MW423878   0.474   5.872   3.769  0.1114  0.2357 -0.2067
 6037SOL     OW23879   2.454   1.780   0.481  0.4268 -0.7725  0.0685
 6037SOL    HW223880   2.435   1.705   0.538  2.7980 -0.5946  1.2442
 6037SOL    HW323881   2.529   1.823   0.523  0.9356  0.6200 -2.1013
 6037SOL    MW423882   2.462   1.776   0.494 -0.0434 -0.2299  0.1037
 6038SOL     OW23883   4.921   6.283   3.743 -0.4208 -0.2451  0.2641
 6038SOL    HW223884   4.861   6.337   3.795 -1.8919 -1.6969  0.1488
 6038SOL    HW323885   4.996   6.340   3.726 -1.2862  1.2798  1.3305
 6038SOL    MW423886   4.923   6.297   3.748  0.7094 -0.2417 -0.5942
 6039SOL     OW23887   5.708   3.427   1.397  0.2144  0.0806  0.3246
 6039SOL    HW223888   5.675   3.517   1.393 -0.4461 -0.1763 -0.2840
 6039SOL    HW323889   5.802   3.435   1.384  0.0196  0.6014 -0.9916
 6039SOL    MW423890   5.716   3.440   1.395 -0.1285  0.0215 -0.2588
 6040SOL     OW23891   2.608   1.871   1.652 -0.5321  0.3948  0.0347
 6040SOL    HW223892   2.527   1.921   1.643 -0.2039  1.4274  2.1464
 6040SOL    HW323893   2.656   1.915   1.722  3.7565  2.3673 -3.5881
 6040SOL    MW423894   2.604   1.883   1.660  0.3551 -0.4354  0.7004
 6041SOL     OW23895   6.289   5.993   0.819 -0.1725  0.2981  0.0838
 6041SOL    HW223896   6.240   6.040   0.886 -0.3145 -0.5556  0.5928
 6041SOL    HW323897   6.237   5.914   0.802  0.5763 -0.1869  0.0018
 6041SOL    MW423898   6.276   5.989   0.825 -0.4937  0.1570 -0.1592
 6042SOL     OW23899   0.334   4.866   1.991  0.3520  0.1882 -0.0646
 6042SOL    HW223900   0.239   4.869   1.991  0.3262 -0.5628 -0.1036
 6042SOL    HW323901   0.356   4.796   1.929  0.9187  0.1626  0.1614
 6042SOL    MW423902   0.325   4.857   1.982 -0.4990  1.0554 -0.1324
 6043SOL     OW23903   4.012   3.750   1.610  0.0668  0.2723 -0.1762
 6043SOL    HW223904   4.091   3.721   1.564  0.6109 -0.6448  1.2718
 6043SOL    HW323905   4.043   3.812   1.675 -0.6857  1.4722 -0.9214
 6043SOL    MW423906   4.026   3.754   1.612 -0.5485  0.0604 -0.0724
 6044SOL     OW23907   1.607   1.755   3.686 -0.3048  0.4734 -0.4369
 6044SOL    HW223908   1.621   1.716   3.772 -1.8075  0.1044 -0.3366
 6044SOL    HW323909   1.695   1.764   3.649  0.3018 -0.0318  0.8363
 6044SOL    MW423910   1.620   1.751   3.692 -0.7359  0.7506  0.6254
 6045SOL     OW23911   4.354   0.836   5.404  0.1817 -0.2512  0.2989
 6045SOL    HW223912   4.306   0.755   5.387 -0.0877  0.1677 -1.0194
 6045SOL    HW323913   4.289   0.905   5.392  0.7627  0.2386 -0.0688
 6045SOL    MW423914   4.339   0.834   5.400  0.3758 -0.5360 -0.0446
 6046SOL     OW23915   2.047   3.622   5.799 -0.4522 -0.0021 -0.1702
 6046SOL    HW223916   1.971   3.566   5.781 -0.2604 -0.6358  0.8928
 6046SOL    HW323917   2.122   3.571   5.770 -0.4080  0.6457 -1.2686
 6046SOL    MW423918   2.047   3.608   5.793 -0.2394  0.6681 -0.0566
 6047SOL     OW23919   5.953   2.498   3.923 -0.3736  0.0120 -0.1923
 6047SOL    HW223920   6.003   2.506   4.003 -0.4898  0.0314 -0.1202
 6047SOL    HW323921   5.896   2.575   3.922  0.0386  0.3113 -0.5825
 6047SOL    MW423922   5.952   2.509   3.933 -0.2308  0.2421 -0.5858
 6048SOL     OW23923   3.405   1.345   3.686  0.0881  0.1952  0.1103
 6048SOL    HW223924   3.435   1.261   3.722 -0.7933 -0.0383  0.3285
 6048SOL    HW323925   3.471   1.368   3.621  0.4041 -0.6086  0.1321
 6048SOL    MW423926   3.418   1.337   3.682 -0.4189 -0.4773  0.6836
 6049SOL     OW23927   4.259   0.602   4.633  0.6556  0.4084 -0.1025
 6049SOL    HW223928   4.252   0.509   4.614 -0.0622  0.2348  0.8994
 6049SOL    HW323929   4.301   0.606   4.719  0.6762  1.0032 -0.1319
 6049SOL    MW423930   4.264   0.590   4.642  0.1042  0.2952  0.0933
 6050SOL     OW23931   3.758   3.957   0.861 -0.2897  0.1259  1.0396
 6050SOL    HW223932   3.739   3.872   0.821 -0.2665  0.6069 -0.0242
 6050SOL    HW323933   3.743   3.943   0.955 -2.1780 -0.5526  0.6902
 6050SOL    MW423934   3.753   3.943   0.868 -0.1939 -0.0825 -0.5946
 6051SOL     OW23935   2.930   3.986   3.058 -0.1668  0.2882  0.8224
 6051SOL    HW223936   3.016   3.957   3.090 -0.0943  0.1230  0.4830
 6051SOL    HW323937   2.867   3.931   3.106 -0.1549  1.2391  1.9835
 6051SOL    MW423938   2.933   3.975   3.069  0.8066  0.2014 -0.4137
 6052SOL     OW23939   6.205   2.707   0.947 -0.5936 -0.3109  0.2896
 6052SOL    HW223940   6.174   2.793   0.917 -0.5970 -0.3579  0.1589
 6052SOL    HW323941   6.151   2.688   1.024  0.5710  0.5928  1.3829
 6052SOL    MW423942   6.194   2.716   0.953 -0.1827  0.1597 -0.2230
 6053SOL     OW23943   1.541   4.219   5.627 -0.2361 -0.1099 -0.6627
 6053SOL    HW223944   1.465   4.253   5.580 -1.2156  0.9372  1.5579
 6053SOL    HW323945   1.505   4.157   5.690  0.7854  0.2017  0.2519
 6053SOL    MW423946   1.526   4.215   5.629 -0.2831  0.0087  0.0786
 6054SOL     OW23947   5.956   1.939   2.200 -0.1962  0.0562 -0.4685
 6054SOL    HW223948   6.043   1.930   2.238 -0.4969  1.2242  0.5728
 6054SOL    HW323949   5.941   2.034   2.198 -1.7121 -0.1464  0.0271
 6054SOL    MW423950   5.965   1.950   2.204  0.7305  0.6263 -0.3496
 6055SOL     OW23951   0.087   0.746   6.421 -0.5512 -0.0807 -0.1299
 6055SOL    HW223952   0.048   0.708   6.499 -1.8803 -0.6853 -1.0456
 6055SOL    HW323953   0.158   0.801   6.453 -1.1949 -0.1664  1.5001
 6055SOL    MW423954   0.092   0.748   6.435  0.0905  0.1592  0.1747
 6056SOL     OW23955   4.924   2.220   3.763  0.4814 -0.1483 -0.5921
 6056SOL    HW223956   4.881   2.225   3.848  0.7298 -1.0687 -0.4019
 6056SOL    HW323957   4.917   2.128   3.738  1.9320 -0.2413 -0.7616
 6056SOL    MW423958   4.918   2.209   3.771  0.1544 -0.8072  0.1059
 6057SOL     OW23959   5.494   1.071   4.985 -0.2267 -0.1066  0.3439
 6057SOL    HW223960   5.460   0.983   5.001 -1.1966  0.5106  1.9063
 6057SOL    HW323961   5.587   1.064   5.004 -0.3137 -0.7645  0.5672
 6057SOL    MW423962   5.502   1.058   4.990 -0.0088 -0.2650 -0.0157
 6058SOL     OW23963   1.528   1.910   3.257  0.0846 -0.1217  0.0405
 6058SOL    HW223964   1.535   1.835   3.316  0.4046  0.5455  0.8667
 6058SOL    HW323965   1.610   1.957   3.268  0.3481 -0.2494 -1.3141
 6058SOL    MW423966   1.540   1.906   3.266 -0.4012 -0.0465  0.0389
 6059SOL     OW23967   2.424   4.077   2.407 -0.2254 -0.5449  0.4133
 6059SOL    HW223968   2.403   4.149   2.348  0.1390 -0.1637  0.7383
 6059SOL    HW323969   2.455   4.006   2.350 -0.1983 -0.3015  0.1256
 6059SOL    MW423970   2.425   4.077   2.392 -0.6080  0.5676 -0.0459
 6060SOL     OW23971   0.999   6.137   3.256  0.3664 -0.0020  0.1284
 6060SOL    HW223972   1.084   6.148   3.298 -0.6997 -0.3015  2.5104
 6060SOL    HW323973   0.985   6.043   3.251 -0.8421  0.0356  2.0430
 6060SOL    MW423974   1.009   6.126   3.261  0.9552 -0.0931  0.7560
 6061SOL     OW23975   0.725   0.618   4.685  0.3719 -0.1973 -0.5800
 6061SOL    HW223976   0.664   0.640   4.614 -1.3111 -0.7268  0.6438
 6061SOL    HW323977   0.784   0.694   4.690 -1.9803  1.7132  0.0600
 6061SOL    MW423978   0.725   0.631   4.676  0.1860 -0.7386 -0.4343
 6062SOL     OW23979   0.783   5.056   1.395  0.1739 -0.4294  0.4142
 6062SOL    HW223980   0.866   5.097   1.420  0.0179  0.2189 -0.0825
 6062SOL    HW323981   0.763   4.995   1.465  0.6352  0.0445  0.9630
 6062SOL    MW423982   0.791   5.053   1.407 -0.2659  0.1305  0.0690
 6063SOL     OW23983   3.304   4.652   0.928  0.4756 -0.0837  0.6952
 6063SOL    HW223984   3.305   4.725   0.866 -0.8232 -0.3946  0.2775
 6063SOL    HW323985   3.368   4.676   0.995 -0.8670  2.0914  1.2914
 6063SOL    MW423986   3.313   4.665   0.929  0.2071 -0.8008 -0.5786
 6064SOL     OW23987   6.275   4.579   2.533  0.1240 -0.3983 -0.3046
 6064SOL    HW223988   6.317   4.574   2.447  1.7143  0.2682  0.3987
 6064SOL    HW323989   6.234   4.666   2.534  0.5950 -0.1711 -0.1945
 6064SOL    MW423990   6.275   4.590   2.522  0.3750  0.2421 -0.1791
 6065SOL     OW23991   5.699   0.369   3.170 -0.5370 -0.1551  0.0301
 6065SOL    HW223992   5.716   0.436   3.104  1.5817 -0.0071  0.6694
 6065SOL    HW323993   5.735   0.405   3.251 -0.7727 -1.4106  0.7177
 6065SOL    MW423994   5.706   0.383   3.172  0.0148  0.0575  0.4063
 6066SOL     OW23995   5.583   4.053   6.048  0.2146  0.5382  0.3912
 6066SOL    HW223996   5.671   4.089   6.059  1.1553 -1.0160 -1.3823
 6066SOL    HW323997   5.592   3.961   6.073  0.3287 -0.8179 -3.8102
 6066SOL    MW423998   5.596   4.046   6.053  0.1411 -0.1792  0.0415
 6067SOL     OW23999   4.843   6.427   2.131 -0.2041  0.3017  0.1546
 6067SOL    HW224000   4.751   6.409   2.148 -0.1751  0.1115  0.1188
 6067SOL    HW324001   4.846   6.459   2.040 -0.5980  3.1529  1.0581
 6067SOL    MW424002   4.831   6.428   2.121 -0.0976  0.6400  0.6805
 6068SOL     OW24003   1.195   0.317   6.179  0.3822 -0.3837 -0.2470
 6068SOL    HW224004   1.277   0.360   6.203  0.3919  0.3113 -1.4505
 6068SOL    HW324005   1.191   0.323   6.083 -1.0724 -0.4179 -0.2176
 6068SOL    MW424006   1.205   0.323   6.169  0.3595  0.2275  0.4057
 6069SOL     OW24007   2.948   6.168   3.651 -0.8726 -0.0588 -0.4852
 6069SOL    HW224008   2.988   6.083   3.634 -0.9603 -0.5095  1.3471
 6069SOL    HW324009   3.017   6.231   3.631 -0.5382 -0.5965 -1.0606
 6069SOL    MW424010   2.962   6.165   3.646  0.8325 -0.5652  0.3200
 6070SOL     OW24011   4.936   2.446   3.377  0.4695  0.2299 -0.5222
 6070SOL    HW224012   4.872   2.515   3.359  1.0682  0.5665 -1.4059
 6070SOL    HW324013   5.019   2.481   3.345  0.9952 -0.4417  0.0658
 6070SOL    MW424014   4.938   2.460   3.371  0.2914 -0.2014 -0.0872
 6071SOL     OW24015   0.509   1.037   5.008  0.6184  0.4776  0.0957
 6071SOL    HW224016   0.533   1.024   5.100 -0.8734 -1.3032  0.3047
 6071SOL    HW324017   0.436   1.098   5.010  0.5401  0.3843  0.1087
 6071SOL    MW424018   0.503   1.043   5.020 -0.2588 -0.0484 -0.6250
 6072SOL     OW24019   5.418   2.782   3.275 -0.1138 -0.2175 -0.2506
 6072SOL    HW224020   5.408   2.856   3.215 -1.2576  0.9484  1.3060
 6072SOL    HW324021   5.489   2.808   3.334 -0.4743 -0.3824  0.2619
 6072SOL    MW424022   5.426   2.795   3.275  0.6912  0.1242 -0.4656
 6073SOL     OW24023   2.750   0.398   2.797 -0.0183 -0.1648  0.5466
 6073SOL    HW224024   2.794   0.329   2.847 -2.0024 -0.5708  1.8533
 6073SOL    HW324025   2.804   0.408   2.718  0.9008 -2.4709  0.7842
 6073SOL    MW424026   2.763   0.390   2.793 -0.1396 -0.0736  0.2741
 6074SOL     OW24027   5.628   2.375   0.348 -0.2734  0.1587  0.0129
 6074SOL    HW224028   5.658   2.357   0.438 -0.3092  1.4441  0.2982
 6074SOL    HW324029   5.707   2.372   0.295 -0.0699  0.6389  0.2891
 6074SOL    MW424030   5.642   2.372   0.353  0.4373 -0.2553 -0.3338
 6075SOL     OW24031   5.676   5.803   4.276 -0.1798 -0.5404 -0.2296
 6075SOL    HW224032   5.750   5.743   4.289 -0.0007 -0.1076  0.8479
 6075SOL    HW324033   5.665   5.806   4.181  1.6095 -0.1331 -0.4624
 6075SOL    MW424034   5.685   5.795   4.265  0.5277  0.2512 -0.4554
 6076SOL     OW24035   0.276   4.790   4.230  0.5770  0.0967  1.0254
 6076SOL    HW224036   0.339   4.862   4.228  1.0989 -0.3142 -1.6071
 6076SOL    HW324037   0.190   4.833   4.227  0.7638  0.6197  2.5169
 6076SOL    MW424038   0.273   4.805   4.229  0.1733  0.3381 -1.0240
 6077SOL     OW24039   0.631   1.611   2.502 -0.2391  0.0281  0.2334
 6077SOL    HW224040   0.548   1.601   2.549  0.7154  1.8682  2.5667
 6077SOL    HW324041   0.607   1.647   2.417 -1.8660 -0.1859  0.5717
 6077SOL    MW424042   0.617   1.614   2.497  0.1348  0.1782  0.1121
 6078SOL     OW24043   5.114   4.953   0.759 -0.4638  0.0925 -0.1623
 6078SOL    HW224044   5.096   4.861   0.777  2.6907 -0.1265  2.9109
 6078SOL    HW324045   5.051   5.001   0.813  0.1157 -0.3552  0.9321
 6078SOL    MW424046   5.103   4.947   0.768 -0.7156 -0.1468 -0.0395
 6079SOL     OW24047   4.815   3.664   2.678 -0.4336  0.1292 -0.2268
 6079SOL    HW224048   4.727   3.683   2.646 -0.5401  0.6668  0.3702
 6079SOL    HW324049   4.872   3.684   2.604 -0.7140  0.9470 -0.2392
 6079SOL    MW424050   4.811   3.669   2.664  0.1012 -0.3047  0.0415
 6080SOL     OW24051   5.396   4.219   5.161 -0.1768  0.3385  0.0798
 6080SOL    HW224052   5.358   4.239   5.076 -0.1470 -0.8843 -0.2421
 6080SOL    HW324053   5.489   4.202   5.143 -0.0979  0.4072  0.4025
 6080SOL    MW424054   5.404   4.219   5.148  0.2353  0.2901 -0.4189
 6081SOL     OW24055   3.454   1.445   4.952  0.2217 -0.1012  0.3543
 6081SOL    HW224056   3.446   1.358   4.914  0.7992  0.4854 -1.2194
 6081SOL    HW324057   3.436   1.505   4.879 -0.2169  1.0985  1.4042
 6081SOL    MW424058   3.451   1.442   4.937  0.5299 -0.1750 -0.0081
 6082SOL     OW24059   4.113   5.329   4.714  0.6499  0.4316 -0.1727
 6082SOL    HW224060   4.200   5.369   4.717 -0.3656  2.7848  0.6699
 6082SOL    HW324061   4.102   5.288   4.799  1.0318 -0.1216 -0.3865
 6082SOL    MW424062   4.123   5.329   4.725 -0.0208 -0.2325 -0.0386
 6083SOL     OW24063   3.087   5.191   0.776 -0.3907 -0.4246  0.2631
 6083SOL    HW224064   2.995   5.175   0.796 -0.4462  0.3398  0.6760
 6083SOL    HW324065   3.097   5.286   0.785 -0.2340 -0.0819 -2.6694
 6083SOL    MW424066   3.076   5.202   0.780  0.1524 -0.2804 -0.2554
 6084SOL     OW24067   6.038   0.286   6.276 -0.1537  0.0568  0.4564
 6084SOL    HW224068   5.997   0.312   6.194 -0.6916  0.0084  0.7028
 6084SOL    HW324069   6.062   0.194   6.263  0.6684  0.3269  0.0063
 6084SOL    MW424070   6.036   0.277   6.264 -0.0267 -0.5608  0.2220
 6085SOL     OW24071   4.527   0.554   1.872 -0.1363  0.5706  0.1506
 6085SOL    HW224072   4.522   0.504   1.953  0.9751 -0.0657 -0.1375
 6085SOL    HW324073   4.535   0.487   1.804 -0.8977  1.0983 -0.4727
 6085SOL    MW424074   4.528   0.539   1.873 -0.5589 -0.3571 -0.2586
 6086SOL     OW24075   1.841   5.504   0.213 -0.2421 -0.6704  0.1251
 6086SOL    HW224076   1.824   5.411   0.228  1.2226 -1.1747 -1.0253
 6086SOL    HW324077   1.761   5.549   0.239 -2.4484 -2.5898 -2.8056
 6086SOL    MW424078   1.828   5.498   0.218 -0.5564  0.7670  0.2610
 6087SOL     OW24079   4.346   0.803   2.154 -0.0012 -0.2580 -0.1485
 6087SOL    HW224080   4.303   0.868   2.208  2.2913 -0.4983  2.1784
 6087SOL    HW324081   4.343   0.723   2.206  0.2231 -1.1509 -1.4480
 6087SOL    MW424082   4.340   0.801   2.168  0.4284  0.1532  0.1559
 6088SOL     OW24083   3.475   1.500   1.551 -0.0360  0.0356 -0.0976
 6088SOL    HW224084   3.484   1.453   1.634 -2.2984  1.0383  0.7776
 6088SOL    HW324085   3.383   1.493   1.529  0.4135  0.2903 -2.2799
 6088SOL    MW424086   3.464   1.492   1.559 -0.3313  0.2339  0.5404
 6089SOL     OW24087   3.833   1.490   4.452 -0.0593  0.0452  0.9222
 6089SOL    HW224088   3.904   1.457   4.507 -0.5445 -0.2875  1.3569
 6089SOL    HW324089   3.773   1.533   4.514  0.7923  2.2394  0.3425
 6089SOL    MW424090   3.834   1.492   4.468  0.2174 -0.1575 -0.1042
 6090SOL     OW24091   0.256   2.342   2.827 -0.2284 -0.2145 -0.7975
 6090SOL    HW224092   0.349   2.334   2.810  0.0102 -0.2626  0.4414
 6090SOL    HW324093   0.236   2.435   2.812  0.0844 -0.1367 -0.7252
 6090SOL    MW424094   0.265   2.353   2.823 -0.6263  0.2897 -0.1630
 6091SOL     OW24095   0.531   6.205   5.863  0.3676  0.3556 -0.1531
 6091SOL    HW224096   0.475   6.177   5.935 -1.3038  0.2882 -1.4022
 6091SOL    HW324097   0.470   6.223   5.791  2.0610 -1.3673 -2.1682
 6091SOL    MW424098   0.515   6.204   5.863  0.1077  0.5189 -0.3440
 6092SOL     OW24099   0.392   4.207   2.020 -0.4840  0.0139 -0.0963
 6092SOL    HW224100   0.364   4.261   2.094  0.7936 -0.4687  0.7781
 6092SOL    HW324101   0.432   4.268   1.959 -0.3899  0.2593  0.2100
 6092SOL    MW424102   0.394   4.222   2.022 -0.6699 -0.2025  0.1255
 6093SOL     OW24103   4.408   4.003   0.439 -0.2589  0.0800  0.0284
 6093SOL    HW224104   4.376   3.959   0.360  1.4396  0.7533 -1.0978
 6093SOL    HW324105   4.380   4.094   0.428  0.6335  0.3382 -0.2006
 6093SOL    MW424106   4.400   4.009   0.427 -0.3038 -0.1701 -0.5228
 6094SOL     OW24107   2.900   2.996   5.682 -0.7974 -0.0248  0.1035
 6094SOL    HW224108   2.898   3.087   5.711 -0.7944 -0.2287  0.7425
 6094SOL    HW324109   2.906   2.945   5.762 -0.8549 -0.5938 -0.2500
 6094SOL    MW424110   2.901   3.001   5.696 -0.1836  0.4040 -0.0185
 6095SOL     OW24111   0.131   0.059   5.681 -0.4389  0.2231 -0.2637
 6095SOL    HW224112   0.131   0.092   5.591  0.1472 -0.1989 -0.4238
 6095SOL    HW324113   0.167   0.131   5.732  1.1915 -0.2613 -0.6632
 6095SOL    MW424114   0.136   0.073   5.676  0.0967  0.3509 -0.2666
 6096SOL     OW24115   0.835   2.346   2.077 -0.0153 -0.0693  0.4046
 6096SOL    HW224116   0.877   2.305   2.001 -0.0287 -0.1675  0.4498
 6096SOL    HW324117   0.802   2.429   2.044 -3.7613 -1.8454 -0.8298
 6096SOL    MW424118   0.836   2.352   2.063 -0.3486 -0.4743 -0.3218
 6097SOL     OW24119   5.111   3.867   3.363  0.1693  0.3679 -0.1578
 6097SOL    HW224120   5.161   3.864   3.444 -1.8873  0.9896  1.2213
 6097SOL    HW324121   5.040   3.803   3.376 -1.6314  2.2191 -0.3657
 6097SOL    MW424122   5.108   3.858   3.375 -0.8261  0.0278 -0.2528
 6098SOL     OW24123   2.156   4.934   1.000 -0.3031  0.3472 -0.0818
 6098SOL    HW224124   2.227   4.995   0.979  0.6059 -0.8987 -0.7754
 6098SOL    HW324125   2.095   4.943   0.927 -0.6374  1.0614  0.2706
 6098SOL    MW424126   2.157   4.944   0.987 -0.0344 -0.3811 -0.0508
 6099SOL     OW24127   1.211   4.789   2.487  0.4002  0.9490 -0.4166
 6099SOL    HW224128   1.249   4.776   2.400  0.1089  0.1750 -0.4336
 6099SOL    HW324129   1.281   4.833   2.536  1.5061 -0.7639 -0.3474
 6099SOL    MW424130   1.225   4.793   2.482  0.5173 -0.2300  0.1179
 6100SOL     OW24131   5.195   0.850   0.192 -0.2464  0.5253 -0.3459
 6100SOL    HW224132   5.272   0.886   0.147 -0.4394  0.5963 -0.6183
 6100SOL    HW324133   5.125   0.913   0.175 -0.5879  0.0258 -0.8342
 6100SOL    MW424134   5.196   0.863   0.184 -0.2007 -0.3578  0.7168
 6101SOL     OW24135   2.562   0.472   0.431 -0.1658 -0.0396  0.3440
 6101SOL    HW224136   2.468   0.485   0.442  0.1139  1.1984  1.5878
 6101SOL    HW324137   2.600   0.558   0.450  1.0892  0.0837 -2.3108
 6101SOL    MW424138   2.554   0.485   0.435 -0.2706  0.2559 -0.1215
 6102SOL     OW24139   5.479   0.515   3.423 -0.8172 -0.4312 -0.2393
 6102SOL    HW224140   5.467   0.609   3.432 -1.9058 -0.5816 -0.0411
 6102SOL    HW324141   5.446   0.495   3.335 -0.2192 -0.5773 -0.4385
 6102SOL    MW424142   5.473   0.524   3.412  0.0425 -0.5801 -0.1006
 6103SOL     OW24143   4.872   6.387   2.608 -0.0055  0.4808  0.0790
 6103SOL    HW224144   4.814   6.357   2.538  0.6219  0.8589 -0.6175
 6103SOL    HW324145   4.915   6.464   2.572  2.3122 -0.8369 -0.1572
 6103SOL    MW424146   4.870   6.393   2.594 -0.2038  0.6588 -0.1926
 6104SOL     OW24147   5.242   2.946   5.851 -0.5945 -0.2861 -0.2739
 6104SOL    HW224148   5.267   2.949   5.759  0.4612  1.3839  0.0299
 6104SOL    HW324149   5.193   2.864   5.860  0.9469 -1.4562 -1.8827
 6104SOL    MW424150   5.238   2.935   5.840 -0.6372 -0.5251 -0.3658
 6105SOL     OW24151   6.248   1.612   0.626  0.2001 -0.1833 -0.3059
 6105SOL    HW224152   6.332   1.595   0.669  0.2852  0.0704 -0.3691
 6105SOL    HW324153   6.268   1.608   0.532  0.5011  1.5314 -0.3481
 6105SOL    MW424154   6.262   1.609   0.619 -0.1059 -0.0487  0.1545
 6106SOL     OW24155   3.072   0.163   4.347  0.2786  0.4402 -0.3604
 6106SOL    HW224156   3.108   0.252   4.341 -0.4308  0.6878 -1.1937
 6106SOL    HW324157   3.046   0.142   4.257 -1.2304  0.1048  0.1399
 6106SOL    MW424158   3.073   0.172   4.334  0.1410 -0.3259 -0.3074
 6107SOL     OW24159   4.071   3.395   5.741 -0.8317 -0.4890  0.1201
 6107SOL    HW224160   4.110   3.437   5.817  0.1952 -0.4788 -0.3933
 6107SOL    HW324161   3.985   3.437   5.731 -0.6476  0.0544  0.7968
 6107SOL    MW424162   4.065   3.406   5.750  0.2218  0.5016  0.7775
 6108SOL     OW24163   3.064   4.709   3.832 -0.4920  0.1605  0.5730
 6108SOL    HW224164   3.107   4.735   3.913 -0.4466 -0.5747  0.7894
 6108SOL    HW324165   2.970   4.718   3.851 -0.6279 -2.4989  1.6269
 6108SOL    MW424166   3.057   4.714   3.845 -0.5628 -0.1032 -0.8479
 6109SOL     OW24167   6.081   1.033   1.643  0.0211 -0.3157  0.5253
 6109SOL    HW224168   6.088   1.108   1.702 -1.6720 -1.4484  2.2633
 6109SOL    HW324169   6.003   1.052   1.590 -1.3240 -1.4660  2.0061
 6109SOL    MW424170   6.071   1.045   1.644  0.3727 -0.1249  0.4726
 6110SOL     OW24171   6.066   0.016   6.212  0.1902 -0.1416 -0.2642
 6110SOL    HW224172   6.126   0.002   6.139  0.0495 -1.9174 -0.0988
 6110SOL    HW324173   5.986  -0.028   6.186 -0.0039 -0.4361  0.7649
 6110SOL    MW424174   6.064   0.008   6.199  0.3218 -0.1738  0.2107
 6111SOL     OW24175   0.443   1.707   3.723  0.3690 -0.8289 -0.2429
 6111SOL    HW224176   0.494   1.627   3.708  1.9080  0.5221 -2.8060
 6111SOL    HW324177   0.464   1.732   3.813  1.1929 -2.3813  0.0323
 6111SOL    MW424178   0.453   1.699   3.733  0.0516  0.1576  0.0367
 6112SOL     OW24179   5.375   1.163   4.170  0.2822  0.1230  0.2111
 6112SOL    HW224180   5.432   1.147   4.245  1.3986  0.4859 -0.5347
 6112SOL    HW324181   5.398   1.251   4.140 -0.4070  0.1286 -0.3354
 6112SOL    MW424182   5.386   1.173   4.176  0.4679  0.8365  0.4231
 6113SOL     OW24183   3.621   2.486   3.061 -0.0376  0.2483  0.0784
 6113SOL    HW224184   3.566   2.435   3.121  0.7548 -0.3284  0.3394
 6113SOL    HW324185   3.652   2.560   3.114 -1.1746  1.0141 -0.2956
 6113SOL    MW424186   3.618   2.489   3.076 -0.0365 -0.1484 -0.1757
 6114SOL     OW24187   1.964   3.739   1.541 -0.6136  0.2224  0.4768
 6114SOL    HW224188   2.016   3.679   1.594  2.6882  0.4690 -2.1510
 6114SOL    HW324189   1.883   3.691   1.524  1.1203 -2.7970  0.0295
 6114SOL    MW424190   1.960   3.725   1.545 -0.0910 -0.1064 -0.3001
 6115SOL     OW24191   4.842   3.525   4.630 -0.1517 -0.3767 -0.1970
 6115SOL    HW224192   4.791   3.448   4.604  1.8344 -1.6071 -0.7095
 6115SOL    HW324193   4.927   3.511   4.588  0.2860  2.0907 -0.2286
 6115SOL    MW424194   4.847   3.513   4.621  0.2186  0.0381 -0.1844
 6116SOL     OW24195   5.374   1.594   4.323 -0.1190  0.6242  0.5295
 6116SOL    HW224196   5.362   1.521   4.384 -1.6633  0.9710  0.6749
 6116SOL    HW324197   5.451   1.640   4.356  1.6763 -1.5952 -0.2683
 6116SOL    MW424198   5.382   1.590   4.335  0.1089  0.0512  0.7108
 6117SOL     OW24199   3.867   1.272   5.267  0.0486  0.1490  0.0349
 6117SOL    HW224200   3.891   1.254   5.358  1.2459  1.0501 -0.0775
 6117SOL    HW324201   3.784   1.227   5.255  0.6377 -1.3167  1.1109
 6117SOL    MW424202   3.859   1.263   5.278  0.5847  0.1093  0.2238
 6118SOL     OW24203   1.522   0.372   5.123  0.4997  1.1245 -0.7708
 6118SOL    HW224204   1.516   0.286   5.165 -0.4339  1.5655  0.0152
 6118SOL    HW324205   1.540   0.433   5.194 -0.8574  1.8458 -1.0002
 6118SOL    MW424206   1.523   0.368   5.138  0.0621 -0.4466  0.2609
 6119SOL     OW24207   4.567   1.994   1.463  0.2622  0.0492  0.2166
 6119SOL    HW224208   4.520   1.938   1.525 -1.2764  2.3545  1.2854
 6119SOL    HW324209   4.518   1.985   1.381 -0.6887  0.6676  0.6972
 6119SOL    MW424210   4.554   1.986   1.461  0.8993  0.1288 -0.4752
 6120SOL     OW24211   0.460   1.911   2.448  0.0343  0.0943  0.3088
 6120SOL    HW224212   0.549   1.913   2.483  0.6149  2.1785 -1.0698
 6120SOL    HW324213   0.403   1.927   2.524  0.9786  0.5783  0.9278
 6120SOL    MW424214   0.464   1.914   2.462 -0.1826 -0.0379 -0.5717
 6121SOL     OW24215   4.882   6.101   3.520 -0.1652 -0.1259  0.3594
 6121SOL    HW224216   4.896   6.010   3.544  0.4332 -0.0351  0.3575
 6121SOL    HW324217   4.897   6.150   3.600 -0.1481  0.0028  0.2771
 6121SOL    MW424218   4.886   6.095   3.533 -0.0623 -0.2858 -0.1498
 6122SOL     OW24219   3.850   5.631   4.958  0.2965  0.5695  0.1966
 6122SOL    HW224220   3.793   5.614   5.033 -0.2317 -0.5972 -0.4486
 6122SOL    HW324221   3.875   5.723   4.968 -2.3412  1.3786  0.0509
 6122SOL    MW424222   3.846   5.641   4.969  0.9742 -0.1315 -0.4899
 6123SOL     OW24223   4.049   3.583   5.098  0.2037 -0.1045  0.1500
 6123SOL    HW224224   4.065   3.603   5.190  1.7326  2.8369 -0.6433
 6123SOL    HW324225   4.136   3.573   5.060 -0.3534  0.2096 -1.2565
 6123SOL    MW424226   4.062   3.584   5.105  0.6175 -0.0135 -0.1748
 6124SOL     OW24227   2.816   6.000   0.986 -0.0132  0.0998  0.0556
 6124SOL    HW224228   2.866   5.958   0.916 -0.1439  2.2295 -1.4201
 6124SOL    HW324229   2.728   6.013   0.949  0.0968  1.8665  0.3124
 6124SOL    MW424230   2.811   5.996   0.972  0.8606 -0.2742  0.0135
 6125SOL     OW24231   4.234   2.766   5.550 -0.2141 -0.6483  0.1122
 6125SOL    HW224232   4.210   2.809   5.468  0.7379  1.8517  1.0630
 6125SOL    HW324233   4.326   2.789   5.564 -0.7378  0.2393  2.5779
 6125SOL    MW424234   4.243   2.774   5.541 -1.0539 -0.0465 -0.0600
 6126SOL     OW24235   5.939   2.038   3.484  0.3774 -0.6124  0.1368
 6126SOL    HW224236   5.891   2.118   3.463  1.2726  0.8260  2.9635
 6126SOL    HW324237   5.885   1.994   3.551  1.4522 -0.5700  1.0703
 6126SOL    MW424238   5.926   2.043   3.490  0.4504  1.0262  0.7383
 6127SOL     OW24239   5.153   2.759   0.606  0.3656 -0.8052 -0.1191
 6127SOL    HW224240   5.134   2.844   0.566 -0.8454 -1.5263 -1.1626
 6127SOL    HW324241   5.072   2.735   0.651  0.9120 -1.1387  0.7078
 6127SOL    MW424242   5.140   2.767   0.607  0.1005  0.8735 -0.5597
 6128SOL     OW24243   5.972   0.433   1.061  0.4169 -0.2379  0.5021
 6128SOL    HW224244   6.000   0.418   0.971 -0.3415  1.7174 -0.1138
 6128SOL    HW324245   6.026   0.505   1.093  1.2967 -1.4728  1.9677
 6128SOL    MW424246   5.983   0.440   1.054  0.1255 -0.5750 -0.0161
 6129SOL     OW24247   3.964   4.022   0.100  0.6655  0.1696 -0.2001
 6129SOL    HW224248   3.875   4.004   0.129 -1.1893  2.9239 -3.4517
 6129SOL    HW324249   3.996   3.938   0.067 -0.6245 -0.9203  1.2153
 6129SOL    MW424250   3.956   4.009   0.099 -0.5396 -0.4476 -1.0690
 6130SOL     OW24251   5.185   5.191   5.022  0.1883  0.2575 -0.1916
 6130SOL    HW224252   5.173   5.264   5.082 -0.2608 -0.2110  0.2992
 6130SOL    HW324253   5.152   5.115   5.070  1.1298 -0.3586 -0.4975
 6130SOL    MW424254   5.179   5.191   5.036 -0.1985  0.7268 -0.8709
 6131SOL     OW24255   0.065   4.328   4.851 -0.1800 -0.1394 -0.2284
 6131SOL    HW224256   0.107   4.262   4.796 -1.1205  0.3206 -1.5392
 6131SOL    HW324257  -0.023   4.295   4.866 -0.0373 -0.1097  0.7842
 6131SOL    MW424258   0.059   4.315   4.846 -0.1084 -0.0681  0.6905
 6132SOL     OW24259   3.251   1.072   0.126 -0.4465  0.4588  0.7262
 6132SOL    HW224260   3.341   1.042   0.136  0.2885  0.5051 -3.6640
 6132SOL    HW324261   3.249   1.158   0.168  1.6114  0.5267  0.7618
 6132SOL    MW424262   3.262   1.080   0.133  0.2016 -0.2948  0.2199
 6133SOL     OW24263   3.479   3.419   5.441  0.2085  0.1628  0.1234
 6133SOL    HW224264   3.451   3.470   5.517  0.3403  1.5707 -0.7353
 6133SOL    HW324265   3.562   3.380   5.467 -0.8045 -1.1889  1.4629
 6133SOL    MW424266   3.486   3.421   5.454 -0.2861 -0.2237 -0.2635
 6134SOL     OW24267   3.283   3.496   6.151  0.6086 -0.0880  0.3438
 6134SOL    HW224268   3.242   3.529   6.071  2.2539 -1.0376 -0.9509
 6134SOL    HW324269   3.246   3.409   6.163  1.0893 -0.3332  0.0553
 6134SOL    MW424270   3.272   3.489   6.142  0.3510 -0.2901  0.2646
 6135SOL     OW24271   5.935   2.207   2.154  0.4015  0.1988  0.3620
 6135SOL    HW224272   5.991   2.282   2.175  0.9493  0.3634 -1.4880
 6135SOL    HW324273   5.941   2.199   2.059 -1.5868 -0.6908  0.2592
 6135SOL    MW424274   5.943   2.216   2.144 -0.6170 -0.1643  0.4242
 6136SOL     OW24275   2.561   4.435   0.078 -0.0265 -0.2113  0.0016
 6136SOL    HW224276   2.562   4.360   0.138 -1.1340 -0.9034 -0.8120
 6136SOL    HW324277   2.572   4.511   0.135 -0.6437 -0.8789  1.0508
 6136SOL    MW424278   2.562   4.435   0.094 -0.0327 -0.2479  0.1166
 6137SOL     OW24279   4.651   2.736   0.992  0.6809 -0.4990  0.6836
 6137SOL    HW224280   4.671   2.747   1.085  3.2993  1.7439 -0.0012
 6137SOL    HW324281   4.647   2.826   0.958 -2.4953 -1.1596 -1.0351
 6137SOL    MW424282   4.653   2.750   1.000  0.0535  0.3280  0.2787
 6138SOL     OW24283   5.829   0.194   5.323  0.1335 -0.3236 -1.2609
 6138SOL    HW224284   5.868   0.280   5.308  2.7743 -1.1799 -0.0036
 6138SOL    HW324285   5.792   0.199   5.411  2.0076 -0.9609 -0.3852
 6138SOL    MW424286   5.829   0.206   5.333 -0.0691 -0.0717  0.0724
 6139SOL     OW24287   3.525   4.190   1.548 -0.3304 -0.0171 -0.8656
 6139SOL    HW224288   3.447   4.154   1.505 -0.6563  0.5290 -0.7448
 6139SOL    HW324289   3.579   4.113   1.569  0.0262 -0.2827 -2.5952
 6139SOL    MW424290   3.522   4.175   1.545  0.0071  0.2139  0.3121
 6140SOL     OW24291   3.832   5.478   2.468  0.1220 -0.2848 -0.3355
 6140SOL    HW224292   3.826   5.438   2.555 -2.0423 -2.2744 -1.3042
 6140SOL    HW324293   3.924   5.504   2.461  0.5044 -0.5971  2.2962
 6140SOL    MW424294   3.843   5.476   2.479 -0.4880 -0.6022  0.5710
 6141SOL     OW24295   4.404   0.051   5.647 -0.1098 -0.1766  0.5950
 6141SOL    HW224296   4.430   0.031   5.737  0.5299 -2.1241  0.0203
 6141SOL    HW324297   4.476   0.106   5.613  0.7247 -1.2211  0.6297
 6141SOL    MW424298   4.417   0.056   5.654 -0.5390 -0.5071  0.2628
 6142SOL     OW24299   1.709   3.643   4.979  0.5981 -0.6559 -0.5171
 6142SOL    HW224300   1.744   3.566   4.934 -0.4708 -1.0543 -0.7098
 6142SOL    HW324301   1.778   3.708   4.973  1.5395 -1.6040 -0.3374
 6142SOL    MW424302   1.722   3.641   4.972 -1.3706  0.1320  0.0365
 6143SOL     OW24303   5.639   2.775   1.658  0.0916  0.1207  0.8483
 6143SOL    HW224304   5.637   2.745   1.749  0.4617  0.3357  0.9297
 6143SOL    HW324305   5.626   2.870   1.664  1.3768  0.3183  0.7784
 6143SOL    MW424306   5.637   2.784   1.671  0.4975 -0.3232 -0.4390
 6144SOL     OW24307   2.615   2.145   2.341  0.0554 -0.2077  0.1867
 6144SOL    HW224308   2.676   2.155   2.268  0.6548 -2.1506  0.3539
 6144SOL    HW324309   2.536   2.106   2.302 -0.3341  0.4474  0.2986
 6144SOL    MW424310   2.612   2.141   2.326  0.2969  0.1257 -0.1045
 6145SOL     OW24311   4.575   0.375   3.622  0.1588  0.0141  0.3371
 6145SOL    HW224312   4.609   0.286   3.629  2.3766  0.9175  2.3813
 6145SOL    HW324313   4.553   0.399   3.713 -0.1073  1.6601 -0.1337
 6145SOL    MW424314   4.576   0.366   3.635  0.3222  0.2577  0.5939
 6146SOL     OW24315   5.733   2.037   0.268  0.2544  0.3190 -0.5636
 6146SOL    HW224316   5.654   2.055   0.217  0.0770  0.9275 -0.0813
 6146SOL    HW324317   5.743   1.942   0.264  0.4841  0.3820 -2.0999
 6146SOL    MW424318   5.724   2.027   0.261 -0.3544  0.3373 -0.0530
 6147SOL     OW24319   1.942   0.527   4.379 -0.1203 -0.0539 -0.2690
 6147SOL    HW224320   1.913   0.491   4.463 -0.4269 -0.6134 -0.6074
 6147SOL    HW324321   2.023   0.574   4.400 -1.4127  1.8487  0.7641
 6147SOL    MW424322   1.949   0.529   4.393  1.1114 -0.0636  0.1103
 6148SOL     OW24323   2.108   4.970   3.634 -0.5219 -0.0835 -0.6586
 6148SOL    HW224324   2.045   4.951   3.564 -0.1027 -0.5152 -0.9229
 6148SOL    HW324325   2.072   4.926   3.711  0.1762 -1.5699 -1.1418
 6148SOL    MW424326   2.095   4.962   3.635  0.6861  0.5052  0.6111
 6149SOL     OW24327   1.368   0.364   1.658  0.1152 -0.1675  0.3012
 6149SOL    HW224328   1.354   0.451   1.696  1.9522  0.1318  0.3859
 6149SOL    HW324329   1.393   0.382   1.567  0.8678 -0.5791  0.4240
 6149SOL    MW424330   1.369   0.378   1.651  0.1229  0.1260  0.0046
 6150SOL     OW24331   2.163   6.334   1.698 -0.0214  0.0870 -0.0725
 6150SOL    HW224332   2.229   6.404   1.692  1.1900 -0.9158  0.9610
 6150SOL    HW324333   2.104   6.363   1.767 -0.3125  0.6903 -0.5599
 6150SOL    MW424334   2.164   6.347   1.706  0.3097 -0.0782  0.0555
 6151SOL     OW24335   3.842   2.366   3.184 -0.1753 -0.1389  0.1893
 6151SOL    HW224336   3.907   2.350   3.115  0.8444 -0.3576  1.1683
 6151SOL    HW324337   3.763   2.392   3.137  0.4479 -0.4374 -1.0666
 6151SOL    MW424338   3.840   2.367   3.169 -0.2334  0.3840  0.2591
 6152SOL     OW24339   4.437   2.807   3.040  0.6057  0.4917 -0.4130
 6152SOL    HW224340   4.478   2.723   3.061  0.3265  0.2855 -0.6856
 6152SOL    HW324341   4.511   2.868   3.035  0.8561  0.1771 -0.6434
 6152SOL    MW424342   4.452   2.804   3.042  0.0433  0.1042  0.1053
 6153SOL     OW24343   0.605   0.293   0.924  0.1331  0.7459 -0.1146
 6153SOL    HW224344   0.510   0.288   0.937  0.2436  0.4592  0.6371
 6153SOL    HW324345   0.637   0.342   1.000  0.5500  1.1594 -0.5534
 6153SOL    MW424346   0.597   0.298   0.936 -0.2647  0.0890 -0.1805
 6154SOL     OW24347   6.319   1.043   0.019  0.0051 -0.5450 -0.2760
 6154SOL    HW224348   6.290   0.961  -0.022 -0.8458 -0.7584  0.7279
 6154SOL    HW324349   6.373   1.014   0.093  2.1291 -0.1598 -1.5830
 6154SOL    MW424350   6.322   1.028   0.023  0.1691  0.2569  0.6936
 6155SOL     OW24351   6.086   4.146   1.760  0.2957  0.6364 -0.0181
 6155SOL    HW224352   6.045   4.070   1.802 -0.5873  0.8137 -0.5437
 6155SOL    HW324353   6.081   4.128   1.666  1.5072  0.6304 -0.1057
 6155SOL    MW424354   6.080   4.133   1.753  0.5866  0.3001 -0.5081
 6156SOL     OW24355   5.184   1.279   1.743 -0.2731 -0.0311 -0.0257
 6156SOL    HW224356   5.145   1.364   1.762 -0.2484  0.2488 -1.1621
 6156SOL    HW324357   5.111   1.217   1.748 -0.9362  0.4845 -2.1114
 6156SOL    MW424358   5.169   1.282   1.746  0.3000 -0.3453 -0.1486
 6157SOL     OW24359   5.518   5.299   3.450 -0.3315 -0.1262 -0.5566
 6157SOL    HW224360   5.533   5.345   3.367  1.3166 -2.2323 -1.5023
 6157SOL    HW324361   5.486   5.368   3.509  0.3910  1.8687 -2.3399
 6157SOL    MW424362   5.516   5.314   3.447 -0.1234 -0.2066 -0.2443
 6158SOL     OW24363   1.125   5.958   2.487  0.2350  0.2784 -0.2756
 6158SOL    HW224364   1.105   5.865   2.498 -2.0553  0.7528 -0.0626
 6158SOL    HW324365   1.084   5.981   2.404  0.9193  1.0986 -0.3978
 6158SOL    MW424366   1.117   5.948   2.477  0.1016 -0.0320 -0.9411
 6159SOL     OW24367   3.075   5.246   3.456 -0.1533 -0.2529  0.4465
 6159SOL    HW224368   3.102   5.223   3.545  0.2191  1.5629  0.8521
 6159SOL    HW324369   2.983   5.221   3.452 -0.0037 -0.9498  1.1194
 6159SOL    MW424370   3.066   5.240   3.467 -0.3363  0.2588  0.0057
 6160SOL     OW24371   1.075   3.247   2.457 -0.2482 -0.1480 -0.4211
 6160SOL    HW224372   1.134   3.276   2.387  1.9571 -2.2548  0.4036
 6160SOL    HW324373   1.007   3.197   2.411  0.7857 -0.9341 -1.1494
 6160SOL    MW424374   1.074   3.244   2.441 -0.5463 -0.3114 -0.3788
 6161SOL     OW24375   4.135   0.448   0.908  0.5453 -0.0031  0.5548
 6161SOL    HW224376   4.116   0.515   0.842  1.4616  0.9027  1.1984
 6161SOL    HW324377   4.200   0.391   0.866  0.1774 -0.1734  0.2116
 6161SOL    MW424378   4.141   0.449   0.894  0.3492 -0.2004  0.2561
 6162SOL     OW24379   5.581   0.063   0.191  0.2379  0.3052  0.4495
 6162SOL    HW224380   5.588   0.015   0.274  1.5138 -1.2675 -0.5209
 6162SOL    HW324381   5.539   0.002   0.131 -0.0928  1.1989 -0.2519
 6162SOL    MW424382   5.577   0.049   0.194 -0.1424 -0.3353  0.0001
 6163SOL     OW24383   4.378   3.542   2.813  0.2133  0.1748 -0.4744
 6163SOL    HW224384   4.351   3.556   2.904  0.7079  1.2383 -0.4675
 6163SOL    HW324385   4.325   3.605   2.763  0.3517 -0.0071 -0.8492
 6163SOL    MW424386   4.367   3.552   2.818  0.9637  0.1726 -0.4794
 6164SOL     OW24387   4.169   1.937   4.012  0.0244 -0.3821  0.0445
 6164SOL    HW224388   4.231   1.932   4.085 -1.3842 -2.0017  1.2042
 6164SOL    HW324389   4.209   1.999   3.951  2.0681 -0.2730  1.3994
 6164SOL    MW424390   4.183   1.944   4.014  0.1663  0.2468 -0.7219
 6165SOL     OW24391   0.048   4.892   0.104  0.3727 -0.1818  0.0750
 6165SOL    HW224392   0.041   4.877   0.198 -1.0410 -0.8419 -0.1098
 6165SOL    HW324393   0.002   4.976   0.090 -0.1520 -0.4922 -0.1130
 6165SOL    MW424394   0.041   4.901   0.115 -0.6254  0.0924  0.3462
 6166SOL     OW24395   5.460   4.194   2.662 -0.2239 -0.0390  0.2431
 6166SOL    HW224396   5.529   4.257   2.681  0.8196 -0.6427 -1.3135
 6166SOL    HW324397   5.447   4.147   2.744 -0.1639  1.3538  1.0868
 6166SOL    MW424398   5.467   4.196   2.676 -0.6701 -0.3303 -0.5184
 6167SOL     OW24399   1.159   5.107   5.868 -0.5846 -0.7602  0.1798
 6167SOL    HW224400   1.230   5.045   5.847  0.4333  0.1766  0.7541
 6167SOL    HW324401   1.132   5.141   5.784 -0.0838 -0.8517 -0.0256
 6167SOL    MW424402   1.165   5.103   5.854  0.1626 -0.0274  0.6085
 6168SOL     OW24403   3.345   1.992   0.324 -0.0438  0.0884 -0.0167
 6168SOL    HW224404   3.255   1.979   0.356  0.9957 -1.5747  2.6043
 6168SOL    HW324405   3.395   2.014   0.402  1.8028  1.3656 -1.4872
 6168SOL    MW424406   3.339   1.993   0.338 -0.0628 -0.2588  0.0447
 6169SOL     OW24407   1.556   0.292   4.848 -0.1008  0.3325  0.7971
 6169SOL    HW224408   1.635   0.239   4.837  1.0766  2.4172 -1.8121
 6169SOL    HW324409   1.564   0.328   4.936  0.1906 -1.9159  1.7762
 6169SOL    MW424410   1.568   0.289   4.858  0.2183 -0.1321  0.3995
 6170SOL     OW24411   1.253   0.059   4.710  0.0555  0.1174 -0.8434
 6170SOL    HW224412   1.309  -0.008   4.749  2.3933  0.7392 -2.8483
 6170SOL    HW324413   1.170   0.015   4.694  0.5036 -1.3754  0.6451
 6170SOL    MW424414   1.249   0.045   4.713  0.5200  0.0280 -0.6341
 6171SOL     OW24415   4.390   2.032   0.524  0.4735 -0.6338 -0.1794
 6171SOL    HW224416   4.466   2.000   0.475  0.3734 -0.5901 -0.3612
 6171SOL    HW324417   4.378   1.966   0.593  2.3152  0.6894  1.5361
 6171SOL    MW424418   4.398   2.019   0.527  0.3205  0.2177 -0.0984
 6172SOL     OW24419   5.037   3.767   0.142 -0.2805 -0.2363  0.1751
 6172SOL    HW224420   4.946   3.793   0.127  0.0422  1.2668  0.7199
 6172SOL    HW324421   5.030   3.677   0.175 -1.5305 -0.3218 -0.2688
 6172SOL    MW424422   5.024   3.758   0.145  0.6697  0.5089 -0.2832
 6173SOL     OW24423   2.829   3.507   2.307 -0.2072 -0.4497 -0.3290
 6173SOL    HW224424   2.807   3.599   2.295 -0.1558 -0.4925 -0.7483
 6173SOL    HW324425   2.768   3.459   2.251  0.4042 -0.6102 -0.8690
 6173SOL    MW424426   2.818   3.513   2.298  0.3603  0.8138 -0.4094
 6174SOL     OW24427   3.928   3.168   5.949 -0.3163  0.1706 -0.0829
 6174SOL    HW224428   3.962   3.209   5.870 -0.2869  0.0191 -0.1495
 6174SOL    HW324429   3.862   3.106   5.918  1.3005 -1.5900 -0.1849
 6174SOL    MW424430   3.924   3.165   5.935  0.1082  0.5072 -0.3048
 6175SOL     OW24431   2.406   5.556   0.741 -0.7809  0.4474  0.6055
 6175SOL    HW224432   2.359   5.474   0.760  0.2595 -0.2185  0.4066
 6175SOL    HW324433   2.377   5.580   0.653 -0.5128 -0.1396  0.3508
 6175SOL    MW424434   2.396   5.548   0.732 -0.4144  0.0848 -0.0267
 6176SOL     OW24435   6.274   4.805   4.678  0.1074 -0.2816  0.0781
 6176SOL    HW224436   6.194   4.810   4.731  1.7152  2.3664  2.5650
 6176SOL    HW324437   6.341   4.772   4.739  1.4942  0.3160 -1.0728
 6176SOL    MW424438   6.272   4.801   4.693 -0.4467  0.3634  0.3318
 6177SOL     OW24439   0.034   0.617   0.520  0.0438  0.6305 -0.2450
 6177SOL    HW224440   0.128   0.606   0.533  0.0029  0.0196 -0.4221
 6177SOL    HW324441   0.002   0.528   0.503 -0.5664  0.8300 -0.1646
 6177SOL    MW424442   0.042   0.604   0.520  0.0855 -0.3220 -0.1452
 6178SOL     OW24443   2.685   5.972   2.846  0.5509  0.0592 -0.3522
 6178SOL    HW224444   2.764   6.015   2.813  0.1778  0.4276 -0.7858
 6178SOL    HW324445   2.702   5.956   2.938  0.3608  1.9493  0.0417
 6178SOL    MW424446   2.697   5.976   2.854 -0.5913  0.1899  0.5889
 6179SOL     OW24447   3.928   1.683   1.079 -0.5156  0.1872  0.2564
 6179SOL    HW224448   3.833   1.686   1.088 -0.5781 -1.4848  0.4276
 6179SOL    HW324449   3.960   1.680   1.169 -0.1975  2.0474  0.2508
 6179SOL    MW424450   3.919   1.683   1.092  0.5945 -0.4365  0.4839
 6180SOL     OW24451   4.169   3.535   0.575 -0.2381 -0.4668  0.5049
 6180SOL    HW224452   4.135   3.625   0.570 -2.7593 -1.3836 -0.6708
 6180SOL    HW324453   4.093   3.483   0.602  0.7329 -2.4649 -0.4287
 6180SOL    MW424454   4.154   3.540   0.578  0.1607 -0.0346 -0.0949
 6181SOL     OW24455   3.838   0.852   0.813  0.0480 -0.5132 -0.1544
 6181SOL    HW224456   3.884   0.932   0.791  0.4491 -0.5406  0.5531
 6181SOL    HW324457   3.757   0.855   0.761  0.3574  0.0367 -0.6053
 6181SOL    MW424458   3.833   0.863   0.803  0.0300 -0.1494  0.0034
 6182SOL     OW24459   2.192   6.153   2.859  0.5560  0.2547  0.2789
 6182SOL    HW224460   2.178   6.174   2.767  1.4331 -0.5846 -0.0632
 6182SOL    HW324461   2.231   6.233   2.896  0.5836  0.4574 -0.1789
 6182SOL    MW424462   2.196   6.166   2.852  0.2271 -0.3031  0.5179
 6183SOL     OW24463   4.945   3.004   3.656 -1.0312  0.4575  0.0736
 6183SOL    HW224464   4.913   2.915   3.670  1.9766 -0.7532  0.0186
 6183SOL    HW324465   5.018   3.014   3.717  0.7501  1.6897 -2.0930
 6183SOL    MW424466   4.950   2.994   3.666 -0.6766 -0.2016  0.1914
 6184SOL     OW24467   4.419   0.959   0.222  0.4108  0.6675 -0.5298
 6184SOL    HW224468   4.376   1.017   0.158 -0.3188  0.4844 -0.2194
 6184SOL    HW324469   4.407   0.871   0.186 -1.4134  0.4029  0.6078
 6184SOL    MW424470   4.412   0.955   0.209 -0.0415  0.3134 -0.6453
 6185SOL     OW24471   1.375   2.114   3.122  0.1089  0.0605 -0.4631
 6185SOL    HW224472   1.387   2.022   3.143 -2.5664 -0.0447  0.9372
 6185SOL    HW324473   1.301   2.116   3.061  0.4450  1.2565 -0.8666
 6185SOL    MW424474   1.367   2.102   3.117  0.1031  0.1976  0.6971
 6186SOL     OW24475   4.150   5.335   1.580  0.7239  0.1505 -0.0243
 6186SOL    HW224476   4.125   5.281   1.505  0.5033 -0.1707  0.2765
 6186SOL    HW324477   4.070   5.382   1.603  0.8621  0.4533 -0.1570
 6186SOL    MW424478   4.137   5.334   1.573  0.0348  0.8770  0.4783
 6187SOL     OW24479   6.404   4.560   2.276  0.1452  0.5800  0.4001
 6187SOL    HW224480   6.385   4.529   2.188  0.0808  1.4855  0.0860
 6187SOL    HW324481   6.441   4.484   2.321 -0.5633 -0.1075 -0.1591
 6187SOL    MW424482   6.406   4.546   2.270  0.2015  0.2481  0.2305
 6188SOL     OW24483   4.091   3.943   1.102  0.2852  0.1381 -0.2161
 6188SOL    HW224484   4.186   3.956   1.097  0.3978 -0.5834 -0.0257
 6188SOL    HW324485   4.075   3.863   1.052 -0.3425  0.7375 -1.0069
 6188SOL    MW424486   4.102   3.934   1.095  0.1229 -0.0084 -0.0918
 6189SOL     OW24487   6.028   1.077   5.241  0.2570 -0.5573  0.4134
 6189SOL    HW224488   6.064   1.148   5.189  1.0343 -1.5790 -0.4837
 6189SOL    HW324489   6.055   1.097   5.331 -0.1258  0.6165  0.2815
 6189SOL    MW424490   6.036   1.089   5.246  0.0608 -0.9629 -0.5029
 6190SOL     OW24491   4.169   5.583   3.515 -0.0196  0.4165  0.6911
 6190SOL    HW224492   4.097   5.588   3.451  0.5236 -0.1432  0.0137
 6190SOL    HW324493   4.147   5.507   3.569  0.3838 -0.1629  0.0594
 6190SOL    MW424494   4.156   5.573   3.514 -0.0389 -0.3176 -0.5148
 6191SOL     OW24495   5.897   4.562   0.724 -0.5414 -0.4255 -0.3076
 6191SOL    HW224496   5.962   4.600   0.665  1.2483 -0.3929  1.5518
 6191SOL    HW324497   5.861   4.636   0.772  0.0629 -0.6808  0.5626
 6191SOL    MW424498   5.901   4.577   0.722 -0.0289  0.2807 -0.5308
 6192SOL     OW24499   4.626   6.064   5.613  0.4061  0.0145  0.1043
 6192SOL    HW224500   4.548   6.095   5.568  0.5212  0.6713  0.3369
 6192SOL    HW324501   4.699   6.087   5.556  0.4752 -0.0699  0.1562
 6192SOL    MW424502   4.626   6.071   5.600 -0.1348  0.4867 -0.0156
 6193SOL     OW24503   6.434   3.723   5.035 -0.6294 -0.1831 -0.3276
 6193SOL    HW224504   6.427   3.651   4.972 -1.1324 -0.2355 -0.2160
 6193SOL    HW324505   6.473   3.795   4.984  0.5102 -0.7324 -0.2629
 6193SOL    MW424506   6.438   3.723   5.020 -0.3480 -0.4333 -0.5963
 6194SOL     OW24507   5.311   0.999   4.627 -0.0192 -0.1343  0.4789
 6194SOL    HW224508   5.323   0.904   4.630  0.3967 -0.0839  0.4522
 6194SOL    HW324509   5.397   1.035   4.648 -0.2636  0.2385  0.8685
 6194SOL    MW424510   5.324   0.991   4.630  0.4963  0.0729  0.2099
 6195SOL     OW24511   0.347   3.689   2.925  0.1863 -0.0915  0.3057
 6195SOL    HW224512   0.344   3.762   2.863 -1.9931 -0.2984  0.0898
 6195SOL    HW324513   0.368   3.731   3.009  3.6354  0.1306 -0.5148
 6195SOL    MW424514   0.349   3.704   2.928 -0.0256  0.0710  0.4614
 6196SOL     OW24515   3.127   2.555   0.874  0.0999 -0.6084 -0.2204
 6196SOL    HW224516   3.058   2.571   0.939 -0.6415  0.1760 -1.1790
 6196SOL    HW324517   3.200   2.521   0.926 -0.7466 -0.7758  0.9177
 6196SOL    MW424518   3.127   2.552   0.890 -0.3135 -0.6340  0.7040
 6197SOL     OW24519   1.910   4.153   0.636  0.0434 -0.4336 -0.2140
 6197SOL    HW224520   1.863   4.076   0.668 -0.0273 -0.0043  0.7561
 6197SOL    HW324521   1.844   4.223   0.633  0.4378 -0.0194  0.4261
 6197SOL    MW424522   1.895   4.152   0.640  0.7074  0.1283 -0.3464
 6198SOL     OW24523   3.210   0.537   2.256  0.2889 -0.1581  0.0546
 6198SOL    HW224524   3.263   0.594   2.311  0.6185 -2.1271  1.8935
 6198SOL    HW324525   3.159   0.597   2.201  2.5179  1.8246  0.0108
 6198SOL    MW424526   3.210   0.553   2.256 -0.4319  0.3546  0.0768
 6199SOL     OW24527   6.383   1.724   4.774 -0.1627 -0.3213  0.3245
 6199SOL    HW224528   6.325   1.699   4.847 -0.5414  1.0451  0.5268
 6199SOL    HW324529   6.323   1.745   4.702  0.1733 -0.7116 -0.0755
 6199SOL    MW424530   6.367   1.724   4.774 -0.1555 -0.3963 -0.1892
 6200SOL     OW24531   4.118   5.083   3.159 -0.5957  0.3831  0.2204
 6200SOL    HW224532   4.165   5.100   3.241  0.1290 -0.5862  0.0259
 6200SOL    HW324533   4.060   5.010   3.179  1.3584 -1.5452 -0.7116
 6200SOL    MW424534   4.117   5.076   3.172  0.0629  0.0542  0.0492
 6201SOL     OW24535   6.139   2.085   4.299 -0.4568 -0.3570 -0.1995
 6201SOL    HW224536   6.218   2.102   4.249 -0.9083  0.3815 -0.6831
 6201SOL    HW324537   6.164   2.102   4.390  0.1696 -0.9969 -0.2415
 6201SOL    MW424538   6.152   2.090   4.304 -0.0508 -0.8593  0.6572
 6202SOL     OW24539   5.727   5.381   2.319  0.0904 -0.3733  0.0843
 6202SOL    HW224540   5.689   5.469   2.325  1.5185  0.4895 -2.2531
 6202SOL    HW324541   5.720   5.347   2.408  0.3423  2.4877  1.3300
 6202SOL    MW424542   5.721   5.388   2.332 -0.1473  0.3387  0.2350
 6203SOL     OW24543   5.812   3.515   1.889 -0.1157  0.3143 -0.5561
 6203SOL    HW224544   5.761   3.572   1.832  1.7175  0.3755 -2.2361
 6203SOL    HW324545   5.780   3.427   1.871  0.7602  0.2759 -2.1270
 6203SOL    MW424546   5.801   3.511   1.879  0.0136  0.5104  0.2623
 6204SOL     OW24547   5.506   5.294   4.807 -0.3174  1.0936  0.5363
 6204SOL    HW224548   5.466   5.221   4.760  0.5034  2.2471 -2.1252
 6204SOL    HW324549   5.540   5.254   4.887  0.7980 -1.6862 -1.1409
 6204SOL    MW424550   5.505   5.279   4.811 -0.1385  0.0030  0.1149
 6205SOL     OW24551   3.683   1.018   1.288  0.1394  0.8286  0.0774
 6205SOL    HW224552   3.616   1.071   1.245  0.2168  2.5889  1.9988
 6205SOL    HW324553   3.766   1.062   1.267  1.1285 -2.1386 -3.5444
 6205SOL    MW424554   3.685   1.031   1.279  0.3496  0.1085 -0.9985
 6206SOL     OW24555   3.636   0.720   5.100 -0.2992 -0.8684 -0.0162
 6206SOL    HW224556   3.683   0.770   5.033 -0.7808 -0.5167 -0.0972
 6206SOL    HW324557   3.682   0.739   5.181 -0.9870  0.4016  0.0969
 6206SOL    MW424558   3.648   0.729   5.102 -0.3671  0.0531 -0.2680
 6207SOL     OW24559   5.605   2.110   3.406  0.2923  0.0695  0.0592
 6207SOL    HW224560   5.528   2.131   3.460  0.3659 -0.3109  0.3138
 6207SOL    HW324561   5.581   2.139   3.318  0.2538  0.9095  0.3348
 6207SOL    MW424562   5.592   2.117   3.402  1.3006 -0.0289 -0.2120
 6208SOL     OW24563   4.110   4.555   1.204 -0.0416  0.3091  0.3199
 6208SOL    HW224564   4.057   4.491   1.252 -0.3011  1.3175  1.4235
 6208SOL    HW324565   4.121   4.517   1.117  0.7811 -1.7706  1.2724
 6208SOL    MW424566   4.105   4.542   1.199 -0.3872 -0.8368  0.0488
 6209SOL     OW24567   2.374   3.429   2.895  0.3118  0.4302 -0.3536
 6209SOL    HW224568   2.322   3.366   2.944  0.0614 -0.6170 -1.9341
 6209SOL    HW324569   2.444   3.378   2.855 -0.4435  0.9335 -2.4539
 6209SOL    MW424570   2.376   3.414   2.897 -0.3778  0.4878 -0.3537
 6210SOL     OW24571   1.565   4.235   6.225  0.2763  0.0194 -0.0917
 6210SOL    HW224572   1.637   4.205   6.281  1.2589  1.8585 -0.2647
 6210SOL    HW324573   1.606   4.249   6.139 -0.5198  0.1405 -0.4590
 6210SOL    MW424574   1.580   4.233   6.221  0.2740  0.4146  0.3560
 6211SOL     OW24575   2.249   1.205   6.261  0.0373 -0.1461  0.7437
 6211SOL    HW224576   2.162   1.191   6.225 -0.6787  1.0538  1.9124
 6211SOL    HW324577   2.256   1.142   6.332 -0.7319  1.0806  1.9713
 6211SOL    MW424578   2.238   1.195   6.266 -0.1196  0.4475  0.0913
 6212SOL     OW24579   2.051   5.127   3.079  0.2005 -0.0583 -0.3584
 6212SOL    HW224580   2.005   5.183   3.141 -1.0184 -0.8898 -0.4658
 6212SOL    HW324581   2.083   5.054   3.131 -0.1483 -0.3620 -0.5568
 6212SOL    MW424582   2.049   5.124   3.094 -0.0584  0.6169  0.3412
 6213SOL     OW24583   5.075   3.351   5.797  0.3366  0.4355 -0.1171
 6213SOL    HW224584   5.101   3.297   5.723 -0.9148  0.5265 -0.6520
 6213SOL    HW324585   5.018   3.418   5.759 -0.6001  0.2956  0.9561
 6213SOL    MW424586   5.071   3.353   5.783 -0.0626  0.8271  0.3756
 6214SOL     OW24587   1.756   4.266   4.146  0.4795  0.5218  1.0122
 6214SOL    HW224588   1.789   4.180   4.118 -0.8106  0.6451 -1.1146
 6214SOL    HW324589   1.796   4.280   4.232  1.7008 -1.6450  0.8776
 6214SOL    MW424590   1.765   4.256   4.154  0.0625  0.0953 -0.6249
 6215SOL     OW24591   0.861   0.906   2.965  0.4408 -0.0257 -0.3038
 6215SOL    HW224592   0.879   0.867   3.050  1.1433 -0.7926 -0.7929
 6215SOL    HW324593   0.823   0.836   2.913  0.1476  0.3953 -0.6669
 6215SOL    MW424594   0.859   0.892   2.969 -0.7915  1.3013 -0.0373
 6216SOL     OW24595   4.317   5.065   0.026  0.0539 -0.0327  0.1304
 6216SOL    HW224596   4.288   5.120  -0.047 -0.1709  1.8151  1.5529
 6216SOL    HW324597   4.310   4.976  -0.008 -0.6404  0.7226 -1.8911
 6216SOL    MW424598   4.313   5.061   0.012 -0.8082 -0.2589 -0.2037
 6217SOL     OW24599   6.102   5.347   5.155 -0.0130  0.5995  0.3299
 6217SOL    HW224600   6.028   5.395   5.116  0.5487  0.9912 -0.2677
 6217SOL    HW324601   6.144   5.303   5.082  0.4551  0.5204  0.6397
 6217SOL    MW424602   6.097   5.347   5.141 -0.5447 -0.6630 -0.0234
 6218SOL     OW24603   5.093   0.784   1.714  0.6132  0.2511 -0.0961
 6218SOL    HW224604   5.087   0.866   1.665  0.1141  0.5546  0.4627
 6218SOL    HW324605   5.086   0.810   1.806  1.3287 -0.3344  0.1324
 6218SOL    MW424606   5.092   0.798   1.720 -0.1018  0.7948 -0.2166
 6219SOL     OW24607   5.387   3.567   6.159  0.1132 -0.1244  0.1395
 6219SOL    HW224608   5.406   3.526   6.244  0.5611  0.4168  0.3077
 6219SOL    HW324609   5.300   3.605   6.170  0.0343 -0.3370  0.2513
 6219SOL    MW424610   5.378   3.567   6.172 -0.0039  0.9011  0.0140
 6220SOL     OW24611   2.961   3.725   2.775  0.3499  0.2102 -0.3216
 6220SOL    HW224612   3.033   3.788   2.787  0.4089 -0.1355  1.4173
 6220SOL    HW324613   2.889   3.760   2.828 -0.1244 -0.3995 -0.5541
 6220SOL    MW424614   2.961   3.738   2.784  0.3178 -0.2059  0.2624
 6221SOL     OW24615   4.187   0.094   0.747  0.7122 -0.3810  0.0926
 6221SOL    HW224616   4.214   0.171   0.697 -0.0033  1.0586  1.8249
 6221SOL    HW324617   4.095   0.109   0.767  1.0793 -0.6307  2.2299
 6221SOL    MW424618   4.179   0.106   0.743 -0.5319  0.2379 -0.1465
 6222SOL     OW24619   5.800   0.334   1.446 -0.6999 -0.1991 -0.4207
 6222SOL    HW224620   5.708   0.350   1.467 -0.7139  0.6545 -1.0836
 6222SOL    HW324621   5.847   0.350   1.528 -1.0285  0.4666 -0.3611
 6222SOL    MW424622   5.794   0.338   1.459 -0.0437  0.3436 -0.1143
 6223SOL     OW24623   3.099   1.075   1.936  0.4609  0.0610  0.0607
 6223SOL    HW224624   3.086   1.071   1.841  0.5578  2.5305 -0.1411
 6223SOL    HW324625   3.012   1.060   1.973  0.0386  0.9084 -0.5446
 6223SOL    MW424626   3.086   1.073   1.929  0.1317 -0.3499  0.0984
 6224SOL     OW24627   4.418   0.495   2.905  0.3263 -0.1773  0.2489
 6224SOL    HW224628   4.504   0.534   2.920  0.4315  0.7448 -2.3716
 6224SOL    HW324629   4.376   0.551   2.840 -2.3538 -0.5418  1.5042
 6224SOL    MW424630   4.424   0.507   2.899 -0.2132 -0.1086 -0.6875
 6225SOL     OW24631   5.164   2.191   2.775  0.3697  0.0140  0.3363
 6225SOL    HW224632   5.110   2.135   2.831  0.5553 -0.2009  0.3018
 6225SOL    HW324633   5.254   2.161   2.791  0.3920 -0.2989 -0.3565
 6225SOL    MW424634   5.169   2.179   2.785 -0.1532 -0.4055 -0.0415
 6226SOL     OW24635   0.186   4.182   6.155 -0.3806 -0.2681 -0.0363
 6226SOL    HW224636   0.143   4.111   6.108  0.0213  0.1613 -1.0951
 6226SOL    HW324637   0.181   4.257   6.095 -0.5703  0.5234  0.9518
 6226SOL    MW424638   0.180   4.183   6.141  0.6892  0.1487  0.1194
 6227SOL     OW24639   3.148   0.779   3.204  0.2285 -0.2121 -0.4518
 6227SOL    HW224640   3.136   0.873   3.204  0.1605 -0.2203 -0.6691
 6227SOL    HW324641   3.239   0.766   3.229  0.8279 -0.0042 -2.3765
 6227SOL    MW424642   3.158   0.789   3.207 -0.1519 -0.4580  0.2221
 6228SOL     OW24643   1.462   0.112   2.868  0.0788 -0.1778 -1.1613
 6228SOL    HW224644   1.423   0.042   2.816 -1.0429  0.2456 -0.9425
 6228SOL    HW324645   1.450   0.191   2.816  0.5461 -0.0206 -1.0331
 6228SOL    MW424646   1.455   0.114   2.854  0.4009 -0.5745 -0.3784
 6229SOL     OW24647   4.423   4.611   4.050  0.7919 -0.1258  0.1100
 6229SOL    HW224648   4.450   4.541   3.991 -1.4806 -1.5896  0.6950
 6229SOL    HW324649   4.502   4.664   4.062  2.1148 -1.5619 -1.7439
 6229SOL    MW424650   4.437   4.608   4.044  0.7753 -0.0777  0.6723
 6230SOL     OW24651   1.942   4.019   1.133  0.1118 -0.8686  0.8125
 6230SOL    HW224652   1.890   3.941   1.152 -4.3013  1.4920 -0.2890
 6230SOL    HW324653   1.949   4.022   1.038  0.8701 -0.2383  0.8688
 6230SOL    MW424654   1.936   4.009   1.123  0.5622  0.6333  0.3487
 6231SOL     OW24655   0.225   1.514   3.004 -0.2234 -0.2211  0.4948
 6231SOL    HW224656   0.317   1.534   3.025  0.1254 -0.5789 -0.6250
 6231SOL    HW324657   0.177   1.537   3.084  0.5674  1.9852  0.4134
 6231SOL    MW424658   0.231   1.520   3.017 -0.5474 -0.3652 -0.4031
 6232SOL     OW24659   2.705   4.408   0.772  0.7363  0.1089  0.0253
 6232SOL    HW224660   2.730   4.322   0.738 -0.5917  0.6428 -2.5485
 6232SOL    HW324661   2.625   4.392   0.822  0.4605 -0.1789 -0.4928
 6232SOL    MW424662   2.698   4.395   0.774  0.1374  0.3226  0.0166
 6233SOL     OW24663   3.353   3.617   1.159 -0.5559 -0.2938 -0.0999
 6233SOL    HW224664   3.446   3.622   1.141 -0.0879  1.1401  2.2119
 6233SOL    HW324665   3.318   3.701   1.130 -1.0310 -0.6023 -0.4411
 6233SOL    MW424666   3.360   3.629   1.153  0.2694  0.6406  0.2381
 6234SOL     OW24667   0.124   0.516   1.479 -0.5052 -0.3499  0.8235
 6234SOL    HW224668   0.088   0.449   1.537  1.0661 -2.7255 -0.7799
 6234SOL    HW324669   0.090   0.493   1.392 -0.1494  1.1239  0.2663
 6234SOL    MW424670   0.115   0.504   1.475 -0.3941  0.2196 -0.0834
 6235SOL     OW24671   0.502   2.241   4.661  0.0262  0.4387 -0.0024
 6235SOL    HW224672   0.411   2.228   4.685  0.0547  1.0804  0.4878
 6235SOL    HW324673   0.543   2.155   4.675  0.2175  0.9184  3.1241
 6235SOL    MW424674   0.496   2.228   4.666 -0.4028 -0.1148 -0.6153
 6236SOL     OW24675   5.440   3.932   4.803 -0.0865 -0.5865 -0.1412
 6236SOL    HW224676   5.502   3.861   4.786  0.7880  0.1883 -0.2306
 6236SOL    HW324677   5.494   4.011   4.805 -1.3590  0.5090 -3.0179
 6236SOL    MW424678   5.455   3.933   4.801  0.1067  0.9539 -0.2665
 6237SOL     OW24679   1.216   2.595   0.421  0.5997  0.6042 -0.1834
 6237SOL    HW224680   1.218   2.499   0.413  0.3841  0.6009 -0.1950
 6237SOL    HW324681   1.220   2.612   0.515 -0.0006  0.5674 -0.1487
 6237SOL    MW424682   1.217   2.585   0.432  0.1817 -0.0314 -0.4523
 6238SOL     OW24683   3.750   4.325   1.419  0.2283  0.3176  0.3537
 6238SOL    HW224684   3.662   4.290   1.434 -0.1746  0.7298 -0.8712
 6238SOL    HW324685   3.808   4.250   1.430 -0.3666 -0.1564  0.3124
 6238SOL    MW424686   3.746   4.311   1.422  0.2585  0.1204 -0.1528
 6239SOL     OW24687   2.758   4.155   0.617  0.1698  0.0502 -0.2004
 6239SOL    HW224688   2.811   4.113   0.549 -0.8712 -2.0768  0.2038
 6239SOL    HW324689   2.760   4.093   0.690 -0.4865  1.2825  0.8995
 6239SOL    MW424690   2.765   4.141   0.618  0.1062 -0.2084  0.2896
 6240SOL     OW24691   5.532   0.870   4.333  0.1875  0.7601 -0.2409
 6240SOL    HW224692   5.538   0.779   4.362  3.2997  1.6270  2.4636
 6240SOL    HW324693   5.444   0.898   4.361 -0.2635 -0.9870  0.2308
 6240SOL    MW424694   5.521   0.861   4.341 -0.1609  0.0700  0.6756
 6241SOL     OW24695   2.666   1.078   5.569 -0.5674  0.4037  0.3528
 6241SOL    HW224696   2.685   1.039   5.655  3.8388 -0.3959 -0.7705
 6241SOL    HW324697   2.624   1.008   5.520 -2.0330  0.4864  1.4217
 6241SOL    MW424698   2.663   1.064   5.574  0.0680  0.2081 -0.0712
 6242SOL     OW24699   5.520   3.461   5.690  0.1237  0.3244 -0.3194
 6242SOL    HW224700   5.531   3.529   5.624  1.7560  0.6589  0.2407
 6242SOL    HW324701   5.607   3.421   5.698  0.0582  0.4652  1.7915
 6242SOL    MW424702   5.533   3.464   5.682  0.3726  0.2220  0.0348
 6243SOL     OW24703   4.791   0.422   4.269 -0.0072 -0.2165 -0.2804
 6243SOL    HW224704   4.882   0.441   4.246 -0.0383  0.1363 -0.1242
 6243SOL    HW324705   4.763   0.499   4.320 -0.3411 -0.3958 -0.1932
 6243SOL    MW424706   4.799   0.435   4.272  0.1277 -0.3621  0.4117
 6244SOL     OW24707   2.357   0.712   3.050  0.1813  0.4269  0.3883
 6244SOL    HW224708   2.315   0.798   3.050  0.3122  0.5033  1.3427
 6244SOL    HW324709   2.421   0.717   2.979 -1.0904  0.4535 -0.7985
 6244SOL    MW424710   2.360   0.724   3.040 -0.0576 -0.0766  0.7342
 6245SOL     OW24711   6.276   5.227   4.992 -0.0571  1.0102  0.1208
 6245SOL    HW224712   6.310   5.171   5.062  0.2128  2.0736  0.8568
 6245SOL    HW324713   6.226   5.167   4.936  1.2408 -0.1995  0.1944
 6245SOL    MW424714   6.274   5.212   4.993 -0.7668 -0.3546 -0.0079
 6246SOL     OW24715   0.717   5.822   4.412 -0.6077  0.4522 -0.0034
 6246SOL    HW224716   0.670   5.743   4.437 -0.0256 -0.0560 -0.4929
 6246SOL    HW324717   0.745   5.806   4.322 -0.5940  1.2643 -0.1505
 6246SOL    MW424718   0.715   5.810   4.404  0.6769  0.4814  0.3295
 6247SOL     OW24719   1.460   5.084   5.839 -0.6310 -0.2430  0.3127
 6247SOL    HW224720   1.400   5.035   5.895  1.0233 -1.1293  1.3964
 6247SOL    HW324721   1.529   5.114   5.898 -0.4323  1.4972 -0.7365
 6247SOL    MW424722   1.461   5.081   5.854  0.5496  0.4842 -0.7819
 6248SOL     OW24723   0.884   3.480   3.513  0.3534  0.3579 -0.1348
 6248SOL    HW224724   0.834   3.439   3.443 -1.3492  0.7711  0.8009
 6248SOL    HW324725   0.885   3.573   3.490 -0.2333  0.4986  0.3884
 6248SOL    MW424726   0.878   3.487   3.500 -0.4167  0.3295 -0.0478
 6249SOL     OW24727   1.066   2.670   1.846  0.0333 -0.2234  0.5858
 6249SOL    HW224728   0.995   2.633   1.793 -0.0482 -0.1820  0.6656
 6249SOL    HW324729   1.109   2.733   1.788  0.5397 -0.8670  0.2567
 6249SOL    MW424730   1.062   2.674   1.832 -0.1947 -0.4105  0.0614
 6250SOL     OW24731   1.218   0.061   3.535 -0.3913 -0.0494  0.1145
 6250SOL    HW224732   1.127   0.088   3.521 -0.4187  1.3434  2.5612
 6250SOL    HW324733   1.229  -0.014   3.477 -3.4665 -1.0303  0.6099
 6250SOL    MW424734   1.207   0.055   3.525 -0.3932 -0.1316  0.0807
 6251SOL     OW24735   4.030   2.487   2.661  0.4528 -0.0687 -0.0910
 6251SOL    HW224736   4.050   2.519   2.572 -0.1488  0.1161 -0.1590
 6251SOL    HW324737   3.940   2.458   2.656  0.6998 -0.9024  0.2319
 6251SOL    MW424738   4.021   2.487   2.648  0.1875 -0.5309  0.4004
 6252SOL     OW24739   3.845   3.981   5.892  0.0773  0.7640 -0.2594
 6252SOL    HW224740   3.893   3.994   5.974  0.6533  1.4763 -0.6896
 6252SOL    HW324741   3.901   3.924   5.840 -0.1555  0.5394 -0.2661
 6252SOL    MW424742   3.859   3.976   5.896 -0.2480 -0.0808 -0.8436
 6253SOL     OW24743   6.060   6.000   2.579 -0.1329  0.1251  0.0479
 6253SOL    HW224744   5.966   5.981   2.580 -0.0728 -0.1824  0.6487
 6253SOL    HW324745   6.068   6.087   2.619 -0.1405  0.0272  0.2646
 6253SOL    MW424746   6.049   6.009   2.584  0.0287  0.1446  0.3305
 6254SOL     OW24747   2.443   5.751   1.847  0.5468 -0.2952  0.2388
 6254SOL    HW224748   2.526   5.728   1.805  0.7694  1.8076 -0.5777
 6254SOL    HW324749   2.468   5.784   1.933  0.3989 -1.1594  0.6227
 6254SOL    MW424750   2.457   5.752   1.853 -0.3833 -0.1491  0.0222
 6255SOL     OW24751   5.815   3.672   0.301 -0.0579 -0.3937  0.2415
 6255SOL    HW224752   5.845   3.759   0.327 -0.4989 -0.0567 -0.3401
 6255SOL    HW324753   5.747   3.689   0.236 -1.1267 -1.1371  1.1180
 6255SOL    MW424754   5.810   3.686   0.296 -0.0472  0.4740 -0.0178
 6256SOL     OW24755   6.279   6.035   3.671  0.1935  0.3511 -0.3919
 6256SOL    HW224756   6.211   6.027   3.737 -0.7400 -0.5274 -1.4407
 6256SOL    HW324757   6.267   6.123   3.635 -0.2359  0.2811 -0.4194
 6256SOL    MW424758   6.269   6.046   3.675 -0.3824  0.3263 -0.6431
 6257SOL     OW24759   1.634   5.700   5.525 -0.4527  0.5233  0.4365
 6257SOL    HW224760   1.629   5.729   5.434 -0.7159  1.3115  0.6998
 6257SOL    HW324761   1.555   5.646   5.537 -0.5363  0.6077  0.2682
 6257SOL    MW424762   1.623   5.696   5.514 -0.2078 -0.2887 -0.0068
 6258SOL     OW24763   0.832   1.563   3.982 -0.1983 -0.2501  0.1687
 6258SOL    HW224764   0.924   1.584   3.996 -0.4721  0.5762  0.7772
 6258SOL    HW324765   0.834   1.493   3.916  0.7553  1.4571 -1.7320
 6258SOL    MW424766   0.844   1.556   3.975  0.5725  0.3021  0.2323
 6259SOL     OW24767   1.760   0.137   1.402  0.3455 -0.5232 -0.3795
 6259SOL    HW224768   1.672   0.105   1.423  0.1777 -0.6065 -1.1914
 6259SOL    HW324769   1.780   0.100   1.316  1.5347 -1.2092  0.1710
 6259SOL    MW424770   1.751   0.128   1.393 -0.1699  0.1635  0.4878
 6260SOL     OW24771   2.977   3.630   5.232 -0.5028  0.3561 -0.3019
 6260SOL    HW224772   2.916   3.582   5.289 -1.4015 -0.2601 -1.7251
 6260SOL    HW324773   2.920   3.688   5.181  0.1410  0.0857 -1.3484
 6260SOL    MW424774   2.961   3.631   5.233 -0.1292  0.7723  0.0764
 6261SOL     OW24775   2.533   2.749   4.454  0.1373 -0.3582 -0.2449
 6261SOL    HW224776   2.629   2.755   4.454  0.2366 -1.5051  0.8348
 6261SOL    HW324777   2.514   2.672   4.508 -1.4360  0.4313  0.3883
 6261SOL    MW424778   2.543   2.739   4.461 -0.2722  0.0307  0.2282
 6262SOL     OW24779   4.696   5.769   4.003  0.1735 -0.0099  0.1307
 6262SOL    HW224780   4.769   5.826   4.026  3.0511 -2.5416 -1.8838
 6262SOL    HW324781   4.654   5.812   3.929 -0.7400  1.6313  1.5115
 6262SOL    MW424782   4.700   5.782   3.997  0.5812  0.1016 -0.4231
 6263SOL     OW24783   4.781   6.112   5.082  0.2292  0.2875 -0.2821
 6263SOL    HW224784   4.816   6.195   5.114  2.3431  0.4817 -2.7849
 6263SOL    HW324785   4.857   6.067   5.044 -1.3488 -1.6310 -1.3625
 6263SOL    MW424786   4.795   6.117   5.081 -0.5694  0.1830  0.1680
 6264SOL     OW24787   1.156   2.013   2.232  0.6291 -0.5727  0.9011
 6264SOL    HW224788   1.210   2.072   2.285  0.7472 -0.7957  1.0308
 6264SOL    HW324789   1.207   1.932   2.227  1.2097 -0.1517 -0.6132
 6264SOL    MW424790   1.170   2.010   2.238 -0.0357 -0.0571  0.3202
 6265SOL     OW24791   1.949   3.821   3.134  0.2854 -0.4068  0.0011
 6265SOL    HW224792   1.862   3.817   3.174 -0.1324 -0.5191 -0.8905
 6265SOL    HW324793   1.998   3.883   3.188 -0.1989 -0.6965  0.7817
 6265SOL    MW424794   1.944   3.829   3.146 -0.3348  0.1598 -0.1624
 6266SOL     OW24795   1.617   3.314   5.457  0.0380 -0.2831  0.3857
 6266SOL    HW224796   1.638   3.323   5.550 -0.4212 -0.0232  0.4648
 6266SOL    HW324797   1.699   3.335   5.412 -0.0532  0.7419  0.6905
 6266SOL    MW424798   1.631   3.318   5.463  0.0261  0.6115 -0.3398
 6267SOL     OW24799   1.517   1.680   0.572  0.7258  0.2216  0.1238
 6267SOL    HW224800   1.471   1.620   0.632  0.6039 -1.4678 -1.5758
 6267SOL    HW324801   1.609   1.668   0.593  0.6761 -0.2465  0.0929
 6267SOL    MW424802   1.523   1.671   0.583 -0.0065 -0.5690  0.5774
 6268SOL     OW24803   3.879   6.056   6.277  0.0216 -0.0777  0.3429
 6268SOL    HW224804   3.836   6.120   6.333 -1.8162  1.1186 -2.2180
 6268SOL    HW324805   3.826   6.054   6.198  0.7078 -3.9296 -0.2137
 6268SOL    MW424806   3.866   6.064   6.274  0.0863 -0.1921 -0.4409
 6269SOL     OW24807   2.368   4.430   1.860  0.0254  0.2777 -0.8711
 6269SOL    HW224808   2.281   4.390   1.857 -0.4505  1.0751  0.7972
 6269SOL    HW324809   2.351   4.523   1.875  1.1531  0.2843  0.5525
 6269SOL    MW424810   2.354   4.437   1.862 -0.2545  0.2059  0.6852
 6270SOL     OW24811   4.589   0.787   4.167 -0.3255 -0.2331 -0.0492
 6270SOL    HW224812   4.546   0.853   4.220 -2.1905 -0.7764 -0.7958
 6270SOL    HW324813   4.664   0.758   4.220  0.6962  2.5536  0.1963
 6270SOL    MW424814   4.593   0.792   4.181 -0.5138  0.2853  0.0491
 6271SOL     OW24815   3.587   3.550   5.190 -0.0598  0.4193 -0.2099
 6271SOL    HW224816   3.544   3.525   5.272  0.7868  1.7587  0.6843
 6271SOL    HW324817   3.672   3.506   5.193  0.0948  0.7122 -0.2147
 6271SOL    MW424818   3.593   3.541   5.201  0.4810 -0.2121  0.4994
 6272SOL     OW24819   4.958   4.466   3.877 -0.0693 -0.1290  0.3459
 6272SOL    HW224820   5.037   4.431   3.918  0.9203  0.2219 -1.1827
 6272SOL    HW324821   4.909   4.505   3.950  1.4205  0.1425  1.2638
 6272SOL    MW424822   4.962   4.467   3.892  0.2859  0.1904 -0.0826
 6273SOL     OW24823   5.973   3.925   4.269  0.2934 -0.4780 -0.1172
 6273SOL    HW224824   5.890   3.916   4.316  0.1967 -1.0380 -0.3850
 6273SOL    HW324825   6.023   3.848   4.295  0.1016 -0.9866 -1.1974
 6273SOL    MW424826   5.968   3.913   4.279  0.0714  0.7719 -0.2018
 6274SOL     OW24827   0.192   2.933   3.524  0.3111  0.6948  0.1249
 6274SOL    HW224828   0.286   2.921   3.538  0.5405  1.7006 -0.4925
 6274SOL    HW324829   0.161   2.848   3.492  0.2301 -0.9421  3.9970
 6274SOL    MW424830   0.200   2.920   3.521  0.4186  0.0604 -0.7173
 6275SOL     OW24831   5.132   3.146   2.760 -0.3871 -0.0296  0.2651
 6275SOL    HW224832   5.046   3.110   2.779 -0.5706  1.0195  1.5081
 6275SOL    HW324833   5.129   3.167   2.666 -0.6005 -2.2507 -0.2879
 6275SOL    MW424834   5.120   3.144   2.750 -0.0422 -0.5704 -0.1037
 6276SOL     OW24835   4.696   5.852   5.790  0.0175  0.0487 -0.3739
 6276SOL    HW224836   4.667   5.935   5.751 -1.5771 -0.9293 -1.3843
 6276SOL    HW324837   4.644   5.785   5.745  0.4569 -1.4152  1.1993
 6276SOL    MW424838   4.685   5.854   5.778 -0.0487  0.6895  0.2486
 6277SOL     OW24839   0.582   3.558   2.818 -0.2162 -0.1655  0.1302
 6277SOL    HW224840   0.514   3.595   2.874  0.0035 -0.0749  0.3345
 6277SOL    HW324841   0.600   3.472   2.855 -1.4725 -0.9421 -0.9467
 6277SOL    MW424842   0.576   3.552   2.830  0.4867  0.1888 -0.0388
 6278SOL     OW24843   3.960   5.729   2.168  0.4261  0.0039  0.0595
 6278SOL    HW224844   3.905   5.755   2.241 -0.1983  0.2793 -0.4923
 6278SOL    HW324845   3.904   5.672   2.115  0.6861  0.2514 -0.4890
 6278SOL    MW424846   3.946   5.725   2.170 -0.2450 -0.3011  0.0486
 6279SOL     OW24847   1.018   0.627   3.446  0.5114 -0.1997 -0.0552
 6279SOL    HW224848   1.047   0.615   3.536 -0.9401 -0.0019  0.4616
 6279SOL    HW324849   0.942   0.684   3.452  0.7378  0.2938 -1.4717
 6279SOL    MW424850   1.012   0.633   3.459 -0.0064 -0.1365  0.6025
 6280SOL     OW24851   0.583   1.399   5.548  0.4259 -0.1480 -0.0277
 6280SOL    HW224852   0.607   1.486   5.516 -0.8046  1.0933  2.1982
 6280SOL    HW324853   0.488   1.396   5.542  0.3367 -0.7296  1.2987
 6280SOL    MW424854   0.574   1.410   5.543  0.1395  0.4392  0.1434
 6281SOL     OW24855   0.141   0.619   3.621 -0.1508  0.4492  0.1241
 6281SOL    HW224856   0.128   0.634   3.527  0.2854  0.8672  0.1263
 6281SOL    HW324857   0.199   0.543   3.625  1.2793  1.4876 -0.0017
 6281SOL    MW424858   0.147   0.611   3.609 -0.3079 -0.1298 -0.2184
 6282SOL     OW24859   2.971   0.088   3.696 -0.0422 -0.0532 -0.0158
 6282SOL    HW224860   3.004   0.017   3.641  0.6239 -1.0312  1.5698
 6282SOL    HW324861   3.019   0.165   3.667 -0.0309 -0.4530 -1.0879
 6282SOL    MW424862   2.982   0.089   3.685  0.2359 -0.5630 -0.4713
 6283SOL     OW24863   2.081   1.631   3.533  0.1531 -0.4035 -0.4947
 6283SOL    HW224864   2.021   1.704   3.549  0.9091  0.0523  0.3546
 6283SOL    HW324865   2.164   1.673   3.510  1.2223 -0.8889  2.1370
 6283SOL    MW424866   2.084   1.646   3.532 -0.3015  0.1919 -0.0124
 6284SOL     OW24867   1.530   1.038   6.047  0.1565 -0.2549 -0.0451
 6284SOL    HW224868   1.542   0.945   6.065  2.3486  0.0996  0.6020
 6284SOL    HW324869   1.607   1.080   6.086 -1.3592  1.9731  0.7127
 6284SOL    MW424870   1.542   1.031   6.054  0.3552  0.0169  0.0606
 6285SOL     OW24871   3.166   5.785   1.996 -0.0669  0.5366 -0.1645
 6285SOL    HW224872   3.153   5.774   2.090 -1.6172 -0.7548 -0.4812
 6285SOL    HW324873   3.258   5.811   1.986  0.3828 -0.2891  1.6190
 6285SOL    MW424874   3.176   5.787   2.007 -0.0875 -0.1241  0.2195
 6286SOL     OW24875   5.570   6.007   1.001  0.1821  0.0539 -0.3603
 6286SOL    HW224876   5.513   5.933   0.980 -1.6963  1.4954 -0.5734
 6286SOL    HW324877   5.542   6.077   0.943  1.2387  1.2587  0.5139
 6286SOL    MW424878   5.559   6.007   0.991  0.7450 -0.5317 -0.7273
 6287SOL     OW24879   2.122   2.726   5.084 -0.0636 -0.1745  0.0721
 6287SOL    HW224880   2.032   2.719   5.053 -0.4462  1.4371  0.7177
 6287SOL    HW324881   2.155   2.807   5.045  1.1716 -0.8189 -0.2828
 6287SOL    MW424882   2.115   2.736   5.075  0.7537 -0.2068 -0.1462
 6288SOL     OW24883   4.156   3.143   0.478  0.4462 -0.3711 -0.2069
 6288SOL    HW224884   4.182   3.053   0.495  1.6561 -0.0124 -0.0279
 6288SOL    HW324885   4.124   3.143   0.388  0.4331 -0.9815 -0.2053
 6288SOL    MW424886   4.155   3.131   0.469 -0.0844 -0.1426 -0.5488
 6289SOL     OW24887   2.306   0.612   3.987 -0.4338  0.0004 -0.1466
 6289SOL    HW224888   2.220   0.573   4.000 -0.3012 -0.0589  0.5785
 6289SOL    HW324889   2.356   0.543   3.942 -0.6919 -0.0458 -0.3682
 6289SOL    MW424890   2.302   0.598   3.983  0.1334 -0.5661  0.2831
 6290SOL     OW24891   2.236   2.869   2.250  0.2999  0.3755  0.4397
 6290SOL    HW224892   2.143   2.866   2.272 -0.8065 -0.0276 -3.4933
 6290SOL    HW324893   2.265   2.778   2.252  0.1480  0.3184  0.0921
 6290SOL    MW424894   2.228   2.857   2.253  0.0832 -0.0983  0.3293
 6291SOL     OW24895   2.553   2.678   0.158  0.4617  0.4646 -0.0362
 6291SOL    HW224896   2.465   2.679   0.196  0.7930  0.5807  0.7540
 6291SOL    HW324897   2.568   2.768   0.128  0.3923  0.4994  0.0340
 6291SOL    MW424898   2.544   2.690   0.159  0.0291 -0.4338 -0.2800
 6292SOL     OW24899   0.897   2.552   3.869  0.3492 -0.1084 -0.0312
 6292SOL    HW224900   0.920   2.521   3.956  0.2481 -1.1795 -0.3688
 6292SOL    HW324901   0.858   2.639   3.883 -0.0801 -0.4644  1.0243
 6292SOL    MW424902   0.895   2.560   3.882  0.4077 -0.1938  0.5728
 6293SOL     OW24903   6.164   1.288   6.362  0.5997  0.9449  0.0544
 6293SOL    HW224904   6.242   1.233   6.366  0.2107  0.3490 -0.4063
 6293SOL    HW324905   6.182   1.348   6.290  0.2108  0.1279 -0.7417
 6293SOL    MW424906   6.177   1.289   6.353  0.4591 -0.0568  0.8642
 6294SOL     OW24907   2.203   1.536   0.637  0.7264  0.1673 -0.9814
 6294SOL    HW224908   2.192   1.484   0.558  2.0124 -0.0850 -1.0165
 6294SOL    HW324909   2.294   1.567   0.633  2.0109 -2.6064  1.9806
 6294SOL    MW424910   2.214   1.533   0.626 -0.0988 -0.1577 -0.5573
 6295SOL     OW24911   0.358   3.699   4.401  0.7587  0.6977 -0.1190
 6295SOL    HW224912   0.384   3.637   4.470  0.3382  0.9139  0.2430
 6295SOL    HW324913   0.372   3.785   4.440 -0.1338  0.8168 -0.0445
 6295SOL    MW424914   0.363   3.702   4.415  0.0357 -0.8995 -0.1212
 6296SOL     OW24915   3.003   4.149   1.571  0.0512  0.3302 -0.0725
 6296SOL    HW224916   2.922   4.132   1.523  0.9312 -0.8263 -1.2061
 6296SOL    HW324917   3.030   4.236   1.542  0.5104 -0.2992 -1.6483
 6296SOL    MW424918   2.996   4.158   1.561 -0.6523 -0.4332 -0.4629
 6297SOL     OW24919   1.188   5.749   3.223  0.0960  0.2942 -0.3006
 6297SOL    HW224920   1.112   5.700   3.191 -0.7943 -0.0843  2.1481
 6297SOL    HW324921   1.262   5.717   3.171 -0.9841 -1.2666 -0.9491
 6297SOL    MW424922   1.188   5.738   3.212 -0.1966  0.2502  0.0792
 6298SOL     OW24923   3.269   4.518   5.771 -0.6952  0.5762 -0.0468
 6298SOL    HW224924   3.296   4.535   5.861 -2.3470  0.8093  0.4265
 6298SOL    HW324925   3.208   4.445   5.777 -1.2350  0.9402 -0.9015
 6298SOL    MW424926   3.265   4.510   5.784 -0.1043 -0.2887  0.2380
 6299SOL     OW24927   1.148   3.633   3.245 -0.2209 -0.2860 -0.1045
 6299SOL    HW224928   1.100   3.553   3.225  0.6677 -0.8702  0.0792
 6299SOL    HW324929   1.224   3.605   3.295 -0.0345  0.7003  0.1970
 6299SOL    MW424930   1.151   3.619   3.249 -0.3687 -0.8010  0.1747
 6300SOL     OW24931   1.130   3.473   5.290  0.1555  0.3658 -0.2792
 6300SOL    HW224932   1.107   3.395   5.341 -0.0166  1.0717  0.7376
 6300SOL    HW324933   1.208   3.447   5.241  0.2720 -0.3583  0.2694
 6300SOL    MW424934   1.137   3.459   5.290 -0.1910  0.2087 -0.2703
 6301SOL     OW24935   4.587   0.929   0.468 -0.3179 -0.3778 -0.6627
 6301SOL    HW224936   4.494   0.908   0.474 -0.2862 -0.5803 -0.9087
 6301SOL    HW324937   4.592   1.022   0.490 -0.0786 -1.2501  4.1462
 6301SOL    MW424938   4.576   0.939   0.472 -0.0167  0.4130  0.1305
 6302SOL     OW24939   0.603   3.223   6.182 -0.3880 -0.6072  0.4316
 6302SOL    HW224940   0.696   3.226   6.163 -0.4259  0.5433  0.3733
 6302SOL    HW324941   0.598   3.204   6.276 -0.1751 -3.5912 -0.0433
 6302SOL    MW424942   0.615   3.221   6.192  0.2222  0.2413 -0.0074
 6303SOL     OW24943   3.696   4.365   4.431 -0.5796 -0.0953 -0.6295
 6303SOL    HW224944   3.769   4.423   4.410 -1.0731  0.1335 -1.7596
 6303SOL    HW324945   3.627   4.389   4.369 -1.5991 -0.3548  0.3687
 6303SOL    MW424946   3.696   4.376   4.420  0.1800  0.7037 -0.6368
 6304SOL     OW24947   1.284   1.776   2.158  0.4852  0.1790  0.7162
 6304SOL    HW224948   1.345   1.772   2.085 -1.2379  0.0684 -0.7883
 6304SOL    HW324949   1.219   1.708   2.140  0.2939 -0.2271  2.6461
 6304SOL    MW424950   1.283   1.767   2.146  0.1892  0.5380 -0.5717
 6305SOL     OW24951   1.246   3.293   3.890 -0.0291  0.4538 -0.0874
 6305SOL    HW224952   1.193   3.368   3.866 -0.5115 -0.2554 -1.2810
 6305SOL    HW324953   1.336   3.320   3.873 -0.3303 -0.0380 -2.9466
 6305SOL    MW424954   1.251   3.306   3.885  0.2885 -0.3717  0.0705
 6306SOL     OW24955   4.294   2.372   2.647 -0.2920 -0.5260  0.2953
 6306SOL    HW224956   4.335   2.330   2.722 -0.9623 -0.9745  0.4230
 6306SOL    HW324957   4.202   2.381   2.672 -0.2261  0.7639  0.1535
 6306SOL    MW424958   4.287   2.368   2.660 -0.3498  0.1708 -0.4198
 6307SOL     OW24959   1.403   6.291   4.821 -0.1664  0.3213 -0.1637
 6307SOL    HW224960   1.472   6.232   4.791 -0.5128  0.1486 -0.6306
 6307SOL    HW324961   1.442   6.339   4.894  0.3381 -0.0073 -0.2168
 6307SOL    MW424962   1.417   6.290   4.826 -0.2360 -0.3628  0.5999
 6308SOL     OW24963   3.585   0.745   2.255 -0.0947  0.0297  0.1366
 6308SOL    HW224964   3.533   0.749   2.335  0.2518  1.1150  0.3140
 6308SOL    HW324965   3.600   0.651   2.241  0.0780 -0.1594  1.4828
 6308SOL    MW424966   3.580   0.733   2.264 -0.3018  0.1779  0.1451
 6309SOL     OW24967   1.816   1.935   3.975 -0.2235 -0.1237  0.4407
 6309SOL    HW224968   1.737   1.933   4.028 -0.1609 -0.9714  0.5199
 6309SOL    HW324969   1.879   1.984   4.028 -0.4467 -0.1482  0.7332
 6309SOL    MW424970   1.814   1.941   3.989 -0.2374  0.8378 -0.1787
 6310SOL     OW24971   2.398   4.809   3.865  0.0809  0.6816  0.1271
 6310SOL    HW224972   2.330   4.809   3.931 -1.7934  4.4012 -1.4975
 6310SOL    HW324973   2.472   4.854   3.906  0.1846  0.0097  0.6916
 6310SOL    MW424974   2.399   4.815   3.879  0.5209 -0.2666  0.5089
 6311SOL     OW24975   5.391   5.522   3.019  0.3228  0.1810 -0.4126
 6311SOL    HW224976   5.304   5.485   3.011 -0.5330 -0.0512  5.4903
 6311SOL    HW324977   5.377   5.611   3.052  2.3317  0.7118 -0.8387
 6311SOL    MW424978   5.378   5.529   3.022  0.2751  0.6766 -0.1446
 6312SOL     OW24979   3.771   5.314   4.816 -0.0708  0.0379 -0.1197
 6312SOL    HW224980   3.683   5.346   4.836  0.4964  1.1265  0.7509
 6312SOL    HW324981   3.819   5.391   4.786  0.9756 -0.2383  0.7700
 6312SOL    MW424982   3.766   5.328   4.815 -0.1961  0.5977 -0.1478
 6313SOL     OW24983   0.858   3.234   1.159  0.0569 -0.1745  0.1463
 6313SOL    HW224984   0.811   3.299   1.212 -0.9254 -0.9988  0.3088
 6313SOL    HW324985   0.950   3.249   1.180 -0.3200 -0.8322  2.5377
 6313SOL    MW424986   0.864   3.245   1.169 -0.2923  0.0075 -0.6020
 6314SOL     OW24987   1.133   2.054   5.827  0.1967  0.6616 -0.1587
 6314SOL    HW224988   1.052   2.042   5.876 -0.0541 -0.3380 -0.8021
 6314SOL    HW324989   1.109   2.116   5.758 -0.7630 -1.5298 -1.9282
 6314SOL    MW424990   1.119   2.061   5.824  0.1484 -0.0788  0.1933
 6315SOL     OW24991   2.708   4.894   4.639  0.2323 -0.0588  0.2254
 6315SOL    HW224992   2.788   4.842   4.635  0.5307  0.3260  1.0815
 6315SOL    HW324993   2.703   4.925   4.729 -0.8154  0.0300  0.1578
 6315SOL    MW424994   2.718   4.891   4.650 -0.1621 -0.3723 -0.2803
 6316SOL     OW24995   6.168   5.533   4.359  0.1264  0.3482 -0.2676
 6316SOL    HW224996   6.177   5.438   4.365  0.1116  0.3912  0.4589
 6316SOL    HW324997   6.089   5.553   4.409 -0.8991  0.5647 -1.8880
 6316SOL    MW424998   6.159   5.523   4.366 -0.1783  0.6045  0.1416
 6317SOL     OW24999   6.017   3.082   4.107  0.2375  0.4877 -0.5369
 6317SOL    HW225000   6.075   3.132   4.049 -1.9241  0.9056 -2.4751
 6317SOL    HW325001   5.932   3.084   4.063 -0.8120 -1.7504  1.2187
 6317SOL    MW425002   6.013   3.089   4.093  0.8775 -0.0648 -0.4142
 6318SOL     OW25003   4.732   0.889   0.951 -0.3891  0.0430  0.0431
 6318SOL    HW225004   4.747   0.979   0.980  1.1475  0.2438 -1.2170
 6318SOL    HW325005   4.805   0.871   0.891 -1.5111 -1.5180 -0.9282
 6318SOL    MW425006   4.744   0.898   0.947  0.3340  0.8124 -0.1059
 6319SOL     OW25007   3.573   0.645   5.739  0.0057 -0.2983 -0.3944
 6319SOL    HW225008   3.548   0.567   5.689 -0.5044 -0.9714  0.8829
 6319SOL    HW325009   3.667   0.655   5.722 -0.0117 -0.9437 -0.9000
 6319SOL    MW425010   3.582   0.636   5.730  0.0182  0.2368  0.2958
 6320SOL     OW25011   2.716   2.731   1.149 -0.2287 -0.2509  0.5414
 6320SOL    HW225012   2.659   2.760   1.078 -1.2598 -0.5788  1.2166
 6320SOL    HW325013   2.704   2.795   1.219  0.1266 -0.4014  0.7465
 6320SOL    MW425014   2.707   2.743   1.149  0.0452  0.0188 -0.5709
 6321SOL     OW25015   0.823   2.457   1.265  0.2955  0.3536  0.4251
 6321SOL    HW225016   0.808   2.533   1.210 -0.7284 -1.6969 -2.3529
 6321SOL    HW325017   0.737   2.435   1.300  0.3717 -0.1358  0.3199
 6321SOL    MW425018   0.810   2.464   1.263 -0.3732  0.2707  0.8493
 6322SOL     OW25019   0.829   0.765   1.391  0.0847  0.3111  0.4667
 6322SOL    HW225020   0.887   0.835   1.361 -1.8492  2.1319  0.7221
 6322SOL    HW325021   0.779   0.805   1.462 -1.2369 -1.2804  0.4795
 6322SOL    MW425022   0.830   0.779   1.397  0.2001 -0.2660  0.6223
 6323SOL     OW25023   3.540   5.584   2.680  0.3687  0.0538 -0.3677
 6323SOL    HW225024   3.510   5.644   2.748  1.9191 -0.0334  0.4332
 6323SOL    HW325025   3.534   5.634   2.599  1.4203  1.2517  0.2596
 6323SOL    MW425026   3.535   5.599   2.678  0.0735 -0.1471 -0.0630
 6324SOL     OW25027   6.293   2.371   1.789  0.1933 -0.2722  0.3977
 6324SOL    HW225028   6.354   2.353   1.718 -0.6507 -1.0903 -0.1338
 6324SOL    HW325029   6.289   2.289   1.839 -0.6880 -0.3206  0.2550
 6324SOL    MW425030   6.301   2.358   1.787 -0.3530 -0.2306 -0.3496
 6325SOL     OW25031   3.466   2.281   4.235 -0.8898 -0.6785  0.1867
 6325SOL    HW225032   3.372   2.266   4.223 -1.1275 -2.0974  2.9541
 6325SOL    HW325033   3.504   2.193   4.232  0.1447 -0.2529  0.4990
 6325SOL    MW425034   3.458   2.267   4.233 -0.3730 -0.1804  0.2649
 6326SOL     OW25035   1.390   5.575   5.619  0.2504  0.2102  0.0045
 6326SOL    HW225036   1.393   5.482   5.596 -0.6674  0.3918 -0.9646
 6326SOL    HW325037   1.384   5.577   5.714  1.8270 -0.6660  0.1550
 6326SOL    MW425038   1.390   5.563   5.628  0.4281  0.2894  0.2905
 6327SOL     OW25039   5.508   5.702   6.262 -0.3073 -0.5738  0.1575
 6327SOL    HW225040   5.465   5.627   6.221  0.3441 -0.7807 -0.1456
 6327SOL    HW325041   5.590   5.712   6.215 -0.1215 -0.0369  0.5885
 6327SOL    MW425042   5.513   5.693   6.250  0.3019 -0.1562  0.3142
 6328SOL     OW25043   4.214   1.785   6.345 -0.1111  0.7683 -0.2713
 6328SOL    HW225044   4.160   1.709   6.321  0.3660 -0.0310  1.0293
 6328SOL    HW325045   4.200   1.848   6.275 -1.0822 -0.2489 -1.0325
 6328SOL    MW425046   4.205   1.783   6.333  0.3359 -0.0182  0.7008
 6329SOL     OW25047   0.699   6.110   2.805 -0.5932 -0.0279  0.2996
 6329SOL    HW225048   0.714   6.122   2.899 -0.1344  0.7808  0.1282
 6329SOL    HW325049   0.693   6.015   2.794 -0.5645 -0.1341  1.1345
 6329SOL    MW425050   0.700   6.099   2.816  0.1891 -0.4172 -0.1508
 6330SOL     OW25051   5.604   6.344   3.392  0.1444 -0.4379 -0.0833
 6330SOL    HW225052   5.636   6.255   3.410 -0.3423 -0.7453 -0.6855
 6330SOL    HW325053   5.662   6.377   3.323 -0.8479 -1.0352 -1.2517
 6330SOL    MW425054   5.616   6.336   3.385  0.5226 -0.4185  0.0235
 6331SOL     OW25055   1.310   2.419   2.282  0.8799  0.1485 -0.3316
 6331SOL    HW225056   1.284   2.446   2.370  1.4111  0.9761 -0.4160
 6331SOL    HW325057   1.247   2.462   2.224  1.0227  0.2658 -0.4006
 6331SOL    MW425058   1.298   2.429   2.286 -0.2958 -0.2837 -0.8373
 6332SOL     OW25059   1.741   3.651   6.135  0.4290  0.3756  0.3665
 6332SOL    HW225060   1.700   3.579   6.086 -1.1400  1.5614 -0.1281
 6332SOL    HW325061   1.809   3.684   6.076  0.0341  0.3711 -0.0950
 6332SOL    MW425062   1.745   3.646   6.120  0.4904 -0.0912 -0.1373
 6333SOL     OW25063   0.392   4.823   2.898  0.1216  0.9465  0.2097
 6333SOL    HW225064   0.327   4.815   2.968  1.0308 -0.0715  0.9832
 6333SOL    HW325065   0.469   4.860   2.941  0.8451 -0.1233 -0.1269
 6333SOL    MW425066   0.393   4.827   2.913  0.2180 -0.0084 -0.2347
 6334SOL     OW25067   5.052   0.149   3.427 -0.2797  0.2250 -0.3294
 6334SOL    HW225068   5.066   0.235   3.388  0.4544 -0.4578 -1.6711
 6334SOL    HW325069   5.068   0.162   3.521 -0.9837  1.6904 -0.3820
 6334SOL    MW425070   5.056   0.162   3.434 -0.0928 -0.3948  0.4112
 6335SOL     OW25071   0.031   3.003   0.827  0.6655  0.0940 -0.1156
 6335SOL    HW225072  -0.061   3.003   0.853  0.1353  1.1757 -1.8325
 6335SOL    HW325073   0.065   2.919   0.859 -0.6690  0.0569  1.3055
 6335SOL    MW425074   0.023   2.992   0.834  0.2849 -0.2046 -0.4063
 6336SOL     OW25075   1.283   3.046   3.766  0.0716  0.4648  0.0079
 6336SOL    HW225076   1.221   2.974   3.774  0.2615  0.3282  0.2771
 6336SOL    HW325077   1.269   3.099   3.844 -1.1194  1.5714 -0.9094
 6336SOL    MW425078   1.273   3.043   3.777  0.0676 -0.1866  0.0477
 6337SOL     OW25079   2.508   1.137   1.703  0.0049  0.0729 -0.2459
 6337SOL    HW225080   2.595   1.145   1.663 -0.6925  0.2168 -1.8193
 6337SOL    HW325081   2.500   1.044   1.725  1.4008  0.4108  2.0452
 6337SOL    MW425082   2.518   1.126   1.701 -0.0896 -0.6517  0.0508
 6338SOL     OW25083   2.532   3.187   3.577 -0.4576  0.1430  0.1753
 6338SOL    HW225084   2.573   3.115   3.528  1.4663  1.8211 -0.8288
 6338SOL    HW325085   2.559   3.173   3.667 -1.1326 -1.0520  0.2096
 6338SOL    MW425086   2.541   3.175   3.582  0.1234 -0.5334  0.4789
 6339SOL     OW25087   5.970   2.032   1.457 -0.2400 -0.3016  0.0997
 6339SOL    HW225088   5.994   1.998   1.371 -0.7251 -0.7891  0.1582
 6339SOL    HW325089   6.000   2.124   1.455  1.3231 -0.7759  0.0491
 6339SOL    MW425090   5.977   2.040   1.445 -0.2660 -0.3002  0.1632
 6340SOL     OW25091   5.100   1.681   1.666 -0.3046 -0.3495  0.2323
 6340SOL    HW225092   5.032   1.728   1.619 -0.7965 -1.4980 -0.2483
 6340SOL    HW325093   5.053   1.626   1.729  0.2428 -0.3210  0.6790
 6340SOL    MW425094   5.085   1.680   1.668 -0.2671  0.8810  0.0335
 6341SOL     OW25095   1.488   4.173   3.019 -0.0309 -0.3355  0.3639
 6341SOL    HW225096   1.541   4.120   2.959 -0.8531  0.4513 -1.0945
 6341SOL    HW325097   1.512   4.141   3.106  1.4073 -1.3115 -0.3510
 6341SOL    MW425098   1.498   4.162   3.023  1.0988  0.2320 -0.1211
 6342SOL     OW25099   5.576   5.153   3.008  0.3424  0.2565 -0.1757
 6342SOL    HW225100   5.493   5.115   3.035  1.2220 -1.9495 -0.4201
 6342SOL    HW325101   5.551   5.234   2.964 -1.5232  0.6234  1.4136
 6342SOL    MW425102   5.562   5.159   3.005  0.0947  0.0717  0.2118
 6343SOL     OW25103   5.863   2.196   2.440  0.1274 -0.2713 -0.1604
 6343SOL    HW225104   5.798   2.126   2.446 -1.3064  0.9562 -0.7055
 6343SOL    HW325105   5.862   2.221   2.348  1.9184 -0.6814 -0.3208
 6343SOL    MW425106   5.854   2.190   2.428  0.0198 -0.0902 -0.3196
 6344SOL     OW25107   3.741   2.421   2.657 -0.2288  0.2858  0.2962
 6344SOL    HW225108   3.652   2.388   2.647 -0.3352  0.4127  0.8161
 6344SOL    HW325109   3.736   2.513   2.634 -0.4667  0.5691  1.4221
 6344SOL    MW425110   3.729   2.428   2.653  0.1967 -0.2351  0.0890
 6345SOL     OW25111   5.435   1.411   3.042 -0.4813  0.7362 -0.1041
 6345SOL    HW225112   5.345   1.401   3.072  0.5145  0.7737  3.3677
 6345SOL    HW325113   5.435   1.374   2.953 -4.1569  2.1604 -0.8667
 6345SOL    MW425114   5.423   1.405   3.034 -0.1319 -0.1507  0.3185
 6346SOL     OW25115   1.596   2.104   4.534  0.5351 -0.1366  0.0929
 6346SOL    HW225116   1.576   2.180   4.481  2.2937 -0.8320 -1.6976
 6346SOL    HW325117   1.542   2.034   4.497  2.7483 -0.9549 -1.8401
 6346SOL    MW425118   1.586   2.105   4.522 -0.2451  0.0776  0.5106
 6347SOL     OW25119   6.257   0.061   0.993 -0.1755 -0.3410  0.2238
 6347SOL    HW225120   6.239   0.109   0.912 -0.8402 -0.0122  0.5635
 6347SOL    HW325121   6.178   0.010   1.009  0.4384 -1.4116 -0.0190
 6347SOL    MW425122   6.244   0.061   0.984 -0.2908 -1.0071 -0.1987
 6348SOL     OW25123   0.948   2.602   3.391 -0.3510 -0.0485 -0.4953
 6348SOL    HW225124   0.965   2.582   3.483 -2.4040  1.3264  0.2589
 6348SOL    HW325125   1.022   2.657   3.365  0.1521 -0.2812  0.3928
 6348SOL    MW425126   0.960   2.607   3.400 -0.0707 -0.2328  0.2502
 6349SOL     OW25127   4.205   5.760   3.819 -0.6588 -0.2453  0.2835
 6349SOL    HW225128   4.241   5.784   3.734 -0.7556  2.1441  0.8513
 6349SOL    HW325129   4.126   5.711   3.799 -0.7116  0.3479 -1.0041
 6349SOL    MW425130   4.199   5.757   3.805 -0.0092 -0.0527 -0.0717
 6350SOL     OW25131   4.934   6.045   2.808 -0.1234 -0.6162 -0.7597
 6350SOL    HW225132   4.991   6.122   2.806  0.3093 -0.9529 -1.2413
 6350SOL    HW325133   4.898   6.040   2.720 -0.0446 -1.0545 -0.7649
 6350SOL    MW425134   4.936   6.055   2.796 -0.2640 -0.0737 -0.6014
 6351SOL     OW25135   1.410   1.605   5.330 -0.1086 -0.2721 -0.3652
 6351SOL    HW225136   1.315   1.622   5.334 -0.0504  0.5582 -1.8733
 6351SOL    HW325137   1.416   1.512   5.308 -0.5570 -0.4887  0.3883
 6351SOL    MW425138   1.398   1.595   5.328  0.2885  0.0630  0.4922
 6352SOL     OW25139   2.965   0.041   1.596 -0.6369 -0.2245 -0.0156
 6352SOL    HW225140   3.038  -0.001   1.641  0.6006  1.0743 -0.7151
 6352SOL    HW325141   2.965   0.131   1.629  0.4639  0.8447 -2.6107
 6352SOL    MW425142   2.975   0.047   1.606  0.0268  0.2093  0.1864
 6353SOL     OW25143   5.373   1.660   1.246  0.6666  0.1343  0.8637
 6353SOL    HW225144   5.410   1.612   1.321 -0.6379  0.6274  1.8502
 6353SOL    HW325145   5.283   1.679   1.272  0.1409  0.1987 -0.9073
 6353SOL    MW425146   5.366   1.656   1.259 -0.4657  0.0054  0.1138
 6354SOL     OW25147   4.739   3.934   2.039 -0.2834  0.2380 -0.3217
 6354SOL    HW225148   4.767   3.974   1.957 -0.6649  2.2175  0.4612
 6354SOL    HW325149   4.708   4.007   2.093 -0.5811 -1.0630  1.3812
 6354SOL    MW425150   4.739   3.949   2.035  0.0909 -0.2388  0.0239
 6355SOL     OW25151   2.725   1.287   3.238  0.1222 -0.1879  0.3792
 6355SOL    HW225152   2.759   1.283   3.327  0.0666 -1.1284  0.3673
 6355SOL    HW325153   2.740   1.199   3.203  2.5615  0.8400 -1.4428
 6355SOL    MW425154   2.731   1.275   3.245 -0.5908 -0.5678 -0.4994
 6356SOL     OW25155   4.821   2.598   5.549  0.1727 -0.6901  0.3909
 6356SOL    HW225156   4.853   2.532   5.611  2.3284  0.5099  0.6289
 6356SOL    HW325157   4.899   2.631   5.505 -1.2303 -1.1721 -2.7442
 6356SOL    MW425158   4.835   2.594   5.551  0.0556  0.0464  0.3431
 6357SOL     OW25159   5.726   2.794   3.663 -0.2125 -0.3759  0.3270
 6357SOL    HW225160   5.656   2.846   3.703 -0.8284 -1.4538  0.6739
 6357SOL    HW325161   5.799   2.856   3.655 -0.9233  0.5464  0.7241
 6357SOL    MW425162   5.726   2.809   3.667 -0.2094 -0.1143  0.0461
 6358SOL     OW25163   6.309   6.019   0.215 -0.1642 -0.0507  0.0406
 6358SOL    HW225164   6.308   5.939   0.268 -1.0857  0.1089  0.2736
 6358SOL    HW325165   6.233   6.012   0.158  1.1360 -0.5021 -1.7386
 6358SOL    MW425166   6.299   6.007   0.215  0.1838  0.2245 -0.5500
 6359SOL     OW25167   4.757   3.470   1.933  0.1089 -0.7089 -0.3314
 6359SOL    HW225168   4.773   3.553   1.890 -0.0190 -1.2357 -1.4292
 6359SOL    HW325169   4.673   3.440   1.899  0.8257 -1.9681 -1.0879
 6359SOL    MW425170   4.748   3.477   1.923 -0.1249 -0.0443  0.1607
 6360SOL     OW25171   6.428   1.943   5.323 -0.5142  0.0742  0.0615
 6360SOL    HW225172   6.496   1.922   5.260 -0.8196  2.1180 -1.0472
 6360SOL    HW325173   6.437   1.878   5.392  2.5009  0.2245 -0.0939
 6360SOL    MW425174   6.438   1.932   5.324  0.0554  0.3679  0.3299
 6361SOL     OW25175   3.123   4.773   6.063  0.5238 -0.1067  0.2253
 6361SOL    HW225176   3.142   4.835   6.133  1.3998  0.2253 -0.2957
 6361SOL    HW325177   3.050   4.811   6.015 -0.5443 -0.6616  1.3390
 6361SOL    MW425178   3.116   4.786   6.066 -0.4998 -0.4008  0.0569
 6362SOL     OW25179   3.068   6.098   4.731  0.2846 -0.1948 -0.2751
 6362SOL    HW225180   3.093   6.191   4.726  0.6449 -0.3644 -2.7197
 6362SOL    HW325181   3.098   6.061   4.648  0.4188 -2.5974  0.7781
 6362SOL    MW425182   3.075   6.105   4.719 -0.2209 -0.6275 -0.2234
 6363SOL     OW25183   0.231   2.900   6.125  0.3075 -0.6638  0.6737
 6363SOL    HW225184   0.156   2.942   6.167 -0.5558  0.0160 -1.3877
 6363SOL    HW325185   0.254   2.959   6.053  0.7496 -2.4232 -0.7150
 6363SOL    MW425186   0.225   2.913   6.121 -0.1542  0.2285  0.4508
 6364SOL     OW25187   3.378   3.038   0.882  0.5215 -0.6751 -0.6349
 6364SOL    HW225188   3.438   3.111   0.869  0.4335 -0.8893 -2.4644
 6364SOL    HW325189   3.435   2.964   0.905  0.6346 -0.1383  0.9080
 6364SOL    MW425190   3.393   3.038   0.883 -0.2293 -0.1843  0.3344
 6365SOL     OW25191   2.332   1.980   5.424 -0.2409  0.5800 -0.0462
 6365SOL    HW225192   2.262   2.045   5.427  0.1034  1.0452 -1.2335
 6365SOL    HW325193   2.401   2.015   5.480 -1.0726 -0.0564  1.4187
 6365SOL    MW425194   2.332   1.993   5.431  0.4673 -0.2040  0.1688
 6366SOL     OW25195   1.013   0.897   2.055  0.2063  0.2506  0.1261
 6366SOL    HW225196   1.055   0.816   2.086  1.0233  0.6626  0.1168
 6366SOL    HW325197   0.994   0.946   2.134 -0.8080 -0.1837  0.1702
 6366SOL    MW425198   1.016   0.893   2.069  0.2310 -0.1209  0.5028
 6367SOL     OW25199   3.134   4.783   1.145 -0.1869 -0.4726 -0.0637
 6367SOL    HW225200   3.065   4.832   1.101 -0.6730 -0.5207  0.6233
 6367SOL    HW325201   3.184   4.741   1.074 -0.6155 -0.1109 -0.5801
 6367SOL    MW425202   3.132   4.784   1.130  0.5014 -0.2754 -0.1452
 6368SOL     OW25203   5.262   1.801   4.775 -0.5008 -0.0859 -0.1187
 6368SOL    HW225204   5.222   1.888   4.769 -1.7782 -0.3507  2.8027
 6368SOL    HW325205   5.330   1.811   4.841  1.3882 -0.7154 -1.8681
 6368SOL    MW425206   5.266   1.814   4.783  0.3380 -0.5086 -0.2082
 6369SOL     OW25207   5.836   1.704   3.778 -0.1570  0.2924 -0.4691
 6369SOL    HW225208   5.782   1.757   3.720 -0.4574 -0.1672 -0.6137
 6369SOL    HW325209   5.858   1.627   3.727  0.1461  0.2027 -0.2059
 6369SOL    MW425210   5.831   1.701   3.764 -0.1061  0.7525  0.0206
 6370SOL     OW25211   3.508   0.386   3.697  0.1388  0.6731 -0.3042
 6370SOL    HW225212   3.602   0.389   3.678 -0.1007  0.0120 -1.6915
 6370SOL    HW325213   3.504   0.380   3.792  1.5301 -0.0791 -0.2576
 6370SOL    MW425214   3.520   0.386   3.707 -0.1798  0.1351 -0.3340
 6371SOL     OW25215   4.107   2.320   3.886 -0.6834 -0.3145 -0.8371
 6371SOL    HW225216   4.126   2.401   3.840 -3.7891  1.8534  1.3450
 6371SOL    HW325217   4.033   2.282   3.839 -1.3883 -0.0973  0.0747
 6371SOL    MW425218   4.100   2.325   3.874 -0.4692  0.0435 -0.2812
 6372SOL     OW25219   5.915   2.603   3.139 -0.4946 -0.1284  0.1113
 6372SOL    HW225220   5.977   2.662   3.182  0.9041 -1.3118 -0.2214
 6372SOL    HW325221   5.935   2.611   3.046 -0.7627 -0.5900  0.0096
 6372SOL    MW425222   5.926   2.612   3.133  0.0309  0.3833 -0.0968
 6373SOL     OW25223   2.731   3.933   1.892 -0.1593 -0.4516  0.0377
 6373SOL    HW225224   2.774   4.018   1.890 -1.3303  0.1783  0.6605
 6373SOL    HW325225   2.643   3.949   1.858 -0.8396 -1.1138  1.3811
 6373SOL    MW425226   2.725   3.946   1.887  0.2472 -0.3089  0.2372
 6374SOL     OW25227   5.480   3.207   1.429  0.4062  0.0552 -0.5400
 6374SOL    HW225228   5.490   3.281   1.369  0.6810  0.4355 -0.0263
 6374SOL    HW325229   5.403   3.160   1.395  0.3046  0.5002 -0.9441
 6374SOL    MW425230   5.471   3.210   1.417  0.0270 -0.3375 -0.1037
 6375SOL     OW25231   4.162   1.955   1.899 -0.1178 -0.0490 -0.1644
 6375SOL    HW225232   4.201   1.938   1.985 -0.0633  0.8072 -0.0169
 6375SOL    HW325233   4.234   1.989   1.846 -0.1748 -0.4866 -0.5340
 6375SOL    MW425234   4.177   1.957   1.903  0.0179  0.3707  0.1828
 6376SOL     OW25235   3.194   3.359   1.424 -0.5015  0.6283  0.2250
 6376SOL    HW225236   3.161   3.294   1.486  2.7359 -0.0347  1.4840
 6376SOL    HW325237   3.133   3.432   1.431 -3.0321 -1.3535  0.3987
 6376SOL    MW425238   3.182   3.360   1.433 -0.0796 -0.4391  0.3717
 6377SOL     OW25239   3.677   2.743   5.167  0.2622  0.0346 -0.3794
 6377SOL    HW225240   3.613   2.796   5.121  0.4600  1.5842  1.0317
 6377SOL    HW325241   3.647   2.742   5.258  1.3708 -0.5620  0.0022
 6377SOL    MW425242   3.665   2.750   5.173 -0.1363 -0.5047 -0.5696
 6378SOL     OW25243   4.985   1.726   2.362  0.1388  0.4304 -0.0150
 6378SOL    HW225244   5.077   1.699   2.372 -0.3437 -1.1687  0.4994
 6378SOL    HW325245   4.964   1.767   2.446  0.5606  1.4034 -0.3766
 6378SOL    MW425246   4.995   1.728   2.375  0.3249  0.6014 -0.3168
 6379SOL     OW25247   6.107   0.663   1.126  0.0788 -0.4312 -0.5845
 6379SOL    HW225248   6.196   0.641   1.155  0.2183 -0.0092 -0.6814
 6379SOL    HW325249   6.120   0.716   1.047 -0.1657  1.5750  0.6259
 6379SOL    MW425250   6.121   0.667   1.119 -0.7586  0.2623 -0.0572
 6380SOL     OW25251   5.231   0.747   2.383 -0.5142 -0.0098  0.0931
 6380SOL    HW225252   5.147   0.728   2.341 -0.7034 -0.3190  0.5974
 6380SOL    HW325253   5.297   0.724   2.317 -0.8335  0.8890 -0.5631
 6380SOL    MW425254   5.229   0.741   2.369  0.5594 -0.7356 -0.2600
 6381SOL     OW25255   3.085   0.769   4.406 -0.2779  0.0369  0.2991
 6381SOL    HW225256   2.994   0.758   4.435 -0.4940  3.5072  1.4044
 6381SOL    HW325257   3.092   0.862   4.386  2.4178 -0.6026 -2.2556
 6381SOL    MW425258   3.074   0.779   4.407 -0.0020  0.5502 -0.5087
 6382SOL     OW25259   1.211   3.346   5.937  0.1105 -0.0782  0.0756
 6382SOL    HW225260   1.226   3.372   5.846  1.5295  0.2905  0.3907
 6382SOL    HW325261   1.132   3.394   5.962 -2.0226 -2.3571 -1.7824
 6382SOL    MW425262   1.202   3.356   5.928 -0.1527  0.5069 -0.6763
 6383SOL     OW25263   3.633   5.760   6.234  0.3756  0.8066  0.5566
 6383SOL    HW225264   3.723   5.773   6.264 -0.4439  1.9252  2.6599
 6383SOL    HW325265   3.592   5.706   6.301 -1.1419  2.2202  0.8309
 6383SOL    MW425266   3.640   5.754   6.247  0.0814 -0.7000 -0.4834
 6384SOL     OW25267   3.313   4.521   3.521 -0.3564  0.1615  1.1637
 6384SOL    HW225268   3.308   4.609   3.483  2.5846  0.3635  1.0806
 6384SOL    HW325269   3.239   4.518   3.582 -2.6547  1.3486 -1.3569
 6384SOL    MW425270   3.302   4.532   3.524 -0.0002  0.1253  0.5088
 6385SOL     OW25271   2.084   1.620   5.788  0.1765  0.0268 -0.0716
 6385SOL    HW225272   2.173   1.586   5.788 -0.2854 -1.2614  0.1446
 6385SOL    HW325273   2.058   1.622   5.696  0.0489 -0.6901 -0.0574
 6385SOL    MW425274   2.092   1.616   5.776 -1.0636 -0.2559  0.4023
 6386SOL     OW25275   6.017   2.420   1.756 -0.0229 -0.0056 -0.2623
 6386SOL    HW225276   6.105   2.393   1.730  1.1342  4.4065 -1.7888
 6386SOL    HW325277   5.969   2.427   1.674 -0.1433  2.3682 -0.0730
 6386SOL    MW425278   6.022   2.417   1.742 -0.3733 -0.1499 -0.8016
 6387SOL     OW25279   4.377   5.022   0.838  0.5782 -0.5208 -0.0834
 6387SOL    HW225280   4.332   4.938   0.833  1.4001 -0.8877 -1.6390
 6387SOL    HW325281   4.450   5.007   0.899 -0.9262 -0.0954  1.9413
 6387SOL    MW425282   4.381   5.009   0.846  0.1393  0.3154 -0.4878
 6388SOL     OW25283   5.080   3.628   1.006 -0.1724 -0.0580 -0.2589
 6388SOL    HW225284   5.120   3.685   0.940 -2.1359  0.2932 -1.2525
 6388SOL    HW325285   5.134   3.549   1.007  0.3692  0.2664 -1.7242
 6388SOL    MW425286   5.092   3.625   0.997 -0.2191  0.2280 -0.0634
 6389SOL     OW25287   6.039   4.881   3.738  0.5655  0.3319  0.3936
 6389SOL    HW225288   6.097   4.843   3.672  1.0310  0.1478  0.8957
 6389SOL    HW325289   6.004   4.960   3.697  2.1168  1.1190  0.5147
 6389SOL    MW425290   6.042   4.886   3.724  0.2191  0.1676 -0.3408
 6390SOL     OW25291   1.495   2.439   0.882 -0.6605 -0.0317 -0.2500
 6390SOL    HW225292   1.417   2.400   0.921 -0.6917 -0.4898 -0.7561
 6390SOL    HW325293   1.465   2.523   0.846 -0.2095  1.3929  2.4558
 6390SOL    MW425294   1.481   2.445   0.882 -0.0128  0.6268 -0.0940
 6391SOL     OW25295   1.408   0.541   2.166 -0.7980  0.5076 -1.2251
 6391SOL    HW225296   1.335   0.594   2.135  0.0453  1.0322 -2.4055
 6391SOL    HW325297   1.398   0.458   2.119 -0.4416  0.7198 -1.6940
 6391SOL    MW425298   1.397   0.537   2.156 -0.3907  0.3736  0.2713
 6392SOL     OW25299   1.113   3.199   4.137  0.1942 -0.3903 -0.3970
 6392SOL    HW225300   1.119   3.237   4.225 -1.1026 -0.3122 -0.3340
 6392SOL    HW325301   1.198   3.219   4.097  0.9767 -0.8286  0.9844
 6392SOL    MW425302   1.125   3.207   4.143 -0.4742 -0.2548 -0.2420
 6393SOL     OW25303   4.997   4.167   4.973 -0.3359  0.2187  0.1073
 6393SOL    HW225304   4.989   4.253   5.014 -0.0092 -0.1972  1.0712
 6393SOL    HW325305   5.068   4.124   5.021  0.0847 -0.2716 -0.9377
 6393SOL    MW425306   5.005   4.173   4.985 -0.1127 -0.6692  0.5907
 6394SOL     OW25307   1.475   0.863   4.762 -0.1791 -0.3619 -0.3542
 6394SOL    HW225308   1.427   0.787   4.795  0.8871 -0.6578  0.5513
 6394SOL    HW325309   1.510   0.905   4.841  0.2253  0.4131 -0.9365
 6394SOL    MW425310   1.473   0.859   4.777  0.3422 -0.1536 -0.3173
 6395SOL     OW25311   4.618   4.680   6.210 -0.1560 -0.1692  0.1174
 6395SOL    HW225312   4.557   4.626   6.261  2.0161 -1.9494  1.0150
 6395SOL    HW325313   4.607   4.768   6.245 -1.2218 -0.7113  1.2222
 6395SOL    MW425314   4.609   4.684   6.221  0.4534  0.4710  0.3527
 6396SOL     OW25315   6.071   5.454   4.048  0.1066 -0.8538 -0.1482
 6396SOL    HW225316   6.012   5.439   3.973  0.8414 -0.1411 -0.8986
 6396SOL    HW325317   6.062   5.376   4.102 -0.4964 -1.3561 -0.9471
 6396SOL    MW425318   6.062   5.442   4.045  0.4049  0.4273 -0.4719
 6397SOL     OW25319   0.781   1.395   1.128 -0.0468  0.4627 -0.4684
 6397SOL    HW225320   0.779   1.369   1.035  1.2085  0.9423 -0.6459
 6397SOL    HW325321   0.738   1.480   1.130  0.9262  0.9705 -0.8001
 6397SOL    MW425322   0.775   1.403   1.116  0.6261  0.6509  0.1241
 6398SOL     OW25323   3.320   5.001   6.146 -0.5504 -0.0756  0.2453
 6398SOL    HW225324   3.269   5.009   6.227 -1.0457  0.6984 -0.1406
 6398SOL    HW325325   3.259   5.022   6.076 -0.0891 -0.6064 -0.3351
 6398SOL    MW425326   3.305   5.005   6.147  0.9358 -0.6866  0.0627
 6399SOL     OW25327   0.736   6.006   2.045 -0.0052  0.3825 -0.2953
 6399SOL    HW225328   0.701   6.060   1.975 -0.9806  0.4209  0.2160
 6399SOL    HW325329   0.679   5.929   2.048  0.5445 -0.0318 -0.1029
 6399SOL    MW425330   0.724   6.003   2.036 -0.3205 -0.0564  0.0017
 6400SOL     OW25331   5.388   4.806   0.331  0.3434 -0.0890  1.0458
 6400SOL    HW225332   5.481   4.827   0.327  0.2249  0.5327  1.3046
 6400SOL    HW325333   5.376   4.769   0.418  0.5018 -0.9902  0.6906
 6400SOL    MW425334   5.399   4.804   0.342 -0.3774 -0.0506  0.9811
 6401SOL     OW25335   0.283   6.387   3.010 -0.8998 -0.8310  0.0544
 6401SOL    HW225336   0.316   6.396   3.099 -0.0887 -0.3313 -0.2799
 6401SOL    HW325337   0.307   6.299   2.983  0.9282 -0.2240 -0.4555
 6401SOL    MW425338   0.290   6.377   3.018  0.0124 -0.1321 -0.4859
 6402SOL     OW25339   0.977   0.811   2.562 -1.0622 -0.4042  0.0727
 6402SOL    HW225340   1.013   0.841   2.479 -0.7707 -0.4077  0.1975
 6402SOL    HW325341   0.904   0.755   2.537 -2.2553  1.1717 -0.1563
 6402SOL    MW425342   0.972   0.808   2.548  0.2952 -0.8653 -0.1120
 6403SOL     OW25343   3.499   5.413   4.568  0.0873  0.2223 -0.8211
 6403SOL    HW225344   3.416   5.456   4.547  1.0470  1.7214 -1.7464
 6403SOL    HW325345   3.565   5.465   4.523  1.6488 -0.3134  0.7392
 6403SOL    MW425346   3.497   5.425   4.559 -0.5001  0.1615 -0.1015
 6404SOL     OW25347   3.239   1.213   0.630 -0.0094 -0.0177 -0.6438
 6404SOL    HW225348   3.149   1.243   0.641 -0.6300 -1.9690 -0.1366
 6404SOL    HW325349   3.242   1.128   0.674  2.0349 -0.0814 -0.8128
 6404SOL    MW425350   3.228   1.206   0.637  0.2296  0.3284  0.0510
 6405SOL     OW25351   4.005   1.075   0.758 -0.0072 -0.5148  0.0875
 6405SOL    HW225352   3.948   1.132   0.810 -0.3195  0.2090 -1.0165
 6405SOL    HW325353   4.065   1.037   0.822  1.5883  2.6398  0.6707
 6405SOL    MW425354   4.005   1.077   0.773  0.1012  0.0336  0.0851
 6406SOL     OW25355   4.594   5.467   4.061 -0.1771 -0.0281  0.0416
 6406SOL    HW225356   4.675   5.438   4.104 -0.5525 -0.1770  0.6703
 6406SOL    HW325357   4.553   5.525   4.125 -0.4476  0.2425 -0.3723
 6406SOL    MW425358   4.599   5.471   4.075 -0.0601  0.1255  0.2935
 6407SOL     OW25359   4.556   5.016   5.940 -0.2329  0.0249 -0.3446
 6407SOL    HW225360   4.642   5.046   5.969  0.2076 -0.9146 -0.6460
 6407SOL    HW325361   4.568   4.923   5.922 -0.9596  0.1734 -1.7114
 6407SOL    MW425362   4.569   5.008   5.941 -0.0125 -0.1618 -0.3817
 6408SOL     OW25363   6.436   4.016   3.761 -0.3574 -0.9418 -0.2642
 6408SOL    HW225364   6.513   4.064   3.793 -1.5784  1.0819 -0.2091
 6408SOL    HW325365   6.439   4.029   3.666  0.2963 -2.3774 -0.4723
 6408SOL    MW425366   6.447   4.024   3.752  0.0371  0.0217  0.0622
 6409SOL     OW25367   3.458   6.192   4.031 -0.0794  0.0613  0.5603
 6409SOL    HW225368   3.421   6.182   3.943 -0.5739  0.4624  0.7212
 6409SOL    HW325369   3.490   6.104   4.053 -1.7324 -0.5321  0.7691
 6409SOL    MW425370   3.458   6.179   4.022  0.0898  0.3143 -0.2374
 6410SOL     OW25371   4.898   3.202   0.552  0.1484 -0.2788  0.3272
 6410SOL    HW225372   4.959   3.128   0.548 -0.3766 -0.7026  0.1316
 6410SOL    HW325373   4.812   3.162   0.560 -0.2751  0.2695 -1.1713
 6410SOL    MW425374   4.895   3.187   0.553 -0.0799  0.5651  0.1587
 6411SOL     OW25375   4.889   0.277   4.481  0.3735 -0.3316 -0.0395
 6411SOL    HW225376   4.857   0.305   4.395 -0.2429  0.6625  0.5075
 6411SOL    HW325377   4.844   0.194   4.497  1.2962 -1.0872 -1.1261
 6411SOL    MW425378   4.879   0.270   4.471 -0.1006 -0.0966  0.5645
 6412SOL     OW25379   4.838   1.491   4.275  0.7064 -0.0508 -0.1470
 6412SOL    HW225380   4.798   1.577   4.266 -1.5895 -1.0918 -0.5833
 6412SOL    HW325381   4.897   1.485   4.199  2.0772  1.6576  0.7073
 6412SOL    MW425382   4.841   1.501   4.264 -0.1040  0.1056  0.0799
 6413SOL     OW25383   4.837   0.719   1.406  0.1502 -0.2825 -0.1591
 6413SOL    HW225384   4.796   0.734   1.321 -2.0203  0.1870  0.8984
 6413SOL    HW325385   4.928   0.746   1.394 -0.4785  1.2348 -1.9072
 6413SOL    MW425386   4.844   0.724   1.393 -0.7686  0.2645 -0.4765
 6414SOL     OW25387   3.634   1.625   1.073 -1.0083  0.2302  0.5116
 6414SOL    HW225388   3.654   1.595   1.162 -1.0325 -0.1544  0.3904
 6414SOL    HW325389   3.552   1.673   1.083 -1.2786 -0.2420  0.6218
 6414SOL    MW425390   3.626   1.627   1.086 -0.2846 -0.1627  0.1875
 6415SOL     OW25391   1.321   6.050   0.593 -0.1530  0.4227 -0.5149
 6415SOL    HW225392   1.254   6.082   0.653  1.4911  0.6754  1.3181
 6415SOL    HW325393   1.273   6.005   0.524 -2.2102  1.2923  0.2805
 6415SOL    MW425394   1.306   6.048   0.592  0.6792 -0.2790 -0.4110
 6416SOL     OW25395   3.569   0.763   6.011  0.2724 -0.0789 -0.0827
 6416SOL    HW225396   3.483   0.791   5.980  0.0023 -0.9334 -0.1193
 6416SOL    HW325397   3.600   0.702   5.945 -0.2083 -1.7343  1.1415
 6416SOL    MW425398   3.561   0.759   5.998  0.6155  0.7374  0.3144
 6417SOL     OW25399   0.331   5.278   1.745 -0.0655 -0.0093 -0.2900
 6417SOL    HW225400   0.360   5.187   1.747 -2.3983 -0.8432 -1.3624
 6417SOL    HW325401   0.296   5.294   1.833 -0.2575 -0.3558 -0.3032
 6417SOL    MW425402   0.330   5.269   1.757 -0.0090 -0.5423 -0.0069
 6418SOL     OW25403   1.737   4.711   3.701 -0.0022  0.4322 -0.1755
 6418SOL    HW225404   1.684   4.760   3.639  0.1369 -0.1087 -0.7373
 6418SOL    HW325405   1.788   4.651   3.647 -0.0587 -0.2237  0.4786
 6418SOL    MW425406   1.737   4.709   3.686 -0.1085  1.0198  0.1989
 6419SOL     OW25407   3.387   0.458   3.418 -0.0919  0.7480 -0.3205
 6419SOL    HW225408   3.350   0.408   3.490 -1.3749  0.0380 -1.4308
 6419SOL    HW325409   3.476   0.423   3.407 -0.0359  0.5765  0.6155
 6419SOL    MW425410   3.394   0.447   3.426 -0.0564  0.3950 -0.4415
 6420SOL     OW25411   0.849   4.884   0.196  0.0361  0.0344 -0.4682
 6420SOL    HW225412   0.879   4.958   0.248 -2.0997 -0.2982  1.3918
 6420SOL    HW325413   0.782   4.922   0.138 -1.2204 -0.4236  0.6440
 6420SOL    MW425414   0.844   4.899   0.195 -0.0983  0.2344  0.2686
 6421SOL     OW25415   4.388   2.581   2.429 -0.0868 -0.1447  0.2427
 6421SOL    HW225416   4.407   2.567   2.522  0.0655 -3.0796 -0.1534
 6421SOL    HW325417   4.293   2.571   2.423 -0.4588  2.4734  0.3554
 6421SOL    MW425418   4.378   2.578   2.441  0.0583 -0.2796  0.1698
 6422SOL     OW25419   4.778   0.707   1.830 -0.2104 -0.1012 -0.3277
 6422SOL    HW225420   4.692   0.673   1.856 -0.5234  0.9331  0.0368
 6422SOL    HW325421   4.812   0.641   1.770 -1.0243 -0.7963 -0.0583
 6422SOL    MW425422   4.771   0.694   1.826 -0.0342  0.4224 -0.1033
 6423SOL     OW25423   5.954   6.412   0.244  0.0620  0.2566 -0.4670
 6423SOL    HW225424   6.043   6.380   0.229  0.0872  0.5317 -0.9369
 6423SOL    HW325425   5.946   6.488   0.187  0.7507  2.5117  2.2267
 6423SOL    MW425426   5.965   6.418   0.234  0.6817 -0.3231 -0.3935
 6424SOL     OW25427   0.586   4.793   4.030 -0.0175  0.0293 -0.5292
 6424SOL    HW225428   0.617   4.884   4.023  0.8811 -0.2789 -0.7807
 6424SOL    HW325429   0.491   4.799   4.020  0.0344  0.9374 -0.6054
 6424SOL    MW425430   0.578   4.806   4.028 -0.3048 -0.1605  0.4727
 6425SOL     OW25431   2.778   2.263   5.650  0.1064 -0.0546  0.0698
 6425SOL    HW225432   2.812   2.207   5.581 -0.5998 -0.9230  0.4043
 6425SOL    HW325433   2.787   2.211   5.730  0.6754  0.8314  0.6056
 6425SOL    MW425434   2.784   2.249   5.652 -0.4752 -0.0535  0.0673
 6426SOL     OW25435   4.752   4.818   3.628  0.4759 -0.2777 -0.1417
 6426SOL    HW225436   4.739   4.864   3.711 -3.0933  0.1648 -0.7845
 6426SOL    HW325437   4.711   4.874   3.562  2.0138 -1.2601 -2.0397
 6426SOL    MW425438   4.745   4.831   3.631  0.4940  0.0968  0.1774
 6427SOL     OW25439   4.125   0.669   5.905  0.3630 -0.0957  0.2728
 6427SOL    HW225440   4.140   0.685   5.812 -0.7956  0.2016  0.1196
 6427SOL    HW325441   4.079   0.747   5.936  0.3356 -0.3876  0.9879
 6427SOL    MW425442   4.121   0.681   5.897 -0.4175  0.5685 -0.1925
 6428SOL     OW25443   5.631   5.152   3.662 -0.1164  0.3120  0.1639
 6428SOL    HW225444   5.574   5.075   3.671  0.3426  0.0355  0.7778
 6428SOL    HW325445   5.605   5.191   3.579 -1.2555  0.2240  0.4545
 6428SOL    MW425446   5.620   5.147   3.652  0.7318 -0.5729 -0.2015
 6429SOL     OW25447   5.663   0.929   1.067  0.0435 -0.2176 -0.5349
 6429SOL    HW225448   5.644   0.847   1.112  0.2873  0.1988  0.3410
 6429SOL    HW325449   5.578   0.971   1.055  0.1765  1.0454  2.2296
 6429SOL    MW425450   5.649   0.924   1.071  0.4492  0.5750  0.1629
 6430SOL     OW25451   0.776   1.949   4.952  0.4044  0.0750 -0.3918
 6430SOL    HW225452   0.790   2.035   4.912  3.1539 -0.2044 -0.2730
 6430SOL    HW325453   0.840   1.946   5.024 -0.4123 -1.6472  0.3026
 6430SOL    MW425454   0.787   1.960   4.956  0.0997  0.1701  0.2877
 6431SOL     OW25455   2.926   3.063   0.860 -0.4463  0.3185 -0.4042
 6431SOL    HW225456   2.932   3.042   0.767  0.7253  1.3957 -0.6057
 6431SOL    HW325457   2.846   3.115   0.867 -0.9641 -0.4275 -0.6564
 6431SOL    MW425458   2.916   3.067   0.848  0.1762  0.2724 -0.1278
 6432SOL     OW25459   2.481   4.288   5.123 -0.3352  0.2095  1.0252
 6432SOL    HW225460   2.409   4.231   5.096  0.0282 -0.7397  1.9455
 6432SOL    HW325461   2.439   4.362   5.166 -0.7938  0.1019  0.7699
 6432SOL    MW425462   2.466   4.290   5.125  0.3410  0.6664  0.0489
 6433SOL     OW25463   3.693   0.155   0.108 -0.4060 -0.8767 -0.4104
 6433SOL    HW225464   3.659   0.185   0.192  0.3366 -0.4137 -0.2714
 6433SOL    HW325465   3.772   0.207   0.094  0.6799 -2.4414 -0.3686
 6433SOL    MW425466   3.699   0.166   0.117  0.0751  0.2643 -0.2171
 6434SOL     OW25467   5.130   6.251   1.376  0.8773 -0.0738  0.2143
 6434SOL    HW225468   5.161   6.269   1.287  1.4045 -2.0008 -0.0257
 6434SOL    HW325469   5.044   6.292   1.379  0.8201 -0.0180 -1.2037
 6434SOL    MW425470   5.123   6.259   1.365 -0.2571  0.3871 -0.2461
 6435SOL     OW25471   1.834   5.340   0.626  0.0598 -0.0158 -0.3674
 6435SOL    HW225472   1.927   5.362   0.615 -0.0741  0.7944 -0.0046
 6435SOL    HW325473   1.823   5.332   0.721 -0.1121 -0.7490 -0.4428
 6435SOL    MW425474   1.845   5.342   0.637 -0.0292 -0.1694  0.0808
 6436SOL     OW25475   3.549   4.832   3.585 -0.0858  0.2517  0.2483
 6436SOL    HW225476   3.589   4.758   3.630 -0.9585 -0.9742 -0.9472
 6436SOL    HW325477   3.606   4.850   3.510 -0.5289 -0.0062 -0.1544
 6436SOL    MW425478   3.562   4.825   3.581  0.2840 -0.2348  0.0590
 6437SOL     OW25479   5.577   5.936   5.545 -0.2337 -0.2140 -0.0250
 6437SOL    HW225480   5.670   5.953   5.531 -0.5358  0.5703 -1.2523
 6437SOL    HW325481   5.565   5.945   5.639  0.6449  1.2973 -0.0240
 6437SOL    MW425482   5.587   5.940   5.555 -0.4405 -0.2068  0.0982
 6438SOL     OW25483   4.297   0.635   2.705  0.0869 -0.0353 -0.0079
 6438SOL    HW225484   4.263   0.718   2.670  0.0783 -0.5442 -1.2330
 6438SOL    HW325485   4.370   0.613   2.647 -1.0469 -1.8069 -0.8486
 6438SOL    MW425486   4.302   0.643   2.693 -0.5142 -0.5404 -0.1900
 6439SOL     OW25487   6.030   5.406   4.792  0.4075  0.7552 -0.2968
 6439SOL    HW225488   5.984   5.369   4.867 -0.3473  1.1433 -0.5486
 6439SOL    HW325489   6.088   5.472   4.829  2.9261 -1.6476  0.3173
 6439SOL    MW425490   6.032   5.410   4.807 -0.3293  0.5116 -0.2232
 6440SOL     OW25491   2.427   4.552   4.654  0.2662  0.1780  0.0091
 6440SOL    HW225492   2.358   4.594   4.602  0.9567 -0.9584 -1.9262
 6440SOL    HW325493   2.382   4.482   4.701 -0.2575  0.8166  0.4899
 6440SOL    MW425494   2.412   4.549   4.654 -0.2622  0.5333 -0.1644
 6441SOL     OW25495   4.120   6.279   0.608  0.0849 -0.1626 -0.0151
 6441SOL    HW225496   4.113   6.270   0.513 -2.8752 -0.5898  0.1644
 6441SOL    HW325497   4.150   6.369   0.621  1.4379 -0.3837 -1.3216
 6441SOL    MW425498   4.123   6.290   0.597 -0.0516  0.5124  0.0786
 6442SOL     OW25499   2.416   3.881   2.846  0.2839  0.0099  0.4970
 6442SOL    HW225500   2.356   3.807   2.846  1.5674 -1.0648  0.9282
 6442SOL    HW325501   2.499   3.845   2.877  0.9541  1.6223  0.6786
 6442SOL    MW425502   2.419   3.867   2.850 -0.3377 -0.5576 -0.0204
 6443SOL     OW25503   1.170   3.696   1.801  0.1004  0.4271  0.6032
 6443SOL    HW225504   1.191   3.680   1.709  0.5263  1.2059  0.5586
 6443SOL    HW325505   1.198   3.615   1.845  1.0364  0.5184  0.2136
 6443SOL    MW425506   1.177   3.683   1.795  0.5491 -0.4041 -0.0323
 6444SOL     OW25507   5.454   0.100   5.961 -0.0677 -0.3483  0.1327
 6444SOL    HW225508   5.447   0.168   5.895  0.1387  0.3914  0.8535
 6444SOL    HW325509   5.372   0.051   5.954 -0.9187  0.9566  0.6481
 6444SOL    MW425510   5.442   0.102   5.952 -0.7851 -0.3998 -0.7190
 6445SOL     OW25511   5.200   0.565   5.588 -0.2763 -0.7198 -0.2866
 6445SOL    HW225512   5.232   0.602   5.670 -1.9131 -1.5090  0.7659
 6445SOL    HW325513   5.273   0.510   5.556  0.6016  0.0778  0.2976
 6445SOL    MW425514   5.214   0.562   5.595  0.0323 -0.5499  0.2776
 6446SOL     OW25515   3.645   0.128   3.358  0.1299  0.0317 -0.8786
 6446SOL    HW225516   3.650   0.130   3.263  2.5626  0.7435 -0.7818
 6446SOL    HW325517   3.647   0.220   3.384 -2.0725 -0.0638 -0.1355
 6446SOL    MW425518   3.646   0.141   3.349  0.0243 -0.3367  0.7143
 6447SOL     OW25519   0.275   0.042   1.434  0.1940  0.0394 -0.3455
 6447SOL    HW225520   0.187   0.029   1.398  0.0530  0.1159 -0.0234
 6447SOL    HW325521   0.331  -0.015   1.380 -0.0291  0.0916 -0.6373
 6447SOL    MW425522   0.271   0.032   1.422  0.1266  0.4161 -0.9519
 6448SOL     OW25523   5.170   0.454   3.362 -0.2053 -0.1818  0.3865
 6448SOL    HW225524   5.141   0.526   3.305  1.6628  0.8802  0.7074
 6448SOL    HW325525   5.204   0.388   3.301  0.6208  0.4079  0.1930
 6448SOL    MW425526   5.171   0.455   3.346 -0.3680  0.3682 -0.8700
 6449SOL     OW25527   2.183   5.770   5.684 -0.3374 -0.6251  0.3939
 6449SOL    HW225528   2.127   5.848   5.679 -0.5380 -0.8201 -0.6622
 6449SOL    HW325529   2.156   5.717   5.609 -0.0931 -1.6481  1.0142
 6449SOL    MW425530   2.172   5.773   5.673 -0.1229 -0.0094 -0.0344
 6450SOL     OW25531   5.988   1.170   6.097  0.0187  0.2957 -0.3145
 6450SOL    HW225532   5.937   1.183   6.017 -1.9175 -1.2533  0.5861
 6450SOL    HW325533   6.008   1.258   6.127 -1.1575  0.9498 -1.3491
 6450SOL    MW425534   5.984   1.183   6.090 -0.4176  0.2552  0.3172
 6451SOL     OW25535   6.363   3.261   2.742 -0.0352 -0.0487  0.1866
 6451SOL    HW225536   6.327   3.219   2.664 -3.1475  0.3358  1.2917
 6451SOL    HW325537   6.454   3.231   2.745 -0.0362 -0.7346 -3.0819
 6451SOL    MW425538   6.371   3.251   2.732 -0.2136  0.4011  0.1459
 6452SOL     OW25539   4.221   5.630   1.991  0.5721  0.2522 -0.0012
 6452SOL    HW225540   4.185   5.649   2.078 -0.4273  1.0546 -0.5682
 6452SOL    HW325541   4.289   5.696   1.979  0.1696  0.6540 -0.1326
 6452SOL    MW425542   4.225   5.641   2.001 -0.3371  0.1439  0.5823
 6453SOL     OW25543   1.243   3.667   5.890 -0.2952  0.3550  0.0171
 6453SOL    HW225544   1.330   3.706   5.883 -0.5792  1.3911  1.7475
 6453SOL    HW325545   1.259   3.572   5.892  0.8244  0.5466  0.6814
 6453SOL    MW425546   1.256   3.660   5.890 -0.0579 -0.0013 -0.1795
 6454SOL     OW25547   3.273   6.167   5.190  0.0349  0.3677 -0.1850
 6454SOL    HW225548   3.358   6.147   5.152 -0.4901 -2.8617  0.0356
 6454SOL    HW325549   3.236   6.234   5.132  2.1663  0.9425 -0.9949
 6454SOL    MW425550   3.279   6.173   5.177 -0.4397  0.2018  0.0572
 6455SOL     OW25551   1.210   1.488   1.860  0.0816  0.2488  0.1329
 6455SOL    HW225552   1.155   1.447   1.794 -0.1969  1.3181 -0.3234
 6455SOL    HW325553   1.220   1.578   1.830 -0.4734  0.9082  1.7978
 6455SOL    MW425554   1.204   1.495   1.847  0.1180  0.9524  0.0905
 6456SOL     OW25555   3.354   2.724   0.429  0.4786  0.1731 -0.6870
 6456SOL    HW225556   3.341   2.782   0.354  1.2501  0.0678 -0.9081
 6456SOL    HW325557   3.349   2.636   0.392 -0.0148  0.1047 -0.4637
 6456SOL    MW425558   3.352   2.720   0.414  0.1740 -0.2783  0.5084
 6457SOL     OW25559   1.844   3.559   0.446  0.2196  0.2383  0.3623
 6457SOL    HW225560   1.852   3.564   0.541  1.2082 -0.1238  0.3082
 6457SOL    HW325561   1.900   3.485   0.421 -0.5360 -0.0774 -0.4395
 6457SOL    MW425562   1.853   3.550   0.455 -0.1698 -0.6547 -0.5199
 6458SOL     OW25563   5.128   3.677   6.179 -0.1445 -0.5748 -0.3274
 6458SOL    HW225564   5.098   3.768   6.184 -1.4519 -1.0319  0.6380
 6458SOL    HW325565   5.050   3.626   6.158  0.9857 -1.3013 -3.3172
 6458SOL    MW425566   5.114   3.682   6.177 -0.6988  0.3531 -0.3676
 6459SOL     OW25567   2.761   6.264   1.886 -0.1401  0.2058 -0.1203
 6459SOL    HW225568   2.700   6.314   1.831 -1.1959 -0.7543  0.1276
 6459SOL    HW325569   2.807   6.207   1.825 -0.1152  0.3184 -0.2069
 6459SOL    MW425570   2.759   6.263   1.871  0.3011  0.2713 -0.3306
 6460SOL     OW25571   4.846   4.254   0.428 -0.8153 -0.2667 -0.8482
 6460SOL    HW225572   4.831   4.322   0.494 -2.0019 -1.1155 -0.2125
 6460SOL    HW325573   4.777   4.190   0.443  1.4400 -2.6806 -0.0394
 6460SOL    MW425574   4.835   4.255   0.439  0.2200 -0.3505 -0.9637
 6461SOL     OW25575   6.091   3.829   4.684 -0.0996 -0.0706 -0.0542
 6461SOL    HW225576   6.118   3.820   4.775 -0.2246 -0.1609 -0.0247
 6461SOL    HW325577   6.064   3.920   4.675 -1.6995 -0.4691  0.4495
 6461SOL    MW425578   6.091   3.840   4.695 -0.1885  0.2991  0.1539
 6462SOL     OW25579   5.697   2.400   4.326  0.1700  0.1862  0.4806
 6462SOL    HW225580   5.755   2.324   4.325  0.3262  0.3080  0.1147
 6462SOL    HW325581   5.613   2.365   4.356  0.0402 -0.2848 -0.3903
 6462SOL    MW425582   5.694   2.385   4.330  0.4276 -0.1027  0.0940
 6463SOL     OW25583   5.676   2.646   2.403 -0.2286  0.0373 -0.0670
 6463SOL    HW225584   5.609   2.644   2.471 -0.5333  0.1098 -0.3650
 6463SOL    HW325585   5.736   2.575   2.427 -1.3257 -1.1494 -0.7251
 6463SOL    MW425586   5.675   2.636   2.415  0.1674  0.6951  0.0588
 6464SOL     OW25587   1.111   1.059   5.297 -0.0036 -0.1051  0.1968
 6464SOL    HW225588   1.065   0.976   5.314 -1.3198  0.3341 -0.9715
 6464SOL    HW325589   1.203   1.038   5.309 -0.3223 -1.7025  0.1393
 6464SOL    MW425590   1.117   1.045   5.301  0.5141 -0.2598  0.1861
 6465SOL     OW25591   2.462   1.805   4.543  0.1083 -0.1641  0.4633
 6465SOL    HW225592   2.502   1.724   4.513 -0.2787 -0.3163  0.3468
 6465SOL    HW325593   2.527   1.844   4.602  1.2163  0.5485 -1.1611
 6465SOL    MW425594   2.476   1.799   4.547  0.7166  0.6886  0.0743
 6466SOL     OW25595   1.953   0.936   3.104  0.6853  0.0134  0.0374
 6466SOL    HW225596   1.931   0.851   3.066 -0.4061  0.7681 -1.1080
 6466SOL    HW325597   1.975   0.917   3.195 -1.2930 -1.3020  0.3136
 6466SOL    MW425598   1.953   0.923   3.111 -0.2507  0.5183 -0.0825
 6467SOL     OW25599   5.992   0.280   3.285  0.2334  0.2323 -0.3877
 6467SOL    HW225600   5.942   0.351   3.325 -1.0768 -1.8083  1.8086
 6467SOL    HW325601   6.082   0.295   3.313 -0.0018  1.0849 -0.0575
 6467SOL    MW425602   5.997   0.292   3.294 -0.0745 -0.4386  0.0864
 6468SOL     OW25603   4.554   1.140   5.971 -0.1887 -0.1957 -0.1072
 6468SOL    HW225604   4.541   1.054   5.930 -2.5156  0.0655 -0.0137
 6468SOL    HW325605   4.520   1.130   6.060 -1.8668  1.1669 -0.5442
 6468SOL    MW425606   4.548   1.127   5.977  0.0482  0.4467 -0.0316
 6469SOL     OW25607   5.347   4.675   0.584 -0.2592 -0.0671 -0.0035
 6469SOL    HW225608   5.257   4.671   0.551  0.2128  0.5877 -1.4749
 6469SOL    HW325609   5.382   4.587   0.571 -0.1956  0.0901 -0.9839
 6469SOL    MW425610   5.340   4.663   0.578 -0.2901  0.8964  0.0888
 6470SOL     OW25611   0.552   1.406   1.726  0.4012  0.1300 -0.0526
 6470SOL    HW225612   0.475   1.445   1.686  0.7049  1.2175  0.3919
 6470SOL    HW325613   0.552   1.439   1.816  0.6108 -0.9918  0.3773
 6470SOL    MW425614   0.542   1.415   1.733 -0.2358  0.2398 -0.1399
 6471SOL     OW25615   6.297   3.426   0.022 -0.6067 -0.6152 -0.5994
 6471SOL    HW225616   6.336   3.339   0.028 -0.7988 -0.6283  0.8963
 6471SOL    HW325617   6.354   3.481   0.076 -0.9321  0.0045 -0.8851
 6471SOL    MW425618   6.309   3.422   0.030 -0.4473 -0.2800  0.7380
 6472SOL     OW25619   3.469   4.804   3.045 -0.8822  0.6534  0.5582
 6472SOL    HW225620   3.526   4.743   3.091 -1.1053 -0.4225 -0.5356
 6472SOL    HW325621   3.391   4.811   3.101 -0.7409  0.1387  0.8242
 6472SOL    MW425622   3.466   4.797   3.058 -0.0932 -0.0851 -0.3224
 6473SOL     OW25623   0.202   4.653   0.511 -1.0868  0.7254 -0.6871
 6473SOL    HW225624   0.255   4.733   0.502  0.8909 -0.3450  0.6385
 6473SOL    HW325625   0.237   4.594   0.444 -1.3794  0.3832 -0.5413
 6473SOL    MW425626   0.214   4.656   0.501 -0.7643  0.1562  0.2141
 6474SOL     OW25627   4.847   5.712   2.216 -0.4518  0.4221  0.4915
 6474SOL    HW225628   4.882   5.719   2.127  0.0542 -1.5247  0.4813
 6474SOL    HW325629   4.806   5.625   2.219 -2.6997  1.4419  1.4229
 6474SOL    MW425630   4.846   5.701   2.205 -0.3369 -0.0334  0.5014
 6475SOL     OW25631   0.964   0.858   3.711 -0.3090 -0.4378  0.0196
 6475SOL    HW225632   0.954   0.883   3.803 -2.5614  2.2788 -0.8119
 6475SOL    HW325633   0.874   0.843   3.681  0.1465  0.8656 -2.2244
 6475SOL    MW425634   0.951   0.859   3.719  0.6136 -0.1377  0.3831
 6476SOL     OW25635   3.035   5.948   2.994  0.2301 -0.0950 -0.9289
 6476SOL    HW225636   3.107   5.949   3.058  0.0519 -0.4732 -0.7187
 6476SOL    HW325637   3.011   5.856   2.987 -0.5996  0.0868 -0.5896
 6476SOL    MW425638   3.042   5.936   3.002 -0.0867  0.1218  0.5335
 6477SOL     OW25639   2.282   4.507   3.350  0.6458  0.0361  0.0093
 6477SOL    HW225640   2.283   4.430   3.294  0.3129 -0.3897  0.5776
 6477SOL    HW325641   2.193   4.541   3.344  0.6189  0.0085  0.2600
 6477SOL    MW425642   2.270   4.502   3.342 -0.2519 -0.2410 -0.0837
 6478SOL     OW25643   3.279   3.705   5.514  0.3554 -0.1745  0.1005
 6478SOL    HW225644   3.346   3.697   5.581  0.0442  1.2154  0.6099
 6478SOL    HW325645   3.212   3.761   5.553 -0.7660 -0.9341 -0.6658
 6478SOL    MW425646   3.279   3.711   5.528  0.3338  1.3068 -0.0242
 6479SOL     OW25647   3.421   5.678   5.784  0.2813  0.5030 -0.0268
 6479SOL    HW225648   3.419   5.713   5.873  1.1361  1.9291 -0.5518
 6479SOL    HW325649   3.328   5.671   5.759  0.0558  3.0180 -0.1223
 6479SOL    MW425650   3.408   5.681   5.793 -0.4948 -0.5212 -0.4862
 6480SOL     OW25651   1.964   0.303   5.607 -0.2012  0.0815 -0.1391
 6480SOL    HW225652   1.989   0.303   5.514  0.9511  0.5561  0.1467
 6480SOL    HW325653   1.937   0.213   5.625  2.7355 -0.9357 -0.1738
 6480SOL    MW425654   1.964   0.291   5.597 -0.0704  0.0922 -0.4604
 6481SOL     OW25655   5.461   2.525   3.594  0.3052  0.3612 -0.5494
 6481SOL    HW225656   5.448   2.485   3.508  0.8597 -1.1685  0.0463
 6481SOL    HW325657   5.382   2.579   3.607  0.3373  0.8472 -2.0988
 6481SOL    MW425658   5.449   2.527   3.584 -0.7077  0.0244 -0.1980
 6482SOL     OW25659   1.864   6.063   0.696  0.3231  0.0243  0.1794
 6482SOL    HW225660   1.772   6.068   0.723  0.3634  0.8875  0.1566
 6482SOL    HW325661   1.860   6.017   0.612 -0.1573  0.6091 -0.1280
 6482SOL    MW425662   1.851   6.057   0.688 -0.1246 -0.2972  0.0761
 6483SOL     OW25663   0.677   3.836   5.834  0.2984  0.1083 -0.3591
 6483SOL    HW225664   0.660   3.830   5.740 -1.0653 -1.3673 -0.0842
 6483SOL    HW325665   0.595   3.869   5.871  0.6717  0.2702  0.3407
 6483SOL    MW425666   0.664   3.839   5.826 -0.0791 -0.3612  0.2245
 6484SOL     OW25667   2.616   1.651   0.281  0.2978 -0.0831 -0.0182
 6484SOL    HW225668   2.574   1.683   0.361  1.2807 -0.8192  0.8187
 6484SOL    HW325669   2.598   1.557   0.280  0.4872 -0.1185 -0.5535
 6484SOL    MW425670   2.608   1.643   0.292  0.3297  0.1099  0.2729
 6485SOL     OW25671   4.408   4.804   5.683  0.3242 -0.5505 -0.0281
 6485SOL    HW225672   4.339   4.751   5.724  0.0404 -0.0771  0.1132
 6485SOL    HW325673   4.484   4.791   5.740 -0.4790  1.3186  1.5846
 6485SOL    MW425674   4.409   4.795   5.696 -0.0277  0.1082  0.5410
 6486SOL     OW25675   3.550   3.845   2.251  0.3677  0.0445 -0.3561
 6486SOL    HW225676   3.499   3.794   2.314  0.8374  1.6557  1.4468
 6486SOL    HW325677   3.587   3.780   2.191 -0.9589 -1.4629  0.3844
 6486SOL    MW425678   3.548   3.830   2.252 -0.4764 -0.0132 -0.7260
 6487SOL     OW25679   3.905   0.683   2.940 -0.0750  0.2227 -0.8081
 6487SOL    HW225680   3.848   0.732   2.880 -1.2111  1.5053  1.2289
 6487SOL    HW325681   3.851   0.609   2.969  0.4919 -0.4252 -1.3625
 6487SOL    MW425682   3.890   0.680   2.936 -0.3878 -0.1241  0.3214
 6488SOL     OW25683   2.525   6.040   6.083 -0.4368  0.1459  0.2425
 6488SOL    HW225684   2.446   6.062   6.132 -0.3214  0.0260  0.4849
 6488SOL    HW325685   2.512   5.949   6.057 -2.4391  1.3010 -3.6357
 6488SOL    MW425686   2.513   6.031   6.086  0.7581  0.0029  0.1302
 6489SOL     OW25687   0.281   6.397   3.763  0.5139 -0.2453 -0.6858
 6489SOL    HW225688   0.375   6.392   3.781  0.2848  0.8614  1.0738
 6489SOL    HW325689   0.248   6.309   3.782  1.0793 -0.4614 -0.6846
 6489SOL    MW425690   0.289   6.384   3.768  0.2108  0.3201 -0.3717
 6490SOL     OW25691   1.113   3.908   3.989  0.2150 -0.0728  0.5086
 6490SOL    HW225692   1.158   3.971   3.934 -0.9689  2.1941  1.9980
 6490SOL    HW325693   1.035   3.883   3.938  0.3844  0.1194  0.1540
 6490SOL    MW425694   1.108   3.913   3.975 -0.2818 -0.2134  0.1539
 6491SOL     OW25695   3.940   6.258   4.348  0.8400 -0.8646  0.0788
 6491SOL    HW225696   3.878   6.185   4.354  1.8401 -1.6063  2.1254
 6491SOL    HW325697   3.974   6.253   4.258 -1.3567 -0.9658 -0.8146
 6491SOL    MW425698   3.936   6.248   4.337  0.2577 -0.2082  0.4208
 6492SOL     OW25699   5.197   3.196   2.469  0.2947 -0.0790  0.3086
 6492SOL    HW225700   5.117   3.153   2.436 -0.6764 -0.2082  2.6762
 6492SOL    HW325701   5.171   3.287   2.483  0.6992 -0.0172  0.6616
 6492SOL    MW425702   5.183   3.202   2.466 -0.1193 -0.4030 -0.6892
 6493SOL     OW25703   5.286   0.401   5.253  0.2171 -0.7317  0.6622
 6493SOL    HW225704   5.191   0.393   5.267  0.2523  0.2251  1.5850
 6493SOL    HW325705   5.325   0.371   5.335  0.5501  2.0632  1.6593
 6493SOL    MW425706   5.278   0.396   5.266 -0.1318 -0.2245 -0.2901
 6494SOL     OW25707   5.761   4.767   6.379  0.5453  0.0639 -0.7502
 6494SOL    HW225708   5.689   4.829   6.394  1.0199  0.5938 -0.6532
 6494SOL    HW325709   5.829   4.794   6.440  0.3440 -1.2323  0.0817
 6494SOL    MW425710   5.760   4.779   6.389 -0.3377  0.1487 -0.0414
 6495SOL     OW25711   0.567   5.135   2.673  0.9304  0.1595 -0.0305
 6495SOL    HW225712   0.662   5.143   2.662  1.0720  0.9555  1.4804
 6495SOL    HW325713   0.540   5.220   2.707 -0.4362  0.1430 -0.9845
 6495SOL    MW425714   0.576   5.147   2.676 -0.2224 -0.3139  0.6222
 6496SOL     OW25715   3.368   5.668   5.183 -0.4632 -0.0096 -0.0723
 6496SOL    HW225716   3.348   5.740   5.123 -1.6392  0.1717  0.5126
 6496SOL    HW325717   3.352   5.704   5.270 -2.1885 -1.2684  0.1939
 6496SOL    MW425718   3.363   5.682   5.186 -0.0727 -0.3696  0.1108
 6497SOL     OW25719   3.762   5.473   1.416  0.2276 -0.0614 -0.5706
 6497SOL    HW225720   3.805   5.465   1.502  0.1053 -0.7870 -0.5715
 6497SOL    HW325721   3.681   5.521   1.434  0.5053  0.3442 -0.3862
 6497SOL    MW425722   3.757   5.478   1.430  0.3098 -0.0257 -0.7671
 6498SOL     OW25723   3.813   6.133   1.020 -0.2661 -1.0311 -0.0829
 6498SOL    HW225724   3.849   6.168   0.938 -0.3357  0.0051  0.3143
 6498SOL    HW325725   3.811   6.039   1.007 -1.8249 -0.7916 -1.9208
 6498SOL    MW425726   3.818   6.125   1.007 -0.0892 -0.2220  0.1111
 6499SOL     OW25727   4.429   4.166   1.530 -0.1932 -0.1665 -0.4893
 6499SOL    HW225728   4.513   4.120   1.520 -0.1153 -0.6894  1.9635
 6499SOL    HW325729   4.423   4.184   1.624 -3.2421 -0.9615 -0.4293
 6499SOL    MW425730   4.439   4.162   1.541  0.1607 -0.4966  0.2851
 6500SOL     OW25731   3.566   5.811   5.520 -0.0254  0.0417 -0.6830
 6500SOL    HW225732   3.584   5.864   5.597 -1.3778 -1.2137  0.5489
 6500SOL    HW325733   3.644   5.757   5.509  0.5466  0.8665 -0.7724
 6500SOL    MW425734   3.578   5.811   5.529  0.0060  0.2118 -0.2185
 6501SOL     OW25735   1.744   4.038   2.078 -0.2247 -0.0159 -0.2432
 6501SOL    HW225736   1.664   4.023   2.128  0.2846  0.9441  0.8925
 6501SOL    HW325737   1.790   3.954   2.081  0.3271  0.3055  1.9116
 6501SOL    MW425738   1.740   4.025   2.085  0.0813  0.1168  0.5475
 6502SOL     OW25739   1.611   3.944   4.912  0.3277 -0.1462 -0.5429
 6502SOL    HW225740   1.640   3.928   4.822 -0.1440  0.9809 -0.9153
 6502SOL    HW325741   1.529   3.896   4.920  0.0250  0.2891 -0.9482
 6502SOL    MW425742   1.604   3.936   4.901 -0.0543 -0.0211  0.3119
 6503SOL     OW25743   3.316   5.787   2.439  0.1045 -0.0494 -0.9331
 6503SOL    HW225744   3.262   5.761   2.364  0.5138  1.8811 -1.9522
 6503SOL    HW325745   3.401   5.745   2.422  0.1391  0.2249 -1.4607
 6503SOL    MW425746   3.320   5.778   2.427  0.9719 -0.8023 -0.2442
 6504SOL     OW25747   6.417   4.938   0.826 -0.7541  0.6627  0.6212
 6504SOL    HW225748   6.380   4.867   0.774 -0.0436  1.0947 -0.5229
 6504SOL    HW325749   6.437   4.898   0.911  1.3327 -1.0420 -0.5602
 6504SOL    MW425750   6.415   4.924   0.830  0.7671  0.0232 -0.2982
 6505SOL     OW25751   2.946   5.696   6.154 -0.0906  0.3429 -0.2852
 6505SOL    HW225752   2.919   5.759   6.087  2.1293  0.3673 -1.2296
 6505SOL    HW325753   3.039   5.683   6.139  0.3473 -0.1909  2.3866
 6505SOL    MW425754   2.954   5.703   6.143 -0.0361  0.5518 -0.2049
 6506SOL     OW25755   0.792   4.102   3.077 -0.4942  0.5607 -0.0887
 6506SOL    HW225756   0.831   4.091   3.164 -1.0897  0.4176  0.1623
 6506SOL    HW325757   0.819   4.189   3.049 -0.4473  0.6778  0.3152
 6506SOL    MW425758   0.801   4.112   3.085 -0.6151  0.4013  0.1716
 6507SOL     OW25759   5.640   1.952   5.865 -0.4296  0.1331 -0.4910
 6507SOL    HW225760   5.583   1.911   5.800  0.0377 -2.9892  0.8780
 6507SOL    HW325761   5.727   1.951   5.826 -0.0814 -2.0942  0.2098
 6507SOL    MW425762   5.644   1.946   5.852  0.0782 -0.1592 -0.0098
 6508SOL     OW25763   1.837   6.145   3.237 -0.0132  0.5288  0.0713
 6508SOL    HW225764   1.867   6.217   3.180 -0.6501  0.6410 -0.1245
 6508SOL    HW325765   1.902   6.143   3.307 -0.9575  2.5223  1.0813
 6508SOL    MW425766   1.850   6.155   3.239  0.2940  1.1306 -0.3861
 6509SOL     OW25767   2.990   2.331   0.744 -0.0623  0.0407  0.0831
 6509SOL    HW225768   3.011   2.409   0.794 -2.9800  0.3568  0.9913
 6509SOL    HW325769   2.976   2.263   0.809  0.1232 -0.6406 -0.5664
 6509SOL    MW425770   2.991   2.332   0.759  0.2653 -0.6510  0.0385
 6510SOL     OW25771   1.724   1.240   1.432 -0.5446 -0.1871 -0.0696
 6510SOL    HW225772   1.654   1.284   1.384 -1.3545  0.4509  1.6172
 6510SOL    HW325773   1.750   1.167   1.375  0.1625  1.8287 -2.5177
 6510SOL    MW425774   1.718   1.236   1.418  0.3385 -0.0806 -0.8626
 6511SOL     OW25775   0.662   1.314   3.188  0.3715  0.0099  0.1726
 6511SOL    HW225776   0.691   1.257   3.117  1.2984 -0.2102  0.7011
 6511SOL    HW325777   0.615   1.385   3.145  2.0195  0.5766 -0.7923
 6511SOL    MW425778   0.659   1.316   3.173 -0.0749  0.1685 -0.0956
 6512SOL     OW25779   0.099   0.658   2.242 -0.2491  0.0984  0.3850
 6512SOL    HW225780   0.182   0.614   2.225 -0.3858  0.1162 -0.3655
 6512SOL    HW325781   0.096   0.730   2.179 -0.1299  1.0677  1.4627
 6512SOL    MW425782   0.109   0.661   2.232  0.3043 -0.1388 -0.1037
 6513SOL     OW25783   2.925   4.147   6.385  0.2523  0.1497  0.3014
 6513SOL    HW225784   3.007   4.101   6.366  0.2311  0.6438 -1.0459
 6513SOL    HW325785   2.898   4.183   6.301 -1.4534 -0.1595  0.6883
 6513SOL    MW425786   2.932   4.145   6.371 -0.0586 -0.0369  0.3471
 6514SOL     OW25787   0.251   5.703   1.696 -0.1845  0.3367  0.6319
 6514SOL    HW225788   0.258   5.722   1.789 -0.5089  0.3907  0.6471
 6514SOL    HW325789   0.312   5.631   1.681 -1.1136 -0.5966  1.1633
 6514SOL    MW425790   0.260   5.696   1.706 -0.7736 -0.7126 -0.2534
 6515SOL     OW25791   3.000   4.176   3.900 -0.3922  0.0334  0.6003
 6515SOL    HW225792   2.931   4.148   3.960  0.1446 -0.1002  1.1674
 6515SOL    HW325793   3.029   4.261   3.935 -0.2946  0.1055  0.3452
 6515SOL    MW425794   2.995   4.184   3.913  0.4087  0.2435 -0.0792
 6516SOL     OW25795   1.759   3.435   1.697  0.0127  0.0950 -0.6092
 6516SOL    HW225796   1.818   3.382   1.644 -0.3372 -1.8515  0.8550
 6516SOL    HW325797   1.709   3.372   1.748 -1.9370  1.7768 -0.3257
 6516SOL    MW425798   1.760   3.420   1.697 -0.4441 -0.2567 -0.6073
 6517SOL     OW25799   3.436   2.815   6.255  0.2878  0.3412  0.5326
 6517SOL    HW225800   3.528   2.830   6.230 -0.1211  3.2088  0.3219
 6517SOL    HW325801   3.440   2.760   6.333  2.1755  0.1118  0.3138
 6517SOL    MW425802   3.449   2.810   6.262 -0.6769 -0.1251  0.3304
 6518SOL     OW25803   0.284   4.477   4.987 -0.2267  0.4911 -0.0395
 6518SOL    HW225804   0.378   4.484   4.974 -0.4308  0.0265 -2.1821
 6518SOL    HW325805   0.248   4.466   4.899 -2.3198  0.9733  0.6853
 6518SOL    MW425806   0.291   4.476   4.974 -0.1625  0.7498  0.3358
 6519SOL     OW25807   5.645   4.786   5.077 -0.2944  0.3176  0.1757
 6519SOL    HW225808   5.577   4.719   5.068 -0.2638  0.3649 -0.4534
 6519SOL    HW325809   5.673   4.780   5.169 -0.1194 -0.6981  0.0679
 6519SOL    MW425810   5.640   4.776   5.088 -0.4565 -0.1688  0.9854
 6520SOL     OW25811   5.308   1.127   1.941 -0.0862  0.3505 -0.1059
 6520SOL    HW225812   5.227   1.125   1.991  0.3832  0.0012  0.6513
 6520SOL    HW325813   5.290   1.189   1.870 -0.7823  0.8109  0.4527
 6520SOL    MW425814   5.295   1.135   1.938  0.3040 -0.2047 -0.1482
 6521SOL     OW25815   4.729   1.435   3.399  0.3028 -0.5141  0.1202
 6521SOL    HW225816   4.782   1.460   3.324 -0.5363  0.7751 -0.0786
 6521SOL    HW325817   4.694   1.349   3.376  0.7805 -0.5325 -0.5635
 6521SOL    MW425818   4.731   1.427   3.386  0.1067  0.4204  0.1539
 6522SOL     OW25819   2.477   1.854   0.899 -0.1463 -0.4340 -0.0318
 6522SOL    HW225820   2.530   1.817   0.970 -0.2001  2.0532  1.3947
 6522SOL    HW325821   2.392   1.809   0.908  0.3241 -1.2629  0.4663
 6522SOL    MW425822   2.473   1.843   0.910  0.8229  0.3050 -0.7073
 6523SOL     OW25823   4.203   1.648   3.958  0.0187  0.1597  0.1943
 6523SOL    HW225824   4.170   1.736   3.975  0.5810  0.5719 -0.7183
 6523SOL    HW325825   4.281   1.662   3.904 -1.0427 -0.9574 -1.7477
 6523SOL    MW425826   4.209   1.662   3.953  0.5031 -0.2098  0.3629
 6524SOL     OW25827   1.871   6.166   3.851  0.2874 -0.2973 -0.1728
 6524SOL    HW225828   1.799   6.224   3.827 -0.6468 -0.6643  1.6169
 6524SOL    HW325829   1.939   6.224   3.885  1.2176  0.1273 -2.5384
 6524SOL    MW425830   1.870   6.181   3.852  0.3090 -0.1812  0.3944
 6525SOL     OW25831   6.199   2.378   4.815 -0.1495  0.1136  0.1085
 6525SOL    HW225832   6.105   2.367   4.803  0.0080 -2.4984  0.4851
 6525SOL    HW325833   6.220   2.319   4.889  1.6561  1.2568  0.5644
 6525SOL    MW425834   6.190   2.369   4.824  0.1767  0.2480 -0.4743
 6526SOL     OW25835   6.122   4.798   4.009 -0.0593 -0.1262 -0.5658
 6526SOL    HW225836   6.091   4.821   3.921  2.1008  1.3923 -1.0235
 6526SOL    HW325837   6.210   4.763   3.994  0.8725  1.3775  1.0740
 6526SOL    MW425838   6.130   4.797   3.995  0.5324 -0.5071 -0.3039
 6527SOL     OW25839   1.723   3.487   0.877  0.2670  0.4231  0.2339
 6527SOL    HW225840   1.768   3.417   0.926 -0.2933  0.2054  0.4492
 6527SOL    HW325841   1.697   3.445   0.795  0.6822  0.6241 -0.0069
 6527SOL    MW425842   1.726   3.472   0.873 -0.5627 -0.1028  0.3964
 6528SOL     OW25843   3.317   0.971   2.829 -0.1126 -0.2965 -0.4144
 6528SOL    HW225844   3.360   1.014   2.756 -2.3356 -0.5189 -1.9397
 6528SOL    HW325845   3.344   1.021   2.906  0.1229  1.6381 -1.6997
 6528SOL    MW425846   3.326   0.983   2.830 -0.1541 -0.0902  0.3150
 6529SOL     OW25847   2.033   3.359   0.373 -0.7416  0.0145 -0.1600
 6529SOL    HW225848   2.087   3.372   0.451 -1.6592 -0.9207  0.6727
 6529SOL    HW325849   2.001   3.269   0.381  1.2341 -1.0738 -3.0142
 6529SOL    MW425850   2.036   3.349   0.385 -0.3840 -0.1741 -0.0168
 6530SOL     OW25851   4.573   1.222   5.326 -0.0378  0.0210 -0.1777
 6530SOL    HW225852   4.665   1.198   5.339 -0.1667 -1.4268 -1.5676
 6530SOL    HW325853   4.554   1.197   5.235 -1.7504  0.4733  0.0147
 6530SOL    MW425854   4.583   1.215   5.316 -0.1660 -0.3820  0.5946
 6531SOL     OW25855   3.250   5.425   5.171 -0.2949  0.6307 -0.1682
 6531SOL    HW225856   3.287   5.513   5.178  0.9067  0.0090  2.6015
 6531SOL    HW325857   3.325   5.366   5.180 -1.3279 -0.6745  0.2852
 6531SOL    MW425858   3.264   5.429   5.173  0.3161 -0.0764 -0.6866
 6532SOL     OW25859   5.073   3.066   5.444 -0.3904  0.1061 -0.1479
 6532SOL    HW225860   4.989   3.042   5.485 -0.9222  1.6071 -0.3043
 6532SOL    HW325861   5.062   3.158   5.420  1.4962  0.4664  0.2639
 6532SOL    MW425862   5.060   3.075   5.446 -0.0599  0.3386 -0.1655
 6533SOL     OW25863   2.252   5.629   4.106 -0.2256 -0.4473 -0.0591
 6533SOL    HW225864   2.322   5.611   4.170 -0.3748 -1.3127 -0.1386
 6533SOL    HW325865   2.171   5.610   4.153 -0.5536  2.1496  0.5966
 6533SOL    MW425866   2.251   5.624   4.121 -0.3230  0.5511 -0.0770
 6534SOL     OW25867   6.117   0.819   0.891 -0.3157  0.3985  0.1487
 6534SOL    HW225868   6.156   0.901   0.920  1.5021 -0.6033  0.6268
 6534SOL    HW325869   6.156   0.803   0.805  0.4487 -0.6518  0.6649
 6534SOL    MW425870   6.127   0.828   0.883  0.3256  0.0094  0.1307
 6535SOL     OW25871   3.150   3.363   0.622 -0.0513 -0.4808  0.3003
 6535SOL    HW225872   3.075   3.353   0.564  0.8004 -0.6238 -0.8237
 6535SOL    HW325873   3.129   3.439   0.676 -0.1942  0.6946 -1.3305
 6535SOL    MW425874   3.138   3.372   0.621 -0.0566  0.3738 -0.0089
 6536SOL     OW25875   1.180   5.092   4.786  0.0982 -0.1347  0.8521
 6536SOL    HW225876   1.195   5.086   4.691 -0.6366 -0.1045  0.7298
 6536SOL    HW325877   1.265   5.069   4.825  1.1039  2.1069  0.1540
 6536SOL    MW425878   1.193   5.088   4.778  0.3003 -0.2031 -0.2134
 6537SOL     OW25879   1.067   4.685   0.179  0.3237 -0.4991 -0.2723
 6537SOL    HW225880   1.075   4.633   0.099  1.5361 -0.5298 -0.1505
 6537SOL    HW325881   0.991   4.741   0.164  0.7443 -0.2590 -1.5952
 6537SOL    MW425882   1.058   4.686   0.166 -0.5877  0.4635  0.6198
 6538SOL     OW25883   3.070   1.896   4.879 -0.7096  0.5858 -0.6002
 6538SOL    HW225884   2.980   1.904   4.910 -0.8092  1.0812 -1.0236
 6538SOL    HW325885   3.066   1.826   4.813 -0.6116 -0.0318  0.0397
 6538SOL    MW425886   3.058   1.888   4.874  0.7055  0.4489  0.4215
 6539SOL     OW25887   5.236   5.998   0.862 -0.6638 -0.5534 -0.4636
 6539SOL    HW225888   5.206   6.050   0.936 -1.2049 -0.5832 -0.6595
 6539SOL    HW325889   5.234   6.058   0.788  0.8042 -0.2424 -0.2961
 6539SOL    MW425890   5.232   6.013   0.862 -0.1384  0.0419 -0.6895
 6540SOL     OW25891   3.227   0.242   5.963 -0.1184 -0.3632 -0.3265
 6540SOL    HW225892   3.182   0.178   5.907 -0.7415  0.7796 -1.1926
 6540SOL    HW325893   3.158   0.280   6.016  0.5542 -1.8404  1.7010
 6540SOL    MW425894   3.212   0.239   5.962 -0.7873 -0.0919 -0.0944
 6541SOL     OW25895   0.665   6.147   0.459 -0.3444  0.3525 -0.0056
 6541SOL    HW225896   0.638   6.183   0.544 -0.4141  1.1447 -0.3469
 6541SOL    HW325897   0.607   6.072   0.445  0.9982 -1.0389  1.5556
 6541SOL    MW425898   0.654   6.142   0.468  0.6178 -0.0545  0.3037
 6542SOL     OW25899   3.859   6.235   0.769 -0.1011 -0.5511  0.2711
 6542SOL    HW225900   3.784   6.223   0.711  0.8362 -0.0297 -1.1126
 6542SOL    HW325901   3.934   6.237   0.710  0.9714 -0.6944  1.5888
 6542SOL    MW425902   3.859   6.234   0.753  0.3828 -0.5574  0.0802
 6543SOL     OW25903   1.088   6.159   4.161 -0.1337  0.0086  0.3416
 6543SOL    HW225904   1.100   6.110   4.080 -1.8679 -0.3086  0.2415
 6543SOL    HW325905   1.060   6.093   4.225 -2.7276  0.8113  0.1468
 6543SOL    MW425906   1.086   6.144   4.159 -0.5552 -0.3997 -0.1739
 6544SOL     OW25907   0.199   1.171   1.290  0.0101  0.6611 -0.2287
 6544SOL    HW225908   0.247   1.231   1.233  1.2378  0.2917  0.3947
 6544SOL    HW325909   0.264   1.138   1.351 -0.3705 -2.2358 -1.2567
 6544SOL    MW425910   0.214   1.175   1.291 -1.1317  0.1945 -0.0704
 6545SOL     OW25911   3.385   4.774   1.402  0.4133 -0.3867  0.1994
 6545SOL    HW225912   3.459   4.792   1.460  0.8727  1.0158 -0.7525
 6545SOL    HW325913   3.363   4.683   1.419  1.5201 -0.4557  1.4530
 6545SOL    MW425914   3.392   4.765   1.412 -1.1710 -0.0511  0.1446
 6546SOL     OW25915   5.256   5.244   1.042  0.0158 -0.0264 -0.2653
 6546SOL    HW225916   5.332   5.265   1.097  0.4718 -0.7261 -0.6143
 6546SOL    HW325917   5.280   5.162   0.999 -1.8762 -1.5634  1.4235
 6546SOL    MW425918   5.269   5.236   1.044 -0.3468  0.1922 -0.3841
 6547SOL     OW25919   2.112   0.323   3.659  0.5162 -0.4133  0.9243
 6547SOL    HW225920   2.112   0.290   3.750 -0.4136 -1.0477  0.7047
 6547SOL    HW325921   2.028   0.366   3.649 -0.1171 -1.8313 -0.1492
 6547SOL    MW425922   2.101   0.324   3.670 -0.1607 -0.2823  0.6287
 6548SOL     OW25923   2.852   1.529   6.194  0.1119 -0.2272  0.0374
 6548SOL    HW225924   2.941   1.522   6.160 -1.0207 -0.3802 -3.2710
 6548SOL    HW325925   2.832   1.623   6.189 -0.5168 -0.3999 -1.1682
 6548SOL    MW425926   2.861   1.541   6.189 -0.0338  0.3283 -0.7096
 6549SOL     OW25927   5.841   0.242   4.489 -0.2284  0.4478 -0.2093
 6549SOL    HW225928   5.818   0.161   4.535 -0.7585  0.3987 -0.5443
 6549SOL    HW325929   5.779   0.307   4.523  1.3093  1.1679  1.3527
 6549SOL    MW425930   5.829   0.240   4.500 -0.3986  0.2146 -0.6087
 6550SOL     OW25931   1.427   5.875   2.810 -0.3039 -0.7135 -0.3349
 6550SOL    HW225932   1.410   5.939   2.878  0.1038 -1.1600  0.1939
 6550SOL    HW325933   1.346   5.825   2.803 -0.2019 -0.9516  0.1366
 6550SOL    MW425934   1.414   5.877   2.818  0.3776  0.1827  0.3397
 6551SOL     OW25935   4.587   5.935   2.695 -0.0577  0.0701 -0.2702
 6551SOL    HW225936   4.539   5.991   2.757 -1.5736  0.4588 -1.7197
 6551SOL    HW325937   4.601   5.854   2.743 -0.4616  0.6418  0.8644
 6551SOL    MW425938   4.582   5.932   2.710  0.1538  0.0018 -0.0258
 6552SOL     OW25939   1.349   0.807   3.807  0.2078 -0.0516  0.0465
 6552SOL    HW225940   1.416   0.864   3.768  0.7862 -0.5667  0.2786
 6552SOL    HW325941   1.310   0.861   3.876 -0.6201  0.7650 -1.0222
 6552SOL    MW425942   1.353   0.822   3.811  0.1062 -0.1977  0.4166
 6553SOL     OW25943   1.267   2.801   1.185  0.5537 -0.0237  0.2524
 6553SOL    HW225944   1.258   2.767   1.275  0.0710  1.3379  0.7484
 6553SOL    HW325945   1.292   2.893   1.197 -1.3455  0.7110 -0.9539
 6553SOL    MW425946   1.269   2.809   1.199  0.2135  0.6499 -0.0037
 6554SOL     OW25947   6.235   2.579   2.867  0.1821 -0.3531 -0.4124
 6554SOL    HW225948   6.256   2.504   2.811  2.4955  0.1683 -0.3504
 6554SOL    HW325949   6.290   2.649   2.834  2.5063 -0.2734  3.0742
 6554SOL    MW425950   6.245   2.578   2.855  0.3275  0.2003  0.1897
 6555SOL     OW25951   5.188   5.678   1.860  0.0731 -0.2808  0.4034
 6555SOL    HW225952   5.229   5.628   1.931  0.1159 -0.3006  0.3647
 6555SOL    HW325953   5.158   5.611   1.798  1.9527 -0.1980 -0.6612
 6555SOL    MW425954   5.189   5.663   1.862  0.0772 -0.4385  0.0886
 6556SOL     OW25955   5.415   5.353   5.211 -0.5920  0.1435 -0.0822
 6556SOL    HW225956   5.477   5.316   5.148  0.8660  2.2666  0.0202
 6556SOL    HW325957   5.383   5.433   5.170 -0.6530  0.8557  1.3180
 6556SOL    MW425958   5.419   5.359   5.197 -0.0152 -0.5030  0.3126
 6557SOL     OW25959   0.731   2.018   3.654 -0.1271  0.3935  0.1761
 6557SOL    HW225960   0.650   1.971   3.638 -0.4474  0.9684  0.0600
 6557SOL    HW325961   0.799   1.951   3.653 -0.7026 -0.2395  1.2208
 6557SOL    MW425962   0.729   2.003   3.652  0.4182  0.3863 -0.2311
 6558SOL     OW25963   1.438   2.480   1.435 -0.1977 -0.2558  0.4470
 6558SOL    HW225964   1.428   2.533   1.514 -0.4711 -0.8075  0.7879
 6558SOL    HW325965   1.445   2.390   1.467  0.6201 -0.4030 -0.0999
 6558SOL    MW425966   1.438   2.476   1.449  0.1253  0.1190  0.7565
 6559SOL     OW25967   2.784   2.203   0.436  0.1472  0.2166 -0.3446
 6559SOL    HW225968   2.796   2.181   0.528 -1.6325  0.9158  0.0957
 6559SOL    HW325969   2.760   2.295   0.436  1.7318  0.6779 -1.6767
 6559SOL    MW425970   2.783   2.212   0.448  0.0793  0.8588 -0.3664
 6560SOL     OW25971   4.638   2.657   6.017 -0.3320  0.2384  0.7474
 6560SOL    HW225972   4.613   2.590   5.953  2.9668  0.3432 -0.8748
 6560SOL    HW325973   4.650   2.608   6.099  1.2514 -1.1197 -0.2139
 6560SOL    MW425974   4.637   2.641   6.019 -0.5685 -0.0422 -0.0204
 6561SOL     OW25975   2.723   2.607   5.394  0.1015 -0.1109  0.0894
 6561SOL    HW225976   2.676   2.524   5.396  3.8050 -2.5059 -1.5641
 6561SOL    HW325977   2.680   2.657   5.324 -0.5134 -1.8097 -0.8027
 6561SOL    MW425978   2.711   2.603   5.385 -0.0021  0.6707 -0.0239
 6562SOL     OW25979   3.671   5.165   2.632  0.1033 -0.5602 -0.2156
 6562SOL    HW225980   3.734   5.125   2.571 -2.0795 -0.9402 -2.3651
 6562SOL    HW325981   3.664   5.101   2.703  2.5067 -0.2311  0.4359
 6562SOL    MW425982   3.679   5.151   2.633  0.3297 -0.5982  0.0641
 6563SOL     OW25983   4.402   1.438   4.254  0.4254  0.1845 -0.0835
 6563SOL    HW225984   4.365   1.403   4.173  0.7266  2.3400 -1.2646
 6563SOL    HW325985   4.496   1.422   4.246  0.7406  2.1792 -1.2469
 6563SOL    MW425986   4.410   1.432   4.242  0.1186 -0.2370 -0.5951
 6564SOL     OW25987   5.387   4.050   2.881  0.4104 -0.3213  0.5290
 6564SOL    HW225988   5.416   3.960   2.894  0.7816 -0.3980 -0.7121
 6564SOL    HW325989   5.301   4.054   2.921  0.0163 -1.4699 -0.1597
 6564SOL    MW425990   5.380   4.039   2.888  0.4937 -0.2607  0.5351
 6565SOL     OW25991   4.265   2.823   4.773  0.0418 -0.6413  0.0945
 6565SOL    HW225992   4.283   2.744   4.823 -1.0400 -1.5801 -0.9417
 6565SOL    HW325993   4.213   2.794   4.699 -1.6466  1.2385  0.4382
 6565SOL    MW425994   4.260   2.809   4.770  0.0073 -0.0410  0.1714
 6566SOL     OW25995   6.160   3.697   4.930  0.3881  0.9281  0.2944
 6566SOL    HW225996   6.238   3.721   4.979  0.2588  0.8760  0.5271
 6566SOL    HW325997   6.168   3.602   4.918  1.4162  1.1965 -1.5201
 6566SOL    MW425998   6.171   3.688   4.935  0.1367  0.3364 -0.2254
 6567SOL     OW25999   2.031   4.033   5.785 -0.3764 -0.3752  0.2245
 6567SOL    HW226000   2.010   3.977   5.710 -0.0772 -0.3339  0.1082
 6567SOL    HW326001   2.122   4.012   5.806 -0.2181  0.1615  0.0935
 6567SOL    MW426002   2.040   4.023   5.777  0.4908 -0.1912  0.1898
 6568SOL     OW26003   5.844   3.805   1.461 -0.4509  0.7899 -0.1067
 6568SOL    HW226004   5.878   3.740   1.399 -1.5714  0.3650 -0.2967
 6568SOL    HW326005   5.804   3.753   1.530  1.4685  1.2387  1.4217
 6568SOL    MW426006   5.843   3.789   1.462  0.2988  0.1904 -0.1465
 6569SOL     OW26007   4.271   1.901   2.166  0.3172 -0.2499  0.4406
 6569SOL    HW226008   4.246   1.971   2.226  0.3958  0.0861  0.0791
 6569SOL    HW326009   4.356   1.871   2.199  0.4833  0.1100  0.3407
 6569SOL    MW426010   4.279   1.906   2.179 -0.4766 -0.1595  0.4210
 6570SOL     OW26011   5.220   2.467   0.654  0.7255 -0.3827 -0.8377
 6570SOL    HW226012   5.190   2.382   0.685  0.2994  0.3925  1.0146
 6570SOL    HW326013   5.146   2.526   0.669  1.6346  0.6723 -0.3814
 6570SOL    MW426014   5.206   2.463   0.660 -0.1673 -0.5563 -0.2091
 6571SOL     OW26015   2.832   4.981   4.272 -0.2710  0.7304  0.2173
 6571SOL    HW226016   2.746   4.966   4.235 -0.7744  0.9947  1.2405
 6571SOL    HW326017   2.817   5.046   4.342  0.6465  0.3220  0.8134
 6571SOL    MW426018   2.819   4.988   4.277 -0.3154  1.0141  0.2721
 6572SOL     OW26019   1.398   5.931   2.411 -0.3719  0.5107  0.1258
 6572SOL    HW226020   1.382   5.887   2.327 -0.1735  1.3097 -0.3492
 6572SOL    HW326021   1.313   5.965   2.436 -0.9145 -1.5944  1.3905
 6572SOL    MW426022   1.385   5.930   2.403  0.2364  0.4615  0.2968
 6573SOL     OW26023   3.975   2.905   1.019  0.2411 -0.2755  0.1611
 6573SOL    HW226024   3.995   2.812   1.011  0.5291 -0.1282 -0.9364
 6573SOL    HW326025   4.061   2.948   1.018  0.0610  0.1813 -2.1590
 6573SOL    MW426026   3.989   2.898   1.018  0.3534 -0.6800  0.3302
 6574SOL     OW26027   5.122   1.828   3.759  0.0040  0.6706  0.0372
 6574SOL    HW226028   5.132   1.803   3.851  0.7093 -2.6301 -0.8254
 6574SOL    HW326029   5.034   1.866   3.754 -1.7830 -2.8580  1.4307
 6574SOL    MW426030   5.111   1.830   3.771  0.5465  0.1450  0.4324
 6575SOL     OW26031   4.466   5.628   1.215 -0.4146  0.5310 -0.6953
 6575SOL    HW226032   4.384   5.589   1.245 -0.4506  0.6558 -0.6325
 6575SOL    HW326033   4.440   5.710   1.174 -0.3486  0.4423 -0.9163
 6575SOL    MW426034   4.452   5.634   1.213 -0.6349 -0.0112 -0.6209
 6576SOL     OW26035   0.958   5.611   3.150 -0.3076 -0.4927  0.1551
 6576SOL    HW226036   0.888   5.654   3.101  0.5688  2.1911  1.0773
 6576SOL    HW326037   0.918   5.589   3.234 -0.1600  0.7484  0.5639
 6576SOL    MW426038   0.943   5.613   3.155 -0.0712 -0.1897 -0.5818
 6577SOL     OW26039   5.587   5.557   1.086  0.1621 -0.3027 -0.5440
 6577SOL    HW226040   5.579   5.602   1.170 -1.2697  0.1707 -0.9121
 6577SOL    HW326041   5.615   5.468   1.110 -1.2558 -0.4915  0.5315
 6577SOL    MW426042   5.590   5.551   1.100  0.5257  0.0516  0.5025
 6578SOL     OW26043   5.253   1.821   0.658 -0.6597  0.1957  0.2347
 6578SOL    HW226044   5.205   1.902   0.678 -0.6150  0.2288  0.2086
 6578SOL    HW326045   5.292   1.838   0.572 -2.8625 -0.8403 -1.0624
 6578SOL    MW426046   5.251   1.834   0.649 -0.4133 -0.0458 -0.1117
 6579SOL     OW26047   2.956   4.524   5.014 -0.9373  0.6584 -0.0975
 6579SOL    HW226048   3.001   4.524   5.099 -1.9702 -0.7649  0.4860
 6579SOL    HW326049   2.865   4.505   5.035 -0.7971 -2.3142 -1.6662
 6579SOL    MW426050   2.950   4.521   5.028 -0.1860 -0.7271  0.5704
 6580SOL     OW26051   5.332   2.295   2.280 -0.5926 -0.5379 -0.2925
 6580SOL    HW226052   5.330   2.227   2.213 -0.0587  0.2186 -1.1150
 6580SOL    HW326053   5.256   2.350   2.261 -0.4255 -0.3054 -0.2961
 6580SOL    MW426054   5.322   2.293   2.269  0.1665 -0.7698 -0.0053
 6581SOL     OW26055   2.038   0.906   3.376  0.4174  0.4485  0.4376
 6581SOL    HW226056   2.127   0.884   3.402  1.1765 -1.2756 -3.0177
 6581SOL    HW326057   1.983   0.840   3.419  1.3596 -1.0625 -0.5810
 6581SOL    MW426058   2.042   0.894   3.385  0.3901 -0.1829 -0.1300
 6582SOL     OW26059   6.353   4.666   3.943 -0.2208 -0.0397 -0.0559
 6582SOL    HW226060   6.336   4.619   3.861  0.1505  1.5697 -1.1153
 6582SOL    HW326061   6.427   4.723   3.922 -1.4329  1.9236  0.7510
 6582SOL    MW426062   6.361   4.667   3.929  0.2875 -0.0652 -0.3920
 6583SOL     OW26063   0.798   2.030   1.481  0.1965  0.1853 -0.1984
 6583SOL    HW226064   0.845   2.105   1.516  2.0567 -0.8704 -0.2960
 6583SOL    HW326065   0.861   1.958   1.486 -1.7638 -1.5729  0.6142
 6583SOL    MW426066   0.813   2.030   1.486  0.2536  0.6498 -0.6073
 6584SOL     OW26067   2.684   4.084   4.516 -0.0938  0.1880  0.0152
 6584SOL    HW226068   2.730   4.165   4.492  0.6758 -0.7569 -1.9239
 6584SOL    HW326069   2.610   4.114   4.570  0.3600  2.1463 -0.3552
 6584SOL    MW426070   2.680   4.099   4.520  0.2648 -0.4050 -0.5099
 6585SOL     OW26071   4.424   1.771   1.582  0.2100  0.3398  0.4583
 6585SOL    HW226072   4.394   1.709   1.649  1.7372 -1.7269 -0.6470
 6585SOL    HW326073   4.356   1.767   1.514  1.4669 -2.3381 -0.8374
 6585SOL    MW426074   4.411   1.762   1.582  0.1529 -0.2254 -0.2457
 6586SOL     OW26075   2.565   0.870   0.121 -0.0895  0.4244  0.2919
 6586SOL    HW226076   2.627   0.937   0.094  0.3487  1.0164  2.5272
 6586SOL    HW326077   2.617   0.791   0.129 -0.1823  0.2924 -0.3758
 6586SOL    MW426078   2.580   0.869   0.119 -0.3618  1.1884  0.0547
 6587SOL     OW26079   0.315   4.068   3.597 -0.3517 -0.0119 -0.7683
 6587SOL    HW226080   0.321   3.981   3.637  0.2438  1.0789  1.7304
 6587SOL    HW326081   0.390   4.116   3.633 -0.2470  1.3599 -2.6585
 6587SOL    MW426082   0.326   4.063   3.607  0.0790  0.4549 -0.0100
 6588SOL     OW26083   6.041   5.598   1.466 -0.3454 -0.9831 -0.7441
 6588SOL    HW226084   5.980   5.557   1.529 -0.0766 -1.7080 -0.9433
 6588SOL    HW326085   5.995   5.595   1.383 -1.1135  0.8823 -0.4334
 6588SOL    MW426086   6.027   5.592   1.464 -0.3341  0.1554  0.6879
 6589SOL     OW26087   4.556   4.746   3.215 -0.1284 -0.8475 -0.0259
 6589SOL    HW226088   4.510   4.830   3.210  1.1482 -0.1389 -0.4626
 6589SOL    HW326089   4.637   4.767   3.261  0.4728 -1.7134 -0.6620
 6589SOL    MW426090   4.561   4.760   3.220  0.6433 -0.5828 -0.3096
 6590SOL     OW26091   0.119   5.587   4.559 -0.3095  0.5117  0.0604
 6590SOL    HW226092   0.065   5.562   4.635  1.6961  1.9585  2.0870
 6590SOL    HW326093   0.105   5.681   4.550  1.1620  0.7530  0.0647
 6590SOL    MW426094   0.110   5.596   4.568  0.0617  0.0293 -0.1330
 6591SOL     OW26095   5.615   1.340   1.130  0.1308  0.7206  0.6418
 6591SOL    HW226096   5.661   1.262   1.160 -0.4294 -0.1476 -0.7083
 6591SOL    HW326097   5.658   1.364   1.048 -1.0969  0.5317 -0.0791
 6591SOL    MW426098   5.627   1.333   1.123  0.1843  0.7739 -0.0750
 6592SOL     OW26099   5.560   5.700   1.320 -0.3196  0.4322 -0.1850
 6592SOL    HW226100   5.500   5.702   1.395 -2.0832 -1.6369 -1.4129
 6592SOL    HW326101   5.556   5.788   1.284 -1.2801  0.8107  0.7714
 6592SOL    MW426102   5.551   5.712   1.325 -0.4417 -0.0285 -0.3661
 6593SOL     OW26103   0.536   3.644   2.054  0.0652  0.2446  0.0734
 6593SOL    HW226104   0.624   3.664   2.023 -0.4035 -0.7367 -2.1566
 6593SOL    HW326105   0.480   3.710   2.011 -0.2438  1.3425  2.0719
 6593SOL    MW426106   0.540   3.655   2.044  0.3972 -0.4309 -0.0937
 6594SOL     OW26107   1.276   1.699   0.992  0.6401  0.9502 -0.4159
 6594SOL    HW226108   1.264   1.682   1.086  1.6256  0.4394 -0.3664
 6594SOL    HW326109   1.188   1.712   0.958  0.2699  1.1255  0.5824
 6594SOL    MW426110   1.263   1.699   1.000  0.5490  0.0883 -0.0478
 6595SOL     OW26111   5.843   3.227   0.567  0.4374 -0.8250 -0.0383
 6595SOL    HW226112   5.768   3.283   0.587  2.0756  1.3597  0.3015
 6595SOL    HW326113   5.814   3.139   0.593 -1.4367  0.1689  1.5694
 6595SOL    MW426114   5.829   3.223   0.573  0.2596  0.2184  0.0349
 6596SOL     OW26115   2.564   0.878   1.956  0.1283 -0.1509  0.0961
 6596SOL    HW226116   2.529   0.962   1.985 -1.0998  0.6667 -3.3398
 6596SOL    HW326117   2.658   0.894   1.944  0.4693 -0.2156  2.2993
 6596SOL    MW426118   2.572   0.891   1.958 -0.3064  0.5915 -0.2009
 6597SOL     OW26119   0.718   4.338   5.070 -0.6477 -0.2467 -0.0625
 6597SOL    HW226120   0.647   4.280   5.097  1.1258 -2.3813  0.2196
 6597SOL    HW326121   0.773   4.347   5.147 -1.1880  2.4313  0.1102
 6597SOL    MW426122   0.716   4.332   5.083  0.1947  0.0164  0.1417
 6598SOL     OW26123   6.103   0.403   0.818 -0.1954  0.0555  0.6613
 6598SOL    HW226124   6.125   0.312   0.795  1.7014  0.0773  2.1440
 6598SOL    HW326125   6.120   0.452   0.738  1.8748 -0.4914  0.6959
 6598SOL    MW426126   6.108   0.397   0.804  0.0917  0.8894 -0.0763
 6599SOL     OW26127   1.940   4.986   0.311  0.1741 -0.4221  0.3256
 6599SOL    HW226128   2.031   4.982   0.340  0.3692  0.4187 -0.1264
 6599SOL    HW326129   1.896   4.915   0.358  1.5021 -2.2246 -1.0162
 6599SOL    MW426130   1.946   4.976   0.321 -0.3171 -0.5240 -0.0519
 6600SOL     OW26131   3.351   2.965   3.722  0.1118  0.2969 -0.1396
 6600SOL    HW226132   3.263   2.931   3.705  0.0574  0.5305 -0.3276
 6600SOL    HW326133   3.366   3.029   3.653 -0.1803  1.3723  0.7711
 6600SOL    MW426134   3.341   2.969   3.711  0.2217 -0.0857 -0.0100
 6601SOL     OW26135   3.927   4.266   2.673  0.5006  0.1776 -0.6656
 6601SOL    HW226136   3.920   4.344   2.618  0.4607  0.5568 -0.1236
 6601SOL    HW326137   3.843   4.221   2.663 -0.5447  1.6031  1.1190
 6601SOL    MW426138   3.915   4.270   2.664  0.2257  0.4518 -0.0922
 6602SOL     OW26139   3.521   2.230   0.207 -0.0191  0.4133 -0.2162
 6602SOL    HW226140   3.485   2.265   0.125  0.4015  0.7325 -0.2677
 6602SOL    HW326141   3.446   2.192   0.252 -0.5338  1.5752 -0.0610
 6602SOL    MW426142   3.507   2.229   0.202  0.1964 -0.1641  0.3116
 6603SOL     OW26143   0.869   0.576   1.591  0.4885  0.1877  0.0137
 6603SOL    HW226144   0.858   0.625   1.510  0.3153 -0.2480 -0.2327
 6603SOL    HW326145   0.911   0.637   1.652  2.1949  0.0114 -0.9296
 6603SOL    MW426146   0.873   0.590   1.589  0.2114 -0.1209 -0.5066
 6604SOL     OW26147   1.657   1.679   4.466  0.1798  0.1822  0.1601
 6604SOL    HW226148   1.649   1.584   4.473  1.7565  0.0105  0.1016
 6604SOL    HW326149   1.741   1.699   4.507  2.2373  0.9291 -3.8184
 6604SOL    MW426150   1.667   1.669   4.472  0.7192 -0.2293 -0.5079
 6605SOL     OW26151   1.212   2.208   6.205  0.0694  0.5478 -0.3582
 6605SOL    HW226152   1.275   2.152   6.160 -1.5619 -1.2137 -0.5568
 6605SOL    HW326153   1.155   2.241   6.136 -0.3356  0.6555  0.0232
 6605SOL    MW426154   1.213   2.205   6.190 -0.4719 -1.2160 -0.5165
 6606SOL     OW26155   5.072   4.010   2.615  0.4204 -0.1483  0.3092
 6606SOL    HW226156   5.089   3.963   2.696 -1.5613  0.6139  1.2428
 6606SOL    HW326157   5.032   4.093   2.643 -0.0365  0.2649 -1.4188
 6606SOL    MW426158   5.069   4.015   2.629  0.0355  0.4522 -0.2483
 6607SOL     OW26159   2.485   1.105   3.265  0.4664  0.3385 -0.0993
 6607SOL    HW226160   2.551   1.113   3.197 -0.9516 -1.0865 -1.7272
 6607SOL    HW326161   2.450   1.194   3.275  1.2236  0.7105 -0.6405
 6607SOL    MW426162   2.489   1.118   3.258  0.5812  0.4000  0.0073
 6608SOL     OW26163   4.664   6.034   0.292 -0.2683 -0.0281  0.4424
 6608SOL    HW226164   4.584   5.997   0.331  0.3883 -1.1182  0.8021
 6608SOL    HW326165   4.711   5.958   0.259  0.8444  0.5659  0.6418
 6608SOL    MW426166   4.659   6.019   0.293  0.5473 -0.3018 -0.1426
 6609SOL     OW26167   2.011   3.078   0.414 -0.0545 -0.2856  0.2477
 6609SOL    HW226168   1.944   3.013   0.396  0.6380 -1.6977  2.3895
 6609SOL    HW326169   2.082   3.058   0.353 -0.0416 -1.2592  0.5738
 6609SOL    MW426170   2.011   3.067   0.404  0.3092  0.1399 -0.3613
 6610SOL     OW26171   5.315   5.596   5.097 -0.5233  0.0012  0.3261
 6610SOL    HW226172   5.234   5.615   5.049  1.2683 -0.5003 -3.2678
 6610SOL    HW326173   5.354   5.682   5.113 -0.4388  0.1386 -0.5620
 6610SOL    MW426174   5.310   5.610   5.093 -0.8584 -0.7170 -0.6222
 6611SOL     OW26175   5.295   4.875   2.350 -0.4637  0.2859 -0.1416
 6611SOL    HW226176   5.370   4.816   2.347 -1.2469 -0.7699  0.7068
 6611SOL    HW326177   5.219   4.820   2.331 -0.9357  1.5794 -2.3650
 6611SOL    MW426178   5.295   4.860   2.347  0.2147  0.1383 -0.6106
 6612SOL     OW26179   5.975   3.882   5.069  0.1311 -0.0373 -0.0004
 6612SOL    HW226180   6.061   3.848   5.046  0.0826  0.8321 -1.6116
 6612SOL    HW326181   5.993   3.967   5.111  0.0448  1.2518 -2.4102
 6612SOL    MW426182   5.989   3.889   5.072  0.3657  0.3486 -0.1678
 6613SOL     OW26183   6.283   0.972   1.270 -0.7310  0.0970 -0.5057
 6613SOL    HW226184   6.378   0.961   1.271 -0.4990  1.6980 -1.0589
 6613SOL    HW326185   6.262   0.986   1.178 -0.8716  3.8755 -0.0800
 6613SOL    MW426186   6.293   0.972   1.258 -0.5787 -0.3173  0.1038
 6614SOL     OW26187   1.215   4.379   1.539 -0.1741  0.8387  0.0466
 6614SOL    HW226188   1.280   4.355   1.473  0.2742  1.0148  0.4176
 6614SOL    HW326189   1.208   4.302   1.595 -0.1198  0.9024  0.1410
 6614SOL    MW426190   1.222   4.366   1.538 -0.2765 -0.4994  0.5845
 6615SOL     OW26191   5.795   6.430   4.647 -0.5791  0.4542  0.7915
 6615SOL    HW226192   5.715   6.402   4.690  0.6188 -0.7633  2.3549
 6615SOL    HW326193   5.851   6.462   4.718  1.0223 -0.4993  0.0284
 6615SOL    MW426194   5.792   6.431   4.662 -0.9907 -0.2797 -0.7814
 6616SOL     OW26195   0.661   5.656   0.128  0.1292 -0.4423  0.3588
 6616SOL    HW226196   0.749   5.626   0.105  0.0564  0.1195 -0.6994
 6616SOL    HW326197   0.606   5.623   0.058 -0.5816 -1.1068  1.2117
 6616SOL    MW426198   0.666   5.648   0.116 -0.7800  0.0486  0.1081
 6617SOL     OW26199   6.346   6.260   1.934 -0.3802 -0.8131  0.2221
 6617SOL    HW226200   6.351   6.169   1.904 -0.4034 -0.6631 -0.2493
 6617SOL    HW326201   6.436   6.293   1.924 -0.3196 -0.8565  0.6256
 6617SOL    MW426202   6.359   6.252   1.928 -0.3152  0.7353 -0.1295
 6618SOL     OW26203   3.382   2.135   1.211 -0.8586 -0.3547  0.5119
 6618SOL    HW226204   3.317   2.152   1.143 -0.3170 -0.9971 -0.1704
 6618SOL    HW326205   3.334   2.087   1.278 -1.3295  0.0503  0.4687
 6618SOL    MW426206   3.367   2.131   1.211 -0.3054 -0.1761 -0.2542
 6619SOL     OW26207   1.073   4.560   3.903 -0.0915 -0.1054  0.0926
 6619SOL    HW226208   1.165   4.539   3.888 -0.2839 -1.0032  0.1254
 6619SOL    HW326209   1.075   4.636   3.961  0.6253  0.0583 -0.1327
 6619SOL    MW426210   1.086   4.568   3.908 -0.2095  0.1385 -1.1210
 6620SOL     OW26211   0.634   6.141   2.273  0.2223 -0.0967 -0.0377
 6620SOL    HW226212   0.619   6.227   2.235 -0.8243  0.4858  1.6066
 6620SOL    HW326213   0.672   6.090   2.201 -1.6898  0.9038 -1.8852
 6620SOL    MW426214   0.637   6.146   2.258  0.2347 -0.4291 -0.5637
 6621SOL     OW26215   2.374   0.365   6.389 -0.4867  0.0475  0.3564
 6621SOL    HW226216   2.364   0.315   6.307 -3.7539  0.3848  0.4445
 6621SOL    HW326217   2.320   0.318   6.452  3.2218 -1.1643  2.9694
 6621SOL    MW426218   2.366   0.352   6.386 -0.5172  0.0616  0.2672
 6622SOL     OW26219   2.364   2.015   2.257 -0.0131  0.0509 -0.1178
 6622SOL    HW226220   2.358   1.920   2.249 -0.2783  0.1075 -0.6380
 6622SOL    HW326221   2.289   2.038   2.312 -0.2405  0.0016 -0.3992
 6622SOL    MW426222   2.353   2.005   2.263 -0.2086  0.2294  0.3960
 6623SOL     OW26223   5.072   4.873   5.486  0.2824  0.0767 -0.0551
 6623SOL    HW226224   4.991   4.827   5.509  0.3314 -0.4925 -0.9685
 6623SOL    HW326225   5.056   4.964   5.513 -1.2617  0.2927 -1.4965
 6623SOL    MW426226   5.059   4.879   5.492 -0.1755 -0.0692  0.4482
 6624SOL     OW26227   4.891   6.203   0.931  0.4075 -0.1850 -0.2126
 6624SOL    HW226228   4.814   6.235   0.978  0.0948  0.3963 -1.0969
 6624SOL    HW326229   4.855   6.153   0.857  0.8634 -3.0245  1.3391
 6624SOL    MW426230   4.876   6.201   0.927 -0.0815  0.5749 -0.1858
 6625SOL     OW26231   1.583   3.289   3.571 -0.1349  0.0648  0.4404
 6625SOL    HW226232   1.669   3.331   3.570  0.2079 -0.6300 -0.2473
 6625SOL    HW326233   1.599   3.203   3.609 -0.3502 -0.4200 -0.5447
 6625SOL    MW426234   1.596   3.283   3.576  0.1538 -0.6144  0.0430
 6626SOL     OW26235   3.644   3.156   4.633  0.0184 -0.4634  0.2543
 6626SOL    HW226236   3.649   3.108   4.716 -0.7647 -1.2421 -0.1270
 6626SOL    HW326237   3.592   3.099   4.576  0.4219  0.1268 -0.7299
 6626SOL    MW426238   3.638   3.142   4.637  0.5192  0.3202  0.2837
 6627SOL     OW26239   1.610   0.485   4.041  0.3021 -0.0415 -0.2986
 6627SOL    HW226240   1.621   0.445   3.955 -0.5986 -0.8997 -0.0325
 6627SOL    HW326241   1.694   0.527   4.059 -0.1071  1.8371 -2.4167
 6627SOL    MW426242   1.623   0.485   4.032 -0.2319 -0.0453 -0.4035
 6628SOL     OW26243   0.954   6.184   0.394 -0.6703 -0.1163 -0.4892
 6628SOL    HW226244   0.872   6.158   0.436  0.5605 -0.2434  2.0337
 6628SOL    HW326245   0.970   6.273   0.425 -0.5575  0.4848 -2.1672
 6628SOL    MW426246   0.945   6.192   0.404 -0.5633 -0.0174 -0.9931
 6629SOL     OW26247   3.310   0.815   1.777  0.0496  0.0405 -0.0340
 6629SOL    HW226248   3.216   0.799   1.775 -0.0706  0.7627 -1.1082
 6629SOL    HW326249   3.334   0.826   1.685  1.1669 -0.0170  0.2350
 6629SOL    MW426250   3.301   0.814   1.764 -0.3638 -0.3404  0.3946
 6630SOL     OW26251   3.755   6.138   5.321  0.0126  0.2489  0.6539
 6630SOL    HW226252   3.795   6.160   5.237  0.2685 -0.5253  0.5656
 6630SOL    HW326253   3.819   6.081   5.364 -0.4664 -0.0120  1.0299
 6630SOL    MW426254   3.769   6.134   5.316 -0.3551  0.2979  0.4767
 6631SOL     OW26255   3.290   0.756   6.271 -0.0987 -0.0590  0.1005
 6631SOL    HW226256   3.327   0.841   6.248  0.9394 -0.9608 -1.8021
 6631SOL    HW326257   3.361   0.708   6.313 -0.2315 -0.4805 -0.1398
 6631SOL    MW426258   3.304   0.761   6.274  0.6533 -0.1797 -0.1437
 6632SOL     OW26259   5.166   0.385   0.947  0.4799  0.3809 -0.5393
 6632SOL    HW226260   5.122   0.308   0.983  1.0561  0.0828 -0.4466
 6632SOL    HW326261   5.183   0.362   0.855  0.1891  0.6074 -0.6498
 6632SOL    MW426262   5.163   0.371   0.939 -0.0019 -0.4512 -0.4550
 6633SOL     OW26263   3.742   3.335   3.521  0.3825  0.1323  0.2090
 6633SOL    HW226264   3.725   3.240   3.517 -1.1396  0.4070 -2.8674
 6633SOL    HW326265   3.658   3.373   3.544  0.4880  0.8151 -0.4999
 6633SOL    MW426266   3.729   3.327   3.523 -0.0922 -0.1258 -0.1355
 6634SOL     OW26267   3.429   1.356   2.232 -0.2453 -0.1718 -0.1171
 6634SOL    HW226268   3.483   1.319   2.163  0.1968 -0.2785  0.2747
 6634SOL    HW326269   3.482   1.346   2.311  0.0753  1.6645 -0.0569
 6634SOL    MW426270   3.443   1.350   2.234  0.5495  0.6064 -0.6839
 6635SOL     OW26271   4.812   5.368   2.664  0.0245  0.0083  0.0265
 6635SOL    HW226272   4.739   5.361   2.603  1.9373 -0.3597 -2.4350
 6635SOL    HW326273   4.805   5.290   2.719  0.0659 -1.5635 -2.0497
 6635SOL    MW426274   4.802   5.357   2.663  0.4637 -0.0854 -0.0756
 6636SOL     OW26275   1.613   2.466   5.853  0.3771  0.0623 -0.3347
 6636SOL    HW226276   1.614   2.540   5.914 -0.6131  0.2243 -0.4954
 6636SOL    HW326277   1.524   2.466   5.817  0.3696 -1.1877 -0.3589
 6636SOL    MW426278   1.601   2.476   5.856  0.3569  0.0845  0.4072
 6637SOL     OW26279   3.456   1.612   4.285 -0.2592 -0.7353 -0.0889
 6637SOL    HW226280   3.517   1.644   4.219 -0.0601  0.2964  0.5600
 6637SOL    HW326281   3.435   1.523   4.258 -1.0363  0.0187 -2.1292
 6637SOL    MW426282   3.461   1.605   4.273 -0.4743  0.3443  0.1562
 6638SOL     OW26283   4.406   3.108   4.180  0.2828  0.1697  0.2923
 6638SOL    HW226284   4.416   3.040   4.247  0.5020  0.6673  0.7638
 6638SOL    HW326285   4.330   3.158   4.207 -0.2457 -0.2457 -0.3825
 6638SOL    MW426286   4.397   3.105   4.192 -0.1750  0.4444 -0.2059
 6639SOL     OW26287   5.444   4.273   4.456 -0.8276  0.1313 -0.1627
 6639SOL    HW226288   5.387   4.198   4.474  0.2681 -0.8343 -0.6326
 6639SOL    HW326289   5.453   4.316   4.541  2.2476 -2.9442  1.3478
 6639SOL    MW426290   5.438   4.269   4.470  0.5522  0.4317 -0.0348
 6640SOL     OW26291   4.457   3.527   0.594 -0.1241  0.2263  0.2485
 6640SOL    HW226292   4.361   3.526   0.589 -0.0934 -0.6279 -0.3567
 6640SOL    HW326293   4.478   3.448   0.645  0.1915  1.3739  1.9670
 6640SOL    MW426294   4.447   3.516   0.600  0.0389  0.2395 -0.0241
 6641SOL     OW26295   1.685   4.591   1.778  0.3335 -0.5199 -0.4172
 6641SOL    HW226296   1.691   4.618   1.686 -0.9411  1.1841 -0.0515
 6641SOL    HW326297   1.750   4.645   1.824  0.0485 -0.4058 -0.1424
 6641SOL    MW426298   1.694   4.602   1.772 -0.4557  0.0794 -0.0744
 6642SOL     OW26299   0.936   6.374   2.957 -0.5518  0.1812  0.6614
 6642SOL    HW226300   0.884   6.295   2.973 -1.2973  0.6373  0.4997
 6642SOL    HW326301   0.936   6.420   3.040  0.3274 -0.2339  0.9072
 6642SOL    MW426302   0.929   6.370   2.970  0.3828 -0.2763  0.7320
 6643SOL     OW26303   5.244   2.065   5.000  0.1375  0.1953  0.1943
 6643SOL    HW226304   5.179   2.059   4.930  0.8977 -0.8824 -0.4477
 6643SOL    HW326305   5.329   2.059   4.955  0.6735  0.9606  1.0723
 6643SOL    MW426306   5.247   2.063   4.985  0.4137 -0.6968 -0.2953
 6644SOL     OW26307   1.011   5.943   4.328  0.4166 -0.4310 -0.2830
 6644SOL    HW226308   1.105   5.941   4.347  0.2995 -0.5688  0.3179
 6644SOL    HW326309   0.986   5.851   4.321  0.3649 -0.3891 -0.6401
 6644SOL    MW426310   1.020   5.931   4.330  0.2944 -0.1773  0.1143
 6645SOL     OW26311   2.526   2.376   6.196 -0.0518  0.0937 -0.2145
 6645SOL    HW226312   2.470   2.344   6.267 -0.5914  0.7496 -0.3332
 6645SOL    HW326313   2.466   2.406   6.129  0.4483  0.2270 -0.6130
 6645SOL    MW426314   2.511   2.376   6.197  0.3930  0.2430 -0.3622
 6646SOL     OW26315   2.437   5.151   4.807  0.1760  0.0912 -0.2900
 6646SOL    HW226316   2.349   5.189   4.799 -0.0816 -0.4836 -0.2365
 6646SOL    HW326317   2.494   5.226   4.826 -0.3537  0.4202  0.0199
 6646SOL    MW426318   2.433   5.166   4.808 -0.7034 -0.8163  0.1104
 6647SOL     OW26319   2.838   3.158   1.350 -0.3450  0.0329 -0.2623
 6647SOL    HW226320   2.821   3.218   1.422 -1.2864  1.3345 -1.4924
 6647SOL    HW326321   2.912   3.104   1.379  0.0560  1.3045  1.1769
 6647SOL    MW426322   2.845   3.159   1.363  0.2003 -0.4119 -0.0708
 6648SOL     OW26323   5.406   3.316   0.286 -0.1831 -0.0804 -0.6087
 6648SOL    HW226324   5.395   3.255   0.359  0.6075  1.3604  0.7563
 6648SOL    HW326325   5.490   3.292   0.247 -0.3897 -0.5546 -0.7728
 6648SOL    MW426326   5.415   3.305   0.290  0.0177  0.4452 -0.3158
 6649SOL     OW26327   1.233   1.649   4.974 -0.3568 -0.0119  0.4957
 6649SOL    HW226328   1.179   1.573   4.996  0.3930 -0.9920 -0.8447
 6649SOL    HW326329   1.306   1.612   4.924 -0.6856  1.7306 -1.4120
 6649SOL    MW426330   1.236   1.634   4.970  0.0106  0.6517 -0.0189
 6650SOL     OW26331   4.815   5.159   2.869 -0.0460  0.3025  0.1428
 6650SOL    HW226332   4.804   5.209   2.949 -3.8204  1.7535 -1.0682
 6650SOL    HW326333   4.728   5.158   2.829  1.5932 -0.4166 -3.9015
 6650SOL    MW426334   4.803   5.165   2.874 -0.0759  0.0668 -0.2525
 6651SOL     OW26335   0.534   4.039   1.731 -0.0681  0.1665 -0.2951
 6651SOL    HW226336   0.518   4.043   1.637 -0.4245 -0.4351 -0.2650
 6651SOL    HW326337   0.549   4.130   1.757  0.0182  0.3357 -0.9280
 6651SOL    MW426338   0.534   4.052   1.722  0.4194 -0.4379  0.0105
 6652SOL     OW26339   1.338   4.759   3.708 -0.3522  0.5206  0.4466
 6652SOL    HW226340   1.273   4.717   3.652 -0.2042  1.8851 -0.8240
 6652SOL    HW326341   1.325   4.719   3.794  0.5594 -2.8932 -0.8634
 6652SOL    MW426342   1.328   4.748   3.712 -0.1996 -0.7330  0.1386
 6653SOL     OW26343   0.763   5.440   1.348 -0.4286 -0.4121  0.2214
 6653SOL    HW226344   0.738   5.399   1.431 -0.1854 -0.8221  0.0942
 6653SOL    HW326345   0.680   5.470   1.311 -0.7468 -1.6790 -0.1485
 6653SOL    MW426346   0.749   5.438   1.354  0.0165  0.4041 -0.1724
 6654SOL     OW26347   5.572   1.039   2.373 -0.4711 -0.3529  0.0748
 6654SOL    HW226348   5.543   1.130   2.375  0.2920 -0.0948 -0.0484
 6654SOL    HW326349   5.560   1.008   2.462  2.7478  1.0372  1.1463
 6654SOL    MW426350   5.567   1.047   2.385  0.0734  0.0317 -0.7654
 6655SOL     OW26351   0.903   5.102   3.878 -0.2133 -0.4775  0.3809
 6655SOL    HW226352   0.908   5.197   3.869  0.8452 -0.3668  1.7801
 6655SOL    HW326353   0.862   5.089   3.964  3.5277 -1.1439  2.2789
 6655SOL    MW426354   0.898   5.113   3.889 -0.7357  0.7660  0.1962
 6656SOL     OW26355   0.574   5.482   2.371  0.4948  1.0006  0.0473
 6656SOL    HW226356   0.542   5.433   2.295  0.7349  0.9737 -0.0352
 6656SOL    HW326357   0.639   5.425   2.411  2.0919  1.9699 -1.0591
 6656SOL    MW426358   0.578   5.468   2.367 -0.3303  0.1051  0.2101
 6657SOL     OW26359   1.047   5.079   1.850 -0.3924 -0.7509  0.2854
 6657SOL    HW226360   0.957   5.044   1.846 -0.1071 -1.4548 -2.4248
 6657SOL    HW326361   1.041   5.166   1.812 -0.3473  0.5038  2.9335
 6657SOL    MW426362   1.034   5.086   1.844  0.3300 -0.3089  0.5851
 6658SOL     OW26363   3.189   0.107   5.545  0.0086  0.4191  0.0111
 6658SOL    HW226364   3.280   0.138   5.551 -0.5744  2.1262  0.4683
 6658SOL    HW326365   3.163   0.095   5.636 -0.2536 -0.0215 -0.1210
 6658SOL    MW426366   3.198   0.109   5.558  0.2373 -0.1250  0.0657
 6659SOL     OW26367   4.185   3.789   2.330  0.5022  0.1812  0.3878
 6659SOL    HW226368   4.095   3.784   2.299  0.6376  1.0854 -0.1748
 6659SOL    HW326369   4.204   3.700   2.362  0.5340 -0.9953 -2.5851
 6659SOL    MW426370   4.175   3.776   2.330 -0.2814 -0.7207 -0.1285
 6660SOL     OW26371   5.900   3.608   2.960 -0.2315  0.0178 -0.2935
 6660SOL    HW226372   5.925   3.543   3.025  0.0666  2.3329  2.0860
 6660SOL    HW326373   5.808   3.625   2.977 -0.4060 -0.0331 -1.1463
 6660SOL    MW426374   5.891   3.602   2.971 -0.0464  0.1769 -0.0158
 6661SOL     OW26375   0.611   2.824   5.845  0.1347 -0.8287 -0.1738
 6661SOL    HW226376   0.588   2.772   5.922  0.5137  0.4935  0.8547
 6661SOL    HW326377   0.614   2.914   5.876  1.6405 -0.4066 -1.4217
 6661SOL    MW426378   0.608   2.829   5.859  0.1156  0.1950  0.6795
 6662SOL     OW26379   1.725   0.612   3.099 -0.3064 -0.2130 -0.4507
 6662SOL    HW226380   1.738   0.518   3.090 -0.4807 -0.2736 -0.1028
 6662SOL    HW326381   1.631   0.622   3.117 -0.2603  0.0147 -0.3326
 6662SOL    MW426382   1.714   0.601   3.100 -0.2732  0.7054  0.1933
 6663SOL     OW26383   5.380   2.170   3.549  0.3435 -0.1387  0.2208
 6663SOL    HW226384   5.341   2.196   3.632  1.1261 -0.1824  0.6176
 6663SOL    HW326385   5.308   2.131   3.499  0.3063 -2.2802  1.7954
 6663SOL    MW426386   5.366   2.168   3.554 -0.1045  0.5221  0.0557
 6664SOL     OW26387   0.753   1.585   1.645 -0.0270 -0.3497  0.4112
 6664SOL    HW226388   0.814   1.589   1.719 -0.1327  0.5734  0.4557
 6664SOL    HW326389   0.689   1.518   1.671 -0.4053  0.3747  1.4239
 6664SOL    MW426390   0.753   1.577   1.658  0.7048 -0.1511 -0.0812
 6665SOL     OW26391   3.436   5.304   3.552 -0.1920  0.5449  0.2363
 6665SOL    HW226392   3.369   5.372   3.553 -0.4112  0.3362  1.1037
 6665SOL    HW326393   3.461   5.295   3.460 -2.2063 -0.1991 -0.2889
 6665SOL    MW426394   3.431   5.312   3.540 -0.6103 -0.7638  0.2553
 6666SOL     OW26395   1.227   0.166   4.972 -0.0950  0.4059 -1.0326
 6666SOL    HW226396   1.228   0.152   4.877  1.7871 -1.2339 -0.8404
 6666SOL    HW326397   1.195   0.084   5.008 -0.0508  0.7350 -0.2173
 6666SOL    MW426398   1.223   0.154   4.964  0.2721 -0.2233 -0.0813
 6667SOL     OW26399   2.342   0.466   1.221  0.3009  0.0779 -0.1404
 6667SOL    HW226400   2.295   0.400   1.170  2.2677 -0.1615 -1.7634
 6667SOL    HW326401   2.433   0.457   1.194  1.1159  1.4170  1.8962
 6667SOL    MW426402   2.348   0.456   1.211 -0.1427 -0.3226  0.2203
 6668SOL     OW26403   6.214   3.253   0.398 -0.1870 -0.0062  0.1546
 6668SOL    HW226404   6.154   3.223   0.465  0.0404  0.4912  0.5847
 6668SOL    HW326405   6.170   3.328   0.357  0.2136  0.4875  0.6073
 6668SOL    MW426406   6.201   3.259   0.401 -0.5014  0.2915 -0.3613
 6669SOL     OW26407   0.297   0.189   4.639  0.2359 -0.3706  0.4791
 6669SOL    HW226408   0.256   0.265   4.598  0.0236 -0.5976  0.2600
 6669SOL    HW326409   0.388   0.214   4.653 -0.0033  0.1970  1.0963
 6669SOL    MW426410   0.303   0.202   4.635 -0.8621  0.3582  0.4013
 6670SOL     OW26411   0.089   1.677   3.702 -0.0721  0.2276  0.0720
 6670SOL    HW226412   0.106   1.714   3.615  1.3487 -0.9237 -0.1763
 6670SOL    HW326413   0.142   1.730   3.761 -1.4665  1.3700  0.3595
 6670SOL    MW426414   0.098   1.689   3.698 -0.6278  0.1181  0.1103
 6671SOL     OW26415   6.264   2.143   5.268  0.2993 -0.1364 -0.1654
 6671SOL    HW226416   6.325   2.071   5.289 -0.2537 -0.4991  0.2145
 6671SOL    HW326417   6.320   2.220   5.263  0.5335 -0.0780  2.3082
 6671SOL    MW426418   6.280   2.143   5.270 -0.2600  0.1169  0.1635
 6672SOL     OW26419   4.562   3.065   1.781 -0.0163 -0.5172 -0.1766
 6672SOL    HW226420   4.587   3.154   1.757 -1.5009  0.2369  0.9070
 6672SOL    HW326421   4.605   3.049   1.865  0.8421 -1.1162 -0.7191
 6672SOL    MW426422   4.571   3.075   1.789  0.3241 -0.3552 -0.1434
 6673SOL     OW26423   5.746   0.644   3.956 -0.2936 -0.2040 -0.4122
 6673SOL    HW226424   5.732   0.739   3.958 -1.0701 -0.3201  0.1578
 6673SOL    HW326425   5.659   0.607   3.937 -0.0580 -0.8149 -0.3367
 6673SOL    MW426426   5.732   0.652   3.953  0.1111  1.3904 -0.0476
 6674SOL     OW26427   0.261   3.693   3.403 -0.4810  0.1279  0.0442
 6674SOL    HW226428   0.180   3.643   3.391 -1.0306  1.4474 -2.6026
 6674SOL    HW326429   0.324   3.651   3.345  0.3617 -0.0910  1.1039
 6674SOL    MW426430   0.258   3.681   3.393 -0.0110  0.0933 -0.0434
 6675SOL     OW26431   1.429   4.212   0.708  0.2208  0.0405 -0.2183
 6675SOL    HW226432   1.353   4.261   0.677  1.2123  1.6124 -0.3204
 6675SOL    HW326433   1.414   4.123   0.678 -1.1993  0.4752 -0.9109
 6675SOL    MW426434   1.417   4.207   0.700  0.2479  0.1966  0.2931
 6676SOL     OW26435   2.705   2.900   6.205 -0.0369  0.0711  0.1002
 6676SOL    HW226436   2.792   2.939   6.198  0.6144 -1.4937 -1.2383
 6676SOL    HW326437   2.647   2.961   6.159  0.4560  0.8150  0.4532
 6676SOL    MW426438   2.709   2.913   6.198 -0.1248 -0.3916  0.0477
 6677SOL     OW26439   0.030   3.882   1.239  0.1535 -0.6355 -0.2217
 6677SOL    HW226440   0.044   3.861   1.147  1.5404 -0.8245  0.0069
 6677SOL    HW326441   0.117   3.873   1.279 -0.5007 -0.9690  1.1844
 6677SOL    MW426442   0.043   3.878   1.232 -0.4100 -0.8265 -0.3619
 6678SOL     OW26443   4.531   3.927   5.237  0.0358 -0.1170 -0.1024
 6678SOL    HW226444   4.533   3.990   5.165  0.1964 -1.2111 -1.0718
 6678SOL    HW326445   4.526   3.842   5.195  0.0372 -0.7807  1.1893
 6678SOL    MW426446   4.531   3.924   5.222  0.5045 -0.1575  0.4484
 6679SOL     OW26447   2.281   1.371   0.041  0.2400 -0.1560 -0.4074
 6679SOL    HW226448   2.236   1.453   0.022 -0.3079 -0.0547  1.2005
 6679SOL    HW326449   2.254   1.312  -0.029 -0.7127  0.5365 -0.6428
 6679SOL    MW426450   2.272   1.374   0.029  0.0604 -0.0604 -0.2980
 6680SOL     OW26451   6.384   1.334   1.202  0.3018  0.4608 -0.1441
 6680SOL    HW226452   6.371   1.285   1.120  3.0251 -0.2736 -0.2222
 6680SOL    HW326453   6.451   1.284   1.249  0.1527  1.9043  1.6965
 6680SOL    MW426454   6.391   1.321   1.198  0.2502  0.0249 -0.2412
 6681SOL     OW26455   2.245   3.302   1.265  0.0246 -0.5492 -0.0598
 6681SOL    HW226456   2.307   3.235   1.238  2.0322  2.1691 -2.9603
 6681SOL    HW326457   2.299   3.373   1.298 -2.0317 -0.3714  3.4710
 6681SOL    MW426458   2.260   3.303   1.266  0.2494  0.1057 -0.4820
 6682SOL     OW26459   0.521   3.775   5.292  0.0825 -0.5012 -0.0805
 6682SOL    HW226460   0.566   3.691   5.296 -1.8476 -1.6140 -0.4476
 6682SOL    HW326461   0.451   3.762   5.227 -0.8913  1.0628  0.5960
 6682SOL    MW426462   0.517   3.762   5.284 -0.2798 -0.0953 -0.6077
 6683SOL     OW26463   5.154   5.425   3.619  0.6021 -0.5545  0.3621
 6683SOL    HW226464   5.083   5.370   3.584  0.2100 -1.3125  2.2470
 6683SOL    HW326465   5.110   5.500   3.658  0.9719 -0.1296 -0.0268
 6683SOL    MW426466   5.139   5.428   3.619 -0.2150  0.4197 -0.1436
 6684SOL     OW26467   4.806   0.816   2.326  0.0533  0.3931 -0.3361
 6684SOL    HW226468   4.826   0.902   2.364  0.8135  0.7146 -1.4288
 6684SOL    HW326469   4.742   0.834   2.258  0.7200  0.2011 -1.0280
 6684SOL    MW426470   4.800   0.829   2.322  0.0188  0.0544  0.1983
 6685SOL     OW26471   0.433   5.636   0.615  0.1811  0.2230  0.5010
 6685SOL    HW226472   0.381   5.601   0.688  1.3991  0.4730  1.5087
 6685SOL    HW326473   0.432   5.730   0.629  0.6563  0.2492  0.3681
 6685SOL    MW426474   0.426   5.643   0.627 -0.1549 -0.4176  0.0000
 6686SOL     OW26475   2.668   5.652   0.828 -0.4779  0.0717 -0.0791
 6686SOL    HW226476   2.591   5.602   0.803 -1.3038  0.8521  0.8214
 6686SOL    HW326477   2.637   5.712   0.896  0.6692  1.2037 -0.5136
 6686SOL    MW426478   2.654   5.653   0.834 -0.3167  0.4389 -0.2603
 6687SOL     OW26479   3.090   0.881   3.979 -0.1859 -0.4368  0.5553
 6687SOL    HW226480   3.174   0.835   3.981 -0.0689 -0.2217  1.6216
 6687SOL    HW326481   3.102   0.949   3.913  0.2658 -0.7958  0.2593
 6687SOL    MW426482   3.103   0.884   3.971  0.5377 -0.0915 -0.6780
 6688SOL     OW26483   4.150   2.903   5.324 -0.1306 -0.0463  0.2552
 6688SOL    HW226484   4.186   2.937   5.242 -0.7221  1.8331  0.7186
 6688SOL    HW326485   4.057   2.887   5.304  0.1122 -1.3699  0.0774
 6688SOL    MW426486   4.142   2.905   5.310  0.9864  0.2948 -0.2262
 6689SOL     OW26487   3.468   4.766   4.549 -0.1625  0.2646  0.3437
 6689SOL    HW226488   3.372   4.767   4.548 -0.1706  1.4924 -0.0454
 6689SOL    HW326489   3.491   4.718   4.629 -1.0970  0.0358  0.4909
 6689SOL    MW426490   3.459   4.760   4.559 -0.2102 -0.0626  0.0904
 6690SOL     OW26491   5.529   1.221   3.470 -0.2461  0.4920 -0.3465
 6690SOL    HW226492   5.470   1.283   3.513  0.1544  0.9559 -0.4589
 6690SOL    HW326493   5.488   1.203   3.386 -0.5669  0.2910 -0.1497
 6690SOL    MW426494   5.516   1.227   3.465 -0.2673  0.0797 -0.4766
 6691SOL     OW26495   4.168   2.371   1.698  0.7310 -0.0139 -0.4061
 6691SOL    HW226496   4.242   2.378   1.757 -0.4913 -1.8053  1.5021
 6691SOL    HW326497   4.197   2.311   1.629  1.4621  0.3722 -0.4416
 6691SOL    MW426498   4.181   2.364   1.696  0.0116  0.4967 -0.6313
 6692SOL     OW26499   0.842   2.697   0.937  0.1443 -0.2653 -0.2139
 6692SOL    HW226500   0.747   2.703   0.947 -0.1031 -0.7494 -1.9536
 6692SOL    HW326501   0.861   2.603   0.940  0.3577 -0.2761 -1.2403
 6692SOL    MW426502   0.832   2.685   0.938 -0.0109 -0.4940  0.1215
 6693SOL     OW26503   2.314   2.460   3.229  0.1280 -0.2176  0.1073
 6693SOL    HW226504   2.341   2.505   3.310 -0.1012  0.7301 -0.3330
 6693SOL    HW326505   2.357   2.508   3.159 -0.0958 -0.7149 -0.3823
 6693SOL    MW426506   2.323   2.472   3.231  0.0097 -0.1103  0.5787
 6694SOL     OW26507   0.528   3.408   1.569  0.2152 -0.0442  0.5803
 6694SOL    HW226508   0.538   3.499   1.597 -1.2575  0.7138 -1.1643
 6694SOL    HW326509   0.436   3.400   1.545 -0.1483 -2.5459  2.3950
 6694SOL    MW426510   0.517   3.419   1.569 -0.0655 -0.1640 -0.4007
 6695SOL     OW26511   0.835   0.263   0.390  0.2110 -0.3776  0.2058
 6695SOL    HW226512   0.917   0.312   0.390 -0.2622  0.4585  1.1427
 6695SOL    HW326513   0.858   0.176   0.357  1.0670  0.4708 -1.5187
 6695SOL    MW426514   0.849   0.258   0.386 -0.4221 -0.4294  0.5832
 6696SOL     OW26515   4.830   3.239   4.778  0.0710 -0.3928  0.2135
 6696SOL    HW226516   4.920   3.268   4.794  0.3696 -1.4692  0.6012
 6696SOL    HW326517   4.809   3.183   4.853 -0.9133 -0.1807  0.1105
 6696SOL    MW426518   4.839   3.235   4.790  0.4663 -0.2264 -0.2553
 6697SOL     OW26519   2.315   6.329   6.197  0.1764 -0.2819 -0.8479
 6697SOL    HW226520   2.242   6.389   6.208  1.7679  1.7503 -0.7857
 6697SOL    HW326521   2.280   6.243   6.219 -1.8692  0.7921  0.2908
 6697SOL    MW426522   2.301   6.325   6.201  0.6138  0.3156  0.0221
 6698SOL     OW26523   5.621   1.632   2.352  0.5427  0.3960 -0.4015
 6698SOL    HW226524   5.582   1.698   2.295  0.8154  0.5360 -0.4278
 6698SOL    HW326525   5.710   1.664   2.369  0.2782  0.6523  0.5818
 6698SOL    MW426526   5.628   1.645   2.347 -0.1262 -0.0049  0.3017
 6699SOL     OW26527   0.242   2.740   5.498  0.1143 -0.1038 -0.6688
 6699SOL    HW226528   0.160   2.756   5.544  1.0123  0.1283  0.9429
 6699SOL    HW326529   0.227   2.659   5.449 -1.1402  0.0688 -0.5910
 6699SOL    MW426530   0.229   2.731   5.497  0.6031  0.0101  0.0984
 6700SOL     OW26531   3.056   0.400   6.151 -0.0787  0.2112  0.6531
 6700SOL    HW226532   2.963   0.389   6.132  0.0585 -0.4237  0.3179
 6700SOL    HW326533   3.072   0.343   6.226  0.2435 -0.4524  0.0887
 6700SOL    MW426534   3.046   0.391   6.158 -0.1285  0.1196 -0.3543
 6701SOL     OW26535   1.397   2.178   5.384  0.3697  0.3524 -0.2891
 6701SOL    HW226536   1.363   2.209   5.299  0.4354 -0.2901 -0.5579
 6701SOL    HW326537   1.351   2.231   5.449 -0.2538  0.3323 -0.7014
 6701SOL    MW426538   1.386   2.189   5.381  0.2945  0.3784  0.3158
 6702SOL     OW26539   6.200   5.071   3.447 -0.3107  0.1882 -0.0192
 6702SOL    HW226540   6.282   5.099   3.406 -0.8827 -0.7791 -1.9465
 6702SOL    HW326541   6.133   5.126   3.406 -0.7758  0.0321  0.5305
 6702SOL    MW426542   6.202   5.082   3.436  0.1325 -0.0456 -0.3788
 6703SOL     OW26543   3.476   4.485   5.593 -0.4131 -0.3008 -0.6698
 6703SOL    HW226544   3.442   4.439   5.516 -0.6460  0.4938 -1.0504
 6703SOL    HW326545   3.401   4.493   5.651 -0.4645 -0.0869 -0.7628
 6703SOL    MW426546   3.462   4.480   5.590 -0.8204  0.2132 -0.8637
 6704SOL     OW26547   0.441   6.213   6.373 -0.0833  0.3579  0.1505
 6704SOL    HW226548   0.520   6.188   6.421  0.4888  0.3445 -0.7724
 6704SOL    HW326549   0.408   6.131   6.337 -0.2306  0.4319  0.1174
 6704SOL    MW426550   0.447   6.199   6.374 -0.5878 -0.6705 -0.2843
 6705SOL     OW26551   2.802   4.663   2.994 -0.0548  0.0637  0.0506
 6705SOL    HW226552   2.806   4.726   3.066 -0.2573 -0.1245  0.2270
 6705SOL    HW326553   2.752   4.708   2.925  0.6163  0.4601 -0.1935
 6705SOL    MW426554   2.796   4.677   2.994 -0.2222  0.0821  0.4985
 6706SOL     OW26555   2.146   6.146   0.266 -0.2747 -0.2090 -0.3949
 6706SOL    HW226556   2.107   6.233   0.271 -0.2799 -0.2242 -0.1547
 6706SOL    HW326557   2.232   6.160   0.228 -0.8447 -0.2841 -1.7588
 6706SOL    MW426558   2.152   6.159   0.262  0.3190  0.3439 -0.1255
 6707SOL     OW26559   4.475   5.517   2.860  0.1446  0.7304 -0.0417
 6707SOL    HW226560   4.549   5.578   2.863  0.2567  0.6115 -0.3185
 6707SOL    HW326561   4.472   5.478   2.947  0.4006  0.7435 -0.0259
 6707SOL    MW426562   4.484   5.520   2.872  0.4883 -0.2000  0.5839
 6708SOL     OW26563   2.488   0.865   3.408  0.3004  0.0806 -0.3842
 6708SOL    HW226564   2.403   0.832   3.437  0.4470 -0.4706 -0.5775
 6708SOL    HW326565   2.469   0.951   3.370  0.1063  0.8852  1.4132
 6708SOL    MW426566   2.475   0.872   3.407  0.1819 -0.3891  0.5710
 6709SOL     OW26567   2.355   3.734   3.631  0.5431 -0.4808 -0.0133
 6709SOL    HW226568   2.357   3.744   3.536 -0.9043  0.1508 -0.0008
 6709SOL    HW326569   2.379   3.820   3.665  0.8217 -0.6397  0.1923
 6709SOL    MW426570   2.358   3.747   3.623  0.1479  0.0808 -0.2512
 6710SOL     OW26571   6.407   3.010   1.469 -0.3832  0.0546 -0.4536
 6710SOL    HW226572   6.325   3.035   1.513 -0.3175 -0.8183  0.1910
 6710SOL    HW326573   6.398   2.915   1.455  1.4683 -0.5172  1.7269
 6710SOL    MW426574   6.395   3.000   1.473  0.4344 -0.0598 -0.0285
 6711SOL     OW26575   5.642   4.330   1.587  0.3878 -0.6921  0.5484
 6711SOL    HW226576   5.707   4.395   1.615 -0.3384  0.1389  0.3668
 6711SOL    HW326577   5.559   4.365   1.620 -0.1398 -1.0254 -0.3997
 6711SOL    MW426578   5.640   4.343   1.595 -0.0969  0.7501  0.5559
 6712SOL     OW26579   4.295   6.129   2.592  0.1257  0.0035  0.3425
 6712SOL    HW226580   4.218   6.168   2.552 -0.0968 -1.6624 -0.9286
 6712SOL    HW326581   4.267   6.041   2.619  1.1308 -0.0327  1.3702
 6712SOL    MW426582   4.281   6.122   2.591 -0.2303 -0.1452 -0.0120
 6713SOL     OW26583   6.002   5.475   2.279 -0.0751  0.0757 -0.6216
 6713SOL    HW226584   5.921   5.426   2.263  0.4426 -0.7742 -0.6707
 6713SOL    HW326585   5.984   5.524   2.359 -0.6175 -0.1463 -0.5995
 6713SOL    MW426586   5.989   5.475   2.287 -0.6835  0.2887  0.3603
 6714SOL     OW26587   1.213   3.091   1.670 -0.3243 -0.5834  0.0965
 6714SOL    HW226588   1.123   3.090   1.703 -0.2581  0.2145  0.3221
 6714SOL    HW326589   1.264   3.130   1.741  0.0567 -0.2255 -0.3662
 6714SOL    MW426590   1.208   3.096   1.684  0.1878  0.3521 -0.4270
 6715SOL     OW26591   0.090   4.383   3.167 -0.1471  0.0246 -0.2110
 6715SOL    HW226592   0.102   4.460   3.112 -1.1340  0.1536 -0.2725
 6715SOL    HW326593   0.178   4.360   3.197  0.1067  1.4949  0.2460
 6715SOL    MW426594   0.103   4.390   3.164  0.6427 -0.0907  0.5432
 6716SOL     OW26595   3.556   4.392   0.271 -0.2030  0.4570  0.1397
 6716SOL    HW226596   3.515   4.344   0.199 -0.0363  1.3044 -0.5430
 6716SOL    HW326597   3.575   4.325   0.336  1.4751 -0.6926 -1.4229
 6716SOL    MW426598   3.553   4.377   0.270  0.6170  0.1529  0.2285
 6717SOL     OW26599   5.883   1.714   2.349 -0.1262  0.1899 -0.1966
 6717SOL    HW226600   5.882   1.743   2.440 -3.7193  0.1851 -0.0769
 6717SOL    HW326601   5.897   1.794   2.298  3.5610 -0.0299  0.2654
 6717SOL    MW426602   5.884   1.729   2.354  0.2549 -0.6896 -0.3549
 6718SOL     OW26603   1.980   4.811   0.078 -0.0952 -0.1214 -0.2248
 6718SOL    HW226604   1.922   4.805   0.003 -1.0129 -1.1219  0.5190
 6718SOL    HW326605   1.965   4.898   0.115 -3.8146 -1.4386  1.9536
 6718SOL    MW426606   1.971   4.821   0.073 -0.1638 -0.2616 -0.3757
 6719SOL     OW26607   3.739   0.075   2.628  0.2514 -0.0128 -0.2886
 6719SOL    HW226608   3.759   0.129   2.552 -2.1654  0.8268 -0.3943
 6719SOL    HW326609   3.645   0.061   2.624  0.0663 -0.1005  2.4463
 6719SOL    MW426610   3.730   0.080   2.618  0.5497  0.1556  0.2693
 6720SOL     OW26611   5.797   2.818   5.617  0.3978  0.3819 -0.3757
 6720SOL    HW226612   5.707   2.799   5.591  1.0096 -0.8848 -1.7106
 6720SOL    HW326613   5.794   2.823   5.712 -0.9235 -0.5880 -0.3336
 6720SOL    MW426614   5.785   2.816   5.626 -0.0554  0.0069 -0.5561
 6721SOL     OW26615   2.864   0.709   1.299 -0.2728 -0.0596  0.3602
 6721SOL    HW226616   2.861   0.678   1.209 -1.1576  2.3153 -0.4981
 6721SOL    HW326617   2.817   0.641   1.349 -1.5404 -0.4526 -1.2828
 6721SOL    MW426618   2.857   0.696   1.294  0.1562 -0.0713 -0.4267
 6722SOL     OW26619   3.059   1.769   2.040  0.4393 -0.2847  0.2331
 6722SOL    HW226620   2.966   1.749   2.053  0.2282  0.9469  0.7909
 6722SOL    HW326621   3.067   1.781   1.945  0.0249 -0.3981  0.1806
 6722SOL    MW426622   3.048   1.768   2.029  0.7090  0.2219  0.5374
 6723SOL     OW26623   6.083   2.143   0.492 -0.1852  0.1373  0.4737
 6723SOL    HW226624   6.174   2.171   0.482  0.2012 -1.1081  0.3309
 6723SOL    HW326625   6.082   2.053   0.458 -1.1413 -0.4090  1.8585
 6723SOL    MW426626   6.095   2.135   0.486  0.1930 -0.1740 -0.1941
 6724SOL     OW26627   4.684   2.226   5.392  0.2675 -0.0652  0.5332
 6724SOL    HW226628   4.763   2.212   5.445 -0.0061 -0.7244  0.7840
 6724SOL    HW326629   4.627   2.153   5.415 -0.6069  0.6473  0.6980
 6724SOL    MW426630   4.687   2.215   5.402  0.2981  0.4533 -0.3960
 6725SOL     OW26631   2.291   4.308   3.123  0.4408  0.0212  0.5333
 6725SOL    HW226632   2.306   4.214   3.114 -3.4208 -0.6919 -0.1953
 6725SOL    HW326633   2.285   4.340   3.032  2.8922  1.2955  0.7490
 6725SOL    MW426634   2.292   4.300   3.109  0.5254 -0.0359 -0.0721
 6726SOL     OW26635   3.090   2.181   1.176  0.3269  0.2823  0.0345
 6726SOL    HW226636   3.128   2.267   1.193  1.2032 -0.0907  0.0152
 6726SOL    HW326637   3.029   2.167   1.249  2.7363 -0.5358  2.0463
 6726SOL    MW426638   3.087   2.190   1.188  0.3627 -0.8729  0.2007
 6727SOL     OW26639   4.723   2.310   2.262 -0.1480  0.3675 -0.3195
 6727SOL    HW226640   4.790   2.360   2.309 -0.9133  1.0810  0.0395
 6727SOL    HW326641   4.649   2.370   2.254 -0.3628 -0.0505 -1.6560
 6727SOL    MW426642   4.722   2.324   2.267 -0.5894  0.0187  0.0896
 6728SOL     OW26643   4.007   4.617   5.142 -0.0154 -0.7189  0.2352
 6728SOL    HW226644   4.080   4.677   5.123  0.6639 -1.5326  0.2133
 6728SOL    HW326645   3.952   4.622   5.064 -0.8138  1.0368  0.8507
 6728SOL    MW426646   4.009   4.626   5.129 -0.1974  0.6532 -0.0490
 6729SOL     OW26647   2.429   6.149   0.169  0.0140  0.1325  0.0828
 6729SOL    HW226648   2.497   6.152   0.237 -0.1584  0.0447  0.2603
 6729SOL    HW326649   2.450   6.222   0.111  0.8889 -0.5311 -0.4646
 6729SOL    MW426650   2.441   6.159   0.170  0.2466  0.0308 -0.4467
 6730SOL     OW26651   3.168   1.392   3.001  0.6119  0.4702 -0.3408
 6730SOL    HW226652   3.132   1.386   2.912  1.7011  1.4819 -0.8886
 6730SOL    HW326653   3.114   1.458   3.044  0.0981 -0.0022 -0.2481
 6730SOL    MW426654   3.156   1.400   2.995 -0.1933  0.8750 -0.1803
 6731SOL     OW26655   2.746   2.974   2.713  0.0196  0.3818  0.6187
 6731SOL    HW226656   2.748   3.015   2.799  1.2493 -0.1719  0.8771
 6731SOL    HW326657   2.816   3.017   2.664  1.6651 -1.5895  1.0470
 6731SOL    MW426658   2.756   2.985   2.718 -0.1040 -0.0831 -0.0563
 6732SOL     OW26659   5.033   2.042   0.446 -0.0450  0.0446 -0.2158
 6732SOL    HW226660   5.113   2.045   0.394  0.3089 -1.1607  0.2063
 6732SOL    HW326661   4.962   2.034   0.382  0.1902  0.8219 -0.5817
 6732SOL    MW426662   5.034   2.041   0.431  0.3674  0.1243 -0.4517
 6733SOL     OW26663   4.209   2.905   3.188  0.7086 -0.6415  0.1247
 6733SOL    HW226664   4.293   2.876   3.152 -0.0976 -3.0887  0.0346
 6733SOL    HW326665   4.230   2.986   3.235  2.9676 -0.7871 -0.5098
 6733SOL    MW426666   4.223   2.912   3.190 -0.2661  0.1463 -0.0521
 6734SOL     OW26667   3.106   0.773   2.838 -0.0761  0.0239  0.2927
 6734SOL    HW226668   3.174   0.837   2.816  0.9036 -1.3622 -1.0264
 6734SOL    HW326669   3.147   0.718   2.905 -0.6493  0.3693  0.9258
 6734SOL    MW426670   3.121   0.774   2.844 -0.1994  0.6923 -0.2672
 6735SOL     OW26671   2.358   4.588   1.234  0.3911  0.1279  0.1647
 6735SOL    HW226672   2.323   4.538   1.160  0.6670 -1.5935  1.1335
 6735SOL    HW326673   2.405   4.523   1.287  2.5845  1.8048  0.4389
 6735SOL    MW426674   2.360   4.573   1.231  0.2132  0.3744  0.4115
 6736SOL     OW26675   3.938   6.192   0.164  0.1722 -0.8275  0.7235
 6736SOL    HW226676   3.922   6.235   0.080  1.1580 -2.8670 -0.5823
 6736SOL    HW326677   3.855   6.201   0.211 -0.6164 -0.1643 -0.7049
 6736SOL    MW426678   3.925   6.199   0.159 -0.3227 -0.3877  1.0233
 6737SOL     OW26679   4.178   4.700   3.560 -0.6643 -0.1608  0.1547
 6737SOL    HW226680   4.229   4.681   3.481  1.8228  0.1546  1.5878
 6737SOL    HW326681   4.141   4.787   3.544  1.2432  0.6695 -0.0244
 6737SOL    MW426682   4.180   4.709   3.547  0.4523  0.1534 -0.3932
 6738SOL     OW26683   1.124   4.639   6.057  0.0886 -0.5644 -0.3062
 6738SOL    HW226684   1.195   4.579   6.078  1.0669 -0.1947 -2.3248
 6738SOL    HW326685   1.049   4.605   6.105  1.8979 -0.0860  3.1597
 6738SOL    MW426686   1.123   4.627   6.066  0.2062  0.1313 -0.0593
 6739SOL     OW26687   2.010   0.530   5.904 -0.5768  0.2454 -0.2436
 6739SOL    HW226688   1.982   0.615   5.938  2.5104  1.2353  0.1686
 6739SOL    HW326689   2.021   0.545   5.810 -0.6431  0.1331 -0.2680
 6739SOL    MW426690   2.008   0.543   5.896  0.4867 -0.4127 -0.7938
 6740SOL     OW26691   6.243   0.212   1.532 -0.0684  0.9279 -1.0027
 6740SOL    HW226692   6.267   0.128   1.491  1.3736  1.2695 -0.9150
 6740SOL    HW326693   6.177   0.249   1.474 -0.5457 -0.1547 -1.1742
 6740SOL    MW426694   6.237   0.206   1.519  0.2957 -0.2597  0.4153
 6741SOL     OW26695   2.666   3.825   1.185  0.0736  0.3503 -0.1373
 6741SOL    HW226696   2.672   3.820   1.089 -0.9406  0.3788 -0.2108
 6741SOL    HW326697   2.737   3.769   1.216 -0.2885 -0.5537 -0.9021
 6741SOL    MW426698   2.676   3.817   1.176 -0.1261  0.2493  0.4363
 6742SOL     OW26699   0.558   1.349   0.652 -0.1874 -0.0329 -0.4311
 6742SOL    HW226700   0.623   1.412   0.622 -0.4039  0.1842 -0.4511
 6742SOL    HW326701   0.478   1.400   0.663 -0.4428 -0.3555 -0.7246
 6742SOL    MW426702   0.556   1.364   0.650 -0.2468 -0.3725  0.4518
 6743SOL     OW26703   2.093   2.606   0.239  0.0901  0.3559 -0.1239
 6743SOL    HW226704   2.155   2.663   0.285  0.0569  0.1451  0.1881
 6743SOL    HW326705   2.060   2.660   0.167 -0.3523  0.9353  0.4878
 6743SOL    MW426706   2.097   2.621   0.236  0.0415 -0.2943  0.2203
 6744SOL     OW26707   1.164   2.705   6.213 -0.4799 -0.1260  0.0747
 6744SOL    HW226708   1.108   2.752   6.151  0.8114  2.2610  0.5900
 6744SOL    HW326709   1.157   2.755   6.294 -1.2521 -2.5542  1.5807
 6744SOL    MW426710   1.156   2.718   6.215 -0.4346  0.2893  0.3034
 6745SOL     OW26711   4.421   5.413   0.267  0.0370  0.2941 -0.2430
 6745SOL    HW226712   4.402   5.428   0.175 -2.9008  0.5138  0.2962
 6745SOL    HW326713   4.351   5.355   0.297  0.3976  0.9218  2.0315
 6745SOL    MW426714   4.409   5.407   0.259 -0.1054 -0.7219  0.4060
 6746SOL     OW26715   6.340   5.506   1.054  0.5249 -0.0065  0.1771
 6746SOL    HW226716   6.258   5.456   1.048  0.8239 -0.6058  0.8557
 6746SOL    HW326717   6.339   5.542   1.143 -0.4793  2.6629 -0.7935
 6746SOL    MW426718   6.329   5.504   1.065 -0.0768 -0.3729 -0.2897
 6747SOL     OW26719   5.753   4.790   2.774  0.2245 -0.2681  0.5944
 6747SOL    HW226720   5.804   4.792   2.855 -0.0425 -1.3265  0.8003
 6747SOL    HW326721   5.795   4.724   2.720  0.2952  0.3105 -0.0722
 6747SOL    MW426722   5.765   4.782   2.777  0.0064  0.4976 -0.3616
 6748SOL     OW26723   5.321   3.926   1.208 -0.4869  0.1071 -0.1104
 6748SOL    HW226724   5.244   3.928   1.152  0.0697 -0.3787 -0.9131
 6748SOL    HW326725   5.370   3.850   1.178  1.8081  2.0549 -1.7099
 6748SOL    MW426726   5.317   3.916   1.196  0.5709  0.6061 -0.5110
 6749SOL     OW26727   3.720   0.951   2.475 -0.0817 -0.1859  0.1627
 6749SOL    HW226728   3.754   1.037   2.497  0.3703 -0.0686 -0.9144
 6749SOL    HW326729   3.797   0.899   2.454 -0.4202 -0.4895 -0.3720
 6749SOL    MW426730   3.735   0.955   2.475  0.1614 -0.2404 -1.3778
 6750SOL     OW26731   1.690   6.262   2.217  0.6082  0.2122 -0.1281
 6750SOL    HW226732   1.726   6.229   2.136  0.7189 -2.0247  0.7556
 6750SOL    HW326733   1.660   6.183   2.264  1.2858  1.3135  2.3353
 6750SOL    MW426734   1.691   6.247   2.213 -0.5299  0.6499  0.0607
 6751SOL     OW26735   0.788   2.330   4.352 -0.3695  0.2651 -0.4269
 6751SOL    HW226736   0.872   2.359   4.386  1.5010 -2.0501 -2.6948
 6751SOL    HW326737   0.724   2.390   4.392  2.0787  1.0024  2.7777
 6751SOL    MW426738   0.790   2.342   4.362  0.2497  0.3145  0.2463
 6752SOL     OW26739   2.775   0.565   2.148  0.0258 -0.5073 -0.6118
 6752SOL    HW226740   2.806   0.483   2.187  0.7355 -1.1055 -2.3375
 6752SOL    HW326741   2.770   0.547   2.054 -4.1693  0.0316 -0.6831
 6752SOL    MW426742   2.779   0.552   2.141  0.0524 -0.0114  0.0379
 6753SOL     OW26743   4.893   4.580   1.917  0.2837 -0.0657  0.1704
 6753SOL    HW226744   4.898   4.647   1.984 -1.6274  0.6640 -0.3389
 6753SOL    HW326745   4.970   4.594   1.862  0.4016  1.1141  0.6093
 6753SOL    MW426746   4.904   4.590   1.918  0.5283  0.1308 -0.4150
 6754SOL     OW26747   2.173   4.976   0.471 -0.3080 -0.1628 -0.3338
 6754SOL    HW226748   2.143   4.992   0.560 -0.5991 -0.9364 -0.2853
 6754SOL    HW326749   2.268   4.980   0.477 -0.2088 -2.2833  0.4643
 6754SOL    MW426750   2.182   4.979   0.484 -0.2737  0.0031 -0.1447
 6755SOL     OW26751   2.063   4.235   1.302 -0.1641 -0.4514  0.2341
 6755SOL    HW226752   1.999   4.173   1.267  0.2279 -1.9963  2.1429
 6755SOL    HW326753   2.015   4.287   1.365 -0.0650 -0.0030 -0.0515
 6755SOL    MW426754   2.049   4.234   1.305  0.2658  0.8506  0.2441
 6756SOL     OW26755   1.855   4.380   6.251 -0.0185  0.5556 -0.5924
 6756SOL    HW226756   1.947   4.373   6.279 -0.7783 -3.1363  1.5886
 6756SOL    HW326757   1.811   4.424   6.323 -0.0382  2.5926 -1.7623
 6756SOL    MW426758   1.862   4.385   6.264 -0.6103  0.2228  0.6590
 6757SOL     OW26759   5.528   0.397   0.799 -0.4539  0.6985  0.0450
 6757SOL    HW226760   5.507   0.366   0.887  0.2226  2.1938  0.7691
 6757SOL    HW326761   5.623   0.408   0.800 -0.3167 -0.2121 -1.2096
 6757SOL    MW426762   5.538   0.395   0.811  0.2872  0.5462 -0.0404
 6758SOL     OW26763   2.221   0.973   4.413 -0.0577  0.2268 -0.7134
 6758SOL    HW226764   2.292   1.023   4.373 -0.1342  0.8146 -0.1213
 6758SOL    HW326765   2.141   1.017   4.384 -0.1481  0.1008 -0.6556
 6758SOL    MW426766   2.220   0.985   4.404 -0.2992 -0.6557 -0.4012
 6759SOL     OW26767   1.859   4.185   1.662  0.4849  0.3685 -0.0868
 6759SOL    HW226768   1.870   4.253   1.596  0.1218 -0.6986 -1.2735
 6759SOL    HW326769   1.941   4.137   1.661  1.1618  1.4008  1.5184
 6759SOL    MW426770   1.871   4.188   1.653  0.2365  0.5400 -0.3129
 6760SOL     OW26771   5.574   4.391   3.250 -0.7143 -0.2691  0.5506
 6760SOL    HW226772   5.572   4.483   3.223 -2.2775 -0.4899 -0.2324
 6760SOL    HW326773   5.494   4.380   3.301  0.3540 -0.7913  2.1982
 6760SOL    MW426774   5.563   4.402   3.253 -0.2638 -0.1980  0.2573
 6761SOL     OW26775   1.059   2.126   0.859 -0.9101 -0.3548  0.0703
 6761SOL    HW226776   1.127   2.066   0.828  0.8803  0.9972  1.2034
 6761SOL    HW326777   0.980   2.098   0.812  0.2982 -2.2543 -0.9836
 6761SOL    MW426778   1.058   2.114   0.848 -0.2308 -0.0231  0.6346
 6762SOL     OW26779   0.755   4.304   1.464  0.2139 -0.2644  0.0378
 6762SOL    HW226780   0.673   4.336   1.428  0.1291  1.6840  1.7815
 6762SOL    HW326781   0.821   4.365   1.432  0.6007 -0.3754  0.6060
 6762SOL    MW426782   0.753   4.316   1.455  0.1468 -0.4266 -0.0313
 6763SOL     OW26783   3.264   6.121   4.503  0.5736  0.2154 -0.0251
 6763SOL    HW226784   3.264   6.215   4.484 -2.2224  0.3243  0.2176
 6763SOL    HW326785   3.348   6.106   4.548  1.4015  2.4197 -0.7050
 6763SOL    MW426786   3.275   6.131   4.507  0.2550  0.6769  0.2391
 6764SOL     OW26787   1.468   5.274   4.650  0.2530  0.2026 -0.0378
 6764SOL    HW226788   1.486   5.368   4.649  0.2972  0.2092  0.6415
 6764SOL    HW326789   1.457   5.251   4.558 -0.3942  0.9957 -0.1741
 6764SOL    MW426790   1.469   5.283   4.638  0.2475 -0.1395  0.3418
 6765SOL     OW26791   4.572   6.047   4.429 -0.7274 -0.1396  0.1033
 6765SOL    HW226792   4.654   6.005   4.456  0.0597  1.6159  0.6029
 6765SOL    HW326793   4.551   6.007   4.345  1.1119 -0.0462 -0.4406
 6765SOL    MW426794   4.580   6.037   4.422 -0.5732  0.3204 -0.5303
 6766SOL     OW26795   5.230   5.861   2.875 -0.5409  0.2939 -0.0408
 6766SOL    HW226796   5.214   5.937   2.930 -1.3940  0.6775 -0.8122
 6766SOL    HW326797   5.228   5.894   2.786  0.7276 -0.3452 -0.3385
 6766SOL    MW426798   5.228   5.875   2.871  0.0812  0.1313  0.0351
 6767SOL     OW26799   2.658   5.528   5.033  0.0751  0.3792  0.0322
 6767SOL    HW226800   2.632   5.618   5.015 -0.2032  0.5467  1.1811
 6767SOL    HW326801   2.731   5.536   5.095  0.6335 -0.1687 -0.5372
 6767SOL    MW426802   2.665   5.541   5.039  0.0698 -0.0985 -0.4947
 6768SOL     OW26803   3.870   4.117   0.390 -0.5358 -0.0835  0.0973
 6768SOL    HW226804   3.913   4.145   0.471 -1.2472  1.6802 -0.0794
 6768SOL    HW326805   3.776   4.119   0.411 -0.6889 -0.4437 -0.5308
 6768SOL    MW426806   3.863   4.121   0.404 -0.7765  0.6330  0.6009
 6769SOL     OW26807   1.522   0.051   4.997  0.3604  0.2658 -0.0046
 6769SOL    HW226808   1.466   0.068   5.072  0.1489  0.8718 -0.2971
 6769SOL    HW326809   1.519   0.131   4.945  2.3404  0.7402  0.5041
 6769SOL    MW426810   1.514   0.064   5.000 -0.1909 -0.0643  0.3600
 6770SOL     OW26811   0.122   1.827   1.458  0.4518  1.1319  0.5857
 6770SOL    HW226812   0.210   1.864   1.452  0.1696  1.8701  0.9362
 6770SOL    HW326813   0.136   1.732   1.456  1.3553  1.2138  2.0277
 6770SOL    MW426814   0.136   1.820   1.457  0.0077 -0.2398 -0.2299
 6771SOL     OW26815   0.414   5.008   1.758 -0.1774  0.4967 -0.2319
 6771SOL    HW226816   0.399   4.973   1.846 -0.3216  0.2072 -0.3697
 6771SOL    HW326817   0.354   4.958   1.702  0.5600  0.0455 -0.6322
 6771SOL    MW426818   0.404   4.996   1.762 -0.6381  0.0518 -0.2130
 6772SOL     OW26819   0.746   2.029   2.428  0.6328 -0.0616  0.4571
 6772SOL    HW226820   0.786   1.987   2.352  0.4898  1.3923 -0.4682
 6772SOL    HW326821   0.810   2.021   2.498  1.8516  0.7330 -0.5255
 6772SOL    MW426822   0.760   2.023   2.427  0.4719 -0.0032 -0.0585
 6773SOL     OW26823   4.680   1.675   1.001 -0.4530 -1.1589 -0.1559
 6773SOL    HW226824   4.749   1.712   1.056  0.6967 -0.4762 -1.9632
 6773SOL    HW326825   4.600   1.689   1.051  0.3222  1.0756  0.5924
 6773SOL    MW426826   4.679   1.682   1.014  0.1928  0.4490  0.1199
 6774SOL     OW26827   4.184   5.418   2.272 -0.2227  0.0527  0.8999
 6774SOL    HW226828   4.136   5.428   2.190  0.3233 -0.3360  0.5236
 6774SOL    HW326829   4.133   5.468   2.336  0.2857  1.8567 -0.0348
 6774SOL    MW426830   4.171   5.426   2.270  0.1920  0.4141  0.1527
 6775SOL     OW26831   0.344   3.642   1.696 -0.2589  0.0566  0.1102
 6775SOL    HW226832   0.287   3.644   1.620 -2.2180  0.6810  1.5190
 6775SOL    HW326833   0.306   3.575   1.753  1.1664 -0.4069  0.5817
 6775SOL    MW426834   0.332   3.633   1.694  0.4508  0.1733  0.5189
 6776SOL     OW26835   3.482   5.287   5.214  0.2299 -0.4627 -0.3720
 6776SOL    HW226836   3.502   5.210   5.267 -1.1167 -1.7059 -1.5663
 6776SOL    HW326837   3.550   5.287   5.146 -0.3572 -1.2588 -0.9888
 6776SOL    MW426838   3.494   5.277   5.212 -0.4044 -0.3096  0.1621
 6777SOL     OW26839   5.776   0.499   3.387  0.4239 -0.2016  0.1914
 6777SOL    HW226840   5.804   0.496   3.478  0.6037 -0.1765  0.1391
 6777SOL    HW326841   5.681   0.506   3.390  0.4469  0.0306  0.3783
 6777SOL    MW426842   5.767   0.499   3.399 -0.0253 -0.4558  0.2875
 6778SOL     OW26843   2.438   5.775   6.013  0.1526 -0.1162 -0.3349
 6778SOL    HW226844   2.408   5.698   6.060  0.7819  0.5271  1.1786
 6778SOL    HW326845   2.504   5.742   5.952  0.0702 -0.8407 -0.0322
 6778SOL    MW426846   2.443   5.761   6.011  0.7265 -0.2667  0.1462
 6779SOL     OW26847   0.437   2.114   1.890  0.1740 -0.4034  0.1453
 6779SOL    HW226848   0.350   2.090   1.856 -0.3200  0.7966  0.5035
 6779SOL    HW326849   0.497   2.052   1.849 -0.8158 -1.0516 -0.3583
 6779SOL    MW426850   0.433   2.103   1.880  0.6004 -0.1330  0.0751
 6780SOL     OW26851   5.245   2.545   1.370 -0.0995 -0.0569  0.1918
 6780SOL    HW226852   5.300   2.572   1.443 -1.3553  1.0877  0.7489
 6780SOL    HW326853   5.162   2.591   1.383 -0.5164 -0.1571 -1.7130
 6780SOL    MW426854   5.242   2.555   1.381 -0.2538  0.9342  0.4204
 6781SOL     OW26855   0.874   5.475   4.933 -0.1018  0.3609 -0.0382
 6781SOL    HW226856   0.904   5.557   4.972 -0.6805  0.5444  0.0352
 6781SOL    HW326857   0.827   5.501   4.854 -3.9771  0.5357  2.1004
 6781SOL    MW426858   0.872   5.489   4.928  0.3419 -0.0646 -0.6998
 6782SOL     OW26859   5.709   3.742   2.052  0.3815  0.1636  0.2770
 6782SOL    HW226860   5.731   3.653   2.026  0.7645  0.5295 -0.7016
 6782SOL    HW326861   5.675   3.733   2.141 -3.2372 -1.4392 -1.0659
 6782SOL    MW426862   5.708   3.729   2.060  0.0406 -0.1596 -0.4740
 6783SOL     OW26863   3.862   3.599   6.349 -0.1474 -0.1092 -0.2125
 6783SOL    HW226864   3.843   3.509   6.374  0.9236 -0.2072  0.3325
 6783SOL    HW326865   3.853   3.601   6.254  0.6952 -1.0276 -0.3278
 6783SOL    MW426866   3.858   3.587   6.340  0.0371  0.0343 -0.8743
 6784SOL     OW26867   3.852   2.930   0.772  0.7556 -0.1194  0.1961
 6784SOL    HW226868   3.763   2.908   0.798  0.7000  0.2238  0.3061
 6784SOL    HW326869   3.898   2.945   0.855  1.0500 -0.8028  0.1589
 6784SOL    MW426870   3.846   2.929   0.787  0.6469 -0.5593  0.4749
 6785SOL     OW26871   3.651   0.407   6.274 -0.1564  0.3274 -0.0801
 6785SOL    HW226872   3.703   0.428   6.351 -0.2687  0.0561  0.0698
 6785SOL    HW326873   3.651   0.311   6.270  0.7521  0.3398 -1.0259
 6785SOL    MW426874   3.658   0.397   6.283 -0.1805  0.6319  0.2593
 6786SOL     OW26875   5.935   0.027   2.678  0.3564 -0.0423  0.2878
 6786SOL    HW226876   5.869   0.012   2.610 -1.1437  0.3612  1.6014
 6786SOL    HW326877   5.957   0.119   2.670 -1.1548  0.4536  1.4531
 6786SOL    MW426878   5.929   0.037   2.668  0.4194 -0.6965  0.2557
 6787SOL     OW26879   5.915   5.500   1.221  0.4347  0.4537 -0.6015
 6787SOL    HW226880   5.847   5.432   1.223  1.1479 -0.2602  0.3508
 6787SOL    HW326881   5.893   5.554   1.145 -0.9705  0.0100 -0.5373
 6787SOL    MW426882   5.903   5.498   1.211 -0.0714  0.1296 -0.3495
 6788SOL     OW26883   3.442   1.040   2.553  0.7067 -0.4328  0.2939
 6788SOL    HW226884   3.431   1.015   2.461 -1.0108  0.2456  0.2732
 6788SOL    HW326885   3.536   1.035   2.568  1.1600  0.5639 -1.8230
 6788SOL    MW426886   3.453   1.036   2.543  0.6782  0.2129 -0.0153
 6789SOL     OW26887   0.871   1.303   4.795 -0.1866  0.2496 -0.0510
 6789SOL    HW226888   0.855   1.388   4.834  0.0678  0.5638 -0.6192
 6789SOL    HW326889   0.807   1.297   4.724  0.3448  0.3193 -0.5391
 6789SOL    MW426890   0.861   1.313   4.791 -0.0191  0.4027 -0.0311
 6790SOL     OW26891   3.404   1.145   3.307 -0.2291 -0.3920  0.4366
 6790SOL    HW226892   3.402   1.083   3.380  1.5048 -1.1898 -0.1379
 6790SOL    HW326893   3.388   1.230   3.347 -5.5343 -1.2651  0.9429
 6790SOL    MW426894   3.402   1.148   3.322  0.0904 -0.2175  0.2446
 6791SOL     OW26895   5.799   4.063   2.858 -0.0850  0.8392  0.1939
 6791SOL    HW226896   5.861   4.074   2.786 -0.5787  1.4152 -0.1513
 6791SOL    HW326897   5.854   4.057   2.936  0.3678  3.1808  0.1292
 6791SOL    MW426898   5.815   4.064   2.859  1.0531 -0.1182  0.4188
 6792SOL     OW26899   6.412   2.121   4.230 -0.1667  0.2909  0.0188
 6792SOL    HW226900   6.430   2.212   4.251 -2.3885  0.3964  1.8932
 6792SOL    HW326901   6.435   2.112   4.137  1.5721  2.2868  0.1895
 6792SOL    MW426902   6.417   2.132   4.220  0.1346 -0.0013 -0.0344
 6793SOL     OW26903   2.308   4.966   1.462  0.0556 -0.3132  0.3950
 6793SOL    HW226904   2.255   4.994   1.536 -0.1846  1.5774 -0.4187
 6793SOL    HW326905   2.389   5.016   1.470 -0.6331  1.2203 -1.4601
 6793SOL    MW426906   2.312   4.976   1.472 -0.2231 -0.6134 -0.4811
 6794SOL     OW26907   2.585   4.203   0.262 -0.0914 -0.6611  0.4294
 6794SOL    HW226908   2.548   4.153   0.189 -0.7370  2.0377 -1.2360
 6794SOL    HW326909   2.535   4.173   0.338 -2.4448 -0.5600 -0.9678
 6794SOL    MW426910   2.573   4.192   0.262  0.4432 -0.1862  0.0169
 6795SOL     OW26911   1.927   2.048   6.000 -0.0971 -0.1331 -0.5267
 6795SOL    HW226912   1.991   2.116   6.025 -0.0110 -0.9018  1.5488
 6795SOL    HW326913   1.842   2.086   6.024 -0.1587 -0.2359 -0.5842
 6795SOL    MW426914   1.925   2.062   6.007 -0.4261  0.4300 -0.1889
 6796SOL     OW26915   1.576   5.945   4.428 -0.3552 -0.3442  0.7745
 6796SOL    HW226916   1.628   6.025   4.431 -0.7405 -0.0820  0.6463
 6796SOL    HW326917   1.630   5.878   4.470  0.0161 -0.0408  0.7751
 6796SOL    MW426918   1.590   5.946   4.434 -0.0396  0.0471  0.4111
 6797SOL     OW26919   5.634   4.122   4.158  0.3377  0.2342  0.4353
 6797SOL    HW226920   5.544   4.098   4.181  0.7106 -0.2540  1.4315
 6797SOL    HW326921   5.671   4.043   4.120 -0.0418  0.8181 -1.2516
 6797SOL    MW426922   5.627   4.109   4.156  0.5323  0.3387  0.1097
 6798SOL     OW26923   5.945   0.101   4.865 -0.7573 -0.4755 -0.3128
 6798SOL    HW226924   6.015   0.037   4.855 -0.8990 -0.7740  0.5337
 6798SOL    HW326925   5.986   0.185   4.844 -0.3824 -0.7548 -0.7021
 6798SOL    MW426926   5.960   0.104   4.861  0.1098 -0.3908 -0.5770
 6799SOL     OW26927   3.120   3.613   4.121 -0.3938  0.3645 -0.2491
 6799SOL    HW226928   3.045   3.598   4.063  1.3676  1.7058 -3.1051
 6799SOL    HW326929   3.192   3.566   4.078  0.9115  1.0040  1.1597
 6799SOL    MW426930   3.120   3.605   4.108 -0.4182  0.0243  0.4875
 6800SOL     OW26931   5.565   0.169   1.694  0.6404  0.3140  0.5120
 6800SOL    HW226932   5.475   0.138   1.682  0.4134  0.9525  0.5620
 6800SOL    HW326933   5.571   0.191   1.787  1.4296 -1.5350  0.9515
 6800SOL    MW426934   5.554   0.168   1.704 -0.4432  0.3179  0.2879
 6801SOL     OW26935   2.176   3.292   2.540  0.0177  0.4030  0.6237
 6801SOL    HW226936   2.263   3.332   2.544 -0.0440  0.5634  0.3606
 6801SOL    HW326937   2.166   3.264   2.449 -1.2892  2.8330 -0.0526
 6801SOL    MW426938   2.186   3.293   2.529 -0.0631  0.2011  0.1518
 6802SOL     OW26939   2.679   5.660   5.912  0.1367 -0.1041 -0.1271
 6802SOL    HW226940   2.634   5.587   5.871 -0.0866 -0.3466  0.5471
 6802SOL    HW326941   2.725   5.622   5.987 -0.2347  0.4844  0.4174
 6802SOL    MW426942   2.679   5.646   5.917  0.0099  0.3636  0.6556
 6803SOL     OW26943   2.767   1.937   0.340 -0.6429  0.1259 -0.5668
 6803SOL    HW226944   2.764   2.031   0.360  0.0695 -0.1115  0.7311
 6803SOL    HW326945   2.860   1.916   0.335 -0.7496 -0.8972  1.1259
 6803SOL    MW426946   2.779   1.947   0.342 -0.1463  0.2854  0.7287
 6804SOL     OW26947   1.192   6.024   3.912  0.4454 -0.4797  0.0401
 6804SOL    HW226948   1.210   5.932   3.930  0.1259 -0.1608  2.2018
 6804SOL    HW326949   1.161   6.025   3.821  2.2790 -2.2246 -0.6685
 6804SOL    MW426950   1.190   6.012   3.902  0.2737  0.1103 -0.1958
 6805SOL     OW26951   3.625   2.366   4.026  0.6578  1.0433  0.2127
 6805SOL    HW226952   3.632   2.297   3.959  0.1915  2.5578 -1.4914
 6805SOL    HW326953   3.551   2.340   4.080  0.9030 -0.1303  0.0080
 6805SOL    MW426954   3.616   2.354   4.024  0.4880 -0.1150  0.2396
 6806SOL     OW26955   2.999   2.008   1.835 -0.4702 -0.0366 -0.4332
 6806SOL    HW226956   3.014   2.070   1.906 -0.5177  0.5700 -0.9427
 6806SOL    HW326957   2.992   2.062   1.757  3.3612 -0.8736 -1.5514
 6806SOL    MW426958   3.000   2.023   1.834  0.9004 -0.3727 -0.2996
 6807SOL     OW26959   4.849   0.911   3.848  0.1125 -0.2045  0.3911
 6807SOL    HW226960   4.863   0.973   3.920 -0.3373 -1.1718  1.3432
 6807SOL    HW326961   4.755   0.891   3.852  0.2809 -1.0646  0.1998
 6807SOL    MW426962   4.838   0.916   3.858 -0.3160  0.0584  0.5975
 6808SOL     OW26963   6.126   3.323   2.421 -0.1474 -0.0004 -0.6798
 6808SOL    HW226964   6.165   3.238   2.437 -1.5959 -0.5979 -0.1395
 6808SOL    HW326965   6.034   3.304   2.401 -0.9075  1.5105  1.0741
 6808SOL    MW426966   6.119   3.310   2.420 -0.5962  0.6564 -0.4087
 6809SOL     OW26967   1.837   6.395   5.356 -0.1219  0.0868 -0.2458
 6809SOL    HW226968   1.927   6.373   5.330 -0.4061 -0.7955 -0.5340
 6809SOL    HW326969   1.827   6.487   5.333  0.9409  0.3915  0.4407
 6809SOL    MW426970   1.848   6.404   5.349 -0.1404  0.2285  0.0467
 6810SOL     OW26971   0.042   4.954   1.600  0.3894  0.4505  0.3326
 6810SOL    HW226972   0.038   4.931   1.507 -0.7259  0.9655  0.2421
 6810SOL    HW326973   0.054   5.048   1.602 -0.9180  0.6317  0.6941
 6810SOL    MW426974   0.043   4.963   1.588 -0.0813 -0.1381 -0.5142
 6811SOL     OW26975   0.696   1.932   6.351  0.7309  0.0324  0.2659
 6811SOL    HW226976   0.617   1.938   6.297  0.7846  1.3431  0.2968
 6811SOL    HW326977   0.672   1.872   6.422 -0.1624  0.2184  0.1298
 6811SOL    MW426978   0.682   1.925   6.353  0.2169  0.0722  0.5444
 6812SOL     OW26979   5.138   4.743   2.659  0.1965  0.2868  0.2691
 6812SOL    HW226980   5.051   4.766   2.625 -0.0397 -0.7895  0.1036
 6812SOL    HW326981   5.187   4.825   2.658 -0.3504  0.6254 -1.0784
 6812SOL    MW426982   5.133   4.757   2.654  0.1083 -0.1080  0.1273
 6813SOL     OW26983   1.912   0.530   6.231 -0.6207 -0.0164 -0.5646
 6813SOL    HW226984   2.004   0.515   6.212 -0.9407 -0.6958 -1.6489
 6813SOL    HW326985   1.899   0.623   6.211 -0.4949 -0.2567 -1.8553
 6813SOL    MW426986   1.922   0.540   6.226 -0.6164  0.4310 -0.5636
 6814SOL     OW26987   4.265   2.947   6.412  0.7316 -0.2936  0.5093
 6814SOL    HW226988   4.270   2.981   6.323  2.0957 -0.4175  0.5278
 6814SOL    HW326989   4.261   2.852   6.402 -0.0911 -0.2753  0.5640
 6814SOL    MW426990   4.265   2.939   6.399  0.3497  0.0827  0.5714
 6815SOL     OW26991   3.476   5.781   2.853  0.1792  0.1362  0.5667
 6815SOL    HW226992   3.536   5.845   2.815  2.2170 -0.9513  1.7934
 6815SOL    HW326993   3.389   5.816   2.833  1.1436  1.2486 -2.1654
 6815SOL    MW426994   3.472   5.794   2.846 -0.3731 -0.4703 -0.2005
 6816SOL     OW26995   0.782   3.601   4.377  0.0910 -0.6724 -0.1633
 6816SOL    HW226996   0.832   3.624   4.455  0.9143 -1.5854 -0.4068
 6816SOL    HW326997   0.730   3.525   4.404 -1.4459  0.4568  0.1855
 6816SOL    MW426998   0.781   3.594   4.391 -0.6151  0.3866 -0.0706
 6817SOL     OW26999   6.270   5.150   3.720 -0.2869  0.0865  0.2073
 6817SOL    HW227000   6.224   5.122   3.641  0.2584  2.0741 -0.8956
 6817SOL    HW327001   6.363   5.136   3.701 -0.1497  0.5909  0.4764
 6817SOL    MW427002   6.276   5.145   3.707 -0.5426  0.0357  0.6921
 6818SOL     OW27003   1.649   2.963   0.535 -0.5657 -0.3200  0.2514
 6818SOL    HW227004   1.668   2.870   0.547 -2.1092 -0.4756  1.9339
 6818SOL    HW327005   1.672   2.980   0.443  1.3623 -1.9108  0.3697
 6818SOL    MW427006   1.654   2.953   0.524  0.0520  0.1707 -0.9827
 6819SOL     OW27007   5.837   3.647   4.292  0.4693  0.0906 -0.7235
 6819SOL    HW227008   5.867   3.594   4.366 -1.0110 -0.3663 -0.4306
 6819SOL    HW327009   5.909   3.643   4.230  2.0795  1.0902  0.9613
 6819SOL    MW427010   5.851   3.640   4.294  0.1853  0.0935  1.0907
 6820SOL     OW27011   3.928   5.550   0.861  0.1340 -0.5118  0.2593
 6820SOL    HW227012   3.869   5.577   0.790 -0.6525 -0.9709  0.7308
 6820SOL    HW327013   3.886   5.473   0.899  1.1539 -0.9873  0.4630
 6820SOL    MW427014   3.914   5.544   0.856 -0.4302 -0.0952  0.3330
 6821SOL     OW27015   0.037   0.061   3.191 -0.2658  0.1945 -0.5594
 6821SOL    HW227016   0.109   0.124   3.200 -0.2923  0.0621  0.7565
 6821SOL    HW327017   0.070  -0.019   3.232 -1.1073  0.0890 -0.0841
 6821SOL    MW427018   0.051   0.059   3.197  0.4601  0.0120  0.4764
 6822SOL     OW27019   2.458   4.913   0.465  0.9959 -0.1367 -0.5854
 6822SOL    HW227020   2.456   4.948   0.376 -0.3866  0.8690 -0.1993
 6822SOL    HW327021   2.551   4.901   0.484  1.3435  0.2581 -1.9254
 6822SOL    MW427022   2.470   4.916   0.456  0.2156  0.1172  0.3042
 6823SOL     OW27023   3.969   3.254   0.978  0.0203 -0.0126  0.0659
 6823SOL    HW227024   3.978   3.229   0.886  0.0258  0.1239  0.0285
 6823SOL    HW327025   3.885   3.216   1.005  0.4902 -0.9056  0.2901
 6823SOL    MW427026   3.959   3.246   0.969  0.4545 -0.2851 -0.0607
 6824SOL     OW27027   5.487   2.838   5.045 -0.9946 -0.3347 -0.4633
 6824SOL    HW227028   5.529   2.844   4.959  0.1953 -1.5969 -0.0056
 6824SOL    HW327029   5.403   2.882   5.033 -1.0286 -0.7972 -2.3857
 6824SOL    MW427030   5.482   2.844   5.032  0.7067 -0.6961  0.3413
 6825SOL     OW27031   4.815   1.460   1.142  0.3607  0.3749  0.5320
 6825SOL    HW227032   4.882   1.409   1.096  0.5757  1.8493 -0.9006
 6825SOL    HW327033   4.768   1.506   1.072 -2.6359 -1.1169  1.4235
 6825SOL    MW427034   4.818   1.460   1.127  0.3475 -0.2674 -0.2520
 6826SOL     OW27035   4.310   5.769   6.414 -0.0182 -0.4412 -0.4114
 6826SOL    HW227036   4.296   5.860   6.441  0.3113  0.1057 -1.9390
 6826SOL    HW327037   4.235   5.722   6.447 -1.3276  0.8331 -1.4228
 6826SOL    MW427038   4.299   5.775   6.422 -0.1555 -0.0349 -0.2897
 6827SOL     OW27039   4.783   1.354   1.604  0.5767 -0.0302 -0.2241
 6827SOL    HW227040   4.839   1.404   1.545  0.4210 -0.1177 -0.4478
 6827SOL    HW327041   4.722   1.308   1.546  0.6287 -0.3687 -0.0155
 6827SOL    MW427042   4.783   1.354   1.589 -0.1346  0.1838  0.6946
 6828SOL     OW27043   0.325   0.264   1.012  0.0498  0.2781 -0.1609
 6828SOL    HW227044   0.267   0.188   1.016 -1.3953  1.3757  1.8138
 6828SOL    HW327045   0.275   0.334   1.055  1.8784  1.9628 -0.6512
 6828SOL    MW427046   0.311   0.263   1.018 -0.2162  0.2701 -0.0561
 6829SOL     OW27047   0.823   2.993   1.273  0.1253  0.7487  0.2634
 6829SOL    HW227048   0.865   2.914   1.239 -1.1679 -0.0865  0.5388
 6829SOL    HW327049   0.860   3.064   1.222  0.4110 -0.1636 -0.8342
 6829SOL    MW427050   0.834   2.992   1.262 -0.4834 -0.2693 -0.4630
 6830SOL     OW27051   2.115   5.653   4.777 -0.2917 -0.0878  0.2340
 6830SOL    HW227052   2.102   5.561   4.755 -0.1024 -0.1656  0.4388
 6830SOL    HW327053   2.207   5.670   4.757 -0.8194  0.6129 -1.7506
 6830SOL    MW427054   2.126   5.643   4.772 -0.1182 -0.7423  0.6174
 6831SOL     OW27055   3.588   2.241   3.447 -0.1083  0.1503  0.2988
 6831SOL    HW227056   3.628   2.154   3.439  1.0940  0.7157 -0.1135
 6831SOL    HW327057   3.514   2.228   3.506 -0.9316 -1.4734 -0.9916
 6831SOL    MW427058   3.583   2.228   3.454 -0.0683  0.7337  0.1623
 6832SOL     OW27059   3.456   2.905   5.071  0.0651 -0.5814 -0.0387
 6832SOL    HW227060   3.390   2.866   5.129 -1.4995 -0.1712 -1.4824
 6832SOL    HW327061   3.501   2.969   5.127 -1.2949 -0.2947  0.7901
 6832SOL    MW427062   3.453   2.908   5.086 -0.1580 -0.2128 -0.1075
 6833SOL     OW27063   6.268   0.154   0.697 -0.2699  0.7959 -0.6220
 6833SOL    HW227064   6.339   0.090   0.697 -0.3986  0.5933  1.0315
 6833SOL    HW327065   6.232   0.151   0.609  1.7225  0.8576 -1.4935
 6833SOL    MW427066   6.272   0.145   0.685 -0.3106 -0.8608  0.1935
 6834SOL     OW27067   2.157   4.622   1.619 -0.2438 -0.0399  0.1860
 6834SOL    HW227068   2.147   4.662   1.533 -2.1979  0.0731  0.4406
 6834SOL    HW327069   2.207   4.541   1.602 -2.9363 -1.4743 -1.5291
 6834SOL    MW427070   2.162   4.616   1.606  0.6537 -0.2569  0.5254
 6835SOL     OW27071   2.943   2.893   1.079  0.2343  0.0736  0.2313
 6835SOL    HW227072   2.870   2.832   1.092  0.3258  0.1369  1.0775
 6835SOL    HW327073   2.924   2.935   0.995 -0.1794 -0.6312 -0.0359
 6835SOL    MW427074   2.931   2.891   1.070  0.3720  0.1064 -0.2011
 6836SOL     OW27075   0.757   4.985   3.412  0.2367  0.1484 -0.0883
 6836SOL    HW227076   0.718   4.898   3.402  1.6680 -0.3992 -1.2799
 6836SOL    HW327077   0.845   4.968   3.446  0.3450  1.1810  0.1819
 6836SOL    MW427078   0.763   4.971   3.415  0.7124  0.4424  0.0635
 6837SOL     OW27079   5.411   4.445   2.931 -0.3327  0.4703  0.6562
 6837SOL    HW227080   5.391   4.491   3.013  0.1878  0.3672  0.8453
 6837SOL    HW327081   5.330   4.400   2.909 -0.8616  1.4972  0.4504
 6837SOL    MW427082   5.398   4.445   2.939  0.0863 -0.5644 -0.5628
 6838SOL     OW27083   5.643   4.397   2.629 -0.2602 -0.3837  0.0082
 6838SOL    HW227084   5.731   4.406   2.593 -0.5677 -0.0448 -0.6672
 6838SOL    HW327085   5.656   4.395   2.724  0.3195  1.8100  0.0255
 6838SOL    MW427086   5.656   4.398   2.637  0.0350 -0.7390  0.3286
 6839SOL     OW27087   5.096   1.422   2.240  0.0827 -0.0307  0.4303
 6839SOL    HW227088   5.170   1.370   2.208 -0.7310 -0.8276 -0.2133
 6839SOL    HW327089   5.106   1.507   2.197  0.3553 -0.2903 -0.0250
 6839SOL    MW427090   5.107   1.426   2.230 -0.2401 -1.1735 -0.1236
 6840SOL     OW27091   0.990   1.227   2.947  0.8728 -0.3032  0.1226
 6840SOL    HW227092   1.038   1.145   2.940  1.3135 -0.0307 -0.0594
 6840SOL    HW327093   0.985   1.260   2.857  0.7723 -0.0871  0.2052
 6840SOL    MW427094   0.996   1.221   2.934  0.4979  0.6603  0.2054
 6841SOL     OW27095   1.431   3.706   0.254  0.0998 -0.1288 -0.1459
 6841SOL    HW227096   1.504   3.679   0.199 -0.0667 -0.5001 -0.1879
 6841SOL    HW327097   1.368   3.634   0.247  0.0677 -0.1700  0.5134
 6841SOL    MW427098   1.432   3.693   0.246 -0.0043 -0.2247 -0.7546
 6842SOL     OW27099   3.396   3.587   2.057  0.2065  0.8272  0.1055
 6842SOL    HW227100   3.316   3.582   2.110 -0.4910  0.5798 -0.9368
 6842SOL    HW327101   3.395   3.675   2.020 -0.2059  0.4587 -0.8110
 6842SOL    MW427102   3.385   3.598   2.059  0.3000  0.3710 -0.4119
 6843SOL     OW27103   2.062   2.418   2.278  0.0257 -0.2798  0.9883
 6843SOL    HW227104   2.134   2.475   2.253  1.5597 -1.3093  2.7406
 6843SOL    HW327105   2.050   2.435   2.372 -1.0368 -1.1615  1.0311
 6843SOL    MW427106   2.070   2.427   2.287  0.1295  0.0712  0.6006
 6844SOL     OW27107   4.007   0.645   0.736  0.2115  0.0067 -0.3423
 6844SOL    HW227108   3.933   0.585   0.751 -1.1437  0.9542 -2.7224
 6844SOL    HW327109   3.976   0.729   0.770 -1.0741  1.0771 -3.7318
 6844SOL    MW427110   3.993   0.648   0.742  0.2134  0.3633 -0.2146
 6845SOL     OW27111   0.139   0.139   4.323 -0.1253  0.0234 -0.4583
 6845SOL    HW227112   0.092   0.173   4.399  2.2924  0.6001  0.9018
 6845SOL    HW327113   0.125   0.204   4.255 -1.2790  0.1702 -0.0925
 6845SOL    MW427114   0.131   0.152   4.324 -0.1469  0.0152  0.2967
 6846SOL     OW27115   5.290   3.140   6.079  0.0410 -0.3835 -0.0112
 6846SOL    HW227116   5.313   3.223   6.035 -0.9084  0.0847  0.3496
 6846SOL    HW327117   5.266   3.082   6.007  0.7663 -0.3750 -0.2742
 6846SOL    MW427118   5.290   3.143   6.064  0.0432 -0.6090  0.3254
 6847SOL     OW27119   2.153   4.299   2.282 -0.5715 -0.8109 -0.1544
 6847SOL    HW227120   2.089   4.239   2.245 -0.7689  0.6306 -2.3090
 6847SOL    HW327121   2.237   4.272   2.245 -0.7229  0.4265 -1.5213
 6847SOL    MW427122   2.156   4.288   2.272 -0.2582  0.1820 -0.0652
 6848SOL     OW27123   0.321   1.390   4.459  0.2353 -0.6585  0.0761
 6848SOL    HW227124   0.246   1.435   4.422  0.9587 -0.5162 -1.2710
 6848SOL    HW327125   0.339   1.318   4.398  0.8256 -1.0530  0.6980
 6848SOL    MW427126   0.314   1.386   4.446 -0.4805 -0.7600 -1.0741
 6849SOL     OW27127   2.156   2.094   2.419 -0.3248 -0.0588  0.3064
 6849SOL    HW227128   2.066   2.079   2.449 -0.1016 -0.9985  0.5285
 6849SOL    HW327129   2.189   2.163   2.477 -1.1884  0.9460 -0.3664
 6849SOL    MW427130   2.149   2.101   2.431  0.4543  0.5908  0.5419
 6850SOL     OW27131   0.759   2.317   0.745 -0.1278 -0.6154  0.3330
 6850SOL    HW227132   0.679   2.369   0.739  0.0003 -0.3739  0.6950
 6850SOL    HW327133   0.812   2.361   0.812  0.6265 -0.3478 -0.4237
 6850SOL    MW427134   0.756   2.329   0.753  0.0123  0.3792 -0.4337
 6851SOL     OW27135   1.710   5.057   1.023 -0.8351  0.3058 -0.0752
 6851SOL    HW227136   1.616   5.059   1.038 -0.5567  0.5829  1.9501
 6851SOL    HW327137   1.726   5.126   0.960 -2.0969 -0.5260 -1.3612
 6851SOL    MW427138   1.700   5.066   1.017  0.2749  1.1400  0.2911
 6852SOL     OW27139   5.643   4.043   2.485 -0.1173  0.6609 -0.0920
 6852SOL    HW227140   5.635   4.055   2.390 -2.3270 -0.4328 -0.0969
 6852SOL    HW327141   5.569   4.092   2.522  0.3476  0.5534  1.0225
 6852SOL    MW427142   5.632   4.051   2.477 -0.4071 -0.3984 -0.5201
 6853SOL     OW27143   2.807   4.039   5.971 -0.3676  0.1364  0.1557
 6853SOL    HW227144   2.888   3.992   5.953 -0.1819  0.6028 -0.2637
 6853SOL    HW327145   2.783   4.079   5.886 -1.7835 -1.1342 -0.0728
 6853SOL    MW427146   2.815   4.038   5.957 -0.0740  0.0716 -0.4537
 6854SOL     OW27147   3.579   4.233   1.825 -0.7035  0.2592 -0.1209
 6854SOL    HW227148   3.509   4.192   1.876 -1.0607 -0.5088 -1.2093
 6854SOL    HW327149   3.552   4.223   1.734  0.9602 -0.3112 -0.5838
 6854SOL    MW427150   3.567   4.227   1.820  0.0297 -0.3595  0.0459
 6855SOL     OW27151   5.238   0.638   4.919 -0.4869  0.6700  0.1058
 6855SOL    HW227152   5.263   0.704   4.855 -1.1948  2.3260  1.4507
 6855SOL    HW327153   5.221   0.687   4.999  0.4238 -1.3173  1.6235
 6855SOL    MW427154   5.239   0.653   4.921  0.7909  0.0291 -0.1643
 6856SOL     OW27155   4.117   3.250   5.020 -0.0335 -0.4295  0.0562
 6856SOL    HW227156   4.056   3.276   4.950 -0.3172  1.8439  1.0521
 6856SOL    HW327157   4.119   3.154   5.016 -0.2429 -0.4018 -2.8639
 6856SOL    MW427158   4.109   3.241   5.010  0.8013  0.0748 -0.3068
 6857SOL     OW27159   5.805   2.298   3.530  0.1880 -0.0668 -0.4379
 6857SOL    HW227160   5.781   2.372   3.586  2.5608  0.4556  0.0381
 6857SOL    HW327161   5.722   2.258   3.505 -1.1061  1.9166  0.4326
 6857SOL    MW427162   5.791   2.302   3.534  0.3534 -0.2320 -0.0193
 6858SOL     OW27163   0.669   4.134   6.076 -0.2715 -0.2701 -0.3814
 6858SOL    HW227164   0.688   4.212   6.024 -0.4956 -1.0555 -1.7022
 6858SOL    HW327165   0.594   4.160   6.130 -0.0905  0.5530 -0.5044
 6858SOL    MW427166   0.661   4.148   6.076  0.3235  0.1657 -0.3358
 6859SOL     OW27167   4.214   4.804   5.114  0.3194 -0.1917  0.0225
 6859SOL    HW227168   4.265   4.736   5.071 -1.0224 -0.2872 -1.4976
 6859SOL    HW327169   4.184   4.861   5.043  1.0322  1.7631  1.2072
 6859SOL    MW427170   4.216   4.802   5.099 -0.3509 -0.3650 -0.8517
 6860SOL     OW27171   3.447   3.969   4.887 -0.1107 -0.1980 -0.1480
 6860SOL    HW227172   3.481   3.976   4.798  1.7326  0.4081  0.5630
 6860SOL    HW327173   3.366   3.919   4.877 -1.1544  1.6953 -2.4412
 6860SOL    MW427174   3.440   3.963   4.874 -0.6254  0.3660  0.3118
 6861SOL     OW27175   5.289   1.557   5.788  0.2484 -0.4508  0.4473
 6861SOL    HW227176   5.343   1.557   5.868  0.5788  0.6859  0.2456
 6861SOL    HW327177   5.249   1.644   5.787 -0.9133 -0.9712  0.1267
 6861SOL    MW427178   5.291   1.568   5.799 -0.2320  0.0578  0.2240
 6862SOL     OW27179   1.887   3.037   1.651  0.8294  0.2925 -0.0683
 6862SOL    HW227180   1.881   3.092   1.573 -0.1816 -0.0854 -0.2712
 6862SOL    HW327181   1.796   3.023   1.677  1.1433  0.0711  0.9365
 6862SOL    MW427182   1.874   3.042   1.644 -0.4397  0.6686 -0.4428
 6863SOL     OW27183   0.673   4.108   2.094 -0.0249 -0.5376 -0.6334
 6863SOL    HW227184   0.589   4.137   2.060  0.2132  0.0318 -0.7607
 6863SOL    HW327185   0.715   4.065   2.020  0.3709  0.4395 -1.0037
 6863SOL    MW427186   0.668   4.106   2.079  1.0338  0.4159 -0.2494
 6864SOL     OW27187   3.620   6.030   3.699 -0.0342  0.2283 -0.6842
 6864SOL    HW227188   3.600   6.123   3.712  1.4338  0.8216 -2.2367
 6864SOL    HW327189   3.612   6.017   3.605 -2.0950 -1.7408 -0.3052
 6864SOL    MW427190   3.617   6.041   3.689 -0.8657 -0.3461 -0.2128
 6865SOL     OW27191   2.042   4.513   5.863  0.4554  0.5339 -0.6304
 6865SOL    HW227192   2.136   4.512   5.882  0.0947  1.4351  1.4124
 6865SOL    HW327193   2.011   4.429   5.896  0.7314 -0.4987 -2.7829
 6865SOL    MW427194   2.050   4.501   5.870 -0.1147  0.4633  0.1767
 6866SOL     OW27195   2.564   6.165   2.506 -0.1760 -0.0272  0.1691
 6866SOL    HW227196   2.602   6.251   2.486  0.0191  0.3857  2.0912
 6866SOL    HW327197   2.511   6.180   2.584  2.1805 -2.1673  2.3773
 6866SOL    MW427198   2.562   6.179   2.514 -0.0675  0.8075  0.2309
 6867SOL     OW27199   2.124   1.611   4.972 -0.0527 -0.5822  0.5136
 6867SOL    HW227200   2.192   1.677   4.984  1.5936 -1.7895 -1.4681
 6867SOL    HW327201   2.146   1.569   4.889 -2.2514 -2.2077  0.6642
 6867SOL    MW427202   2.136   1.614   4.962  0.0846 -0.0054  0.1421
 6868SOL     OW27203   2.834   3.573   4.897 -0.0250 -0.3062 -0.2717
 6868SOL    HW227204   2.866   3.505   4.838 -0.9758 -1.0971  0.0968
 6868SOL    HW327205   2.779   3.527   4.960  0.1831  0.6580  0.6464
 6868SOL    MW427206   2.831   3.558   4.897  0.1308 -0.0649 -0.1497
 6869SOL     OW27207   0.643   0.909   0.464 -0.2010  0.4369 -0.0664
 6869SOL    HW227208   0.655   0.825   0.509 -1.3628  0.9252  1.2311
 6869SOL    HW327209   0.566   0.896   0.410 -0.2103  0.5749 -0.0860
 6869SOL    MW427210   0.634   0.896   0.463 -0.5042 -0.1991  0.4527
 6870SOL     OW27211   2.031   4.588   4.315  0.3123  0.1224  0.3452
 6870SOL    HW227212   1.946   4.552   4.339  0.3041 -1.3059 -1.5609
 6870SOL    HW327213   2.070   4.521   4.259  2.7926  0.6575  1.2960
 6870SOL    MW427214   2.025   4.574   4.311  0.0052 -0.0677  0.1905
 6871SOL     OW27215   6.034   3.270   4.691 -0.9497  0.2110  0.3270
 6871SOL    HW227216   6.116   3.230   4.664 -1.9844  0.3199 -3.6444
 6871SOL    HW327217   5.981   3.197   4.723  0.3785  0.0465  2.2916
 6871SOL    MW427218   6.038   3.255   4.692 -0.0464 -0.6130  0.0605
 6872SOL     OW27219   3.948   1.094   2.833 -0.1862  0.4327 -0.3230
 6872SOL    HW227220   3.888   1.042   2.887  1.6196 -1.4535 -0.0259
 6872SOL    HW327221   3.974   1.167   2.890 -1.0226  0.4336  0.0745
 6872SOL    MW427222   3.943   1.097   2.848  0.2548  0.2819 -0.2466
 6873SOL     OW27223   6.136   4.935   0.617  0.6210 -0.2564  0.2805
 6873SOL    HW227224   6.229   4.952   0.599  0.3858 -0.2127 -0.9195
 6873SOL    HW327225   6.124   4.966   0.707  1.8603 -0.6345  0.5906
 6873SOL    MW427226   6.147   4.942   0.627  0.2647 -0.1816 -0.1929
 6874SOL     OW27227   2.393   1.347   1.270 -0.1032 -0.3605 -0.2729
 6874SOL    HW227228   2.324   1.397   1.312 -2.3510 -2.3406 -1.3763
 6874SOL    HW327229   2.398   1.383   1.181  0.7736  0.1928 -0.0126
 6874SOL    MW427230   2.385   1.358   1.264  0.6133  0.0632  0.3583
 6875SOL     OW27231   1.644   5.321   2.367  0.5375  0.0880  0.4440
 6875SOL    HW227232   1.594   5.363   2.297  1.4708 -0.5866 -0.6795
 6875SOL    HW327233   1.612   5.362   2.448  0.1122  1.6019 -0.4431
 6875SOL    MW427234   1.633   5.332   2.368  0.0866  0.0704 -0.9291
 6876SOL     OW27235   1.894   1.650   2.076  0.2758 -0.0151  0.2126
 6876SOL    HW227236   1.818   1.708   2.067 -0.7316 -1.1495  0.9910
 6876SOL    HW327237   1.957   1.701   2.127 -0.2534  0.6910  0.1744
 6876SOL    MW427238   1.892   1.665   2.082  0.3966 -0.2611  0.7140
 6877SOL     OW27239   5.802   2.754   3.928  0.1692 -0.6222 -0.1906
 6877SOL    HW227240   5.772   2.755   3.837  1.0210 -1.3694 -0.5071
 6877SOL    HW327241   5.726   2.724   3.978 -0.1311 -0.7901 -0.7362
 6877SOL    MW427242   5.788   2.750   3.922  0.2676 -0.4696  0.3820
 6878SOL     OW27243   4.880   5.114   1.920  0.0179  0.2506  0.3548
 6878SOL    HW227244   4.878   5.209   1.930 -1.0356  0.2180  0.6138
 6878SOL    HW327245   4.789   5.087   1.933  0.3954 -0.8495  0.8369
 6878SOL    MW427246   4.867   5.123   1.923  0.3679 -0.2972 -0.3748
 6879SOL     OW27247   5.007   5.708   0.062 -0.3897 -0.0872  0.2494
 6879SOL    HW227248   5.095   5.674   0.078  0.2753  0.7624 -1.3710
 6879SOL    HW327249   4.999   5.711  -0.034 -1.8980  0.5684  0.3616
 6879SOL    MW427250   5.018   5.704   0.051 -0.4063 -0.6833  0.0179
 6880SOL     OW27251   1.615   3.450   4.152  0.1591 -0.6085 -0.2592
 6880SOL    HW227252   1.543   3.387   4.151  0.9030 -1.4956  0.4564
 6880SOL    HW327253   1.694   3.397   4.159  0.9525  0.3112 -1.6496
 6880SOL    MW427254   1.616   3.435   4.153  0.0809 -0.7375 -0.3587
 6881SOL     OW27255   3.345   0.908   5.957  0.4274  0.3184  0.2201
 6881SOL    HW227256   3.258   0.893   5.919  1.3600 -0.1821 -1.8306
 6881SOL    HW327257   3.347   1.002   5.974 -0.9562  0.1527  1.5333
 6881SOL    MW427258   3.334   0.919   5.954 -0.6059 -0.0427  0.0230
 6882SOL     OW27259   1.076   5.020   2.503  0.3698 -0.1830 -0.3217
 6882SOL    HW227260   1.119   5.062   2.428  1.3983 -1.0336 -0.2394
 6882SOL    HW327261   1.119   4.934   2.510  0.3384 -0.0958  1.2748
 6882SOL    MW427262   1.088   5.014   2.494 -0.0134 -0.4559  0.5736
 6883SOL     OW27263   3.881   5.300   0.339 -0.2542 -0.2333 -0.0305
 6883SOL    HW227264   3.865   5.237   0.409 -0.9928 -0.3582 -0.3068
 6883SOL    HW327265   3.851   5.384   0.374 -0.0784 -0.1871  0.0140
 6883SOL    MW427266   3.875   5.303   0.353  0.5488  0.0724 -0.5306
 6884SOL     OW27267   2.851   3.714   6.262 -0.0406  0.2029 -0.0428
 6884SOL    HW227268   2.813   3.769   6.330 -4.3340 -1.6043 -0.6448
 6884SOL    HW327269   2.912   3.656   6.308 -1.6134  0.0979  2.0418
 6884SOL    MW427270   2.854   3.714   6.277 -0.0232  0.2192 -0.3268
 6885SOL     OW27271   3.581   1.631   5.116 -0.0404 -0.2657 -0.0949
 6885SOL    HW227272   3.522   1.591   5.052 -0.0727  0.1570 -0.3282
 6885SOL    HW327273   3.531   1.703   5.153 -0.0341 -0.5247  0.4361
 6885SOL    MW427274   3.567   1.635   5.113  0.2003  0.3167 -0.3270
 6886SOL     OW27275   4.734   5.738   1.848  0.0280 -0.6315  0.2743
 6886SOL    HW227276   4.669   5.773   1.909  0.1614 -2.3313  1.4663
 6886SOL    HW327277   4.737   5.644   1.868  2.5118 -0.6872 -0.0635
 6886SOL    MW427278   4.725   5.730   1.859 -0.3965  0.0513 -0.1234
 6887SOL     OW27279   6.166   0.691   5.401 -0.5811  0.3160  0.1292
 6887SOL    HW227280   6.249   0.643   5.401 -0.4211  0.5714 -0.6773
 6887SOL    HW327281   6.099   0.625   5.388 -0.5974 -0.0123  1.7000
 6887SOL    MW427282   6.168   0.676   5.400  0.0675 -0.4581  0.3481
 6888SOL     OW27283   1.943   0.085   2.396  0.4005 -0.2579 -0.0860
 6888SOL    HW227284   1.854   0.059   2.418 -1.4921  3.4776 -2.3019
 6888SOL    HW327285   1.965   0.151   2.462  2.2400 -2.1244  1.2966
 6888SOL    MW427286   1.934   0.090   2.408  0.5919  0.1879 -0.4091
 6889SOL     OW27287   1.716   0.999   0.824 -0.5524  0.3574 -0.1060
 6889SOL    HW227288   1.771   1.055   0.769 -0.7716  1.2879  0.6120
 6889SOL    HW327289   1.689   1.054   0.897  1.4977 -1.4089  2.1827
 6889SOL    MW427290   1.720   1.013   0.826  0.3269  0.0222 -0.0943
 6890SOL     OW27291   3.049   3.741   3.771 -0.1742 -0.8646 -0.2429
 6890SOL    HW227292   3.044   3.811   3.706  2.4749 -0.4500 -0.0755
 6890SOL    HW327293   3.080   3.784   3.851 -0.9048 -1.8232  0.5793
 6890SOL    MW427294   3.052   3.756   3.773  0.1887  0.1469 -0.2341
 6891SOL     OW27295   5.239   3.693   2.969 -0.4763  0.4461  0.3846
 6891SOL    HW227296   5.160   3.656   3.008 -0.7971  0.3790 -0.3146
 6891SOL    HW327297   5.272   3.755   3.035  0.1069 -1.0944  1.6024
 6891SOL    MW427298   5.233   3.697   2.983 -0.0055  0.7026 -0.4134
 6892SOL     OW27299   6.072   1.842   3.719 -0.1557  0.3741 -0.4720
 6892SOL    HW227300   5.983   1.810   3.735  0.2735 -0.4655  0.3496
 6892SOL    HW327301   6.091   1.900   3.793  1.1847 -2.1163  1.2716
 6892SOL    MW427302   6.063   1.845   3.731  0.5762  0.3297  0.2511
 6893SOL     OW27303   2.070   3.641   1.302 -0.6059  0.3923 -0.0230
 6893SOL    HW227304   2.015   3.571   1.268 -0.7556  0.4852  0.0295
 6893SOL    HW327305   2.034   3.662   1.388 -0.7813  0.7799 -0.1887
 6893SOL    MW427306   2.058   3.635   1.309  0.6353 -0.3091 -0.2279
 6894SOL     OW27307   2.421   4.894   2.264 -0.0731 -0.7969  0.1201
 6894SOL    HW227308   2.376   4.866   2.185  1.2246  1.7770 -1.6865
 6894SOL    HW327309   2.358   4.877   2.335 -1.8693 -1.8207 -1.6201
 6894SOL    MW427310   2.407   4.888   2.263  0.3689 -0.0969  0.1202
 6895SOL     OW27311   0.179   5.450   2.703 -0.1806 -0.0122 -0.4654
 6895SOL    HW227312   0.084   5.453   2.691 -0.0148  0.3448 -1.8370
 6895SOL    HW327313   0.199   5.357   2.710 -0.8483 -0.0293  2.0507
 6895SOL    MW427314   0.169   5.438   2.702 -0.0577 -0.2920  0.5762
 6896SOL     OW27315   3.580   3.438   2.471 -0.4882 -0.1511 -0.5942
 6896SOL    HW227316   3.517   3.386   2.520 -1.0739  0.4298 -0.7116
 6896SOL    HW327317   3.593   3.390   2.389 -0.4216 -0.5084 -0.3754
 6896SOL    MW427318   3.573   3.425   2.466 -0.3811 -0.4421  0.1398
 6897SOL     OW27319   5.556   1.313   5.978  0.6694 -0.3570  0.1085
 6897SOL    HW227320   5.579   1.282   6.066 -1.7987 -0.5591  0.7475
 6897SOL    HW327321   5.521   1.401   5.992 -0.3435 -0.6384 -0.5564
 6897SOL    MW427322   5.555   1.320   5.991 -0.3815 -0.1396  0.3663
 6898SOL     OW27323   2.979   5.879   5.397  0.3463 -0.1911  0.5919
 6898SOL    HW227324   2.952   5.956   5.446 -0.8534 -0.9901  1.2318
 6898SOL    HW327325   2.907   5.817   5.407  1.0963 -1.2499 -0.2522
 6898SOL    MW427326   2.966   5.881   5.405  0.3192  0.1660 -0.5547
 6899SOL     OW27327   0.450   0.734   0.676  0.0921 -0.1940  0.1813
 6899SOL    HW227328   0.429   0.668   0.741 -0.7865 -1.4439 -1.3068
 6899SOL    HW327329   0.504   0.689   0.612 -0.7274  0.4448 -0.9998
 6899SOL    MW427330   0.455   0.720   0.676 -0.3005  0.4186  0.3582
 6900SOL     OW27331   2.952   1.357   1.423 -0.1503  0.4270 -0.0138
 6900SOL    HW227332   2.958   1.283   1.364 -1.0406 -0.3731  0.8796
 6900SOL    HW327333   2.891   1.418   1.381 -0.4942  0.0273 -0.0935
 6900SOL    MW427334   2.945   1.355   1.410  0.1878  0.0163  0.3322
 6901SOL     OW27335   4.017   0.493   4.813 -0.8431  0.1536  0.1772
 6901SOL    HW227336   3.950   0.429   4.836 -0.7345  0.0065  0.0884
 6901SOL    HW327337   4.062   0.454   4.738 -1.6141  0.9156 -0.7116
 6901SOL    MW427338   4.014   0.479   4.806 -0.0201  0.1359 -0.5184
 6902SOL     OW27339   1.491   5.556   4.597 -0.2750 -0.0708 -0.3617
 6902SOL    HW227340   1.408   5.584   4.559 -0.8188 -1.3015 -0.1253
 6902SOL    HW327341   1.519   5.629   4.652 -0.7607  0.6955 -1.1152
 6902SOL    MW427342   1.484   5.569   4.599 -0.4303 -0.3132  0.0163
 6903SOL     OW27343   5.348   0.380   4.869  0.1634  0.5907 -0.1402
 6903SOL    HW227344   5.332   0.467   4.907 -0.8605 -0.0197  0.8934
 6903SOL    HW327345   5.443   0.374   4.861  0.2847  1.5173  0.4930
 6903SOL    MW427346   5.359   0.391   4.873  0.0562  0.7256 -0.4528
 6904SOL     OW27347   0.057   3.290   3.208 -0.3696  0.0191 -0.2862
 6904SOL    HW227348   0.115   3.228   3.253 -1.7154  0.1056  1.6610
 6904SOL    HW327349   0.097   3.301   3.122  1.0142 -2.0113  0.0162
 6904SOL    MW427350   0.070   3.283   3.202 -0.0051  0.1078  0.2820
 6905SOL     OW27351   2.756   4.344   2.481 -0.1963 -0.5758 -0.3479
 6905SOL    HW227352   2.817   4.356   2.553 -0.3030 -0.5368 -0.2631
 6905SOL    HW327353   2.777   4.414   2.420 -0.5749 -0.1758 -0.0246
 6905SOL    MW427354   2.766   4.355   2.483  0.0934 -0.1141  0.1360
 6906SOL     OW27355   5.745   3.923   1.809  0.3062  0.1185  0.3322
 6906SOL    HW227356   5.757   3.974   1.729 -0.3534 -0.1168  0.0802
 6906SOL    HW327357   5.826   3.938   1.859  0.1471  1.3650  0.2513
 6906SOL    MW427358   5.757   3.932   1.805  0.5067  0.6759 -0.3064
 6907SOL     OW27359   3.952   6.225   5.103 -0.1681 -0.4083  0.9897
 6907SOL    HW227360   3.921   6.308   5.138  0.0610  0.1035  0.0059
 6907SOL    HW327361   3.934   6.230   5.009  0.2657 -1.2796  0.8517
 6907SOL    MW427362   3.946   6.237   5.095 -0.6705  0.7424  0.1796
 6908SOL     OW27363   2.999   1.450   2.760 -0.5741 -0.0714 -0.0943
 6908SOL    HW227364   2.904   1.439   2.755 -0.4688 -1.0760  0.0002
 6908SOL    HW327365   3.031   1.426   2.674 -0.1828 -2.3461  0.6243
 6908SOL    MW427366   2.990   1.445   2.748 -0.3686 -0.7298 -0.3317
 6909SOL     OW27367   3.242   4.957   0.790 -0.2766  0.4621  0.4892
 6909SOL    HW227368   3.226   5.051   0.788  0.4358  0.5888 -1.3473
 6909SOL    HW327369   3.181   4.921   0.726  0.1723 -0.1998  0.4230
 6909SOL    MW427370   3.232   4.965   0.781 -0.5037 -0.5649 -0.7764
 6910SOL     OW27371   3.933   2.315   1.829  0.0653  0.1442 -0.1989
 6910SOL    HW227372   3.937   2.265   1.910  0.3350  0.1715 -0.1946
 6910SOL    HW327373   4.024   2.341   1.812  0.0070  0.1624 -0.4937
 6910SOL    MW427374   3.945   2.312   1.837  0.0330 -0.4607  0.1691
 6911SOL     OW27375   2.134   4.413   5.241 -0.0703  0.1266  0.4038
 6911SOL    HW227376   2.118   4.322   5.266  1.2333  0.3763  2.4529
 6911SOL    HW327377   2.049   4.456   5.246 -0.3080 -0.4588  2.0737
 6911SOL    MW427378   2.121   4.407   5.245  0.2964  0.4486 -0.2425
 6912SOL     OW27379   0.652   2.768   3.097 -0.1834  0.0477 -0.2182
 6912SOL    HW227380   0.574   2.742   3.049  0.0751 -1.2773  0.0519
 6912SOL    HW327381   0.722   2.769   3.032 -0.3143  0.7608 -0.3612
 6912SOL    MW427382   0.651   2.765   3.082 -0.2716  0.3689  0.0087
 6913SOL     OW27383   5.005   4.613   3.142  0.0500 -0.1595 -0.1221
 6913SOL    HW227384   4.983   4.627   3.234 -0.8565 -0.2662 -0.3215
 6913SOL    HW327385   4.939   4.552   3.109 -0.0080  0.3655 -1.0109
 6913SOL    MW427386   4.994   4.607   3.150  0.4937  0.2151  0.3518
 6914SOL     OW27387   3.164   5.553   0.145  0.0575 -0.2484 -0.3008
 6914SOL    HW227388   3.251   5.559   0.184 -0.8261 -1.4611  2.0454
 6914SOL    HW327389   3.111   5.616   0.194 -0.8914 -1.1664 -0.1091
 6914SOL    MW427390   3.169   5.562   0.157 -0.4352  0.2093  0.0813
 6915SOL     OW27391   0.644   3.338   1.338 -0.0630 -0.0081  0.1783
 6915SOL    HW227392   0.596   3.345   1.421 -1.6085 -2.7154 -0.3727
 6915SOL    HW327393   0.589   3.282   1.283  2.6735 -1.4347 -1.3294
 6915SOL    MW427394   0.631   3.332   1.342  0.5294 -0.3812 -0.6429
 6916SOL     OW27395   0.918   4.963   2.272 -0.7100 -0.1994 -0.2588
 6916SOL    HW227396   0.919   4.872   2.242 -0.4760 -0.0251 -0.8074
 6916SOL    HW327397   0.975   4.964   2.348 -0.4120 -0.4449 -0.4758
 6916SOL    MW427398   0.926   4.951   2.278  0.4279 -0.3747  0.1395
 6917SOL     OW27399   2.467   4.773   0.008  0.5449 -0.2263 -0.0406
 6917SOL    HW227400   2.494   4.754   0.098  1.0063 -0.8845 -0.3018
 6917SOL    HW327401   2.501   4.861  -0.009 -0.0112  0.1179  0.6007
 6917SOL    MW427402   2.475   4.782   0.018  0.1483  0.1415 -0.0263
 6918SOL     OW27403   2.790   0.965   1.068 -0.2870 -0.7675 -0.1660
 6918SOL    HW227404   2.700   0.995   1.075 -0.0744 -0.3575  0.9842
 6918SOL    HW327405   2.783   0.871   1.052 -0.9219 -0.6843 -0.3869
 6918SOL    MW427406   2.777   0.956   1.067  0.3390  0.8935  0.6626
 6919SOL     OW27407   1.147   2.583   2.112  0.6125 -0.2113  0.5222
 6919SOL    HW227408   1.221   2.643   2.115 -0.0352  0.6725 -0.4174
 6919SOL    HW327409   1.105   2.601   2.028 -1.1287 -0.1277  1.3595
 6919SOL    MW427410   1.151   2.593   2.101  0.1718 -0.3590  0.5507
 6920SOL     OW27411   1.199   5.780   3.649 -0.2634  0.3252  1.0945
 6920SOL    HW227412   1.182   5.808   3.559 -2.3628 -1.3554  0.8887
 6920SOL    HW327413   1.278   5.828   3.674  1.1368 -0.0819 -2.0456
 6920SOL    MW427414   1.207   5.790   3.640  0.7658 -0.3346 -0.4184
 6921SOL     OW27415   2.830   5.993   3.297 -0.2896  0.1210 -0.3973
 6921SOL    HW227416   2.788   5.949   3.222  1.6438  0.7960 -1.9803
 6921SOL    HW327417   2.767   5.984   3.368 -2.0713 -0.9013 -1.9891
 6921SOL    MW427418   2.816   5.986   3.296 -0.2526  0.0331 -0.2906
 6922SOL     OW27419   1.469   0.024   1.426  0.6109 -0.1464 -0.2713
 6922SOL    HW227420   1.375   0.021   1.444  0.9572  0.5026  2.0590
 6922SOL    HW327421   1.487  -0.054   1.374 -0.8097 -1.8210  1.5915
 6922SOL    MW427422   1.459   0.013   1.422 -0.6882 -0.0197  0.1008
 6923SOL     OW27423   5.560   2.827   2.844 -0.1715 -0.1855  0.0662
 6923SOL    HW227424   5.509   2.903   2.815 -0.9399 -0.9304 -0.6168
 6923SOL    HW327425   5.644   2.836   2.800 -0.0148  0.6028  0.5078
 6923SOL    MW427426   5.564   2.838   2.835 -0.4091  0.3660  0.3322
 6924SOL     OW27427   2.547   1.590   5.450 -0.1628 -0.9323  0.7375
 6924SOL    HW227428   2.567   1.499   5.471  1.4758 -0.9694 -0.6875
 6924SOL    HW327429   2.498   1.586   5.368  0.4098 -0.5290  0.3653
 6924SOL    MW427430   2.543   1.577   5.442  0.1148 -0.4192 -0.3885
 6925SOL     OW27431   4.918   0.027   0.844 -0.3821 -0.6553  0.1413
 6925SOL    HW227432   4.913  -0.065   0.870 -0.1088 -0.7185 -0.0351
 6925SOL    HW327433   4.969   0.027   0.763  0.9688 -0.1851  0.9596
 6925SOL    MW427434   4.924   0.015   0.837  0.1869  0.3648  0.1452
 6926SOL     OW27435   5.710   5.310   1.186  0.4557  0.1273 -0.8032
 6926SOL    HW227436   5.617   5.310   1.205  0.3488  0.4061 -1.3069
 6926SOL    HW327437   5.719   5.254   1.109  0.9519 -1.4296  0.3299
 6926SOL    MW427438   5.699   5.303   1.178  0.2221 -0.0867  0.3328
 6927SOL     OW27439   2.539   6.079   1.251 -0.3810  0.5782  0.2292
 6927SOL    HW227440   2.623   6.121   1.236  1.7879 -2.2046  3.0262
 6927SOL    HW327441   2.511   6.112   1.337 -0.5548 -0.7187  0.6973
 6927SOL    MW427442   2.546   6.089   1.261 -0.1102 -0.2546 -0.5528
 6928SOL     OW27443   3.664   6.244   2.794 -0.2757 -0.2643  0.3976
 6928SOL    HW227444   3.722   6.288   2.857  0.7179 -0.3343 -0.4283
 6928SOL    HW327445   3.593   6.307   2.778  1.7008  1.6865 -1.6535
 6928SOL    MW427446   3.663   6.258   2.800 -0.2164  0.5001  0.2709
 6929SOL     OW27447   2.898   4.405   5.894  0.1850  0.4541  0.6264
 6929SOL    HW227448   2.871   4.475   5.954 -0.7923  0.2299  0.4556
 6929SOL    HW327449   2.817   4.361   5.870  0.8341 -1.0014  1.0310
 6929SOL    MW427450   2.884   4.409   5.899  0.6044 -0.0393 -0.1539
 6930SOL     OW27451   0.596   5.656   3.961  0.8540  0.1148 -0.0934
 6930SOL    HW227452   0.550   5.716   3.903  0.3766 -0.3011 -0.1486
 6930SOL    HW327453   0.593   5.572   3.915 -2.4534 -1.0639  1.9649
 6930SOL    MW427454   0.590   5.653   3.947  0.1702 -0.1081 -0.0298
 6931SOL     OW27455   1.443   4.506   6.312  0.0279  0.3438 -0.8588
 6931SOL    HW227456   1.529   4.478   6.343 -0.1573 -1.5793 -1.8721
 6931SOL    HW327457   1.448   4.601   6.310  1.7732  0.3204  0.0801
 6931SOL    MW427458   1.455   4.515   6.316 -0.3380  0.3789  0.1955
 6932SOL     OW27459   0.535   3.521   3.175  0.3871 -0.1088 -0.8578
 6932SOL    HW227460   0.521   3.505   3.269 -1.3450 -0.2244 -1.0979
 6932SOL    HW327461   0.523   3.435   3.134 -2.5358  0.4927 -1.4989
 6932SOL    MW427462   0.532   3.508   3.182 -0.2893 -0.0894  0.0578
 6933SOL     OW27463   1.760   4.807   0.901  0.2613 -0.1732 -0.1464
 6933SOL    HW227464   1.733   4.877   0.960 -0.7251 -0.1929 -0.5548
 6933SOL    HW327465   1.810   4.852   0.833 -0.5425  0.1836 -0.5193
 6933SOL    MW427466   1.763   4.822   0.900  0.5364 -0.3400  0.7794
 6934SOL     OW27467   4.144   1.332   6.235 -0.4270 -0.4191 -0.2410
 6934SOL    HW227468   4.238   1.342   6.248 -0.6141  1.9339 -0.2328
 6934SOL    HW327469   4.107   1.336   6.323 -0.6080 -0.1516 -0.3281
 6934SOL    MW427470   4.151   1.334   6.248  0.3245  0.1426  0.7803
 6935SOL     OW27471   4.111   1.792   0.175 -0.1091 -0.0949 -0.0777
 6935SOL    HW227472   4.117   1.880   0.213 -2.4631 -0.1727  0.6636
 6935SOL    HW327473   4.140   1.803   0.085  0.7016  1.2060  0.3074
 6935SOL    MW427474   4.115   1.805   0.168 -0.3285  0.2706 -0.3275
 6936SOL     OW27475   4.812   0.111   2.853  0.8056 -0.5931  0.1888
 6936SOL    HW227476   4.884   0.097   2.915  1.1509 -3.0491 -0.6615
 6936SOL    HW327477   4.839   0.064   2.774 -1.6196 -1.3811 -0.2380
 6936SOL    MW427478   4.825   0.103   2.851 -0.0979  0.0881 -0.6210
 6937SOL     OW27479   6.377   4.278   3.429  0.7593 -0.1919  0.1017
 6937SOL    HW227480   6.386   4.228   3.348  0.0023 -1.2368  0.6380
 6937SOL    HW327481   6.465   4.279   3.466  0.8804 -0.6952 -0.1635
 6937SOL    MW427482   6.390   4.272   3.423  0.5551  0.1588 -0.0351
 6938SOL     OW27483   1.107   0.568   0.345 -0.0214 -0.0925 -0.3186
 6938SOL    HW227484   1.041   0.577   0.277  0.3259 -0.0781 -0.6591
 6938SOL    HW327485   1.119   0.657   0.379 -0.3771 -0.1419 -0.0656
 6938SOL    MW427486   1.100   0.581   0.340  0.4513  0.1288  0.0484
 6939SOL     OW27487   5.922   0.935   2.951 -0.0636 -0.3272 -0.1259
 6939SOL    HW227488   5.986   0.871   2.982 -3.2807 -2.6708  2.4549
 6939SOL    HW327489   5.939   1.013   3.004  0.5265 -0.9674  0.6550
 6939SOL    MW427490   5.932   0.937   2.962  0.4622 -0.1559  0.0122
 6940SOL     OW27491   3.886   6.344   2.966 -0.6408 -0.2297  0.7056
 6940SOL    HW227492   3.918   6.310   3.049 -0.2786  1.6032  1.3677
 6940SOL    HW327493   3.946   6.415   2.944  0.0487 -1.4949 -1.8106
 6940SOL    MW427494   3.898   6.349   2.974  0.5226  0.8236 -0.3576
 6941SOL     OW27495   4.699   4.434   1.222 -0.1721  0.1014  0.5986
 6941SOL    HW227496   4.698   4.349   1.179 -0.6035  0.9803 -1.2866
 6941SOL    HW327497   4.791   4.459   1.224 -0.1322 -0.0113  0.2715
 6941SOL    MW427498   4.711   4.426   1.216  0.4440 -0.9601  0.3400
 6942SOL     OW27499   3.777   3.565   4.480  0.2872  0.0356  0.2922
 6942SOL    HW227500   3.706   3.501   4.490  1.4925 -1.1277  1.7568
 6942SOL    HW327501   3.830   3.530   4.409  0.1249  0.2190  0.0780
 6942SOL    MW427502   3.774   3.552   4.472 -0.0442  0.3096 -0.0164
 6943SOL     OW27503   4.762   4.580   4.043  0.0439  0.2826 -0.5162
 6943SOL    HW227504   4.718   4.505   4.084  0.9979  0.2500  0.4829
 6943SOL    HW327505   4.756   4.649   4.108  0.5199  0.6077 -0.8150
 6943SOL    MW427506   4.755   4.579   4.057  0.1945  0.0103 -0.9033
 6944SOL     OW27507   2.323   3.561   1.368  0.2259  0.5653 -0.8302
 6944SOL    HW227508   2.351   3.630   1.428 -0.3528 -0.2546  0.4276
 6944SOL    HW327509   2.231   3.580   1.350 -0.6651 -1.1362  1.4542
 6944SOL    MW427510   2.315   3.572   1.374  0.6247 -0.0727 -0.4924
 6945SOL     OW27511   0.682   0.229   3.995  0.9495  0.1177 -0.3173
 6945SOL    HW227512   0.673   0.176   4.074 -0.2333  1.1149  0.2543
 6945SOL    HW327513   0.763   0.278   4.008  0.8560  0.1411  0.1922
 6945SOL    MW427514   0.692   0.228   4.007 -0.4268  0.4475 -0.4393
 6946SOL     OW27515   1.606   4.739   2.826  0.5968  0.3244  0.5018
 6946SOL    HW227516   1.678   4.802   2.823  1.5703 -0.7171  1.3329
 6946SOL    HW327517   1.648   4.654   2.816 -0.6439 -0.2467 -0.0595
 6946SOL    MW427518   1.621   4.736   2.824  0.2655  0.1294  0.7412
 6947SOL     OW27519   5.996   1.914   3.232 -0.2168 -0.4371 -0.4479
 6947SOL    HW227520   6.071   1.861   3.256 -1.6899 -1.9546  1.0928
 6947SOL    HW327521   5.967   1.954   3.314 -2.0594 -1.2290 -0.6647
 6947SOL    MW427522   6.002   1.912   3.246 -0.1440 -0.6835 -0.4691
 6948SOL     OW27523   4.340   3.909   5.455 -0.7592 -0.3565 -0.1115
 6948SOL    HW227524   4.407   3.919   5.523 -1.1965  1.9500  0.0414
 6948SOL    HW327525   4.383   3.937   5.374 -0.6677 -1.7566 -0.5725
 6948SOL    MW427526   4.354   3.914   5.453 -0.0564  0.7110 -0.3310
 6949SOL     OW27527   1.706   4.257   5.986  0.1253 -0.0161 -0.2374
 6949SOL    HW227528   1.797   4.226   5.983 -0.2333 -1.4705  1.7661
 6949SOL    HW327529   1.654   4.178   5.973 -0.8829  0.8407 -1.5917
 6949SOL    MW427530   1.711   4.242   5.984  0.2338  0.1551 -0.5909
 6950SOL     OW27531   6.118   3.404   3.796  0.2116  0.1773 -0.1311
 6950SOL    HW227532   6.162   3.478   3.753 -0.4976  1.0486  0.6178
 6950SOL    HW327533   6.029   3.407   3.762  0.2203 -0.4546 -0.2231
 6950SOL    MW427534   6.112   3.414   3.786 -0.0337 -0.1316  0.1046
 6951SOL     OW27535   1.430   0.078   2.381  0.0114 -0.3767 -0.6446
 6951SOL    HW227536   1.386   0.161   2.399 -1.8691 -1.4720  0.0817
 6951SOL    HW327537   1.439   0.076   2.286  1.1844  1.1760 -0.5853
 6951SOL    MW427538   1.425   0.089   2.371 -0.5475  0.3191 -0.0936
 6952SOL     OW27539   5.891   4.950   5.007  0.3751 -0.2490 -0.0575
 6952SOL    HW227540   5.824   4.888   5.036  0.6519 -0.2097  0.6810
 6952SOL    HW327541   5.961   4.942   5.071  0.2112  1.1604  0.3332
 6952SOL    MW427542   5.891   4.941   5.019  0.5393 -0.7679 -0.2227
 6953SOL     OW27543   3.325   1.336   5.732 -0.2063 -0.0901 -0.2582
 6953SOL    HW227544   3.273   1.270   5.686  0.5378 -0.7242 -0.2113
 6953SOL    HW327545   3.261   1.398   5.765 -0.7622  0.6618 -2.5277
 6953SOL    MW427546   3.310   1.335   5.730  0.3535 -0.4409 -0.3099
 6954SOL     OW27547   1.761   3.862   5.685 -0.4041 -0.4574 -0.2928
 6954SOL    HW227548   1.803   3.788   5.641  1.4842  0.7386 -0.5975
 6954SOL    HW327549   1.667   3.848   5.671  0.0156 -1.5468 -2.3510
 6954SOL    MW427550   1.754   3.851   5.677  0.2536  0.2967  0.0684
 6955SOL     OW27551   4.990   1.741   4.527 -0.0757 -0.6247  0.4336
 6955SOL    HW227552   5.039   1.679   4.582  0.2917  0.2883  1.1485
 6955SOL    HW327553   5.017   1.719   4.438  0.4631 -1.1447  0.7174
 6955SOL    MW427554   5.000   1.730   4.522 -0.3778  0.3690  0.2660
 6956SOL     OW27555   2.018   0.384   1.980  0.0509 -0.4433  0.1928
 6956SOL    HW227556   2.035   0.390   2.074  0.9480  2.4846 -0.0496
 6956SOL    HW327557   1.922   0.382   1.972 -0.0252 -0.7623  1.1577
 6956SOL    MW427558   2.007   0.385   1.991 -0.1191 -0.0512  0.6166
 6957SOL     OW27559   5.785   0.932   6.243 -0.1867 -0.4317  0.1225
 6957SOL    HW227560   5.798   0.905   6.152 -1.8380 -1.8789  0.2572
 6957SOL    HW327561   5.744   0.856   6.284 -0.9649  0.7781  1.6770
 6957SOL    MW427562   5.781   0.918   6.236  0.4519  0.3270  0.2892
 6958SOL     OW27563   0.621   4.413   5.475 -0.0684  0.4138  0.1106
 6958SOL    HW227564   0.638   4.462   5.556  1.1015  1.3411 -0.6700
 6958SOL    HW327565   0.571   4.336   5.504  0.0366  0.8955  1.6659
 6958SOL    MW427566   0.616   4.409   5.490 -0.6076  0.4688  0.8222
 6959SOL     OW27567   6.254   0.871   4.564 -0.0309  0.3447 -0.7145
 6959SOL    HW227568   6.223   0.781   4.567 -0.9660  0.6660 -0.0844
 6959SOL    HW327569   6.220   0.906   4.482 -0.5271  0.4019 -0.4919
 6959SOL    MW427570   6.245   0.864   4.554  0.7795 -0.0923 -0.4581
 6960SOL     OW27571   0.526   4.452   6.343 -0.5049  0.3672 -0.4625
 6960SOL    HW227572   0.617   4.473   6.323 -1.1470  3.1999 -0.8712
 6960SOL    HW327573   0.502   4.513   6.412 -2.0044 -0.5458 -0.1479
 6960SOL    MW427574   0.535   4.463   6.349 -0.3074 -0.4740  0.4216
 6961SOL     OW27575   3.838   1.365   4.196 -0.3280  0.7624 -0.5517
 6961SOL    HW227576   3.832   1.388   4.289 -2.6930  0.4098 -0.5496
 6961SOL    HW327577   3.780   1.289   4.187  2.3147 -1.2965 -1.7556
 6961SOL    MW427578   3.830   1.358   4.207  0.3039  0.1565  0.1228
 6962SOL     OW27579   4.883   0.233   5.076 -0.2641 -0.0305  0.1701
 6962SOL    HW227580   4.937   0.217   4.999  1.7859 -1.0744  1.7359
 6962SOL    HW327581   4.945   0.256   5.145 -1.7411 -1.6734  2.1721
 6962SOL    MW427582   4.898   0.234   5.075 -0.2646  0.5912  0.7303
 6963SOL     OW27583   5.166   4.212   1.491 -0.1387 -0.1675 -0.0784
 6963SOL    HW227584   5.241   4.254   1.532  1.2599 -1.4258 -1.2193
 6963SOL    HW327585   5.192   4.199   1.400 -1.6717 -0.7980 -0.4654
 6963SOL    MW427586   5.180   4.216   1.485  0.7465 -0.5522  0.1253
 6964SOL     OW27587   3.386   3.265   2.529 -0.0647  0.2886  0.0698
 6964SOL    HW227588   3.339   3.204   2.471 -0.8410  0.0256  0.9466
 6964SOL    HW327589   3.316   3.312   2.574  0.5364  0.8054  0.4669
 6964SOL    MW427590   3.370   3.263   2.527  0.0980  0.1765 -0.6243
 6965SOL     OW27591   4.516   1.326   2.412 -0.0633 -0.4705  0.2670
 6965SOL    HW227592   4.579   1.360   2.475 -2.2242  3.1162  0.7998
 6965SOL    HW327593   4.475   1.404   2.375  0.1282 -2.4179 -4.7261
 6965SOL    MW427594   4.519   1.341   2.416 -0.1752 -0.2743 -0.6143
 6966SOL     OW27595   6.142   4.498   1.477 -0.3652  0.5288 -0.2314
 6966SOL    HW227596   6.230   4.484   1.443  1.1157  0.0383  3.3224
 6966SOL    HW327597   6.121   4.588   1.455  0.9991  0.6401 -1.1851
 6966SOL    MW427598   6.151   4.508   1.470 -0.4367 -0.0402  0.4306
 6967SOL     OW27599   3.711   0.012   4.233 -0.2546  0.0133 -0.1994
 6967SOL    HW227600   3.798   0.051   4.222 -1.3177  2.7945  0.4487
 6967SOL    HW327601   3.720  -0.043   4.311  0.7279  1.0144  0.4309
 6967SOL    MW427602   3.724   0.010   4.242 -0.0040 -0.0596 -0.4403
 6968SOL     OW27603   6.283   4.995   2.042  0.1664  0.2089 -0.4643
 6968SOL    HW227604   6.346   4.925   2.028 -1.0878 -0.6836 -2.0474
 6968SOL    HW327605   6.297   5.054   1.968  0.7988  1.3456  0.5300
 6968SOL    MW427606   6.293   4.993   2.030 -0.5274  0.1498 -0.0690
 6969SOL     OW27607   2.453   3.174   4.586  0.4577  0.1934  0.0376
 6969SOL    HW227608   2.379   3.207   4.535  1.0023 -0.3272 -1.1063
 6969SOL    HW327609   2.430   3.195   4.677 -0.1241  1.9329 -0.4721
 6969SOL    MW427610   2.441   3.181   4.592  0.2651 -0.4077 -0.4112
 6970SOL     OW27611   4.651   0.889   3.297  0.1325  0.5244  0.1662
 6970SOL    HW227612   4.693   0.822   3.350 -0.0037  0.4656  0.2017
 6970SOL    HW327613   4.624   0.844   3.217  0.2039  0.5787  0.1116
 6970SOL    MW427614   4.653   0.875   3.293  0.3606 -0.0907  0.6231
 6971SOL     OW27615   2.068   6.077   5.342  0.6240 -0.2760  0.2723
 6971SOL    HW227616   1.997   6.028   5.301  2.2553 -1.0478 -1.7962
 6971SOL    HW327617   2.060   6.165   5.305 -0.3742  0.2105  1.5517
 6971SOL    MW427618   2.057   6.082   5.332 -0.1879  0.2256  0.4887
 6972SOL     OW27619   0.102   3.398   4.359 -0.2331 -0.2265  0.2994
 6972SOL    HW227620   0.075   3.487   4.383  0.6863  0.0092  0.5197
 6972SOL    HW327621   0.108   3.400   4.263  1.6752  0.5580  0.3893
 6972SOL    MW427622   0.100   3.410   4.349  0.0164 -0.5546  0.2160
 6973SOL     OW27623   2.374   4.055   3.879  0.4216  0.2035 -0.7885
 6973SOL    HW227624   2.298   4.008   3.848 -0.5475  2.3729 -1.9489
 6973SOL    HW327625   2.354   4.147   3.861  1.5284  1.2828  2.6989
 6973SOL    MW427626   2.362   4.061   3.873  0.0580 -0.2068  0.7401
 6974SOL     OW27627   3.612   4.708   5.227  0.5468  0.1003 -0.1014
 6974SOL    HW227628   3.645   4.619   5.214 -0.4819 -0.2748 -0.2401
 6974SOL    HW327629   3.523   4.706   5.190  0.7856  1.3919 -0.7712
 6974SOL    MW427630   3.604   4.696   5.221 -0.1475  0.0951 -0.2895
 6975SOL     OW27631   5.526   6.092   4.359 -0.0932  0.6970 -0.3074
 6975SOL    HW227632   5.599   6.088   4.297 -1.5784 -1.0829 -2.0825
 6975SOL    HW327633   5.518   6.003   4.392 -0.8291  1.1111  0.6561
 6975SOL    MW427634   5.535   6.080   4.355  0.1281 -0.2320 -0.1333
 6976SOL     OW27635   3.868   2.145   2.038 -0.1375 -0.3472  0.5283
 6976SOL    HW227636   3.774   2.130   2.048 -0.2536  0.1739  0.2652
 6976SOL    HW327637   3.904   2.059   2.014 -0.8546 -0.1344 -1.4345
 6976SOL    MW427638   3.861   2.132   2.036 -0.1405 -0.1131 -0.1045
 6977SOL     OW27639   3.096   6.240   5.677 -0.0266 -0.5695  0.1323
 6977SOL    HW227640   3.189   6.221   5.669 -0.2252 -1.5283 -0.0576
 6977SOL    HW327641   3.064   6.245   5.587  0.0401  0.9077  0.1649
 6977SOL    MW427642   3.104   6.238   5.664 -0.0229  0.1014  0.2788
 6978SOL     OW27643   1.211   5.673   4.108 -0.4163 -0.1569 -0.1006
 6978SOL    HW227644   1.287   5.704   4.059 -0.6445 -0.6968 -0.8215
 6978SOL    HW327645   1.137   5.720   4.070 -0.5631 -0.3661 -0.0755
 6978SOL    MW427646   1.211   5.683   4.097  0.5718  0.5736  0.2526
 6979SOL     OW27647   1.001   2.417   0.606  0.0550 -0.2942 -0.3610
 6979SOL    HW227648   0.924   2.381   0.649  0.3966 -1.5109 -0.6985
 6979SOL    HW327649   0.981   2.412   0.512 -0.4040  1.6690 -0.4081
 6979SOL    MW427650   0.989   2.411   0.599  0.0993 -0.8177  0.2592
 6980SOL     OW27651   0.149   5.826   4.832 -0.9158  0.2316  0.2464
 6980SOL    HW227652   0.237   5.852   4.807 -1.3839  1.2787 -0.3388
 6980SOL    HW327653   0.155   5.731   4.844  0.4507  0.3844  0.9264
 6980SOL    MW427654   0.161   5.817   4.830  0.1780 -0.2608 -0.0911
 6981SOL     OW27655   4.348   1.129   0.742  0.1240  0.5560 -0.2836
 6981SOL    HW227656   4.415   1.110   0.678  1.2072 -0.1898  1.0194
 6981SOL    HW327657   4.311   1.044   0.766  0.1517  0.7526  0.5066
 6981SOL    MW427658   4.352   1.115   0.737  0.1058  0.5496 -0.0528
 6982SOL     OW27659   5.235   3.825   4.355  0.4164  0.4963  0.2135
 6982SOL    HW227660   5.323   3.791   4.339  0.4597  1.5326 -2.1789
 6982SOL    HW327661   5.250   3.904   4.408  0.5991 -0.9344  2.4555
 6982SOL    MW427662   5.249   3.831   4.360 -0.3705 -0.3508  0.0490
 6983SOL     OW27663   1.985   5.943   3.468  0.5935  0.7093 -0.3991
 6983SOL    HW227664   2.044   5.875   3.500 -0.1876  0.7481  1.2282
 6983SOL    HW327665   2.020   5.966   3.382  1.9739 -0.4110 -0.1830
 6983SOL    MW427666   1.998   5.937   3.461 -0.0441 -0.0824  0.0571
 6984SOL     OW27667   2.644   1.750   3.159 -0.0898 -0.3967  0.3866
 6984SOL    HW227668   2.674   1.744   3.250 -1.7384 -0.9082  0.9310
 6984SOL    HW327669   2.662   1.663   3.122 -2.6928 -1.4390  1.3470
 6984SOL    MW427670   2.650   1.738   3.166 -0.3187  0.1411  0.0413
 6985SOL     OW27671   4.241   1.082   2.204 -0.3791 -0.2237 -0.4844
 6985SOL    HW227672   4.149   1.093   2.227  0.0311  1.2633  0.6135
 6985SOL    HW327673   4.258   1.152   2.141 -0.1171 -0.8443 -1.1191
 6985SOL    MW427674   4.231   1.093   2.199  1.5524  0.0255 -0.3034
 6986SOL     OW27675   1.034   4.547   2.468 -0.1863 -0.5925 -0.2174
 6986SOL    HW227676   1.090   4.624   2.483 -1.0711  0.0430 -0.1183
 6986SOL    HW327677   0.993   4.531   2.553  0.3065 -1.4490 -0.1260
 6986SOL    MW427678   1.036   4.555   2.481 -0.1758 -0.1429 -0.4525
 6987SOL     OW27679   4.244   2.002   4.777  0.0676 -0.4389  0.2852
 6987SOL    HW227680   4.308   2.028   4.843  0.5304  0.5638 -0.5385
 6987SOL    HW327681   4.187   1.940   4.823  1.0397 -0.6248  1.3047
 6987SOL    MW427682   4.245   1.997   4.792 -0.1746 -0.1305 -0.0882
 6988SOL     OW27683   3.105   5.676   4.994  0.1526 -0.2032  0.1838
 6988SOL    HW227684   3.026   5.694   4.942  0.0447 -0.3002  0.3132
 6988SOL    HW327685   3.105   5.745   5.060 -1.3327 -1.7503  1.9175
 6988SOL    MW427686   3.094   5.688   4.996  0.1738 -0.1366  0.1872
 6989SOL     OW27687   3.144   4.615   3.215  0.3571 -0.5642 -0.5819
 6989SOL    HW227688   3.194   4.551   3.165 -0.3994 -1.4875 -0.1831
 6989SOL    HW327689   3.209   4.656   3.272  1.0088 -0.3422 -1.4593
 6989SOL    MW427690   3.159   4.612   3.216 -0.0389 -0.4435 -0.3293
 6990SOL     OW27691   1.257   3.880   0.379  0.1996  0.1126  0.7041
 6990SOL    HW227692   1.176   3.828   0.376  0.7891 -0.8181  0.4299
 6990SOL    HW327693   1.321   3.826   0.333  0.5903  1.5462 -0.5020
 6990SOL    MW427694   1.255   3.866   0.372 -0.5078  0.4390 -0.3132
 6991SOL     OW27695   1.443   3.821   6.408  0.0319 -0.5917 -0.7431
 6991SOL    HW227696   1.395   3.744   6.376 -2.0862 -0.1041  1.0131
 6991SOL    HW327697   1.414   3.832   6.498 -0.1119  2.5230 -1.0598
 6991SOL    MW427698   1.433   3.812   6.415  0.1630  0.0835  0.3151
 6992SOL     OW27699   3.377   4.317   2.132  1.2474  0.3497 -0.0533
 6992SOL    HW227700   3.417   4.403   2.148  3.0643 -0.2819 -0.8740
 6992SOL    HW327701   3.287   4.326   2.163  1.5199  2.4079  0.2933
 6992SOL    MW427702   3.371   4.329   2.138  0.0241  0.4860 -0.3775
 6993SOL     OW27703   3.623   1.940   3.194  0.2216  0.3183  0.3390
 6993SOL    HW227704   3.682   1.960   3.122  1.1102  0.0465  0.9814
 6993SOL    HW327705   3.551   2.004   3.184  0.4532  0.4529 -0.6187
 6993SOL    MW427706   3.621   1.951   3.183 -0.5925 -1.0140 -0.6258
 6994SOL     OW27707   2.537   4.110   3.227 -0.2701  0.2044 -0.2944
 6994SOL    HW227708   2.457   4.058   3.218 -1.6806  1.9433  1.4939
 6994SOL    HW327709   2.557   4.139   3.138 -1.8353  0.0457 -0.7214
 6994SOL    MW427710   2.529   4.107   3.214  0.2485  0.0639  0.6201
 6995SOL     OW27711   5.262   5.484   2.588 -0.0776 -0.2043  0.5043
 6995SOL    HW227712   5.270   5.397   2.628 -1.0862 -0.5941 -0.1023
 6995SOL    HW327713   5.183   5.521   2.627 -0.4257 -0.1251 -0.2574
 6995SOL    MW427714   5.253   5.477   2.599  0.4964  0.1301 -0.8125
 6996SOL     OW27715   0.854   3.730   3.368  0.3698  0.1496 -0.0289
 6996SOL    HW227716   0.778   3.788   3.379  0.3438  0.1949 -0.4029
 6996SOL    HW327717   0.837   3.685   3.285  0.3482 -0.4638  0.3034
 6996SOL    MW427718   0.841   3.732   3.358 -0.4037 -0.4968 -0.0401
 6997SOL     OW27719   4.129   4.016   4.198  0.1820 -0.2847 -0.0031
 6997SOL    HW227720   4.151   3.928   4.228  0.9906  0.2736  1.1552
 6997SOL    HW327721   4.214   4.058   4.182 -0.2133 -0.3143 -2.4971
 6997SOL    MW427722   4.143   4.010   4.200  0.0107 -0.2378  0.0208
 6998SOL     OW27723   2.467   3.766   4.725  0.3155 -0.2498  0.2384
 6998SOL    HW227724   2.547   3.818   4.723 -0.0618  0.3375  0.2583
 6998SOL    HW327725   2.417   3.797   4.650  0.3449 -1.0087 -0.1091
 6998SOL    MW427726   2.471   3.777   4.715 -0.5886  0.5075 -0.0615
 6999SOL     OW27727   2.368   1.723   1.170 -0.1748 -0.0228 -0.5536
 6999SOL    HW227728   2.412   1.808   1.175 -1.1161  0.4306  0.4670
 6999SOL    HW327729   2.276   1.742   1.189 -0.8910 -0.9258 -2.7902
 6999SOL    MW427730   2.362   1.736   1.173 -0.1893 -0.5160  0.1240
 7000SOL     OW27731   2.664   6.303   2.932 -0.0225  0.0743 -0.1067
 7000SOL    HW227732   2.657   6.245   3.007 -0.6826 -0.6560 -0.7187
 7000SOL    HW327733   2.607   6.377   2.953  0.5374  0.3417  0.5140
 7000SOL    MW427734   2.656   6.305   2.944 -0.9316  0.2150 -0.1027
 7001SOL     OW27735   1.541   4.047   5.953 -0.4253  1.0317  0.3746
 7001SOL    HW227736   1.513   4.044   6.044 -0.3369  1.3248  0.4109
 7001SOL    HW327737   1.460   4.060   5.903 -0.7969 -1.3045  0.2353
 7001SOL    MW427738   1.527   4.048   5.958 -0.1735 -0.0732  0.2094
 7002SOL     OW27739   1.184   1.944   3.976  0.1999  0.3698 -0.7626
 7002SOL    HW227740   1.272   1.951   4.012 -0.3097  1.2157  0.3759
 7002SOL    HW327741   1.162   1.852   3.985  0.7649  0.2454 -0.5891
 7002SOL    MW427742   1.193   1.933   3.982  0.3537 -0.2579 -0.4130
 7003SOL     OW27743   6.136   3.878   0.805 -0.7004  0.6583  0.0326
 7003SOL    HW227744   6.077   3.932   0.753 -1.8156  0.2943  0.8625
 7003SOL    HW327745   6.121   3.907   0.895 -0.0993  0.0953  0.3207
 7003SOL    MW427746   6.127   3.889   0.810  0.2292 -0.2229 -0.0657
 7004SOL     OW27747   4.283   2.170   1.514  0.4823  0.4997 -0.0302
 7004SOL    HW227748   4.346   2.135   1.577  0.7311 -1.2360 -1.1586
 7004SOL    HW327749   4.262   2.095   1.457 -1.1706  1.5116 -0.8404
 7004SOL    MW427750   4.289   2.155   1.514  0.4462 -0.1514  0.2336
 7005SOL     OW27751   6.378   5.267   4.265 -0.3386  0.2646  0.2610
 7005SOL    HW227752   6.304   5.245   4.321 -0.6756 -3.2675 -1.2565
 7005SOL    HW327753   6.340   5.316   4.192 -1.9386 -3.4708 -1.7283
 7005SOL    MW427754   6.363   5.271   4.263 -0.3303 -0.1133 -0.0508
 7006SOL     OW27755   1.116   5.939   0.428 -0.4710 -0.4275  0.5476
 7006SOL    HW227756   1.085   6.029   0.420 -0.8542 -0.4878  1.3157
 7006SOL    HW327757   1.075   5.906   0.508 -1.4781 -1.7528 -0.4662
 7006SOL    MW427758   1.107   5.947   0.437  0.5773 -0.0280 -0.0684
 7007SOL     OW27759   0.347   2.120   2.265 -0.3741 -0.3797 -0.0644
 7007SOL    HW227760   0.416   2.154   2.208 -0.1945 -1.2531 -0.3851
 7007SOL    HW327761   0.392   2.056   2.321 -0.3812  1.0577  1.6455
 7007SOL    MW427762   0.362   2.116   2.264 -0.0948  0.1581  0.0179
 7008SOL     OW27763   5.632   3.946   1.332 -0.2047 -0.2023  0.1052
 7008SOL    HW227764   5.584   4.029   1.331 -0.6724 -0.4630  0.3890
 7008SOL    HW327765   5.674   3.943   1.417  0.1627 -0.0601 -0.0716
 7008SOL    MW427766   5.631   3.957   1.343  0.1037  0.2000 -0.2354
 7009SOL     OW27767   5.526   2.777   5.551  0.0170  0.6477  1.3271
 7009SOL    HW227768   5.526   2.783   5.456 -0.7953 -2.4989  0.9993
 7009SOL    HW327769   5.460   2.840   5.580 -0.6449  0.7518 -0.3113
 7009SOL    MW427770   5.517   2.786   5.543  0.3345 -0.0976  0.1611
 7010SOL     OW27771   6.263   1.127   3.906 -0.2684 -0.6302  0.2120
 7010SOL    HW227772   6.233   1.215   3.883  0.2139 -0.7459 -0.9025
 7010SOL    HW327773   6.281   1.132   4.000  0.2459  0.6069  0.0681
 7010SOL    MW427774   6.261   1.139   3.915 -0.4691  0.5311 -0.5598
 7011SOL     OW27775   2.217   4.931   3.267 -0.2078 -0.0017  0.0227
 7011SOL    HW227776   2.268   4.858   3.232 -1.0026  0.1678 -1.5880
 7011SOL    HW327777   2.275   4.973   3.330  1.4797 -0.0949 -1.3893
 7011SOL    MW427778   2.232   4.927   3.271 -0.6963 -0.3654 -0.1944
 7012SOL     OW27779   1.698   0.084   2.749 -0.2077 -0.0842 -0.0457
 7012SOL    HW227780   1.685   0.061   2.657  0.0022 -0.9537  0.1366
 7012SOL    HW327781   1.609   0.098   2.782 -0.3086 -0.1452 -0.2879
 7012SOL    MW427782   1.684   0.083   2.741 -0.2649  0.8688  0.0519
 7013SOL     OW27783   4.205   0.380   0.009 -0.1299 -0.2671 -0.4529
 7013SOL    HW227784   4.225   0.328  -0.068  1.0360 -0.1846 -0.2289
 7013SOL    HW327785   4.172   0.317   0.074 -1.3326 -0.3032 -1.0651
 7013SOL    MW427786   4.203   0.365   0.008 -0.1130  0.2646 -0.1333
 7014SOL     OW27787   1.240   2.301   2.756  0.3144  0.0637  0.0757
 7014SOL    HW227788   1.265   2.334   2.842 -0.1567  1.2663 -0.2218
 7014SOL    HW327789   1.315   2.251   2.726  1.6609  2.0194  0.0002
 7014SOL    MW427790   1.253   2.299   2.763  0.0936 -0.2686 -0.7237
 7015SOL     OW27791   0.618   1.796   6.011 -0.4071  0.6736  0.4082
 7015SOL    HW227792   0.689   1.853   5.982 -0.0191 -0.9201 -2.0586
 7015SOL    HW327793   0.658   1.738   6.076 -0.0556  1.2693  0.7287
 7015SOL    MW427794   0.632   1.796   6.015 -0.0947 -0.6090 -0.3772
 7016SOL     OW27795   5.588   4.582   4.241 -0.8715  0.0091  0.4407
 7016SOL    HW227796   5.644   4.505   4.253 -0.5886  0.2757  0.8408
 7016SOL    HW327797   5.633   4.635   4.176  0.5748  1.3465  2.3919
 7016SOL    MW427798   5.601   4.579   4.234 -0.0358  0.0221 -0.0831
 7017SOL     OW27799   3.183   1.590   0.365  0.0281 -0.2024 -0.7624
 7017SOL    HW227800   3.199   1.500   0.396 -1.9669 -0.5268 -0.5034
 7017SOL    HW327801   3.168   1.581   0.271 -2.5913 -0.6012 -0.4003
 7017SOL    MW427802   3.183   1.577   0.357 -0.0793 -0.3853  0.5083
 7018SOL     OW27803   0.927   4.140   1.296 -0.4856 -0.3989 -0.1445
 7018SOL    HW227804   0.865   4.186   1.353  2.2455  0.9147  2.0214
 7018SOL    HW327805   0.931   4.051   1.331  0.1262  0.0115  0.8717
 7018SOL    MW427806   0.919   4.134   1.308 -0.1425  0.0013 -0.2506
 7019SOL     OW27807   4.971   1.400   0.430  0.1384 -0.2888  0.5749
 7019SOL    HW227808   5.056   1.440   0.450 -1.1108  2.3950  1.0817
 7019SOL    HW327809   4.982   1.363   0.342  1.5734  0.9035  0.2064
 7019SOL    MW427810   4.983   1.401   0.421  0.4062  0.1536 -0.0135
 7020SOL     OW27811   0.428   2.839   2.886 -0.2867 -0.0500  0.2035
 7020SOL    HW227812   0.436   2.908   2.953  2.0235 -2.6291  2.9237
 7020SOL    HW327813   0.513   2.840   2.842 -0.7332 -0.2777 -0.6682
 7020SOL    MW427814   0.441   2.849   2.889  0.4984 -0.1868  0.0148
 7021SOL     OW27815   5.360   1.362   5.335 -0.0453  0.3203  0.1294
 7021SOL    HW227816   5.315   1.393   5.414  0.7330  0.3484  0.5721
 7021SOL    HW327817   5.309   1.399   5.263 -1.4012 -0.5840  0.5834
 7021SOL    MW427818   5.347   1.371   5.336 -0.2192 -0.0769 -0.1709
 7022SOL     OW27819   3.534   4.942   4.882 -0.1075 -0.1598 -0.3918
 7022SOL    HW227820   3.594   4.931   4.956 -0.0370 -1.2279 -0.5908
 7022SOL    HW327821   3.516   4.852   4.853  0.0473  0.2540 -1.8156
 7022SOL    MW427822   3.539   4.928   4.888  0.3844  0.1280 -0.0095
 7023SOL     OW27823   2.141   0.752   0.189 -0.1003  0.2555 -0.0194
 7023SOL    HW227824   2.219   0.697   0.190 -1.0692 -1.2490 -1.8761
 7023SOL    HW327825   2.074   0.700   0.234 -0.1569  1.4519  1.3888
 7023SOL    MW427826   2.142   0.738   0.195 -0.1712  0.2831  0.2700
 7024SOL     OW27827   5.754   3.311   5.694 -0.1448 -0.2975  0.3738
 7024SOL    HW227828   5.786   3.250   5.628  1.7559  0.0221  0.9354
 7024SOL    HW327829   5.833   3.341   5.739 -1.2150  1.0299  1.4548
 7024SOL    MW427830   5.768   3.307   5.691 -0.0314  0.1592 -0.0709
 7025SOL     OW27831   2.622   4.855   5.672  0.0086 -0.4624  0.0729
 7025SOL    HW227832   2.650   4.939   5.709 -0.8391  0.6546 -1.6568
 7025SOL    HW327833   2.611   4.798   5.748 -3.0377  2.0695  1.7865
 7025SOL    MW427834   2.624   4.858   5.687  0.3260 -0.6059  0.3231
 7026SOL     OW27835   0.419   4.659   3.283 -0.3869  0.1707  0.3100
 7026SOL    HW227836   0.353   4.609   3.235 -2.1118  2.8465 -0.2975
 7026SOL    HW327837   0.393   4.650   3.375  0.1903 -1.1853  0.3585
 7026SOL    MW427838   0.407   4.651   3.289 -0.0495  0.0180  0.3546
 7027SOL     OW27839   1.322   2.647   3.716  0.3680  0.1610 -0.3875
 7027SOL    HW227840   1.312   2.706   3.791 -1.9299  0.2269 -0.6673
 7027SOL    HW327841   1.322   2.559   3.754 -0.0796  0.2203 -0.2451
 7027SOL    MW427842   1.320   2.643   3.731 -0.1390  0.0035  0.4720
 7028SOL     OW27843   0.275   4.494   1.994 -0.0342  0.7560 -0.1473
 7028SOL    HW227844   0.304   4.470   2.082 -0.3856  0.4526 -0.1121
 7028SOL    HW327845   0.179   4.495   2.000 -0.0361  2.2623 -0.1205
 7028SOL    MW427846   0.266   4.491   2.006 -0.2685 -1.0535 -0.1534
 7029SOL     OW27847   1.171   0.618   4.020  0.0455 -0.1680  0.1867
 7029SOL    HW227848   1.177   0.624   3.924 -0.7527  0.7790  0.1824
 7029SOL    HW327849   1.200   0.529   4.040  1.1492 -0.0691 -0.8519
 7029SOL    MW427850   1.176   0.607   4.010  0.3213 -0.4560  0.3026
 7030SOL     OW27851   0.698   5.094   6.077  0.2144  0.1404  0.1569
 7030SOL    HW227852   0.627   5.114   6.017  0.7212  1.8764  0.0883
 7030SOL    HW327853   0.689   5.159   6.147  0.4674 -0.9631  1.2484
 7030SOL    MW427854   0.687   5.105   6.079 -0.3444  0.5175  0.6572
 7031SOL     OW27855   6.027   4.343   3.401 -0.8246 -0.6420  0.0899
 7031SOL    HW227856   6.085   4.349   3.325 -2.0717 -1.0674 -0.9137
 7031SOL    HW327857   5.973   4.267   3.384 -0.1950 -1.6048  2.0897
 7031SOL    MW427858   6.028   4.334   3.389  0.3367 -0.1564 -0.3144
 7032SOL     OW27859   5.639   3.174   5.922  0.2654 -0.3403  0.1357
 7032SOL    HW227860   5.588   3.094   5.911  0.6927 -0.3720 -2.3718
 7032SOL    HW327861   5.690   3.180   5.841  1.5078  1.5962  0.9920
 7032SOL    MW427862   5.639   3.164   5.909 -0.3407 -0.1365  0.2252
 7033SOL     OW27863   3.335   6.198   3.529 -0.3360 -0.4214  0.5380
 7033SOL    HW227864   3.408   6.240   3.483 -2.5499  2.6190 -0.4809
 7033SOL    HW327865   3.322   6.116   3.481  3.5352 -2.1363  2.0023
 7033SOL    MW427866   3.343   6.192   3.516 -0.3401  0.5807  0.0716
 7034SOL     OW27867   3.253   1.531   5.369  0.2721  0.1036  0.2197
 7034SOL    HW227868   3.233   1.555   5.460 -0.5194  0.2778  0.0031
 7034SOL    HW327869   3.239   1.612   5.319 -0.1303 -0.2073 -0.1792
 7034SOL    MW427870   3.248   1.545   5.375  0.6945  1.1578  0.4090
 7035SOL     OW27871   4.718   1.759   4.804 -0.7631 -0.1896  0.0228
 7035SOL    HW227872   4.761   1.832   4.761 -1.7008  0.5547  0.3186
 7035SOL    HW327873   4.789   1.698   4.825  0.1566  1.0678  0.6417
 7035SOL    MW427874   4.733   1.761   4.801 -0.2879  0.6029  0.1774
 7036SOL     OW27875   3.818   4.253   5.932  0.3891  0.0432 -0.0680
 7036SOL    HW227876   3.820   4.160   5.912 -0.3683  0.0940 -0.4002
 7036SOL    HW327877   3.766   4.292   5.861 -0.1860  0.5700  0.6290
 7036SOL    MW427878   3.811   4.246   5.920 -0.5622  0.4689 -0.1568
 7037SOL     OW27879   2.206   0.191   0.117 -0.2213  0.3917  0.6344
 7037SOL    HW227880   2.145   0.264   0.127  0.2196  1.5900 -3.4174
 7037SOL    HW327881   2.151   0.114   0.109 -1.3323  1.3168 -1.9020
 7037SOL    MW427882   2.191   0.191   0.117 -0.1255 -0.5521  0.4580
 7038SOL     OW27883   2.822   5.548   2.702  0.2562 -0.0361  0.2953
 7038SOL    HW227884   2.882   5.615   2.670 -0.2527  0.2758 -0.0344
 7038SOL    HW327885   2.735   5.588   2.695  0.0881 -0.1207  1.6856
 7038SOL    MW427886   2.818   5.562   2.697  0.1851  0.4507 -0.2837
 7039SOL     OW27887   3.033   3.097   2.870 -0.2812 -0.0508  0.7655
 7039SOL    HW227888   3.048   3.008   2.901 -1.1121 -0.2363  0.6444
 7039SOL    HW327889   3.041   3.091   2.775  1.2885  0.3325  0.8360
 7039SOL    MW427890   3.036   3.084   2.862  0.7378 -0.0004 -0.5583
 7040SOL     OW27891   6.429   0.503   4.396  0.5080  0.5551 -0.5576
 7040SOL    HW227892   6.454   0.487   4.305 -2.9959 -0.9496 -1.4567
 7040SOL    HW327893   6.426   0.416   4.435  0.3858  1.0245  0.5064
 7040SOL    MW427894   6.432   0.489   4.389  0.3397 -0.7860  0.0245
 7041SOL     OW27895   1.657   2.334   5.105 -1.0636  0.5436  0.0810
 7041SOL    HW227896   1.731   2.356   5.048 -0.2946  0.6926  1.1209
 7041SOL    HW327897   1.655   2.403   5.170  0.5921 -1.6527  2.6510
 7041SOL    MW427898   1.666   2.346   5.106  0.0716  1.0146  0.1122
 7042SOL     OW27899   2.466   1.780   4.966  0.4784  0.0338 -0.1571
 7042SOL    HW227900   2.524   1.706   4.950  0.9128  0.7425 -2.1954
 7042SOL    HW327901   2.412   1.786   4.888 -0.4505  1.0841  0.5278
 7042SOL    MW427902   2.467   1.771   4.954 -0.2463 -0.0873  0.2295
 7043SOL     OW27903   0.808   2.647   1.585 -0.2144 -0.1928  0.1774
 7043SOL    HW227904   0.772   2.576   1.638  0.0565 -2.0467 -1.9651
 7043SOL    HW327905   0.772   2.726   1.624 -0.4833 -1.4432  2.7207
 7043SOL    MW427906   0.799   2.648   1.597 -0.0295 -0.0872 -0.3859
 7044SOL     OW27907   1.524   4.437   3.740  0.0173  1.0059  0.5467
 7044SOL    HW227908   1.593   4.393   3.690 -0.0720  2.3876 -0.8511
 7044SOL    HW327909   1.529   4.397   3.827  0.1935 -1.4722 -0.5091
 7044SOL    MW427910   1.534   4.426   3.745  0.3367 -0.3248  0.3989
 7045SOL     OW27911   1.576   1.773   0.287 -0.4953 -0.0019 -0.1509
 7045SOL    HW227912   1.508   1.749   0.349  0.4530  0.2549  1.0113
 7045SOL    HW327913   1.530   1.784   0.204 -1.6611 -1.1067  0.3262
 7045SOL    MW427914   1.561   1.772   0.284  0.2481  0.1816 -0.2124
 7046SOL     OW27915   0.533   2.407   6.368  0.4360 -0.0222  0.0266
 7046SOL    HW227916   0.588   2.337   6.403 -0.0134 -0.0120  0.7682
 7046SOL    HW327917   0.444   2.376   6.378  0.2576  0.3722 -0.2790
 7046SOL    MW427918   0.529   2.394   6.374  0.0122 -0.1005  0.2456
 7047SOL     OW27919   1.711   3.593   3.330  0.2748 -0.1724 -0.3106
 7047SOL    HW227920   1.776   3.563   3.394  1.4122 -0.7983 -1.7081
 7047SOL    HW327921   1.686   3.514   3.282 -0.5333  0.2886 -0.6734
 7047SOL    MW427922   1.716   3.579   3.332  0.3519 -0.5068 -0.3605
 7048SOL     OW27923   3.665   3.808   5.038 -0.6154 -0.5187 -0.4732
 7048SOL    HW227924   3.590   3.866   5.037  0.6143  1.1804  0.5421
 7048SOL    HW327925   3.645   3.743   5.105 -0.8485  0.3882  0.3427
 7048SOL    MW427926   3.653   3.807   5.046 -0.3162 -0.4605  0.7603
 7049SOL     OW27927   3.125   1.397   3.683 -0.3986  0.0167  0.1308
 7049SOL    HW227928   3.100   1.308   3.707 -0.4140 -0.0373 -0.0829
 7049SOL    HW327929   3.220   1.398   3.687 -0.4256  0.5376  2.0878
 7049SOL    MW427930   3.134   1.386   3.687  0.2176  0.2506 -0.5228
 7050SOL     OW27931   3.714   2.134   5.871  0.2660  0.0359  0.0602
 7050SOL    HW227932   3.635   2.084   5.852  1.0496 -1.1114 -0.2999
 7050SOL    HW327933   3.751   2.154   5.785 -0.3447  1.8056  0.1666
 7050SOL    MW427934   3.709   2.130   5.857 -0.4086  0.3159 -0.1980
 7051SOL     OW27935   4.792   0.408   6.104  0.0778 -0.1376  0.2330
 7051SOL    HW227936   4.706   0.425   6.142 -0.3543  0.3225 -0.9013
 7051SOL    HW327937   4.841   0.490   6.117  0.2357 -0.2862  0.5843
 7051SOL    MW427938   4.787   0.421   6.111 -0.3615 -0.4392 -0.1924
 7052SOL     OW27939   2.955   5.036   3.005  0.4049  0.0980  0.1169
 7052SOL    HW227940   2.934   5.011   2.915  1.2142 -0.1067 -0.0200
 7052SOL    HW327941   2.978   5.128   3.000  0.1030  0.1763  0.1721
 7052SOL    MW427942   2.955   5.045   2.993  0.4978 -0.0884 -0.0857
 7053SOL     OW27943   5.076   1.798   5.827  0.0696  0.1098 -0.3413
 7053SOL    HW227944   5.067   1.808   5.922  0.8826 -1.5480 -0.0550
 7053SOL    HW327945   4.993   1.830   5.792 -0.7498 -0.4036  1.0310
 7053SOL    MW427946   5.064   1.804   5.835  0.0814  0.2403 -0.4798
 7054SOL     OW27947   5.972   1.409   2.117  0.0377  0.1004 -0.3470
 7054SOL    HW227948   5.933   1.321   2.112 -0.7821  0.4459 -0.1288
 7054SOL    HW327949   5.988   1.423   2.210 -0.1719  0.3298 -0.3460
 7054SOL    MW427950   5.969   1.399   2.128  0.1340 -0.5628 -0.2948
 7055SOL     OW27951   1.233   5.589   5.352 -0.0219  0.0295 -0.0449
 7055SOL    HW227952   1.204   5.629   5.434  2.3961  2.8050 -0.3774
 7055SOL    HW327953   1.312   5.540   5.375  1.0620  1.3819 -0.7600
 7055SOL    MW427954   1.239   5.588   5.366  0.5051  0.6643 -0.0613
 7056SOL     OW27955   5.891   5.439   3.838  0.0951 -0.1013 -0.0510
 7056SOL    HW227956   5.859   5.363   3.887 -0.8713  0.7613  0.7281
 7056SOL    HW327957   5.949   5.403   3.772 -1.8294 -1.7203 -0.9851
 7056SOL    MW427958   5.894   5.425   3.836 -0.1248  0.0379  0.4176
 7057SOL     OW27959   4.149   4.349   1.728 -0.5241 -0.4231 -0.4761
 7057SOL    HW227960   4.101   4.300   1.662 -1.0536  0.0702 -0.4632
 7057SOL    HW327961   4.136   4.441   1.704 -3.2011 -0.0296  1.9510
 7057SOL    MW427962   4.141   4.355   1.716 -0.0545 -0.2751  0.2261
 7058SOL     OW27963   4.384   5.097   5.688 -0.5990 -0.4983 -0.0934
 7058SOL    HW227964   4.390   5.118   5.782 -3.0704  0.9147 -0.1795
 7058SOL    HW327965   4.383   5.001   5.686 -0.8254 -0.5519  1.3549
 7058SOL    MW427966   4.385   5.087   5.700 -0.0811 -0.3036 -0.3887
 7059SOL     OW27967   2.799   0.520   1.859  0.3542  0.5312  0.0095
 7059SOL    HW227968   2.872   0.545   1.802  0.5953  2.8965  1.2273
 7059SOL    HW327969   2.721   0.556   1.816  0.1666 -0.1185 -0.2069
 7059SOL    MW427970   2.798   0.528   1.846  0.0326  0.1571 -0.1365
 7060SOL     OW27971   2.384   5.763   4.695  0.1587 -0.1038  0.1020
 7060SOL    HW227972   2.348   5.776   4.607  0.2381 -0.1858  0.0576
 7060SOL    HW327973   2.448   5.834   4.706  0.8220 -0.6352 -0.2618
 7060SOL    MW427974   2.388   5.774   4.685  0.8564 -0.6322 -0.2327
 7061SOL     OW27975   1.465   3.005   4.903 -0.2138 -0.5897  0.0217
 7061SOL    HW227976   1.427   3.027   4.818  0.1060  0.5332  0.1513
 7061SOL    HW327977   1.521   2.930   4.885 -0.9047 -0.9847 -0.5622
 7061SOL    MW427978   1.467   2.998   4.889  0.4968 -0.0450 -0.2983
 7062SOL     OW27979   5.577   0.923   1.410 -0.3126  0.0335 -0.0567
 7062SOL    HW227980   5.517   0.991   1.379  1.1824  1.0664 -0.8103
 7062SOL    HW327981   5.578   0.857   1.341 -2.2788 -1.1843  0.9645
 7062SOL    MW427982   5.569   0.923   1.397 -0.4797 -0.0250  0.3928
 7063SOL     OW27983   2.103   3.257   3.756  0.1684 -0.1594 -0.4050
 7063SOL    HW227984   2.133   3.218   3.837 -0.6293 -1.7098 -0.8214
 7063SOL    HW327985   2.151   3.210   3.687  1.0225  1.2946 -0.8632
 7063SOL    MW427986   2.113   3.246   3.757 -0.0547  0.5451 -0.0075
 7064SOL     OW27987   5.274   1.101   5.648  0.4079 -0.4656  0.1230
 7064SOL    HW227988   5.208   1.149   5.598  1.4596 -0.0015 -0.8830
 7064SOL    HW327989   5.357   1.141   5.622  1.0628 -0.7516  1.6730
 7064SOL    MW427990   5.276   1.112   5.638  0.1071  0.0263  0.2076
 7065SOL     OW27991   5.376   0.459   1.660 -0.2541  0.1880 -0.3359
 7065SOL    HW227992   5.441   0.427   1.597 -0.0451  1.9366 -1.0519
 7065SOL    HW327993   5.416   0.536   1.700 -0.9055 -0.1480  1.0365
 7065SOL    MW427994   5.390   0.465   1.657  0.9434 -0.3819  0.5618
 7066SOL     OW27995   4.291   3.500   3.921 -0.0932 -0.0867 -0.5821
 7066SOL    HW227996   4.363   3.524   3.863 -0.1987 -0.6851 -0.9756
 7066SOL    HW327997   4.250   3.425   3.878  0.0577 -0.7860  0.4627
 7066SOL    MW427998   4.295   3.493   3.908  0.5052 -0.1012 -0.5867
 7067SOL     OW27999   5.835   5.784   2.749  0.0421 -0.2924 -0.1447
 7067SOL    HW228000   5.793   5.844   2.688 -0.1510  0.5002  0.7464
 7067SOL    HW328001   5.857   5.838   2.825  1.5051 -0.9518 -0.0526
 7067SOL    MW428002   5.833   5.799   2.751  0.1429  0.0220 -0.3146
 7068SOL     OW28003   4.865   1.771   0.639 -0.0159 -0.5576 -0.2932
 7068SOL    HW228004   4.772   1.749   0.636 -0.5056  1.3536 -0.6899
 7068SOL    HW328005   4.900   1.742   0.554 -0.2574 -1.1972 -0.1781
 7068SOL    MW428006   4.857   1.765   0.627 -0.1642  0.4004 -0.1104
 7069SOL     OW28007   4.566   0.549   4.548 -0.2376 -0.2947  0.3434
 7069SOL    HW228008   4.566   0.553   4.644  1.5607  2.2534  0.3610
 7069SOL    HW328009   4.515   0.626   4.521  2.9613  1.7450 -0.5526
 7069SOL    MW428010   4.559   0.560   4.557 -0.7368 -0.8098 -0.3727
 7070SOL     OW28011   2.101   6.335   2.647  0.0300 -0.1170  0.6117
 7070SOL    HW228012   2.007   6.347   2.661 -0.0681  0.9810 -0.7111
 7070SOL    HW328013   2.112   6.346   2.552  1.3360 -1.4554  0.5847
 7070SOL    MW428014   2.090   6.338   2.636  0.2645  0.3155 -0.4093
 7071SOL     OW28015   5.445   5.034   3.351 -0.1628 -0.2644 -0.1763
 7071SOL    HW228016   5.370   5.000   3.399  1.5082 -0.2769  2.5872
 7071SOL    HW328017   5.464   5.118   3.392  1.6542 -0.4972 -0.4782
 7071SOL    MW428018   5.438   5.041   3.363 -0.2915  0.0087  0.5571
 7072SOL     OW28019   5.737   0.088   5.924 -0.8388  0.7124 -0.0768
 7072SOL    HW228020   5.644   0.068   5.920 -0.6949  0.1158 -0.5173
 7072SOL    HW328021   5.772   0.026   5.988 -0.9220  1.6525  0.9032
 7072SOL    MW428022   5.730   0.077   5.932 -0.1109  0.3619 -0.5759
 7073SOL     OW28023   1.335   6.115   4.577  0.2615  0.2497  0.3663
 7073SOL    HW228024   1.405   6.134   4.639  1.0330  0.1336 -0.4501
 7073SOL    HW328025   1.375   6.056   4.513 -0.5174  0.3586 -0.2354
 7073SOL    MW428026   1.350   6.110   4.576 -0.4242  0.3199 -0.6916
 7074SOL     OW28027   6.114   6.278   4.349  0.5984 -0.1130  0.4962
 7074SOL    HW228028   6.100   6.341   4.279  0.6398  0.2418  0.8017
 7074SOL    HW328029   6.026   6.246   4.371  0.5103  0.3083  0.7672
 7074SOL    MW428030   6.101   6.282   4.343 -0.2101  0.0250  0.3479
 7075SOL     OW28031   4.174   0.025   2.391 -0.5249  0.2067 -0.4289
 7075SOL    HW228032   4.186   0.060   2.479 -1.6534 -0.9096  0.2060
 7075SOL    HW328033   4.255   0.047   2.345 -0.6396  2.4630  0.2940
 7075SOL    MW428034   4.186   0.033   2.396  0.4462  0.1605  0.3254
 7076SOL     OW28035   5.431   0.029   0.428 -0.2121  0.1560  0.7651
 7076SOL    HW228036   5.403   0.086   0.357  2.4366  1.3067  0.4963
 7076SOL    HW328037   5.473   0.088   0.490 -0.2007 -1.1470  2.0459
 7076SOL    MW428038   5.433   0.044   0.427  0.2885  0.2345 -0.2449
 7077SOL     OW28039   0.790   3.143   4.370  0.0641  0.1169  0.2764
 7077SOL    HW228040   0.725   3.164   4.437  1.7575  1.8547  1.4990
 7077SOL    HW328041   0.771   3.202   4.298 -0.0437  0.2691  0.4285
 7077SOL    MW428042   0.779   3.154   4.370  0.2034  0.3687  0.3055
 7078SOL     OW28043   1.248   3.026   5.350  0.2744 -0.0666  0.1668
 7078SOL    HW228044   1.262   2.984   5.265 -1.5003  0.5104 -0.4804
 7078SOL    HW328045   1.217   2.956   5.407  2.4529 -0.6683  0.6751
 7078SOL    MW428046   1.246   3.011   5.346 -0.1557  0.7694 -0.0867
 7079SOL     OW28047   3.485   3.657   6.332 -0.1824  0.2871 -0.2239
 7079SOL    HW228048   3.549   3.728   6.321 -0.6029  1.2323  2.5820
 7079SOL    HW328049   3.406   3.691   6.290  0.2878  0.4418 -1.0033
 7079SOL    MW428050   3.483   3.671   6.325 -0.6419  0.0870 -0.7205
 7080SOL     OW28051   0.803   4.043   1.787  0.4772 -0.7574  0.8399
 7080SOL    HW228052   0.824   4.134   1.770  0.2941 -0.8314  0.1591
 7080SOL    HW328053   0.715   4.031   1.750 -0.0082 -0.9057  2.0038
 7080SOL    MW428054   0.794   4.053   1.780  0.1532  0.0244  0.6292
 7081SOL     OW28055   4.371   4.028   1.813 -0.4867  0.0862  0.0858
 7081SOL    HW228056   4.411   3.989   1.891  1.0673  1.3059 -0.0441
 7081SOL    HW328057   4.360   4.120   1.835  0.8614  0.6625 -1.4288
 7081SOL    MW428058   4.375   4.035   1.826  0.3861  0.1822  0.0343
 7082SOL     OW28059   5.647   2.342   1.027  0.3897  0.1289 -0.4033
 7082SOL    HW228060   5.620   2.333   0.936  0.9105 -1.0175 -0.4624
 7082SOL    HW328061   5.624   2.431   1.050 -0.4457  0.1935 -1.4277
 7082SOL    MW428062   5.641   2.352   1.018  0.2417 -0.2113  0.1827
 7083SOL     OW28063   4.791   2.816   2.571  0.5231  0.1419 -0.3307
 7083SOL    HW228064   4.724   2.782   2.630 -0.5162  1.7830 -0.5004
 7083SOL    HW328065   4.816   2.741   2.517 -1.8417 -0.3512 -0.8684
 7083SOL    MW428066   4.785   2.802   2.572  0.0966  0.3726  0.2130
 7084SOL     OW28067   5.236   3.093   1.334 -0.2089  0.2978 -0.6715
 7084SOL    HW228068   5.212   3.066   1.245 -1.8964  0.8314 -0.4221
 7084SOL    HW328069   5.172   3.048   1.390  1.3880 -0.7687  0.3963
 7084SOL    MW428070   5.224   3.083   1.330 -0.7078  0.4631  0.1612
 7085SOL     OW28071   0.476   6.034   1.096  0.1252  0.5185 -0.3918
 7085SOL    HW228072   0.537   5.970   1.133 -1.9709 -1.3406  0.0108
 7085SOL    HW328073   0.493   6.032   1.002  0.1961 -0.5280 -0.3655
 7085SOL    MW428074   0.486   6.025   1.088 -0.2486  0.3958 -0.4496
 7086SOL     OW28075   0.026   4.369   4.540  0.0459  0.4406 -0.3992
 7086SOL    HW228076  -0.052   4.417   4.567  0.2166  0.2430  0.4773
 7086SOL    HW328077   0.072   4.429   4.482 -1.1748  0.2412 -1.6345
 7086SOL    MW428078   0.022   4.384   4.536 -0.6376 -0.6662 -0.1184
 7087SOL     OW28079   0.175   2.094   4.003 -0.0790 -0.2850  0.4782
 7087SOL    HW228080   0.167   2.146   3.924  1.1155  0.2000  0.6620
 7087SOL    HW328081   0.188   2.004   3.971  1.9383  0.1088  0.0519
 7087SOL    MW428082   0.176   2.089   3.988  0.0601 -0.0864  0.2590
 7088SOL     OW28083   1.190   2.384   4.633  0.1649  0.5305 -0.0047
 7088SOL    HW228084   1.170   2.394   4.726  1.9439  0.4530  0.4395
 7088SOL    HW328085   1.172   2.292   4.614 -2.4366  1.0400 -0.3898
 7088SOL    MW428086   1.185   2.373   4.643  0.3114 -0.1258  0.0617
 7089SOL     OW28087   3.327   0.686   2.465 -0.2417  0.1674 -0.2523
 7089SOL    HW228088   3.382   0.701   2.542 -1.2399  3.2642  0.0042
 7089SOL    HW328089   3.238   0.681   2.501 -0.5839  0.1864 -1.0853
 7089SOL    MW428090   3.322   0.687   2.480 -0.0229  0.0372 -0.1906
 7090SOL     OW28091   0.928   3.119   1.712 -0.1332 -0.2681 -0.5433
 7090SOL    HW228092   0.938   3.051   1.778 -2.4769 -1.4455 -1.3138
 7090SOL    HW328093   0.834   3.122   1.693  0.2176  1.3855 -2.4188
 7090SOL    MW428094   0.917   3.110   1.718 -0.2503 -0.5346  0.6171
 7091SOL     OW28095   2.102   0.228   2.864 -0.2224  0.2806 -0.3632
 7091SOL    HW228096   2.080   0.218   2.771 -2.5072  1.5363 -0.0340
 7091SOL    HW328097   2.021   0.259   2.904  0.6439 -0.4235  2.1114
 7091SOL    MW428098   2.088   0.231   2.857 -0.2570 -0.6307  0.1818
 7092SOL     OW28099   5.146   4.661   2.244 -0.1898 -0.3053 -0.1056
 7092SOL    HW228100   5.120   4.569   2.251  1.1138 -0.8081 -1.3256
 7092SOL    HW328101   5.176   4.670   2.153 -1.7666  1.7430 -0.4792
 7092SOL    MW428102   5.147   4.650   2.233 -0.0751  0.1345  0.3880
 7093SOL     OW28103   1.588   5.893   5.033  0.9211  0.0568  0.1191
 7093SOL    HW228104   1.679   5.868   5.016  0.3300 -2.9880  0.9628
 7093SOL    HW328105   1.539   5.854   4.961 -0.0842 -1.6596  1.6496
 7093SOL    MW428106   1.593   5.885   5.021  0.5147 -0.0302 -0.0547
 7094SOL     OW28107   4.141   2.794   4.529  0.0080 -0.8576  0.2345
 7094SOL    HW228108   4.120   2.887   4.534 -0.4583 -0.8862 -0.9743
 7094SOL    HW328109   4.056   2.750   4.524  0.2417 -1.3142  0.1971
 7094SOL    MW428110   4.127   2.800   4.529  0.3585  0.0671  0.1181
 7095SOL     OW28111   2.462   3.167   4.100 -0.0646 -0.3224 -0.1699
 7095SOL    HW228112   2.552   3.180   4.128 -0.0193 -0.7248 -0.1169
 7095SOL    HW328113   2.436   3.085   4.143 -0.7324  0.2258  0.5031
 7095SOL    MW428114   2.470   3.158   4.110  0.5460 -0.1477  0.0266
 7096SOL     OW28115   6.038   5.964   2.310 -0.2613 -0.0580 -0.0955
 7096SOL    HW228116   6.064   5.992   2.398 -0.0450 -0.7231  0.0597
 7096SOL    HW328117   6.067   6.036   2.253 -1.9342  1.1930  0.5411
 7096SOL    MW428118   6.046   5.977   2.314  0.3064 -0.0634  0.1126
 7097SOL     OW28119   0.022   3.762   2.582 -0.6708 -0.7995 -0.0914
 7097SOL    HW228120   0.007   3.779   2.489 -1.8769 -1.6936 -0.0848
 7097SOL    HW328121  -0.065   3.754   2.620 -0.1951 -0.2274  1.1769
 7097SOL    MW428122   0.009   3.763   2.575 -0.2408  0.0103 -0.1638
 7098SOL     OW28123   3.824   5.025   3.730 -0.7110  0.4327  0.5335
 7098SOL    HW228124   3.761   5.077   3.780  0.3212  1.0899  1.2068
 7098SOL    HW328125   3.904   5.028   3.783  0.0092 -0.0318 -0.4922
 7098SOL    MW428126   3.826   5.032   3.744  0.0487  0.0469 -0.6431
 7099SOL     OW28127   1.763   0.115   0.674  0.0632  0.4536 -0.8953
 7099SOL    HW228128   1.762   0.051   0.746 -1.1659  0.4802 -0.8733
 7099SOL    HW328129   1.808   0.070   0.603  0.0052 -0.1088 -0.5832
 7099SOL    MW428130   1.769   0.100   0.674  0.3134  0.6510  0.0766
 7100SOL     OW28131   6.135   3.246   1.983 -0.9491  0.6410  0.2166
 7100SOL    HW228132   6.091   3.244   1.898  0.5609  1.0634 -0.6207
 7100SOL    HW328133   6.178   3.332   1.985 -0.0811  0.2023  0.9366
 7100SOL    MW428134   6.135   3.257   1.972 -0.1379 -0.1164 -0.0505
 7101SOL     OW28135   5.903   5.688   1.985  0.2567 -0.7695  0.2653
 7101SOL    HW228136   5.844   5.753   2.024  0.4799 -0.6207  0.3628
 7101SOL    HW328137   5.988   5.705   2.027  0.1677 -1.5550  0.7852
 7101SOL    MW428138   5.907   5.699   1.996 -0.0536 -0.4291  0.2428
 7102SOL     OW28139   2.567   3.516   4.752 -0.1694 -0.3474  0.4473
 7102SOL    HW228140   2.645   3.520   4.808 -0.0727 -0.5345  0.3288
 7102SOL    HW328141   2.527   3.602   4.761 -0.6621 -0.6801  1.5162
 7102SOL    MW428142   2.572   3.528   4.760 -0.3804  0.3269 -0.6796
 7103SOL     OW28143   4.597   2.749   4.076  0.0507  0.0629 -0.5329
 7103SOL    HW228144   4.678   2.792   4.102 -1.7435  1.9219  2.6982
 7103SOL    HW328145   4.568   2.797   3.999  0.4493  1.6417  0.2561
 7103SOL    MW428146   4.604   2.761   4.070  0.7200  0.0982 -0.0269
 7104SOL     OW28147   6.092   5.006   0.877  0.2062  0.1576  0.1905
 7104SOL    HW228148   6.144   5.086   0.867 -1.6479  1.3357 -0.5726
 7104SOL    HW328149   6.156   4.939   0.902  1.8003  1.9010  1.0914
 7104SOL    MW428150   6.107   5.008   0.879 -0.1106  0.1170  0.2669
 7105SOL     OW28151   1.271   4.370   5.796 -0.1450  0.0471 -0.5784
 7105SOL    HW228152   1.187   4.415   5.790  0.6067  1.5433 -0.3916
 7105SOL    HW328153   1.301   4.386   5.886  0.4539 -0.2675 -0.7141
 7105SOL    MW428154   1.264   4.378   5.807  0.3332 -0.6133 -0.2893
 7106SOL     OW28155   1.933   4.436   0.285 -0.4460 -0.1586 -0.7896
 7106SOL    HW228156   2.012   4.400   0.245  0.4250 -1.1730  1.6503
 7106SOL    HW328157   1.944   4.420   0.379 -2.5751  1.6279 -0.1387
 7106SOL    MW428158   1.945   4.429   0.292 -0.1436  0.1978 -0.2048
 7107SOL     OW28159   1.343   3.951   1.264  0.0839 -0.0888 -0.0938
 7107SOL    HW228160   1.339   3.992   1.350 -0.0610 -2.9068  1.3519
 7107SOL    HW328161   1.280   4.000   1.211  0.1716  1.6999  1.3670
 7107SOL    MW428162   1.334   3.962   1.268  0.1567  0.1192 -0.0466
 7108SOL     OW28163   4.965   0.169   6.028  0.2354 -0.4338 -0.4549
 7108SOL    HW228164   4.886   0.215   6.055  0.3698  0.0025 -0.8013
 7108SOL    HW328165   4.940   0.076   6.030  0.0084 -0.3596  0.3791
 7108SOL    MW428166   4.951   0.163   6.032 -0.0408 -0.5305 -0.4150
 7109SOL     OW28167   1.872   4.474   3.008  0.3384 -0.1824  0.0936
 7109SOL    HW228168   1.909   4.560   3.028 -1.0601 -0.0025  2.2499
 7109SOL    HW328169   1.928   4.413   3.055 -0.3028 -0.1574  0.9283
 7109SOL    MW428170   1.884   4.478   3.017 -0.3459  0.5750  0.3767
 7110SOL     OW28171   5.707   5.300   2.627  0.4228 -0.8634  0.2557
 7110SOL    HW228172   5.637   5.357   2.660 -1.1895 -1.4772 -1.8697
 7110SOL    HW328173   5.783   5.322   2.680 -0.1683  3.0431 -0.2112
 7110SOL    MW428174   5.708   5.310   2.638 -0.0051 -0.3676  0.0905
 7111SOL     OW28175   3.922   2.152   3.783  0.4219 -0.5894 -0.0014
 7111SOL    HW228176   3.853   2.196   3.732 -0.0449 -1.8212 -0.4697
 7111SOL    HW328177   3.883   2.138   3.869  1.1866  1.4294  0.7383
 7111SOL    MW428178   3.908   2.156   3.787  0.3656 -0.2647  0.4442
 7112SOL     OW28179   1.756   0.229   6.323 -0.1001  0.6820  0.4617
 7112SOL    HW228180   1.840   0.183   6.323 -0.6320 -0.3362 -0.3971
 7112SOL    HW328181   1.780   0.322   6.328  1.2380  0.5966 -2.1919
 7112SOL    MW428182   1.770   0.235   6.324  0.2471 -0.0822 -0.0301
 7113SOL     OW28183   4.476   3.812   1.657  0.5355  0.1399  0.2191
 7113SOL    HW228184   4.467   3.881   1.723 -1.8098  0.6628 -0.5524
 7113SOL    HW328185   4.431   3.737   1.695 -1.5940  0.7023 -1.0507
 7113SOL    MW428186   4.469   3.811   1.671 -0.1524  0.1958  0.1326
 7114SOL     OW28187   5.537   4.873   2.119  0.1282  0.7532 -0.2100
 7114SOL    HW228188   5.583   4.817   2.182 -0.8244 -0.5460 -0.6401
 7114SOL    HW328189   5.582   4.957   2.125  1.1208  0.1662  0.9937
 7114SOL    MW428190   5.549   4.877   2.128 -0.3378  0.3587  0.0255
 7115SOL     OW28191   3.982   0.875   2.455  0.1926  0.0118  0.8154
 7115SOL    HW228192   3.984   0.811   2.384  2.1010  0.8621  0.0516
 7115SOL    HW328193   3.978   0.960   2.411  0.3917  0.5239  1.7612
 7115SOL    MW428194   3.982   0.878   2.440 -0.0311 -0.0500 -0.1275
 7116SOL     OW28195   0.448   3.909   0.738 -0.1302  0.4008  0.8076
 7116SOL    HW228196   0.424   3.829   0.784 -0.4091  0.6378  1.0721
 7116SOL    HW328197   0.499   3.878   0.663 -0.7477 -0.0644  0.5668
 7116SOL    MW428198   0.452   3.894   0.734 -0.0357  0.6420  0.5996
 7117SOL     OW28199   1.601   5.888   3.269  0.1258 -0.0356  0.0010
 7117SOL    HW228200   1.651   5.896   3.351 -0.2387  2.2808  0.0812
 7117SOL    HW328201   1.515   5.923   3.291 -0.8158 -1.7550 -0.7574
 7117SOL    MW428202   1.596   5.894   3.283 -0.4344  0.3501 -0.3500
 7118SOL     OW28203   6.390   1.139   4.470  0.1205 -0.1595  0.0213
 7118SOL    HW228204   6.350   1.166   4.387  0.5446  0.2244 -0.0637
 7118SOL    HW328205   6.318   1.141   4.533  0.3219  2.3376  0.2862
 7118SOL    MW428206   6.375   1.143   4.467 -0.3008 -0.0634  0.3088
 7119SOL     OW28207   2.826   0.819   2.583 -0.4260  0.1053 -0.3543
 7119SOL    HW228208   2.834   0.896   2.639 -0.6476 -0.3658  0.3437
 7119SOL    HW328209   2.914   0.784   2.576 -0.3808  0.2262 -0.3894
 7119SOL    MW428210   2.839   0.824   2.590  0.3140  0.6030  0.4217
 7120SOL     OW28211   6.192   3.111   1.587 -0.2785 -0.4795 -0.4464
 7120SOL    HW228212   6.225   3.067   1.665 -1.1391 -1.0795 -0.4098
 7120SOL    HW328213   6.123   3.054   1.554 -0.6248  0.2738 -1.0696
 7120SOL    MW428214   6.187   3.098   1.593  0.4913 -0.3596 -0.2454
 7121SOL     OW28215   3.922   5.384   5.567 -0.0267  0.2254  0.0193
 7121SOL    HW228216   3.836   5.374   5.607 -1.7475 -1.6243 -3.6101
 7121SOL    HW328217   3.921   5.322   5.493  2.9382  2.8421 -2.5006
 7121SOL    MW428218   3.910   5.374   5.562 -0.2064 -0.3277  0.0540
 7122SOL     OW28219   2.283   5.419   5.617 -0.2823  0.1037  0.0546
 7122SOL    HW228220   2.287   5.361   5.541  2.3308  0.5796 -0.2409
 7122SOL    HW328221   2.255   5.503   5.581  0.0187  0.0866 -0.2252
 7122SOL    MW428222   2.280   5.423   5.602 -0.2884  0.0090  0.7651
 7123SOL     OW28223   4.906   3.508   6.172  0.1116  0.0052  0.1485
 7123SOL    HW228224   4.857   3.494   6.090 -1.0119 -1.6597  1.0386
 7123SOL    HW328225   4.856   3.575   6.218  1.1585  1.4904 -0.8048
 7123SOL    MW428226   4.893   3.515   6.167  0.2422 -0.7978 -0.1288
 7124SOL     OW28227   6.006   0.657   5.847  0.1620 -0.6416 -0.1985
 7124SOL    HW228228   6.094   0.650   5.810  0.8184 -1.2480  1.3565
 7124SOL    HW328229   6.003   0.746   5.883  0.2614 -0.7245  0.0180
 7124SOL    MW428230   6.017   0.668   5.847  0.3402  0.4259 -0.8260
 7125SOL     OW28231   5.948   6.019   4.083 -0.4657 -0.2417  0.5209
 7125SOL    HW228232   5.970   5.990   4.171  0.2591 -2.3344 -0.2793
 7125SOL    HW328233   5.854   6.038   4.087 -0.3231  0.2703  1.8601
 7125SOL    MW428234   5.938   6.018   4.095  0.1642  0.2743 -0.2923
 7126SOL     OW28235   2.796   6.184   5.715  0.6255  0.0100  0.0899
 7126SOL    HW228236   2.889   6.170   5.693  0.2232 -1.2595 -0.9032
 7126SOL    HW328237   2.748   6.131   5.652 -0.7655 -0.1701  1.2575
 7126SOL    MW428238   2.802   6.175   5.704  0.4291 -0.2583 -0.3703
 7127SOL     OW28239   1.406   3.263   4.209  0.1369 -0.0341 -0.1724
 7127SOL    HW228240   1.430   3.282   4.300  3.8718  0.0757 -1.0038
 7127SOL    HW328241   1.412   3.168   4.202  0.0287 -0.0285 -0.3474
 7127SOL    MW428242   1.410   3.253   4.220 -0.3748  0.3721  0.3363
 7128SOL     OW28243   1.615   4.758   2.151 -0.4028  0.9260 -0.5254
 7128SOL    HW228244   1.597   4.850   2.134 -1.6541  0.7485 -0.2791
 7128SOL    HW328245   1.531   4.722   2.180  0.8323  0.4977  2.8990
 7128SOL    MW428246   1.601   4.765   2.152  0.3452  0.3642  0.7653
 7129SOL     OW28247   4.915   2.251   1.558 -0.3764 -0.1284  0.2493
 7129SOL    HW228248   4.957   2.170   1.588 -1.7047 -0.4291  1.4105
 7129SOL    HW328249   4.931   2.252   1.463  0.1042 -1.4839  0.2831
 7129SOL    MW428250   4.923   2.240   1.549 -0.6671 -0.1123  0.0324
 7130SOL     OW28251   0.574   0.018   3.848  0.3478  0.1724 -0.8597
 7130SOL    HW228252   0.614   0.088   3.900 -0.3541  0.5898 -0.8736
 7130SOL    HW328253   0.630  -0.058   3.863 -0.3760  0.0169  1.2796
 7130SOL    MW428254   0.587   0.017   3.857 -0.4998 -0.2958 -0.2534
 7131SOL     OW28255   6.272   1.585   0.334  1.0072 -0.5768 -0.1654
 7131SOL    HW228256   6.239   1.538   0.257  0.0570  0.2883 -0.3009
 7131SOL    HW328257   6.351   1.630   0.302  0.5488 -0.1225 -0.6796
 7131SOL    MW428258   6.278   1.585   0.320  0.0671  0.2533  0.4169
 7132SOL     OW28259   3.609   0.315   0.324 -0.9886 -0.1071 -0.4550
 7132SOL    HW228260   3.547   0.388   0.331  1.3721  2.0467 -0.3021
 7132SOL    HW328261   3.586   0.256   0.396 -2.1479  1.2075  0.2946
 7132SOL    MW428262   3.598   0.317   0.335 -0.4847 -0.1857  0.5684
 7133SOL     OW28263   3.486   0.183   5.663  0.0960 -0.1172 -0.2131
 7133SOL    HW228264   3.490   0.146   5.575 -0.6086 -0.2473 -0.2014
 7133SOL    HW328265   3.452   0.112   5.718  1.5851 -0.3951  0.3881
 7133SOL    MW428266   3.482   0.169   5.659  0.0353 -0.1932  0.1869
 7134SOL     OW28267   2.785   4.543   4.268 -0.0928  0.5785  0.4395
 7134SOL    HW228268   2.710   4.597   4.244 -0.0095  0.4840 -0.0476
 7134SOL    HW328269   2.858   4.580   4.218 -0.2975 -0.7980 -0.9358
 7134SOL    MW428270   2.785   4.555   4.258  0.1845  0.5998  0.5436
 7135SOL     OW28271   3.096   0.061   5.795  0.0348 -0.4969  0.0013
 7135SOL    HW228272   3.007   0.088   5.821  0.0944 -0.0055 -0.2947
 7135SOL    HW328273   3.084  -0.025   5.755 -0.4516 -0.0329 -0.8924
 7135SOL    MW428274   3.082   0.053   5.793 -0.1493  0.8815  0.5051
 7136SOL     OW28275   3.457   4.429   1.221 -0.0095 -0.6358 -0.0503
 7136SOL    HW228276   3.532   4.478   1.256 -0.9408  0.9087 -0.1279
 7136SOL    HW328277   3.486   4.396   1.137  0.8827 -0.8360  0.3279
 7136SOL    MW428278   3.471   4.431   1.215  0.1030 -0.5898 -0.1334
 7137SOL     OW28279   4.999   5.415   0.599 -0.6509  0.1753  0.0007
 7137SOL    HW228280   5.057   5.477   0.555  1.1800 -1.2179  0.2906
 7137SOL    HW328281   5.043   5.397   0.683 -3.2826  1.6434  1.8531
 7137SOL    MW428282   5.013   5.421   0.605  0.2395 -0.1257  0.4817
 7138SOL     OW28283   4.202   4.884   1.142 -0.4531  0.3705  0.2363
 7138SOL    HW228284   4.155   4.836   1.074  1.3878  0.0152 -0.8254
 7138SOL    HW328285   4.152   4.866   1.222 -2.0210 -0.0937 -0.7954
 7138SOL    MW428286   4.189   4.875   1.144 -0.0248 -0.4706  0.1131
 7139SOL     OW28287   4.683   1.137   3.603 -0.9994 -0.0016  0.0859
 7139SOL    HW228288   4.770   1.099   3.586 -1.3255 -0.3897 -0.7727
 7139SOL    HW328289   4.694   1.186   3.684 -0.3341 -1.2239  0.7574
 7139SOL    MW428290   4.696   1.138   3.611  0.0489 -0.2722  0.1146
 7140SOL     OW28291   5.504   1.451   0.213  0.3600 -0.2533  0.5219
 7140SOL    HW228292   5.514   1.545   0.199  0.6000 -0.3803 -0.2261
 7140SOL    HW328293   5.439   1.424   0.148  1.3622 -0.8366 -0.2811
 7140SOL    MW428294   5.497   1.460   0.203 -0.1278  0.1135 -0.2642
 7141SOL     OW28295   5.157   0.364   4.415 -0.1700  0.4330  0.7408
 7141SOL    HW228296   5.101   0.354   4.492 -0.6259 -0.7152  0.2768
 7141SOL    HW328297   5.218   0.433   4.439  0.0505 -0.2827  2.3608
 7141SOL    MW428298   5.158   0.372   4.428  0.4293 -0.2530  0.0934
 7142SOL     OW28299   2.447   5.157   6.239 -0.8346 -0.2716  0.2069
 7142SOL    HW228300   2.359   5.128   6.263 -0.6970 -0.2271  0.7737
 7142SOL    HW328301   2.505   5.091   6.278 -0.6476 -0.7709 -0.8719
 7142SOL    MW428302   2.443   5.144   6.247 -0.3618 -0.1664 -0.3973
 7143SOL     OW28303   1.778   5.804   2.643  0.0316  0.4889 -0.3509
 7143SOL    HW228304   1.815   5.737   2.585  0.4316  1.9477 -1.8314
 7143SOL    HW328305   1.791   5.768   2.731 -1.2838 -2.1434 -1.1108
 7143SOL    MW428306   1.785   5.790   2.647 -0.2387  0.2163  0.3420
 7144SOL     OW28307   3.572   1.115   0.989  0.1227 -0.0699 -0.3392
 7144SOL    HW228308   3.544   1.204   1.011 -0.7996 -0.1573 -1.1023
 7144SOL    HW328309   3.659   1.125   0.952 -0.4070  0.6656 -1.4398
 7144SOL    MW428310   3.579   1.128   0.987 -0.3649  0.5301  0.7674
 7145SOL     OW28311   3.205   5.903   3.814 -0.2062 -0.0574  0.6994
 7145SOL    HW228312   3.148   5.837   3.855  1.1224 -0.8161  1.3791
 7145SOL    HW328313   3.170   5.912   3.725 -1.4925 -0.3593  1.1529
 7145SOL    MW428314   3.193   5.895   3.808 -0.0989  0.3395  0.3267
 7146SOL     OW28315   3.051   2.236   1.979 -0.3230  0.5724  0.2811
 7146SOL    HW228316   3.058   2.299   1.907 -2.0710  0.6218  0.1052
 7146SOL    HW328317   3.043   2.290   2.057 -0.4755  0.5491  0.2817
 7146SOL    MW428318   3.051   2.251   1.980  0.1203  0.5781  0.3881
 7147SOL     OW28319   0.693   6.393   0.311 -0.5736 -0.1922  0.3303
 7147SOL    HW228320   0.669   6.310   0.353 -0.1156 -0.2481  0.4876
 7147SOL    HW328321   0.610   6.429   0.281 -0.7656 -0.7538  0.1755
 7147SOL    MW428322   0.679   6.387   0.313 -0.2089 -0.0329  0.1961
 7148SOL     OW28323   3.892   0.458   2.180  0.4574 -0.2338 -0.5371
 7148SOL    HW228324   3.804   0.465   2.143 -0.5453 -1.0864  1.5189
 7148SOL    HW328325   3.949   0.498   2.114 -1.4866  0.6591 -1.7719
 7148SOL    MW428326   3.888   0.464   2.166  0.0914 -0.4541  0.4079
 7149SOL     OW28327   6.419   4.474   0.163  0.0864  0.1258  0.1010
 7149SOL    HW228328   6.425   4.415   0.087 -1.6283  0.3645 -0.2518
 7149SOL    HW328329   6.367   4.426   0.227  0.4621  0.4299  0.6443
 7149SOL    MW428330   6.413   4.460   0.161  0.2027 -0.5273 -0.7576
 7150SOL     OW28331   5.685   6.137   4.096 -0.2986  0.1664  0.1130
 7150SOL    HW228332   5.660   6.230   4.097 -0.8696  0.0183  1.5022
 7150SOL    HW328333   5.652   6.104   4.012  0.6491  1.3892 -0.7822
 7150SOL    MW428334   5.678   6.145   4.085  0.1388  0.0006  0.0921
 7151SOL     OW28335   3.461   2.374   2.564  0.6742  0.1034  0.1806
 7151SOL    HW228336   3.386   2.351   2.619 -0.6697  1.2357 -1.1122
 7151SOL    HW328337   3.463   2.307   2.496  0.7264  0.1587  0.1265
 7151SOL    MW428338   3.451   2.362   2.562 -0.1219 -0.1498  0.5141
 7152SOL     OW28339   1.438   6.173   3.653 -0.4532  0.2698  0.4531
 7152SOL    HW228340   1.432   6.204   3.743 -0.4774 -0.3292  0.6591
 7152SOL    HW328341   1.472   6.084   3.660  0.7027  0.6321 -0.1924
 7152SOL    MW428342   1.442   6.165   3.666  0.1536 -0.2241  0.2540
 7153SOL     OW28343   3.857   3.405   3.133 -0.0000 -0.5146  0.5044
 7153SOL    HW228344   3.805   3.427   3.056 -0.7460 -1.7038  0.6458
 7153SOL    HW328345   3.855   3.485   3.186  1.4449  0.7059 -1.1677
 7153SOL    MW428346   3.850   3.418   3.130  0.3743  0.1830 -0.1850
 7154SOL     OW28347   5.820   3.462   3.964 -0.3385 -0.0588  0.0776
 7154SOL    HW228348   5.766   3.400   3.916 -1.2106  1.8674 -1.6057
 7154SOL    HW328349   5.758   3.511   4.019  0.1181  0.2560  0.3205
 7154SOL    MW428350   5.805   3.460   3.965  0.1282 -0.7183  0.9725
 7155SOL     OW28351   5.373   2.329   0.430 -0.2483 -0.3606 -0.2844
 7155SOL    HW228352   5.389   2.278   0.509 -0.5070 -2.3587 -1.4635
 7155SOL    HW328353   5.457   2.334   0.386 -0.7186 -2.1368 -1.4812
 7155SOL    MW428354   5.386   2.323   0.435  0.1208 -0.2941 -0.1807
 7156SOL     OW28355   6.369   5.722   2.286 -0.0778  0.1150  1.0578
 7156SOL    HW228356   6.393   5.814   2.297 -0.2395 -0.0965  3.9179
 7156SOL    HW328357   6.277   5.724   2.258 -0.1720  0.8423  1.4073
 7156SOL    MW428358   6.360   5.734   2.284 -0.3313  0.4118 -0.6672
 7157SOL     OW28359   1.230   3.622   5.489  0.0667 -0.1462 -0.0902
 7157SOL    HW228360   1.165   3.589   5.428 -0.6870  0.5076  0.3441
 7157SOL    HW328361   1.313   3.588   5.456 -0.3308  0.1469 -1.4457
 7157SOL    MW428362   1.233   3.613   5.477 -0.1240  0.4193  0.2513
 7158SOL     OW28363   2.263   2.445   2.019 -0.4353 -0.6316 -0.3768
 7158SOL    HW228364   2.176   2.405   2.028 -0.4212 -0.8340 -1.1066
 7158SOL    HW328365   2.272   2.462   1.926  0.1495 -0.2367 -0.2503
 7158SOL    MW428366   2.253   2.442   2.008 -0.4686  0.4787  0.2061
 7159SOL     OW28367   5.593   1.804   2.973  0.3800 -0.1120 -0.4283
 7159SOL    HW228368   5.682   1.791   3.006  0.0334 -0.5016  0.4026
 7159SOL    HW328369   5.537   1.762   3.039 -0.4525  0.6321 -0.6385
 7159SOL    MW428370   5.597   1.797   2.986  0.0108 -0.0160  0.3282
 7160SOL     OW28371   0.664   5.160   2.068 -0.3679  0.4616  0.7953
 7160SOL    HW228372   0.745   5.169   2.118  0.3096  1.7318 -0.4629
 7160SOL    HW328373   0.622   5.081   2.104  1.0162  0.2436  2.0161
 7160SOL    MW428374   0.669   5.150   2.079  0.1890 -0.6586  0.2766
 7161SOL     OW28375   3.217   1.760   5.208  0.3124 -0.0271  0.3188
 7161SOL    HW228376   3.248   1.802   5.127 -1.3569  3.1591  1.1387
 7161SOL    HW328377   3.123   1.748   5.194  0.0547  0.3032  1.6344
 7161SOL    MW428378   3.209   1.764   5.195 -0.5569 -0.1224  0.3667
 7162SOL     OW28379   0.350   0.344   0.124  0.1050  0.4677 -0.2526
 7162SOL    HW228380   0.399   0.422   0.150  2.7672 -0.6806 -1.4660
 7162SOL    HW328381   0.258   0.369   0.132  0.7057  2.1051  4.2344
 7162SOL    MW428382   0.344   0.357   0.128  0.1900 -0.0895 -0.7502
 7163SOL     OW28383   3.105   4.288   5.751  0.2894 -0.9340  0.7042
 7163SOL    HW228384   3.103   4.258   5.660 -1.0433  0.0139  0.3911
 7163SOL    HW328385   3.019   4.327   5.765  0.6754 -0.5626  2.2108
 7163SOL    MW428386   3.093   4.289   5.741 -0.2775  0.2151  0.0196
 7164SOL     OW28387   2.999   3.335   5.381  0.1416  0.4323 -0.0803
 7164SOL    HW228388   3.079   3.385   5.363  0.0970  1.0331  1.2431
 7164SOL    HW328389   3.027   3.244   5.377  0.9397  0.6371  0.5297
 7164SOL    MW428390   3.013   3.330   5.378 -0.4201  0.1236  0.1246
 7165SOL     OW28391   1.581   3.671   3.703  0.6386 -0.7650 -0.5146
 7165SOL    HW228392   1.616   3.669   3.792  0.9471  0.1310 -0.6119
 7165SOL    HW328393   1.513   3.738   3.705  1.6005  0.2670 -1.2880
 7165SOL    MW428394   1.576   3.679   3.715 -0.3137  0.0196  0.5278
 7166SOL     OW28395   0.749   1.045   6.234  0.2544 -0.5095 -0.4215
 7166SOL    HW228396   0.688   0.990   6.187  0.2342 -0.3845 -0.5429
 7166SOL    HW328397   0.708   1.061   6.319  0.1048 -0.4014 -0.5139
 7166SOL    MW428398   0.736   1.040   6.239 -0.5289 -0.4280  0.2059
 7167SOL     OW28399   4.952   2.029   1.889 -0.4121 -0.8106  0.3343
 7167SOL    HW228400   4.859   2.027   1.864 -0.8330 -1.0079  1.8044
 7167SOL    HW328401   4.962   1.954   1.948  0.6855 -0.7832  0.1920
 7167SOL    MW428402   4.941   2.019   1.893  0.1488 -0.6166  0.1810
 7168SOL     OW28403   5.277   1.414   0.081  0.3575 -0.2523 -0.3414
 7168SOL    HW228404   5.261   1.490   0.025 -1.0245  0.5157  1.0175
 7168SOL    HW328405   5.313   1.348   0.022 -0.4931  0.7123 -2.0215
 7168SOL    MW428406   5.279   1.415   0.066  0.1262  0.4748 -0.1037
 7169SOL     OW28407   5.615   2.648   0.386  0.2778 -0.5486 -0.0098
 7169SOL    HW228408   5.622   2.557   0.357 -1.0045 -0.7118  0.1341
 7169SOL    HW328409   5.571   2.643   0.470  0.6665  0.1790  0.2459
 7169SOL    MW428410   5.610   2.635   0.393  0.5477  0.0935 -0.3969
 7170SOL     OW28411   0.369   5.803   1.278 -0.3876 -0.4667 -0.3073
 7170SOL    HW228412   0.364   5.848   1.362  1.9627 -1.7394  0.6060
 7170SOL    HW328413   0.293   5.836   1.229 -1.6130  0.6209  2.1189
 7170SOL    MW428414   0.358   5.813   1.283  0.3448 -0.2375  0.4177
 7171SOL     OW28415   2.589   2.322   3.229 -0.1142  0.2557  0.4306
 7171SOL    HW228416   2.596   2.227   3.239  0.4996  0.4458  2.1274
 7171SOL    HW328417   2.586   2.356   3.319  0.2651  1.8819 -0.1263
 7171SOL    MW428418   2.590   2.314   3.243  0.3346 -0.3421  0.0710
 7172SOL     OW28419   1.066   0.267   0.667  0.0376  0.1119  0.1779
 7172SOL    HW228420   1.149   0.297   0.703  0.9769 -1.2181 -0.7911
 7172SOL    HW328421   1.011   0.251   0.743  1.3688 -0.9204  0.9717
 7172SOL    MW428422   1.070   0.269   0.682  0.3323  0.3457  0.3991
 7173SOL     OW28423   3.339   3.471   5.693 -0.1469 -0.0759 -0.0200
 7173SOL    HW228424   3.308   3.382   5.705  0.2694 -0.3446 -0.8762
 7173SOL    HW328425   3.315   3.516   5.774  0.3726 -1.1695  0.7725
 7173SOL    MW428426   3.332   3.465   5.706 -1.0695  0.0086  0.0204
 7174SOL     OW28427   1.562   4.648   0.790 -0.6340  0.7185  0.1025
 7174SOL    HW228428   1.478   4.693   0.797 -0.3977  1.1132  0.3647
 7174SOL    HW328429   1.626   4.708   0.828 -0.2236  0.4368 -0.1303
 7174SOL    MW428430   1.560   4.661   0.796 -0.5191  0.2045  0.1445
 7175SOL     OW28431   0.038   2.710   2.127 -0.1610 -0.6202  0.1258
 7175SOL    HW228432   0.060   2.655   2.202  0.6923 -0.5267 -0.0438
 7175SOL    HW328433   0.116   2.706   2.070 -0.1308  0.6348  0.0417
 7175SOL    MW428434   0.052   2.702   2.129 -0.3559 -0.0713 -0.1169
 7176SOL     OW28435   2.163   4.337   4.187  0.4867  0.3719 -0.4415
 7176SOL    HW228436   2.147   4.327   4.093 -0.9921  0.9237 -0.2847
 7176SOL    HW328437   2.252   4.306   4.200 -0.2107 -2.4067 -1.5644
 7176SOL    MW428438   2.172   4.332   4.176 -0.3658 -0.0159  0.2627
 7177SOL     OW28439   0.948   2.381   0.325 -0.1582 -0.0342  0.3543
 7177SOL    HW228440   0.960   2.432   0.245  1.0987 -0.2715  0.3814
 7177SOL    HW328441   0.910   2.298   0.295 -1.6537  0.6511  0.2515
 7177SOL    MW428442   0.944   2.377   0.311 -0.0225  0.6508 -0.3933
 7178SOL     OW28443   0.580   0.630   5.311 -0.4473 -0.0900 -0.2523
 7178SOL    HW228444   0.533   0.597   5.234  1.1403 -1.8652 -0.5390
 7178SOL    HW328445   0.664   0.660   5.276  0.3249 -0.9820  0.7791
 7178SOL    MW428446   0.585   0.630   5.296  0.6424 -0.5422  0.3868
 7179SOL     OW28447   1.602   2.057   1.067  0.0034  0.3512 -0.0457
 7179SOL    HW228448   1.559   1.985   1.020 -0.7610 -0.3587  1.6531
 7179SOL    HW328449   1.694   2.031   1.071  0.2210  0.7719 -1.7233
 7179SOL    MW428450   1.609   2.044   1.062 -0.2490  0.5083  0.2299
 7180SOL     OW28451   1.403   4.019   6.196 -0.7766 -0.4676  0.4994
 7180SOL    HW228452   1.382   3.972   6.277 -3.0027  1.1296  0.9805
 7180SOL    HW328453   1.458   4.092   6.225  0.6615 -1.3674  0.1200
 7180SOL    MW428454   1.407   4.023   6.211  0.4332  0.0527 -0.3422
 7181SOL     OW28455   4.869   4.789   1.110  0.0988  0.3456 -0.0122
 7181SOL    HW228456   4.828   4.812   1.193  1.3897 -0.7805  0.9853
 7181SOL    HW328457   4.820   4.713   1.078 -0.5571  0.9330 -0.4245
 7181SOL    MW428458   4.857   4.782   1.117  0.4306  0.1011 -0.3646
 7182SOL     OW28459   2.755   3.795   2.259 -0.3241  0.4711  0.0288
 7182SOL    HW228460   2.800   3.801   2.343 -1.9995 -0.6337  1.0432
 7182SOL    HW328461   2.820   3.828   2.196  0.7473  1.9553  1.7821
 7182SOL    MW428462   2.770   3.800   2.261  0.2518  0.2855  0.1800
 7183SOL     OW28463   4.781   3.276   0.806 -0.5511 -0.2666 -0.1864
 7183SOL    HW228464   4.836   3.292   0.729 -1.2260  0.4038 -0.5423
 7183SOL    HW328465   4.792   3.354   0.860  0.2489 -0.9112  0.6275
 7183SOL    MW428466   4.790   3.288   0.803 -0.6784  0.0788 -0.6182
 7184SOL     OW28467   0.704   3.743   5.559  0.3608 -0.2807 -0.0151
 7184SOL    HW228468   0.768   3.696   5.505  0.1256  1.3806 -1.8193
 7184SOL    HW328469   0.692   3.827   5.516 -1.1732  0.4521  1.6920
 7184SOL    MW428470   0.711   3.748   5.547 -0.1359 -0.2594 -0.1034
 7185SOL     OW28471   0.117   5.888   4.068 -0.1511 -0.8302  0.1379
 7185SOL    HW228472   0.160   5.804   4.082  1.3777 -0.2338 -0.6654
 7185SOL    HW328473   0.048   5.869   4.005 -1.3126 -1.8620  1.6417
 7185SOL    MW428474   0.114   5.874   4.061  0.0864 -0.2738 -0.4359
 7186SOL     OW28475   3.636   5.623   4.455  0.2025 -0.6106  0.0579
 7186SOL    HW228476   3.554   5.670   4.473  0.2581 -0.3551 -0.3447
 7186SOL    HW328477   3.705   5.685   4.479  0.2777 -0.3400 -0.8187
 7186SOL    MW428478   3.634   5.637   4.461  0.2108 -0.3765 -0.1207
 7187SOL     OW28479   2.121   0.414   0.889  0.4049 -0.1564 -0.3681
 7187SOL    HW228480   2.196   0.360   0.862  0.4544 -1.1093  1.5177
 7187SOL    HW328481   2.046   0.354   0.888 -0.0925  0.4577 -0.9555
 7187SOL    MW428482   2.121   0.399   0.885  0.6886 -0.1561  0.3467
 7188SOL     OW28483   5.879   3.953   6.405  0.3039 -0.3078 -0.3467
 7188SOL    HW228484   5.813   3.975   6.472  0.0943 -0.1324 -0.6078
 7188SOL    HW328485   5.941   4.026   6.409  0.8636 -0.8095  0.3732
 7188SOL    MW428486   5.878   3.966   6.414 -0.1055 -0.8676 -0.0894
 7189SOL     OW28487   0.308   1.214   2.939  0.0925 -0.1797  0.0199
 7189SOL    HW228488   0.299   1.260   3.023  0.8650  0.4140 -0.2106
 7189SOL    HW328489   0.374   1.265   2.891  0.7336 -1.3557 -0.3757
 7189SOL    MW428490   0.315   1.227   2.944  0.3719  0.2114 -0.3539
 7190SOL     OW28491   3.406   1.772   1.098 -0.7309 -0.1626  0.1562
 7190SOL    HW228492   3.401   1.793   1.191 -2.0643 -0.6306  0.2017
 7190SOL    HW328493   3.343   1.830   1.056  0.6076  0.7999 -0.6310
 7190SOL    MW428494   3.397   1.783   1.105  0.0099 -0.7227 -0.1975
 7191SOL     OW28495   6.013   4.962   3.111  0.6469  0.2158 -0.7233
 7191SOL    HW228496   6.022   4.935   3.202 -0.2129  1.4512 -0.2480
 7191SOL    HW328497   6.046   5.052   3.109  0.2516  0.3538 -1.5387
 7191SOL    MW428498   6.019   4.971   3.123 -0.3367  0.2547 -0.3363
 7192SOL     OW28499   3.085   1.863   5.857  0.4689  0.1862  0.1754
 7192SOL    HW228500   3.010   1.806   5.874 -1.9764  2.8086 -1.0366
 7192SOL    HW328501   3.147   1.807   5.810 -1.1291 -1.8205  0.3109
 7192SOL    MW428502   3.083   1.848   5.853 -0.4822  0.6059 -0.4433
 7193SOL     OW28503   1.969   5.134   4.566 -0.1012 -0.1710 -0.3209
 7193SOL    HW228504   2.001   5.199   4.628  0.6657  0.0173 -0.8930
 7193SOL    HW328505   1.890   5.173   4.529 -0.7452 -0.4255  0.7539
 7193SOL    MW428506   1.963   5.148   4.569 -0.4534  0.3381 -0.0809
 7194SOL     OW28507   4.391   3.890   3.076  0.6114 -0.2328 -0.4512
 7194SOL    HW228508   4.314   3.900   3.021 -0.5152  1.6960  1.3180
 7194SOL    HW328509   4.463   3.921   3.022 -0.6817  3.1917 -0.4682
 7194SOL    MW428510   4.390   3.896   3.062  0.0517 -0.0703 -0.4905
 7195SOL     OW28511   0.380   0.708   4.334 -0.4178  0.0390  0.1348
 7195SOL    HW228512   0.331   0.698   4.416  0.5463  2.9517  1.1829
 7195SOL    HW328513   0.465   0.741   4.362 -0.4908  2.3421 -2.0763
 7195SOL    MW428514   0.384   0.711   4.349  0.0620  0.7103  0.4042
 7196SOL     OW28515   3.747   5.955   4.710 -0.4999  0.1905  0.3200
 7196SOL    HW228516   3.673   6.002   4.671 -1.2426  0.0744  1.5243
 7196SOL    HW328517   3.715   5.929   4.797  1.2846  0.9470  1.2328
 7196SOL    MW428518   3.733   5.957   4.716  0.4239 -0.8022 -0.3909
 7197SOL     OW28519   2.318   4.388   1.526  0.6566  0.0675  0.5115
 7197SOL    HW228520   2.407   4.406   1.556 -0.0694  0.9085  2.3126
 7197SOL    HW328521   2.327   4.313   1.467  2.3567 -0.8737  1.8854
 7197SOL    MW428522   2.331   4.381   1.522  0.7127 -0.0678 -0.1307
 7198SOL     OW28523   2.752   1.888   1.900  0.3592 -0.3954  0.5514
 7198SOL    HW228524   2.841   1.924   1.897  0.4884 -0.3371  2.8148
 7198SOL    HW328525   2.762   1.806   1.950 -0.7245 -0.8576  0.0278
 7198SOL    MW428526   2.765   1.882   1.906 -0.1619 -0.2521 -0.0248
 7199SOL     OW28527   0.481   4.989   1.179 -0.2680 -0.6800 -0.8222
 7199SOL    HW228528   0.492   4.914   1.238 -2.2755  0.6276  1.3663
 7199SOL    HW328529   0.503   5.065   1.232 -0.3144  0.4434 -2.3619
 7199SOL    MW428530   0.485   4.989   1.194 -0.3027  0.0332  0.2490
 7200SOL     OW28531   0.788   2.248   3.537  0.6867 -0.6835  0.6400
 7200SOL    HW228532   0.882   2.233   3.546  0.3775 -3.1777  0.5761
 7200SOL    HW328533   0.747   2.167   3.570 -1.4024  0.0789  0.1131
 7200SOL    MW428534   0.795   2.235   3.542 -1.0690  0.1913 -0.3124
 7201SOL     OW28535   1.301   5.690   1.373  0.4507  0.0298 -0.3452
 7201SOL    HW228536   1.253   5.640   1.307 -0.4820 -0.3949  0.6083
 7201SOL    HW328537   1.393   5.679   1.351  0.2006 -1.1173 -0.8652
 7201SOL    MW428538   1.307   5.682   1.362 -0.8416  0.1312 -0.4052
 7202SOL     OW28539   1.217   4.379   4.290 -0.2942 -0.6101  0.0195
 7202SOL    HW228540   1.124   4.356   4.284 -0.9918  2.1939 -1.9766
 7202SOL    HW328541   1.252   4.360   4.203  0.6796 -0.4088  0.3582
 7202SOL    MW428542   1.209   4.373   4.278 -0.2775  0.0860 -0.4277
 7203SOL     OW28543   0.478   5.936   0.422  0.1968  0.2138 -0.0705
 7203SOL    HW228544   0.400   5.982   0.392  0.7938  0.4848 -1.3170
 7203SOL    HW328545   0.465   5.845   0.394  0.8254  0.4984 -1.4020
 7203SOL    MW428546   0.466   5.930   0.414 -0.8221 -0.6947 -0.7293
 7204SOL     OW28547   4.714   4.367   2.779  0.1000 -0.5803  0.1582
 7204SOL    HW228548   4.661   4.392   2.703 -0.3647 -0.4792  0.5056
 7204SOL    HW328549   4.662   4.300   2.822 -0.0787  0.0145  0.8915
 7204SOL    MW428550   4.700   4.362   2.774  0.0935 -0.3406 -0.5825
 7205SOL     OW28551   6.291   0.259   3.341 -0.0692 -0.5652  0.4550
 7205SOL    HW228552   6.338   0.177   3.326 -1.6981 -1.4948  0.1422
 7205SOL    HW328553   6.345   0.326   3.298  2.0271 -1.2080  1.9440
 7205SOL    MW428554   6.304   0.257   3.333 -0.3819  0.5314  0.3117
 7206SOL     OW28555   5.224   1.220   0.388 -0.7097 -0.0928 -0.1402
 7206SOL    HW228556   5.196   1.238   0.298  0.5661 -0.0909 -0.5524
 7206SOL    HW328557   5.284   1.292   0.409  1.2574 -1.6115 -0.3421
 7206SOL    MW428558   5.228   1.232   0.379 -0.3461 -0.5517 -0.4094
 7207SOL     OW28559   0.827   1.017   1.176  0.2910  0.2377  0.2481
 7207SOL    HW228560   0.913   1.011   1.218 -0.1038 -4.3988  0.8417
 7207SOL    HW328561   0.848   1.031   1.083  1.7852 -1.1267  0.3266
 7207SOL    MW428562   0.841   1.018   1.169  0.1800 -0.2263 -0.3985
 7208SOL     OW28563   4.549   5.116   4.959 -0.1029  0.5357  0.1476
 7208SOL    HW228564   4.580   5.075   5.040  1.2349 -1.3153 -1.1922
 7208SOL    HW328565   4.630   5.141   4.913 -0.7337 -0.1793 -1.4177
 7208SOL    MW428566   4.564   5.114   4.964 -0.2628  0.0957 -0.2650
 7209SOL     OW28567   2.964   1.126   5.754  0.1946 -0.5031 -0.9334
 7209SOL    HW228568   2.893   1.065   5.772 -0.3468  1.0833  3.4701
 7209SOL    HW328569   2.920   1.208   5.733  0.7773 -0.0894 -0.5571
 7209SOL    MW428570   2.948   1.129   5.754  0.4705 -0.0595  0.8563
 7210SOL     OW28571   4.020   2.276   2.248 -0.0953  0.0573  0.0787
 7210SOL    HW228572   3.967   2.262   2.327 -1.9367  0.1434 -1.0734
 7210SOL    HW328573   3.983   2.216   2.183  0.6967  0.7150 -1.0277
 7210SOL    MW428574   4.008   2.266   2.250 -0.4164 -0.3729 -0.5655
 7211SOL     OW28575   6.112   0.319   4.450  0.1877  0.0712  0.0889
 7211SOL    HW228576   6.021   0.289   4.460 -0.1615  1.3869  1.1908
 7211SOL    HW328577   6.106   0.414   4.460  1.7845  0.1070  0.8435
 7211SOL    MW428578   6.099   0.328   4.453 -0.2304  0.5089 -0.5966
 7212SOL     OW28579   2.524   0.499   4.708 -0.1306 -0.4335 -0.5755
 7212SOL    HW228580   2.494   0.417   4.668  1.0946 -0.7494 -0.8842
 7212SOL    HW328581   2.490   0.496   4.797 -1.3394 -0.5847 -1.0308
 7212SOL    MW428582   2.516   0.488   4.714 -0.3831 -0.5464  0.3469
 7213SOL     OW28583   0.984   2.822   0.676  0.1364  0.4597 -0.4993
 7213SOL    HW228584   0.969   2.902   0.726 -1.4011 -0.5367  0.7866
 7213SOL    HW328585   0.938   2.754   0.727  0.1285 -0.9626 -2.3004
 7213SOL    MW428586   0.976   2.823   0.689 -0.0633 -0.4956  0.2546
 7214SOL     OW28587   2.394   2.924   4.255  0.0712 -0.0822  0.1907
 7214SOL    HW228588   2.433   2.880   4.331  0.6479  0.7341  0.3777
 7214SOL    HW328589   2.359   2.853   4.201 -1.1348 -0.6384  1.6316
 7214SOL    MW428590   2.394   2.909   4.258 -0.0488  0.0701 -0.1656
 7215SOL     OW28591   6.242   4.843   1.297 -0.2040 -0.4610  0.4169
 7215SOL    HW228592   6.231   4.803   1.211 -1.6498 -1.0378  0.8415
 7215SOL    HW328593   6.159   4.827   1.342  0.3746  0.1831  1.7751
 7215SOL    MW428594   6.230   4.835   1.292 -0.0622  0.1643  0.2459
 7216SOL     OW28595   1.762   1.831   2.376  0.3044 -0.3987 -0.2262
 7216SOL    HW228596   1.792   1.912   2.418  0.5176 -1.5862  2.0637
 7216SOL    HW328597   1.673   1.850   2.347  0.6208  0.8647 -0.4338
 7216SOL    MW428598   1.754   1.844   2.377  0.4441 -0.4272  0.6366
 7217SOL     OW28599   2.450   3.261   0.228  0.6028 -0.0519 -0.1331
 7217SOL    HW228600   2.482   3.350   0.237 -1.4709  0.9068 -1.5168
 7217SOL    HW328601   2.469   3.237   0.137 -1.8827  0.3352 -0.8261
 7217SOL    MW428602   2.456   3.269   0.217  0.1444 -0.3239  0.1740
 7218SOL     OW28603   0.332   6.115   2.356  0.2472 -0.0469  0.7006
 7218SOL    HW228604   0.423   6.116   2.327  0.1608 -0.6423  0.3774
 7218SOL    HW328605   0.310   6.022   2.360 -0.2905  0.0903  0.9483
 7218SOL    MW428606   0.341   6.103   2.352  0.1857 -0.1920 -0.6023
 7219SOL     OW28607   0.200   5.656   4.156  0.5445  0.2954  0.2817
 7219SOL    HW228608   0.161   5.590   4.213 -0.1840 -0.2769 -0.8367
 7219SOL    HW328609   0.294   5.648   4.170  0.4495 -0.8234  0.3361
 7219SOL    MW428610   0.207   5.646   4.165 -0.0023  0.2779  0.0959
 7220SOL     OW28611   2.093   3.498   5.235 -0.3180 -0.2046  0.0448
 7220SOL    HW228612   2.165   3.490   5.297  0.3667 -1.4508 -0.8492
 7220SOL    HW328613   2.087   3.412   5.193 -2.0232  0.0088 -0.2560
 7220SOL    MW428614   2.101   3.485   5.237  0.5250  0.2313  0.0512
 7221SOL     OW28615   0.778   1.250   1.362 -0.0644  0.1830  0.0370
 7221SOL    HW228616   0.812   1.304   1.291 -1.8374 -0.5285 -1.4124
 7221SOL    HW328617   0.767   1.163   1.324 -2.3489  0.0979  0.7163
 7221SOL    MW428618   0.781   1.246   1.348  0.1808  0.7414  0.3664
 7222SOL     OW28619   0.529   4.850   2.606 -0.4207 -0.5316 -0.0089
 7222SOL    HW228620   0.571   4.864   2.521 -1.5400  0.8976 -0.3649
 7222SOL    HW328621   0.528   4.936   2.646 -1.5789 -0.8420  0.6642
 7222SOL    MW428622   0.535   4.863   2.600 -0.1271 -0.1892 -0.5037
 7223SOL     OW28623   5.949   3.369   3.123  0.3685 -0.1132 -0.1202
 7223SOL    HW228624   5.913   3.379   3.211 -0.2547 -1.5933 -0.1730
 7223SOL    HW328625   6.027   3.315   3.135 -1.3372 -2.9085 -0.7209
 7223SOL    MW428626   5.955   3.363   3.136  0.3149  0.2485  0.1745
 7224SOL     OW28627   4.550   3.105   0.148  0.3405  0.3568 -0.5652
 7224SOL    HW228628   4.470   3.085   0.100 -0.0582  0.4793  0.0304
 7224SOL    HW328629   4.619   3.103   0.082 -0.0554 -0.4097 -0.9720
 7224SOL    MW428630   4.548   3.102   0.133  0.0601  0.2408 -0.3113
 7225SOL     OW28631   4.156   4.149   5.996  0.3302 -0.2531  0.6458
 7225SOL    HW228632   4.112   4.147   5.911 -0.2998 -0.5559  0.9684
 7225SOL    HW328633   4.169   4.242   6.014  0.0004 -0.1673  0.4510
 7225SOL    MW428634   4.152   4.161   5.987  1.0717  0.5877 -0.7079
 7226SOL     OW28635   5.353   5.520   4.827 -0.2366  0.5052 -0.1945
 7226SOL    HW228636   5.387   5.432   4.811 -2.9657 -0.8721  0.7781
 7226SOL    HW328637   5.327   5.519   4.919  0.0182  2.4973 -0.0602
 7226SOL    MW428638   5.354   5.508   4.837  0.5174  0.1311  0.2218
 7227SOL     OW28639   1.473   3.749   2.773  0.3765 -0.0178 -0.1197
 7227SOL    HW228640   1.392   3.724   2.816  0.5155  1.6243  1.2082
 7227SOL    HW328641   1.446   3.788   2.690  0.0722 -2.7147 -1.3759
 7227SOL    MW428642   1.459   3.751   2.768 -0.6970  0.6534  0.1697
 7228SOL     OW28643   5.884   1.502   3.614  0.3061 -0.4414 -0.5216
 7228SOL    HW228644   5.835   1.446   3.553 -0.5562 -0.2909  0.0100
 7228SOL    HW328645   5.975   1.497   3.584 -0.1589  0.0264 -2.1161
 7228SOL    MW428646   5.889   1.494   3.602 -0.2486  0.2827 -0.1210
 7229SOL     OW28647   6.305   2.793   0.581 -0.3667  0.1936  0.1745
 7229SOL    HW228648   6.273   2.718   0.531  1.4277 -1.0839  0.8146
 7229SOL    HW328649   6.387   2.817   0.537  1.2803 -0.9784  2.3955
 7229SOL    MW428650   6.312   2.786   0.568 -0.3850 -0.2908 -0.2610
 7230SOL     OW28651   4.662   4.361   4.194  0.7671 -0.0674 -0.3953
 7230SOL    HW228652   4.583   4.396   4.234  1.1309 -0.4390  0.6862
 7230SOL    HW328653   4.632   4.287   4.142  0.5267 -0.9584  0.9689
 7230SOL    MW428654   4.648   4.356   4.192  0.1721 -0.0897  0.2098
 7231SOL     OW28655   4.964   1.168   3.233  0.7434  0.7446  0.0576
 7231SOL    HW228656   4.869   1.180   3.240  0.6441 -0.0027  0.0188
 7231SOL    HW328657   4.978   1.136   3.145  0.7906 -1.2717  0.7502
 7231SOL    MW428658   4.953   1.165   3.223  0.0312 -0.3439  0.1283
 7232SOL     OW28659   6.188   6.098   3.973  0.0443  0.2680 -0.1043
 7232SOL    HW228660   6.093   6.086   3.983 -0.0910  0.9423 -0.5332
 7232SOL    HW328661   6.222   6.096   4.062 -0.3201 -0.3639  0.0329
 7232SOL    MW428662   6.180   6.096   3.986 -0.1247  0.7805 -0.1515
 7233SOL     OW28663   0.832   5.795   2.511  0.0655 -0.7230  0.2068
 7233SOL    HW228664   0.844   5.887   2.489 -1.2321 -0.3448  0.9789
 7233SOL    HW328665   0.813   5.752   2.428 -0.3583 -0.1096 -0.0179
 7233SOL    MW428666   0.831   5.801   2.497  0.0903 -0.1450 -0.2496
 7234SOL     OW28667   4.721   4.505   4.753  0.1108  0.1032  0.4349
 7234SOL    HW228668   4.679   4.587   4.779 -1.9280 -0.4408 -0.8795
 7234SOL    HW328669   4.666   4.472   4.682  1.3051 -2.0471  0.4415
 7234SOL    MW428670   4.708   4.512   4.747  0.6747 -0.1917 -0.7141
 7235SOL     OW28671   3.355   0.648   4.502  0.4602  0.0768 -0.4152
 7235SOL    HW228672   3.312   0.702   4.568 -0.6631 -1.7795  0.4455
 7235SOL    HW328673   3.284   0.617   4.446  0.8419 -1.7223  0.0421
 7235SOL    MW428674   3.340   0.651   4.503  0.0682  0.7136 -0.1891
 7236SOL     OW28675   5.361   3.233   3.818 -0.1926 -0.3414  0.4366
 7236SOL    HW228676   5.291   3.196   3.871 -0.7250  1.1406  0.8166
 7236SOL    HW328677   5.413   3.285   3.879 -0.2158  0.5653 -0.2916
 7236SOL    MW428678   5.359   3.235   3.833  0.7928  0.8442 -0.4004
 7237SOL     OW28679   3.928   1.290   3.935 -0.2769 -0.6090 -0.3854
 7237SOL    HW228680   3.911   1.314   4.026  1.5482  1.2026 -0.4414
 7237SOL    HW328681   4.001   1.229   3.940  0.3857  0.1441 -0.6474
 7237SOL    MW428682   3.935   1.285   3.947 -0.2461 -0.1330 -0.2336
 7238SOL     OW28683   1.044   3.944   1.660 -0.2489  0.1212  0.1221
 7238SOL    HW228684   1.076   3.870   1.712  2.7769  0.9982 -0.2994
 7238SOL    HW328685   0.951   3.950   1.682  0.2690 -1.2934  3.2557
 7238SOL    MW428686   1.036   3.935   1.670 -0.5183 -0.7796 -0.5808
 7239SOL     OW28687   6.119   5.295   1.485 -0.2143  0.3917  0.1033
 7239SOL    HW228688   6.124   5.371   1.426 -2.5032  1.3695  1.0152
 7239SOL    HW328689   6.158   5.325   1.567  1.5876 -0.4627 -0.4026
 7239SOL    MW428690   6.125   5.309   1.488 -0.4425 -0.4170 -0.5629
 7240SOL     OW28691   0.887   0.809   5.445  0.1228  0.0251  0.1837
 7240SOL    HW228692   0.831   0.874   5.489  2.4122  1.6865  0.8820
 7240SOL    HW328693   0.847   0.797   5.359 -4.3772 -3.1247  2.3307
 7240SOL    MW428694   0.874   0.816   5.440 -0.4055  0.9521  0.0128
 7241SOL     OW28695   3.508   0.298   2.110 -0.2199  0.2167 -0.1971
 7241SOL    HW228696   3.538   0.251   2.032 -1.0801  0.5750 -0.7587
 7241SOL    HW328697   3.427   0.341   2.082 -0.6853  0.1263  0.9788
 7241SOL    MW428698   3.501   0.298   2.096  0.3054 -0.0191  0.8570
 7242SOL     OW28699   2.913   6.164   2.849 -0.4540  0.1211  0.1988
 7242SOL    HW228700   2.951   6.121   2.925 -0.9346 -1.2524 -0.3226
 7242SOL    HW328701   2.844   6.221   2.885 -0.5779 -0.4001  0.7968
 7242SOL    MW428702   2.909   6.166   2.864 -0.6340 -0.1670 -0.1822
 7243SOL     OW28703   3.243   4.283   0.509  0.1910 -0.7214 -0.3045
 7243SOL    HW228704   3.256   4.196   0.548 -0.0977 -1.1297 -1.0962
 7243SOL    HW328705   3.167   4.318   0.554  0.6479 -0.6359  0.4215
 7243SOL    MW428706   3.235   4.276   0.520  0.7434 -0.7465  0.2511
 7244SOL     OW28707   3.097   0.170   2.068 -0.3585 -0.0753 -0.4484
 7244SOL    HW228708   3.131   0.172   2.158 -1.4244 -0.5606 -0.0183
 7244SOL    HW328709   3.029   0.103   2.070 -2.7284  2.1752 -0.7680
 7244SOL    MW428710   3.093   0.162   2.080 -0.2792 -0.2781 -0.4303
 7245SOL     OW28711   2.464   1.604   2.786 -0.2908  0.1019  0.0474
 7245SOL    HW228712   2.409   1.615   2.709 -0.8658 -0.0261  0.4317
 7245SOL    HW328713   2.441   1.677   2.843  2.9959  2.6014 -1.5106
 7245SOL    MW428714   2.454   1.615   2.783  0.1478  0.0391 -0.8410
 7246SOL     OW28715   4.199   4.155   3.281  0.7259 -0.3731 -0.3867
 7246SOL    HW228716   4.137   4.089   3.310  0.3099  0.0600 -0.2790
 7246SOL    HW328717   4.213   4.210   3.358  0.3790  0.1950 -0.7248
 7246SOL    MW428718   4.193   4.154   3.295  1.0485  0.5060  0.4732
 7247SOL     OW28719   4.225   5.597   4.608 -0.2989  0.1036  0.7252
 7247SOL    HW228720   4.172   5.641   4.674 -0.7970  0.0723  0.3553
 7247SOL    HW328721   4.315   5.615   4.633 -0.4299  2.9821 -0.4253
 7247SOL    MW428722   4.230   5.605   4.620 -0.2907 -0.0889  0.0397
 7248SOL     OW28723   1.162   3.316   0.903  0.3602  0.2465 -0.0319
 7248SOL    HW228724   1.171   3.239   0.847 -2.2642 -0.3877  0.3027
 7248SOL    HW328725   1.117   3.381   0.848  0.8300  0.8640  0.2921
 7248SOL    MW428726   1.157   3.315   0.888 -0.0787 -0.2758 -0.0996
 7249SOL     OW28727   5.152   1.964   3.061 -0.4598 -0.6292 -0.2359
 7249SOL    HW228728   5.086   1.967   2.991 -0.5740 -2.0443 -0.2224
 7249SOL    HW328729   5.113   1.906   3.127 -0.3399  0.6715  1.0007
 7249SOL    MW428730   5.138   1.956   3.060  0.1205 -0.2508  0.0862
 7250SOL     OW28731   5.113   2.778   2.451 -0.0454 -0.4340  0.5550
 7250SOL    HW228732   5.077   2.865   2.435 -1.8857 -1.0799  0.9277
 7250SOL    HW328733   5.200   2.780   2.412  0.6913  2.1406  2.0913
 7250SOL    MW428734   5.120   2.790   2.444 -0.3081  0.4169  0.4194
 7251SOL     OW28735   4.318   4.271   0.415 -0.1251 -0.5901 -0.0364
 7251SOL    HW228736   4.224   4.267   0.399 -0.4925  1.4773  1.2432
 7251SOL    HW328737   4.355   4.310   0.336 -0.6472  0.5363  0.2545
 7251SOL    MW428738   4.311   4.275   0.403  0.3612  0.0076  0.1388
 7252SOL     OW28739   5.693   1.375   4.261 -0.5110  0.1182 -0.2585
 7252SOL    HW228740   5.743   1.310   4.212 -2.9291 -0.2402 -2.5221
 7252SOL    HW328741   5.653   1.326   4.333 -0.1729 -0.3056 -0.3573
 7252SOL    MW428742   5.694   1.360   4.264 -0.1762  0.3189  0.0128
 7253SOL     OW28743   5.356   2.260   5.248  0.1919 -0.1925  0.4500
 7253SOL    HW228744   5.267   2.226   5.238  0.0047  0.4927 -0.2926
 7253SOL    HW328745   5.369   2.316   5.172  0.8705  0.5830  1.1205
 7253SOL    MW428746   5.346   2.263   5.237 -0.5957  0.2908  0.4361
 7254SOL     OW28747   0.524   5.020   5.070  0.7785 -0.5031  0.5702
 7254SOL    HW228748   0.533   5.075   5.148  1.5991 -0.3047  0.3521
 7254SOL    HW328749   0.597   4.959   5.076 -0.9997 -2.6472  1.6148
 7254SOL    MW428750   0.535   5.020   5.081  0.2447  0.4606 -0.8605
 7255SOL     OW28751   1.145   1.537   2.133  0.2875 -0.0620 -0.2756
 7255SOL    HW228752   1.053   1.529   2.158 -0.0740  3.2691 -0.1076
 7255SOL    HW328753   1.146   1.517   2.039 -0.4799 -0.7138 -0.1564
 7255SOL    MW428754   1.133   1.534   2.124  0.0786 -0.2610  0.0503
 7256SOL     OW28755   1.147   3.318   0.560  0.2057  0.1130  0.0292
 7256SOL    HW228756   1.186   3.234   0.586  1.4728 -0.3290 -2.9168
 7256SOL    HW328757   1.219   3.380   0.563 -0.2028  0.5938  0.0055
 7256SOL    MW428758   1.162   3.315   0.564  0.6278  0.0120  0.5977
 7257SOL     OW28759   6.268   3.633   0.980  0.1292  0.7601  0.3251
 7257SOL    HW228760   6.196   3.639   1.043 -0.1244  2.1148 -0.0809
 7257SOL    HW328761   6.336   3.584   1.027 -1.1022 -0.7275  0.6388
 7257SOL    MW428762   6.268   3.627   0.995 -0.2423  0.1626 -0.0405
 7258SOL     OW28763   6.046   2.606   5.978  0.3035 -0.3454 -0.7282
 7258SOL    HW228764   6.046   2.511   5.984  0.9357 -0.4057 -1.5794
 7258SOL    HW328765   6.123   2.628   5.926 -0.3775  0.5792 -1.3920
 7258SOL    MW428766   6.056   2.597   5.972  0.2582  0.3481 -0.2565
 7259SOL     OW28767   1.766   2.905   1.346 -0.1523  0.9206  0.3589
 7259SOL    HW228768   1.773   2.832   1.408 -0.3707  0.7033  0.1320
 7259SOL    HW328769   1.724   2.866   1.269 -2.0918  1.7132  0.9435
 7259SOL    MW428770   1.761   2.890   1.344 -0.1782 -0.4960 -0.9396
 7260SOL     OW28771   3.548   5.364   3.297 -0.2321 -0.0363 -0.7615
 7260SOL    HW228772   3.540   5.275   3.262 -0.1231 -0.3127 -0.0999
 7260SOL    HW328773   3.553   5.420   3.220  1.3560 -0.7399 -1.2001
 7260SOL    MW428774   3.547   5.360   3.283 -0.3955  0.3888  0.1362
 7261SOL     OW28775   4.378   1.344   0.427  0.4490  0.2413 -0.0872
 7261SOL    HW228776   4.312   1.336   0.357  0.5064  0.8004 -0.2075
 7261SOL    HW328777   4.371   1.435   0.456  1.1460  0.2885 -0.0701
 7261SOL    MW428778   4.368   1.355   0.421 -0.5808 -0.3099 -0.0021
 7262SOL     OW28779   3.982   4.156   2.293 -0.2925 -0.1093  0.2844
 7262SOL    HW228780   3.887   4.145   2.294 -0.5047  1.4054 -0.3127
 7262SOL    HW328781   3.998   4.219   2.223  1.4032 -2.2025 -1.3325
 7262SOL    MW428782   3.972   4.163   2.284 -0.1588 -0.1327  0.1937
 7263SOL     OW28783   1.604   4.075   3.235  0.1173  0.1655  0.3981
 7263SOL    HW228784   1.635   3.985   3.225 -0.1516  0.2646 -2.0856
 7263SOL    HW328785   1.680   4.123   3.268 -0.3413 -1.2573  3.9489
 7263SOL    MW428786   1.619   4.069   3.238 -0.5079 -0.4706  0.2975
 7264SOL     OW28787   1.746   0.627   2.820  0.5852 -0.1358 -0.0528
 7264SOL    HW228788   1.715   0.541   2.790 -3.0412  1.1793 -0.6046
 7264SOL    HW328789   1.726   0.628   2.914 -0.9748  0.6029 -0.3513
 7264SOL    MW428790   1.739   0.615   2.828 -0.1861 -0.3907 -0.3702
 7265SOL     OW28791   3.452   1.897   2.251 -0.1158  0.2204 -0.1458
 7265SOL    HW228792   3.492   1.818   2.287  1.2120  1.8650  2.2535
 7265SOL    HW328793   3.358   1.878   2.251 -0.0007 -0.7622  2.1644
 7265SOL    MW428794   3.445   1.884   2.256 -0.1506 -0.3344  0.2379
 7266SOL     OW28795   5.924   5.361   5.749 -0.6530  0.3925 -0.1737
 7266SOL    HW228796   5.954   5.282   5.706 -3.1467 -1.4039  1.1189
 7266SOL    HW328797   6.004   5.405   5.779  0.8025 -1.5093 -1.0865
 7266SOL    MW428798   5.938   5.357   5.747 -0.5328  0.3288  0.0744
 7267SOL     OW28799   2.134   2.214   1.399 -0.2470 -0.6070  0.0821
 7267SOL    HW228800   2.216   2.183   1.362 -0.5919  0.3680 -1.5953
 7267SOL    HW328801   2.066   2.176   1.342 -0.7519  1.6018 -0.8875
 7267SOL    MW428802   2.136   2.205   1.386  0.0286 -0.4340 -0.1770
 7268SOL     OW28803   2.305   2.517   4.962 -0.2034 -0.2294  0.2086
 7268SOL    HW228804   2.255   2.573   5.020  0.4519  0.0782  0.4911
 7268SOL    HW328805   2.336   2.446   5.018  0.4406  0.0748  0.2457
 7268SOL    MW428806   2.303   2.515   4.977  0.6087  0.3038 -0.0634
 7269SOL     OW28807   1.917   0.699   1.812  0.8030 -0.1721 -0.0751
 7269SOL    HW228808   1.851   0.720   1.746 -1.3437 -1.0953  1.6419
 7269SOL    HW328809   1.929   0.781   1.860  0.1088 -0.2308  0.2228
 7269SOL    MW428810   1.910   0.712   1.810  0.3264  0.2982 -0.4935
 7270SOL     OW28811   4.580   1.572   3.578 -0.2570 -0.3126 -0.4037
 7270SOL    HW228812   4.556   1.660   3.547 -0.5460 -0.3283 -0.2232
 7270SOL    HW328813   4.616   1.529   3.500 -0.3585 -0.1248 -0.5563
 7270SOL    MW428814   4.582   1.578   3.564 -0.0761 -0.0966  0.1804
 7271SOL     OW28815   5.693   5.970   4.806 -0.1450  0.1640  0.2281
 7271SOL    HW228816   5.599   5.980   4.821 -0.0199  0.3981  0.8768
 7271SOL    HW328817   5.702   5.969   4.711 -0.7488  0.7537  0.1547
 7271SOL    MW428818   5.682   5.971   4.795  0.2058 -0.1635  0.2717
 7272SOL     OW28819   2.451   2.507   4.556  0.2340  0.9650 -0.4098
 7272SOL    HW228820   2.483   2.473   4.639  3.1701 -2.1347 -2.5155
 7272SOL    HW328821   2.356   2.493   4.559  0.4987 -0.9679  1.6559
 7272SOL    MW428822   2.443   2.501   4.567  0.5812 -0.0855 -0.4928
 7273SOL     OW28823   5.647   2.535   4.082 -0.0771 -0.2251  0.3585
 7273SOL    HW228824   5.661   2.517   4.175 -0.4320 -0.3380  0.3914
 7273SOL    HW328825   5.679   2.457   4.037 -0.7789 -0.5782  0.4473
 7273SOL    MW428826   5.653   2.523   4.088  0.1728 -0.1871  0.5146
 7274SOL     OW28827   5.865   3.940   0.391  0.4533 -0.0738 -0.5074
 7274SOL    HW228828   5.957   3.927   0.368  0.4098 -1.8942  0.1994
 7274SOL    HW328829   5.863   3.935   0.486 -0.2833  0.7110 -0.4723
 7274SOL    MW428830   5.876   3.938   0.400 -0.4683  0.1635  0.2752
 7275SOL     OW28831   3.256   6.119   2.781  0.4765  0.4085 -0.3153
 7275SOL    HW228832   3.315   6.139   2.708  0.3738  0.3715 -0.4081
 7275SOL    HW328833   3.179   6.174   2.766  0.8050  1.0227  0.2188
 7275SOL    MW428834   3.254   6.129   2.770  0.1575 -0.2599  0.2865
 7276SOL     OW28835   2.417   2.741   5.849 -0.2306  0.2648  0.2973
 7276SOL    HW228836   2.364   2.785   5.916 -0.0302 -0.4554  0.9498
 7276SOL    HW328837   2.365   2.746   5.769  0.1563  2.4535  0.1139
 7276SOL    MW428838   2.403   2.748   5.848  0.0227  0.5054 -0.5610
 7277SOL     OW28839   1.331   2.184   3.692 -0.3436  0.0003 -0.3687
 7277SOL    HW228840   1.248   2.205   3.648 -0.8432 -0.6070  0.2446
 7277SOL    HW328841   1.362   2.106   3.647 -0.4271 -0.1370 -0.1873
 7277SOL    MW428842   1.324   2.177   3.680 -0.0568  0.0068 -0.1149
 7278SOL     OW28843   1.498   1.200   0.016 -0.0465 -0.6386 -0.1737
 7278SOL    HW228844   1.413   1.216  -0.027 -0.7393  0.0800  1.3890
 7278SOL    HW328845   1.478   1.137   0.085  0.8745 -1.1167 -0.3393
 7278SOL    MW428846   1.484   1.194   0.019  0.1315 -0.3580  0.2337
 7279SOL     OW28847   2.471   3.453   4.072  0.1377 -0.0001  0.3821
 7279SOL    HW228848   2.475   3.509   4.149 -0.2093 -1.1098  1.2291
 7279SOL    HW328849   2.445   3.367   4.105 -0.2082 -0.4600 -0.9920
 7279SOL    MW428850   2.468   3.449   4.086 -0.1184 -0.6380 -0.3398
 7280SOL     OW28851   4.765   1.343   5.631 -0.0210  0.2778  0.1882
 7280SOL    HW228852   4.754   1.389   5.549 -0.6563 -1.2287 -0.6140
 7280SOL    HW328853   4.704   1.269   5.626  0.8734 -0.5987  1.4326
 7280SOL    MW428854   4.756   1.339   5.620  0.6180 -0.3885  0.7377
 7281SOL     OW28855   5.705   3.689   5.557  0.3561 -0.0523  0.0576
 7281SOL    HW228856   5.662   3.756   5.610  0.1745  0.8857 -1.2270
 7281SOL    HW328857   5.766   3.737   5.502  1.0922 -1.0858 -0.0571
 7281SOL    MW428858   5.707   3.704   5.557 -0.0580 -0.2855 -0.5547
 7282SOL     OW28859   1.489   4.123   3.503  0.0622  0.1728 -0.5476
 7282SOL    HW228860   1.515   4.108   3.412  0.7601  1.1002 -0.5154
 7282SOL    HW328861   1.566   4.099   3.554 -0.0428  0.4454 -0.2600
 7282SOL    MW428862   1.503   4.118   3.497 -0.0030 -0.0249  0.1109
 7283SOL     OW28863   5.337   5.124   4.644 -0.2409 -0.3767 -0.1167
 7283SOL    HW228864   5.262   5.183   4.644 -0.4411 -0.6291 -0.7433
 7283SOL    HW328865   5.390   5.152   4.570 -0.2898 -0.9205 -0.3622
 7283SOL    MW428866   5.334   5.136   4.634 -0.4722 -0.2176 -0.3300
 7284SOL     OW28867   4.439   2.568   4.713  0.4201  0.0037 -0.2754
 7284SOL    HW228868   4.447   2.479   4.679  1.8246  0.6863 -1.9094
 7284SOL    HW328869   4.415   2.557   4.805  2.3815 -2.1215  0.0683
 7284SOL    MW428870   4.437   2.555   4.721 -0.3245 -0.7875  0.3356
 7285SOL     OW28871   6.353   5.997   1.826 -0.2696  0.2118  0.1066
 7285SOL    HW228872   6.362   5.920   1.883  0.4385 -0.4933 -0.9145
 7285SOL    HW328873   6.399   5.972   1.746  0.2147  1.8255 -0.1464
 7285SOL    MW428874   6.360   5.983   1.823  0.5626  0.3581 -0.5786
 7286SOL     OW28875   0.359   1.124   1.497  0.5091 -0.2763 -0.0703
 7286SOL    HW228876   0.436   1.151   1.447  1.7570  0.2993  2.0190
 7286SOL    HW328877   0.387   1.044   1.543 -0.0695 -0.0029  0.7906
 7286SOL    MW428878   0.373   1.117   1.497  0.1137  0.2177 -0.2374
 7287SOL     OW28879   3.654   0.521   2.038  0.1958 -0.3308 -0.3420
 7287SOL    HW228880   3.620   0.431   2.034 -1.2978  0.2377 -1.2566
 7287SOL    HW328881   3.619   0.563   1.960  2.5340  0.5252 -1.0042
 7287SOL    MW428882   3.645   0.515   2.027  0.5520 -0.1052 -0.1923
 7288SOL     OW28883   6.111   1.653   0.025  0.6680  0.4796  0.7144
 7288SOL    HW228884   6.175   1.622  -0.039  0.2463  0.3230  0.3663
 7288SOL    HW328885   6.084   1.574   0.072 -1.7316 -0.0388 -1.3516
 7288SOL    MW428886   6.116   1.639   0.023  0.1862 -0.5624 -0.3245
 7289SOL     OW28887   4.803   0.700   4.359 -0.0351 -0.3131  0.3952
 7289SOL    HW228888   4.782   0.760   4.430 -1.3145 -0.3162  0.0534
 7289SOL    HW328889   4.889   0.728   4.328  0.2290  0.1205  1.4871
 7289SOL    MW428890   4.811   0.712   4.364 -0.5941 -0.0644 -0.2433
 7290SOL     OW28891   5.989   5.909   4.319  0.4160  0.4535 -0.3069
 7290SOL    HW228892   5.908   5.929   4.365  0.3757  0.9260 -0.5696
 7290SOL    HW328893   5.974   5.824   4.279  0.4002  0.1080  0.4310
 7290SOL    MW428894   5.976   5.901   4.320 -0.0869 -0.2552 -0.0064
 7291SOL     OW28895   1.234   2.338   0.955  0.4222  0.1835  0.1298
 7291SOL    HW228896   1.186   2.266   0.915  0.2296  0.2531  0.2361
 7291SOL    HW328897   1.227   2.322   1.049  1.6750 -0.5140  0.1300
 7291SOL    MW428898   1.227   2.326   0.962  0.1546 -0.0859 -0.2563
 7292SOL     OW28899   4.139   3.317   3.773  0.2448  0.2055 -0.3147
 7292SOL    HW228900   4.125   3.225   3.797  0.9411 -0.2664 -1.6028
 7292SOL    HW328901   4.105   3.324   3.684  0.5925  1.0936 -0.3897
 7292SOL    MW428902   4.133   3.306   3.764 -0.7531  0.1796 -0.1815
 7293SOL     OW28903   0.058   2.834   0.141 -0.6672 -0.0112 -0.3503
 7293SOL    HW228904   0.011   2.893   0.200 -1.3947  1.3424 -2.2058
 7293SOL    HW328905   0.086   2.762   0.198 -1.2450  1.2454  1.6609
 7293SOL    MW428906   0.056   2.832   0.157  0.0819  0.0835  0.5807
 7294SOL     OW28907   1.251   0.444   5.046  0.4180  0.2303 -0.1558
 7294SOL    HW228908   1.339   0.444   5.085 -0.0537 -0.0899  0.9659
 7294SOL    HW328909   1.237   0.353   5.021  0.2090  0.1743  0.1568
 7294SOL    MW428910   1.261   0.432   5.048  0.0720  0.1001 -0.3997
 7295SOL     OW28911   0.884   0.354   5.041 -0.4873  0.4326  0.3637
 7295SOL    HW228912   0.945   0.411   5.087 -0.5583  0.0724  0.9114
 7295SOL    HW328913   0.906   0.365   4.948  1.1731 -0.5460  0.6047
 7295SOL    MW428914   0.895   0.363   5.035 -0.6689  0.0963 -0.1634
 7296SOL     OW28915   5.896   0.522   2.420  0.0702  0.0500  0.9137
 7296SOL    HW228916   5.933   0.434   2.423 -0.4716 -0.2622 -0.8086
 7296SOL    HW328917   5.895   0.550   2.512 -0.0955 -1.8682  1.5489
 7296SOL    MW428918   5.901   0.514   2.433 -0.3922 -0.0849  0.3592
 7297SOL     OW28919   2.220   5.613   1.892 -0.3240 -0.1458  0.2260
 7297SOL    HW228920   2.159   5.648   1.827 -0.5105 -1.3308 -0.2475
 7297SOL    HW328921   2.297   5.669   1.884 -0.2358 -0.4328 -1.2025
 7297SOL    MW428922   2.222   5.625   1.883 -0.2527 -0.4474  0.2693
 7298SOL     OW28923   1.195   1.192   2.089  1.0448 -0.3147 -0.3793
 7298SOL    HW228924   1.106   1.226   2.090  0.6294 -1.2912  1.6276
 7298SOL    HW328925   1.243   1.250   2.148  0.7831 -1.9092  1.5214
 7298SOL    MW428926   1.190   1.204   2.097  0.2464 -0.2897  0.2007
 7299SOL     OW28927   2.320   4.612   5.604  0.1525 -0.5735 -0.3761
 7299SOL    HW228928   2.239   4.561   5.612 -0.3467  0.2093 -0.3131
 7299SOL    HW328929   2.384   4.550   5.570 -0.3144 -1.3614  0.1519
 7299SOL    MW428930   2.317   4.598   5.600 -0.6788  0.2675 -0.0026
 7300SOL     OW28931   1.265   5.917   0.179 -0.0250  0.3175  0.2603
 7300SOL    HW228932   1.212   5.934   0.257  2.7426  2.2847  1.8889
 7300SOL    HW328933   1.258   5.997   0.127 -0.5401 -0.3524 -0.7227
 7300SOL    MW428934   1.257   5.930   0.182 -0.4140  0.3374 -0.2470
 7301SOL     OW28935   5.451   0.661   2.230 -0.5203 -0.2578  0.2656
 7301SOL    HW228936   5.448   0.720   2.155 -0.5526  0.1376  0.5708
 7301SOL    HW328937   5.540   0.673   2.266 -0.9252  0.5414  1.0573
 7301SOL    MW428938   5.463   0.671   2.225 -0.0677  0.2116 -0.2577
 7302SOL     OW28939   3.860   0.756   2.217 -0.3716  0.0472 -0.1265
 7302SOL    HW228940   3.865   0.662   2.198 -0.2377  0.1993 -0.8857
 7302SOL    HW328941   3.769   0.770   2.245 -0.6456 -0.1653 -0.8706
 7302SOL    MW428942   3.848   0.746   2.218 -0.4634 -0.1125 -1.0845
 7303SOL     OW28943   5.615   1.827   3.404  0.0060  0.0783 -0.5826
 7303SOL    HW228944   5.682   1.813   3.338  0.8235 -0.4412  0.3433
 7303SOL    HW328945   5.628   1.918   3.432 -0.3839  0.3205 -1.1642
 7303SOL    MW428946   5.625   1.837   3.399  0.1357 -0.2310  0.3458
 7304SOL     OW28947   2.283   3.128   5.524 -0.1875  0.3443  0.1250
 7304SOL    HW228948   2.365   3.166   5.554  0.4829 -1.2293  0.3569
 7304SOL    HW328949   2.307   3.044   5.487 -1.3357  1.0344 -2.4361
 7304SOL    MW428950   2.297   3.122   5.523  0.3008 -0.1070  1.0799
 7305SOL     OW28951   4.508   2.013   5.451 -0.0581  0.4651 -0.3841
 7305SOL    HW228952   4.421   2.017   5.491 -0.9686 -1.9744 -1.9193
 7305SOL    HW328953   4.506   1.933   5.398  1.9773  2.0554 -3.1036
 7305SOL    MW428954   4.496   2.003   5.449 -0.5369  0.0021 -0.3223
 7306SOL     OW28955   1.360   1.594   1.322  1.3011  0.9007 -0.1850
 7306SOL    HW228956   1.334   1.684   1.301 -0.1172  0.4490 -0.4479
 7306SOL    HW328957   1.285   1.558   1.369  0.9737 -0.7657 -1.8576
 7306SOL    MW428958   1.347   1.601   1.325 -0.5366 -0.3466 -0.3887
 7307SOL     OW28959   2.593   4.319   1.986  0.6176  0.3833 -0.5451
 7307SOL    HW228960   2.619   4.228   1.973  1.0759  0.7663 -2.5758
 7307SOL    HW328961   2.520   4.332   1.926 -0.1726  1.0887  0.5211
 7307SOL    MW428962   2.586   4.309   1.977 -0.1784  0.5388 -0.1220
 7308SOL     OW28963   4.887   1.812   1.144  0.3643  0.1602 -0.0895
 7308SOL    HW228964   4.869   1.859   1.226  0.7821 -1.3008  0.8676
 7308SOL    HW328965   4.980   1.794   1.147  1.4352  3.9109 -3.0158
 7308SOL    MW428966   4.897   1.816   1.155  0.6397 -0.1271 -0.3405
 7309SOL     OW28967   6.064   4.781   2.011 -0.7011 -0.1579  0.0936
 7309SOL    HW228968   6.126   4.854   2.010 -2.0005  0.9865 -0.5902
 7309SOL    HW328969   6.093   4.725   2.083  1.6604 -0.1662 -0.7995
 7309SOL    MW428970   6.076   4.784   2.020 -0.3668  0.0669  0.3402
 7310SOL     OW28971   1.378   3.660   3.962 -0.0004  0.0231  0.6347
 7310SOL    HW228972   1.398   3.568   3.941 -3.2647 -0.0602 -3.2269
 7310SOL    HW328973   1.310   3.655   4.029 -0.1141 -0.3963  0.4953
 7310SOL    MW428974   1.372   3.647   3.968 -0.0983  0.1403  0.2050
 7311SOL     OW28975   5.323   1.007   3.790 -0.0890 -0.5263 -0.7853
 7311SOL    HW228976   5.326   1.102   3.800  0.4542 -0.4764 -1.3383
 7311SOL    HW328977   5.250   0.979   3.845  1.9558 -0.2026  2.2969
 7311SOL    MW428978   5.314   1.016   3.798  0.0979 -0.0912  0.6490
 7312SOL     OW28979   2.513   4.076   1.767  0.2228 -0.0224  0.3833
 7312SOL    HW228980   2.418   4.073   1.763  0.0928 -1.4507  2.6010
 7312SOL    HW328981   2.537   4.152   1.715 -2.1100  0.2539 -0.3877
 7312SOL    MW428982   2.504   4.086   1.760 -0.3732 -0.0869 -0.1292
 7313SOL     OW28983   5.003   3.934   5.545  0.1964  0.6560  0.0021
 7313SOL    HW228984   5.024   3.997   5.476 -1.0651  0.5776 -0.4806
 7313SOL    HW328985   5.059   3.859   5.527  1.2050  1.3505  0.1690
 7313SOL    MW428986   5.013   3.932   5.533 -0.2892  0.1330  0.3724
 7314SOL     OW28987   1.114   2.895   6.423  0.1893 -0.0061 -0.0210
 7314SOL    HW228988   1.024   2.923   6.406 -0.4797 -1.2924  1.2265
 7314SOL    HW328989   1.107   2.833   6.496  2.2259  0.7506  0.8908
 7314SOL    MW428990   1.101   2.891   6.430  0.0546  0.2825  0.3947
 7315SOL     OW28991   2.212   1.420   1.809 -0.0802  0.4293 -0.0329
 7315SOL    HW228992   2.169   1.334   1.804 -0.1266  0.4761 -0.4664
 7315SOL    HW328993   2.267   1.424   1.730 -1.3955  1.4956 -0.9461
 7315SOL    MW428994   2.214   1.409   1.798  0.3834 -0.6722  0.0588
 7316SOL     OW28995   2.479   4.415   5.496  0.3505 -0.1461 -0.3648
 7316SOL    HW228996   2.472   4.449   5.407 -0.8804  0.3730 -0.0913
 7316SOL    HW328997   2.435   4.330   5.493 -1.5591  0.7680  0.1706
 7316SOL    MW428998   2.473   4.408   5.484  0.4472  0.5325  0.0890
 7317SOL     OW28999   0.059   3.923   6.095 -0.1186 -0.1625 -0.5548
 7317SOL    HW229000   0.098   3.852   6.043 -0.9545 -1.8773  1.0232
 7317SOL    HW329001  -0.018   3.949   6.045  0.0465 -0.5505 -1.0239
 7317SOL    MW429002   0.054   3.917   6.081 -0.0652  0.3058 -0.3263
 7318SOL     OW29003   6.298   5.121   1.308 -0.1683  0.7112 -0.0142
 7318SOL    HW229004   6.248   5.159   1.380  1.4437 -1.2223  2.2957
 7318SOL    HW329005   6.260   5.034   1.296  0.6740  0.3683 -0.2725
 7318SOL    MW429006   6.286   5.114   1.316  0.0176  0.3134  0.5104
 7319SOL     OW29007   6.084   0.056   5.727 -0.1672  0.0473  0.0958
 7319SOL    HW229008   6.069   0.137   5.776 -0.0362 -0.0515  0.2996
 7319SOL    HW329009   6.154   0.078   5.666 -0.9126  0.4158 -0.6341
 7319SOL    MW429010   6.091   0.070   5.726  0.5733 -0.2836  0.4766
 7320SOL     OW29011   1.773   2.968   0.290  0.5210 -0.5776  0.3479
 7320SOL    HW229012   1.808   3.024   0.221 -0.9674 -0.2205 -0.1441
 7320SOL    HW329013   1.765   2.882   0.250 -0.7688 -0.2718 -0.1037
 7320SOL    MW429014   1.777   2.964   0.276  0.0822  0.2005 -0.2090
 7321SOL     OW29015   3.404   0.073   1.453  0.1704 -0.5376  0.0172
 7321SOL    HW229016   3.392   0.123   1.372 -0.5029 -0.7400 -0.0114
 7321SOL    HW329017   3.362   0.125   1.521 -0.1054 -0.8271  0.0708
 7321SOL    MW429018   3.397   0.086   1.451  0.1646 -0.2850 -0.1072
 7322SOL     OW29019   2.836   6.033   2.545  0.3940  0.5371  0.3494
 7322SOL    HW229020   2.744   6.056   2.551  0.0024 -0.1431 -2.0793
 7322SOL    HW329021   2.882   6.115   2.564 -0.7013  1.0173  1.0281
 7322SOL    MW429022   2.830   6.047   2.549 -0.0276 -0.1127 -0.1315
 7323SOL     OW29023   4.400   1.777   0.269  0.1294  0.4555  0.5292
 7323SOL    HW229024   4.307   1.796   0.274  0.0551  0.1354  0.4183
 7323SOL    HW329025   4.438   1.851   0.222 -0.2623 -0.0096 -0.5437
 7323SOL    MW429026   4.393   1.789   0.263  0.5318 -0.2245 -0.1733
 7324SOL     OW29027   0.917   5.815   4.647 -0.2834  0.0730 -0.3059
 7324SOL    HW229028   0.915   5.860   4.563  2.1886  1.0392  0.0659
 7324SOL    HW329029   1.001   5.838   4.685 -0.2748 -2.2892  1.3847
 7324SOL    MW429030   0.928   5.824   4.641  0.1395 -0.4528  0.0694
 7325SOL     OW29031   3.307   0.036   3.341  0.1198 -0.2338 -0.6483
 7325SOL    HW229032   3.228  -0.006   3.376  1.3668 -1.3043  1.0637
 7325SOL    HW329033   3.290   0.046   3.248 -1.2446 -2.3105 -0.6776
 7325SOL    MW429034   3.295   0.032   3.334  0.3994 -0.3645  0.5671
 7326SOL     OW29035   5.014   0.656   4.750  1.0471 -0.0486  0.1531
 7326SOL    HW229036   4.922   0.670   4.775  0.9335 -0.2543 -0.1449
 7326SOL    HW329037   5.060   0.649   4.833  1.1904  2.5281  0.3673
 7326SOL    MW429038   5.008   0.657   4.764 -0.2512  0.3124 -0.0871
 7327SOL     OW29039   4.841   3.851   2.891 -0.2383  0.0213 -0.6437
 7327SOL    HW229040   4.783   3.814   2.957  0.8523 -0.3899  0.1083
 7327SOL    HW329041   4.838   3.788   2.819 -0.0665 -0.4354 -0.2564
 7327SOL    MW429042   4.833   3.838   2.890 -0.4327  0.0979 -0.8470
 7328SOL     OW29043   2.053   0.678   2.369 -0.2497 -0.7966 -0.1558
 7328SOL    HW229044   1.979   0.735   2.392 -0.3766 -0.5489 -1.1067
 7328SOL    HW329045   2.092   0.653   2.453  0.2586  1.2797  0.2743
 7328SOL    MW429046   2.048   0.682   2.383 -0.0503  0.2620 -0.1519
 7329SOL     OW29047   1.498   5.965   5.434  0.3452  0.1284  0.1454
 7329SOL    HW229048   1.588   5.966   5.467  0.5775 -0.5353 -0.4491
 7329SOL    HW329049   1.496   6.034   5.368  0.4096  0.1478  0.1632
 7329SOL    MW429050   1.509   5.974   5.430 -0.1352 -0.7873  0.3288
 7330SOL     OW29051   5.131   4.531   1.756  0.6496  0.0579 -0.0916
 7330SOL    HW229052   5.180   4.611   1.740  0.1655  0.4110  0.1680
 7330SOL    HW329053   5.073   4.523   1.680 -0.5790  0.9261  0.7254
 7330SOL    MW429054   5.130   4.540   1.744  0.8661  0.2779 -0.5780
 7331SOL     OW29055   5.740   3.008   4.279 -0.3198 -0.3180 -0.4685
 7331SOL    HW229056   5.718   2.921   4.312 -0.9072  0.7914  2.4603
 7331SOL    HW329057   5.832   3.021   4.303 -0.8302  0.6101  1.2055
 7331SOL    MW429058   5.749   2.998   4.287  0.1671 -0.3403 -0.4224
 7332SOL     OW29059   4.132   5.153   2.592  0.4515  0.8037  0.0439
 7332SOL    HW229060   4.090   5.111   2.667  2.5651 -0.5185  0.5631
 7332SOL    HW329061   4.182   5.226   2.630  1.7537 -0.0396  0.0243
 7332SOL    MW429062   4.133   5.157   2.607 -0.5235 -0.0668  0.1241
 7333SOL     OW29063   5.737   0.729   0.130  0.2900 -0.7421  0.6522
 7333SOL    HW229064   5.830   0.749   0.118 -0.4759  2.5631 -0.8463
 7333SOL    HW329065   5.708   0.793   0.196 -0.7817 -2.3553  1.8115
 7333SOL    MW429066   5.745   0.740   0.137 -0.3135  0.0609 -0.4146
 7334SOL     OW29067   6.315   5.815   0.405  0.1553 -0.6363  0.2386
 7334SOL    HW229068   6.400   5.854   0.424  1.6442 -3.1200 -0.9341
 7334SOL    HW329069   6.316   5.731   0.450 -1.4891 -0.9307 -0.1941
 7334SOL    MW429070   6.326   5.809   0.413 -0.2633 -0.3139  0.2562
 7335SOL     OW29071   1.909   2.137   0.662  0.7283  0.3890 -0.1197
 7335SOL    HW229072   1.818   2.164   0.673  1.0017  0.7896  1.4436
 7335SOL    HW329073   1.918   2.119   0.569 -0.5963  1.6231 -0.5155
 7335SOL    MW429074   1.898   2.138   0.652  0.4068  0.4850  0.6780
 7336SOL     OW29075   2.637   3.405   2.134  0.2551 -0.3468  0.4360
 7336SOL    HW229076   2.588   3.325   2.114  0.1118 -0.1087 -0.1775
 7336SOL    HW329077   2.571   3.467   2.164  0.3348 -0.3770  0.6790
 7336SOL    MW429078   2.622   3.403   2.135 -0.5661  0.0510  0.1950
 7337SOL     OW29079   1.307   3.653   3.598 -0.1575  0.1276 -0.2980
 7337SOL    HW229080   1.362   3.673   3.522  1.2194  3.8363  1.4591
 7337SOL    HW329081   1.364   3.603   3.656  0.1461  0.7718 -0.0357
 7337SOL    MW429082   1.322   3.649   3.595 -0.2852  0.1726 -0.1373
 7338SOL     OW29083   4.033   2.556   5.584 -0.5973 -0.0087  0.1467
 7338SOL    HW229084   4.109   2.615   5.586 -0.8782  0.3396  0.9650
 7338SOL    HW329085   4.017   2.541   5.491 -0.1387  0.7217 -0.0596
 7338SOL    MW429086   4.041   2.562   5.572 -0.7785 -0.0134 -0.1068
 7339SOL     OW29087   5.990   2.256   4.996  0.4877 -0.2200 -0.1327
 7339SOL    HW229088   5.980   2.277   5.089  0.2177  0.6341 -0.3443
 7339SOL    HW329089   6.060   2.191   4.994  2.8559  2.1529  0.3983
 7339SOL    MW429090   5.998   2.250   5.008  0.8138  0.7456 -0.5637
 7340SOL     OW29091   5.185   2.022   5.693  0.4068 -0.0343 -0.3846
 7340SOL    HW229092   5.261   1.985   5.649  0.6585  0.0127  0.0032
 7340SOL    HW329093   5.140   1.947   5.731  0.1065 -0.0904 -0.8486
 7340SOL    MW429094   5.189   2.007   5.692 -0.6369  0.9062 -0.3381
 7341SOL     OW29095   3.922   0.126   1.307  0.5237  0.4802  0.2701
 7341SOL    HW229096   3.923   0.150   1.400  1.2867  1.0912  0.1156
 7341SOL    HW329097   3.843   0.073   1.297  0.0336  1.0193  1.1220
 7341SOL    MW429098   3.911   0.122   1.318  0.4266 -0.3223 -0.5089
 7342SOL     OW29099   0.113   4.931   4.881 -0.0276  0.6671  0.8728
 7342SOL    HW229100   0.145   4.931   4.791 -0.0271  1.2873  0.8657
 7342SOL    HW329101   0.098   4.839   4.902  0.0803  0.5121  0.2767
 7342SOL    MW429102   0.115   4.919   4.872  0.3317 -0.2664  0.1165
 7343SOL     OW29103   2.049   2.126   4.071 -0.4073  0.1298  0.1607
 7343SOL    HW229104   2.053   2.115   4.166 -1.2075 -0.8973  0.0871
 7343SOL    HW329105   2.116   2.066   4.037 -0.9817 -0.4384  0.0213
 7343SOL    MW429106   2.059   2.117   4.079 -0.0034  0.1159 -0.1009
 7344SOL     OW29107   3.914   4.164   1.118 -0.3723  0.7440 -0.1078
 7344SOL    HW229108   3.972   4.220   1.170 -0.0878  0.6335 -0.3062
 7344SOL    HW329109   3.964   4.084   1.103 -0.6489  0.5724 -0.1177
 7344SOL    MW429110   3.928   4.161   1.123  0.6202 -0.6291 -0.1184
 7345SOL     OW29111   3.913   6.186   1.265  0.7589 -0.2645  0.4017
 7345SOL    HW229112   3.990   6.238   1.242 -1.1000  1.7364 -1.7599
 7345SOL    HW329113   3.874   6.162   1.181 -0.3094 -2.3292  1.4225
 7345SOL    MW429114   3.918   6.190   1.251 -1.2016 -0.3613 -0.0512
 7346SOL     OW29115   0.736   4.767   5.414 -0.2736  0.6913 -0.3615
 7346SOL    HW229116   0.815   4.724   5.382 -1.0504  0.5957 -2.3707
 7346SOL    HW329117   0.765   4.853   5.445  0.7173  0.3315 -0.2773
 7346SOL    MW429118   0.750   4.773   5.414 -0.8063 -0.7872  1.0924
 7347SOL     OW29119   0.901   4.279   1.698  0.5276 -0.0573  0.8114
 7347SOL    HW229120   0.891   4.366   1.737  0.7918  0.0731  0.5847
 7347SOL    HW329121   0.888   4.292   1.604  1.4607 -0.1133  0.6706
 7347SOL    MW429122   0.898   4.292   1.691 -0.0874 -0.2473  0.2571
 7348SOL     OW29123   4.700   2.599   3.369 -0.1934  0.8190 -0.1179
 7348SOL    HW229124   4.634   2.622   3.434  0.4720  0.2369  0.7862
 7348SOL    HW329125   4.753   2.678   3.359  1.0422  0.2656  1.7027
 7348SOL    MW429126   4.698   2.612   3.376  0.1814 -0.4752  0.1077
 7349SOL     OW29127   3.360   6.218   1.550 -0.4438  0.4153  0.2195
 7349SOL    HW229128   3.358   6.313   1.543 -0.3279  0.3284 -1.3474
 7349SOL    HW329129   3.279   6.189   1.509 -1.3885 -0.1239  2.3222
 7349SOL    MW429130   3.349   6.227   1.544 -0.4743  0.2049 -0.4406
 7350SOL     OW29131   6.071   0.265   5.897  0.0471 -0.1531 -0.3432
 7350SOL    HW229132   5.979   0.284   5.915  0.1059 -1.8484  2.2836
 7350SOL    HW329133   6.119   0.321   5.958  0.6903 -0.3264 -0.6880
 7350SOL    MW429134   6.065   0.275   5.908 -0.8062  0.1089 -0.1936
 7351SOL     OW29135   0.875   1.688   1.150  0.8362  0.9903 -0.2292
 7351SOL    HW229136   0.940   1.634   1.105  1.5334  1.8483 -0.2744
 7351SOL    HW329137   0.842   1.631   1.219 -0.7114 -0.5815 -2.1384
 7351SOL    MW429138   0.880   1.673   1.153  0.4299  0.8228 -0.1924
 7352SOL     OW29139   0.224   4.998   1.052 -0.2735 -0.0245  0.1424
 7352SOL    HW229140   0.189   4.910   1.063 -0.1673 -0.2619 -1.2352
 7352SOL    HW329141   0.305   4.999   1.103 -0.0438 -0.8801 -0.1920
 7352SOL    MW429142   0.230   4.987   1.060  0.1693 -1.1494  0.4136
 7353SOL     OW29143   5.824   5.008   5.717  0.2541 -0.4524  0.1247
 7353SOL    HW229144   5.767   4.948   5.670 -0.7488  1.4638 -1.1934
 7353SOL    HW329145   5.805   4.992   5.810 -1.1548 -1.0363 -0.2508
 7353SOL    MW429146   5.814   4.998   5.723  0.0486 -1.2824  0.0576
 7354SOL     OW29147   4.794   2.071   4.808 -0.1894 -0.0130 -0.1783
 7354SOL    HW229148   4.702   2.082   4.834  0.2201  0.1026  1.2569
 7354SOL    HW329149   4.837   2.152   4.834  0.1347  0.3808 -1.8257
 7354SOL    MW429150   4.787   2.083   4.815  0.2557 -0.7885 -0.6228
 7355SOL     OW29151   0.332   1.779   0.995 -0.6152  0.5608 -0.2310
 7355SOL    HW229152   0.380   1.828   1.062  0.5175 -2.4288  1.3283
 7355SOL    HW329153   0.400   1.732   0.946 -1.6849 -0.4244 -0.8172
 7355SOL    MW429154   0.347   1.779   0.998 -0.2598 -0.8208 -0.2184
 7356SOL     OW29155   4.175   1.130   3.847  0.4417  0.3762  0.4544
 7356SOL    HW229156   4.116   1.056   3.830 -0.3775  0.3759  2.8907
 7356SOL    HW329157   4.258   1.089   3.873  0.1988  0.3121  1.1391
 7356SOL    MW429158   4.178   1.115   3.848  0.2364  0.2832  0.1419
 7357SOL     OW29159   1.490   4.034   2.201  0.1881  0.5607 -0.2541
 7357SOL    HW229160   1.426   4.105   2.197 -1.3536 -0.7272  0.4478
 7357SOL    HW329161   1.437   3.954   2.201  1.6396 -0.5410  2.3685
 7357SOL    MW429162   1.475   4.033   2.201  0.1291 -0.1591  0.1948
 7358SOL     OW29163   4.922   2.184   4.544 -0.1793  0.3279 -0.3101
 7358SOL    HW229164   4.899   2.258   4.601 -2.0509  1.4488 -2.3586
 7358SOL    HW329165   4.878   2.109   4.585 -0.9019  0.9715  0.1441
 7358SOL    MW429166   4.913   2.184   4.557 -0.0605 -0.5341 -0.0970
 7359SOL     OW29167   4.558   1.905   3.193  0.8518 -0.0623  0.0537
 7359SOL    HW229168   4.550   1.998   3.214  2.6424  0.3652 -0.9339
 7359SOL    HW329169   4.570   1.862   3.277 -0.6445  0.4916  0.5796
 7359SOL    MW429170   4.558   1.912   3.207  0.1709 -0.8529 -0.0265
 7360SOL     OW29171   3.725   0.819   2.726  0.1994 -0.1718  0.2492
 7360SOL    HW229172   3.752   0.867   2.648  0.5369 -1.1757 -0.2593
 7360SOL    HW329173   3.727   0.885   2.796 -0.4588  0.8195 -0.6410
 7360SOL    MW429174   3.729   0.834   2.725  0.2755  0.5263 -0.2826
 7361SOL     OW29175   2.936   1.247   0.405  0.0534  0.5929  0.3546
 7361SOL    HW229176   2.990   1.268   0.328  0.6339  0.5739  0.7518
 7361SOL    HW329177   2.967   1.160   0.433  0.1361  0.7825  0.8594
 7361SOL    MW429178   2.947   1.238   0.398 -0.2768 -0.0285 -0.0535
 7362SOL     OW29179   2.257   3.121   3.560 -0.7832  0.1816  0.3133
 7362SOL    HW229180   2.233   3.121   3.467  0.9225 -0.8908 -0.1768
 7362SOL    HW329181   2.349   3.146   3.561 -0.8182  0.3270  1.7447
 7362SOL    MW429182   2.266   3.124   3.548  0.9026  0.0449  0.0011
 7363SOL     OW29183   5.143   5.966   1.771 -0.0190  0.6543 -0.1918
 7363SOL    HW229184   5.176   5.876   1.772  0.7969  0.9494  0.1343
 7363SOL    HW329185   5.054   5.958   1.736 -0.0405 -0.3031  0.0437
 7363SOL    MW429186   5.136   5.953   1.766 -0.2246  0.1407 -0.3362
 7364SOL     OW29187   1.963   0.213   3.249  0.3660  0.2270 -0.0172
 7364SOL    HW229188   2.038   0.179   3.298 -0.7529 -2.4936 -0.0009
 7364SOL    HW329189   2.002   0.250   3.169  1.7367 -2.6618 -0.8497
 7364SOL    MW429190   1.978   0.214   3.245 -0.1095 -0.2570  0.0761
 7365SOL     OW29191   3.899   1.411   2.597  0.1410 -0.2545  0.2588
 7365SOL    HW229192   3.885   1.386   2.505 -2.1876 -0.6104  0.6358
 7365SOL    HW329193   3.987   1.446   2.599 -0.0233  0.5291 -2.3003
 7365SOL    MW429194   3.909   1.412   2.585 -0.7440 -0.3613  0.0904
 7366SOL     OW29195   4.757   4.273   1.705 -0.1114  0.3525  0.1697
 7366SOL    HW229196   4.691   4.230   1.652  0.1398  1.6821 -1.2866
 7366SOL    HW329197   4.710   4.343   1.751  0.3376  1.8348 -1.4968
 7366SOL    MW429198   4.742   4.277   1.704  0.5391 -0.3099  0.0817
 7367SOL     OW29199   6.419   4.467   1.339 -0.3398  0.3071 -0.3712
 7367SOL    HW229200   6.455   4.381   1.363 -2.2866 -0.8234 -1.3294
 7367SOL    HW329201   6.390   4.457   1.249 -1.5861  1.6676 -0.1548
 7367SOL    MW429202   6.420   4.455   1.331 -0.0626 -0.3463  0.1982
 7368SOL     OW29203   3.288   4.485   1.735 -0.2044 -0.1782  0.6817
 7368SOL    HW229204   3.380   4.472   1.757 -0.3779 -0.7726  1.0800
 7368SOL    HW329205   3.254   4.396   1.722 -0.3509  0.0920 -1.0208
 7368SOL    MW429206   3.296   4.471   1.736 -0.1679  0.8507  0.0856
 7369SOL     OW29207   1.454   6.287   0.876  0.0855  0.2217  0.1687
 7369SOL    HW229208   1.480   6.197   0.855  0.3562  0.2369  0.4275
 7369SOL    HW329209   1.413   6.319   0.796  1.5512  0.4536 -0.5186
 7369SOL    MW429210   1.452   6.279   0.862 -0.3089 -0.6898 -0.3786
 7370SOL     OW29211   3.514   2.419   1.261 -0.1238 -0.5566  0.4035
 7370SOL    HW229212   3.483   2.355   1.196 -0.4134 -0.9402  0.9148
 7370SOL    HW329213   3.441   2.481   1.270  0.3832  0.2158 -0.5412
 7370SOL    MW429214   3.500   2.419   1.253 -0.2862  0.5670  0.7281
 7371SOL     OW29215   5.170   3.170   2.105  0.2470 -0.3472 -0.9206
 7371SOL    HW229216   5.249   3.201   2.148 -2.0695  2.1497  2.0157
 7371SOL    HW329217   5.125   3.249   2.076 -2.3165 -1.3847 -0.1371
 7371SOL    MW429218   5.174   3.184   2.107  0.2633  0.7007  0.0577
 7372SOL     OW29219   0.367   6.209   5.426  0.5951  0.9868 -0.4821
 7372SOL    HW229220   0.434   6.238   5.364  0.8167 -2.6635 -2.1814
 7372SOL    HW329221   0.297   6.173   5.371  0.1942 -1.1740  1.3317
 7372SOL    MW429222   0.366   6.208   5.411 -0.8165  0.1854  0.7111
 7373SOL     OW29223   4.241   2.173   3.102 -0.4488 -0.4761  0.5386
 7373SOL    HW229224   4.289   2.234   3.157  0.5020 -0.7301  0.0112
 7373SOL    HW329225   4.252   2.088   3.144 -0.4967 -0.5218  0.4599
 7373SOL    MW429226   4.249   2.170   3.114  0.4710  0.0313  0.1814
 7374SOL     OW29227   6.138   0.945   5.771 -0.4333  0.2851  0.1051
 7374SOL    HW229228   6.157   0.925   5.863  1.6602 -1.3617 -0.5890
 7374SOL    HW329229   6.188   1.025   5.753 -0.2916  0.2245  0.2269
 7374SOL    MW429230   6.147   0.953   5.781 -0.3287  0.0366  0.1325
 7375SOL     OW29231   3.694   1.125   5.585 -0.3662 -0.3950  0.1613
 7375SOL    HW229232   3.635   1.200   5.581  0.5420  0.3348  0.0268
 7375SOL    HW329233   3.671   1.080   5.666 -1.1746 -0.1857  0.0521
 7375SOL    MW429234   3.684   1.129   5.595 -0.5516  0.2847 -0.5878
 7376SOL     OW29235   2.965   2.990   6.186  0.1991 -0.3052  0.3755
 7376SOL    HW229236   3.055   3.005   6.217  1.1007  2.7932 -3.0435
 7376SOL    HW329237   2.976   2.928   6.113 -1.1419 -3.1338  2.3873
 7376SOL    MW429238   2.979   2.984   6.180 -0.4369  0.0905  0.7738
 7377SOL     OW29239   3.322   4.772   3.412  0.2823 -0.3548  0.1915
 7377SOL    HW229240   3.401   4.794   3.462  0.2545 -0.5389  0.3191
 7377SOL    HW329241   3.272   4.854   3.408  0.5967 -0.1736 -0.1055
 7377SOL    MW429242   3.326   4.786   3.418 -0.2027  0.4766  0.3575
 7378SOL     OW29243   6.215   1.760   5.755 -0.1996  0.4419  0.2010
 7378SOL    HW229244   6.273   1.835   5.770 -1.9102  1.7952  0.3642
 7378SOL    HW329245   6.187   1.769   5.663  0.3646 -0.5961 -0.0882
 7378SOL    MW429246   6.219   1.771   5.745 -0.2097 -0.6585 -0.0447
 7379SOL     OW29247   3.534   5.234   0.399 -0.1616  1.0298  0.6034
 7379SOL    HW229248   3.482   5.154   0.394 -0.5452  1.3448 -1.2492
 7379SOL    HW329249   3.610   5.210   0.452  0.5654 -1.0883 -1.2179
 7379SOL    MW429250   3.537   5.221   0.405  0.6369  0.1564  0.1607
 7380SOL     OW29251   1.197   0.220   3.190 -0.6697  0.2505  0.0980
 7380SOL    HW229252   1.255   0.258   3.124 -3.1580  1.9615 -1.2415
 7380SOL    HW329253   1.199   0.283   3.262  0.5361 -0.6600  0.9133
 7380SOL    MW429254   1.205   0.233   3.191  0.0855  0.3411 -0.0164
 7381SOL     OW29255   5.636   5.174   0.946  0.2318  0.4805  0.0480
 7381SOL    HW229256   5.569   5.106   0.937 -1.9375  2.3985  0.6527
 7381SOL    HW329257   5.602   5.248   0.895  0.1141  2.7090  3.0508
 7381SOL    MW429258   5.623   5.175   0.938 -0.0759  0.3383  0.3467
 7382SOL     OW29259   2.397   3.527   5.085  0.2875 -0.2017  0.1856
 7382SOL    HW229260   2.414   3.607   5.134  0.8725 -1.5475  2.3602
 7382SOL    HW329261   2.323   3.548   5.028 -0.4785  1.4731  1.7067
 7382SOL    MW429262   2.389   3.540   5.084  0.0521  0.3495  0.1065
 7383SOL     OW29263   5.386   2.543   5.987 -0.3072 -0.1911 -0.1816
 7383SOL    HW229264   5.365   2.633   6.012 -3.7506 -0.1881 -2.3936
 7383SOL    HW329265   5.418   2.549   5.897 -3.4867 -1.2196 -1.5348
 7383SOL    MW429266   5.387   2.556   5.979  0.5412  0.4807 -0.3719
 7384SOL     OW29267   5.349   5.894   6.121 -0.2339  0.8433  0.2830
 7384SOL    HW229268   5.392   5.829   6.176  0.2222  1.0096  0.1311
 7384SOL    HW329269   5.415   5.962   6.109  0.5192 -0.2116 -2.3015
 7384SOL    MW429270   5.364   5.894   6.127  0.3658  0.0409  0.3318
 7385SOL     OW29271   3.737   0.316   2.769 -0.2973  0.4641 -0.5446
 7385SOL    HW229272   3.749   0.234   2.722  1.9675  0.3542  0.1217
 7385SOL    HW329273   3.682   0.369   2.710  1.0194 -0.2749 -2.5534
 7385SOL    MW429274   3.731   0.312   2.755  0.6959  0.8280 -0.2961
 7386SOL     OW29275   0.871   6.189   6.259 -0.0298  0.0073 -1.0725
 7386SOL    HW229276   0.820   6.240   6.322  0.8805 -0.6310  0.2425
 7386SOL    HW329277   0.807   6.155   6.198 -1.0829 -0.0758  0.0363
 7386SOL    MW429278   0.856   6.191   6.259 -0.0699  0.2309 -0.3021
 7387SOL     OW29279   3.099   0.674   0.694  0.0037 -1.6465 -0.4492
 7387SOL    HW229280   3.013   0.704   0.724  0.4172 -0.8774  0.0040
 7387SOL    HW329281   3.147   0.656   0.775  0.8398 -0.3971 -0.6343
 7387SOL    MW429282   3.094   0.676   0.708  0.3197  0.2614 -0.3063
 7388SOL     OW29283   6.088   0.971   5.502 -0.2289  0.2054 -0.4381
 7388SOL    HW229284   6.103   0.884   5.466 -0.4140 -0.0455  0.0710
 7388SOL    HW329285   6.105   0.961   5.596 -0.1183  0.7496 -0.3985
 7388SOL    MW429286   6.092   0.958   5.510 -0.2805  0.0232  0.0027
 7389SOL     OW29287   0.578   3.129   3.348  0.7428 -0.0493  0.8028
 7389SOL    HW229288   0.566   3.166   3.436 -1.5273 -2.8583  1.8298
 7389SOL    HW329289   0.628   3.196   3.301  1.0767  2.0797  3.8582
 7389SOL    MW429290   0.583   3.143   3.354  0.3059 -0.0274  0.2115
 7390SOL     OW29291   2.446   0.463   4.973 -0.3778  0.1678  0.0183
 7390SOL    HW229292   2.485   0.377   4.984 -3.1381 -1.1501  0.1461
 7390SOL    HW329293   2.506   0.522   5.019  0.9329 -1.8393  1.0143
 7390SOL    MW429294   2.459   0.460   4.981 -0.2160  0.0408  0.5184
 7391SOL     OW29295   5.287   0.864   2.638  0.5585 -0.0823 -0.6274
 7391SOL    HW229296   5.208   0.917   2.628 -0.1569 -1.0159 -0.1119
 7391SOL    HW329297   5.292   0.812   2.558  0.9869  0.3965 -0.9176
 7391SOL    MW429298   5.277   0.864   2.626 -0.1019  0.6380  0.3819
 7392SOL     OW29299   5.774   4.077   1.589 -0.7221 -0.1611 -0.1520
 7392SOL    HW229300   5.740   4.158   1.552  0.4888 -0.7805 -2.8736
 7392SOL    HW329301   5.858   4.064   1.545  0.4973 -1.4350  2.3392
 7392SOL    MW429302   5.781   4.086   1.579 -0.2210 -0.2738  0.2644
 7393SOL     OW29303   1.249   3.956   3.517  0.2057 -0.2113  0.1026
 7393SOL    HW229304   1.316   4.023   3.533  0.9280 -1.4566  2.7419
 7393SOL    HW329305   1.249   3.946   3.421  0.7038  2.8295 -0.3318
 7393SOL    MW429306   1.258   3.964   3.506  0.1995 -0.0389 -0.2226
 7394SOL     OW29307   3.718   6.114   6.058  0.2242 -0.1682  0.0927
 7394SOL    HW229308   3.661   6.190   6.060  1.3694  0.7185  0.4875
 7394SOL    HW329309   3.769   6.124   5.978 -2.2556 -2.6103 -1.9626
 7394SOL    MW429310   3.717   6.125   6.048  0.3303 -0.0961  0.1031
 7395SOL     OW29311   0.349   0.782   5.358 -0.4078  0.1484  0.5894
 7395SOL    HW229312   0.436   0.745   5.374 -0.2927  0.7056  1.2735
 7395SOL    HW329313   0.321   0.742   5.275  0.4895 -0.0396  0.3704
 7395SOL    MW429314   0.357   0.772   5.349 -0.9431  0.6597 -0.4891
 7396SOL     OW29315   1.104   3.383   3.140  0.0644  0.0248 -0.5381
 7396SOL    HW229316   1.055   3.308   3.174  0.1629 -0.0024 -0.4571
 7396SOL    HW329317   1.192   3.372   3.175  0.1443  0.0429 -0.7321
 7396SOL    MW429318   1.109   3.371   3.149  0.3028  0.5186 -0.5638
 7397SOL     OW29319   2.707   2.649   2.596 -0.3468 -0.1046  0.6717
 7397SOL    HW229320   2.687   2.734   2.558 -0.0483  0.3568  1.5171
 7397SOL    HW329321   2.801   2.653   2.617 -0.1302 -0.9595 -0.0588
 7397SOL    MW429322   2.717   2.661   2.594  0.3777 -0.4557  0.8649
 7398SOL     OW29323   5.778   4.289   6.221 -0.1350 -0.3402 -0.0269
 7398SOL    HW229324   5.839   4.223   6.188 -0.8880 -1.2808  0.4045
 7398SOL    HW329325   5.731   4.320   6.144 -1.1236 -1.7321 -0.0201
 7398SOL    MW429326   5.780   4.284   6.207 -0.3476  0.1442  0.1501
 7399SOL     OW29327   2.561   0.443   3.291  0.1572  0.1815 -0.1393
 7399SOL    HW229328   2.636   0.484   3.248 -0.3459  0.4267 -0.8043
 7399SOL    HW329329   2.485   0.482   3.248 -0.3601  0.3798  0.9435
 7399SOL    MW429330   2.561   0.453   3.279 -0.3933  0.4081 -0.3654
 7400SOL     OW29331   3.818   3.561   5.679 -0.1083  0.6725 -0.8995
 7400SOL    HW229332   3.801   3.482   5.628  0.5981 -1.8301  2.3899
 7400SOL    HW329333   3.735   3.579   5.723 -0.2662  1.8245 -1.6315
 7400SOL    MW429334   3.805   3.553   5.678  0.1614 -0.3603  0.4330
 7401SOL     OW29335   4.435   6.115   1.596 -0.3962  0.7875  0.0533
 7401SOL    HW229336   4.497   6.046   1.571 -0.1455  1.0557 -0.0631
 7401SOL    HW329337   4.440   6.179   1.525 -0.8268  0.7999  0.0300
 7401SOL    MW429338   4.443   6.114   1.583  0.0753  0.0143  0.9962
 7402SOL     OW29339   0.040   0.377   0.161 -0.0120 -0.1130  0.1653
 7402SOL    HW229340  -0.004   0.304   0.118 -0.7098  0.3810  0.0214
 7402SOL    HW329341   0.008   0.375   0.251 -1.5048  1.1418 -0.3114
 7402SOL    MW429342   0.030   0.367   0.167 -0.0812 -0.3878  0.5403
 7403SOL     OW29343   3.339   2.868   1.587  0.6500 -0.8374 -0.1997
 7403SOL    HW229344   3.285   2.794   1.615 -0.8839  0.3327  0.0464
 7403SOL    HW329345   3.416   2.865   1.645 -0.8786 -0.4056  1.9599
 7403SOL    MW429346   3.342   2.858   1.598 -0.4295  0.1314  0.3609
 7404SOL     OW29347   0.692   3.642   1.627  0.1572 -0.0178 -0.1450
 7404SOL    HW229348   0.758   3.583   1.591  1.7925  1.2353  0.6674
 7404SOL    HW329349   0.704   3.637   1.722  0.5204  1.7614 -0.0638
 7404SOL    MW429350   0.702   3.634   1.635 -0.5202  0.3340  0.2329
 7405SOL     OW29351   3.533   3.411   4.520  0.1201 -0.7162 -0.4340
 7405SOL    HW229352   3.468   3.371   4.462  1.3496 -0.9207 -1.7072
 7405SOL    HW329353   3.550   3.344   4.586 -0.8734 -0.6946 -0.1349
 7405SOL    MW429354   3.527   3.397   4.521 -0.6802  0.4363 -0.2135
 7406SOL     OW29355   2.102   1.916   3.706 -0.3562  0.2025 -0.2243
 7406SOL    HW229356   2.191   1.943   3.729 -0.7382  0.8627  0.4973
 7406SOL    HW329357   2.081   1.966   3.627 -0.3524  0.5884  0.0177
 7406SOL    MW429358   2.111   1.926   3.699 -0.1533 -0.1969 -0.3127
 7407SOL     OW29359   1.500   1.400   1.849 -0.1589 -0.4141 -0.4214
 7407SOL    HW229360   1.411   1.423   1.821 -0.2365 -0.5263 -0.2710
 7407SOL    HW329361   1.534   1.480   1.889  0.3226  0.0537 -1.7409
 7407SOL    MW429362   1.493   1.414   1.851 -0.6194  0.5043 -0.3508
 7408SOL     OW29363   3.036   1.040   5.129 -0.1727  0.0021 -1.1195
 7408SOL    HW229364   2.973   1.108   5.154 -0.4158 -0.1105 -1.4096
 7408SOL    HW329365   3.097   1.035   5.202 -1.5612 -1.1643  0.0308
 7408SOL    MW429366   3.035   1.048   5.142  0.5067 -0.4475 -0.1470
 7409SOL     OW29367   5.672   0.071   1.069 -0.4104 -0.0257 -0.8332
 7409SOL    HW229368   5.759   0.111   1.074 -0.5323  0.4155 -1.9535
 7409SOL    HW329369   5.686  -0.020   1.095  0.3939  0.0383 -1.0101
 7409SOL    MW429370   5.685   0.064   1.073 -0.3890  0.2582  0.2301
 7410SOL     OW29371   2.374   0.616   0.191 -0.5619  0.4765  0.2567
 7410SOL    HW229372   2.351   0.592   0.102 -0.3172 -0.8815  0.5330
 7410SOL    HW329373   2.470   0.610   0.193 -0.6435 -1.1691  1.0184
 7410SOL    MW429374   2.384   0.612   0.180  0.3002 -0.3677 -0.4212
 7411SOL     OW29375   4.205   1.699   5.999 -0.3596 -0.5175 -0.1976
 7411SOL    HW229376   4.152   1.632   5.957 -0.2085 -0.5963 -0.2640
 7411SOL    HW329377   4.193   1.777   5.945  1.2060 -1.0657 -1.4281
 7411SOL    MW429378   4.197   1.700   5.987 -0.0072  0.3871  0.1022
 7412SOL     OW29379   2.912   3.275   6.385  0.2377 -0.4420  0.1957
 7412SOL    HW229380   2.818   3.269   6.367 -0.0660  0.2694  1.4285
 7412SOL    HW329381   2.934   3.192   6.427 -0.4951  0.4714  2.5404
 7412SOL    MW429382   2.903   3.263   6.388 -0.0010 -0.3237  1.0096
 7413SOL     OW29383   6.197   6.315   0.197  0.2400  0.0255 -0.3190
 7413SOL    HW229384   6.219   6.242   0.255  0.9771  0.6329  0.1787
 7413SOL    HW329385   6.207   6.280   0.109 -0.0419 -0.6596 -0.0846
 7413SOL    MW429386   6.201   6.301   0.193 -0.0384 -0.4390 -0.3364
 7414SOL     OW29387   1.178   5.369   5.008  0.3138  0.7994  0.8283
 7414SOL    HW229388   1.198   5.404   4.921 -2.7498 -2.8169 -1.6508
 7414SOL    HW329389   1.113   5.428   5.044 -0.8721  0.5993 -0.9042
 7414SOL    MW429390   1.172   5.381   5.001 -0.1911  0.6810  0.3211
 7415SOL     OW29391   0.574   2.046   4.281 -0.2421  0.3360 -0.3796
 7415SOL    HW229392   0.539   2.126   4.321  0.0897 -0.1242  0.9012
 7415SOL    HW329393   0.504   1.981   4.293  0.3400 -0.1379  0.6530
 7415SOL    MW429394   0.560   2.048   4.288  0.5629  0.4006  0.6000
 7416SOL     OW29395   0.530   0.299   1.709 -0.3161 -0.0329  0.0450
 7416SOL    HW229396   0.562   0.324   1.622  0.1324  1.1979  0.5295
 7416SOL    HW329397   0.573   0.216   1.728  2.1208  1.1999  0.3646
 7416SOL    MW429398   0.540   0.292   1.700  0.4515 -0.3254 -0.1696
 7417SOL     OW29399   2.979   3.448   1.787  0.8136 -0.3250  0.3505
 7417SOL    HW229400   3.018   3.478   1.705 -0.9695  0.4217 -0.2731
 7417SOL    HW329401   3.052   3.444   1.849  1.6597  2.2999 -0.3840
 7417SOL    MW429402   2.994   3.451   1.785 -0.0439 -0.3195  0.0426
 7418SOL     OW29403   3.204   4.987   1.443  0.0245  0.6683 -0.5583
 7418SOL    HW229404   3.133   4.945   1.492 -0.5041 -0.2149 -1.9886
 7418SOL    HW329405   3.249   4.915   1.400  0.2085  1.4180 -1.6751
 7418SOL    MW429406   3.200   4.972   1.443  0.1078 -0.1168  0.1595
 7419SOL     OW29407   1.385   1.372   4.021  0.1962  0.3088  0.0828
 7419SOL    HW229408   1.455   1.310   3.998  0.2609  0.5493 -0.3918
 7419SOL    HW329409   1.387   1.437   3.950  1.1836  1.7683  1.3937
 7419SOL    MW429410   1.395   1.372   4.008  0.0100  0.0356 -0.0248
 7420SOL     OW29411   1.577   0.040   3.413 -0.1731 -0.3870 -0.4082
 7420SOL    HW229412   1.512   0.036   3.344  0.1084  1.7203 -0.8647
 7420SOL    HW329413   1.568   0.128   3.450  2.3802 -0.0036 -0.4988
 7420SOL    MW429414   1.567   0.051   3.409 -0.4460  0.9346 -0.5561
 7421SOL     OW29415   1.155   1.129   1.616  0.0599  0.0550 -0.3196
 7421SOL    HW229416   1.232   1.155   1.565 -0.9197  2.8180 -0.5504
 7421SOL    HW329417   1.191   1.081   1.690  1.8659 -0.1709 -1.2844
 7421SOL    MW429418   1.170   1.126   1.619 -0.2368  0.0458  0.0135
 7422SOL     OW29419   5.786   4.133   3.708 -0.0312  0.2480 -0.5216
 7422SOL    HW229420   5.874   4.119   3.673  0.0069 -1.3148  0.1158
 7422SOL    HW329421   5.801   4.165   3.797 -0.1343  1.7100 -1.0011
 7422SOL    MW429422   5.800   4.135   3.715 -0.1951 -0.3903  0.0786
 7423SOL     OW29423   3.971   5.571   3.311 -0.2997 -0.1456 -0.0666
 7423SOL    HW229424   3.948   5.479   3.299  0.8014 -0.5948  1.0001
 7423SOL    HW329425   3.888   5.616   3.324 -0.7597 -1.3043  1.2735
 7423SOL    MW429426   3.957   5.565   3.311  0.2696 -0.0192 -0.2356
 7424SOL     OW29427   1.453   4.367   4.676  0.2639 -0.4844 -0.4819
 7424SOL    HW229428   1.518   4.313   4.722  0.9361  1.5444  1.1384
 7424SOL    HW329429   1.483   4.370   4.586  1.3403 -1.1778 -0.1680
 7424SOL    MW429430   1.466   4.360   4.670  0.0846  0.4632  0.0777
 7425SOL     OW29431   0.769   6.165   3.061 -0.9275 -0.3019  0.3539
 7425SOL    HW229432   0.841   6.153   3.123 -1.7211  0.0057  1.3642
 7425SOL    HW329433   0.714   6.233   3.100 -0.7841  0.8382 -1.3279
 7425SOL    MW429434   0.771   6.172   3.075 -0.5456  0.2312  0.0534
 7426SOL     OW29435   3.465   0.584   1.782 -0.3057  0.1112 -0.4156
 7426SOL    HW229436   3.425   0.524   1.844 -1.8204  0.7799 -0.6769
 7426SOL    HW329437   3.422   0.668   1.799  0.6498  0.7550 -1.0680
 7426SOL    MW429438   3.454   0.587   1.792 -0.2472  0.3078 -0.0097
 7427SOL     OW29439   0.503   6.234   1.476 -0.6956  0.3780  0.2993
 7427SOL    HW229440   0.503   6.258   1.383  0.3380 -0.9812 -0.0667
 7427SOL    HW329441   0.410   6.220   1.496 -0.8873  0.1814 -0.6596
 7427SOL    MW429442   0.490   6.235   1.466 -0.5521 -0.7485 -0.1759
 7428SOL     OW29443   5.589   0.355   4.170  0.4448  0.3018  0.2747
 7428SOL    HW229444   5.581   0.377   4.078  0.6950  0.5100  0.3027
 7428SOL    HW329445   5.511   0.303   4.189  0.1532  0.6622  0.0658
 7428SOL    MW429446   5.578   0.351   4.161 -1.2114 -0.1895  0.2889
 7429SOL     OW29447   5.041   0.434   0.226  0.1394 -0.4499  0.3021
 7429SOL    HW229448   4.988   0.414   0.303 -2.1254  0.4413 -0.9211
 7429SOL    HW329449   5.105   0.497   0.257 -0.7746 -0.0637  1.4802
 7429SOL    MW429450   5.042   0.440   0.240 -0.2822  0.3151 -0.2430
 7430SOL     OW29451   1.564   1.731   5.128 -0.3124  0.2229 -0.4666
 7430SOL    HW229452   1.516   1.679   5.192 -0.5058 -1.9712 -2.2440
 7430SOL    HW329453   1.656   1.723   5.153 -0.2120 -2.0306 -1.3003
 7430SOL    MW429454   1.570   1.723   5.140  0.2349 -0.2896 -0.1788
 7431SOL     OW29455   1.428   2.656   5.201  0.2446 -0.3565 -0.3479
 7431SOL    HW229456   1.517   2.669   5.235 -0.0978  2.7443 -0.3838
 7431SOL    HW329457   1.380   2.616   5.274  1.0118  0.5807  0.7001
 7431SOL    MW429458   1.433   2.652   5.215  0.3117  0.2286  0.1707
 7432SOL     OW29459   2.298   1.763   4.751 -0.0628  0.3491 -0.3052
 7432SOL    HW229460   2.342   1.787   4.669 -0.8710  2.8044 -0.0816
 7432SOL    HW329461   2.264   1.675   4.735  1.9531 -0.2504 -1.6825
 7432SOL    MW429462   2.300   1.754   4.738  0.1565  0.2019  0.0244
 7433SOL     OW29463   6.315   5.151   1.801 -0.2852 -0.3198 -0.7873
 7433SOL    HW229464   6.393   5.193   1.766 -0.9194 -0.2630 -2.1802
 7433SOL    HW329465   6.256   5.224   1.823  0.0013 -0.3648  0.1820
 7433SOL    MW429466   6.317   5.166   1.800  0.3023  0.2727 -0.1715
 7434SOL     OW29467   0.033   1.154   1.921 -0.0577 -0.3509  0.5437
 7434SOL    HW229468  -0.033   1.205   1.967 -1.3782 -0.9155 -0.6224
 7434SOL    HW329469   0.040   1.196   1.835  2.6669  0.9523  1.2946
 7434SOL    MW429470   0.025   1.166   1.915 -0.3172 -0.1275  0.7295
 7435SOL     OW29471   3.867   6.407   1.582 -1.0510 -0.6190 -0.2082
 7435SOL    HW229472   3.803   6.340   1.560 -1.9043  0.3446 -0.7821
 7435SOL    HW329473   3.817   6.472   1.632 -0.7105  0.5180 -1.3033
 7435SOL    MW429474   3.852   6.407   1.586 -0.1679 -0.3124 -0.5714
 7436SOL     OW29475   2.267   3.497   0.501 -0.5537 -0.4266 -0.2667
 7436SOL    HW229476   2.235   3.529   0.585 -0.3880  0.9429 -0.6892
 7436SOL    HW329477   2.324   3.424   0.523 -0.2571  0.1141  0.8382
 7436SOL    MW429478   2.270   3.492   0.515 -0.8342  0.3903  0.2974
 7437SOL     OW29479   0.573   2.327   1.332  0.0431 -0.2772 -0.3269
 7437SOL    HW229480   0.520   2.284   1.399  0.9251 -0.6967  0.1159
 7437SOL    HW329481   0.607   2.255   1.279 -0.4192  0.0347 -1.0627
 7437SOL    MW429482   0.570   2.312   1.334  0.1664 -0.1416  0.3597
 7438SOL     OW29483   1.191   0.359   5.911  0.1423  0.0706  0.2018
 7438SOL    HW229484   1.095   0.360   5.911 -0.0077 -1.3024 -3.3301
 7438SOL    HW329485   1.216   0.451   5.903 -0.8872  0.4043  0.6586
 7438SOL    MW429486   1.182   0.372   5.910  0.5810 -0.4294 -0.4521
 7439SOL     OW29487   5.832   4.110   5.536  0.0313 -0.9094 -0.0025
 7439SOL    HW229488   5.750   4.129   5.582  0.1285 -0.1587 -0.1392
 7439SOL    HW329489   5.850   4.188   5.484  1.0511 -0.8990  0.3381
 7439SOL    MW429490   5.824   4.123   5.535  0.5267 -0.3069 -0.0096
 7440SOL     OW29491   1.691   4.346   1.915 -0.1870  0.2046  0.1195
 7440SOL    HW229492   1.676   4.431   1.872 -1.0323  0.1944  0.3701
 7440SOL    HW329493   1.743   4.296   1.852 -1.6251  0.0978 -1.0273
 7440SOL    MW429494   1.696   4.351   1.901  0.0365  0.3243  0.1336
 7441SOL     OW29495   3.532   1.454   3.150 -0.0654 -0.0411  0.2268
 7441SOL    HW229496   3.489   1.452   3.235 -0.8878  2.1880 -0.0849
 7441SOL    HW329497   3.477   1.511   3.096  0.0123 -1.9451 -2.0755
 7441SOL    MW429498   3.519   1.461   3.154 -0.5115  0.0647  0.1704
 7442SOL     OW29499   2.450   2.891   4.660  0.1853 -0.1613  0.2003
 7442SOL    HW229500   2.496   2.854   4.584  0.4990 -0.6163  0.6028
 7442SOL    HW329501   2.423   2.978   4.631  1.5195  0.2270  0.0192
 7442SOL    MW429502   2.453   2.897   4.646 -0.0757  0.0786  0.3639
 7443SOL     OW29503   3.818   1.165   3.707 -0.2527 -0.6880 -0.0201
 7443SOL    HW229504   3.858   1.078   3.711 -0.1953 -0.7557 -1.5178
 7443SOL    HW329505   3.864   1.216   3.773  0.0126 -1.6692  0.5756
 7443SOL    MW429506   3.829   1.160   3.716 -0.1001  0.1681  0.3310
 7444SOL     OW29507   4.905   0.960   0.363 -0.0643  0.0632  0.3776
 7444SOL    HW229508   4.913   0.888   0.426 -1.0333 -0.0182  0.4353
 7444SOL    HW329509   4.911   1.039   0.416 -0.0827  0.0070  0.4645
 7444SOL    MW429510   4.907   0.961   0.378  0.6136 -0.1122 -0.3671
 7445SOL     OW29511   1.528   5.641   2.917 -0.5292  0.5312 -0.2410
 7445SOL    HW229512   1.502   5.726   2.883 -0.7404  1.0748  1.2180
 7445SOL    HW329513   1.514   5.647   3.011  0.4291 -0.7738  0.0192
 7445SOL    MW429514   1.523   5.653   2.925  0.3020 -0.2494 -0.0239
 7446SOL     OW29515   4.581   0.988   2.531 -0.0887  0.2957  0.5119
 7446SOL    HW229516   4.624   1.067   2.498 -0.3693 -0.2187 -1.1425
 7446SOL    HW329517   4.488   1.003   2.514 -0.0977 -0.5765 -0.2314
 7446SOL    MW429518   4.575   1.001   2.525  0.3192  0.7018 -0.6281
 7447SOL     OW29519   2.307   2.777   0.297  0.2739 -0.3582  0.0620
 7447SOL    HW229520   2.331   2.765   0.389  0.7975 -0.3947 -0.0778
 7447SOL    HW329521   2.274   2.867   0.292 -2.2838 -1.1555  0.8205
 7447SOL    MW429522   2.305   2.787   0.309 -0.2784 -0.3557 -0.2818
 7448SOL     OW29523   5.136   4.206   0.387  0.4691  0.4288  0.1982
 7448SOL    HW229524   5.046   4.216   0.417  0.1966  1.7282 -0.9911
 7448SOL    HW329525   5.137   4.122   0.341  0.1350 -0.0754  1.0788
 7448SOL    MW429526   5.125   4.196   0.385  0.3346  0.0990 -0.4413
 7449SOL     OW29527   1.784   4.128   6.385 -0.8469 -0.2635  0.3304
 7449SOL    HW229528   1.788   4.045   6.337  1.1489  0.8447 -1.6172
 7449SOL    HW329529   1.834   4.189   6.331 -0.4024  1.6817  2.7728
 7449SOL    MW429530   1.791   4.125   6.371  0.4347 -0.2561 -0.5053
 7450SOL     OW29531   5.832   1.573   5.959 -0.2999 -0.3008 -0.3190
 7450SOL    HW229532   5.820   1.594   5.867 -0.0405  2.0461  0.1093
 7450SOL    HW329533   5.767   1.626   6.004  1.5081  0.9233  1.0040
 7450SOL    MW429534   5.822   1.583   5.953  0.0173 -0.0224  0.7274
 7451SOL     OW29535   3.089   2.180   3.492  0.0341 -0.6916  0.0566
 7451SOL    HW229536   3.090   2.275   3.483  1.2306 -0.4871  1.8299
 7451SOL    HW329537   3.056   2.148   3.408 -0.9496  1.2939 -0.3654
 7451SOL    MW429538   3.085   2.188   3.479 -0.0204 -0.4899  0.1547
 7452SOL     OW29539   3.180   2.528   4.136 -0.3519 -0.4361 -0.2109
 7452SOL    HW229540   3.197   2.443   4.175 -0.4935  0.2479  1.4309
 7452SOL    HW329541   3.207   2.519   4.045 -0.2280 -2.1757 -0.0277
 7452SOL    MW429542   3.186   2.516   4.129  0.0194 -0.1136 -0.4939
 7453SOL     OW29543   6.272   4.697   0.060  0.5177 -0.0778  0.5897
 7453SOL    HW229544   6.319   4.623   0.099  0.5353 -1.2835 -1.5847
 7453SOL    HW329545   6.330   4.772   0.075  2.9544 -1.4052 -1.4185
 7453SOL    MW429546   6.286   4.697   0.067  0.2965 -0.1143 -0.1110
 7454SOL     OW29547   5.389   5.584   4.182 -0.4188 -0.0356  0.3904
 7454SOL    HW229548   5.463   5.579   4.122 -1.6147  0.4439 -1.2095
 7454SOL    HW329549   5.386   5.498   4.224 -0.5820 -1.0567 -1.5911
 7454SOL    MW429550   5.398   5.572   4.180  0.3368  0.2181 -0.2289
 7455SOL     OW29551   2.777   5.509   0.562  0.5797  0.5816 -0.1695
 7455SOL    HW229552   2.773   5.576   0.630  0.9882  0.5462 -0.1089
 7455SOL    HW329553   2.728   5.435   0.599 -0.5350  1.1116 -0.5474
 7455SOL    MW429554   2.770   5.508   0.576  0.0098  0.0900  0.5559
 7456SOL     OW29555   3.986   3.796   5.732 -0.2711  0.0792  0.0559
 7456SOL    HW229556   3.934   3.716   5.733  0.2542 -0.2670  0.1099
 7456SOL    HW329557   3.998   3.816   5.640 -1.7520  0.9990  0.0315
 7456SOL    MW429558   3.980   3.788   5.720  0.2486  0.3645 -0.4797
 7457SOL     OW29559   1.775   1.757   2.707 -0.1398  0.0946  0.5485
 7457SOL    HW229560   1.728   1.739   2.626  1.5518 -1.3691 -0.1974
 7457SOL    HW329561   1.865   1.774   2.679  0.1709  1.0492  2.0256
 7457SOL    MW429562   1.781   1.757   2.693 -0.1773  0.0970 -0.7977
 7458SOL     OW29563   5.361   4.515   1.473  0.0394  0.4774  0.4549
 7458SOL    HW229564   5.364   4.484   1.563  1.0827 -0.0866  0.2471
 7458SOL    HW329565   5.325   4.442   1.423 -2.3166  1.4490  0.6432
 7458SOL    MW429566   5.357   4.502   1.478 -0.3213 -0.0511  0.0158
 7459SOL     OW29567   4.200   4.652   0.324 -0.1614  0.0643 -0.0597
 7459SOL    HW229568   4.166   4.627   0.238 -0.4881 -1.4990  0.4920
 7459SOL    HW329569   4.288   4.686   0.306  0.5542 -2.0192 -0.8551
 7459SOL    MW429570   4.207   4.653   0.310 -0.1394 -0.9159 -0.2072
 7460SOL     OW29571   5.665   4.887   3.418  0.2547  0.3377  0.2276
 7460SOL    HW229572   5.679   4.849   3.331 -0.3121  1.1362 -0.2264
 7460SOL    HW329573   5.600   4.956   3.404 -0.1179  0.2339  1.3534
 7460SOL    MW429574   5.659   4.891   3.405  0.6531  0.7078  0.4311
 7461SOL     OW29575   6.273   5.012   6.248  0.5290 -0.7580  0.6285
 7461SOL    HW229576   6.215   5.066   6.195  2.9463  0.1561 -1.3101
 7461SOL    HW329577   6.229   5.005   6.332 -1.9903  0.4557 -0.4736
 7461SOL    MW429578   6.260   5.018   6.252 -0.2565 -0.3630 -0.4663
 7462SOL     OW29579   5.593   4.877   1.205 -0.8147  0.2023 -0.3424
 7462SOL    HW229580   5.605   4.804   1.265 -1.8339 -0.2010 -0.6246
 7462SOL    HW329581   5.645   4.948   1.243  0.2189 -0.6652 -0.0917
 7462SOL    MW429582   5.602   4.877   1.218  0.7505 -0.3108  0.0978
 7463SOL     OW29583   0.912   3.544   2.495  0.2068 -0.1163  0.2536
 7463SOL    HW229584   0.830   3.593   2.481 -0.5011 -1.6231 -1.2657
 7463SOL    HW329585   0.883   3.462   2.535  1.0834 -0.3513  0.4088
 7463SOL    MW429586   0.897   3.540   2.498 -0.2571  0.8328  0.2680
 7464SOL     OW29587   1.204   4.841   5.081  0.0015 -0.7199 -0.5319
 7464SOL    HW229588   1.242   4.784   5.014 -0.7344  0.4070 -1.9644
 7464SOL    HW329589   1.258   4.921   5.077  0.1944 -0.7899  0.5091
 7464SOL    MW429590   1.216   4.844   5.071  0.3294 -0.2739  0.5103
 7465SOL     OW29591   2.662   1.217   1.939  0.1624  0.0424 -0.8049
 7465SOL    HW229592   2.586   1.221   1.880 -0.3030  3.0889 -0.1493
 7465SOL    HW329593   2.727   1.274   1.898  0.5803  0.6290  0.6161
 7465SOL    MW429594   2.660   1.225   1.926 -0.4338  0.0267 -0.4164
 7466SOL     OW29595   6.421   0.675   5.144  0.2097 -0.3985  0.0189
 7466SOL    HW229596   6.514   0.696   5.139  0.3532 -0.7632  1.0328
 7466SOL    HW329597   6.378   0.760   5.151  0.6280 -0.2809  1.6399
 7466SOL    MW429598   6.427   0.689   5.144  0.1834  0.0952 -0.3481
 7467SOL     OW29599   4.598   1.187   2.144  0.1914  0.0826 -0.1778
 7467SOL    HW229600   4.601   1.250   2.216 -0.0220  0.9101 -0.8750
 7467SOL    HW329601   4.687   1.187   2.108  0.2839 -0.2881  0.0546
 7467SOL    MW429602   4.610   1.196   2.148 -0.0030  0.0393 -0.4988
 7468SOL     OW29603   6.343   5.163   4.653 -0.2192  0.5050  0.0870
 7468SOL    HW229604   6.385   5.212   4.724 -0.3850  1.1055 -0.2247
 7468SOL    HW329605   6.410   5.103   4.622  0.6592  1.9019 -0.8460
 7468SOL    MW429606   6.357   5.162   4.658 -0.1535  0.1385 -0.2832
 7469SOL     OW29607   6.091   5.211   4.176  0.4657  0.3330 -0.0446
 7469SOL    HW229608   6.049   5.144   4.229  0.6456 -0.5122 -0.9413
 7469SOL    HW329609   6.098   5.172   4.088  0.7496  1.4457 -0.5376
 7469SOL    MW429610   6.086   5.197   4.171  0.1291 -0.2223 -0.0130
 7470SOL     OW29611   4.668   1.983   0.465  0.0603 -0.0217 -0.1073
 7470SOL    HW229612   4.687   1.905   0.517  1.9825  0.2637 -0.3176
 7470SOL    HW329613   4.696   2.056   0.519 -0.0208  0.4204 -0.6488
 7470SOL    MW429614   4.674   1.982   0.479 -0.3936  0.7778 -0.3733
 7471SOL     OW29615   3.078   4.685   1.656 -0.0499 -0.3454  0.0988
 7471SOL    HW229616   3.172   4.703   1.664  0.2827 -1.6621 -0.5591
 7471SOL    HW329617   3.055   4.643   1.739 -0.4480  1.4187  0.9278
 7471SOL    MW429618   3.087   4.682   1.668  0.2616  0.2534 -0.1307
 7472SOL     OW29619   0.398   0.941   4.645 -0.3343 -0.4833  1.1477
 7472SOL    HW229620   0.308   0.953   4.615  0.2913 -0.3251 -0.8189
 7472SOL    HW329621   0.432   1.029   4.655  0.0130 -0.5388  0.5024
 7472SOL    MW429622   0.390   0.954   4.643 -0.3065 -0.3625  0.4891
 7473SOL     OW29623   2.448   3.086   1.250  0.4481 -0.0986 -0.3367
 7473SOL    HW229624   2.499   3.145   1.194 -2.1110  1.2638 -1.3772
 7473SOL    HW329625   2.442   3.005   1.200  2.1364 -0.5740  0.1396
 7473SOL    MW429626   2.454   3.083   1.236 -0.0887 -0.8010  0.1376
 7474SOL     OW29627   4.360   4.696   1.747  0.3644 -0.3720 -0.3734
 7474SOL    HW229628   4.294   4.648   1.797  1.7046 -2.2573 -0.3230
 7474SOL    HW329629   4.320   4.782   1.731  0.2825  1.0947  5.2271
 7474SOL    MW429630   4.346   4.701   1.752  0.5225 -0.4259  0.5887
 7475SOL     OW29631   5.264   4.388   5.969 -0.2397 -0.9446 -0.5977
 7475SOL    HW229632   5.197   4.426   5.913  1.0322 -0.5722 -1.9390
 7475SOL    HW329633   5.270   4.297   5.940 -0.7535 -1.2139  0.1181
 7475SOL    MW429634   5.256   4.381   5.958 -0.1543 -0.4245 -0.3927
 7476SOL     OW29635   5.714   0.599   5.943 -0.2176  0.0356  0.1161
 7476SOL    HW229636   5.624   0.617   5.972  0.7499  2.0842  2.2648
 7476SOL    HW329637   5.751   0.686   5.927  0.8409 -0.8430 -2.7575
 7476SOL    MW429638   5.707   0.613   5.945 -0.0496  0.2576 -0.5268
 7477SOL     OW29639   1.615   6.074   0.823 -0.0282 -0.3467  0.0739
 7477SOL    HW229640   1.650   6.063   0.911  0.3197 -0.7577 -0.1114
 7477SOL    HW329641   1.591   5.986   0.795  0.0561 -0.2509 -0.3163
 7477SOL    MW429642   1.617   6.061   0.831  0.2663  0.1094 -0.0875
 7478SOL     OW29643   3.660   3.984   3.575  0.1808  0.2725 -0.2497
 7478SOL    HW229644   3.738   3.938   3.542  2.4642  3.7865 -0.3072
 7478SOL    HW329645   3.652   3.956   3.666  2.1891  0.5206  0.0557
 7478SOL    MW429646   3.670   3.974   3.583  0.1950  0.1474  0.2164
 7479SOL     OW29647   3.687   6.136   0.574  0.0821 -0.2164 -0.4544
 7479SOL    HW229648   3.763   6.098   0.529  2.3183  1.0248  1.9310
 7479SOL    HW329649   3.632   6.061   0.596  1.2924 -1.3563 -1.1144
 7479SOL    MW429650   3.690   6.121   0.571 -0.1424  0.5987  0.5317
 7480SOL     OW29651   3.054   1.598   2.327 -0.7613  0.5434  0.1002
 7480SOL    HW229652   3.094   1.521   2.367  2.1950  1.8060 -0.1849
 7480SOL    HW329653   2.966   1.601   2.363 -0.5980 -2.3171  0.9663
 7480SOL    MW429654   3.048   1.588   2.337 -0.1501  0.4178 -0.0195
 7481SOL     OW29655   0.829   5.746   5.858 -0.5070 -0.0582  0.3407
 7481SOL    HW229656   0.794   5.664   5.825  1.3992 -0.9621  0.4410
 7481SOL    HW329657   0.911   5.722   5.901 -0.7402  1.6620  1.9098
 7481SOL    MW429658   0.835   5.732   5.860 -0.2721 -0.6704 -0.2145
 7482SOL     OW29659   3.535   0.595   0.732 -0.1519 -0.2088 -0.1319
 7482SOL    HW229660   3.540   0.686   0.704 -1.3795 -0.1117 -0.1043
 7482SOL    HW329661   3.623   0.560   0.717  0.1398  0.7775 -0.8288
 7482SOL    MW429662   3.547   0.602   0.726 -0.1042 -0.4232  0.2987
 7483SOL     OW29663   5.793   5.879   2.181 -0.2379  0.4596 -0.2061
 7483SOL    HW229664   5.760   5.797   2.219 -0.0808  0.4184 -0.1581
 7483SOL    HW329665   5.875   5.895   2.227 -0.1975  0.5700 -0.3167
 7483SOL    MW429666   5.799   5.870   2.192 -0.6577 -0.5215 -0.0348
 7484SOL     OW29667   0.468   6.291   1.210 -0.1887  0.7010  0.2259
 7484SOL    HW229668   0.558   6.319   1.194 -0.3848  1.3378  0.1982
 7484SOL    HW329669   0.459   6.209   1.161  0.1713  0.9843 -0.3257
 7484SOL    MW429670   0.478   6.284   1.202 -0.5429 -0.0895 -0.1050
 7485SOL     OW29671   0.552   5.119   4.812 -0.1394  0.5701  0.4491
 7485SOL    HW229672   0.643   5.111   4.784 -0.2897  0.1651  0.0654
 7485SOL    HW329673   0.553   5.090   4.904 -0.3102 -2.0922 -0.3096
 7485SOL    MW429674   0.564   5.114   4.821  0.0284 -0.3736 -0.0271
 7486SOL     OW29675   2.104   5.704   0.788 -0.3562  0.0974  0.1814
 7486SOL    HW229676   2.069   5.741   0.869 -0.8146 -0.3197  0.1812
 7486SOL    HW329677   2.181   5.757   0.769 -0.4093  0.3859  0.7335
 7486SOL    MW429678   2.109   5.716   0.796  0.1951  0.3677 -0.0511
 7487SOL     OW29679   2.244   6.209   5.012 -0.1838  0.8462  0.6137
 7487SOL    HW229680   2.199   6.198   4.929 -0.3775  0.2463  0.7969
 7487SOL    HW329681   2.335   6.228   4.987 -0.1478  0.2362  0.2757
 7487SOL    MW429682   2.250   6.210   4.998  0.5063 -0.2616 -0.3726
 7488SOL     OW29683   4.811   0.557   0.727 -0.1049  0.2052 -0.2029
 7488SOL    HW229684   4.722   0.560   0.761 -0.5341  3.4954 -1.3092
 7488SOL    HW329685   4.867   0.547   0.804 -1.3089  1.4148  0.8524
 7488SOL    MW429686   4.807   0.556   0.741 -0.0642  0.2171 -0.3385
 7489SOL     OW29687   0.234   0.218   1.662  0.1439  0.4360 -0.1556
 7489SOL    HW229688   0.252   0.155   1.592 -0.0008  0.5943 -0.3362
 7489SOL    HW329689   0.318   0.230   1.705 -0.3985 -2.3645  1.9843
 7489SOL    MW429690   0.247   0.211   1.659 -0.7581 -0.2825  0.3035
 7490SOL     OW29691   2.000   4.541   3.309 -0.2005 -0.7437  0.4066
 7490SOL    HW229692   2.008   4.613   3.247 -0.5082 -0.7662  0.3402
 7490SOL    HW329693   1.987   4.463   3.255  0.4127 -0.8945  0.4667
 7490SOL    MW429694   1.999   4.540   3.294  0.0249  0.3718  0.5078
 7491SOL     OW29695   3.446   3.652   4.639  0.0479 -0.2535 -0.3935
 7491SOL    HW229696   3.528   3.659   4.689  0.3225 -0.6224 -0.7847
 7491SOL    HW329697   3.461   3.580   4.578 -0.3975 -0.0092 -0.8006
 7491SOL    MW429698   3.459   3.643   4.638  0.2589 -0.2087 -0.4063
 7492SOL     OW29699   1.120   4.462   5.025 -0.1673 -0.1209  0.0505
 7492SOL    HW229700   1.108   4.534   4.963  0.8884  1.0653  1.1424
 7492SOL    HW329701   1.139   4.386   4.971 -0.6729  0.5605 -1.1188
 7492SOL    MW429702   1.121   4.462   5.010 -0.0805 -0.1660  0.1072
 7493SOL     OW29703   5.527   2.179   4.166 -0.4250 -0.1663  0.2143
 7493SOL    HW229704   5.484   2.109   4.117 -0.2849 -0.3484  0.3507
 7493SOL    HW329705   5.573   2.230   4.100 -1.3407  0.3947 -0.0183
 7493SOL    MW429706   5.527   2.176   4.151 -0.1576 -0.5946 -0.0986
 7494SOL     OW29707   4.555   4.233   6.158 -0.1753 -0.0062 -0.3755
 7494SOL    HW229708   4.494   4.160   6.146 -0.0654 -0.3178  0.7981
 7494SOL    HW329709   4.638   4.201   6.124  0.1463 -0.8665  1.1406
 7494SOL    MW429710   4.558   4.219   6.152 -0.4351  0.9872  0.2892
 7495SOL     OW29711   0.607   5.853   5.956  0.3760 -1.1209 -0.2796
 7495SOL    HW229712   0.692   5.823   5.924  1.4328  0.1619  1.1843
 7495SOL    HW329713   0.624   5.942   5.989 -1.2159 -1.3724  1.3234
 7495SOL    MW429714   0.621   5.861   5.956 -0.0279 -0.3034  0.0201
 7496SOL     OW29715   0.962   0.142   3.467 -0.3021 -0.5593  0.2079
 7496SOL    HW229716   0.923   0.203   3.405  1.6243 -0.5912 -1.1278
 7496SOL    HW329717   0.942   0.055   3.431 -0.0492 -0.6068  0.1806
 7496SOL    MW429718   0.954   0.138   3.454 -0.3909 -0.2802 -0.2425
 7497SOL     OW29719   2.751   5.935   0.059  0.3776  0.0001 -0.4156
 7497SOL    HW229720   2.814   5.870   0.029  0.8910  0.2231  0.1572
 7497SOL    HW329721   2.670   5.886   0.075  0.5220 -0.3538 -0.7645
 7497SOL    MW429722   2.748   5.920   0.057 -0.1469 -0.7128  0.4594
 7498SOL     OW29723   2.105   6.353   0.760  0.0400  0.3734  0.1640
 7498SOL    HW229724   2.155   6.425   0.721  1.7111  0.0375  1.6025
 7498SOL    HW329725   2.134   6.349   0.851 -2.6428  0.1632  1.1089
 7498SOL    MW429726   2.115   6.362   0.767  0.1091  0.0573 -1.1219
 7499SOL     OW29727   4.254   0.346   2.434 -0.1837  0.0301  0.1357
 7499SOL    HW229728   4.312   0.349   2.510 -1.1642 -0.8191  0.9558
 7499SOL    HW329729   4.165   0.346   2.471 -0.7305  1.2604 -1.0847
 7499SOL    MW429730   4.250   0.346   2.448  0.2595  0.0446  1.3103
 7500SOL     OW29731   3.170   0.261   2.337  0.4632 -0.5972 -0.0811
 7500SOL    HW229732   3.172   0.355   2.320  0.1780 -0.5895 -0.0888
 7500SOL    HW329733   3.261   0.235   2.343  0.6123 -0.6613 -1.9793
 7500SOL    MW429734   3.182   0.270   2.336 -0.3901  0.2292  0.5838
 7501SOL     OW29735   6.230   0.649   2.693 -0.2709  0.1239  0.2024
 7501SOL    HW229736   6.136   0.640   2.706 -0.1798  0.5461  1.2348
 7501SOL    HW329737   6.249   0.739   2.718  0.3239  0.2258 -0.5792
 7501SOL    MW429738   6.220   0.659   2.698  0.2771  0.3313  0.5123
 7502SOL     OW29739   0.459   1.734   4.012  0.4183  0.1468  0.7568
 7502SOL    HW229740   0.427   1.759   4.099 -0.7748 -0.8473  0.6283
 7502SOL    HW329741   0.487   1.643   4.023  1.9819  0.5784  0.5248
 7502SOL    MW429742   0.458   1.725   4.025 -0.8356  0.0409  0.4022
 7503SOL     OW29743   5.593   5.195   5.047  0.4999 -0.5431 -0.0013
 7503SOL    HW229744   5.627   5.160   5.130  1.5165 -0.5765 -0.4098
 7503SOL    HW329745   5.552   5.119   5.004  1.9387 -1.0785 -0.5008
 7503SOL    MW429746   5.592   5.180   5.052  0.5752  0.0473  0.9574
 7504SOL     OW29747   2.465   5.895   0.560 -0.1670  0.4704 -0.3128
 7504SOL    HW229748   2.436   5.810   0.525 -0.6419 -0.5309  2.3006
 7504SOL    HW329749   2.548   5.912   0.515 -0.5133 -0.9309 -1.5466
 7504SOL    MW429750   2.472   5.886   0.549  0.6923 -0.2517  0.1170
 7505SOL     OW29751   1.390   0.602   2.445  0.2494 -0.4030  0.2546
 7505SOL    HW229752   1.369   0.604   2.351 -0.3713  1.4142  0.3923
 7505SOL    HW329753   1.323   0.658   2.485  1.3942  0.0363  1.6043
 7505SOL    MW429754   1.378   0.610   2.438 -0.0602  0.3122  0.1541
 7506SOL     OW29755   3.718   4.602   1.149 -0.5773 -0.0026 -0.9211
 7506SOL    HW229756   3.788   4.654   1.189 -0.5281 -0.0107 -0.9967
 7506SOL    HW329757   3.762   4.526   1.112 -0.7497 -0.5194 -0.0986
 7506SOL    MW429758   3.733   4.599   1.149 -0.3183 -0.4055 -0.2766
 7507SOL     OW29759   3.737   6.060   2.081  0.1467  0.5980  0.4754
 7507SOL    HW229760   3.722   6.121   2.009  0.8596  0.1133 -0.0876
 7507SOL    HW329761   3.830   6.040   2.078 -0.2842 -1.5724 -0.2132
 7507SOL    MW429762   3.747   6.065   2.071  0.3733 -0.1343  0.6488
 7508SOL     OW29763   2.338   2.599   2.256  0.2422 -0.4391  0.1364
 7508SOL    HW229764   2.343   2.554   2.171  3.3299  0.2961 -0.1951
 7508SOL    HW329765   2.418   2.572   2.302  1.2647  3.0753  0.6962
 7508SOL    MW429766   2.349   2.589   2.251 -0.6510  0.1288  0.0345
 7509SOL     OW29767   5.944   6.362   1.310  0.6223 -0.3572 -0.5334
 7509SOL    HW229768   5.866   6.357   1.255 -0.1009 -1.3360  0.5340
 7509SOL    HW329769   5.912   6.393   1.394  1.6584  0.7501 -0.5160
 7509SOL    MW429770   5.930   6.365   1.314 -0.4031  0.3372 -0.3985
 7510SOL     OW29771   2.207   0.342   1.763 -0.0544 -0.8660  0.1239
 7510SOL    HW229772   2.149   0.343   1.839 -0.1584 -0.5938  0.0447
 7510SOL    HW329773   2.149   0.324   1.689 -0.6905  2.7475 -0.4389
 7510SOL    MW429774   2.191   0.340   1.763 -1.0713  0.7390  0.0989
 7511SOL     OW29775   6.057   3.674   3.305  0.0595  0.3449 -0.0520
 7511SOL    HW229776   5.970   3.713   3.316  0.3723  1.1796 -0.4670
 7511SOL    HW329777   6.118   3.744   3.326  0.6506 -0.4836  1.0965
 7511SOL    MW429778   6.054   3.688   3.309 -0.5212 -0.4743 -0.2558
 7512SOL     OW29779   6.245   0.758   0.637 -0.1545  0.4179  0.1821
 7512SOL    HW229780   6.319   0.704   0.610 -0.9880 -1.5813  1.6265
 7512SOL    HW329781   6.168   0.712   0.603 -0.8430  1.3447  0.4371
 7512SOL    MW429782   6.244   0.745   0.629 -0.0620  0.5757 -0.7071
 7513SOL     OW29783   1.878   1.273   2.970  0.1710 -0.0543  0.0202
 7513SOL    HW229784   1.927   1.273   2.888  0.8244  1.8705  0.3724
 7513SOL    HW329785   1.786   1.271   2.943  0.3773  0.5882 -0.7631
 7513SOL    MW429786   1.873   1.272   2.956 -0.4015  0.1425 -0.0369
 7514SOL     OW29787   0.963   6.015   1.210 -0.3644  0.0776  0.0738
 7514SOL    HW229788   0.954   5.947   1.277  1.2459 -1.7120 -1.3898
 7514SOL    HW329789   0.904   5.987   1.140  0.5995 -0.0484 -0.7012
 7514SOL    MW429790   0.954   6.002   1.210 -0.2881  0.2341 -0.0879
 7515SOL     OW29791   2.517   3.148   6.418 -0.2991  0.4519  0.3162
 7515SOL    HW229792   2.490   3.063   6.382  1.4113 -0.6065  1.3683
 7515SOL    HW329793   2.549   3.197   6.343 -0.5854 -0.1421 -0.2054
 7515SOL    MW429794   2.517   3.143   6.403 -0.2421 -0.0793  0.5030
 7516SOL     OW29795   3.842   0.860   0.278 -0.4566 -0.2974 -0.4521
 7516SOL    HW229796   3.799   0.838   0.195  0.8523  0.7483 -1.4498
 7516SOL    HW329797   3.825   0.784   0.334 -0.0333 -1.7687 -2.2001
 7516SOL    MW429798   3.834   0.847   0.274 -0.2371  0.7879 -0.2172
 7517SOL     OW29799   3.799   2.563   5.006  0.4681  0.0449  0.0173
 7517SOL    HW229800   3.737   2.625   5.045  0.1210  1.1166 -2.1113
 7517SOL    HW329801   3.806   2.493   5.071 -1.2621  0.9674  1.2905
 7517SOL    MW429802   3.792   2.562   5.020  0.3750 -0.0883  0.1841
 7518SOL     OW29803   3.747   4.152   5.117 -0.0636  0.1883  0.1753
 7518SOL    HW229804   3.826   4.158   5.171 -1.2235  1.0183  1.8652
 7518SOL    HW329805   3.680   4.121   5.177 -1.0788 -0.3623 -1.1957
 7518SOL    MW429806   3.749   4.149   5.132  0.0819  0.2882 -0.2638
 7519SOL     OW29807   3.979   0.031   4.603 -0.4838  0.1202 -0.4393
 7519SOL    HW229808   3.946  -0.058   4.588 -1.8394  0.5598 -0.1611
 7519SOL    HW329809   3.900   0.084   4.615  0.3405  1.2118  0.2620
 7519SOL    MW429810   3.964   0.026   4.602 -0.5485  0.5254 -0.0171
 7520SOL     OW29811   2.111   1.687   2.864  0.1764  0.0597  0.2311
 7520SOL    HW229812   2.066   1.750   2.919  0.8485 -0.1020  0.9847
 7520SOL    HW329813   2.204   1.708   2.874  0.2773  0.9255 -1.9331
 7520SOL    MW429814   2.118   1.698   2.872  0.1824 -0.1445 -0.2122
 7521SOL     OW29815   1.437   0.669   3.155  0.0838  0.6794  0.1757
 7521SOL    HW229816   1.418   0.578   3.179  0.0168  0.6330 -0.0518
 7521SOL    HW329817   1.435   0.716   3.238 -0.0486  0.5025  0.2749
 7521SOL    MW429818   1.434   0.663   3.169 -0.4536 -0.2700 -0.0941
 7522SOL     OW29819   5.491   2.934   0.094 -0.8976 -0.6209  0.1654
 7522SOL    HW229820   5.477   2.841   0.076 -0.7533 -0.7295  0.6076
 7522SOL    HW329821   5.522   2.970   0.010 -1.9849 -0.7506 -0.3027
 7522SOL    MW429822   5.494   2.927   0.080 -0.1262 -0.5439 -0.8116
 7523SOL     OW29823   3.746   4.438   2.138  0.0860  0.1210  0.6461
 7523SOL    HW229824   3.770   4.425   2.046  1.4269 -1.2241  1.1297
 7523SOL    HW329825   3.658   4.475   2.136 -0.5748 -1.4214 -1.1528
 7523SOL    MW429826   3.738   4.441   2.126  0.0558  0.1152  0.1665
 7524SOL     OW29827   6.341   4.694   0.664 -0.3450 -0.4690 -0.4209
 7524SOL    HW229828   6.432   4.665   0.653 -0.4496 -0.1629 -2.5616
 7524SOL    HW329829   6.305   4.635   0.730  1.3673 -0.6632  0.3964
 7524SOL    MW429830   6.348   4.682   0.671 -0.0834 -0.1739 -0.0572
 7525SOL     OW29831   4.840   5.526   3.312  0.2665 -0.2471  0.1051
 7525SOL    HW229832   4.893   5.605   3.301 -0.2784 -0.1227 -2.2067
 7525SOL    HW329833   4.753   5.558   3.335  0.4268 -0.2855  0.7901
 7525SOL    MW429834   4.836   5.541   3.313 -0.1911 -0.1409 -0.2379
 7526SOL     OW29835   1.317   5.514   2.382 -0.5968  0.0757 -0.0833
 7526SOL    HW229836   1.380   5.487   2.449  0.3746 -0.8552 -1.3216
 7526SOL    HW329837   1.360   5.587   2.337 -0.9103  0.1913 -0.1978
 7526SOL    MW429838   1.331   5.520   2.385 -0.2447  0.3915  0.2455
 7527SOL     OW29839   4.525   5.256   4.324 -0.1666  0.4255 -0.6817
 7527SOL    HW229840   4.483   5.246   4.239 -0.1778 -0.7618 -0.5453
 7527SOL    HW329841   4.488   5.187   4.378  1.7137 -0.4689 -0.4645
 7527SOL    MW429842   4.515   5.246   4.320 -0.7012  0.0123 -0.1672
 7528SOL     OW29843   1.248   4.160   5.229 -0.2940 -0.0434 -0.6585
 7528SOL    HW229844   1.275   4.068   5.218 -2.1373 -0.7075 -0.0970
 7528SOL    HW329845   1.167   4.167   5.178 -1.3340  0.6569  1.0051
 7528SOL    MW429846   1.241   4.149   5.221  0.0414  0.1210 -0.4272
 7529SOL     OW29847   0.993   2.375   4.083  0.0900  1.0795 -0.1293
 7529SOL    HW229848   1.015   2.291   4.125 -0.8238  1.0977  0.4214
 7529SOL    HW329849   1.066   2.433   4.107 -0.5399  1.1762  1.7472
 7529SOL    MW429850   1.006   2.371   4.092 -0.5987 -0.5598 -0.2663
 7530SOL     OW29851   2.938   1.819   5.491  0.4211  0.4478 -0.3064
 7530SOL    HW229852   2.973   1.817   5.402  0.0147 -0.0925 -0.4676
 7530SOL    HW329853   2.886   1.899   5.495  0.3211  0.4014 -0.6139
 7530SOL    MW429854   2.936   1.829   5.479  0.1332  0.3595  0.3889
 7531SOL     OW29855   1.589   2.966   3.136 -0.2991  0.6054  0.1688
 7531SOL    HW229856   1.574   3.018   3.215 -1.3791 -0.7560  0.9170
 7531SOL    HW329857   1.680   2.939   3.141  0.0203  1.6641  0.2250
 7531SOL    MW429858   1.599   2.969   3.147  0.0410  0.4758 -0.2170
 7532SOL     OW29859   3.391   4.201   0.875  0.0220  0.0075 -0.1287
 7532SOL    HW229860   3.404   4.149   0.954  2.3562 -0.1275 -0.5380
 7532SOL    HW329861   3.454   4.272   0.883  2.2903 -1.4952 -3.0611
 7532SOL    MW429862   3.401   4.203   0.887  0.3979  0.1147  0.3430
 7533SOL     OW29863   0.765   4.385   0.807 -0.1021 -0.3236  0.4884
 7533SOL    HW229864   0.811   4.420   0.731 -2.0189  0.3579 -0.3998
 7533SOL    HW329865   0.834   4.373   0.873  1.2477  1.2607 -0.5569
 7533SOL    MW429866   0.780   4.388   0.806  0.3279 -0.0785  0.2102
 7534SOL     OW29867   3.953   1.247   3.474 -0.6298 -0.5702  0.3740
 7534SOL    HW229868   3.920   1.203   3.396 -1.1661 -0.7378  0.6968
 7534SOL    HW329869   3.882   1.240   3.538 -0.8645  1.0338  0.3292
 7534SOL    MW429870   3.939   1.241   3.472  0.3326 -0.3366  0.2421
 7535SOL     OW29871   4.925   3.591   5.744  0.0323 -0.5413 -0.0672
 7535SOL    HW229872   4.863   3.556   5.807  2.5687 -2.2063  1.6541
 7535SOL    HW329873   4.938   3.682   5.771 -1.5019 -0.1839 -0.4159
 7535SOL    MW429874   4.918   3.599   5.756  0.4005 -0.2016 -0.9055
 7536SOL     OW29875   0.200   2.620   2.822 -0.6870  0.8632 -0.6159
 7536SOL    HW229876   0.214   2.669   2.904  0.6769 -0.1454 -0.2039
 7536SOL    HW329877   0.273   2.647   2.766  1.0798 -1.7782  0.2031
 7536SOL    MW429878   0.212   2.630   2.826  0.3529 -0.1921 -0.1141
 7537SOL     OW29879   1.184   0.323   1.384  0.1376  0.1636  0.1182
 7537SOL    HW229880   1.280   0.320   1.380  0.1858  1.7181 -0.5740
 7537SOL    HW329881   1.156   0.325   1.293 -0.3364  3.3522  0.2212
 7537SOL    MW429882   1.193   0.323   1.372 -0.3060 -0.2140  0.5206
 7538SOL     OW29883   0.704   2.290   3.269 -0.1282 -0.5495  0.0403
 7538SOL    HW229884   0.740   2.246   3.347  0.1866 -1.7784 -0.7724
 7538SOL    HW329885   0.777   2.344   3.237 -0.5990  0.8237  1.1930
 7538SOL    MW429886   0.719   2.291   3.275  0.3730 -0.2639  0.3393
 7539SOL     OW29887   3.735   2.723   3.190  0.0003 -0.1963 -0.1767
 7539SOL    HW229888   3.811   2.770   3.154  0.1917 -1.1576 -1.0897
 7539SOL    HW329889   3.757   2.709   3.282 -0.4341  2.2016  0.3558
 7539SOL    MW429890   3.748   2.727   3.197 -0.0981  0.4680  0.2012
 7540SOL     OW29891   2.394   5.968   2.913 -0.5078 -0.2556  0.2703
 7540SOL    HW229892   2.352   6.051   2.891 -0.5128  0.5718  3.0600
 7540SOL    HW329893   2.481   5.974   2.873 -1.5488 -0.3139 -2.1945
 7540SOL    MW429894   2.400   5.980   2.905 -0.5111 -0.1735  0.3121
 7541SOL     OW29895   1.713   5.176   5.907  0.3661 -0.3478  0.1675
 7541SOL    HW229896   1.732   5.235   5.980 -0.2387  0.0921 -0.0166
 7541SOL    HW329897   1.795   5.170   5.858  0.0185  1.7499 -0.7929
 7541SOL    MW429898   1.726   5.183   5.910  0.1870  0.1633  0.3752
 7542SOL     OW29899   3.353   0.165   3.622 -0.3568 -0.2399 -0.0281
 7542SOL    HW229900   3.349   0.148   3.528  2.2351 -1.2098 -0.0473
 7542SOL    HW329901   3.430   0.222   3.633  0.4863 -1.5839  1.6056
 7542SOL    MW429902   3.363   0.170   3.611 -0.5094 -0.1969 -0.5055
 7543SOL     OW29903   3.981   1.604   0.323  0.3398  0.3000  0.0915
 7543SOL    HW229904   4.012   1.676   0.268 -0.3282  1.2222  0.9082
 7543SOL    HW329905   3.890   1.626   0.342  0.5434 -0.0425  1.5196
 7543SOL    MW429906   3.973   1.616   0.318 -0.1447  0.3717 -0.1407
 7544SOL     OW29907   0.262   4.019   4.469  0.4791 -0.7253 -0.8861
 7544SOL    HW229908   0.357   4.020   4.461  0.6019 -0.1312  0.3826
 7544SOL    HW329909   0.230   4.020   4.379  1.6757  0.1024 -1.3250
 7544SOL    MW429910   0.270   4.019   4.456 -0.1515  0.0676 -0.2808
 7545SOL     OW29911   1.558   4.970   6.208  0.1920  0.2742  0.7614
 7545SOL    HW229912   1.590   5.029   6.276 -0.5677  2.2429 -0.5061
 7545SOL    HW329913   1.502   4.908   6.255  1.7561 -0.0608  2.2652
 7545SOL    MW429914   1.555   4.970   6.223 -0.1460 -0.2106  0.0441
 7546SOL     OW29915   4.937   2.949   0.767 -0.1965  0.8629  0.7249
 7546SOL    HW229916   4.929   2.923   0.858  1.0624 -2.3186  0.0920
 7546SOL    HW329917   5.012   3.008   0.765 -0.4404  1.2205  1.7729
 7546SOL    MW429918   4.946   2.953   0.779 -0.2480 -0.6568 -0.4900
 7547SOL     OW29919   3.203   6.379   3.968  0.7302 -0.3493  0.3841
 7547SOL    HW229920   3.220   6.326   3.890  0.3502  0.3822 -0.2204
 7547SOL    HW329921   3.191   6.468   3.934  1.0433  0.0716  1.3378
 7547SOL    MW429922   3.203   6.384   3.953 -0.2695 -0.3376 -0.2407
 7548SOL     OW29923   2.412   3.499   2.574  0.2342  0.2635 -0.0546
 7548SOL    HW229924   2.393   3.579   2.526  0.2291  1.0455  1.2013
 7548SOL    HW329925   2.463   3.527   2.649 -0.0599 -0.8664  0.5978
 7548SOL    MW429926   2.416   3.513   2.578  0.1836 -0.0153 -0.0424
 7549SOL     OW29927   4.512   1.966   2.737 -0.2754 -0.0150 -0.7141
 7549SOL    HW229928   4.584   1.969   2.800 -0.7566  3.0559 -0.1544
 7549SOL    HW329929   4.458   2.042   2.759 -1.8602 -0.2984 -3.2400
 7549SOL    MW429930   4.514   1.977   2.748 -0.5057  0.1416  0.1302
 7550SOL     OW29931   2.745   4.719   2.688  0.1616  0.1071 -0.3433
 7550SOL    HW229932   2.658   4.680   2.695  0.1016 -0.0573 -1.7581
 7550SOL    HW329933   2.741   4.772   2.608  0.9007  1.3228  0.3955
 7550SOL    MW429934   2.733   4.721   2.678  0.5046 -1.0604  0.0657
 7551SOL     OW29935   0.173   6.396   1.835 -0.0846  0.0826 -0.9191
 7551SOL    HW229936   0.160   6.349   1.753  1.3214  0.5661 -1.4479
 7551SOL    HW329937   0.168   6.489   1.811  2.7408  0.3196 -0.9890
 7551SOL    MW429938   0.171   6.402   1.821 -0.0438 -0.2689  0.1354
 7552SOL     OW29939   0.217   4.306   3.483 -0.1751 -0.5395 -0.3464
 7552SOL    HW229940   0.274   4.318   3.407 -0.0617 -1.8448 -0.4909
 7552SOL    HW329941   0.244   4.222   3.520  0.5503  0.5678  1.8282
 7552SOL    MW429942   0.228   4.296   3.478 -0.0210  0.0794  0.3218
 7553SOL     OW29943   3.568   4.690   4.141  0.2579  0.3059 -0.9269
 7553SOL    HW229944   3.645   4.702   4.086  1.0634  0.8915  0.2649
 7553SOL    HW329945   3.499   4.740   4.098  1.1349  1.5843 -0.8890
 7553SOL    MW429946   3.569   4.698   4.128  0.0334 -0.0639  0.3037
 7554SOL     OW29947   4.524   0.431   3.889  0.1648  0.0895 -0.0217
 7554SOL    HW229948   4.511   0.370   3.962  2.9082  0.1912  0.6633
 7554SOL    HW329949   4.471   0.508   3.913  1.4548  0.3652  2.2171
 7554SOL    MW429950   4.515   0.433   3.902 -0.8501 -0.2631  0.4519
 7555SOL     OW29951   0.394   5.514   5.088 -0.5810 -0.6013 -0.0788
 7555SOL    HW229952   0.377   5.481   5.176  1.1862 -0.1073  0.4926
 7555SOL    HW329953   0.468   5.462   5.057 -0.6930 -0.2415 -0.9645
 7555SOL    MW429954   0.401   5.503   5.096  0.1249  0.3226 -0.0372
 7556SOL     OW29955   3.772   3.676   0.760 -0.1633 -0.4805 -0.5049
 7556SOL    HW229956   3.776   3.621   0.838  0.0679  1.2177  0.7338
 7556SOL    HW329957   3.862   3.679   0.728 -0.2645 -1.2090 -0.8834
 7556SOL    MW429958   3.784   3.669   0.766  0.0865 -0.5123  0.2453
 7557SOL     OW29959   2.613   5.714   5.635 -0.1516 -0.9890 -0.2786
 7557SOL    HW229960   2.685   5.769   5.605 -0.4650 -1.3049 -1.6693
 7557SOL    HW329961   2.632   5.699   5.728  1.8458 -1.4934 -0.7163
 7557SOL    MW429962   2.625   5.719   5.643 -0.0772 -0.0550  0.1160
 7558SOL     OW29963   3.604   3.737   0.544  0.1960  0.3221 -0.1169
 7558SOL    HW229964   3.647   3.722   0.628 -2.0220  0.6839  1.1612
 7558SOL    HW329965   3.551   3.659   0.530  0.2893  0.4137 -0.9917
 7558SOL    MW429966   3.602   3.725   0.553 -0.6662 -0.1320  0.1644
 7559SOL     OW29967   3.028   4.677   2.165  0.1363  0.1943  0.0729
 7559SOL    HW229968   3.080   4.625   2.227  0.3705 -0.6076 -0.7713
 7559SOL    HW329969   3.009   4.616   2.093 -1.0618  0.7931 -0.1357
 7559SOL    MW429970   3.032   4.662   2.164  0.0174 -0.1893 -0.2590
 7560SOL     OW29971   3.431   4.050   6.103 -0.2392  0.2779 -0.2123
 7560SOL    HW229972   3.381   4.099   6.038  0.2495 -1.7373 -2.2169
 7560SOL    HW329973   3.508   4.104   6.120 -0.2078  0.7047 -1.5850
 7560SOL    MW429974   3.434   4.063   6.097  0.3840 -0.1813 -0.1827
 7561SOL     OW29975   0.354   3.740   5.085 -0.2600 -0.9826  0.7096
 7561SOL    HW229976   0.267   3.752   5.122 -0.9658 -1.1788 -0.8077
 7561SOL    HW329977   0.368   3.646   5.088 -0.4500 -1.0288  0.2120
 7561SOL    MW429978   0.344   3.729   5.090  0.4230 -0.9412 -0.3296
 7562SOL     OW29979   1.378   5.177   3.153 -0.3770  0.2685  0.0402
 7562SOL    HW229980   1.441   5.249   3.152 -1.7589  1.5423 -1.6275
 7562SOL    HW329981   1.410   5.119   3.222  1.4252  1.8914  0.6838
 7562SOL    MW429982   1.391   5.179   3.162 -0.2579  0.1366 -0.1760
 7563SOL     OW29983   1.057   5.669   4.339  0.2969 -0.2714  0.0219
 7563SOL    HW229984   1.106   5.674   4.421 -0.4539 -0.2301  0.4781
 7563SOL    HW329985   1.123   5.680   4.271  0.8675  0.1779  0.6345
 7563SOL    MW429986   1.072   5.671   4.341  0.2160  0.9531 -0.4371
 7564SOL     OW29987   5.757   2.107   4.624 -1.0024 -0.3107 -0.2834
 7564SOL    HW229988   5.717   2.193   4.635  0.3839  0.2004  1.1659
 7564SOL    HW329989   5.727   2.077   4.538  0.5167  2.7400 -2.0392
 7564SOL    MW429990   5.748   2.114   4.614 -0.0001 -0.3096 -0.7030
 7565SOL     OW29991   5.308   5.512   5.586  0.3801 -0.5743 -0.2140
 7565SOL    HW229992   5.262   5.554   5.659  0.8275  1.3199 -0.9550
 7565SOL    HW329993   5.380   5.572   5.566  1.5090 -2.1031 -0.8768
 7565SOL    MW429994   5.311   5.526   5.593 -0.1407  0.3602  0.5138
 7566SOL     OW29995   5.980   5.442   3.008  0.3872 -0.3502  0.7010
 7566SOL    HW229996   5.912   5.391   3.051  0.2448  0.7141  1.8060
 7566SOL    HW329997   5.974   5.418   2.916 -0.8723 -0.9567  0.9231
 7566SOL    MW429998   5.970   5.432   3.002  0.2878 -0.2708 -0.4574
 7567SOL     OW29999   0.995   5.750   3.984  0.0377 -0.3027  0.6925
 7567SOL    HW230000   0.924   5.790   4.035 -0.2949  0.2204 -0.1573
 7567SOL    HW330001   0.970   5.765   3.893  1.0382 -0.4855  0.3794
 7567SOL    MW430002   0.982   5.758   3.979 -0.0825  0.0610  0.0904
 7568SOL     OW30003   1.505   1.036   3.700 -0.3289  0.1957 -0.3782
 7568SOL    HW230004   1.480   1.108   3.642 -0.4218  0.0410 -0.5329
 7568SOL    HW330005   1.563   0.982   3.647 -1.0991 -0.4153 -0.6259
 7568SOL    MW430006   1.509   1.038   3.685 -0.5805  0.5113 -0.5322
 7569SOL     OW30007   0.533   1.328   2.798 -0.2687 -0.1914 -0.3350
 7569SOL    HW230008   0.514   1.305   2.707 -1.0199  0.4619 -0.3546
 7569SOL    HW330009   0.615   1.283   2.818 -0.2762 -0.6139 -1.2284
 7569SOL    MW430010   0.542   1.319   2.789 -0.2936  0.4986  0.1888
 7570SOL     OW30011   2.017   2.053   1.994  0.1468  0.1512 -0.0035
 7570SOL    HW230012   2.004   2.002   2.074  0.2413  0.7281  0.3860
 7570SOL    HW330013   2.009   2.144   2.022  2.0420  0.4541 -0.2797
 7570SOL    MW430014   2.014   2.058   2.008  0.4311  0.6407 -0.1969
 7571SOL     OW30015   0.856   2.182   4.832  0.2649  0.9785  0.7986
 7571SOL    HW230016   0.851   2.147   4.744 -0.2496 -0.9670  1.5557
 7571SOL    HW330017   0.809   2.265   4.828 -0.4063  0.5553 -0.5745
 7571SOL    MW430018   0.849   2.188   4.820 -0.0432  0.1881  0.2189
 7572SOL     OW30019   5.855   5.642   0.132 -0.0833  0.8585  0.0510
 7572SOL    HW230020   5.933   5.690   0.105 -0.1613  0.4748 -0.9220
 7572SOL    HW330021   5.782   5.692   0.095 -0.2012  0.3569 -0.4048
 7572SOL    MW430022   5.856   5.655   0.123 -0.0787 -0.0444 -0.0729
 7573SOL     OW30023   6.363   5.989   2.310  0.2805 -0.5180 -0.5616
 7573SOL    HW230024   6.441   6.034   2.279  0.9160 -1.4246 -0.3159
 7573SOL    HW330025   6.291   6.026   2.258  0.7238  0.9837 -0.1631
 7573SOL    MW430026   6.363   6.000   2.299 -0.1850  0.0217  0.0291
 7574SOL     OW30027   2.695   4.848   5.411  0.3117 -0.3550 -0.4782
 7574SOL    HW230028   2.670   4.816   5.498 -0.5865  0.4016 -0.4394
 7574SOL    HW330029   2.788   4.868   5.419 -0.4382  3.4424  1.5824
 7574SOL    MW430030   2.704   4.846   5.424 -0.1238  0.2801 -0.1088
 7575SOL     OW30031   0.777   0.769   3.440  0.3404 -0.2219  0.7356
 7575SOL    HW230032   0.702   0.714   3.463  0.3182 -1.1394 -1.2512
 7575SOL    HW330033   0.739   0.839   3.387  0.7866 -0.3890  0.1771
 7575SOL    MW430034   0.762   0.771   3.436 -0.8320 -0.0764  0.0803
 7576SOL     OW30035   2.640   1.954   4.729  0.1346  0.5193 -0.1837
 7576SOL    HW230036   2.586   1.969   4.807  0.5453 -0.0598  0.2235
 7576SOL    HW330037   2.701   2.027   4.728  0.0682  0.5779 -0.0159
 7576SOL    MW430038   2.641   1.966   4.739 -0.1519  0.1957 -0.1972
 7577SOL     OW30039   5.570   0.912   0.577 -0.0876  0.4690  0.2873
 7577SOL    HW230040   5.594   0.999   0.609 -1.1930  0.9589 -0.1738
 7577SOL    HW330041   5.484   0.924   0.537 -0.2918 -0.8602  0.2939
 7577SOL    MW430042   5.562   0.925   0.576  0.2508 -0.1673 -0.4720
 7578SOL     OW30043   6.110   2.017   4.985  0.1891  0.0883  0.2113
 7578SOL    HW230044   6.198   1.980   4.979 -0.1320 -0.6820  0.2463
 7578SOL    HW330045   6.066   1.987   4.906 -0.5625 -0.9241  0.9894
 7578SOL    MW430046   6.116   2.008   4.974  0.1813  0.3360  0.2995
 7579SOL     OW30047   0.298   2.290   6.362 -0.0940  0.1238  0.3538
 7579SOL    HW230048   0.221   2.346   6.371  0.1934  0.3924  1.2637
 7579SOL    HW330049   0.269   2.204   6.392  0.1053  0.3608  1.2503
 7579SOL    MW430050   0.284   2.286   6.367 -0.3677  0.0241  0.5992
 7580SOL     OW30051   3.691   6.358   1.271  0.0758  0.4494 -0.1373
 7580SOL    HW230052   3.656   6.329   1.355 -0.4436  0.7140 -0.2598
 7580SOL    HW330053   3.762   6.296   1.252 -0.4058 -0.1697  0.0522
 7580SOL    MW430054   3.696   6.346   1.280 -0.5477  0.0271 -0.1135
 7581SOL     OW30055   4.991   4.896   3.103 -0.0831 -0.1149  0.3477
 7581SOL    HW230056   5.029   4.809   3.117 -1.2261 -0.4988  1.2823
 7581SOL    HW330057   4.943   4.888   3.021 -0.1167 -0.3513  0.3880
 7581SOL    MW430058   4.990   4.883   3.094  0.0506  0.1007 -0.0097
 7582SOL     OW30059   3.298   3.774   3.557  0.8248 -0.2971  0.0731
 7582SOL    HW230060   3.309   3.779   3.652  0.0975  0.4055  0.1292
 7582SOL    HW330061   3.327   3.859   3.525  0.3366 -0.2505 -0.2554
 7582SOL    MW430062   3.304   3.786   3.566 -0.5313 -0.4256 -0.2064
 7583SOL     OW30063   3.562   1.373   0.364 -0.1718  0.3570  0.3100
 7583SOL    HW230064   3.641   1.379   0.417 -2.1552  1.0300  3.4926
 7583SOL    HW330065   3.546   1.463   0.334 -1.6177  1.1327  2.9770
 7583SOL    MW430066   3.570   1.386   0.367  0.2393 -0.2523  0.3955
 7584SOL     OW30067   2.685   0.238   1.808  0.0813  0.2841 -0.1228
 7584SOL    HW230068   2.597   0.273   1.797 -0.5833 -1.7248 -1.7394
 7584SOL    HW330069   2.738   0.315   1.830 -2.1050  1.4868  1.3849
 7584SOL    MW430070   2.680   0.253   1.810  0.0161 -0.0076  0.2751
 7585SOL     OW30071   6.355   4.548   6.100 -0.9224  0.5510  0.1811
 7585SOL    HW230072   6.352   4.608   6.026  2.1714 -0.4861 -0.9331
 7585SOL    HW330073   6.291   4.583   6.162 -0.7549  3.7630 -1.2606
 7585SOL    MW430074   6.346   4.560   6.099 -0.1501 -0.4706 -0.0568
 7586SOL     OW30075   2.660   3.722   5.876 -0.4095 -0.7385 -0.1373
 7586SOL    HW230076   2.638   3.646   5.821  1.0316 -1.4109  0.1717
 7586SOL    HW330077   2.672   3.793   5.814  0.2580 -1.2652 -0.6268
 7586SOL    MW430078   2.659   3.721   5.861  0.2794 -0.4263  0.2553
 7587SOL     OW30079   1.643   2.027   2.707  0.1936 -0.2695 -0.3322
 7587SOL    HW230080   1.696   1.950   2.688  0.7575  0.2333 -0.8719
 7587SOL    HW330081   1.676   2.060   2.790 -0.2129 -0.7339  0.0241
 7587SOL    MW430082   1.654   2.021   2.715  0.0808  0.4332 -0.9655
 7588SOL     OW30083   4.518   1.970   0.923 -0.0496  0.2306  0.3989
 7588SOL    HW230084   4.552   1.881   0.930 -1.2829 -0.2913  0.1770
 7588SOL    HW330085   4.423   1.959   0.929 -0.3169  1.3648 -1.1604
 7588SOL    MW430086   4.510   1.957   0.925 -0.3427  0.5318 -0.1938
 7589SOL     OW30087   0.208   3.015   4.483  0.1585 -0.0436  0.7126
 7589SOL    HW230088   0.265   3.088   4.461 -0.9972  0.7775  0.3379
 7589SOL    HW330089   0.210   2.959   4.405  1.4713 -0.7131  1.2080
 7589SOL    MW430090   0.215   3.017   4.470  0.3549 -0.3425  0.2523
 7590SOL     OW30091   1.665   3.898   4.637  0.0416 -0.0568  0.4474
 7590SOL    HW230092   1.755   3.874   4.613 -0.1061  1.4658 -1.9778
 7590SOL    HW330093   1.616   3.816   4.629  0.7101 -0.3409 -1.2133
 7590SOL    MW430094   1.671   3.884   4.633 -0.0083 -0.0294  0.0716
 7591SOL     OW30095   6.120   0.944   6.046  0.1777  0.7394 -0.0597
 7591SOL    HW230096   6.159   0.897   6.120  1.3728 -0.0041 -1.1201
 7591SOL    HW330097   6.083   1.023   6.085  0.1322  0.0227  1.4353
 7591SOL    MW430098   6.120   0.948   6.061 -0.1332 -0.0807 -0.1784
 7592SOL     OW30099   6.404   1.335   2.610  0.6672  0.4302 -0.4072
 7592SOL    HW230100   6.379   1.243   2.611 -0.8660  0.8058 -1.0688
 7592SOL    HW330101   6.430   1.354   2.700  1.3162 -0.7214 -0.3385
 7592SOL    MW430102   6.404   1.326   2.622  0.0684 -0.7492  0.3156
 7593SOL     OW30103   0.990   1.254   2.663  0.2346  0.0378  0.3363
 7593SOL    HW230104   0.910   1.202   2.661 -0.5519  1.2451 -0.6612
 7593SOL    HW330105   0.962   1.343   2.644  1.4240  1.0740  2.9555
 7593SOL    MW430106   0.976   1.259   2.660  0.1906 -0.2340 -0.0947
 7594SOL     OW30107   0.566   1.916   1.119 -0.4107 -0.1492 -0.1466
 7594SOL    HW230108   0.628   1.890   1.051 -0.6549  2.1935 -1.3413
 7594SOL    HW330109   0.615   1.978   1.174 -1.0364  0.0524  0.1977
 7594SOL    MW430110   0.581   1.921   1.117  0.4934 -0.4825 -0.0554
 7595SOL     OW30111   6.353   0.344   2.940 -0.1285  0.0124  0.3937
 7595SOL    HW230112   6.376   0.416   2.882 -2.6452  0.4878 -0.0986
 7595SOL    HW330113   6.435   0.294   2.950  0.8798  1.1046 -1.8206
 7595SOL    MW430114   6.367   0.347   2.934  0.3438  0.1853 -0.0491
 7596SOL     OW30115   5.325   1.275   3.868 -0.1771  0.1390 -0.3557
 7596SOL    HW230116   5.406   1.313   3.904 -0.1903 -2.1506  2.5469
 7596SOL    HW330117   5.331   1.290   3.774  4.5116 -1.3214 -0.5603
 7596SOL    MW430118   5.337   1.282   3.861 -0.4693  0.1547  0.1916
 7597SOL     OW30119   0.074   6.287   4.312  0.5725  0.3695  0.2120
 7597SOL    HW230120   0.112   6.278   4.225 -2.1897  0.6328 -1.1337
 7597SOL    HW330121   0.051   6.379   4.320  0.7665  0.3465  1.2206
 7597SOL    MW430122   0.076   6.298   4.302 -0.2535  0.2717 -0.6771
 7598SOL     OW30123   6.366   5.482   4.031 -0.0333  0.2586 -0.3023
 7598SOL    HW230124   6.272   5.490   4.046  0.1907 -1.6977  2.9104
 7598SOL    HW330125   6.404   5.556   4.079  0.1852 -0.3175  0.4177
 7598SOL    MW430126   6.359   5.493   4.039 -0.3665 -0.1170 -0.2778
 7599SOL     OW30127   0.063   2.731   4.227 -0.0092  0.7859  0.0769
 7599SOL    HW230128   0.017   2.792   4.169 -0.7492 -1.1407 -1.4539
 7599SOL    HW330129   0.114   2.676   4.168 -0.4810 -0.9966  1.2686
 7599SOL    MW430130   0.064   2.732   4.212  0.2325 -0.2346  0.3275
 7600SOL     OW30131   4.667   6.399   3.870 -0.7179 -0.0688 -0.6242
 7600SOL    HW230132   4.625   6.314   3.885  2.2405 -1.7474 -1.0070
 7600SOL    HW330133   4.624   6.433   3.791 -3.0411 -0.3861  0.4154
 7600SOL    MW430134   4.655   6.392   3.862 -0.3539 -0.0756 -0.0424
 7601SOL     OW30135   4.592   4.563   3.025 -0.8794  0.0030  0.6420
 7601SOL    HW230136   4.592   4.627   3.096 -0.8353  1.1124 -0.3307
 7601SOL    HW330137   4.630   4.484   3.064  1.5024  1.3272  1.1964
 7601SOL    MW430138   4.597   4.561   3.039  0.0408 -0.4732 -0.2858
 7602SOL     OW30139   1.335   2.919   6.037  0.6714 -0.5002 -0.3335
 7602SOL    HW230140   1.269   2.935   5.970  1.3909  1.0211 -0.7220
 7602SOL    HW330141   1.417   2.952   6.000  1.0952  0.3347  1.2538
 7602SOL    MW430142   1.337   2.925   6.023 -0.0215 -0.6372  0.1466
 7603SOL     OW30143   6.385   0.924   3.741 -0.1565  0.1278  0.1120
 7603SOL    HW230144   6.464   0.878   3.771  0.4915 -0.6984 -2.6209
 7603SOL    HW330145   6.370   0.991   3.809  2.2141 -0.4152  1.3006
 7603SOL    MW430146   6.393   0.927   3.754 -0.2633 -0.1552  0.1426
 7604SOL     OW30147   5.824   1.091   0.661 -0.0238  0.5300  0.0541
 7604SOL    HW230148   5.803   1.009   0.704 -0.5747  1.2615  1.2286
 7604SOL    HW330149   5.745   1.145   0.670  0.0993  0.9744 -1.2574
 7604SOL    MW430150   5.811   1.087   0.668 -0.5352 -0.2218 -0.4703
 7605SOL     OW30151   0.991   3.442   3.786 -0.0645 -0.2610  0.3977
 7605SOL    HW230152   0.930   3.391   3.839  0.5801 -1.6804 -0.1738
 7605SOL    HW330153   0.947   3.452   3.701  0.9581 -2.3872 -0.4416
 7605SOL    MW430154   0.977   3.437   3.782 -0.6276  0.2974 -0.2172
 7606SOL     OW30155   0.956   5.066   0.385  0.0490 -0.4912 -0.1177
 7606SOL    HW230156   0.906   5.145   0.404 -0.2811 -0.9162  0.8862
 7606SOL    HW330157   0.994   5.041   0.470  0.1295 -1.4063 -0.4082
 7606SOL    MW430158   0.954   5.073   0.399 -0.0615  0.0600  0.0428
 7607SOL     OW30159   0.861   4.324   1.103  0.0021 -0.0895 -0.4991
 7607SOL    HW230160   0.772   4.354   1.120  0.3616  0.8449 -0.1966
 7607SOL    HW330161   0.882   4.267   1.177 -0.1507  0.1175 -0.2967
 7607SOL    MW430162   0.852   4.320   1.115  0.3906 -0.1231 -0.2474
 7608SOL     OW30163   2.888   1.550   3.775  0.0460 -0.6464 -0.2004
 7608SOL    HW230164   2.821   1.489   3.743  0.6430 -1.1201 -0.5724
 7608SOL    HW330165   2.970   1.501   3.768  0.3136 -0.4370  1.2134
 7608SOL    MW430166   2.890   1.535   3.770 -0.1395  0.0475  0.1289
 7609SOL     OW30167   3.704   5.655   5.223 -0.3794  0.1410 -0.1735
 7609SOL    HW230168   3.799   5.645   5.230 -0.4716 -1.0725 -0.4186
 7609SOL    HW330169   3.669   5.597   5.291 -0.9445  0.4321 -0.2120
 7609SOL    MW430170   3.712   5.646   5.233 -0.1068 -0.3382  0.2834
 7610SOL     OW30171   2.571   1.161   2.457  0.3767  0.5477 -0.1323
 7610SOL    HW230172   2.632   1.089   2.440  1.4530  0.9884  1.6226
 7610SOL    HW330173   2.490   1.135   2.414 -0.0692 -2.8729  2.4053
 7610SOL    MW430174   2.569   1.148   2.449  0.3391  0.4481  0.7083
 7611SOL     OW30175   0.274   4.529   0.275  0.7063  0.0213  0.0910
 7611SOL    HW230176   0.304   4.438   0.274  0.8431  0.0701 -0.4621
 7611SOL    HW330177   0.186   4.526   0.237  0.7248  0.1216  0.0392
 7611SOL    MW430178   0.266   4.516   0.270 -0.0367 -0.3562  0.1298
 7612SOL     OW30179   5.627   2.773   5.284  0.2421 -0.5122 -0.7868
 7612SOL    HW230180   5.579   2.782   5.201 -1.2140 -3.4444 -0.3785
 7612SOL    HW330181   5.708   2.729   5.260  0.0229 -0.9575 -0.7099
 7612SOL    MW430182   5.631   2.769   5.270 -0.9701 -0.3960 -0.5851
 7613SOL     OW30183   1.148   4.740   5.680 -0.1863 -0.4066  0.1025
 7613SOL    HW230184   1.203   4.766   5.753  0.5953  0.0406 -0.6263
 7613SOL    HW330185   1.189   4.660   5.646 -0.1498 -0.2413 -0.2522
 7613SOL    MW430186   1.161   4.733   5.685  0.2997 -0.7967  0.6521
 7614SOL     OW30187   0.467   2.945   4.273 -0.1966 -0.4445 -0.0965
 7614SOL    HW230188   0.421   3.001   4.210 -1.7158 -0.4008  0.9847
 7614SOL    HW330189   0.472   2.860   4.230 -0.2048 -0.1403 -0.7194
 7614SOL    MW430190   0.462   2.941   4.259 -0.1499 -0.1509 -0.1258
 7615SOL     OW30191   3.088   5.526   1.876 -0.7024  0.0114  0.0883
 7615SOL    HW230192   3.096   5.599   1.937 -1.3791 -0.7597  1.1365
 7615SOL    HW330193   3.165   5.534   1.819 -1.1289  1.9295 -0.2914
 7615SOL    MW430194   3.099   5.537   1.876 -0.2800 -0.6319 -0.1271
 7616SOL     OW30195   6.089   5.667   6.101 -0.2456 -0.1873  0.1775
 7616SOL    HW230196   6.057   5.602   6.163 -0.0344 -0.1262  0.3485
 7616SOL    HW330197   6.095   5.620   6.018  1.5368 -0.8583  0.6433
 7616SOL    MW430198   6.085   5.652   6.098  0.3322 -0.2142  0.0709
 7617SOL     OW30199   1.415   5.807   3.987 -0.4832  0.0429  0.6437
 7617SOL    HW230200   1.493   5.752   3.993 -0.0282  0.4497 -0.9773
 7617SOL    HW330201   1.438   5.886   4.037 -0.6690 -0.6761  1.9148
 7617SOL    MW430202   1.428   5.810   3.994 -0.0615 -0.0494 -0.1371
 7618SOL     OW30203   1.251   0.271   5.375  0.0071  0.3438 -0.4098
 7618SOL    HW230204   1.239   0.220   5.455 -0.0170  0.9180 -0.0417
 7618SOL    HW330205   1.324   0.228   5.330 -1.0089 -0.9458 -0.8672
 7618SOL    MW430206   1.259   0.259   5.379 -0.0669  0.8019  0.3411
 7619SOL     OW30207   2.747   6.059   2.064  0.2050  0.3320 -0.3713
 7619SOL    HW230208   2.772   6.141   2.023  1.3649  0.3938  0.3812
 7619SOL    HW330209   2.784   5.991   2.007 -0.9153  0.3044 -1.0940
 7619SOL    MW430210   2.756   6.061   2.051 -0.3023  0.3184  0.2385
 7620SOL     OW30211   3.204   1.235   4.616 -0.3321  0.0885 -0.3356
 7620SOL    HW230212   3.219   1.163   4.555 -1.3136  0.0578 -0.5420
 7620SOL    HW330213   3.179   1.309   4.561  2.2930  1.1178 -0.3033
 7620SOL    MW430214   3.203   1.235   4.601 -0.2290  0.3125  0.3493
 7621SOL     OW30215   0.137   1.648   2.764 -0.0418  0.4407  0.1760
 7621SOL    HW230216   0.165   1.597   2.839 -0.1407 -0.0235 -0.1000
 7621SOL    HW330217   0.209   1.640   2.701 -0.1532  0.4590  0.0445
 7621SOL    MW430218   0.150   1.640   2.765 -0.0443  0.0133 -0.2902
 7622SOL     OW30219   3.574   2.143   2.758 -0.0829 -0.5816  0.4826
 7622SOL    HW230220   3.527   2.087   2.696 -1.5200  0.1948  0.8232
 7622SOL    HW330221   3.664   2.144   2.726 -0.6803 -0.5873 -1.3339
 7622SOL    MW430222   3.579   2.136   2.745 -0.1847 -0.0129  0.1515
 7623SOL     OW30223   2.977   6.040   5.008  0.6455 -0.1200 -0.1701
 7623SOL    HW230224   2.939   5.958   4.975  1.2175 -0.2013 -0.6639
 7623SOL    HW330225   3.027   6.074   4.933 -2.1198  2.3395 -1.0728
 7623SOL    MW430226   2.978   6.034   4.994 -0.2542 -0.0195 -0.1976
 7624SOL     OW30227   1.952   1.790   1.415 -0.6048 -0.0140  0.0591
 7624SOL    HW230228   1.930   1.699   1.435  0.7668  0.0056  1.8925
 7624SOL    HW330229   1.987   1.787   1.326  1.9069 -1.7722  0.9956
 7624SOL    MW430230   1.954   1.778   1.406 -0.0625 -0.0472  0.5795
 7625SOL     OW30231   5.003   3.834   4.619  0.9460  0.9350 -0.7110
 7625SOL    HW230232   4.965   3.829   4.531  0.1274  0.4121 -0.3379
 7625SOL    HW330233   4.928   3.832   4.678  1.5336  0.1857  0.0367
 7625SOL    MW430234   4.988   3.833   4.615 -0.3712  0.1497  0.3812
 7626SOL     OW30235   0.150   4.087   1.882 -0.1637 -0.0602 -0.0403
 7626SOL    HW230236   0.226   4.129   1.921  0.1687  1.1417 -1.8760
 7626SOL    HW330237   0.145   4.002   1.925 -0.2645  1.3978  3.0956
 7626SOL    MW430238   0.159   4.082   1.893 -0.3472  0.6477  0.0646
 7627SOL     OW30239   3.910   1.308   5.562 -0.1329  0.0941  0.2102
 7627SOL    HW230240   3.871   1.394   5.546 -1.3259 -0.6697 -1.2458
 7627SOL    HW330241   3.835   1.251   5.578  0.5656 -0.9127 -0.0344
 7627SOL    MW430242   3.895   1.312   5.562 -0.4423 -0.3771  0.0512
 7628SOL     OW30243   3.363   6.110   3.032 -0.5781  0.9176 -0.0248
 7628SOL    HW230244   3.321   6.118   2.946 -0.6164 -1.3318 -0.2700
 7628SOL    HW330245   3.426   6.183   3.035 -0.7678  1.1938 -1.8433
 7628SOL    MW430246   3.366   6.121   3.021 -0.0063 -0.7699  0.1773
 7629SOL     OW30247   1.446   1.211   3.474  0.6926 -0.3037 -0.3966
 7629SOL    HW230248   1.421   1.289   3.524 -0.3541 -0.2146 -1.0331
 7629SOL    HW330249   1.541   1.220   3.463  0.6604  0.6335 -0.0438
 7629SOL    MW430250   1.455   1.223   3.479 -0.2110 -0.5296  0.6967
 7630SOL     OW30251   5.289   4.068   2.479  0.0842  0.0671 -0.6057
 7630SOL    HW230252   5.364   4.095   2.532  1.3239 -0.6138 -1.9696
 7630SOL    HW330253   5.217   4.061   2.543  0.9187  1.6213  0.5781
 7630SOL    MW430254   5.289   4.071   2.495 -0.0602  0.1997  0.4235
 7631SOL     OW30255   1.423   0.330   3.048  0.1393 -0.6862  0.2614
 7631SOL    HW230256   1.367   0.373   2.983 -1.0486 -0.2941  1.4889
 7631SOL    HW330257   1.438   0.242   3.012 -0.1804 -0.3529 -0.7147
 7631SOL    MW430258   1.418   0.324   3.034 -0.4334 -0.2725 -0.1541
 7632SOL     OW30259   2.653   4.049   3.860  0.0779  0.1907  0.4244
 7632SOL    HW230260   2.669   3.956   3.845 -0.2622  0.3283 -0.9099
 7632SOL    HW330261   2.558   4.057   3.871  0.1971  0.2645  1.5711
 7632SOL    MW430262   2.643   4.038   3.860  0.5092  0.2987  0.1492
 7633SOL     OW30263   0.660   4.914   4.423  0.3495  0.1617  0.0653
 7633SOL    HW230264   0.592   4.897   4.488  1.1055 -1.6923  0.4402
 7633SOL    HW330265   0.694   4.827   4.400  1.6608  0.9365 -1.1133
 7633SOL    MW430266   0.656   4.900   4.429  0.1530 -0.2197 -0.0409
 7634SOL     OW30267   6.274   2.487   5.600  0.0433 -0.3671 -0.5284
 7634SOL    HW230268   6.271   2.577   5.567  1.4907 -0.7893 -1.9663
 7634SOL    HW330269   6.294   2.496   5.693  1.6921  0.7920 -0.9525
 7634SOL    MW430270   6.276   2.500   5.608 -0.3420  1.0571 -0.0509
 7635SOL     OW30271   2.407   4.231   5.801  0.3939  0.4144  0.1910
 7635SOL    HW230272   2.386   4.324   5.814 -0.2337  0.1808  0.9585
 7635SOL    HW330273   2.450   4.206   5.883  0.6283  0.0452 -0.0461
 7635SOL    MW430274   2.410   4.240   5.814  0.2446 -0.2766 -0.2004
 7636SOL     OW30275   2.093   3.569   2.581 -0.1479 -0.7333 -0.7511
 7636SOL    HW230276   2.126   3.593   2.668 -0.4539 -0.9882 -0.5610
 7636SOL    HW330277   2.114   3.476   2.572  1.0114 -0.4200 -1.4747
 7636SOL    MW430278   2.100   3.560   2.592 -0.2979  0.2894 -0.4045
 7637SOL     OW30279   1.525   4.439   4.382  0.6587 -0.5564 -0.1077
 7637SOL    HW230280   1.546   4.369   4.320 -0.4755 -0.5725 -0.4800
 7637SOL    HW330281   1.609   4.484   4.396  1.1585 -1.2518 -0.7703
 7637SOL    MW430282   1.539   4.436   4.376 -0.8078 -0.0423  0.2350
 7638SOL     OW30283   5.743   4.563   5.678  0.0611  0.1515 -0.0079
 7638SOL    HW230284   5.821   4.551   5.624 -0.0922  0.3416 -0.2695
 7638SOL    HW330285   5.698   4.639   5.641 -0.8169 -0.5984 -0.5298
 7638SOL    MW430286   5.747   4.572   5.666  0.8331  0.1754 -0.1680
 7639SOL     OW30287   3.161   1.686   5.580  0.4431  0.9529  0.1094
 7639SOL    HW230288   3.080   1.735   5.565  0.1732  0.7213  0.7965
 7639SOL    HW330289   3.231   1.751   5.569  0.1059  1.3990  0.5687
 7639SOL    MW430290   3.160   1.701   5.577 -0.0288 -0.4091 -0.8620
 7640SOL     OW30291   6.036   0.195   3.027 -0.2440 -0.0974  0.2123
 7640SOL    HW230292   6.108   0.132   3.022 -0.8271 -0.9637  1.9937
 7640SOL    HW330293   6.026   0.212   3.120  0.7029  3.6574 -0.2281
 7640SOL    MW430294   6.045   0.189   3.038 -0.0848 -0.5592 -0.3553
 7641SOL     OW30295   4.773   6.211   0.462 -0.0399  0.5213  0.8429
 7641SOL    HW230296   4.793   6.162   0.542  0.3476  1.0367  1.0654
 7641SOL    HW330297   4.728   6.148   0.406  0.4907 -0.1035  1.1086
 7641SOL    MW430298   4.770   6.196   0.465 -0.3612  0.1433  0.2423
 7642SOL     OW30299   4.059   5.315   5.925  0.0188 -0.2671  0.0928
 7642SOL    HW230300   4.068   5.230   5.880 -1.0778 -0.1137 -0.4605
 7642SOL    HW330301   4.064   5.380   5.855 -0.2358  0.0626  0.3759
 7642SOL    MW430302   4.060   5.312   5.910 -0.1369 -0.5346  0.3430
 7643SOL     OW30303   0.845   0.094   4.769  0.3458 -0.3534  0.2939
 7643SOL    HW230304   0.865   0.040   4.845  0.9592 -1.0155 -0.3317
 7643SOL    HW330305   0.859   0.184   4.800 -0.1337 -0.5659  1.1690
 7643SOL    MW430306   0.850   0.099   4.783  0.1350 -0.3595 -0.1592
 7644SOL     OW30307   0.464   6.279   4.818 -0.0301  0.4571  0.0621
 7644SOL    HW230308   0.462   6.192   4.857 -2.7000 -0.3208 -1.5713
 7644SOL    HW330309   0.540   6.277   4.759  0.0520 -0.7038  0.1839
 7644SOL    MW430310   0.474   6.268   4.815 -0.2083  0.1699  0.0432
 7645SOL     OW30311   5.690   0.479   4.624  0.5509 -0.0536 -0.1049
 7645SOL    HW230312   5.615   0.423   4.607  1.5870 -1.1429 -1.2470
 7645SOL    HW330313   5.692   0.489   4.719 -1.3733  0.5182 -0.0809
 7645SOL    MW430314   5.681   0.473   4.634 -0.3417 -0.6405 -0.1058
 7646SOL     OW30315   3.567   3.772   2.752  0.2205  0.4911 -0.1030
 7646SOL    HW230316   3.490   3.718   2.768  0.7561  0.1676  1.5799
 7646SOL    HW330317   3.634   3.735   2.809  1.8687  0.3104 -2.0447
 7646SOL    MW430318   3.566   3.760   2.761 -0.3148 -0.2827 -0.4385
 7647SOL     OW30319   4.568   3.567   2.197  0.9440  0.1402 -0.6047
 7647SOL    HW230320   4.642   3.513   2.173  1.6014  1.6222 -2.1016
 7647SOL    HW330321   4.554   3.625   2.122 -2.2710 -0.6176 -0.7590
 7647SOL    MW430322   4.576   3.567   2.184 -0.1059  0.2382 -0.4983
 7648SOL     OW30323   4.943   1.145   4.804  0.1180 -0.1330 -0.1931
 7648SOL    HW230324   4.897   1.223   4.772 -1.4864 -1.2108 -0.6337
 7648SOL    HW330325   4.878   1.099   4.857  1.7129 -0.0896  1.9323
 7648SOL    MW430326   4.928   1.149   4.807 -0.2079 -0.1236 -0.2165
 7649SOL     OW30327   5.699   2.032   0.546  0.1171 -0.2981 -0.1500
 7649SOL    HW230328   5.720   2.024   0.453  1.0287  0.5004 -0.0350
 7649SOL    HW330329   5.723   2.122   0.568  2.0788 -1.0892  1.3418
 7649SOL    MW430330   5.705   2.043   0.537 -0.3020 -0.4217  0.1532
 7650SOL     OW30331   0.597   2.231   5.553  0.6206  0.1674 -0.1095
 7650SOL    HW230332   0.614   2.153   5.499 -0.5902 -0.5979  0.5750
 7650SOL    HW330333   0.637   2.210   5.638  0.3925  0.3431  0.0389
 7650SOL    MW430334   0.605   2.218   5.557  0.5797  0.1859 -0.4508
 7651SOL     OW30335   3.763   1.697   5.841  0.6165  0.2942  0.9318
 7651SOL    HW230336   3.743   1.731   5.928  2.9343 -2.0906  2.5871
 7651SOL    HW330337   3.754   1.602   5.850  0.0071  0.0131 -1.7591
 7651SOL    MW430338   3.759   1.689   5.853 -0.3910  0.7458 -0.4610
 7652SOL     OW30339   5.366   5.791   5.874  0.2186 -0.2636  0.0941
 7652SOL    HW230340   5.300   5.727   5.847 -1.2924  0.6692  1.3879
 7652SOL    HW330341   5.340   5.816   5.963  0.6718  2.2316 -0.4094
 7652SOL    MW430342   5.354   5.786   5.882 -0.9037  0.7115 -0.4187
 7653SOL     OW30343   1.722   0.725   1.598  0.3947 -0.2075 -0.1137
 7653SOL    HW230344   1.638   0.706   1.556  0.5074 -1.7670  0.3022
 7653SOL    HW330345   1.779   0.754   1.526  0.2520 -1.7349 -0.8833
 7653SOL    MW430346   1.719   0.727   1.583  0.3917 -0.4929  0.0866
 7654SOL     OW30347   5.412   4.460   2.461  0.2723  0.1453  0.0937
 7654SOL    HW230348   5.331   4.439   2.507 -0.1145 -1.8255 -1.3515
 7654SOL    HW330349   5.480   4.450   2.528 -0.5322  0.4609  0.9845
 7654SOL    MW430350   5.410   4.456   2.476  0.0909  0.1924 -0.3208
 7655SOL     OW30351   1.820   5.100   4.888  0.0638  0.2171 -0.5234
 7655SOL    HW230352   1.905   5.071   4.855  0.5524 -0.3723  1.1389
 7655SOL    HW330353   1.766   5.020   4.891 -0.1348  0.3542 -0.3966
 7655SOL    MW430354   1.824   5.085   4.884  0.0966  0.4646 -0.2495
 7656SOL     OW30355   4.547   4.277   0.842 -0.0758 -0.0923 -0.5069
 7656SOL    HW230356   4.557   4.307   0.752 -0.6410 -0.1971 -0.6080
 7656SOL    HW330357   4.516   4.186   0.834  0.6054 -0.3596 -0.2072
 7656SOL    MW430358   4.544   4.269   0.829 -0.2139  0.1147  0.1369
 7657SOL     OW30359   5.601   3.343   0.662  0.1141 -0.3484  0.4470
 7657SOL    HW230360   5.634   3.398   0.733 -0.5415 -0.8449  1.1433
 7657SOL    HW330361   5.542   3.401   0.613  2.6762  0.8796 -1.4298
 7657SOL    MW430362   5.598   3.358   0.665  0.5452 -0.0617 -0.0697
 7658SOL     OW30363   3.574   1.320   2.821  0.5682  0.5669  0.1558
 7658SOL    HW230364   3.655   1.283   2.787  0.0063 -0.5383 -0.0390
 7658SOL    HW330365   3.589   1.414   2.822  2.0648  0.3445  0.7193
 7658SOL    MW430366   3.586   1.327   2.816  0.1899  0.2220  0.0682
 7659SOL     OW30367   4.665   1.939   6.109 -0.7232 -0.3610 -0.0292
 7659SOL    HW230368   4.739   1.992   6.079  0.0838 -1.1955  0.4013
 7659SOL    HW330369   4.651   1.966   6.200 -0.8694 -0.2765 -0.0781
 7659SOL    MW430370   4.673   1.949   6.117 -0.2746  0.3130  0.3215
 7660SOL     OW30371   4.760   4.054   4.916 -0.0695 -0.1030  0.0890
 7660SOL    HW230372   4.851   4.074   4.939  0.5800 -0.7606 -1.7302
 7660SOL    HW330373   4.762   3.963   4.887 -1.0826  0.2142 -1.0607
 7660SOL    MW430374   4.772   4.044   4.915 -0.6014  0.2033 -0.0699
 7661SOL     OW30375   1.025   1.543   3.387  0.0513 -0.4193 -0.0912
 7661SOL    HW230376   1.106   1.583   3.419  0.1226 -0.5701 -0.0766
 7661SOL    HW330377   1.044   1.523   3.295  0.8943 -2.5802  0.4768
 7661SOL    MW430378   1.039   1.545   3.379  0.3519 -0.2874 -0.1736
 7662SOL     OW30379   5.678   4.448   1.230 -0.6013  0.1362 -0.0299
 7662SOL    HW230380   5.623   4.379   1.266  0.0823 -0.7451 -0.6536
 7662SOL    HW330381   5.638   4.470   1.146 -2.3761  2.4093  1.2751
 7662SOL    MW430382   5.665   4.442   1.224  0.2955  0.5744 -0.0877
 7663SOL     OW30383   4.628   1.954   4.044  0.3201 -0.0336  0.3546
 7663SOL    HW230384   4.630   2.043   4.009 -1.2494 -0.5493 -1.1535
 7663SOL    HW330385   4.702   1.951   4.105 -0.2042  2.6060  1.2545
 7663SOL    MW430386   4.638   1.965   4.048  0.5621  0.1110  0.2137
 7664SOL     OW30387   4.105   2.297   5.605  0.0471 -0.0492  0.5747
 7664SOL    HW230388   4.080   2.388   5.589  1.2620  0.2435  0.2760
 7664SOL    HW330389   4.153   2.271   5.527  0.1366 -0.7954  0.8688
 7664SOL    MW430390   4.108   2.306   5.593 -0.2580 -0.0267 -0.2736
 7665SOL     OW30391   2.889   0.201   2.955  0.4365 -0.0104  0.1101
 7665SOL    HW230392   2.952   0.254   3.004  1.4647 -0.6699 -0.4587
 7665SOL    HW330393   2.854   0.140   3.019  0.8648 -0.0666  0.2945
 7665SOL    MW430394   2.892   0.200   2.970 -0.3075  0.4513  0.0138
 7666SOL     OW30395   0.990   4.893   3.544 -0.3361  0.6434  0.3513
 7666SOL    HW230396   1.054   4.851   3.486 -0.6568  0.4434  0.1355
 7666SOL    HW330397   1.021   4.873   3.632 -0.5664 -0.1974  0.2544
 7666SOL    MW430398   1.003   4.885   3.548  1.3572 -0.0767  0.2770
 7667SOL     OW30399   3.809   1.400   3.177  0.0283  1.3021  0.0720
 7667SOL    HW230400   3.717   1.417   3.156 -0.7687 -1.4770  0.8088
 7667SOL    HW330401   3.814   1.408   3.272  0.4339  0.9705  0.0820
 7667SOL    MW430402   3.798   1.403   3.186  0.6636 -0.0907  0.2319
 7668SOL     OW30403   1.193   2.542   4.923 -0.0533  0.3357  0.1244
 7668SOL    HW230404   1.215   2.610   4.859  0.0428 -1.3159 -1.6760
 7668SOL    HW330405   1.274   2.492   4.934 -0.8467 -1.2116 -0.7873
 7668SOL    MW430406   1.207   2.545   4.916 -0.0578 -0.3244 -0.2420
 7669SOL     OW30407   2.965   4.716   3.426  0.6340  0.1085 -0.1999
 7669SOL    HW230408   3.013   4.648   3.378  0.0552 -0.2382 -0.2972
 7669SOL    HW330409   2.877   4.680   3.437  0.3924  0.7381 -0.0280
 7669SOL    MW430410   2.960   4.702   3.421 -0.1371 -0.5172  0.1697
 7670SOL     OW30411   5.537   0.444   3.898 -0.4552  0.5093  0.2203
 7670SOL    HW230412   5.585   0.387   3.838 -0.1375  0.7802  0.2157
 7670SOL    HW330413   5.449   0.450   3.861 -0.4639  0.1012  0.1680
 7670SOL    MW430414   5.532   0.437   3.885 -0.5336  0.6107 -0.2948
 7671SOL     OW30415   2.083   4.007   6.101 -0.2225  0.4709 -0.1712
 7671SOL    HW230416   2.013   3.945   6.079 -0.1198  0.0604  0.6130
 7671SOL    HW330417   2.151   3.990   6.037  0.6164 -1.6081  1.1832
 7671SOL    MW430418   2.082   3.997   6.090  0.8933  0.0229 -0.0846
 7672SOL     OW30419   3.269   5.244   1.992 -0.0949 -0.5310  0.1963
 7672SOL    HW230420   3.358   5.277   1.981 -0.2321 -0.0217  0.5970
 7672SOL    HW330421   3.224   5.312   2.041 -1.1012 -0.1459 -1.1917
 7672SOL    MW430422   3.275   5.257   1.997 -0.1216  0.0158 -0.4651
 7673SOL     OW30423   0.981   5.716   0.175 -0.2136 -0.0580  0.3961
 7673SOL    HW230424   1.067   5.721   0.216  0.1229 -1.0744 -0.1533
 7673SOL    HW330425   0.969   5.802   0.134 -0.5344  0.9678  2.5157
 7673SOL    MW430426   0.991   5.728   0.175  0.1666 -0.0667  0.0196
 7674SOL     OW30427   4.669   4.072   0.438 -0.3969 -0.4065  0.0273
 7674SOL    HW230428   4.575   4.056   0.432 -0.0720 -2.0467 -3.7962
 7674SOL    HW330429   4.709   3.994   0.400  2.4008  1.1872 -0.5754
 7674SOL    MW430430   4.662   4.059   0.432  0.2502  0.1143 -0.4430
 7675SOL     OW30431   3.877   2.157   5.652  0.2356 -0.2688  0.1669
 7675SOL    HW230432   3.944   2.224   5.639 -0.5336  1.2390  3.2057
 7675SOL    HW330433   3.926   2.075   5.656  1.6430  0.5313  0.1471
 7675SOL    MW430434   3.892   2.155   5.651 -0.2107 -0.0295 -0.3199
 7676SOL     OW30435   5.825   1.779   2.619 -0.4704 -0.0050 -0.4809
 7676SOL    HW230436   5.899   1.819   2.664  0.3364 -0.8893 -0.9943
 7676SOL    HW330437   5.772   1.740   2.689  0.6833 -1.2236 -0.2525
 7676SOL    MW430438   5.828   1.779   2.634  0.6655  0.2227  0.5230
 7677SOL     OW30439   5.714   5.437   6.148 -0.2319 -0.3709  0.6329
 7677SOL    HW230440   5.667   5.440   6.232  0.8209  1.5002  1.2082
 7677SOL    HW330441   5.723   5.529   6.123  0.2300 -0.8668 -1.1284
 7677SOL    MW430442   5.709   5.449   6.156 -0.5010  0.3748 -0.4032
 7678SOL     OW30443   6.116   5.083   3.957  0.4200 -0.7059  0.7035
 7678SOL    HW230444   6.123   4.992   3.984 -0.0286 -1.0017 -0.1543
 7678SOL    HW330445   6.139   5.083   3.865 -0.3207 -0.0694  0.5025
 7678SOL    MW430446   6.120   5.071   3.949  0.4671 -0.3494 -0.1458
 7679SOL     OW30447   4.380   4.054   3.706 -0.6501  0.0956 -0.1217
 7679SOL    HW230448   4.450   3.993   3.683  0.2586  1.0205  0.1357
 7679SOL    HW330449   4.386   4.063   3.801  3.4173  5.2701 -0.4123
 7679SOL    MW430450   4.390   4.047   3.716 -0.4409  0.6603  0.5709
 7680SOL     OW30451   6.342   4.884   2.478  0.6202 -0.3674 -0.4938
 7680SOL    HW230452   6.358   4.969   2.518  0.8420 -1.0284  0.8859
 7680SOL    HW330453   6.248   4.885   2.457  0.7283  0.4006 -0.9767
 7680SOL    MW430454   6.332   4.895   2.480 -0.1973 -0.6768  0.1631
 7681SOL     OW30455   5.669   2.891   3.093 -0.2057 -0.4789  0.1747
 7681SOL    HW230456   5.753   2.906   3.050  0.4260 -0.9314  1.2190
 7681SOL    HW330457   5.611   2.862   3.023  1.2066 -2.7060 -0.1616
 7681SOL    MW430458   5.672   2.889   3.078  0.1860  0.9657  0.5235
 7682SOL     OW30459   2.637   4.728   1.763  0.3563 -0.4511 -0.5495
 7682SOL    HW230460   2.650   4.813   1.719 -1.5152 -0.4443 -1.1523
 7682SOL    HW330461   2.552   4.736   1.805  1.5010 -0.9718  2.0063
 7682SOL    MW430462   2.628   4.740   1.763  0.0996  0.0004  0.6990
 7683SOL     OW30463   3.657   0.405   3.398 -1.0181 -0.0971 -0.4942
 7683SOL    HW230464   3.698   0.452   3.326 -1.8973  0.9223 -0.3673
 7683SOL    HW330465   3.714   0.421   3.473 -0.2993 -0.8493 -0.8729
 7683SOL    MW430466   3.670   0.413   3.398  0.5366  0.4570 -0.5990
 7684SOL     OW30467   0.183   1.144   2.313  0.0554  0.4135 -0.5991
 7684SOL    HW230468   0.175   1.074   2.378 -0.9380  1.9237  1.0052
 7684SOL    HW330469   0.240   1.108   2.245 -0.2829 -1.8602  0.2452
 7684SOL    MW430470   0.190   1.130   2.313  0.3896 -0.4136 -0.5171
 7685SOL     OW30471   6.019   2.325   5.956 -0.5827 -0.2035  0.6355
 7685SOL    HW230472   5.997   2.308   5.865 -0.9578  1.1235  0.4583
 7685SOL    HW330473   6.074   2.251   5.982  2.2833  0.9599 -1.6267
 7685SOL    MW430474   6.023   2.313   5.948 -0.0595 -0.1448 -0.4155
 7686SOL     OW30475   5.237   3.754   5.563 -0.0450 -0.3905  0.1163
 7686SOL    HW230476   5.256   3.696   5.489 -1.3867  0.2102 -0.7477
 7686SOL    HW330477   5.236   3.696   5.639  0.6020 -1.1547 -0.4395
 7686SOL    MW430478   5.239   3.739   5.563  0.1791  0.0846  0.2688
 7687SOL     OW30479   0.743   3.395   2.077  0.4595  0.5798 -0.4020
 7687SOL    HW230480   0.696   3.315   2.101  0.8786 -0.0731 -1.6360
 7687SOL    HW330481   0.677   3.464   2.079 -0.0512  0.0878  0.0714
 7687SOL    MW430482   0.728   3.393   2.080 -0.3122  0.3021  0.2041
 7688SOL     OW30483   2.766   5.817   4.632 -0.4828 -0.3416  0.3930
 7688SOL    HW230484   2.708   5.744   4.610  1.1507 -1.8279  0.7796
 7688SOL    HW330485   2.803   5.845   4.548  1.3947 -2.2138  0.5255
 7688SOL    MW430486   2.763   5.811   4.618  0.4132  0.6798 -0.0971
 7689SOL     OW30487   0.598   0.788   4.495 -0.6784 -0.1289  0.0830
 7689SOL    HW230488   0.641   0.868   4.465 -0.1453 -0.5994 -0.4207
 7689SOL    HW330489   0.522   0.819   4.545 -1.9570  0.6642 -2.2460
 7689SOL    MW430490   0.594   0.802   4.498 -0.3831  0.2890  0.6757
 7690SOL     OW30491   2.171   1.960   3.180  0.1637  0.2313 -0.4720
 7690SOL    HW230492   2.202   2.038   3.228  0.9570 -0.1876 -0.2834
 7690SOL    HW330493   2.232   1.891   3.205  0.8243  0.0834 -2.3758
 7690SOL    MW430494   2.183   1.961   3.190  0.0372  0.3546  0.2594
 7691SOL     OW30495   1.328   5.985   3.295  1.1489  0.3623 -0.1000
 7691SOL    HW230496   1.331   5.998   3.201  0.2600 -1.8619 -0.4921
 7691SOL    HW330497   1.282   5.902   3.307  1.0421  0.6789  2.3080
 7691SOL    MW430498   1.322   5.976   3.284 -0.3148 -0.0767 -0.0817
 7692SOL     OW30499   3.201   4.802   5.684  0.0532  0.1529 -0.6865
 7692SOL    HW230500   3.194   4.722   5.737 -0.3237  0.2691 -0.5615
 7692SOL    HW330501   3.254   4.861   5.738  1.8270 -0.6135 -1.5034
 7692SOL    MW430502   3.207   4.799   5.698 -0.3452  0.1455  0.0733
 7693SOL     OW30503   3.817   1.101   3.254  0.7004  0.2007 -0.7258
 7693SOL    HW230504   3.870   1.051   3.192 -0.6416 -0.3974 -1.4280
 7693SOL    HW330505   3.759   1.153   3.199 -1.3133 -1.1943 -0.0315
 7693SOL    MW430506   3.817   1.101   3.239 -0.0454 -0.0366 -0.1053
 7694SOL     OW30507   5.795   3.049   6.128 -0.7468 -0.2207 -0.4969
 7694SOL    HW230508   5.852   3.123   6.148 -1.1083 -0.1822  0.4339
 7694SOL    HW330509   5.769   3.063   6.037 -3.1645  2.4425  0.4563
 7694SOL    MW430510   5.799   3.060   6.119  0.1874 -0.6565  0.0480
 7695SOL     OW30511   5.875   1.245   4.095 -0.3539  0.3004 -0.6216
 7695SOL    HW230512   5.854   1.267   4.004  3.1523 -0.5687 -1.8129
 7695SOL    HW330513   5.849   1.153   4.103 -1.4044  0.5980 -0.4360
 7695SOL    MW430514   5.869   1.236   4.084  0.2423 -0.3184  0.6940
 7696SOL     OW30515   5.513   0.859   2.816  0.1211  0.3198 -0.3061
 7696SOL    HW230516   5.432   0.869   2.765  0.7991  0.1549 -1.4615
 7696SOL    HW330517   5.576   0.824   2.753  1.3429  1.2929  0.3434
 7696SOL    MW430518   5.510   0.856   2.801  0.2477 -0.1895  0.3548
 7697SOL     OW30519   6.012   2.741   4.737  0.2687  0.7598  0.1903
 7697SOL    HW230520   6.000   2.750   4.831 -1.2553  0.8572  0.0094
 7697SOL    HW330521   6.088   2.794   4.717  2.3810 -1.4584  1.7553
 7697SOL    MW430522   6.020   2.749   4.746 -0.5356  0.1593 -0.1478
 7698SOL     OW30523   4.089   2.396   0.545 -0.1607 -0.5593 -0.4314
 7698SOL    HW230524   4.036   2.317   0.541 -0.4404 -0.6876  3.0160
 7698SOL    HW330525   4.170   2.369   0.588  0.0397  0.8587  0.1574
 7698SOL    MW430526   4.093   2.382   0.550  0.1689  0.5052  0.6016
 7699SOL     OW30527   2.641   5.011   6.384  0.1968 -0.1315 -0.1550
 7699SOL    HW230528   2.662   5.010   6.477 -0.4037  0.1248 -0.0086
 7699SOL    HW330529   2.726   5.014   6.340  0.4734  1.3140  0.4170
 7699SOL    MW430530   2.655   5.011   6.390 -0.2809  0.1991  0.3061
 7700SOL     OW30531   0.244   0.505   2.941 -0.1472  0.4020  0.5619
 7700SOL    HW230532   0.282   0.526   3.026  1.5443 -0.5697  0.0975
 7700SOL    HW330533   0.224   0.411   2.946 -1.6895  0.7007  0.4664
 7700SOL    MW430534   0.247   0.495   2.952 -0.1687  0.1659  0.5764
 7701SOL     OW30535   1.046   0.616   4.381  0.5253  0.4636 -0.0604
 7701SOL    HW230536   1.074   0.704   4.357  0.7391  0.5262  0.4147
 7701SOL    HW330537   0.952   0.616   4.367  0.2384  1.3151  1.5905
 7701SOL    MW430538   1.038   0.627   4.376  0.1202  0.1588  0.4501
 7702SOL     OW30539   1.843   3.700   2.630  0.7544  0.1031 -0.2422
 7702SOL    HW230540   1.904   3.649   2.577  0.0877  0.5535 -1.4655
 7702SOL    HW330541   1.792   3.750   2.567 -1.4361 -0.8275  0.7087
 7702SOL    MW430542   1.845   3.700   2.615  0.0727  0.3651 -0.1632
 7703SOL     OW30543   5.077   4.257   3.336  0.5511 -0.6478 -0.0404
 7703SOL    HW230544   5.038   4.187   3.389  0.2842 -0.3548  0.1505
 7703SOL    HW330545   5.060   4.230   3.246  1.1757 -1.2459  0.0120
 7703SOL    MW430546   5.070   4.244   3.331 -0.8408 -0.8558 -0.7388
 7704SOL     OW30547   2.350   2.260   4.749  0.2047 -0.2564  0.2000
 7704SOL    HW230548   2.312   2.245   4.663  1.4507  0.7024 -0.5520
 7704SOL    HW330549   2.289   2.320   4.792 -0.1597 -0.3283 -0.2108
 7704SOL    MW430550   2.337   2.266   4.743 -0.6640 -0.5628  0.1396
 7705SOL     OW30551   0.268   5.385   1.286 -0.3090 -0.5850  0.3605
 7705SOL    HW230552   0.256   5.384   1.191 -1.2855  1.2022  0.4251
 7705SOL    HW330553   0.339   5.446   1.301 -0.5451 -0.4156  0.8117
 7705SOL    MW430554   0.275   5.393   1.275 -0.3864  0.1318  0.4829
 7706SOL     OW30555   6.188   1.847   4.076 -0.3268 -0.2813 -0.2355
 7706SOL    HW230556   6.142   1.852   4.160  0.1413  1.5205 -0.0397
 7706SOL    HW330557   6.175   1.757   4.046 -2.9021 -0.1808  0.3946
 7706SOL    MW430558   6.180   1.836   4.083 -0.1818 -0.5866  1.2218
 7707SOL     OW30559   4.536   2.771   5.579 -0.3835 -0.1818 -0.1296
 7707SOL    HW230560   4.553   2.694   5.633  0.3861  0.9725  1.3261
 7707SOL    HW330561   4.512   2.840   5.641  1.3201  1.4185 -1.1296
 7707SOL    MW430562   4.535   2.770   5.594  0.3457  0.3411  0.4042
 7708SOL     OW30563   3.269   3.415   1.908 -0.0573 -0.1240 -0.3103
 7708SOL    HW230564   3.323   3.483   1.950  0.9937 -1.6390  0.8820
 7708SOL    HW330565   3.298   3.416   1.816 -0.6817  1.5942 -0.5385
 7708SOL    MW430566   3.280   3.424   1.901  0.2565  0.0596  0.1138
 7709SOL     OW30567   1.721   5.315   0.909  0.4071 -0.4161  0.0698
 7709SOL    HW230568   1.676   5.372   0.846  3.2368  1.3878 -0.4950
 7709SOL    HW330569   1.675   5.330   0.991  0.1804  1.7027 -0.3773
 7709SOL    MW430570   1.709   5.325   0.911 -0.0630 -0.3778 -0.2617
 7710SOL     OW30571   0.051   0.862   3.306 -0.3788  0.0296 -0.3819
 7710SOL    HW230572   0.068   0.873   3.212 -2.7498 -0.4676 -0.9354
 7710SOL    HW330573   0.102   0.785   3.330  0.7741  0.5337 -1.0699
 7710SOL    MW430574   0.060   0.853   3.297  0.4693 -0.3409 -0.2480
 7711SOL     OW30575   0.921   1.502   6.374  0.0259 -0.4568  1.0158
 7711SOL    HW230576   0.991   1.509   6.309  0.8724  1.2411  2.0297
 7711SOL    HW330577   0.959   1.539   6.453 -1.9095  0.1618  1.7000
 7711SOL    MW430578   0.935   1.508   6.376 -0.3297 -0.7385 -0.2774
 7712SOL     OW30579   0.778   4.658   2.883 -0.0246  0.0424 -0.1902
 7712SOL    HW230580   0.697   4.622   2.919 -0.6514  2.0088  0.5354
 7712SOL    HW330581   0.763   4.753   2.880  2.6527  0.6313  1.1193
 7712SOL    MW430582   0.766   4.666   2.887 -0.1776 -0.0319 -0.5871
 7713SOL     OW30583   0.092   0.903   1.579 -0.5085 -0.1626 -0.6669
 7713SOL    HW230584   0.042   0.984   1.578  0.0214  0.1776 -0.0409
 7713SOL    HW330585   0.026   0.834   1.572 -1.2735  0.1993  1.8014
 7713SOL    MW430586   0.077   0.905   1.578  0.4576 -0.2472 -0.2006
 7714SOL     OW30587   1.071   0.029   0.486 -0.5320 -0.2261 -0.4345
 7714SOL    HW230588   1.128   0.066   0.418  1.0085 -2.5543 -0.5242
 7714SOL    HW330589   1.073   0.095   0.556  0.1522  0.9402 -1.4947
 7714SOL    MW430590   1.079   0.043   0.487 -0.7092 -0.8009 -0.5036
 7715SOL     OW30591   4.626   3.493   5.635  0.1403 -0.2787  0.7460
 7715SOL    HW230592   4.577   3.448   5.566  1.3167 -0.3881 -0.0377
 7715SOL    HW330593   4.598   3.450   5.716  0.1260 -1.4079  0.1571
 7715SOL    MW430594   4.616   3.482   5.636  0.3373  0.0023 -0.1885
 7716SOL     OW30595   2.925   4.904   0.425  0.3064  0.0224 -0.1207
 7716SOL    HW230596   2.852   4.897   0.487 -0.3360  0.5340 -0.7929
 7716SOL    HW330597   2.980   4.974   0.460  0.8606 -0.8360  0.7600
 7716SOL    MW430598   2.923   4.912   0.438  0.7506 -0.1086 -0.0256
 7717SOL     OW30599   3.702   3.046   3.014  0.2053  0.1871  0.3264
 7717SOL    HW230600   3.735   3.081   2.931  1.6728  0.6910  1.0941
 7717SOL    HW330601   3.725   2.953   3.013  1.2403  0.4269  0.6318
 7717SOL    MW430602   3.709   3.039   3.003  0.6363 -0.5942 -0.8533
 7718SOL     OW30603   0.032   2.258   5.560 -0.2466  0.7191  0.3447
 7718SOL    HW230604   0.018   2.346   5.524 -0.9393 -0.4575 -2.5054
 7718SOL    HW330605  -0.055   2.219   5.564  0.2406 -0.4525 -0.1092
 7718SOL    MW430606   0.019   2.265   5.556 -0.1206  0.0835 -0.2347
 7719SOL     OW30607   1.827   1.652   4.915  0.0872 -0.3856  0.1833
 7719SOL    HW230608   1.922   1.658   4.910  0.0873 -0.6659 -0.2025
 7719SOL    HW330609   1.802   1.600   4.839 -0.4579  0.4387 -0.2120
 7719SOL    MW430610   1.836   1.646   4.905  0.1128 -0.0350  0.2783
 7720SOL     OW30611   4.952   0.229   2.559 -0.2781  0.4473  0.0231
 7720SOL    HW230612   4.905   0.311   2.576  0.3562  0.5801  1.2886
 7720SOL    HW330613   5.038   0.258   2.527  0.1347  0.3307  0.9601
 7720SOL    MW430614   4.957   0.244   2.557  0.2009  0.0618 -0.1803
 7721SOL     OW30615   3.899   5.908   2.691  0.1466  0.1220  0.0172
 7721SOL    HW230616   3.946   5.987   2.716  2.9756 -1.2474 -0.5434
 7721SOL    HW330617   3.926   5.842   2.756 -0.2263 -0.9967 -0.9234
 7721SOL    MW430618   3.909   5.910   2.703 -0.2679  0.2494  0.3758
 7722SOL     OW30619   3.380   6.288   1.226  0.0500 -0.5914  0.1952
 7722SOL    HW230620   3.453   6.327   1.275 -1.3432  0.7963  1.2495
 7722SOL    HW330621   3.422   6.247   1.150  2.1240 -1.5258  1.7426
 7722SOL    MW430622   3.395   6.288   1.222  0.4672 -0.5753  0.2526
 7723SOL     OW30623   1.978   0.754   2.720 -0.4446 -0.3875  0.0303
 7723SOL    HW230624   1.979   0.849   2.728 -2.7846 -0.1964 -0.9918
 7723SOL    HW330625   1.900   0.727   2.767 -0.5850 -1.6463 -0.8835
 7723SOL    MW430626   1.968   0.763   2.727  0.2196  1.0847 -0.0890
 7724SOL     OW30627   1.169   2.220   0.193  0.2122  0.3921  0.7154
 7724SOL    HW230628   1.205   2.273   0.265 -0.9573  2.2703 -0.0127
 7724SOL    HW330629   1.224   2.243   0.118  0.4714 -0.3993  0.6590
 7724SOL    MW430630   1.181   2.230   0.193 -0.2167 -0.1193  0.0245
 7725SOL     OW30631   6.322   1.288   5.285  0.4530 -0.0451 -0.4367
 7725SOL    HW230632   6.394   1.286   5.222  0.5165 -2.0457 -0.3604
 7725SOL    HW330633   6.243   1.279   5.231  0.3918  0.0068 -0.3567
 7725SOL    MW430634   6.321   1.286   5.270 -0.4852  0.4326 -0.1152
 7726SOL     OW30635   0.246   5.132   6.123  0.0366  0.3299  0.4163
 7726SOL    HW230636   0.183   5.196   6.089 -0.1894  0.7662  1.5985
 7726SOL    HW330637   0.198   5.049   6.122  0.3106  0.1726 -1.0727
 7726SOL    MW430638   0.231   5.129   6.118 -0.5287  0.1370 -0.0777
 7727SOL     OW30639   4.939   0.556   0.969  0.1571 -0.2037 -0.3172
 7727SOL    HW230640   5.019   0.507   0.950 -0.2924 -1.5320  1.0251
 7727SOL    HW330641   4.969   0.645   0.989  1.1556 -0.3351 -1.1680
 7727SOL    MW430642   4.953   0.561   0.969  0.1199 -0.3960  0.3531
 7728SOL     OW30643   1.393   5.975   1.227  0.1455 -0.1394  0.3475
 7728SOL    HW230644   1.341   5.978   1.146  2.9513  0.7550 -1.5595
 7728SOL    HW330645   1.397   5.882   1.249  0.0766 -0.5041 -1.0797
 7728SOL    MW430646   1.387   5.963   1.219  0.1310 -0.2319  0.0139
 7729SOL     OW30647   5.842   3.700   4.717  0.2133 -0.5637 -1.0306
 7729SOL    HW230648   5.910   3.764   4.696 -1.0390  0.8291 -0.9965
 7729SOL    HW330649   5.882   3.643   4.783  1.0647  0.7164 -0.4098
 7729SOL    MW430650   5.857   3.701   4.723 -0.0948 -0.1387  0.2810
 7730SOL     OW30651   4.530   0.384   1.655  0.0995  0.0838 -0.6420
 7730SOL    HW230652   4.566   0.445   1.590  0.6296  1.3984  0.8215
 7730SOL    HW330653   4.596   0.315   1.662 -0.0207 -0.1392 -1.5651
 7730SOL    MW430654   4.544   0.383   1.647  0.1701  0.2276  0.4027
 7731SOL     OW30655   4.816   0.823   6.326  0.7499 -0.2790 -0.0334
 7731SOL    HW230656   4.798   0.911   6.358  0.4851 -0.8624  1.5394
 7731SOL    HW330657   4.856   0.778   6.401  0.7644 -1.5277 -0.7533
 7731SOL    MW430658   4.819   0.828   6.340  0.3314  0.0127  0.3550
 7732SOL     OW30659   0.695   2.003   2.091  0.0115  0.1401  0.8754
 7732SOL    HW230660   0.632   1.941   2.128 -0.0597  0.1463  0.7655
 7732SOL    HW330661   0.674   2.087   2.131 -1.2557  0.5419 -0.5318
 7732SOL    MW430662   0.684   2.006   2.101  0.2802  0.1806  0.2529
 7733SOL     OW30663   1.502   4.412   2.867  0.6725 -0.6586  0.4082
 7733SOL    HW230664   1.513   4.343   2.933  0.3019 -1.8969 -0.7717
 7733SOL    HW330665   1.494   4.365   2.784  0.5319  0.8274 -0.4619
 7733SOL    MW430666   1.502   4.397   2.865 -0.2069 -0.5939 -0.1188
 7734SOL     OW30667   2.478   5.415   4.036  0.1278  1.0166 -0.2295
 7734SOL    HW230668   2.469   5.366   4.117 -0.2926 -0.5788 -1.2021
 7734SOL    HW330669   2.544   5.482   4.056  0.1490  0.5679  1.3613
 7734SOL    MW430670   2.485   5.418   4.049  0.6043  0.0476 -0.5480
 7735SOL     OW30671   0.276   4.882   5.094  0.3326  0.1152 -0.1307
 7735SOL    HW230672   0.223   4.894   5.015 -0.1269 -0.7678  0.0384
 7735SOL    HW330673   0.346   4.947   5.085 -1.8700  2.7795  0.6256
 7735SOL    MW430674   0.278   4.892   5.082 -0.0772 -0.1581  0.7292
 7736SOL     OW30675   3.574   0.154   6.152 -0.1491  0.1829 -0.2075
 7736SOL    HW230676   3.498   0.193   6.197  0.4122  1.3812 -0.2579
 7736SOL    HW330677   3.584   0.207   6.073  1.1149  0.4302  0.1074
 7736SOL    MW430678   3.565   0.166   6.147  0.0937  0.3427  0.2634
 7737SOL     OW30679   4.650   4.723   0.107 -0.6188 -0.4687 -0.0984
 7737SOL    HW230680   4.714   4.664   0.067  1.2449  0.5714  1.1830
 7737SOL    HW330681   4.619   4.777   0.035 -1.7250 -2.3808 -1.1318
 7737SOL    MW430682   4.655   4.722   0.092  0.9159  0.5165 -0.0829
 7738SOL     OW30683   4.422   1.061   3.972  0.0171 -0.9432  0.3126
 7738SOL    HW230684   4.482   0.995   3.939  1.0024 -0.0741  0.3339
 7738SOL    HW330685   4.467   1.144   3.959 -1.7646 -0.1164 -1.0480
 7738SOL    MW430686   4.436   1.064   3.966  0.0715 -0.5742 -0.1663
 7739SOL     OW30687   1.778   2.006   3.281  0.2871 -0.1462  0.3879
 7739SOL    HW230688   1.842   2.014   3.351 -0.8800  1.3809  1.3712
 7739SOL    HW330689   1.780   2.091   3.237 -0.5716 -0.3096  0.0045
 7739SOL    MW430690   1.786   2.018   3.284  0.7636  0.5781  0.2331
 7740SOL     OW30691   4.214   4.936   1.679 -0.4284  0.2300  0.3644
 7740SOL    HW230692   4.217   5.016   1.732  0.5659 -0.9925  2.2498
 7740SOL    HW330693   4.284   4.947   1.615 -1.4049  1.5563 -0.5581
 7740SOL    MW430694   4.223   4.948   1.677  0.1050  0.1155  0.2099
 7741SOL     OW30695   0.486   2.019   6.176 -0.1826  0.2834 -0.0896
 7741SOL    HW230696   0.494   1.960   6.101  0.4726  0.1536  0.0760
 7741SOL    HW330697   0.534   2.097   6.150 -0.2369  0.3699  0.0692
 7741SOL    MW430698   0.493   2.021   6.163  0.1341 -0.0706  0.0603
 7742SOL     OW30699   5.408   5.244   0.089  0.0923  0.2337  1.0741
 7742SOL    HW230700   5.398   5.279   0.178 -1.8482  0.2051  0.8978
 7742SOL    HW330701   5.320   5.221   0.061  0.3373  2.1571 -1.6681
 7742SOL    MW430702   5.395   5.245   0.097  0.6670 -0.4300  0.0548
 7743SOL     OW30703   1.022   4.622   1.961 -0.4084 -0.2741  0.3727
 7743SOL    HW230704   1.118   4.631   1.956 -0.5236  0.7543 -0.3095
 7743SOL    HW330705   0.993   4.636   1.871 -1.1721 -1.0883  0.4865
 7743SOL    MW430706   1.031   4.625   1.948  0.0125 -0.6743 -0.0406
 7744SOL     OW30707   2.064   3.756   0.476 -0.4358  0.0925  0.0295
 7744SOL    HW230708   1.984   3.712   0.446  0.0484 -1.2239  0.5891
 7744SOL    HW330709   2.135   3.701   0.443  0.1459 -1.2892  3.1613
 7744SOL    MW430710   2.063   3.743   0.468 -0.2667 -0.1922  0.2614
 7745SOL     OW30711   4.388   2.349   3.272  0.3124  0.6039 -0.8634
 7745SOL    HW230712   4.331   2.320   3.343  2.1183 -1.5514 -0.1782
 7745SOL    HW330713   4.394   2.444   3.282 -0.1495  0.4379  1.3554
 7745SOL    MW430714   4.381   2.357   3.283  0.2479 -0.5520  0.2609
 7746SOL     OW30715   1.847   5.683   5.096 -0.0262 -0.5749  0.2303
 7746SOL    HW230716   1.783   5.620   5.064  0.3118 -0.2597 -1.1344
 7746SOL    HW330717   1.930   5.635   5.096 -0.1824 -0.9008  1.7332
 7746SOL    MW430718   1.850   5.669   5.092  0.4562 -0.1344 -0.6482
 7747SOL     OW30719   5.157   2.791   6.395  0.2099  0.2924 -0.1124
 7747SOL    HW230720   5.071   2.779   6.436 -0.9864 -1.0393 -2.7494
 7747SOL    HW330721   5.155   2.880   6.359 -0.1931  0.1753 -0.3883
 7747SOL    MW430722   5.146   2.801   6.395 -0.5712 -0.2965  0.1343
 7748SOL     OW30723   2.512   2.040   0.277 -0.0334 -0.0151  0.0964
 7748SOL    HW230724   2.424   2.020   0.309 -0.2236  0.0751 -0.3489
 7748SOL    HW330725   2.554   1.954   0.268 -0.5956 -0.1924 -1.1128
 7748SOL    MW430726   2.506   2.026   0.280  0.4199  0.3735  0.1996
 7749SOL     OW30727   1.613   4.009   2.492 -0.0235 -0.6598  0.4694
 7749SOL    HW230728   1.587   4.046   2.408 -0.9517 -2.0812  0.1050
 7749SOL    HW330729   1.708   4.024   2.497 -0.1674  0.5927 -0.2152
 7749SOL    MW430730   1.622   4.016   2.482 -0.1366 -0.3170  0.6216
 7750SOL     OW30731   4.968   4.147   0.738 -0.0170 -0.6775 -0.3099
 7750SOL    HW230732   5.030   4.096   0.789  0.9333 -0.4100 -1.1630
 7750SOL    HW330733   4.906   4.083   0.704  1.5407 -1.4075 -1.9271
 7750SOL    MW430734   4.968   4.132   0.740  0.1477  0.1959  0.3419
 7751SOL     OW30735   4.621   1.864   3.778 -0.0012 -0.0040 -0.3237
 7751SOL    HW230736   4.632   1.880   3.872  0.3596  1.3658 -0.5757
 7751SOL    HW330737   4.547   1.920   3.753  0.4183  0.2501 -1.0041
 7751SOL    MW430738   4.613   1.874   3.787 -0.6088 -0.0785 -0.4191
 7752SOL     OW30739   4.801   2.688   3.738  0.1507  0.2341  0.2467
 7752SOL    HW230740   4.853   2.679   3.818  1.6523 -0.1888 -0.7343
 7752SOL    HW330741   4.823   2.610   3.686 -1.2158  0.2211 -0.3512
 7752SOL    MW430742   4.811   2.676   3.741 -0.2464  0.0870 -0.3035
 7753SOL     OW30743   3.230   0.929   1.231  0.2536  0.0394  0.1617
 7753SOL    HW230744   3.272   0.845   1.250 -0.8002 -0.2987  1.1214
 7753SOL    HW330745   3.182   0.914   1.149 -1.7914 -1.0484  1.4767
 7753SOL    MW430746   3.230   0.916   1.223 -0.2077 -0.0974 -0.0831
 7754SOL     OW30747   2.703   5.025   0.223 -0.1236  0.0481  0.4094
 7754SOL    HW230748   2.667   5.104   0.264 -0.0116  0.3478 -0.0561
 7754SOL    HW330749   2.793   5.021   0.255 -0.3964 -0.3867  1.1305
 7754SOL    MW430750   2.710   5.035   0.233 -0.2429 -0.2601  0.3299
 7755SOL     OW30751   0.367   1.240   5.319  0.2746  0.7203 -0.2794
 7755SOL    HW230752   0.441   1.291   5.289 -0.4263  1.3787 -0.9115
 7755SOL    HW330753   0.343   1.279   5.403  0.5692  0.5734 -0.1252
 7755SOL    MW430754   0.373   1.252   5.326  0.0907 -0.1484  0.0777
 7756SOL     OW30755   0.787   3.098   5.442  0.3200  0.1974  0.0014
 7756SOL    HW230756   0.697   3.113   5.412  0.2717 -0.4089 -0.1587
 7756SOL    HW330757   0.779   3.083   5.536  0.3147  0.6514  0.0781
 7756SOL    MW430758   0.774   3.098   5.450 -0.2716  0.0418  0.1278
 7757SOL     OW30759   6.251   1.433   4.084 -0.1721 -0.5690 -0.2137
 7757SOL    HW230760   6.176   1.494   4.080 -0.1973 -0.5904 -0.0926
 7757SOL    HW330761   6.251   1.389   3.999  0.6898  0.5962 -0.8464
 7757SOL    MW430762   6.241   1.436   4.072 -0.2550  0.1524 -0.6804
 7758SOL     OW30763   1.167   1.334   4.428  0.1420 -0.2192  0.2201
 7758SOL    HW230764   1.237   1.268   4.433 -0.1923 -0.5206  1.0833
 7758SOL    HW330765   1.169   1.377   4.514  0.2985  0.8512 -0.3023
 7758SOL    MW430766   1.177   1.331   4.440  0.3680 -0.1455  0.1839
 7759SOL     OW30767   1.949   0.642   0.350 -0.5322 -0.2051  0.1144
 7759SOL    HW230768   1.971   0.667   0.439 -0.9672 -0.8926  0.4245
 7759SOL    HW330769   1.884   0.572   0.360  0.3706 -1.1897 -0.7235
 7759SOL    MW430770   1.943   0.636   0.363 -0.4002  0.6853 -0.5079
 7760SOL     OW30771   1.799   5.247   0.253 -0.3266 -0.3722 -0.9000
 7760SOL    HW230772   1.734   5.271   0.319 -2.3384 -1.6835 -2.2665
 7760SOL    HW330773   1.852   5.179   0.295 -1.0129 -0.5656 -0.3169
 7760SOL    MW430774   1.797   5.241   0.267 -0.5554  0.3737 -0.4956
 7761SOL     OW30775   4.134   3.120   0.173 -0.0238 -0.4250 -0.0399
 7761SOL    HW230776   4.174   3.051   0.121 -0.7600 -1.4992  0.7909
 7761SOL    HW330777   4.059   3.079   0.215  0.2476  0.5296  1.4745
 7761SOL    MW430778   4.129   3.106   0.172 -0.0343  0.0008  0.0914
 7762SOL     OW30779   5.993   0.144   0.839 -0.1784 -0.1396 -0.2870
 7762SOL    HW230780   5.948   0.137   0.923  0.7078  0.4080  0.2445
 7762SOL    HW330781   5.936   0.199   0.785 -1.0607 -1.0117 -0.2712
 7762SOL    MW430782   5.980   0.150   0.843 -0.2749 -0.2965  0.0935
 7763SOL     OW30783   6.174   2.934   6.244 -0.1190  0.7903  0.0072
 7763SOL    HW230784   6.136   3.005   6.294 -0.7844  1.7258 -1.7383
 7763SOL    HW330785   6.115   2.860   6.257  0.9677  0.2488  2.4254
 7763SOL    MW430786   6.161   2.934   6.252 -0.1345 -0.1156 -0.3821
 7764SOL     OW30787   2.620   1.963   2.872  0.3834 -0.3093 -0.0625
 7764SOL    HW230788   2.686   1.920   2.926  0.8220  0.3925 -0.0222
 7764SOL    HW330789   2.629   2.056   2.894  0.7221  0.0189 -1.4962
 7764SOL    MW430790   2.630   1.970   2.882 -0.4194  0.3699  0.1665
 7765SOL     OW30791   4.392   0.705   0.107 -0.1053  0.1788 -0.0864
 7765SOL    HW230792   4.440   0.739   0.030  0.6871  0.4590  0.5150
 7765SOL    HW330793   4.305   0.685   0.074  0.0781  0.7602 -0.9562
 7765SOL    MW430794   4.387   0.707   0.092 -0.2956 -0.5049 -0.2694
 7766SOL     OW30795   5.355   1.744   1.763 -0.1208  0.2110 -0.2896
 7766SOL    HW230796   5.381   1.683   1.831 -0.6947 -0.1226 -0.3654
 7766SOL    HW330797   5.267   1.716   1.737  0.4766 -0.2879 -1.8659
 7766SOL    MW430798   5.347   1.733   1.768 -0.0547  0.0782  0.1020
 7767SOL     OW30799   0.108   0.899   2.042 -0.4216 -0.2799  0.2714
 7767SOL    HW230800   0.060   0.837   1.988 -1.7570  0.2402  0.8132
 7767SOL    HW330801   0.066   0.983   2.025 -1.2322 -0.1696  2.4291
 7767SOL    MW430802   0.096   0.902   2.033 -0.4493 -0.2599 -0.8922
 7768SOL     OW30803   3.856   5.759   4.563  0.0052 -0.1053  0.5627
 7768SOL    HW230804   3.823   5.825   4.624  0.9794  0.1567  0.8222
 7768SOL    HW330805   3.865   5.680   4.615  1.1273  0.1975  0.8509
 7768SOL    MW430806   3.853   5.758   4.578  0.1379 -0.0697  0.1036
 7769SOL     OW30807   0.215   5.380   0.996  0.5169 -0.1257 -0.4048
 7769SOL    HW230808   0.236   5.467   0.961 -0.5640  0.2376 -0.1888
 7769SOL    HW330809   0.119   5.378   0.999  0.5449 -1.0627  0.2548
 7769SOL    MW430810   0.205   5.391   0.992 -0.2864 -0.1692 -0.1128
 7770SOL     OW30811   2.461   5.076   4.546 -0.2455 -0.4974  0.7473
 7770SOL    HW230812   2.556   5.065   4.538 -0.0733 -1.0766  2.8770
 7770SOL    HW330813   2.449   5.114   4.633 -1.9139  0.8520 -0.0167
 7770SOL    MW430814   2.472   5.080   4.557 -0.7455  0.3557 -0.0463
 7771SOL     OW30815   3.882   4.916   1.999  0.0524 -0.3158 -0.2240
 7771SOL    HW230816   3.906   4.982   2.064  1.6082 -1.9545  0.9705
 7771SOL    HW330817   3.790   4.898   2.016  0.2280 -0.1483  1.0344
 7771SOL    MW430818   3.873   4.922   2.010  0.1538  0.5773 -0.0647
 7772SOL     OW30819   3.485   4.389   0.634  0.1073  0.3416 -0.2496
 7772SOL    HW230820   3.514   4.478   0.612  0.8211  0.4391  1.0004
 7772SOL    HW330821   3.404   4.377   0.583  0.8129  1.1239 -1.5990
 7772SOL    MW430822   3.478   4.399   0.625 -0.3535  0.0094 -0.0128
 7773SOL     OW30823   4.770   5.820   0.159 -0.0129  0.4119  0.4171
 7773SOL    HW230824   4.707   5.759   0.123  1.0676 -1.9447  2.2352
 7773SOL    HW330825   4.856   5.782   0.140  0.7687  1.9258  0.6829
 7773SOL    MW430826   4.773   5.807   0.152 -0.2337 -0.3941 -0.0672
 7774SOL     OW30827   0.309   3.161   6.303  0.1650 -0.2942 -0.2204
 7774SOL    HW230828   0.297   3.072   6.338  3.1314  0.0148  1.8657
 7774SOL    HW330829   0.346   3.147   6.216  1.7850 -1.1896  0.5656
 7774SOL    MW430830   0.312   3.147   6.296  0.0989 -0.1127 -0.4183
 7775SOL     OW30831   5.197   0.373   1.838 -0.1452  0.1792 -0.1475
 7775SOL    HW230832   5.115   0.384   1.790  0.0246  2.5300 -0.0142
 7775SOL    HW330833   5.265   0.399   1.776  0.1984  1.6096  0.7577
 7775SOL    MW430834   5.195   0.378   1.824  0.0548  0.0591  0.1935
 7776SOL     OW30835   0.363   1.645   0.480 -0.1413  0.6081  0.2327
 7776SOL    HW230836   0.293   1.702   0.448 -1.1683 -0.3710  0.6524
 7776SOL    HW330837   0.319   1.563   0.502  0.9364  0.3876  1.7428
 7776SOL    MW430838   0.348   1.642   0.478 -0.3521  0.0023 -0.1927
 7777SOL     OW30839   0.251   1.543   0.067 -0.2095  0.1032 -0.4548
 7777SOL    HW230840   0.293   1.579  -0.011 -0.3013  1.1802 -0.0241
 7777SOL    HW330841   0.178   1.603   0.085  0.4787  0.5149  1.1002
 7777SOL    MW430842   0.247   1.556   0.059  0.1610  0.0053  0.0892
 7778SOL     OW30843   0.842   3.302   0.707 -0.0108 -0.0916 -0.0397
 7778SOL    HW230844   0.837   3.331   0.798  0.8796 -1.7463  0.5920
 7778SOL    HW330845   0.753   3.274   0.686 -0.6346  1.9323 -0.3147
 7778SOL    MW430846   0.829   3.302   0.716  0.0428 -0.5855 -0.1186
 7779SOL     OW30847   2.637   0.733   3.865 -0.2531 -0.4186 -0.2819
 7779SOL    HW230848   2.622   0.787   3.942  2.3668  0.9300 -0.6001
 7779SOL    HW330849   2.637   0.795   3.792  1.5664 -0.9905 -0.8130
 7779SOL    MW430850   2.635   0.748   3.865 -0.3160 -0.2907  0.0296
 7780SOL     OW30851   0.832   2.683   4.382 -0.1979  0.4452 -0.0627
 7780SOL    HW230852   0.852   2.713   4.471  0.3277 -0.7902  0.2475
 7780SOL    HW330853   0.885   2.604   4.371 -1.2689 -0.1644 -0.9940
 7780SOL    MW430854   0.842   2.677   4.393 -0.2361  0.0866 -0.5041
 7781SOL     OW30855   2.241   2.386   0.173 -0.1769  0.6290  0.1317
 7781SOL    HW230856   2.169   2.323   0.167 -0.4565  0.8840  0.7068
 7781SOL    HW330857   2.199   2.472   0.165 -0.0914  0.8240  1.5618
 7781SOL    MW430858   2.226   2.389   0.171  0.3528  0.2252  0.4481
 7782SOL     OW30859   0.333   3.516   1.241  0.0133  0.2779 -0.0717
 7782SOL    HW230860   0.359   3.425   1.229  0.3317  0.4150 -0.4615
 7782SOL    HW330861   0.250   3.524   1.193 -0.7911 -0.1618  1.1794
 7782SOL    MW430862   0.325   3.505   1.233  0.4215 -0.1130  0.1691
 7783SOL     OW30863   1.239   5.388   0.714 -0.4284 -0.0084 -0.2444
 7783SOL    HW230864   1.163   5.371   0.770 -0.8826 -1.3947 -1.2135
 7783SOL    HW330865   1.221   5.472   0.674 -0.5540  0.5492  0.9376
 7783SOL    MW430866   1.226   5.397   0.716 -0.2213 -0.2121  1.0934
 7784SOL     OW30867   1.924   4.839   3.843 -0.2373  0.0520  0.3234
 7784SOL    HW230868   1.852   4.810   3.787 -1.1641  2.5630  0.0766
 7784SOL    HW330869   1.881   4.869   3.923  0.7050  0.1698  0.7921
 7784SOL    MW430870   1.909   4.839   3.846  0.3287 -0.3265 -0.2443
 7785SOL     OW30871   3.771   6.244   2.477 -0.3273  0.1591 -0.4926
 7785SOL    HW230872   3.731   6.319   2.432 -0.8040 -0.5118 -1.2276
 7785SOL    HW330873   3.749   6.257   2.569 -0.1823  1.0492 -0.5725
 7785SOL    MW430874   3.763   6.255   2.483  0.7526  0.4974 -0.3593
 7786SOL     OW30875   1.428   1.799   0.018  0.3006  0.2910 -0.4167
 7786SOL    HW230876   1.367   1.729   0.042  2.3637 -2.1559 -1.8720
 7786SOL    HW330877   1.372   1.866  -0.022 -1.9320  0.2556  2.3265
 7786SOL    MW430878   1.413   1.798   0.016 -0.2315  0.5177 -0.1279
 7787SOL     OW30879   6.147   3.324   5.713  0.5649 -0.9018 -0.6922
 7787SOL    HW230880   6.203   3.366   5.647  0.3732 -1.6399 -1.3387
 7787SOL    HW330881   6.074   3.386   5.725  0.4764 -0.8728 -1.3535
 7787SOL    MW430882   6.145   3.338   5.706  0.3942  0.2502  0.8379
 7788SOL     OW30883   5.432   4.400   4.702  0.0979  0.5878  0.5990
 7788SOL    HW230884   5.338   4.402   4.684  0.4282  1.5460 -1.3489
 7788SOL    HW330885   5.462   4.490   4.684  1.6500 -0.1274 -0.7264
 7788SOL    MW430886   5.424   4.412   4.697  0.5174 -0.4531  0.0496
 7789SOL     OW30887   2.234   5.753   4.439 -0.2364  0.3591  0.3981
 7789SOL    HW230888   2.146   5.716   4.445 -0.1231 -0.3343 -1.4077
 7789SOL    HW330889   2.220   5.842   4.406 -0.3325  0.8245  1.6639
 7789SOL    MW430890   2.221   5.760   4.435  0.1336 -0.1995  0.1154
 7790SOL     OW30891   3.745   4.575   3.328 -0.1210 -0.6199  0.0546
 7790SOL    HW230892   3.681   4.539   3.389  0.0234  1.4161  1.4974
 7790SOL    HW330893   3.791   4.643   3.378  1.5537 -0.4125 -1.6534
 7790SOL    MW430894   3.743   4.579   3.343  0.3210 -0.7417  0.1909
 7791SOL     OW30895   0.675   3.796   2.707  0.5745 -0.2082 -0.3034
 7791SOL    HW230896   0.756   3.827   2.748  0.6249 -0.7525  0.0082
 7791SOL    HW330897   0.675   3.702   2.721 -0.2432 -0.1789 -0.0690
 7791SOL    MW430898   0.686   3.788   2.714 -0.2660 -0.0805 -0.1720
 7792SOL     OW30899   5.238   0.548   0.608  0.1828 -0.8643 -1.1050
 7792SOL    HW230900   5.164   0.578   0.555 -1.3967 -1.9108  0.4128
 7792SOL    HW330901   5.267   0.625   0.657 -0.5310 -0.6642 -0.9934
 7792SOL    MW430902   5.232   0.562   0.607  0.2444 -0.1538  0.0901
 7793SOL     OW30903   4.705   4.232   5.739 -0.2872  0.2342 -0.0787
 7793SOL    HW230904   4.637   4.254   5.803  1.9531  2.7595  1.6991
 7793SOL    HW330905   4.747   4.154   5.774  0.5526  1.2729  1.3606
 7793SOL    MW430906   4.702   4.225   5.752  0.0760  0.8575 -0.0609
 7794SOL     OW30907   6.338   4.306   0.616  0.3319 -0.3154  0.6470
 7794SOL    HW230908   6.299   4.378   0.665  0.8281  1.3176 -1.2318
 7794SOL    HW330909   6.300   4.312   0.529  0.9647 -1.8645  0.2286
 7794SOL    MW430910   6.328   4.316   0.611 -0.1712  0.4379  0.0489
 7795SOL     OW30911   4.391   5.670   2.558  0.5586  0.4818 -0.3612
 7795SOL    HW230912   4.338   5.739   2.597 -1.4869 -1.1519 -0.0857
 7795SOL    HW330913   4.354   5.589   2.591  0.8435 -0.8835 -3.0782
 7795SOL    MW430914   4.379   5.669   2.567  0.0105 -0.2015  0.0858
 7796SOL     OW30915   5.101   3.640   4.203  0.5521  0.0573 -0.1285
 7796SOL    HW230916   5.008   3.632   4.222  0.0380  3.5762 -0.3362
 7796SOL    HW330917   5.132   3.708   4.263  2.6022  0.0374 -1.0763
 7796SOL    MW430918   5.093   3.648   4.213  0.1179 -0.4058  0.2271
 7797SOL     OW30919   4.246   4.584   1.454  0.0164  0.4604  0.4965
 7797SOL    HW230920   4.216   4.563   1.365  1.6959 -0.8812  0.1666
 7797SOL    HW330921   4.338   4.608   1.442  0.3484 -0.0386  1.8947
 7797SOL    MW430922   4.254   4.584   1.441  0.2017 -0.2918 -0.1614
 7798SOL     OW30923   6.020   1.030   6.388 -0.1369 -0.7486 -0.8308
 7798SOL    HW230924   6.066   1.114   6.388  0.1668 -0.9105 -1.3689
 7798SOL    HW330925   5.938   1.048   6.341 -0.4552 -0.5519 -0.2055
 7798SOL    MW430926   6.015   1.044   6.382 -0.2097  0.3043 -1.2883
 7799SOL     OW30927   5.377   2.299   1.496  0.0578  0.6793  0.2338
 7799SOL    HW230928   5.359   2.350   1.574 -0.5876 -0.8468  1.1197
 7799SOL    HW330929   5.304   2.317   1.437  0.3935  1.5967  0.0855
 7799SOL    MW430930   5.365   2.308   1.498  0.1658  0.2204 -0.0881
 7800SOL     OW30931   4.077   1.754   2.478 -0.3883  0.2369 -0.3022
 7800SOL    HW230932   3.990   1.771   2.444 -1.3351  0.4724  2.0401
 7800SOL    HW330933   4.124   1.837   2.469  0.1512 -0.2847 -2.9249
 7800SOL    MW430934   4.072   1.767   2.473  0.2893 -0.4742  0.4144
 7801SOL     OW30935   5.415   6.182   1.847  0.3297  0.2292  0.0658
 7801SOL    HW230936   5.332   6.193   1.893  0.2114 -1.8119  0.4311
 7801SOL    HW330937   5.390   6.149   1.760  0.7587 -1.3195  0.5050
 7801SOL    MW430938   5.401   6.179   1.841 -1.1408 -0.3376  0.3265
 7802SOL     OW30939   1.581   0.977   2.189  0.8199  0.4526 -0.4709
 7802SOL    HW230940   1.559   1.056   2.140 -0.3289  2.3022  2.7289
 7802SOL    HW330941   1.505   0.920   2.177  1.2258  0.1824 -1.9981
 7802SOL    MW430942   1.568   0.980   2.181 -0.7993 -0.4155 -0.1259
 7803SOL     OW30943   2.501   4.593   4.191  0.7220  0.7396 -0.3185
 7803SOL    HW230944   2.494   4.562   4.281  1.2592  1.1043 -0.1460
 7803SOL    HW330945   2.415   4.632   4.172  0.4026  0.1104 -0.1812
 7803SOL    MW430946   2.489   4.594   4.200 -0.5288 -0.3542 -0.1336
 7804SOL     OW30947   5.582   0.063   1.956 -0.2119 -0.3844  0.0228
 7804SOL    HW230948   5.515   0.001   1.929 -0.1572  0.1407 -1.3917
 7804SOL    HW330949   5.554   0.092   2.043 -2.3056  0.4674 -0.8682
 7804SOL    MW430950   5.570   0.059   1.964  0.0973 -0.3398 -0.6427
 7805SOL     OW30951   2.657   4.973   3.038 -0.3505  0.0966  0.4862
 7805SOL    HW230952   2.616   5.046   3.084 -1.0405 -0.3292  0.5496
 7805SOL    HW330953   2.751   4.985   3.054 -0.3392  1.7308 -0.6356
 7805SOL    MW430954   2.664   4.984   3.046  0.2020 -0.3114  0.0396
 7806SOL     OW30955   5.863   3.128   3.382 -0.1237  0.2366 -0.2295
 7806SOL    HW230956   5.782   3.091   3.347 -0.0769  0.5547 -0.6733
 7806SOL    HW330957   5.860   3.106   3.475 -0.0604 -0.9421 -0.4985
 7806SOL    MW430958   5.852   3.121   3.390  0.6287  0.0802  0.0761
 7807SOL     OW30959   2.401   4.732   2.648  0.2616 -0.1001  0.1640
 7807SOL    HW230960   2.412   4.637   2.647  2.3109  0.0769  0.2613
 7807SOL    HW330961   2.389   4.754   2.740  0.6765 -0.1983  0.2432
 7807SOL    MW430962   2.401   4.723   2.660  0.2603 -0.3221 -0.3453
 7808SOL     OW30963   5.124   4.776   4.470 -0.1626  0.0709  0.2851
 7808SOL    HW230964   5.119   4.854   4.416 -0.2670 -0.1007  0.0439
 7808SOL    HW330965   5.211   4.741   4.454 -0.5235 -0.5040 -0.5159
 7808SOL    MW430966   5.135   4.781   4.461  0.8976 -0.3153  0.1006
 7809SOL     OW30967   4.761   4.927   1.322 -0.3432 -0.0823  0.0347
 7809SOL    HW230968   4.724   4.992   1.263  1.7979  0.4900 -0.7609
 7809SOL    HW330969   4.834   4.971   1.365 -2.1941 -0.2538  3.7251
 7809SOL    MW430970   4.766   4.941   1.320  0.3274 -0.0798 -0.3041
 7810SOL     OW30971   3.271   0.356   0.965 -0.3590  0.0039  0.1534
 7810SOL    HW230972   3.344   0.308   0.927 -1.6344 -0.4604 -1.8700
 7810SOL    HW330973   3.285   0.447   0.937 -0.4940 -0.0666 -0.1458
 7810SOL    MW430974   3.282   0.362   0.956 -0.0001 -0.6607  0.2057
 7811SOL     OW30975   4.032   1.128   5.089  0.2908  0.6598 -0.3570
 7811SOL    HW230976   3.956   1.175   5.123 -0.4103  0.1916 -1.2210
 7811SOL    HW330977   4.071   1.085   5.166 -0.0239  1.3041  0.1693
 7811SOL    MW430978   4.027   1.128   5.104  1.1988 -0.7023 -0.4564
 7812SOL     OW30979   0.220   1.954   2.613  0.2451 -0.4205 -0.1052
 7812SOL    HW230980   0.142   1.900   2.602 -1.0179  1.0337  1.2489
 7812SOL    HW330981   0.192   2.043   2.590  1.0518  0.3815  1.8132
 7812SOL    MW430982   0.206   1.959   2.609 -0.2042 -0.2524 -0.0539
 7813SOL     OW30983   5.982   2.999   0.194 -0.0240 -0.4187 -0.0483
 7813SOL    HW230984   5.949   3.082   0.229  1.9420  1.0920 -1.4912
 7813SOL    HW330985   5.952   2.933   0.256 -0.6495  1.5091  1.8378
 7813SOL    MW430986   5.974   3.002   0.207 -0.0156 -0.2103  0.3941
 7814SOL     OW30987   4.187   2.094   0.055 -0.0899  0.0769 -0.2795
 7814SOL    HW230988   4.095   2.077   0.031  0.0403  1.0215 -1.5178
 7814SOL    HW330989   4.236   2.076  -0.025  0.9156 -1.0522  0.5479
 7814SOL    MW430990   4.181   2.089   0.041  0.5149 -0.4283 -0.2921
 7815SOL     OW30991   3.614   5.312   0.138 -0.5254 -0.3704  0.6886
 7815SOL    HW230992   3.576   5.289   0.223 -1.0959 -0.4805  0.4055
 7815SOL    HW330993   3.549   5.284   0.074  1.0967 -2.9627  0.0271
 7815SOL    MW430994   3.601   5.305   0.141  0.1176  0.0141 -0.0704
 7816SOL     OW30995   4.999   4.185   5.800 -0.2166  0.1619 -0.0514
 7816SOL    HW230996   5.030   4.274   5.782  2.7177 -0.0408  2.9083
 7816SOL    HW330997   5.053   4.129   5.744 -1.4981  0.1446 -1.3164
 7816SOL    MW430998   5.011   4.190   5.790 -0.2016 -0.6915 -0.0138
 7817SOL     OW30999   5.395   2.433   0.136  0.0888 -1.1066 -0.2837
 7817SOL    HW231000   5.474   2.378   0.132  0.9417 -0.0072  0.7540
 7817SOL    HW331001   5.424   2.519   0.107 -1.6105 -1.4849 -3.5024
 7817SOL    MW431002   5.409   2.437   0.132 -0.0407  0.5805 -0.8364
 7818SOL     OW31003   0.083   4.207   1.431 -0.3509 -0.7131  1.1503
 7818SOL    HW231004   0.117   4.136   1.487  0.0022 -1.7964 -0.3625
 7818SOL    HW331005   0.152   4.221   1.366 -1.0949 -0.0873  0.4760
 7818SOL    MW431006   0.096   4.199   1.430 -0.4062 -0.2433 -0.2024
 7819SOL     OW31007   4.407   0.787   4.522 -0.2825  0.2830  0.4621
 7819SOL    HW231008   4.348   0.717   4.548 -2.3424  2.0946  0.9355
 7819SOL    HW331009   4.372   0.818   4.438 -0.0861  1.4644  0.8029
 7819SOL    MW431010   4.395   0.782   4.514 -0.6494 -0.2592 -0.1514
 7820SOL     OW31011   6.153   5.703   3.345  0.1947  0.5724  0.1513
 7820SOL    HW231012   6.152   5.698   3.250 -2.1773 -1.9590  0.1574
 7820SOL    HW331013   6.100   5.780   3.366  0.2777  0.8309 -0.5762
 7820SOL    MW431014   6.146   5.712   3.335 -0.7640 -0.0506 -0.2485
 7821SOL     OW31015   1.673   3.255   2.156 -0.0876 -0.3196  0.3882
 7821SOL    HW231016   1.681   3.278   2.063  0.9045 -2.4425 -0.1166
 7821SOL    HW331017   1.607   3.186   2.157  0.8570 -1.2379  1.0718
 7821SOL    MW431018   1.665   3.249   2.144  0.2176 -0.4572 -0.2612
 7822SOL     OW31019   0.607   1.061   5.749  0.0297 -0.0650  0.3813
 7822SOL    HW231020   0.623   1.139   5.802  1.1364  0.4621 -0.6798
 7822SOL    HW331021   0.674   0.999   5.777 -0.1486 -0.2247  0.4502
 7822SOL    MW431022   0.618   1.063   5.760  0.7774 -0.7351  0.3262
 7823SOL     OW31023   1.350   2.656   5.888 -0.1304 -0.5199 -0.0128
 7823SOL    HW231024   1.368   2.728   5.947 -1.1658 -1.2709  1.2702
 7823SOL    HW331025   1.266   2.677   5.849  0.0982 -0.4977 -0.5084
 7823SOL    MW431026   1.342   2.668   5.891  0.5883  0.2715  0.1131
 7824SOL     OW31027   0.571   3.149   3.637  0.3777 -0.1938 -0.1782
 7824SOL    HW231028   0.664   3.132   3.651  0.3996 -0.8815 -1.0652
 7824SOL    HW331029   0.533   3.063   3.621 -0.1468  0.2195 -1.2662
 7824SOL    MW431030   0.578   3.135   3.637 -0.1207  0.0409  0.3418
 7825SOL     OW31031   2.027   1.677   5.513 -0.0675 -0.4469  0.1564
 7825SOL    HW231032   1.973   1.748   5.478  1.1430 -0.2137 -1.3219
 7825SOL    HW331033   2.109   1.719   5.539  0.6004 -1.2657 -0.5741
 7825SOL    MW431034   2.031   1.692   5.512 -0.4472 -0.1887 -0.3789
 7826SOL     OW31035   3.934   3.212   6.308  0.0041 -0.3855  0.6220
 7826SOL    HW231036   3.891   3.238   6.389 -0.2098  0.8323  0.1393
 7826SOL    HW331037   3.950   3.118   6.318 -2.5862 -0.8759  0.9079
 7826SOL    MW431038   3.931   3.203   6.320 -0.3073  0.2591 -0.1045
 7827SOL     OW31039   1.463   1.594   6.248  0.0134  0.1092  0.0288
 7827SOL    HW231040   1.463   1.689   6.237 -1.8044  0.1282 -0.0714
 7827SOL    HW331041   1.489   1.581   6.339 -0.7445  0.7765  0.3559
 7827SOL    MW431042   1.466   1.605   6.259  0.3443  0.5405  0.1493
 7828SOL     OW31043   0.816   2.652   5.229 -0.0818  0.2493  0.0276
 7828SOL    HW231044   0.751   2.715   5.260  0.2496  0.7178 -0.2243
 7828SOL    HW331045   0.810   2.579   5.291  0.9263  1.3792  1.5044
 7828SOL    MW431046   0.806   2.650   5.241  0.1637 -0.0126  0.3229
 7829SOL     OW31047   0.785   4.976   1.819 -0.3562  0.5252 -0.4000
 7829SOL    HW231048   0.748   4.922   1.889 -0.2695  0.8286 -0.1167
 7829SOL    HW331049   0.733   5.056   1.821  1.1024  1.5049  0.8654
 7829SOL    MW431050   0.774   4.979   1.828 -0.3192  0.2852  0.5098
 7830SOL     OW31051   4.186   4.608   5.735 -0.0671  0.5374  0.2956
 7830SOL    HW231052   4.200   4.517   5.708  1.5251  0.6172  0.7219
 7830SOL    HW331053   4.092   4.622   5.727 -0.5488 -1.5932  1.5958
 7830SOL    MW431054   4.176   4.598   5.730 -0.0526  0.8511 -0.2208
 7831SOL     OW31055   6.035   2.311   3.723 -0.1911 -0.8739 -0.0690
 7831SOL    HW231056   5.979   2.375   3.767 -0.7690 -0.5305 -1.2705
 7831SOL    HW331057   6.005   2.311   3.632  0.2441 -2.3704 -0.2405
 7831SOL    MW431058   6.024   2.320   3.717  1.1236 -0.3442 -0.0192
 7832SOL     OW31059   3.030   5.687   3.899  0.4734  0.0426  0.7178
 7832SOL    HW231060   2.975   5.758   3.932 -0.0997 -0.4350  0.8215
 7832SOL    HW331061   3.017   5.615   3.961  1.3052 -0.0486  0.8010
 7832SOL    MW431062   3.021   5.687   3.912 -0.0144 -0.0496 -0.0965
 7833SOL     OW31063   2.811   0.104   3.459  0.2982  0.6071 -0.3486
 7833SOL    HW231064   2.729   0.057   3.469  0.8984 -1.1297 -2.7207
 7833SOL    HW331065   2.854   0.097   3.544 -0.7555 -0.9835  0.0725
 7833SOL    MW431066   2.806   0.097   3.472  0.0598  0.3251  0.2079
 7834SOL     OW31067   5.248   1.318   4.734 -0.1625 -0.2156 -0.1611
 7834SOL    HW231068   5.287   1.327   4.820 -0.3425 -1.7820  0.1211
 7834SOL    HW331069   5.226   1.225   4.727 -2.9355  0.3787 -0.6782
 7834SOL    MW431070   5.250   1.307   4.744 -0.3382  0.0788 -0.2077
 7835SOL     OW31071   1.212   2.759   2.701 -0.1229  0.0612 -0.2820
 7835SOL    HW231072   1.300   2.728   2.680 -0.3663  0.3104 -1.8217
 7835SOL    HW331073   1.204   2.842   2.653 -0.8291  0.5856  0.6936
 7835SOL    MW431074   1.222   2.766   2.692  0.4810  0.1618  0.8632
 7836SOL     OW31075   4.685   0.324   5.410 -0.8628  0.0150 -0.0565
 7836SOL    HW231076   4.757   0.373   5.451 -0.4961  0.3329 -1.0359
 7836SOL    HW331077   4.619   0.315   5.479  0.5497 -1.2456  1.2074
 7836SOL    MW431078   4.686   0.329   5.424  0.0654 -0.1592  0.1830
 7837SOL     OW31079   1.136   3.047   4.699  0.0294  0.2812 -0.4121
 7837SOL    HW231080   1.145   3.131   4.745  2.2023  1.2325 -2.3427
 7837SOL    HW331081   1.090   3.070   4.618  1.7379 -0.0633 -1.5393
 7837SOL    MW431082   1.131   3.061   4.694 -0.0944  0.4325  0.9980
 7838SOL     OW31083   5.027   0.322   5.295  0.1076  0.3403 -0.0047
 7838SOL    HW231084   4.965   0.360   5.358  1.4136  1.2831  0.7721
 7838SOL    HW331085   5.050   0.237   5.332  1.9932  1.4903  1.6560
 7838SOL    MW431086   5.022   0.316   5.308 -0.4655  0.1038  0.3984
 7839SOL     OW31087   5.100   4.566   0.514 -0.6270  0.7200  1.0377
 7839SOL    HW231088   5.033   4.619   0.472  0.4776  0.9986 -0.4289
 7839SOL    HW331089   5.149   4.527   0.442  1.7526  1.7492  2.0124
 7839SOL    MW431090   5.097   4.568   0.499 -0.1126 -0.1000  0.1744
 7840SOL     OW31091   3.141   1.997   3.826  0.5859  0.0650  0.0580
 7840SOL    HW231092   3.096   1.966   3.747  0.3454 -0.6130  0.4483
 7840SOL    HW331093   3.141   2.092   3.819  1.9660 -0.0007 -1.5447
 7840SOL    MW431094   3.135   2.005   3.814  0.3171  0.7053  0.8664
 7841SOL     OW31095   1.555   2.213   2.950 -1.0418 -0.1912  0.9049
 7841SOL    HW231096   1.533   2.307   2.947 -0.9290 -0.1354  1.6159
 7841SOL    HW331097   1.500   2.178   3.020 -3.2752 -1.2760 -1.2706
 7841SOL    MW431098   1.545   2.221   2.959  0.0166 -0.1527  0.2098
 7842SOL     OW31099   5.848   0.610   3.647 -0.5952  0.0220 -0.0397
 7842SOL    HW231100   5.855   0.592   3.741  1.2305 -0.3015 -0.2082
 7842SOL    HW331101   5.796   0.690   3.642  1.3781  1.4739  1.4019
 7842SOL    MW431102   5.842   0.618   3.659  0.6047 -0.2201 -0.2730
 7843SOL     OW31103   0.180   4.265   5.758  0.4165 -0.5204  0.0223
 7843SOL    HW231104   0.187   4.336   5.821 -2.0274 -0.2129  0.0440
 7843SOL    HW331105   0.108   4.210   5.791  1.0388 -2.0013 -0.9422
 7843SOL    MW431106   0.171   4.267   5.771  0.1231 -0.1821 -0.0141
 7844SOL     OW31107   4.714   1.455   2.177 -0.1482  0.6596  0.0654
 7844SOL    HW231108   4.720   1.548   2.155  2.0906  1.0480  1.8869
 7844SOL    HW331109   4.760   1.411   2.106  2.0692  1.3600  0.9763
 7844SOL    MW431110   4.721   1.462   2.164  0.2345  0.5809 -0.1153
 7845SOL     OW31111   4.741   4.579   0.539 -0.1721 -0.2464  0.5132
 7845SOL    HW231112   4.726   4.635   0.615  0.2439 -1.7356  1.7210
 7845SOL    HW331113   4.808   4.626   0.488 -1.0026  1.1282  0.6406
 7845SOL    MW431114   4.748   4.593   0.542 -0.3484 -0.5970 -0.6113
 7846SOL     OW31115   5.869   0.316   2.096  0.0298 -0.0066 -0.2206
 7846SOL    HW231116   5.923   0.299   2.019  1.4754  1.5213  0.4043
 7846SOL    HW331117   5.914   0.387   2.142 -1.5247  0.0392  1.3272
 7846SOL    MW431118   5.882   0.323   2.092  0.3044  0.2731 -0.0776
 7847SOL     OW31119   4.668   5.413   3.752 -0.1642 -0.0356  0.3954
 7847SOL    HW231120   4.633   5.499   3.729  3.2978  1.6952  0.9026
 7847SOL    HW331121   4.679   5.416   3.847 -0.8975 -1.4684  0.5538
 7847SOL    MW431122   4.665   5.425   3.762  0.0654 -0.2230  0.2253
 7848SOL     OW31123   2.963   5.216   1.628  0.1130 -0.4362  0.3954
 7848SOL    HW231124   2.973   5.123   1.611 -0.2863 -0.4236  0.0356
 7848SOL    HW331125   3.052   5.249   1.639  0.3321 -0.6812 -0.5074
 7848SOL    MW431126   2.976   5.208   1.627  0.1242 -0.1857  0.3544
 7849SOL     OW31127   2.236   0.714   1.100 -0.1999  0.2642  0.1778
 7849SOL    HW231128   2.286   0.653   1.154 -0.7012  0.2549  0.6426
 7849SOL    HW331129   2.148   0.678   1.097 -0.8208  1.5628  1.4664
 7849SOL    MW431130   2.231   0.701   1.107  0.4636  0.7118  0.4084
 7850SOL     OW31131   5.060   4.023   1.017  0.2998  0.7632 -0.0891
 7850SOL    HW231132   5.038   4.094   1.077  0.2575 -0.3788  1.2864
 7850SOL    HW331133   4.975   3.987   0.992  0.3567  0.6225 -0.0774
 7850SOL    MW431134   5.046   4.028   1.022 -0.5771  0.1312  0.7107
 7851SOL     OW31135   0.348   3.663   4.112 -0.7430 -0.6542  0.1221
 7851SOL    HW231136   0.358   3.568   4.107 -1.3769 -0.6699 -0.9001
 7851SOL    HW331137   0.370   3.684   4.203  0.3900 -1.6517  0.1112
 7851SOL    MW431138   0.352   3.653   4.124 -0.1965 -0.2706 -0.0697
 7852SOL     OW31139   3.680   1.068   5.235 -0.0159 -0.0194 -0.1603
 7852SOL    HW231140   3.605   1.106   5.190 -1.1044  0.6796  2.0997
 7852SOL    HW331141   3.725   1.016   5.168 -2.5952 -0.5859 -1.5697
 7852SOL    MW431142   3.676   1.066   5.220  0.0657 -0.0141 -0.7738
 7853SOL     OW31143   0.231   2.463   3.416  0.6226 -0.3385 -0.0548
 7853SOL    HW231144   0.237   2.369   3.428 -0.1613 -0.4166 -0.2401
 7853SOL    HW331145   0.241   2.500   3.504 -0.0042 -0.6389  0.1403
 7853SOL    MW431146   0.233   2.456   3.429  0.2565  0.0044 -0.3471
 7854SOL     OW31147   5.480   4.668   4.694  0.3096  0.0730 -0.3365
 7854SOL    HW231148   5.572   4.692   4.685  0.1097  1.5252  1.0884
 7854SOL    HW331149   5.447   4.665   4.605  1.5601  0.2658 -0.8241
 7854SOL    MW431150   5.488   4.671   4.681 -0.2277  0.7679 -0.5201
 7855SOL     OW31151   1.027   1.996   3.391 -0.1624  0.1209  0.2069
 7855SOL    HW231152   1.100   2.057   3.395  1.1204 -1.3755  3.3099
 7855SOL    HW331153   1.019   1.962   3.481 -2.0815 -2.7532 -0.8810
 7855SOL    MW431154   1.035   1.999   3.403 -0.2429  0.1060  0.0895
 7856SOL     OW31155   5.353   0.490   3.673 -0.0817  0.4609  0.2561
 7856SOL    HW231156   5.267   0.517   3.642 -0.2598 -1.0724 -0.6363
 7856SOL    HW331157   5.410   0.497   3.597  0.2306 -0.0492  0.4348
 7856SOL    MW431158   5.350   0.495   3.659  0.3877 -0.0152  0.2494
 7857SOL     OW31159   4.425   3.575   4.334  0.7430 -0.0935  0.1820
 7857SOL    HW231160   4.499   3.610   4.383  2.2091 -0.8513 -1.4041
 7857SOL    HW331161   4.360   3.552   4.401  0.8826  2.8518  1.4667
 7857SOL    MW431162   4.426   3.576   4.349 -0.1646  0.6087 -0.2401
 7858SOL     OW31163   5.009   1.512   1.847  0.3690 -0.1685 -0.0669
 7858SOL    HW231164   4.913   1.514   1.851  0.3520  1.9695 -0.1245
 7858SOL    HW331165   5.037   1.541   1.934  0.9923 -1.2355  0.1032
 7858SOL    MW431166   5.000   1.516   1.859  0.3004  0.2997 -0.1721
 7859SOL     OW31167   1.129   3.293   1.208 -0.8641  0.4790  0.0465
 7859SOL    HW231168   1.157   3.322   1.121 -0.1395  3.5118  1.1424
 7859SOL    HW331169   1.210   3.271   1.254 -1.0071  1.1717  0.6508
 7859SOL    MW431170   1.143   3.294   1.202 -0.0568 -0.3310 -0.0253
 7860SOL     OW31171   3.111   6.363   3.523 -0.3789 -0.7044  0.0325
 7860SOL    HW231172   3.198   6.322   3.526  0.0268  0.1408  0.0254
 7860SOL    HW331173   3.069   6.322   3.447  0.3607 -0.4531 -0.5337
 7860SOL    MW431174   3.117   6.352   3.513  0.3003 -0.3955 -0.4806
 7861SOL     OW31175   3.633   2.685   2.840 -0.0146 -0.1938  0.4093
 7861SOL    HW231176   3.555   2.740   2.849  1.1405  1.5269  0.5231
 7861SOL    HW331177   3.641   2.642   2.925 -0.1895  0.5494  0.8181
 7861SOL    MW431178   3.624   2.687   2.853  0.2763  0.2784  0.4765
 7862SOL     OW31179   1.204   1.042   3.967  0.2469  0.4603  0.3905
 7862SOL    HW231180   1.271   1.041   4.036  2.3021 -1.9351 -1.4627
 7862SOL    HW331181   1.248   1.081   3.892 -1.4822  1.6724 -0.0397
 7862SOL    MW431182   1.219   1.047   3.966 -0.3097 -0.0357  0.2617
 7863SOL     OW31183   1.843   2.362   0.053 -0.5820 -0.2515  0.0153
 7863SOL    HW231184   1.919   2.319   0.092 -0.4203  0.3754  0.3999
 7863SOL    HW331185   1.782   2.291   0.036 -1.2772 -0.4149  2.7499
 7863SOL    MW431186   1.845   2.347   0.056 -0.3046 -0.0748 -0.2581
 7864SOL     OW31187   5.392   6.178   5.041  0.1384  0.3202 -0.2114
 7864SOL    HW231188   5.366   6.156   5.131  2.3883 -0.5832  0.2960
 7864SOL    HW331189   5.454   6.251   5.051  0.7626 -0.0925 -0.9552
 7864SOL    MW431190   5.397   6.184   5.054 -0.0770 -0.3683  0.1716
 7865SOL     OW31191   0.654   4.728   0.589  0.4187 -0.0980  0.4669
 7865SOL    HW231192   0.622   4.638   0.586  0.1712  0.0110 -0.5376
 7865SOL    HW331193   0.582   4.779   0.625 -0.1070 -0.0409 -0.6357
 7865SOL    MW431194   0.641   4.723   0.594  0.2141 -0.4043  0.4369
 7866SOL     OW31195   2.079   1.429   2.341 -0.6223  0.3358  0.5139
 7866SOL    HW231196   2.117   1.433   2.253 -1.8878  1.3811 -0.0337
 7866SOL    HW331197   2.026   1.350   2.341  0.5431 -0.4707  0.8692
 7866SOL    MW431198   2.077   1.419   2.329 -0.0993 -0.2687 -0.2664
 7867SOL     OW31199   0.212   1.820   3.891 -0.1105  0.2987  0.4217
 7867SOL    HW231200   0.299   1.801   3.927  0.2876 -1.3265 -1.2417
 7867SOL    HW331201   0.152   1.771   3.946  0.4143 -1.5234 -0.5600
 7867SOL    MW431202   0.216   1.811   3.903 -0.0048 -0.3503  0.2971
 7868SOL     OW31203   1.890   2.109   2.880  0.0807  0.7470 -0.8650
 7868SOL    HW231204   1.956   2.175   2.899  0.1843  0.4852 -0.2934
 7868SOL    HW331205   1.925   2.028   2.918 -0.1070  0.3908 -1.4344
 7868SOL    MW431206   1.903   2.107   2.887  0.4118 -0.1390  0.1545
 7869SOL     OW31207   2.753   6.423   1.016  0.1109  0.3174 -0.2950
 7869SOL    HW231208   2.753   6.344   1.070  0.4336  0.7288  0.3170
 7869SOL    HW331209   2.757   6.390   0.926 -2.7804 -0.4544 -0.2294
 7869SOL    MW431210   2.754   6.408   1.011 -0.2784  0.3597 -0.5344
 7870SOL     OW31211   4.245   0.194   6.213  0.4106 -0.0226 -0.3191
 7870SOL    HW231212   4.236   0.207   6.118  0.9686  0.5542 -0.3044
 7870SOL    HW331213   4.297   0.114   6.222 -1.1248 -1.0732 -0.4599
 7870SOL    MW431214   4.251   0.185   6.201  0.0484 -0.2566  0.1127
 7871SOL     OW31215   1.867   3.745   0.070  0.0215  0.4819  0.1067
 7871SOL    HW231216   1.858   3.792   0.153  0.1024  0.2013  0.2761
 7871SOL    HW331217   1.816   3.797   0.007  0.2882  0.9145  0.2413
 7871SOL    MW431218   1.859   3.758   0.072  0.4356 -0.3226  0.6484
 7872SOL     OW31219   3.490   2.058   5.066  0.1066  0.2214  0.0367
 7872SOL    HW231220   3.440   2.132   5.100  0.8680  0.4191  0.7597
 7872SOL    HW331221   3.425   2.000   5.028 -0.7091  0.2999  1.2738
 7872SOL    MW431222   3.475   2.060   5.065  0.2258  0.0534  0.2057
 7873SOL     OW31223   5.088   6.085   2.345 -0.0370  0.0297 -0.0128
 7873SOL    HW231224   5.144   6.159   2.367  0.4378 -1.0463  2.7062
 7873SOL    HW331225   5.024   6.081   2.416 -0.0460 -2.1434 -0.0893
 7873SOL    MW431226   5.087   6.094   2.357 -0.3000  0.5420  0.0286
 7874SOL     OW31227   0.689   2.442   0.426 -0.8312  0.4080 -0.2102
 7874SOL    HW231228   0.639   2.472   0.350 -0.0179 -0.2582 -1.0320
 7874SOL    HW331229   0.779   2.440   0.396 -0.7015 -1.6211  0.1873
 7874SOL    MW431230   0.694   2.446   0.412 -0.0093 -0.1006 -0.0262
 7875SOL     OW31231   2.187   4.545   3.712 -0.0760 -0.1907  0.3827
 7875SOL    HW231232   2.229   4.614   3.661 -2.0954  0.7349 -0.1027
 7875SOL    HW331233   2.146   4.590   3.785 -2.4721 -0.6336 -0.6088
 7875SOL    MW431234   2.187   4.560   3.715  0.1142 -0.2638  0.0866
 7876SOL     OW31235   2.453   2.742   3.134  0.0237 -0.3095  0.1144
 7876SOL    HW231236   2.498   2.733   3.218 -2.2785  0.7048  1.5596
 7876SOL    HW331237   2.518   2.781   3.076  1.1938  0.5465  1.9097
 7876SOL    MW431238   2.467   2.746   3.138 -0.0464  0.6582  0.4874
 7877SOL     OW31239   3.049   5.884   3.588 -0.3529 -0.4459 -0.0291
 7877SOL    HW231240   2.990   5.824   3.634 -0.4515 -0.6974 -0.4807
 7877SOL    HW331241   3.058   5.847   3.500  0.7768 -0.6160  0.1388
 7877SOL    MW431242   3.043   5.871   3.583 -0.0441 -0.5882 -0.7387
 7878SOL     OW31243   2.902   0.461   5.438  0.2814 -0.2753  0.4473
 7878SOL    HW231244   2.870   0.384   5.392  1.6595 -0.0577 -0.9438
 7878SOL    HW331245   2.966   0.426   5.501  3.7242 -0.1582 -2.6518
 7878SOL    MW431246   2.907   0.446   5.440 -0.4832 -0.0113 -0.0071
 7879SOL     OW31247   1.105   3.034   1.028 -0.0953 -0.6028  0.0973
 7879SOL    HW231248   1.199   3.024   1.039 -0.2207 -1.4973  0.4098
 7879SOL    HW331249   1.083   3.111   1.081  0.4988 -0.1710 -0.2622
 7879SOL    MW431250   1.114   3.043   1.036 -0.2095  0.7289 -0.3495
 7880SOL     OW31251   6.436   0.318   3.770 -0.5002  0.6642  0.0402
 7880SOL    HW231252   6.353   0.354   3.741 -1.8715 -1.4352  1.1473
 7880SOL    HW331253   6.414   0.262   3.845  2.0621  0.9541  1.1231
 7880SOL    MW431254   6.422   0.315   3.776 -0.3010 -0.0336 -0.6170
 7881SOL     OW31255   1.319   3.933   4.488  0.3464 -0.3426 -0.1414
 7881SOL    HW231256   1.256   3.911   4.420 -0.7109 -0.3657  0.8072
 7881SOL    HW331257   1.352   4.019   4.464  1.6433 -1.2528 -1.8337
 7881SOL    MW431258   1.315   3.942   4.476  0.0373 -0.5368 -0.0380
 7882SOL     OW31259   3.022   2.608   5.149 -0.0485 -0.4938  0.3203
 7882SOL    HW231260   2.928   2.592   5.159  0.2241 -1.8805  0.9174
 7882SOL    HW331261   3.051   2.634   5.237  0.8146 -4.1354  1.2577
 7882SOL    MW431262   3.013   2.609   5.162  0.1274 -0.5998 -0.4115
 7883SOL     OW31263   1.296   1.441   2.484 -0.2712 -0.0224 -0.4841
 7883SOL    HW231264   1.360   1.512   2.496  1.2731 -1.2750 -0.9865
 7883SOL    HW331265   1.320   1.377   2.551 -1.1895 -0.4102 -0.5175
 7883SOL    MW431266   1.308   1.442   2.495 -0.1074  0.1675 -0.7322
 7884SOL     OW31267   4.224   2.304   6.186  0.0458 -0.1094 -0.6769
 7884SOL    HW231268   4.189   2.320   6.099 -0.3906 -0.5124 -0.5790
 7884SOL    HW331269   4.175   2.365   6.242  1.1484  0.9921 -0.8752
 7884SOL    MW431270   4.213   2.314   6.182 -0.3928 -0.4866 -0.2172
 7885SOL     OW31271   1.104   0.908   6.216  0.4294 -0.7165 -0.0233
 7885SOL    HW231272   1.022   0.885   6.261 -0.4696 -0.8163 -1.6376
 7885SOL    HW331273   1.144   0.973   6.273 -0.5284 -1.0154  1.0505
 7885SOL    MW431274   1.098   0.913   6.230 -0.1205  0.1384 -0.1063
 7886SOL     OW31275   3.924   1.121   1.215 -0.2510 -0.3796  0.0759
 7886SOL    HW231276   4.001   1.066   1.200 -0.0342  0.0301 -0.3374
 7886SOL    HW331277   3.943   1.165   1.299  0.0364 -0.1681 -0.0963
 7886SOL    MW431278   3.937   1.120   1.224 -0.2459  0.1385  0.7830
 7887SOL     OW31279   0.387   2.366   1.997 -0.1991  0.2512 -0.9936
 7887SOL    HW231280   0.439   2.294   1.961  1.0532  0.3094  0.5646
 7887SOL    HW331281   0.451   2.423   2.040 -1.3750  1.2955 -0.5584
 7887SOL    MW431282   0.402   2.364   1.998  0.1266 -0.2390  0.2801
 7888SOL     OW31283   4.577   2.752   4.528  0.2707 -0.0970 -0.1235
 7888SOL    HW231284   4.502   2.788   4.479  0.0641  1.3182  1.1390
 7888SOL    HW331285   4.537   2.701   4.598  0.3565  2.0529  1.5949
 7888SOL    MW431286   4.562   2.750   4.531  0.1900  0.3515 -0.2546
 7889SOL     OW31287   1.796   3.482   3.622 -0.1306 -0.2474 -0.1623
 7889SOL    HW231288   1.813   3.443   3.708 -0.8548 -0.3922 -0.0856
 7889SOL    HW331289   1.708   3.519   3.629 -0.8371 -1.6433 -1.3529
 7889SOL    MW431290   1.787   3.482   3.634  0.7558 -0.0563 -0.4279
 7890SOL     OW31291   3.372   3.724   0.164  0.4639  0.2644  0.0030
 7890SOL    HW231292   3.385   3.710   0.070 -0.6733 -0.4299 -0.0660
 7890SOL    HW331293   3.364   3.637   0.201  1.2188  0.5250  0.8124
 7890SOL    MW431294   3.372   3.711   0.157 -0.9879 -0.0900 -0.3193
 7891SOL     OW31295   5.694   4.729   2.321  0.3229  0.1301  0.2949
 7891SOL    HW231296   5.765   4.780   2.359  0.1030 -1.3156  2.8705
 7891SOL    HW331297   5.737   4.656   2.277  0.5007  0.1616  0.4147
 7891SOL    MW431298   5.709   4.726   2.320 -0.3331  0.3781  0.1790
 7892SOL     OW31299   5.222   6.361   3.367  0.1496  0.7613 -0.3874
 7892SOL    HW231300   5.161   6.429   3.396  0.1784  1.3204 -1.5492
 7892SOL    HW331301   5.166   6.289   3.341  0.0334  0.8811 -0.4728
 7892SOL    MW431302   5.207   6.361   3.367  0.6165 -0.0589  0.2429
 7893SOL     OW31303   4.416   1.693   4.377  0.0709  0.1098 -0.0631
 7893SOL    HW231304   4.470   1.668   4.452  1.9212 -0.1453 -1.4023
 7893SOL    HW331305   4.399   1.610   4.331  0.2908  0.4338 -0.7446
 7893SOL    MW431306   4.421   1.679   4.381 -0.1230 -0.4301  0.3825
 7894SOL     OW31307   0.214   1.367   0.449 -0.6561  0.3006 -0.3400
 7894SOL    HW231308   0.160   1.373   0.371  1.2494  2.6686 -1.6390
 7894SOL    HW331309   0.252   1.279   0.446 -2.7722 -0.6623 -0.4517
 7894SOL    MW431310   0.212   1.356   0.439  0.3677 -0.0346  0.1143
 7895SOL     OW31311   2.220   0.862   0.450  0.1729 -0.1266 -0.2690
 7895SOL    HW231312   2.310   0.891   0.436 -0.6623  2.4395 -0.9129
 7895SOL    HW331313   2.205   0.795   0.384  1.3517  0.0102 -0.6946
 7895SOL    MW431314   2.230   0.857   0.439  0.2573 -0.2586  0.0561
 7896SOL     OW31315   3.518   5.588   1.545  0.6046  0.1605  0.1304
 7896SOL    HW231316   3.517   5.682   1.566  1.2169 -0.0373  1.1176
 7896SOL    HW331317   3.468   5.547   1.616  0.7222 -0.3075 -0.0541
 7896SOL    MW431318   3.511   5.595   1.557 -0.1259 -0.1715 -0.1486
 7897SOL     OW31319   4.815   0.074   5.615 -0.0519  0.1082  0.0459
 7897SOL    HW231320   4.810   0.165   5.642  0.1813 -0.0510  0.6414
 7897SOL    HW331321   4.904   0.065   5.578  1.2960 -0.6985  3.1737
 7897SOL    MW431322   4.826   0.085   5.613 -0.3471 -0.3649  0.6876
 7898SOL     OW31323   4.186   1.478   1.497 -0.3535  0.4707  0.2148
 7898SOL    HW231324   4.125   1.551   1.511 -1.5173  0.1542 -2.5958
 7898SOL    HW331325   4.273   1.519   1.500 -0.9166  1.7176  0.0966
 7898SOL    MW431326   4.189   1.493   1.499  0.0343 -0.0909  0.0579
 7899SOL     OW31327   0.492   5.836   2.053 -0.0722  0.8820 -0.1237
 7899SOL    HW231328   0.440   5.909   2.020  0.9501  1.9006  0.4607
 7899SOL    HW331329   0.484   5.841   2.148 -0.4472 -0.1228 -0.0838
 7899SOL    MW431330   0.484   5.846   2.061 -0.1421 -0.6460  0.5464
 7900SOL     OW31331   2.234   4.842   6.155  0.0093 -0.1540 -0.9323
 7900SOL    HW231332   2.246   4.747   6.152 -0.3026 -0.2196 -0.3055
 7900SOL    HW331333   2.155   4.858   6.102  2.1668  0.1936 -4.3373
 7900SOL    MW431334   2.225   4.832   6.147 -0.3485 -0.0303 -0.4864
 7901SOL     OW31335   4.758   0.529   4.025 -0.3951 -0.2569 -0.2755
 7901SOL    HW231336   4.766   0.486   4.110 -1.4315  0.0673  0.0066
 7901SOL    HW331337   4.671   0.504   3.994 -0.5783  0.7375 -0.5957
 7901SOL    MW431338   4.748   0.520   4.032 -0.2275  0.3013 -0.0565
 7902SOL     OW31339   5.183   0.987   1.543  0.1949  0.0592 -0.3267
 7902SOL    HW231340   5.263   0.944   1.575  0.0239 -0.5149 -0.6499
 7902SOL    HW331341   5.194   1.079   1.567  1.6358  0.2795 -1.6872
 7902SOL    MW431342   5.195   0.993   1.551  0.1860  0.0169  0.4810
 7903SOL     OW31343   5.064   1.172   2.918  0.1943  0.3927  0.8632
 7903SOL    HW231344   5.108   1.175   2.833  0.6236 -1.0921  1.0038
 7903SOL    HW331345   5.128   1.131   2.976 -0.1468  1.2591  1.8946
 7903SOL    MW431346   5.078   1.167   2.914  0.3589  0.1786 -0.8382
 7904SOL     OW31347   2.359   1.222   2.249  0.1470 -0.2063 -0.1271
 7904SOL    HW231348   2.282   1.185   2.292  1.0061 -0.5369  1.1733
 7904SOL    HW331349   2.365   1.176   2.165 -0.7743 -0.5141 -0.0367
 7904SOL    MW431350   2.350   1.211   2.243  0.3366  0.0308 -0.2869
 7905SOL     OW31351   5.922   2.220   2.929  0.3192  0.3682  0.5296
 7905SOL    HW231352   5.888   2.150   2.874 -0.0109  0.8937  0.0457
 7905SOL    HW331353   5.962   2.176   3.004 -1.2754 -0.2859  1.0268
 7905SOL    MW431354   5.923   2.205   2.932 -0.1553 -0.1521 -0.0074
 7906SOL     OW31355   2.637   2.247   0.126 -0.2798  0.2577  0.1257
 7906SOL    HW231356   2.636   2.318   0.190  0.4727  0.2297  0.1847
 7906SOL    HW331357   2.602   2.172   0.173  0.6293  0.1399  0.6339
 7906SOL    MW431358   2.633   2.247   0.140  0.2258 -0.3666  0.4228
 7907SOL     OW31359   3.526   4.136   5.301  0.8150 -0.7372  0.0826
 7907SOL    HW231360   3.452   4.188   5.333  1.1893  1.2995 -2.1250
 7907SOL    HW331361   3.490   4.047   5.293 -0.8555 -0.1584  0.7394
 7907SOL    MW431362   3.511   4.131   5.304 -0.1884  0.3800 -0.1585
 7908SOL     OW31363   5.717   0.693   2.305 -0.2691 -0.5140  0.0533
 7908SOL    HW231364   5.750   0.696   2.216 -2.0594 -2.0734 -0.7386
 7908SOL    HW331365   5.772   0.628   2.349 -0.4320 -0.9795 -0.4161
 7908SOL    MW431366   5.728   0.685   2.299  0.2052  0.2191  0.8371
 7909SOL     OW31367   4.309   1.124   2.457 -0.0086 -0.2840  0.0682
 7909SOL    HW231368   4.380   1.188   2.452 -0.4003  0.0774 -1.4546
 7909SOL    HW331369   4.297   1.094   2.367 -0.1242 -2.2009  0.6815
 7909SOL    MW431370   4.316   1.129   2.445  0.2717 -0.3495  0.0123
 7910SOL     OW31371   5.431   2.675   2.643  0.1570 -0.2419  0.6397
 7910SOL    HW231372   5.486   2.704   2.716 -0.0079  0.8066  0.3689
 7910SOL    HW331373   5.407   2.585   2.666  0.3474 -0.0370  1.7411
 7910SOL    MW431374   5.435   2.667   2.656  0.0640  0.0102  0.3170
 7911SOL     OW31375   1.155   4.915   6.198  0.3587  0.2724 -0.1739
 7911SOL    HW231376   1.153   4.866   6.115 -0.1533 -0.5305  0.2963
 7911SOL    HW331377   1.070   4.897   6.238  0.9270 -0.0479  0.9289
 7911SOL    MW431378   1.143   4.906   6.192  0.3996 -0.1984 -0.0020
 7912SOL     OW31379   3.480   4.871   0.632  0.3313 -0.3355 -0.0310
 7912SOL    HW231380   3.498   4.777   0.640  1.2854 -0.2428 -0.9236
 7912SOL    HW331381   3.414   4.888   0.699  0.2303 -1.6190  0.2284
 7912SOL    MW431382   3.474   4.861   0.642  0.4092 -0.2642 -0.5272
 7913SOL     OW31383   6.080   4.775   2.438  0.2030 -0.3604 -0.3139
 7913SOL    HW231384   6.067   4.779   2.532  1.1795  0.9064 -0.2074
 7913SOL    HW331385   6.017   4.838   2.402 -0.5806 -1.2704 -0.5694
 7913SOL    MW431386   6.070   4.784   2.445 -0.3421  0.5201 -0.4776
 7914SOL     OW31387   4.014   5.974   2.041 -0.1172 -0.1761 -0.1998
 7914SOL    HW231388   3.996   5.886   2.074 -0.5740  0.3923  1.1468
 7914SOL    HW331389   4.065   6.016   2.110  2.1332 -0.0901 -1.8073
 7914SOL    MW431390   4.018   5.968   2.054 -0.4139  0.4547  0.0620
 7915SOL     OW31391   0.529   1.636   0.840  0.0513 -0.2524 -0.3501
 7915SOL    HW231392   0.463   1.573   0.811 -0.1086 -0.0013 -0.5302
 7915SOL    HW331393   0.534   1.700   0.770 -0.1185  0.1920  0.0411
 7915SOL    MW431394   0.521   1.636   0.827  0.2540  0.3772  0.4276
 7916SOL     OW31395   3.400   0.677   3.612  0.3977  0.2472  0.2640
 7916SOL    HW231396   3.490   0.702   3.633  1.0218 -0.7653 -1.0158
 7916SOL    HW331397   3.399   0.582   3.622 -0.2622  0.1545 -0.6092
 7916SOL    MW431398   3.412   0.668   3.616  0.0538 -0.7508  0.3265
 7917SOL     OW31399   3.548   0.328   2.981 -0.3136  0.6630  0.0877
 7917SOL    HW231400   3.575   0.251   3.032  2.5845  2.1515  0.9956
 7917SOL    HW331401   3.605   0.328   2.905  1.1159  2.8711  1.0636
 7917SOL    MW431402   3.559   0.318   2.978  0.5373 -0.1833  0.0113
 7918SOL     OW31403   0.083   3.479   0.201 -0.3910  0.3974 -0.0182
 7918SOL    HW231404   0.083   3.414   0.271  0.1035 -0.4302 -0.7639
 7918SOL    HW331405   0.076   3.564   0.246  1.3326 -0.0213  1.1183
 7918SOL    MW431406   0.082   3.482   0.216 -0.1637 -0.2862 -0.1266
 7919SOL     OW31407   1.564   5.044   0.660 -0.4525  0.6300  0.2461
 7919SOL    HW231408   1.655   5.031   0.689 -0.1717  1.0639 -0.4026
 7919SOL    HW331409   1.543   4.965   0.611 -1.0441 -0.2559  1.8708
 7919SOL    MW431410   1.574   5.032   0.657 -0.7091 -0.8856 -0.3478
 7920SOL     OW31411   5.503   1.749   0.227  0.4334 -0.0022  0.4774
 7920SOL    HW231412   5.586   1.708   0.250  0.9897  0.2507 -0.9949
 7920SOL    HW331413   5.528   1.826   0.175 -0.7140  0.1291  0.0905
 7920SOL    MW431414   5.518   1.754   0.223  0.0043  0.4542 -0.2904
 7921SOL     OW31415   0.556   0.953   1.137  0.0936  0.6130 -0.0802
 7921SOL    HW231416   0.648   0.950   1.164  0.1693 -1.5082 -0.4055
 7921SOL    HW331417   0.509   0.904   1.204 -0.5441  0.2410 -0.7762
 7921SOL    MW431418   0.562   0.946   1.149  0.5545 -0.2272  0.2303
 7922SOL     OW31419   3.646   3.283   0.641  0.4091 -0.5461 -0.1959
 7922SOL    HW231420   3.566   3.328   0.617  0.2413 -0.5151  0.4014
 7922SOL    HW331421   3.647   3.204   0.587 -1.3829 -1.9287  1.6554
 7922SOL    MW431422   3.636   3.278   0.631 -0.3445  0.4729 -0.6796
 7923SOL     OW31423   4.268   3.559   2.453  0.0152  0.1020  0.3499
 7923SOL    HW231424   4.180   3.525   2.472 -0.7142 -0.9719 -3.8574
 7923SOL    HW331425   4.306   3.494   2.394  2.4811  1.9618 -0.2751
 7923SOL    MW431426   4.261   3.546   2.447 -0.6289 -0.5264  0.8624
 7924SOL     OW31427   3.460   1.597   5.968  0.8482 -0.1853 -0.3951
 7924SOL    HW231428   3.475   1.663   6.036 -1.0274  1.2853 -1.3038
 7924SOL    HW331429   3.436   1.518   6.016  2.4465 -0.0371  0.7091
 7924SOL    MW431430   3.459   1.596   5.983  0.1517  0.0270 -0.3058
 7925SOL     OW31431   4.042   2.824   1.687  0.6565  0.1039 -0.6990
 7925SOL    HW231432   4.048   2.735   1.655 -0.1367 -0.6737  1.1503
 7925SOL    HW331433   4.127   2.864   1.664  0.8261 -0.9419 -1.9784
 7925SOL    MW431434   4.054   2.818   1.680  0.0771 -0.0614 -0.2538
 7926SOL     OW31435   3.767   4.907   4.063  0.5800  0.4469 -0.4315
 7926SOL    HW231436   3.705   4.967   4.024 -0.8110  0.9655  2.3143
 7926SOL    HW331437   3.850   4.954   4.064  0.0107  1.4619 -0.3244
 7926SOL    MW431438   3.770   4.921   4.058 -0.2281 -0.8005 -0.2426
 7927SOL     OW31439   2.495   3.177   1.517 -0.1331  0.1680  0.0239
 7927SOL    HW231440   2.484   3.150   1.425 -0.6753  0.5187 -0.0188
 7927SOL    HW331441   2.412   3.220   1.539  0.4453  1.1360  0.3233
 7927SOL    MW431442   2.482   3.179   1.508 -0.1583 -0.4976  0.0878
 7928SOL     OW31443   1.398   5.224   6.155 -0.7883 -0.5265  0.8946
 7928SOL    HW231444   1.374   5.211   6.246 -1.3925 -1.2713  0.6419
 7928SOL    HW331445   1.472   5.165   6.141  0.1520  0.5353  1.2282
 7928SOL    MW431446   1.405   5.214   6.165 -0.5332  0.1034 -0.1792
 7929SOL     OW31447   1.720   2.593   4.241  0.2503  0.0383  0.2296
 7929SOL    HW231448   1.645   2.616   4.185  0.6719 -0.2617 -0.4670
 7929SOL    HW331449   1.791   2.575   4.180  1.0748  0.9282  0.9101
 7929SOL    MW431450   1.719   2.593   4.226  0.3597  0.1923  0.2409
 7930SOL     OW31451   3.040   4.111   2.690  0.5976 -0.0258 -0.6544
 7930SOL    HW231452   3.105   4.179   2.703 -0.4001  1.1108 -1.3434
 7930SOL    HW331453   3.082   4.030   2.719  0.3645  1.3680  4.7326
 7930SOL    MW431454   3.054   4.109   2.696 -0.4383 -0.3561 -0.0146
 7931SOL     OW31455   4.147   5.246   0.587  0.7035  0.2277 -0.1352
 7931SOL    HW231456   4.182   5.331   0.614  0.4214  0.1977  0.3533
 7931SOL    HW331457   4.125   5.203   0.670  1.9130 -0.7880 -0.3215
 7931SOL    MW431458   4.149   5.252   0.602 -0.3759  0.5319 -0.1505
 7932SOL     OW31459   5.455   5.367   5.853  0.3325 -0.4216  0.2642
 7932SOL    HW231460   5.521   5.302   5.873  0.1604 -0.6625  0.0552
 7932SOL    HW331461   5.375   5.317   5.838  0.7359 -0.4275 -2.4545
 7932SOL    MW431462   5.453   5.352   5.853 -0.5569  0.2141  0.4946
 7933SOL     OW31463   0.652   0.947   5.508  0.2269  0.5331 -0.3987
 7933SOL    HW231464   0.625   0.995   5.586  2.7897  0.5517  0.5412
 7933SOL    HW331465   0.659   1.015   5.440 -2.2743  0.4765 -0.8427
 7933SOL    MW431466   0.649   0.962   5.509  0.4641 -0.3516  0.3562
 7934SOL     OW31467   4.274   1.573   1.132 -0.0482  0.1030 -0.2653
 7934SOL    HW231468   4.276   1.545   1.040  0.3278 -1.9227  0.3094
 7934SOL    HW331469   4.189   1.544   1.164  0.1780  0.0153  0.2611
 7934SOL    MW431470   4.263   1.566   1.124  0.4350  0.0539 -0.4024
 7935SOL     OW31471   0.335   6.180   6.075  0.1923  0.1500  0.0673
 7935SOL    HW231472   0.306   6.268   6.098  0.4311  0.0469  0.7994
 7935SOL    HW331473   0.303   6.125   6.146  0.7482 -0.2187  0.0374
 7935SOL    MW431474   0.327   6.184   6.088  0.2726  0.2326 -0.0392
 7936SOL     OW31475   2.597   5.819   1.391  0.1498  0.1978  0.7625
 7936SOL    HW231476   2.641   5.804   1.308  0.7742  1.1175  0.9083
 7936SOL    HW331477   2.589   5.915   1.397 -0.2077  0.1281  1.5915
 7936SOL    MW431478   2.602   5.830   1.381 -0.2799 -0.0762  0.1019
 7937SOL     OW31479   1.093   1.641   2.427 -0.0545 -0.4837  0.5370
 7937SOL    HW231480   1.145   1.705   2.476  0.0187 -1.0173  1.1567
 7937SOL    HW331481   1.157   1.595   2.373 -0.3020  1.0741 -1.1907
 7937SOL    MW431482   1.108   1.644   2.426 -0.0153 -0.5804 -1.1564
 7938SOL     OW31483   4.998   4.534   4.793 -0.0646  0.0689  0.0708
 7938SOL    HW231484   5.025   4.623   4.771  1.6116 -0.8821 -2.1033
 7938SOL    HW331485   4.907   4.530   4.764 -0.5190  1.3439  1.2011
 7938SOL    MW431486   4.989   4.545   4.786  0.1182  0.4220  0.7263
 7939SOL     OW31487   4.490   1.499   1.519  0.0043 -0.5634 -0.1308
 7939SOL    HW231488   4.564   1.464   1.470  0.0008  0.0455 -0.5883
 7939SOL    HW331489   4.509   1.593   1.527 -2.1996  0.2640 -3.0382
 7939SOL    MW431490   4.502   1.507   1.514  0.4049  0.1513  0.2595
 7940SOL     OW31491   1.170   0.596   3.002 -0.2795 -0.2755  0.0057
 7940SOL    HW231492   1.187   0.522   2.944  0.7359 -0.2487  0.2512
 7940SOL    HW331493   1.146   0.668   2.943  0.0377 -0.4467 -0.3377
 7940SOL    MW431494   1.169   0.596   2.987 -0.3230  0.0276 -0.0387
 7941SOL     OW31495   4.186   1.363   0.739  0.2530  0.7404  0.2355
 7941SOL    HW231496   4.260   1.423   0.735  0.5989  0.2664 -0.8509
 7941SOL    HW331497   4.224   1.277   0.720 -0.8144  0.7350 -2.2120
 7941SOL    MW431498   4.201   1.360   0.736  0.2643  0.1421 -0.0502
 7942SOL     OW31499   5.742   2.530   6.039 -0.2595  0.0537  0.3289
 7942SOL    HW231500   5.723   2.443   6.003 -2.1267  1.1341 -1.5640
 7942SOL    HW331501   5.837   2.539   6.032  0.0159 -1.9273  0.8931
 7942SOL    MW431502   5.752   2.520   6.033 -0.3226  0.0408 -0.3850
 7943SOL     OW31503   4.090   1.515   5.807 -0.0264 -0.0416 -0.3585
 7943SOL    HW231504   4.038   1.556   5.738 -1.0675  0.7573  0.8486
 7943SOL    HW331505   4.025   1.469   5.861  0.7327 -0.4360  0.2391
 7943SOL    MW431506   4.074   1.514   5.805 -0.4248 -0.6618  0.5770
 7944SOL     OW31507   5.472   0.972   1.659 -0.7622  0.0670  0.0450
 7944SOL    HW231508   5.523   0.957   1.580 -1.1964 -1.5704  0.0459
 7944SOL    HW331509   5.533   1.016   1.719 -0.7652  2.4024 -1.5607
 7944SOL    MW431510   5.487   0.976   1.657 -0.2305  0.3048 -0.2053
 7945SOL     OW31511   0.256   4.199   5.172  0.6698 -0.6724 -0.0945
 7945SOL    HW231512   0.232   4.281   5.130 -2.5335 -2.2277 -1.6442
 7945SOL    HW331513   0.351   4.202   5.178  0.6730  3.6737  1.2182
 7945SOL    MW431514   0.265   4.210   5.168  0.3112 -0.6184  0.0470
 7946SOL     OW31515   3.519   1.590   2.741 -0.7563 -0.0312 -0.2862
 7946SOL    HW231516   3.600   1.616   2.696  0.4673  0.2127  1.8652
 7946SOL    HW331517   3.450   1.601   2.676  0.8442  0.4700 -1.9930
 7946SOL    MW431518   3.521   1.595   2.727  0.1102  0.1859  0.0313
 7947SOL     OW31519   2.827   4.101   4.093  0.1526 -0.2474 -0.3561
 7947SOL    HW231520   2.753   4.062   4.045 -0.5250  0.2317  0.2821
 7947SOL    HW331521   2.872   4.026   4.131  0.5209 -0.6139 -1.4772
 7947SOL    MW431522   2.823   4.086   4.092  0.3517  0.2728 -0.2354
 7948SOL     OW31523   1.355   1.067   2.864 -0.1555  0.0913  0.2437
 7948SOL    HW231524   1.285   1.067   2.929  0.6749  1.5167  1.1769
 7948SOL    HW331525   1.430   1.027   2.908  0.0957  0.0395 -0.2143
 7948SOL    MW431526   1.356   1.062   2.878 -0.0491 -0.4915 -0.4862
 7949SOL     OW31527   0.013   1.530   2.173 -0.4387 -0.1939  0.2976
 7949SOL    HW231528  -0.045   1.579   2.115 -1.3876 -2.3336 -0.6477
 7949SOL    HW331529  -0.041   1.511   2.250 -0.4808 -0.8373  0.1093
 7949SOL    MW431530  -0.002   1.534   2.176 -0.1534  0.1491  0.1380
 7950SOL     OW31531   1.845   5.553   5.467 -0.7414  0.2874 -0.6225
 7950SOL    HW231532   1.798   5.471   5.451 -0.4773 -0.3060  1.3119
 7950SOL    HW331533   1.782   5.609   5.512 -1.2576  1.6113 -2.8705
 7950SOL    MW431534   1.831   5.549   5.471 -0.1260 -0.3691 -0.8641
 7951SOL     OW31535   3.851   5.891   3.777  0.2822 -0.0335  0.0922
 7951SOL    HW231536   3.841   5.821   3.713  0.2380  1.0575 -1.1331
 7951SOL    HW331537   3.775   5.948   3.763  1.4085  1.4083 -0.4360
 7951SOL    MW431538   3.840   5.889   3.767  0.1023  0.1092 -0.8096
 7952SOL     OW31539   5.807   1.341   2.967  0.4137  0.3381 -0.0594
 7952SOL    HW231540   5.779   1.390   3.044  2.6634  1.0490  0.3747
 7952SOL    HW331541   5.747   1.267   2.963 -0.5768  0.9909  1.5900
 7952SOL    MW431542   5.796   1.338   2.977 -0.0276 -0.2352  0.3329
 7953SOL     OW31543   5.646   1.660   4.040  0.2407  0.4581  0.5718
 7953SOL    HW231544   5.701   1.637   4.115  0.2813  1.2833  0.8133
 7953SOL    HW331545   5.708   1.671   3.968  0.0162 -2.4077 -0.1543
 7953SOL    MW431546   5.662   1.659   4.041 -0.0952 -0.0504  0.3946
 7954SOL     OW31547   1.388   3.094   4.639  0.1784 -0.4227 -0.4742
 7954SOL    HW231548   1.293   3.095   4.654  0.1828 -2.2385 -0.1322
 7954SOL    HW331549   1.404   3.012   4.595  1.5442  0.1462 -1.0758
 7954SOL    MW431550   1.377   3.084   4.635 -0.1193 -0.1025 -0.3478
 7955SOL     OW31551   4.945   0.340   2.157 -0.7340 -0.8407  0.2334
 7955SOL    HW231552   4.996   0.276   2.107 -0.9522  0.1765 -1.3616
 7955SOL    HW331553   4.939   0.302   2.244  3.0404 -0.8726  0.6568
 7955SOL    MW431554   4.951   0.326   2.162 -0.3564  0.0859  0.1260
 7956SOL     OW31555   1.694   2.059   5.116  0.2171  0.6200  0.0869
 7956SOL    HW231556   1.669   2.151   5.123 -0.7771  0.3918 -0.3484
 7956SOL    HW331557   1.695   2.028   5.206  1.4997  1.2885  0.3237
 7956SOL    MW431558   1.691   2.067   5.129 -0.0171 -0.0496 -0.1511
 7957SOL     OW31559   4.896   4.675   5.214 -0.1157  0.4290 -0.2743
 7957SOL    HW231560   4.853   4.595   5.183  1.1605  0.2958 -1.8727
 7957SOL    HW331561   4.855   4.745   5.163  0.5383  0.4650 -0.7689
 7957SOL    MW431562   4.885   4.673   5.203  0.4853  0.1573 -0.1709
 7958SOL     OW31563   1.494   1.471   2.761  0.5785 -0.1193 -0.5438
 7958SOL    HW231564   1.553   1.470   2.837  0.9174  0.0795 -0.8033
 7958SOL    HW331565   1.427   1.407   2.783  1.6069 -1.3297 -0.8007
 7958SOL    MW431566   1.493   1.462   2.774 -0.0598  0.2199 -0.3318
 7959SOL     OW31567   5.857   1.378   1.651  0.2686 -0.7797 -0.2536
 7959SOL    HW231568   5.858   1.387   1.556 -0.1811 -0.4939 -0.2362
 7959SOL    HW331569   5.862   1.468   1.684  1.3139 -0.9217  0.0104
 7959SOL    MW431570   5.858   1.391   1.643 -0.3758  0.7083 -0.2439
 7960SOL     OW31571   2.312   1.217   0.276 -0.3296 -0.2391 -0.1750
 7960SOL    HW231572   2.267   1.140   0.241 -2.9427  1.1421 -0.1045
 7960SOL    HW331573   2.310   1.280   0.203 -0.6962  0.6813  0.6122
 7960SOL    MW431574   2.306   1.215   0.262  0.4683 -0.7299 -0.5852
 7961SOL     OW31575   3.717   2.028   2.515  0.2680  0.1720  0.1391
 7961SOL    HW231576   3.792   2.016   2.573  0.2176  0.7367  0.3328
 7961SOL    HW331577   3.646   1.979   2.557  0.1298  0.8942  0.7701
 7961SOL    MW431578   3.717   2.020   2.528  0.3299 -0.1829  0.1177
 7962SOL     OW31579   2.688   2.903   1.388  0.2431 -0.5270 -0.0800
 7962SOL    HW231580   2.724   2.892   1.476  2.2356 -0.7036 -0.8751
 7962SOL    HW331581   2.708   2.994   1.365 -1.0605 -0.2112 -0.0380
 7962SOL    MW431582   2.695   2.914   1.397 -0.0460 -0.2767 -0.2030
 7963SOL     OW31583   4.120   2.065   2.706 -0.1637 -0.2770 -0.5403
 7963SOL    HW231584   4.122   2.005   2.781 -0.1953  1.0372  0.5623
 7963SOL    HW331585   4.179   2.027   2.642 -0.7702 -1.8691 -0.1871
 7963SOL    MW431586   4.128   2.052   2.708  0.2672 -0.2377 -0.9513
 7964SOL     OW31587   0.103   2.479   2.344 -0.0286 -0.3152 -0.3513
 7964SOL    HW231588   0.179   2.426   2.369 -0.6845 -1.9717 -1.6376
 7964SOL    HW331589   0.051   2.486   2.424  2.2945  2.4907  1.0949
 7964SOL    MW431590   0.107   2.473   2.358  0.5228 -0.3164  0.4048
 7965SOL     OW31591   4.136   6.204   5.609  0.1524 -0.3621 -0.3745
 7965SOL    HW231592   4.146   6.264   5.684  1.1826  0.2224 -0.9582
 7965SOL    HW331593   4.094   6.258   5.542 -3.5811 -1.6594  0.6668
 7965SOL    MW431594   4.132   6.219   5.610 -0.0963  0.1443  0.6268
 7966SOL     OW31595   2.554   6.372   5.107 -0.2500  0.2774  0.6384
 7966SOL    HW231596   2.599   6.299   5.064  1.9590  1.6321  0.5015
 7966SOL    HW331597   2.546   6.344   5.198  0.4114 -0.2029  0.5530
 7966SOL    MW431598   2.559   6.359   5.113 -0.0862  0.4817  0.2493
 7967SOL     OW31599   4.953   4.816   1.585  0.4701  0.4366  0.0066
 7967SOL    HW231600   5.047   4.797   1.593  0.1444 -1.6689 -0.6002
 7967SOL    HW331601   4.918   4.741   1.537 -1.6515  0.8480  0.8376
 7967SOL    MW431602   4.961   4.804   1.580  0.6613  0.5654  0.5092
 7968SOL     OW31603   5.396   4.009   6.280  0.4165 -0.0951 -0.6028
 7968SOL    HW231604   5.455   3.936   6.294  1.2001  0.4096 -1.2035
 7968SOL    HW331605   5.449   4.076   6.236 -0.9464 -0.1918 -2.5274
 7968SOL    MW431606   5.411   4.008   6.276 -0.4507  0.1113  0.0813
 7969SOL     OW31607   6.123   1.289   5.099  0.2752  0.5303 -0.1762
 7969SOL    HW231608   6.037   1.302   5.059 -0.2028 -0.3828  0.5213
 7969SOL    HW331609   6.183   1.284   5.025 -0.4489 -0.1012 -0.7379
 7969SOL    MW431610   6.119   1.290   5.084 -0.8408  0.3191 -0.0430
 7970SOL     OW31611   1.747   2.788   2.908 -0.5311  0.7077  0.5375
 7970SOL    HW231612   1.821   2.737   2.942  0.3303  1.8390  0.4119
 7970SOL    HW331613   1.788   2.860   2.860 -1.7281  1.0515  0.0119
 7970SOL    MW431614   1.762   2.790   2.907 -0.0943  0.4222  0.6591
 7971SOL     OW31615   5.393   5.836   5.190  0.3655  0.2348 -0.4702
 7971SOL    HW231616   5.330   5.908   5.193  0.4578  0.3346 -0.8123
 7971SOL    HW331617   5.469   5.874   5.145  0.4862 -0.0201 -0.4823
 7971SOL    MW431618   5.395   5.851   5.184 -0.4661 -0.0338  0.5523
 7972SOL     OW31619   0.885   5.363   0.478  0.0360 -0.2893  0.1733
 7972SOL    HW231620   0.976   5.356   0.451 -0.4460  0.2063 -1.7206
 7972SOL    HW331621   0.872   5.457   0.493  0.1848 -0.5108  1.8399
 7972SOL    MW431622   0.895   5.374   0.476 -0.5538 -0.1467 -0.1661
 7973SOL     OW31623   4.964   5.794   3.309 -0.4215 -0.1532  0.1254
 7973SOL    HW231624   5.059   5.796   3.320 -0.3177 -2.0139 -0.0292
 7973SOL    HW331625   4.949   5.830   3.222  0.3020 -1.2293 -0.4663
 7973SOL    MW431626   4.975   5.799   3.299  0.2006  0.2348  0.5307
 7974SOL     OW31627   0.209   2.519   5.719  0.2701 -0.0839  0.2009
 7974SOL    HW231628   0.245   2.462   5.652 -0.9042 -1.0270  0.3341
 7974SOL    HW331629   0.217   2.607   5.682 -1.1540 -0.6498 -1.5979
 7974SOL    MW431630   0.215   2.523   5.705 -0.2518  0.1346 -0.3239
 7975SOL     OW31631   3.585   3.786   5.557  0.1325  0.3155  0.2721
 7975SOL    HW231632   3.664   3.758   5.510  2.0405  2.2316  2.1428
 7975SOL    HW331633   3.583   3.731   5.635 -0.9497 -0.3081 -0.1609
 7975SOL    MW431634   3.595   3.775   5.561 -0.3542  0.3555 -0.0647
 7976SOL     OW31635   4.766   5.643   0.960  0.0512 -0.1622 -0.6348
 7976SOL    HW231636   4.735   5.602   0.879  2.5829  0.1268 -1.8652
 7976SOL    HW331637   4.733   5.586   1.030 -2.7098 -0.0933 -1.7647
 7976SOL    MW431638   4.758   5.630   0.959 -0.2154 -0.5904 -0.1724
 7977SOL     OW31639   5.869   6.167   5.280 -0.0089 -0.1532 -0.5426
 7977SOL    HW231640   5.833   6.082   5.304  1.2641 -0.5035  0.2122
 7977SOL    HW331641   5.880   6.162   5.185  0.0946 -0.8408 -0.5006
 7977SOL    MW431642   5.866   6.155   5.271 -0.2683  0.0811  0.0354
 7978SOL     OW31643   2.295   3.761   6.260  0.0552  0.1943 -0.3791
 7978SOL    HW231644   2.255   3.714   6.187 -0.0562 -1.5787  0.7531
 7978SOL    HW331645   2.222   3.797   6.310  0.1448  1.7616 -1.3173
 7978SOL    MW431646   2.280   3.760   6.257 -0.3520  0.5475  0.4783
 7979SOL     OW31647   2.609   3.570   6.155  0.1365 -0.4494 -1.0391
 7979SOL    HW231648   2.690   3.622   6.147 -0.0014 -0.3736 -2.1552
 7979SOL    HW331649   2.546   3.617   6.100 -0.3501 -1.1116 -1.0492
 7979SOL    MW431650   2.612   3.583   6.147  0.3771 -0.3275 -0.2504
 7980SOL     OW31651   3.060   2.744   3.153 -0.0991 -0.6060  0.0325
 7980SOL    HW231652   3.057   2.816   3.215 -1.5265  0.2751 -1.0184
 7980SOL    HW331653   3.153   2.736   3.131  0.0863  0.9226  0.1536
 7980SOL    MW431654   3.072   2.752   3.158  0.4824 -0.0318  0.0557
 7981SOL     OW31655   2.101   3.420   4.127  0.0101  0.0370 -0.4255
 7981SOL    HW231656   2.013   3.402   4.159  0.3804 -0.5047  0.2909
 7981SOL    HW331657   2.153   3.438   4.205  0.0512  2.6729 -0.9434
 7981SOL    MW431658   2.097   3.420   4.141  0.4043  0.2394 -0.0999
 7982SOL     OW31659   1.701   6.369   5.885  0.4628 -1.0528 -0.8403
 7982SOL    HW231660   1.761   6.295   5.878 -0.7513 -1.9923 -1.5938
 7982SOL    HW331661   1.721   6.423   5.809  0.6068 -1.1754 -0.8899
 7982SOL    MW431662   1.711   6.366   5.874 -0.0061  0.4016  0.0814
 7983SOL     OW31663   5.902   6.404   4.020  0.1340  0.0296 -0.4676
 7983SOL    HW231664   5.982   6.431   4.066 -1.2272  2.3146  0.7542
 7983SOL    HW331665   5.878   6.479   3.967 -1.1818 -0.6193 -0.8485
 7983SOL    MW431666   5.909   6.417   4.019 -0.1806 -1.1721  0.5445
 7984SOL     OW31667   2.910   4.279   2.064  0.4377 -0.4260  0.1743
 7984SOL    HW231668   2.878   4.246   1.980 -0.5474 -1.0741  0.7898
 7984SOL    HW331669   2.840   4.261   2.126  0.0493  2.3420  0.6645
 7984SOL    MW431670   2.897   4.273   2.061  0.6356  0.4459 -0.2189
 7985SOL     OW31671   0.945   2.886   5.337  0.0835  0.1750 -0.1043
 7985SOL    HW231672   0.865   2.915   5.380 -1.6557 -1.5860 -1.9226
 7985SOL    HW331673   0.929   2.794   5.316  1.7910  0.2652 -2.2304
 7985SOL    MW431674   0.933   2.878   5.340  0.1461 -0.1682 -0.2851
 7986SOL     OW31675   0.564   0.696   1.051  0.1518 -0.0413 -0.4794
 7986SOL    HW231676   0.571   0.791   1.067 -0.3347  0.0430 -0.7663
 7986SOL    HW331677   0.474   0.683   1.021  0.4362 -0.4897 -1.1603
 7986SOL    MW431678   0.553   0.707   1.049  0.0407 -0.0869 -0.2885
 7987SOL     OW31679   2.274   4.741   4.102 -0.2561  0.1161  0.3500
 7987SOL    HW231680   2.191   4.717   4.062  0.7402  1.4945 -2.8778
 7987SOL    HW331681   2.262   4.832   4.130  0.1587  0.3581 -0.2289
 7987SOL    MW431682   2.262   4.750   4.101 -0.5381  0.8003  0.2107
 7988SOL     OW31683   4.361   5.636   1.555 -0.2431 -0.3134  0.1417
 7988SOL    HW231684   4.293   5.698   1.581 -0.5590 -0.8851  0.7035
 7988SOL    HW331685   4.377   5.584   1.633  1.6346  0.5122  0.3690
 7988SOL    MW431686   4.354   5.638   1.569 -0.4181  0.1499 -0.3239
 7989SOL     OW31687   4.036   4.546   3.933 -0.8454  0.1499  0.0095
 7989SOL    HW231688   4.112   4.543   3.874  0.1369  1.8937  1.0996
 7989SOL    HW331689   4.014   4.454   3.948  1.3061 -0.4333 -0.0429
 7989SOL    MW431690   4.043   4.534   3.927  0.1333  0.1033  0.5711
 7990SOL     OW31691   4.380   2.028   1.735 -0.1231  0.2506 -0.1082
 7990SOL    HW231692   4.458   2.053   1.786 -0.3934  1.6298 -0.3093
 7990SOL    HW331693   4.393   1.936   1.714  2.1783  0.7659 -1.3272
 7990SOL    MW431694   4.392   2.019   1.739 -0.0649 -0.1851 -0.1230
 7991SOL     OW31695   3.898   5.608   4.081 -0.0717  0.1681  0.2474
 7991SOL    HW231696   3.895   5.543   4.152 -0.7111 -0.7569 -0.6032
 7991SOL    HW331697   3.807   5.622   4.057  0.1734 -0.1301 -0.9233
 7991SOL    MW431698   3.886   5.602   4.087  0.3179  0.0680 -0.3346
 7992SOL     OW31699   3.446   0.422   4.723 -0.1745  0.3055 -0.2293
 7992SOL    HW231700   3.398   0.480   4.663  1.6144  0.7203 -1.3567
 7992SOL    HW331701   3.534   0.460   4.726 -0.2035  0.3210  2.7558
 7992SOL    MW431702   3.451   0.435   4.715 -0.5127  0.5419 -0.4409
 7993SOL     OW31703   3.686   1.132   4.122  0.3419 -0.0236 -0.4224
 7993SOL    HW231704   3.594   1.157   4.112  0.6163  0.5134 -1.8594
 7993SOL    HW331705   3.700   1.065   4.055  0.8662 -0.4841  0.1399
 7993SOL    MW431706   3.676   1.127   4.112 -0.7879 -0.3344 -0.0620
 7994SOL     OW31707   2.719   6.244   5.994  0.3504  0.7688 -0.0928
 7994SOL    HW231708   2.637   6.202   6.019 -0.0780  0.4377 -1.8891
 7994SOL    HW331709   2.738   6.210   5.907  1.7670  1.7719 -0.2174
 7994SOL    MW431710   2.711   6.234   5.986  0.0817  0.4228  0.2590
 7995SOL     OW31711   4.989   3.094   3.371  0.4428 -0.2936  0.2043
 7995SOL    HW231712   4.971   3.053   3.455 -2.1754 -0.4141 -0.3227
 7995SOL    HW331713   4.904   3.127   3.342  1.5491  1.0467 -1.7229
 7995SOL    MW431714   4.975   3.093   3.378 -0.2164  0.5709  0.3359
 7996SOL     OW31715   1.867   2.986   4.198 -0.2744 -0.5343 -0.5277
 7996SOL    HW231716   1.935   2.956   4.258 -0.1434  0.8493  0.0374
 7996SOL    HW331717   1.909   2.985   4.112  0.7517  1.1022 -0.0814
 7996SOL    MW431718   1.881   2.982   4.195 -0.0360  0.2468 -0.2392
 7997SOL     OW31719   4.930   1.149   1.766  0.0841 -0.8688  0.0505
 7997SOL    HW231720   4.892   1.076   1.716  0.3795 -1.9335  1.3080
 7997SOL    HW331721   4.906   1.227   1.717  0.3896 -1.8527 -1.7670
 7997SOL    MW431722   4.922   1.149   1.753  0.2035 -0.0501 -0.2558
 7998SOL     OW31723   3.407   0.714   3.304  0.4096 -0.4272 -0.2468
 7998SOL    HW231724   3.430   0.762   3.384  0.8659 -2.7388  1.0894
 7998SOL    HW331725   3.393   0.624   3.333 -0.0610 -1.2142 -2.6991
 7998SOL    MW431726   3.408   0.709   3.319  0.7745 -0.6257 -0.0321
 7999SOL     OW31727   0.309   5.334   0.575 -0.6372 -0.6000 -0.4167
 7999SOL    HW231728   0.290   5.240   0.571  2.9123 -1.4357 -0.3306
 7999SOL    HW331729   0.365   5.344   0.652  0.4752  1.2585 -1.4031
 7999SOL    MW431730   0.314   5.323   0.584 -0.5652 -0.4792 -0.1541
 8000SOL     OW31731   3.593   2.114   3.871  0.0851 -0.2597 -0.2366
 8000SOL    HW231732   3.522   2.052   3.858 -0.0889  0.0165 -0.6176
 8000SOL    HW331733   3.626   2.095   3.959 -1.2505  0.4141  0.4407
 8000SOL    MW431734   3.588   2.103   3.881  0.5887  0.5729 -0.0097
 8001SOL     OW31735   2.669   1.520   5.853 -0.3081 -0.2516 -0.0627
 8001SOL    HW231736   2.729   1.592   5.869 -0.7797  0.3139 -0.8009
 8001SOL    HW331737   2.666   1.472   5.936  0.6084  0.1234  0.1906
 8001SOL    MW431738   2.676   1.523   5.866 -0.4816  0.2521 -0.1180
 8002SOL     OW31739   6.364   2.800   2.797 -0.1550 -0.3301  0.0240
 8002SOL    HW231740   6.342   2.891   2.814 -0.4564 -0.5490  0.8421
 8002SOL    HW331741   6.453   2.789   2.831  0.7248  0.1906 -2.0014
 8002SOL    MW431742   6.373   2.810   2.804 -0.7803 -0.2862 -0.3485
 8003SOL     OW31743   6.350   3.102   2.069  0.3578 -0.0729 -0.1338
 8003SOL    HW231744   6.402   3.175   2.102  2.4119 -0.4571 -2.2579
 8003SOL    HW331745   6.270   3.143   2.036  0.6069  0.9352  0.4618
 8003SOL    MW431746   6.347   3.117   2.069 -0.0386 -0.3246  0.7264
 8004SOL     OW31747   2.090   4.377   0.876 -0.2488  0.7637 -0.1750
 8004SOL    HW231748   2.002   4.342   0.888 -0.4879  1.3504 -0.1538
 8004SOL    HW331749   2.137   4.310   0.826 -0.9677  0.8054 -0.9299
 8004SOL    MW431750   2.085   4.364   0.871 -0.1562 -0.4668  0.3008
 8005SOL     OW31751   4.666   5.614   2.581 -0.1633  0.5840  0.2156
 8005SOL    HW231752   4.681   5.551   2.652  0.2174 -0.2923 -0.6163
 8005SOL    HW331753   4.571   5.627   2.580 -0.1491  0.8066  1.0408
 8005SOL    MW431754   4.656   5.607   2.591  0.2753  0.6091  0.3538
 8006SOL     OW31755   1.760   5.503   3.412  0.2664  0.4195  0.1124
 8006SOL    HW231756   1.816   5.552   3.352 -0.6302 -0.2586 -1.3326
 8006SOL    HW331757   1.816   5.485   3.488  1.7041  0.5674 -0.8706
 8006SOL    MW431758   1.775   5.507   3.414 -0.2099 -0.1357  0.4259
 8007SOL     OW31759   5.700   4.992   5.975 -0.1589  0.0477 -0.5708
 8007SOL    HW231760   5.769   4.994   6.041 -0.7920  0.9233  0.0837
 8007SOL    HW331761   5.679   5.083   5.959 -0.4857 -0.1827 -1.4882
 8007SOL    MW431762   5.706   5.004   5.982 -0.6795 -0.0172 -1.0121
 8008SOL     OW31763   3.332   4.218   2.535 -0.3440 -0.0675 -0.2912
 8008SOL    HW231764   3.347   4.126   2.556  2.3884  0.1651 -0.8996
 8008SOL    HW331765   3.292   4.217   2.448 -0.5340 -0.6717 -0.2013
 8008SOL    MW431766   3.328   4.206   2.527 -0.4433  0.1064  0.1597
 8009SOL     OW31767   4.610   2.241   3.646 -0.0577 -0.0817 -0.5079
 8009SOL    HW231768   4.673   2.233   3.718 -0.4890  1.1716  0.0272
 8009SOL    HW331769   4.664   2.238   3.567  0.7528  1.3856 -0.0513
 8009SOL    MW431770   4.626   2.239   3.645 -0.0213 -0.6952  0.5949
 8010SOL     OW31771   3.565   5.026   1.070  0.6693 -0.3375 -0.2895
 8010SOL    HW231772   3.584   5.031   0.976 -0.5197 -2.1697 -0.6640
 8010SOL    HW331773   3.535   4.937   1.084  1.7458 -0.3919  2.0458
 8010SOL    MW431774   3.563   5.015   1.059  0.4055 -0.4809  0.1537
 8011SOL     OW31775   0.372   1.889   3.311 -0.2834  0.0122 -0.3227
 8011SOL    HW231776   0.364   1.886   3.216 -0.4277 -1.7748 -0.2894
 8011SOL    HW331777   0.290   1.850   3.343  1.2280 -2.8207  0.4116
 8011SOL    MW431778   0.360   1.884   3.303  0.0744 -0.2417  0.4559
 8012SOL     OW31779   1.464   2.671   0.753  0.1046 -0.8805  0.5586
 8012SOL    HW231780   1.535   2.677   0.689 -0.9086 -0.5287 -0.5832
 8012SOL    HW331781   1.387   2.650   0.700 -0.6756 -1.0900  1.7437
 8012SOL    MW431782   1.463   2.669   0.738  0.8420 -0.0725  0.2466
 8013SOL     OW31783   0.015   1.265   3.671  0.1085  0.1773 -0.1959
 8013SOL    HW231784   0.078   1.336   3.678  0.7917 -0.5533  1.4169
 8013SOL    HW331785  -0.049   1.282   3.740 -1.5070  0.8988 -1.7944
 8013SOL    MW431786   0.015   1.276   3.681 -0.0926 -0.1050  0.4389
 8014SOL     OW31787   0.878   5.665   1.665 -0.0140 -0.3571  0.4165
 8014SOL    HW231788   0.906   5.720   1.738 -0.0402  1.1451 -0.6560
 8014SOL    HW331789   0.785   5.649   1.682 -0.5085  1.5838 -0.2085
 8014SOL    MW431790   0.869   5.670   1.677 -0.3353 -0.0588  0.5533
 8015SOL     OW31791   4.900   1.944   3.398 -0.3293 -0.5940  0.4116
 8015SOL    HW231792   4.865   2.031   3.376 -0.3865 -0.8238 -0.4571
 8015SOL    HW331793   4.992   1.960   3.418  0.0837 -0.5241 -1.3433
 8015SOL    MW431794   4.908   1.957   3.398  0.9795  0.0043  0.7473
 8016SOL     OW31795   0.486   3.797   4.826  0.3633 -0.0366 -0.3832
 8016SOL    HW231796   0.448   3.792   4.913 -0.1725  0.5660 -0.5688
 8016SOL    HW331797   0.550   3.869   4.831  0.6341 -0.2755 -0.3794
 8016SOL    MW431798   0.490   3.806   4.838 -0.1240 -0.3508 -0.1284
 8017SOL     OW31799   5.943   4.117   5.169 -0.7936  0.1330 -0.1972
 8017SOL    HW231800   5.966   4.178   5.239  0.9443 -1.5922  0.8171
 8017SOL    HW331801   5.847   4.114   5.170 -0.8226  0.6168  1.7147
 8017SOL    MW431802   5.933   4.125   5.179 -0.6726  0.5592  0.5653
 8018SOL     OW31803   0.091   6.004   0.476 -0.4912 -0.8833 -0.9740
 8018SOL    HW231804   0.159   6.021   0.410 -0.2481  1.4165 -0.2150
 8018SOL    HW331805   0.022   6.067   0.457 -0.8304 -0.8099  0.3973
 8018SOL    MW431806   0.091   6.015   0.465 -0.3918 -0.2496  0.2741
 8019SOL     OW31807   0.080   0.303   4.942  0.0182  0.8049 -0.2371
 8019SOL    HW231808   0.065   0.248   4.865  0.5559  0.3801 -0.0503
 8019SOL    HW331809   0.114   0.242   5.008  1.0873  1.4515 -0.1763
 8019SOL    MW431810   0.082   0.287   4.940 -0.2493  0.3715  0.2904
 8020SOL     OW31811   4.980   5.695   6.186  0.4451 -0.1784 -0.1714
 8020SOL    HW231812   4.927   5.704   6.107 -0.0398 -0.5992  0.1016
 8020SOL    HW331813   5.017   5.782   6.201  1.3255 -0.3173 -1.4133
 8020SOL    MW431814   4.978   5.707   6.178 -0.5835 -0.0551 -0.3788
 8021SOL     OW31815   0.175   2.804   3.017 -0.2789  0.5427  0.0278
 8021SOL    HW231816   0.222   2.758   3.087 -0.3824  2.7441  1.6651
 8021SOL    HW331817   0.239   2.867   2.983 -0.0043 -0.9416 -2.4388
 8021SOL    MW431818   0.190   2.806   3.022 -0.0790  0.2192 -0.3456
 8022SOL     OW31819   0.087   2.245   1.651  0.0986 -0.0011  0.1055
 8022SOL    HW231820   0.106   2.293   1.571  0.8896 -0.8309 -0.2230
 8022SOL    HW331821   0.060   2.158   1.621  1.2843 -0.6205  0.7433
 8022SOL    MW431822   0.086   2.240   1.636 -0.2755 -0.0757 -0.4298
 8023SOL     OW31823   5.659   1.508   3.390 -0.1285  0.2461 -0.2417
 8023SOL    HW231824   5.593   1.441   3.407  0.9797 -0.6129  0.8043
 8023SOL    HW331825   5.628   1.585   3.437 -0.2126 -0.2637  0.5530
 8023SOL    MW431826   5.646   1.509   3.398 -0.4643  0.5437  0.4032
 8024SOL     OW31827   0.322   0.886   0.098 -0.0650  0.2726 -0.8518
 8024SOL    HW231828   0.355   0.826   0.031 -0.5498  0.6853 -1.4741
 8024SOL    HW331829   0.333   0.973   0.059  1.1600  0.6484  0.2635
 8024SOL    MW431830   0.328   0.890   0.084 -0.6247 -0.3748  0.3116
 8025SOL     OW31831   2.138   2.981   6.397 -0.0464  0.0913 -0.6352
 8025SOL    HW231832   2.083   2.907   6.424 -1.5906  1.9098  1.5398
 8025SOL    HW331833   2.087   3.025   6.330  0.5929 -0.4348 -1.4800
 8025SOL    MW431834   2.124   2.977   6.392 -0.5301  0.2775  0.3551
 8026SOL     OW31835   6.094   2.189   0.113 -0.0325  0.1231  0.6658
 8026SOL    HW231836   6.106   2.095   0.103 -0.0843  0.2765 -1.4725
 8026SOL    HW331837   6.183   2.224   0.118  0.2243  0.2173 -2.5337
 8026SOL    MW431838   6.108   2.181   0.112 -0.0493  0.4094  0.2668
 8027SOL     OW31839   3.785   5.430   3.527  0.1077 -0.0403  0.3756
 8027SOL    HW231840   3.713   5.467   3.475  1.2353 -0.3092 -1.4625
 8027SOL    HW331841   3.743   5.397   3.606 -1.8918 -0.7071 -0.9003
 8027SOL    MW431842   3.770   5.431   3.531 -0.4932  0.1892 -0.1774
 8028SOL     OW31843   5.122   2.294   5.609 -0.2179 -0.2634  0.2856
 8028SOL    HW231844   5.147   2.204   5.632 -1.0491 -0.1899  1.5538
 8028SOL    HW331845   5.204   2.335   5.582  0.3066 -1.1839  0.4318
 8028SOL    MW431846   5.136   2.288   5.608 -0.1931 -0.5506  0.5134
 8029SOL     OW31847   2.791   2.086   6.331  0.2154 -0.4652 -0.2570
 8029SOL    HW231848   2.849   2.083   6.407 -0.4328  0.7880  0.3139
 8029SOL    HW331849   2.705   2.065   6.366 -0.2637  1.0992 -0.4279
 8029SOL    MW431850   2.787   2.083   6.345 -0.2046  1.6072  0.1524
 8030SOL     OW31851   1.163   4.210   6.165 -0.7403  0.2798 -0.1873
 8030SOL    HW231852   1.138   4.230   6.256 -1.8200 -1.1039 -0.1508
 8030SOL    HW331853   1.219   4.133   6.172  0.9881  1.4391 -0.5621
 8030SOL    MW431854   1.167   4.203   6.178 -0.8290 -0.3225 -0.4288
 8031SOL     OW31855   3.998   0.746   5.187 -0.6420  0.7995 -0.3732
 8031SOL    HW231856   3.930   0.682   5.169  0.3135 -0.5883  0.6414
 8031SOL    HW331857   4.030   0.773   5.101 -0.0550 -1.2628 -0.8676
 8031SOL    MW431858   3.994   0.741   5.174  0.1543 -0.3088  0.5858
 8032SOL     OW31859   3.246   5.146   3.677 -0.4250  0.1351 -0.2714
 8032SOL    HW231860   3.317   5.172   3.618  0.5759 -2.2076 -0.1746
 8032SOL    HW331861   3.209   5.068   3.637 -0.8605 -0.4980  1.3056
 8032SOL    MW431862   3.251   5.139   3.664  0.4331 -0.4168  0.1140
 8033SOL     OW31863   5.582   4.140   3.072 -0.0656 -0.7015  0.2385
 8033SOL    HW231864   5.561   4.229   3.098 -0.1935 -1.1736  1.8415
 8033SOL    HW331865   5.513   4.116   3.010  0.1356  0.3969 -0.4309
 8033SOL    MW431866   5.570   4.148   3.067 -0.2710 -0.2278 -0.3990
 8034SOL     OW31867   2.205   5.306   4.888  0.4122 -0.3172  0.4386
 8034SOL    HW231868   2.195   5.356   4.807  1.8620 -0.3398  0.2098
 8034SOL    HW331869   2.155   5.356   4.953 -3.0798 -1.7233 -0.9496
 8034SOL    MW431870   2.197   5.319   4.886  0.0050 -0.8291  0.4253
 8035SOL     OW31871   0.626   2.463   5.907  0.0156  1.0401 -0.3991
 8035SOL    HW231872   0.531   2.464   5.897 -0.1206  1.0343  0.7477
 8035SOL    HW331873   0.640   2.488   5.999  1.0932  0.6015 -0.4380
 8035SOL    MW431874   0.615   2.466   5.918 -0.4101  0.3242 -0.5722
 8036SOL     OW31875   0.197   5.252   5.685  0.2997 -0.1479 -0.4730
 8036SOL    HW231876   0.239   5.280   5.766 -0.6615 -0.8401  0.2902
 8036SOL    HW331877   0.262   5.194   5.644  0.2266 -1.0149  0.5737
 8036SOL    MW431878   0.211   5.248   5.690 -0.9792  0.2343  0.5412
 8037SOL     OW31879   2.411   2.512   5.991  0.0805 -0.0943  0.4731
 8037SOL    HW231880   2.395   2.445   5.924  0.1261 -0.3111  0.6780
 8037SOL    HW331881   2.420   2.593   5.941 -1.4811  0.0290  0.3145
 8037SOL    MW431882   2.410   2.514   5.975  0.5416 -0.8287 -0.2115
 8038SOL     OW31883   4.672   0.740   1.171 -0.1917 -0.2785 -0.4629
 8038SOL    HW231884   4.577   0.752   1.166  0.0408  1.7759 -0.6912
 8038SOL    HW331885   4.706   0.786   1.094  1.0870  0.2309  0.3772
 8038SOL    MW431886   4.664   0.747   1.160 -0.2434 -0.9356  0.4649
 8039SOL     OW31887   1.784   5.070   2.185 -0.1900  0.4339 -0.1286
 8039SOL    HW231888   1.820   5.031   2.105  1.1933  3.2215 -1.0024
 8039SOL    HW331889   1.800   5.164   2.175 -0.6225  0.9674  3.1184
 8039SOL    MW431890   1.791   5.077   2.173 -0.6630 -0.1470 -0.0372
 8040SOL     OW31891   4.578   1.642   5.658  0.8733 -0.1602 -0.3704
 8040SOL    HW231892   4.670   1.617   5.659  1.2933  1.2618 -0.6513
 8040SOL    HW331893   4.578   1.735   5.683 -0.3879  0.1374 -1.3605
 8040SOL    MW431894   4.590   1.651   5.662  0.1725 -0.1149  0.1840
 8041SOL     OW31895   5.916   2.253   5.285 -0.4096  0.3078  0.4442
 8041SOL    HW231896   5.850   2.315   5.256 -1.3763  0.3445  2.5557
 8041SOL    HW331897   5.957   2.295   5.361  0.0626 -0.9273  0.8972
 8041SOL    MW431898   5.913   2.267   5.292 -0.5693 -0.6260 -0.3714
 8042SOL     OW31899   4.928   5.884   4.090  0.2764  0.4556  0.2845
 8042SOL    HW231900   4.973   5.843   4.164 -0.4428 -0.6179  0.1512
 8042SOL    HW331901   4.997   5.930   4.043  1.3340 -1.4183 -0.1015
 8042SOL    MW431902   4.943   5.885   4.094 -0.9037 -0.6618 -0.0005
 8043SOL     OW31903   6.204   0.772   3.315 -0.3967 -0.0540  0.0285
 8043SOL    HW231904   6.176   0.728   3.395 -2.7255  3.4999  1.4058
 8043SOL    HW331905   6.289   0.809   3.336 -0.1077 -0.7853  0.1562
 8043SOL    MW431906   6.211   0.771   3.328  0.4191  0.5985 -0.2524
 8044SOL     OW31907   0.064   0.575   5.985  0.1046 -1.0909  0.1225
 8044SOL    HW231908   0.031   0.613   5.903  1.2366  0.4700  0.3546
 8044SOL    HW331909  -0.003   0.596   6.050 -0.5791 -1.9341 -0.2939
 8044SOL    MW431910   0.051   0.583   5.983  0.0232  0.5524  0.1376
 8045SOL     OW31911   4.501   1.231   3.065  0.4832  0.4394  0.2909
 8045SOL    HW231912   4.532   1.321   3.070  0.6640  0.4609 -0.8093
 8045SOL    HW331913   4.407   1.237   3.080  0.5534  0.7604  0.6134
 8045SOL    MW431914   4.493   1.244   3.067 -0.9639  0.0828 -0.4692
 8046SOL     OW31915   4.397   2.312   0.122 -0.2609  0.8127 -0.3744
 8046SOL    HW231916   4.304   2.298   0.135 -0.3967 -2.7997 -3.4376
 8046SOL    HW331917   4.412   2.293   0.029  3.4386  1.9864 -0.2128
 8046SOL    MW431918   4.387   2.308   0.112 -0.1835 -0.6506  0.6623
 8047SOL     OW31919   3.219   2.218   5.792  0.0610 -0.5816  0.1341
 8047SOL    HW231920   3.141   2.172   5.823  0.0085 -1.8463 -1.6803
 8047SOL    HW331921   3.218   2.204   5.697  1.2586  1.3584 -0.2160
 8047SOL    MW431922   3.209   2.210   5.783  0.5935  0.4962  0.2335
 8048SOL     OW31923   5.505   5.701   2.052  0.1212 -0.3759  0.5863
 8048SOL    HW231924   5.433   5.637   2.055  0.4741 -0.8847 -0.8035
 8048SOL    HW331925   5.461   5.785   2.062 -0.8525 -0.6043 -1.1715
 8048SOL    MW431926   5.490   5.703   2.053 -0.3374 -0.0169 -0.6582
 8049SOL     OW31927   2.528   2.857   2.539  0.0534  0.1049 -0.2520
 8049SOL    HW231928   2.491   2.931   2.587 -0.6356 -1.2551  1.4300
 8049SOL    HW331929   2.494   2.866   2.450 -3.5460 -0.4035  0.8943
 8049SOL    MW431930   2.519   2.868   2.533 -0.3685  0.2114  0.3885
 8050SOL     OW31931   1.831   4.931   2.827 -0.1952  0.3294 -0.2746
 8050SOL    HW231932   1.845   4.968   2.914  1.4416 -0.2725 -0.2438
 8050SOL    HW331933   1.786   5.000   2.779 -1.5552  0.4987  1.1573
 8050SOL    MW431934   1.827   4.945   2.832  0.0692 -0.1644 -0.2851
 8051SOL     OW31935   5.185   3.257   4.458 -0.2750  0.3587 -0.2144
 8051SOL    HW231936   5.176   3.318   4.385 -1.1341  0.2681 -0.2030
 8051SOL    HW331937   5.223   3.309   4.529  0.1178  0.5702 -0.5783
 8051SOL    MW431938   5.189   3.272   4.458  0.8320 -0.0313 -0.1237
 8052SOL     OW31939   5.550   5.970   3.877  0.1233  0.6650  0.7012
 8052SOL    HW231940   5.530   6.024   3.801  1.2027  0.7366  0.4477
 8052SOL    HW331941   5.465   5.950   3.916 -0.3649  1.6050  0.1523
 8052SOL    MW431942   5.536   5.974   3.872 -0.2079 -0.6760  0.2643
 8053SOL     OW31943   3.456   4.313   6.427  0.1640 -0.7207 -0.3903
 8053SOL    HW231944   3.527   4.370   6.398  1.0623 -1.8231 -0.4136
 8053SOL    HW331945   3.388   4.323   6.360 -0.5264  1.7406  0.5484
 8053SOL    MW431946   3.456   4.322   6.414  0.2720  0.4079 -0.0691
 8054SOL     OW31947   1.004   1.498   0.738  0.1503  0.5075  0.0130
 8054SOL    HW231948   1.098   1.507   0.721  0.0700  2.6465  0.4459
 8054SOL    HW331949   0.999   1.442   0.815  1.0307 -0.0569 -0.3235
 8054SOL    MW431950   1.016   1.492   0.746 -0.1364 -0.6233 -0.2552
 8055SOL     OW31951   3.453   0.872   0.917 -0.1268 -0.0080 -0.1705
 8055SOL    HW231952   3.483   0.861   0.826  1.5327  1.5722  0.1284
 8055SOL    HW331953   3.485   0.958   0.942 -3.4589  1.0521  0.8542
 8055SOL    MW431954   3.461   0.882   0.908  0.7967  0.0956  0.0661
 8056SOL     OW31955   2.950   6.015   2.282 -0.0655 -0.4984  0.3479
 8056SOL    HW231956   2.917   6.003   2.371  0.6933  1.0952  0.8711
 8056SOL    HW331957   2.872   6.031   2.229 -0.3341  1.8627  1.3356
 8056SOL    MW431958   2.936   6.015   2.287 -0.2082  0.0080  0.4986
 8057SOL     OW31959   1.936   3.485   2.946  0.0785  0.0263  0.3053
 8057SOL    HW231960   1.945   3.432   3.025 -0.9327  0.3856  0.6762
 8057SOL    HW331961   1.877   3.556   2.971 -0.2814  0.1292 -0.7775
 8057SOL    MW431962   1.929   3.487   2.960 -0.1289  0.0863 -0.1133
 8058SOL     OW31963   6.283   5.702   4.189  0.0654 -0.4166  0.3458
 8058SOL    HW231964   6.288   5.774   4.251  0.2989 -0.4479  0.3638
 8058SOL    HW331965   6.250   5.628   4.240 -0.5212 -0.2292  0.2439
 8058SOL    MW431966   6.279   5.702   4.204 -0.3321  0.5404 -0.3349
 8059SOL     OW31967   4.402   5.680   5.485  0.8517  0.6321 -0.2680
 8059SOL    HW231968   4.459   5.661   5.559 -0.1208  1.3280  0.6829
 8059SOL    HW331969   4.459   5.722   5.421  2.3341 -2.3644 -1.0970
 8059SOL    MW431970   4.417   5.683   5.486 -0.4109 -0.2161  0.5045
 8060SOL     OW31971   1.684   3.206   3.985  0.0220  0.0054  0.4197
 8060SOL    HW231972   1.685   3.116   3.952 -0.3362  0.0278  0.3465
 8060SOL    HW331973   1.607   3.211   4.042  0.2612  0.1560  0.7337
 8060SOL    MW431974   1.674   3.195   3.988 -0.4725  1.1002 -0.0578
 8061SOL     OW31975   2.342   0.131   4.958 -0.5833 -0.0137 -0.1950
 8061SOL    HW231976   2.376   0.112   4.870 -1.3801 -0.2046 -0.4631
 8061SOL    HW331977   2.388   0.070   5.015 -1.1776 -0.9326 -0.6874
 8061SOL    MW431978   2.353   0.121   4.954  0.2892 -0.1649 -0.1623
 8062SOL     OW31979   5.649   2.038   4.377 -0.0003 -0.3472  0.6432
 8062SOL    HW231980   5.570   2.013   4.425 -0.1511 -2.6234 -0.6364
 8062SOL    HW331981   5.625   2.118   4.331 -1.1096 -0.2809  1.2952
 8062SOL    MW431982   5.636   2.045   4.377 -0.5487 -0.2713 -0.1431
 8063SOL     OW31983   2.111   6.082   4.364  0.6967  0.2781 -0.1107
 8063SOL    HW231984   2.119   6.028   4.285 -0.2600 -0.1381  0.0564
 8063SOL    HW331985   2.148   6.166   4.340 -1.3495  0.8120 -1.6764
 8063SOL    MW431986   2.117   6.086   4.351 -0.0624  0.5934 -0.2038
 8064SOL     OW31987   0.065   2.741   0.894  0.4754 -0.6452  0.2802
 8064SOL    HW231988  -0.023   2.706   0.908  0.7403 -0.9655  1.2653
 8064SOL    HW331989   0.108   2.677   0.838 -0.1362 -0.1193 -0.8184
 8064SOL    MW431990   0.059   2.728   0.888 -0.1495  0.5315  0.7847
 8065SOL     OW31991   0.835   5.339   0.208 -0.1968 -0.7876 -0.5013
 8065SOL    HW231992   0.754   5.296   0.182 -0.0353 -1.2488 -0.2524
 8065SOL    HW331993   0.834   5.336   0.304  0.2831 -1.1203 -0.5003
 8065SOL    MW431994   0.824   5.333   0.217 -0.7413 -0.4149  0.4726
 8066SOL     OW31995   3.419   0.559   6.399 -0.0484 -0.2158 -0.0614
 8066SOL    HW231996   3.464   0.516   6.326 -1.1014 -0.5123 -0.5637
 8066SOL    HW331997   3.384   0.487   6.452 -0.1684  0.0062  0.1640
 8066SOL    MW431998   3.420   0.544   6.396 -0.2686 -0.6497  0.0981
 8067SOL     OW31999   4.509   1.147   6.241 -0.5167  0.3584 -0.3663
 8067SOL    HW232000   4.599   1.136   6.274 -0.8692 -1.0277  0.2142
 8067SOL    HW332001   4.494   1.241   6.244  1.2434  0.7239 -1.3552
 8067SOL    MW432002   4.519   1.158   6.245  0.6863 -0.0099 -0.6687
 8068SOL     OW32003   1.532   0.973   5.032  0.1143  0.3614  0.0921
 8068SOL    HW232004   1.497   1.061   5.022 -0.2165  0.0451 -2.0675
 8068SOL    HW332005   1.626   0.985   5.042  0.0288  0.9663  0.1912
 8068SOL    MW432006   1.540   0.986   5.032  0.4416  0.2066  0.4878
 8069SOL     OW32007   1.958   4.833   4.241 -0.3474 -0.0791 -0.7692
 8069SOL    HW232008   1.889   4.827   4.175 -0.5017  0.1251 -0.6267
 8069SOL    HW332009   1.985   4.742   4.255  0.1442 -0.0674 -1.5874
 8069SOL    MW432010   1.953   4.820   4.234  0.1436  0.1032  0.3570
 8070SOL     OW32011   6.163   0.335   3.583 -0.2332  0.0085 -0.6903
 8070SOL    HW232012   6.223   0.323   3.509  0.1210  0.3685 -0.4679
 8070SOL    HW332013   6.135   0.426   3.576  1.4899  0.7418  0.8292
 8070SOL    MW432014   6.168   0.345   3.572 -0.4926  0.1809  0.6221
 8071SOL     OW32015   3.712   2.917   1.142  0.1574 -0.1105 -0.2441
 8071SOL    HW232016   3.676   2.847   1.196 -0.9242 -0.7654 -1.7826
 8071SOL    HW332017   3.805   2.896   1.134 -0.1475 -1.3260 -0.6403
 8071SOL    MW432018   3.719   2.905   1.148 -0.3890  1.0238  0.0531
 8072SOL     OW32019   0.318   1.508   1.615 -0.0111  0.0576 -0.1048
 8072SOL    HW232020   0.293   1.512   1.522  2.1124 -1.8570 -0.8520
 8072SOL    HW332021   0.274   1.429   1.647  1.2840 -0.7439 -0.2249
 8072SOL    MW432022   0.309   1.498   1.607 -0.2094 -0.6238  0.3010
 8073SOL     OW32023   2.173   1.420   2.906 -0.1493 -0.2495 -0.4019
 8073SOL    HW232024   2.194   1.400   2.815  1.5905 -0.0539 -0.0856
 8073SOL    HW332025   2.146   1.512   2.905  0.4674 -0.0681 -0.6378
 8073SOL    MW432026   2.172   1.430   2.894  0.2747 -0.0696 -0.2222
 8074SOL     OW32027   4.152   5.251   4.210 -0.5094  0.1635  0.0744
 8074SOL    HW232028   4.082   5.312   4.237 -0.4469  0.1428  0.2895
 8074SOL    HW332029   4.170   5.200   4.289  1.3424  1.6866  0.7176
 8074SOL    MW432030   4.145   5.252   4.224  0.6008 -0.0288  0.8830
 8075SOL     OW32031   1.000   5.503   5.214  0.1324 -0.3723 -0.2857
 8075SOL    HW232032   1.070   5.521   5.277 -1.1298  0.9603  0.7821
 8075SOL    HW332033   0.945   5.438   5.257 -0.6845  0.4761 -0.0270
 8075SOL    MW432034   1.002   5.497   5.228  0.8831  0.7950  0.1487
 8076SOL     OW32035   5.382   3.477   2.310 -0.0611  0.2593  0.4916
 8076SOL    HW232036   5.449   3.476   2.378 -0.5111  0.1997  0.9321
 8076SOL    HW332037   5.300   3.489   2.356 -0.4171 -0.2411  0.0044
 8076SOL    MW432038   5.380   3.478   2.325  0.5609 -0.4899 -0.1144
 8077SOL     OW32039   4.915   3.549   4.916  0.5930 -0.2010  0.3383
 8077SOL    HW232040   4.885   3.542   4.826  0.9651 -0.0986  0.2050
 8077SOL    HW332041   5.009   3.564   4.909  0.5383  0.3656  0.7282
 8077SOL    MW432042   4.924   3.550   4.903  0.2821 -0.0398 -0.2168
 8078SOL     OW32043   3.012   5.793   3.317  0.1547  0.5192 -0.1848
 8078SOL    HW232044   3.086   5.799   3.256 -0.5736  0.0357 -1.1423
 8078SOL    HW332045   2.955   5.866   3.292 -0.4383 -0.0465 -0.4969
 8078SOL    MW432046   3.015   5.804   3.305  1.4856  0.1106 -0.4065
 8079SOL     OW32047   1.990   2.294   3.314 -0.1490  0.2423  0.3611
 8079SOL    HW232048   1.914   2.279   3.258 -0.0927  1.4681 -0.0632
 8079SOL    HW332049   2.065   2.272   3.258 -0.1707 -2.4771  1.2479
 8079SOL    MW432050   1.990   2.289   3.299 -0.2910 -0.7167 -0.1619
 8080SOL     OW32051   2.644   4.691   6.157 -0.1340  0.3136  0.0560
 8080SOL    HW232052   2.645   4.749   6.233 -0.5192  0.8632 -0.3470
 8080SOL    HW332053   2.736   4.684   6.131  0.3023 -1.5875  1.8122
 8080SOL    MW432054   2.656   4.698   6.164  0.0225 -0.4710 -0.3536
 8081SOL     OW32055   0.856   0.274   3.711  0.0107  0.5672 -0.8301
 8081SOL    HW232056   0.945   0.303   3.733  0.4745 -0.6109 -1.0592
 8081SOL    HW332057   0.865   0.235   3.624 -0.7075  0.3054 -0.7906
 8081SOL    MW432058   0.869   0.273   3.702 -0.2132 -0.6829 -0.0046
 8082SOL     OW32059   3.718   4.436   5.192  0.6918  0.5938  0.4391
 8082SOL    HW232060   3.696   4.344   5.205 -1.7813  1.2044  1.1301
 8082SOL    HW332061   3.801   4.434   5.144  0.0389 -1.9994 -0.7837
 8082SOL    MW432062   3.726   4.424   5.187 -0.2095  0.7330  0.1929
 8083SOL     OW32063   1.248   3.610   2.483  0.3981 -0.1276 -0.1140
 8083SOL    HW232064   1.217   3.549   2.551  1.3776  0.7406  1.1642
 8083SOL    HW332065   1.327   3.649   2.520 -0.5435  2.4297 -0.5860
 8083SOL    MW432066   1.254   3.607   2.497 -0.1243 -0.5398  0.2964
 8084SOL     OW32067   2.082   6.027   1.337  0.3748  0.9165 -0.2557
 8084SOL    HW232068   1.994   5.991   1.324  0.2204  0.9290  0.7045
 8084SOL    HW332069   2.090   6.038   1.432  1.7901 -0.0463 -0.2337
 8084SOL    MW432070   2.072   6.024   1.348  0.3548  0.1956  0.1513
 8085SOL     OW32071   6.405   6.434   1.345 -0.4273  0.1128 -0.3709
 8085SOL    HW232072   6.373   6.356   1.300 -1.1299  0.3139 -0.2319
 8085SOL    HW332073   6.362   6.507   1.300 -2.5023  0.2564  1.6591
 8085SOL    MW432074   6.395   6.434   1.333 -0.0966  0.5089 -0.3674
 8086SOL     OW32075   4.886   3.211   5.935  0.0971  0.0130  0.1357
 8086SOL    HW232076   4.957   3.265   5.899 -1.0238  0.5164 -1.4379
 8086SOL    HW332077   4.930   3.150   5.994  1.6189  1.4418  0.5639
 8086SOL    MW432078   4.901   3.210   5.938 -0.5358 -0.0988  0.1146
 8087SOL     OW32079   4.789   4.891   5.058 -0.3490 -0.0486 -0.1504
 8087SOL    HW232080   4.845   4.952   5.011  0.3165 -0.1030  0.5536
 8087SOL    HW332081   4.756   4.941   5.132 -0.2705 -0.3727  0.1026
 8087SOL    MW432082   4.792   4.905   5.061 -0.0714 -0.0851  0.4573
 8088SOL     OW32083   3.915   0.851   1.342  0.0573  0.4337  0.3331
 8088SOL    HW232084   3.821   0.851   1.324  0.1339 -1.3546 -0.2742
 8088SOL    HW332085   3.923   0.801   1.423  0.6099 -1.1589 -0.6627
 8088SOL    MW432086   3.903   0.845   1.350  0.6232  0.3623  0.3468
 8089SOL     OW32087   2.151   0.618   1.696  0.1525  0.1915 -0.3862
 8089SOL    HW232088   2.065   0.636   1.736  0.0841 -0.4074 -0.2579
 8089SOL    HW332089   2.166   0.525   1.713  1.8365  0.7426  1.5420
 8089SOL    MW432090   2.141   0.608   1.704  0.2301 -0.3862 -0.4264
 8090SOL     OW32091   4.973   0.665   3.945  0.0795  0.3081  0.2583
 8090SOL    HW232092   4.916   0.734   3.911 -0.9062  0.0210  1.2805
 8090SOL    HW332093   4.914   0.598   3.977  1.0044 -1.5518 -1.6450
 8090SOL    MW432094   4.958   0.666   3.944  0.8296 -0.3052  0.1716
 8091SOL     OW32095   0.807   5.465   2.874 -0.0515 -0.4635  0.0498
 8091SOL    HW232096   0.842   5.398   2.934 -1.0112 -0.8015  0.2598
 8091SOL    HW332097   0.790   5.540   2.930  2.0030  0.3711 -0.3587
 8091SOL    MW432098   0.810   5.466   2.889 -0.8058 -0.1893 -0.0316
 8092SOL     OW32099   1.879   0.051   3.503  0.3411  0.1690 -0.4292
 8092SOL    HW232100   1.809  -0.012   3.522 -0.3489  0.7406 -1.0221
 8092SOL    HW332101   1.860   0.082   3.414  1.6447 -0.0397 -0.8083
 8092SOL    MW432102   1.867   0.046   3.494 -0.1653 -0.1723 -0.2978
 8093SOL     OW32103   6.207   3.857   3.461  0.0674  0.0106  0.1785
 8093SOL    HW232104   6.296   3.892   3.454 -0.0893  0.4519  0.3964
 8093SOL    HW332105   6.205   3.816   3.548  0.1700 -0.3297  0.0255
 8093SOL    MW432106   6.219   3.856   3.471  0.4807 -0.1129  0.0825
 8094SOL     OW32107   1.597   0.332   0.635  0.1088 -0.0036  0.1792
 8094SOL    HW232108   1.598   0.399   0.704 -0.1354  0.9149 -0.6894
 8094SOL    HW332109   1.658   0.265   0.667  0.2909  0.5798  1.1082
 8094SOL    MW432110   1.605   0.332   0.648 -0.5253 -0.4760  0.2304
 8095SOL     OW32111   5.387   6.169   0.459 -0.3714 -0.1099  0.3072
 8095SOL    HW232112   5.332   6.194   0.384  0.8297  0.2939 -0.4766
 8095SOL    HW332113   5.435   6.249   0.480 -0.0327 -0.4749  0.9315
 8095SOL    MW432114   5.386   6.183   0.452 -0.1096  0.1641  0.1361
 8096SOL     OW32115   2.009   4.294   3.140  0.2974  0.2373 -0.0937
 8096SOL    HW232116   2.103   4.282   3.149 -0.0472 -1.4726  2.2952
 8096SOL    HW332117   1.971   4.238   3.208 -2.4489  0.9629 -0.8899
 8096SOL    MW432118   2.016   4.285   3.150  0.3794 -0.4010  0.2072
 8097SOL     OW32119   1.396   3.809   5.014  0.3414 -0.0974 -0.2829
 8097SOL    HW232120   1.366   3.838   5.100  1.2417 -2.8952  1.1021
 8097SOL    HW332121   1.331   3.743   4.988 -1.1989  2.2402 -2.9068
 8097SOL    MW432122   1.383   3.804   5.022 -0.0162 -0.2420 -0.1721
 8098SOL     OW32123   4.019   6.007   1.722  0.4709  0.2659  0.1017
 8098SOL    HW232124   4.075   6.082   1.705 -0.7064  1.5226  1.5246
 8098SOL    HW332125   4.004   6.009   1.816 -0.5458 -1.0720  0.0003
 8098SOL    MW432126   4.024   6.017   1.732 -0.1009  0.0560 -0.1886
 8099SOL     OW32127   1.987   1.042   0.474  0.3104  1.0075  0.0649
 8099SOL    HW232128   2.055   0.976   0.492  0.4264  0.7041 -1.3517
 8099SOL    HW332129   1.968   1.081   0.560  1.3006  0.1577  0.6985
 8099SOL    MW432130   1.994   1.038   0.488 -0.3956 -0.0978 -0.5180
 8100SOL     OW32131   6.303   3.639   3.142 -0.2461 -0.5104  1.2529
 8100SOL    HW232132   6.308   3.575   3.071 -1.5751  2.0128 -1.3180
 8100SOL    HW332133   6.212   3.638   3.170  0.0865 -0.8748  2.3878
 8100SOL    MW432134   6.292   3.631   3.136 -0.4029  0.1702  0.5944
 8101SOL     OW32135   6.165   1.922   2.375 -0.4467  0.3477 -0.3449
 8101SOL    HW232136   6.230   1.876   2.429 -0.9031  0.1367  0.0307
 8101SOL    HW332137   6.217   1.983   2.323  0.1250 -0.2936 -0.5433
 8101SOL    MW432138   6.181   1.924   2.375  0.0276  0.4351  0.1388
 8102SOL     OW32139   4.689   1.123   4.126  0.0734 -0.1572 -0.3069
 8102SOL    HW232140   4.729   1.121   4.213  1.1072  0.8842 -0.7345
 8102SOL    HW332141   4.687   1.215   4.102 -1.7997 -0.2554 -0.6948
 8102SOL    MW432142   4.694   1.135   4.134 -0.2588 -0.5815 -0.1287
 8103SOL     OW32143   0.442   2.730   6.082 -0.5752  0.2285 -0.1335
 8103SOL    HW232144   0.403   2.649   6.050 -0.9195  0.3620 -0.0490
 8103SOL    HW332145   0.370   2.793   6.085 -0.9007 -0.1580  2.2854
 8103SOL    MW432146   0.428   2.727   6.078 -0.0306 -0.1221 -0.5826
 8104SOL     OW32147   5.226   4.953   1.398  0.4667 -0.2137 -0.8624
 8104SOL    HW232148   5.237   4.933   1.305  2.1111 -1.0923 -0.5173
 8104SOL    HW332149   5.298   5.013   1.418 -0.4084  0.6936 -0.3304
 8104SOL    MW432150   5.237   4.958   1.388 -0.5982 -0.1138 -0.1552
 8105SOL     OW32151   6.269   2.922   1.783 -0.4578  0.0366 -0.2155
 8105SOL    HW232152   6.276   2.832   1.813 -0.0476  0.0856 -0.1474
 8105SOL    HW332153   6.341   2.968   1.828 -0.1649  0.2202 -0.8545
 8105SOL    MW432154   6.280   2.916   1.793 -0.7518  0.2941  0.5759
 8106SOL     OW32155   5.625   3.840   5.790 -0.2983  0.1353 -0.4038
 8106SOL    HW232156   5.597   3.931   5.779 -1.0234 -0.3292 -3.3494
 8106SOL    HW332157   5.553   3.799   5.837 -0.0766  0.9782  0.7309
 8106SOL    MW432158   5.612   3.847   5.795 -0.4297  0.3211  0.4065
 8107SOL     OW32159   5.579   1.098   4.710 -0.2383 -0.3689  0.6316
 8107SOL    HW232160   5.607   1.007   4.699  0.1511 -0.6866  3.4595
 8107SOL    HW332161   5.534   1.099   4.794 -1.1833  1.8764  0.1651
 8107SOL    MW432162   5.577   1.086   4.720 -0.0222  0.0156 -0.1262
 8108SOL     OW32163   3.986   0.116   2.217  0.1350  0.1495  0.7870
 8108SOL    HW232164   3.966   0.026   2.191 -0.9580  0.9482 -1.4236
 8108SOL    HW332165   4.060   0.108   2.278  1.8968 -2.0980 -1.4292
 8108SOL    MW432166   3.993   0.103   2.222  0.1009  0.0816 -0.1047
 8109SOL     OW32167   2.953   4.926   2.731  0.4316  0.4273 -0.3398
 8109SOL    HW232168   2.869   4.882   2.720  0.7067 -0.2549  0.2774
 8109SOL    HW332169   2.956   4.989   2.658 -0.6066  0.4655 -0.3645
 8109SOL    MW432170   2.943   4.929   2.720  0.4014 -0.0381  0.0711
 8110SOL     OW32171   2.657   2.345   1.955 -0.0549  0.0687 -0.3791
 8110SOL    HW232172   2.582   2.304   1.997  1.1847 -1.7453  0.1812
 8110SOL    HW332173   2.682   2.417   2.013 -2.1274  1.6019 -1.2610
 8110SOL    MW432174   2.650   2.349   1.968  0.3794  0.1712 -0.1578
 8111SOL     OW32175   4.544   2.971   0.390 -0.0393 -0.0278  0.1873
 8111SOL    HW232176   4.478   2.909   0.358 -1.1147  0.8379  0.6802
 8111SOL    HW332177   4.572   3.019   0.312 -0.5045  0.0770  0.0851
 8111SOL    MW432178   4.539   2.969   0.376  0.0934 -0.2284  0.0146
 8112SOL     OW32179   0.957   0.234   4.372 -0.8193  0.6129 -0.4353
 8112SOL    HW232180   0.861   0.239   4.373 -0.9968 -1.7366  0.5452
 8112SOL    HW332181   0.976   0.149   4.334  0.9057  1.0375 -0.6132
 8112SOL    MW432182   0.947   0.224   4.367 -0.0818 -0.0221 -0.1902
 8113SOL     OW32183   6.031   5.296   3.647 -0.3524  0.1487 -0.1729
 8113SOL    HW232184   6.023   5.381   3.604 -0.5266 -0.7219 -1.9749
 8113SOL    HW332185   6.125   5.278   3.649 -0.3794 -0.1274 -0.9171
 8113SOL    MW432186   6.042   5.305   3.641  0.5978  0.0025  0.0605
 8114SOL     OW32187   6.039   1.473   5.603 -0.3323 -0.4082 -0.3642
 8114SOL    HW232188   5.997   1.411   5.544  2.1011 -0.2850 -2.3780
 8114SOL    HW332189   6.064   1.421   5.679  1.2948 -1.9175 -1.8387
 8114SOL    MW432190   6.037   1.458   5.605 -0.1957  0.0651  0.0429
 8115SOL     OW32191   2.403   2.115   0.877  0.7944 -0.2032 -0.3239
 8115SOL    HW232192   2.438   2.025   0.876  2.2540  0.2797 -3.4002
 8115SOL    HW332193   2.359   2.124   0.793 -0.0327  1.7529  0.2789
 8115SOL    MW432194   2.401   2.104   0.866  0.5342  0.4887  0.5785
 8116SOL     OW32195   0.922   4.515   0.607  0.3592  0.9721 -0.5360
 8116SOL    HW232196   1.015   4.491   0.609 -0.3390 -2.2011  1.0893
 8116SOL    HW332197   0.921   4.608   0.628  3.1565  1.1291 -0.7038
 8116SOL    MW432198   0.934   4.524   0.610  0.2943  0.1010  0.0428
 8117SOL     OW32199   3.621   4.448   4.916  0.0295 -0.0318  0.2205
 8117SOL    HW232200   3.597   4.400   4.995  1.0118 -0.4829  0.2669
 8117SOL    HW332201   3.605   4.386   4.845  1.4442 -0.5296  0.2932
 8117SOL    MW432202   3.616   4.433   4.917  0.0103 -0.1242  0.1001
 8118SOL     OW32203   5.153   6.013   5.219 -0.3643  0.7837  0.0216
 8118SOL    HW232204   5.092   5.996   5.147 -1.3774  0.7102  0.8736
 8118SOL    HW332205   5.114   5.968   5.295  0.8057  0.6552  0.5643
 8118SOL    MW432206   5.140   6.005   5.220 -0.2344 -0.2145 -0.2290
 8119SOL     OW32207   0.093   5.482   6.222 -0.0897  0.0292 -0.0284
 8119SOL    HW232208   0.035   5.558   6.223  1.5012  1.3184  2.0734
 8119SOL    HW332209   0.051   5.419   6.281 -0.4038  0.0993 -0.1763
 8119SOL    MW432210   0.080   5.483   6.230  0.5389  0.3324  0.5566
 8120SOL     OW32211   2.182   5.692   0.128 -0.0085  0.1691  0.1374
 8120SOL    HW232212   2.223   5.609   0.152 -1.0572 -0.4481 -0.1631
 8120SOL    HW332213   2.155   5.681   0.037 -0.8524  0.5514  0.3314
 8120SOL    MW432214   2.184   5.680   0.119  0.2259 -0.0170  0.2851
 8121SOL     OW32215   3.619   0.330   1.099  0.0353  0.4184 -0.2347
 8121SOL    HW232216   3.713   0.327   1.078  0.0416 -0.5634 -0.1497
 8121SOL    HW332217   3.602   0.421   1.123  0.8189  0.7594 -0.9135
 8121SOL    MW432218   3.629   0.341   1.099  0.3072  0.3057  0.1791
 8122SOL     OW32219   2.544   0.194   3.620  0.5188  0.4263 -0.2287
 8122SOL    HW232220   2.535   0.220   3.529  0.5872 -0.6801 -0.5632
 8122SOL    HW332221   2.481   0.250   3.667  1.5886  2.1136 -0.7006
 8122SOL    MW432222   2.534   0.205   3.615 -0.4960  0.2482 -0.0562
 8123SOL     OW32223   0.813   3.016   5.750  0.0935  0.8147  0.1407
 8123SOL    HW232224   0.819   2.967   5.832 -0.5824 -1.3825 -1.0262
 8123SOL    HW332225   0.781   3.102   5.775 -2.0407 -0.4288  2.0065
 8123SOL    MW432226   0.810   3.021   5.764  0.2164  0.3218  0.1678
 8124SOL     OW32227   5.633   3.282   1.963  0.6227  0.4404 -0.5820
 8124SOL    HW232228   5.622   3.277   1.868  0.4409  0.8539 -0.5840
 8124SOL    HW332229   5.719   3.244   1.979 -0.1341 -1.4080 -0.7141
 8124SOL    MW432230   5.643   3.276   1.953 -0.3219  0.1473  0.1174
 8125SOL     OW32231   4.057   2.247   4.155 -0.3182  0.3990 -0.3727
 8125SOL    HW232232   3.999   2.183   4.113  1.5521 -1.5548 -0.1415
 8125SOL    HW332233   4.076   2.310   4.085 -0.6303 -0.4290 -1.2403
 8125SOL    MW432234   4.052   2.247   4.140 -0.1845  0.0891 -0.1546
 8126SOL     OW32235   4.934   1.160   4.002 -0.0782 -0.0064  0.9683
 8126SOL    HW232236   4.861   1.152   4.064 -1.2755  0.5369 -0.2992
 8126SOL    HW332237   4.894   1.198   3.924  1.6426  0.5158  0.3060
 8126SOL    MW432238   4.919   1.164   4.000  0.0206 -0.3121  0.2419
 8127SOL     OW32239   5.735   6.172   1.549  0.1323  0.8095  0.2115
 8127SOL    HW232240   5.726   6.143   1.640  0.5342  1.2833  0.4076
 8127SOL    HW332241   5.760   6.093   1.501 -3.6011 -0.3472 -0.1766
 8127SOL    MW432242   5.737   6.158   1.555  0.3372 -0.3416 -0.0198
 8128SOL     OW32243   1.028   4.554   2.753  0.1852  0.4481  0.0101
 8128SOL    HW232244   0.950   4.590   2.794 -0.1457  1.5398 -1.4888
 8128SOL    HW332245   1.100   4.579   2.811 -0.5502 -0.6377  1.4477
 8128SOL    MW432246   1.027   4.562   2.766 -0.3478 -0.0299 -0.4199
 8129SOL     OW32247   3.322   4.980   5.168  0.5136 -0.1627 -0.3609
 8129SOL    HW232248   3.321   5.058   5.225 -0.3713  0.1959 -0.8539
 8129SOL    HW332249   3.335   5.016   5.080  0.8945 -0.6458 -0.5039
 8129SOL    MW432250   3.324   4.995   5.164 -0.0163  0.5096  0.5447
 8130SOL     OW32251   0.310   0.042   6.188 -0.0624  0.5185  0.0025
 8130SOL    HW232252   0.345   0.021   6.275  1.9688  0.0452 -0.8694
 8130SOL    HW332253   0.372   0.105   6.152 -0.4718  0.1479 -1.3980
 8130SOL    MW432254   0.323   0.047   6.195  0.2520 -0.0650  0.2308
 8131SOL     OW32255   1.173   5.170   1.148 -0.1152 -0.1104 -0.4342
 8131SOL    HW232256   1.101   5.207   1.199  0.5859  1.3743 -0.4555
 8131SOL    HW332257   1.212   5.246   1.103  0.2552 -1.1503 -1.9468
 8131SOL    MW432258   1.169   5.185   1.149  0.1491 -0.1673  0.1534
 8132SOL     OW32259   1.560   6.227   1.239  0.7699  0.7695 -0.1090
 8132SOL    HW232260   1.505   6.152   1.217 -0.5174  1.2267  1.3403
 8132SOL    HW332261   1.647   6.203   1.209  0.1368 -0.7565 -0.8172
 8132SOL    MW432262   1.564   6.214   1.232  0.3731  0.2387 -0.1354
 8133SOL     OW32263   2.302   3.136   6.034  0.1416 -0.3334  0.5160
 8133SOL    HW232264   2.397   3.141   6.038  0.0471  1.6501  1.1462
 8133SOL    HW332265   2.282   3.044   6.051  1.9661 -1.0126 -0.7700
 8133SOL    MW432266   2.312   3.124   6.037 -0.4389  0.8220 -0.6379
 8134SOL     OW32267   6.302   1.714   2.833  0.0635  0.0930 -0.2745
 8134SOL    HW232268   6.261   1.640   2.877  0.9086 -1.0857 -1.4078
 8134SOL    HW332269   6.377   1.677   2.787  0.8234  1.7441 -0.4528
 8134SOL    MW432270   6.306   1.699   2.833  0.3901 -0.4464  0.2569
 8135SOL     OW32271   1.285   1.783   0.328  0.5527 -0.1616 -0.1034
 8135SOL    HW232272   1.269   1.872   0.360 -0.5169 -0.1052 -0.7322
 8135SOL    HW332273   1.278   1.729   0.406  1.6202  0.3418  0.3554
 8135SOL    MW432274   1.282   1.788   0.342  0.0261 -0.1018 -0.2732
 8136SOL     OW32275   1.829   1.425   6.416 -0.2647 -0.2811 -0.1822
 8136SOL    HW232276   1.847   1.331   6.420 -2.1350 -0.6928 -0.5533
 8136SOL    HW332277   1.912   1.465   6.390  1.0401 -1.6274  1.6270
 8136SOL    MW432278   1.842   1.418   6.413 -0.4339  0.2922 -0.6541
 8137SOL     OW32279   0.279   5.682   6.267 -0.4661 -0.5558  0.3137
 8137SOL    HW232280   0.305   5.696   6.176 -1.8749  0.7939  0.0794
 8137SOL    HW332281   0.219   5.608   6.264  0.6103 -1.4734  0.3944
 8137SOL    MW432282   0.275   5.674   6.255  0.5326 -0.6619 -0.5565
 8138SOL     OW32283   2.657   1.742   1.409  0.2115 -0.7911 -0.4900
 8138SOL    HW232284   2.622   1.812   1.353  0.8610  0.1034  0.2020
 8138SOL    HW332285   2.645   1.775   1.498  2.4562 -0.6180 -0.2171
 8138SOL    MW432286   2.651   1.756   1.413 -0.0490 -0.3971  0.3008
 8139SOL     OW32287   5.711   3.933   0.895  0.4736 -0.7786  0.8314
 8139SOL    HW232288   5.759   3.967   0.971  0.8139  0.1487  0.2162
 8139SOL    HW332289   5.627   3.904   0.930 -0.9001  2.9813  1.0708
 8139SOL    MW432290   5.707   3.933   0.909 -0.0615  0.0431 -0.3559
 8140SOL     OW32291   2.767   3.385   2.579 -0.0141  0.3195 -0.0611
 8140SOL    HW232292   2.797   3.429   2.499  0.6378  0.6354  0.3511
 8140SOL    HW332293   2.831   3.410   2.646  0.8855 -1.9371  0.0170
 8140SOL    MW432294   2.780   3.394   2.577 -0.1474 -0.6779 -0.4183
 8141SOL     OW32295   5.891   3.728   3.537 -0.3080 -0.3660  0.1197
 8141SOL    HW232296   5.969   3.683   3.505  0.4453  1.1650 -0.3122
 8141SOL    HW332297   5.912   3.751   3.628 -1.0606 -1.6568  0.6449
 8141SOL    MW432298   5.904   3.725   3.545  0.1556 -0.8734  0.1462
 8142SOL     OW32299   2.054   4.472   5.577  0.4296 -0.1020 -0.1506
 8142SOL    HW232300   2.033   4.467   5.670  0.1147  0.8207 -0.1601
 8142SOL    HW332301   1.997   4.541   5.543  1.5028  0.5333 -0.7419
 8142SOL    MW432302   2.044   4.480   5.585 -0.8872 -0.7356  0.5764
 8143SOL     OW32303   1.330   0.289   4.342  0.5352  0.0975  0.0800
 8143SOL    HW232304   1.338   0.204   4.385 -0.1033 -0.3772 -0.6986
 8143SOL    HW332305   1.414   0.302   4.299 -0.1399 -1.3490 -1.8717
 8143SOL    MW432306   1.342   0.279   4.342 -0.4718  0.1255  0.0160
 8144SOL     OW32307   1.901   2.128   4.703 -0.1231 -0.3867 -0.3043
 8144SOL    HW232308   1.978   2.070   4.705 -0.5345 -0.9514 -0.4883
 8144SOL    HW332309   1.828   2.070   4.726 -0.3135  0.4374  1.3022
 8144SOL    MW432310   1.901   2.112   4.707 -0.4160 -0.4144 -0.3104
 8145SOL     OW32311   5.178   3.517   1.419  0.1401  0.1947 -0.0369
 8145SOL    HW232312   5.160   3.606   1.449 -1.4042 -0.2723  0.5461
 8145SOL    HW332313   5.191   3.467   1.500  0.5058 -0.1985 -0.3355
 8145SOL    MW432314   5.177   3.522   1.434 -0.9596  0.2328 -0.0746
 8146SOL     OW32315   2.747   1.341   3.552  0.3679  0.3352  0.2020
 8146SOL    HW232316   2.661   1.370   3.521  0.3310 -0.2733 -0.2794
 8146SOL    HW332317   2.727   1.278   3.622  0.3739 -0.8934 -0.8628
 8146SOL    MW432318   2.733   1.337   3.557 -1.0386 -0.1471  0.0251
 8147SOL     OW32319   0.034   2.813   5.656  0.4078  0.1098  0.1818
 8147SOL    HW232320  -0.054   2.793   5.688  0.0148 -0.1016 -0.9677
 8147SOL    HW332321   0.031   2.906   5.634 -0.0347 -0.2510 -1.3543
 8147SOL    MW432322   0.022   2.822   5.657  0.3645 -0.7166  0.4865
 8148SOL     OW32323   5.285   2.808   1.969  0.0224 -0.4245  0.2041
 8148SOL    HW232324   5.204   2.833   2.013  1.2777  0.0910  2.4185
 8148SOL    HW332325   5.344   2.881   1.986  0.9849 -0.8152 -1.3028
 8148SOL    MW432326   5.282   2.821   1.977  0.4595  0.0896  0.1826
 8149SOL     OW32327   0.503   0.077   2.426 -0.7161  0.1108  0.4240
 8149SOL    HW232328   0.503   0.020   2.503  1.1356 -0.0458  0.3560
 8149SOL    HW332329   0.520   0.164   2.460  1.4181 -0.1406  0.1476
 8149SOL    MW432330   0.506   0.081   2.441  0.4255 -0.3219 -0.2209
 8150SOL     OW32331   6.280   4.545   5.583 -0.1561 -0.1799  0.1370
 8150SOL    HW232332   6.363   4.498   5.582 -0.2589 -0.3960 -1.8719
 8150SOL    HW332333   6.296   4.625   5.532 -0.8848  0.3323  0.6756
 8150SOL    MW432334   6.293   4.549   5.576  0.6541 -0.1468  0.2791
 8151SOL     OW32335   1.119   6.063   0.783  0.1512  0.2639 -0.3417
 8151SOL    HW232336   1.073   5.994   0.736  2.4132 -0.7910 -1.1618
 8151SOL    HW332337   1.070   6.143   0.763 -0.6981 -0.6327 -2.0169
 8151SOL    MW432338   1.107   6.065   0.774  0.0778  0.5327  0.0454
 8152SOL     OW32339   2.855   6.348   0.389 -0.2453 -0.3766 -0.1350
 8152SOL    HW232340   2.859   6.443   0.396  0.2141 -0.4895  1.7997
 8152SOL    HW332341   2.762   6.328   0.376 -0.1721  0.3612 -2.2084
 8152SOL    MW432342   2.843   6.358   0.388  0.0990 -0.0688  0.6157
 8153SOL     OW32343   1.840   1.753   0.379  0.4240  0.1291 -0.2439
 8153SOL    HW232344   1.848   1.671   0.330 -0.1422 -0.8816  1.2532
 8153SOL    HW332345   1.757   1.790   0.349 -0.8679 -1.4231  1.1959
 8153SOL    MW432346   1.830   1.747   0.369 -0.1894  0.2487  0.0536
 8154SOL     OW32347   0.152   1.520   4.248 -1.1160  0.7263 -0.2147
 8154SOL    HW232348   0.130   1.575   4.173 -2.6179  0.4270 -0.0254
 8154SOL    HW332349   0.168   1.434   4.210 -0.2237  0.9282 -0.3432
 8154SOL    MW432350   0.151   1.516   4.233  0.6184  0.0874  0.1823
 8155SOL     OW32351   0.022   3.359   1.772 -0.0311  0.3674 -0.4090
 8155SOL    HW232352  -0.026   3.363   1.855  0.2540  1.1830 -0.2704
 8155SOL    HW332353  -0.031   3.413   1.712  0.3654  0.7331 -0.4327
 8155SOL    MW432354   0.008   3.367   1.775 -0.5832  0.6652  0.0441
 8156SOL     OW32355   5.530   2.119   3.125 -0.5366  0.7630  0.2392
 8156SOL    HW232356   5.523   2.201   3.076 -1.1056  0.6667  0.1454
 8156SOL    HW332357   5.499   2.052   3.063 -1.0133  0.6080  0.6380
 8156SOL    MW432358   5.525   2.121   3.110 -0.2473  0.0240 -0.0265
 8157SOL     OW32359   5.118   2.181   4.325  0.3156  0.7302  0.2372
 8157SOL    HW232360   5.040   2.197   4.378  0.2782  0.0085  0.4176
 8157SOL    HW332361   5.175   2.256   4.342 -0.5240  1.4899 -0.2488
 8157SOL    MW432362   5.115   2.193   4.334 -0.1520 -0.1430  0.6441
 8158SOL     OW32363   3.535   6.192   1.014  0.0986  0.1589 -0.3324
 8158SOL    HW232364   3.490   6.112   0.985 -0.9682  0.6699 -0.1467
 8158SOL    HW332365   3.628   6.171   1.008 -0.0897 -0.3167 -2.5587
 8158SOL    MW432366   3.541   6.179   1.010  0.0932 -0.2635  1.0172
 8159SOL     OW32367   0.308   1.388   5.560 -1.2255 -0.5205  0.0730
 8159SOL    HW232368   0.291   1.479   5.535  0.3789 -0.4207 -0.7625
 8159SOL    HW332369   0.221   1.353   5.583 -2.0564  0.8399 -0.8495
 8159SOL    MW432370   0.294   1.395   5.559 -0.0197 -0.2614 -0.0746
 8160SOL     OW32371   2.696   5.869   3.107  0.3958  0.2183  0.4838
 8160SOL    HW232372   2.730   5.794   3.058  1.3576  0.0254  1.4024
 8160SOL    HW332373   2.615   5.836   3.146  0.1012  0.0907 -0.2258
 8160SOL    MW432374   2.690   5.854   3.106  0.1444 -0.6664 -0.0305
 8161SOL     OW32375   6.205   5.922   2.951  0.1675 -0.2451  0.6052
 8161SOL    HW232376   6.298   5.926   2.974  0.2348 -0.8790  0.4491
 8161SOL    HW332377   6.168   5.856   3.010 -0.1070 -0.2704  0.4087
 8161SOL    MW432378   6.212   5.914   2.962 -0.5573  0.3568 -0.3774
 8162SOL     OW32379   1.022   6.435   4.192 -0.5269 -0.2904  0.6168
 8162SOL    HW232380   1.018   6.342   4.171 -3.2036 -0.2985  0.9037
 8162SOL    HW332381   0.984   6.480   4.116 -0.3081  0.4880  0.9505
 8162SOL    MW432382   1.017   6.429   4.180 -0.1715 -0.2367  0.1258
 8163SOL     OW32383   3.583   2.762   1.337 -0.5609 -0.3720  0.1086
 8163SOL    HW232384   3.558   2.843   1.381 -1.9251 -1.6271  1.7670
 8163SOL    HW332385   3.630   2.712   1.404 -0.0232 -1.0946 -0.7824
 8163SOL    MW432386   3.586   2.766   1.351 -0.1744  0.4166  0.1350
 8164SOL     OW32387   5.852   3.458   3.659 -0.7521 -0.0689  0.1380
 8164SOL    HW232388   5.878   3.471   3.568  2.7338  0.8857  1.1070
 8164SOL    HW332389   5.811   3.540   3.684 -0.8984 -0.0002 -0.3098
 8164SOL    MW432390   5.850   3.471   3.650  0.0522 -0.5578 -0.4808
 8165SOL     OW32391   4.978   6.384   0.396 -0.6970 -0.2428 -0.7314
 8165SOL    HW232392   4.968   6.414   0.306 -1.8612 -0.0129 -0.5304
 8165SOL    HW332393   4.905   6.323   0.410  0.4018 -1.5559 -0.4492
 8165SOL    MW432394   4.967   6.380   0.386 -0.3859 -0.0678  0.0008
 8166SOL     OW32395   2.917   5.535   5.180 -0.3690  0.1716  0.4212
 8166SOL    HW232396   2.966   5.511   5.258 -1.5967  0.0471  1.1791
 8166SOL    HW332397   2.983   5.569   5.119  0.6934 -0.4016  1.2334
 8166SOL    MW432398   2.932   5.537   5.182 -0.0502 -0.1379 -0.4269
 8167SOL     OW32399   5.661   1.892   5.031 -0.0174  0.0437  0.0858
 8167SOL    HW232400   5.745   1.849   5.046  0.7498  1.8445  1.2312
 8167SOL    HW332401   5.620   1.894   5.117 -1.6217 -1.4602 -0.5756
 8167SOL    MW432402   5.667   1.886   5.044  0.1213 -0.2829 -0.1521
 8168SOL     OW32403   0.054   0.655   1.938 -0.0794 -0.1549  0.0919
 8168SOL    HW232404   0.119   0.642   1.870  0.4027 -0.8542  0.6678
 8168SOL    HW332405   0.012   0.569   1.948 -0.9212  0.2214 -0.0965
 8168SOL    MW432406   0.057   0.642   1.930  0.0628 -0.4155  0.0185
 8169SOL     OW32407   3.108   1.515   5.801  0.1523 -0.1674  0.9126
 8169SOL    HW232408   3.136   1.569   5.728  0.6286 -1.3498  0.2007
 8169SOL    HW332409   3.025   1.477   5.772 -0.9007  1.2041  1.9495
 8169SOL    MW432410   3.100   1.517   5.788  0.3621  0.2826 -0.3211
 8170SOL     OW32411   2.801   5.345   0.957  0.1719 -0.0257  0.4306
 8170SOL    HW232412   2.712   5.380   0.952  0.4427  0.7819  1.1044
 8170SOL    HW332413   2.855   5.411   0.916  0.3241 -1.1396 -1.2548
 8170SOL    MW432414   2.796   5.358   0.951  0.6367 -0.2244  0.2527
 8171SOL     OW32415   2.972   5.538   4.392  0.0355  0.0441  0.2115
 8171SOL    HW232416   2.880   5.526   4.365  0.1972 -2.9367  0.5684
 8171SOL    HW332417   3.021   5.530   4.310  0.0574 -0.2721  0.2527
 8171SOL    MW432418   2.966   5.535   4.378  0.1695  0.1145  0.4236
 8172SOL     OW32419   0.124   2.211   2.611 -0.3177 -0.2716  0.4621
 8172SOL    HW232420   0.155   2.249   2.694  0.3606 -0.7749  0.4519
 8172SOL    HW332421   0.036   2.246   2.600 -0.5614 -0.4853  1.5881
 8172SOL    MW432422   0.117   2.221   2.621  0.4171 -0.0789 -0.6405
 8173SOL     OW32423   3.064   2.074   2.758 -0.5006 -0.0164  0.7741
 8173SOL    HW232424   3.007   2.033   2.693  0.5494 -0.9015  0.3694
 8173SOL    HW332425   3.129   2.121   2.707 -0.3099  0.1951  1.2044
 8173SOL    MW432426   3.065   2.075   2.743  0.0092 -0.5473  0.4555
 8174SOL     OW32427   1.322   2.388   5.887  0.0289  0.2384 -0.0513
 8174SOL    HW232428   1.316   2.481   5.866 -0.4890  0.1102 -0.4860
 8174SOL    HW332429   1.306   2.343   5.804  1.0326 -0.2350 -0.0039
 8174SOL    MW432430   1.319   2.394   5.873 -0.2425  0.2000 -0.5288
 8175SOL     OW32431   1.227   5.118   6.369  0.5551  0.4324  0.2632
 8175SOL    HW232432   1.136   5.144   6.383  0.1106 -0.6129 -0.5776
 8175SOL    HW332433   1.222   5.041   6.312  2.0047  0.8929 -0.5482
 8175SOL    MW432434   1.214   5.111   6.363  0.3010  0.3833  0.0330
 8176SOL     OW32435   0.508   4.769   6.050  0.3708 -0.2519  0.1228
 8176SOL    HW232436   0.490   4.814   6.133  1.0596 -0.4058  0.3599
 8176SOL    HW332437   0.483   4.678   6.066  0.1920 -0.2160  0.0528
 8176SOL    MW432438   0.502   4.763   6.063 -0.2559 -0.2254 -0.1837
 8177SOL     OW32439   0.117   5.866   0.867  0.4231  0.1896  0.0018
 8177SOL    HW232440   0.117   5.864   0.963 -0.6110  0.8655  0.0391
 8177SOL    HW332441   0.025   5.878   0.843  0.5330 -1.0252 -1.1200
 8177SOL    MW432442   0.105   5.868   0.876  0.1137 -0.1861  0.1448
 8178SOL     OW32443   5.430   5.693   2.736  0.3624 -0.2859  0.3125
 8178SOL    HW232444   5.391   5.611   2.706  0.6584 -0.0572 -0.7487
 8178SOL    HW332445   5.357   5.740   2.777 -0.2867 -0.2678 -0.8057
 8178SOL    MW432446   5.415   5.688   2.737  0.2810  0.1375 -0.3406
 8179SOL     OW32447   2.195   2.754   4.623 -0.2330  0.1277  0.1354
 8179SOL    HW232448   2.285   2.762   4.656 -0.6865  0.9365  1.2532
 8179SOL    HW332449   2.143   2.806   4.684 -1.4993 -0.5050 -0.3712
 8179SOL    MW432450   2.200   2.762   4.636 -0.1136  0.2670 -0.1432
 8180SOL     OW32451   4.994   4.137   3.073 -0.0318 -0.4441  0.3731
 8180SOL    HW232452   4.922   4.093   3.118 -1.1369  0.2508 -0.6390
 8180SOL    HW332453   5.008   4.085   2.994  0.4808 -0.4882  0.4901
 8180SOL    MW432454   4.986   4.124   3.068 -0.7753 -0.6085 -0.8740
 8181SOL     OW32455   4.941   2.288   3.132 -0.5958  0.3281  0.2900
 8181SOL    HW232456   4.916   2.333   3.212 -3.0603 -0.2100 -0.1125
 8181SOL    HW332457   5.031   2.260   3.147 -1.4365 -1.0358  3.4560
 8181SOL    MW432458   4.950   2.290   3.144 -0.1734  0.1643  0.2794
 8182SOL     OW32459   4.676   2.392   1.313  0.8560  0.0178  0.0808
 8182SOL    HW232460   4.628   2.380   1.232  0.0614 -1.0457  0.6799
 8182SOL    HW332461   4.764   2.358   1.294  0.4302 -1.0097 -0.0968
 8182SOL    MW432462   4.682   2.386   1.300 -0.1801 -0.6940  0.6349
 8183SOL     OW32463   4.641   2.355   5.045  0.0581  0.1730  0.0572
 8183SOL    HW232464   4.704   2.290   5.075  1.1991  0.2971 -1.8731
 8183SOL    HW332465   4.643   2.423   5.113  1.4713 -0.1744  0.4101
 8183SOL    MW432466   4.650   2.356   5.058 -0.0471 -0.1411 -0.4326
 8184SOL     OW32467   1.877   1.488   1.403  0.5489 -0.2457 -0.9209
 8184SOL    HW232468   1.802   1.527   1.448  0.0910  0.6641 -2.3904
 8184SOL    HW332469   1.857   1.395   1.397 -0.5151 -0.0001 -1.3622
 8184SOL    MW432470   1.864   1.481   1.408  0.3624 -0.1323  0.2463
 8185SOL     OW32471   2.719   2.895   5.505  0.3365  0.2511  0.4598
 8185SOL    HW232472   2.724   2.800   5.504  0.6024  0.2507  1.4218
 8185SOL    HW332473   2.798   2.924   5.549  0.1303  0.9090  0.4177
 8185SOL    MW432474   2.730   2.886   5.510  0.1652  0.3953  0.4349
 8186SOL     OW32475   1.457   2.213   1.546 -0.1679  0.4205 -0.2429
 8186SOL    HW232476   1.405   2.138   1.573 -1.6372  1.6303  0.4960
 8186SOL    HW332477   1.496   2.188   1.463 -0.5484 -1.1693  0.0334
 8186SOL    MW432478   1.455   2.200   1.539 -0.5579 -0.7322  0.1962
 8187SOL     OW32479   3.104   1.878   1.199 -0.2271 -0.5573  0.0765
 8187SOL    HW232480   3.110   1.815   1.271 -2.5286 -2.5317 -1.2672
 8187SOL    HW332481   3.147   1.834   1.125 -1.1366 -0.2276 -0.6708
 8187SOL    MW432482   3.110   1.864   1.198 -0.0411  0.6480 -0.0568
 8188SOL     OW32483   2.313   4.015   3.069 -0.4587 -0.2044 -0.5251
 8188SOL    HW232484   2.228   4.014   3.024 -0.1672 -0.1417 -1.0900
 8188SOL    HW332485   2.374   3.982   3.003  0.1694  1.0049 -0.5699
 8188SOL    MW432486   2.310   4.010   3.054  0.0402  0.0299 -0.3608
 8189SOL     OW32487   4.896   4.618   4.415 -0.2476 -0.0766  0.5117
 8189SOL    HW232488   4.901   4.523   4.403  1.8955  0.0876 -0.3316
 8189SOL    HW332489   4.978   4.641   4.459 -1.0100  1.3372  1.2564
 8189SOL    MW432490   4.907   4.608   4.419  0.3596  0.4430 -0.1879
 8190SOL     OW32491   0.607   4.554   1.616  0.0607  0.0614  0.4945
 8190SOL    HW232492   0.591   4.610   1.540  0.3663 -0.7794 -0.2122
 8190SOL    HW332493   0.695   4.577   1.645  0.1485  0.0175  0.2647
 8190SOL    MW432494   0.617   4.564   1.610 -0.7926  0.1431 -0.4980
 8191SOL     OW32495   1.882   1.419   2.598 -0.3326  0.3457 -0.3050
 8191SOL    HW232496   1.829   1.470   2.537 -2.3553  0.4577  1.4226
 8191SOL    HW332497   1.967   1.465   2.600 -1.0938  1.8647 -1.0503
 8191SOL    MW432498   1.887   1.432   2.590  0.0997 -0.2792  0.3287
 8192SOL     OW32499   2.273   1.319   5.072 -0.3779 -0.5975 -0.7621
 8192SOL    HW232500   2.319   1.279   5.146 -0.5371  0.2328 -0.2027
 8192SOL    HW332501   2.272   1.250   5.005  1.2215 -0.8239 -0.6057
 8192SOL    MW432502   2.279   1.304   5.073 -0.3068 -0.5138  0.3717
 8193SOL     OW32503   5.787   1.696   0.893  0.2944  0.3835  0.0768
 8193SOL    HW232504   5.816   1.649   0.972  0.3831 -0.3250 -0.3667
 8193SOL    HW332505   5.864   1.696   0.836 -0.5566 -1.7072 -1.2054
 8193SOL    MW432506   5.801   1.690   0.896  0.2377  0.1823 -0.1187
 8194SOL     OW32507   0.100   3.041   2.433 -0.2006  0.0685  0.3073
 8194SOL    HW232508   0.009   3.065   2.452 -0.6331 -0.9779 -0.3621
 8194SOL    HW332509   0.098   2.946   2.422  0.7436  0.1673 -0.9335
 8194SOL    MW432510   0.088   3.032   2.434 -0.1443 -0.3359 -0.3059
 8195SOL     OW32511   1.367   1.697   5.729 -0.0492  0.0671 -0.0299
 8195SOL    HW232512   1.276   1.724   5.716  0.1344  0.2424 -1.0633
 8195SOL    HW332513   1.371   1.669   5.820 -0.4731  2.7084  0.8932
 8195SOL    MW432514   1.355   1.697   5.739  0.1142 -0.0202  0.0627
 8196SOL     OW32515   3.782   3.584   3.353 -0.3486 -0.3144  0.1536
 8196SOL    HW232516   3.788   3.662   3.409  3.5502 -0.6991  0.5311
 8196SOL    HW332517   3.742   3.517   3.409 -1.8536  0.8155  0.4908
 8196SOL    MW432518   3.778   3.586   3.368  0.1635 -0.1027 -0.5220
 8197SOL     OW32519   0.701   2.596   2.269 -0.1630 -0.1335 -0.1703
 8197SOL    HW232520   0.614   2.596   2.309  0.3312  0.0499  0.9558
 8197SOL    HW332521   0.685   2.596   2.175 -1.4089  2.9377 -0.0553
 8197SOL    MW432522   0.688   2.596   2.262  0.0099  0.3264  0.2490
 8198SOL     OW32523   2.216   3.658   3.153 -0.3456 -0.2460 -0.6943
 8198SOL    HW232524   2.127   3.677   3.183 -0.1409  1.7074 -1.1941
 8198SOL    HW332525   2.207   3.637   3.060 -0.3189 -0.3580 -0.6719
 8198SOL    MW432526   2.203   3.657   3.145 -0.2483 -0.2869 -0.0014
 8199SOL     OW32527   4.807   2.900   5.985  0.4559 -0.8953  0.1252
 8199SOL    HW232528   4.818   2.811   6.019  0.9789 -0.3493  1.4846
 8199SOL    HW332529   4.821   2.892   5.891 -1.6385 -2.6002 -0.1215
 8199SOL    MW432530   4.811   2.887   5.977  0.2933  0.2837 -0.5632
 8200SOL     OW32531   4.180   6.318   1.273  0.3507  0.2513  0.1839
 8200SOL    HW232532   4.163   6.361   1.357 -1.9164 -0.6543  0.2576
 8200SOL    HW332533   4.201   6.389   1.213  0.2896  1.0820  1.1222
 8200SOL    MW432534   4.180   6.333   1.276  0.8065  0.6394  0.1006
 8201SOL     OW32535   2.873   3.149   1.783  0.1726  0.0516  0.3998
 8201SOL    HW232536   2.965   3.142   1.755 -0.3766  1.3362 -2.0097
 8201SOL    HW332537   2.875   3.214   1.853  1.2737 -1.0709  1.4485
 8201SOL    MW432538   2.886   3.157   1.788  0.4452 -0.6486  0.0532
 8202SOL     OW32539   2.725   4.904   2.415 -0.0542  0.0135 -0.5384
 8202SOL    HW232540   2.764   4.955   2.345 -1.0913 -0.6196 -1.6210
 8202SOL    HW332541   2.641   4.947   2.432 -0.3472 -0.5446 -0.5457
 8202SOL    MW432542   2.719   4.916   2.408 -0.1576  0.0164 -0.0250
 8203SOL     OW32543   5.473   3.512   4.898  0.8000 -0.0224  0.4354
 8203SOL    HW232544   5.498   3.529   4.989 -1.3422  3.6535  0.5347
 8203SOL    HW332545   5.512   3.584   4.849  1.2551 -1.5146 -1.4776
 8203SOL    MW432546   5.482   3.524   4.904  0.0056 -0.0203 -0.3394
 8204SOL     OW32547   3.185   1.254   2.236 -0.0936  0.3317  0.5872
 8204SOL    HW232548   3.123   1.314   2.196 -0.5667  1.1872  2.5010
 8204SOL    HW332549   3.271   1.293   2.220 -0.1484  0.0379 -0.5551
 8204SOL    MW432550   3.188   1.267   2.228  0.7887 -0.7468 -0.5481
 8205SOL     OW32551   4.942   2.446   0.078 -0.3390 -0.4039  0.3879
 8205SOL    HW232552   4.954   2.523   0.133 -0.4893 -0.5235  0.5883
 8205SOL    HW332553   4.866   2.402   0.114 -1.4358  0.3743 -0.8975
 8205SOL    MW432554   4.934   2.450   0.090  0.4788 -0.1585  0.0113
 8206SOL     OW32555   3.533   1.722   1.936 -0.0708 -0.3026 -0.0524
 8206SOL    HW232556   3.460   1.710   1.875 -0.9341  0.7227  0.7221
 8206SOL    HW332557   3.490   1.739   2.020  1.0910 -1.7676  0.8803
 8206SOL    MW432558   3.517   1.723   1.939 -0.4495 -0.8427 -0.2683
 8207SOL     OW32559   4.463   1.028   4.268 -0.3337 -0.0515  0.3419
 8207SOL    HW232560   4.506   1.075   4.196 -0.3749 -1.2698 -0.5062
 8207SOL    HW332561   4.371   1.055   4.262 -0.5670 -0.9988 -0.8169
 8207SOL    MW432562   4.456   1.038   4.258 -0.2321 -0.0237 -0.2572
 8208SOL     OW32563   3.772   3.144   2.774  0.2386 -0.1160 -0.3933
 8208SOL    HW232564   3.774   3.236   2.802  0.2549  0.0378 -0.8818
 8208SOL    HW332565   3.679   3.124   2.764  0.2147 -0.3083  0.2043
 8208SOL    MW432566   3.760   3.154   2.776 -0.1893 -0.6444  0.1383
 8209SOL     OW32567   6.125   3.991   2.532 -0.0979 -0.2984  0.2270
 8209SOL    HW232568   6.194   4.046   2.497  0.2061 -1.7015 -1.5561
 8209SOL    HW332569   6.146   3.981   2.625  1.5924  0.0116 -0.1009
 8209SOL    MW432570   6.137   3.997   2.540 -0.5146 -0.0421  0.1884
 8210SOL     OW32571   3.728   4.997   0.156 -0.0224  0.1556 -1.4261
 8210SOL    HW232572   3.752   4.974   0.246 -0.3020  1.6863 -0.9346
 8210SOL    HW332573   3.638   4.964   0.146  0.1204 -0.2959 -1.2649
 8210SOL    MW432574   3.719   4.989   0.167  0.3799 -0.1797 -0.9029
 8211SOL     OW32575   1.818   3.485   5.306  0.4756 -0.0841  0.1106
 8211SOL    HW232576   1.751   3.519   5.247  1.0320  1.9079  0.5565
 8211SOL    HW332577   1.900   3.498   5.258  0.6016 -2.5261 -0.4433
 8211SOL    MW432578   1.820   3.491   5.292  0.4956 -0.4343 -0.2711
 8212SOL     OW32579   0.498   2.125   0.946 -0.3506 -0.2809  0.3691
 8212SOL    HW232580   0.532   2.066   1.014 -0.7794 -0.3260  0.5509
 8212SOL    HW332581   0.499   2.212   0.986 -1.6747 -0.4644  0.8605
 8212SOL    MW432582   0.503   2.128   0.960  0.7396 -0.3676 -0.3274
 8213SOL     OW32583   0.533   3.552   5.625 -0.4539 -0.3432  0.1767
 8213SOL    HW232584   0.460   3.593   5.670  0.3952  0.7536  0.6029
 8213SOL    HW332585   0.592   3.625   5.603  0.1812 -1.1153 -0.7638
 8213SOL    MW432586   0.531   3.567   5.628 -0.3746 -0.0834 -0.4638
 8214SOL     OW32587   4.555   0.727   6.301  0.0863  0.2986  0.4276
 8214SOL    HW232588   4.562   0.632   6.291  2.3051  0.5079 -0.6026
 8214SOL    HW332589   4.645   0.759   6.292 -0.2532  2.3209  2.9704
 8214SOL    MW432590   4.568   0.719   6.299  0.3417 -0.4385  0.0844
 8215SOL     OW32591   4.705   6.254   0.111  0.2391 -0.3839  0.1299
 8215SOL    HW232592   4.683   6.339   0.149  0.0208  0.0248 -0.8835
 8215SOL    HW332593   4.694   6.192   0.183  0.5568  0.4611  0.9203
 8215SOL    MW432594   4.701   6.257   0.125  0.3692  0.1014  0.1770
 8216SOL     OW32595   6.009   5.924   3.423 -0.2732  0.2036 -0.0528
 8216SOL    HW232596   6.035   5.964   3.339  1.7357 -0.7304  0.0463
 8216SOL    HW332597   5.923   5.885   3.406 -0.1342  0.4885 -1.5432
 8216SOL    MW432598   6.001   5.924   3.409 -0.0454  0.1346 -0.3272
 8217SOL     OW32599   6.102   4.914   5.180 -0.1972 -0.6345 -0.1194
 8217SOL    HW232600   6.099   4.822   5.153  0.9875  0.0564 -2.9617
 8217SOL    HW332601   6.193   4.940   5.166  0.0584  0.4521  2.8654
 8217SOL    MW432602   6.114   4.905   5.175  0.3208 -0.0846 -0.8386
 8218SOL     OW32603   5.617   3.031   1.750 -0.2376 -0.2643  0.2530
 8218SOL    HW232604   5.610   2.969   1.822 -0.3806 -0.9955 -0.3787
 8218SOL    HW332605   5.545   3.092   1.763 -1.3039 -1.3925 -0.2037
 8218SOL    MW432606   5.607   3.031   1.761  0.4078 -0.4785 -0.2356
 8219SOL     OW32607   4.288   3.582   3.093 -0.3297 -0.0957 -0.1034
 8219SOL    HW232608   4.209   3.630   3.116  0.2855 -0.3529  3.0382
 8219SOL    HW332609   4.360   3.640   3.121  0.5215 -0.9901 -0.3743
 8219SOL    MW432610   4.287   3.596   3.100  0.0447  0.1957  0.3329
 8220SOL     OW32611   1.004   5.993   2.747 -0.0134  0.0499  0.0791
 8220SOL    HW232612   0.925   6.047   2.754  0.1123  0.1509  0.8131
 8220SOL    HW332613   1.029   5.999   2.655  1.0378  2.7344  0.4374
 8220SOL    MW432614   0.997   6.001   2.736 -0.2337 -0.6894 -0.6253
 8221SOL     OW32615   4.955   1.347   3.537  0.3090  0.2755 -0.5792
 8221SOL    HW232616   4.871   1.363   3.493  0.9446  0.4477 -1.7675
 8221SOL    HW332617   4.994   1.434   3.547  1.1107  0.0651 -1.6428
 8221SOL    MW432618   4.949   1.360   3.532 -0.4907  0.8964 -0.6712
 8222SOL     OW32619   2.809   1.016   3.700  0.3881  0.0361 -0.3069
 8222SOL    HW232620   2.830   0.942   3.643  0.8987 -0.4131  0.4465
 8222SOL    HW332621   2.719   1.000   3.728  0.9687 -1.1287  1.0359
 8222SOL    MW432622   2.800   1.004   3.696 -0.4563 -0.4466 -0.2792
 8223SOL     OW32623   4.306   3.208   5.832 -0.1006  0.5202  0.2338
 8223SOL    HW232624   4.232   3.243   5.782  0.6404  0.0736 -1.2258
 8223SOL    HW332625   4.367   3.281   5.839  0.0959  0.3984 -0.1425
 8223SOL    MW432626   4.304   3.222   5.826  0.1281  0.6425 -0.3556
 8224SOL     OW32627   2.885   2.734   3.655 -0.6608 -0.5962  0.3133
 8224SOL    HW232628   2.874   2.652   3.703 -1.6323 -0.0187  1.1107
 8224SOL    HW332629   2.838   2.799   3.707 -1.4452  0.1343 -1.2288
 8224SOL    MW432630   2.877   2.732   3.668  0.2352 -0.5915 -0.1527
 8225SOL     OW32631   0.990   2.540   2.346 -0.8592  0.0753  0.0699
 8225SOL    HW232632   1.019   2.568   2.259 -1.5930  0.5226 -0.0443
 8225SOL    HW332633   0.894   2.532   2.337 -1.0533  1.0473  1.0915
 8225SOL    MW432634   0.981   2.542   2.333 -0.3046 -0.4047 -0.0754
 8226SOL     OW32635   0.329   0.074   4.890  0.3345 -0.0983  0.1474
 8226SOL    HW232636   0.386  -0.001   4.875  2.1162  1.0529  0.9041
 8226SOL    HW332637   0.318   0.114   4.803  1.3842  0.1550  0.1260
 8226SOL    MW432638   0.335   0.069   4.876 -0.0112 -0.0883  0.1775
 8227SOL     OW32639   2.163   3.072   3.305  0.8130  0.4205  0.4745
 8227SOL    HW232640   2.074   3.108   3.304  0.1581 -1.0410  1.7140
 8227SOL    HW332641   2.166   3.013   3.230  0.0504 -0.9842  1.5066
 8227SOL    MW432642   2.151   3.069   3.295 -0.1865 -0.3615  0.2619
 8228SOL     OW32643   2.549   1.530   3.801  0.3222  0.5301 -0.6746
 8228SOL    HW232644   2.503   1.612   3.822  0.0301 -0.0463  1.1360
 8228SOL    HW332645   2.522   1.470   3.871  1.1556 -0.8738 -1.5301
 8228SOL    MW432646   2.539   1.533   3.813 -0.2443 -0.1027 -0.0255
 8229SOL     OW32647   6.132   4.631   6.258 -0.2328  0.2758  0.0630
 8229SOL    HW232648   6.168   4.635   6.347  1.3923 -3.0243 -0.2870
 8229SOL    HW332649   6.046   4.591   6.270 -0.6704  1.2274  0.2275
 8229SOL    MW432650   6.125   4.626   6.272 -0.1938  0.1168 -0.1487
 8230SOL     OW32651   5.320   4.948   2.631  0.1783  0.5188  0.8107
 8230SOL    HW232652   5.313   4.917   2.540  1.0331 -0.7931  1.1731
 8230SOL    HW332653   5.305   5.043   2.624 -1.5001  0.2222 -0.4595
 8230SOL    MW432654   5.317   4.957   2.618  0.1852 -0.7524  0.4902
 8231SOL     OW32655   1.331   0.851   5.646  0.0855  0.1469 -0.4214
 8231SOL    HW232656   1.296   0.916   5.707  0.1747  0.6490 -0.8947
 8231SOL    HW332657   1.326   0.894   5.561 -0.9407 -0.8971 -0.9178
 8231SOL    MW432658   1.325   0.866   5.643  0.0930  0.2080  0.4430
 8232SOL     OW32659   1.925   2.557   4.040 -0.2018 -0.3752  0.0806
 8232SOL    HW232660   1.974   2.532   3.962  0.0830 -0.9459  0.4350
 8232SOL    HW332661   1.979   2.624   4.082 -1.1253  1.1498 -1.0479
 8232SOL    MW432662   1.939   2.563   4.035  0.1288  0.0024 -0.2265
 8233SOL     OW32663   0.811   5.997   0.935  0.6351 -0.1329  0.6368
 8233SOL    HW232664   0.770   6.004   0.848  0.4832 -1.3304  0.5977
 8233SOL    HW332665   0.870   6.072   0.939 -0.0525  0.4726 -0.1225
 8233SOL    MW432666   0.813   6.008   0.924  0.0194 -0.2612 -0.4459
 8234SOL     OW32667   5.970   1.634   0.421  0.2660  0.0800  0.2021
 8234SOL    HW232668   5.976   1.626   0.516 -0.0608 -0.9346  0.1553
 8234SOL    HW332669   6.060   1.630   0.390  0.2734 -2.5708  0.3038
 8234SOL    MW432670   5.982   1.632   0.429 -0.1184  0.3870 -0.6323
 8235SOL     OW32671   4.097   2.333   1.363 -0.4083  0.1597 -0.4672
 8235SOL    HW232672   4.149   2.393   1.309  0.9731 -1.3654 -0.9133
 8235SOL    HW332673   4.161   2.276   1.405 -1.6819 -1.7260 -0.9471
 8235SOL    MW432674   4.112   2.333   1.361 -0.1065  0.0096 -0.2905
 8236SOL     OW32675   2.355   1.739   1.831 -0.1992  0.0045  0.3012
 8236SOL    HW232676   2.336   1.832   1.847 -0.5094 -0.3221  1.9238
 8236SOL    HW332677   2.271   1.695   1.846  0.5865 -0.8583  2.4519
 8236SOL    MW432678   2.341   1.745   1.835 -0.8315  0.3059 -0.5672
 8237SOL     OW32679   2.424   0.729   6.088  0.3856  0.1152  0.1828
 8237SOL    HW232680   2.419   0.825   6.084  0.1481  0.0701 -1.5088
 8237SOL    HW332681   2.383   0.700   6.007  0.7984 -1.4207  0.4952
 8237SOL    MW432682   2.418   0.738   6.077 -0.5407  0.4366  0.5455
 8238SOL     OW32683   3.789   4.152   4.834  0.2102 -0.5326  0.0993
 8238SOL    HW232684   3.876   4.191   4.846  0.1033 -0.1692 -0.2897
 8238SOL    HW332685   3.755   4.143   4.923  0.5504 -0.4620  0.2402
 8238SOL    MW432686   3.796   4.156   4.847  0.2064  0.1331  0.1422
 8239SOL     OW32687   4.483   0.577   0.514  0.4568  0.3772 -0.2593
 8239SOL    HW232688   4.506   0.541   0.429  0.1430  0.3071 -0.3169
 8239SOL    HW332689   4.387   0.585   0.512  0.5516  1.6635 -0.4241
 8239SOL    MW432690   4.473   0.574   0.503  0.5901  0.1702  0.0391
 8240SOL     OW32691   6.020   1.215   1.827 -0.0725 -0.2095  0.7390
 8240SOL    HW232692   5.962   1.274   1.780  0.1953 -1.3917 -1.1794
 8240SOL    HW332693   5.972   1.191   1.906 -1.1789  0.6652  0.3484
 8240SOL    MW432694   6.006   1.219   1.831  0.1301 -0.1764  0.5046
 8241SOL     OW32695   3.282   1.546   2.093 -0.1755 -0.2719 -0.0677
 8241SOL    HW232696   3.214   1.614   2.089 -1.3560 -1.4059  0.2456
 8241SOL    HW332697   3.300   1.538   2.187  0.6092  0.2156 -0.1693
 8241SOL    MW432698   3.275   1.554   2.105 -0.5546  1.0328 -0.0802
 8242SOL     OW32699   5.654   5.624   2.893  0.3821 -0.0220 -0.2452
 8242SOL    HW232700   5.563   5.641   2.870  0.4561  0.4843 -0.1738
 8242SOL    HW332701   5.704   5.686   2.841  0.5642  1.0918  1.2014
 8242SOL    MW432702   5.649   5.634   2.883 -0.3182 -0.2668  0.3928
 8243SOL     OW32703   4.789   3.414   4.047  0.4843  0.2096 -0.3311
 8243SOL    HW232704   4.702   3.446   4.021  0.9799  0.2001 -2.1190
 8243SOL    HW332705   4.770   3.334   4.096 -0.5971  1.3934  1.2850
 8243SOL    MW432706   4.775   3.407   4.050 -0.3121  0.4620 -0.3511
 8244SOL     OW32707   6.061   1.181   3.051 -0.1897 -0.0155 -0.4131
 8244SOL    HW232708   6.068   1.205   2.958 -0.5875  1.1945 -0.1475
 8244SOL    HW332709   5.987   1.232   3.083 -0.3317 -0.7573  0.4779
 8244SOL    MW432710   6.052   1.191   3.043  0.1161 -0.6112  0.1904
 8245SOL     OW32711   0.910   0.326   2.952 -0.2642 -0.4236 -0.3466
 8245SOL    HW232712   0.906   0.398   3.015  1.5962 -0.3188 -0.2852
 8245SOL    HW332713   0.883   0.249   3.002 -2.1338  0.1725 -0.3755
 8245SOL    MW432714   0.906   0.325   2.967 -0.5183 -0.5340  0.1063
 8246SOL     OW32715   3.049   1.047   1.658  0.6167 -0.1803 -0.2220
 8246SOL    HW232716   3.048   0.985   1.586  3.2054  1.1354 -1.5029
 8246SOL    HW332717   2.991   1.117   1.630  0.3105 -0.4477 -0.2638
 8246SOL    MW432718   3.041   1.048   1.645 -0.5579  0.4182  0.3804
 8247SOL     OW32719   0.385   3.555   0.286  0.1377 -0.2081 -0.0103
 8247SOL    HW232720   0.328   3.526   0.215 -1.3625  0.0656  1.0331
 8247SOL    HW332721   0.452   3.488   0.292 -0.4728 -0.9132 -0.8252
 8247SOL    MW432722   0.386   3.543   0.277  0.2122  0.2787  0.6360
 8248SOL     OW32723   5.115   6.104   3.335  0.0545  0.6450 -0.1907
 8248SOL    HW232724   5.038   6.105   3.392 -0.0341  0.2059 -0.2943
 8248SOL    HW332725   5.169   6.033   3.369 -0.4335 -0.2514 -1.2045
 8248SOL    MW432726   5.112   6.095   3.347  0.0453 -0.2780 -0.3740
 8249SOL     OW32727   2.605   5.558   4.623  0.4047 -0.1252  0.0958
 8249SOL    HW232728   2.588   5.477   4.671  0.5842 -0.7202 -0.8342
 8249SOL    HW332729   2.528   5.612   4.640  0.3191 -0.4498  0.7954
 8249SOL    MW432730   2.593   5.554   4.632  0.0400  0.3200  0.1024
 8250SOL     OW32731   1.421   3.130   5.648  0.3385 -0.4946  0.3299
 8250SOL    HW232732   1.349   3.190   5.628  0.4494 -0.7766 -1.0128
 8250SOL    HW332733   1.484   3.183   5.697 -0.5459 -0.1198  1.0901
 8250SOL    MW432734   1.420   3.145   5.652  1.0899  0.0092 -0.7733
 8251SOL     OW32735   3.039   2.968   3.297  0.0903 -0.0098  0.3372
 8251SOL    HW232736   2.994   3.042   3.256  1.8247  0.6045 -0.5707
 8251SOL    HW332737   3.129   2.999   3.311  0.7020 -1.7331  0.5144
 8251SOL    MW432738   3.045   2.982   3.294  0.1140 -0.0223  0.0570
 8252SOL     OW32739   2.426   6.428   1.866 -0.4313 -0.3141  0.1873
 8252SOL    HW232740   2.444   6.491   1.936 -1.3614 -0.0587  0.2187
 8252SOL    HW332741   2.419   6.482   1.787 -1.1769 -0.3603  0.2055
 8252SOL    MW432742   2.427   6.444   1.865  0.6795  0.2487 -0.5482
 8253SOL     OW32743   1.866   4.750   1.266  0.6058 -0.0046 -0.3878
 8253SOL    HW232744   1.947   4.778   1.309  0.5166 -0.3328  0.0024
 8253SOL    HW332745   1.896   4.696   1.192  0.7290 -1.1672  0.4899
 8253SOL    MW432746   1.881   4.747   1.262  0.1400 -0.0562  0.0861
 8254SOL     OW32747   0.503   5.712   1.009 -0.2642 -0.3324 -0.2264
 8254SOL    HW232748   0.595   5.689   1.009 -0.0798  0.1041 -2.4923
 8254SOL    HW332749   0.487   5.751   1.095  1.5769 -0.6592  0.2973
 8254SOL    MW432750   0.513   5.715   1.020 -0.2087  0.3837  0.3105
 8255SOL     OW32751   5.152   1.185   3.434  0.3800 -0.1190 -0.9496
 8255SOL    HW232752   5.090   1.178   3.361  0.3576 -0.2932 -0.9142
 8255SOL    HW332753   5.097   1.204   3.510  0.1220 -2.4322 -0.5088
 8255SOL    MW432754   5.136   1.187   3.434 -0.3089  0.3905  0.4485
 8256SOL     OW32755   3.744   3.868   0.167 -0.1882 -0.6247  0.2290
 8256SOL    HW232756   3.657   3.892   0.198 -0.6290 -1.6352 -0.1701
 8256SOL    HW332757   3.760   3.782   0.205 -0.3602 -1.4794 -1.5565
 8256SOL    MW432758   3.734   3.860   0.176  0.1189  0.2497  0.2188
 8257SOL     OW32759   1.243   6.347   5.393  0.1334  0.0709 -0.6092
 8257SOL    HW232760   1.324   6.315   5.434 -0.2521  1.3506  1.2811
 8257SOL    HW332761   1.185   6.271   5.393  0.4598 -0.2062  0.4596
 8257SOL    MW432762   1.246   6.332   5.398  0.0100 -0.1411  0.2607
 8258SOL     OW32763   0.313   1.935   4.640 -0.1806  0.2472 -0.2355
 8258SOL    HW232764   0.275   1.922   4.554  2.3537 -1.5823 -1.2173
 8258SOL    HW332765   0.328   1.846   4.674 -0.3324  0.9093  1.7353
 8258SOL    MW432766   0.310   1.922   4.633 -0.4974  0.4511 -0.7168
 8259SOL     OW32767   4.986   2.360   2.438  0.7075 -0.5511  0.5641
 8259SOL    HW232768   4.959   2.449   2.413 -0.7525 -1.7154 -2.5320
 8259SOL    HW332769   5.046   2.333   2.368  1.2951 -1.9471  1.5612
 8259SOL    MW432770   4.990   2.368   2.426  0.0673 -0.0567 -0.2139
 8260SOL     OW32771   0.122   3.568   6.306 -0.2656 -0.4822 -0.2454
 8260SOL    HW232772   0.098   3.479   6.277  0.6736 -0.5847 -0.7649
 8260SOL    HW332773   0.150   3.612   6.225 -1.0571  0.4181 -0.0526
 8260SOL    MW432774   0.122   3.562   6.291  0.8063  0.4716 -0.5490
 8261SOL     OW32775   0.099   0.035   0.279  0.2368 -0.1233 -0.2934
 8261SOL    HW232776   0.154   0.094   0.331 -0.5067  0.1020  0.2398
 8261SOL    HW332777   0.046   0.093   0.225 -0.5026 -0.2869  0.2380
 8261SOL    MW432778   0.099   0.051   0.279 -0.3215 -0.3786 -0.0039
 8262SOL     OW32779   1.820   1.471   5.140  0.0423 -1.0379  0.1833
 8262SOL    HW232780   1.812   1.511   5.053  0.1105 -0.6737  0.3425
 8262SOL    HW332781   1.815   1.545   5.201 -0.0743 -1.2989  0.4922
 8262SOL    MW432782   1.818   1.486   5.137 -0.0840 -0.9639 -0.4388
 8263SOL     OW32783   5.819   4.494   2.217  0.0379 -0.5263 -0.0262
 8263SOL    HW232784   5.836   4.462   2.128 -2.1061 -0.7069 -0.4409
 8263SOL    HW332785   5.905   4.517   2.251  0.9265 -0.4465 -2.1456
 8263SOL    MW432786   5.833   4.493   2.210 -0.3835 -0.4035 -0.1289
 8264SOL     OW32787   3.993   1.900   6.150  0.0537  0.1704 -0.3158
 8264SOL    HW232788   3.996   1.809   6.181  1.8396  0.3227  0.0911
 8264SOL    HW332789   3.976   1.952   6.228 -0.1867  0.2413 -0.4141
 8264SOL    MW432790   3.991   1.895   6.164 -0.6787  0.1457 -0.2566
 8265SOL     OW32791   4.956   5.802   1.396  0.0213  0.4467  0.5443
 8265SOL    HW232792   4.872   5.773   1.360  0.9577 -0.7019 -0.8059
 8265SOL    HW332793   5.003   5.839   1.321  1.9613 -1.8362  0.5353
 8265SOL    MW432794   4.951   5.803   1.382 -0.2288  0.3337 -0.1977
 8266SOL     OW32795   0.805   4.222   4.126  0.3355  0.4417  0.0046
 8266SOL    HW232796   0.858   4.252   4.053 -1.0983  3.0314 -0.0839
 8266SOL    HW332797   0.852   4.251   4.204  1.5378 -1.7589  0.1785
 8266SOL    MW432798   0.818   4.230   4.127  0.0571  0.0979 -0.4026
 8267SOL     OW32799   1.973   4.292   4.777  0.4119  0.2837  0.1761
 8267SOL    HW232800   1.924   4.331   4.850 -2.2114 -1.3065 -0.5872
 8267SOL    HW332801   2.003   4.208   4.810  0.8334  0.3514 -0.0282
 8267SOL    MW432802   1.970   4.286   4.791  0.7325  0.2943 -0.0484
 8268SOL     OW32803   2.316   4.875   5.558 -0.1138 -0.1718 -0.2520
 8268SOL    HW232804   2.395   4.907   5.602  0.4882 -1.1958 -0.5545
 8268SOL    HW332805   2.315   4.781   5.575 -2.4545  0.1020  1.5879
 8268SOL    MW432806   2.327   4.867   5.566 -0.2895 -0.6145 -0.5310
 8269SOL     OW32807   5.885   4.805   1.061  0.0052  0.0347 -0.3036
 8269SOL    HW232808   5.866   4.816   0.968  2.2755  1.5679 -0.6813
 8269SOL    HW332809   5.821   4.860   1.105 -1.0592 -0.6573 -0.9241
 8269SOL    MW432810   5.874   4.814   1.054 -0.6290  0.3246  0.1922
 8270SOL     OW32811   6.052   0.520   3.961 -0.1281 -0.3172 -0.2741
 8270SOL    HW232812   5.982   0.563   4.010  0.7408 -0.4237  1.0930
 8270SOL    HW332813   6.079   0.585   3.896 -0.5510  0.2456  0.1028
 8270SOL    MW432814   6.046   0.534   3.959  0.6634 -0.5451 -0.3336
 8271SOL     OW32815   2.487   0.377   1.476  0.4707  0.4063  0.1493
 8271SOL    HW232816   2.563   0.436   1.475 -0.0326  1.0664 -0.2374
 8271SOL    HW332817   2.422   0.422   1.422  0.7564 -1.4019 -1.8282
 8271SOL    MW432818   2.488   0.391   1.468  0.0381 -0.6389 -0.0579
 8272SOL     OW32819   2.014   0.566   1.089  0.2449 -0.3286 -0.1727
 8272SOL    HW232820   2.059   0.542   1.008 -1.9052  0.0898 -1.5767
 8272SOL    HW332821   1.989   0.482   1.129  1.4895 -0.5405  0.1905
 8272SOL    MW432822   2.016   0.552   1.084 -0.7081  0.6116  0.1662
 8273SOL     OW32823   3.413   0.552   0.370  0.4909 -0.3469  0.2908
 8273SOL    HW232824   3.374   0.513   0.448 -0.5368 -0.6545 -0.3488
 8273SOL    HW332825   3.337   0.580   0.317  1.1450 -0.7165 -0.8763
 8273SOL    MW432826   3.398   0.551   0.373 -0.3035 -0.1930 -0.4182
 8274SOL     OW32827   0.241   3.023   0.374 -0.0842 -0.1948  0.3167
 8274SOL    HW232828   0.202   3.107   0.348 -1.5898 -1.5191 -2.0780
 8274SOL    HW332829   0.251   3.029   0.469  1.1292  3.1651  0.1170
 8274SOL    MW432830   0.238   3.035   0.383 -0.6292 -0.0340  0.1763
 8275SOL     OW32831   2.085   3.823   5.601  0.2184 -0.0573 -0.1888
 8275SOL    HW232832   2.022   3.811   5.530 -0.3643  1.2435  0.0642
 8275SOL    HW332833   2.075   3.745   5.656 -0.6334 -0.2208 -0.5623
 8275SOL    MW432834   2.075   3.811   5.599  0.0317  0.1153 -0.9258
 8276SOL     OW32835   3.952   6.000   5.446 -0.1804  0.5380  0.6281
 8276SOL    HW232836   4.006   6.067   5.489 -0.4851  2.0520 -1.2205
 8276SOL    HW332837   4.004   5.972   5.371 -0.1946 -1.1330  1.2002
 8276SOL    MW432838   3.966   6.005   5.442 -0.0744 -1.1598  0.1238
 8277SOL     OW32839   0.533   4.325   1.804 -0.3197 -0.3351 -0.0967
 8277SOL    HW232840   0.548   4.342   1.711  1.6974 -1.9749 -0.1624
 8277SOL    HW332841   0.591   4.386   1.850  0.7414 -1.3289 -0.0590
 8277SOL    MW432842   0.543   4.335   1.798  0.2082  0.5252 -0.1236
 8278SOL     OW32843   4.453   1.639   3.831  0.6739 -0.6500  0.1057
 8278SOL    HW232844   4.498   1.709   3.785 -0.8892  0.3108  0.0032
 8278SOL    HW332845   4.453   1.566   3.769  0.1285  0.0609 -0.7437
 8278SOL    MW432846   4.459   1.638   3.817  0.1832  0.4000  0.3138
 8279SOL     OW32847   3.632   4.780   2.685  0.2224 -0.2907  0.7288
 8279SOL    HW232848   3.545   4.767   2.724  0.1055  0.1202  0.6123
 8279SOL    HW332849   3.648   4.701   2.635 -0.3054 -0.1634  0.3450
 8279SOL    MW432850   3.622   4.768   2.684 -0.4434  0.3603  0.0602
 8280SOL     OW32851   1.875   4.041   2.534 -0.3885 -0.3096  0.4743
 8280SOL    HW232852   1.944   3.994   2.581  0.6940  1.2099  0.4615
 8280SOL    HW332853   1.879   4.130   2.568 -1.8079  0.0013 -0.1274
 8280SOL    MW432854   1.885   4.046   2.544 -0.1809 -0.9183 -0.0732
 8281SOL     OW32855   3.730   2.447   2.200  0.4677  0.2175  0.3880
 8281SOL    HW232856   3.746   2.380   2.267  0.0209 -0.4467 -0.1637
 8281SOL    HW332857   3.803   2.508   2.211  2.0924 -1.4834 -0.4845
 8281SOL    MW432858   3.742   2.446   2.211  0.4396  0.0159  0.8585
 8282SOL     OW32859   5.632   2.848   2.193 -0.1125 -0.2247  0.1824
 8282SOL    HW232860   5.657   2.773   2.246  0.1549 -0.1351  0.1841
 8282SOL    HW332861   5.699   2.913   2.210 -0.6277  0.2128  0.5905
 8282SOL    MW432862   5.644   2.847   2.202  0.2052  0.3568 -0.1085
 8283SOL     OW32863   0.541   1.899   5.122  0.3224  0.0889 -0.1771
 8283SOL    HW232864   0.578   1.935   5.203 -1.1070  1.2297  0.0105
 8283SOL    HW332865   0.611   1.908   5.058  1.1363  0.0996  0.6848
 8283SOL    MW432866   0.555   1.905   5.125  0.4836  0.0918  0.3401
 8284SOL     OW32867   4.392   3.033   2.619  0.2452 -0.1721 -0.5682
 8284SOL    HW232868   4.328   2.975   2.662 -1.1004  2.3139  1.0747
 8284SOL    HW332869   4.386   3.011   2.526 -2.6842 -0.4113 -0.4240
 8284SOL    MW432870   4.383   3.022   2.613 -0.0657 -0.0391  0.3745
 8285SOL     OW32871   1.887   3.276   1.492  0.6041  0.0680 -0.0063
 8285SOL    HW232872   1.833   3.274   1.413  1.1959  1.4284 -0.4816
 8285SOL    HW332873   1.974   3.251   1.462  0.7152  0.0635  0.3142
 8285SOL    MW432874   1.891   3.273   1.478  0.1812  0.1973 -0.0999
 8286SOL     OW32875   1.706   2.216   1.701 -0.0842  0.0689  0.0732
 8286SOL    HW232876   1.623   2.205   1.654 -0.3063  0.5227  0.3424
 8286SOL    HW332877   1.692   2.169   1.784 -0.1544  0.3258  0.2087
 8286SOL    MW432878   1.693   2.208   1.706  0.5960  0.4666  0.2898
 8287SOL     OW32879   2.800   4.763   3.905  0.8052 -0.0215  0.2904
 8287SOL    HW232880   2.734   4.832   3.909  2.1002  1.2121  1.2179
 8287SOL    HW332881   2.754   4.688   3.865 -1.1138  0.8036  0.8452
 8287SOL    MW432882   2.785   4.762   3.900 -0.1978  0.2254 -0.1437
 8288SOL     OW32883   3.590   5.157   2.154 -0.1257  0.8301  0.4040
 8288SOL    HW232884   3.572   5.206   2.074 -1.1128 -0.3938 -0.1664
 8288SOL    HW332885   3.605   5.225   2.221 -2.9741  1.9970  0.0106
 8288SOL    MW432886   3.589   5.173   2.152 -0.6271  0.6365  0.9241
 8289SOL     OW32887   3.150   2.325   0.088  0.5544  0.0072 -0.0593
 8289SOL    HW232888   3.133   2.419   0.083  2.5395  0.4912  1.1196
 8289SOL    HW332889   3.236   2.314   0.047 -0.0231 -1.4473 -0.9547
 8289SOL    MW432890   3.159   2.336   0.082  0.2570  0.2496  0.5084
 8290SOL     OW32891   0.396   2.595   4.939  0.3041  0.3127 -0.0778
 8290SOL    HW232892   0.437   2.604   4.853 -1.3457 -1.3726 -1.1065
 8290SOL    HW332893   0.342   2.516   4.932 -1.7201  1.4362  1.7418
 8290SOL    MW432894   0.394   2.586   4.927 -0.1092  0.0858  0.2465
 8291SOL     OW32895   2.425   6.315   5.954 -0.3333  0.4980  0.4368
 8291SOL    HW232896   2.400   6.329   6.046  1.5575 -0.5990  1.1710
 8291SOL    HW332897   2.412   6.221   5.941 -0.2364  0.5883 -0.3234
 8291SOL    MW432898   2.420   6.304   5.964  0.3870 -0.2086  0.4134
 8292SOL     OW32899   0.108   6.180   2.163 -0.2703 -0.0023  0.5953
 8292SOL    HW232900   0.047   6.252   2.176  0.9939  1.3308 -0.5569
 8292SOL    HW332901   0.182   6.200   2.221 -0.2025 -0.7506  0.7801
 8292SOL    MW432902   0.110   6.192   2.173 -0.5586  0.1714 -0.3860
 8293SOL     OW32903   5.786   0.296   0.476 -1.1625 -0.3001  0.6176
 8293SOL    HW232904   5.829   0.358   0.418 -1.1024  0.2254  1.2120
 8293SOL    HW332905   5.693   0.312   0.463 -1.1456  0.0057  0.8604
 8293SOL    MW432906   5.779   0.306   0.466  0.6652 -0.6048  0.0259
 8294SOL     OW32907   1.425   2.695   6.279 -0.2064  0.2753  0.1852
 8294SOL    HW232908   1.429   2.784   6.312 -0.0839  0.2679  0.1888
 8294SOL    HW332909   1.343   2.692   6.229  2.1941  2.0567 -4.5861
 8294SOL    MW432910   1.415   2.706   6.277 -0.0731 -0.4906  0.5047
 8295SOL     OW32911   0.569   3.688   1.250  0.3722  0.5768 -0.1444
 8295SOL    HW232912   0.486   3.643   1.233 -0.2708  1.2528  1.0739
 8295SOL    HW332913   0.635   3.619   1.244 -0.0108  0.3173 -2.9210
 8295SOL    MW432914   0.566   3.673   1.247  0.0123  0.7977 -0.3206
 8296SOL     OW32915   5.669   5.260   1.477  0.1650 -0.3013 -0.0830
 8296SOL    HW232916   5.696   5.275   1.387  1.4246  0.9801  0.4760
 8296SOL    HW332917   5.739   5.206   1.515 -0.1638 -0.5105  0.2414
 8296SOL    MW432918   5.681   5.255   1.470  0.5387  0.2101 -0.5277
 8297SOL     OW32919   1.453   1.440   0.328 -0.4129 -0.6132  0.0077
 8297SOL    HW232920   1.371   1.398   0.304 -0.8837 -0.7242  1.6520
 8297SOL    HW332921   1.479   1.489   0.250 -1.2795 -1.7280 -1.0213
 8297SOL    MW432922   1.446   1.441   0.315 -0.1302  0.3534 -0.1767
 8298SOL     OW32923   1.795   1.273   3.236 -0.0752  0.0094  0.3968
 8298SOL    HW232924   1.722   1.334   3.236  0.1302  0.2617  0.9842
 8298SOL    HW332925   1.842   1.291   3.155 -1.0702 -0.6534 -0.3489
 8298SOL    MW432926   1.792   1.283   3.226 -0.4088 -0.4303  0.2927
 8299SOL     OW32927   6.066   0.338   4.760  0.0314 -0.7942  0.0114
 8299SOL    HW232928   6.084   0.364   4.670 -0.6767 -0.0166  0.0784
 8299SOL    HW332929   6.017   0.412   4.797 -0.7226 -1.5990  0.6776
 8299SOL    MW432930   6.062   0.351   4.753  0.0577 -0.6758  0.1006
 8300SOL     OW32931   0.967   2.034   1.113  0.6657  0.5911 -0.0092
 8300SOL    HW232932   0.912   1.957   1.096  1.4874 -0.2315  0.8595
 8300SOL    HW332933   0.998   2.061   1.027  2.5061 -1.7372 -0.1940
 8300SOL    MW432934   0.964   2.027   1.100  0.2646 -0.3989 -0.4041
 8301SOL     OW32935   5.893   2.718   1.561 -0.1640  1.0269  0.7903
 8301SOL    HW232936   5.877   2.625   1.544  1.1840  0.4260  2.5319
 8301SOL    HW332937   5.807   2.752   1.586 -0.5743  0.1429  0.6541
 8301SOL    MW432938   5.880   2.710   1.562 -0.2371  0.3959 -0.1337
 8302SOL     OW32939   2.922   3.280   5.729  0.2736  0.2225  0.1131
 8302SOL    HW232940   2.915   3.315   5.818  1.4125 -0.0949  0.3471
 8302SOL    HW332941   2.920   3.357   5.672  0.8010  0.5319  0.4996
 8302SOL    MW432942   2.921   3.295   5.733  0.0406 -0.4053 -0.2550
 8303SOL     OW32943   5.178   0.998   4.049 -0.3973  0.9777  0.1619
 8303SOL    HW232944   5.105   1.056   4.026  0.0318  0.8703 -1.6305
 8303SOL    HW332945   5.251   1.058   4.065 -0.5355  1.0290  0.6009
 8303SOL    MW432946   5.178   1.014   4.048  0.0731  0.2983 -0.2483
 8304SOL     OW32947   2.053   2.437   2.611 -0.4380 -0.3051 -0.3233
 8304SOL    HW232948   2.064   2.517   2.662 -0.9275 -0.2296 -0.3337
 8304SOL    HW332949   2.136   2.390   2.623 -1.3169 -1.3554  2.4162
 8304SOL    MW432950   2.065   2.441   2.620  0.2918  0.8747  0.6787
 8305SOL     OW32951   0.909   3.595   4.106  0.2909  0.0972  0.5574
 8305SOL    HW232952   0.886   3.640   4.188 -0.4815  1.2807 -0.2774
 8305SOL    HW332953   0.855   3.638   4.039  0.5623 -1.1573 -0.5113
 8305SOL    MW432954   0.899   3.606   4.108 -0.3568 -0.0213  0.3928
 8306SOL     OW32955   1.633   2.158   0.022  0.1288  0.9194  0.1626
 8306SOL    HW232956   1.647   2.093  -0.046  1.3923  0.0278  1.2178
 8306SOL    HW332957   1.542   2.184   0.012  0.0675  0.2346 -1.3467
 8306SOL    MW432958   1.623   2.153   0.012 -0.2704 -0.2590 -0.0608
 8307SOL     OW32959   5.112   3.977   6.221 -0.2323  0.0379 -0.3024
 8307SOL    HW232960   5.202   3.961   6.250  0.3890  0.3038 -1.9963
 8307SOL    HW332961   5.118   3.988   6.126 -2.0086  0.4333 -0.4140
 8307SOL    MW432962   5.124   3.976   6.212 -0.4953 -0.3183 -0.3754
 8308SOL     OW32963   2.979   1.873   0.812 -0.5904  0.0454  0.8066
 8308SOL    HW232964   2.929   1.797   0.784 -0.1405  0.2186 -0.5292
 8308SOL    HW332965   3.064   1.837   0.837 -0.3867  0.0871  0.2008
 8308SOL    MW432966   2.984   1.858   0.812  0.1123 -0.2751 -0.0132
 8309SOL     OW32967   6.344   5.707   6.222 -0.4061 -0.2721 -0.2126
 8309SOL    HW232968   6.257   5.710   6.183 -0.4803  1.2283  0.0098
 8309SOL    HW332969   6.393   5.777   6.178  0.6418 -0.9727 -0.2079
 8309SOL    MW432970   6.339   5.717   6.211  0.3534 -0.4683 -0.8758
 8310SOL     OW32971   5.467   2.085   4.822 -0.1677 -0.3578  0.5830
 8310SOL    HW232972   5.558   2.110   4.838  0.0784 -0.6999 -0.2419
 8310SOL    HW332973   5.434   2.154   4.764 -0.5797  0.0231  1.2626
 8310SOL    MW432974   5.475   2.098   4.816 -0.0320 -0.1163 -0.2182
 8311SOL     OW32975   2.182   2.239   3.058  0.2867  0.1835 -0.2839
 8311SOL    HW232976   2.240   2.295   3.109  1.7583 -0.8579 -0.7528
 8311SOL    HW332977   2.238   2.198   2.993 -0.7721 -1.6097 -0.1571
 8311SOL    MW432978   2.197   2.241   3.057  0.5695  0.1152 -0.0915
 8312SOL     OW32979   3.540   4.361   3.451  0.0033  0.1257  0.3566
 8312SOL    HW232980   3.467   4.413   3.486  1.3952  2.3012  0.2283
 8312SOL    HW332981   3.596   4.346   3.527  0.4051  0.2132  0.0768
 8312SOL    MW432982   3.537   4.366   3.466  1.0923  0.4114  0.5196
 8313SOL     OW32983   2.543   3.384   5.971 -0.4069 -0.1312 -0.1958
 8313SOL    HW232984   2.554   3.446   6.043 -1.5898  0.4160 -0.4603
 8313SOL    HW332985   2.607   3.411   5.905  1.5579 -1.3823  1.0921
 8313SOL    MW432986   2.553   3.395   5.972  0.4960  0.1719  0.2364
 8314SOL     OW32987   4.569   5.154   2.719 -0.1743  0.1299 -0.2827
 8314SOL    HW232988   4.509   5.081   2.703 -1.8820  1.5146 -0.4462
 8314SOL    HW332989   4.586   5.192   2.632 -1.4224  1.5042  0.0323
 8314SOL    MW432990   4.563   5.149   2.705 -0.0325  0.1123  0.6051
 8315SOL     OW32991   6.278   5.555   4.621  0.2420 -0.4010 -0.0588
 8315SOL    HW232992   6.228   5.476   4.642  0.1505 -0.1441  0.7441
 8315SOL    HW332993   6.258   5.573   4.529 -2.5161  0.6515  0.6479
 8315SOL    MW432994   6.269   5.547   4.612  0.2200 -0.0689  0.0710
 8316SOL     OW32995   3.926   5.900   4.053 -0.3018 -0.2718  0.3982
 8316SOL    HW232996   3.895   5.911   3.963 -0.4800  1.3604  0.6263
 8316SOL    HW332997   3.945   5.807   4.060 -0.6618 -0.5065 -1.2060
 8316SOL    MW432998   3.924   5.890   4.042  0.0369  0.0657  0.3835
 8317SOL     OW32999   3.784   1.756   4.787  0.6744  0.0131  0.2005
 8317SOL    HW233000   3.816   1.791   4.704 -3.1120  1.1940 -0.9752
 8317SOL    HW333001   3.763   1.833   4.840 -2.1337 -0.4571 -0.0493
 8317SOL    MW433002   3.785   1.771   4.783 -0.4118 -0.3572  0.0440
 8318SOL     OW33003   5.224   0.745   5.816 -0.5164  0.2878  0.2238
 8318SOL    HW233004   5.244   0.793   5.735  0.0600 -0.8735 -0.3427
 8318SOL    HW333005   5.149   0.791   5.853 -0.4865  1.1352 -0.7203
 8318SOL    MW433006   5.217   0.758   5.810  0.1678  0.6141 -0.1220
 8319SOL     OW33007   5.504   0.607   4.256 -0.0311 -0.0509 -0.2844
 8319SOL    HW233008   5.537   0.525   4.219 -0.1353  0.3331 -1.2322
 8319SOL    HW333009   5.469   0.655   4.182 -0.1174  0.7983  0.2950
 8319SOL    MW433010   5.504   0.602   4.242 -0.2833 -0.5667  0.2285
 8320SOL     OW33011   0.968   5.980   0.040 -0.0403  0.0165 -0.3777
 8320SOL    HW233012   1.040   6.038   0.064 -0.8321 -0.0897  2.5708
 8320SOL    HW333013   0.929   6.021  -0.037  3.4161 -0.2389 -2.5048
 8320SOL    MW433014   0.972   5.993   0.033 -0.1141 -0.8026  0.1227
 8321SOL     OW33015   0.957   2.141   3.126  0.6417  0.2332  0.2053
 8321SOL    HW233016   0.972   2.225   3.168  2.0034  0.5411 -0.8269
 8321SOL    HW333017   0.996   2.077   3.185  1.0668  0.4921  0.2057
 8321SOL    MW433018   0.964   2.143   3.139  0.4767 -0.4147  0.4117
 8322SOL     OW33019   1.391   3.075   0.502  0.2521  0.8409 -0.4043
 8322SOL    HW233020   1.337   3.039   0.432 -0.7281 -0.0775  0.7869
 8322SOL    HW333021   1.466   3.015   0.508  0.1700  0.7334 -0.4535
 8322SOL    MW433022   1.394   3.062   0.494 -0.2303 -0.1870 -0.5497
 8323SOL     OW33023   5.711   2.029   1.491 -0.4640  0.3004  0.1501
 8323SOL    HW233024   5.804   2.035   1.466  0.3062 -0.2767  2.6165
 8323SOL    HW333025   5.699   2.098   1.556 -1.5137 -0.2150  0.5317
 8323SOL    MW433026   5.722   2.039   1.496 -0.0122  0.0395 -0.2053
 8324SOL     OW33027   4.424   4.892   4.872  0.2745  0.8186  0.1111
 8324SOL    HW233028   4.334   4.916   4.850 -0.7877 -0.2506  2.8920
 8324SOL    HW333029   4.466   4.974   4.898 -0.3418  1.1155  0.1831
 8324SOL    MW433030   4.417   4.906   4.872  0.6782 -0.1514  0.0034
 8325SOL     OW33031   1.652   0.291   3.851  0.1159 -0.3798 -0.3212
 8325SOL    HW233032   1.691   0.293   3.763  0.7282 -2.0590 -0.1121
 8325SOL    HW333033   1.727   0.291   3.910 -0.2454 -1.2359  0.1482
 8325SOL    MW433034   1.667   0.291   3.847 -0.1258  0.4754 -0.0147
 8326SOL     OW33035   5.483   0.414   0.452  0.0562  0.5572  0.1503
 8326SOL    HW233036   5.488   0.405   0.357  0.2780 -2.1484  0.3554
 8326SOL    HW333037   5.402   0.462   0.467  0.0675  1.1366 -1.3701
 8326SOL    MW433038   5.473   0.419   0.441  0.5531 -0.1902 -0.1231
 8327SOL     OW33039   3.131   0.262   0.737 -0.0371 -0.2101 -0.2033
 8327SOL    HW233040   3.139   0.288   0.829 -0.7526  0.5994 -0.3493
 8327SOL    HW333041   3.178   0.179   0.731 -1.8135 -1.4217  1.3751
 8327SOL    MW433042   3.138   0.255   0.749  0.1523 -0.1611 -0.3775
 8328SOL     OW33043   3.215   3.038   1.888  0.1659 -0.5309 -0.5515
 8328SOL    HW233044   3.183   3.099   1.954 -1.4577 -1.8153 -0.0805
 8328SOL    HW333045   3.309   3.035   1.902 -0.1775 -1.2462  2.1858
 8328SOL    MW433046   3.223   3.045   1.899  0.2652  0.1796 -0.3199
 8329SOL     OW33047   1.318   0.630   1.728  0.0584  0.3180  0.6184
 8329SOL    HW233048   1.328   0.699   1.662  1.0039  0.4962  0.9181
 8329SOL    HW333049   1.388   0.649   1.791 -1.0285  0.3575  1.8535
 8329SOL    MW433050   1.329   0.642   1.728  0.3489  0.4387 -0.2126
 8330SOL     OW33051   0.378   5.487   4.667  0.4423  0.2293 -0.0513
 8330SOL    HW233052   0.289   5.519   4.649  0.8781  1.0907 -0.7766
 8330SOL    HW333053   0.367   5.394   4.686 -0.6472  0.3815  0.1473
 8330SOL    MW433054   0.365   5.479   4.667 -0.1670 -0.5400  0.0438
 8331SOL     OW33055   0.863   3.033   4.832  0.6372 -0.1596 -0.9308
 8331SOL    HW233056   0.938   3.019   4.891  1.2020  0.0340 -1.5889
 8331SOL    HW333057   0.882   2.978   4.756 -0.2055 -0.5888 -0.8360
 8331SOL    MW433058   0.876   3.024   4.830 -0.8060 -0.6762 -0.1621
 8332SOL     OW33059   6.324   4.168   1.967 -0.2190  0.1247  0.0991
 8332SOL    HW233060   6.400   4.148   1.912 -0.1372 -0.5968  0.4563
 8332SOL    HW333061   6.248   4.143   1.914 -0.2702  1.6507 -0.5964
 8332SOL    MW433062   6.324   4.162   1.953  0.4906 -0.3685  0.3108
 8333SOL     OW33063   1.851   2.370   4.878  0.4986  0.0361  0.3279
 8333SOL    HW233064   1.843   2.281   4.844 -0.1629 -0.4174  1.6192
 8333SOL    HW333065   1.943   2.393   4.863  1.2422 -1.6770  1.8784
 8333SOL    MW433066   1.862   2.362   4.872 -0.2947  0.1039  0.1218
 8334SOL     OW33067   6.431   0.578   5.399 -0.8234  0.1518 -0.2249
 8334SOL    HW233068   6.440   0.483   5.390  2.1829 -0.0441  2.8284
 8334SOL    HW333069   6.436   0.611   5.309 -0.1759 -2.4899 -1.2559
 8334SOL    MW433070   6.433   0.570   5.386  0.5210 -0.3658  0.2149
 8335SOL     OW33071   3.592   4.502   2.562 -0.3176  0.1092 -0.1276
 8335SOL    HW233072   3.658   4.439   2.532  0.6326  0.3639  1.2911
 8335SOL    HW333073   3.545   4.456   2.632  0.8928  1.1613  1.4591
 8335SOL    MW433074   3.594   4.487   2.567 -0.3826 -0.3861  0.1097
 8336SOL     OW33075   5.523   3.696   0.910  0.0670  0.4924 -0.6786
 8336SOL    HW233076   5.477   3.691   0.994  0.4841  0.9200 -0.4210
 8336SOL    HW333077   5.454   3.712   0.845 -0.1353  1.2207 -0.2855
 8336SOL    MW433078   5.508   3.697   0.912 -0.7951 -0.3188  0.4768
 8337SOL     OW33079   6.375   3.518   2.863 -0.0754  0.0937  0.2130
 8337SOL    HW233080   6.324   3.579   2.811  0.9333 -0.1110 -1.1002
 8337SOL    HW333081   6.359   3.433   2.822  0.9461 -0.0320  0.0256
 8337SOL    MW433082   6.366   3.515   2.851 -0.1906 -0.5429  0.0237
 8338SOL     OW33083   5.647   2.011   2.129 -0.2253 -0.7586 -0.1353
 8338SOL    HW233084   5.728   2.015   2.078 -1.2179  1.8181 -1.6990
 8338SOL    HW333085   5.673   2.036   2.218  0.7080  0.1355 -0.6404
 8338SOL    MW433086   5.661   2.015   2.134  0.3648  0.2297  0.5605
 8339SOL     OW33087   3.485   1.680   0.671 -0.1441  0.0205 -0.5249
 8339SOL    HW233088   3.453   1.596   0.702  1.9142 -0.7846 -0.4268
 8339SOL    HW333089   3.580   1.672   0.672  0.0912  1.7654 -2.1684
 8339SOL    MW433090   3.493   1.668   0.675  0.2550  0.0298  0.5832
 8340SOL     OW33091   5.680   6.312   6.277 -0.0181 -0.2067 -0.2157
 8340SOL    HW233092   5.651   6.397   6.311  0.7857 -0.0150  0.0086
 8340SOL    HW333093   5.705   6.262   6.354  1.2158  0.0006 -0.4667
 8340SOL    MW433094   5.679   6.317   6.291  0.0953 -0.4089  0.0881
 8341SOL     OW33095   5.395   0.780   4.039  0.3013  0.2588 -0.1456
 8341SOL    HW233096   5.328   0.847   4.023  0.1121  0.6891  2.1868
 8341SOL    HW333097   5.466   0.804   3.980 -1.9142 -0.8679 -3.5709
 8341SOL    MW433098   5.395   0.792   4.029 -0.0122  0.1722 -0.0556
 8342SOL     OW33099   2.448   1.199   3.688  0.9817 -0.0279 -0.3691
 8342SOL    HW233100   2.477   1.108   3.690  1.0380 -0.0106 -0.4032
 8342SOL    HW333101   2.441   1.224   3.780 -1.1536 -0.7469 -0.2695
 8342SOL    MW433102   2.451   1.190   3.700  0.6026  0.0771 -0.1683
 8343SOL     OW33103   6.268   5.258   5.871  0.0759  0.1738 -0.3915
 8343SOL    HW233104   6.216   5.244   5.950  1.1120  1.4837  0.5563
 8343SOL    HW333105   6.358   5.262   5.901  0.7094 -1.3849 -1.9296
 8343SOL    MW433106   6.273   5.257   5.886 -0.1348 -0.2580 -0.4491
 8344SOL     OW33107   1.570   1.463   3.247 -0.6865  0.2475 -0.2318
 8344SOL    HW233108   1.615   1.530   3.195 -0.3047 -0.3939 -0.7529
 8344SOL    HW333109   1.508   1.424   3.186 -1.7313  0.8903  0.3884
 8344SOL    MW433110   1.568   1.467   3.232 -0.3250  0.4244 -0.1586
 8345SOL     OW33111   1.536   1.215   2.085 -0.5804  0.1528 -0.6311
 8345SOL    HW233112   1.550   1.267   2.006 -1.4828  0.4256 -0.6288
 8345SOL    HW333113   1.481   1.270   2.140  0.2991  0.0922  0.3331
 8345SOL    MW433114   1.530   1.229   2.082  0.3732 -0.1146 -0.3009
 8346SOL     OW33115   4.115   1.100   0.496 -0.3163  0.2554 -0.0417
 8346SOL    HW233116   4.083   1.093   0.586  0.6948  1.4201  0.4358
 8346SOL    HW333117   4.108   1.193   0.475  0.7704  0.2160 -0.6581
 8346SOL    MW433118   4.110   1.111   0.505  0.5741 -0.1182 -0.5545
 8347SOL     OW33119   3.196   0.597   5.767  0.0231 -0.3946  0.5274
 8347SOL    HW233120   3.193   0.615   5.861  1.3982  0.0213  0.5151
 8347SOL    HW333121   3.140   0.521   5.755 -0.3572 -0.3112  1.6442
 8347SOL    MW433122   3.188   0.590   5.778 -0.2228 -0.0233 -0.0884
 8348SOL     OW33123   2.243   3.576   3.900 -0.2889 -0.0252 -0.5990
 8348SOL    HW233124   2.317   3.548   3.954  0.4364 -0.2991 -1.7107
 8348SOL    HW333125   2.168   3.532   3.938  0.2190 -0.2771  0.1386
 8348SOL    MW433126   2.243   3.567   3.912 -0.1310 -0.0336  0.1752
 8349SOL     OW33127   4.424   2.439   3.683 -0.2759 -0.3691 -0.3841
 8349SOL    HW233128   4.488   2.369   3.694 -1.3356 -1.2350  0.5178
 8349SOL    HW333129   4.351   2.397   3.637 -0.4018  0.4912 -1.0062
 8349SOL    MW433130   4.423   2.424   3.678  0.3382  0.4155  0.2104
 8350SOL     OW33131   4.672   2.679   0.553 -0.1195  0.3262 -0.2670
 8350SOL    HW233132   4.607   2.721   0.609 -0.0440  1.1136 -0.7503
 8350SOL    HW333133   4.732   2.750   0.528  0.6971 -0.3017 -0.1523
 8350SOL    MW433134   4.671   2.694   0.557  0.2908 -0.0722 -0.2166
 8351SOL     OW33135   3.902   1.377   0.215  0.3441 -0.0482 -0.8867
 8351SOL    HW233136   3.924   1.450   0.273  1.5515 -0.8236 -0.3272
 8351SOL    HW333137   3.878   1.305   0.274  1.3396 -0.7731 -1.3380
 8351SOL    MW433138   3.902   1.377   0.231  0.0252  0.2079  0.3006
 8352SOL     OW33139   6.131   3.577   1.695 -0.5969  0.4124  0.0729
 8352SOL    HW233140   6.110   3.485   1.711 -0.6540  0.5259  0.6758
 8352SOL    HW333141   6.081   3.625   1.761  0.3530  0.7943  0.5327
 8352SOL    MW433142   6.122   3.571   1.706  0.0112 -0.1247  0.1888
 8353SOL     OW33143   0.202   0.314   3.561 -0.0581  0.2064 -0.3038
 8353SOL    HW233144   0.148   0.290   3.636  1.0325 -1.6663 -0.0770
 8353SOL    HW333145   0.290   0.285   3.584  0.2516 -0.7298 -2.4195
 8353SOL    MW433146   0.206   0.307   3.574 -0.0915 -0.0757 -0.3996
 8354SOL     OW33147   3.007   2.702   2.632 -0.2089  0.1740  0.1517
 8354SOL    HW233148   3.028   2.635   2.696  1.1719  0.8252  0.4209
 8354SOL    HW333149   2.965   2.772   2.683  1.5051  0.9887  0.5197
 8354SOL    MW433150   3.004   2.702   2.647  0.1359 -0.6215 -0.1965
 8355SOL     OW33151   3.057   4.786   0.674 -0.0428  0.0798 -0.2644
 8355SOL    HW233152   3.004   4.814   0.600 -1.4021 -2.3789 -0.3331
 8355SOL    HW333153   3.129   4.737   0.635  0.6062  0.8262 -0.0311
 8355SOL    MW433154   3.059   4.783   0.659  0.0856 -0.4814  0.1513
 8356SOL     OW33155   2.000   4.254   5.963 -0.1634 -0.0104  0.9377
 8356SOL    HW233156   2.046   4.208   6.033 -2.3862 -2.4971  0.8830
 8356SOL    HW333157   1.995   4.191   5.892 -2.4347  0.6394  0.4584
 8356SOL    MW433158   2.005   4.240   5.963  0.0894  0.4856 -0.3957
 8357SOL     OW33159   2.334   1.178   0.551 -0.0595 -0.6279 -0.3748
 8357SOL    HW233160   2.388   1.102   0.529  0.1957 -0.5808  0.0714
 8357SOL    HW333161   2.283   1.196   0.472  1.1913 -0.1571 -1.1079
 8357SOL    MW433162   2.335   1.171   0.538  0.0405  0.3918 -0.4081
 8358SOL     OW33163   2.926   5.321   5.947  0.3948  0.2249 -0.2367
 8358SOL    HW233164   2.868   5.312   5.871  0.4678 -0.3580 -0.2270
 8358SOL    HW333165   2.886   5.390   6.000  0.0915  0.3110 -0.5735
 8358SOL    MW433166   2.913   5.329   5.944 -0.0211  0.4352  1.0110
 8359SOL     OW33167   1.902   0.812   1.417 -0.3360  0.4490  0.0201
 8359SOL    HW233168   1.919   0.899   1.451 -0.8890  0.7229 -0.3928
 8359SOL    HW333169   1.988   0.778   1.393 -0.0152  0.5003  1.0870
 8359SOL    MW433170   1.915   0.819   1.418  0.0642 -0.3923  0.0892
 8360SOL     OW33171   2.375   1.022   2.786  0.3466  0.0110  0.1244
 8360SOL    HW233172   2.312   1.069   2.730  0.8470  0.2212 -0.2654
 8360SOL    HW333173   2.333   1.020   2.872  0.9338  2.4998  0.5504
 8360SOL    MW433174   2.361   1.028   2.790 -0.2933  0.1181  0.3947
 8361SOL     OW33175   1.188   0.776   5.130  0.2813 -0.3050 -0.0899
 8361SOL    HW233176   1.124   0.751   5.064 -3.2462  0.9730  2.5069
 8361SOL    HW333177   1.215   0.864   5.105  1.5222 -1.0421 -1.4769
 8361SOL    MW433178   1.183   0.784   5.118  0.3099  0.5556  0.0554
 8362SOL     OW33179   6.429   3.020   6.254 -0.1159 -0.2794  0.1467
 8362SOL    HW233180   6.421   3.097   6.198  2.1823 -1.1875 -1.5967
 8362SOL    HW333181   6.347   2.972   6.241 -0.2622  0.3056 -1.2754
 8362SOL    MW433182   6.417   3.024   6.245  0.0495  0.1172  0.3364
 8363SOL     OW33183   5.377   3.647   3.787  0.2530  0.1528 -0.1422
 8363SOL    HW233184   5.441   3.600   3.734  0.4005 -2.7201  2.2966
 8363SOL    HW333185   5.295   3.599   3.772 -0.0673  0.3578  0.8992
 8363SOL    MW433186   5.374   3.634   3.778 -0.4083  0.4248 -0.0873
 8364SOL     OW33187   3.168   6.339   3.104  0.2829  0.0601 -0.1369
 8364SOL    HW233188   3.240   6.277   3.106  0.0272 -0.2315  0.8812
 8364SOL    HW333189   3.100   6.299   3.159  0.3600  1.5109  1.0951
 8364SOL    MW433190   3.168   6.326   3.112  0.1260  0.5001 -0.4718
 8365SOL     OW33191   0.514   2.931   0.737 -0.3388  0.0661  0.7956
 8365SOL    HW233192   0.579   2.881   0.689 -0.9222 -0.5538  0.6309
 8365SOL    HW333193   0.488   2.874   0.810  1.1852  1.3404  2.4264
 8365SOL    MW433194   0.519   2.917   0.740 -0.1668 -0.2006  0.0159
 8366SOL     OW33195   3.427   6.182   0.151  0.5422  0.5079  0.3159
 8366SOL    HW233196   3.477   6.238   0.092  0.0563  0.1749 -0.4294
 8366SOL    HW333197   3.390   6.242   0.216  1.6543  0.7912  0.7038
 8366SOL    MW433198   3.429   6.198   0.152 -0.4310 -0.2621  0.2517
 8367SOL     OW33199   0.169   0.431   6.292 -0.1513  0.0925  0.0892
 8367SOL    HW233200   0.257   0.462   6.269 -0.5729  0.6214 -0.8887
 8367SOL    HW333201   0.163   0.443   6.386 -0.1170  2.5871 -0.1527
 8367SOL    MW433202   0.180   0.437   6.301  0.6683  0.3621 -0.3530
 8368SOL     OW33203   0.819   4.338   2.465 -0.5841  0.5486  0.4500
 8368SOL    HW233204   0.800   4.348   2.558 -2.7065 -1.1332  0.2763
 8368SOL    HW333205   0.895   4.394   2.450  0.9799 -0.4705  3.5552
 8368SOL    MW433206   0.827   4.347   2.475 -0.2598  0.2134  0.5813
 8369SOL     OW33207   4.433   1.616   6.119 -0.8935  0.0661  0.2688
 8369SOL    HW233208   4.360   1.670   6.087  0.3079  0.9314 -1.1177
 8369SOL    HW333209   4.423   1.533   6.073 -0.3747  0.5762 -0.7833
 8369SOL    MW433210   4.422   1.612   6.109 -0.0675  0.2938 -0.5880
 8370SOL     OW33211   5.417   5.408   0.525  0.0793  0.4998  0.2884
 8370SOL    HW233212   5.437   5.463   0.600  2.3937 -1.5274  1.3103
 8370SOL    HW333213   5.450   5.321   0.550 -1.3002 -0.8245 -2.1195
 8370SOL    MW433214   5.424   5.403   0.538  0.0108  1.1021  0.2018
 8371SOL     OW33215   2.637   5.761   4.223 -0.3575  0.2876 -0.6385
 8371SOL    HW233216   2.666   5.715   4.144  0.8357  0.2895 -0.2193
 8371SOL    HW333217   2.588   5.695   4.272 -3.6005  0.9964 -2.6016
 8371SOL    MW433218   2.634   5.746   4.219  0.1014 -0.3412 -0.4014
 8372SOL     OW33219   4.091   5.767   1.587  0.3434 -0.0500 -0.2220
 8372SOL    HW233220   4.081   5.855   1.624  2.0100 -0.4924  1.4610
 8372SOL    HW333221   4.091   5.781   1.492  0.0993  1.7083  0.0011
 8372SOL    MW433222   4.090   5.781   1.579  0.3196  0.5122 -0.2039
 8373SOL     OW33223   4.468   3.724   0.761  0.0283 -0.1967  0.1608
 8373SOL    HW233224   4.454   3.647   0.705  0.6447 -0.6745  0.6496
 8373SOL    HW333225   4.501   3.688   0.843  0.2151  0.5873  0.4345
 8373SOL    MW433226   4.470   3.709   0.764 -0.0458  0.0880  0.0812
 8374SOL     OW33227   2.739   5.842   0.412 -0.0543 -0.7520  0.3635
 8374SOL    HW233228   2.778   5.850   0.499  1.6371  0.5069 -0.4545
 8374SOL    HW333229   2.792   5.899   0.356 -0.2395 -2.5332 -1.7770
 8374SOL    MW433230   2.751   5.850   0.416  0.5414  0.0028 -0.2761
 8375SOL     OW33231   2.857   5.363   3.947  0.1213  0.0872 -0.2920
 8375SOL    HW233232   2.887   5.288   3.998 -0.9586 -0.5726 -0.5823
 8375SOL    HW333233   2.923   5.374   3.879  0.7578 -0.0103  0.2989
 8375SOL    MW433234   2.870   5.355   3.945 -0.3867 -0.2915  0.0253
 8376SOL     OW33235   2.570   5.965   4.760 -0.3475  0.5471  0.4603
 8376SOL    HW233236   2.590   6.058   4.769 -0.7417  0.6849 -0.0807
 8376SOL    HW333237   2.631   5.933   4.694 -1.4881  0.8408 -0.7581
 8376SOL    MW433238   2.581   5.973   4.753  0.3451  0.1320 -0.1351
 8377SOL     OW33239   3.414   0.325   4.241  0.2904  0.4890 -0.0260
 8377SOL    HW233240   3.428   0.238   4.278  1.2301  0.5680 -0.1562
 8377SOL    HW333241   3.338   0.360   4.287 -1.5520 -1.2745 -1.5666
 8377SOL    MW433242   3.406   0.319   4.252  0.2875 -0.1628 -0.1969
 8378SOL     OW33243   1.904   4.949   1.535 -0.2834  0.4873 -0.0495
 8378SOL    HW233244   1.840   5.009   1.573 -0.4491  0.2638  0.0260
 8378SOL    HW333245   1.942   4.998   1.462 -0.3934  0.6949  0.0306
 8378SOL    MW433246   1.901   4.964   1.530  0.4208  0.2435  0.4410
 8379SOL     OW33247   5.334   2.642   1.037 -0.3216  0.5431 -0.0083
 8379SOL    HW233248   5.320   2.685   0.953 -1.8389  0.6309  0.2622
 8379SOL    HW333249   5.251   2.652   1.084  0.1512 -0.4033  1.0959
 8379SOL    MW433250   5.321   2.649   1.032  0.2879 -0.4053  0.0571
 8380SOL     OW33251   6.427   0.642   0.246 -0.2803  0.2347 -0.0065
 8380SOL    HW233252   6.456   0.635   0.337 -0.7484  0.2398  0.1461
 8380SOL    HW333253   6.408   0.552   0.220 -0.4007  0.2639 -0.0172
 8380SOL    MW433254   6.429   0.630   0.255  0.1753 -0.1158  0.4007
 8381SOL     OW33255   4.159   2.284   5.876  0.1032  0.4677  0.5240
 8381SOL    HW233256   4.139   2.285   5.783 -0.7017  0.5758  0.6879
 8381SOL    HW333257   4.074   2.272   5.919  0.6122 -0.8377  1.2085
 8381SOL    MW433258   4.145   2.283   5.869  0.1672 -0.4096  0.4226
 8382SOL     OW33259   0.388   3.883   2.704 -0.1457 -0.5693 -0.3032
 8382SOL    HW233260   0.362   3.858   2.616  1.8401  0.2291 -1.1723
 8382SOL    HW333261   0.483   3.876   2.705 -0.0456  0.1946  1.5344
 8382SOL    MW433262   0.397   3.879   2.693 -0.8203  0.0725 -0.0714
 8383SOL     OW33263   0.303   5.216   4.719 -0.3175 -0.3031 -0.6945
 8383SOL    HW233264   0.315   5.181   4.631  1.6877  0.4588 -0.7537
 8383SOL    HW333265   0.378   5.183   4.769  0.2871  1.8134 -0.1087
 8383SOL    MW433266   0.314   5.207   4.714  1.1202 -0.8011 -0.1614
 8384SOL     OW33267   6.225   1.316   1.971  0.0391 -0.5498  0.3977
 8384SOL    HW233268   6.167   1.275   1.906  0.0550 -0.6348  0.4361
 8384SOL    HW333269   6.166   1.356   2.034  0.0231 -0.5284  0.3691
 8384SOL    MW433270   6.209   1.315   1.971  0.3732 -0.6927 -0.3649
 8385SOL     OW33271   1.605   6.376   1.674 -0.1909  0.9635  0.9393
 8385SOL    HW233272   1.673   6.313   1.650  0.4194  1.7739  0.4398
 8385SOL    HW333273   1.566   6.402   1.590 -2.1660 -0.5904  1.3299
 8385SOL    MW433274   1.609   6.371   1.660  0.2901  0.0107 -0.6718
 8386SOL     OW33275   3.001   5.110   2.528 -0.0168 -0.5150  0.2308
 8386SOL    HW233276   3.080   5.164   2.528  0.1222 -0.6991 -0.5133
 8386SOL    HW333277   3.021   5.040   2.466 -0.9086 -0.3402 -0.2743
 8386SOL    MW433278   3.014   5.108   2.519 -0.1751 -0.4104 -0.3344
 8387SOL     OW33279   3.398   3.603   3.371  0.4507 -0.9693  0.6555
 8387SOL    HW233280   3.341   3.527   3.364 -1.5942  0.6255 -1.6206
 8387SOL    HW333281   3.367   3.649   3.449 -0.1150 -1.0845  0.5007
 8387SOL    MW433282   3.386   3.599   3.380  0.3658  0.2165 -0.4160
 8388SOL     OW33283   3.511   5.140   6.336  0.1262 -0.1055 -0.0423
 8388SOL    HW233284   3.477   5.117   6.249  0.5651 -0.5064 -0.1131
 8388SOL    HW333285   3.485   5.067   6.392 -0.0156  0.0766  0.1325
 8388SOL    MW433286   3.503   5.127   6.332  0.1398  0.3483  0.1177
 8389SOL     OW33287   0.265   1.244   0.955 -0.3795  0.6962 -0.0112
 8389SOL    HW233288   0.327   1.171   0.963 -0.6854  0.5778  1.4712
 8389SOL    HW333289   0.299   1.311   1.015 -0.1899  1.7413 -1.2285
 8389SOL    MW433290   0.278   1.243   0.964 -0.4902  0.3777 -0.0861
 8390SOL     OW33291   0.087   5.879   5.138 -0.1056  0.2168 -0.0011
 8390SOL    HW233292   0.111   5.852   5.050 -1.1431  1.8544 -0.8446
 8390SOL    HW333293  -0.001   5.917   5.128 -0.7739 -0.6935  1.9706
 8390SOL    MW433294   0.078   5.881   5.125  0.1384  0.3245 -0.7038
 8391SOL     OW33295   3.723   2.621   3.447 -0.3229  0.2315 -0.2085
 8391SOL    HW233296   3.633   2.613   3.416 -0.4598 -1.7537  0.5796
 8391SOL    HW333297   3.720   2.690   3.513 -1.4755 -0.4244  0.4554
 8391SOL    MW433298   3.711   2.629   3.452 -0.1210 -0.1829 -0.1846
 8392SOL     OW33299   0.524   6.283   2.617  0.1071  0.0816  0.4599
 8392SOL    HW233300   0.457   6.221   2.587  2.0639 -1.4254 -1.0507
 8392SOL    HW333301   0.597   6.228   2.644  0.7294  1.6735  2.2727
 8392SOL    MW433302   0.525   6.268   2.617  0.3652 -0.0122 -0.4353
 8393SOL     OW33303   4.679   1.610   4.551  0.0800  0.3439 -0.3712
 8393SOL    HW233304   4.745   1.645   4.491  0.1714  2.0835  0.6733
 8393SOL    HW333305   4.702   1.648   4.636 -0.5264 -1.4134  0.6216
 8393SOL    MW433306   4.691   1.620   4.555 -0.0516 -0.3733 -0.8103
 8394SOL     OW33307   5.116   3.006   0.495 -0.0657  0.2946  0.4017
 8394SOL    HW233308   5.201   3.049   0.487  1.8962 -3.2700  0.4276
 8394SOL    HW333309   5.083   3.003   0.405 -0.1870  1.5985  0.3772
 8394SOL    MW433310   5.123   3.011   0.482  0.4537  0.2948  0.1097
 8395SOL     OW33311   4.046   5.931   5.938 -0.7200  0.2693  0.4004
 8395SOL    HW233312   4.034   5.851   5.988 -1.9037  0.1577 -0.0454
 8395SOL    HW333313   4.064   5.901   5.849  2.0066  0.4450  0.7930
 8395SOL    MW433314   4.047   5.917   5.933 -0.5003 -0.8018  0.0777
 8396SOL     OW33315   1.131   3.870   0.037  0.0703  0.1889 -0.6931
 8396SOL    HW233316   1.094   3.854  -0.050  0.0182  0.1413 -0.6618
 8396SOL    HW333317   1.161   3.961   0.033  0.6999 -0.0270 -0.9909
 8396SOL    MW433318   1.130   3.880   0.025  0.2444 -0.1974 -0.6352
 8397SOL     OW33319   0.080   5.860   4.529  0.5391  0.2197 -0.8457
 8397SOL    HW233320  -0.013   5.863   4.507 -0.1764 -2.6067  1.2185
 8397SOL    HW333321   0.088   5.911   4.609  0.8920  0.7970 -1.2364
 8397SOL    MW433322   0.069   5.867   4.536 -0.2913 -0.1856 -0.3138
 8398SOL     OW33323   6.102   2.731   3.302  0.8886  0.2893 -0.5507
 8398SOL    HW233324   6.088   2.823   3.279  0.6885  0.6232  0.8282
 8398SOL    HW333325   6.186   2.709   3.261  1.3222  1.3153 -0.2487
 8398SOL    MW433326   6.111   2.740   3.293  0.6118 -0.0887  0.2067
 8399SOL     OW33327   2.770   5.714   5.316  0.6962  0.4017 -0.3127
 8399SOL    HW233328   2.835   5.660   5.271 -1.0828 -0.3917 -2.1129
 8399SOL    HW333329   2.701   5.652   5.341  0.2923  1.3135  0.9337
 8399SOL    MW433330   2.769   5.699   5.313 -0.0009 -0.1866  0.2221
 8400SOL     OW33331   5.061   2.229   5.174  0.4419  0.0344  0.2123
 8400SOL    HW233332   4.975   2.188   5.168  0.8643 -1.4056  2.5725
 8400SOL    HW333333   5.115   2.181   5.112 -0.3597  0.7946 -1.1148
 8400SOL    MW433334   5.057   2.218   5.165  0.3008  0.3512  0.3469
 8401SOL     OW33335   4.439   2.045   3.659  0.2550 -0.2722  0.0906
 8401SOL    HW233336   4.382   2.082   3.726 -0.6826  0.6943 -1.2074
 8401SOL    HW333337   4.498   2.116   3.635  0.7090 -0.6696 -0.0022
 8401SOL    MW433338   4.440   2.059   3.665  0.7014  0.2290 -0.3588
 8402SOL     OW33339   6.150   1.025   2.155  0.1276  0.5840  0.3285
 8402SOL    HW233340   6.172   1.014   2.062  1.2994  1.3061  0.4913
 8402SOL    HW333341   6.230   1.060   2.194 -0.6885  1.3076  1.4090
 8402SOL    MW433342   6.164   1.028   2.148  0.7219 -0.3914  0.4019
 8403SOL     OW33343   5.671   0.836   4.667 -0.0927 -0.3974  0.4345
 8403SOL    HW233344   5.721   0.812   4.745 -0.4325 -0.9953  0.4755
 8403SOL    HW333345   5.728   0.812   4.594 -0.3377 -1.1408  0.4793
 8403SOL    MW433346   5.685   0.829   4.668 -0.2521 -0.0110 -0.4049
 8404SOL     OW33347   2.824   0.269   5.240 -0.1398 -0.5062 -0.2456
 8404SOL    HW233348   2.732   0.295   5.231  0.3053  0.5884 -1.9515
 8404SOL    HW333349   2.865   0.297   5.159  1.0146 -4.0143 -1.0533
 8404SOL    MW433350   2.817   0.276   5.228 -0.2846 -0.2251  0.0323
 8405SOL     OW33351   2.529   0.435   0.844  0.1116  0.0733  0.0552
 8405SOL    HW233352   2.607   0.467   0.798 -0.4816  2.5335  0.6689
 8405SOL    HW333353   2.559   0.417   0.933  0.4922 -1.4233 -0.3431
 8405SOL    MW433354   2.543   0.437   0.850  0.2138 -0.2699  0.4754
 8406SOL     OW33355   1.627   0.452   4.474 -0.0073 -0.5552  0.2392
 8406SOL    HW233356   1.699   0.481   4.530  0.7665  0.1523 -1.0743
 8406SOL    HW333357   1.579   0.532   4.453  0.1946 -0.6708 -0.7315
 8406SOL    MW433358   1.631   0.466   4.478 -0.4073 -0.3073  0.3771
 8407SOL     OW33359   4.704   0.940   5.223 -0.5941 -0.4459 -0.8987
 8407SOL    HW233360   4.747   0.857   5.246 -0.8509 -0.8335 -1.8065
 8407SOL    HW333361   4.759   1.007   5.264 -0.7310 -1.0852  0.3809
 8407SOL    MW433362   4.717   0.938   5.232  0.3587  0.2223  0.7107
 8408SOL     OW33363   0.923   4.072   5.597  0.0644 -0.0826 -0.8340
 8408SOL    HW233364   0.968   4.156   5.587 -1.9493  1.3698  1.2938
 8408SOL    HW333365   0.913   4.060   5.691 -1.5246 -1.6822 -1.1426
 8408SOL    MW433366   0.927   4.081   5.608 -0.1965  0.1963  0.0504
 8409SOL     OW33367   1.504   6.050   4.108 -0.1666 -0.0851 -0.1814
 8409SOL    HW233368   1.596   6.064   4.132  0.3082 -0.2949 -1.8021
 8409SOL    HW333369   1.462   6.134   4.125  1.0346  1.0693 -2.4712
 8409SOL    MW433370   1.511   6.063   4.114  0.0736 -0.2693 -0.2611
 8410SOL     OW33371   2.107   3.859   0.055 -0.1359 -0.1928 -0.3938
 8410SOL    HW233372   2.023   3.814   0.063 -0.2869  0.0070 -0.8779
 8410SOL    HW333373   2.157   3.829   0.132 -1.0810  0.6256  0.5813
 8410SOL    MW433374   2.103   3.849   0.066 -0.1753 -0.3961 -0.0837
 8411SOL     OW33375   3.802   5.299   6.072  0.1497 -0.5739  0.4064
 8411SOL    HW233376   3.883   5.301   6.021  0.1994 -2.0808  0.3651
 8411SOL    HW333377   3.773   5.390   6.075  0.5198 -0.3221 -1.7285
 8411SOL    MW433378   3.808   5.311   6.066 -0.1963 -0.4821  0.0237
 8412SOL     OW33379   5.919   5.586   5.079  0.0038 -0.6653  0.8515
 8412SOL    HW233380   5.983   5.614   5.014  0.1051 -1.4127  0.6209
 8412SOL    HW333381   5.837   5.580   5.030 -0.5504  1.4776  1.3971
 8412SOL    MW433382   5.917   5.589   5.064  0.5064 -0.5136 -0.1932
 8413SOL     OW33383   3.354   1.778   5.758 -0.2112  0.3220 -0.4170
 8413SOL    HW233384   3.391   1.861   5.789 -2.6702  0.9269  1.1686
 8413SOL    HW333385   3.365   1.719   5.833  3.7996 -1.7681 -2.3131
 8413SOL    MW433386   3.361   1.781   5.772 -0.1131 -0.5455  0.3705
 8414SOL     OW33387   4.442   5.046   4.469  0.3206 -0.2523  0.0593
 8414SOL    HW233388   4.516   5.030   4.528  0.8216  0.9749 -0.1925
 8414SOL    HW333389   4.366   5.013   4.516  0.3511  2.6780  2.4866
 8414SOL    MW433390   4.442   5.039   4.483  0.2686 -0.0049  0.1359
 8415SOL     OW33391   3.819   4.824   3.140  0.0343 -1.1137 -0.0603
 8415SOL    HW233392   3.883   4.753   3.144  0.9042 -0.5198 -2.1388
 8415SOL    HW333393   3.817   4.850   3.048 -1.6751  0.2979  0.3093
 8415SOL    MW433394   3.827   4.818   3.128 -0.1823 -0.1075  0.0147
 8416SOL     OW33395   5.618   5.574   4.038  0.4466 -0.1781  0.3913
 8416SOL    HW233396   5.688   5.621   3.992  0.6794  0.7551  1.6453
 8416SOL    HW333397   5.579   5.517   3.971  1.3846  0.4278 -0.7048
 8416SOL    MW433398   5.622   5.572   4.023  0.0265 -0.0657  0.1666
 8417SOL     OW33399   0.791   3.971   6.288 -0.7404  0.1455  0.3786
 8417SOL    HW233400   0.719   3.972   6.351 -1.0651  1.9830  0.0167
 8417SOL    HW333401   0.761   4.026   6.216 -0.7644 -2.5647 -1.8785
 8417SOL    MW433402   0.778   3.978   6.287  0.1055 -0.1888 -0.6727
 8418SOL     OW33403   0.593   3.644   6.248  0.0350  0.3032 -0.3034
 8418SOL    HW233404   0.590   3.588   6.325  0.1025  0.3542 -0.2630
 8418SOL    HW333405   0.685   3.670   6.241  0.2447 -0.6111 -1.0616
 8418SOL    MW433406   0.605   3.640   6.258 -0.0769 -0.2523  0.0352
 8419SOL     OW33407   3.019   6.265   2.621 -0.0091  0.1429 -0.0419
 8419SOL    HW233408   2.998   6.228   2.707  1.0160  0.4449  0.3583
 8419SOL    HW333409   2.985   6.355   2.625  0.2685  0.2410  0.1499
 8419SOL    MW433410   3.011   6.272   2.633  0.1510 -0.2620  0.1834
 8420SOL     OW33411   4.641   4.759   5.845 -0.2107 -0.7168  0.5198
 8420SOL    HW233412   4.601   4.687   5.894 -1.1968 -1.6237 -1.5352
 8420SOL    HW333413   4.735   4.748   5.860 -0.4639 -1.0836  2.0065
 8420SOL    MW433414   4.649   4.748   5.854  0.5224 -0.4274  0.3075
 8421SOL     OW33415   6.054   4.285   5.787 -0.0364  0.3615  0.0957
 8421SOL    HW233416   6.023   4.353   5.728 -0.8353  1.1186  1.3395
 8421SOL    HW333417   6.063   4.329   5.872  0.7596 -0.7675  0.6214
 8421SOL    MW433418   6.051   4.300   5.790 -0.3742  0.1464  0.6588
 8422SOL     OW33419   4.565   4.666   1.114  0.2071 -0.0226  0.5801
 8422SOL    HW233420   4.623   4.597   1.144 -0.9304 -0.7191  1.2544
 8422SOL    HW333421   4.495   4.620   1.067 -0.3121  0.7016  0.6235
 8422SOL    MW433422   4.563   4.651   1.111 -0.0574 -0.5530 -1.0039
 8423SOL     OW33423   1.871   3.666   5.539 -0.4008 -0.2361  0.3036
 8423SOL    HW233424   1.850   3.710   5.457 -1.3771 -1.2086  0.0063
 8423SOL    HW333425   1.855   3.573   5.522 -0.2844 -0.4982  1.4889
 8423SOL    MW433426   1.866   3.659   5.526 -0.2238  0.6814  0.3835
 8424SOL     OW33427   5.581   1.630   0.601 -0.1769  0.7153  0.2114
 8424SOL    HW233428   5.590   1.725   0.595  0.8739  0.6754  0.8162
 8424SOL    HW333429   5.559   1.614   0.693 -1.3918  0.4223 -0.1089
 8424SOL    MW433430   5.579   1.640   0.613 -0.2539 -0.2225  0.2329
 8425SOL     OW33431   5.363   0.326   5.790 -0.1197  0.4760  0.1532
 8425SOL    HW233432   5.341   0.357   5.878  0.2306  1.2959 -0.0340
 8425SOL    HW333433   5.421   0.394   5.755 -1.3073  0.8455 -1.2005
 8425SOL    MW433434   5.368   0.339   5.797 -0.4566  0.6108 -0.0002
 8426SOL     OW33435   1.123   2.716   4.542 -0.0141  0.0104  0.1457
 8426SOL    HW233436   1.203   2.689   4.587  1.4459  1.5400 -1.3903
 8426SOL    HW333437   1.094   2.636   4.497  1.3498 -0.3101 -0.2343
 8426SOL    MW433438   1.130   2.702   4.542 -0.3402  0.3391 -0.4500
 8427SOL     OW33439   1.008   3.764   0.388 -0.0391 -0.2116  0.2276
 8427SOL    HW233440   1.023   3.680   0.345  0.3688  0.2474 -0.5387
 8427SOL    HW333441   0.944   3.809   0.332  1.3557  0.8585 -0.5682
 8427SOL    MW433442   1.001   3.759   0.375 -0.7996 -0.2972 -0.7481
 8428SOL     OW33443   1.769   5.646   1.373  0.2589  0.0507  0.7402
 8428SOL    HW233444   1.863   5.645   1.357  0.1203  1.8180 -0.5004
 8428SOL    HW333445   1.758   5.601   1.456  2.2596  0.3143  1.1978
 8428SOL    MW433446   1.780   5.640   1.382 -0.4081 -0.3067 -0.1087
 8429SOL     OW33447   2.163   0.287   3.939  0.7767  0.2931 -0.2108
 8429SOL    HW233448   2.250   0.310   3.907  1.8843 -1.6344  1.2052
 8429SOL    HW333449   2.173   0.277   4.033 -1.3731  1.5384  0.2180
 8429SOL    MW433450   2.176   0.288   3.947 -1.0090  0.6896 -0.0456
 8430SOL     OW33451   1.088   2.126   4.496 -0.2795  0.3392 -0.8834
 8430SOL    HW233452   1.090   2.138   4.401 -1.3193 -3.6355 -1.5708
 8430SOL    HW333453   1.153   2.058   4.513 -1.3494 -0.2914  0.9694
 8430SOL    MW433454   1.097   2.119   4.485  0.2572 -0.2368 -0.5866
 8431SOL     OW33455   5.882   3.234   0.279  0.3767  0.1209  0.3054
 8431SOL    HW233456   5.849   3.239   0.368  0.9676 -0.0504  0.5382
 8431SOL    HW333457   5.809   3.264   0.224  0.4713  1.5683  0.9351
 8431SOL    MW433458   5.868   3.239   0.283 -0.6719 -0.3878  0.1159
 8432SOL     OW33459   1.767   3.392   2.753 -0.1746 -0.2619 -0.5627
 8432SOL    HW233460   1.839   3.414   2.812 -0.6536  0.9923 -0.4187
 8432SOL    HW333461   1.710   3.335   2.804  0.8169 -1.4711 -0.7550
 8432SOL    MW433462   1.769   3.387   2.767 -0.0135 -0.5401 -0.4063
 8433SOL     OW33463   4.275   4.995   6.008 -0.0112  0.2816 -0.3566
 8433SOL    HW233464   4.244   5.039   6.087 -0.2471  0.0402 -0.3134
 8433SOL    HW333465   4.368   4.981   6.023 -0.6027 -2.8018  1.3648
 8433SOL    MW433466   4.283   4.999   6.020  0.2210 -0.2083  0.0559
 8434SOL     OW33467   0.461   3.805   3.182  0.2082 -0.3751  0.6367
 8434SOL    HW233468   0.491   3.861   3.110 -2.4632  0.3211 -0.0611
 8434SOL    HW333469   0.482   3.716   3.155 -0.5345 -0.1023 -0.9367
 8434SOL    MW433470   0.468   3.801   3.169  0.0216 -0.4350  0.6141
 8435SOL     OW33471   5.329   2.651   5.198 -0.3450  0.9744  0.2577
 8435SOL    HW233472   5.386   2.711   5.151  0.2768  1.7719  1.9554
 8435SOL    HW333473   5.263   2.706   5.239 -2.0230  0.1209 -1.1426
 8435SOL    MW433474   5.328   2.666   5.197  0.0553  0.1210 -0.0896
 8436SOL     OW33475   0.270   5.571   3.340  0.3071 -0.1477  0.7927
 8436SOL    HW233476   0.245   5.479   3.335 -1.8422  0.4332  0.1131
 8436SOL    HW333477   0.216   5.607   3.410  0.3319  0.8450  0.3170
 8436SOL    MW433478   0.260   5.564   3.349  0.0311  0.4778  0.1059
 8437SOL     OW33479   6.182   2.232   1.452 -0.4492 -0.3943  0.0894
 8437SOL    HW233480   6.179   2.278   1.368 -0.0748  1.5302  1.0742
 8437SOL    HW333481   6.263   2.182   1.449 -1.8451 -2.7678 -1.8199
 8437SOL    MW433482   6.192   2.231   1.441  0.1943 -0.5289  0.6351
 8438SOL     OW33483   1.936   5.270   3.284 -0.6625 -0.2409 -0.1433
 8438SOL    HW233484   1.843   5.284   3.299 -0.7325 -0.3335 -0.4724
 8438SOL    HW333485   1.976   5.357   3.293 -1.0112  0.0933 -1.6226
 8438SOL    MW433486   1.929   5.283   3.287 -0.1614 -0.0280 -0.0067
 8439SOL     OW33487   5.192   4.321   0.802 -0.4815 -0.2053  0.3750
 8439SOL    HW233488   5.258   4.308   0.734  0.8026  3.9373  0.5363
 8439SOL    HW333489   5.116   4.273   0.771  0.7620 -0.3405 -2.8698
 8439SOL    MW433490   5.191   4.313   0.789 -0.3023 -0.2520 -0.4662
 8440SOL     OW33491   4.919   2.749   3.997 -0.3633  0.4072 -0.3916
 8440SOL    HW233492   4.908   2.820   4.060  0.0549  1.3028 -1.2896
 8440SOL    HW333493   5.012   2.752   3.974 -0.4198 -0.1995 -0.7168
 8440SOL    MW433494   4.930   2.759   4.002  0.6348 -0.2620  0.0727
 8441SOL     OW33495   0.270   1.869   3.055  0.5946  0.0871 -0.0167
 8441SOL    HW233496   0.301   1.835   2.972 -1.3772 -1.2156 -0.2865
 8441SOL    HW333497   0.176   1.847   3.057  0.4939  0.4383  2.3551
 8441SOL    MW433498   0.261   1.862   3.044 -0.7029 -0.2421  0.1584
 8442SOL     OW33499   5.849   0.882   0.858  0.4208 -0.2016 -0.0989
 8442SOL    HW233500   5.804   0.916   0.935  0.6157 -0.2304  0.0296
 8442SOL    HW333501   5.942   0.884   0.882  0.5237  0.3124 -0.5412
 8442SOL    MW433502   5.856   0.886   0.871 -0.4165 -0.4710 -0.2510
 8443SOL     OW33503   1.762   1.604   3.101  0.1012 -0.7371  0.1182
 8443SOL    HW233504   1.842   1.586   3.150  0.8660 -0.0007 -0.8084
 8443SOL    HW333505   1.787   1.592   3.009  0.2519  3.0640 -0.5186
 8443SOL    MW433506   1.776   1.600   3.095  0.4639  1.0385 -0.4334
 8444SOL     OW33507   3.369   0.246   1.235  0.6157  0.1081 -0.4565
 8444SOL    HW233508   3.456   0.264   1.198  0.9281  0.7393  0.5398
 8444SOL    HW333509   3.308   0.284   1.171  1.1954  2.7084  0.4198
 8444SOL    MW433510   3.373   0.253   1.221  0.5597 -0.0965  0.0067
 8445SOL     OW33511   2.344   5.826   0.794  0.7216 -0.0207  0.0605
 8445SOL    HW233512   2.389   5.845   0.712  1.6812 -1.7956  0.1325
 8445SOL    HW333513   2.368   5.736   0.815 -0.7047 -0.1191  1.5289
 8445SOL    MW433514   2.353   5.817   0.786  0.0162  0.6393 -0.3569
 8446SOL     OW33515   1.819   5.929   1.328 -0.0019  0.1720  0.3219
 8446SOL    HW233516   1.778   5.979   1.398  1.4095  0.5131  0.9293
 8446SOL    HW333517   1.777   5.843   1.332 -1.8965  1.0061 -0.2303
 8446SOL    MW433518   1.808   5.924   1.338  0.4298 -0.0294 -0.7286
 8447SOL     OW33519   4.736   0.871   4.574  0.4250 -0.2255  0.5509
 8447SOL    HW233520   4.820   0.917   4.565  0.6620 -0.7404  0.0863
 8447SOL    HW333521   4.672   0.931   4.537  0.6449  0.0016  0.5359
 8447SOL    MW433522   4.739   0.885   4.568 -0.2210  0.5527  0.1663
 8448SOL     OW33523   2.201   0.474   5.649 -0.2449  0.2632  0.3700
 8448SOL    HW233524   2.144   0.397   5.648 -0.4308  0.3760  1.1001
 8448SOL    HW333525   2.147   0.544   5.613 -0.1361  0.0938 -0.1269
 8448SOL    MW433526   2.186   0.473   5.644  0.0278  0.2931  0.1219
 8449SOL     OW33527   0.236   3.683   6.069 -0.1394 -0.4049 -0.1842
 8449SOL    HW233528   0.297   3.751   6.099  1.2211 -0.0092 -3.4282
 8449SOL    HW333529   0.289   3.604   6.065 -0.5245 -0.6416 -0.6571
 8449SOL    MW433530   0.251   3.682   6.073 -0.1331  0.5399  0.1626
 8450SOL     OW33531   0.238   0.993   5.206 -0.2718 -0.1684  0.1738
 8450SOL    HW233532   0.290   0.932   5.258 -0.6207  0.0777  0.8122
 8450SOL    HW333533   0.267   1.080   5.235 -0.6171 -0.0298  0.1055
 8450SOL    MW433534   0.249   0.997   5.217 -0.8099 -0.0891  0.8187
 8451SOL     OW33535   0.809   0.854   5.832 -0.4502  0.2336 -0.0550
 8451SOL    HW233536   0.887   0.801   5.813 -1.2181 -0.9194 -0.0763
 8451SOL    HW333537   0.751   0.795   5.879 -0.1947  1.8759  2.5220
 8451SOL    MW433538   0.812   0.839   5.836  0.6021  0.0179  0.7493
 8452SOL     OW33539   1.035   4.570   6.349 -0.1987 -0.2696 -0.0598
 8452SOL    HW233540   0.951   4.528   6.330 -0.2807  0.4149 -1.3872
 8452SOL    HW333541   1.020   4.663   6.332  1.1830 -0.2997 -1.7534
 8452SOL    MW433542   1.022   4.577   6.344 -0.8019 -0.2808  0.2333
 8453SOL     OW33543   6.110   5.725   2.201 -0.0904  0.3576  0.1514
 8453SOL    HW233544   6.070   5.795   2.252  0.2362  0.3013  0.4881
 8453SOL    HW333545   6.064   5.646   2.227 -0.9600  0.5423 -0.7681
 8453SOL    MW433546   6.099   5.724   2.211 -0.1033 -0.7826  0.2407
 8454SOL     OW33547   2.610   4.357   6.051 -0.0727 -0.3633  0.0998
 8454SOL    HW233548   2.566   4.360   6.136  1.3470 -1.1047  0.8916
 8454SOL    HW333549   2.703   4.360   6.072  0.3042 -0.4673 -1.4456
 8454SOL    MW433550   2.616   4.358   6.065 -0.2042 -0.3733 -0.1155
 8455SOL     OW33551   0.379   5.467   5.839  0.3771 -0.0174  0.1984
 8455SOL    HW233552   0.423   5.403   5.895  0.4901 -0.1090  0.0029
 8455SOL    HW333553   0.351   5.536   5.900  0.9289  0.1196  0.3053
 8455SOL    MW433554   0.381   5.468   5.855 -0.2108  0.5228  0.0922
 8456SOL     OW33555   3.849   4.809   1.253 -0.1147 -0.5267  0.1137
 8456SOL    HW233556   3.925   4.775   1.301 -0.0740 -2.2656 -1.0763
 8456SOL    HW333557   3.776   4.801   1.314  0.5272  0.6160  1.0713
 8456SOL    MW433558   3.850   4.803   1.268 -0.5784 -0.0102 -0.2919
 8457SOL     OW33559   1.852   6.117   5.829 -0.7191 -0.9187 -0.6399
 8457SOL    HW233560   1.891   6.084   5.748 -0.6554  0.6671 -1.2769
 8457SOL    HW333561   1.927   6.140   5.884 -0.7535 -0.5657 -0.7376
 8457SOL    MW433562   1.867   6.115   5.826  0.7152 -0.0968  0.7464
 8458SOL     OW33563   2.827   3.800   0.271  0.0093  0.0077  0.6145
 8458SOL    HW233564   2.864   3.867   0.329 -0.9408 -0.1271  1.3795
 8458SOL    HW333565   2.837   3.838   0.183  3.2489 -0.5977  0.5809
 8458SOL    MW433566   2.833   3.814   0.267  0.1373 -0.0313  0.0368
 8459SOL     OW33567   6.438   0.355   1.678  0.0274  0.0733 -0.5235
 8459SOL    HW233568   6.509   0.291   1.679 -0.2832 -0.3350 -1.7646
 8459SOL    HW333569   6.364   0.307   1.641 -1.8586 -0.4005  3.4136
 8459SOL    MW433570   6.438   0.340   1.673  0.9788  0.1448 -0.0333
 8460SOL     OW33571   5.818   6.207   0.081 -0.5417 -0.2825 -0.2747
 8460SOL    HW233572   5.771   6.153   0.144 -0.4856 -1.7547 -1.4346
 8460SOL    HW333573   5.819   6.295   0.120 -3.5311 -0.3362  0.1841
 8460SOL    MW433574   5.812   6.212   0.094 -0.8891  0.0654  0.2425
 8461SOL     OW33575   2.339   6.193   0.962  0.0754  0.0122 -0.1393
 8461SOL    HW233576   2.310   6.163   0.875 -0.8219  0.4785 -0.0115
 8461SOL    HW333577   2.363   6.285   0.948 -1.6694  0.5991  0.4216
 8461SOL    MW433578   2.338   6.201   0.948  0.2108 -0.0765  0.1222
 8462SOL     OW33579   4.540   4.209   3.254 -0.1162 -0.0897 -0.4426
 8462SOL    HW233580   4.489   4.135   3.287 -1.9929  1.3577  0.0771
 8462SOL    HW333581   4.539   4.273   3.325 -1.0964  1.6047 -1.8982
 8462SOL    MW433582   4.533   4.207   3.268  0.2941 -0.6671  0.3283
 8463SOL     OW33583   0.235   4.114   2.421 -0.3099 -0.6023 -0.5746
 8463SOL    HW233584   0.328   4.106   2.402 -0.0544  3.1727 -1.7619
 8463SOL    HW333585   0.230   4.122   2.516  0.6665 -0.0792 -0.5574
 8463SOL    MW433586   0.246   4.114   2.431  0.6272 -0.4123 -0.3440
 8464SOL     OW33587   2.871   2.547   1.016 -0.2508 -0.0269  0.4780
 8464SOL    HW233588   2.849   2.472   1.071 -1.2956 -0.0369  0.0747
 8464SOL    HW333589   2.817   2.619   1.050  0.5240  0.4735  0.6774
 8464SOL    MW433590   2.861   2.547   1.028 -0.3247 -0.2485 -0.4948
 8465SOL     OW33591   5.563   1.810   6.314  0.1548 -0.0309 -0.3951
 8465SOL    HW233592   5.484   1.862   6.301 -1.9181 -2.7763  0.3254
 8465SOL    HW333593   5.625   1.872   6.354 -1.8970  2.0231 -0.1328
 8465SOL    MW433594   5.561   1.825   6.318 -0.2676 -0.2452 -0.4950
 8466SOL     OW33595   3.579   5.099   3.015  0.1931  0.6395  0.5902
 8466SOL    HW233596   3.588   5.006   3.035  0.6074  0.5845  0.1744
 8466SOL    HW333597   3.506   5.103   2.953  1.2450  0.3790 -0.7265
 8466SOL    MW433598   3.571   5.087   3.009 -0.0810  0.0246  0.7485
 8467SOL     OW33599   2.321   4.357   0.560 -0.3869 -0.1693  0.0379
 8467SOL    HW233600   2.225   4.363   0.555 -0.2918  0.8188 -0.6692
 8467SOL    HW333601   2.352   4.375   0.472  0.5273  1.0778  0.5833
 8467SOL    MW433602   2.312   4.360   0.548 -0.3107  0.1385 -0.0587
 8468SOL     OW33603   0.596   3.082   5.936  0.6622  0.1435  0.2448
 8468SOL    HW233604   0.585   3.161   5.882 -0.4058 -0.9965 -1.2792
 8468SOL    HW333605   0.585   3.114   6.026 -2.2926  1.4271 -0.4300
 8468SOL    MW433606   0.593   3.097   5.941 -0.4043 -0.3592 -0.1537
 8469SOL     OW33607   1.997   1.044   2.818  0.2648 -0.1169 -0.5801
 8469SOL    HW233608   1.993   1.048   2.914 -0.1070  1.5365 -0.6358
 8469SOL    HW333609   1.905   1.049   2.790  0.3800 -0.4778 -1.0357
 8469SOL    MW433610   1.984   1.045   2.827 -0.5893 -0.5650 -0.1120
 8470SOL     OW33611   2.546   6.332   5.371 -0.3592  0.2983 -0.4416
 8470SOL    HW233612   2.483   6.378   5.426  1.4265  0.9205  1.1903
 8470SOL    HW333613   2.566   6.252   5.419 -0.2055 -0.0926 -1.1404
 8470SOL    MW433614   2.541   6.328   5.384  0.0377  0.4966  0.2157
 8471SOL     OW33615   1.290   4.349   4.032  0.2904 -0.6069 -0.1622
 8471SOL    HW233616   1.236   4.298   3.971 -1.1860  1.2945 -0.5593
 8471SOL    HW333617   1.378   4.315   4.020 -0.0381 -0.7560 -2.9512
 8471SOL    MW433618   1.294   4.338   4.022  0.1605  0.0484  0.8656
 8472SOL     OW33619   0.087   3.902   2.339  0.4596 -0.0349 -0.5172
 8472SOL    HW233620   0.151   3.968   2.367  1.5649 -1.2851 -0.0103
 8472SOL    HW333621   0.122   3.868   2.257  0.8799 -1.2861  0.1652
 8472SOL    MW433622   0.100   3.906   2.332  0.1420  0.2155 -0.1672
 8473SOL     OW33623   1.362   3.305   2.759 -0.2089 -0.0332 -0.0386
 8473SOL    HW233624   1.385   3.213   2.743  1.2564 -0.2740  2.7645
 8473SOL    HW333625   1.420   3.355   2.702  1.1886 -0.8380  0.6229
 8473SOL    MW433626   1.373   3.299   2.749 -0.7236  0.2123  0.1251
 8474SOL     OW33627   1.998   5.592   4.443  0.2243 -0.2259 -0.0578
 8474SOL    HW233628   1.970   5.530   4.375  0.1186  0.6870 -0.8737
 8474SOL    HW333629   1.917   5.635   4.471  0.3763 -0.0078  0.0506
 8474SOL    MW433630   1.983   5.590   4.438 -0.1652 -0.4835  0.3925
 8475SOL     OW33631   1.783   5.355   4.735 -0.2454  1.1074 -0.7457
 8475SOL    HW233632   1.799   5.279   4.790 -1.1716  0.8854 -0.7648
 8475SOL    HW333633   1.723   5.323   4.668 -1.6981  2.1731  0.0081
 8475SOL    MW433634   1.777   5.340   4.733  0.6756 -0.1148 -0.0113
 8476SOL     OW33635   5.390   5.816   3.087 -0.0078  0.0538  0.3826
 8476SOL    HW233636   5.434   5.894   3.121  2.6520 -1.0214 -0.2798
 8476SOL    HW333637   5.342   5.847   3.011  0.1870  1.2197  0.7111
 8476SOL    MW433638   5.390   5.830   3.081 -0.3007 -0.0453 -0.6293
 8477SOL     OW33639   4.476   5.772   1.974 -0.1389 -0.2789 -0.5793
 8477SOL    HW233640   4.443   5.859   1.950 -1.3422 -0.3148  0.7619
 8477SOL    HW333641   4.482   5.776   2.070 -1.1719 -1.9811 -0.4135
 8477SOL    MW433642   4.472   5.784   1.984 -0.0613  0.4367 -0.4632
 8478SOL     OW33643   5.807   0.614   0.731 -0.3911 -0.1143  0.3956
 8478SOL    HW233644   5.820   0.695   0.781 -0.4202 -0.1072  0.3920
 8478SOL    HW333645   5.771   0.643   0.647  2.5900  0.1660 -0.8979
 8478SOL    MW433646   5.804   0.628   0.726  0.2136 -0.5280 -0.2525
 8479SOL     OW33647   4.621   3.247   5.242 -0.2862 -0.0521 -0.3546
 8479SOL    HW233648   4.654   3.327   5.202  0.4654  0.2903  0.8678
 8479SOL    HW333649   4.562   3.277   5.311 -0.1298 -0.5514  0.0015
 8479SOL    MW433650   4.618   3.261   5.246  0.0394 -0.4565  0.5729
 8480SOL     OW33651   1.730   4.716   1.535  0.3136  0.0568  0.0496
 8480SOL    HW233652   1.748   4.643   1.476  2.3739  0.5018  0.0434
 8480SOL    HW333653   1.796   4.782   1.513 -1.2680  1.8271  0.2714
 8480SOL    MW433654   1.741   4.715   1.524 -0.1424 -0.5085  0.0309
 8481SOL     OW33655   5.081   2.499   4.348  0.0993  0.8294 -0.1032
 8481SOL    HW233656   5.038   2.505   4.433  3.5137 -1.4669  2.0292
 8481SOL    HW333657   5.153   2.561   4.352  0.9852 -0.1067 -0.8241
 8481SOL    MW433658   5.085   2.508   4.360 -0.3982 -0.1093  0.1672
 8482SOL     OW33659   1.994   1.215   5.235  0.5269 -0.3653  0.6056
 8482SOL    HW233660   2.027   1.135   5.195 -0.4686  0.2906 -1.7143
 8482SOL    HW333661   1.976   1.191   5.326 -0.3995 -2.9944 -0.1759
 8482SOL    MW433662   1.996   1.201   5.242  0.7043  0.2710  0.1221
 8483SOL     OW33663   4.787   1.933   4.524  0.2368  0.3398 -0.1801
 8483SOL    HW233664   4.857   1.868   4.525  0.4475  0.4585 -2.4355
 8483SOL    HW333665   4.776   1.955   4.432 -1.9039  1.2747  0.2354
 8483SOL    MW433666   4.795   1.927   4.512  0.0153 -0.4677  0.0960
 8484SOL     OW33667   3.069   3.597   1.550 -0.1730 -0.0097  0.5310
 8484SOL    HW233668   3.156   3.626   1.525 -0.1802  0.1864  0.7317
 8484SOL    HW333669   3.015   3.675   1.548 -0.2179 -0.0255  0.9515
 8484SOL    MW433670   3.073   3.611   1.547  0.7019  0.1569  0.4106
 8485SOL     OW33671   3.558   5.198   6.026  0.6022  0.4002 -0.2901
 8485SOL    HW233672   3.500   5.265   5.990 -0.0812 -0.1029 -0.1427
 8485SOL    HW333673   3.646   5.230   6.008  0.2862  1.4261 -0.0559
 8485SOL    MW433674   3.562   5.211   6.019  0.1023  1.0115 -0.1295
 8486SOL     OW33675   1.659   0.915   3.484 -0.4406 -0.1426 -0.9120
 8486SOL    HW233676   1.677   0.971   3.408  0.7019  2.8124  1.3449
 8486SOL    HW333677   1.714   0.838   3.470  0.9698  1.0547 -2.3615
 8486SOL    MW433678   1.669   0.912   3.472  0.1385  0.2852 -0.9035
 8487SOL     OW33679   2.390   1.866   5.808  0.2121  0.6953  0.3064
 8487SOL    HW233680   2.376   1.798   5.742  0.6150  0.2886  0.6295
 8487SOL    HW333681   2.484   1.882   5.807 -0.1078  2.9016 -1.3588
 8487SOL    MW433682   2.400   1.859   5.799  0.3927  0.2898 -0.2056
 8488SOL     OW33683   2.191   1.887   1.538 -0.0996  0.0629 -0.0546
 8488SOL    HW233684   2.107   1.864   1.497 -0.6186  0.2106  0.9123
 8488SOL    HW333685   2.238   1.803   1.545 -0.6400 -0.2058  0.4492
 8488SOL    MW433686   2.186   1.873   1.533  0.3591 -0.2355 -0.2019
 8489SOL     OW33687   5.185   0.767   4.432  0.4088  0.4402  0.1073
 8489SOL    HW233688   5.171   0.686   4.481  1.2448  1.2960  1.8847
 8489SOL    HW333689   5.144   0.752   4.347 -1.2829 -1.0797  1.1213
 8489SOL    MW433690   5.178   0.754   4.427 -0.0420 -0.5629  0.4262
 8490SOL     OW33691   2.394   3.352   1.845  0.3444  0.0538  0.1371
 8490SOL    HW233692   2.457   3.424   1.845 -1.8639  2.1072  0.4768
 8490SOL    HW333693   2.358   3.352   1.934 -0.0537 -1.1380 -0.0111
 8490SOL    MW433694   2.397   3.362   1.857  0.1362  0.1665 -0.1308
 8491SOL     OW33695   4.742   0.659   3.440 -0.4204 -0.1137  0.2014
 8491SOL    HW233696   4.678   0.612   3.386 -0.9818 -0.4516  1.1355
 8491SOL    HW333697   4.696   0.676   3.522  0.6144 -0.1547  0.8047
 8491SOL    MW433698   4.727   0.655   3.444  0.3823 -0.6434 -0.3011
 8492SOL     OW33699   2.915   5.081   1.915 -0.2423  0.8370 -0.5817
 8492SOL    HW233700   2.824   5.053   1.906  0.4151 -1.0963 -1.7851
 8492SOL    HW333701   2.935   5.126   1.834  0.4631 -0.6776 -1.2900
 8492SOL    MW433702   2.905   5.083   1.903  0.5591  0.2670  0.1132
 8493SOL     OW33703   4.922   5.588   4.007  0.1765 -0.1560  0.2951
 8493SOL    HW233704   4.838   5.629   3.989 -0.7117 -0.9629  2.3512
 8493SOL    HW333705   4.961   5.641   4.076  0.3239 -1.0742  0.9360
 8493SOL    MW433706   4.916   5.601   4.014  0.0776 -0.4825 -0.5742
 8494SOL     OW33707   5.304   0.501   2.808  0.2942  0.0759  0.4029
 8494SOL    HW233708   5.300   0.511   2.713 -1.2376 -0.6018  0.3823
 8494SOL    HW333709   5.270   0.414   2.825 -0.2874  0.5166  1.6334
 8494SOL    MW433710   5.299   0.491   2.798 -0.1850 -0.0737  0.4277
 8495SOL     OW33711   0.315   4.209   0.307 -0.1892 -0.1666 -0.0955
 8495SOL    HW233712   0.242   4.184   0.252 -0.2660  1.4449 -0.8019
 8495SOL    HW333713   0.302   4.161   0.389 -1.5240 -0.5858 -0.5373
 8495SOL    MW433714   0.304   4.200   0.311 -0.1583 -0.5948  0.0208
 8496SOL     OW33715   5.665   5.657   2.281 -0.4308 -0.4467 -0.4328
 8496SOL    HW233716   5.600   5.687   2.345 -0.8958  1.0211 -1.5296
 8496SOL    HW333717   5.617   5.654   2.199  0.3125 -1.7106 -0.8342
 8496SOL    MW433718   5.650   5.661   2.279  0.4772 -0.1775 -0.0983
 8497SOL     OW33719   0.294   4.701   3.973 -0.3128 -0.4485 -0.7128
 8497SOL    HW233720   0.252   4.779   3.938  1.2372  0.7372 -0.0465
 8497SOL    HW333721   0.279   4.706   4.068  0.3299 -0.6203 -0.5972
 8497SOL    MW433722   0.287   4.712   3.981 -0.4100  0.1883  0.0248
 8498SOL     OW33723   0.073   1.061   0.688  1.1066  0.5698  0.5263
 8498SOL    HW233724   0.064   1.156   0.683  1.4540  0.6775  1.7616
 8498SOL    HW333725   0.000   1.028   0.634  0.8881  1.5179  0.2061
 8498SOL    MW433726   0.062   1.069   0.680  0.1104  0.0383 -0.3704
 8499SOL     OW33727   3.503   0.946   0.151 -0.0657 -0.5873  0.0931
 8499SOL    HW233728   3.493   0.904   0.237  0.6735 -1.9630 -0.4631
 8499SOL    HW333729   3.581   0.905   0.114 -0.5385 -0.2161 -1.3609
 8499SOL    MW433730   3.512   0.935   0.158  0.3030  0.3953  0.1762
 8500SOL     OW33731   3.644   3.058   5.235  0.1840  1.0944  0.4922
 8500SOL    HW233732   3.563   3.092   5.273  0.2542  2.0717 -0.1883
 8500SOL    HW333733   3.672   3.126   5.173  0.5239 -0.0680 -0.6792
 8500SOL    MW433734   3.637   3.072   5.232 -0.7764 -0.0898  1.1558
 8501SOL     OW33735   5.131   3.700   5.215  0.0331  0.2907 -0.5800
 8501SOL    HW233736   5.046   3.744   5.215 -0.0413  0.1472 -0.1004
 8501SOL    HW333737   5.171   3.726   5.131 -1.7238 -2.0715 -2.2695
 8501SOL    MW433738   5.125   3.710   5.204 -0.6657 -0.1774 -0.7151
 8502SOL     OW33739   5.143   6.125   5.529  0.0112 -0.0206  0.4630
 8502SOL    HW233740   5.218   6.125   5.471  0.7638 -0.1764  1.4160
 8502SOL    HW333741   5.178   6.098   5.614 -0.7890  1.5263  1.3334
 8502SOL    MW433742   5.157   6.121   5.532 -0.1919  0.0135 -0.2860
 8503SOL     OW33743   4.498   3.058   5.065  0.5748  0.2646  0.1488
 8503SOL    HW233744   4.563   2.988   5.055  0.8753  0.4224  0.8778
 8503SOL    HW333745   4.542   3.123   5.120 -0.3734  0.1335  1.0969
 8503SOL    MW433746   4.513   3.057   5.071 -0.3928  0.7066  0.5388
 8504SOL     OW33747   6.190   1.636   0.938 -0.5426  0.6971 -0.1383
 8504SOL    HW233748   6.278   1.605   0.958 -0.9810 -0.3274  0.2883
 8504SOL    HW333749   6.203   1.721   0.897  0.6709  0.3030 -0.6090
 8504SOL    MW433750   6.203   1.643   0.936  0.8510 -0.5633  0.1554
 8505SOL     OW33751   5.799   0.339   0.760 -0.7991 -0.0158  0.0976
 8505SOL    HW233752   5.794   0.333   0.664  0.9005 -0.8219  0.0209
 8505SOL    HW333753   5.829   0.428   0.777  0.8767 -0.4819 -0.2543
 8505SOL    MW433754   5.802   0.350   0.750  0.4245  0.3206 -0.6514
 8506SOL     OW33755   2.201   4.652   0.983  0.0671  0.2478  0.1261
 8506SOL    HW233756   2.125   4.617   1.030  1.0614  0.3155  1.9026
 8506SOL    HW333757   2.202   4.745   1.009 -0.1993  0.6531 -1.2575
 8506SOL    MW433758   2.191   4.660   0.993 -0.2550  0.3000 -0.3092
 8507SOL     OW33759   3.144   2.507   1.336  0.5184  0.4504 -0.7254
 8507SOL    HW233760   3.212   2.557   1.289  0.1443  0.1968 -1.5478
 8507SOL    HW333761   3.107   2.571   1.398  0.9885  0.8002 -0.7934
 8507SOL    MW433762   3.148   2.522   1.338 -0.3899 -0.0143 -0.6034
 8508SOL     OW33763   4.122   3.873   4.550 -0.3529  0.0308 -0.1410
 8508SOL    HW233764   4.067   3.946   4.576  0.1253  0.0425  0.9055
 8508SOL    HW333765   4.156   3.838   4.632 -0.4940 -1.3107 -0.6192
 8508SOL    MW433766   4.120   3.878   4.564 -0.5076  0.1853 -0.1178
 8509SOL     OW33767   4.545   0.012   3.606 -0.1269 -0.4528 -0.3775
 8509SOL    HW233768   4.624   0.005   3.552  0.5642  0.4733  0.4639
 8509SOL    HW333769   4.509  -0.076   3.607  0.9439 -0.9123 -0.7257
 8509SOL    MW433770   4.551   0.000   3.599  0.5291 -0.2181  0.2154
 8510SOL     OW33771   3.155   6.365   5.006 -0.0290 -0.6118  0.6745
 8510SOL    HW233772   3.172   6.403   4.920 -1.1931 -0.3645  0.5441
 8510SOL    HW333773   3.178   6.435   5.068  1.4416 -1.0145  0.6151
 8510SOL    MW433774   3.160   6.379   5.003 -0.1987 -0.0538  0.1267
 8511SOL     OW33775   2.762   4.476   6.331 -0.1782  0.4310  0.2748
 8511SOL    HW233776   2.734   4.565   6.309 -0.0836  0.4389  0.1837
 8511SOL    HW333777   2.697   4.445   6.394  0.1287  0.7888  0.7775
 8511SOL    MW433778   2.750   4.484   6.336 -0.1647 -0.1731  0.1301
 8512SOL     OW33779   0.807   2.113   4.546 -0.0886 -0.0959 -0.3751
 8512SOL    HW233780   0.766   2.177   4.488 -1.7376  1.3244  2.1188
 8512SOL    HW333781   0.898   2.108   4.517 -0.3450  2.0898 -1.7686
 8512SOL    MW433782   0.813   2.121   4.535  0.1946 -0.4830 -0.5306
 8513SOL     OW33783   1.523   1.377   1.273 -0.6104 -0.3169  0.4281
 8513SOL    HW233784   1.464   1.452   1.278 -0.9968 -0.5555 -0.3543
 8513SOL    HW333785   1.591   1.403   1.211  0.3714  0.1111  1.6273
 8513SOL    MW433786   1.524   1.390   1.266 -0.6638  0.3682 -0.4521
 8514SOL     OW33787   4.265   4.756   0.858  0.0545 -0.0085 -0.3150
 8514SOL    HW233788   4.287   4.680   0.911 -0.6534  0.0385  0.0598
 8514SOL    HW333789   4.314   4.744   0.776 -0.7311 -1.3003 -0.6062
 8514SOL    MW433790   4.275   4.744   0.854 -0.1349 -0.5216 -0.0493
 8515SOL     OW33791   0.163   1.562   1.385  0.2462  0.1384 -0.2159
 8515SOL    HW233792   0.202   1.495   1.329  1.7570  0.3411  0.5404
 8515SOL    HW333793   0.097   1.516   1.436  1.1854 -0.7688  0.2177
 8515SOL    MW433794   0.159   1.547   1.384 -1.1235  0.2603 -0.1318
 8516SOL     OW33795   1.569   5.414   3.190 -0.4147  0.1241  0.5035
 8516SOL    HW233796   1.626   5.366   3.129 -0.9452 -1.0584  0.9164
 8516SOL    HW333797   1.625   5.431   3.266  0.0757  1.0864 -0.0530
 8516SOL    MW433798   1.584   5.410   3.192  0.0945  0.1634  0.2109
 8517SOL     OW33799   4.006   5.252   4.977  0.0107 -0.1466  0.0966
 8517SOL    HW233800   4.052   5.323   5.022  0.0469  0.0463 -0.2426
 8517SOL    HW333801   3.930   5.294   4.937  0.3491 -0.1888 -0.5971
 8517SOL    MW433802   4.002   5.267   4.978 -0.1481  0.8384  0.4528
 8518SOL     OW33803   1.588   0.291   4.249 -0.4109  0.1924 -0.2949
 8518SOL    HW233804   1.602   0.354   4.178  0.3834  1.1751  0.7082
 8518SOL    HW333805   1.620   0.335   4.328  0.2356 -1.5014  0.4395
 8518SOL    MW433806   1.594   0.305   4.250  0.2024 -0.4089  0.3558
 8519SOL     OW33807   3.509   4.047   2.752 -0.7125  0.5070 -0.2602
 8519SOL    HW233808   3.529   3.953   2.751 -1.3194  0.3696 -1.1916
 8519SOL    HW333809   3.482   4.065   2.842 -2.1254 -0.5660 -0.4308
 8519SOL    MW433810   3.508   4.037   2.764  0.6094 -0.2009 -0.0339
 8520SOL     OW33811   0.218   5.151   2.697  0.0141 -0.2223  0.2637
 8520SOL    HW233812   0.213   5.057   2.677 -1.0440 -0.1645  0.1751
 8520SOL    HW333813   0.215   5.155   2.792 -0.3304 -0.2729  0.2588
 8520SOL    MW433814   0.217   5.139   2.707  0.5062 -0.2288 -0.4376
 8521SOL     OW33815   3.231   4.017   3.984 -0.0349 -0.2754  0.0680
 8521SOL    HW233816   3.147   4.059   4.003 -0.7962 -1.7729  0.1411
 8521SOL    HW333817   3.267   3.997   4.070  0.9085  1.2495  0.0729
 8521SOL    MW433818   3.225   4.020   3.998 -0.2745 -0.4662 -0.4006
 8522SOL     OW33819   1.561   2.466   3.248  0.2126  0.5317 -0.2379
 8522SOL    HW233820   1.607   2.548   3.268 -2.5041  2.4504 -1.1910
 8522SOL    HW333821   1.495   2.459   3.317  0.0258 -0.5342 -0.5163
 8522SOL    MW433822   1.558   2.476   3.260  0.5007 -0.3133  0.0630
 8523SOL     OW33823   6.133   0.126   5.146 -0.3747  0.2754 -0.1414
 8523SOL    HW233824   6.193   0.088   5.082 -0.9641 -1.0024  0.0211
 8523SOL    HW333825   6.108   0.052   5.202  0.3738  1.3934  1.7973
 8523SOL    MW433826   6.138   0.111   5.145  0.4202 -0.4038 -0.5215
 8524SOL     OW33827   3.684   1.511   1.339  0.1558 -0.1266  0.1427
 8524SOL    HW233828   3.600   1.515   1.384  0.4934  0.2243  0.7589
 8524SOL    HW333829   3.732   1.442   1.383  0.4573  0.1627  0.2722
 8524SOL    MW433830   3.679   1.503   1.351 -0.4243 -1.1610  0.1615
 8525SOL     OW33831   2.521   3.645   6.411  0.1197  0.4706 -0.6219
 8525SOL    HW233832   2.568   3.596   6.343 -2.3887 -2.8190 -0.2274
 8525SOL    HW333833   2.438   3.669   6.370 -1.3828 -1.4729  1.1115
 8525SOL    MW433834   2.516   3.641   6.396 -0.3213  0.0969  0.1206
 8526SOL     OW33835   3.243   0.860   0.567 -0.4233  0.6426 -0.9820
 8526SOL    HW233836   3.204   0.795   0.625 -0.2538  0.5756 -0.9438
 8526SOL    HW333837   3.170   0.918   0.544 -0.1250  1.8760  0.9201
 8526SOL    MW433838   3.228   0.859   0.571 -0.0069 -0.0750 -0.4162
 8527SOL     OW33839   1.024   2.221   5.227 -0.3451 -0.3928  0.3598
 8527SOL    HW233840   1.110   2.242   5.191 -0.4577 -1.2783 -0.4734
 8527SOL    HW333841   0.974   2.303   5.222 -1.1706 -0.9003 -3.8348
 8527SOL    MW433842   1.029   2.234   5.222 -0.4819  0.1899  0.0371
 8528SOL     OW33843   3.872   5.086   2.466 -0.3161  0.1907  0.3714
 8528SOL    HW233844   3.949   5.136   2.494  1.2160 -2.0471  0.4293
 8528SOL    HW333845   3.887   4.998   2.500 -2.8894 -0.3501  0.2633
 8528SOL    MW433846   3.884   5.081   2.474 -0.2681 -0.5261 -0.0628
 8529SOL     OW33847   1.665   4.346   3.503  0.3384  0.4775  0.2510
 8529SOL    HW233848   1.588   4.289   3.495  0.0033  0.6510  1.8692
 8529SOL    HW333849   1.677   4.382   3.415  0.4917 -1.9675 -0.8082
 8529SOL    MW433850   1.656   4.343   3.490 -0.1802 -0.7058  0.2674
 8530SOL     OW33851   6.362   0.680   1.583  0.3236  0.5114  0.6676
 8530SOL    HW233852   6.427   0.614   1.559 -0.1390  0.5128 -0.6308
 8530SOL    HW333853   6.282   0.631   1.598  0.3719  0.6172  1.3049
 8530SOL    MW433854   6.360   0.665   1.582  0.2825  0.5462 -0.1133
 8531SOL     OW33855   1.834   4.630   2.268  0.7665 -0.0169  0.3722
 8531SOL    HW233856   1.769   4.675   2.213  1.6075 -0.0046 -0.6437
 8531SOL    HW333857   1.831   4.677   2.352 -1.3614 -0.7522  0.7843
 8531SOL    MW433858   1.825   4.643   2.272  0.2790  0.3108  0.2275
 8532SOL     OW33859   2.313   3.188   0.823 -0.5823 -0.4984 -0.1550
 8532SOL    HW233860   2.315   3.262   0.883 -0.0218  1.9393 -2.9118
 8532SOL    HW333861   2.272   3.117   0.872 -1.6449  1.7821  2.4971
 8532SOL    MW433862   2.308   3.189   0.837  0.0641  0.0625 -0.2659
 8533SOL     OW33863   6.065   2.621   0.104  0.2150 -0.3902  0.0450
 8533SOL    HW233864   6.015   2.681   0.159  0.2947 -0.4104  0.1417
 8533SOL    HW333865   6.050   2.651   0.014 -0.0401 -0.4523  0.0679
 8533SOL    MW433866   6.057   2.633   0.099 -0.2699  0.3944 -0.4997
 8534SOL     OW33867   4.000   5.391   2.058 -0.4225 -0.0972 -0.0108
 8534SOL    HW233868   3.986   5.309   2.106  0.3558  0.3797  1.0826
 8534SOL    HW333869   3.913   5.430   2.051 -0.9519 -1.4274 -1.3628
 8534SOL    MW433870   3.987   5.385   2.064 -0.0807 -0.2256 -0.0487
 8535SOL     OW33871   2.073   4.967   4.815 -0.5147  0.6148 -0.3906
 8535SOL    HW233872   2.110   4.941   4.899 -4.4874  1.2765  1.8125
 8535SOL    HW333873   2.115   4.910   4.751  0.1691 -2.4198  2.5297
 8535SOL    MW433874   2.084   4.956   4.817 -0.0702  0.6120  0.4718
 8536SOL     OW33875   6.220   3.522   5.267  0.1997 -0.2571 -0.1363
 8536SOL    HW233876   6.259   3.463   5.203  0.1474 -2.0076  1.3403
 8536SOL    HW333877   6.129   3.491   5.276  0.0497  0.3075  0.3529
 8536SOL    MW433878   6.213   3.510   5.260 -0.0807 -0.8279  0.1786
 8537SOL     OW33879   5.184   6.407   4.370 -0.3390  0.2829  0.0407
 8537SOL    HW233880   5.114   6.346   4.344 -0.5357  0.1610  0.8176
 8537SOL    HW333881   5.193   6.466   4.296 -0.2105 -0.6401 -0.6951
 8537SOL    MW433882   5.176   6.406   4.357  0.1529  0.2079  0.1395
 8538SOL     OW33883   0.720   1.157   2.979 -0.6252 -0.3589 -0.7489
 8538SOL    HW233884   0.816   1.157   2.975 -0.6227 -0.7758 -0.7332
 8538SOL    HW333885   0.697   1.064   2.981 -0.9640 -0.2687  0.9260
 8538SOL    MW433886   0.730   1.145   2.978  0.3128  0.4915  0.3426
 8539SOL     OW33887   2.031   3.480   3.487  0.5787  0.3827  0.3153
 8539SOL    HW233888   2.115   3.463   3.530  0.8105 -0.1209 -0.3225
 8539SOL    HW333889   1.965   3.452   3.551  0.9135 -0.1868  0.4223
 8539SOL    MW433890   2.034   3.474   3.501  0.1565 -0.2076 -0.4816
 8540SOL     OW33891   0.429   4.657   0.084  0.6143  0.1952  0.0105
 8540SOL    HW233892   0.368   4.617   0.147 -0.2274  2.2633  0.5642
 8540SOL    HW333893   0.505   4.680   0.137  0.3771  0.9037  0.0442
 8540SOL    MW433894   0.431   4.655   0.100  0.0455 -0.3051 -0.9018
 8541SOL     OW33895   6.028   3.508   6.388 -0.2012 -0.0135  0.0738
 8541SOL    HW233896   6.116   3.477   6.412 -0.0501  0.0787 -0.3604
 8541SOL    HW333897   6.030   3.601   6.408 -0.2734 -0.0559  0.2769
 8541SOL    MW433898   6.040   3.516   6.394 -0.4092 -0.4603  0.2331
 8542SOL     OW33899   0.620   0.469   3.766  0.5016 -0.6538 -0.6838
 8542SOL    HW233900   0.703   0.422   3.755  0.7639 -0.4035  0.1138
 8542SOL    HW333901   0.644   0.547   3.815  0.2636  0.9158 -2.9153
 8542SOL    MW433902   0.634   0.473   3.771  0.0706 -0.3035  0.1333
 8543SOL     OW33903   5.754   1.555   4.604 -0.3451 -0.2252  0.1597
 8543SOL    HW233904   5.686   1.499   4.640  0.4011 -0.9414  0.4830
 8543SOL    HW333905   5.823   1.495   4.576 -0.9833  0.2359 -2.7604
 8543SOL    MW433906   5.754   1.540   4.605  0.0160 -0.2510  0.0332
 8544SOL     OW33907   0.674   0.968   3.289  0.0193 -0.1464  0.6698
 8544SOL    HW233908   0.712   1.048   3.324 -1.2693  1.3257 -1.0521
 8544SOL    HW333909   0.581   0.973   3.312 -0.3221 -0.4809 -0.5093
 8544SOL    MW433910   0.667   0.979   3.296 -0.1979 -0.5001 -0.2669
 8545SOL     OW33911   0.305   5.666   1.982  0.4768  0.2344 -0.0108
 8545SOL    HW233912   0.367   5.734   2.010  1.3868 -1.1034  1.4222
 8545SOL    HW333913   0.277   5.624   2.063  1.2395 -2.1721 -0.8864
 8545SOL    MW433914   0.310   5.669   1.996 -0.0343  0.1477 -0.3543
 8546SOL     OW33915   1.807   3.393   2.470 -1.1479  0.1203  0.3325
 8546SOL    HW233916   1.803   3.405   2.564 -0.7708  1.0688  0.2367
 8546SOL    HW333917   1.754   3.463   2.433  0.3046  0.9808 -0.2114
 8546SOL    MW433918   1.800   3.404   2.477 -0.2302  0.7789  0.1620
 8547SOL     OW33919   5.991   2.968   1.480  0.2251  0.2897  0.1009
 8547SOL    HW233920   5.910   3.008   1.447  0.5061  2.6378  2.0195
 8547SOL    HW333921   5.962   2.886   1.520 -1.0080  0.4470 -0.4215
 8547SOL    MW433922   5.976   2.962   1.481  0.3783  0.4687 -0.0563
 8548SOL     OW33923   0.658   2.235   6.133 -0.0306 -0.2706  0.0522
 8548SOL    HW233924   0.589   2.301   6.122 -0.1383 -0.3171  0.4385
 8548SOL    HW333925   0.725   2.280   6.184  0.1753 -0.2629 -0.2243
 8548SOL    MW433926   0.657   2.250   6.138 -0.7008 -0.1227 -0.2789
 8549SOL     OW33927   0.928   3.898   1.984  0.0330 -0.2560 -0.6256
 8549SOL    HW233928   1.019   3.926   1.987  0.0315 -0.2186 -0.9195
 8549SOL    HW333929   0.890   3.947   1.911 -0.3084 -0.0116 -0.2885
 8549SOL    MW433930   0.935   3.908   1.975 -0.0547  0.3421 -0.1375
 8550SOL     OW33931   6.416   4.748   3.213 -0.0467 -0.0815  0.0292
 8550SOL    HW233932   6.424   4.692   3.290  2.2393  0.5403  0.3148
 8550SOL    HW333933   6.336   4.718   3.170 -0.8829 -1.0614  2.1302
 8550SOL    MW433934   6.406   4.737   3.217 -0.7367 -0.3835  0.0734
 8551SOL     OW33935   0.813   3.348   2.900 -0.4293 -0.3141  0.2542
 8551SOL    HW233936   0.880   3.303   2.847  0.5706  0.2548  0.9993
 8551SOL    HW333937   0.861   3.416   2.947 -1.6722  0.5879  0.2722
 8551SOL    MW433938   0.828   3.351   2.899 -0.0433  0.8565  0.0377
 8552SOL     OW33939   0.333   0.957   3.033  0.0826  0.5919  0.8072
 8552SOL    HW233940   0.333   1.051   3.019 -1.7606  0.5816  0.4672
 8552SOL    HW333941   0.309   0.919   2.948  0.2548 -0.1478  1.0752
 8552SOL    MW433942   0.330   0.964   3.020  0.0771  0.1469  0.0683
 8553SOL     OW33943   2.086   5.546   5.045  0.1134 -0.3743 -0.1061
 8553SOL    HW233944   2.078   5.610   4.975  0.1527 -0.3307 -0.0706
 8553SOL    HW333945   2.158   5.578   5.099 -1.6873  1.1284  1.5600
 8553SOL    MW433946   2.094   5.558   5.043 -0.1909 -0.4371 -0.1192
 8554SOL     OW33947   2.912   5.761   1.681 -0.2296 -0.1277  0.1176
 8554SOL    HW233948   2.901   5.775   1.775 -1.0112  1.5408 -0.1813
 8554SOL    HW333949   2.827   5.728   1.652 -0.5298  0.8901 -0.2265
 8554SOL    MW433950   2.899   5.759   1.689 -0.0846 -0.1516 -0.4579
 8555SOL     OW33951   0.126   3.240   1.356 -0.2453 -0.6937 -0.2101
 8555SOL    HW233952   0.093   3.150   1.345 -0.1334 -0.5785 -1.7965
 8555SOL    HW333953   0.090   3.288   1.281  1.1050  0.1549 -0.3546
 8555SOL    MW433954   0.117   3.234   1.344 -0.0506 -0.5472  0.2565
 8556SOL     OW33955   2.361   5.469   1.666 -0.2695 -0.5889 -0.4919
 8556SOL    HW233956   2.345   5.495   1.575 -2.0142  1.4950  0.3221
 8556SOL    HW333957   2.355   5.550   1.715  0.4115 -1.7082  1.5389
 8556SOL    MW433958   2.358   5.483   1.660 -0.5836  0.5144  0.0335
 8557SOL     OW33959   3.918   2.023   6.392 -0.5261  0.8086 -0.0760
 8557SOL    HW233960   3.862   2.100   6.385 -1.7573 -0.0947 -0.5412
 8557SOL    HW333961   3.867   1.961   6.444  0.1583  0.0538 -0.2881
 8557SOL    MW433962   3.904   2.025   6.398  0.6380  0.0533  0.2525
 8558SOL     OW33963   0.041   2.927   3.756  0.5425 -0.3206  0.0569
 8558SOL    HW233964   0.081   2.962   3.677  2.3775 -0.5594  0.8257
 8558SOL    HW333965  -0.019   2.860   3.725  2.5199 -1.6593 -1.1014
 8558SOL    MW433966   0.038   2.923   3.741  0.0528  0.8184  0.1519
 8559SOL     OW33967   3.023   0.518   0.452  0.2390 -0.7577  0.9376
 8559SOL    HW233968   3.094   0.517   0.387 -0.9636  1.1613 -0.5506
 8559SOL    HW333969   3.060   0.565   0.527  0.6987 -0.1982  0.3751
 8559SOL    MW433970   3.037   0.524   0.453  0.2252  0.0497  0.2533
 8560SOL     OW33971   3.618   4.540   3.085 -0.5604  0.5328  0.7318
 8560SOL    HW233972   3.676   4.486   3.032  0.6581  1.8004  0.7409
 8560SOL    HW333973   3.670   4.564   3.161 -1.5425  0.6319  1.4005
 8560SOL    MW433974   3.632   4.536   3.088  0.1460 -0.9022 -0.0458
 8561SOL     OW33975   2.522   3.090   0.423  0.1827 -0.5294 -0.5244
 8561SOL    HW233976   2.613   3.102   0.395  0.6128 -2.3594 -0.0774
 8561SOL    HW333977   2.469   3.121   0.350  1.1874 -0.0095 -1.0449
 8561SOL    MW433978   2.527   3.095   0.410  0.3171  0.0935  0.2243
 8562SOL     OW33979   1.475   2.494   2.977  0.2825 -0.6706  0.2312
 8562SOL    HW233980   1.504   2.515   3.066  1.3382 -1.9857  0.2281
 8562SOL    HW333981   1.380   2.497   2.982  0.3160 -0.9540  1.4667
 8562SOL    MW433982   1.467   2.497   2.990 -0.1595 -0.6100 -0.0069
 8563SOL     OW33983   4.924   4.481   1.556 -0.1192 -0.6473 -0.5046
 8563SOL    HW233984   4.848   4.537   1.538 -0.9326 -1.9845 -1.3722
 8563SOL    HW333985   4.887   4.396   1.577  1.0831 -0.7638  1.3658
 8563SOL    MW433986   4.909   4.477   1.556 -0.2693  0.0286  0.3767
 8564SOL     OW33987   2.964   0.516   4.853 -0.1750  0.3839  0.6535
 8564SOL    HW233988   2.905   0.520   4.777 -1.1167  0.2979  1.3691
 8564SOL    HW333989   2.994   0.606   4.864  0.3990  0.3074 -0.1353
 8564SOL    MW433990   2.961   0.529   4.844  0.2039  0.3500 -0.3796
 8565SOL     OW33991   3.956   4.883   5.617 -0.3337  0.2155 -0.2198
 8565SOL    HW233992   3.949   4.789   5.631  0.4616  0.5318  3.1142
 8565SOL    HW333993   3.868   4.910   5.591 -1.2080 -1.1513  1.1407
 8565SOL    MW433994   3.944   4.874   5.615 -0.6252 -0.1909 -0.1267
 8566SOL     OW33995   4.491   4.585   5.990 -0.4987  0.2734 -0.2041
 8566SOL    HW233996   4.400   4.615   5.983 -1.0508 -1.1659  0.3807
 8566SOL    HW333997   4.522   4.622   6.073  0.0899  2.2768 -1.2495
 8566SOL    MW433998   4.483   4.594   6.000  0.2952  0.1724  0.2746
 8567SOL     OW33999   4.246   0.785   3.225 -0.5347 -0.5455 -0.1454
 8567SOL    HW234000   4.328   0.771   3.177  0.5734 -1.3360  1.8801
 8567SOL    HW334001   4.259   0.866   3.273  0.2290 -2.0426  2.3404
 8567SOL    MW434002   4.258   0.794   3.225 -0.8363  0.0337 -0.0326
 8568SOL     OW34003   1.986   4.592   6.115  0.9455  0.0904 -0.2727
 8568SOL    HW234004   1.997   4.564   6.024 -0.6790 -1.2403 -0.1155
 8568SOL    HW334005   1.914   4.538   6.148  0.9317  1.1449  1.5604
 8568SOL    MW434006   1.978   4.581   6.107 -0.4411  0.0944  0.4046
 8569SOL     OW34007   0.280   0.636   0.997  0.0392  0.1511  0.0073
 8569SOL    HW234008   0.287   0.570   0.929  0.5788  1.2761 -1.0733
 8569SOL    HW334009   0.252   0.715   0.951  0.4372  0.9491  1.0844
 8569SOL    MW434010   0.278   0.638   0.982 -0.1930 -0.0527  0.2020
 8570SOL     OW34011   3.670   5.003   0.794 -0.6188 -1.6756  0.3918
 8570SOL    HW234012   3.761   4.976   0.794 -0.2578 -0.5116  0.5273
 8570SOL    HW334013   3.630   4.952   0.723  0.1501 -2.1413  0.2843
 8570SOL    MW434014   3.677   4.993   0.784  0.3512  0.1451 -0.3019
 8571SOL     OW34015   2.618   5.963   3.509 -0.5082  0.5177 -0.0571
 8571SOL    HW234016   2.608   6.040   3.564 -0.9673  1.2016 -1.0599
 8571SOL    HW334017   2.529   5.931   3.495 -0.2971 -0.4209  0.6340
 8571SOL    MW434018   2.605   5.968   3.514 -0.4596 -0.0600  0.3682
 8572SOL     OW34019   1.126   5.664   2.508  0.0983  0.1603 -0.0344
 8572SOL    HW234020   1.192   5.626   2.450  0.0812  0.8140 -0.4958
 8572SOL    HW334021   1.054   5.600   2.509  0.2176  0.0180 -0.5140
 8572SOL    MW434022   1.125   5.650   2.501 -0.2344 -0.3661  0.2015
 8573SOL     OW34023   4.508   5.828   6.031  0.3561  0.0769 -0.0523
 8573SOL    HW234024   4.477   5.917   6.015 -0.3190 -0.2897 -0.8454
 8573SOL    HW334025   4.571   5.811   5.960 -1.1214 -0.8266 -1.2066
 8573SOL    MW434026   4.512   5.837   6.019 -0.7350 -0.1001 -0.0990
 8574SOL     OW34027   4.733   2.696   1.700  0.4937  0.1588 -0.6526
 8574SOL    HW234028   4.768   2.660   1.781 -1.3039  0.3375  0.2723
 8574SOL    HW334029   4.638   2.691   1.711  0.1994  0.5490 -2.5974
 8574SOL    MW434030   4.725   2.691   1.712  0.2822 -0.1869  0.4969
 8575SOL     OW34031   1.557   4.220   5.307 -0.2989 -0.0811  0.8060
 8575SOL    HW234032   1.645   4.226   5.269 -0.8410 -1.9221 -0.8927
 8575SOL    HW334033   1.570   4.236   5.400  1.6464  0.8657  0.4356
 8575SOL    MW434034   1.570   4.223   5.314  0.3493  0.5403  0.4862
 8576SOL     OW34035   1.817   1.449   4.718 -0.5995 -0.1851 -0.6245
 8576SOL    HW234036   1.903   1.453   4.674  0.5536  0.2133  1.5129
 8576SOL    HW334037   1.769   1.381   4.671 -0.0191  1.1212 -3.3414
 8576SOL    MW434038   1.822   1.441   4.706  0.6942 -0.1113  0.2008
 8577SOL     OW34039   3.344   0.745   2.065  0.5334  0.0811  0.1856
 8577SOL    HW234040   3.342   0.779   1.975  0.7756 -1.1703 -0.3252
 8577SOL    HW334041   3.437   0.734   2.084  0.5427  1.6103  1.1184
 8577SOL    MW434042   3.356   0.748   2.055  0.1366  0.5540  0.1228
 8578SOL     OW34043   0.640   4.815   2.035 -0.5153  0.0562  0.3081
 8578SOL    HW234044   0.655   4.782   2.123 -1.0048  0.5936  0.6032
 8578SOL    HW334045   0.572   4.758   1.999 -0.6924  0.1566  0.4776
 8578SOL    MW434046   0.633   4.803   2.042  0.0533 -0.0010  0.4559
 8579SOL     OW34047   3.049   1.719   1.746  0.5059 -0.0777  0.1448
 8579SOL    HW234048   3.019   1.809   1.731  0.4920  0.1467  1.4084
 8579SOL    HW334049   2.976   1.664   1.719 -0.0820  0.3637  0.7821
 8579SOL    MW434050   3.036   1.724   1.741  0.3044  0.7827 -0.0028
 8580SOL     OW34051   2.559   5.551   2.918  0.0137 -0.4900 -0.3090
 8580SOL    HW234052   2.573   5.605   2.841  0.5886  0.5294  0.4889
 8580SOL    HW334053   2.643   5.506   2.931 -0.2545 -1.0799 -0.5870
 8580SOL    MW434054   2.572   5.552   2.910  0.1556  0.3245 -0.3159
 8581SOL     OW34055   2.213   4.265   4.457  0.0518 -0.5486  0.3627
 8581SOL    HW234056   2.159   4.280   4.379  1.3268 -0.2810 -0.4977
 8581SOL    HW334057   2.286   4.325   4.448 -0.2874  0.2354  2.3184
 8581SOL    MW434058   2.215   4.275   4.446  0.5909 -0.0830  0.0505
 8582SOL     OW34059   5.669   6.281   2.774 -0.3376  0.2884 -0.5990
 8582SOL    HW234060   5.723   6.320   2.842  1.2044  1.0225 -2.1733
 8582SOL    HW334061   5.587   6.331   2.777 -0.0026  0.8083  0.2096
 8582SOL    MW434062   5.665   6.293   2.783 -0.0780 -0.1165  0.1671
 8583SOL     OW34063   0.054   6.263   3.354 -0.2998  0.1456 -0.0602
 8583SOL    HW234064   0.113   6.326   3.396  0.4231  0.9217 -2.1410
 8583SOL    HW334065   0.096   6.178   3.368  0.4527  0.5032 -0.0876
 8583SOL    MW434066   0.067   6.260   3.362 -0.0965 -0.0227 -0.0689
 8584SOL     OW34067   4.576   5.673   0.021  0.1097  0.1320 -0.0740
 8584SOL    HW234068   4.571   5.579   0.004  0.3586  0.4414 -2.0061
 8584SOL    HW334069   4.485   5.700   0.033 -0.0635 -0.1457 -0.7405
 8584SOL    MW434070   4.563   5.664   0.021 -0.1370 -0.2205 -0.0060
 8585SOL     OW34071   6.043   3.282   1.724  0.1855  0.3202 -0.0061
 8585SOL    HW234072   5.950   3.259   1.723  0.1201  0.5988 -0.5813
 8585SOL    HW334073   6.084   3.219   1.664  0.1744  0.9877 -0.7244
 8585SOL    MW434074   6.037   3.270   1.716 -0.5996 -0.4607  0.1799
 8586SOL     OW34075   4.962   3.617   3.450 -0.6877 -0.1907  0.4327
 8586SOL    HW234076   4.945   3.577   3.365  0.2594  1.3564 -0.5519
 8586SOL    HW334077   4.886   3.595   3.504 -0.9299 -1.8728 -0.5429
 8586SOL    MW434078   4.950   3.609   3.446 -0.0332  0.4065 -0.0694
 8587SOL     OW34079   1.897   2.570   3.443  0.2836  0.0511  0.0395
 8587SOL    HW234080   1.920   2.486   3.404 -1.0129  0.5510 -1.9471
 8587SOL    HW334081   1.972   2.627   3.423  1.5553 -0.7714  2.1383
 8587SOL    MW434082   1.910   2.567   3.435  0.6900  0.0096  0.2756
 8588SOL     OW34083   6.018   1.098   0.430  0.1283 -0.2793 -0.1281
 8588SOL    HW234084   5.962   1.079   0.506  0.1268  0.5385  0.0767
 8588SOL    HW334085   5.973   1.167   0.382  0.7832  0.1452 -0.1522
 8588SOL    MW434086   6.005   1.104   0.434  0.0788 -0.0742 -0.3339
 8589SOL     OW34087   3.329   1.863   4.971  0.1063  0.2367  0.3528
 8589SOL    HW234088   3.386   1.815   4.910  1.2117  1.0304  0.7337
 8589SOL    HW334089   3.243   1.862   4.928  0.0987 -1.9443  0.2803
 8589SOL    MW434090   3.325   1.856   4.957  0.2352 -0.2213  0.0728
 8590SOL     OW34091   2.121   4.158   3.617 -0.6016 -0.0790 -0.0372
 8590SOL    HW234092   2.123   4.088   3.682  0.1039 -0.2300 -0.2121
 8590SOL    HW334093   2.195   4.214   3.639  0.1688 -0.5943 -1.1954
 8590SOL    MW434094   2.131   4.156   3.628  0.0905 -0.7267  0.1734
 8591SOL     OW34095   0.895   5.517   0.006  0.4569  0.5771 -0.6320
 8591SOL    HW234096   0.876   5.460   0.080  1.3448  0.5717 -0.3944
 8591SOL    HW334097   0.949   5.587   0.042  1.0641  0.4677 -1.2925
 8591SOL    MW434098   0.900   5.519   0.020  0.1239  0.1395  0.2118
 8592SOL     OW34099   6.285   5.881   2.684 -0.1526 -0.2292 -0.9806
 8592SOL    HW234100   6.270   5.889   2.779  1.4430  0.4821 -0.7583
 8592SOL    HW334101   6.207   5.921   2.645 -0.5592  0.0284  0.0435
 8592SOL    MW434102   6.273   5.888   2.692  0.1627 -0.0022 -0.1579
 8593SOL     OW34103   4.620   4.757   2.812 -0.3105 -0.2874 -0.3536
 8593SOL    HW234104   4.616   4.691   2.881  0.1994  0.0221 -0.0191
 8593SOL    HW334105   4.545   4.814   2.829  1.1084  1.1873  1.4195
 8593SOL    MW434106   4.609   4.756   2.823 -0.0380  0.4155 -0.1462
 8594SOL     OW34107   3.721   2.583   4.146  0.4189 -0.5134  0.0859
 8594SOL    HW234108   3.700   2.583   4.239  0.3107 -0.6902  0.0610
 8594SOL    HW334109   3.679   2.504   4.111  0.8721 -0.7136 -0.0184
 8594SOL    MW434110   3.713   2.573   4.154  0.0275  0.4379 -0.4043
 8595SOL     OW34111   1.836   4.323   4.424 -0.4508 -0.1806 -0.3964
 8595SOL    HW234112   1.766   4.263   4.450  1.0532 -1.3037  1.3231
 8595SOL    HW334113   1.875   4.351   4.507  1.0863  0.4430 -1.2938
 8595SOL    MW434114   1.832   4.318   4.439 -0.2635  0.3011 -0.0051
 8596SOL     OW34115   0.137   0.941   4.564 -0.0652 -0.4803  0.4651
 8596SOL    HW234116   0.087   1.014   4.527 -0.3368 -0.5620  0.6638
 8596SOL    HW334117   0.073   0.893   4.617  0.2188 -0.6030  0.7003
 8596SOL    MW434118   0.122   0.944   4.566 -0.3587  0.5955  0.6032
 8597SOL     OW34119   1.473   2.779   1.412  0.2275 -0.8320  0.7620
 8597SOL    HW234120   1.550   2.725   1.429  0.9670  0.3640  1.3179
 8597SOL    HW334121   1.400   2.727   1.445  0.9263 -1.4698  1.3483
 8597SOL    MW434122   1.474   2.765   1.419 -0.0835  0.0917 -0.1754
 8598SOL     OW34123   3.202   2.270   4.182  0.9690  0.7959 -0.1583
 8598SOL    HW234124   3.134   2.217   4.224 -0.4300  3.1140  0.7744
 8598SOL    HW334125   3.179   2.270   4.089  0.4335  0.5058 -0.0314
 8598SOL    MW434126   3.190   2.263   4.175  0.3511 -0.4968  0.6781
 8599SOL     OW34127   4.948   5.298   5.717  0.3777  0.0168 -0.2901
 8599SOL    HW234128   4.895   5.221   5.735 -1.2557  1.2686  0.4889
 8599SOL    HW334129   5.025   5.288   5.773  0.9825 -1.7928 -1.3786
 8599SOL    MW434130   4.951   5.286   5.727 -0.0853  0.0737 -0.3125
 8600SOL     OW34131   6.055   2.690   2.132 -0.5347  0.4823 -0.1882
 8600SOL    HW234132   5.999   2.765   2.149 -0.4452  0.8890 -1.6291
 8600SOL    HW334133   6.140   2.728   2.108 -0.0605 -0.1081  0.4949
 8600SOL    MW434134   6.059   2.705   2.131 -0.4063  0.5550 -0.2971
 8601SOL     OW34135   1.389   0.841   3.365 -0.3468  0.1920 -0.4112
 8601SOL    HW234136   1.462   0.841   3.427  0.3747  0.3978 -1.2405
 8601SOL    HW334137   1.317   0.881   3.413 -0.7341 -2.3635  1.3132
 8601SOL    MW434138   1.389   0.846   3.379 -0.0189 -0.0056 -0.1137
 8602SOL     OW34139   2.621   6.184   3.195  0.4944  0.1898 -0.1761
 8602SOL    HW234140   2.684   6.116   3.217 -0.7539 -1.2470 -0.9191
 8602SOL    HW334141   2.599   6.225   3.279  1.1392 -0.4219  0.3008
 8602SOL    MW434142   2.626   6.181   3.209 -0.3869  0.1514 -0.3902
 8603SOL     OW34143   4.337   0.588   6.094  0.0360  0.3214  0.8628
 8603SOL    HW234144   4.369   0.677   6.108  0.0928  0.1884  1.5757
 8603SOL    HW334145   4.269   0.597   6.027 -0.3664  0.9782  1.3583
 8603SOL    MW434146   4.332   0.601   6.087  0.1948  0.2584  0.4661
 8604SOL     OW34147   3.135   5.107   0.513 -1.0185 -0.5509  0.6349
 8604SOL    HW234148   3.123   5.188   0.463 -2.4825 -0.7739  0.5994
 8604SOL    HW334149   3.116   5.132   0.603  0.1255 -0.5045  0.8827
 8604SOL    MW434150   3.131   5.121   0.518 -0.4008 -0.1280 -0.0434
 8605SOL     OW34151   3.790   0.474   0.783 -0.1294 -0.0170  0.4706
 8605SOL    HW234152   3.779   0.398   0.725 -1.4492  0.9119 -0.5604
 8605SOL    HW334153   3.844   0.442   0.855 -0.6415 -1.9307  0.0518
 8605SOL    MW434154   3.796   0.460   0.785  0.7620  0.2224  0.7227
 8606SOL     OW34155   2.323   5.564   1.048 -0.1617 -0.1903 -0.2167
 8606SOL    HW234156   2.285   5.514   1.120 -0.4482 -0.2245 -0.3878
 8606SOL    HW334157   2.249   5.611   1.010 -0.0376 -0.2756 -0.5704
 8606SOL    MW434158   2.308   5.563   1.052  0.2207 -0.3348  0.1188
 8607SOL     OW34159   3.469   2.324   1.530  1.2659 -0.3610  0.0805
 8607SOL    HW234160   3.505   2.359   1.449 -0.1356  0.3437 -0.2838
 8607SOL    HW334161   3.496   2.232   1.530 -0.1100 -0.8658 -2.0982
 8607SOL    MW434162   3.477   2.317   1.519 -0.2867 -0.5745 -0.1703
 8608SOL     OW34163   3.342   3.824   1.932 -0.5894  0.6167 -0.0790
 8608SOL    HW234164   3.394   3.797   1.856  0.8606 -1.8626  1.6259
 8608SOL    HW334165   3.384   3.904   1.963  2.4452 -1.2667  1.2117
 8608SOL    MW434166   3.354   3.831   1.926 -0.0467  0.0091 -0.1002
 8609SOL     OW34167   1.704   5.885   0.186  0.1236 -0.8806 -0.2823
 8609SOL    HW234168   1.660   5.892   0.102  0.7427 -0.9205 -0.6196
 8609SOL    HW334169   1.797   5.875   0.164  0.6052  1.3671  0.4267
 8609SOL    MW434170   1.711   5.885   0.172 -0.0421  0.3373 -0.1001
 8610SOL     OW34171   2.254   4.124   5.023  0.6208 -0.5699  0.2290
 8610SOL    HW234172   2.313   4.049   5.010 -0.1007 -1.0895 -0.0664
 8610SOL    HW334173   2.196   4.096   5.093  1.0597  0.1590  0.9077
 8610SOL    MW434174   2.254   4.110   5.031 -0.3764  0.0458  0.1112
 8611SOL     OW34175   5.596   3.735   0.112  0.2267  0.0646  0.4358
 8611SOL    HW234176   5.553   3.677   0.049  0.7498  0.2798 -0.1282
 8611SOL    HW334177   5.529   3.799   0.136 -0.2431 -0.5533  0.7858
 8611SOL    MW434178   5.581   3.736   0.107  0.1247 -0.1019 -0.0242
 8612SOL     OW34179   1.235   5.665   4.556  0.6012 -0.0693  0.4062
 8612SOL    HW234180   1.228   5.748   4.604 -1.3341 -0.2804  0.5771
 8612SOL    HW334181   1.210   5.598   4.619 -1.4578 -0.4021 -0.6618
 8612SOL    MW434182   1.231   5.667   4.570  0.8642  0.2446  0.1027
 8613SOL     OW34183   1.742   4.667   0.298 -0.2245 -0.4516  0.4387
 8613SOL    HW234184   1.828   4.632   0.275 -1.2784 -1.2086 -2.8382
 8613SOL    HW334185   1.707   4.605   0.361  0.8430 -1.1968  0.3246
 8613SOL    MW434186   1.749   4.655   0.304 -0.0676 -0.4078 -0.0478
 8614SOL     OW34187   3.052   4.030   4.360 -0.1304 -0.6982  0.1943
 8614SOL    HW234188   3.027   4.001   4.448 -1.4947 -1.4830 -0.4112
 8614SOL    HW334189   3.037   4.125   4.361  0.1067 -0.6659  0.8862
 8614SOL    MW434190   3.047   4.039   4.372  0.3910 -0.0649  0.1430
 8615SOL     OW34191   3.778   2.583   0.579  0.3560  0.2444 -0.1173
 8615SOL    HW234192   3.871   2.601   0.596  0.1275  0.6381  0.7922
 8615SOL    HW334193   3.751   2.524   0.650  0.7343 -2.7722 -2.2750
 8615SOL    MW434194   3.787   2.578   0.591 -0.7142 -0.4596 -0.2288
 8616SOL     OW34195   2.566   4.529   3.060  0.3901 -0.4649 -0.2207
 8616SOL    HW234196   2.588   4.464   3.127 -0.1760 -0.2920  0.1343
 8616SOL    HW334197   2.649   4.572   3.040  0.4375 -0.0020  0.9099
 8616SOL    MW434198   2.580   4.526   3.066  0.4142  0.8857 -0.7196
 8617SOL     OW34199   1.672   4.114   4.453  0.2289  0.4282 -0.5649
 8617SOL    HW234200   1.663   4.040   4.513  1.4298  1.2737  0.7266
 8617SOL    HW334201   1.584   4.128   4.418 -0.1924 -1.0386 -0.1640
 8617SOL    MW434202   1.659   4.106   4.457 -0.1205 -0.8133  0.1805
 8618SOL     OW34203   0.485   4.183   5.497 -0.4882  0.3655 -0.1331
 8618SOL    HW234204   0.439   4.106   5.464  1.0045 -0.6343  0.0320
 8618SOL    HW334205   0.457   4.190   5.589 -1.1812  0.4800 -0.3412
 8618SOL    MW434206   0.475   4.174   5.505  0.4789  0.1225  0.1213
 8619SOL     OW34207   2.860   4.543   4.521  0.2580  0.4404 -0.2430
 8619SOL    HW234208   2.797   4.500   4.578  0.4680  0.9229  0.3698
 8619SOL    HW334209   2.813   4.556   4.439 -0.3474  0.5320  0.1087
 8619SOL    MW434210   2.845   4.539   4.518 -0.0971 -0.3242  0.4514
 8620SOL     OW34211   6.144   0.790   2.300  0.0374  0.0850  0.3780
 8620SOL    HW234212   6.138   0.865   2.241  0.4003  0.1238  0.3882
 8620SOL    HW334213   6.147   0.714   2.242  0.6843  0.1406  0.3366
 8620SOL    MW434214   6.143   0.790   2.285 -0.0069  0.3103  0.1361
 8621SOL     OW34215   6.432   4.075   5.842  0.5777  0.1851  0.2646
 8621SOL    HW234216   6.469   3.999   5.796  0.4853  0.2735  0.0392
 8621SOL    HW334217   6.342   4.049   5.863  0.1512  0.6684 -0.8812
 8621SOL    MW434218   6.425   4.061   5.838  0.0752  0.5142  0.1385
 8622SOL     OW34219   2.456   1.009   6.108 -0.1256  0.2002  0.1503
 8622SOL    HW234220   2.423   1.039   6.192 -0.6855  0.5500 -0.1896
 8622SOL    HW334221   2.548   1.036   6.107 -0.5914  1.8652 -0.1140
 8622SOL    MW434222   2.464   1.016   6.119  0.6754 -0.2225  0.1980
 8623SOL     OW34223   6.419   4.473   3.733  0.5937  0.4366 -0.1602
 8623SOL    HW234224   6.502   4.458   3.779  1.5453 -0.7685 -2.1463
 8623SOL    HW334225   6.368   4.393   3.749  1.1926 -0.2741 -1.6752
 8623SOL    MW434226   6.423   4.460   3.741  0.3889 -0.8596 -0.0807
 8624SOL     OW34227   3.151   3.850   3.181 -0.4121  0.8803 -0.3473
 8624SOL    HW234228   3.247   3.844   3.179 -0.5199 -1.4980 -1.4777
 8624SOL    HW334229   3.127   3.810   3.265 -0.4252  2.4726  0.4515
 8624SOL    MW434230   3.161   3.844   3.192  0.5937  0.4435 -0.8122
 8625SOL     OW34231   3.531   2.396   0.475  0.3262  0.1875 -0.3737
 8625SOL    HW234232   3.501   2.407   0.385 -0.4638  2.6484  0.1168
 8625SOL    HW334233   3.623   2.420   0.473 -0.1076  2.0003 -0.2751
 8625SOL    MW434234   3.539   2.400   0.463  0.4831 -0.2410  0.2407
 8626SOL     OW34235   0.920   1.833   3.604 -0.5872  0.1757 -0.0762
 8626SOL    HW234236   0.872   1.759   3.565  1.0824  0.1330 -2.2312
 8626SOL    HW334237   0.990   1.792   3.654 -1.4476  0.2859  1.2643
 8626SOL    MW434238   0.923   1.818   3.605 -0.2744  0.3846 -0.0631
 8627SOL     OW34239   3.209   4.220   1.809  0.3352  0.0514 -0.1703
 8627SOL    HW234240   3.163   4.181   1.883  1.3464  1.6741  1.4049
 8627SOL    HW334241   3.207   4.153   1.741  0.2061 -1.9059  1.6616
 8627SOL    MW434242   3.203   4.206   1.810 -0.2615  0.0864 -0.2588
 8628SOL     OW34243   0.047   6.293   0.991 -0.0993 -0.0312  0.6859
 8628SOL    HW234244  -0.035   6.339   1.008 -0.2845 -0.7438  1.8726
 8628SOL    HW334245   0.060   6.238   1.069  0.3098 -1.6626 -0.4868
 8628SOL    MW434246   0.038   6.292   1.004  0.4094 -0.1917  0.1942
 8629SOL     OW34247   4.532   0.700   3.627  0.1055  0.1220 -0.2040
 8629SOL    HW234248   4.507   0.791   3.611  1.3803  0.9692  2.0695
 8629SOL    HW334249   4.463   0.648   3.586 -0.0012  2.0317 -2.6853
 8629SOL    MW434250   4.519   0.705   3.620  0.4305 -0.3756 -0.0740
 8630SOL     OW34251   5.549   1.204   0.604 -0.0386 -0.0250 -0.1260
 8630SOL    HW234252   5.507   1.267   0.544 -0.3752  0.3851  0.5299
 8630SOL    HW334253   5.511   1.223   0.689  0.2339 -0.7960  0.1746
 8630SOL    MW434254   5.539   1.215   0.607 -0.2169  0.1072 -0.7075
 8631SOL     OW34255   2.478   0.031   1.004 -0.6982  0.1385  0.1160
 8631SOL    HW234256   2.447   0.037   1.094  0.8988 -1.5442  0.8612
 8631SOL    HW334257   2.573   0.042   1.011 -0.5288 -0.2000 -1.3416
 8631SOL    MW434258   2.486   0.033   1.017 -0.3332 -0.3911 -0.0329
 8632SOL     OW34259   5.929   1.899   0.609 -0.1610  0.8046 -0.2262
 8632SOL    HW234260   5.841   1.922   0.580 -1.8328 -1.1767  2.7613
 8632SOL    HW334261   5.922   1.809   0.641  1.8471  1.8704  3.8998
 8632SOL    MW434262   5.917   1.890   0.609  0.0585 -0.4333  0.4810
 8633SOL     OW34263   2.165   0.984   1.110 -0.1842 -0.1544  0.8652
 8633SOL    HW234264   2.195   0.897   1.138  0.6330  0.0538  0.6402
 8633SOL    HW334265   2.093   0.965   1.049 -1.3687 -0.6305  2.3417
 8633SOL    MW434266   2.159   0.970   1.105 -0.0068 -0.1166  0.0434
 8634SOL     OW34267   4.421   1.385   5.966  0.2939 -0.1259 -0.4963
 8634SOL    HW234268   4.468   1.302   5.961  0.3407 -0.0549 -1.7412
 8634SOL    HW334269   4.405   1.408   5.874  1.0450  1.6638 -0.2264
 8634SOL    MW434270   4.425   1.377   5.953 -0.0036 -0.0715 -0.1131
 8635SOL     OW34271   3.761   4.387   2.909 -0.3813  0.4908 -0.3251
 8635SOL    HW234272   3.816   4.320   2.951 -1.6997 -1.0671 -0.9544
 8635SOL    HW334273   3.823   4.447   2.868  0.8648 -0.2416  0.4208
 8635SOL    MW434274   3.777   4.386   2.909 -0.7177  0.1222 -0.5792
 8636SOL     OW34275   0.383   1.832   4.279  0.3431  0.1072  0.1660
 8636SOL    HW234276   0.419   1.749   4.311  0.3560  0.5585  1.3794
 8636SOL    HW334277   0.293   1.832   4.312 -0.3860 -0.4105 -1.7133
 8636SOL    MW434278   0.375   1.821   4.288 -1.3067 -0.0142  0.2343
 8637SOL     OW34279   4.261   3.270   4.634 -0.2097 -0.3913 -0.0470
 8637SOL    HW234280   4.238   3.356   4.599 -1.7273 -0.4282  0.8025
 8637SOL    HW334281   4.299   3.289   4.720 -0.2002 -0.5552 -0.0153
 8637SOL    MW434282   4.263   3.284   4.641 -0.1439  0.4200  0.7897
 8638SOL     OW34283   5.825   0.311   6.034  0.2008  0.0968 -0.2711
 8638SOL    HW234284   5.776   0.244   5.986 -2.7647  1.1160  1.0390
 8638SOL    HW334285   5.819   0.389   5.978 -2.2326  0.9631  1.0425
 8638SOL    MW434286   5.817   0.313   6.020 -0.6001  0.1569 -0.3045
 8639SOL     OW34287   0.770   1.617   3.494 -0.4349 -0.1790 -0.3480
 8639SOL    HW234288   0.710   1.630   3.420  0.5610 -1.2499 -1.3824
 8639SOL    HW334289   0.849   1.580   3.455 -0.8520 -3.3980  1.5739
 8639SOL    MW434290   0.772   1.614   3.479 -0.4780 -0.5038 -0.3122
 8640SOL     OW34291   1.300   0.849   2.575 -0.0194 -0.0737  0.0382
 8640SOL    HW234292   1.286   0.893   2.659 -1.1275 -0.4069  0.0351
 8640SOL    HW334293   1.386   0.881   2.546  0.5387 -0.1994  1.4419
 8640SOL    MW434294   1.310   0.859   2.582 -0.6251 -0.1854 -0.1208
 8641SOL     OW34295   0.287   0.455   0.791 -0.4414 -0.5252 -0.3356
 8641SOL    HW234296   0.354   0.396   0.824 -0.5963 -0.8524 -0.5978
 8641SOL    HW334297   0.206   0.404   0.794 -0.6133 -0.2574 -0.3660
 8641SOL    MW434298   0.285   0.441   0.796 -0.2823 -0.2893  0.3740
 8642SOL     OW34299   5.305   0.949   3.515 -1.2030  0.0034  0.1324
 8642SOL    HW234300   5.279   1.020   3.457 -1.0423  0.3177  0.4452
 8642SOL    HW334301   5.287   0.981   3.603  0.2818  0.2521  0.3690
 8642SOL    MW434302   5.299   0.962   3.519  0.3036  0.0510  0.6142
 8643SOL     OW34303   0.933   5.449   4.160  0.1152 -0.4299 -0.1078
 8643SOL    HW234304   0.978   5.527   4.194 -1.0659  0.7859 -1.1787
 8643SOL    HW334305   0.877   5.420   4.232 -1.8948  1.7365 -0.6304
 8643SOL    MW434306   0.931   5.456   4.174  0.3636  0.1146 -0.0329
 8644SOL     OW34307   2.417   4.700   3.218 -0.0011 -0.0429 -0.9438
 8644SOL    HW234308   2.379   4.623   3.260 -1.5198 -0.0999 -2.3555
 8644SOL    HW334309   2.477   4.665   3.152 -1.3571 -0.0605 -2.1934
 8644SOL    MW434310   2.420   4.685   3.215  0.3910 -0.1076 -0.1559
 8645SOL     OW34311   0.078   5.331   5.992  0.5298 -0.6454 -0.5189
 8645SOL    HW234312   0.062   5.370   6.078 -0.5774 -0.9905 -0.5551
 8645SOL    HW334313   0.100   5.406   5.936  4.2295 -0.6577  0.6412
 8645SOL    MW434314   0.079   5.346   5.996 -0.1430  0.0228 -0.0610
 8646SOL     OW34315   4.566   3.904   2.574 -0.5099  0.5584  0.4804
 8646SOL    HW234316   4.588   3.822   2.531  2.0318  1.4972 -0.2191
 8646SOL    HW334317   4.475   3.921   2.551 -0.2156 -0.6377 -1.7565
 8646SOL    MW434318   4.557   3.896   2.565 -0.3890  0.2785  0.2950
 8647SOL     OW34319   4.119   3.565   0.288 -0.0170  0.2235  0.3543
 8647SOL    HW234320   4.166   3.506   0.230  0.0796  1.2672 -0.6702
 8647SOL    HW334321   4.175   3.574   0.365  0.7251  0.2483 -0.1836
 8647SOL    MW434322   4.132   3.559   0.290 -0.1829 -0.1315 -0.0148
 8648SOL     OW34323   4.857   5.903   6.003  0.9574  0.4444  0.5576
 8648SOL    HW234324   4.803   5.897   6.083  0.7518  2.6386  0.6508
 8648SOL    HW334325   4.793   5.914   5.932  1.1998  0.5341  0.3533
 8648SOL    MW434326   4.841   5.904   6.005  0.7118 -0.3375  0.1770
 8649SOL     OW34327   1.208   2.694   1.428  0.5372 -0.0591 -0.4257
 8649SOL    HW234328   1.167   2.776   1.457  2.1006 -0.3676  3.3116
 8649SOL    HW334329   1.134   2.636   1.408 -0.6680  1.3768 -0.3314
 8649SOL    MW434330   1.193   2.697   1.430 -0.4998  0.1857 -0.2931
 8650SOL     OW34331   4.251   3.703   1.468 -0.3136 -0.0978  0.3350
 8650SOL    HW234332   4.282   3.673   1.553  0.8455  1.4134  0.4894
 8650SOL    HW334333   4.286   3.792   1.460 -2.0955  0.5596 -0.8405
 8650SOL    MW434334   4.259   3.711   1.478 -0.1763  0.6617 -0.4596
 8651SOL     OW34335   2.100   5.788   1.046 -0.4380 -0.2281 -0.2992
 8651SOL    HW234336   2.069   5.753   1.129 -3.2469 -0.4181 -1.3098
 8651SOL    HW334337   2.184   5.829   1.066 -1.3694  0.4000  2.7907
 8651SOL    MW434338   2.107   5.789   1.059  0.2302  0.3362  0.4196
 8652SOL     OW34339   0.172   2.584   4.643  0.4264 -0.2292  0.5295
 8652SOL    HW234340   0.213   2.665   4.674  0.3367 -0.1672  0.4861
 8652SOL    HW334341   0.218   2.563   4.562 -0.2755  0.3658 -0.0345
 8652SOL    MW434342   0.184   2.592   4.636 -0.1045 -0.1444  0.1704
 8653SOL     OW34343   5.721   5.223   0.322  0.1780  0.1227 -0.0715
 8653SOL    HW234344   5.785   5.265   0.265  0.8743  0.2528  0.7767
 8653SOL    HW334345   5.721   5.277   0.402  0.1096 -0.7355  0.5199
 8653SOL    MW434346   5.729   5.236   0.325 -0.3077  0.3473 -0.1340
 8654SOL     OW34347   4.875   1.311   0.802 -0.3748  0.2905  0.4027
 8654SOL    HW234348   4.819   1.268   0.866 -1.5767  0.1732 -0.7037
 8654SOL    HW334349   4.962   1.309   0.842 -1.0803  0.2085  2.0155
 8654SOL    MW434350   4.879   1.305   0.816 -0.1729 -0.7526 -0.1798
 8655SOL     OW34351   2.934   3.464   2.800 -0.7076  0.5350 -0.5644
 8655SOL    HW234352   2.870   3.464   2.871  0.1504 -0.9190  0.2781
 8655SOL    HW334353   2.961   3.555   2.791 -2.0734  0.9966 -0.1958
 8655SOL    MW434354   2.929   3.476   2.808  0.1899 -0.2880 -0.0492
 8656SOL     OW34355   0.836   0.346   3.326  0.2818 -0.2198 -0.2759
 8656SOL    HW234356   0.829   0.423   3.269  1.1487 -0.3187 -0.5323
 8656SOL    HW334357   0.756   0.349   3.380  1.1091  1.8909  0.9874
 8656SOL    MW434358   0.824   0.357   3.326  0.0498 -0.1798 -0.1704
 8657SOL     OW34359   0.961   3.826   1.125 -0.3340  0.6801  0.0945
 8657SOL    HW234360   0.956   3.731   1.132 -0.3820  0.6550 -0.2636
 8657SOL    HW334361   0.965   3.857   1.216 -2.1518  0.4318  0.3003
 8657SOL    MW434362   0.961   3.818   1.138  0.3641  0.4553 -0.1487
 8658SOL     OW34363   2.958   5.793   2.631 -0.0268  0.3611 -0.3687
 8658SOL    HW234364   2.926   5.882   2.617  0.1762  1.0223  2.6744
 8658SOL    HW334365   3.053   5.802   2.638  0.0914 -0.2788 -0.9365
 8658SOL    MW434366   2.967   5.806   2.630  0.0408 -0.0039 -0.3903
 8659SOL     OW34367   3.330   4.761   4.005 -0.3628  0.1576  0.1327
 8659SOL    HW234368   3.322   4.678   3.958 -0.8677  0.3201 -0.0703
 8659SOL    HW334369   3.358   4.824   3.938  1.2763 -0.0925  0.5329
 8659SOL    MW434370   3.332   4.758   3.990  0.0302 -0.4189  0.1153
 8660SOL     OW34371   4.628   3.301   1.587  0.0775 -0.3621 -0.1976
 8660SOL    HW234372   4.623   3.396   1.593  0.0823 -0.4254  1.0585
 8660SOL    HW334373   4.721   3.282   1.581  0.1003 -0.3103 -0.0079
 8660SOL    MW434374   4.639   3.311   1.587 -0.1296  0.3136  0.5506
 8661SOL     OW34375   1.981   0.117   2.126 -0.1749 -0.5642 -0.2897
 8661SOL    HW234376   2.006   0.208   2.110 -0.2811 -0.8553 -2.3055
 8661SOL    HW334377   1.968   0.112   2.221  0.9537  1.2225 -0.0083
 8661SOL    MW434378   1.982   0.128   2.137  0.1783 -0.6317 -1.0229
 8662SOL     OW34379   5.288   1.749   2.447 -0.5861 -0.3230 -0.3964
 8662SOL    HW234380   5.253   1.790   2.526  0.8059  0.4945 -0.1853
 8662SOL    HW334381   5.333   1.819   2.400  1.5657 -1.4849 -0.2072
 8662SOL    MW434382   5.289   1.763   2.451 -0.2563  0.3171  0.2118
 8663SOL     OW34383   5.512   2.383   0.764  0.1589  0.3794  0.1654
 8663SOL    HW234384   5.484   2.468   0.732  2.3360  0.8758 -0.6092
 8663SOL    HW334385   5.451   2.320   0.725 -0.8749  1.4838 -0.0465
 8663SOL    MW434386   5.500   2.386   0.755 -0.1068  0.6781 -0.1045
 8664SOL     OW34387   1.698   4.529   0.007 -0.2379  0.4340 -0.2451
 8664SOL    HW234388   1.724   4.542   0.098  0.3414  0.3127 -0.3922
 8664SOL    HW334389   1.710   4.615  -0.034 -0.1453  0.3968 -0.2952
 8664SOL    MW434390   1.703   4.542   0.014 -0.2337 -0.0186  0.0765
 8665SOL     OW34391   1.756   0.429   0.425 -0.0357  0.1402  0.3732
 8665SOL    HW234392   1.811   0.353   0.408  0.3691  0.3937  0.5141
 8665SOL    HW334393   1.702   0.404   0.499 -0.0834 -0.0977  0.2595
 8665SOL    MW434394   1.756   0.416   0.432 -0.3309  0.1820  0.7742
 8666SOL     OW34395   0.762   6.360   0.021  0.2071 -0.3676 -0.1397
 8666SOL    HW234396   0.742   6.382   0.112 -0.1787 -0.7653 -0.1237
 8666SOL    HW334397   0.806   6.437  -0.014  0.8144 -0.4082  0.5303
 8666SOL    MW434398   0.765   6.373   0.028 -0.2253  0.3776 -0.4490
 8667SOL     OW34399   0.324   4.568   2.477  0.2566 -0.0914 -0.3250
 8667SOL    HW234400   0.307   4.661   2.467 -2.0719 -0.1808  1.8621
 8667SOL    HW334401   0.378   4.561   2.556 -0.8905 -0.6372  0.4429
 8667SOL    MW434402   0.329   4.579   2.486  0.2432 -0.5307  0.0261
 8668SOL     OW34403   3.391   2.462   2.889 -0.0127  0.1575  0.2996
 8668SOL    HW234404   3.398   2.368   2.908  0.7100  0.0272 -0.5519
 8668SOL    HW334405   3.480   2.495   2.901  0.0715  0.4208 -0.9682
 8668SOL    MW434406   3.404   2.454   2.893  0.0069 -0.0473 -0.9181
 8669SOL     OW34407   5.878   0.108   3.461  0.0294  0.1988 -0.1089
 8669SOL    HW234408   5.930   0.165   3.403 -1.3927  0.6005 -1.0411
 8669SOL    HW334409   5.806   0.164   3.491 -1.6703 -1.1704 -1.4046
 8669SOL    MW434410   5.875   0.123   3.457 -0.1164 -0.6291  0.6401
 8670SOL     OW34411   6.367   0.392   1.951 -0.3286  0.7041  0.2407
 8670SOL    HW234412   6.362   0.380   1.856 -0.8959  1.0196  0.2294
 8670SOL    HW334413   6.312   0.323   1.988  1.0094 -0.3136  0.4102
 8670SOL    MW434414   6.359   0.381   1.943 -0.1237  0.0873  0.4425
 8671SOL     OW34415   4.063   2.696   1.948 -0.2423 -0.3110  0.1905
 8671SOL    HW234416   4.151   2.685   1.983 -0.8331  1.0577  2.2745
 8671SOL    HW334417   4.074   2.755   1.874  0.8626 -2.1696 -1.2083
 8671SOL    MW434418   4.076   2.703   1.943  0.2220  0.8057  0.5961
 8672SOL     OW34419   2.021   3.238   5.124  0.1938  0.1552 -0.5731
 8672SOL    HW234420   1.994   3.210   5.211 -0.0598 -4.4649 -1.8574
 8672SOL    HW334421   2.113   3.211   5.117 -0.5825 -2.4784 -2.5341
 8672SOL    MW434422   2.030   3.231   5.134 -0.2159  0.4627  0.0244
 8673SOL     OW34423   4.818   2.227   2.676  0.5928  0.1299 -0.1416
 8673SOL    HW234424   4.897   2.280   2.670  2.5930 -2.2410  2.3032
 8673SOL    HW334425   4.783   2.247   2.763 -1.0063  0.4765 -0.8410
 8673SOL    MW434426   4.824   2.236   2.687  0.4175 -0.2752 -0.3366
 8674SOL     OW34427   3.249   6.420   0.708 -0.0061  0.0073 -0.0736
 8674SOL    HW234428   3.167   6.371   0.702 -0.0855  0.2059 -0.6975
 8674SOL    HW334429   3.303   6.385   0.637 -0.6353  1.8547 -1.5467
 8674SOL    MW434430   3.246   6.409   0.698  0.3538 -0.2549 -0.5167
 8675SOL     OW34431   0.778   1.908   0.488 -0.0760 -0.0670 -0.1279
 8675SOL    HW234432   0.698   1.860   0.512  1.3139 -2.2375  0.4829
 8675SOL    HW334433   0.814   1.858   0.414  0.4914  1.1540 -0.7036
 8675SOL    MW434434   0.772   1.895   0.481 -0.3500  0.2284  0.1356
 8676SOL     OW34435   5.282   6.148   1.591 -0.4001  0.2320 -0.3675
 8676SOL    HW234436   5.239   6.194   1.519 -1.1495  1.0182  0.5577
 8676SOL    HW334437   5.211   6.123   1.650  0.3077  0.8149  0.7680
 8676SOL    MW434438   5.267   6.151   1.589  0.1097 -0.2953  0.1310
 8677SOL     OW34439   5.006   2.495   3.645  0.4431  0.3842 -0.4140
 8677SOL    HW234440   4.985   2.472   3.555  1.2837  1.3840 -0.8925
 8677SOL    HW334441   4.987   2.416   3.696 -1.7160  0.3613 -1.1856
 8677SOL    MW434442   5.001   2.482   3.640 -0.1580  0.1154  0.4702
 8678SOL     OW34443   2.931   3.754   1.857  0.0581  0.3242 -0.1690
 8678SOL    HW234444   2.886   3.670   1.853 -0.0999  0.3439  0.9588
 8678SOL    HW334445   2.861   3.819   1.864  0.2354  0.3523  1.6232
 8678SOL    MW434446   2.916   3.752   1.857 -0.5159 -0.3145  0.0681
 8679SOL     OW34447   3.509   3.959   4.610 -0.1495  0.6199 -0.1345
 8679SOL    HW234448   3.503   3.869   4.578  0.6364  0.1754  0.9253
 8679SOL    HW334449   3.583   3.996   4.563  0.5940  0.1687  0.6485
 8679SOL    MW434450   3.518   3.952   4.600  0.2534  0.3678  0.5247
 8680SOL     OW34451   6.301   3.765   3.781 -0.1431  0.4210 -0.0927
 8680SOL    HW234452   6.366   3.835   3.790 -1.3413  1.5832 -0.0442
 8680SOL    HW334453   6.324   3.702   3.850 -0.2574  1.8194  1.2935
 8680SOL    MW434454   6.313   3.766   3.791 -0.7804 -0.0668  0.5330
 8681SOL     OW34455   4.992   1.744   5.146 -0.3430 -0.1744  0.0113
 8681SOL    HW234456   4.955   1.698   5.071  1.5852 -2.3960  0.3423
 8681SOL    HW334457   4.917   1.761   5.203 -1.5035 -0.3895 -1.3982
 8681SOL    MW434458   4.977   1.740   5.144  0.0719  0.0658  0.0068
 8682SOL     OW34459   4.909   4.526   2.492 -0.1272 -0.6983 -0.6313
 8682SOL    HW234460   4.825   4.517   2.447 -1.3952 -0.1191  1.4797
 8682SOL    HW334461   4.974   4.509   2.424 -1.8974  0.3960 -2.7473
 8682SOL    MW434462   4.906   4.523   2.477 -0.3735 -0.3547 -0.0470
 8683SOL     OW34463   0.474   1.213   2.572  0.1269  0.1922 -0.4021
 8683SOL    HW234464   0.389   1.257   2.567 -0.4161 -0.7931 -0.1457
 8683SOL    HW334465   0.530   1.262   2.512 -0.6216  0.8560 -0.5769
 8683SOL    MW434466   0.470   1.226   2.563  0.0383 -0.2027  0.3058
 8684SOL     OW34467   1.886   3.122   3.274  0.1281 -0.4819  0.2209
 8684SOL    HW234468   1.906   3.033   3.244 -1.2907 -0.4552 -0.9432
 8684SOL    HW334469   1.833   3.108   3.353 -1.8670 -0.7771 -1.1075
 8684SOL    MW434470   1.882   3.108   3.280 -0.1108 -0.1029 -0.9522
 8685SOL     OW34471   1.935   6.004   6.280 -0.1036  0.6181  0.0098
 8685SOL    HW234472   1.982   6.087   6.269 -0.3071  0.7746  0.3344
 8685SOL    HW334473   1.968   5.968   6.362  0.0436  0.3347 -0.1708
 8685SOL    MW434474   1.946   6.010   6.289 -0.1328  0.5219  0.4407
 8686SOL     OW34475   4.677   2.243   0.563 -0.2394  0.9858  0.1438
 8686SOL    HW234476   4.728   2.325   0.566 -0.2214  0.9727  0.1853
 8686SOL    HW334477   4.683   2.208   0.651  1.7550 -0.2854 -0.4328
 8686SOL    MW434478   4.684   2.249   0.575  0.1819  0.1699 -0.3032
 8687SOL     OW34479   4.551   4.446   4.955 -0.4249 -0.1284 -0.1990
 8687SOL    HW234480   4.609   4.473   5.026  0.1036  1.1324 -1.0595
 8687SOL    HW334481   4.607   4.447   4.877 -0.3179 -3.9778 -0.3517
 8687SOL    MW434482   4.566   4.450   4.954 -0.2989  0.2641  0.0036
 8688SOL     OW34483   6.305   4.071   0.374  0.1731  0.6446  0.1721
 8688SOL    HW234484   6.337   4.042   0.460  0.2413  1.9576  0.6179
 8688SOL    HW334485   6.238   4.007   0.350  1.3425 -0.7011  0.4056
 8688SOL    MW434486   6.300   4.059   0.382  0.1460  0.2298  0.4752
 8689SOL     OW34487   1.756   0.869   1.190  0.2983  0.0675  0.3884
 8689SOL    HW234488   1.819   0.846   1.258  1.8528 -2.0007 -1.5753
 8689SOL    HW334489   1.724   0.785   1.157 -2.0241  1.0350 -0.0402
 8689SOL    MW434490   1.760   0.855   1.194  0.1042 -0.0736 -0.5047
 8690SOL     OW34491   1.389   2.725   2.120 -0.3786  0.2873  0.3430
 8690SOL    HW234492   1.421   2.724   2.210 -1.1940 -1.1543  0.6392
 8690SOL    HW334493   1.457   2.681   2.070 -0.6600 -0.3638  0.5283
 8690SOL    MW434494   1.402   2.719   2.125  0.6435  0.2014  0.0357
 8691SOL     OW34495   2.045   5.464   0.390  0.1956 -0.3814  0.5588
 8691SOL    HW234496   2.106   5.400   0.352  1.5251  1.2125 -0.1627
 8691SOL    HW334497   1.975   5.471   0.326  1.0947  0.3451 -0.3929
 8691SOL    MW434498   2.044   5.457   0.376  0.1528 -0.1663 -0.6553
 8692SOL     OW34499   6.221   1.541   5.393 -0.6802  0.9193 -0.0945
 8692SOL    HW234500   6.153   1.515   5.455 -1.4689  2.2210 -0.3627
 8692SOL    HW334501   6.262   1.459   5.365 -2.6704  0.0142 -0.5103
 8692SOL    MW434502   6.217   1.527   5.397  0.6888  0.2743 -0.3277
 8693SOL     OW34503   2.676   3.179   0.826 -0.4680 -0.6505 -0.4387
 8693SOL    HW234504   2.689   3.251   0.765 -0.2827 -0.1565  0.1656
 8693SOL    HW334505   2.630   3.112   0.776  0.1323 -0.4632 -1.2537
 8693SOL    MW434506   2.671   3.180   0.811 -0.0114  1.0042 -0.5836
 8694SOL     OW34507   4.653   4.164   1.144  0.4523 -0.0378  0.4088
 8694SOL    HW234508   4.686   4.106   1.075 -0.2572  0.6441 -0.5287
 8694SOL    HW334509   4.680   4.122   1.225  0.4489 -1.3858 -0.2571
 8694SOL    MW434510   4.661   4.151   1.145 -0.0313 -0.2801 -0.1917
 8695SOL     OW34511   4.872   0.273   0.404 -0.2497  0.1656 -0.1265
 8695SOL    HW234512   4.807   0.286   0.473 -0.3420  0.6974 -0.3046
 8695SOL    HW334513   4.851   0.188   0.366  0.4143 -0.6072  1.1474
 8695SOL    MW434514   4.861   0.264   0.408  0.3101  0.1326 -0.0091
 8696SOL     OW34515   4.906   1.159   1.321 -0.0892  0.2861  0.5948
 8696SOL    HW234516   4.836   1.225   1.315  0.9355  1.3484 -0.1173
 8696SOL    HW334517   4.872   1.093   1.381 -0.9685  1.6996  1.7026
 8696SOL    MW434518   4.892   1.159   1.328  0.2354  0.5825  0.4899
 8697SOL     OW34519   0.056   5.245   0.342 -0.2519  0.2138  0.0160
 8697SOL    HW234520   0.130   5.267   0.286  1.1244 -1.4678  1.0680
 8697SOL    HW334521   0.056   5.312   0.410  0.5263  0.0377  0.1914
 8697SOL    MW434522   0.065   5.256   0.343  0.2898  0.9499  0.8245
 8698SOL     OW34523   1.458   4.845   1.578 -0.2334  0.1496 -0.6652
 8698SOL    HW234524   1.411   4.784   1.520 -1.9429 -0.9188  1.6853
 8698SOL    HW334525   1.548   4.812   1.580 -0.2175  0.0079 -2.3645
 8698SOL    MW434526   1.464   4.833   1.570  0.0719 -0.2664  0.3513
 8699SOL     OW34527   5.899   0.790   3.292 -0.0615 -0.5718  0.1253
 8699SOL    HW234528   5.840   0.721   3.322  1.0987 -1.0808  1.3095
 8699SOL    HW334529   5.985   0.749   3.287  0.4042  0.4253 -0.5765
 8699SOL    MW434530   5.902   0.775   3.295  0.5563  0.4670  0.6016
 8700SOL     OW34531   6.117   1.051   4.391  0.3056  0.4478 -0.2724
 8700SOL    HW234532   6.117   1.133   4.341  0.7098  0.3303 -0.4705
 8700SOL    HW334533   6.088   0.985   4.329  1.2979  0.2151 -0.5095
 8700SOL    MW434534   6.113   1.053   4.376  0.0468  0.0661  0.6670
 8701SOL     OW34535   5.696   1.217   0.192  0.2956 -0.4230 -0.1164
 8701SOL    HW234536   5.730   1.266   0.117  0.1363 -1.0646 -0.6101
 8701SOL    HW334537   5.617   1.264   0.218  1.2488  0.7879  0.7198
 8701SOL    MW434538   5.690   1.230   0.186  0.3029 -0.1668 -0.1729
 8702SOL     OW34539   6.139   2.140   6.147  0.1400  0.2068  0.4939
 8702SOL    HW234540   6.052   2.103   6.160  0.6157 -1.6807 -1.1405
 8702SOL    HW334541   6.198   2.075   6.186  0.8511  1.9709  2.5720
 8702SOL    MW434542   6.135   2.127   6.154  0.3606 -0.1794  0.3598
 8703SOL     OW34543   5.443   6.435   2.776  0.1075  0.2673  0.2405
 8703SOL    HW234544   5.363   6.406   2.818 -0.4220  1.3821  0.0445
 8703SOL    HW334545   5.416   6.463   2.688  0.9639 -0.7248 -0.3570
 8703SOL    MW434546   5.429   6.435   2.770 -0.0742 -0.4587 -0.3285
 8704SOL     OW34547   3.454   0.588   2.948 -0.4904 -0.2331 -0.0929
 8704SOL    HW234548   3.520   0.638   2.997 -0.2773 -0.9730  0.3862
 8704SOL    HW334549   3.477   0.497   2.962 -2.0299 -0.5483  0.7080
 8704SOL    MW434550   3.465   0.583   2.957 -0.0754 -0.5850 -0.1346
 8705SOL     OW34551   1.596   1.295   2.552 -0.4414  0.2359 -0.2994
 8705SOL    HW234552   1.692   1.293   2.542 -0.4887  0.8465 -0.9305
 8705SOL    HW334553   1.581   1.339   2.635 -0.1600 -0.4069  0.0994
 8705SOL    MW434554   1.607   1.300   2.561 -0.2362 -0.2124 -0.2692
 8706SOL     OW34555   0.396   4.442   2.945  0.8811  0.5632 -0.0517
 8706SOL    HW234556   0.400   4.347   2.957  3.1454  0.5926 -0.0886
 8706SOL    HW334557   0.303   4.463   2.953  0.3400 -1.6172  0.1707
 8706SOL    MW434558   0.384   4.432   2.948 -0.4409  0.8368  0.0029
 8707SOL     OW34559   0.703   1.072   0.078 -0.4329 -0.4502  0.0247
 8707SOL    HW234560   0.655   1.141   0.122 -0.9815  0.3446 -1.7288
 8707SOL    HW334561   0.724   1.009   0.147 -1.3496  0.6596  1.3604
 8707SOL    MW434562   0.699   1.073   0.093  0.1857  0.2890  0.0014
 8708SOL     OW34563   4.428   4.797   0.590 -0.3627  0.0821  0.0434
 8708SOL    HW234564   4.474   4.769   0.511 -1.2022  0.8525 -0.7481
 8708SOL    HW334565   4.447   4.890   0.597 -1.2249  0.2704  0.0797
 8708SOL    MW434566   4.436   4.805   0.580 -0.0826 -0.2163  0.3752
 8709SOL     OW34567   1.320   3.546   4.398  0.2625 -0.1569 -0.6322
 8709SOL    HW234568   1.380   3.609   4.437  0.2927 -0.7442  0.3273
 8709SOL    HW334569   1.289   3.587   4.318  2.0749  0.0856 -1.2459
 8709SOL    MW434570   1.324   3.559   4.393 -0.1095  0.3720  0.0760
 8710SOL     OW34571   1.425   3.244   2.459  1.3247  0.4426 -0.4684
 8710SOL    HW234572   1.419   3.165   2.512  1.2071  0.9691  0.3265
 8710SOL    HW334573   1.514   3.243   2.424  1.4826  0.2117 -0.0618
 8710SOL    MW434574   1.436   3.234   2.461 -0.1103  0.1843 -0.2143
 8711SOL     OW34575   3.791   0.412   3.641 -0.2055  0.0682 -0.0449
 8711SOL    HW234576   3.826   0.493   3.678  0.2202  0.4737 -1.2865
 8711SOL    HW334577   3.803   0.347   3.710 -1.2309  1.1963  1.2489
 8711SOL    MW434578   3.797   0.414   3.655 -0.4961 -0.1174  0.7430
 8712SOL     OW34579   0.737   0.039   0.889 -0.2890 -0.0909 -0.4990
 8712SOL    HW234580   0.741   0.037   0.794  0.6746  0.0633 -0.4799
 8712SOL    HW334581   0.730   0.132   0.910  1.9633  0.1262 -0.3961
 8712SOL    MW434582   0.737   0.051   0.879 -0.0005  0.0700  0.0836
 8713SOL     OW34583   0.897   1.971   2.684  0.2171 -0.2635 -0.1443
 8713SOL    HW234584   0.970   2.023   2.651 -0.5612  0.6481 -0.4977
 8713SOL    HW334585   0.934   1.920   2.756  0.8641  1.3943  0.7513
 8713SOL    MW434586   0.911   1.971   2.689 -0.0980  0.6377  0.3444
 8714SOL     OW34587   6.217   3.411   4.900 -0.0490  0.1131 -0.0346
 8714SOL    HW234588   6.255   3.418   4.813 -1.4655 -0.4399 -0.7308
 8714SOL    HW334589   6.122   3.418   4.886 -0.2706  0.8927  1.5623
 8714SOL    MW434590   6.209   3.413   4.887 -0.0919  0.5282  0.4767
 8715SOL     OW34591   2.010   5.260   2.402  0.3246  0.5633 -0.2618
 8715SOL    HW234592   2.094   5.304   2.415 -0.1016  1.8065 -1.4772
 8715SOL    HW334593   1.966   5.311   2.334 -0.5720 -1.2497 -1.1090
 8715SOL    MW434594   2.015   5.272   2.395 -0.2730 -0.5787  0.1962
 8716SOL     OW34595   6.292   4.847   2.937 -0.1250 -0.7151 -0.2263
 8716SOL    HW234596   6.234   4.777   2.967 -0.9925 -0.2685 -0.8271
 8716SOL    HW334597   6.354   4.803   2.879  0.8014 -1.3703  1.2101
 8716SOL    MW434598   6.293   4.832   2.933 -0.0380  0.5578  0.6462
 8717SOL     OW34599   0.696   2.421   4.768 -0.1230  0.6126  0.6592
 8717SOL    HW234600   0.687   2.515   4.754  0.1147  0.4902 -0.4228
 8717SOL    HW334601   0.628   2.382   4.712  0.6086  0.0990  0.1081
 8717SOL    MW434602   0.686   2.428   4.759  0.0115 -0.0616 -0.5184
 8718SOL     OW34603   1.391   5.403   0.330  0.3465  0.1041  0.2935
 8718SOL    HW234604   1.453   5.349   0.379 -0.9061 -2.6040 -0.8948
 8718SOL    HW334605   1.412   5.387   0.238 -0.7960  0.7411 -0.1035
 8718SOL    MW434606   1.402   5.394   0.325 -0.6929 -0.2965 -0.0508
 8719SOL     OW34607   2.721   3.004   3.482  0.0824 -0.2024 -0.4434
 8719SOL    HW234608   2.811   3.023   3.508 -0.1636  0.8731 -0.3310
 8719SOL    HW334609   2.705   2.915   3.513  0.4610  0.3014  1.3292
 8719SOL    MW434610   2.731   2.995   3.490 -0.1917  0.5504  0.2988
 8720SOL     OW34611   1.584   4.160   0.398  0.0281  0.7490 -0.1029
 8720SOL    HW234612   1.664   4.184   0.351  0.5036  1.2455  0.9443
 8720SOL    HW334613   1.593   4.066   0.412 -1.0754  0.1440 -2.7573
 8720SOL    MW434614   1.596   4.151   0.393 -0.5997  0.0195 -0.3206
 8721SOL     OW34615   0.059   3.199   4.949  0.0931  0.2746  0.3012
 8721SOL    HW234616  -0.006   3.231   5.012 -0.5990  2.6182 -1.4576
 8721SOL    HW334617   0.143   3.231   4.983 -0.2397  1.2813  0.2150
 8721SOL    MW434618   0.061   3.208   4.962  0.1727  0.1256  0.4220
 8722SOL     OW34619   1.224   5.246   3.805 -0.7847  0.2092 -0.0983
 8722SOL    HW234620   1.164   5.249   3.730  0.5896 -0.4156 -1.2680
 8722SOL    HW334621   1.276   5.167   3.791 -0.9964 -0.3505  1.9485
 8722SOL    MW434622   1.223   5.236   3.793  0.3896 -0.5193 -0.2202
 8723SOL     OW34623   3.351   0.191   6.324  0.4539 -0.0570  0.4953
 8723SOL    HW234624   3.344   0.229   6.411 -0.5914  0.5610  0.1552
 8723SOL    HW334625   3.271   0.139   6.313  0.7320 -0.3998  0.0328
 8723SOL    MW434626   3.340   0.189   6.334 -0.5775  0.1047  0.0910
 8724SOL     OW34627   2.980   0.189   4.093 -0.4426 -0.1415  0.4054
 8724SOL    HW234628   2.927   0.111   4.072 -0.6299 -0.3522  1.5843
 8724SOL    HW334629   2.915   0.258   4.108 -0.4987 -0.6301  2.8016
 8724SOL    MW434630   2.964   0.188   4.092 -0.0498  0.1179 -0.4536
 8725SOL     OW34631   0.972   4.482   1.437 -0.6854 -0.1502 -0.3909
 8725SOL    HW234632   0.993   4.563   1.392 -1.6759  1.8207  2.4158
 8725SOL    HW334633   1.057   4.441   1.454 -0.2186 -0.1378 -2.4628
 8725SOL    MW434634   0.986   4.487   1.434  0.4089  0.0030  0.0650
 8726SOL     OW34635   3.623   3.434   1.128 -0.2213 -0.5992  0.4148
 8726SOL    HW234636   3.598   3.387   1.049 -0.7143 -0.0717  0.2429
 8726SOL    HW334637   3.698   3.487   1.102 -0.0757 -0.7943  0.4346
 8726SOL    MW434638   3.629   3.435   1.114 -0.0042  0.2178  0.3564
 8727SOL     OW34639   3.461   0.448   5.575  0.3627 -0.1429  0.0422
 8727SOL    HW234640   3.381   0.447   5.521 -0.4946 -1.5886  1.2636
 8727SOL    HW334641   3.449   0.376   5.637  2.8053 -0.6574  0.0153
 8727SOL    MW434642   3.448   0.438   5.576 -0.3154  0.5120  0.1220
 8728SOL     OW34643   3.580   2.864   0.916  0.1225  0.2256 -0.6546
 8728SOL    HW234644   3.586   2.769   0.918 -1.0398  0.1175 -1.3877
 8728SOL    HW334645   3.619   2.893   0.999 -1.3067 -0.9933  0.4927
 8728SOL    MW434646   3.586   2.855   0.927 -0.7329 -0.7012  0.5496
 8729SOL     OW34647   0.416   0.798   1.322 -0.1227 -0.2185  0.2823
 8729SOL    HW234648   0.406   0.816   1.415 -0.7238 -0.8664  0.3438
 8729SOL    HW334649   0.412   0.703   1.314  0.1264 -0.1821 -0.3812
 8729SOL    MW434650   0.414   0.788   1.333 -0.1521 -0.3350 -0.1472
 8730SOL     OW34651   2.528   4.097   6.018 -0.0693  1.0302  0.0429
 8730SOL    HW234652   2.604   4.040   6.011 -0.3599  0.3448  1.9448
 8730SOL    HW334653   2.563   4.180   6.050 -0.0828  0.7176  0.9093
 8730SOL    MW434654   2.543   4.101   6.021  0.0580 -0.1618  0.4227
 8731SOL     OW34655   0.318   3.736   5.655  0.1029 -0.5732  0.1871
 8731SOL    HW234656   0.233   3.740   5.697  0.3253 -0.2323  0.6195
 8731SOL    HW334657   0.315   3.805   5.588  0.2347 -0.1785  0.5833
 8731SOL    MW434658   0.307   3.746   5.652 -0.6656 -0.0038  0.1962
 8732SOL     OW34659   1.023   3.783   0.673 -0.2745  0.2817 -0.2530
 8732SOL    HW234660   1.025   3.690   0.695  0.1741  0.4393  0.4152
 8732SOL    HW334661   1.010   3.785   0.578 -2.9851 -0.4159  0.0054
 8732SOL    MW434662   1.022   3.771   0.663 -0.2543  0.1969 -0.1266
 8733SOL     OW34663   6.363   5.030   5.181  0.2572  0.5650  0.3396
 8733SOL    HW234664   6.455   5.010   5.197  0.0694 -0.4699  0.2323
 8733SOL    HW334665   6.334   5.074   5.261  0.2658 -1.2466  1.4089
 8733SOL    MW434666   6.371   5.033   5.194  0.0131  0.8045 -0.1099
 8734SOL     OW34667   0.200   1.893   5.137  0.3203 -0.2776  0.4731
 8734SOL    HW234668   0.271   1.912   5.199 -0.4746  0.2369  1.2574
 8734SOL    HW334669   0.172   1.805   5.161  0.4724 -0.3498  0.3866
 8734SOL    MW434670   0.206   1.884   5.149  0.1730 -0.6272  0.3948
 8735SOL     OW34671   2.453   0.176   2.523 -0.1557 -0.1763  0.5568
 8735SOL    HW234672   2.479   0.262   2.556 -1.1614  0.3225  0.0892
 8735SOL    HW334673   2.403   0.136   2.595  1.8059 -1.1504  1.4695
 8735SOL    MW434674   2.450   0.182   2.537 -0.1867 -0.2949 -0.0861
 8736SOL     OW34675   1.998   4.255   5.431  0.0626 -0.1752  0.7193
 8736SOL    HW234676   2.016   4.333   5.483  0.9930 -0.8468  1.4279
 8736SOL    HW334677   1.936   4.204   5.484  0.5930 -0.6072  0.9255
 8736SOL    MW434678   1.992   4.259   5.445 -0.0367 -0.2948  0.0365
 8737SOL     OW34679   0.768   4.485   4.358 -0.0189 -0.2186  0.4701
 8737SOL    HW234680   0.786   4.566   4.310  0.2179  0.2145  1.2695
 8737SOL    HW334681   0.842   4.476   4.418 -0.3612 -0.6889  0.8271
 8737SOL    MW434682   0.780   4.495   4.359 -0.7965  0.0222  0.4948
 8738SOL     OW34683   5.584   3.274   4.532  0.6624 -0.1478  0.9473
 8738SOL    HW234684   5.544   3.361   4.535  0.9136 -0.0102  0.4464
 8738SOL    HW334685   5.510   3.213   4.539 -0.2484  0.0067 -3.6247
 8738SOL    MW434686   5.569   3.277   4.533  0.2200  0.9109 -0.0454
 8739SOL     OW34687   2.031   1.412   5.976 -0.1301  0.3198 -0.1762
 8739SOL    HW234688   2.060   1.472   5.907  2.3955  0.4486  0.9038
 8739SOL    HW334689   2.099   1.345   5.980  0.7430  1.2156  3.2503
 8739SOL    MW434690   2.044   1.412   5.968 -0.0800  0.3618  0.0289
 8740SOL     OW34691   2.247   3.432   5.479  0.3368 -0.0380  0.5977
 8740SOL    HW234692   2.242   3.437   5.574 -0.3453  0.6452  0.5376
 8740SOL    HW334693   2.251   3.338   5.460  1.2661 -0.1614  1.3230
 8740SOL    MW434694   2.247   3.420   5.489  0.4770 -0.1606  0.3208
 8741SOL     OW34695   3.125   2.855   3.609  0.1551 -0.3179  0.3091
 8741SOL    HW234696   3.042   2.818   3.639  0.6924 -0.1772  2.0468
 8741SOL    HW334697   3.181   2.780   3.592  0.2497 -0.3730  0.8652
 8741SOL    MW434698   3.121   2.841   3.611  0.3644 -0.0843  0.0831
 8742SOL     OW34699   1.439   0.688   0.585 -0.1130  0.1818  0.0287
 8742SOL    HW234700   1.452   0.782   0.574  1.3675  0.1032  0.8254
 8742SOL    HW334701   1.367   0.680   0.647  0.7682  0.8478  1.1720
 8742SOL    MW434702   1.431   0.699   0.592  0.5697  0.6904 -0.2476
 8743SOL     OW34703   6.032   2.948   1.155 -0.7590 -0.0310 -0.1820
 8743SOL    HW234704   5.951   2.993   1.130 -0.6397 -0.2000 -0.8892
 8743SOL    HW334705   6.032   2.951   1.250 -1.1417  0.7738 -0.1990
 8743SOL    MW434706   6.021   2.954   1.164  0.2648  0.4093  0.3064
 8744SOL     OW34707   0.552   5.425   2.738  0.2744 -0.4196  0.3070
 8744SOL    HW234708   0.635   5.457   2.771  0.2698  0.6818 -0.6968
 8744SOL    HW334709   0.505   5.395   2.816  0.6695  1.1280  1.1653
 8744SOL    MW434710   0.557   5.425   2.752 -0.2810 -0.3129  0.5420
 8745SOL     OW34711   0.935   4.284   6.033 -0.2996  0.0274 -0.5340
 8745SOL    HW234712   1.026   4.265   6.055 -0.7138  0.5508  1.9049
 8745SOL    HW334713   0.903   4.204   5.991  0.9247 -0.6703 -0.1865
 8745SOL    MW434714   0.943   4.271   6.031 -0.5533 -0.4864  0.4894
 8746SOL     OW34715   4.618   3.215   2.268  0.4603  0.0741  0.5515
 8746SOL    HW234716   4.526   3.235   2.287  0.1521 -0.7651 -0.0193
 8746SOL    HW334717   4.641   3.145   2.328  0.8448  0.5153  0.9329
 8746SOL    MW434718   4.609   3.209   2.279 -0.4984 -0.0511  0.2240
 8747SOL     OW34719   3.246   3.852   1.066  0.1281  0.3912 -0.0028
 8747SOL    HW234720   3.315   3.916   1.086  0.7962 -0.4294  0.3861
 8747SOL    HW334721   3.206   3.884   0.985  0.5394  1.2236  0.1139
 8747SOL    MW434722   3.250   3.865   1.058  0.2449  0.0672 -0.2123
 8748SOL     OW34723   4.656   1.669   3.994 -0.2784 -0.4137  0.4907
 8748SOL    HW234724   4.568   1.651   3.962 -0.4347  0.8490  0.1633
 8748SOL    HW334725   4.713   1.643   3.922 -0.5015  0.4260 -0.0031
 8748SOL    MW434726   4.652   1.663   3.980 -0.6676 -0.5626  0.2202
 8749SOL     OW34727   2.609   4.176   2.983 -0.3113 -0.5132 -0.2865
 8749SOL    HW234728   2.675   4.183   2.914  0.7045  3.1720  0.8180
 8749SOL    HW334729   2.535   4.228   2.951 -0.8653 -0.8870  0.3569
 8749SOL    MW434730   2.608   4.184   2.970  0.2336  0.4823 -0.3999
 8750SOL     OW34731   4.037   0.134   2.902  0.3821  0.8698  0.3948
 8750SOL    HW234732   3.996   0.208   2.947  1.4371 -0.2104  3.3455
 8750SOL    HW334733   4.124   0.129   2.940  0.5997 -1.4274 -0.2889
 8750SOL    MW434734   4.043   0.143   2.913  0.3102 -0.6578 -0.2788
 8751SOL     OW34735   1.968   1.079   4.322 -0.2441 -0.0129 -0.4501
 8751SOL    HW234736   1.920   1.161   4.323 -1.7223 -0.8380  0.7136
 8751SOL    HW334737   1.911   1.017   4.368  0.5534 -1.8371 -1.7784
 8751SOL    MW434738   1.955   1.081   4.328 -0.5074 -0.5816 -0.1455
 8752SOL     OW34739   5.720   6.257   1.154  0.2009 -0.3185  0.5433
 8752SOL    HW234740   5.693   6.177   1.109  0.5926 -0.7223  1.0198
 8752SOL    HW334741   5.673   6.254   1.237 -2.0780  1.4008 -0.5867
 8752SOL    MW434742   5.710   6.246   1.159  0.3582 -0.1553 -0.1719
 8753SOL     OW34743   5.647   6.056   1.803 -0.0780  0.1888  0.0546
 8753SOL    HW234744   5.561   6.090   1.828 -0.5066 -1.1300  0.4937
 8753SOL    HW334745   5.632   5.962   1.790  0.7643  0.2934 -2.2983
 8753SOL    MW434746   5.634   6.048   1.804  0.1693  0.0950  0.5903
 8754SOL     OW34747   2.665   6.259   4.498  0.0855  0.2167  0.1290
 8754SOL    HW234748   2.727   6.225   4.433  0.9465 -0.3451  1.1790
 8754SOL    HW334749   2.713   6.251   4.581 -1.4208 -0.2847  0.9892
 8754SOL    MW434750   2.680   6.253   4.501  0.0908  0.1055  0.5295
 8755SOL     OW34751   0.330   2.020   5.363 -0.6698  0.5996 -0.7452
 8755SOL    HW234752   0.279   2.025   5.444  1.0935 -0.2448  0.4897
 8755SOL    HW334753   0.353   2.111   5.344 -2.9416  1.0646 -1.6131
 8755SOL    MW434754   0.326   2.033   5.371  0.3043  0.1451 -0.0120
 8756SOL     OW34755   4.274   1.397   3.362 -0.3086  0.7617 -0.3567
 8756SOL    HW234756   4.271   1.340   3.440 -0.9724  1.0367 -0.1745
 8756SOL    HW334757   4.249   1.339   3.290  1.7364  0.1265 -0.6205
 8756SOL    MW434758   4.270   1.382   3.363 -0.7171  0.3707  0.0641
 8757SOL     OW34759   0.603   5.405   4.975  0.6035  0.3743 -0.8533
 8757SOL    HW234760   0.695   5.431   4.977  0.9881 -0.7266 -2.2055
 8757SOL    HW334761   0.601   5.328   4.917 -0.4334 -2.5896  2.7176
 8757SOL    MW434762   0.615   5.398   4.968  0.1996  0.1529  0.1933
 8758SOL     OW34763   4.827   1.582   5.741 -0.1620 -0.2711 -0.5271
 8758SOL    HW234764   4.800   1.491   5.728 -0.6046 -0.4917  1.5257
 8758SOL    HW334765   4.780   1.610   5.820  0.8303  1.3773 -0.4636
 8758SOL    MW434766   4.817   1.574   5.750 -0.2113  0.2218  0.1282
 8759SOL     OW34767   5.456   3.297   2.849  0.3144 -0.1068  0.6156
 8759SOL    HW234768   5.541   3.339   2.864  0.7515 -0.1775 -1.3958
 8759SOL    HW334769   5.401   3.365   2.811 -0.5877 -0.0439  1.9633
 8759SOL    MW434770   5.460   3.311   2.846 -0.5560  0.1368  0.4564
 8760SOL     OW34771   0.490   3.499   5.121 -0.1416  0.2456 -0.9203
 8760SOL    HW234772   0.520   3.487   5.211 -0.4451  0.4973 -0.7841
 8760SOL    HW334773   0.569   3.518   5.071 -0.0560  0.7814 -0.5869
 8760SOL    MW434774   0.504   3.500   5.126 -0.0462  0.1164 -0.1738
 8761SOL     OW34775   5.820   6.251   4.424 -0.1641  0.5640 -0.5360
 8761SOL    HW234776   5.812   6.307   4.501  0.3696 -0.9499  0.6872
 8761SOL    HW334777   5.745   6.273   4.370 -0.7804  1.3854  0.6116
 8761SOL    MW434778   5.809   6.261   4.427 -0.3527 -0.2634  0.1625
 8762SOL     OW34779   2.133   3.832   1.973  0.0419  0.2712 -0.0214
 8762SOL    HW234780   2.170   3.920   1.986  1.0043 -0.1584  0.1851
 8762SOL    HW334781   2.170   3.780   2.044 -0.8178 -0.2265  0.0736
 8762SOL    MW434782   2.143   3.837   1.984  0.6862  0.4173  0.0884
 8763SOL     OW34783   4.453   2.643   1.407 -0.0284 -0.1719  0.9349
 8763SOL    HW234784   4.517   2.689   1.353  0.8311 -1.9091  0.3922
 8763SOL    HW334785   4.369   2.685   1.386  0.5887  0.5294 -0.2133
 8763SOL    MW434786   4.450   2.655   1.397 -0.5248 -0.6011  0.0666
 8764SOL     OW34787   2.590   2.960   5.803 -0.1183  0.2355 -0.0521
 8764SOL    HW234788   2.643   2.920   5.734 -0.6582 -0.4178 -0.0997
 8764SOL    HW334789   2.529   2.890   5.830 -0.6635  0.8366  0.2978
 8764SOL    MW434790   2.589   2.945   5.797  0.0300  0.3844  0.1951
 8765SOL     OW34791   3.362   5.510   2.175  0.5754 -0.9106  0.0085
 8765SOL    HW234792   3.433   5.455   2.207  0.4493 -1.3027 -0.3808
 8765SOL    HW334793   3.401   5.561   2.104  0.1850 -1.9807 -1.0092
 8765SOL    MW434794   3.376   5.509   2.170 -0.5049  0.0499  0.2657
 8766SOL     OW34795   6.430   0.598   3.870  0.1318  0.2808  0.1555
 8766SOL    HW234796   6.471   0.615   3.786 -0.7286 -0.3188 -0.4072
 8766SOL    HW334797   6.427   0.502   3.876  0.5745  0.3171  1.0673
 8766SOL    MW434798   6.435   0.587   3.860 -1.0132 -0.7070 -0.4057
 8767SOL     OW34799   3.415   3.253   3.886  0.0343  0.4822  0.2797
 8767SOL    HW234800   3.341   3.215   3.838 -0.0335  1.8843 -0.7997
 8767SOL    HW334801   3.492   3.224   3.837  0.1280  0.0407  0.6809
 8767SOL    MW434802   3.415   3.244   3.873  0.1254 -0.8479 -0.0780
 8768SOL     OW34803   4.451   0.886   5.914  0.5397  0.8558 -0.3069
 8768SOL    HW234804   4.390   0.920   5.848 -0.6860 -0.4530  0.0957
 8768SOL    HW334805   4.467   0.796   5.887  0.4319  0.4667  0.8918
 8768SOL    MW434806   4.445   0.879   5.901 -0.1843  0.1661  0.1926
 8769SOL     OW34807   5.080   4.804   4.757  0.8696 -0.2825  0.7328
 8769SOL    HW234808   5.159   4.832   4.803  0.7517 -0.5690  1.1082
 8769SOL    HW334809   5.106   4.803   4.665  1.6465 -1.4922  0.9522
 8769SOL    MW434810   5.094   4.808   4.751  0.1075  0.4490 -0.4393
 8770SOL     OW34811   4.958   5.755   0.446 -0.3249  0.0127 -0.4873
 8770SOL    HW234812   4.902   5.689   0.405  0.3835 -1.3499  0.6274
 8770SOL    HW334813   5.034   5.706   0.477 -0.5113  1.0485  1.8259
 8770SOL    MW434814   4.961   5.740   0.445  0.1372 -0.1153 -0.2560
 8771SOL     OW34815   6.329   0.806   2.487 -0.2075 -0.4243 -0.3615
 8771SOL    HW234816   6.257   0.805   2.424 -1.6592 -1.6647  1.2269
 8771SOL    HW334817   6.310   0.734   2.547  1.3276  0.4393  1.2588
 8771SOL    MW434818   6.317   0.797   2.487 -0.4245 -0.3810  0.2899
 8772SOL     OW34819   5.407   1.089   1.068 -0.0230 -0.0069 -0.5580
 8772SOL    HW234820   5.421   1.151   0.997  2.6381  0.8342  0.5762
 8772SOL    HW334821   5.318   1.056   1.054 -0.5598  2.0846 -2.6966
 8772SOL    MW434822   5.397   1.093   1.057 -0.5645 -0.0392 -0.8096
 8773SOL     OW34823   0.380   1.356   3.923 -0.4657  0.9123  0.3895
 8773SOL    HW234824   0.458   1.379   3.974 -1.4807  1.3424  1.8128
 8773SOL    HW334825   0.395   1.265   3.897 -0.2584  0.3902  2.1934
 8773SOL    MW434826   0.392   1.347   3.927 -0.0540 -0.8783  0.2440
 8774SOL     OW34827   0.678   6.106   5.487 -0.7291  0.4592  0.1128
 8774SOL    HW234828   0.644   6.060   5.564 -0.7187  1.7011  0.8884
 8774SOL    HW334829   0.603   6.151   5.451 -0.9894 -1.0247 -1.3299
 8774SOL    MW434830   0.664   6.106   5.493  0.0913 -0.4242 -0.0295
 8775SOL     OW34831   4.127   3.759   6.144 -0.2340  0.4356  0.0590
 8775SOL    HW234832   4.106   3.675   6.103  0.9499 -0.0363  0.3814
 8775SOL    HW334833   4.124   3.742   6.238  2.7305 -0.0447  0.1766
 8775SOL    MW434834   4.124   3.745   6.151  0.0234 -0.0297 -0.1908
 8776SOL     OW34835   5.368   2.786   2.396  0.1167  0.1562  0.1165
 8776SOL    HW234836   5.422   2.865   2.387 -1.4347  1.1668 -0.7982
 8776SOL    HW334837   5.375   2.763   2.489  1.6139  0.5995  0.1385
 8776SOL    MW434838   5.376   2.794   2.407 -0.1799  0.1630 -0.4355
 8777SOL     OW34839   1.666   1.728   1.161  0.1596 -0.2878 -0.2303
 8777SOL    HW234840   1.702   1.640   1.172  1.8093  0.3868 -0.0658
 8777SOL    HW334841   1.625   1.748   1.246 -3.5300 -2.2380 -1.3025
 8777SOL    MW434842   1.665   1.719   1.174 -0.8758  0.6492 -0.2680
 8778SOL     OW34843   5.763   3.508   6.350  0.3513  0.2985 -0.0253
 8778SOL    HW234844   5.739   3.456   6.274 -0.4278  0.1935  0.2781
 8778SOL    HW334845   5.854   3.486   6.367  0.2741 -0.3259 -0.4072
 8778SOL    MW434846   5.772   3.498   6.342  0.0209 -0.4415  0.0795
 8779SOL     OW34847   3.540   5.114   5.420  0.0142  0.3176 -0.1816
 8779SOL    HW234848   3.584   5.030   5.411  0.2089  0.4149 -0.1368
 8779SOL    HW334849   3.572   5.149   5.504 -0.7475  0.0299  0.2394
 8779SOL    MW434850   3.550   5.108   5.430  0.4002 -0.2788  0.4084
 8780SOL     OW34851   0.145   3.842   2.049  0.3991  0.4978 -0.0595
 8780SOL    HW234852   0.237   3.828   2.027  0.7084  1.4432  0.5570
 8780SOL    HW334853   0.118   3.760   2.091  0.8525  0.0864 -0.5546
 8780SOL    MW434854   0.154   3.829   2.052  0.5379 -0.4777 -0.7599
 8781SOL     OW34855   2.323   1.735   5.549 -0.1304 -0.1927  0.8348
 8781SOL    HW234856   2.399   1.680   5.530 -1.1209 -1.3676  0.0462
 8781SOL    HW334857   2.335   1.812   5.495  0.2355 -0.6194  0.2925
 8781SOL    MW434858   2.335   1.738   5.539  0.4891 -0.3090 -0.3726
 8782SOL     OW34859   3.904   4.601   5.686  0.0166 -0.0626  0.9652
 8782SOL    HW234860   3.877   4.562   5.769  1.4089 -0.0427  1.4487
 8782SOL    HW334861   3.879   4.536   5.620 -1.9782  0.3329  1.2606
 8782SOL    MW434862   3.897   4.587   5.688 -0.3012 -0.2299 -0.1621
 8783SOL     OW34863   3.118   3.145   1.636 -0.1685  0.1960 -0.3311
 8783SOL    HW234864   3.184   3.101   1.691 -0.2737 -1.2672 -1.3308
 8783SOL    HW334865   3.102   3.084   1.564 -0.0452  2.0433 -2.0189
 8783SOL    MW434866   3.125   3.132   1.634 -0.5599  0.1088  0.2706
 8784SOL     OW34867   4.206   5.336   5.583 -0.2210  0.0302 -0.9029
 8784SOL    HW234868   4.122   5.383   5.585 -0.2367 -0.0091 -0.6111
 8784SOL    HW334869   4.182   5.244   5.591  0.0085  0.1525  3.8009
 8784SOL    MW434870   4.192   5.330   5.584 -0.0292 -0.8818  0.2692
 8785SOL     OW34871   2.013   2.334   1.980 -0.3187  0.0016  0.6855
 8785SOL    HW234872   1.983   2.424   1.991  0.3635  0.2836  0.2596
 8785SOL    HW334873   2.022   2.323   1.885  1.9289  0.2678  0.8210
 8785SOL    MW434874   2.010   2.344   1.969 -0.6432  0.0575 -0.7381
 8786SOL     OW34875   6.129   6.234   2.725 -0.1539  0.1957  0.0584
 8786SOL    HW234876   6.218   6.260   2.699 -0.7613  0.2946 -2.1446
 8786SOL    HW334877   6.078   6.314   2.716 -0.8009 -0.2725 -0.5222
 8786SOL    MW434878   6.134   6.248   2.720 -0.3463 -0.0447  0.4837
 8787SOL     OW34879   2.057   0.615   2.994 -0.8624 -0.1467 -0.1814
 8787SOL    HW234880   2.075   0.670   2.918  0.5425  0.9321  0.8656
 8787SOL    HW334881   2.138   0.619   3.045 -1.4145 -1.6654  0.8658
 8787SOL    MW434882   2.070   0.623   2.991 -0.0401  0.1456 -0.1448
 8788SOL     OW34883   0.212   0.536   4.793  0.5666  0.7855 -0.1923
 8788SOL    HW234884   0.301   0.566   4.813  0.6726  0.4742 -0.2062
 8788SOL    HW334885   0.193   0.471   4.861  0.4559  0.6427 -0.3602
 8788SOL    MW434886   0.222   0.532   4.805 -0.4467 -0.1006  0.0751
 8789SOL     OW34887   3.802   2.101   4.077 -0.1644 -0.4553  0.1679
 8789SOL    HW234888   3.802   2.132   4.168 -0.2866  0.3928 -0.1106
 8789SOL    HW334889   3.820   2.007   4.084 -0.0052 -0.3731  1.0566
 8789SOL    MW434890   3.804   2.093   4.090  0.2481  0.5565  0.5217
 8790SOL     OW34891   4.888   5.450   4.950 -0.3724 -0.0361  0.3839
 8790SOL    HW234892   4.861   5.445   5.042  1.7923 -0.7949  1.0339
 8790SOL    HW334893   4.855   5.370   4.911  0.3074 -0.6460  1.0097
 8790SOL    MW434894   4.880   5.439   4.957 -0.1759 -0.7091  0.2121
 8791SOL     OW34895   4.445   2.642   3.480 -0.0425 -0.3086 -0.2973
 8791SOL    HW234896   4.356   2.651   3.444 -1.2923  3.2712  3.0344
 8791SOL    HW334897   4.438   2.567   3.540 -0.5907 -0.4618 -0.5422
 8791SOL    MW434898   4.432   2.633   3.483  0.1724  0.3925 -0.0688
 8792SOL     OW34899   2.678   4.044   4.973 -0.1310  0.2859  0.5761
 8792SOL    HW234900   2.716   3.956   4.970 -1.5830 -0.3458 -0.6369
 8792SOL    HW334901   2.726   4.093   4.906 -0.5209 -0.1369 -0.0345
 8792SOL    MW434902   2.689   4.038   4.963  0.2342  0.3151  0.3024
 8793SOL     OW34903   3.337   5.385   2.909  0.5455 -0.4272 -0.3864
 8793SOL    HW234904   3.347   5.304   2.859  0.8086 -0.6742  0.0535
 8793SOL    HW334905   3.300   5.448   2.847  1.6469 -0.4780 -1.1282
 8793SOL    MW434906   3.334   5.383   2.894 -0.3833  0.4366  0.1635
 8794SOL     OW34907   0.061   6.223   6.257 -0.1469 -0.4856  0.2221
 8794SOL    HW234908   0.089   6.224   6.348 -1.6547 -2.6378  0.7844
 8794SOL    HW334909  -0.034   6.232   6.261 -0.1886  0.0408 -1.2123
 8794SOL    MW434910   0.052   6.225   6.269 -0.3495 -0.9412  0.4450
 8795SOL     OW34911   2.921   1.527   3.406 -0.2111  0.4695 -0.5682
 8795SOL    HW234912   2.861   1.467   3.452 -0.4219  0.0622 -1.3556
 8795SOL    HW334913   3.004   1.480   3.403 -0.1512  0.5682 -0.4514
 8795SOL    MW434914   2.924   1.512   3.412  0.0404 -0.1717  0.1555
 8796SOL     OW34915   2.696   2.280   4.921  0.2205 -0.2028  0.3259
 8796SOL    HW234916   2.748   2.253   4.845  1.6895 -2.1121  1.9110
 8796SOL    HW334917   2.638   2.207   4.937  1.1360 -0.5987  2.0346
 8796SOL    MW434918   2.695   2.267   4.913  0.2686  0.3450 -0.8723
 8797SOL     OW34919   6.323   5.168   5.412  0.3478  0.9656 -0.2959
 8797SOL    HW234920   6.348   5.112   5.485  0.9635 -0.5542 -1.5969
 8797SOL    HW334921   6.278   5.242   5.452  0.0798 -0.1397  1.5537
 8797SOL    MW434922   6.320   5.171   5.427  0.1027  0.4530  0.4921
 8798SOL     OW34923   4.407   2.746   5.182  0.7303  0.1155  0.2649
 8798SOL    HW234924   4.456   2.805   5.240 -0.7557  0.8572  0.8070
 8798SOL    HW334925   4.363   2.685   5.241 -0.1668  0.3829 -0.1151
 8798SOL    MW434926   4.408   2.746   5.198 -0.1796  0.0334 -0.1834
 8799SOL     OW34927   0.855   5.937   5.359 -0.1345 -0.7069  0.2330
 8799SOL    HW234928   0.929   5.905   5.411  0.3466 -0.0400 -0.0281
 8799SOL    HW334929   0.795   5.975   5.423  0.9829  1.1666  0.2524
 8799SOL    MW434930   0.857   5.938   5.374 -0.1860  0.3273 -0.5233
 8800SOL     OW34931   1.689   1.859   2.084 -0.1143 -0.1223 -0.0969
 8800SOL    HW234932   1.614   1.855   2.144 -1.8728 -0.0245 -2.1594
 8800SOL    HW334933   1.681   1.944   2.041  0.3516 -0.6700 -1.3255
 8800SOL    MW434934   1.678   1.870   2.086  0.1794 -0.3570 -0.2791
 8801SOL     OW34935   2.196   0.261   1.136  0.0883 -0.0410  0.2520
 8801SOL    HW234936   2.113   0.303   1.156  0.2968  0.8835 -0.7073
 8801SOL    HW334937   2.203   0.266   1.041  1.2490 -0.0767  0.3192
 8801SOL    MW434938   2.186   0.268   1.126 -0.0322 -0.4401  0.0528
 8802SOL     OW34939   0.685   5.874   1.426 -0.1453 -0.0155 -0.3971
 8802SOL    HW234940   0.685   5.870   1.330  0.3078  1.3570 -0.4842
 8802SOL    HW334941   0.682   5.783   1.454  2.6090 -0.6247 -1.7472
 8802SOL    MW434942   0.685   5.862   1.417  0.1233 -0.2377  0.2621
 8803SOL     OW34943   1.022   2.470   1.442  0.3827 -0.0175  0.1277
 8803SOL    HW234944   0.958   2.460   1.372  1.4770 -0.4334 -0.8581
 8803SOL    HW334945   0.975   2.514   1.513 -1.2449 -1.1672 -0.1860
 8803SOL    MW434946   1.008   2.474   1.442 -0.0576 -0.1336  0.8691
 8804SOL     OW34947   2.869   4.421   0.485  0.2847 -0.2175  0.4637
 8804SOL    HW234948   2.872   4.412   0.390  0.1086  0.5962  0.3697
 8804SOL    HW334949   2.823   4.342   0.516 -1.9661  0.6864 -0.3490
 8804SOL    MW434950   2.863   4.409   0.477 -0.1618  0.0150  0.4566
 8805SOL     OW34951   2.007   0.245   5.320 -0.0635  0.0684 -0.6709
 8805SOL    HW234952   1.980   0.332   5.290  0.4478  0.2564 -0.5947
 8805SOL    HW334953   2.057   0.210   5.247  1.5161  0.6810  0.0826
 8805SOL    MW434954   2.010   0.252   5.307  0.2295 -0.0465  0.2629
 8806SOL     OW34955   3.923   3.492   1.807 -0.3227  0.3283 -0.0355
 8806SOL    HW234956   3.834   3.526   1.809 -0.2249  0.5802  0.1192
 8806SOL    HW334957   3.936   3.466   1.716 -0.1546  1.3869 -0.3382
 8806SOL    MW434958   3.913   3.493   1.795  0.2968  0.2059 -0.0199
 8807SOL     OW34959   0.586   2.004   4.703  0.4728  0.5756 -0.1142
 8807SOL    HW234960   0.510   1.980   4.650  0.3508 -1.1413  0.7697
 8807SOL    HW334961   0.656   2.020   4.639  0.1676 -0.8510 -0.8492
 8807SOL    MW434962   0.586   2.003   4.687  0.3431 -0.6668  0.5404
 8808SOL     OW34963   4.480   2.565   0.063  0.0655  0.0494  0.1934
 8808SOL    HW234964   4.479   2.470   0.073 -0.5238  0.1113  0.7327
 8808SOL    HW334965   4.511   2.598   0.147  0.3280  0.3350 -0.0140
 8808SOL    MW434966   4.484   2.557   0.075  0.5950  0.3101  0.4278
 8809SOL     OW34967   2.179   3.222   2.270 -0.4532  0.3172 -0.4778
 8809SOL    HW234968   2.104   3.178   2.231  0.3592 -1.1954 -0.4061
 8809SOL    HW334969   2.247   3.155   2.273  1.0956  1.8014 -1.0600
 8809SOL    MW434970   2.178   3.207   2.265  0.0021  0.0601  0.1560
 8810SOL     OW34971   4.262   2.540   5.317  0.0891 -1.0415  0.3465
 8810SOL    HW234972   4.292   2.563   5.405  0.3935 -0.1098  0.0076
 8810SOL    HW334973   4.169   2.563   5.317  0.6263  1.3451 -0.3404
 8810SOL    MW434974   4.253   2.546   5.329  0.0082  0.1705  0.2185
 8811SOL     OW34975   3.894   0.358   3.017 -0.0018 -0.3065  0.0052
 8811SOL    HW234976   3.961   0.408   2.970 -0.3135 -0.7888 -0.9953
 8811SOL    HW334977   3.835   0.327   2.948 -1.3100  0.1773  0.8636
 8811SOL    MW434978   3.895   0.361   3.002 -0.0736  0.2276 -0.4886
 8812SOL     OW34979   4.398   1.605   0.503  0.1090  0.6859 -0.3105
 8812SOL    HW234980   4.427   1.652   0.425 -0.3308  1.1836 -0.1750
 8812SOL    HW334981   4.419   1.663   0.576 -0.4692  0.6912 -0.1462
 8812SOL    MW434982   4.405   1.619   0.502 -0.0247  0.7597  0.0017
 8813SOL     OW34983   4.880   0.409   3.117  0.6770 -0.5897 -0.8145
 8813SOL    HW234984   4.841   0.374   3.197 -1.9037  1.2365 -1.1677
 8813SOL    HW334985   4.916   0.494   3.143 -0.5537  0.2139 -1.6024
 8813SOL    MW434986   4.880   0.416   3.131  0.3566  0.4010 -0.0738
 8814SOL     OW34987   1.264   1.873   2.507  0.8587  0.1779 -0.6814
 8814SOL    HW234988   1.306   1.876   2.593  1.1188  1.3167 -0.8388
 8814SOL    HW334989   1.211   1.952   2.503  1.0959  0.3010 -1.6876
 8814SOL    MW434990   1.263   1.884   2.518  0.1941  0.4369  0.4233
 8815SOL     OW34991   4.822   4.400   3.044 -0.0788 -0.2550 -0.1492
 8815SOL    HW234992   4.860   4.312   3.042  0.2437 -0.1121 -1.9874
 8815SOL    HW334993   4.815   4.425   2.952  1.5578  2.3672  0.3261
 8815SOL    MW434994   4.826   4.392   3.032  0.0433 -0.1703 -0.4861
 8816SOL     OW34995   0.409   1.005   0.915 -0.3912 -0.3629 -0.4762
 8816SOL    HW234996   0.461   1.001   0.834  2.1241 -0.5922  1.0454
 8816SOL    HW334997   0.474   1.006   0.985 -2.4924 -2.3776  1.6717
 8816SOL    MW434998   0.424   1.005   0.914 -0.4682 -0.5763 -0.3931
 8817SOL     OW34999   0.991   2.241   2.334  0.5306  0.0845 -0.1554
 8817SOL    HW235000   0.929   2.246   2.261  0.8193 -0.1146 -0.4149
 8817SOL    HW335001   1.003   2.332   2.361 -1.1551  0.0182  0.9903
 8817SOL    MW435002   0.984   2.254   2.328  0.6659 -0.8565  0.6266
 8818SOL     OW35003   4.434   4.310   2.167 -0.2914  0.1164  0.4081
 8818SOL    HW235004   4.372   4.245   2.198 -0.5250 -0.9454 -2.0813
 8818SOL    HW335005   4.520   4.267   2.175 -0.4140 -0.4414 -0.9009
 8818SOL    MW435006   4.437   4.296   2.172  0.0113 -0.3776 -0.1440
 8819SOL     OW35007   2.033   0.243   1.573 -0.3402  0.1633 -0.4662
 8819SOL    HW235008   1.952   0.235   1.624  0.1109  0.3594  0.2893
 8819SOL    HW335009   2.037   0.163   1.521  0.9786 -1.7746  2.4060
 8819SOL    MW435010   2.022   0.232   1.573 -0.2578  0.0129  0.2237
 8820SOL     OW35011   4.675   2.815   1.315 -0.0295  0.0499 -0.1320
 8820SOL    HW235012   4.706   2.751   1.379  1.9233  0.3092 -0.7641
 8820SOL    HW335013   4.641   2.888   1.368  2.7398  0.8369  0.6970
 8820SOL    MW435014   4.674   2.817   1.330  0.2376  0.1175 -0.1174
 8821SOL     OW35015   1.711   3.788   1.781  0.1767 -0.2246 -0.0673
 8821SOL    HW235016   1.770   3.810   1.709  0.3516 -0.0120  0.1416
 8821SOL    HW335017   1.766   3.787   1.859 -0.2056  0.6155  0.2256
 8821SOL    MW435018   1.726   3.791   1.782 -0.4075 -0.1485  0.1035
 8822SOL     OW35019   6.283   3.987   4.965  0.1940  0.4894 -0.2387
 8822SOL    HW235020   6.301   3.999   5.058  0.2024 -1.4520  0.0402
 8822SOL    HW335021   6.369   3.998   4.923  0.6308 -0.8600  0.2490
 8822SOL    MW435022   6.297   3.990   4.972  0.6836 -0.0748 -0.9043
 8823SOL     OW35023   1.643   3.242   1.865  0.3591 -0.3865 -0.1613
 8823SOL    HW235024   1.553   3.277   1.863  0.9256  1.4356  1.9683
 8823SOL    HW335025   1.644   3.175   1.797 -2.1465  0.6829 -1.4055
 8823SOL    MW435026   1.631   3.238   1.855  0.3506 -0.3156 -0.5240
 8824SOL     OW35027   6.339   5.543   0.763 -0.4476 -0.0745 -0.0652
 8824SOL    HW235028   6.364   5.535   0.855 -1.0355  0.0994  0.1147
 8824SOL    HW335029   6.297   5.459   0.743  0.3860 -0.4247 -0.4095
 8824SOL    MW435030   6.337   5.531   0.773 -0.0506  0.6684 -0.3123
 8825SOL     OW35031   6.204   6.234   6.354  0.7635  0.6749 -0.7606
 8825SOL    HW235032   6.165   6.311   6.313  0.0268  1.3582  1.0886
 8825SOL    HW335033   6.143   6.163   6.335 -0.2090  1.2419  0.1343
 8825SOL    MW435034   6.191   6.235   6.346  0.2462 -0.3318  0.1282
 8826SOL     OW35035   6.145   5.222   2.727 -0.0139 -0.0963 -0.4012
 8826SOL    HW235036   6.073   5.161   2.712  0.8993 -1.5170  0.7847
 8826SOL    HW335037   6.224   5.172   2.707  0.7689  0.6712  0.6298
 8826SOL    MW435038   6.146   5.207   2.722 -0.4998 -0.0693 -0.1995
 8827SOL     OW35039   2.846   5.883   5.674  0.2896 -0.5689  0.1822
 8827SOL    HW235040   2.941   5.872   5.668  0.0834 -3.8267  0.9181
 8827SOL    HW335041   2.827   5.880   5.768 -0.5254  0.7188  0.0841
 8827SOL    MW435042   2.856   5.881   5.685 -0.4794 -0.4216 -0.5801
 8828SOL     OW35043   2.630   6.160   0.633  0.0701  0.4643 -0.0118
 8828SOL    HW235044   2.537   6.137   0.639  0.5732 -1.4882  0.9662
 8828SOL    HW335045   2.676   6.080   0.658  2.0532  0.9998 -1.7148
 8828SOL    MW435046   2.624   6.146   0.637  0.6220 -0.2254 -0.0771
 8829SOL     OW35047   4.570   5.301   5.943 -0.0678  0.0376 -0.3241
 8829SOL    HW235048   4.557   5.206   5.943 -0.8002  0.1259 -1.0742
 8829SOL    HW335049   4.496   5.335   5.893 -0.7180  1.1378  1.3021
 8829SOL    MW435050   4.559   5.293   5.937 -0.3566 -0.3153 -0.5094
 8830SOL     OW35051   1.417   1.231   5.054  0.1581 -0.4208  0.2697
 8830SOL    HW235052   1.460   1.260   4.973  0.3894 -0.7148  0.2844
 8830SOL    HW335053   1.323   1.241   5.036  0.2040 -0.5716 -0.0725
 8830SOL    MW435054   1.410   1.236   5.041 -0.3355 -0.8619 -0.0945
 8831SOL     OW35055   4.847   3.065   2.725 -0.2917  0.3159  0.7822
 8831SOL    HW235056   4.809   3.117   2.654 -0.2687 -0.7985 -0.0808
 8831SOL    HW335057   4.864   2.979   2.685 -0.3421 -0.3583  2.1631
 8831SOL    MW435058   4.845   3.061   2.710  0.4101 -0.3471  0.5198
 8832SOL     OW35059   0.446   4.203   5.776  0.5423  0.1375 -0.1351
 8832SOL    HW235060   0.358   4.241   5.766  1.0523  0.6441 -4.8159
 8832SOL    HW335061   0.430   4.113   5.804 -1.3298  0.7450  0.9390
 8832SOL    MW435062   0.432   4.196   5.778  0.6877  0.0131  0.4825
 8833SOL     OW35063   3.967   0.538   3.415 -0.0580  0.0353  0.5388
 8833SOL    HW235064   4.050   0.494   3.397  0.1073 -0.0614  1.5095
 8833SOL    HW335065   3.923   0.481   3.478 -0.6245  0.3700  0.4514
 8833SOL    MW435066   3.972   0.524   3.421 -0.0009  0.0761 -0.3048
 8834SOL     OW35067   2.722   0.511   1.445 -0.2066 -0.2238  0.0703
 8834SOL    HW235068   2.777   0.499   1.522  0.0626  2.3484  0.3889
 8834SOL    HW335069   2.737   0.433   1.392  1.6328 -0.8542  1.4022
 8834SOL    MW435070   2.731   0.499   1.448  0.3085 -0.5265  0.1041
 8835SOL     OW35071   4.063   1.247   4.455  0.1410  0.1834 -0.0158
 8835SOL    HW235072   4.135   1.310   4.453 -0.4046  0.8205  0.0383
 8835SOL    HW335073   4.069   1.201   4.372  0.0505  0.8889 -0.4226
 8835SOL    MW435074   4.073   1.249   4.444 -0.1142 -0.5547 -0.2321
 8836SOL     OW35075   1.171   1.402   1.448 -0.2880 -0.2039  0.1997
 8836SOL    HW235076   1.249   1.348   1.463 -0.5608 -0.8557 -0.7062
 8836SOL    HW335077   1.123   1.398   1.530 -0.9012 -2.3230 -0.2211
 8836SOL    MW435078   1.175   1.395   1.461  0.0902  0.2796 -0.3074
 8837SOL     OW35079   5.089   4.085   4.707  0.0479 -0.6203  0.3802
 8837SOL    HW235080   5.045   4.006   4.676 -2.6719  0.5435  0.9651
 8837SOL    HW335081   5.077   4.083   4.802 -0.0524  0.4970  0.4021
 8837SOL    MW435082   5.082   4.075   4.716  0.0647  0.0468 -0.4501
 8838SOL     OW35083   3.164   0.421   4.349 -0.6433 -0.3850  0.2558
 8838SOL    HW235084   3.142   0.463   4.433 -0.4904  1.5197 -0.6089
 8838SOL    HW335085   3.122   0.476   4.283  1.5434 -0.1993 -1.0879
 8838SOL    MW435086   3.155   0.434   4.352  0.0580  0.8049  0.0360
 8839SOL     OW35087   1.633   4.317   1.176  0.5453 -0.2019  0.3665
 8839SOL    HW235088   1.638   4.223   1.160  1.3306 -0.0421 -0.4239
 8839SOL    HW335089   1.605   4.355   1.093  0.2834  0.2666  0.6645
 8839SOL    MW435090   1.630   4.310   1.163 -0.0082 -0.1483  0.0797
 8840SOL     OW35091   3.757   1.185   2.653 -0.1178  0.2011 -0.1026
 8840SOL    HW235092   3.823   1.138   2.703  0.4055 -1.0348 -1.8725
 8840SOL    HW335093   3.797   1.270   2.632  0.5322 -0.1590 -0.3297
 8840SOL    MW435094   3.771   1.190   2.657 -0.3146 -0.1608  0.2216
 8841SOL     OW35095   4.952   6.173   4.223 -0.6511  0.0965  0.0817
 8841SOL    HW235096   4.917   6.102   4.170  2.7541 -3.2935  1.9377
 8841SOL    HW335097   4.923   6.153   4.312  2.6102 -0.7302  1.0741
 8841SOL    MW435098   4.944   6.161   4.228  0.5057  0.4105  0.0077
 8842SOL     OW35099   1.684   6.097   6.229 -0.3589 -0.1159  0.1991
 8842SOL    HW235100   1.670   6.098   6.135  0.3900  0.1901  0.0837
 8842SOL    HW335101   1.772   6.061   6.240 -0.9465 -1.4262  0.8597
 8842SOL    MW435102   1.693   6.092   6.218 -0.0160  0.3726 -0.1396
 8843SOL     OW35103   0.384   4.850   0.421 -0.6983  0.1487  0.0024
 8843SOL    HW235104   0.351   4.923   0.368  1.0965  0.2908 -1.0048
 8843SOL    HW335105   0.442   4.802   0.362  0.7288 -0.1836  1.5795
 8843SOL    MW435106   0.387   4.853   0.406 -0.3367 -0.0340 -0.2152
 8844SOL     OW35107   6.317   4.301   5.271 -0.1305  0.0501 -0.0532
 8844SOL    HW235108   6.352   4.301   5.360 -0.2174  0.3884 -0.0199
 8844SOL    HW335109   6.305   4.208   5.250  0.6761 -0.0660 -0.0209
 8844SOL    MW435110   6.320   4.289   5.280  0.4143  0.1106  0.0033
 8845SOL     OW35111   4.293   1.624   1.789 -0.0834 -0.4323 -0.6044
 8845SOL    HW235112   4.340   1.617   1.872 -0.4361  0.4683 -0.3139
 8845SOL    HW335113   4.296   1.536   1.752  0.9274 -0.6237 -0.1047
 8845SOL    MW435114   4.300   1.611   1.795 -0.4716  0.1506  0.0558
 8846SOL     OW35115   0.718   2.328   3.808 -0.0165 -0.6248 -0.2440
 8846SOL    HW235116   0.771   2.406   3.822 -1.4612  0.2296  0.8089
 8846SOL    HW335117   0.710   2.320   3.713  1.7410 -0.6422 -0.4212
 8846SOL    MW435118   0.724   2.337   3.798 -0.2762  0.1015 -0.1043
 8847SOL     OW35119   0.143   4.502   5.609 -0.4519  0.5861 -0.0337
 8847SOL    HW235120   0.170   4.421   5.652 -1.7650  0.8925  1.4312
 8847SOL    HW335121   0.217   4.523   5.550  1.6345  0.3516  2.3311
 8847SOL    MW435122   0.157   4.494   5.607  0.1852 -0.4806 -0.1233
 8848SOL     OW35123   1.377   0.983   5.405  1.0672  0.3939 -0.1942
 8848SOL    HW235124   1.440   1.055   5.399  0.4041  1.0035  0.0005
 8848SOL    HW335125   1.402   0.924   5.333  0.3942  1.8181 -1.6732
 8848SOL    MW435126   1.389   0.984   5.394 -0.2469  0.1064  0.0542
 8849SOL     OW35127   3.465   5.097   3.273  0.3621 -0.0907 -0.0760
 8849SOL    HW235128   3.527   5.028   3.297 -0.7977 -1.1853 -0.1446
 8849SOL    HW335129   3.460   5.091   3.177  0.8562  0.6350 -0.1546
 8849SOL    MW435130   3.473   5.087   3.263  0.3272 -0.5973  0.6592
 8850SOL     OW35131   4.397   0.350   3.134 -0.5059  0.3205 -0.3487
 8850SOL    HW235132   4.463   0.394   3.188 -1.6915  0.5572  0.9632
 8850SOL    HW335133   4.392   0.404   3.055  0.4079  0.6597 -0.1946
 8850SOL    MW435134   4.405   0.363   3.131 -0.0617 -0.0364 -0.0513
 8851SOL     OW35135   2.641   3.795   4.160  0.3162 -0.2132  0.6253
 8851SOL    HW235136   2.733   3.795   4.184 -0.1841 -1.9033  2.8290
 8851SOL    HW335137   2.602   3.866   4.212  0.2534  0.1921  0.0476
 8851SOL    MW435138   2.648   3.804   4.170  0.4733  0.1147 -0.0683
 8852SOL     OW35139   5.416   3.362   5.970  0.6843  0.3409 -0.2018
 8852SOL    HW235140   5.510   3.344   5.962  0.4025 -0.8859 -1.2196
 8852SOL    HW335141   5.410   3.435   6.032  2.3317  0.7591 -0.4822
 8852SOL    MW435142   5.428   3.369   5.977 -0.1009  0.0855 -0.3684
 8853SOL     OW35143   3.583   3.290   1.763 -0.3395  0.1409  0.0240
 8853SOL    HW235144   3.638   3.272   1.687  0.6284  2.2744  0.1269
 8853SOL    HW335145   3.506   3.333   1.727 -1.3229 -1.5425  0.0203
 8853SOL    MW435146   3.580   3.293   1.748 -0.1899 -0.1169  0.3868
 8854SOL     OW35147   3.654   3.458   1.434 -0.7179 -0.1239 -0.0376
 8854SOL    HW235148   3.648   3.363   1.443 -0.1937 -0.1838 -0.2631
 8854SOL    HW335149   3.627   3.475   1.344  0.2386 -0.1763 -0.3474
 8854SOL    MW435150   3.650   3.448   1.423  0.4190 -0.1308  0.1118
 8855SOL     OW35151   1.403   4.735   5.292 -0.3020 -0.4246  0.0415
 8855SOL    HW235152   1.395   4.809   5.232  0.9963 -1.9660 -2.1555
 8855SOL    HW335153   1.495   4.734   5.317 -0.9718  0.8316  3.1220
 8855SOL    MW435154   1.414   4.745   5.287 -0.3264  0.7250 -0.0515
 8856SOL     OW35155   1.600   3.043   4.276  0.1255 -0.6622  0.9268
 8856SOL    HW235156   1.630   3.092   4.352  1.3664  1.3237 -0.7373
 8856SOL    HW335157   1.681   3.016   4.231 -0.5692 -1.9958  0.4195
 8856SOL    MW435158   1.615   3.046   4.280  0.1854  0.0950 -0.1234
 8857SOL     OW35159   1.625   5.651   3.947  0.3277  0.2490  0.3058
 8857SOL    HW235160   1.663   5.697   3.872  1.3496 -0.1798  0.5395
 8857SOL    HW335161   1.610   5.562   3.915  0.0060  0.2792  0.3726
 8857SOL    MW435162   1.628   5.645   3.933 -0.3963 -0.1750 -0.7574
 8858SOL     OW35163   1.854   3.302   4.211  1.1491 -0.0689  0.0762
 8858SOL    HW235164   1.860   3.209   4.189  2.7657 -0.2772  1.1856
 8858SOL    HW335165   1.823   3.303   4.302  1.5998  0.4477  0.2261
 8858SOL    MW435166   1.851   3.290   4.220 -0.1093 -0.2107 -0.2385
 8859SOL     OW35167   1.136   3.884   4.691  0.2193  0.1011  0.0067
 8859SOL    HW235168   1.118   3.797   4.657  0.4173 -0.6307  1.6669
 8859SOL    HW335169   1.193   3.924   4.626  0.1169 -0.9999 -0.7893
 8859SOL    MW435170   1.141   3.878   4.678 -0.1299 -0.0401  0.1071
 8860SOL     OW35171   3.845   2.308   5.169  0.0000  0.0342  0.4029
 8860SOL    HW235172   3.903   2.259   5.111 -1.3858 -1.8572  0.4909
 8860SOL    HW335173   3.831   2.249   5.243 -1.1834  0.8602  0.8599
 8860SOL    MW435174   3.851   2.294   5.171 -0.2837  0.1361  0.0432
 8861SOL     OW35175   5.828   1.044   2.699  0.4773  0.6952 -0.1398
 8861SOL    HW235176   5.852   1.002   2.782  2.2989  1.6332 -0.1411
 8861SOL    HW335177   5.857   0.982   2.632 -0.7028  0.0830 -0.1099
 8861SOL    MW435178   5.835   1.030   2.701  0.0588  0.1350  0.0960
 8862SOL     OW35179   5.043   0.147   1.059  0.1962 -0.2735 -0.2924
 8862SOL    HW235180   5.010   0.118   0.973  0.0199  0.8084 -0.6023
 8862SOL    HW335181   5.108   0.082   1.083  0.0659 -0.7286 -1.1359
 8862SOL    MW435182   5.047   0.135   1.051 -0.1997  0.0060  0.3505
 8863SOL     OW35183   5.263   5.417   0.288  0.1079 -0.3808  0.1513
 8863SOL    HW235184   5.212   5.336   0.287  1.0196 -0.9751 -0.9878
 8863SOL    HW335185   5.295   5.424   0.378 -0.4316 -0.9979  0.3986
 8863SOL    MW435186   5.261   5.407   0.299  0.3177  0.4074  0.3243
 8864SOL     OW35187   3.217   5.854   2.697  0.8314 -0.3684  0.1339
 8864SOL    HW235188   3.256   5.856   2.610  2.1548 -1.3254  0.6669
 8864SOL    HW335189   3.203   5.946   2.719  0.6382 -0.1129 -1.0075
 8864SOL    MW435190   3.221   5.867   2.689 -0.1696 -0.0082 -0.6117
 8865SOL     OW35191   0.390   6.383   3.278 -0.0816 -0.0775  0.1424
 8865SOL    HW235192   0.373   6.293   3.306  0.0282 -0.2956 -0.4671
 8865SOL    HW335193   0.334   6.436   3.334  2.0139 -0.2471  2.5431
 8865SOL    MW435194   0.380   6.378   3.289 -0.2737 -0.6403  0.7315
 8866SOL     OW35195   3.315   0.124   1.914 -0.2524 -0.0012 -0.1362
 8866SOL    HW235196   3.234   0.145   1.959 -0.0821  0.1853  0.0853
 8866SOL    HW335197   3.321   0.189   1.843 -0.2931 -0.0116 -0.1489
 8866SOL    MW435198   3.305   0.135   1.910 -0.2110 -0.4354 -0.3909
 8867SOL     OW35199   5.848   1.629   6.416 -0.1489  0.3548  0.3773
 8867SOL    HW235200   5.798   1.688   6.361  0.0773 -1.3028 -1.7475
 8867SOL    HW335201   5.936   1.666   6.419 -0.4309  1.0121  0.5030
 8867SOL    MW435202   5.853   1.641   6.409  0.4574  0.9862 -0.7187
 8868SOL     OW35203   1.330   1.079   4.667 -0.1699  0.1029  0.2187
 8868SOL    HW235204   1.380   1.156   4.695  2.7896 -1.1530 -1.0829
 8868SOL    HW335205   1.380   1.005   4.702  0.1935 -1.3204 -2.9356
 8868SOL    MW435206   1.343   1.079   4.675  0.6190 -0.3207 -0.2880
 8869SOL     OW35207   6.244   0.210   2.706  0.5003  0.1365  0.0402
 8869SOL    HW235208   6.273   0.270   2.775  1.0700  0.2772 -0.3179
 8869SOL    HW335209   6.323   0.162   2.681  0.3774  0.3383 -0.7663
 8869SOL    MW435210   6.258   0.212   2.712 -0.3250  0.6238  0.6588
 8870SOL     OW35211   0.370   4.351   3.233  0.5221 -0.4988  0.0714
 8870SOL    HW235212   0.449   4.405   3.240  1.2194 -1.4975  0.0929
 8870SOL    HW335213   0.387   4.292   3.160 -0.7748  0.1786 -0.8028
 8870SOL    MW435214   0.383   4.350   3.225 -0.2796 -0.3239 -0.5283
 8871SOL     OW35215   5.259   5.121   3.608  0.1017 -0.5347 -0.4147
 8871SOL    HW235216   5.176   5.091   3.644  0.6114 -0.8339  0.5702
 8871SOL    HW335217   5.250   5.216   3.600  0.1361 -0.3929  1.0206
 8871SOL    MW435218   5.247   5.130   3.612  0.1387 -0.3298 -0.5889
 8872SOL     OW35219   1.820   3.194   0.643  0.0119  0.0224 -0.2145
 8872SOL    HW235220   1.915   3.186   0.634  0.0442  1.8684 -2.2107
 8872SOL    HW335221   1.786   3.111   0.608  0.8376 -0.0567 -0.8806
 8872SOL    MW435222   1.828   3.182   0.637  0.2094  0.6344 -0.3620
 8873SOL     OW35223   4.396   3.311   6.134 -0.0702  0.0983 -0.4653
 8873SOL    HW235224   4.441   3.331   6.216 -2.9468 -0.7430  1.4495
 8873SOL    HW335225   4.389   3.216   6.133 -2.4888  0.2097 -0.2092
 8873SOL    MW435226   4.401   3.301   6.145 -0.1570  0.0616  0.5723
 8874SOL     OW35227   5.015   1.765   3.220 -0.3282 -0.3630  0.2127
 8874SOL    HW235228   4.962   1.826   3.272 -0.1315  0.4534 -0.5187
 8874SOL    HW335229   4.956   1.691   3.203 -0.9771  0.1653  0.1041
 8874SOL    MW435230   5.000   1.763   3.225  0.5984 -0.3563 -0.0813
 8875SOL     OW35231   4.305   3.302   3.149 -0.4824 -0.0017 -0.6387
 8875SOL    HW235232   4.388   3.290   3.103 -0.3763  0.4316 -0.5637
 8875SOL    HW335233   4.292   3.397   3.150 -1.3148 -0.0952 -1.2450
 8875SOL    MW435234   4.315   3.313   3.143  0.2713 -0.6832  0.0548
 8876SOL     OW35235   5.823   5.919   0.921 -0.3367  0.1769  0.3975
 8876SOL    HW235236   5.869   5.912   1.004  2.2373 -0.7809 -1.0117
 8876SOL    HW335237   5.736   5.951   0.944 -0.0829 -1.1220  3.5463
 8876SOL    MW435238   5.817   5.923   0.935 -0.2874  0.1717 -0.4421
 8877SOL     OW35239   0.954   6.123   1.656 -0.4940  0.1668  0.0951
 8877SOL    HW235240   0.982   6.201   1.704 -0.1006  0.5808 -0.7899
 8877SOL    HW335241   0.926   6.155   1.571 -0.0186 -0.6879 -0.3977
 8877SOL    MW435242   0.954   6.137   1.651  0.5117  0.1063 -0.2815
 8878SOL     OW35243   2.838   6.414   5.259  0.0141 -0.3903  0.0253
 8878SOL    HW235244   2.835   6.510   5.259  0.9513 -0.3444  0.6905
 8878SOL    HW335245   2.760   6.388   5.307  0.3467  0.0840  0.8419
 8878SOL    MW435246   2.827   6.423   5.265  0.6544 -0.3717  0.1184
 8879SOL     OW35247   2.794   5.211   3.536  0.0460  0.0333 -0.0224
 8879SOL    HW235248   2.750   5.145   3.483 -1.4453  1.8945 -1.2756
 8879SOL    HW335249   2.724   5.269   3.565  1.2771  1.0666  1.0337
 8879SOL    MW435250   2.779   5.210   3.533  0.1308  0.0653  0.3155
 8880SOL     OW35251   4.194   1.359   5.134 -0.6422 -0.2289 -0.4568
 8880SOL    HW235252   4.237   1.380   5.216  1.4886  2.5591 -2.1031
 8880SOL    HW335253   4.161   1.269   5.146  0.2281 -0.2157  3.0816
 8880SOL    MW435254   4.195   1.350   5.146  0.3054  0.0965  0.1641
 8881SOL     OW35255   4.759   0.048   3.415 -0.2454  0.3232 -0.7704
 8881SOL    HW235256   4.847   0.040   3.450 -1.3203 -0.5876  1.9904
 8881SOL    HW335257   4.754  -0.019   3.347  1.1366  0.3214 -0.8987
 8881SOL    MW435258   4.770   0.038   3.410  0.0959 -0.2149  0.1329
 8882SOL     OW35259   1.431   6.056   2.036 -0.8635  0.2990  0.8210
 8882SOL    HW235260   1.359   6.064   2.099 -2.0068 -1.0759 -0.2221
 8882SOL    HW335261   1.474   5.973   2.059 -1.7929 -0.6377 -0.6156
 8882SOL    MW435262   1.427   6.046   2.047  0.2997  0.2028 -0.3048
 8883SOL     OW35263   0.991   1.944   5.148 -0.0077 -0.0204  0.2528
 8883SOL    HW235264   0.994   2.030   5.189  0.6877 -1.0017  2.3898
 8883SOL    HW335265   1.075   1.937   5.101 -0.2283  0.5805 -0.2464
 8883SOL    MW435266   1.003   1.954   5.147  0.1040 -0.6430 -0.0227
 8884SOL     OW35267   3.362   0.769   5.102 -0.3751 -0.4713  0.9582
 8884SOL    HW235268   3.457   0.772   5.111 -0.3677  1.3214  0.6541
 8884SOL    HW335269   3.344   0.684   5.060  1.2512 -0.0326 -0.7584
 8884SOL    MW435270   3.372   0.758   5.098  0.5646 -0.1132  0.3339
 8885SOL     OW35271   0.279   0.662   5.131 -0.2401  0.1550  0.6599
 8885SOL    HW235272   0.327   0.719   5.071  0.6970  0.1407  1.3594
 8885SOL    HW335273   0.309   0.574   5.110  1.1963  0.2537  2.0274
 8885SOL    MW435274   0.290   0.658   5.121 -0.3059 -0.8681  0.1139
 8886SOL     OW35275   0.767   6.183   5.147  0.3833  1.0951 -0.9316
 8886SOL    HW235276   0.773   6.161   5.240  0.4704  3.0878 -0.4209
 8886SOL    HW335277   0.692   6.133   5.115  0.4530  0.2531  0.1529
 8886SOL    MW435278   0.758   6.173   5.155  0.1529  0.1835 -0.6502
 8887SOL     OW35279   2.205   5.921   4.144 -0.6700  0.5955  0.0950
 8887SOL    HW235280   2.296   5.952   4.144  0.1759 -1.7159 -0.5795
 8887SOL    HW335281   2.211   5.829   4.118 -3.3427  0.7271 -1.3205
 8887SOL    MW435282   2.218   5.913   4.141  0.1432  0.1811 -0.0484
 8888SOL     OW35283   6.149   5.203   3.020 -0.3205 -0.1848  0.0945
 8888SOL    HW235284   6.111   5.288   3.041  1.4333  0.4939  0.6061
 8888SOL    HW335285   6.174   5.209   2.928  0.9976  0.3258  0.4788
 8888SOL    MW435286   6.147   5.215   3.011 -0.3530 -0.1365 -0.4894
 8889SOL     OW35287   1.936   3.834   4.940  0.7424 -0.3502  0.0384
 8889SOL    HW235288   1.996   3.789   4.999 -0.4561  0.9731  2.4315
 8889SOL    HW335289   1.983   3.912   4.912  0.9545 -0.4717  0.0544
 8889SOL    MW435290   1.950   3.838   4.944 -0.2386 -0.0904 -0.1032
 8890SOL     OW35291   0.502   2.766   6.380  0.3998  0.4844 -0.1833
 8890SOL    HW235292   0.481   2.753   6.287  0.9394  1.8085 -0.5129
 8890SOL    HW335293   0.429   2.818   6.414  1.7326  2.8303 -0.6995
 8890SOL    MW435294   0.490   2.771   6.372 -0.2821  0.0959  0.1138
 8891SOL     OW35295   3.935   0.364   4.459  0.0948 -0.0116  0.5985
 8891SOL    HW235296   3.986   0.358   4.379  0.8251 -0.6972  1.1017
 8891SOL    HW335297   3.920   0.458   4.471  0.7072  0.1511  0.1111
 8891SOL    MW435298   3.940   0.376   4.450  0.6145 -0.4916  0.1578
 8892SOL     OW35299   0.812   5.807   6.264  0.4811  0.2157  0.2166
 8892SOL    HW235300   0.904   5.823   6.243  0.0330  1.0698 -1.2489
 8892SOL    HW335301   0.788   5.732   6.210  0.2543  0.1367  0.4259
 8892SOL    MW435302   0.821   5.800   6.254 -0.5701  0.4426 -0.2702
 8893SOL     OW35303   2.401   5.857   0.115 -1.0154 -0.0956 -0.1315
 8893SOL    HW235304   2.333   5.791   0.100 -1.0966  0.0004 -0.1912
 8893SOL    HW335305   2.354   5.932   0.151 -0.4255 -1.4488  3.9101
 8893SOL    MW435306   2.386   5.858   0.117  0.4171 -0.4682 -0.2284
 8894SOL     OW35307   1.713   2.951   4.544  0.2159 -0.7459 -0.2110
 8894SOL    HW235308   1.748   2.898   4.472 -1.4196 -3.7880  1.0395
 8894SOL    HW335309   1.747   2.910   4.623 -1.5579 -0.3024  0.8470
 8894SOL    MW435310   1.722   2.938   4.545 -0.7417 -0.4596 -0.1305
 8895SOL     OW35311   2.764   3.140   2.964 -0.0102 -0.1995  0.4456
 8895SOL    HW235312   2.735   3.099   3.046  0.9588  1.2493  1.5535
 8895SOL    HW335313   2.858   3.128   2.962  0.3236  1.9541  0.8375
 8895SOL    MW435314   2.772   3.133   2.974  0.6072  0.1786 -0.0357
 8896SOL     OW35315   2.908   3.386   4.701 -0.5701  0.1377  0.5372
 8896SOL    HW235316   2.985   3.365   4.648 -1.2756 -0.5339 -0.2428
 8896SOL    HW335317   2.838   3.334   4.663 -1.2175  0.0352  1.8109
 8896SOL    MW435318   2.909   3.376   4.689  0.4437  0.4407 -0.6937
 8897SOL     OW35319   3.040   0.761   4.960 -0.7458 -0.7433  0.2076
 8897SOL    HW235320   3.089   0.834   4.997 -0.8432 -0.4161 -0.2980
 8897SOL    HW335321   3.003   0.715   5.035 -0.5224 -0.3858  0.5342
 8897SOL    MW435322   3.042   0.764   4.975 -0.0861 -0.0193  0.8335
 8898SOL     OW35323   5.833   4.542   1.658  0.2462 -0.2263  0.3154
 8898SOL    HW235324   5.796   4.624   1.626  1.5544  0.2676  0.0424
 8898SOL    HW335325   5.928   4.553   1.650  0.4404 -2.1299 -0.6853
 8898SOL    MW435326   5.840   4.554   1.653  0.6326 -0.1183  0.0348
 8899SOL     OW35327   4.422   6.059   1.866 -0.1953  0.8966 -0.4392
 8899SOL    HW235328   4.440   6.067   1.772  2.7926 -2.1892 -0.2988
 8899SOL    HW335329   4.497   6.103   1.908  0.3256 -0.7260  0.3950
 8899SOL    MW435330   4.435   6.066   1.859 -0.2958 -0.2708 -0.3540
 8900SOL     OW35331   0.080   3.969   3.463 -0.6029 -0.8178  0.1802
 8900SOL    HW235332   0.109   3.930   3.380 -0.3260  0.6205 -0.4261
 8900SOL    HW335333   0.160   3.985   3.512 -0.7585 -1.5455  0.6917
 8900SOL    MW435334   0.094   3.966   3.458 -0.0119 -0.6295  0.5588
 8901SOL     OW35335   1.829   6.054   4.898  0.1047  0.2052  0.3488
 8901SOL    HW235336   1.911   6.100   4.882  0.7041  0.2053  3.0647
 8901SOL    HW335337   1.841   5.969   4.855  0.1025  1.3859 -2.2154
 8901SOL    MW435338   1.841   6.049   4.890  0.3027  0.4678 -0.3953
 8902SOL     OW35339   3.156   3.226   0.986  0.6948 -0.4761  0.3110
 8902SOL    HW235340   3.073   3.201   0.944  0.1864  3.1844 -1.3325
 8902SOL    HW335341   3.223   3.199   0.924  0.3493  0.1788 -0.3707
 8902SOL    MW435342   3.154   3.219   0.972 -0.2027  0.5127 -0.5000
 8903SOL     OW35343   2.361   1.775   3.541 -0.1949  0.4154  0.5855
 8903SOL    HW235344   2.435   1.715   3.534 -0.5497  0.1423 -1.0351
 8903SOL    HW335345   2.355   1.793   3.635  2.2002  0.8064  0.7392
 8903SOL    MW435346   2.370   1.770   3.553 -0.2006 -0.1967 -0.2997
 8904NA      NA35347   2.089   2.281   0.749  0.1879  0.0192 -0.2052
 8905NA      NA35348   1.215   0.466   4.500 -0.1522  0.3323  0.0401
 8906NA      NA35349   2.094   5.055   2.563  0.0017 -0.1750 -0.0468
 8907NA      NA35350   2.055   1.426   5.112 -0.3763 -0.4877  0.0567
 8908NA      NA35351   3.841   5.226   0.109  0.4490 -0.3108 -0.0829
 8909NA      NA35352   5.528   4.869   2.737 -1.2039  0.3701  0.0477
 8910NA      NA35353   0.765   2.105   3.881  0.6127  0.0214 -0.1015
 8911NA      NA35354   1.071   6.302   6.098  0.3521  0.5612 -0.0313
   6.43155   6.43155   6.43155
