A-SYNC WITH FASUDIL in water
35354
  121NASP     N    1   0.655   0.889   3.827 -0.3578 -0.0536 -0.2379
  121NASP    H1    2   0.693   0.859   3.738  0.4184 -2.0210  0.6905
  121NASP    H2    3   0.633   0.987   3.814  0.7156  0.5230  1.8808
  121NASP    H3    4   0.574   0.835   3.853  0.6850 -1.5087  0.1235
  121NASP    CA    5   0.752   0.876   3.931 -0.4863  0.2947  0.7814
  121NASP    HA    6   0.838   0.934   3.898 -1.2481  1.8083  1.3653
  121NASP    CB    7   0.709   0.938   4.060  0.0383  0.0977 -0.2754
  121NASP   HB1    8   0.743   1.042   4.059 -2.0589  0.9127  2.3138
  121NASP   HB2    9   0.771   0.897   4.139 -0.7476  0.6462  0.6455
  121NASP    CG   10   0.563   0.932   4.109 -0.2172 -0.4067 -0.2214
  121NASP   OD1   11   0.527   1.000   4.204  0.2957 -0.6951 -0.3203
  121NASP   OD2   12   0.480   0.864   4.043  0.3702  1.0325  0.6054
  121NASP     C   13   0.798   0.729   3.950 -1.0382  0.3075 -0.6727
  121NASP     O   14   0.723   0.635   3.932 -0.2098 -0.2016  0.2263
  122ASN      N   15   0.924   0.716   3.997 -0.0978  0.0042 -0.4236
  122ASN      H   16   0.980   0.799   3.989 -0.4750  0.2427 -0.6249
  122ASN     CA   17   0.979   0.582   4.014 -0.4618 -0.1332  0.7628
  122ASN     HA   18   0.948   0.509   3.939 -0.5740 -0.1229  0.7987
  122ASN     CB   19   1.134   0.596   3.997  0.7475  0.6917  0.4469
  122ASN    HB1   20   1.181   0.500   4.018  0.5795  1.0432  2.6867
  122ASN    HB2   21   1.164   0.670   4.071  1.0830  0.2865  0.7189
  122ASN     CG   22   1.181   0.639   3.857  0.3244  0.0648 -0.0793
  122ASN    OD1   23   1.125   0.733   3.797 -0.4966  0.3728  0.0745
  122ASN    ND2   24   1.268   0.561   3.800 -0.0114  0.3254  0.5819
  122ASN   HD21   25   1.310   0.592   3.713  2.6943 -3.9755  0.0596
  122ASN   HD22   26   1.280   0.463   3.823 -0.8859 -0.4070 -1.7006
  122ASN      C   27   0.936   0.521   4.148  0.7150  0.1106  0.0945
  122ASN      O   28   0.926   0.597   4.241 -0.1870 -0.5889 -0.1071
  123GLU      N   29   0.894   0.394   4.148 -0.0950  0.0550 -0.1588
  123GLU      H   30   0.902   0.349   4.058  2.3513 -0.8244  0.4282
  123GLU     CA   31   0.859   0.318   4.280  0.0862 -0.8346  0.7047
  123GLU     HA   32   0.783   0.376   4.332  0.1294 -0.4015  0.2932
  123GLU     CB   33   0.796   0.181   4.249  0.1644 -0.4259 -0.4366
  123GLU    HB1   34   0.874   0.113   4.216 -0.2870 -1.9915  1.5453
  123GLU    HB2   35   0.729   0.187   4.164 -1.8699 -2.1893  0.9439
  123GLU     CG   36   0.708   0.108   4.350 -0.0776  0.2806 -0.7499
  123GLU    HG1   37   0.646   0.190   4.386 -2.6276 -1.0396 -1.8792
  123GLU    HG2   38   0.764   0.074   4.437  1.8787 -0.1053 -2.0936
  123GLU     CD   39   0.615  -0.002   4.294 -0.3876 -0.7366 -0.1906
  123GLU    OE1   40   0.543   0.020   4.187 -0.0179  0.3813 -0.5813
  123GLU    OE2   41   0.623  -0.117   4.345 -0.6607 -0.4088  0.1478
  123GLU      C   42   0.978   0.292   4.372 -0.1874  0.6292 -0.0296
  123GLU      O   43   0.954   0.286   4.488 -0.3813 -0.3698 -0.3943
  124ALA      N   44   1.098   0.265   4.320 -0.1833 -0.6829 -0.0188
  124ALA      H   45   1.108   0.267   4.220 -1.2894 -0.6443 -0.1402
  124ALA     CA   46   1.223   0.260   4.398  0.9284  0.0449  0.3604
  124ALA     HA   47   1.207   0.187   4.478 -0.0004  0.8114  0.8943
  124ALA     CB   48   1.333   0.207   4.315 -0.4070  0.4859  0.5425
  124ALA    HB1   49   1.425   0.190   4.371 -0.0790  1.0230  0.1734
  124ALA    HB2   50   1.357   0.289   4.248 -2.1887  0.6695  0.0759
  124ALA    HB3   51   1.305   0.124   4.250  1.1629  0.5984 -0.3348
  124ALA      C   52   1.252   0.386   4.478 -0.1389 -0.3107 -0.1832
  124ALA      O   53   1.254   0.500   4.430 -0.0752 -0.1144  0.2264
  125TYR      N   54   1.274   0.371   4.608 -0.0081 -0.2642 -0.1594
  125TYR      H   55   1.255   0.280   4.648  0.2888 -0.0071  0.5810
  125TYR     CA   56   1.306   0.478   4.710 -0.2085  0.7881 -0.1210
  125TYR     HA   57   1.319   0.568   4.650 -1.2049  0.7617 -0.4052
  125TYR     CB   58   1.181   0.504   4.806  0.5517  0.3357 -0.0108
  125TYR    HB1   59   1.103   0.549   4.744  1.5955  1.2710 -0.6697
  125TYR    HB2   60   1.219   0.580   4.874  2.8018 -0.5332 -0.2027
  125TYR     CG   61   1.116   0.379   4.874 -0.1788  0.6049 -0.0613
  125TYR    CD1   62   1.176   0.329   4.987 -0.0840  0.9002 -0.3140
  125TYR    HD1   63   1.267   0.378   5.018 -1.0104  2.3824  0.1853
  125TYR    CE1   64   1.131   0.214   5.055  0.3167  0.0258  0.3033
  125TYR    HE1   65   1.181   0.173   5.141 -0.3494  1.2647  1.3090
  125TYR     CZ   66   1.011   0.152   5.004  0.6442  0.2823  0.5633
  125TYR     OH   67   0.973   0.027   5.042 -0.4411 -0.1795  0.2459
  125TYR     HH   68   0.922  -0.026   4.980  0.5339 -0.5208 -0.2917
  125TYR    CE2   69   0.950   0.207   4.889  0.3935  0.1831  0.0613
  125TYR    HE2   70   0.859   0.161   4.854 -0.3266  2.1858 -0.8275
  125TYR    CD2   71   0.993   0.327   4.835  0.2864  0.4284  0.5003
  125TYR    HD2   72   0.951   0.362   4.741  0.1691 -0.1559  0.3238
  125TYR      C   73   1.437   0.450   4.784  0.6643  0.0042  0.1832
  125TYR      O   74   1.448   0.338   4.835  0.8844  0.3968 -0.6159
  126GLU      N   75   1.516   0.559   4.811  0.2070 -0.1389 -0.7418
  126GLU      H   76   1.482   0.645   4.770 -2.7378 -2.1886 -3.0536
  126GLU     CA   77   1.647   0.541   4.887  0.3662 -0.1307 -0.0680
  126GLU     HA   78   1.696   0.445   4.870  5.8032  2.0756  1.0892
  126GLU     CB   79   1.761   0.634   4.844  0.4372  0.2297 -0.2583
  126GLU    HB1   80   1.853   0.618   4.900  0.2190  0.2245  0.0972
  126GLU    HB2   81   1.724   0.735   4.862 -0.5860 -0.4155  1.5389
  126GLU     CG   82   1.782   0.631   4.695  0.2089 -0.4106 -0.1771
  126GLU    HG1   83   1.698   0.678   4.643  1.3602  2.3160  0.2279
  126GLU    HG2   84   1.795   0.527   4.664 -1.2626 -0.5604 -0.4083
  126GLU     CD   85   1.916   0.705   4.673  0.3291  0.4405 -0.0550
  126GLU    OE1   86   1.905   0.816   4.618  0.1396 -0.4990  0.0282
  126GLU    OE2   87   2.027   0.650   4.703  0.2760 -0.2637 -0.1394
  126GLU      C   88   1.628   0.554   5.038  0.4853 -0.1518  0.1244
  126GLU      O   89   1.543   0.635   5.079  0.1088  0.0442 -0.2733
  127MET      N   90   1.707   0.483   5.116  0.0946  0.4263 -0.2538
  127MET      H   91   1.780   0.437   5.065 -1.4655 -0.1120 -2.1486
  127MET     CA   92   1.699   0.471   5.267 -0.4499 -0.1952 -0.4323
  127MET     HA   93   1.594   0.467   5.299 -0.3226  0.8609  0.1655
  127MET     CB   94   1.756   0.339   5.313  0.0906 -0.0749  0.2507
  127MET    HB1   95   1.702   0.259   5.262  0.6467 -1.8018  2.1850
  127MET    HB2   96   1.715   0.325   5.413  0.3161 -0.4318  0.2990
  127MET     CG   97   1.898   0.307   5.304 -0.0055  0.3606 -0.3971
  127MET    HG1   98   1.933   0.333   5.204  2.0133 -2.9636 -0.6889
  127MET    HG2   99   1.901   0.201   5.327 -4.1065  0.2549  0.3592
  127MET     SD  100   2.003   0.396   5.432 -0.3024  0.2229 -0.0680
  127MET     CE  101   2.156   0.307   5.387  0.0230 -0.0499 -0.1424
  127MET    HE1  102   2.230   0.347   5.456 -1.8857  0.4454  1.7074
  127MET    HE2  103   2.184   0.332   5.284  1.1068 -0.9637 -0.0880
  127MET    HE3  104   2.137   0.200   5.397  0.4693 -0.1545 -0.3661
  127MET      C  105   1.763   0.592   5.349  0.3491 -0.2183  0.1440
  127MET      O  106   1.844   0.668   5.290  0.0112 -0.3313 -0.2659
  128PRO      N  107   1.735   0.614   5.481 -0.4349 -0.0153  1.0671
  128PRO     CD  108   1.653   0.523   5.559  0.7245 -0.6086 -0.2208
  128PRO    HD1  109   1.707   0.432   5.584 -0.3238 -0.3578  3.4565
  128PRO    HD2  110   1.561   0.489   5.510  2.1457 -1.9029 -2.1588
  128PRO     CG  111   1.618   0.582   5.693  0.2935  0.5886  0.1395
  128PRO    HG1  112   1.688   0.541   5.766 -1.5713 -0.9705  1.1314
  128PRO    HG2  113   1.512   0.565   5.711  0.7110 -0.3784  1.9523
  128PRO     CB  114   1.637   0.732   5.663 -0.5198 -0.2017  0.8834
  128PRO    HB1  115   1.541   0.764   5.622 -0.3121 -0.0108  0.5400
  128PRO    HB2  116   1.665   0.794   5.749  2.7090  1.0572 -0.9173
  128PRO     CA  117   1.744   0.738   5.558  0.4289 -0.1536  0.2025
  128PRO     HA  118   1.723   0.820   5.490  0.9033 -0.8540 -0.8215
  128PRO      C  119   1.889   0.764   5.609  0.4610 -0.0463 -0.4200
  128PRO      O  120   1.976   0.677   5.598  0.0271 -0.2396  0.4514
  129SER      N  121   1.918   0.878   5.666 -0.0559  0.2143 -0.2040
  129SER      H  122   1.841   0.941   5.685 -1.5454 -1.6471  0.1710
  129SER     CA  123   2.045   0.916   5.714  0.6238 -0.1948  0.1022
  129SER     HA  124   2.121   0.865   5.655 -1.4083 -2.5878 -0.6628
  129SER     CB  125   2.070   1.067   5.692  0.1269  0.3963 -0.1192
  129SER    HB1  126   2.168   1.092   5.733  0.1791  0.6284 -0.3836
  129SER    HB2  127   1.999   1.124   5.751  0.7923  0.9772  0.1329
  129SER     OG  128   2.061   1.105   5.560 -0.0117  0.0856 -0.1947
  129SER    HG1  129   2.097   1.194   5.553 -0.2852  0.1668 -0.6280
  129SER      C  130   2.082   0.887   5.863  0.0770 -0.0346  0.3106
  129SER      O  131   1.992   0.900   5.944 -0.0474 -0.2197 -0.2015
  130GLU      N  132   2.207   0.861   5.905 -0.1430  0.1652 -0.1158
  130GLU      H  133   2.285   0.864   5.841  1.6259  2.5920  1.9341
  130GLU     CA  134   2.237   0.802   6.034  0.0510 -0.5382 -0.4609
  130GLU     HA  135   2.139   0.793   6.081  0.8391 -1.0418  1.1387
  130GLU     CB  136   2.309   0.666   6.027  0.1448 -0.8868 -0.0344
  130GLU    HB1  137   2.255   0.611   5.951  2.4951 -0.7220 -1.9471
  130GLU    HB2  138   2.294   0.621   6.125 -2.7181  1.6847  0.8894
  130GLU     CG  139   2.461   0.676   5.981  0.2940  0.4968 -0.1141
  130GLU    HG1  140   2.524   0.710   6.063 -1.1645  0.3523  1.1099
  130GLU    HG2  141   2.471   0.748   5.900 -1.7767  0.0750 -0.8194
  130GLU     CD  142   2.515   0.538   5.955  0.5615  0.0092  0.2671
  130GLU    OE1  143   2.639   0.540   5.927  0.1638 -0.3548  0.2797
  130GLU    OE2  144   2.452   0.433   5.970 -0.4745 -0.6139  0.0978
  130GLU      C  145   2.309   0.904   6.119  0.6411  0.6433  0.0591
  130GLU      O  146   2.368   0.996   6.056 -0.1705  0.0022  0.1077
  131GLU      N  147   2.295   0.894   6.253  0.4184 -0.3114 -0.0215
  131GLU      H  148   2.235   0.821   6.289 -3.0044  3.1963  2.0660
  131GLU     CA  149   2.341   0.994   6.353 -1.0843  0.1976 -0.8545
  131GLU     HA  150   2.390   1.077   6.303  0.9982 -1.1537 -1.1590
  131GLU     CB  151   2.218   1.050   6.422 -0.2883 -0.5054  0.0449
  131GLU    HB1  152   2.248   1.126   6.494 -0.9814  0.8007 -0.9881
  131GLU    HB2  153   2.157   0.973   6.469 -0.0300 -0.6535  0.1371
  131GLU     CG  154   2.129   1.127   6.322  0.0681 -0.3702  0.1572
  131GLU    HG1  155   2.090   1.055   6.250  0.2344 -0.8626  0.5480
  131GLU    HG2  156   2.194   1.190   6.262  0.2060  0.3007  0.9979
  131GLU     CD  157   2.009   1.195   6.386  0.2443 -0.9093 -0.6088
  131GLU    OE1  158   1.958   1.286   6.312 -0.0333  0.1741  0.4644
  131GLU    OE2  159   1.948   1.154   6.486  0.1336  0.4241  0.1958
  131GLU      C  160   2.445   0.937   6.452 -0.5047 -0.5436  0.9554
  131GLU      O  161   2.455   0.816   6.477 -0.1617  0.5000  0.2934
  132GLY      N  162   2.521   1.024   6.517  0.1378 -0.2425 -0.3352
  132GLY      H  163   2.508   1.117   6.481  0.8867 -0.2573 -0.6576
  132GLY     CA  164   2.628   1.001   6.611 -0.0371 -0.6644 -0.0577
  132GLY    HA1  165   2.668   1.093   6.653 -1.2144  0.2847 -0.9079
  132GLY    HA2  166   2.713   0.961   6.556  0.1928 -0.8482  0.4297
  132GLY      C  167   2.581   0.914   6.731 -0.5060  0.7318 -0.3596
  132GLY      O  168   2.469   0.922   6.784 -0.8743  0.7352  0.2571
  133TYR      N  169   2.674   0.829   6.778 -0.0159  0.3144  0.5954
  133TYR      H  170   2.761   0.828   6.727  0.8005 -0.0439  1.9408
  133TYR     CA  171   2.652   0.725   6.878 -0.2471  0.3077 -0.1790
  133TYR     HA  172   2.550   0.739   6.912 -1.5615 -2.2680 -2.6635
  133TYR     CB  173   2.665   0.587   6.819  0.7804 -0.1883 -0.0588
  133TYR    HB1  174   2.579   0.569   6.755 -0.6790  0.4813  1.6420
  133TYR    HB2  175   2.661   0.509   6.895  1.4356 -2.9827 -2.6860
  133TYR     CG  176   2.790   0.574   6.736 -0.2962  0.4236 -0.2705
  133TYR    CD1  177   2.786   0.589   6.596 -0.2877 -0.4416 -0.0616
  133TYR    HD1  178   2.688   0.588   6.550 -1.2998 -2.8718  1.9368
  133TYR    CE1  179   2.906   0.591   6.519  0.3713  1.0477 -0.1589
  133TYR    HE1  180   2.906   0.610   6.412  1.0977 -0.0406 -0.3626
  133TYR     CZ  181   3.023   0.561   6.586  0.0641 -0.1784 -0.2321
  133TYR     OH  182   3.133   0.550   6.510 -0.6280 -0.3106 -0.0686
  133TYR     HH  183   3.109   0.563   6.418 -0.7968  2.0338  0.2411
  133TYR    CE2  184   3.031   0.549   6.723  0.5085 -0.3550  0.0978
  133TYR    HE2  185   3.125   0.527   6.771  1.8910  3.2426 -0.6497
  133TYR    CD2  186   2.913   0.550   6.797  0.2899 -0.2226 -0.1520
  133TYR    HD2  187   2.923   0.529   6.902 -0.9215 -0.7425 -0.1269
  133TYR      C  188   2.743   0.759   7.003 -0.1832 -0.2079 -0.6095
  133TYR      O  189   2.862   0.805   6.984 -0.0504 -0.0103  0.6713
  134GLN      N  190   2.687   0.731   7.117  0.3759  0.4359 -0.4311
  134GLN      H  191   2.602   0.676   7.108 -0.2647  0.8472  2.2015
  134GLN     CA  192   2.740   0.781   7.246  0.0218  0.0809 -0.0698
  134GLN     HA  193   2.770   0.885   7.233  1.8149 -0.3983 -0.0813
  134GLN     CB  194   2.635   0.783   7.354 -0.0609 -0.0429  0.5683
  134GLN    HB1  195   2.684   0.801   7.449 -0.9673 -0.1253  1.0665
  134GLN    HB2  196   2.580   0.689   7.365  0.0802 -0.0888  0.8729
  134GLN     CG  197   2.523   0.893   7.340 -0.2470 -0.1086 -0.2846
  134GLN    HG1  198   2.571   0.990   7.332 -0.6632  0.5492  3.3215
  134GLN    HG2  199   2.475   0.881   7.437  3.8843  1.1430  2.1403
  134GLN     CD  200   2.428   0.868   7.222 -0.0020  0.0046  0.4302
  134GLN    OE1  201   2.463   0.888   7.107  0.1572  0.6435  0.2810
  134GLN    NE2  202   2.310   0.822   7.250 -0.1808  0.2697 -0.1083
  134GLN   HE21  203   2.255   0.803   7.168 -2.6440  0.9349  1.2836
  134GLN   HE22  204   2.280   0.820   7.347 -0.6035  2.6681 -0.1270
  134GLN      C  205   2.864   0.710   7.286 -0.2763 -0.5577  0.3206
  134GLN      O  206   2.869   0.592   7.267 -0.4845  0.1828 -0.3377
  135ASP      N  207   2.965   0.772   7.343  0.1001 -0.1332  0.7302
  135ASP      H  208   2.950   0.865   7.381 -1.4261 -0.6499  1.4735
  135ASP     CA  209   3.075   0.693   7.394 -0.1547  0.5622 -0.6014
  135ASP     HA  210   3.089   0.613   7.321  1.0697  0.6798 -0.5054
  135ASP     CB  211   3.215   0.759   7.390  0.0600  0.1577  0.0746
  135ASP    HB1  212   3.236   0.766   7.284 -1.7957 -0.0556 -0.3435
  135ASP    HB2  213   3.291   0.691   7.428 -0.5064  0.5471  2.0387
  135ASP     CG  214   3.242   0.897   7.459  1.0755  0.3053  0.3786
  135ASP    OD1  215   3.356   0.945   7.452 -0.4747  0.3149  0.1558
  135ASP    OD2  216   3.147   0.958   7.520 -0.0926  0.5278  0.4733
  135ASP      C  217   3.054   0.627   7.527 -0.5773  0.3179 -0.4356
  135ASP      O  218   3.148   0.603   7.606 -0.1331 -0.0259 -0.1487
  136TYR      N  219   2.932   0.593   7.575  0.3008  0.0822  0.3777
  136TYR      H  220   2.855   0.600   7.510 -1.7385 -1.3225  2.4775
  136TYR     CA  221   2.891   0.537   7.702 -0.0965  0.3108 -0.1764
  136TYR     HA  222   2.962   0.466   7.744  0.1802  1.4223  1.2983
  136TYR     CB  223   2.874   0.657   7.803  0.6883 -0.0637  0.4417
  136TYR    HB1  224   2.975   0.688   7.833  1.6161 -2.3739 -0.0969
  136TYR    HB2  225   2.815   0.634   7.892 -0.9559  3.5708  0.4827
  136TYR     CG  226   2.795   0.782   7.752 -0.3721  0.2072  0.0616
  136TYR    CD1  227   2.654   0.778   7.755 -0.1590  0.7646  0.9043
  136TYR    HD1  228   2.602   0.703   7.813 -1.3487  1.2299  0.4832
  136TYR    CE1  229   2.587   0.886   7.701  0.6122  0.6231  0.3690
  136TYR    HE1  230   2.480   0.891   7.713  0.6012 -0.9025  1.1431
  136TYR     CZ  231   2.655   0.997   7.640  0.7304  0.7314 -0.4626
  136TYR     OH  232   2.592   1.104   7.599  0.3304 -0.5320 -0.0788
  136TYR     HH  233   2.501   1.086   7.625  0.2372 -2.3625 -1.4316
  136TYR    CE2  234   2.793   0.990   7.631 -0.0114 -0.0593 -0.1142
  136TYR    HE2  235   2.854   1.073   7.599  0.5563  0.1662  1.4573
  136TYR    CD2  236   2.866   0.884   7.687 -0.1982  0.4410 -0.4144
  136TYR    HD2  237   2.971   0.874   7.665 -0.6513  0.7210 -3.0041
  136TYR      C  238   2.757   0.460   7.696 -0.9072  0.1693  0.6815
  136TYR      O  239   2.671   0.485   7.612 -0.3111 -0.5264 -0.0046
  137GLU      N  240   2.728   0.376   7.796  0.5014  0.0081 -0.1151
  137GLU      H  241   2.803   0.347   7.858 -0.6515 -3.0171  0.0302
  137GLU     CA  242   2.603   0.305   7.820 -0.3742  0.1446  0.3884
  137GLU     HA  243   2.553   0.288   7.725  0.0020  2.7997 -0.3740
  137GLU     CB  244   2.623   0.163   7.882  0.3590  0.1561 -0.2850
  137GLU    HB1  245   2.521   0.125   7.884 -0.3417  1.9809  0.3780
  137GLU    HB2  246   2.653   0.165   7.986 -0.8435 -0.7298  0.0978
  137GLU     CG  247   2.710   0.064   7.797  0.2144 -0.5767 -0.5838
  137GLU    HG1  248   2.816   0.086   7.807  0.0023 -0.1698  1.0648
  137GLU    HG2  249   2.678   0.090   7.696 -1.8724  2.1891  0.6470
  137GLU     CD  250   2.695  -0.078   7.839  0.1628 -0.0210  0.0619
  137GLU    OE1  251   2.743  -0.114   7.947 -0.5735 -0.0316  0.1204
  137GLU    OE2  252   2.614  -0.152   7.779  0.1815 -0.2974  0.0526
  137GLU      C  253   2.519   0.397   7.907  0.1064 -0.4218  0.3815
  137GLU      O  254   2.573   0.472   7.996  0.3789 -0.0111  0.4530
  138PRO      N  255   2.383   0.392   7.891 -0.3529  0.3622 -0.0554
  138PRO     CD  256   2.314   0.305   7.796 -0.0656  0.2019  0.0071
  138PRO    HD1  257   2.352   0.203   7.790 -2.0186 -0.4539 -2.5528
  138PRO    HD2  258   2.324   0.347   7.696 -0.5193 -1.4323 -0.7445
  138PRO     CG  259   2.172   0.309   7.840 -0.4597  0.1321  0.6545
  138PRO    HG1  260   2.165   0.238   7.923  2.9854 -2.1144 -0.7612
  138PRO    HG2  261   2.106   0.291   7.756  1.0177 -0.5509 -0.3975
  138PRO     CB  262   2.164   0.453   7.887 -0.1811  0.5398  0.1854
  138PRO    HB1  263   2.162   0.518   7.799  1.9381  0.7785  0.2565
  138PRO    HB2  264   2.075   0.465   7.949 -1.1387  0.6739 -1.1717
  138PRO     CA  265   2.293   0.473   7.969 -0.1927  0.5145 -0.1027
  138PRO     HA  266   2.323   0.578   7.970 -0.8734  0.7105  0.3208
  138PRO      C  267   2.275   0.420   8.116  0.0912 -0.7091 -0.0790
  138PRO      O  268   2.320   0.313   8.154  0.4948 -0.0271 -0.0310
  139GLU      N  269   2.232   0.515   8.201  0.3730 -0.0921 -0.0497
  139GLU      H  270   2.212   0.603   8.155 -1.7288 -0.4004  0.1628
  139GLU     CA  271   2.213   0.499   8.350 -0.1350 -0.0247  0.1662
  139GLU     HA  272   2.307   0.462   8.392  1.3103  0.4623 -2.4350
  139GLU     CB  273   2.183   0.632   8.416 -0.3004 -0.0791 -0.0465
  139GLU    HB1  274   2.184   0.624   8.524 -0.8237  2.2464  0.1751
  139GLU    HB2  275   2.092   0.684   8.384  0.7516  1.0033 -1.4377
  139GLU     CG  276   2.297   0.730   8.393  0.7267  0.2685 -0.2648
  139GLU    HG1  277   2.293   0.772   8.293 -2.5526  0.7281 -0.0693
  139GLU    HG2  278   2.392   0.678   8.401  0.4981  0.1871  3.9448
  139GLU     CD  279   2.288   0.852   8.481 -0.0250  0.6736 -0.1135
  139GLU    OE1  280   2.179   0.882   8.536 -0.0363 -0.2834  0.4239
  139GLU    OE2  281   2.390   0.926   8.472  0.2690  0.4793 -0.4664
  139GLU      C  282   2.108   0.400   8.380  0.3469  0.3359 -0.6084
  139GLU      O  283   2.143   0.305   8.450  0.2571 -0.1573 -0.2256
  140CALA     N  284   1.988   0.410   8.317  0.3532 -0.5309 -0.5407
  140CALA     H  285   1.974   0.487   8.253 -0.6736  0.5766  0.9290
  140CALA    CA  286   1.869   0.329   8.336 -1.0164  0.1835 -0.9187
  140CALA    HA  287   1.885   0.221   8.344  0.3209  0.4764  1.2122
  140CALA    CB  288   1.795   0.366   8.467 -0.5053  0.8032  0.0622
  140CALA   HB1  289   1.757   0.468   8.474 -1.3362  0.5656 -0.8576
  140CALA   HB2  290   1.858   0.347   8.554 -0.6086  0.2209  0.0136
  140CALA   HB3  291   1.712   0.299   8.487 -0.5670  0.9280  0.2262
  140CALA     C  292   1.773   0.340   8.221  0.1729  0.7996 -0.5138
  140CALA   OC1  293   1.737   0.239   8.155  0.2424 -0.0852  0.4625
  140CALA   OC2  294   1.731   0.453   8.181  0.4986 -0.0713 -0.0728
  141SOL     OW  295   4.767   4.149   5.545 -0.5853 -0.2701  0.0098
  141SOL    HW2  296   4.767   4.236   5.506 -3.4730 -0.8107 -1.5429
  141SOL    HW3  297   4.740   4.162   5.635 -1.0746  0.4689 -0.2359
  141SOL    MW4  298   4.763   4.162   5.552  0.4080 -0.3715 -0.5164
  142SOL     OW  299   4.854   6.199   1.335  0.0751  0.4375  0.2351
  142SOL    HW2  300   4.891   6.150   1.262 -0.4138  1.5819 -0.8213
  142SOL    HW3  301   4.759   6.191   1.324 -0.0996 -1.6531  2.3529
  142SOL    MW4  302   4.846   6.192   1.324 -0.4921  0.1089  0.3277
  143SOL     OW  303   5.268   4.518   2.236 -0.6817  0.4074  0.1571
  143SOL    HW2  304   5.328   4.546   2.167 -1.5556 -1.1000 -1.2962
  143SOL    HW3  305   5.192   4.576   2.226 -0.6099  0.5026  0.1658
  143SOL    MW4  306   5.266   4.529   2.226  0.2020 -0.2851  0.1305
  144SOL     OW  307   0.480   5.253   5.676  0.0153  0.2781 -0.1112
  144SOL    HW2  308   0.393   5.263   5.638  0.6119  2.7381 -1.0682
  144SOL    HW3  309   0.530   5.205   5.610 -0.8444 -2.1768  0.9385
  144SOL    MW4  310   0.475   5.248   5.662 -0.0272 -0.0875  0.8282
  145SOL     OW  311   4.484   3.332   3.201  0.2076  0.1465  0.0985
  145SOL    HW2  312   4.565   3.381   3.211 -0.2407  0.7567  0.8995
  145SOL    HW3  313   4.428   3.388   3.148  0.2804 -0.2365 -0.3855
  145SOL    MW4  314   4.487   3.346   3.196  0.5543 -0.3318 -0.1843
  146SOL     OW  315   3.569   6.258   1.035  0.1582  0.0343  0.7819
  146SOL    HW2  316   3.485   6.296   1.062 -0.2774 -0.3537 -0.0097
  146SOL    HW3  317   3.549   6.208   0.956  1.2844  0.5466  0.1601
  146SOL    MW4  318   3.555   6.256   1.028 -0.6337 -0.5002 -1.0103
  147SOL     OW  319   4.423   0.585   4.527  0.3302 -0.3304 -0.2207
  147SOL    HW2  320   4.370   0.583   4.607  0.9697  1.1864  0.2659
  147SOL    HW3  321   4.422   0.677   4.500  1.8932 -0.4524 -0.7614
  147SOL    MW4  322   4.416   0.597   4.534  0.6429  0.2829  0.6004
  148SOL     OW  323   0.952   0.210   5.615 -0.2855  0.1367  0.4569
  148SOL    HW2  324   1.005   0.289   5.626 -0.7101  0.5663 -0.4191
  148SOL    HW3  325   1.002   0.158   5.552 -0.4497  0.1258  0.3360
  148SOL    MW4  326   0.966   0.214   5.608 -0.8403 -0.0289 -0.0616
  149SOL     OW  327   2.967   1.418   5.180  0.0009 -0.2204 -0.4383
  149SOL    HW2  328   3.001   1.482   5.118  0.3004 -0.3684 -0.4260
  149SOL    HW3  329   2.872   1.420   5.167  0.1121 -0.7227 -1.3680
  149SOL    MW4  330   2.959   1.427   5.170  0.6665  0.3398 -0.5613
  150SOL     OW  331   1.253   0.077   5.911 -0.2003 -0.0395 -0.1502
  150SOL    HW2  332   1.166   0.113   5.893  0.4746  1.9059  0.2526
  150SOL    HW3  333   1.276   0.113   5.996  1.0123 -0.5194 -0.2645
  150SOL    MW4  334   1.244   0.087   5.920  0.4003 -0.1844 -0.1753
  151SOL     OW  335   0.504   2.705   3.545 -0.4097  0.0574  0.2966
  151SOL    HW2  336   0.506   2.619   3.586 -0.1683 -0.7400 -1.2865
  151SOL    HW3  337   0.460   2.762   3.608 -2.6370 -1.7383  0.4640
  151SOL    MW4  338   0.499   2.701   3.558 -0.5328 -0.3240 -0.5593
  152SOL     OW  339   2.808   4.021   2.409  0.7390 -0.2045  0.3127
  152SOL    HW2  340   2.900   4.000   2.426  0.9907  0.9150  0.4061
  152SOL    HW3  341   2.767   4.021   2.496  0.7901 -0.0943  0.3374
  152SOL    MW4  342   2.815   4.019   2.423 -0.2398 -0.5374 -0.3557
  153SOL     OW  343   5.353   5.944   0.841 -0.6643  0.8563 -0.2895
  153SOL    HW2  344   5.293   5.870   0.849 -1.5123  1.5727  0.2244
  153SOL    HW3  345   5.394   5.933   0.755 -1.0273 -0.0178 -0.3578
  153SOL    MW4  346   5.350   5.933   0.831  0.3888 -0.1720 -0.1029
  154SOL     OW  347   4.465   6.019   1.645  0.2630 -0.1126 -0.4220
  154SOL    HW2  348   4.427   6.035   1.559  0.7154 -0.5724 -0.7143
  154SOL    HW3  349   4.390   6.001   1.702  0.0544 -1.5134 -1.1006
  154SOL    MW4  350   4.450   6.019   1.642 -0.3567  0.3144  0.0119
  155SOL     OW  351   3.702   1.816   4.316  0.1915 -0.2854 -0.5085
  155SOL    HW2  352   3.752   1.897   4.311 -1.2926  0.8270  1.4541
  155SOL    HW3  353   3.768   1.747   4.303  1.3579  1.1563 -3.0858
  155SOL    MW4  354   3.717   1.817   4.314 -0.3893  0.0915  0.5173
  156SOL     OW  355   5.919   4.006   4.649  0.0451  0.1737  0.1276
  156SOL    HW2  356   5.841   4.034   4.601  0.0844  0.3948  0.1920
  156SOL    HW3  357   5.983   3.985   4.581  0.0184  0.2494  0.0787
  156SOL    MW4  358   5.917   4.007   4.634 -0.5742  0.2955 -0.2750
  157SOL     OW  359   1.954   2.096   3.032 -0.2877 -0.2151 -0.0275
  157SOL    HW2  360   2.001   2.048   2.963 -0.3032  0.7964 -0.7761
  157SOL    HW3  361   2.017   2.103   3.104  0.2185 -0.1202 -0.4726
  157SOL    MW4  362   1.969   2.091   3.032 -0.1782 -0.6395 -0.2696
  158SOL     OW  363   2.876   6.350   3.510  0.0375 -0.0872  0.1645
  158SOL    HW2  364   2.950   6.341   3.571 -0.5829 -0.4517  0.8790
  158SOL    HW3  365   2.800   6.326   3.562 -0.6254  0.5788 -0.4788
  158SOL    MW4  366   2.876   6.346   3.525 -0.0677  0.2832 -0.0572
  159SOL     OW  367   4.104   1.319   1.736  0.6214  0.6350  0.5840
  159SOL    HW2  368   4.077   1.280   1.820 -2.3430  0.5549 -0.2736
  159SOL    HW3  369   4.138   1.246   1.685  1.5346  0.5010  1.3666
  159SOL    MW4  370   4.105   1.304   1.740  0.2570 -0.2765 -0.1543
  160SOL     OW  371   4.791   0.315   6.184  0.2954 -0.1051  0.1687
  160SOL    HW2  372   4.729   0.380   6.216 -0.3378  0.0136 -1.1972
  160SOL    HW3  373   4.877   0.352   6.202  0.0108 -0.2759  2.0937
  160SOL    MW4  374   4.794   0.328   6.190 -0.3287  0.3438 -0.2792
  161SOL     OW  375   3.127   0.810   1.572 -0.0493 -0.0850  0.2995
  161SOL    HW2  376   3.041   0.793   1.609  0.2938 -1.0935  0.6896
  161SOL    HW3  377   3.183   0.825   1.648 -0.2001  2.3550 -0.0016
  161SOL    MW4  378   3.123   0.809   1.587  0.2447  0.0824  0.9122
  162SOL     OW  379   1.664   0.156   3.695 -0.1517 -0.2475 -0.5253
  162SOL    HW2  380   1.579   0.196   3.677  0.1261  0.6123  0.0410
  162SOL    HW3  381   1.643   0.073   3.738 -0.7051 -0.0644 -0.4383
  162SOL    MW4  382   1.650   0.150   3.698 -0.1103  0.0899 -0.2290
  163SOL     OW  383   4.651   0.376   3.214  0.4022 -0.5540 -0.1447
  163SOL    HW2  384   4.694   0.436   3.153  0.5922 -2.2445 -1.7308
  163SOL    HW3  385   4.689   0.291   3.196  0.2078 -1.1956  2.1329
  163SOL    MW4  386   4.662   0.373   3.204 -0.1149 -0.2379  0.1235
  164SOL     OW  387   6.027   5.528   0.882  0.3486  0.3956  0.2124
  164SOL    HW2  388   6.038   5.593   0.951 -0.5188 -0.0972  0.8333
  164SOL    HW3  389   5.952   5.476   0.910 -0.3505  0.5027 -1.3473
  164SOL    MW4  390   6.019   5.530   0.895 -0.1269 -0.2044  0.2794
  165SOL     OW  391   4.510   6.084   5.293 -0.3957 -0.7091  0.0015
  165SOL    HW2  392   4.457   6.076   5.214 -1.2378  0.2593  0.4472
  165SOL    HW3  393   4.588   6.032   5.275 -1.8568 -2.9264 -0.3378
  165SOL    MW4  394   4.513   6.076   5.280  0.2035  0.0635 -0.1478
  166SOL     OW  395   4.402   0.480   3.347  0.2556  0.7111 -0.5002
  166SOL    HW2  396   4.482   0.436   3.320 -0.9575 -1.0726 -1.4513
  166SOL    HW3  397   4.356   0.499   3.266 -0.2639  1.8011  0.0226
  166SOL    MW4  398   4.406   0.477   3.333  0.2549  0.5450 -0.1679
  167SOL     OW  399   2.825   5.015   2.157  0.3554 -0.2045  0.3029
  167SOL    HW2  400   2.780   5.096   2.130  1.6883  1.3388  2.3791
  167SOL    HW3  401   2.798   5.002   2.248  0.7910 -1.6821  0.2441
  167SOL    MW4  402   2.815   5.024   2.165  0.6920  0.0940 -0.1217
  168SOL     OW  403   0.105   4.018   1.596  0.1936  0.7133  0.5146
  168SOL    HW2  404   0.058   4.032   1.514 -0.5133  0.0081  0.7924
  168SOL    HW3  405   0.101   3.924   1.611  0.7634  0.7766  1.0949
  168SOL    MW4  406   0.098   4.008   1.587 -0.4593  0.0343  0.5633
  169SOL     OW  407   4.406   1.864   3.757 -0.0364  0.0455 -0.7721
  169SOL    HW2  408   4.377   1.929   3.693  0.6148  0.1146 -1.0019
  169SOL    HW3  409   4.447   1.915   3.826 -0.5501 -0.0451 -0.3861
  169SOL    MW4  410   4.407   1.879   3.758  0.0870  0.1469 -0.5524
  170SOL     OW  411   4.775   5.696   2.564  0.4671  0.6093 -0.3428
  170SOL    HW2  412   4.707   5.700   2.497  0.6884  1.2489 -0.5433
  170SOL    HW3  413   4.761   5.775   2.617  0.9997  0.7091 -0.3389
  170SOL    MW4  414   4.765   5.707   2.562  0.1449 -0.3277  0.6743
  171SOL     OW  415   1.837   5.938   0.931  0.6161 -0.3795  0.5737
  171SOL    HW2  416   1.784   6.018   0.933 -2.6221 -2.3455  2.0138
  171SOL    HW3  417   1.923   5.966   0.961  0.6958  3.1306 -2.3061
  171SOL    MW4  418   1.841   5.953   0.936  0.2828 -0.0349  0.4447
  172SOL     OW  419   1.575   3.810   5.132 -0.1230 -0.1900 -0.6906
  172SOL    HW2  420   1.489   3.838   5.162 -0.5419 -2.8491  0.9737
  172SOL    HW3  421   1.558   3.768   5.048 -1.0767 -3.1168  0.8099
  172SOL    MW4  422   1.562   3.808   5.125  0.6388  0.3872 -0.5864
  173SOL     OW  423   3.763   5.613   6.121  0.1740 -0.1724  0.1539
  173SOL    HW2  424   3.695   5.680   6.114  0.1069 -0.2679 -0.1310
  173SOL    HW3  425   3.730   5.540   6.068  0.7548  0.0010 -0.4592
  173SOL    MW4  426   3.750   5.612   6.113  0.7515  0.3519 -0.5103
  174SOL     OW  427   2.696   4.088   3.709 -0.1335 -0.4373  0.2300
  174SOL    HW2  428   2.640   4.157   3.671 -0.3763 -1.0765 -0.5932
  174SOL    HW3  429   2.657   4.071   3.795 -0.5250 -0.0725  0.1300
  174SOL    MW4  430   2.683   4.095   3.716  0.5316  0.1647 -0.0082
  175SOL     OW  431   4.244   3.950   4.753 -0.3062 -0.2011  0.2284
  175SOL    HW2  432   4.207   3.964   4.840  0.1118  0.4245  0.3114
  175SOL    HW3  433   4.167   3.938   4.697 -0.6022  0.0296  0.5777
  175SOL    MW4  434   4.229   3.950   4.757  0.1448  0.1559  0.0210
  176SOL     OW  435   2.790   4.170   0.187  0.2061  0.6153 -0.0163
  176SOL    HW2  436   2.798   4.148   0.094  0.2762 -1.0248  0.3485
  176SOL    HW3  437   2.839   4.101   0.232 -1.6616  0.0842  1.3482
  176SOL    MW4  438   2.797   4.158   0.181 -0.0263 -0.2066  0.0860
  177SOL     OW  439   5.802   3.036   1.412 -0.4115  0.6680  0.0231
  177SOL    HW2  440   5.844   3.086   1.342 -0.9704  0.0612 -0.7473
  177SOL    HW3  441   5.719   3.081   1.426 -1.4304 -0.6757 -1.4560
  177SOL    MW4  442   5.797   3.049   1.405  0.5668  0.7294  0.0556
  178SOL     OW  443   3.771   5.315   4.378 -0.2016  0.0614 -0.2337
  178SOL    HW2  444   3.688   5.282   4.413 -1.1549  0.2481 -2.1926
  178SOL    HW3  445   3.813   5.238   4.339  0.3161  0.0705  0.2901
  178SOL    MW4  446   3.766   5.301   4.378 -0.1970 -0.0369  0.0387
  179SOL     OW  447   2.188   3.181   3.771  0.6619  0.3788 -0.0888
  179SOL    HW2  448   2.098   3.155   3.751  0.5489 -0.1387  0.9995
  179SOL    HW3  449   2.242   3.113   3.730  0.4971  0.1070  0.1327
  179SOL    MW4  450   2.183   3.168   3.763 -0.2225  0.2377  0.1524
  180SOL     OW  451   0.570   1.390   6.267 -0.0286  0.2844 -0.3200
  180SOL    HW2  452   0.521   1.402   6.186  0.3810  0.4677 -0.5449
  180SOL    HW3  453   0.534   1.311   6.306 -0.2195  0.1895 -0.6896
  180SOL    MW4  454   0.559   1.382   6.262  0.7520  0.4261  0.1536
  181SOL     OW  455   3.904   6.355   1.356 -0.4342 -0.0597  0.4213
  181SOL    HW2  456   3.923   6.441   1.393  3.1219  0.0118 -1.1690
  181SOL    HW3  457   3.954   6.294   1.410  0.9291 -0.4937 -1.2419
  181SOL    MW4  458   3.913   6.358   1.368 -0.2244  1.2143  0.4752
  182SOL     OW  459   0.748   3.358   3.300  0.3949  0.0172  0.3892
  182SOL    HW2  460   0.759   3.360   3.395  0.5223 -0.6122  0.3975
  182SOL    HW3  461   0.815   3.417   3.267  0.2840  0.3162  0.6965
  182SOL    MW4  462   0.759   3.366   3.308  0.2882 -0.2709 -0.4283
  183SOL     OW  463   0.776   3.458   2.023 -0.3258  0.0966  0.1913
  183SOL    HW2  464   0.701   3.517   2.023  0.2861  0.9044  0.1379
  183SOL    HW3  465   0.795   3.443   2.116  0.1914  0.9018  0.2318
  183SOL    MW4  466   0.769   3.464   2.035  0.5370 -0.0481  0.0292
  184SOL     OW  467   0.829   4.414   2.893  0.0929 -0.4247  0.1498
  184SOL    HW2  468   0.845   4.469   2.970 -1.8872 -1.6821  1.5616
  184SOL    HW3  469   0.916   4.404   2.853  0.8441  1.9697  0.9877
  184SOL    MW4  470   0.843   4.420   2.898 -0.0375 -0.0756  0.3904
  185SOL     OW  471   5.096   6.161   4.712 -0.0605  0.0873  0.1060
  185SOL    HW2  472   5.064   6.073   4.694 -1.9033  0.5615  0.8151
  185SOL    HW3  473   5.178   6.147   4.761  1.1945 -1.1674 -2.1927
  185SOL    MW4  474   5.103   6.148   4.716 -0.0753 -0.1273 -0.2142
  186SOL     OW  475   0.431   2.894   4.779  0.1171  0.1720  0.3748
  186SOL    HW2  476   0.434   2.940   4.863 -0.0362 -0.0368  0.4963
  186SOL    HW3  477   0.350   2.926   4.737 -0.1740 -0.2443  0.6110
  186SOL    MW4  478   0.420   2.904   4.785  0.6599 -0.1646  0.3425
  187SOL     OW  479   5.466   2.041   3.856 -0.5302 -0.2058 -0.3151
  187SOL    HW2  480   5.429   2.053   3.768 -0.8469 -0.2117 -0.1832
  187SOL    HW3  481   5.515   1.958   3.850  2.3032  1.4043 -1.4450
  187SOL    MW4  482   5.467   2.031   3.843  0.1137 -0.3673  0.0876
  188SOL     OW  483   2.843   4.073   3.483 -0.2345 -0.5600 -0.5526
  188SOL    HW2  484   2.937   4.075   3.499 -0.4568 -0.8144  0.8307
  188SOL    HW3  485   2.803   4.096   3.566 -1.4076 -0.6163 -1.0779
  188SOL    MW4  486   2.850   4.076   3.496  0.4002 -0.2793  0.8919
  189SOL     OW  487   3.862   1.764   1.457  0.1365 -0.0933 -0.1670
  189SOL    HW2  488   3.857   1.859   1.462  1.3262 -0.0648  1.3353
  189SOL    HW3  489   3.953   1.743   1.478 -0.5476 -1.6288  1.6294
  189SOL    MW4  490   3.873   1.773   1.461  0.2289  0.1325 -0.3643
  190SOL     OW  491   5.402   0.021   0.327 -0.1165  0.0381  0.0299
  190SOL    HW2  492   5.485   0.060   0.301 -0.8250  1.6792  0.1392
  190SOL    HW3  493   5.344   0.095   0.342 -1.0452 -1.0102  1.8768
  190SOL    MW4  494   5.405   0.036   0.325  0.5169  0.0683  0.3080
  191SOL     OW  495   1.024   1.008   4.946  0.2293 -0.1586 -0.2069
  191SOL    HW2  496   1.040   1.027   4.853  0.4445  1.1195  0.0756
  191SOL    HW3  497   0.934   1.036   4.961  0.4177  0.2863  0.1245
  191SOL    MW4  498   1.015   1.015   4.935  0.4994 -0.2305 -0.8697
  192SOL     OW  499   5.836   0.831   5.575  0.1370  0.4163 -0.2371
  192SOL    HW2  500   5.874   0.902   5.625  0.1703  0.1272  0.1572
  192SOL    HW3  501   5.850   0.753   5.629  0.1851  0.0967 -0.7031
  192SOL    MW4  502   5.843   0.830   5.589 -0.1009 -0.3545  0.3503
  193SOL     OW  503   3.965   5.509   0.639 -0.0653 -0.3411  0.0800
  193SOL    HW2  504   3.918   5.581   0.682 -0.3902 -0.9620  0.7936
  193SOL    HW3  505   3.963   5.438   0.703  2.0961 -0.3161  0.2502
  193SOL    MW4  506   3.959   5.509   0.653  0.6796  0.0337  0.3108
  194SOL     OW  507   2.907   2.729   5.006  0.0576  0.6565 -0.5942
  194SOL    HW2  508   2.951   2.676   4.940 -2.3500 -2.2010 -0.1421
  194SOL    HW3  509   2.822   2.751   4.967 -1.2806 -0.8065  1.2838
  194SOL    MW4  510   2.901   2.725   4.992  0.3172 -0.0779 -0.3306
  195SOL     OW  511   5.302   0.425   2.621 -0.4657 -0.3275 -0.0798
  195SOL    HW2  512   5.296   0.358   2.552  1.0609 -0.1688 -0.4148
  195SOL    HW3  513   5.254   0.500   2.586 -0.5519 -0.5953 -0.5518
  195SOL    MW4  514   5.295   0.426   2.607 -0.0433 -0.5748 -1.2540
  196SOL     OW  515   0.278   0.701   4.039  0.7808  0.3382 -0.1129
  196SOL    HW2  516   0.349   0.762   4.060 -0.5575  2.6081 -1.7230
  196SOL    HW3  517   0.295   0.673   3.950 -0.2211  0.8160 -0.4795
  196SOL    MW4  518   0.289   0.705   4.030 -0.0514  0.6101  0.0621
  197SOL     OW  519   6.425   5.578   2.880 -0.5619  0.5297 -0.2315
  197SOL    HW2  520   6.376   5.603   2.958 -1.5355 -0.6634 -0.4289
  197SOL    HW3  521   6.517   5.583   2.907 -0.7924  2.2805  0.3030
  197SOL    MW4  522   6.431   5.582   2.894 -0.6373  0.5415 -0.2419
  198SOL     OW  523   0.751   0.312   0.936 -0.0402 -1.0091 -0.3240
  198SOL    HW2  524   0.744   0.347   1.025 -4.0368 -0.6333 -0.6179
  198SOL    HW3  525   0.720   0.382   0.879  1.0250 -1.7655 -1.9249
  198SOL    MW4  526   0.746   0.326   0.940  0.2807  0.5160  0.0931
  199SOL     OW  527   3.728   3.864   1.028 -0.0148 -0.4003 -0.0275
  199SOL    HW2  528   3.692   3.812   0.957 -1.1656  0.2840  0.0215
  199SOL    HW3  529   3.700   3.818   1.108 -1.7423  0.6928  0.0345
  199SOL    MW4  530   3.719   3.851   1.029  0.2698  1.0700 -0.3846
  200SOL     OW  531   1.942   4.606   6.201  0.1234 -0.2847  0.6710
  200SOL    HW2  532   1.957   4.603   6.296  0.9934  0.6921  0.5843
  200SOL    HW3  533   1.886   4.683   6.189  0.4719 -0.0768  0.3476
  200SOL    MW4  534   1.936   4.616   6.212 -0.1243 -0.3816  0.4815
  201SOL     OW  535   3.553   2.670   2.650  0.6532 -0.0803 -0.4294
  201SOL    HW2  536   3.528   2.677   2.557 -0.0112 -1.4013 -0.3575
  201SOL    HW3  537   3.470   2.672   2.697  0.8095 -1.7621 -0.0249
  201SOL    MW4  538   3.539   2.672   2.644 -0.1090 -1.0107 -1.3369
  202SOL     OW  539   4.343   2.759   0.211  0.6594 -0.3305 -0.2161
  202SOL    HW2  540   4.393   2.831   0.172  0.0819  0.5238  0.5724
  202SOL    HW3  541   4.403   2.718   0.272  0.7214  0.0669 -0.0047
  202SOL    MW4  542   4.357   2.763   0.214 -0.6245 -0.4734  0.8312
  203SOL     OW  543   1.346   4.385   2.022  0.0868  0.3802 -0.1211
  203SOL    HW2  544   1.337   4.430   2.106 -1.0444 -2.0471  1.1582
  203SOL    HW3  545   1.438   4.396   1.999 -0.1999  3.6424 -0.1751
  203SOL    MW4  546   1.357   4.392   2.030 -0.7152 -0.4500 -0.1223
  204SOL     OW  547   4.401   2.885   6.205 -0.5212 -0.3199 -0.9028
  204SOL    HW2  548   4.443   2.912   6.123 -1.0752 -0.2481 -1.1638
  204SOL    HW3  549   4.465   2.829   6.248 -0.2406 -0.3749 -1.3964
  204SOL    MW4  550   4.415   2.881   6.200  0.1254  0.1445 -0.1036
  205SOL     OW  551   4.099   1.771   2.639 -0.2625  0.3631 -0.2063
  205SOL    HW2  552   4.177   1.734   2.598 -0.7906 -0.6982 -0.2833
  205SOL    HW3  553   4.129   1.854   2.676  1.7096 -1.3915  2.4796
  205SOL    MW4  554   4.113   1.777   2.638  0.4193 -0.3699  0.1394
  206SOL     OW  555   1.205   6.338   4.071 -0.0021 -0.5771  0.2497
  206SOL    HW2  556   1.126   6.292   4.043 -0.2647 -0.8452  1.3950
  206SOL    HW3  557   1.276   6.276   4.055 -0.1860 -0.8429  0.4664
  206SOL    MW4  558   1.204   6.324   4.065  0.6297  0.1335  0.8510
  207SOL     OW  559   3.931   5.281   3.418 -1.1833 -0.0358  0.0498
  207SOL    HW2  560   4.015   5.257   3.459 -1.3563 -0.4084  0.1916
  207SOL    HW3  561   3.873   5.209   3.440 -1.0532 -0.6757 -1.5588
  207SOL    MW4  562   3.935   5.268   3.426 -0.1162 -0.3372 -1.1249
  208SOL     OW  563   2.311   1.458   0.265 -0.6695 -0.0673  0.0377
  208SOL    HW2  564   2.362   1.473   0.185  1.3773  0.6211  1.3895
  208SOL    HW3  565   2.314   1.363   0.277  2.6000  0.0699  1.3816
  208SOL    MW4  566   2.318   1.447   0.256 -0.3047  0.1708 -0.4894
  209SOL     OW  567   4.462   1.734   3.267  0.0914  0.7722 -0.0608
  209SOL    HW2  568   4.534   1.684   3.306  0.0313 -0.8560 -1.8717
  209SOL    HW3  569   4.390   1.724   3.329  0.4285 -0.4955  0.1711
  209SOL    MW4  570   4.462   1.726   3.280 -0.0956  0.0791  0.0483
  210SOL     OW  571   3.204   0.876   0.299 -0.5329  0.5034 -0.0451
  210SOL    HW2  572   3.176   0.880   0.390  0.8658 -2.0853  0.5871
  210SOL    HW3  573   3.270   0.946   0.292 -0.4464  0.5476  1.0023
  210SOL    MW4  574   3.209   0.886   0.310  0.4830 -0.1556 -0.0356
  211SOL     OW  575   2.508   2.267   2.869 -0.1887 -0.1743  0.1877
  211SOL    HW2  576   2.506   2.356   2.833  1.8630 -0.3558 -0.5405
  211SOL    HW3  577   2.432   2.262   2.926 -0.4560  2.0009  0.1052
  211SOL    MW4  578   2.498   2.278   2.872 -0.2623 -0.4153 -0.0677
  212SOL     OW  579   3.115   5.844   4.335 -0.2791  0.1896  0.0139
  212SOL    HW2  580   3.113   5.900   4.412  0.6702 -0.3543  0.4510
  212SOL    HW3  581   3.097   5.903   4.262 -0.8193  0.7757  0.6041
  212SOL    MW4  582   3.112   5.859   4.335 -0.5943 -0.5576  0.2272
  213SOL     OW  583   1.219   4.596   4.409 -0.4243 -0.0004 -0.0510
  213SOL    HW2  584   1.182   4.560   4.489 -1.1376  2.2394  0.6899
  213SOL    HW3  585   1.292   4.651   4.439 -0.4139  0.5019 -0.9689
  213SOL    MW4  586   1.224   4.598   4.423  0.2588  0.1528  0.1925
  214SOL     OW  587   1.548   2.341   2.971 -0.1656  0.0101  0.5368
  214SOL    HW2  588   1.511   2.336   2.883 -0.1836  0.0215  0.5439
  214SOL    HW3  589   1.643   2.340   2.956 -0.1621 -0.6630  0.5503
  214SOL    MW4  590   1.556   2.340   2.957 -0.2329 -0.3448 -0.2060
  215SOL     OW  591   4.018   3.020   5.265 -0.4756 -0.5856 -0.1371
  215SOL    HW2  592   3.934   2.975   5.269  0.7459 -3.2355 -1.7720
  215SOL    HW3  593   3.998   3.104   5.223 -2.0978 -1.8140 -1.9731
  215SOL    MW4  594   4.004   3.025   5.260  1.0414  0.0522  0.5414
  216SOL     OW  595   6.424   2.139   1.941 -0.5322 -0.1549 -0.1179
  216SOL    HW2  596   6.484   2.159   2.013  0.1676 -0.9177 -0.4697
  216SOL    HW3  597   6.422   2.044   1.937 -4.3901 -0.3588  2.0463
  216SOL    MW4  598   6.432   2.129   1.950 -0.2688 -0.0792  0.5126
  217SOL     OW  599   2.591   0.143   0.769  0.3190  0.3209 -0.2242
  217SOL    HW2  600   2.678   0.104   0.764  0.4458  0.7588 -2.8851
  217SOL    HW3  601   2.601   0.217   0.828  1.7784  0.3622 -0.4793
  217SOL    MW4  602   2.603   0.147   0.776  0.2556  0.0067  0.0464
  218SOL     OW  603   1.462   3.103   1.026 -0.0106  0.2202 -0.9212
  218SOL    HW2  604   1.386   3.061   0.987  0.5533 -0.9568 -0.7929
  218SOL    HW3  605   1.536   3.046   1.003  0.2514 -1.0617  2.4999
  218SOL    MW4  606   1.462   3.090   1.018  0.5904 -0.2739 -0.2659
  219SOL     OW  607   3.651   2.377   3.538  0.9089 -0.4278 -0.9023
  219SOL    HW2  608   3.632   2.295   3.584  1.1764 -0.4890 -0.8986
  219SOL    HW3  609   3.590   2.378   3.465  1.5528 -1.1096 -1.4743
  219SOL    MW4  610   3.641   2.366   3.535  0.0965 -0.4896  0.1820
  220SOL     OW  611   2.797   4.041   3.004  0.2329  0.7307 -0.4367
  220SOL    HW2  612   2.796   3.972   2.937  1.1545 -0.3011  0.5810
  220SOL    HW3  613   2.890   4.058   3.020  0.0597  0.0344  1.4958
  220SOL    MW4  614   2.809   4.034   2.997 -0.5304  0.2259 -0.0151
  221SOL     OW  615   5.727   5.372   1.291 -0.0215 -0.2560 -0.4545
  221SOL    HW2  616   5.701   5.291   1.247 -0.8991 -0.3017  0.1152
  221SOL    HW3  617   5.818   5.359   1.316  0.4614 -0.2724 -2.1380
  221SOL    MW4  618   5.735   5.360   1.289 -0.5290 -0.0050  0.5137
  222SOL     OW  619   2.351   1.831   3.770 -0.5241  0.0482 -0.3049
  222SOL    HW2  620   2.339   1.792   3.856 -1.5330  0.1467 -0.3840
  222SOL    HW3  621   2.411   1.773   3.724  0.6269  0.4059  0.7197
  222SOL    MW4  622   2.357   1.818   3.775 -0.4905  0.2789 -0.5631
  223SOL     OW  623   0.474   0.990   5.688  0.1141  0.0098  0.1315
  223SOL    HW2  624   0.465   1.049   5.613  2.2810  1.0256  0.5927
  223SOL    HW3  625   0.398   1.011   5.744  0.1602  1.4960 -0.3083
  223SOL    MW4  626   0.463   1.001   5.686 -0.4485 -0.1073 -0.2313
  224SOL     OW  627   4.303   2.234   5.984  0.4532  0.3541 -0.1520
  224SOL    HW2  628   4.356   2.314   5.989  1.0196 -0.0484  3.7037
  224SOL    HW3  629   4.215   2.262   6.011 -0.0619  0.0955 -1.4806
  224SOL    MW4  630   4.298   2.248   5.988  0.0385  0.4426  1.0387
  225SOL     OW  631   4.604   4.378   3.933  0.1004  0.0085 -0.7379
  225SOL    HW2  632   4.523   4.394   3.982 -0.4459 -0.8696 -1.3307
  225SOL    HW3  633   4.610   4.452   3.873  0.8786  1.2058  0.7339
  225SOL    MW4  634   4.594   4.390   3.932 -0.0225  0.6041 -0.3712
  226SOL     OW  635   6.418   6.025   1.658  0.0621 -0.6890  0.4163
  226SOL    HW2  636   6.362   6.016   1.581  1.2886 -0.2112 -0.5506
  226SOL    HW3  637   6.504   6.049   1.624  0.7326 -0.8224  1.9087
  226SOL    MW4  638   6.422   6.027   1.644  0.2140 -0.6857 -0.4364
  227SOL     OW  639   0.932   6.385   5.404 -0.0813 -0.1099 -0.0928
  227SOL    HW2  640   0.925   6.358   5.495 -0.6262  0.7396  0.1279
  227SOL    HW3  641   0.847   6.423   5.383  0.1733  0.0763 -0.8338
  227SOL    MW4  642   0.920   6.386   5.413 -0.3386  0.6921 -0.2859
  228SOL     OW  643   3.354   6.391   2.395 -0.1300 -0.2996 -0.0401
  228SOL    HW2  644   3.409   6.373   2.470  0.3987  0.3187 -0.2687
  228SOL    HW3  645   3.295   6.461   2.424  0.0522 -0.0838 -0.1790
  228SOL    MW4  646   3.354   6.398   2.409  0.5360  0.4888  0.0962
  229SOL     OW  647   5.150   2.699   4.747 -0.3310  0.2530 -0.3442
  229SOL    HW2  648   5.181   2.725   4.661 -1.1471  1.4094 -0.3166
  229SOL    HW3  649   5.191   2.761   4.807  0.3873 -0.6667  0.1334
  229SOL    MW4  650   5.159   2.711   4.744 -0.2913  0.1778 -0.0154
  230SOL     OW  651   1.560   3.048   0.235  0.1200 -0.8452  0.0286
  230SOL    HW2  652   1.565   3.108   0.160  1.7243 -1.0198 -0.0527
  230SOL    HW3  653   1.505   3.094   0.299 -0.7034 -0.3912 -0.9843
  230SOL    MW4  654   1.554   3.062   0.234 -0.0660 -0.0585  0.3548
  231SOL     OW  655   1.418   5.633   0.802  0.0284  0.1980  0.2003
  231SOL    HW2  656   1.468   5.574   0.746  0.9779  1.4424 -0.3041
  231SOL    HW3  657   1.465   5.716   0.798 -0.8400  0.7879  1.5042
  231SOL    MW4  658   1.431   5.636   0.794 -0.3496  0.1211 -0.0336
  232SOL     OW  659   5.844   0.868   1.419 -0.1760  0.0870 -0.0110
  232SOL    HW2  660   5.817   0.900   1.505  1.6321 -0.2594  0.7141
  232SOL    HW3  661   5.798   0.784   1.410 -0.0480 -0.0829  0.8126
  232SOL    MW4  662   5.834   0.861   1.429 -0.3368  0.0923  0.1710
  233SOL     OW  663   5.212   1.361   2.780 -0.1505 -0.2391  0.0935
  233SOL    HW2  664   5.284   1.373   2.842 -1.0009  1.0508  0.8901
  233SOL    HW3  665   5.171   1.447   2.774 -1.0977 -0.7434 -1.0145
  233SOL    MW4  666   5.216   1.374   2.788  0.3883  0.5868  0.2968
  234SOL     OW  667   2.973   2.182   5.576 -0.1958  0.2328  0.5392
  234SOL    HW2  668   3.026   2.104   5.592  0.6364  0.9742  1.5131
  234SOL    HW3  669   2.953   2.178   5.482  1.6378 -0.0534  0.1273
  234SOL    MW4  670   2.977   2.171   5.566  0.4682 -0.3177  0.2281
  235SOL     OW  671   0.577   5.009   3.128 -0.1353 -0.5451  0.9572
  235SOL    HW2  672   0.565   5.104   3.120 -1.6196 -0.6756  1.2540
  235SOL    HW3  673   0.671   4.996   3.123  0.3206  1.1837  3.4281
  235SOL    MW4  674   0.588   5.020   3.126 -0.2190 -0.1983 -0.5413
  236SOL     OW  675   3.534   2.885   1.071  0.4923 -0.2161  0.1206
  236SOL    HW2  676   3.604   2.913   1.012  2.0810 -2.0274  1.0337
  236SOL    HW3  677   3.512   2.796   1.042 -1.0741  0.1109  0.2093
  236SOL    MW4  678   3.540   2.877   1.059 -0.0980 -0.0286  0.9375
  237SOL     OW  679   6.067   5.415   4.389 -0.1553  0.5190 -0.0465
  237SOL    HW2  680   6.084   5.492   4.443  1.3054 -0.5247  1.0795
  237SOL    HW3  681   6.097   5.341   4.442 -2.2257 -0.9377 -0.7657
  237SOL    MW4  682   6.074   5.415   4.403  0.0559 -0.5102 -0.5349
  238SOL     OW  683   1.726   2.306   1.706 -0.1813 -0.0981  0.3681
  238SOL    HW2  684   1.659   2.358   1.662 -1.0691 -0.9004  0.7266
  238SOL    HW3  685   1.748   2.237   1.644  0.5474  0.3356  0.1330
  238SOL    MW4  686   1.720   2.304   1.692 -0.0824  0.0230 -0.0692
  239SOL     OW  687   6.400   3.511   0.863 -0.1904  0.5474 -0.6000
  239SOL    HW2  688   6.457   3.475   0.795  2.2959  0.1822  1.5169
  239SOL    HW3  689   6.442   3.487   0.945 -2.0130  2.6267  1.0808
  239SOL    MW4  690   6.413   3.503   0.865  0.2240 -0.1365 -0.4094
  240SOL     OW  691   2.520   2.547   5.406 -0.3456  0.0975  0.5830
  240SOL    HW2  692   2.586   2.585   5.464  0.2321 -0.1549  0.1146
  240SOL    HW3  693   2.572   2.508   5.335 -1.0564  1.1045 -0.5222
  240SOL    MW4  694   2.536   2.547   5.404 -0.4753 -0.2859  0.2147
  241SOL     OW  695   0.014   0.212   1.315 -0.9239  0.1946 -0.2233
  241SOL    HW2  696   0.100   0.249   1.294 -0.4345 -1.0630 -0.5127
  241SOL    HW3  697  -0.028   0.200   1.230 -1.2261  0.4163 -0.1075
  241SOL    MW4  698   0.020   0.215   1.301 -0.3753 -0.7117  0.0055
  242SOL     OW  699   2.874   2.943   4.219 -0.3020 -0.0867 -0.0847
  242SOL    HW2  700   2.884   2.997   4.297  1.7312 -0.0850 -0.3007
  242SOL    HW3  701   2.922   2.989   4.151  2.7811 -2.7605  0.0659
  242SOL    MW4  702   2.881   2.956   4.220  0.3237 -0.0530  0.0923
  243SOL     OW  703   3.694   5.806   5.548  0.1316  0.3096 -0.2567
  243SOL    HW2  704   3.693   5.714   5.573 -0.3819  0.7868  1.6494
  243SOL    HW3  705   3.646   5.808   5.464  0.9373 -1.2368 -0.7961
  243SOL    MW4  706   3.687   5.794   5.540 -0.3094 -0.5452 -0.1280
  244SOL     OW  707   3.948   4.923   1.055  0.3533 -0.0519  0.0116
  244SOL    HW2  708   3.919   4.955   1.141  0.4006  0.7408 -0.2560
  244SOL    HW3  709   3.910   4.836   1.047  0.9751 -0.4483  1.1611
  244SOL    MW4  710   3.940   4.916   1.065  0.4053 -0.2316 -0.2184
  245SOL     OW  711   4.695   0.626   3.513  0.1320 -0.1292 -0.5847
  245SOL    HW2  712   4.759   0.598   3.448 -0.6528 -1.5264 -0.7850
  245SOL    HW3  713   4.748   0.665   3.583  1.2583 -1.7028 -0.5062
  245SOL    MW4  714   4.711   0.628   3.514  0.1446  0.6304  0.0955
  246SOL     OW  715   2.374   3.172   0.779 -0.3727  1.1195  0.1281
  246SOL    HW2  716   2.318   3.148   0.852 -0.6304 -1.5120 -0.8332
  246SOL    HW3  717   2.419   3.091   0.755  1.6796  2.4831 -0.9849
  246SOL    MW4  718   2.373   3.158   0.785  0.0896 -0.0076  0.5941
  247SOL     OW  719   3.434   5.769   1.938 -0.0406 -0.1028  0.4086
  247SOL    HW2  720   3.403   5.731   1.856  0.1546 -1.8477  1.0929
  247SOL    HW3  721   3.365   5.749   2.001 -0.4406  1.6896  0.5939
  247SOL    MW4  722   3.421   5.761   1.935  0.0751  0.2433 -0.0893
  248SOL     OW  723   1.402   5.730   5.609 -0.1514  0.3210 -0.7106
  248SOL    HW2  724   1.393   5.706   5.517 -0.3194  2.4299 -1.3001
  248SOL    HW3  725   1.477   5.680   5.640 -0.7970 -1.2828 -1.6629
  248SOL    MW4  726   1.411   5.720   5.601  0.0693  0.2964 -0.3448
  249SOL     OW  727   1.636   2.548   1.247  0.4646 -0.0047 -0.3513
  249SOL    HW2  728   1.565   2.612   1.238 -0.1983 -0.4737  1.1307
  249SOL    HW3  729   1.675   2.567   1.332  0.6647 -1.1625 -0.1721
  249SOL    MW4  730   1.631   2.559   1.257 -0.4550  0.2576 -0.4190
  250SOL     OW  731   0.080   3.394   1.082  0.0968  1.0128  0.1110
  250SOL    HW2  732   0.127   3.429   1.158 -0.9553  1.5630  0.5362
  250SOL    HW3  733   0.027   3.323   1.117  0.6931  0.3165 -0.3849
  250SOL    MW4  734   0.079   3.389   1.097  0.1695  0.0689 -0.1331
  251SOL     OW  735   5.974   5.375   0.625 -0.0516 -0.1044 -0.0914
  251SOL    HW2  736   5.948   5.397   0.714 -0.2796  0.6293 -0.3295
  251SOL    HW3  737   6.058   5.418   0.612  0.2195 -0.6194 -0.0701
  251SOL    MW4  738   5.981   5.384   0.635 -0.7205  0.5070 -0.2058
  252SOL     OW  739   5.028   5.179   0.503 -0.0760  0.4751  0.2439
  252SOL    HW2  740   4.972   5.104   0.485 -0.2505  0.6477  0.0679
  252SOL    HW3  741   5.112   5.141   0.528 -0.0728  0.2224 -0.1427
  252SOL    MW4  742   5.032   5.164   0.504  0.0646  0.2019 -0.2009
  253SOL     OW  743   2.468   5.488   6.324  0.0501  0.7254 -0.6193
  253SOL    HW2  744   2.411   5.411   6.329 -0.2869  0.9246 -1.3529
  253SOL    HW3  745   2.537   5.470   6.389  0.5948 -0.7111 -1.5406
  253SOL    MW4  746   2.470   5.475   6.333 -0.0133 -0.0873 -0.1018
  254SOL     OW  747   5.148   2.934   4.938 -0.5355  1.0460 -0.1424
  254SOL    HW2  748   5.216   2.994   4.967 -0.0271  0.3683  0.0898
  254SOL    HW3  749   5.115   2.894   5.018 -0.7783  0.9073 -0.3081
  254SOL    MW4  750   5.152   2.937   4.952  0.3192 -0.3025 -0.7561
  255SOL     OW  751   5.156   5.559   3.880 -0.2214 -0.4965  0.1713
  255SOL    HW2  752   5.138   5.598   3.965  0.3670 -0.3559  0.2338
  255SOL    HW3  753   5.076   5.512   3.858 -0.9748  0.7981  0.0515
  255SOL    MW4  754   5.143   5.558   3.888  0.3541 -0.1765 -0.1549
  256SOL     OW  755   1.827   1.823   1.495 -0.0864 -0.7832 -0.2364
  256SOL    HW2  756   1.871   1.886   1.552 -1.4199  2.6405 -2.6782
  256SOL    HW3  757   1.750   1.796   1.546 -0.4504  1.0092  0.2530
  256SOL    MW4  758   1.822   1.828   1.509 -0.0432  0.3925 -0.0280
  257SOL     OW  759   4.274   4.127   2.903 -0.6369  0.1433 -0.4193
  257SOL    HW2  760   4.179   4.136   2.894 -0.7014  0.2484  0.3418
  257SOL    HW3  761   4.307   4.216   2.896 -0.3794 -0.0701 -2.8236
  257SOL    MW4  762   4.266   4.140   2.901 -0.2028  0.2638 -0.1677
  258SOL     OW  763   3.134   0.874   2.494 -0.0813  0.0981 -0.1178
  258SOL    HW2  764   3.080   0.832   2.561  1.4485 -0.7364  0.6644
  258SOL    HW3  765   3.106   0.834   2.411 -0.2495 -0.7592  0.3441
  258SOL    MW4  766   3.123   0.863   2.492 -0.1741 -0.1665  0.1677
  259SOL     OW  767   5.613   1.798   3.831 -0.0772 -0.3365  0.0934
  259SOL    HW2  768   5.689   1.852   3.814 -0.1243 -0.1688  0.4110
  259SOL    HW3  769   5.641   1.738   3.900 -0.9358  1.2878  1.9459
  259SOL    MW4  770   5.627   1.797   3.838  0.0413 -0.1709  0.0341
  260SOL     OW  771   3.642   2.673   1.516 -0.0899 -0.5506  0.2041
  260SOL    HW2  772   3.669   2.590   1.556  1.1791  0.2007  0.9820
  260SOL    HW3  773   3.682   2.671   1.429 -0.0155 -0.7340  0.2404
  260SOL    MW4  774   3.651   2.662   1.510  0.6946 -0.2577 -0.7488
  261SOL     OW  775   6.094   1.391   4.440  0.1401 -0.1593  0.4077
  261SOL    HW2  776   6.149   1.419   4.367  0.1471  1.2102  0.9002
  261SOL    HW3  777   6.140   1.317   4.478 -0.0684 -1.1622 -1.2017
  261SOL    MW4  778   6.107   1.385   4.436  0.2811 -0.7293 -0.1719
  262SOL     OW  779   6.398   4.092   0.661  0.3500 -0.0532 -0.0207
  262SOL    HW2  780   6.309   4.090   0.698 -0.5116 -0.8556 -1.9565
  262SOL    HW3  781   6.447   4.149   0.720 -1.5061  0.5979  1.0081
  262SOL    MW4  782   6.393   4.099   0.673  0.2999  0.3443 -0.0867
  263SOL     OW  783   4.203   5.203   3.489 -0.6305 -0.0398  0.2103
  263SOL    HW2  784   4.259   5.269   3.447  0.6698 -0.9582  0.4298
  263SOL    HW3  785   4.222   5.212   3.582 -0.3503 -0.7868  0.2313
  263SOL    MW4  786   4.213   5.213   3.496  0.1136  0.8795 -0.1087
  264SOL     OW  787   1.578   3.401   0.232  0.5472  0.5439  0.2722
  264SOL    HW2  788   1.649   3.382   0.171  0.8685  2.3352  0.0369
  264SOL    HW3  789   1.504   3.423   0.175  0.2120  0.0928  0.5297
  264SOL    MW4  790   1.577   3.401   0.216 -0.3419 -0.6383  0.1586
  265SOL     OW  791   5.234   2.028   1.957 -0.1350 -0.3907  0.3327
  265SOL    HW2  792   5.252   2.043   2.050  0.8211 -0.7709  0.2274
  265SOL    HW3  793   5.140   2.041   1.947  0.1850  3.0957  0.7146
  265SOL    MW4  794   5.224   2.032   1.968 -0.1373 -0.7336  0.0504
  266SOL     OW  795   2.771   1.874   6.300  0.2353  0.5422 -0.2504
  266SOL    HW2  796   2.783   1.781   6.280  1.6181  0.6905 -0.2135
  266SOL    HW3  797   2.703   1.875   6.366  1.8085 -0.6715  1.5203
  266SOL    MW4  798   2.764   1.862   6.306 -0.5048  0.1235 -0.5063
  267SOL     OW  799   1.738   4.398   2.189  0.1006 -0.5128  0.5375
  267SOL    HW2  800   1.791   4.330   2.148  2.6389  2.1871 -1.0888
  267SOL    HW3  801   1.794   4.432   2.259 -0.3887  0.9074  0.2720
  267SOL    MW4  802   1.753   4.394   2.193 -0.7314 -0.2526  0.0082
  268SOL     OW  803   2.210   4.254   3.995  0.4744  0.2711  0.8852
  268SOL    HW2  804   2.187   4.318   4.062 -3.0950  1.7165 -1.4124
  268SOL    HW3  805   2.150   4.180   4.010  2.0051 -0.9579  1.2544
  268SOL    MW4  806   2.199   4.252   4.006 -0.3666  0.1011  0.9941
  269SOL     OW  807   4.946   0.435   4.887  0.2695 -0.0802 -0.2530
  269SOL    HW2  808   4.886   0.467   4.955 -1.2615  1.2426 -2.1198
  269SOL    HW3  809   4.968   0.513   4.837 -1.5420 -1.4553 -3.4612
  269SOL    MW4  810   4.941   0.450   4.889  0.3766  0.1666  0.2406
  270SOL     OW  811   1.726   1.341   3.485  0.0187  0.0777  0.9628
  270SOL    HW2  812   1.648   1.397   3.487  0.3317  0.6932 -1.4563
  270SOL    HW3  813   1.792   1.390   3.534 -0.2441  1.0025  0.4261
  270SOL    MW4  814   1.724   1.355   3.492  0.2732 -0.4719  0.1907
  271SOL     OW  815   3.302   1.472   5.957  0.4709  0.2285 -0.7984
  271SOL    HW2  816   3.239   1.541   5.977 -0.3231 -0.9594  1.1517
  271SOL    HW3  817   3.328   1.488   5.867 -1.9829  1.2757 -1.4019
  271SOL    MW4  818   3.297   1.483   5.948 -0.0522 -0.2317 -0.1679
  272SOL     OW  819   0.496   3.291   0.185  0.5752 -0.9692 -0.3575
  272SOL    HW2  820   0.427   3.294   0.118 -2.2557 -0.7995  2.3746
  272SOL    HW3  821   0.473   3.218   0.241  1.9848 -0.2052  1.3131
  272SOL    MW4  822   0.484   3.282   0.183 -0.0888 -0.2891  0.4570
  273SOL     OW  823   5.599   3.169   3.870 -0.4301  0.9515  0.0320
  273SOL    HW2  824   5.625   3.081   3.846  0.1449  1.2508 -0.4576
  273SOL    HW3  825   5.615   3.173   3.965  1.7973  1.2666 -0.3075
  273SOL    MW4  826   5.605   3.158   3.880 -0.3675  0.1141  0.4383
  274SOL     OW  827   1.797   6.190   1.982  0.6512  0.1882  0.1893
  274SOL    HW2  828   1.782   6.277   1.945  0.9131  0.2985  0.3387
  274SOL    HW3  829   1.747   6.131   1.926  2.9478  0.0473 -1.8407
  274SOL    MW4  830   1.788   6.194   1.970 -0.3536 -0.6753  0.4192
  275SOL     OW  831   1.559   3.349   1.114  0.0261 -0.4570  0.1482
  275SOL    HW2  832   1.476   3.391   1.139 -0.2502 -0.9347  0.0525
  275SOL    HW3  833   1.533   3.262   1.084  0.5945 -0.7092  0.3805
  275SOL    MW4  834   1.544   3.343   1.113 -0.0817 -0.4945 -0.4561
  276SOL     OW  835   2.613   6.273   4.918  0.3899  0.0516 -0.2447
  276SOL    HW2  836   2.705   6.281   4.893  0.7339  1.4994  1.3357
  276SOL    HW3  837   2.566   6.276   4.835  1.7089  0.3977 -1.0121
  276SOL    MW4  838   2.619   6.274   4.904  0.2670  0.0061 -0.3948
  277SOL     OW  839   5.668   3.756   2.023 -0.1730 -0.1547  0.1241
  277SOL    HW2  840   5.614   3.800   1.958 -0.6066 -0.1444  0.4867
  277SOL    HW3  841   5.746   3.811   2.031 -1.0553  1.0212  1.1598
  277SOL    MW4  842   5.672   3.769   2.016  0.2055  0.7999  0.0307
  278SOL     OW  843   5.881   3.975   0.572 -0.3630 -0.0178 -0.1401
  278SOL    HW2  844   5.890   3.888   0.533  0.3738  0.5196 -1.2075
  278SOL    HW3  845   5.823   4.022   0.512 -0.9273  0.1695  0.5417
  278SOL    MW4  846   5.874   3.969   0.559  0.1210 -0.1068  0.5201
  279SOL     OW  847   1.105   2.143   0.451 -0.3814 -0.5136  0.2947
  279SOL    HW2  848   1.027   2.151   0.396  1.0763  0.6705 -1.7404
  279SOL    HW3  849   1.088   2.201   0.525 -1.1607  0.2325 -0.4457
  279SOL    MW4  850   1.092   2.152   0.454  0.2962  0.3793 -0.3145
  280SOL     OW  851   0.992   3.306   4.330 -0.4219 -0.7122 -0.4847
  280SOL    HW2  852   1.069   3.359   4.352 -1.1019  0.3649 -0.6521
  280SOL    HW3  853   1.018   3.216   4.352  0.6322 -0.2796  0.1172
  280SOL    MW4  854   1.006   3.301   4.336  1.1809 -0.8575  0.0567
  281SOL     OW  855   1.072   5.865   0.033  0.2484  0.1044 -0.6677
  281SOL    HW2  856   1.149   5.891  -0.016 -0.1566  0.8378 -0.9385
  281SOL    HW3  857   1.106   5.834   0.117  0.7996  1.1078 -0.4975
  281SOL    MW4  858   1.086   5.864   0.038  0.0740 -0.7085  0.1411
  282SOL     OW  859   1.064   2.061   3.446  0.8932 -0.2721  0.1345
  282SOL    HW2  860   1.121   2.039   3.373  1.6759 -0.8261  0.8899
  282SOL    HW3  861   0.985   2.008   3.432  0.7951  0.0592 -0.6031
  282SOL    MW4  862   1.061   2.051   3.434  0.3524 -0.5539 -0.0818
  283SOL     OW  863   0.406   5.925   1.576  0.0807 -0.0201  0.3085
  283SOL    HW2  864   0.461   5.894   1.504 -0.0284  0.2061  0.1261
  283SOL    HW3  865   0.358   5.848   1.605 -0.4079  0.0413 -0.3299
  283SOL    MW4  866   0.407   5.911   1.571  0.1306 -0.1687  0.5612
  284SOL     OW  867   3.950   5.193   2.510  0.0614  0.5922  0.6182
  284SOL    HW2  868   4.020   5.218   2.449 -0.6238 -1.2888 -1.0489
  284SOL    HW3  869   3.911   5.276   2.537  1.2133  1.5462 -0.5144
  284SOL    MW4  870   3.954   5.208   2.505  0.0577 -0.0990 -0.0904
  285SOL     OW  871   2.417   3.127   2.669 -0.9205  0.2765  0.6279
  285SOL    HW2  872   2.370   3.127   2.586 -1.5865 -0.6747  0.9822
  285SOL    HW3  873   2.348   3.125   2.736 -0.3924  0.4795  1.1896
  285SOL    MW4  874   2.402   3.127   2.667  0.0961 -0.4911 -0.4867
  286SOL     OW  875   3.935   6.129   3.028 -0.1384  0.0780 -0.2144
  286SOL    HW2  876   3.949   6.194   3.096 -1.8807  1.0381 -0.7175
  286SOL    HW3  877   3.895   6.177   2.956  0.4189 -1.1731 -1.4231
  286SOL    MW4  878   3.932   6.144   3.028  0.4788  0.6034  0.2345
  287SOL     OW  879   3.841   0.095   3.109 -0.0880  0.4422 -0.4663
  287SOL    HW2  880   3.909   0.087   3.041  0.7260  1.9068  0.1318
  287SOL    HW3  881   3.766   0.047   3.073  1.4279 -1.7612 -0.8871
  287SOL    MW4  882   3.840   0.087   3.095 -0.3285  0.0990  0.1150
  288SOL     OW  883   6.226   4.019   6.135  0.3222 -0.1846  0.0711
  288SOL    HW2  884   6.284   4.085   6.098 -0.2628 -0.6631 -1.8142
  288SOL    HW3  885   6.150   4.019   6.077 -0.1756 -1.7440  0.6708
  288SOL    MW4  886   6.224   4.028   6.123 -0.2313  0.0151  0.3492
  289SOL     OW  887   1.245   4.130   0.658 -0.3418  0.1185  0.8832
  289SOL    HW2  888   1.232   4.224   0.647  1.9495  0.3498 -0.3896
  289SOL    HW3  889   1.178   4.089   0.602  1.0529  1.0940 -1.6322
  289SOL    MW4  890   1.234   4.137   0.649 -0.4530  0.2774  0.4018
  290SOL     OW  891   5.014   3.476   1.595 -0.7652 -0.1024  0.1683
  290SOL    HW2  892   5.101   3.444   1.618 -0.8952  1.0040  2.5844
  290SOL    HW3  893   4.969   3.400   1.558  1.5695 -0.3512 -2.4529
  290SOL    MW4  894   5.019   3.462   1.594 -0.2232  0.0358 -0.7934
  291SOL     OW  895   1.627   3.116   1.406 -0.1448  0.0038  0.0139
  291SOL    HW2  896   1.631   3.211   1.415 -0.8035  0.1647 -1.1561
  291SOL    HW3  897   1.551   3.100   1.351 -0.3700 -1.2503  0.6536
  291SOL    MW4  898   1.618   3.127   1.400 -0.5488 -0.0878 -0.4069
  292SOL     OW  899   2.593   3.863   3.537  0.3941 -0.1272 -0.1052
  292SOL    HW2  900   2.624   3.945   3.577 -0.8089  0.8058 -0.9847
  292SOL    HW3  901   2.662   3.840   3.474  0.0131  1.1784 -1.0647
  292SOL    MW4  902   2.606   3.871   3.534  0.5184  0.5013 -0.2115
  293SOL     OW  903   5.074   1.927   2.619 -0.3062  0.0392  0.5284
  293SOL    HW2  904   5.049   1.966   2.535 -0.8796 -1.1356  0.1312
  293SOL    HW3  905   5.087   1.834   2.599  2.9309  0.2610  1.0185
  293SOL    MW4  906   5.073   1.919   2.605  0.0914 -0.2053  0.1422
  294SOL     OW  907   6.205   3.882   4.831 -0.0489 -0.5851 -0.6397
  294SOL    HW2  908   6.239   3.873   4.920  0.5222 -1.1887 -0.9091
  294SOL    HW3  909   6.115   3.852   4.836 -0.0738 -0.4416 -0.2269
  294SOL    MW4  910   6.198   3.876   4.843  0.2508  0.3705  0.0925
  295SOL     OW  911   2.109   3.441   4.781  0.3941 -0.8493  0.3726
  295SOL    HW2  912   2.014   3.430   4.780  0.2711 -0.0231  1.5768
  295SOL    HW3  913   2.136   3.422   4.691 -0.9902 -0.4515 -0.1506
  295SOL    MW4  914   2.100   3.437   4.769 -0.3506  0.3819  0.5046
  296SOL     OW  915   3.779   4.169   1.026  0.1819  0.7043 -0.0186
  296SOL    HW2  916   3.853   4.176   1.085  1.0102 -0.3563 -0.8969
  296SOL    HW3  917   3.783   4.080   0.992 -2.0632  0.2899  0.6233
  296SOL    MW4  918   3.789   4.159   1.029 -0.4271 -0.0005 -0.6409
  297SOL     OW  919   5.648   0.256   1.958 -0.3615 -0.0080  0.1279
  297SOL    HW2  920   5.614   0.205   2.031  1.1111  0.3618  1.1104
  297SOL    HW3  921   5.691   0.331   1.999 -0.7859  1.0102 -1.1939
  297SOL    MW4  922   5.649   0.259   1.973  0.3231 -0.2913 -0.2037
  298SOL     OW  923   1.221   5.103   6.302  0.3349 -0.0860 -0.1872
  298SOL    HW2  924   1.246   5.196   6.302 -0.2199  0.1014  1.5471
  298SOL    HW3  925   1.161   5.095   6.376 -0.5559 -1.6057 -1.0373
  298SOL    MW4  926   1.216   5.115   6.312 -0.3866  0.1023 -0.1273
  299SOL     OW  927   1.129   5.990   1.248 -0.0337  0.4026 -0.2916
  299SOL    HW2  928   1.077   5.960   1.323  0.0261  0.6332 -0.1574
  299SOL    HW3  929   1.112   5.925   1.180 -0.2636  0.3134 -0.1512
  299SOL    MW4  930   1.120   5.978   1.249  0.4588  0.2187 -0.0670
  300SOL     OW  931   4.814   5.607   0.119  0.2851  0.3541 -0.0493
  300SOL    HW2  932   4.737   5.600   0.062  1.3444  1.7074 -1.7192
  300SOL    HW3  933   4.779   5.591   0.207 -1.6125 -0.6350 -0.9084
  300SOL    MW4  934   4.799   5.604   0.124  0.3608  0.9229 -0.6200
  301SOL     OW  935   2.286   0.321   4.168  0.1100 -0.4808  0.2937
  301SOL    HW2  936   2.340   0.246   4.195  1.3668  0.0750 -0.5895
  301SOL    HW3  937   2.204   0.282   4.138  0.5814 -1.4684  0.2466
  301SOL    MW4  938   2.283   0.306   4.168 -0.6810 -0.3404 -0.3302
  302SOL     OW  939   5.478   3.462   0.792  0.1962 -0.0106  0.4220
  302SOL    HW2  940   5.529   3.381   0.784  0.5210  0.2044  0.2830
  302SOL    HW3  941   5.396   3.435   0.833 -0.3060 -0.6481 -0.9631
  302SOL    MW4  942   5.474   3.448   0.796 -0.3728  0.2993 -1.1749
  303SOL     OW  943   2.716   3.516   3.750 -0.2495 -0.0404  0.4646
  303SOL    HW2  944   2.670   3.480   3.675 -0.5801 -0.4826  0.8715
  303SOL    HW3  945   2.807   3.489   3.738 -0.3615 -0.3818  0.3885
  303SOL    MW4  946   2.722   3.508   3.739  0.4706  0.0084 -0.0377
  304SOL     OW  947   6.056   4.407   2.611 -0.0220  0.1498  0.4613
  304SOL    HW2  948   6.020   4.495   2.601  1.4360  0.5919 -1.7134
  304SOL    HW3  949   6.144   4.413   2.575  1.2782 -1.5325  3.0436
  304SOL    MW4  950   6.063   4.419   2.605 -0.1705  0.3116  0.2866
  305SOL     OW  951   2.820   5.155   0.534  0.5840 -0.1619  0.0577
  305SOL    HW2  952   2.894   5.156   0.595  0.8629 -0.2479 -0.2762
  305SOL    HW3  953   2.769   5.233   0.557  0.0656 -0.8110  1.1576
  305SOL    MW4  954   2.823   5.166   0.545 -0.3004  1.0172  0.8409
  306SOL     OW  955   5.166   0.271   3.406  0.1302 -0.4586  0.1064
  306SOL    HW2  956   5.201   0.338   3.347 -0.4168  1.1781  1.5424
  306SOL    HW3  957   5.176   0.189   3.358  4.0844  0.1150 -0.3679
  306SOL    MW4  958   5.172   0.269   3.392 -0.4655  0.3366  0.0330
  307SOL     OW  959   1.654   6.067   2.948  0.4289 -0.1888 -0.2123
  307SOL    HW2  960   1.627   6.152   2.984 -3.1651 -1.4177  0.4463
  307SOL    HW3  961   1.681   6.017   3.025  0.2851 -0.3692 -0.2804
  307SOL    MW4  962   1.654   6.072   2.963  0.1177 -0.2105  0.2555
  308SOL     OW  963   4.361   0.466   5.742  0.0641  0.5647 -0.1008
  308SOL    HW2  964   4.319   0.421   5.815 -0.1562  1.3919  0.3048
  308SOL    HW3  965   4.304   0.450   5.667  0.8501 -1.2004 -0.3770
  308SOL    MW4  966   4.348   0.458   5.742  0.4264  0.1968  0.1263
  309SOL     OW  967   4.497   3.471   4.386 -0.3222 -0.3978 -0.3031
  309SOL    HW2  968   4.565   3.538   4.394  0.3390 -1.2013  1.5444
  309SOL    HW3  969   4.517   3.428   4.303  0.8211  0.0556 -0.2939
  309SOL    MW4  970   4.509   3.474   4.377 -0.1773 -0.5636 -0.5433
  310SOL     OW  971   5.201   1.754   1.145  0.2722  0.5477 -0.3997
  310SOL    HW2  972   5.272   1.802   1.189 -0.7070  1.6737  0.0101
  310SOL    HW3  973   5.193   1.672   1.194  0.9831  0.6062 -0.1683
  310SOL    MW4  974   5.209   1.750   1.157 -0.1245 -0.0126 -0.8334
  311SOL     OW  975   0.409   4.410   6.103  0.2364  0.1453  0.4838
  311SOL    HW2  976   0.467   4.343   6.137 -1.0131 -3.0505 -3.0076
  311SOL    HW3  977   0.321   4.376   6.120 -0.4290  0.5426 -1.8138
  311SOL    MW4  978   0.405   4.397   6.109  0.0518 -0.5518 -0.3080
  312SOL     OW  979   3.950   5.265   0.773 -0.4694  0.0818 -0.5473
  312SOL    HW2  980   4.017   5.227   0.830  1.4071  3.9402  0.1096
  312SOL    HW3  981   3.889   5.308   0.832  0.7565  2.9815 -1.2101
  312SOL    MW4  982   3.951   5.265   0.788  0.1648 -0.6265  0.0445
  313SOL     OW  983   1.613   2.024   6.059  0.3899 -0.1456 -1.0080
  313SOL    HW2  984   1.572   2.105   6.090 -0.3129 -1.0620  0.5966
  313SOL    HW3  985   1.606   1.964   6.134 -0.2768 -2.1209 -2.5643
  313SOL    MW4  986   1.607   2.027   6.073 -0.1674  0.3035  0.0809
  314SOL     OW  987   4.093   3.376   6.272  0.7812  0.1968 -0.3855
  314SOL    HW2  988   4.074   3.383   6.366 -0.6583  0.2137 -0.6578
  314SOL    HW3  989   4.107   3.283   6.258  1.8376  0.2878 -0.0167
  314SOL    MW4  990   4.092   3.365   6.282  0.4780  0.6195  0.9947
  315SOL     OW  991   1.094   3.712   2.533  0.0815  0.7509 -0.3273
  315SOL    HW2  992   1.052   3.782   2.483  2.1732  1.0982 -1.7225
  315SOL    HW3  993   1.115   3.646   2.468 -0.8730 -0.7316  0.8024
  315SOL    MW4  994   1.091   3.712   2.518  0.2689 -0.3195  0.1597
  316SOL     OW  995   0.622   3.060   0.767 -0.1580  0.6586  0.2554
  316SOL    HW2  996   0.633   3.014   0.684 -0.8058 -1.0088  1.0399
  316SOL    HW3  997   0.683   3.134   0.762  0.1297  0.3487 -1.5095
  316SOL    MW4  998   0.631   3.063   0.756 -0.3327  0.0955  0.4721
  317SOL     OW  999   4.515   4.772   0.932  0.1381 -0.2393  0.0556
  317SOL    HW2 1000   4.545   4.744   0.846  0.0559 -1.4805  0.4123
  317SOL    HW3 1001   4.479   4.859   0.918  1.4283  0.1705 -0.8851
  317SOL    MW4 1002   4.514   4.780   0.919 -0.1281 -0.3107  0.1200
  318SOL     OW 1003   0.654   1.467   0.739  0.6988  0.7461  0.2309
  318SOL    HW2 1004   0.626   1.378   0.759  2.1357  0.4903  1.2451
  318SOL    HW3 1005   0.575   1.511   0.708 -0.7961  0.0239  2.7625
  318SOL    MW4 1006   0.640   1.461   0.738 -0.1059 -0.4448  0.1465
  319SOL     OW 1007   6.182   5.946   4.158 -0.2711  0.0243  0.2567
  319SOL    HW2 1008   6.208   6.002   4.084 -0.2483 -0.4403 -0.0907
  319SOL    HW3 1009   6.156   6.007   4.226 -2.6012  0.4570 -0.9370
  319SOL    MW4 1010   6.182   5.961   4.157  0.2381 -0.0361  0.4404
  320SOL     OW 1011   0.357   3.798   3.631  0.3048 -0.1133 -0.1573
  320SOL    HW2 1012   0.363   3.879   3.579 -1.0829 -0.9073 -1.6606
  320SOL    HW3 1013   0.408   3.734   3.581 -0.9100 -0.8513 -0.4997
  320SOL    MW4 1014   0.365   3.800   3.617  0.1898 -0.1328  0.1165
  321SOL     OW 1015   4.676   4.331   1.365  0.1273  0.3151  0.4096
  321SOL    HW2 1016   4.627   4.250   1.349  0.4857  0.0724  0.5355
  321SOL    HW3 1017   4.609   4.400   1.364  0.0042  0.2412 -1.4323
  321SOL    MW4 1018   4.661   4.329   1.363 -0.1129 -0.8019  0.3883
  322SOL     OW 1019   5.439   1.783   1.358 -0.6557 -0.6311  0.1454
  322SOL    HW2 1020   5.420   1.778   1.452 -0.2132 -0.9307  0.2193
  322SOL    HW3 1021   5.471   1.696   1.335 -1.1412 -0.6802 -0.3702
  322SOL    MW4 1022   5.441   1.771   1.368  0.1142  0.0654 -0.1518
  323SOL     OW 1023   4.154   5.864   5.070 -0.3164 -0.2388 -0.0672
  323SOL    HW2 1024   4.213   5.939   5.072  2.5833 -2.2931 -1.5788
  323SOL    HW3 1025   4.127   5.852   5.161  0.6865  1.4385  0.4967
  323SOL    MW4 1026   4.158   5.872   5.082  0.5991  0.4824  0.1955
  324SOL     OW 1027   5.789   3.346   2.331  0.0201 -0.1426 -0.2587
  324SOL    HW2 1028   5.780   3.428   2.281  1.1542 -1.6589 -3.1497
  324SOL    HW3 1029   5.742   3.364   2.413 -0.8840  2.9473 -1.2845
  324SOL    MW4 1030   5.782   3.359   2.335  0.5865  0.7881  0.5547
  325SOL     OW 1031   4.884   1.447   6.041 -0.4998 -0.0685  0.2885
  325SOL    HW2 1032   4.872   1.540   6.018 -3.4672 -0.4918 -0.3724
  325SOL    HW3 1033   4.795   1.415   6.055  0.3285 -3.1257 -0.7352
  325SOL    MW4 1034   4.870   1.455   6.039  0.1006  0.1609 -0.0375
  326SOL     OW 1035   4.161   5.729   1.303  0.4993  0.5513 -0.1783
  326SOL    HW2 1036   4.184   5.724   1.396 -1.5622  0.3351  0.3622
  326SOL    HW3 1037   4.220   5.795   1.267  1.4829  0.4684  1.2300
  326SOL    MW4 1038   4.172   5.737   1.310 -0.0648 -0.2497  0.0302
  327SOL     OW 1039   2.747   5.388   4.875  0.6169  0.2900 -0.3675
  327SOL    HW2 1040   2.767   5.478   4.901  2.6740  0.7307 -3.0824
  327SOL    HW3 1041   2.750   5.389   4.779 -1.0616 -2.3380 -0.5622
  327SOL    MW4 1042   2.750   5.400   4.866  0.1771  0.1486  0.1269
  328SOL     OW 1043   1.927   5.006   4.228 -0.0128  0.1818 -0.0393
  328SOL    HW2 1044   2.013   5.044   4.208 -0.0338 -0.3303 -1.2046
  328SOL    HW3 1045   1.899   5.050   4.308  0.6384  1.4874 -0.5042
  328SOL    MW4 1046   1.935   5.017   4.236  0.4992  0.2953  0.3408
  329SOL     OW 1047   2.378   4.558   4.132  0.0590 -0.0578 -0.0399
  329SOL    HW2 1048   2.431   4.575   4.210  0.3701 -0.7501 -0.0923
  329SOL    HW3 1049   2.296   4.524   4.166 -0.8740  2.1782  0.1071
  329SOL    MW4 1050   2.374   4.556   4.147  0.4924 -0.4425  0.0007
  330SOL     OW 1051   0.013   4.098   0.382 -0.2706 -0.3753 -0.4265
  330SOL    HW2 1052  -0.011   4.092   0.474  1.8004 -0.4986  0.1713
  330SOL    HW3 1053  -0.070   4.102   0.335 -1.4296  2.3176  1.5773
  330SOL    MW4 1054  -0.001   4.098   0.388  0.4541 -0.5396 -0.5020
  331SOL     OW 1055   2.313   2.650   6.298 -0.1924  0.2588 -0.1670
  331SOL    HW2 1056   2.354   2.596   6.230 -0.3774 -0.4864  0.3103
  331SOL    HW3 1057   2.335   2.740   6.273  0.0615 -0.0269 -1.0051
  331SOL    MW4 1058   2.321   2.655   6.285  0.1374  0.1156  0.1159
  332SOL     OW 1059   0.017   4.345   1.537  0.1035  0.0787 -0.0246
  332SOL    HW2 1060   0.026   4.427   1.587  1.8919 -0.7749  1.1712
  332SOL    HW3 1061  -0.069   4.312   1.561  0.0196  0.8154  0.7599
  332SOL    MW4 1062   0.007   4.352   1.547 -0.1195  0.1559 -0.1538
  333SOL     OW 1063   0.161   0.898   1.608 -0.0497  0.1941 -0.1788
  333SOL    HW2 1064   0.114   0.879   1.689 -2.1160  1.6851 -0.9246
  333SOL    HW3 1065   0.248   0.861   1.621 -0.7168 -0.7267  2.1941
  333SOL    MW4 1066   0.166   0.891   1.621  0.2849 -0.8263  0.5467
  334SOL     OW 1067   4.629   5.058   4.558  0.5185  0.2975  0.0126
  334SOL    HW2 1068   4.662   4.987   4.503 -0.6751 -0.2142 -0.0771
  334SOL    HW3 1069   4.595   5.015   4.636  0.5826  0.8599  0.3592
  334SOL    MW4 1070   4.629   5.043   4.561  0.4614  0.3027  0.1209
  335SOL     OW 1071   0.487   4.179   4.892 -0.2078  0.4112 -0.2589
  335SOL    HW2 1072   0.482   4.101   4.947  0.5209 -0.5562 -1.5273
  335SOL    HW3 1073   0.440   4.156   4.812 -0.0110  1.2806 -0.6393
  335SOL    MW4 1074   0.480   4.166   4.889 -0.1559 -0.2175 -0.3818
  336SOL     OW 1075   4.782   1.345   2.648  0.4754  0.2690  0.1826
  336SOL    HW2 1076   4.769   1.316   2.738  0.2237 -1.0180 -0.2373
  336SOL    HW3 1077   4.744   1.432   2.644 -0.2862 -0.0131  1.1074
  336SOL    MW4 1078   4.775   1.353   2.659  0.9031 -1.0903 -0.1646
  337SOL     OW 1079   0.444   3.310   5.047 -0.0687  0.1120 -0.3877
  337SOL    HW2 1080   0.426   3.378   4.981  0.3710  1.7710  1.1446
  337SOL    HW3 1081   0.534   3.327   5.075 -0.6056  0.1639  1.4197
  337SOL    MW4 1082   0.454   3.321   5.042 -0.3034  0.1542  0.3633
  338SOL     OW 1083   0.126   5.582   6.309 -0.0963  0.7111  0.3447
  338SOL    HW2 1084   0.208   5.631   6.319 -0.1107  0.4032  2.2240
  338SOL    HW3 1085   0.116   5.535   6.391 -0.5629 -1.7770 -1.0540
  338SOL    MW4 1086   0.135   5.582   6.321 -0.5004 -0.5204 -0.1767
  339SOL     OW 1087   2.677   2.560   1.887 -0.0892 -0.3364 -0.1445
  339SOL    HW2 1088   2.658   2.467   1.874  2.4595 -0.8251 -0.7799
  339SOL    HW3 1089   2.769   2.564   1.911 -0.4035  1.9733  1.0275
  339SOL    MW4 1090   2.686   2.549   1.888  0.1685  0.0253 -0.7066
  340SOL     OW 1091   2.541   3.784   5.672  0.0487 -0.4853 -0.0103
  340SOL    HW2 1092   2.450   3.765   5.649 -0.5159  1.0339  0.8479
  340SOL    HW3 1093   2.559   3.726   5.746 -0.5409 -0.1361  0.4185
  340SOL    MW4 1094   2.531   3.774   5.678 -0.2668 -0.2487  0.1339
  341SOL     OW 1095   4.296   5.097   4.048  0.5291 -0.0660 -0.2155
  341SOL    HW2 1096   4.361   5.089   3.977  3.2831 -0.1994  2.1499
  341SOL    HW3 1097   4.236   5.024   4.032  1.9238 -0.9970 -1.5969
  341SOL    MW4 1098   4.297   5.086   4.036 -0.7884 -0.4725  0.2960
  342SOL     OW 1099   4.486   3.389   2.205 -0.3776 -0.6448 -0.0248
  342SOL    HW2 1100   4.425   3.445   2.252  1.1419  0.6930  0.4524
  342SOL    HW3 1101   4.509   3.438   2.127 -0.9099 -1.7260 -0.8796
  342SOL    MW4 1102   4.481   3.403   2.201  0.7017 -0.2990  0.4051
  343SOL     OW 1103   5.579   4.206   1.495  0.2462 -0.0909 -0.0097
  343SOL    HW2 1104   5.498   4.246   1.464  0.2744  0.1545  0.2305
  343SOL    HW3 1105   5.648   4.266   1.467  0.2767  0.1026  0.4655
  343SOL    MW4 1106   5.578   4.219   1.488  0.0928  0.4034 -0.0460
  344SOL     OW 1107   5.670   4.622   1.106  0.1194  0.4876  0.0811
  344SOL    HW2 1108   5.660   4.528   1.094  0.6394  0.5158 -0.6370
  344SOL    HW3 1109   5.651   4.636   1.199  0.6343 -0.4151  0.3425
  344SOL    MW4 1110   5.666   4.611   1.117  0.2620  0.0570 -0.5399
  345SOL     OW 1111   4.937   2.571   4.482  0.3650 -0.0322 -0.3326
  345SOL    HW2 1112   4.898   2.616   4.558  2.1788  0.6942  0.2152
  345SOL    HW3 1113   4.873   2.584   4.412 -1.2184 -0.4534  0.9663
  345SOL    MW4 1114   4.923   2.579   4.483  0.2877 -0.5058 -0.2450
  346SOL     OW 1115   0.237   4.404   2.211 -0.0088  0.4739  0.0988
  346SOL    HW2 1116   0.251   4.492   2.174  1.5082  1.0304  1.8384
  346SOL    HW3 1117   0.324   4.377   2.240 -0.5980 -1.3158  0.2578
  346SOL    MW4 1118   0.250   4.412   2.210  0.1009  0.4731 -0.3146
  347SOL     OW 1119   0.926   6.107   0.920  0.1069 -0.1266  0.1999
  347SOL    HW2 1120   0.941   6.141   1.008  0.5680  1.6846 -0.5486
  347SOL    HW3 1121   0.974   6.024   0.919 -0.9294 -0.8177  2.0197
  347SOL    MW4 1122   0.935   6.100   0.932  0.1483  0.2955  0.3941
  348SOL     OW 1123   2.324   6.355   1.958  0.1095  0.2573 -0.0897
  348SOL    HW2 1124   2.298   6.431   2.009 -1.9330  0.2579 -1.0517
  348SOL    HW3 1125   2.420   6.360   1.955  0.0738  2.3034  0.5637
  348SOL    MW4 1126   2.333   6.365   1.964  0.0475 -0.5281 -0.2953
  349SOL     OW 1127   5.132   6.390   4.571 -0.3329 -0.2264  0.0653
  349SOL    HW2 1128   5.111   6.466   4.625  0.6741 -0.0793  0.2710
  349SOL    HW3 1129   5.097   6.315   4.620 -1.5487  0.1125 -0.2632
  349SOL    MW4 1130   5.125   6.390   4.585  0.5951  0.5263 -0.4113
  350SOL     OW 1131   1.516   0.947   4.291  0.1104 -0.3847 -0.0980
  350SOL    HW2 1132   1.451   1.016   4.300  0.4810 -0.1122  0.6437
  350SOL    HW3 1133   1.473   0.868   4.323  0.4246 -0.0211  1.2859
  350SOL    MW4 1134   1.502   0.945   4.297 -0.4435  0.2209  0.3723
  351SOL     OW 1135   4.645   2.459   0.112 -0.2747  0.2568  0.2642
  351SOL    HW2 1136   4.613   2.395   0.176  0.9628 -0.6244  0.0411
  351SOL    HW3 1137   4.675   2.533   0.165 -1.7673  0.7018  0.5234
  351SOL    MW4 1138   4.645   2.460   0.128  0.5804  0.7649 -0.0560
  352SOL     OW 1139   3.180   3.102   0.375  0.0102 -0.4312 -0.2083
  352SOL    HW2 1140   3.231   3.182   0.389 -0.3444 -0.3512  0.7047
  352SOL    HW3 1141   3.106   3.131   0.321  0.4385 -0.3640 -0.7681
  352SOL    MW4 1142   3.177   3.117   0.370 -0.2708 -0.8770  0.5219
  353SOL     OW 1143   4.394   4.769   1.706  0.0242 -0.4315  0.2509
  353SOL    HW2 1144   4.307   4.767   1.746 -0.6357  0.2628 -1.1059
  353SOL    HW3 1145   4.383   4.821   1.626  1.9124  0.5897  0.5924
  353SOL    MW4 1146   4.381   4.776   1.701 -0.0676  0.4486  0.1867
  354SOL     OW 1147   5.711   2.981   5.272  0.2410 -0.3512  0.6856
  354SOL    HW2 1148   5.803   3.002   5.255  0.1293  0.2435  0.7858
  354SOL    HW3 1149   5.694   3.015   5.359 -0.4323  0.7814  0.1364
  354SOL    MW4 1150   5.721   2.988   5.281 -0.1703  0.2590  0.6646
  355SOL     OW 1151   1.041   1.768   1.329  0.0058 -0.0372  0.3188
  355SOL    HW2 1152   0.989   1.700   1.371 -0.3747 -0.1934 -0.3811
  355SOL    HW3 1153   1.018   1.762   1.236  0.1770  0.8658  0.2063
  355SOL    MW4 1154   1.031   1.758   1.322  0.1278 -0.0127  0.1106
  356SOL     OW 1155   4.343   1.949   5.399  0.2449 -0.1699  0.0265
  356SOL    HW2 1156   4.256   1.958   5.437  0.6679 -2.2663  1.7004
  356SOL    HW3 1157   4.400   1.998   5.457  0.7355 -2.4698  1.6190
  356SOL    MW4 1158   4.339   1.956   5.412 -0.2462 -0.0317  0.7140
  357SOL     OW 1159   1.393   0.807   1.036 -0.3924  0.1271 -0.1345
  357SOL    HW2 1160   1.470   0.805   1.092 -0.8310  0.6522  0.5037
  357SOL    HW3 1161   1.409   0.739   0.971  0.1842 -0.4036  0.5449
  357SOL    MW4 1162   1.405   0.798   1.035 -0.2646 -0.1580  0.3126
  358SOL     OW 1163   1.711   4.824   2.013 -0.7289  0.0068 -0.1322
  358SOL    HW2 1164   1.676   4.823   1.924 -0.1904  0.4754 -0.3637
  358SOL    HW3 1165   1.645   4.870   2.065 -0.5923  0.6430 -0.5059
  358SOL    MW4 1166   1.698   4.830   2.008 -0.4227 -0.0205  0.2399
  359SOL     OW 1167   3.693   2.044   5.675 -0.1270 -0.1790  0.1544
  359SOL    HW2 1168   3.633   2.031   5.748  0.1649 -2.0155  0.1211
  359SOL    HW3 1169   3.717   2.136   5.679 -2.6933  0.5772  0.3536
  359SOL    MW4 1170   3.688   2.054   5.685  0.1912 -0.4509 -0.1094
  360SOL     OW 1171   3.395   1.091   2.444 -0.2445  0.4546 -0.0668
  360SOL    HW2 1172   3.356   1.170   2.481 -2.4949  0.9028 -2.9221
  360SOL    HW3 1173   3.473   1.121   2.398 -0.4531  0.8391 -0.1718
  360SOL    MW4 1174   3.400   1.105   2.443 -0.1686  0.1668 -0.0885
  361SOL     OW 1175   5.724   4.356   1.045  0.1139 -0.2849 -0.6059
  361SOL    HW2 1176   5.787   4.285   1.038 -1.6237 -1.8098 -1.9641
  361SOL    HW3 1177   5.668   4.346   0.968 -2.0635  0.6726  0.7350
  361SOL    MW4 1178   5.725   4.345   1.034  0.0600  0.2383  0.0141
  362SOL     OW 1179   0.811   6.020   2.236  0.5668 -0.4080 -0.6233
  362SOL    HW2 1180   0.881   6.033   2.172  0.2738  0.1994 -0.8261
  362SOL    HW3 1181   0.787   5.928   2.226  1.0848 -0.5295 -0.8051
  362SOL    MW4 1182   0.817   6.009   2.226 -0.0053  0.0846  0.3098
  363SOL     OW 1183   5.162   2.123   0.661 -0.0045 -0.2638 -0.4158
  363SOL    HW2 1184   5.166   2.200   0.718  0.3810 -0.7778  0.2741
  363SOL    HW3 1185   5.230   2.065   0.695 -0.5706 -1.0811 -0.6590
  363SOL    MW4 1186   5.171   2.126   0.673  0.8985 -0.0365  0.5165
  364SOL     OW 1187   5.628   0.706   1.060 -0.0217  0.3498 -0.1547
  364SOL    HW2 1188   5.606   0.613   1.072 -2.3366  1.0733  1.9860
  364SOL    HW3 1189   5.552   0.743   1.015  0.8833  1.2455 -0.9953
  364SOL    MW4 1190   5.615   0.698   1.056  0.6921 -0.0673  0.1977
  365SOL     OW 1191   1.057   3.038   4.844  0.1693 -0.1515  0.5754
  365SOL    HW2 1192   1.070   3.117   4.791  0.2064  0.2660  1.1976
  365SOL    HW3 1193   1.023   3.070   4.927  2.0583 -0.5778  1.5786
  365SOL    MW4 1194   1.054   3.053   4.848  0.3875 -0.2922 -0.2823
  366SOL     OW 1195   2.699   5.702   1.542 -0.6038 -0.2675  0.3235
  366SOL    HW2 1196   2.716   5.766   1.472 -0.3443 -0.9220 -0.2245
  366SOL    HW3 1197   2.655   5.629   1.498  1.5213 -1.6809  0.3685
  366SOL    MW4 1198   2.695   5.701   1.527  0.0960  0.6889 -0.5628
  367SOL     OW 1199   0.428   5.879   2.263  0.3993 -0.1364  0.9190
  367SOL    HW2 1200   0.466   5.839   2.185 -0.1051  1.7229 -0.3432
  367SOL    HW3 1201   0.413   5.805   2.322  1.3350 -1.5344 -0.4893
  367SOL    MW4 1202   0.431   5.864   2.260  0.1101 -0.2011  0.2807
  368SOL     OW 1203   2.620   2.901   4.049  0.6568 -0.2288 -0.2748
  368SOL    HW2 1204   2.609   2.814   4.011 -0.3077  0.0331 -0.6222
  368SOL    HW3 1205   2.691   2.891   4.113 -1.4757 -2.0322  2.0093
  368SOL    MW4 1206   2.628   2.888   4.053  0.2542 -0.4543  0.4671
  369SOL     OW 1207   2.301   2.191   2.578  0.3208  0.7245 -0.0135
  369SOL    HW2 1208   2.339   2.126   2.637  0.1658  0.8909  0.2715
  369SOL    HW3 1209   2.214   2.158   2.558 -0.6426  1.9095  1.9025
  369SOL    MW4 1210   2.295   2.178   2.583 -0.0630  0.3942  0.0103
  370SOL     OW 1211   1.169   1.604   1.052  0.4627  0.3143  0.3061
  370SOL    HW2 1212   1.168   1.509   1.043  1.2617  0.1974  1.2480
  370SOL    HW3 1213   1.079   1.627   1.076  0.1675 -0.1444 -0.3305
  370SOL    MW4 1214   1.157   1.595   1.054  0.5069 -0.8912 -0.3082
  371SOL     OW 1215   1.442   4.809   3.367  0.1129  0.3068  0.3183
  371SOL    HW2 1216   1.527   4.793   3.326  0.5791  1.1432  0.9319
  371SOL    HW3 1217   1.439   4.904   3.381 -1.0356  0.3258  0.0818
  371SOL    MW4 1218   1.453   4.819   3.363 -0.4602  0.7242 -0.1340
  372SOL     OW 1219   1.115   5.684   1.121 -0.5374 -0.0057  0.0503
  372SOL    HW2 1220   1.178   5.621   1.087 -1.1725 -0.0684 -1.0455
  372SOL    HW3 1221   1.035   5.634   1.133 -0.9617  0.5120 -0.5499
  372SOL    MW4 1222   1.113   5.669   1.118 -0.5770  0.3321 -0.3301
  373SOL     OW 1223   0.308   5.304   3.652  0.3691  0.0575  1.1669
  373SOL    HW2 1224   0.216   5.277   3.659  0.6579 -1.9590 -1.2666
  373SOL    HW3 1225   0.304   5.396   3.625 -0.9345 -0.0892  0.7860
  373SOL    MW4 1226   0.295   5.312   3.649 -0.5971 -0.4322 -0.2738
  374SOL     OW 1227   5.428   2.850   3.517 -0.3918  0.5812 -0.2037
  374SOL    HW2 1228   5.442   2.756   3.528 -0.2902  0.7764  1.8320
  374SOL    HW3 1229   5.516   2.885   3.499 -0.5529  0.2256 -1.8158
  374SOL    MW4 1230   5.442   2.842   3.516 -0.1156  0.3645 -0.1309
  375SOL     OW 1231   5.309   4.374   4.269 -0.0475  0.2603 -0.2412
  375SOL    HW2 1232   5.383   4.414   4.224  0.4027 -0.0249  0.2321
  375SOL    HW3 1233   5.264   4.324   4.201  1.0142 -0.7211 -0.2659
  375SOL    MW4 1234   5.313   4.373   4.254  0.0798 -0.3445 -0.2245
  376SOL     OW 1235   5.922   0.547   1.555  0.1525 -0.1653 -0.0525
  376SOL    HW2 1236   5.912   0.452   1.551 -0.3735 -0.0805 -1.4421
  376SOL    HW3 1237   5.858   0.580   1.492  2.6652  0.9070 -2.2556
  376SOL    MW4 1238   5.912   0.539   1.546 -0.4948 -0.4874  0.8530
  377SOL     OW 1239   5.567   3.936   3.490  0.7850  0.2651 -0.6998
  377SOL    HW2 1240   5.598   3.878   3.560 -2.7514 -1.0031  0.0454
  377SOL    HW3 1241   5.574   3.882   3.411  1.2723  0.3255 -0.7020
  377SOL    MW4 1242   5.572   3.921   3.489 -0.0241 -0.3723  0.5564
  378SOL     OW 1243   1.903   1.608   4.661  0.4446 -1.1617 -0.0849
  378SOL    HW2 1244   1.909   1.637   4.752  0.8318 -0.5029 -0.3058
  378SOL    HW3 1245   1.929   1.516   4.663 -0.2803 -1.3575  0.5696
  378SOL    MW4 1246   1.907   1.600   4.673 -0.4125 -0.1548 -0.9326
  379SOL     OW 1247   0.621   1.406   3.683  0.4173 -0.1113 -0.0368
  379SOL    HW2 1248   0.710   1.370   3.683  0.1718 -0.7353 -0.0597
  379SOL    HW3 1249   0.585   1.381   3.597  0.5762  1.0500 -0.4513
  379SOL    MW4 1250   0.628   1.398   3.672 -0.2687 -0.3342  0.2496
  380SOL     OW 1251   2.095   0.163   3.040 -0.3125 -0.2377 -0.7785
  380SOL    HW2 1252   2.154   0.088   3.043  0.7871  0.5298 -2.4104
  380SOL    HW3 1253   2.133   0.222   2.975 -0.9635  1.9040  0.6669
  380SOL    MW4 1254   2.108   0.161   3.032 -0.3169 -0.6630 -0.1060
  381SOL     OW 1255   4.804   4.885   3.431  0.5514  0.2010 -0.1537
  381SOL    HW2 1256   4.852   4.923   3.506  0.7743 -0.2735 -0.0519
  381SOL    HW3 1257   4.714   4.879   3.461  0.2629  1.7846 -0.6029
  381SOL    MW4 1258   4.799   4.889   3.445  0.0372 -0.1174 -0.1882
  382SOL     OW 1259   2.313   5.811   0.916 -0.2747  0.5008  0.2109
  382SOL    HW2 1260   2.288   5.886   0.861  1.4405  0.7719 -0.2639
  382SOL    HW3 1261   2.322   5.738   0.855 -0.0643  0.3836  0.3783
  382SOL    MW4 1262   2.311   5.812   0.900 -0.9814  0.2584 -0.4747
  383SOL     OW 1263   0.639   1.701   3.499  0.0657 -0.4951  0.0978
  383SOL    HW2 1264   0.711   1.752   3.462 -1.0380  0.8118 -0.3451
  383SOL    HW3 1265   0.645   1.718   3.593  1.7392 -2.3296  0.4001
  383SOL    MW4 1266   0.650   1.710   3.507 -0.1305  0.3124  0.4354
  384SOL     OW 1267   5.647   6.023   3.840 -0.2273  1.0299 -0.1378
  384SOL    HW2 1268   5.704   6.043   3.915 -0.0555  1.2158 -0.3173
  384SOL    HW3 1269   5.702   5.974   3.780  0.1808  2.4181 -0.9504
  384SOL    MW4 1270   5.662   6.019   3.842  0.2937 -0.1052  0.1899
  385SOL     OW 1271   5.073   3.212   5.158 -0.3891 -0.2460 -0.0564
  385SOL    HW2 1272   5.144   3.166   5.114  1.6202  1.1533  1.5389
  385SOL    HW3 1273   5.027   3.259   5.088  0.4416 -0.9401 -1.0841
  385SOL    MW4 1274   5.076   3.212   5.143  0.3988  0.2469  0.5260
  386SOL     OW 1275   2.510   0.129   3.541  0.0422 -0.0842 -0.0108
  386SOL    HW2 1276   2.488   0.201   3.600 -0.0097 -0.7290  0.7777
  386SOL    HW3 1277   2.453   0.142   3.465 -0.4821  0.3085  0.4380
  386SOL    MW4 1278   2.499   0.140   3.539 -0.6313 -0.1475 -0.2549
  387SOL     OW 1279   5.711   5.286   0.344 -0.3730 -0.0617  0.1432
  387SOL    HW2 1280   5.715   5.357   0.408 -1.1775  1.1356 -1.0747
  387SOL    HW3 1281   5.796   5.289   0.300  0.3462 -1.1565  1.3618
  387SOL    MW4 1282   5.723   5.296   0.347 -0.3294 -0.4377 -0.0341
  388SOL     OW 1283   3.323   0.028   4.427 -0.0394  0.1924  0.2756
  388SOL    HW2 1284   3.366   0.044   4.510 -0.7074  0.2990  0.6093
  388SOL    HW3 1285   3.267  -0.048   4.443 -1.2043  1.0373  0.3253
  388SOL    MW4 1286   3.321   0.020   4.440 -0.2302 -0.0063 -0.1444
  389SOL     OW 1287   5.655   4.328   0.767 -0.4722  0.5047 -0.6013
  389SOL    HW2 1288   5.584   4.370   0.719  0.1638  0.9920 -1.1285
  389SOL    HW3 1289   5.734   4.376   0.741 -0.0632  0.5498  0.6663
  389SOL    MW4 1290   5.656   4.340   0.757  0.0805 -0.0559 -0.1542
  390SOL     OW 1291   4.755   1.404   5.027  0.5137  0.1324  0.4469
  390SOL    HW2 1292   4.778   1.430   4.937 -0.0971 -0.4605  0.1065
  390SOL    HW3 1293   4.824   1.442   5.081  1.6450 -0.6403 -0.4042
  390SOL    MW4 1294   4.767   1.412   5.022 -0.5203 -0.1397 -0.2902
  391SOL     OW 1295   5.982   0.895   5.977  0.0248 -0.5094 -0.2467
  391SOL    HW2 1296   6.063   0.871   6.022  1.3644  1.4961 -1.4194
  391SOL    HW3 1297   5.927   0.933   6.045  1.0310  0.2773  0.1471
  391SOL    MW4 1298   5.985   0.897   5.992  0.0575  0.8432  0.3115
  392SOL     OW 1299   1.752   2.847   1.368  0.1423  0.1211  0.5760
  392SOL    HW2 1300   1.733   2.935   1.401 -0.1726 -0.4425  1.9482
  392SOL    HW3 1301   1.671   2.820   1.325  0.2170  0.4637  0.2106
  392SOL    MW4 1302   1.739   2.855   1.366 -0.5475  0.2958  0.1034
  393SOL     OW 1303   6.112   2.635   3.002  0.0483 -0.3324 -0.3059
  393SOL    HW2 1304   6.129   2.634   2.907 -0.7086  0.2637 -0.4611
  393SOL    HW3 1305   6.065   2.553   3.018  1.3815 -1.0985 -0.1910
  393SOL    MW4 1306   6.108   2.624   2.991 -0.1051 -0.2693 -0.7512
  394SOL     OW 1307   4.827   1.750   1.088  0.4478 -0.2290  0.4930
  394SOL    HW2 1308   4.917   1.725   1.069  0.9121  1.5308  0.2219
  394SOL    HW3 1309   4.832   1.802   1.167  0.0008  1.7516 -0.7181
  394SOL    MW4 1310   4.839   1.753   1.096  0.3022  0.6367  0.5931
  395SOL     OW 1311   6.293   2.160   1.108  0.0065  0.1431  0.0043
  395SOL    HW2 1312   6.200   2.138   1.097 -0.3705  1.0652  1.0913
  395SOL    HW3 1313   6.304   2.167   1.203  1.5329 -1.3259 -0.0111
  395SOL    MW4 1314   6.282   2.158   1.119  0.0677  0.3914  0.1194
  396SOL     OW 1315   5.173   5.754   0.514 -0.2868 -0.2670  0.2428
  396SOL    HW2 1316   5.142   5.710   0.594  0.5790  0.0674  0.7861
  396SOL    HW3 1317   5.214   5.684   0.463 -0.1016 -0.3362  0.4833
  396SOL    MW4 1318   5.174   5.739   0.518 -0.2931 -0.5363  0.0098
  397SOL     OW 1319   2.368   4.845   3.458  0.3594 -0.7444  0.0236
  397SOL    HW2 1320   2.376   4.903   3.383  1.0974 -0.1377  0.5562
  397SOL    HW3 1321   2.417   4.766   3.434 -0.9431 -1.3354 -0.8440
  397SOL    MW4 1322   2.375   4.842   3.445 -0.2272 -0.0720  0.9467
  398SOL     OW 1323   3.574   4.407   4.483  0.0090  0.3286 -0.0357
  398SOL    HW2 1324   3.622   4.325   4.493 -2.3912 -1.4215 -1.6555
  398SOL    HW3 1325   3.638   4.476   4.502  2.5357 -1.8551 -0.1486
  398SOL    MW4 1326   3.589   4.405   4.487 -0.1939 -0.0767 -0.5172
  399SOL     OW 1327   1.328   4.940   5.585  0.0175  0.1805  0.6040
  399SOL    HW2 1328   1.301   5.029   5.608 -0.1706  0.2986 -0.0519
  399SOL    HW3 1329   1.418   4.950   5.552 -0.1896  0.2142  0.0289
  399SOL    MW4 1330   1.337   4.953   5.583  0.2934 -0.1423 -0.6102
  400SOL     OW 1331   5.727   4.921   5.331 -0.3916 -0.0265  1.0275
  400SOL    HW2 1332   5.648   4.924   5.384 -1.3318 -0.0345 -0.3265
  400SOL    HW3 1333   5.739   5.011   5.301  0.6469  0.1672  1.9224
  400SOL    MW4 1334   5.718   4.934   5.334 -0.2213  0.3081  0.2893
  401SOL     OW 1335   0.054   0.894   3.874 -0.2758  0.1557  0.0152
  401SOL    HW2 1336   0.023   0.850   3.794  1.1476  0.2020 -0.5789
  401SOL    HW3 1337   0.149   0.887   3.870 -0.0267  2.5705  0.3323
  401SOL    MW4 1338   0.062   0.887   3.863  0.4141  0.0269 -0.2072
  402SOL     OW 1339   1.123   1.622   2.061  0.0614 -0.8236  0.6450
  402SOL    HW2 1340   1.134   1.702   2.113 -0.4079  0.1508 -0.7134
  402SOL    HW3 1341   1.188   1.562   2.097  2.4365  1.1112 -0.1108
  402SOL    MW4 1342   1.133   1.625   2.073 -0.3624 -0.2650  1.0734
  403SOL     OW 1343   3.194   2.261   6.038 -0.1109 -0.8939 -0.2136
  403SOL    HW2 1344   3.103   2.249   6.008 -0.1952  2.3164 -1.7270
  403SOL    HW3 1345   3.247   2.226   5.966 -0.2429  0.0610 -0.8013
  403SOL    MW4 1346   3.189   2.255   6.024 -0.0482  0.5563 -0.1945
  404SOL     OW 1347   3.803   5.207   5.115 -0.1234  0.0777  0.3256
  404SOL    HW2 1348   3.785   5.280   5.174  0.7722 -0.2520  1.0144
  404SOL    HW3 1349   3.886   5.170   5.145 -1.0139 -1.8265  0.5936
  404SOL    MW4 1350   3.811   5.212   5.127 -0.2275  0.4605  0.1923
  405SOL     OW 1351   3.749   3.730   2.017 -0.1350  0.0271 -0.1111
  405SOL    HW2 1352   3.825   3.719   1.960 -1.2308  1.2714 -1.8802
  405SOL    HW3 1353   3.715   3.817   1.997 -2.4655 -0.7668  0.0594
  405SOL    MW4 1354   3.755   3.740   2.007 -0.3481  0.1066  0.1557
  406SOL     OW 1355   5.291   1.316   0.651  0.5237  0.1513  0.1628
  406SOL    HW2 1356   5.273   1.406   0.679  2.0145  1.1694 -1.8362
  406SOL    HW3 1357   5.279   1.318   0.556 -1.4270 -2.3318  0.2807
  406SOL    MW4 1358   5.287   1.329   0.642  0.8709 -0.1265  0.3911
  407SOL     OW 1359   4.219   3.081   0.768  0.2026  0.3438 -0.1091
  407SOL    HW2 1360   4.165   3.050   0.695  1.1892 -0.3666 -0.5522
  407SOL    HW3 1361   4.165   3.066   0.846 -0.6814  0.6926 -0.6325
  407SOL    MW4 1362   4.204   3.075   0.769 -0.2758 -0.1896  0.3088
  408SOL     OW 1363   5.762   5.719   4.217 -0.1082 -0.6441  0.1689
  408SOL    HW2 1364   5.804   5.637   4.242  2.0135  0.6456  1.0748
  408SOL    HW3 1365   5.828   5.767   4.169 -0.8752  1.0500  0.7267
  408SOL    MW4 1366   5.776   5.715   4.214  0.3290 -0.5528  1.0762
  409SOL     OW 1367   3.432   1.794   4.670  0.1417  0.0718 -0.3009
  409SOL    HW2 1368   3.491   1.861   4.707 -1.0703  1.9462 -1.5752
  409SOL    HW3 1369   3.363   1.785   4.735 -0.9108  1.8545 -1.0888
  409SOL    MW4 1370   3.431   1.802   4.683  1.0723  0.0134 -0.4889
  410SOL     OW 1371   3.727   3.288   3.164  0.0757 -0.0908 -0.4003
  410SOL    HW2 1372   3.670   3.212   3.176 -0.3968  0.1131 -1.2809
  410SOL    HW3 1373   3.814   3.258   3.192  0.1345 -1.3202 -1.7945
  410SOL    MW4 1374   3.731   3.274   3.169  0.5927 -0.4336 -0.2650
  411SOL     OW 1375   6.417   2.763   2.068 -1.2306  0.0114 -0.4800
  411SOL    HW2 1376   6.401   2.734   1.978 -1.7515  0.0630 -0.4110
  411SOL    HW3 1377   6.329   2.781   2.103 -0.9929  0.5437 -0.1454
  411SOL    MW4 1378   6.403   2.761   2.061 -0.1930  0.3946 -0.1903
  412SOL     OW 1379   1.282   5.254   0.266  0.4619  0.4867  0.1533
  412SOL    HW2 1380   1.223   5.199   0.317  0.8211 -0.4633 -0.4298
  412SOL    HW3 1381   1.225   5.296   0.201  0.6406 -1.8095 -1.5742
  412SOL    MW4 1382   1.266   5.253   0.264  0.0131  0.2076  0.1264
  413SOL     OW 1383   0.738   4.739   3.325 -0.4411  0.0026 -0.4906
  413SOL    HW2 1384   0.726   4.799   3.399  0.0873  0.3516 -0.6873
  413SOL    HW3 1385   0.657   4.687   3.324 -0.2953 -0.2844  0.5845
  413SOL    MW4 1386   0.726   4.740   3.335  0.2395  0.0026  0.0399
  414SOL     OW 1387   2.555   3.587   5.885  0.3956 -0.7380  0.1800
  414SOL    HW2 1388   2.494   3.562   5.816  0.2275  0.5212 -0.1367
  414SOL    HW3 1389   2.503   3.638   5.947  0.5592 -1.7916  1.2420
  414SOL    MW4 1390   2.540   3.590   5.884 -0.4856  0.5717 -0.4980
  415SOL     OW 1391   0.986   3.090   1.907 -0.3424  0.8643 -0.5218
  415SOL    HW2 1392   0.942   3.165   1.867 -0.3329  1.6930  0.9414
  415SOL    HW3 1393   0.931   3.066   1.981  0.4851  0.4561 -0.0240
  415SOL    MW4 1394   0.973   3.097   1.911 -0.1147  0.1148  0.2804
  416SOL     OW 1395   4.624   0.615   0.185 -0.2150  0.2244 -0.1183
  416SOL    HW2 1396   4.685   0.665   0.239 -2.1279  0.1848  2.2517
  416SOL    HW3 1397   4.573   0.564   0.248 -0.7233 -2.0118 -2.2099
  416SOL    MW4 1398   4.625   0.615   0.201  0.0644 -1.2004 -0.2146
  417SOL     OW 1399   2.938   0.246   1.562  0.3844 -0.3835 -0.1583
  417SOL    HW2 1400   3.023   0.292   1.565  0.4530 -0.5200 -0.0363
  417SOL    HW3 1401   2.961   0.153   1.565  0.2961 -0.4575 -1.4241
  417SOL    MW4 1402   2.953   0.240   1.563  0.1897 -0.2715  0.0184
  418SOL     OW 1403   3.748   4.112   3.268 -0.6316  0.4061  0.1413
  418SOL    HW2 1404   3.748   4.032   3.321  1.3333 -1.4911 -2.4617
  418SOL    HW3 1405   3.809   4.171   3.314 -0.1477 -0.5669  0.7839
  418SOL    MW4 1406   3.756   4.110   3.281  0.0973  0.2940 -0.2645
  419SOL     OW 1407   0.344   1.077   1.951  0.4129  0.1788  0.2596
  419SOL    HW2 1408   0.268   1.107   1.900  0.2608 -1.9448 -0.8967
  419SOL    HW3 1409   0.419   1.123   1.913  0.0241  0.3026 -0.3667
  419SOL    MW4 1410   0.344   1.087   1.939  0.0702  0.1208 -0.2740
  420SOL     OW 1411   5.531   3.654   0.122  0.1371  0.0273 -0.4717
  420SOL    HW2 1412   5.567   3.718   0.183 -1.1315 -0.3161  0.6816
  420SOL    HW3 1413   5.523   3.701   0.039  1.8946  0.4966 -0.3947
  420SOL    MW4 1414   5.534   3.668   0.119 -0.3605 -0.4194  0.4414
  421SOL     OW 1415   2.197   5.841   1.193 -0.0244  0.8999 -0.1930
  421SOL    HW2 1416   2.210   5.868   1.102  0.1867  0.2050 -0.3715
  421SOL    HW3 1417   2.263   5.891   1.242  1.1563 -0.1454 -0.6742
  421SOL    MW4 1418   2.207   5.851   1.187 -0.1517 -0.3308 -0.4586
  422SOL     OW 1419   4.337   5.010   5.379 -0.2695  0.2035  0.0858
  422SOL    HW2 1420   4.372   5.099   5.382  0.0933  0.0975 -0.8430
  422SOL    HW3 1421   4.247   5.019   5.412  0.5000  0.5104  2.2845
  422SOL    MW4 1422   4.330   5.023   5.384  0.3623 -0.3535 -0.0214
  423SOL     OW 1423   1.276   2.851   4.885 -0.0353 -0.2206  0.5096
  423SOL    HW2 1424   1.356   2.902   4.898 -0.0225  0.0173 -0.4133
  423SOL    HW3 1425   1.209   2.917   4.866 -0.0739 -0.5301 -0.4534
  423SOL    MW4 1426   1.277   2.867   4.884 -0.1045  0.0415 -0.1199
  424SOL     OW 1427   0.543   2.011   5.430  0.6060  0.3649 -0.1137
  424SOL    HW2 1428   0.558   1.950   5.358 -0.9541  0.3130 -0.4346
  424SOL    HW3 1429   0.517   1.956   5.504  2.9952  0.3392  0.7987
  424SOL    MW4 1430   0.541   1.996   5.431  0.0274  0.0207 -0.4296
  425SOL     OW 1431   4.644   1.397   4.679 -0.5452 -0.9157 -0.4784
  425SOL    HW2 1432   4.603   1.383   4.594 -1.8580 -1.1394  0.1638
  425SOL    HW3 1433   4.657   1.492   4.685 -2.1540 -0.6819 -0.1991
  425SOL    MW4 1434   4.640   1.408   4.669 -0.3361  0.5390  0.1283
  426SOL     OW 1435   4.152   5.851   6.254  0.4850  0.1473  0.3226
  426SOL    HW2 1436   4.120   5.785   6.193  0.8337  0.2223  0.0559
  426SOL    HW3 1437   4.162   5.930   6.202  1.2180  0.0931  0.3693
  426SOL    MW4 1438   4.149   5.852   6.239 -0.2850 -0.1441 -0.3267
  427SOL     OW 1439   6.407   6.320   0.923  0.9130  0.2619 -0.8878
  427SOL    HW2 1440   6.312   6.312   0.912  0.9375 -1.3297 -0.1704
  427SOL    HW3 1441   6.419   6.342   1.015  1.2054  1.8912 -1.2900
  427SOL    MW4 1442   6.396   6.322   0.934 -0.2444  0.4397  0.1755
  428SOL     OW 1443   4.342   2.141   1.296  0.1074  0.3639  0.3739
  428SOL    HW2 1444   4.276   2.144   1.227 -0.2618 -0.3373  0.6809
  428SOL    HW3 1445   4.367   2.232   1.309 -1.2462  0.7169  0.6727
  428SOL    MW4 1446   4.336   2.153   1.288 -0.0165  0.4375 -0.6006
  429SOL     OW 1447   3.223   3.294   4.024  0.3750  0.3605 -0.0206
  429SOL    HW2 1448   3.201   3.347   4.101 -2.4871  2.5132 -2.1185
  429SOL    HW3 1449   3.163   3.219   4.028  0.0061  0.6381 -0.2924
  429SOL    MW4 1450   3.212   3.291   4.035 -0.5423 -0.1454 -0.0438
  430SOL     OW 1451   2.394   4.272   1.187 -0.4200  0.1002  0.0623
  430SOL    HW2 1452   2.424   4.363   1.183 -2.3402  0.8346  1.2296
  430SOL    HW3 1453   2.439   4.229   1.114  2.7054  1.2624  1.1325
  430SOL    MW4 1454   2.404   4.278   1.176 -0.1968  0.7322 -0.8078
  431SOL     OW 1455   6.172   5.107   6.172  0.2420  0.5218  0.4268
  431SOL    HW2 1456   6.248   5.056   6.197 -0.1659 -0.4629 -0.3021
  431SOL    HW3 1457   6.175   5.111   6.077 -1.5233 -1.0214  0.2409
  431SOL    MW4 1458   6.182   5.101   6.163  0.0854 -0.1637 -0.0901
  432SOL     OW 1459   1.162   4.409   5.767  0.5152  0.1027  0.1737
  432SOL    HW2 1460   1.222   4.483   5.772 -0.3811  0.7865  1.0535
  432SOL    HW3 1461   1.085   4.443   5.721 -0.3944  0.0843  1.6359
  432SOL    MW4 1462   1.160   4.423   5.762  0.2099 -0.3812  0.0239
  433SOL     OW 1463   1.253   3.238   2.400 -0.0331 -0.2855 -0.2279
  433SOL    HW2 1464   1.179   3.244   2.462 -1.1964 -0.6174 -1.5368
  433SOL    HW3 1465   1.213   3.248   2.314  1.3288 -1.4309 -1.0402
  433SOL    MW4 1466   1.238   3.240   2.397 -0.2739  0.2463 -0.1772
  434SOL     OW 1467   2.756   2.647   0.920  0.5100 -0.3544 -0.0685
  434SOL    HW2 1468   2.725   2.602   0.841  1.6536 -2.2399  0.4816
  434SOL    HW3 1469   2.816   2.714   0.889 -0.0364 -0.2244 -0.8548
  434SOL    MW4 1470   2.760   2.650   0.906  0.4402 -0.7386 -0.0871
  435SOL     OW 1471   3.408   5.046   3.614  0.5098 -0.0299  0.3373
  435SOL    HW2 1472   3.324   5.011   3.644  0.2895 -1.3875 -1.6487
  435SOL    HW3 1473   3.385   5.109   3.546  1.0411  1.8294  1.8090
  435SOL    MW4 1474   3.394   5.050   3.609 -0.5190  0.3267  0.9914
  436SOL     OW 1475   0.444   0.763   1.581 -0.1670 -0.4597 -0.0090
  436SOL    HW2 1476   0.524   0.797   1.543  0.2865 -0.9758  0.4571
  436SOL    HW3 1477   0.382   0.760   1.509  0.4852 -0.8406 -0.5615
  436SOL    MW4 1478   0.446   0.767   1.567 -0.3125  0.4246 -0.3019
  437SOL     OW 1479   0.502   5.764   2.729 -0.3207 -0.0157  0.5760
  437SOL    HW2 1480   0.589   5.737   2.702 -1.3957 -1.4474 -1.7774
  437SOL    HW3 1481   0.474   5.695   2.790 -0.3400 -0.3817  0.1636
  437SOL    MW4 1482   0.510   5.751   2.734  0.0900  0.2881  0.4555
  438SOL     OW 1483   3.297   2.987   5.054 -0.0047 -0.2796 -0.3749
  438SOL    HW2 1484   3.217   2.957   5.011 -1.4325  0.5227  1.5714
  438SOL    HW3 1485   3.307   3.078   5.026  0.3616 -0.4399 -0.7767
  438SOL    MW4 1486   3.288   2.995   5.045 -0.3671 -0.4882  0.7968
  439SOL     OW 1487   5.509   3.723   2.267 -0.1574 -0.4137  0.5250
  439SOL    HW2 1488   5.456   3.644   2.254 -2.3421  0.9688  0.4599
  439SOL    HW3 1489   5.552   3.736   2.182  1.6667 -2.4401  1.0531
  439SOL    MW4 1490   5.508   3.714   2.254 -0.4525  0.5606 -0.1286
  440SOL     OW 1491   4.027   3.321   3.219  0.2293 -0.0983  0.0720
  440SOL    HW2 1492   4.032   3.412   3.191 -0.3150 -0.5131 -1.4782
  440SOL    HW3 1493   4.042   3.271   3.139 -1.5408 -1.3517  0.4694
  440SOL    MW4 1494   4.030   3.326   3.205  0.5328  0.3359  0.4319
  441SOL     OW 1495   3.326   4.305   4.362  0.6101 -0.7312  0.3197
  441SOL    HW2 1496   3.402   4.350   4.399  0.3382 -2.0086  2.5766
  441SOL    HW3 1497   3.311   4.349   4.278  0.5482  3.1922  2.1612
  441SOL    MW4 1498   3.334   4.317   4.355  0.7390 -1.2728 -0.1225
  442SOL     OW 1499   2.869   4.230   5.194  0.0420  0.3287 -0.5200
  442SOL    HW2 1500   2.911   4.283   5.126  0.2629 -0.4031 -0.9657
  442SOL    HW3 1501   2.860   4.144   5.154  0.2846 -0.1438  0.4223
  442SOL    MW4 1502   2.874   4.226   5.180 -0.1656 -0.1095 -0.1306
  443SOL     OW 1503   4.008   6.131   0.127  0.3028  0.6722  0.2489
  443SOL    HW2 1504   3.999   6.148   0.221  0.4168  0.1369  0.3592
  443SOL    HW3 1505   4.068   6.057   0.122  2.7384  2.5572 -0.3767
  443SOL    MW4 1506   4.015   6.123   0.139  0.1765 -0.5200  0.6800
  444SOL     OW 1507   5.617   2.895   4.240  0.3306 -0.2102  0.0867
  444SOL    HW2 1508   5.534   2.899   4.193  0.3866  1.2095  0.0605
  444SOL    HW3 1509   5.651   2.985   4.236  0.6218 -0.1682  2.3567
  444SOL    MW4 1510   5.611   2.908   4.233 -0.0422  0.2529  0.0869
  445SOL     OW 1511   2.307   1.040   3.061  0.7146 -0.7017 -0.8117
  445SOL    HW2 1512   2.270   1.029   2.973 -0.6721  1.2703 -0.5425
  445SOL    HW3 1513   2.383   1.096   3.048  0.1468  0.1058 -0.7013
  445SOL    MW4 1514   2.312   1.046   3.048 -0.1448 -0.5121  0.0771
  446SOL     OW 1515   5.083   6.304   1.907 -0.1849 -0.0882  0.4402
  446SOL    HW2 1516   5.074   6.285   1.814 -1.4359 -0.6546  0.6604
  446SOL    HW3 1517   5.018   6.248   1.950 -0.1170  0.6765  1.5961
  446SOL    MW4 1518   5.073   6.294   1.901 -0.0614  0.2097  0.1303
  447SOL     OW 1519   3.398   5.428   0.239  0.8965 -0.6811 -0.0362
  447SOL    HW2 1520   3.365   5.346   0.203  0.8115 -0.7987  0.3027
  447SOL    HW3 1521   3.334   5.493   0.212  0.4869 -0.8759  0.4469
  447SOL    MW4 1522   3.385   5.426   0.231  0.3442 -0.2506 -0.2438
  448SOL     OW 1523   5.868   4.504   0.703  0.2122  0.2557 -0.0957
  448SOL    HW2 1524   5.942   4.445   0.687 -1.1696 -1.4928 -0.2296
  448SOL    HW3 1525   5.853   4.547   0.619  2.0888  1.9497  0.3279
  448SOL    MW4 1526   5.876   4.502   0.690 -0.5631 -0.1196  0.3343
  449SOL     OW 1527   1.349   1.745   3.493  0.1507  0.1773  0.4321
  449SOL    HW2 1528   1.397   1.785   3.419 -0.3067  0.9403  0.5374
  449SOL    HW3 1529   1.365   1.651   3.483 -0.7428  0.1527 -1.2482
  449SOL    MW4 1530   1.358   1.738   3.482  0.2139  0.0630  0.0113
  450SOL     OW 1531   4.384   2.879   0.623 -0.2479 -0.0232  0.0669
  450SOL    HW2 1532   4.466   2.858   0.667 -0.3445 -1.2443 -0.2905
  450SOL    HW3 1533   4.337   2.934   0.685  1.9272  3.0580 -0.7717
  450SOL    MW4 1534   4.389   2.883   0.637 -0.2815  0.3458  0.6217
  451SOL     OW 1535   4.956   4.504   1.989  0.5699 -0.3186  0.2566
  451SOL    HW2 1536   4.982   4.442   1.921  0.7097  0.0033  0.0156
  451SOL    HW3 1537   5.024   4.571   1.988 -0.4055  0.6958 -0.5955
  451SOL    MW4 1538   4.968   4.505   1.980 -0.1482  0.1055 -0.5405
  452SOL     OW 1539   3.754   1.737   1.841 -0.4541  0.1129  0.3794
  452SOL    HW2 1540   3.695   1.735   1.916  0.4932 -0.5417  1.1358
  452SOL    HW3 1541   3.813   1.662   1.855  0.1277  0.3537 -0.6921
  452SOL    MW4 1542   3.754   1.727   1.853  0.2458 -0.1608  0.4090
  453SOL     OW 1543   3.282   3.103   3.129 -0.6460 -0.2272 -0.0144
  453SOL    HW2 1544   3.374   3.079   3.128 -0.9554 -1.6545 -2.3671
  453SOL    HW3 1545   3.240   3.034   3.180 -0.5388 -0.1996  0.1098
  453SOL    MW4 1546   3.288   3.091   3.135 -0.5449 -0.2254 -0.1208
  454SOL     OW 1547   2.456   2.095   3.762 -0.0181 -0.2277 -0.6033
  454SOL    HW2 1548   2.513   2.123   3.690  1.9115 -0.6935  0.6731
  454SOL    HW3 1549   2.415   2.014   3.730  1.3234 -0.7943 -0.9642
  454SOL    MW4 1550   2.458   2.088   3.748  0.4615  0.0337 -0.1073
  455SOL     OW 1551   2.636   3.775   5.272  0.3281 -0.8054  0.3121
  455SOL    HW2 1552   2.677   3.759   5.358  2.0687  0.0019 -0.3102
  455SOL    HW3 1553   2.552   3.729   5.276 -0.8107  1.2516  3.3481
  455SOL    MW4 1554   2.631   3.767   5.284 -0.4968 -0.6031 -0.2711
  456SOL     OW 1555   2.834   4.286   0.731  0.1525  0.0487 -0.7602
  456SOL    HW2 1556   2.890   4.345   0.783 -1.3983  1.2319 -0.3783
  456SOL    HW3 1557   2.889   4.261   0.657  1.9872 -0.6592  0.7415
  456SOL    MW4 1558   2.849   4.290   0.728  0.0023  0.3717 -0.3613
  457SOL     OW 1559   1.445   1.909   1.236 -0.7600 -0.6237  0.1298
  457SOL    HW2 1560   1.382   1.960   1.185  1.3661 -0.1504 -2.2417
  457SOL    HW3 1561   1.438   1.820   1.202  1.2198 -0.1489 -1.7077
  457SOL    MW4 1562   1.436   1.904   1.225  0.3309  0.1106 -0.1228
  458SOL     OW 1563   3.348   5.343   4.953 -0.0335  0.4616  0.9133
  458SOL    HW2 1564   3.421   5.341   4.891  0.5333 -1.1013  1.5970
  458SOL    HW3 1565   3.385   5.310   5.035 -1.2379  0.7241  1.5837
  458SOL    MW4 1566   3.362   5.338   4.956 -0.1157 -0.4812 -0.0666
  459SOL     OW 1567   6.247   2.827   1.250 -0.4834  0.4052 -0.2890
  459SOL    HW2 1568   6.314   2.879   1.206  1.0547  0.2156  1.6875
  459SOL    HW3 1569   6.191   2.794   1.180  3.2858 -2.0235 -2.4700
  459SOL    MW4 1570   6.248   2.829   1.235 -0.6171 -0.8886 -0.1201
  460SOL     OW 1571   3.701   0.747   1.527 -0.0492  0.0661 -0.4271
  460SOL    HW2 1572   3.644   0.675   1.499  0.8685 -0.9539  0.2903
  460SOL    HW3 1573   3.788   0.723   1.496 -0.0146  1.8616 -1.9717
  460SOL    MW4 1574   3.705   0.734   1.519  0.6711  0.1583 -0.3261
  461SOL     OW 1575   2.933   3.718   1.506 -0.6229  0.6675  0.0166
  461SOL    HW2 1576   3.020   3.750   1.530 -0.1874 -0.3653 -0.1746
  461SOL    HW3 1577   2.949   3.654   1.437 -1.3842 -0.9201  1.2766
  461SOL    MW4 1578   2.947   3.714   1.500  0.2155 -0.4823  0.7239
  462SOL     OW 1579   1.541   2.289   4.880  0.8952 -0.2243 -0.1985
  462SOL    HW2 1580   1.495   2.351   4.823  0.6862  0.1415  0.3517
  462SOL    HW3 1581   1.525   2.322   4.969  1.1353 -0.8312  0.0791
  462SOL    MW4 1582   1.533   2.302   4.884  0.6142 -0.0213 -0.4836
  463SOL     OW 1583   5.822   0.193   2.453 -0.0192 -0.0067  0.2518
  463SOL    HW2 1584   5.758   0.264   2.447 -0.1638 -0.1366  0.2304
  463SOL    HW3 1585   5.776   0.124   2.501 -0.3188 -0.5622 -0.8139
  463SOL    MW4 1586   5.807   0.193   2.458 -0.1056 -0.3746 -0.3791
  464SOL     OW 1587   5.588   1.997   2.091 -0.5852  0.3771  0.7243
  464SOL    HW2 1588   5.613   2.087   2.111 -0.3868  0.5207 -0.1541
  464SOL    HW3 1589   5.661   1.944   2.125 -0.4753  0.5799  0.8056
  464SOL    MW4 1590   5.601   2.002   2.098  0.3605  0.2673  0.3403
  465SOL     OW 1591   4.735   0.307   1.708  0.6732 -0.2475 -0.2451
  465SOL    HW2 1592   4.786   0.320   1.628  2.9649 -2.5538  0.6803
  465SOL    HW3 1593   4.761   0.379   1.765  0.9210  0.0343 -0.7091
  465SOL    MW4 1594   4.746   0.318   1.705  0.2092 -0.0597  0.0101
  466SOL     OW 1595   3.885   1.145   5.552  0.4394  0.3933  0.4449
  466SOL    HW2 1596   3.889   1.058   5.512  0.5840  0.0726  1.1415
  466SOL    HW3 1597   3.917   1.132   5.641 -1.2273  0.8045  1.1518
  466SOL    MW4 1598   3.889   1.132   5.558 -0.2199 -0.1446  0.0244
  467SOL     OW 1599   3.862   0.674   6.281  0.8135 -1.1823  0.1334
  467SOL    HW2 1600   3.809   0.658   6.203 -1.6364 -0.2392  1.4896
  467SOL    HW3 1601   3.916   0.595   6.290  0.6783 -1.5910 -2.0871
  467SOL    MW4 1602   3.862   0.661   6.272 -0.4432 -0.2281 -0.1414
  468SOL     OW 1603   4.732   3.380   2.333  0.0401  0.1911 -0.1876
  468SOL    HW2 1604   4.648   3.424   2.319  0.5144  1.3539  0.4502
  468SOL    HW3 1605   4.728   3.349   2.423  1.4382  3.0123  0.9643
  468SOL    MW4 1606   4.720   3.382   2.343  0.2798  0.3509  0.1974
  469SOL     OW 1607   3.750   2.715   4.392 -0.0621  0.0065 -0.0978
  469SOL    HW2 1608   3.802   2.757   4.461 -1.5056  0.4688  0.7435
  469SOL    HW3 1609   3.707   2.788   4.346 -1.1807 -0.4323  0.2239
  469SOL    MW4 1610   3.751   2.730   4.395  0.5870  0.3308 -0.2460
  470SOL     OW 1611   5.324   5.997   4.288 -0.3651 -0.6871  0.1820
  470SOL    HW2 1612   5.381   6.027   4.359 -1.7155 -0.6784  1.3096
  470SOL    HW3 1613   5.318   6.072   4.229 -1.2131  0.2337  1.3700
  470SOL    MW4 1614   5.331   6.011   4.290  0.2471  0.3245 -0.3271
  471SOL     OW 1615   6.169   5.018   3.403 -0.3477 -0.4616  0.1382
  471SOL    HW2 1616   6.252   4.989   3.365  0.3472  0.6222  0.7856
  471SOL    HW3 1617   6.137   4.941   3.451  0.5464 -0.7345  0.3214
  471SOL    MW4 1618   6.176   5.004   3.404  0.4524  0.1332  0.3292
  472SOL     OW 1619   3.295   2.035   3.835  0.5001  0.1312 -0.1877
  472SOL    HW2 1620   3.335   2.045   3.921  0.9554 -1.3366 -0.1847
  472SOL    HW3 1621   3.205   2.063   3.846  0.6054  0.1448  0.7170
  472SOL    MW4 1622   3.289   2.040   3.847 -0.1729  0.0524 -0.2791
  473SOL     OW 1623   3.506   1.667   0.587  0.4499 -0.0727 -0.3242
  473SOL    HW2 1624   3.541   1.746   0.545  1.2462  0.5829  1.4840
  473SOL    HW3 1625   3.576   1.638   0.646 -0.4395 -1.2290  0.2033
  473SOL    MW4 1626   3.520   1.674   0.589 -0.5164  0.4512  0.4587
  474SOL     OW 1627   2.949   5.744   0.072  0.2465  0.4377  0.3433
  474SOL    HW2 1628   2.928   5.658   0.108 -0.3784  0.2717 -0.3834
  474SOL    HW3 1629   2.894   5.751  -0.006 -0.3355  1.8365  0.8462
  474SOL    MW4 1630   2.939   5.734   0.067 -0.3951 -0.2018  0.1386
  475SOL     OW 1631   4.024   0.304   3.217 -0.2146 -0.3044  1.1461
  475SOL    HW2 1632   4.098   0.256   3.179 -1.4929 -1.1044 -0.4816
  475SOL    HW3 1633   4.035   0.394   3.185 -0.1556 -0.5046  0.5929
  475SOL    MW4 1634   4.035   0.309   3.207  0.3751 -0.1801  0.5708
  476SOL     OW 1635   2.626   2.539   0.294 -0.0211 -0.1723 -0.3830
  476SOL    HW2 1636   2.660   2.455   0.326 -0.0167  0.5521  1.7091
  476SOL    HW3 1637   2.540   2.518   0.257 -0.6402 -0.9536  1.3734
  476SOL    MW4 1638   2.619   2.525   0.294 -0.1190  0.1616  0.3673
  477SOL     OW 1639   2.696   2.360   1.524 -0.3478 -0.0055  0.1941
  477SOL    HW2 1640   2.776   2.316   1.496  0.3541  0.4951  1.3571
  477SOL    HW3 1641   2.720   2.452   1.530 -1.5785  0.4700 -1.4085
  477SOL    MW4 1642   2.709   2.366   1.521 -0.2444  0.1199 -0.2273
  478SOL     OW 1643   3.193   6.101   0.660  0.2686  0.3664  0.1318
  478SOL    HW2 1644   3.194   6.082   0.566 -0.1662  1.5250 -0.1226
  478SOL    HW3 1645   3.100   6.113   0.681  0.2581 -0.8836  0.9434
  478SOL    MW4 1646   3.180   6.100   0.650  0.0296 -0.0552  0.3521
  479SOL     OW 1647   3.798   6.259   6.165  0.6563  0.2453  0.0630
  479SOL    HW2 1648   3.794   6.204   6.243  0.9374  1.2804  0.8229
  479SOL    HW3 1649   3.848   6.207   6.102 -1.2540 -1.4277 -0.1492
  479SOL    MW4 1650   3.804   6.245   6.167 -0.3200 -0.0499  0.0551
  480SOL     OW 1651   2.178   3.136   5.635 -0.0857 -0.0283  0.3116
  480SOL    HW2 1652   2.245   3.102   5.694 -1.5096 -1.9754  0.9203
  480SOL    HW3 1653   2.099   3.143   5.689 -0.3720  2.4622 -0.3076
  480SOL    MW4 1654   2.176   3.132   5.650  0.4099 -0.4027  0.1886
  481SOL     OW 1655   0.357   0.047   3.026 -1.4821 -0.4974  0.0221
  481SOL    HW2 1656   0.324   0.008   2.944 -1.7490  0.0338 -0.1257
  481SOL    HW3 1657   0.348  -0.023   3.090  0.0615 -1.4058 -0.6976
  481SOL    MW4 1658   0.351   0.032   3.024 -0.2238  0.2529  0.2796
  482SOL     OW 1659   4.089   1.401   3.732  0.8404 -0.2041  0.1207
  482SOL    HW2 1660   4.099   1.369   3.821 -1.6630  1.4984  1.1018
  482SOL    HW3 1661   4.147   1.477   3.726  2.1361 -1.1835 -0.2448
  482SOL    MW4 1662   4.098   1.407   3.743  0.6821  0.3942 -0.4694
  483SOL     OW 1663   1.474   2.933   3.829  0.0931 -0.0081  0.5597
  483SOL    HW2 1664   1.466   2.842   3.857  0.2229 -0.4218 -0.6756
  483SOL    HW3 1665   1.527   2.928   3.749 -1.5411  0.9370 -0.6357
  483SOL    MW4 1666   1.480   2.920   3.822  0.5330 -0.2621  0.3476
  484SOL     OW 1667   5.468   3.881   4.903  0.0071  0.2618 -0.2524
  484SOL    HW2 1668   5.447   3.921   4.987 -1.8113 -0.9505 -0.0818
  484SOL    HW3 1669   5.492   3.791   4.924 -1.4339 -0.3467 -1.0879
  484SOL    MW4 1670   5.468   3.874   4.917 -0.7991  0.3257 -0.4992
  485SOL     OW 1671   4.576   0.678   1.775  0.1032 -0.1205  0.3315
  485SOL    HW2 1672   4.633   0.681   1.698  1.0977  0.6223  1.0701
  485SOL    HW3 1673   4.636   0.671   1.849 -0.8805 -2.1596  1.0043
  485SOL    MW4 1674   4.592   0.677   1.775  0.3972  0.3820  0.3060
  486SOL     OW 1675   0.193   4.032   6.226 -0.4834  0.1844  0.1554
  486SOL    HW2 1676   0.261   3.968   6.249 -0.4868 -0.3180 -1.1488
  486SOL    HW3 1677   0.167   4.070   6.310  4.1421  3.3219  0.5166
  486SOL    MW4 1678   0.198   4.028   6.240 -1.3086  0.7981  0.0855
  487SOL     OW 1679   2.246   1.003   4.826  0.0895 -0.1601  0.0326
  487SOL    HW2 1680   2.174   1.004   4.762  0.5333 -1.2510 -0.4989
  487SOL    HW3 1681   2.222   1.072   4.889 -0.5417  0.6990 -1.0942
  487SOL    MW4 1682   2.233   1.013   4.826 -0.5708  0.0619 -0.4557
  488SOL     OW 1683   3.358   0.264   1.225  0.1672 -1.0413  0.4359
  488SOL    HW2 1684   3.333   0.173   1.206 -2.8679  0.3486 -4.0451
  488SOL    HW3 1685   3.277   0.305   1.256  0.5818  0.6965 -0.5921
  488SOL    MW4 1686   3.344   0.258   1.226  0.1005 -0.6817  0.7951
  489SOL     OW 1687   0.868   5.302   0.802 -0.1738  0.5058 -0.3845
  489SOL    HW2 1688   0.864   5.275   0.710  1.6666  0.6772 -0.5685
  489SOL    HW3 1689   0.947   5.260   0.836  0.7239  2.6045  0.3301
  489SOL    MW4 1690   0.878   5.293   0.794  0.4034 -0.2339  0.1334
  490SOL     OW 1691   1.953   0.567   2.302 -0.2288  0.0884  0.4725
  490SOL    HW2 1692   1.881   0.561   2.364  0.7654  0.7367  1.7488
  490SOL    HW3 1693   2.028   0.595   2.355  1.5315 -2.6425 -0.3436
  490SOL    MW4 1694   1.954   0.570   2.317 -0.3424  0.1135  0.2297
  491SOL     OW 1695   0.001   0.527   1.905 -0.0706  0.5921  0.3252
  491SOL    HW2 1696  -0.070   0.587   1.929 -0.0646  0.7166  0.0338
  491SOL    HW3 1697   0.015   0.542   1.812 -0.0574  0.1485  0.2512
  491SOL    MW4 1698  -0.007   0.537   1.896 -0.0088  0.3825 -0.0716
  492SOL     OW 1699   0.217   4.687   4.046  0.1338  0.0169  0.3177
  492SOL    HW2 1700   0.254   4.749   3.982 -0.7008  0.1759 -0.0165
  492SOL    HW3 1701   0.193   4.742   4.121  1.0125 -0.1549  0.7406
  492SOL    MW4 1702   0.219   4.703   4.048  0.0763  0.0345  0.1338
  493SOL     OW 1703   0.099   2.923   3.191 -0.3268 -0.4777 -0.2583
  493SOL    HW2 1704   0.084   2.977   3.114  1.3663  0.9023  0.3029
  493SOL    HW3 1705   0.012   2.910   3.229 -1.4358 -2.4751 -3.1173
  493SOL    MW4 1706   0.086   2.928   3.186  0.0811 -0.1104 -0.3001
  494SOL     OW 1707   6.224   2.523   2.528 -0.1843  0.4316 -0.3134
  494SOL    HW2 1708   6.222   2.579   2.450  1.8051 -0.1255 -0.8221
  494SOL    HW3 1709   6.303   2.551   2.575 -0.4655 -0.3515  0.6533
  494SOL    MW4 1710   6.234   2.534   2.524  0.1774  0.0536  0.1967
  495SOL     OW 1711   6.068   0.462   3.623  0.0800  0.5589  0.0172
  495SOL    HW2 1712   6.116   0.428   3.699 -0.1409 -1.0584 -0.5419
  495SOL    HW3 1713   6.051   0.385   3.569 -1.8688  1.3213 -0.5257
  495SOL    MW4 1714   6.072   0.447   3.626 -0.1224 -1.1551 -0.0643
  496SOL     OW 1715   5.504   2.744   1.388  0.7228  0.7396 -0.0203
  496SOL    HW2 1716   5.485   2.775   1.476  0.5731 -1.7909  0.9237
  496SOL    HW3 1717   5.470   2.654   1.386  1.4737  0.4342 -2.3715
  496SOL    MW4 1718   5.497   2.736   1.399 -0.1366 -0.5264  0.9451
  497SOL     OW 1719   2.364   2.769   0.381 -0.0885 -0.2174  0.1570
  497SOL    HW2 1720   2.404   2.795   0.298 -0.1780  2.4301  0.8555
  497SOL    HW3 1721   2.270   2.764   0.362 -0.0712  0.0171  0.0042
  497SOL    MW4 1722   2.357   2.772   0.367 -0.4700 -0.4458 -0.3347
  498SOL     OW 1723   5.213   2.458   1.092 -0.8182  0.0499  0.0985
  498SOL    HW2 1724   5.300   2.497   1.104 -0.2762 -0.5235 -1.6617
  498SOL    HW3 1725   5.212   2.383   1.151  1.1903 -1.8865 -2.1248
  498SOL    MW4 1726   5.224   2.453   1.101 -0.0516  0.0520 -0.2785
  499SOL     OW 1727   1.826   5.907   0.261 -0.3429 -0.5945  0.2121
  499SOL    HW2 1728   1.843   5.860   0.342 -1.3918 -2.1977 -0.4426
  499SOL    HW3 1729   1.730   5.906   0.253 -0.2442 -0.9605 -1.2901
  499SOL    MW4 1730   1.815   5.901   0.270  0.2083 -0.0341 -0.7111
  500SOL     OW 1731   3.786   2.861   5.269  0.4586  0.1017 -0.1264
  500SOL    HW2 1732   3.783   2.841   5.363 -1.0218 -1.5403 -0.4637
  500SOL    HW3 1733   3.721   2.930   5.257  0.7340  0.3969  0.0630
  500SOL    MW4 1734   3.777   2.867   5.280  0.0077 -0.2647 -0.1833
  501SOL     OW 1735   1.534   5.967   5.670  0.0711  0.1691  0.2918
  501SOL    HW2 1736   1.624   5.971   5.640  0.4526  0.6817  1.4422
  501SOL    HW3 1737   1.500   5.886   5.633  0.5283  0.7093 -1.3920
  501SOL    MW4 1738   1.541   5.957   5.661 -0.7770  0.2042  0.2113
  502SOL     OW 1739   0.188   1.921   0.666 -0.1144 -0.6460  0.0884
  502SOL    HW2 1740   0.105   1.959   0.693 -0.5613 -0.3269 -1.5968
  502SOL    HW3 1741   0.180   1.828   0.685 -0.5819 -0.5157  0.5554
  502SOL    MW4 1742   0.176   1.914   0.672  0.0718 -0.1453 -0.8256
  503SOL     OW 1743   3.938   5.970   5.520  0.4974  0.2177  0.1771
  503SOL    HW2 1744   3.895   5.903   5.574  0.2409  0.5997  0.4577
  503SOL    HW3 1745   3.872   5.994   5.456  0.5235  0.3347  0.1944
  503SOL    MW4 1746   3.923   5.964   5.519  0.3976 -0.0495  0.1449
  504SOL     OW 1747   3.985   1.685   5.229  0.1822 -0.0516  0.5075
  504SOL    HW2 1748   3.979   1.624   5.155  1.5321 -0.8692  1.0277
  504SOL    HW3 1749   4.006   1.629   5.304  1.1626  1.0088  1.0625
  504SOL    MW4 1750   3.987   1.669   5.229 -0.4335  0.0526 -0.3665
  505SOL     OW 1751   4.484   1.951   0.859  0.0520  0.1503  0.3266
  505SOL    HW2 1752   4.516   1.955   0.768 -0.8206 -1.2002 -0.0699
  505SOL    HW3 1753   4.471   1.858   0.875  1.0812  0.2772  2.1880
  505SOL    MW4 1754   4.487   1.940   0.849  0.2441 -0.4361 -0.1671
  506SOL     OW 1755   5.489   2.615   4.407  0.3219  0.2585 -0.3617
  506SOL    HW2 1756   5.530   2.670   4.340  1.0022 -0.7787 -0.8175
  506SOL    HW3 1757   5.561   2.562   4.442  0.1670  1.3554  1.8255
  506SOL    MW4 1758   5.504   2.616   4.403 -0.0791 -0.0209 -0.2274
  507SOL     OW 1759   0.936   2.208   4.043  0.1284 -0.7942 -0.0315
  507SOL    HW2 1760   0.947   2.220   4.137 -1.6428 -1.5927  0.3034
  507SOL    HW3 1761   0.956   2.116   4.028  2.1596 -0.3010 -0.7715
  507SOL    MW4 1762   0.940   2.197   4.053 -0.3047 -0.4358 -0.1350
  508SOL     OW 1763   5.642   4.634   1.385 -0.0899  0.2526  0.3295
  508SOL    HW2 1764   5.587   4.605   1.458 -0.2608  0.5359  0.3162
  508SOL    HW3 1765   5.710   4.568   1.378  0.0424  0.3308  0.8721
  508SOL    MW4 1766   5.644   4.622   1.394 -0.4588 -0.0887  0.2703
  509SOL     OW 1767   5.318   1.726   1.618  0.3822  0.6767 -0.4682
  509SOL    HW2 1768   5.229   1.693   1.632 -0.3399  1.9301 -1.7342
  509SOL    HW3 1769   5.375   1.659   1.655 -1.0401 -0.9447 -1.0559
  509SOL    MW4 1770   5.314   1.713   1.625 -0.0111  0.4232 -0.1518
  510SOL     OW 1771   5.960   3.300   4.108 -0.2221  0.3997 -0.0799
  510SOL    HW2 1772   5.960   3.282   4.014  0.1456 -1.7731  0.2766
  510SOL    HW3 1773   6.048   3.273   4.136 -0.6297  0.1916  1.0159
  510SOL    MW4 1774   5.972   3.294   4.099  0.0541 -0.5675 -0.3304
  511SOL     OW 1775   6.325   3.076   2.365  0.4687  0.2524  0.1408
  511SOL    HW2 1776   6.292   3.131   2.294  1.2138  1.7315  0.8866
  511SOL    HW3 1777   6.259   3.083   2.433 -1.5391 -3.2156 -1.2271
  511SOL    MW4 1778   6.312   3.084   2.364 -0.3419 -0.4714  0.0854
  512SOL     OW 1779   4.655   2.784   5.292  0.6650 -0.0720 -0.4629
  512SOL    HW2 1780   4.694   2.830   5.218 -0.3466 -0.7414 -1.4571
  512SOL    HW3 1781   4.564   2.814   5.294 -0.0483 -1.9948 -1.1805
  512SOL    MW4 1782   4.648   2.794   5.283  0.3219  0.0335 -0.1256
  513SOL     OW 1783   4.628   4.669   5.630  0.2050  0.0247  0.0434
  513SOL    HW2 1784   4.639   4.666   5.725 -1.5041 -0.6151  0.2585
  513SOL    HW3 1785   4.606   4.579   5.605 -2.7380  0.7608 -0.4201
  513SOL    MW4 1786   4.626   4.657   5.639 -0.5734 -0.0047  0.0879
  514SOL     OW 1787   2.265   3.507   0.443  0.4115 -0.7179  0.2668
  514SOL    HW2 1788   2.225   3.462   0.369 -1.3190 -1.7973  1.7707
  514SOL    HW3 1789   2.217   3.475   0.519  0.4437  2.1904  1.6392
  514SOL    MW4 1790   2.254   3.497   0.443  0.4409  0.0859 -0.1808
  515SOL     OW 1791   2.844   0.380   5.895  0.3168 -0.2059 -0.9489
  515SOL    HW2 1792   2.822   0.298   5.850  0.2471 -1.5805  1.4356
  515SOL    HW3 1793   2.759   0.423   5.909 -0.1449 -1.6734  1.2192
  515SOL    MW4 1794   2.830   0.375   5.891 -0.1536  0.3944  0.4320
  516SOL     OW 1795   2.130   5.881   3.444  0.3457 -0.0030  0.1939
  516SOL    HW2 1796   2.159   5.835   3.365 -2.8015 -0.2390 -0.9580
  516SOL    HW3 1797   2.194   5.856   3.511  1.0364 -2.8220 -1.3633
  516SOL    MW4 1798   2.142   5.872   3.443  0.1454 -0.1602 -0.2456
  517SOL     OW 1799   6.393   5.007   4.096  0.2134  0.6953 -0.0102
  517SOL    HW2 1800   6.327   4.937   4.096  0.8669  0.0279 -2.0935
  517SOL    HW3 1801   6.369   5.061   4.172 -1.8637 -0.3215  0.1481
  517SOL    MW4 1802   6.381   5.005   4.106  0.0093  0.2880 -0.2304
  518SOL     OW 1803   4.930   3.570   4.478 -0.3084 -0.2030  0.7260
  518SOL    HW2 1804   4.918   3.491   4.530 -0.2261  0.1775  1.3309
  518SOL    HW3 1805   4.868   3.633   4.515 -1.9344 -0.6311 -1.1321
  518SOL    MW4 1806   4.920   3.568   4.490 -0.1416 -0.3066 -0.1461
  519SOL     OW 1807   0.515   1.968   2.143  0.2852 -0.0114  0.0663
  519SOL    HW2 1808   0.582   2.017   2.192  0.8584 -0.2606 -0.4516
  519SOL    HW3 1809   0.526   1.878   2.173 -0.5972  0.1222  0.8281
  519SOL    MW4 1810   0.525   1.963   2.154 -0.1993  0.0503 -0.3558
  520SOL     OW 1811   0.470   4.708   2.753  0.1716 -0.3627 -0.4244
  520SOL    HW2 1812   0.550   4.657   2.744 -0.7015 -1.8712  0.0320
  520SOL    HW3 1813   0.402   4.654   2.714 -0.6959  0.7249 -0.4690
  520SOL    MW4 1814   0.472   4.694   2.747  0.1252  0.4718  0.2097
  521SOL     OW 1815   4.347   0.915   2.962 -0.0133  0.0445 -0.1729
  521SOL    HW2 1816   4.421   0.927   3.021  0.3636 -1.1415 -0.3929
  521SOL    HW3 1817   4.314   1.004   2.947  1.3993  0.5998 -0.1345
  521SOL    MW4 1818   4.352   0.928   2.968 -0.7747 -0.1549 -0.3917
  522SOL     OW 1819   6.228   1.833   0.136  0.4474  0.3441 -0.4171
  522SOL    HW2 1820   6.245   1.739   0.138 -1.6886 -0.2735 -3.8606
  522SOL    HW3 1821   6.311   1.872   0.108  0.1055 -1.1972 -4.1858
  522SOL    MW4 1822   6.241   1.826   0.133  0.2396  0.3588  0.1688
  523SOL     OW 1823   4.985   3.052   2.660  0.2678 -0.5327 -0.3360
  523SOL    HW2 1824   4.903   3.083   2.622  0.0415 -0.5023  0.1647
  523SOL    HW3 1825   5.006   2.973   2.611  1.1321  0.6718 -1.9921
  523SOL    MW4 1826   4.977   3.045   2.649  0.1551 -0.1814 -0.1306
  524SOL     OW 1827   3.689   5.320   0.186  0.1734 -0.3080 -0.2580
  524SOL    HW2 1828   3.714   5.348   0.274 -0.6902 -1.1807  0.2767
  524SOL    HW3 1829   3.609   5.369   0.167  0.7540  0.4297 -0.8687
  524SOL    MW4 1830   3.682   5.330   0.195  0.2667  0.3158  0.2916
  525SOL     OW 1831   2.251   5.574   5.990 -0.3456  0.4593  0.0198
  525SOL    HW2 1832   2.181   5.640   5.994 -0.0125  0.8305 -0.1338
  525SOL    HW3 1833   2.312   5.599   6.059  0.2392  0.8553 -0.6224
  525SOL    MW4 1834   2.250   5.586   5.999  0.5898  0.6967 -0.4552
  526SOL     OW 1835   1.336   5.669   1.970 -0.1486  1.0560  0.2816
  526SOL    HW2 1836   1.312   5.628   2.054  1.8169  1.2669  1.0008
  526SOL    HW3 1837   1.321   5.762   1.984 -3.2100  0.8559 -0.8658
  526SOL    MW4 1838   1.331   5.676   1.983 -0.3032 -0.5756  0.6297
  527SOL     OW 1839   5.588   4.386   2.598  0.4845 -0.0604  0.0550
  527SOL    HW2 1840   5.553   4.370   2.510 -1.1449  2.5383  0.1254
  527SOL    HW3 1841   5.524   4.347   2.657  0.4895  0.0173  0.1116
  527SOL    MW4 1842   5.575   4.379   2.594 -0.5401 -0.3305  0.1087
  528SOL     OW 1843   3.043   1.085   5.835 -0.3826  0.5461 -0.8978
  528SOL    HW2 1844   2.959   1.105   5.875  0.2687  1.3170  0.1187
  528SOL    HW3 1845   3.045   0.989   5.830 -0.5588  0.4269  0.7791
  528SOL    MW4 1846   3.032   1.075   5.839 -0.3740 -0.1965  0.3989
  529SOL     OW 1847   4.357   5.534   6.009  0.2682 -0.0053 -0.0421
  529SOL    HW2 1848   4.363   5.590   6.087  2.4875 -0.2343  0.0269
  529SOL    HW3 1849   4.341   5.595   5.937  1.5993  0.6532  0.1761
  529SOL    MW4 1850   4.356   5.550   6.010  0.6953  0.1852  0.4346
  530SOL     OW 1851   5.215   6.226   6.188 -0.7288  0.5792  0.7080
  530SOL    HW2 1852   5.242   6.191   6.273  2.2793 -0.4968 -0.5620
  530SOL    HW3 1853   5.162   6.157   6.149 -1.4107  0.7324  1.3331
  530SOL    MW4 1854   5.212   6.212   6.194  0.9303 -0.1841 -0.0311
  531SOL     OW 1855   2.029   4.667   2.612  0.4629 -0.4269  0.0439
  531SOL    HW2 1856   1.945   4.714   2.611  1.7199  1.9656 -0.0813
  531SOL    HW3 1857   2.078   4.704   2.539  1.9769 -1.1436  0.6614
  531SOL    MW4 1858   2.024   4.678   2.603  0.2080  0.6597  0.4321
  532SOL     OW 1859   0.411   4.831   0.867 -0.2533  0.1711  0.5645
  532SOL    HW2 1860   0.416   4.890   0.792 -2.8127  0.6889  0.6980
  532SOL    HW3 1861   0.392   4.889   0.941  0.4927 -0.5237  1.3269
  532SOL    MW4 1862   0.409   4.847   0.867 -0.1989 -0.1650 -0.0819
  533SOL     OW 1863   0.047   5.430   4.349  0.7295 -0.3541  0.5722
  533SOL    HW2 1864   0.142   5.418   4.339  0.8906  0.7775  0.6277
  533SOL    HW3 1865   0.018   5.464   4.265  0.0539 -2.3443 -0.0493
  533SOL    MW4 1866   0.056   5.433   4.337 -0.0278  0.0920  0.0335
  534SOL     OW 1867   1.049   0.650   6.365  0.1816  0.0378 -0.2185
  534SOL    HW2 1868   1.080   0.678   6.279  0.6480  0.7538  0.1653
  534SOL    HW3 1869   1.003   0.727   6.399 -0.3641 -0.3807  0.0034
  534SOL    MW4 1870   1.047   0.664   6.358 -0.2008 -0.2799  0.8092
  535SOL     OW 1871   3.169   5.205   5.444 -0.1870  0.0605  0.8879
  535SOL    HW2 1872   3.088   5.165   5.413  0.1585  0.4399 -0.5987
  535SOL    HW3 1873   3.197   5.261   5.371  1.6990 -0.4948  1.1388
  535SOL    MW4 1874   3.162   5.207   5.430  0.5067  0.5742  0.4893
  536SOL     OW 1875   3.459   5.082   1.983 -0.2706 -0.2076  0.2523
  536SOL    HW2 1876   3.451   5.037   2.067 -1.5827  0.8054  0.7125
  536SOL    HW3 1877   3.416   5.023   1.921  1.6173 -1.4507  0.0416
  536SOL    MW4 1878   3.452   5.068   1.986  0.2162  0.0461 -0.1455
  537SOL     OW 1879   0.693   2.923   2.825 -0.8518 -0.6486 -0.0529
  537SOL    HW2 1880   0.719   3.014   2.809 -0.5614 -0.2847  2.1877
  537SOL    HW3 1881   0.775   2.877   2.841 -1.1713 -0.3550  2.9891
  537SOL    MW4 1882   0.707   2.929   2.825 -0.0224 -0.0415 -0.3874
  538SOL     OW 1883   2.546   5.191   4.002  0.3875 -0.0823  0.0861
  538SOL    HW2 1884   2.613   5.260   4.001  0.1497  0.1624  0.7861
  538SOL    HW3 1885   2.586   5.118   3.955  0.3681  0.7911 -1.3697
  538SOL    MW4 1886   2.560   5.191   3.995 -0.1117 -0.1722  0.4862
  539SOL     OW 1887   5.055   4.730   3.361  0.0086 -0.0551  0.6963
  539SOL    HW2 1888   5.039   4.698   3.272 -1.4005  1.6864  0.2781
  539SOL    HW3 1889   4.970   4.760   3.392  0.8326  1.1253  1.9329
  539SOL    MW4 1890   5.042   4.730   3.354 -0.4770 -0.5873 -0.0048
  540SOL     OW 1891   0.885   0.701   5.313  0.3164  0.3854 -0.0204
  540SOL    HW2 1892   0.917   0.624   5.267  1.0567  0.3648  0.5101
  540SOL    HW3 1893   0.894   0.680   5.406  0.1426  0.9511  0.1332
  540SOL    MW4 1894   0.890   0.688   5.319  0.7046  0.5148 -0.1639
  541SOL     OW 1895   2.163   4.091   4.975  0.7356 -0.3222 -0.2001
  541SOL    HW2 1896   2.231   4.114   5.039  0.6240 -0.6540  0.0399
  541SOL    HW3 1897   2.200   4.116   4.890  0.4627  1.1382  0.0741
  541SOL    MW4 1898   2.176   4.098   4.972 -0.4499  0.2100  0.3720
  542SOL     OW 1899   1.979   2.479   0.984 -0.0975 -0.6501 -0.0562
  542SOL    HW2 1900   2.018   2.504   1.068 -0.4806  0.7661 -0.2704
  542SOL    HW3 1901   1.893   2.521   0.984 -0.1404 -0.7095 -1.1028
  542SOL    MW4 1902   1.973   2.488   0.995  0.3670 -0.1902  0.0981
  543SOL     OW 1903   5.796   2.575   0.911 -0.2186  0.1782 -0.2676
  543SOL    HW2 1904   5.747   2.615   0.983 -0.9252 -0.5033 -0.3507
  543SOL    HW3 1905   5.783   2.635   0.837 -0.5548  0.2362 -0.1645
  543SOL    MW4 1906   5.788   2.588   0.911  0.1649 -0.3675 -0.2003
  544SOL     OW 1907   3.960   3.974   6.321 -0.5398 -0.2238  0.0015
  544SOL    HW2 1908   3.940   3.977   6.227  1.6333  0.2045 -0.4912
  544SOL    HW3 1909   4.041   4.023   6.330  0.9642 -2.7892  1.6394
  544SOL    MW4 1910   3.968   3.981   6.310 -0.0095  0.0078  0.1305
  545SOL     OW 1911   5.516   3.880   6.377  0.0178  0.6890 -0.0042
  545SOL    HW2 1912   5.579   3.904   6.310  0.6794 -1.0209 -0.0472
  545SOL    HW3 1913   5.521   3.951   6.441 -0.2046  2.0525 -1.4482
  545SOL    MW4 1914   5.525   3.892   6.377  0.0961 -0.2250 -0.2083
  546SOL     OW 1915   1.172   4.767   2.027  0.0347 -0.4622  0.3359
  546SOL    HW2 1916   1.166   4.679   1.990 -2.0575 -1.0732  1.9533
  546SOL    HW3 1917   1.266   4.783   2.034  0.4866 -1.7489 -1.7440
  546SOL    MW4 1918   1.184   4.758   2.023 -0.3534  0.7624 -0.0524
  547SOL     OW 1919   1.344   0.981   6.308  0.4411 -0.3158 -0.2720
  547SOL    HW2 1920   1.397   1.041   6.256  1.4243  0.1527  1.2088
  547SOL    HW3 1921   1.376   0.894   6.284  0.6691 -0.1307 -0.6597
  547SOL    MW4 1922   1.355   0.978   6.298 -0.2429  0.6807 -0.3056
  548SOL     OW 1923   4.327   4.749   4.272 -0.1298  0.5753 -0.7803
  548SOL    HW2 1924   4.385   4.699   4.216 -0.3114  1.4689 -1.8070
  548SOL    HW3 1925   4.281   4.684   4.324  0.2105 -0.2678 -1.5166
  548SOL    MW4 1926   4.328   4.734   4.271  0.1623 -0.7127  0.1890
  549SOL     OW 1927   1.791   5.644   1.009 -0.2170  0.3909  0.1372
  549SOL    HW2 1928   1.707   5.690   1.010 -1.2822 -1.4187  1.9363
  549SOL    HW3 1929   1.842   5.688   1.077  0.2716  1.3868 -0.8448
  549SOL    MW4 1930   1.786   5.656   1.018 -0.5463 -0.2192  0.4303
  550SOL     OW 1931   1.722   6.434   1.852  0.3507 -0.2492  0.5422
  550SOL    HW2 1932   1.658   6.441   1.922 -0.6757 -1.8272 -0.1816
  550SOL    HW3 1933   1.723   6.521   1.812 -2.4237 -0.5235 -0.3028
  550SOL    MW4 1934   1.714   6.446   1.856  0.4427  0.4667  0.1408
  551SOL     OW 1935   0.019   6.160   3.513 -0.3443  0.2864  0.3402
  551SOL    HW2 1936   0.033   6.082   3.567 -0.6402 -1.0140 -1.3911
  551SOL    HW3 1937   0.096   6.215   3.530  0.1697 -0.6535  1.1255
  551SOL    MW4 1938   0.031   6.157   3.523 -0.2985 -0.3383  0.1281
  552SOL     OW 1939   1.398   6.406   3.000  0.6884 -0.4388 -0.2144
  552SOL    HW2 1940   1.435   6.490   3.030 -0.3620 -0.0621  0.0583
  552SOL    HW3 1941   1.318   6.395   3.051  0.1625 -1.0048 -1.1238
  552SOL    MW4 1942   1.393   6.416   3.011 -0.0678 -0.2672 -0.4392
  553SOL     OW 1943   5.915   6.112   1.390  0.4910 -0.3979  0.4291
  553SOL    HW2 1944   5.827   6.141   1.365  1.2112  0.7855 -0.8636
  553SOL    HW3 1945   5.955   6.190   1.429  1.4247 -0.5407 -0.2363
  553SOL    MW4 1946   5.908   6.126   1.392  0.0980 -0.3672 -0.3184
  554SOL     OW 1947   2.865   5.976   0.210  0.6930  0.1349  0.0476
  554SOL    HW2 1948   2.898   5.904   0.156 -1.8962 -0.9823 -0.2015
  554SOL    HW3 1949   2.841   6.044   0.147  0.3190 -0.0400 -0.0076
  554SOL    MW4 1950   2.866   5.975   0.194  0.4916 -0.5830 -0.5829
  555SOL     OW 1951   0.757   5.338   2.017 -0.1950 -0.5078 -0.1127
  555SOL    HW2 1952   0.819   5.388   1.964 -0.1834 -0.7000 -0.2829
  555SOL    HW3 1953   0.683   5.322   1.958  1.3176 -3.8635 -1.3081
  555SOL    MW4 1954   0.755   5.343   2.002  0.1865 -0.9155 -0.0608
  556SOL     OW 1955   0.539   6.421   5.913 -0.0953 -0.2591 -0.0588
  556SOL    HW2 1956   0.606   6.356   5.936  2.3015  1.3200 -2.0179
  556SOL    HW3 1957   0.538   6.421   5.817 -2.6473  0.1267 -0.1016
  556SOL    MW4 1958   0.548   6.413   5.904  0.0958 -0.6853 -0.1370
  557SOL     OW 1959   0.723   2.938   3.965  0.2461  0.2575  0.1135
  557SOL    HW2 1960   0.781   2.900   4.031 -0.7151 -0.8761  0.3521
  557SOL    HW3 1961   0.775   3.005   3.922  1.0497  0.7058  1.7122
  557SOL    MW4 1962   0.737   2.942   3.968  0.0847  0.2720 -0.2184
  558SOL     OW 1963   5.151   5.844   3.379  0.1264  0.5492 -0.0289
  558SOL    HW2 1964   5.108   5.920   3.420  0.4612 -0.4716  2.3752
  558SOL    HW3 1965   5.116   5.769   3.426  1.3424 -0.6446 -0.9586
  558SOL    MW4 1966   5.141   5.844   3.391  0.2402 -0.2790 -0.0169
  559SOL     OW 1967   3.700   4.408   1.112 -0.5410 -0.2127  0.1620
  559SOL    HW2 1968   3.735   4.324   1.080  0.9109  0.8931 -1.3275
  559SOL    HW3 1969   3.773   4.447   1.160 -1.4965 -0.1595  1.6056
  559SOL    MW4 1970   3.715   4.402   1.114  0.2692 -0.5662  0.1692
  560SOL     OW 1971   0.934   0.701   3.405 -0.2266  0.0199  0.1959
  560SOL    HW2 1972   1.024   0.679   3.379 -0.0568 -0.9266  1.4755
  560SOL    HW3 1973   0.903   0.760   3.337  0.3960 -1.8272 -1.7873
  560SOL    MW4 1974   0.942   0.706   3.393  0.1166 -0.2333 -0.0018
  561SOL     OW 1975   1.797   3.525   5.050  0.2526  0.3818 -0.0734
  561SOL    HW2 1976   1.768   3.435   5.038  0.1339  0.3955  0.1174
  561SOL    HW3 1977   1.767   3.549   5.137 -0.2984  0.8298 -0.3856
  561SOL    MW4 1978   1.790   3.516   5.060 -0.4552  0.0716 -0.0791
  562SOL     OW 1979   2.982   4.883   0.853 -0.0043 -0.0147  0.4404
  562SOL    HW2 1980   3.069   4.854   0.880 -0.1158  0.6297  1.5540
  562SOL    HW3 1981   2.999   4.957   0.794  0.2396 -1.4521 -1.3772
  562SOL    MW4 1982   2.996   4.889   0.849  0.0089  0.1892  0.8604
  563SOL     OW 1983   5.650   4.337   5.295 -0.4655 -0.0842  0.0230
  563SOL    HW2 1984   5.649   4.422   5.339 -1.1277 -0.1846  0.2026
  563SOL    HW3 1985   5.607   4.277   5.355  0.8525 -0.7777  0.3261
  563SOL    MW4 1986   5.644   4.340   5.308  0.0189 -0.0964  0.5486
  564SOL     OW 1987   3.148   1.395   0.576 -0.5465 -0.3300  0.7907
  564SOL    HW2 1988   3.242   1.378   0.566 -0.3043  1.5320 -0.5830
  564SOL    HW3 1989   3.144   1.469   0.636 -1.2263 -0.9927  1.5957
  564SOL    MW4 1990   3.160   1.402   0.583  0.1805  0.1106  0.3405
  565SOL     OW 1991   5.194   5.804   3.726  0.4807 -0.2747  0.1697
  565SOL    HW2 1992   5.289   5.812   3.715  0.3474  0.7926 -0.4210
  565SOL    HW3 1993   5.183   5.741   3.797  1.6436 -0.0168  0.6037
  565SOL    MW4 1994   5.205   5.797   3.734  0.0485  0.5353  0.4116
  566SOL     OW 1995   1.945   0.024   5.028 -0.3280  0.5834  0.0137
  566SOL    HW2 1996   1.949   0.107   4.981  0.6247  1.7243  1.9750
  566SOL    HW3 1997   1.852   0.006   5.038 -0.5512  0.3460 -2.1526
  566SOL    MW4 1998   1.933   0.032   5.023 -0.7049 -0.0127 -0.2481
  567SOL     OW 1999   2.108   1.710   3.604  0.0457  0.7536  0.3937
  567SOL    HW2 2000   2.184   1.759   3.635  0.7202 -0.6473  1.0806
  567SOL    HW3 2001   2.071   1.764   3.534  1.8548  1.3514 -0.1710
  567SOL    MW4 2002   2.113   1.723   3.599  0.0304  0.2519  0.5628
  568SOL     OW 2003   3.317   4.390   1.765 -0.5946  0.2940 -0.2949
  568SOL    HW2 2004   3.365   4.400   1.683  0.7856  0.8225  0.5377
  568SOL    HW3 2005   3.281   4.302   1.762 -0.4446  0.2604 -1.4030
  568SOL    MW4 2006   3.318   4.380   1.754  0.7827 -0.0466 -0.0300
  569SOL     OW 2007   5.412   1.325   4.416 -0.2284  0.3839 -0.0798
  569SOL    HW2 2008   5.429   1.273   4.338  0.0727 -1.3591  1.0923
  569SOL    HW3 2009   5.371   1.264   4.477 -2.9769  2.3250  0.2312
  569SOL    MW4 2010   5.409   1.310   4.414 -0.2475 -0.2723  0.3568
  570SOL     OW 2011   5.139   4.626   0.787  0.5389 -0.0735 -0.4391
  570SOL    HW2 2012   5.058   4.675   0.771  0.5946 -0.4767 -2.2146
  570SOL    HW3 2013   5.128   4.587   0.873 -1.1885 -0.1711 -0.6808
  570SOL    MW4 2014   5.127   4.628   0.796  0.1987  0.3375 -0.2799
  571SOL     OW 2015   5.701   5.056   6.222 -0.4395  0.4180 -0.0837
  571SOL    HW2 2016   5.618   5.054   6.270 -0.4655  0.3098 -0.1342
  571SOL    HW3 2017   5.718   5.149   6.208 -0.8040  0.4173 -0.5114
  571SOL    MW4 2018   5.693   5.068   6.227  0.8538 -0.0459  1.0248
  572SOL     OW 2019   0.442   3.832   1.260 -0.1432 -0.4026 -0.2298
  572SOL    HW2 2020   0.451   3.831   1.165  0.3560  0.0597 -0.1921
  572SOL    HW3 2021   0.483   3.914   1.287 -1.1107 -0.0835  0.3078
  572SOL    MW4 2022   0.449   3.842   1.251  0.0564 -0.3287 -0.1411
  573SOL     OW 2023   1.407   3.807   2.373 -0.4321  0.3770 -0.0592
  573SOL    HW2 2024   1.447   3.892   2.354  1.1019 -0.2659  0.1498
  573SOL    HW3 2025   1.477   3.744   2.359 -0.8429 -0.6503  2.1189
  573SOL    MW4 2026   1.421   3.810   2.368  0.2463 -0.2243  0.0602
  574SOL     OW 2027   2.524   2.385   4.392 -0.1338  0.3454  0.0876
  574SOL    HW2 2028   2.525   2.410   4.484 -0.2743 -3.1546  1.1889
  574SOL    HW3 2029   2.438   2.414   4.360 -0.4474  0.8013  1.2997
  574SOL    MW4 2030   2.512   2.392   4.400  0.1556 -0.3029 -0.9304
  575SOL     OW 2031   1.281   0.875   5.014 -0.0350  0.2208  0.0115
  575SOL    HW2 2032   1.214   0.933   5.051 -0.3411  0.7356 -1.3054
  575SOL    HW3 2033   1.255   0.788   5.045 -0.5939  0.5635  0.5494
  575SOL    MW4 2034   1.269   0.871   5.023 -0.7539  0.5681  0.1835
  576SOL     OW 2035   3.109   2.774   0.483 -0.1384 -0.2076  0.3171
  576SOL    HW2 2036   3.019   2.764   0.451  0.3935  0.2344 -1.4003
  576SOL    HW3 2037   3.104   2.846   0.546 -0.8797  0.2747 -0.2724
  576SOL    MW4 2038   3.097   2.782   0.487 -0.5616  0.5194 -0.0407
  577SOL     OW 2039   1.380   1.841  -0.023 -0.1173  0.3068  0.1183
  577SOL    HW2 2040   1.384   1.748  -0.046  0.6432  0.1335  0.8761
  577SOL    HW3 2041   1.466   1.875  -0.046 -0.5174  0.9180 -0.5010
  577SOL    MW4 2042   1.392   1.833  -0.029 -0.6033  0.1647  0.1547
  578SOL     OW 2043   1.503   6.422   2.006  0.6262  0.3043  0.3368
  578SOL    HW2 2044   1.523   6.426   2.099 -0.2436  0.2342  0.5369
  578SOL    HW3 2045   1.446   6.497   1.991 -0.8543 -0.7856  0.2903
  578SOL    MW4 2046   1.498   6.432   2.016 -0.4694 -0.1904 -0.0618
  579SOL     OW 2047   0.418   2.992  -0.016  0.0182 -0.5975 -0.0038
  579SOL    HW2 2048   0.438   3.001  -0.110 -0.2164  0.7346  0.0591
  579SOL    HW3 2049   0.330   2.956  -0.014  0.5613 -2.0120 -0.2764
  579SOL    MW4 2050   0.409   2.989  -0.028 -0.1746  0.6134 -0.1079
  580SOL     OW 2051   3.443   0.049   4.927  0.4559  0.0965 -0.3087
  580SOL    HW2 2052   3.429  -0.045   4.935  1.8100 -0.1380 -0.4461
  580SOL    HW3 2053   3.363   0.089   4.961  0.0261 -1.0939  0.1099
  580SOL    MW4 2054   3.431   0.042   4.932 -0.4271 -0.2793  0.0624
  581SOL     OW 2055   3.704   1.532   5.380 -0.2252  0.0976  0.3266
  581SOL    HW2 2056   3.672   1.448   5.413  0.1706 -0.8462 -1.5177
  581SOL    HW3 2057   3.683   1.595   5.449 -3.2465 -0.9722  0.5417
  581SOL    MW4 2058   3.697   1.529   5.393 -0.0791 -0.4057  0.0963
  582SOL     OW 2059   4.001   5.532   5.766 -0.0868  0.5757 -0.2213
  582SOL    HW2 2060   4.009   5.547   5.860  1.0459  0.0323 -0.2181
  582SOL    HW3 2061   3.965   5.444   5.758 -1.9614  1.3016 -0.3013
  582SOL    MW4 2062   3.998   5.523   5.777 -0.3256  0.4078  0.3035
  583SOL     OW 2063   4.645   6.038   4.454 -0.1896  0.1490  0.0653
  583SOL    HW2 2064   4.601   5.955   4.473  0.3331 -0.3946 -1.0039
  583SOL    HW3 2065   4.577   6.095   4.421 -0.6944  0.3976  1.4911
  583SOL    MW4 2066   4.630   6.034   4.452 -0.0210  0.0001 -0.5396
  584SOL     OW 2067   0.969   2.787   2.087  0.1658  0.0001 -0.1575
  584SOL    HW2 2068   1.063   2.769   2.084  0.1870 -0.0195  0.5309
  584SOL    HW3 2069   0.934   2.743   2.010  0.6653 -0.3308 -0.2033
  584SOL    MW4 2070   0.977   2.779   2.077 -0.3518 -0.4565  0.1868
  585SOL     OW 2071   2.004   3.236   3.036  0.4140  0.1277 -0.1517
  585SOL    HW2 2072   1.912   3.213   3.052  1.0344 -2.6393 -0.0935
  585SOL    HW3 2073   2.001   3.328   3.009 -2.4198 -0.0367 -0.7387
  585SOL    MW4 2074   1.991   3.245   3.035  0.2567 -0.6660 -0.3460
  586SOL     OW 2075   1.096   2.423   3.555  0.7421  0.2824 -0.4190
  586SOL    HW2 2076   1.122   2.364   3.626  0.1497  1.7928  1.1144
  586SOL    HW3 2077   1.160   2.494   3.559 -0.0579  1.0170 -0.5443
  586SOL    MW4 2078   1.108   2.425   3.565  0.2268  0.0665  0.1429
  587SOL     OW 2079   0.061   0.449   6.280 -0.1757 -0.1483  0.4100
  587SOL    HW2 2080   0.143   0.494   6.258 -0.4029 -0.5941 -1.4975
  587SOL    HW3 2081   0.065   0.366   6.232 -0.9402 -1.0205  1.7736
  587SOL    MW4 2082   0.072   0.444   6.271 -0.2088  0.1423  0.5160
  588SOL     OW 2083   2.588   2.530   4.637 -0.2202  0.0577  0.4197
  588SOL    HW2 2084   2.636   2.595   4.585 -1.0634  0.2348 -0.1674
  588SOL    HW3 2085   2.535   2.582   4.697  0.2779 -0.1350  1.0301
  588SOL    MW4 2086   2.587   2.545   4.638  0.0450 -0.7380  0.2486
  589SOL     OW 2087   2.009   5.675   4.223  0.3330  0.2551 -0.0925
  589SOL    HW2 2088   2.060   5.749   4.255  0.9809 -0.5386  0.7403
  589SOL    HW3 2089   2.073   5.608   4.201 -0.3094 -0.6236  0.6206
  589SOL    MW4 2090   2.024   5.676   4.225 -0.2141  0.5137  0.0557
  590SOL     OW 2091   0.104   2.388   0.753  0.3473  0.1812  0.3740
  590SOL    HW2 2092   0.017   2.378   0.792 -0.3157  1.8341 -0.5791
  590SOL    HW3 2093   0.097   2.342   0.669  0.2139  0.7760  0.0567
  590SOL    MW4 2094   0.092   2.380   0.747 -0.3199 -0.0013  0.1876
  591SOL     OW 2095   1.166   5.301   1.369 -0.2679  0.4098 -0.2987
  591SOL    HW2 2096   1.139   5.221   1.414  0.2330  0.1969 -0.3674
  591SOL    HW3 2097   1.262   5.303   1.379 -0.3450  1.4021  0.3800
  591SOL    MW4 2098   1.175   5.290   1.376 -0.7626  0.5159 -0.2604
  592SOL     OW 2099   0.920   2.017   1.110  0.0739 -0.0121  0.1908
  592SOL    HW2 2100   1.006   1.977   1.118 -0.0774 -0.5327 -0.7071
  592SOL    HW3 2101   0.914   2.045   1.019 -0.6074  0.2617  0.3087
  592SOL    MW4 2102   0.930   2.015   1.099 -0.2881  0.0402 -0.1226
  593SOL     OW 2103   5.084   3.156   2.916  0.1929  0.1288 -0.1973
  593SOL    HW2 2104   5.071   3.138   2.823  0.2547  0.6178 -0.3015
  593SOL    HW3 2105   5.091   3.069   2.956  0.6118 -0.0802 -0.7118
  593SOL    MW4 2106   5.083   3.142   2.909 -0.1516 -0.2013 -0.3601
  594SOL     OW 2107   3.493   3.185   0.202 -0.5824 -0.3697 -0.0248
  594SOL    HW2 2108   3.447   3.184   0.286 -0.6874 -0.3699 -0.0829
  594SOL    HW3 2109   3.541   3.268   0.203  1.1214 -1.3135  0.9625
  594SOL    MW4 2110   3.493   3.196   0.213  0.1300 -0.3434 -0.2706
  595SOL     OW 2111   6.265   0.004   3.750  0.4290  0.2133 -0.2434
  595SOL    HW2 2112   6.338   0.044   3.704  2.0233 -2.6426 -0.3872
  595SOL    HW3 2113   6.232  -0.063   3.690 -0.7381 -0.1940  0.7984
  595SOL    MW4 2114   6.270   0.001   3.736 -0.7422  0.1569  0.2346
  596SOL     OW 2115   3.934   0.325   4.943  0.0156 -0.1032 -0.4132
  596SOL    HW2 2116   3.981   0.244   4.963  1.4430  1.0062  0.9512
  596SOL    HW3 2117   3.845   0.297   4.924  0.5936 -2.0314 -0.4781
  596SOL    MW4 2118   3.929   0.311   4.943 -0.3457  0.0120 -0.0008
  597SOL     OW 2119   5.635   4.202   3.544  0.3279 -0.5862  0.0137
  597SOL    HW2 2120   5.715   4.215   3.594 -0.4122 -1.0135  1.3636
  597SOL    HW3 2121   5.640   4.111   3.514  1.8192  0.2950 -2.6873
  597SOL    MW4 2122   5.646   4.192   3.547 -0.2917 -0.3812  0.4150
  598SOL     OW 2123   5.966   1.887   0.045 -0.0499 -0.0349  0.6465
  598SOL    HW2 2124   6.057   1.869   0.070 -0.0787 -0.6668  0.3010
  598SOL    HW3 2125   5.929   1.801   0.023 -0.1195  0.4370 -1.2626
  598SOL    MW4 2126   5.973   1.873   0.045  0.0928 -0.2348  0.1153
  599SOL     OW 2127   4.140   5.886   0.646  0.1100 -0.4102  0.2431
  599SOL    HW2 2128   4.154   5.873   0.552  0.9466 -1.6394  0.5079
  599SOL    HW3 2129   4.182   5.970   0.664 -1.3301  0.5640 -0.7169
  599SOL    MW4 2130   4.147   5.895   0.636 -0.2375 -0.6775  0.2624
  600SOL     OW 2131   1.000   5.592   4.138  0.4674  0.8856  0.2771
  600SOL    HW2 2132   1.000   5.531   4.211  0.9217 -0.1157 -0.5255
  600SOL    HW3 2133   1.079   5.645   4.151  0.6844  0.5394  0.3878
  600SOL    MW4 2134   1.011   5.591   4.149 -0.7399  0.8682 -0.4182
  601SOL     OW 2135   4.532   1.604   2.990  0.6834  0.3122 -0.1661
  601SOL    HW2 2136   4.477   1.627   3.065 -1.1254 -1.4899 -0.8435
  601SOL    HW3 2137   4.474   1.609   2.915  2.1516  0.8973 -1.3069
  601SOL    MW4 2138   4.517   1.608   2.990 -0.1783 -0.2025 -0.4377
  602SOL     OW 2139   1.060   2.158   5.033  0.9868 -0.0292  0.3127
  602SOL    HW2 2140   0.984   2.125   5.080  1.4394 -0.5474  0.6931
  602SOL    HW3 2141   1.040   2.250   5.017  0.9224  0.2309  1.7468
  602SOL    MW4 2142   1.047   2.166   5.037 -0.1323  0.4118 -0.3703
  603SOL     OW 2143   2.508   0.455   2.070 -0.3114  0.2217 -0.2181
  603SOL    HW2 2144   2.596   0.491   2.079  0.0802 -0.6188 -0.5905
  603SOL    HW3 2145   2.521   0.363   2.049 -1.2872 -0.4743  1.8906
  603SOL    MW4 2146   2.521   0.448   2.069  0.3602  0.2044  0.4155
  604SOL     OW 2147   6.290   1.777   5.448 -0.5634 -0.1570  0.1687
  604SOL    HW2 2148   6.263   1.856   5.402 -0.4758  1.1868  2.3154
  604SOL    HW3 2149   6.212   1.750   5.497 -0.5666 -1.3865 -0.4573
  604SOL    MW4 2150   6.276   1.784   5.449  1.0073  0.2355 -0.3700
  605SOL     OW 2151   4.140   4.195   2.572  0.5709 -0.5106 -0.2348
  605SOL    HW2 2152   4.073   4.238   2.518 -0.1821  0.5044  1.4069
  605SOL    HW3 2153   4.094   4.120   2.611  0.4748 -0.0461  0.5777
  605SOL    MW4 2154   4.125   4.191   2.570 -0.0398 -0.0805 -0.0558
  606SOL     OW 2155   2.972   1.635   1.406 -0.7827 -0.5046 -0.3121
  606SOL    HW2 2156   2.887   1.679   1.409 -0.7526 -0.3740 -1.0832
  606SOL    HW3 2157   2.951   1.543   1.395 -0.8503 -0.7377  1.5274
  606SOL    MW4 2158   2.958   1.629   1.405 -0.0952  0.0201  0.2698
  607SOL     OW 2159   2.354   1.175   0.330  0.2368  0.7224  0.4673
  607SOL    HW2 2160   2.401   1.096   0.354  0.5601  0.9573  0.6112
  607SOL    HW3 2161   2.263   1.147   0.317  0.2992  0.3821  0.7828
  607SOL    MW4 2162   2.348   1.161   0.331 -0.1910 -0.4194 -0.2654
  608SOL     OW 2163   5.278   4.028   2.497 -0.5800  0.1002  0.1651
  608SOL    HW2 2164   5.369   3.999   2.490 -0.5317  0.0873  0.7659
  608SOL    HW3 2165   5.240   4.009   2.412 -0.2364 -0.6577  0.1747
  608SOL    MW4 2166   5.285   4.022   2.485  0.6557  0.2069 -0.2309
  609SOL     OW 2167   0.914   0.321   0.070 -0.0586 -0.3836 -0.1988
  609SOL    HW2 2168   0.842   0.305   0.009 -0.9819 -0.0925  0.7840
  609SOL    HW3 2169   0.881   0.291   0.155  1.0789 -0.4829  0.2333
  609SOL    MW4 2170   0.900   0.315   0.073  0.1279 -0.0084 -0.0225
  610SOL     OW 2171   0.773   2.736   3.546  0.1369 -0.1036 -0.2268
  610SOL    HW2 2172   0.678   2.731   3.537  0.0824  1.7175 -1.2882
  610SOL    HW3 2173   0.806   2.666   3.490 -0.5874  0.7208 -1.7648
  610SOL    MW4 2174   0.765   2.726   3.537 -0.2326  0.3253 -0.3556
  611SOL     OW 2175   4.290   1.386   3.079 -0.1853  0.1206 -0.4077
  611SOL    HW2 2176   4.236   1.463   3.061 -1.8203 -0.7805  0.3772
  611SOL    HW3 2177   4.258   1.320   3.016  1.9849  0.3801 -1.8706
  611SOL    MW4 2178   4.278   1.387   3.068  0.1850  0.2457  0.3257
  612SOL     OW 2179   4.524   3.872   3.518  0.4106 -0.4474  0.1296
  612SOL    HW2 2180   4.532   3.947   3.577  0.8100 -0.0443 -0.4373
  612SOL    HW3 2181   4.438   3.836   3.538  0.3249 -0.0031  0.5946
  612SOL    MW4 2182   4.514   3.877   3.529 -0.0965  0.6566  0.4688
  613SOL     OW 2183   6.196   6.231   3.560  0.0686  0.6399  0.0863
  613SOL    HW2 2184   6.289   6.213   3.548  0.0493 -1.0764  1.9260
  613SOL    HW3 2185   6.160   6.149   3.593 -2.1798  1.1830 -0.8386
  613SOL    MW4 2186   6.204   6.218   3.563  0.5725 -0.2115 -0.0324
  614SOL     OW 2187   5.861   1.309   4.894 -0.1257 -0.4543  0.3020
  614SOL    HW2 2188   5.859   1.339   4.803 -0.5351 -0.7361  0.2165
  614SOL    HW3 2189   5.950   1.329   4.924  0.0151 -0.3742 -0.1646
  614SOL    MW4 2190   5.873   1.315   4.886  0.0591  0.7450  0.4904
  615SOL     OW 2191   1.955   4.711   4.761  0.6087 -1.0588  0.5245
  615SOL    HW2 2192   1.889   4.661   4.714  0.5595  0.7823 -1.4791
  615SOL    HW3 2193   1.905   4.764   4.824  0.4977 -1.9598  1.2213
  615SOL    MW4 2194   1.940   4.712   4.763  0.3899 -0.1474  0.1409
  616SOL     OW 2195   0.586   2.555   4.078  0.3497  0.2725 -0.3228
  616SOL    HW2 2196   0.600   2.472   4.033 -1.4309 -0.2583  0.0324
  616SOL    HW3 2197   0.574   2.618   4.007 -1.9018 -0.4613 -0.6690
  616SOL    MW4 2198   0.587   2.552   4.062 -0.0934 -0.6129  0.2534
  617SOL     OW 2199   4.992   3.400   2.703 -0.4576 -0.4205  0.9249
  617SOL    HW2 2200   4.992   3.462   2.775  1.4883  0.2121  0.4353
  617SOL    HW3 2201   5.082   3.369   2.697 -0.1188  0.7529 -2.2003
  617SOL    MW4 2202   5.004   3.404   2.711 -0.7328 -0.5355 -0.7880
  618SOL     OW 2203   1.788   1.075   2.758 -0.0373 -0.0104 -0.1842
  618SOL    HW2 2204   1.731   1.128   2.702 -0.8630  1.1793  1.6786
  618SOL    HW3 2205   1.763   0.985   2.740 -0.9979  0.3904 -0.9480
  618SOL    MW4 2206   1.777   1.070   2.748 -0.0678 -1.1507 -1.0027
  619SOL     OW 2207   1.259   3.377   0.843  0.2163 -0.0368 -0.5700
  619SOL    HW2 2208   1.199   3.351   0.774  0.2841 -0.7838 -0.3503
  619SOL    HW3 2209   1.223   3.459   0.876 -2.0187 -1.5659  1.0973
  619SOL    MW4 2210   1.246   3.385   0.839  0.0322 -0.0030  1.1032
  620SOL     OW 2211   4.873   2.653   0.944 -0.1777  0.5906 -0.4461
  620SOL    HW2 2212   4.858   2.585   0.879  0.3097 -2.0202  2.0004
  620SOL    HW3 2213   4.966   2.671   0.939 -0.0020 -0.1718  0.0436
  620SOL    MW4 2214   4.883   2.646   0.935  0.0567  0.4057 -0.2266
  621SOL     OW 2215   1.180   2.845   4.305 -0.0404 -0.1303  0.1651
  621SOL    HW2 2216   1.110   2.780   4.310  0.2672 -0.4216  0.8024
  621SOL    HW3 2217   1.257   2.799   4.339  0.1930  0.5454  0.5614
  621SOL    MW4 2218   1.181   2.830   4.310  0.4208 -0.2458 -0.3108
  622SOL     OW 2219   4.577   0.740   2.744  0.1869 -0.2160 -0.4779
  622SOL    HW2 2220   4.538   0.827   2.734 -1.9552 -0.9389  0.8800
  622SOL    HW3 2221   4.555   0.714   2.833  3.0037 -1.1546  0.0271
  622SOL    MW4 2222   4.569   0.748   2.754 -0.2340 -0.4845  0.2072
  623SOL     OW 2223   3.508   5.394   1.211  0.0873  0.1629 -0.9689
  623SOL    HW2 2224   3.414   5.404   1.194 -0.0003 -0.1194 -0.6551
  623SOL    HW3 2225   3.529   5.467   1.269 -1.0040 -2.4290  3.1255
  623SOL    MW4 2226   3.498   5.405   1.216 -0.1659  0.1332  0.3710
  624SOL     OW 2227   4.912   6.056   5.514  0.4069 -0.0179  0.6310
  624SOL    HW2 2228   4.848   5.989   5.488  0.9800  0.0717 -1.1755
  624SOL    HW3 2229   4.871   6.138   5.489  1.2216  0.0330 -0.6927
  624SOL    MW4 2230   4.898   6.058   5.507  0.3459 -0.0994 -0.0198
  625SOL     OW 2231   2.724   2.297   4.670  0.3860 -0.4038 -0.5232
  625SOL    HW2 2232   2.688   2.385   4.653  0.8439 -0.3145 -1.0342
  625SOL    HW3 2233   2.797   2.288   4.609  1.8982 -0.1981  1.1778
  625SOL    MW4 2234   2.729   2.307   4.660  0.0966 -0.2007 -0.0472
  626SOL     OW 2235   6.363   2.253   4.650  0.2277  0.0771  0.0772
  626SOL    HW2 2236   6.389   2.346   4.649 -0.2353  0.2143 -0.8973
  626SOL    HW3 2237   6.356   2.231   4.742 -0.6370  1.3064  0.3348
  626SOL    MW4 2238   6.366   2.263   4.662  0.1606  0.7275  0.1152
  627SOL     OW 2239   3.790   3.963   0.099 -0.2168 -0.1995  0.0682
  627SOL    HW2 2240   3.852   3.962   0.026  1.1666  1.2661  1.1550
  627SOL    HW3 2241   3.704   3.965   0.057  0.5330  0.6790 -1.5441
  627SOL    MW4 2242   3.787   3.963   0.084  0.4570  0.3397 -0.2317
  628SOL     OW 2243   0.856   2.226   0.403  0.1202 -0.2007  0.1518
  628SOL    HW2 2244   0.783   2.174   0.439  0.5830  0.0675  1.5528
  628SOL    HW3 2245   0.820   2.265   0.323 -0.8400 -1.1543  0.0847
  628SOL    MW4 2246   0.841   2.224   0.398  0.3423 -0.1469  0.1704
  629SOL     OW 2247   5.774   3.063   5.636 -0.0744  0.1023 -0.7954
  629SOL    HW2 2248   5.782   2.970   5.611  1.5042 -0.4475  1.4191
  629SOL    HW3 2249   5.728   3.061   5.720  1.3104  1.1744  0.0191
  629SOL    MW4 2250   5.769   3.050   5.644  0.0716 -0.5212  0.3571
  630SOL     OW 2251   0.043   2.688   5.333  0.0672 -0.5742  0.1494
  630SOL    HW2 2252   0.064   2.595   5.344  0.9813 -0.3877  0.0513
  630SOL    HW3 2253   0.062   2.727   5.418 -0.3207 -0.4763  0.1916
  630SOL    MW4 2254   0.049   2.681   5.346  0.0884 -0.2599 -0.2195
  631SOL     OW 2255   1.704   5.287   1.429 -0.0576 -0.2292 -0.1535
  631SOL    HW2 2256   1.723   5.238   1.349  0.5105  0.7015 -0.6010
  631SOL    HW3 2257   1.735   5.376   1.411  0.8678 -0.1995  1.3952
  631SOL    MW4 2258   1.711   5.292   1.416 -0.5615 -0.0531 -0.2556
  632SOL     OW 2259   5.298   4.165   4.971 -0.4862 -0.2460 -0.1152
  632SOL    HW2 2260   5.283   4.117   4.889  0.8133 -0.5775 -0.1751
  632SOL    HW3 2261   5.210   4.183   5.004 -1.1237 -3.6343  0.4686
  632SOL    MW4 2262   5.284   4.161   4.965  0.2946 -0.6696  0.2791
  633SOL     OW 2263   4.009   3.764   0.690 -0.1492 -0.0501 -0.4737
  633SOL    HW2 2264   3.963   3.750   0.607 -2.7133 -0.1595  0.8748
  633SOL    HW3 2265   3.981   3.851   0.718  0.3667 -0.1813  0.4753
  633SOL    MW4 2266   3.999   3.774   0.683 -0.6390 -0.6715 -0.1364
  634SOL     OW 2267   2.601   3.869   6.382 -0.0244 -0.1380  0.2141
  634SOL    HW2 2268   2.645   3.955   6.382 -1.6734  0.7531  0.2256
  634SOL    HW3 2269   2.614   3.835   6.294 -0.0426  0.5220 -0.0517
  634SOL    MW4 2270   2.608   3.876   6.370 -0.2620  0.1688 -0.8903
  635SOL     OW 2271   3.639   0.690   2.336 -0.1594  0.3531 -0.1580
  635SOL    HW2 2272   3.574   0.731   2.279 -0.1102 -0.5220 -0.8612
  635SOL    HW3 2273   3.604   0.604   2.355  1.3570 -0.6733 -1.6525
  635SOL    MW4 2274   3.626   0.684   2.331 -0.2812 -0.1748 -0.4414
  636SOL     OW 2275   5.356   3.723   2.594  0.0952  0.4479 -0.0394
  636SOL    HW2 2276   5.274   3.737   2.641  1.4720  1.3234  2.2624
  636SOL    HW3 2277   5.356   3.790   2.525 -0.7122  1.0059  0.4872
  636SOL    MW4 2278   5.345   3.734   2.591  0.7248  0.1039  0.3447
  637SOL     OW 2279   4.267   0.576   4.765 -0.2290  0.3870 -0.0185
  637SOL    HW2 2280   4.239   0.645   4.825 -0.0707  0.9021 -0.5225
  637SOL    HW3 2281   4.187   0.529   4.743 -0.4147  0.7072 -0.0331
  637SOL    MW4 2282   4.253   0.579   4.770 -0.1651  0.1676  0.5352
  638SOL     OW 2283   3.508   2.568   3.696  0.1654 -0.0067  0.1317
  638SOL    HW2 2284   3.556   2.507   3.640 -0.6426 -1.1231  0.5956
  638SOL    HW3 2285   3.568   2.588   3.768  0.1282 -1.0423  0.4761
  638SOL    MW4 2286   3.522   2.562   3.698 -0.1945 -0.0079 -0.1637
  639SOL     OW 2287   4.215   1.980   2.029  0.1713  0.4631 -0.6448
  639SOL    HW2 2288   4.179   2.068   2.017  0.4953  0.7555  0.4165
  639SOL    HW3 2289   4.254   1.982   2.116 -0.0582 -0.8236 -0.4992
  639SOL    MW4 2290   4.215   1.992   2.039 -0.0482  0.3334 -0.1023
  640SOL     OW 2291   3.973   6.175   2.224 -0.2066 -0.3365  0.0140
  640SOL    HW2 2292   3.991   6.190   2.317 -1.4090 -0.5442  0.2972
  640SOL    HW3 2293   4.037   6.109   2.198  1.8642  1.5867  0.0009
  640SOL    MW4 2294   3.984   6.168   2.233  0.2156 -0.2246  0.4172
  641SOL     OW 2295   1.116   0.173   4.024 -0.1438 -0.2439  0.2786
  641SOL    HW2 2296   1.152   0.085   4.037 -0.0905 -0.2916 -0.1551
  641SOL    HW3 2297   1.180   0.217   3.968 -0.3481 -0.0531  0.1907
  641SOL    MW4 2298   1.129   0.167   4.018 -0.0127 -0.3783 -0.4647
  642SOL     OW 2299   3.866   5.472   2.549  0.4281  0.3995 -0.3380
  642SOL    HW2 2300   3.879   5.557   2.507 -2.2264  0.0035 -2.2161
  642SOL    HW3 2301   3.800   5.489   2.617  1.8109  0.2570  1.1192
  642SOL    MW4 2302   3.859   5.486   2.553 -0.5678  0.2019  0.1968
  643SOL     OW 2303   3.409   4.628   5.670 -0.1191 -0.1436 -0.0058
  643SOL    HW2 2304   3.379   4.713   5.703 -1.3990 -0.5940  0.0734
  643SOL    HW3 2305   3.445   4.647   5.584 -0.1548  0.5259  0.1210
  643SOL    MW4 2306   3.410   4.642   5.663  0.5201 -0.1703 -0.3985
  644SOL     OW 2307   4.695   4.092   0.774 -0.0531  0.7307  0.4639
  644SOL    HW2 2308   4.780   4.099   0.818  1.0917 -2.9010 -0.7765
  644SOL    HW3 2309   4.671   4.000   0.784 -2.5863  1.0719 -1.5186
  644SOL    MW4 2310   4.703   4.081   0.782  0.1270  0.1741 -0.1295
  645SOL     OW 2311   5.841   3.343   6.010  0.0706 -0.0449 -0.0775
  645SOL    HW2 2312   5.909   3.355   5.944  1.8438  1.0337  1.8232
  645SOL    HW3 2313   5.785   3.421   6.001  1.0317  0.7323  0.4477
  645SOL    MW4 2314   5.843   3.355   6.000  0.1938 -0.6949  0.3652
  646SOL     OW 2315   2.130   6.379   1.029 -0.0311  0.0685 -0.4130
  646SOL    HW2 2316   2.057   6.438   1.011 -1.6256 -1.3269  1.0428
  646SOL    HW3 2317   2.203   6.415   0.979 -1.8867  1.1152 -2.5405
  646SOL    MW4 2318   2.130   6.392   1.020 -0.3177 -0.1034  0.3749
  647SOL     OW 2319   5.008   2.201   1.846 -0.0301 -0.3284 -0.3053
  647SOL    HW2 2320   4.947   2.149   1.897  1.0519 -1.7867 -0.4456
  647SOL    HW3 2321   4.975   2.291   1.853 -1.2414 -0.8439  0.9496
  647SOL    MW4 2322   4.996   2.206   1.853  0.2404 -0.0691  0.2140
  648SOL     OW 2323   3.054   0.533   6.216 -0.0044  0.3980  0.5296
  648SOL    HW2 2324   3.111   0.519   6.141  0.0079 -0.4039  0.6859
  648SOL    HW3 2325   2.969   0.497   6.189  0.3271 -1.0848  1.3492
  648SOL    MW4 2326   3.050   0.527   6.203 -0.3282  0.3193 -0.1500
  649SOL     OW 2327   0.675   4.508   2.024  0.3184  0.3015  0.3480
  649SOL    HW2 2328   0.746   4.461   2.067  0.2533 -0.3164 -0.2208
  649SOL    HW3 2329   0.602   4.446   2.021  0.0452  0.6267  0.1125
  649SOL    MW4 2330   0.675   4.494   2.029 -0.1269 -0.1668  0.4152
  650SOL     OW 2331   4.570   2.728   0.752  0.3796  0.7968 -0.0213
  650SOL    HW2 2332   4.513   2.651   0.757  0.7728  0.5855  2.1233
  650SOL    HW3 2333   4.658   2.692   0.756  0.5790  1.3080  0.3350
  650SOL    MW4 2334   4.574   2.713   0.753  0.4880  0.2659 -0.2315
  651SOL     OW 2335   3.476   0.617   4.746 -0.1666  0.3618 -0.3696
  651SOL    HW2 2336   3.512   0.544   4.796 -1.7447 -0.8973 -0.9946
  651SOL    HW3 2337   3.536   0.690   4.763  1.3854 -1.0284  0.3782
  651SOL    MW4 2338   3.489   0.617   4.755 -0.2819  0.5317  0.4851
  652SOL     OW 2339   2.240   3.153   1.871  1.1288 -0.0386  0.1071
  652SOL    HW2 2340   2.214   3.141   1.780 -0.8496 -0.0209  0.6198
  652SOL    HW3 2341   2.333   3.173   1.867  1.1032 -0.1056 -1.8954
  652SOL    MW4 2342   2.249   3.154   1.858  0.1293 -0.5920  0.5629
  653SOL     OW 2343   4.872   2.862   5.120 -0.1684 -0.2923 -0.0411
  653SOL    HW2 2344   4.881   2.779   5.072 -1.6036  0.3686 -1.5299
  653SOL    HW3 2345   4.950   2.865   5.176 -0.0480 -2.6069  0.0162
  653SOL    MW4 2346   4.884   2.851   5.121  0.2530  0.1789  0.3577
  654SOL     OW 2347   3.842   0.288   5.688  0.2627  0.3121  1.0284
  654SOL    HW2 2348   3.832   0.336   5.770  0.6321  0.7949  0.7951
  654SOL    HW3 2349   3.854   0.355   5.622 -0.9386 -0.0379  0.4278
  654SOL    MW4 2350   3.842   0.303   5.690  0.1519  0.0855 -0.0548
  655SOL     OW 2351   6.397   3.207   3.763  0.1887  0.4140  0.2299
  655SOL    HW2 2352   6.446   3.203   3.681  1.5472  0.4277  1.0082
  655SOL    HW3 2353   6.463   3.193   3.831 -0.8948  0.4633  1.3315
  655SOL    MW4 2354   6.412   3.204   3.761  0.1147  0.4527  0.4078
  656SOL     OW 2355   1.073   2.410   2.335  0.1181  0.1819 -0.0526
  656SOL    HW2 2356   0.998   2.469   2.341 -0.3761 -0.3354 -0.9838
  656SOL    HW3 2357   1.035   2.325   2.311  0.9175 -0.2872  0.2992
  656SOL    MW4 2358   1.058   2.406   2.333 -0.1646 -0.2423  0.2359
  657SOL     OW 2359   4.433   5.695   4.233  0.1630 -0.1785  0.2543
  657SOL    HW2 2360   4.469   5.614   4.197 -0.6016 -0.5518  0.3076
  657SOL    HW3 2361   4.472   5.701   4.320 -0.1789 -0.7825  0.4626
  657SOL    MW4 2362   4.443   5.685   4.240  0.4095 -0.2710  0.6502
  658SOL     OW 2363   6.336   3.453   2.354  0.1322  0.3606  0.2949
  658SOL    HW2 2364   6.262   3.509   2.379  1.3005  1.8661  0.4976
  658SOL    HW3 2365   6.357   3.405   2.434 -1.0093 -0.5600  0.0635
  658SOL    MW4 2366   6.329   3.454   2.368  0.0431 -0.2053  0.1775
  659SOL     OW 2367   2.629   6.003   4.895 -0.1945 -0.3339  0.2093
  659SOL    HW2 2368   2.603   6.095   4.901  0.2901 -0.1400 -0.4921
  659SOL    HW3 2369   2.570   5.957   4.954 -0.7057  0.3764  0.2629
  659SOL    MW4 2370   2.618   6.009   4.903  0.5403  0.0932 -0.1546
  660SOL     OW 2371   6.002   5.409   1.315 -0.3177 -0.2932  0.0286
  660SOL    HW2 2372   6.084   5.404   1.265  0.5904  1.9286  1.1319
  660SOL    HW3 2373   5.999   5.500   1.345 -2.3624 -0.7732  1.4441
  660SOL    MW4 2374   6.012   5.421   1.312 -0.2575  0.1519  0.1801
  661SOL     OW 2375   1.195   4.621   6.226 -0.7501 -0.0711 -0.2018
  661SOL    HW2 2376   1.121   4.679   6.208 -0.3546  0.9020  1.1598
  661SOL    HW3 2377   1.270   4.666   6.188 -0.5266  0.0469  0.3734
  661SOL    MW4 2378   1.195   4.635   6.219  0.8849 -0.3259 -0.5441
  662SOL     OW 2379   3.404   0.694   5.099 -0.1376 -0.9293  0.3491
  662SOL    HW2 2380   3.461   0.627   5.059 -0.7197 -1.5587  0.5562
  662SOL    HW3 2381   3.366   0.650   5.175 -0.1690 -0.2011  0.7599
  662SOL    MW4 2382   3.407   0.679   5.104  0.4433  0.3695 -0.8395
  663SOL     OW 2383   6.358   1.244   0.667 -0.2355  0.2136 -0.5333
  663SOL    HW2 2384   6.438   1.235   0.616 -1.7539  1.3851 -3.3460
  663SOL    HW3 2385   6.383   1.216   0.756  3.3728  1.0266 -1.1217
  663SOL    MW4 2386   6.372   1.239   0.672  0.3456  0.1417 -0.0369
  664SOL     OW 2387   2.719   4.717   5.622 -0.4856 -0.8143 -0.0235
  664SOL    HW2 2388   2.790   4.712   5.559 -0.1333  0.6582  0.2201
  664SOL    HW3 2389   2.746   4.784   5.684 -2.7893  1.0320 -0.8440
  664SOL    MW4 2390   2.732   4.725   5.622  0.1029  0.5269 -0.1423
  665SOL     OW 2391   1.105   5.090   5.332 -0.5609  0.2079  0.1816
  665SOL    HW2 2392   1.079   5.178   5.358  0.7882  0.2050  1.6639
  665SOL    HW3 2393   1.198   5.084   5.355 -0.5568 -1.5125 -0.1383
  665SOL    MW4 2394   1.114   5.101   5.338  0.3349  0.3792  0.6075
  666SOL     OW 2395   3.083   0.230   1.308 -0.4802  0.8716  0.4420
  666SOL    HW2 2396   3.007   0.241   1.250 -0.6431  2.9230  0.9466
  666SOL    HW3 2397   3.049   0.180   1.382 -0.6719 -0.4140 -0.4951
  666SOL    MW4 2398   3.068   0.225   1.310 -0.5813 -0.1142 -0.1384
  667SOL     OW 2399   3.947   2.421   0.657 -0.2941 -0.5131 -0.4309
  667SOL    HW2 2400   3.983   2.363   0.723 -1.5535  0.0605  0.8180
  667SOL    HW3 2401   4.014   2.488   0.644  0.9972 -1.9563 -1.5876
  667SOL    MW4 2402   3.960   2.423   0.664  0.0067 -1.3016  0.2683
  668SOL     OW 2403   0.426   2.058   3.599 -0.1816 -0.0496 -0.5298
  668SOL    HW2 2404   0.455   2.069   3.508  0.6130  1.1630 -0.1438
  668SOL    HW3 2405   0.480   2.118   3.650 -0.2228 -1.1147  0.8386
  668SOL    MW4 2406   0.437   2.067   3.594 -0.3708 -0.0654 -0.4484
  669SOL     OW 2407   2.932   5.471   0.594  0.2880  0.4449 -0.2234
  669SOL    HW2 2408   2.845   5.490   0.558 -0.0261 -0.5749 -0.0217
  669SOL    HW3 2409   2.915   5.431   0.679  0.9299 -0.4030 -0.4794
  669SOL    MW4 2410   2.918   5.469   0.600 -0.5153  0.1949  0.1544
  670SOL     OW 2411   4.133   5.356   2.940 -0.6569  0.2931 -0.3493
  670SOL    HW2 2412   4.163   5.354   2.849 -2.4592  1.6514 -1.0356
  670SOL    HW3 2413   4.048   5.312   2.938 -0.8052  0.5185  0.6319
  670SOL    MW4 2414   4.126   5.350   2.928  0.3034 -0.0206 -0.1197
  671SOL     OW 2415   0.766   2.719   5.766 -0.1035 -0.7183 -0.5088
  671SOL    HW2 2416   0.840   2.659   5.765 -0.2755 -0.9283 -1.5258
  671SOL    HW3 2417   0.800   2.800   5.728 -0.5978 -1.0889 -1.8048
  671SOL    MW4 2418   0.780   2.722   5.761  0.3724 -0.5128 -0.2177
  672SOL     OW 2419   5.476   1.494   1.757  0.1052  0.1952  0.3002
  672SOL    HW2 2420   5.545   1.526   1.814  1.7875 -0.9876 -0.9550
  672SOL    HW3 2421   5.486   1.399   1.757 -1.4015  0.0053 -0.0841
  672SOL    MW4 2422   5.487   1.486   1.764 -0.2133 -1.0336  0.1264
  673SOL     OW 2423   2.916   1.184   3.597 -0.1644 -0.1221  0.3302
  673SOL    HW2 2424   2.963   1.127   3.536  1.3995  0.0091  1.3596
  673SOL    HW3 2425   2.824   1.180   3.568  0.2514 -1.4537 -0.9111
  673SOL    MW4 2426   2.910   1.176   3.585 -0.7160 -0.1885 -0.1390
  674SOL     OW 2427   1.990   3.515   2.964  0.6736 -0.1685  0.0779
  674SOL    HW2 2428   1.942   3.545   3.041 -1.4790  0.1746 -1.3121
  674SOL    HW3 2429   2.048   3.588   2.942 -0.9965  1.0735 -0.4251
  674SOL    MW4 2430   1.991   3.529   2.971 -0.2937  0.1731 -0.2085
  675SOL     OW 2431   0.173   5.586   4.986 -0.3700 -0.5045  0.6390
  675SOL    HW2 2432   0.135   5.674   4.982  0.4485 -0.1768 -1.4222
  675SOL    HW3 2433   0.116   5.533   4.929  0.2212 -0.8366  0.3427
  675SOL    MW4 2434   0.160   5.591   4.978  0.3533  0.0605  0.2268
  676SOL     OW 2435   3.842   1.466   3.346  0.0985  0.0138 -0.1317
  676SOL    HW2 2436   3.889   1.498   3.423  0.1012 -2.1066  0.8270
  676SOL    HW3 2437   3.756   1.439   3.380  0.2161 -1.2481 -0.7804
  676SOL    MW4 2438   3.837   1.466   3.361  0.0257 -0.1452 -0.3163
  677SOL     OW 2439   6.165   2.991   4.028  0.0284 -0.3370  0.3231
  677SOL    HW2 2440   6.246   2.958   4.066  0.2638  0.3042  0.3772
  677SOL    HW3 2441   6.097   2.962   4.089  0.1841 -1.0726  0.1576
  677SOL    MW4 2442   6.166   2.983   4.041 -0.1481  0.1910 -0.2377
  678SOL     OW 2443   5.807   2.320   0.026 -0.3007 -0.4403  0.0468
  678SOL    HW2 2444   5.768   2.352  -0.056 -2.2257  0.3076  1.1809
  678SOL    HW3 2445   5.734   2.281   0.073  0.6389 -0.3284  1.6535
  678SOL    MW4 2446   5.792   2.319   0.021 -0.0170  0.4936  0.1064
  679SOL     OW 2447   1.117   4.218   3.146 -0.4489 -0.4340  0.3065
  679SOL    HW2 2448   1.029   4.189   3.123 -0.7463  2.4010 -3.1270
  679SOL    HW3 2449   1.103   4.302   3.190  0.4699 -0.2369  0.2391
  679SOL    MW4 2450   1.104   4.226   3.148  0.4135  0.1626  0.1688
  680SOL     OW 2451   1.877   5.973   3.492  0.3446  0.1815  0.5479
  680SOL    HW2 2452   1.960   5.945   3.453  0.5882 -0.9260  1.7883
  680SOL    HW3 2453   1.864   6.063   3.460  0.9101 -0.3679 -1.3988
  680SOL    MW4 2454   1.886   5.981   3.482 -0.8133 -1.1894 -0.4060
  681SOL     OW 2455   3.747   1.153   2.854 -0.2686 -0.1429 -0.0114
  681SOL    HW2 2456   3.797   1.189   2.928  1.0182  2.0945 -1.8457
  681SOL    HW3 2457   3.677   1.217   2.839  0.3785  0.2402 -1.6017
  681SOL    MW4 2458   3.745   1.167   2.862  0.1011  0.1323 -0.5047
  682SOL     OW 2459   5.804   0.749   4.034  0.0086  0.4676 -0.0350
  682SOL    HW2 2460   5.742   0.759   4.106  0.8050  3.0718  0.3824
  682SOL    HW3 2461   5.875   0.810   4.055  0.5679  0.8280 -2.6989
  682SOL    MW4 2462   5.805   0.758   4.046  0.0065  0.4769 -0.2392
  683SOL     OW 2463   6.191   1.350   3.196  0.7207  0.0848  0.6444
  683SOL    HW2 2464   6.227   1.270   3.234  0.6632  0.0014  0.5236
  683SOL    HW3 2465   6.208   1.418   3.261 -1.4341 -0.4664  1.8920
  683SOL    MW4 2466   6.198   1.349   3.210 -0.1129 -0.5068  0.0531
  684SOL     OW 2467   1.647   4.183   3.348  0.6447 -0.3574  0.1370
  684SOL    HW2 2468   1.728   4.183   3.399  1.2780  2.2202 -0.7287
  684SOL    HW3 2469   1.589   4.242   3.396 -0.4250 -1.4593  0.2510
  684SOL    MW4 2470   1.650   4.191   3.361  0.1264  0.4629  0.0429
  685SOL     OW 2471   3.226   1.576   4.581  0.4874  0.2007  0.0075
  685SOL    HW2 2472   3.165   1.646   4.607 -0.5679 -0.8429  0.4732
  685SOL    HW3 2473   3.183   1.532   4.508  0.4677 -0.8095  0.6041
  685SOL    MW4 2474   3.212   1.579   4.575 -0.5129  0.0787  0.3018
  686SOL     OW 2475   1.083   3.171   6.116 -0.5207  0.1383  0.1387
  686SOL    HW2 2476   1.130   3.110   6.173  0.6143  0.7844 -0.0596
  686SOL    HW3 2477   1.101   3.257   6.153  0.7826  0.6363 -1.4946
  686SOL    MW4 2478   1.092   3.174   6.128 -0.0739 -1.0816  0.1070
  687SOL     OW 2479   0.808   4.971   5.780 -0.5575  0.0413 -0.8003
  687SOL    HW2 2480   0.722   4.961   5.739 -0.5967 -0.1275 -0.6782
  687SOL    HW3 2481   0.803   4.917   5.859 -0.9396  1.3837  0.1282
  687SOL    MW4 2482   0.796   4.962   5.785  0.9587 -0.6706  0.2895
  688SOL     OW 2483   5.778   4.983   4.985 -0.0891 -0.0087  0.7200
  688SOL    HW2 2484   5.775   4.896   4.945  0.1344  0.5125 -0.4822
  688SOL    HW3 2485   5.867   4.991   5.019 -0.1499 -0.2937  0.9497
  688SOL    MW4 2486   5.789   4.972   4.984  0.1591  0.0932  0.0508
  689SOL     OW 2487   2.261   2.046   6.191  0.2525  0.2001  0.3180
  689SOL    HW2 2488   2.314   1.999   6.126  0.5014 -0.4019  0.9408
  689SOL    HW3 2489   2.258   2.136   6.160 -1.8648 -0.5420 -1.9930
  689SOL    MW4 2490   2.267   2.051   6.178  0.1946  0.2647  0.4191
  690SOL     OW 2491   2.524   5.371   1.069 -0.2311 -0.6807  0.3699
  690SOL    HW2 2492   2.500   5.438   1.132  2.3401  0.8208 -0.1108
  690SOL    HW3 2493   2.608   5.337   1.100 -0.5617 -2.3507 -0.4303
  690SOL    MW4 2494   2.532   5.375   1.081  0.1345 -0.3966 -0.5641
  691SOL     OW 2495   0.811   4.075   4.667 -0.3197 -0.5494  0.1687
  691SOL    HW2 2496   0.823   4.084   4.762  1.1094 -1.2071  0.0707
  691SOL    HW3 2497   0.828   4.163   4.633  1.3856 -0.7707  0.3469
  691SOL    MW4 2498   0.815   4.088   4.675 -0.2725  0.3982 -0.1341
  692SOL     OW 2499   4.499   5.357   5.012  0.2624  0.2619  0.1270
  692SOL    HW2 2500   4.498   5.311   4.928  0.9624  0.3339  0.0776
  692SOL    HW3 2501   4.542   5.297   5.072  1.0655  0.7929  0.0928
  692SOL    MW4 2502   4.504   5.343   5.009  0.0321  0.4260  0.1580
  693SOL     OW 2503   2.966   5.519   1.843  0.5542 -0.0465  0.0443
  693SOL    HW2 2504   2.914   5.469   1.781  1.4771  0.9975 -1.6597
  693SOL    HW3 2505   3.052   5.477   1.843  0.6517  0.1424  0.3935
  693SOL    MW4 2506   2.970   5.507   1.835  0.7266 -0.3068  0.0705
  694SOL     OW 2507   4.319   6.374   4.757  0.0994  0.2655 -0.3316
  694SOL    HW2 2508   4.362   6.434   4.697 -0.7488  1.0334 -0.1915
  694SOL    HW3 2509   4.391   6.333   4.805  0.6955  2.7848  1.1309
  694SOL    MW4 2510   4.334   6.376   4.756 -0.5059  0.2349 -0.1413
  695SOL     OW 2511   2.072   5.497   5.625  0.2666  0.2554 -0.0219
  695SOL    HW2 2512   2.143   5.456   5.675  0.0016  0.9611  0.9863
  695SOL    HW3 2513   2.004   5.430   5.619  0.2452  0.2027  0.7188
  695SOL    MW4 2514   2.073   5.483   5.631 -0.0408  0.1167 -0.0528
  696SOL     OW 2515   0.591   5.596   3.217 -0.0280 -0.0057  0.6116
  696SOL    HW2 2516   0.595   5.667   3.153 -1.0280 -0.6736 -0.2344
  696SOL    HW3 2517   0.552   5.636   3.295 -3.1184 -0.1269 -0.7148
  696SOL    MW4 2518   0.586   5.610   3.219  0.4998  0.0643 -0.4755
  697SOL     OW 2519   0.851   3.758   1.856 -0.7886  0.3990 -0.6797
  697SOL    HW2 2520   0.913   3.746   1.928 -2.1627 -0.0223  0.4688
  697SOL    HW3 2521   0.866   3.683   1.799 -0.1726  0.3652 -0.4806
  697SOL    MW4 2522   0.861   3.747   1.858  0.0856  0.5780  0.1546
  698SOL     OW 2523   2.769   0.502   6.194 -0.0097  0.0464  0.5543
  698SOL    HW2 2524   2.742   0.510   6.102  2.0441 -0.3240 -0.1231
  698SOL    HW3 2525   2.711   0.435   6.229 -0.0043 -0.7365 -0.8389
  698SOL    MW4 2526   2.758   0.494   6.186 -0.1042  0.2621 -0.1224
  699SOL     OW 2527   0.209   0.659   2.415 -0.3464  0.1171 -0.2676
  699SOL    HW2 2528   0.235   0.594   2.480  1.4703 -0.3038 -1.3458
  699SOL    HW3 2529   0.226   0.743   2.457  2.0850 -0.1470 -0.5852
  699SOL    MW4 2530   0.214   0.662   2.429  0.0697 -0.2234 -0.0327
  700SOL     OW 2531   5.317   2.282   1.845  0.7412  0.3926  0.3776
  700SOL    HW2 2532   5.387   2.253   1.786  0.8342  1.2215  0.0647
  700SOL    HW3 2533   5.263   2.204   1.859  0.1981  0.3731 -1.5417
  700SOL    MW4 2534   5.319   2.267   1.839  0.2905 -0.5423 -0.0955
  701SOL     OW 2535   3.230   2.582   0.657  0.0725 -0.5232  0.4502
  701SOL    HW2 2536   3.185   2.644   0.599  1.8348 -0.3391 -0.8067
  701SOL    HW3 2537   3.313   2.625   0.677  0.4275 -1.5759  1.2927
  701SOL    MW4 2538   3.235   2.596   0.652  0.0526 -0.3698 -0.5463
  702SOL     OW 2539   5.360   1.329   2.101  0.1233 -0.3134 -0.3488
  702SOL    HW2 2540   5.364   1.331   2.196 -0.6610 -1.9806 -0.2273
  702SOL    HW3 2541   5.435   1.275   2.075  1.0094  1.0864 -0.7780
  702SOL    MW4 2542   5.370   1.322   2.110  0.2721 -0.4215  0.2144
  703SOL     OW 2543   4.160   1.372   0.215  0.1742  0.1122  0.1567
  703SOL    HW2 2544   4.191   1.297   0.266 -1.8230 -1.1606 -0.3849
  703SOL    HW3 2545   4.200   1.361   0.129  1.3135  0.7004  0.5940
  703SOL    MW4 2546   4.169   1.360   0.210  0.4620  0.5943  0.2020
  704SOL     OW 2547   0.983   2.389   4.484  0.0431  0.1454  0.3308
  704SOL    HW2 2548   0.989   2.363   4.576  0.1037  0.4831  0.4228
  704SOL    HW3 2549   0.963   2.482   4.487  0.4547  0.2489  0.0012
  704SOL    MW4 2550   0.981   2.398   4.497  0.4672  0.4026 -0.1008
  705SOL     OW 2551   3.790   5.779   1.228  0.0723 -0.4961  0.0698
  705SOL    HW2 2552   3.825   5.774   1.138 -0.8585  0.1960 -0.3460
  705SOL    HW3 2553   3.808   5.869   1.255 -1.0825 -0.2198 -0.0394
  705SOL    MW4 2554   3.797   5.790   1.219 -0.5375  0.6592  0.5244
  706SOL     OW 2555   4.298   5.716   0.805 -0.3721 -0.0142 -0.0902
  706SOL    HW2 2556   4.260   5.741   0.720 -0.5926 -0.3370 -0.0887
  706SOL    HW3 2557   4.388   5.749   0.802  0.2300 -1.6640 -1.2114
  706SOL    MW4 2558   4.305   5.724   0.793  0.5669 -0.0291 -0.0995
  707SOL     OW 2559   5.791   1.855   4.470 -0.1359 -0.3382 -0.3889
  707SOL    HW2 2560   5.708   1.852   4.518 -0.1593  2.2647 -0.0940
  707SOL    HW3 2561   5.858   1.864   4.538  0.2736 -1.0228 -0.6882
  707SOL    MW4 2562   5.789   1.856   4.485 -0.3441  0.0713 -0.4770
  708SOL     OW 2563   3.129   3.264   5.268 -0.1799  0.1696 -0.0049
  708SOL    HW2 2564   3.123   3.218   5.184  1.0924  0.1447 -0.0872
  708SOL    HW3 2565   3.043   3.249   5.308 -1.5443  1.7919 -2.0941
  708SOL    MW4 2566   3.117   3.256   5.262 -0.3049 -0.0086  0.2759
  709SOL     OW 2567   3.240   0.593   1.414 -0.0572 -0.5161 -0.0948
  709SOL    HW2 2568   3.178   0.642   1.468 -1.5355 -2.4057  0.0515
  709SOL    HW3 2569   3.215   0.615   1.324 -0.8316 -1.1200 -0.0338
  709SOL    MW4 2570   3.228   0.603   1.409 -0.2352 -0.7150 -0.3749
  710SOL     OW 2571   0.746   4.852   2.262 -0.1697  0.1106 -0.1239
  710SOL    HW2 2572   0.837   4.829   2.278 -0.5674 -0.9210  0.7250
  710SOL    HW3 2573   0.696   4.802   2.327 -1.3126  0.9636 -0.3088
  710SOL    MW4 2574   0.751   4.842   2.273 -0.0602 -0.6336  0.1676
  711SOL     OW 2575   4.639   0.838   4.240 -0.4402 -0.2630 -0.5080
  711SOL    HW2 2576   4.718   0.829   4.294 -0.5485  0.7564 -0.1507
  711SOL    HW3 2577   4.629   0.753   4.197  0.0852 -0.8405  0.4882
  711SOL    MW4 2578   4.648   0.826   4.241  0.3894 -0.9297 -0.0561
  712SOL     OW 2579   5.774   3.835   5.556  0.7875  0.1180  0.1919
  712SOL    HW2 2580   5.869   3.843   5.544  0.9430 -0.1685  1.1626
  712SOL    HW3 2581   5.739   3.914   5.515  1.2081 -0.9372 -2.4314
  712SOL    MW4 2582   5.782   3.847   5.549 -0.8540  0.0884  0.1462
  713SOL     OW 2583   3.924   0.492   5.518  0.3382  0.4195 -0.1483
  713SOL    HW2 2584   3.947   0.531   5.434  0.8615  0.1982 -0.1060
  713SOL    HW3 2585   4.000   0.441   5.544 -1.6160 -3.9398 -2.0529
  713SOL    MW4 2586   3.937   0.491   5.511 -0.6572 -0.4268 -0.0263
  714SOL     OW 2587   2.666   2.000   5.672 -0.3876 -0.1163  0.3647
  714SOL    HW2 2588   2.641   1.984   5.581  2.4885 -0.2824 -0.4801
  714SOL    HW3 2589   2.746   1.949   5.685 -0.5133  0.1697  2.9248
  714SOL    MW4 2590   2.673   1.991   5.662  0.2288 -0.5466 -0.3159
  715SOL     OW 2591   3.302   1.304   1.264 -0.1202 -0.2306 -0.2407
  715SOL    HW2 2592   3.212   1.305   1.232  0.4882  2.1639 -2.1374
  715SOL    HW3 2593   3.295   1.277   1.356 -2.6307 -1.0114 -0.5902
  715SOL    MW4 2594   3.289   1.300   1.272 -0.1475  0.8316  0.0495
  716SOL     OW 2595   0.684   0.047   5.254  0.1172  0.1480  0.1063
  716SOL    HW2 2596   0.604   0.053   5.307 -0.1274 -0.6056 -0.1638
  716SOL    HW3 2597   0.656   0.003   5.173  0.4586  1.3821 -0.7105
  716SOL    MW4 2598   0.669   0.042   5.250  0.1022 -0.0783 -0.0433
  717SOL     OW 2599   1.111   4.845   1.031 -0.3166  0.1853  0.4802
  717SOL    HW2 2600   1.184   4.883   1.080  0.0183 -1.7259  1.5361
  717SOL    HW3 2601   1.066   4.788   1.094  0.1235 -2.3656 -1.3513
  717SOL    MW4 2602   1.114   4.843   1.046 -0.0779  0.0917 -0.0955
  718SOL     OW 2603   1.973   5.807   2.755 -0.1349 -0.5408  0.0656
  718SOL    HW2 2604   1.921   5.887   2.757  2.2911  1.1485  2.6043
  718SOL    HW3 2605   1.908   5.736   2.759 -2.3290  1.2191 -1.7848
  718SOL    MW4 2606   1.957   5.808   2.756 -0.3546 -0.1506 -0.2615
  719SOL     OW 2607   5.017   1.119   3.702 -0.1026  0.2848 -0.2173
  719SOL    HW2 2608   5.051   1.178   3.635 -0.5382 -0.0779 -0.7726
  719SOL    HW3 2609   5.035   1.163   3.785  2.9974 -0.5406 -0.3528
  719SOL    MW4 2610   5.024   1.133   3.704  0.4551 -0.3020  0.1714
  720SOL     OW 2611   2.074   3.443   5.434  0.3779  0.0684 -0.5869
  720SOL    HW2 2612   2.155   3.416   5.478 -1.2646 -2.7296  1.0092
  720SOL    HW3 2613   2.069   3.537   5.450  2.4737  0.0371  0.7019
  720SOL    MW4 2614   2.084   3.451   5.442 -0.2075  0.0215 -0.0038
  721SOL     OW 2615   2.645   6.349   3.655  0.2634  0.6109 -0.2580
  721SOL    HW2 2616   2.581   6.280   3.671  0.1241  1.0637  1.2873
  721SOL    HW3 2617   2.600   6.412   3.599  0.5131 -0.6904 -2.0032
  721SOL    MW4 2618   2.631   6.348   3.650  0.0532  0.3229  0.0234
  722SOL     OW 2619   1.075   0.721   4.429 -0.3367  0.1353 -0.5920
  722SOL    HW2 2620   1.134   0.647   4.441  0.5352  0.8386 -0.4784
  722SOL    HW3 2621   1.011   0.690   4.365  1.5428  0.1269 -2.5965
  722SOL    MW4 2622   1.074   0.707   4.422 -0.0566 -0.6617 -0.7558
  723SOL     OW 2623   1.978   6.301   6.186  0.3355  0.0434  0.3864
  723SOL    HW2 2624   2.070   6.277   6.181  0.6392  1.1073  0.4790
  723SOL    HW3 2625   1.930   6.225   6.152  1.3100  0.0147 -0.9820
  723SOL    MW4 2626   1.983   6.288   6.181 -0.0944  0.1258 -0.2058
  724SOL     OW 2627   0.281   2.273   3.042 -0.1379  0.4922  0.4515
  724SOL    HW2 2628   0.231   2.267   3.123 -1.0623  0.4351 -0.1165
  724SOL    HW3 2629   0.355   2.330   3.064 -0.7927  1.0915  1.1266
  724SOL    MW4 2630   0.284   2.280   3.055  1.2091  0.5548 -0.3187
  725SOL     OW 2631   0.953   5.214   5.806  0.7376  0.1159 -0.2998
  725SOL    HW2 2632   0.920   5.132   5.770  0.9603 -0.9217  1.7213
  725SOL    HW3 2633   0.896   5.281   5.768 -0.0887 -1.0650 -1.2321
  725SOL    MW4 2634   0.941   5.212   5.797 -0.4376  0.5829 -0.4645
  726SOL     OW 2635   4.388   4.185   1.516 -0.1790  0.1649  0.5366
  726SOL    HW2 2636   4.393   4.252   1.447  0.6175 -0.5637 -0.1331
  726SOL    HW3 2637   4.295   4.167   1.524 -0.3276  0.6577  0.0251
  726SOL    MW4 2638   4.376   4.192   1.508 -0.2974  0.0762 -0.4431
  727SOL     OW 2639   3.294   4.548   2.381 -0.2375  0.2842  0.3078
  727SOL    HW2 2640   3.275   4.636   2.348  0.3709  0.7158  1.0618
  727SOL    HW3 2641   3.289   4.492   2.304 -0.5366  0.9986 -0.2018
  727SOL    MW4 2642   3.291   4.552   2.367 -0.4055  0.1548 -0.5026
  728SOL     OW 2643   2.214   3.412   0.731 -0.1475  0.6882  0.1226
  728SOL    HW2 2644   2.130   3.372   0.752  0.1917  0.3266  0.7990
  728SOL    HW3 2645   2.279   3.345   0.752  0.3081  0.9299 -0.4845
  728SOL    MW4 2646   2.211   3.398   0.736  0.0574  0.2928  0.0313
  729SOL     OW 2647   1.138   1.182   3.405  0.1035  0.2606 -0.1652
  729SOL    HW2 2648   1.101   1.265   3.434 -0.0565 -0.2200  1.0742
  729SOL    HW3 2649   1.219   1.206   3.360  0.4809  1.0499  0.8901
  729SOL    MW4 2650   1.144   1.196   3.403 -0.3088  0.2511  0.4458
  730SOL     OW 2651   0.769   0.488   0.430  0.1401  0.3769 -0.2821
  730SOL    HW2 2652   0.717   0.567   0.422 -0.3190  0.0856 -0.2086
  730SOL    HW3 2653   0.826   0.504   0.506 -1.9741 -0.4712  1.6072
  730SOL    MW4 2654   0.770   0.500   0.439  0.0931  0.1590  0.5750
  731SOL     OW 2655   3.804   4.295   5.178  0.2516 -0.3367  0.5027
  731SOL    HW2 2656   3.814   4.386   5.151  0.9417 -0.9684 -1.5344
  731SOL    HW3 2657   3.816   4.296   5.273  2.1603  1.4301  0.2995
  731SOL    MW4 2658   3.807   4.307   5.187  0.4547 -0.3010 -0.3426
  732SOL     OW 2659   4.871   0.901   0.582 -0.5153  0.1511 -0.3509
  732SOL    HW2 2660   4.853   0.886   0.490  0.1272  0.5043 -0.5363
  732SOL    HW3 2661   4.883   0.813   0.619 -1.9589 -0.0702 -0.3392
  732SOL    MW4 2662   4.870   0.887   0.575 -0.0486 -0.4703 -0.1622
  733SOL     OW 2663   1.363   3.673   3.796  0.2145  0.2552 -0.2415
  733SOL    HW2 2664   1.279   3.636   3.771  0.6932 -0.7185 -0.4627
  733SOL    HW3 2665   1.348   3.713   3.882 -0.9212  1.7519 -1.0933
  733SOL    MW4 2666   1.350   3.673   3.804  0.0135  0.2901  0.9054
  734SOL     OW 2667   2.959   4.607  -0.019  0.5653  0.2158  0.3883
  734SOL    HW2 2668   3.038   4.629   0.030 -0.5848  0.6827  2.1050
  734SOL    HW3 2669   2.887   4.631   0.039 -0.9430  2.3544 -2.1827
  734SOL    MW4 2670   2.960   4.613  -0.005  0.9745  0.2164 -0.6077
  735SOL     OW 2671   1.040   3.730   2.070 -0.5627  0.4407 -0.8660
  735SOL    HW2 2672   1.065   3.644   2.037 -1.3242  0.3161 -1.1186
  735SOL    HW3 2673   1.123   3.769   2.100 -0.4168 -0.9734  0.6651
  735SOL    MW4 2674   1.054   3.724   2.070 -0.0572  0.2440  0.4943
  736SOL     OW 2675   3.359   2.732   1.515  1.0333  0.3564  0.1764
  736SOL    HW2 2676   3.442   2.687   1.508 -0.4686 -2.5689 -0.1225
  736SOL    HW3 2677   3.365   2.805   1.453  2.8859 -0.5676 -0.7894
  736SOL    MW4 2678   3.370   2.736   1.506 -0.5690 -0.2591  0.1881
  737SOL     OW 2679   3.696   6.275   4.505 -0.6936 -0.0665  0.0997
  737SOL    HW2 2680   3.750   6.315   4.574 -1.6347  0.9101  0.2944
  737SOL    HW3 2681   3.758   6.222   4.454  0.4135  0.8766  0.4216
  737SOL    MW4 2682   3.712   6.273   4.508  0.8228 -0.1652 -0.7638
  738SOL     OW 2683   5.571   0.853   3.417 -0.2035  0.0101  0.0019
  738SOL    HW2 2684   5.494   0.863   3.473  0.2257 -0.1450  0.6369
  738SOL    HW3 2685   5.646   0.864   3.476  0.2787  1.2540 -0.8022
  738SOL    MW4 2686   5.571   0.856   3.432  0.3307  0.4469  0.5231
  739SOL     OW 2687   2.344   2.333   0.581  0.2318 -0.4748  0.3602
  739SOL    HW2 2688   2.362   2.242   0.555  2.2140  0.6411 -2.7534
  739SOL    HW3 2689   2.430   2.375   0.579 -0.6189  1.4407  2.0101
  739SOL    MW4 2690   2.358   2.326   0.577  0.2977 -0.4403 -0.2685
  740SOL     OW 2691   4.399   3.907   4.357 -0.3140  0.4670  0.6929
  740SOL    HW2 2692   4.343   3.978   4.389 -1.9579 -0.0770 -0.8214
  740SOL    HW3 2693   4.463   3.950   4.300 -1.4415  0.7363 -0.4028
  740SOL    MW4 2694   4.400   3.922   4.354 -0.4698  0.3317 -0.4790
  741SOL     OW 2695   3.099   4.059   3.627  0.7409  0.0660 -0.0085
  741SOL    HW2 2696   3.171   4.002   3.653  1.5262  0.8811 -0.3277
  741SOL    HW3 2697   3.139   4.121   3.565 -0.3639  0.1872 -0.6191
  741SOL    MW4 2698   3.114   4.060   3.622  0.4948 -0.2584  0.0984
  742SOL     OW 2699   4.070   0.366   0.998  0.3977 -0.9198 -0.0539
  742SOL    HW2 2700   4.080   0.460   1.016  0.2041 -0.2226 -3.0403
  742SOL    HW3 2701   4.135   0.324   1.054  0.8798  1.0332  0.9534
  742SOL    MW4 2702   4.080   0.373   1.007 -0.2110  0.8217 -0.0206
  743SOL     OW 2703   2.523   4.807   0.655 -0.2050  0.3382  0.2506
  743SOL    HW2 2704   2.501   4.725   0.611 -1.0514  0.8310 -0.2538
  743SOL    HW3 2705   2.595   4.844   0.603  0.8628 -0.5394  1.0426
  743SOL    MW4 2706   2.530   4.801   0.643 -0.4909  0.0999 -0.0479
  744SOL     OW 2707   2.877   2.266   3.112 -0.4356 -0.3377 -0.1627
  744SOL    HW2 2708   2.931   2.335   3.151 -0.9041 -0.1483  0.1574
  744SOL    HW3 2709   2.787   2.296   3.124 -0.6823 -1.3592  0.6851
  744SOL    MW4 2710   2.872   2.279   3.119  0.1068  0.3411  0.3010
  745SOL     OW 2711   0.003   4.933   3.344 -0.0410 -0.2926  0.0951
  745SOL    HW2 2712   0.003   4.883   3.426 -0.2583  0.5789  0.6415
  745SOL    HW3 2713  -0.008   4.868   3.276  0.0448 -1.0259  0.7699
  745SOL    MW4 2714   0.002   4.918   3.346  0.1737 -0.2677  0.0407
  746SOL     OW 2715   0.407   2.414   1.258 -0.0286  0.3636  0.1737
  746SOL    HW2 2716   0.330   2.372   1.220  0.0811  0.0569  0.2803
  746SOL    HW3 2717   0.452   2.454   1.184 -0.1921  0.3828  0.0842
  746SOL    MW4 2718   0.403   2.414   1.243  0.2194  0.6039 -0.5897
  747SOL     OW 2719   1.869   5.220   6.007  0.0908  0.3563  0.2557
  747SOL    HW2 2720   1.951   5.262   6.032  0.4420 -0.0559 -0.1838
  747SOL    HW3 2721   1.801   5.273   6.049  0.6658 -0.8760  2.9700
  747SOL    MW4 2722   1.870   5.233   6.016  0.6918 -0.2379  0.0856
  748SOL     OW 2723   3.506   4.561   2.568 -0.6739  0.2634  0.2645
  748SOL    HW2 2724   3.485   4.586   2.657  0.6253  0.5539  0.5062
  748SOL    HW3 2725   3.422   4.560   2.523 -1.3587  0.0096  1.5072
  748SOL    MW4 2726   3.493   4.564   2.574 -0.4904  0.5487  0.0618
  749SOL     OW 2727   1.726   2.745   2.577  0.4415  0.2154  0.1805
  749SOL    HW2 2728   1.771   2.709   2.653  1.3792  0.1986 -0.3721
  749SOL    HW3 2729   1.770   2.707   2.502  0.4510  1.3050 -0.3948
  749SOL    MW4 2730   1.738   2.735   2.577 -0.2980  0.4407  0.0440
  750SOL     OW 2731   0.353   5.011   5.257 -0.1215  0.4698 -0.0081
  750SOL    HW2 2732   0.310   5.091   5.287 -0.5662 -0.0306  0.7130
  750SOL    HW3 2733   0.380   5.031   5.167 -0.5636  1.2966  0.0309
  750SOL    MW4 2734   0.351   5.024   5.249 -0.0826  0.2040 -0.3288
  751SOL     OW 2735   3.475   2.298   4.895 -0.5054 -0.2169  0.1065
  751SOL    HW2 2736   3.443   2.315   4.983 -1.3992  0.9662 -0.4258
  751SOL    HW3 2737   3.432   2.364   4.840  0.4637 -0.5638 -1.1261
  751SOL    MW4 2738   3.465   2.309   4.900  0.0683 -0.5413  0.6213
  752SOL     OW 2739   1.717   5.785   1.531 -0.0085 -0.3552 -0.5729
  752SOL    HW2 2740   1.657   5.778   1.605  0.0594  1.0519 -0.3525
  752SOL    HW3 2741   1.752   5.696   1.519 -0.0762 -0.6197  1.0286
  752SOL    MW4 2742   1.714   5.772   1.539 -0.3611 -0.2518 -0.6878
  753SOL     OW 2743   0.703   2.902   5.427 -0.1877 -0.4935  0.0655
  753SOL    HW2 2744   0.628   2.957   5.404  0.2001  0.2015  0.4470
  753SOL    HW3 2745   0.674   2.813   5.406 -1.1072 -0.2322  0.1733
  753SOL    MW4 2746   0.689   2.897   5.421 -0.2077 -0.0208 -0.1965
  754SOL     OW 2747   0.190   6.148   2.259  0.6698 -0.4081  0.1785
  754SOL    HW2 2748   0.285   6.152   2.264  0.6203 -0.1853  1.0516
  754SOL    HW3 2749   0.167   6.062   2.293  0.6609 -1.3602 -2.0379
  754SOL    MW4 2750   0.199   6.137   2.264 -0.2207  0.0206  0.2834
  755SOL     OW 2751   4.802   1.189   4.791 -0.3262 -0.2700  0.0775
  755SOL    HW2 2752   4.740   1.255   4.759 -0.2218 -0.0615  0.2999
  755SOL    HW3 2753   4.746   1.120   4.827 -0.4332 -0.2196  0.0103
  755SOL    MW4 2754   4.786   1.188   4.792  0.0826  0.1646  0.1656
  756SOL     OW 2755   3.933   2.046   1.474 -0.5887 -0.5126 -0.1873
  756SOL    HW2 2756   3.910   2.059   1.382 -0.6389 -2.2291 -0.4625
  756SOL    HW3 2757   4.020   2.086   1.483 -1.6828  2.0393 -0.2623
  756SOL    MW4 2758   3.942   2.053   1.463 -0.2660  0.0386 -0.2147
  757SOL     OW 2759   1.866   1.788   4.208  0.1872 -0.0273 -0.5725
  757SOL    HW2 2760   1.875   1.831   4.293 -0.1476 -0.6692 -0.2004
  757SOL    HW3 2761   1.779   1.812   4.178 -0.2015 -0.8323 -0.1284
  757SOL    MW4 2762   1.856   1.797   4.215  0.6189  0.3603 -0.2474
  758SOL     OW 2763   1.495   4.121   2.919 -0.2580 -0.0756 -0.0922
  758SOL    HW2 2764   1.480   4.092   2.829  0.8959  1.1552 -0.7240
  758SOL    HW3 2765   1.450   4.205   2.925  1.8770  1.1660 -0.4244
  758SOL    MW4 2766   1.487   4.128   2.908 -0.0686 -0.2262 -0.0868
  759SOL     OW 2767   4.305   5.484   0.954 -0.2640 -0.1202 -0.2349
  759SOL    HW2 2768   4.294   5.502   1.047 -0.1473  0.0305 -0.2510
  759SOL    HW3 2769   4.283   5.566   0.910  1.0874  0.2414 -0.2605
  759SOL    MW4 2770   4.300   5.497   0.960  0.0671  0.0007  0.3985
  760SOL     OW 2771   4.058   2.220   0.149 -0.4047 -0.2351 -0.0309
  760SOL    HW2 2772   4.113   2.209   0.072 -0.3534 -0.7408  0.0736
  760SOL    HW3 2773   4.053   2.314   0.162 -1.7316 -0.0347 -1.6048
  760SOL    MW4 2774   4.064   2.231   0.140 -0.0034 -0.1825  0.1954
  761SOL     OW 2775   3.891   0.560   4.237  0.1717 -0.2334  0.2270
  761SOL    HW2 2776   3.854   0.472   4.246 -0.8178  0.1613  0.1755
  761SOL    HW3 2777   3.965   0.550   4.177  0.8767 -1.2435  1.2303
  761SOL    MW4 2778   3.896   0.547   4.230  0.4382  0.1593  0.3229
  762SOL     OW 2779   3.788   3.701   0.226  0.2373  0.3382  0.4695
  762SOL    HW2 2780   3.717   3.749   0.269  0.2159  0.1756  0.6203
  762SOL    HW3 2781   3.815   3.757   0.154 -0.9024 -0.1512 -0.3767
  762SOL    MW4 2782   3.782   3.715   0.222  0.2151 -0.1415  0.2768
  763SOL     OW 2783   1.055   5.445   2.928  0.0995  0.0168 -0.4352
  763SOL    HW2 2784   0.989   5.379   2.948  0.4359  0.1953  1.4778
  763SOL    HW3 2785   1.004   5.522   2.901 -0.3156 -0.7819 -1.9964
  763SOL    MW4 2786   1.039   5.447   2.927 -0.6538 -0.1649 -0.1156
  764SOL     OW 2787   4.519   2.395   4.192 -0.0594 -0.0625  0.8309
  764SOL    HW2 2788   4.529   2.358   4.280 -0.3791  1.5824  1.5919
  764SOL    HW3 2789   4.432   2.435   4.193 -0.3885 -0.7074 -0.5096
  764SOL    MW4 2790   4.509   2.395   4.204 -0.0919 -0.1169  0.3823
  765SOL     OW 2791   4.795   5.891   3.245  0.5777  0.4760 -0.0221
  765SOL    HW2 2792   4.883   5.880   3.208  1.3768  0.7408  1.7144
  765SOL    HW3 2793   4.777   5.984   3.236  1.3450  0.7979  1.3735
  765SOL    MW4 2794   4.804   5.901   3.239 -0.0167 -0.2832 -0.1460
  766SOL     OW 2795   4.768   4.667   5.896 -0.3467  0.9861  0.0304
  766SOL    HW2 2796   4.713   4.673   5.975  0.0878  1.7963  0.2810
  766SOL    HW3 2797   4.816   4.585   5.907 -0.6787  0.8285  0.3520
  766SOL    MW4 2798   4.767   4.657   5.908 -0.5493 -0.2373  0.2888
  767SOL     OW 2799   5.440   2.796   0.784  0.2963 -0.5311  0.1119
  767SOL    HW2 2800   5.403   2.884   0.794  0.4906 -0.3477 -0.7412
  767SOL    HW3 2801   5.466   2.771   0.873 -0.1933  0.0778  0.4374
  767SOL    MW4 2802   5.438   2.805   0.797  0.9654 -0.4948 -0.6834
  768SOL     OW 2803   1.063   4.612   4.004 -0.0482 -0.1637 -0.6667
  768SOL    HW2 2804   1.010   4.682   4.043 -0.9288 -0.7928 -0.7202
  768SOL    HW3 2805   1.150   4.651   3.996 -0.4083  0.7707 -0.2540
  768SOL    MW4 2806   1.068   4.627   4.008 -0.3586 -0.2640  0.2445
  769SOL     OW 2807   5.965   3.449   2.971 -0.3943  0.5842 -0.0602
  769SOL    HW2 2808   5.932   3.415   2.888 -0.0023  1.3417 -0.5406
  769SOL    HW3 2809   5.902   3.518   2.994  0.9320  2.2021 -1.1019
  769SOL    MW4 2810   5.952   3.454   2.963  0.3282 -0.4837 -0.8813
  770SOL     OW 2811   1.143   3.609   0.585 -0.5702 -0.2375  0.3951
  770SOL    HW2 2812   1.107   3.631   0.499 -1.0116  3.0514  1.2747
  770SOL    HW3 2813   1.235   3.634   0.580 -1.3064  3.5532  1.7341
  770SOL    MW4 2814   1.150   3.615   0.573 -0.3308  0.2194 -0.2513
  771SOL     OW 2815   1.980   0.802   1.212  0.7041 -0.0968  0.4744
  771SOL    HW2 2816   1.997   0.733   1.149  1.5359 -0.4393  1.0569
  771SOL    HW3 2817   1.925   0.761   1.279  0.4911  0.0426  0.3861
  771SOL    MW4 2818   1.975   0.787   1.213 -0.5448  0.2078  0.2815
  772SOL     OW 2819   4.616   6.038   3.560  0.4478  0.0316 -0.2862
  772SOL    HW2 2820   4.585   6.086   3.637 -1.4415 -0.4915 -0.6741
  772SOL    HW3 2821   4.707   6.018   3.579  1.0410  2.8297  0.3615
  772SOL    MW4 2822   4.624   6.042   3.573  0.0374 -0.1196 -0.4499
  773SOL     OW 2823   2.859   1.281   4.708 -0.4508  0.2587 -0.5035
  773SOL    HW2 2824   2.847   1.227   4.630 -0.0413  1.6177 -1.5366
  773SOL    HW3 2825   2.951   1.270   4.730 -0.3484  0.5757 -0.7608
  773SOL    MW4 2826   2.869   1.272   4.701 -0.1896  0.0793  0.2007
  774SOL     OW 2827   1.780   4.101   1.355  0.3806  0.0601 -0.1276
  774SOL    HW2 2828   1.767   4.066   1.267  1.8570 -0.5263 -0.1438
  774SOL    HW3 2829   1.800   4.194   1.341  0.9401 -0.1037 -0.4445
  774SOL    MW4 2830   1.781   4.109   1.341  0.7112  0.0436 -0.4008
  775SOL     OW 2831   2.993   1.110   2.242  0.0302  0.4906 -0.0778
  775SOL    HW2 2832   3.070   1.086   2.191  0.7741 -0.1471  1.2846
  775SOL    HW3 2833   3.022   1.183   2.297 -1.1980  2.2357 -1.6154
  775SOL    MW4 2834   3.007   1.117   2.242  0.2094  0.5052 -0.4720
  776SOL     OW 2835   0.771   0.905   5.996 -0.3174  0.1579  0.1325
  776SOL    HW2 2836   0.778   0.811   5.978 -1.6071  0.1787 -0.6345
  776SOL    HW3 2837   0.742   0.910   6.087  1.6911 -0.1046  0.8232
  776SOL    MW4 2838   0.768   0.893   6.005  0.0333 -0.0268 -0.0170
  777SOL     OW 2839   3.197   5.921   1.527 -0.0629  0.2318  0.2121
  777SOL    HW2 2840   3.180   5.834   1.494  0.7045  1.0930 -2.7166
  777SOL    HW3 2841   3.150   5.925   1.611 -3.0421 -1.8035 -1.1955
  777SOL    MW4 2842   3.189   5.910   1.534 -0.0583  0.0626  0.2676
  778SOL     OW 2843   5.732   1.746   5.091 -0.6128 -0.5667 -0.4254
  778SOL    HW2 2844   5.826   1.762   5.075 -0.3656 -0.7130  0.7988
  778SOL    HW3 2845   5.719   1.654   5.066 -0.0774 -1.0024  0.8196
  778SOL    MW4 2846   5.743   1.736   5.085  0.2191 -0.7366 -0.5624
  779SOL     OW 2847   4.143   0.384   4.475  0.0204 -0.0356 -0.5960
  779SOL    HW2 2848   4.214   0.337   4.519 -0.2434  0.6418  0.6232
  779SOL    HW3 2849   4.087   0.414   4.547 -1.1179  0.0474 -1.4935
  779SOL    MW4 2850   4.145   0.382   4.491  0.4789  0.3030 -0.2297
  780SOL     OW 2851   1.622   5.558   5.666 -0.1245 -0.2072 -0.1181
  780SOL    HW2 2852   1.628   5.556   5.762 -0.0928 -1.5435 -0.1191
  780SOL    HW3 2853   1.704   5.598   5.637 -0.7716  1.6088  0.4296
  780SOL    MW4 2854   1.634   5.563   5.675  0.2114 -0.0173  0.7761
  781SOL     OW 2855   5.810   0.469   2.068  0.3996 -0.0627 -0.0696
  781SOL    HW2 2856   5.795   0.511   1.983 -0.1577  0.1429  0.1257
  781SOL    HW3 2857   5.900   0.436   2.063 -0.0282 -1.1414 -1.2104
  781SOL    MW4 2858   5.820   0.470   2.056  0.0300  0.2145 -0.0654
  782SOL     OW 2859   0.599   4.316   3.063 -0.3260  0.0816  0.1520
  782SOL    HW2 2860   0.678   4.313   3.010 -1.2941  2.0956 -1.6006
  782SOL    HW3 2861   0.567   4.226   3.064  1.8570 -0.7494  0.8040
  782SOL    MW4 2862   0.605   4.304   3.056 -0.0358 -0.4829 -0.2285
  783SOL     OW 2863   0.451   1.996   1.882  0.5860 -0.1369  0.6076
  783SOL    HW2 2864   0.405   2.079   1.874 -0.4303 -0.7920 -0.5775
  783SOL    HW3 2865   0.481   1.994   1.973  0.7818  1.5860  0.6164
  783SOL    MW4 2866   0.449   2.007   1.893 -0.3281 -0.5505 -0.1776
  784SOL     OW 2867   4.117   2.960   0.289  0.1631  0.2597  0.1965
  784SOL    HW2 2868   4.098   2.875   0.249 -1.5008  0.4031  0.5842
  784SOL    HW3 2869   4.211   2.972   0.276 -0.0816 -0.1482 -2.7379
  784SOL    MW4 2870   4.127   2.950   0.282 -0.1183 -0.0070 -0.5383
  785SOL     OW 2871   1.650   2.412   4.588 -0.3820  0.1401 -0.1436
  785SOL    HW2 2872   1.626   2.486   4.645 -1.9048 -0.4384  0.0047
  785SOL    HW3 2873   1.570   2.391   4.541  0.1562 -1.1196 -0.5401
  785SOL    MW4 2874   1.637   2.419   4.589  0.6045 -0.3378  0.0819
  786SOL     OW 2875   6.098   3.797   0.297  0.4334  0.8229 -0.3835
  786SOL    HW2 2876   6.174   3.746   0.269 -0.5944 -0.5634 -0.7357
  786SOL    HW3 2877   6.032   3.783   0.229 -0.2617  1.7572  0.0647
  786SOL    MW4 2878   6.099   3.789   0.285  0.4923  0.1686  0.3139
  787SOL     OW 2879   5.328   1.540   0.049 -0.2822  0.4695 -0.1335
  787SOL    HW2 2880   5.271   1.496  -0.013  0.9995  0.1540 -1.1283
  787SOL    HW3 2881   5.408   1.558   0.000  1.3715 -1.1141  1.7933
  787SOL    MW4 2882   5.331   1.537   0.034 -0.9035 -0.1205 -0.0845
  788SOL     OW 2883   1.593   0.305   0.894  0.0893  0.0187 -0.0784
  788SOL    HW2 2884   1.498   0.289   0.902  0.0630 -0.1339 -0.6601
  788SOL    HW3 2885   1.631   0.255   0.967 -0.3932  1.3886  1.1609
  788SOL    MW4 2886   1.585   0.296   0.905 -0.0466 -0.9265  0.0548
  789SOL     OW 2887   0.528   0.734   1.065  0.1235  0.5395  0.1681
  789SOL    HW2 2888   0.499   0.664   1.007 -4.0053  1.8025  0.3870
  789SOL    HW3 2889   0.607   0.700   1.106 -0.0166 -2.7209 -1.9093
  789SOL    MW4 2890   0.535   0.720   1.062  0.0996 -0.3699  0.1887
  790SOL     OW 2891   4.981   4.741   2.521  0.4645 -0.7323 -0.3567
  790SOL    HW2 2892   5.050   4.691   2.565 -0.2527 -0.1110  1.5975
  790SOL    HW3 2893   4.973   4.821   2.573  0.8492  0.9628 -2.7833
  790SOL    MW4 2894   4.989   4.745   2.534  0.1693  0.4778  0.0378
  791SOL     OW 2895   5.846   5.194   3.411  0.0062  0.8300  0.2374
  791SOL    HW2 2896   5.882   5.107   3.395  3.3024  2.3178 -1.3385
  791SOL    HW3 2897   5.778   5.204   3.344  0.1930 -0.1896 -0.1345
  791SOL    MW4 2898   5.842   5.184   3.400 -0.3423  0.0004  0.2453
  792SOL     OW 2899   2.975   1.956   1.762  0.1238  0.0486  0.4575
  792SOL    HW2 2900   3.022   1.876   1.784 -0.7813 -0.9306 -1.0261
  792SOL    HW3 2901   3.025   1.995   1.690 -0.0591  0.2246  0.4229
  792SOL    MW4 2902   2.988   1.951   1.756  0.7016  0.8927 -0.0842
  793SOL     OW 2903   0.350   0.041   4.510 -0.3281 -0.3249  0.2371
  793SOL    HW2 2904   0.264   0.000   4.520 -0.5505  0.2630  0.8061
  793SOL    HW3 2905   0.342   0.093   4.429 -0.2146 -0.9638 -0.1942
  793SOL    MW4 2906   0.337   0.043   4.500  0.0169  0.1022  0.6033
  794SOL     OW 2907   4.982   4.495   3.504 -0.5400  0.2815  0.3632
  794SOL    HW2 2908   5.022   4.426   3.451 -1.2515  0.2893 -0.2022
  794SOL    HW3 2909   5.008   4.577   3.462  1.0278  0.4380  1.5330
  794SOL    MW4 2910   4.991   4.497   3.492 -0.2090 -0.8091  0.0787
  795SOL     OW 2911   6.009   2.671   1.915  0.2883 -0.3005  0.1194
  795SOL    HW2 2912   5.924   2.685   1.957 -0.3105  1.8114 -1.5944
  795SOL    HW3 2913   6.002   2.719   1.833  2.8619 -0.8168 -0.4573
  795SOL    MW4 2914   5.997   2.679   1.910  0.4336 -0.5279  0.1305
  796SOL     OW 2915   6.304   6.066   3.945  0.4840 -0.1984  0.5367
  796SOL    HW2 2916   6.292   6.161   3.943  2.3778  0.0648 -0.0177
  796SOL    HW3 2917   6.384   6.053   3.996  0.1532 -1.5295  0.7622
  796SOL    MW4 2918   6.313   6.077   3.952 -0.3449  0.1559  0.0008
  797SOL     OW 2919   1.118   2.314   3.296 -0.0879 -0.0755 -0.7309
  797SOL    HW2 2920   1.080   2.387   3.248  1.4160  0.5316 -1.0453
  797SOL    HW3 2921   1.111   2.340   3.388 -1.8220 -0.6903 -0.6341
  797SOL    MW4 2922   1.112   2.327   3.302 -0.1095  0.2953 -0.0119
  798SOL     OW 2923   5.672   5.124   3.159  0.0912  0.3665 -0.0787
  798SOL    HW2 2924   5.643   5.041   3.122 -0.3142  0.3050  0.3611
  798SOL    HW3 2925   5.594   5.180   3.155  0.7324  1.2380 -1.7619
  798SOL    MW4 2926   5.658   5.121   3.153  0.3456 -0.5901  0.3879
  799SOL     OW 2927   1.791   2.753   2.996 -0.1373 -0.0326 -0.3262
  799SOL    HW2 2928   1.740   2.822   3.039 -0.0207  0.0653 -0.3435
  799SOL    HW3 2929   1.726   2.704   2.946 -0.5137 -1.0630  1.1072
  799SOL    MW4 2930   1.776   2.756   2.995  0.3348 -0.4232 -0.3607
  800SOL     OW 2931   2.443   4.580   6.295  0.0226  0.5142 -0.0771
  800SOL    HW2 2932   2.421   4.666   6.330  2.6022  1.6747 -0.9911
  800SOL    HW3 2933   2.489   4.536   6.367  1.5501  1.2326 -0.5593
  800SOL    MW4 2934   2.446   4.585   6.309  0.1228  0.5986  0.4317
  801SOL     OW 2935   0.878   3.995   3.610 -0.3344  0.5455 -0.5415
  801SOL    HW2 2936   0.918   4.073   3.573 -0.9178  1.7958  1.3080
  801SOL    HW3 2937   0.947   3.956   3.664 -0.1956  0.0517 -1.0701
  801SOL    MW4 2938   0.892   4.000   3.612 -0.3973  0.3371 -0.1805
  802SOL     OW 2939   1.324   3.503   1.162 -0.7142 -0.3007 -0.1788
  802SOL    HW2 2940   1.269   3.555   1.104 -0.0063  0.8989  0.2020
  802SOL    HW3 2941   1.284   3.513   1.248 -0.9202 -0.8964 -0.1969
  802SOL    MW4 2942   1.311   3.511   1.166 -0.5628 -0.4586 -0.3283
  803SOL     OW 2943   1.393   2.095   3.708 -0.2639 -0.5225  0.2032
  803SOL    HW2 2944   1.476   2.071   3.667 -0.8943  1.0323 -2.2271
  803SOL    HW3 2945   1.334   2.022   3.689 -0.0778 -0.5699 -0.1994
  803SOL    MW4 2946   1.396   2.082   3.700 -0.1064 -0.0495 -0.0974
  804SOL     OW 2947   6.431   4.859   3.829  0.1096 -0.1544  0.0943
  804SOL    HW2 2948   6.517   4.897   3.847  0.5059 -0.2783 -1.4030
  804SOL    HW3 2949   6.442   4.813   3.746 -1.0254 -1.4071  0.5912
  804SOL    MW4 2950   6.444   4.858   3.820  0.0245  0.0639  0.1208
  805SOL     OW 2951   0.171   5.454   0.112  0.3770  0.1897 -0.6187
  805SOL    HW2 2952   0.184   5.389   0.181 -3.1225  1.9188  1.9963
  805SOL    HW3 2953   0.202   5.536   0.150  0.0787  0.8961 -1.8555
  805SOL    MW4 2954   0.177   5.456   0.126  0.2562  0.0444  0.0369
  806SOL     OW 2955   5.520   5.699  -0.022 -0.2526  0.2473 -0.0834
  806SOL    HW2 2956   5.455   5.630  -0.039 -0.9248  1.0319 -0.8016
  806SOL    HW3 2957   5.482   5.778  -0.061  0.2912  1.1353  1.1193
  806SOL    MW4 2958   5.506   5.700  -0.030 -0.5041 -0.2957  0.4762
  807SOL     OW 2959   0.983   0.819   1.572 -0.1738 -0.5595 -0.6800
  807SOL    HW2 2960   1.041   0.743   1.567  1.9735  0.9468 -0.1215
  807SOL    HW3 2961   0.954   0.821   1.663 -1.2168 -1.3467 -0.9728
  807SOL    MW4 2962   0.987   0.809   1.583 -0.2263  0.4944 -0.0594
  808SOL     OW 2963   5.507   0.531   4.390 -0.4345  0.0397 -1.2671
  808SOL    HW2 2964   5.430   0.543   4.446  0.6209  0.2796  0.1686
  808SOL    HW3 2965   5.499   0.441   4.358 -0.0404 -0.8337  0.9145
  808SOL    MW4 2966   5.496   0.521   4.393 -0.2560 -0.2427  0.1566
  809SOL     OW 2967   4.831   4.680   1.771 -0.1497  0.0962 -0.2159
  809SOL    HW2 2968   4.749   4.641   1.739  0.2073 -0.5031 -0.4306
  809SOL    HW3 2969   4.840   4.647   1.860  0.5681 -1.0139 -0.6752
  809SOL    MW4 2970   4.821   4.671   1.778 -0.1748 -0.0227  0.5754
  810SOL     OW 2971   3.604   4.790   4.083 -0.3491 -0.5888 -0.0235
  810SOL    HW2 2972   3.692   4.827   4.077  0.3663 -2.1429  0.4324
  810SOL    HW3 2973   3.572   4.817   4.169 -0.9690  1.2436 -0.7634
  810SOL    MW4 2974   3.611   4.799   4.093 -0.0382  0.4166 -0.2912
  811SOL     OW 2975   2.336   3.774   0.385 -0.2661 -0.7832 -0.6675
  811SOL    HW2 2976   2.301   3.688   0.406 -4.0897  0.4945 -0.9629
  811SOL    HW3 2977   2.322   3.826   0.464  2.4003 -0.4247 -0.3290
  811SOL    MW4 2978   2.330   3.770   0.398  0.6554  0.1443  0.2875
  812SOL     OW 2979   0.052   5.953   6.349  0.5864 -0.6932 -0.2744
  812SOL    HW2 2980  -0.004   6.004   6.289  0.0234  1.3919  1.8396
  812SOL    HW3 2981   0.136   5.948   6.305  0.0283  0.2369 -1.5183
  812SOL    MW4 2982   0.055   5.959   6.335 -0.5152 -0.3274 -0.5651
  813SOL     OW 2983   4.184   2.317   3.085  0.2181  0.4418 -0.0297
  813SOL    HW2 2984   4.142   2.395   3.050 -0.6658  0.8276  1.7896
  813SOL    HW3 2985   4.135   2.244   3.047 -0.7438  0.8444  0.4253
  813SOL    MW4 2986   4.172   2.317   3.075 -0.4086  0.0559 -0.5694
  814SOL     OW 2987   2.855   0.764   5.541  0.0638  0.0706 -0.1861
  814SOL    HW2 2988   2.803   0.708   5.599 -1.4224  1.2759 -0.2707
  814SOL    HW3 2989   2.902   0.704   5.485 -1.0383 -1.0999  0.1011
  814SOL    MW4 2990   2.854   0.749   5.541 -0.0146 -0.0570 -0.5371
  815SOL     OW 2991   0.450   1.261   2.491 -0.2422 -0.1777 -0.4342
  815SOL    HW2 2992   0.533   1.298   2.523 -0.2151 -1.9522  1.7957
  815SOL    HW3 2993   0.385   1.289   2.555 -0.9525 -0.6744 -0.9282
  815SOL    MW4 2994   0.453   1.270   2.504 -0.0952  0.5599  0.2896
  816SOL     OW 2995   2.188   3.320   2.329  0.1456 -0.3635  0.3200
  816SOL    HW2 2996   2.186   3.370   2.410  0.7137  1.7465 -0.8797
  816SOL    HW3 2997   2.100   3.284   2.320 -0.3802  0.6747  1.1097
  816SOL    MW4 2998   2.176   3.321   2.338  0.5214  0.0148 -0.2854
  817SOL     OW 2999   2.817   2.500   4.023 -0.2570  0.1035 -0.3536
  817SOL    HW2 3000   2.744   2.551   3.988  0.0934 -0.5994 -2.2232
  817SOL    HW3 3001   2.895   2.550   3.999 -0.0546  0.6365  1.2672
  817SOL    MW4 3002   2.818   2.514   4.015 -0.0817  0.4107 -0.1947
  818SOL     OW 3003   5.381   3.150   2.841  0.9645 -0.5225  0.7682
  818SOL    HW2 3004   5.332   3.157   2.922  1.2769  1.8798  0.8176
  818SOL    HW3 3005   5.329   3.197   2.776  2.2611  0.5025  0.4066
  818SOL    MW4 3006   5.368   3.157   2.843  0.1510  0.1240 -0.6084
  819SOL     OW 3007   5.403   2.208   1.447  0.8194  0.5373 -0.1270
  819SOL    HW2 3008   5.334   2.147   1.470  0.8472  0.6656  0.3001
  819SOL    HW3 3009   5.467   2.155   1.400  0.2898  0.4802 -0.8077
  819SOL    MW4 3010   5.402   2.193   1.444 -0.0927 -0.1466 -0.2619
  820SOL     OW 3011   0.675   6.236   2.538 -0.0130 -0.0997 -0.3535
  820SOL    HW2 3012   0.711   6.262   2.453 -0.9175 -0.0385 -0.7296
  820SOL    HW3 3013   0.711   6.149   2.553 -0.5500 -0.4885 -1.2327
  820SOL    MW4 3014   0.684   6.228   2.529 -0.1569  0.1322  0.0121
  821SOL     OW 3015   5.135   0.320   1.820 -0.0642  0.1999 -0.3728
  821SOL    HW2 3016   5.092   0.260   1.882 -1.1791  0.2883 -1.0300
  821SOL    HW3 3017   5.154   0.398   1.871 -1.7659  0.6149 -0.3147
  821SOL    MW4 3018   5.132   0.322   1.835  0.1253  0.8751 -0.3629
  822SOL     OW 3019   0.036   2.165   5.161 -0.0938 -0.0396 -0.1620
  822SOL    HW2 3020   0.128   2.146   5.180  0.0219  0.7411  0.1395
  822SOL    HW3 3021  -0.013   2.100   5.211  0.2762  0.5084  0.9750
  822SOL    MW4 3022   0.042   2.154   5.170  0.1071  0.1053  0.3532
  823SOL     OW 3023   3.801   4.359   4.856  0.1011 -0.0748 -0.3720
  823SOL    HW2 3024   3.726   4.415   4.838 -0.4514 -0.9189 -0.7538
  823SOL    HW3 3025   3.871   4.419   4.881 -0.2677  0.8406 -1.4818
  823SOL    MW4 3026   3.800   4.374   4.857  0.2727  0.4006  0.3806
  824SOL     OW 3027   2.260   3.129   1.037  0.1582 -0.5437 -0.1900
  824SOL    HW2 3028   2.242   3.181   1.116 -0.0089 -0.3288 -0.3678
  824SOL    HW3 3029   2.299   3.048   1.070 -0.7495 -0.8443  0.1730
  824SOL    MW4 3030   2.263   3.125   1.052 -0.8770 -0.6616  0.2581
  825SOL     OW 3031   3.024   4.372   6.043  0.3214  0.0441 -0.1305
  825SOL    HW2 3032   3.038   4.456   6.000  1.1838 -0.1391 -0.2332
  825SOL    HW3 3033   2.964   4.391   6.115  1.5140  0.9875  0.6377
  825SOL    MW4 3034   3.018   4.386   6.047 -0.5894  0.3698 -0.0459
  826SOL     OW 3035   2.540   2.033   1.300 -0.2104  0.0653 -0.0875
  826SOL    HW2 3036   2.602   1.969   1.265 -2.8266 -0.6253 -4.1875
  826SOL    HW3 3037   2.575   2.118   1.274  0.0581 -0.1712 -0.5055
  826SOL    MW4 3038   2.553   2.036   1.292  0.4737 -0.2362  0.2320
  827SOL     OW 3039   5.190   1.025   5.461 -0.3398 -0.8202 -0.0374
  827SOL    HW2 3040   5.250   1.063   5.397 -1.7699  1.1759 -0.2616
  827SOL    HW3 3041   5.208   1.072   5.542 -2.9283  1.3351 -0.5953
  827SOL    MW4 3042   5.201   1.036   5.464 -0.2119  0.3703 -0.2794
  828SOL     OW 3043   0.584   4.351   4.521 -0.0039 -0.2958 -1.1422
  828SOL    HW2 3044   0.679   4.360   4.532 -0.0620  0.2260 -1.0710
  828SOL    HW3 3045   0.549   4.355   4.610  0.0032 -1.7489 -1.0463
  828SOL    MW4 3046   0.592   4.353   4.534 -0.2085  0.2290 -0.5055
  829SOL     OW 3047   5.866   6.188   0.023 -0.5872 -0.1030  0.3577
  829SOL    HW2 3048   5.959   6.168   0.032 -0.5042  0.2625  0.3154
  829SOL    HW3 3049   5.837   6.131  -0.049 -0.0277  0.9443 -0.7384
  829SOL    MW4 3050   5.875   6.178   0.015  0.6953  0.4476 -0.6942
  830SOL     OW 3051   0.273   0.607   0.739 -0.6019 -0.1214 -0.0864
  830SOL    HW2 3052   0.195   0.564   0.775 -0.8109  0.4359  0.1360
  830SOL    HW3 3053   0.240   0.685   0.695  0.0094  1.4322  2.0526
  830SOL    MW4 3054   0.259   0.611   0.738 -0.0652 -0.1541  0.3570
  831SOL     OW 3055   4.694   1.076   0.712 -0.3438 -0.0647  0.5964
  831SOL    HW2 3056   4.761   1.014   0.684  1.8434  0.3113  4.3337
  831SOL    HW3 3057   4.719   1.159   0.670  0.8454 -0.2001  1.0086
  831SOL    MW4 3058   4.706   1.079   0.703 -0.0025 -0.3582 -0.0288
  832SOL     OW 3059   2.401   4.355   2.345  0.3111 -0.0109  0.2527
  832SOL    HW2 3060   2.307   4.360   2.362 -0.3567 -1.1174 -2.6550
  832SOL    HW3 3061   2.418   4.426   2.283  0.8511 -1.4296 -1.2685
  832SOL    MW4 3062   2.391   4.365   2.339  0.1376 -0.2866  0.2013
  833SOL     OW 3063   4.771   4.912   6.395 -0.1054  0.5728  0.1449
  833SOL    HW2 3064   4.688   4.876   6.365 -0.7729  1.0974  1.3139
  833SOL    HW3 3065   4.779   4.996   6.351  1.1437 -0.6038 -2.0787
  833SOL    MW4 3066   4.761   4.918   6.385  0.2682  0.1710 -0.7212
  834SOL     OW 3067   5.897   4.034   1.778  0.2807 -0.3272  0.4550
  834SOL    HW2 3068   5.957   3.981   1.726 -0.1918 -1.0759  0.6710
  834SOL    HW3 3069   5.898   3.994   1.865  0.0467  0.1167  0.6647
  834SOL    MW4 3070   5.905   4.022   1.783  0.0974  0.6548  0.0455
  835SOL     OW 3071   0.220   3.186   4.751  0.3837  0.0342 -0.1975
  835SOL    HW2 3072   0.201   3.174   4.844  2.3716 -1.2693  0.1042
  835SOL    HW3 3073   0.304   3.231   4.749  0.0892  0.5616 -1.3815
  835SOL    MW4 3074   0.229   3.190   4.763  0.2308  0.0619  0.3984
  836SOL     OW 3075   1.919   4.142   5.481 -0.4958 -0.1334  0.4416
  836SOL    HW2 3076   1.883   4.132   5.569  0.1454 -0.9540  0.6186
  836SOL    HW3 3077   1.858   4.201   5.437 -0.5833  0.6469  1.5672
  836SOL    MW4 3078   1.906   4.149   5.487 -0.2893 -0.0529 -0.2197
  837SOL     OW 3079   2.484   0.164   2.918 -0.4924  0.5724 -0.1665
  837SOL    HW2 3080   2.413   0.102   2.940  0.1077 -0.0032  0.1846
  837SOL    HW3 3081   2.537   0.117   2.854 -0.1312  0.8013 -0.0346
  837SOL    MW4 3082   2.481   0.149   2.913  0.4458  0.2522 -0.2823
  838SOL     OW 3083   3.267   0.234   5.018  0.4219  0.2011  0.4751
  838SOL    HW2 3084   3.209   0.213   5.091  0.3356  2.0425  0.9761
  838SOL    HW3 3085   3.229   0.313   4.979  0.0781 -1.1024 -2.0191
  838SOL    MW4 3086   3.255   0.242   5.022  0.5588  0.0142  0.3675
  839SOL     OW 3087   1.023   0.107   1.873  0.3839  0.1886  0.4446
  839SOL    HW2 3088   0.986   0.184   1.830  0.7491 -0.3304 -0.8256
  839SOL    HW3 3089   0.989   0.033   1.823  1.1706 -0.4100  0.7747
  839SOL    MW4 3090   1.013   0.108   1.861 -0.4351  0.4366 -0.4342
  840SOL     OW 3091   4.622   3.140   2.771 -0.3360 -0.1183 -0.3737
  840SOL    HW2 3092   4.617   3.121   2.865  1.2680 -1.1963 -0.4532
  840SOL    HW3 3093   4.532   3.140   2.741 -0.8630  0.1130  1.1471
  840SOL    MW4 3094   4.610   3.138   2.779  0.2143 -0.5141  0.4371
  841SOL     OW 3095   0.098   2.643   0.122 -0.1605  0.0934 -0.2481
  841SOL    HW2 3096   0.044   2.637   0.043 -2.1670 -0.6402  1.1181
  841SOL    HW3 3097   0.037   2.669   0.191  1.6327  1.1977  1.0105
  841SOL    MW4 3098   0.083   2.646   0.120  0.2566 -0.2798  0.5035
  842SOL     OW 3099   5.323   1.660   3.933  0.4681 -0.0541  0.1015
  842SOL    HW2 3100   5.383   1.585   3.933  0.4727 -0.0505  0.7301
  842SOL    HW3 3101   5.332   1.697   3.845  2.4108  0.7625  0.5888
  842SOL    MW4 3102   5.332   1.655   3.921 -0.1520  0.1143 -0.1152
  843SOL     OW 3103   2.515   4.989   4.616 -0.6250  0.2574  0.4402
  843SOL    HW2 3104   2.591   5.047   4.612 -0.4391  0.0893  1.3538
  843SOL    HW3 3105   2.514   4.957   4.706 -0.4349 -1.5725 -0.1726
  843SOL    MW4 3106   2.525   4.992   4.628 -0.9386 -0.8732 -0.0916
  844SOL     OW 3107   6.039   2.735   1.069 -0.0807 -0.0864  0.1248
  844SOL    HW2 3108   6.016   2.815   1.022 -0.5098 -1.3140 -1.9130
  844SOL    HW3 3109   6.112   2.698   1.019 -0.1608 -1.1544  0.7639
  844SOL    MW4 3110   6.046   2.740   1.056 -0.6536  0.0532  0.1981
  845SOL     OW 3111   2.096   6.417   4.244 -0.9167  0.4065 -0.4099
  845SOL    HW2 3112   2.152   6.362   4.189 -0.3248  0.4301  0.1492
  845SOL    HW3 3113   2.032   6.356   4.280  0.9924 -0.4198  1.8832
  845SOL    MW4 3114   2.095   6.402   4.242  0.4151  0.0905 -1.0092
  846SOL     OW 3115   0.648   3.561   3.004 -0.2559 -0.2222  0.4705
  846SOL    HW2 3116   0.639   3.591   3.095 -0.9510  0.6388  0.1303
  846SOL    HW3 3117   0.559   3.538   2.977 -0.4197  1.4563 -0.6135
  846SOL    MW4 3118   0.635   3.562   3.012 -0.8401 -0.0419 -0.1888
  847SOL     OW 3119   0.756   0.248   1.728  0.2182  0.3814  0.1953
  847SOL    HW2 3120   0.744   0.320   1.790 -0.6819 -0.4827  1.0539
  847SOL    HW3 3121   0.737   0.169   1.779  1.0642 -0.4687 -0.7580
  847SOL    MW4 3122   0.752   0.247   1.743  0.1799  0.2693  0.0458
  848SOL     OW 3123   4.981   1.594   2.493  0.0322 -0.2314  0.0748
  848SOL    HW2 3124   4.984   1.562   2.584  1.3374 -0.3767 -0.0046
  848SOL    HW3 3125   4.908   1.546   2.454  0.0557 -0.8708  0.7867
  848SOL    MW4 3126   4.972   1.584   2.500 -0.3578  0.4643  0.1576
  849SOL     OW 3127   5.218   2.755   5.520  0.6262  0.0691  0.1233
  849SOL    HW2 3128   5.289   2.818   5.534 -0.5478  2.0513 -2.2218
  849SOL    HW3 3129   5.176   2.747   5.606  1.5148  1.6159  0.7397
  849SOL    MW4 3130   5.222   2.762   5.534 -0.3158  0.1612  0.2354
  850SOL     OW 3131   6.320   1.152   0.022  0.1492 -0.3014 -0.3697
  850SOL    HW2 3132   6.352   1.118  -0.062 -0.6419 -1.3320 -0.2743
  850SOL    HW3 3133   6.260   1.085   0.053 -0.3504  0.5480  0.5410
  850SOL    MW4 3134   6.317   1.139   0.015  0.2690  0.4481  0.6826
  851SOL     OW 3135   2.434   1.752   1.664  0.0433  0.9301 -0.4868
  851SOL    HW2 3136   2.494   1.825   1.652 -0.2583  1.4205  0.8453
  851SOL    HW3 3137   2.489   1.682   1.700 -0.0334  1.1298  0.0221
  851SOL    MW4 3138   2.449   1.752   1.667 -0.7309  0.0337 -0.4876
  852SOL     OW 3139   3.692   5.572  -0.008 -0.1153 -0.3560  0.3648
  852SOL    HW2 3140   3.730   5.484  -0.010 -2.3663 -1.3817 -0.8644
  852SOL    HW3 3141   3.705   5.606  -0.096 -2.3207 -0.9122 -0.2198
  852SOL    MW4 3142   3.699   5.565  -0.020 -0.3585 -0.4930  0.1513
  853SOL     OW 3143   3.257   2.554   1.317 -0.1829 -0.3728  0.0909
  853SOL    HW2 3144   3.303   2.620   1.368  0.1465  0.2973 -1.0218
  853SOL    HW3 3145   3.197   2.513   1.379 -1.2076  1.7352  0.6065
  853SOL    MW4 3146   3.255   2.558   1.332 -0.8405  0.3990 -0.0502
  854SOL     OW 3147   0.225   6.263   4.258 -0.3586  0.4886 -0.0039
  854SOL    HW2 3148   0.190   6.268   4.347 -1.3602 -3.8051  0.0968
  854SOL    HW3 3149   0.315   6.233   4.269 -1.2405 -2.5940 -0.2885
  854SOL    MW4 3150   0.232   6.260   4.271  0.4979  0.6757 -0.0274
  855SOL     OW 3151   2.037   1.863   0.940 -0.1175 -0.7009  0.4352
  855SOL    HW2 3152   1.944   1.883   0.934 -0.1498 -1.1242 -1.2098
  855SOL    HW3 3153   2.055   1.857   1.034 -1.3037  1.2806  0.8367
  855SOL    MW4 3154   2.027   1.865   0.951 -0.3742 -0.4389 -0.3429
  856SOL     OW 3155   1.010   1.100   6.028  0.6821  0.1040  0.0451
  856SOL    HW2 3156   0.944   1.030   6.020 -0.5911  1.4346 -1.8738
  856SOL    HW3 3157   0.963   1.171   6.072  1.6376  0.2138  0.9385
  856SOL    MW4 3158   0.995   1.100   6.033  0.5408 -0.7307  0.3211
  857SOL     OW 3159   2.049   4.853   5.038  0.0343 -0.1260 -0.0706
  857SOL    HW2 3160   2.050   4.901   4.955 -1.2987 -0.7677 -0.4853
  857SOL    HW3 3161   2.087   4.768   5.016 -0.4248 -0.3363 -0.0555
  857SOL    MW4 3162   2.054   4.848   5.024  0.0927  0.0508  0.5682
  858SOL     OW 3163   5.223   0.711   1.755  0.4208  0.2868  0.7738
  858SOL    HW2 3164   5.271   0.686   1.834  1.5052  1.7307  0.6184
  858SOL    HW3 3165   5.263   0.660   1.685 -0.8904 -1.3939  1.1747
  858SOL    MW4 3166   5.235   0.701   1.756  0.0912 -0.1375  0.0106
  859SOL     OW 3167   2.330   5.922   4.686  0.3059 -0.5323  0.1301
  859SOL    HW2 3168   2.387   5.853   4.720  0.3198 -0.0270  1.1643
  859SOL    HW3 3169   2.325   5.986   4.757 -0.6833 -0.0524 -0.3517
  859SOL    MW4 3170   2.337   5.921   4.700 -0.1583  0.1197  0.4307
  860SOL     OW 3171   1.307   1.346   1.033 -0.0002 -0.1067 -0.0276
  860SOL    HW2 3172   1.289   1.252   1.040  1.2125 -0.3809 -0.3380
  860SOL    HW3 3173   1.402   1.351   1.019  0.1155  1.2160  1.0273
  860SOL    MW4 3174   1.317   1.334   1.032 -0.5307 -0.7725  0.5662
  861SOL     OW 3175   3.117   0.026   0.536 -0.3490  0.3295 -0.2022
  861SOL    HW2 3176   3.193   0.032   0.478  1.0206 -1.7055  1.2516
  861SOL    HW3 3177   3.154   0.019   0.624 -2.3256  1.8129  0.8303
  861SOL    MW4 3178   3.132   0.026   0.540  0.1260 -0.5513  0.4597
  862SOL     OW 3179   0.511   3.486   5.507 -0.2967  0.3688  0.0364
  862SOL    HW2 3180   0.589   3.511   5.557 -0.1695 -1.8798  1.0641
  862SOL    HW3 3181   0.535   3.403   5.465 -2.3062 -0.6944  0.8597
  862SOL    MW4 3182   0.524   3.478   5.508  0.8543 -0.6972  0.7986
  863SOL     OW 3183   3.582   2.805   4.883 -0.6930 -0.0552  0.5517
  863SOL    HW2 3184   3.627   2.754   4.815 -0.9871  0.4004  0.0075
  863SOL    HW3 3185   3.568   2.743   4.954 -0.2154 -0.4956  0.2695
  863SOL    MW4 3186   3.586   2.790   4.883  0.4562  0.3946  0.3605
  864SOL     OW 3187   5.201   0.626   6.221  0.1768 -0.5084  0.5888
  864SOL    HW2 3188   5.244   0.607   6.138  2.5985 -1.0745  1.8780
  864SOL    HW3 3189   5.216   0.720   6.235  1.3851 -0.7654  1.1842
  864SOL    MW4 3190   5.209   0.636   6.212  0.1761  0.3695  0.2077
  865SOL     OW 3191   6.052   5.951   2.500  0.1301  0.3596  0.5773
  865SOL    HW2 3192   5.996   5.880   2.532  1.2496 -0.4024  0.9220
  865SOL    HW3 3193   6.040   5.950   2.405 -0.2798  0.0674  0.6313
  865SOL    MW4 3194   6.043   5.941   2.492  0.3113 -0.4041  0.3512
  866SOL     OW 3195   1.528   0.489   4.033  0.4468 -0.3196  0.0830
  866SOL    HW2 3196   1.562   0.543   3.962 -1.2302  2.3297  1.1649
  866SOL    HW3 3197   1.594   0.496   4.102  0.2678  0.2590  0.1917
  866SOL    MW4 3198   1.542   0.497   4.033  0.3339 -0.6556  0.4451
  867SOL     OW 3199   4.494   1.890   2.102 -0.1019 -0.3578  0.1307
  867SOL    HW2 3200   4.565   1.827   2.105  0.5954  0.4301  0.7653
  867SOL    HW3 3201   4.457   1.888   2.190  0.5945  0.8330  0.4808
  867SOL    MW4 3202   4.498   1.882   2.114  0.1484 -0.4477 -0.4081
  868SOL     OW 3203   4.057   0.845   5.137  0.5324  0.0618  0.2188
  868SOL    HW2 3204   4.092   0.847   5.227  0.5730 -1.1397  0.2495
  868SOL    HW3 3205   3.978   0.791   5.144  0.5051  0.0124 -0.4537
  868SOL    MW4 3206   4.051   0.838   5.150  0.2923  0.2634 -0.2377
  869SOL     OW 3207   5.407   2.039   0.151 -0.0648  0.3986  0.8446
  869SOL    HW2 3208   5.485   2.090   0.173  1.9938 -2.5511  0.8270
  869SOL    HW3 3209   5.364   2.091   0.082  1.7672  2.1726  0.9284
  869SOL    MW4 3210   5.412   2.053   0.145  0.0388  0.3727 -0.0452
  870SOL     OW 3211   4.619   2.343   3.584  0.0655 -0.0813  0.7060
  870SOL    HW2 3212   4.708   2.322   3.611  0.6951 -0.6833 -1.6042
  870SOL    HW3 3213   4.601   2.428   3.624  2.1969  0.7040  0.1221
  870SOL    MW4 3214   4.628   2.351   3.593  0.7631  0.1664  0.0439
  871SOL     OW 3215   6.436   5.104   0.172 -0.4648 -0.0606 -0.0681
  871SOL    HW2 3216   6.411   5.181   0.122 -1.4672 -1.3412 -1.6454
  871SOL    HW3 3217   6.524   5.081   0.140 -0.0524  0.5566  0.5971
  871SOL    MW4 3218   6.445   5.111   0.162 -0.2133  0.2496  0.5835
  872SOL     OW 3219   4.602   4.209   4.447  0.1708  0.4939 -0.0211
  872SOL    HW2 3220   4.683   4.244   4.485  0.6832 -0.8306  0.1417
  872SOL    HW3 3221   4.617   4.115   4.441 -1.3190  0.2443 -0.1035
  872SOL    MW4 3222   4.615   4.201   4.451 -0.0218 -0.6958  0.0601
  873SOL     OW 3223   0.284   2.899   1.088  0.2407  0.0523  0.4250
  873SOL    HW2 3224   0.254   2.810   1.104  0.0695  0.2169  1.0579
  873SOL    HW3 3225   0.290   2.939   1.175 -2.8641  1.6754  0.0469
  873SOL    MW4 3226   0.280   2.893   1.102  0.1644 -0.8742 -0.2325
  874SOL     OW 3227   3.652   4.208   2.813 -0.3510 -0.2625  0.8109
  874SOL    HW2 3228   3.697   4.218   2.897  2.7626  0.2817 -0.7438
  874SOL    HW3 3229   3.677   4.121   2.783  0.4487  0.3714 -0.4760
  874SOL    MW4 3230   3.662   4.198   2.820 -0.3259 -0.3211 -0.4137
  875SOL     OW 3231   5.470   0.263   1.372  0.0979 -0.0119  0.0052
  875SOL    HW2 3232   5.470   0.173   1.405 -0.4585 -1.2121 -2.9341
  875SOL    HW3 3233   5.378   0.289   1.374  0.0424 -0.1402 -0.6324
  875SOL    MW4 3234   5.458   0.254   1.376  0.9884  0.0877 -0.1539
  876SOL     OW 3235   3.643   5.897   0.942  0.7174 -0.0535 -0.4595
  876SOL    HW2 3236   3.601   5.916   1.026 -0.1446 -0.2819 -0.8318
  876SOL    HW3 3237   3.595   5.823   0.907  2.9929 -1.9508  0.1978
  876SOL    MW4 3238   3.631   5.890   0.948 -0.4937  0.2563  0.4306
  877SOL     OW 3239   3.086   0.724   5.353  0.3987  0.2141 -0.2384
  877SOL    HW2 3240   3.103   0.816   5.376 -0.2872  0.1518  0.5302
  877SOL    HW3 3241   3.172   0.683   5.354  0.8196  1.0162 -1.3714
  877SOL    MW4 3242   3.099   0.731   5.356  0.4547 -0.4918  0.4849
  878SOL     OW 3243   5.651   2.260   2.100 -0.0963  0.2002 -0.2762
  878SOL    HW2 3244   5.572   2.312   2.088 -1.2317 -1.8130 -2.4134
  878SOL    HW3 3245   5.709   2.288   2.030 -0.0869 -0.3152 -0.4771
  878SOL    MW4 3246   5.648   2.270   2.089 -0.3847 -0.5247  0.4534
  879SOL     OW 3247   0.435   0.864   1.309  0.1712 -0.0127  0.0200
  879SOL    HW2 3248   0.424   0.860   1.215 -1.6856  1.5517  0.1215
  879SOL    HW3 3249   0.446   0.957   1.329 -0.3512 -0.2168  1.4232
  879SOL    MW4 3250   0.435   0.876   1.299 -0.4655 -0.1765 -0.4518
  880SOL     OW 3251   0.684   3.376   0.481  0.3577 -0.0193 -0.2365
  880SOL    HW2 3252   0.609   3.379   0.421 -1.0674 -1.5340  1.3515
  880SOL    HW3 3253   0.683   3.461   0.525 -1.2646 -0.4549  0.6502
  880SOL    MW4 3254   0.674   3.388   0.479 -0.1455  0.3064 -0.1215
  881SOL     OW 3255   1.144   4.430   3.682 -0.6093 -0.4588 -0.1884
  881SOL    HW2 3256   1.196   4.493   3.632 -0.1467 -1.4475 -0.9887
  881SOL    HW3 3257   1.194   4.417   3.763 -0.5644 -0.0168 -0.1416
  881SOL    MW4 3258   1.157   4.437   3.686 -0.0426  0.8980  0.1344
  882SOL     OW 3259   0.243   2.710   2.865  0.0417  0.1726  0.3590
  882SOL    HW2 3260   0.212   2.684   2.952 -2.1689 -0.1479 -0.4574
  882SOL    HW3 3261   0.274   2.629   2.825 -0.2056  0.0711  0.3713
  882SOL    MW4 3262   0.243   2.696   2.871 -0.1058 -0.5806 -0.0219
  883SOL     OW 3263   0.437   3.572   5.891 -0.0848 -0.1567 -0.7346
  883SOL    HW2 3264   0.476   3.651   5.854 -0.1197 -1.3131 -3.4992
  883SOL    HW3 3265   0.355   3.561   5.844  1.4471 -3.5598 -3.0060
  883SOL    MW4 3266   0.431   3.581   5.880  0.2773  0.6177  0.2078
  884SOL     OW 3267   5.918   5.882   3.396 -0.0352  0.2201 -0.2595
  884SOL    HW2 3268   5.888   5.927   3.475  0.0884 -1.8100  1.0245
  884SOL    HW3 3269   5.894   5.790   3.410 -0.2347 -0.1610 -2.7186
  884SOL    MW4 3270   5.911   5.876   3.409 -0.4135 -0.4770 -0.3584
  885SOL     OW 3271   0.559   3.239   4.273 -0.0386 -0.4598  0.1808
  885SOL    HW2 3272   0.551   3.146   4.295 -0.9300 -0.0807  1.5628
  885SOL    HW3 3273   0.470   3.266   4.252  0.1211  0.2343  0.3824
  885SOL    MW4 3274   0.546   3.230   4.273 -0.1117  0.1957 -1.1575
  886SOL     OW 3275   5.279   0.470   3.601 -0.5577 -0.3585  0.1675
  886SOL    HW2 3276   5.211   0.536   3.616 -0.8089 -0.6072  0.1421
  886SOL    HW3 3277   5.232   0.397   3.560 -0.5574 -1.1347  1.4900
  886SOL    MW4 3278   5.264   0.469   3.597 -0.2518 -0.5323  0.3770
  887SOL     OW 3279   6.169   0.503   2.761  0.5757  0.3083  0.2267
  887SOL    HW2 3280   6.173   0.413   2.727  1.0266  0.6791 -0.7454
  887SOL    HW3 3281   6.248   0.511   2.815  1.5325  0.6868 -1.1860
  887SOL    MW4 3282   6.180   0.492   2.764 -0.0488 -0.1787 -0.6507
  888SOL     OW 3283   6.411   1.603   4.068 -0.0220 -0.0775 -0.9873
  888SOL    HW2 3284   6.349   1.607   3.995  0.8430 -0.9671 -1.8058
  888SOL    HW3 3285   6.496   1.621   4.028  0.5155 -0.9527 -0.2649
  888SOL    MW4 3286   6.414   1.606   4.053 -0.2508  0.4568 -0.5058
  889SOL     OW 3287   5.690   1.370   3.681  0.0779  0.3356 -0.0492
  889SOL    HW2 3288   5.596   1.364   3.700  0.2376 -0.9324  0.4506
  889SOL    HW3 3289   5.732   1.371   3.766  0.4929  2.1760 -0.2409
  889SOL    MW4 3290   5.683   1.369   3.695  0.3947 -0.3551  0.0403
  890SOL     OW 3291   2.911   3.212   2.242 -0.0379 -0.3526 -0.2287
  890SOL    HW2 3292   2.915   3.255   2.156 -0.6423 -0.2065 -0.1910
  890SOL    HW3 3293   2.960   3.131   2.230  0.6840  0.1028 -0.4443
  890SOL    MW4 3294   2.918   3.207   2.229 -0.5160  0.2728 -0.5392
  891SOL     OW 3295   4.790   2.893   1.068 -0.0554 -0.1503  0.2721
  891SOL    HW2 3296   4.823   2.963   1.011  0.6864  1.1625  2.2221
  891SOL    HW3 3297   4.823   2.812   1.028  3.8125  0.9329  0.8764
  891SOL    MW4 3298   4.799   2.891   1.055 -0.0563  0.1399  0.0765
  892SOL     OW 3299   3.259   6.329   5.696 -0.2212 -0.4608 -0.3480
  892SOL    HW2 3300   3.332   6.286   5.650  1.5346  1.7662  0.1698
  892SOL    HW3 3301   3.295   6.350   5.782 -1.4120  0.9219 -0.1637
  892SOL    MW4 3302   3.273   6.326   5.701 -0.0437  0.0829  0.2307
  893SOL     OW 3303   4.740   3.268   1.206  0.1794 -0.7215 -0.4144
  893SOL    HW2 3304   4.691   3.188   1.223 -0.8963  0.2001  1.1387
  893SOL    HW3 3305   4.829   3.239   1.188 -0.0513 -2.2418  0.7524
  893SOL    MW4 3306   4.746   3.254   1.206  0.0339 -0.0070 -0.0890
  894SOL     OW 3307   1.365   3.888   5.547  0.3094  0.1929  0.2818
  894SOL    HW2 3308   1.283   3.935   5.537  1.4665  2.2891 -0.0105
  894SOL    HW3 3309   1.363   3.821   5.480 -0.3710  1.4611 -1.0125
  894SOL    MW4 3310   1.354   3.885   5.537 -0.0520 -0.0795 -0.2703
  895SOL     OW 3311   0.133   3.705   3.457 -0.0351 -0.3710 -0.1182
  895SOL    HW2 3312   0.161   3.752   3.536 -0.9774 -0.2247  0.1471
  895SOL    HW3 3313   0.182   3.747   3.386 -0.0794  0.3246  0.2466
  895SOL    MW4 3314   0.143   3.717   3.458 -0.1287 -0.4783  0.2272
  896SOL     OW 3315   4.490   2.055   3.942 -0.0887 -0.0306 -0.9989
  896SOL    HW2 3316   4.555   2.118   3.973 -0.8140  0.4558 -0.4368
  896SOL    HW3 3317   4.441   2.031   4.021 -0.9932  0.0837 -1.5158
  896SOL    MW4 3318   4.492   2.060   3.957  0.4296  0.4032 -0.1553
  897SOL     OW 3319   1.048   6.055   2.458 -0.2007  0.3787 -0.3205
  897SOL    HW2 3320   0.965   6.034   2.501 -0.9031 -0.4907 -2.0342
  897SOL    HW3 3321   1.050   6.151   2.456 -1.5422  0.4124 -0.9340
  897SOL    MW4 3322   1.037   6.065   2.463  0.4474  0.3709  0.1210
  898SOL     OW 3323   0.224   4.256   3.733 -0.1947  0.1394  0.0821
  898SOL    HW2 3324   0.299   4.227   3.786 -1.4698  0.9562  2.4733
  898SOL    HW3 3325   0.195   4.178   3.687  0.2268 -0.9332  1.5699
  898SOL    MW4 3326   0.230   4.242   3.734 -0.5739 -0.0816  0.2324
  899SOL     OW 3327   5.997   1.388   2.712 -0.2205 -0.2922 -0.4066
  899SOL    HW2 3328   6.082   1.349   2.732  0.8051  2.2706  0.7158
  899SOL    HW3 3329   5.941   1.360   2.785  0.4957  0.3072  0.3998
  899SOL    MW4 3330   6.001   1.379   2.724  0.0158 -0.1112 -0.3419
  900SOL     OW 3331   1.844   1.790   4.900  0.2091  0.1624 -0.0956
  900SOL    HW2 3332   1.928   1.822   4.932  0.3724  0.2541 -0.5970
  900SOL    HW3 3333   1.822   1.849   4.827  1.3347 -1.7932 -2.1685
  900SOL    MW4 3334   1.852   1.802   4.894 -0.1416 -0.5121  0.3091
  901SOL     OW 3335   4.137   1.033   1.608 -0.1748  0.0845 -0.4718
  901SOL    HW2 3336   4.112   1.013   1.699 -0.8447  0.2387 -0.6224
  901SOL    HW3 3337   4.055   1.032   1.559  0.2597 -0.6645 -1.2080
  901SOL    MW4 3338   4.123   1.030   1.614 -0.0151 -0.7348  0.7815
  902SOL     OW 3339   2.290   2.427   4.668  0.0888  0.3083 -0.4500
  902SOL    HW2 3340   2.379   2.418   4.702 -0.3212 -1.3642  0.2529
  902SOL    HW3 3341   2.233   2.414   4.744 -0.7979 -1.3778 -1.3498
  902SOL    MW4 3342   2.294   2.424   4.683 -0.2838 -0.0225  0.4209
  903SOL     OW 3343   0.981   0.346   0.750 -0.5057 -0.3796 -0.2787
  903SOL    HW2 3344   0.913   0.397   0.795  0.0774  0.8037 -0.6796
  903SOL    HW3 3345   0.937   0.266   0.722 -1.4113 -0.1978  0.5605
  903SOL    MW4 3346   0.966   0.342   0.753  0.2347  0.0678 -0.1475
  904SOL     OW 3347   2.467   5.309   1.925 -0.1628 -0.5185 -0.5657
  904SOL    HW2 3348   2.434   5.389   1.966  0.8075  0.1055 -0.9789
  904SOL    HW3 3349   2.390   5.271   1.882 -0.6106  0.2412 -0.4516
  904SOL    MW4 3350   2.452   5.315   1.925  0.4324  0.0092 -0.6280
  905SOL     OW 3351   0.628   0.215   4.914 -0.0583 -0.1982 -0.5881
  905SOL    HW2 3352   0.663   0.233   4.827 -1.2060  1.3712 -0.7601
  905SOL    HW3 3353   0.700   0.236   4.974 -0.3172  2.0962 -0.9890
  905SOL    MW4 3354   0.642   0.220   4.911 -0.0699  0.1890 -0.5109
  906SOL     OW 3355   1.434   3.453   3.929  0.4800 -0.0953 -0.3854
  906SOL    HW2 3356   1.401   3.376   3.882 -0.0401 -0.3258  0.3334
  906SOL    HW3 3357   1.409   3.527   3.874 -0.3474 -0.3382 -0.3607
  906SOL    MW4 3358   1.426   3.453   3.916 -0.4882  0.4467 -0.0084
  907SOL     OW 3359   4.355   3.264   3.935 -0.1044 -1.1704  0.3569
  907SOL    HW2 3360   4.348   3.354   3.904 -0.5160 -0.7887  1.4926
  907SOL    HW3 3361   4.411   3.220   3.871  0.7181  0.0774  0.1975
  907SOL    MW4 3362   4.361   3.270   3.923 -0.2698  0.5073 -0.3304
  908SOL     OW 3363   5.993   5.835   5.068  0.2179  0.2406 -0.1039
  908SOL    HW2 3364   5.950   5.750   5.068  1.5927 -0.5055 -1.9586
  908SOL    HW3 3365   5.936   5.891   5.015 -0.7466  0.5672  1.2149
  908SOL    MW4 3366   5.980   5.831   5.061  0.6802 -0.4819  0.0787
  909SOL     OW 3367   0.149   5.891   2.352 -0.4668  0.2987 -0.0258
  909SOL    HW2 3368   0.212   5.842   2.403 -1.8759 -1.6683 -0.0708
  909SOL    HW3 3369   0.180   5.885   2.262  0.6016  1.5377  0.2256
  909SOL    MW4 3370   0.161   5.884   2.347 -0.0027 -0.2855  0.1185
  910SOL     OW 3371   0.183   4.225   0.843 -0.1327 -0.4482  0.2589
  910SOL    HW2 3372   0.243   4.172   0.791 -0.4916 -0.6078  0.0039
  910SOL    HW3 3373   0.219   4.221   0.932  0.8991  0.4519 -0.1061
  910SOL    MW4 3374   0.196   4.217   0.848  0.0264 -0.4129  0.4533
  911SOL     OW 3375   0.468   2.138   1.025 -0.0198 -0.2694 -0.3430
  911SOL    HW2 3376   0.543   2.079   1.026  1.3144  1.3472  0.2739
  911SOL    HW3 3377   0.406   2.099   1.088 -0.6096 -2.6395 -2.2510
  911SOL    MW4 3378   0.470   2.125   1.034  0.2763 -0.2455  0.0904
  912SOL     OW 3379   0.385   6.021   3.303 -0.6901 -0.1375 -0.7170
  912SOL    HW2 3380   0.356   5.931   3.290  1.4730 -0.8634 -0.8750
  912SOL    HW3 3381   0.370   6.064   3.219 -0.0856 -0.8554 -1.2043
  912SOL    MW4 3382   0.379   6.015   3.290 -0.0489 -0.4011 -0.1070
  913SOL     OW 3383   4.812   3.641   6.055  0.3248 -0.6185 -0.1824
  913SOL    HW2 3384   4.807   3.571   6.121 -0.9711 -0.3122  0.0689
  913SOL    HW3 3385   4.805   3.595   5.971  0.6400 -0.8943 -0.0580
  913SOL    MW4 3386   4.810   3.625   6.053  0.2285 -0.3084 -0.1977
  914SOL     OW 3387   5.691   5.324   6.141  0.0207 -0.1982 -0.2811
  914SOL    HW2 3388   5.783   5.335   6.117  0.0715  1.1383  0.4455
  914SOL    HW3 3389   5.685   5.360   6.230 -0.9414 -1.4534  0.1967
  914SOL    MW4 3390   5.702   5.330   6.150  0.2979 -0.5961 -0.5393
  915SOL     OW 3391   5.342   5.366   0.554  0.4845 -0.3518  0.3279
  915SOL    HW2 3392   5.339   5.270   0.549  4.0313 -0.5601 -0.2670
  915SOL    HW3 3393   5.418   5.384   0.610 -0.9468  2.1606  1.5866
  915SOL    MW4 3394   5.352   5.355   0.561 -0.4521 -0.5249 -0.0687
  916SOL     OW 3395   2.344   1.346   1.732 -0.2887  0.2773  0.0975
  916SOL    HW2 3396   2.338   1.338   1.828 -3.2730 -1.8435 -0.1181
  916SOL    HW3 3397   2.302   1.267   1.699  1.3933  0.5393 -3.0414
  916SOL    MW4 3398   2.337   1.334   1.741  0.2750 -0.2813 -0.4559
  917SOL     OW 3399   4.913   5.406   0.843  0.1597 -0.0987 -0.5919
  917SOL    HW2 3400   4.884   5.322   0.807  0.3028 -0.9110  1.0833
  917SOL    HW3 3401   4.926   5.389   0.936  0.3410  1.7612 -0.2347
  917SOL    MW4 3402   4.911   5.393   0.850  0.0217  0.2377 -0.1738
  918SOL     OW 3403   4.992   2.456   3.090 -0.5242 -0.0868  0.1424
  918SOL    HW2 3404   5.086   2.471   3.087 -0.4864  0.5947  2.3674
  918SOL    HW3 3405   4.960   2.483   3.004  1.1662  0.7529 -0.2680
  918SOL    MW4 3406   5.000   2.462   3.079 -0.1459 -0.0441  0.0983
  919SOL     OW 3407   2.510   3.612   4.954  0.1637 -0.3889 -0.1184
  919SOL    HW2 3408   2.456   3.676   5.002  0.6222 -0.2217  0.1810
  919SOL    HW3 3409   2.508   3.534   5.009  1.4654  0.1039  0.6718
  919SOL    MW4 3410   2.502   3.610   4.968 -0.2422 -0.0004  0.7796
  920SOL     OW 3411   4.687   2.235   4.043  0.3732  0.0731 -0.7180
  920SOL    HW2 3412   4.733   2.287   3.977  0.8648 -0.9272 -1.1931
  920SOL    HW3 3413   4.620   2.294   4.078  2.2131  1.6964  0.2419
  920SOL    MW4 3414   4.684   2.250   4.039  0.2464  0.1008  0.6296
  921SOL     OW 3415   1.443   5.186   1.354  0.1996 -0.3221 -0.6316
  921SOL    HW2 3416   1.459   5.226   1.269  1.0355 -0.2982 -0.4757
  921SOL    HW3 3417   1.520   5.210   1.406 -0.6643  0.3466  0.3802
  921SOL    MW4 3418   1.455   5.195   1.350  0.2872 -0.0658 -0.3042
  922SOL     OW 3419   3.550   3.545   1.273 -0.7598 -0.0751  0.7116
  922SOL    HW2 3420   3.624   3.497   1.312 -0.3421  0.3718  0.4749
  922SOL    HW3 3421   3.481   3.539   1.339 -1.0628 -1.8632  0.2771
  922SOL    MW4 3422   3.551   3.538   1.287  0.4652 -0.2175  0.0905
  923SOL     OW 3423   0.801   3.320   3.009 -0.2876 -0.1418 -0.1408
  923SOL    HW2 3424   0.788   3.279   3.095  2.4450  2.4722  1.7212
  923SOL    HW3 3425   0.753   3.402   3.014  0.6819  0.4831 -0.6804
  923SOL    MW4 3426   0.793   3.325   3.021  0.0264  0.0803  0.1293
  924SOL     OW 3427   4.608   3.350   4.601  0.1359  0.0094 -0.3376
  924SOL    HW2 3428   4.699   3.329   4.578  0.2076  0.7191 -0.7335
  924SOL    HW3 3429   4.568   3.376   4.518 -0.2938  0.1820 -0.0791
  924SOL    MW4 3430   4.615   3.351   4.587 -0.6165 -0.4798 -0.1148
  925SOL     OW 3431   4.609   2.748   1.958  0.3205 -0.1843  0.1572
  925SOL    HW2 3432   4.600   2.821   1.897 -1.9676  0.2423  0.9114
  925SOL    HW3 3433   4.591   2.670   1.906  2.2048 -0.2043 -0.5224
  925SOL    MW4 3434   4.606   2.747   1.943 -0.1187  0.2657 -0.0274
  926SOL     OW 3435   4.049   5.503   0.076  0.2189  0.1500  0.3278
  926SOL    HW2 3436   4.083   5.459   0.153  0.1700  0.7631  0.7125
  926SOL    HW3 3437   4.004   5.435   0.026  1.0231 -0.4291  0.3888
  926SOL    MW4 3438   4.047   5.489   0.080 -0.3706  0.6450 -0.2689
  927SOL     OW 3439   2.222   2.144   3.493 -0.0891 -0.1307  0.7599
  927SOL    HW2 3440   2.249   2.232   3.521  0.9248 -0.3875  0.6202
  927SOL    HW3 3441   2.303   2.094   3.491 -0.5975 -0.9506  0.3781
  927SOL    MW4 3442   2.236   2.149   3.496 -0.2339  0.0943  0.0606
  928SOL     OW 3443   5.100   1.327   5.921 -0.6321 -0.3416  0.0228
  928SOL    HW2 3444   5.017   1.354   5.961 -1.2101 -0.7203 -0.9082
  928SOL    HW3 3445   5.120   1.242   5.961  0.5635  0.7961  2.0375
  928SOL    MW4 3446   5.092   1.319   5.932 -0.2405 -0.5446  0.4418
  929SOL     OW 3447   1.755   4.427   5.613 -0.7244 -0.0921 -0.0322
  929SOL    HW2 3448   1.829   4.377   5.646  0.6077  1.4572 -0.5785
  929SOL    HW3 3449   1.680   4.396   5.664  0.7204  0.0287  2.2747
  929SOL    MW4 3450   1.755   4.416   5.624 -0.3399 -0.3478 -0.3510
  930SOL     OW 3451   4.271   3.308   3.386  0.4339  0.2545  0.5949
  930SOL    HW2 3452   4.198   3.302   3.325  0.6434  0.4193  0.3246
  930SOL    HW3 3453   4.347   3.323   3.330  0.4477  1.7461  0.9783
  930SOL    MW4 3454   4.271   3.309   3.370 -0.0468 -0.0190  0.5533
  931SOL     OW 3455   3.053   5.555   4.871 -0.0684 -0.0798  0.5873
  931SOL    HW2 3456   3.035   5.493   4.941  1.4952 -2.5791 -1.0653
  931SOL    HW3 3457   3.139   5.592   4.892  0.4928 -0.9793 -0.0455
  931SOL    MW4 3458   3.062   5.552   4.883  0.0778 -0.6633  0.4875
  932SOL     OW 3459   0.490   0.246   0.947  0.3238 -0.6253  0.1000
  932SOL    HW2 3460   0.476   0.340   0.959 -0.8738 -0.7600 -0.1810
  932SOL    HW3 3461   0.585   0.238   0.932  0.3893  0.5612 -0.2210
  932SOL    MW4 3462   0.501   0.257   0.947 -0.1124  0.6802  0.0597
  933SOL     OW 3463   4.267   1.853   4.428  0.0431 -0.0353 -0.1633
  933SOL    HW2 3464   4.235   1.850   4.518 -0.7440 -0.7252 -0.4584
  933SOL    HW3 3465   4.272   1.761   4.401  3.9080 -0.1687  0.4061
  933SOL    MW4 3466   4.264   1.840   4.436 -0.4880  0.8579  0.0757
  934SOL     OW 3467   2.820   4.546   1.063 -0.2194 -0.3540  0.1458
  934SOL    HW2 3468   2.737   4.549   1.015 -0.3761  0.4311  0.4423
  934SOL    HW3 3469   2.836   4.637   1.087  1.3876 -0.2976 -1.0179
  934SOL    MW4 3470   2.811   4.558   1.059 -0.0442  0.0836  0.1253
  935SOL     OW 3471   0.410   0.466   4.129 -0.0899  0.3943  0.0233
  935SOL    HW2 3472   0.363   0.546   4.106 -1.2321 -0.5191 -0.9653
  935SOL    HW3 3473   0.453   0.440   4.047 -1.4410 -1.0941 -0.2652
  935SOL    MW4 3474   0.410   0.473   4.115 -0.2265  0.0232 -0.2182
  936SOL     OW 3475   5.130   5.084   0.023 -0.1838  0.1873  0.0207
  936SOL    HW2 3476   5.164   5.019  -0.037 -1.2027  1.7100 -2.3598
  936SOL    HW3 3477   5.145   5.168  -0.021 -1.7977  1.3074  1.4670
  936SOL    MW4 3478   5.136   5.087   0.009  0.4702 -0.1576 -0.1735
  937SOL     OW 3479   6.192   4.232   0.984  0.0290 -0.2270 -0.4430
  937SOL    HW2 3480   6.226   4.320   0.966 -1.0653  0.4043  0.5193
  937SOL    HW3 3481   6.271   4.180   1.002  0.7178  0.4485 -1.3860
  937SOL    MW4 3482   6.207   4.237   0.984  0.4584  0.7232  0.0380
  938SOL     OW 3483   1.835   4.037   0.125  0.4946  0.0709 -0.1082
  938SOL    HW2 3484   1.810   3.946   0.107  1.2549 -0.1152 -0.2278
  938SOL    HW3 3485   1.861   4.073   0.040  1.6441 -0.0574  0.1733
  938SOL    MW4 3486   1.835   4.030   0.112 -0.2661 -0.0884  0.1340
  939SOL     OW 3487   5.670   5.091   2.298  0.1713  0.1178 -0.3139
  939SOL    HW2 3488   5.749   5.084   2.244 -1.0110  0.1095 -2.1160
  939SOL    HW3 3489   5.673   5.013   2.353  0.2791 -1.1399 -2.0091
  939SOL    MW4 3490   5.681   5.079   2.298  0.0058 -0.4359 -0.6021
  940SOL     OW 3491   3.844   3.556   1.373  0.1770 -0.0199 -0.3210
  940SOL    HW2 3492   3.896   3.542   1.294  1.0706  1.9960 -0.1521
  940SOL    HW3 3493   3.856   3.649   1.393 -1.7456 -0.0117  0.9907
  940SOL    MW4 3494   3.853   3.567   1.365  0.3928 -0.1319 -0.3072
  941SOL     OW 3495   1.718   4.637   0.429  0.4472  0.4005 -0.2395
  941SOL    HW2 3496   1.633   4.679   0.417  0.4308  0.1188 -1.2430
  941SOL    HW3 3497   1.736   4.643   0.523 -0.1073  1.5614 -0.1945
  941SOL    MW4 3498   1.709   4.643   0.440  0.4562 -0.2059  0.4062
  942SOL     OW 3499   3.316   5.709   2.198 -0.9076 -0.3454 -0.6775
  942SOL    HW2 3500   3.346   5.799   2.181 -0.5590 -0.7117 -2.1405
  942SOL    HW3 3501   3.221   5.713   2.182 -0.7071 -0.4946 -2.0380
  942SOL    MW4 3502   3.307   5.722   2.193  0.1686 -0.1747  0.4845
  943SOL     OW 3503   1.793   0.941   0.074  0.3515 -0.4850 -0.4157
  943SOL    HW2 3504   1.851   1.015   0.058  1.2643 -1.3567 -1.2670
  943SOL    HW3 3505   1.716   0.979   0.116  1.3321  0.7590  0.3178
  943SOL    MW4 3506   1.790   0.955   0.078  0.1849  0.1353  0.3438
  944SOL     OW 3507   0.951   2.527   1.641  0.0259 -0.0874  0.1359
  944SOL    HW2 3508   1.043   2.499   1.634  0.1435  0.3873 -0.2780
  944SOL    HW3 3509   0.901   2.446   1.633  0.4472 -0.5538  1.9090
  944SOL    MW4 3510   0.957   2.513   1.639  0.7272  0.2379 -0.2826
  945SOL     OW 3511   3.626   0.411   2.728 -0.1255 -0.8515  0.4673
  945SOL    HW2 3512   3.708   0.381   2.767  0.2675  0.5659  0.8156
  945SOL    HW3 3513   3.615   0.500   2.762 -0.3206  0.0636 -1.8167
  945SOL    MW4 3514   3.635   0.419   2.738  0.3773 -0.6866 -0.2488
  946SOL     OW 3515   4.987   5.860   6.266 -0.3853 -0.2994  0.4676
  946SOL    HW2 3516   5.030   5.906   6.194 -1.4961 -0.4050 -0.2808
  946SOL    HW3 3517   4.929   5.925   6.306  0.3159 -0.2024  1.3651
  946SOL    MW4 3518   4.985   5.875   6.262  0.1550 -0.3462 -0.0595
  947SOL     OW 3519   5.497   4.881   5.474  0.2790  0.4431 -0.3789
  947SOL    HW2 3520   5.445   4.942   5.422 -0.2767 -0.0124 -0.3618
  947SOL    HW3 3521   5.517   4.930   5.554 -0.8897  0.3190  0.0085
  947SOL    MW4 3522   5.493   4.895   5.478  0.1624 -0.7985  0.0106
  948SOL     OW 3523   5.187   4.395   0.095 -0.5291  0.1685  0.5517
  948SOL    HW2 3524   5.128   4.367   0.025 -0.3491 -1.4510  1.0043
  948SOL    HW3 3525   5.132   4.446   0.154 -0.5959  1.9258 -0.9159
  948SOL    MW4 3526   5.172   4.398   0.094  0.0259 -0.7457 -0.0811
  949SOL     OW 3527   5.140   4.486   1.147  0.7581 -0.3014 -0.2074
  949SOL    HW2 3528   5.061   4.446   1.184  0.2498  0.4936 -0.4095
  949SOL    HW3 3529   5.111   4.572   1.116  1.8745  0.3238  0.4219
  949SOL    MW4 3530   5.125   4.492   1.148 -0.7576  0.3698  0.2341
  950SOL     OW 3531   1.627   2.731   4.442  0.0388 -0.1178 -0.2170
  950SOL    HW2 3532   1.562   2.775   4.496 -1.0070  0.7019 -2.0534
  950SOL    HW3 3533   1.700   2.792   4.437 -0.3210  0.2846 -0.6155
  950SOL    MW4 3534   1.628   2.745   4.448 -0.2694 -0.5097 -0.1289
  951SOL     OW 3535   1.762   0.378   3.356  0.5828 -0.2888 -0.1650
  951SOL    HW2 3536   1.803   0.453   3.313 -1.7092  0.9230 -0.3835
  951SOL    HW3 3537   1.766   0.398   3.449 -0.6007  0.4402 -0.2615
  951SOL    MW4 3538   1.768   0.390   3.362  0.5387 -0.0500  0.3255
  952SOL     OW 3539   2.868   2.909   5.471  0.2752 -0.5041 -0.3576
  952SOL    HW2 3540   2.792   2.950   5.429 -0.2717  0.9558  1.8577
  952SOL    HW3 3541   2.831   2.840   5.526  0.7960 -1.2781 -0.9685
  952SOL    MW4 3542   2.853   2.905   5.473 -0.6279 -0.2534 -0.0136
  953SOL     OW 3543   0.460   1.797   0.894  0.4056 -0.0391 -0.0480
  953SOL    HW2 3544   0.387   1.770   0.949  0.5183  1.3646  0.8259
  953SOL    HW3 3545   0.534   1.807   0.954  0.3279  2.3148 -0.2517
  953SOL    MW4 3546   0.460   1.795   0.909 -0.5154 -0.0567  0.8015
  954SOL     OW 3547   1.533   1.470   2.527 -0.2360  0.2806  0.4042
  954SOL    HW2 3548   1.567   1.544   2.578 -0.9167 -0.4187  1.9453
  954SOL    HW3 3549   1.605   1.407   2.527  0.9284  1.4631 -2.2220
  954SOL    MW4 3550   1.547   1.471   2.534  0.8028  0.3971 -1.0571
  955SOL     OW 3551   0.392   4.005   5.106  0.0766  0.1430 -0.0866
  955SOL    HW2 3552   0.398   3.955   5.187 -0.9560  0.8817  0.4878
  955SOL    HW3 3553   0.298   4.011   5.088  0.2689  0.3070 -1.1408
  955SOL    MW4 3554   0.380   3.999   5.114 -0.3030 -0.8234 -0.1758
  956SOL     OW 3555   4.904   3.066   4.402 -0.5189  0.0813  0.1731
  956SOL    HW2 3556   4.886   2.994   4.463  1.6837  0.0052  0.8220
  956SOL    HW3 3557   4.846   3.050   4.328 -1.4618 -1.2595  1.1593
  956SOL    MW4 3558   4.894   3.054   4.400  0.7287  0.1499  0.0337
  957SOL     OW 3559   2.189   2.478   1.900  0.5101  0.0455 -0.3520
  957SOL    HW2 3560   2.226   2.496   1.986 -2.2832  0.2930  0.8995
  957SOL    HW3 3561   2.236   2.401   1.869  1.0730 -0.5024  1.7262
  957SOL    MW4 3562   2.200   2.471   1.907 -0.0574 -0.7532 -0.0849
  958SOL     OW 3563   0.402   0.633   5.279  0.0430  0.1121 -0.3053
  958SOL    HW2 3564   0.327   0.615   5.222 -0.3809 -0.7093  0.4802
  958SOL    HW3 3565   0.386   0.579   5.357  0.8758  0.8004  0.3600
  958SOL    MW4 3566   0.390   0.624   5.282 -0.0737  0.3977  0.2309
  959SOL     OW 3567   5.094   0.035   6.145  0.6083 -0.2350 -0.0831
  959SOL    HW2 3568   5.137  -0.050   6.157  2.7411  0.8048  0.2034
  959SOL    HW3 3569   5.087   0.070   6.234  0.5085  0.2287 -0.2761
  959SOL    MW4 3570   5.099   0.028   6.158  0.4648  0.3524  1.0931
  960SOL     OW 3571   4.978   6.374   4.892  0.4541 -0.2183  0.7809
  960SOL    HW2 3572   4.973   6.291   4.845  2.0578 -0.1904  0.5054
  960SOL    HW3 3573   4.951   6.352   4.981 -0.6259 -0.7009  0.3465
  960SOL    MW4 3574   4.974   6.360   4.898 -0.1368 -0.7077  0.3960
  961SOL     OW 3575   3.284   5.808   3.188  0.1554  0.2622 -0.6570
  961SOL    HW2 3576   3.363   5.785   3.141  0.0635  2.5296 -2.0884
  961SOL    HW3 3577   3.281   5.904   3.185 -2.8876  0.2696 -1.1271
  961SOL    MW4 3578   3.294   5.818   3.181 -0.2192 -0.3377  0.2163
  962SOL     OW 3579   5.128   6.058   2.936  0.0038  0.2102 -0.0054
  962SOL    HW2 3580   5.143   6.130   2.998 -0.2867 -0.1847  0.5327
  962SOL    HW3 3581   5.098   5.986   2.991  1.4944 -0.7288 -0.3835
  962SOL    MW4 3582   5.126   6.058   2.952  0.0482 -0.0401  0.2133
  963SOL     OW 3583   3.874   4.135   5.799  0.0738 -0.4235  0.0701
  963SOL    HW2 3584   3.782   4.164   5.805  0.4653  1.1566 -0.9785
  963SOL    HW3 3585   3.873   4.069   5.731  0.2343  2.3349 -2.8244
  963SOL    MW4 3586   3.861   4.130   5.791 -0.5093 -0.2078  0.0460
  964SOL     OW 3587   0.333   2.091   2.827  0.0595 -0.0043 -0.7055
  964SOL    HW2 3588   0.321   2.160   2.892  0.6406  0.8733 -1.5080
  964SOL    HW3 3589   0.425   2.064   2.837  0.2356  0.3312 -1.3335
  964SOL    MW4 3590   0.344   2.096   2.837  0.3510  0.2962 -0.3057
  965SOL     OW 3591   1.623   1.885   4.095 -0.0043  0.5407  0.3027
  965SOL    HW2 3592   1.650   1.954   4.156  1.4545 -0.0942  0.4146
  965SOL    HW3 3593   1.657   1.915   4.010  0.7402 -0.0644  0.3721
  965SOL    MW4 3594   1.631   1.898   4.091  0.0215  0.0752  0.0144
  966SOL     OW 3595   5.586   5.225   1.750  0.0101 -0.2506 -0.0850
  966SOL    HW2 3596   5.543   5.212   1.835  1.2658  0.5757  0.7148
  966SOL    HW3 3597   5.680   5.221   1.770  0.3190 -0.2403 -1.4743
  966SOL    MW4 3598   5.593   5.223   1.764 -0.2003  0.2400 -0.2829
  967SOL     OW 3599   2.217   5.579   5.388 -0.0214  0.3633 -0.4101
  967SOL    HW2 3600   2.161   5.556   5.462 -0.9261 -0.0350 -1.1942
  967SOL    HW3 3601   2.180   5.660   5.354  1.9423  2.0382  1.0962
  967SOL    MW4 3602   2.205   5.587   5.393  0.2379 -0.3868  0.1273
  968SOL     OW 3603   4.336   2.655   2.337  0.3560 -0.4622  0.4611
  968SOL    HW2 3604   4.326   2.745   2.369  1.0018 -0.4410  0.6290
  968SOL    HW3 3605   4.411   2.621   2.385  0.1825 -1.0574  0.3148
  968SOL    MW4 3606   4.345   2.662   2.347 -0.1994  0.2594 -0.4350
  969SOL     OW 3607   3.594   0.868   4.149 -0.4561 -0.2064  0.4981
  969SOL    HW2 3608   3.627   0.812   4.220 -0.3852 -0.4118  0.3024
  969SOL    HW3 3609   3.531   0.926   4.192  0.1646  0.1972  0.8865
  969SOL    MW4 3610   3.590   0.868   4.164  0.4609 -0.1039 -0.4812
  970SOL     OW 3611   2.485   1.136   2.150 -0.2897  0.1153  0.7563
  970SOL    HW2 3612   2.422   1.200   2.116  0.4026 -0.0803 -0.9540
  970SOL    HW3 3613   2.466   1.055   2.103  2.4540  0.5442 -1.3417
  970SOL    MW4 3614   2.474   1.134   2.140  0.0328  0.6376 -0.0320
  971SOL     OW 3615   0.865   0.920   0.839 -0.0348  0.6372 -0.3972
  971SOL    HW2 3616   0.894   0.997   0.791 -0.4555  0.9984 -0.0845
  971SOL    HW3 3617   0.804   0.876   0.780  2.7116 -1.3350 -1.9669
  971SOL    MW4 3618   0.861   0.924   0.825 -0.3733 -0.2401 -0.6294
  972SOL     OW 3619   5.961   5.516   1.845 -0.2674  0.1255  0.2512
  972SOL    HW2 3620   5.967   5.601   1.889 -2.1098  0.6369 -0.4153
  972SOL    HW3 3621   5.976   5.452   1.914  1.2795  0.9655  0.7387
  972SOL    MW4 3622   5.964   5.519   1.860 -0.0491 -0.3561 -0.6290
  973SOL     OW 3623   5.896   0.625   5.202 -0.4445  0.4899  0.1312
  973SOL    HW2 3624   5.977   0.574   5.199 -1.4310 -1.1035 -0.7416
  973SOL    HW3 3625   5.894   0.662   5.290  0.7047 -0.2889  0.5107
  973SOL    MW4 3626   5.907   0.623   5.213  0.1657  0.3762 -1.0597
  974SOL     OW 3627   2.484   0.534   4.419  0.2047 -0.0809  0.1435
  974SOL    HW2 3628   2.416   0.543   4.352  1.3102  1.2670 -0.8664
  974SOL    HW3 3629   2.551   0.598   4.394  2.3276 -2.0189  0.5095
  974SOL    MW4 3630   2.484   0.543   4.407  0.1203  0.1336 -0.6919
  975SOL     OW 3631   3.531   5.435   2.504 -0.1681  0.3675 -0.1073
  975SOL    HW2 3632   3.575   5.503   2.452  0.2857  1.6400  1.8467
  975SOL    HW3 3633   3.509   5.479   2.586  1.1983 -2.1221  1.7181
  975SOL    MW4 3634   3.534   5.450   2.508 -0.1812 -0.7059 -0.2156
  976SOL     OW 3635   3.110   5.883   1.933 -0.2742  0.3142 -0.6078
  976SOL    HW2 3636   3.063   5.835   2.002 -0.1210  1.8021  0.5734
  976SOL    HW3 3637   3.045   5.894   1.863 -1.1685  0.8100  0.2761
  976SOL    MW4 3638   3.095   5.878   1.933 -0.0534  0.1100  0.2058
  977SOL     OW 3639   1.391   4.038   4.003  0.1506 -0.5097 -0.3967
  977SOL    HW2 3640   1.401   4.049   3.908  0.4272 -0.9525 -0.4193
  977SOL    HW3 3641   1.376   3.945   4.016  1.5631 -0.7033  0.1042
  977SOL    MW4 3642   1.391   4.027   3.992 -0.3242 -0.2025  0.1315
  978SOL     OW 3643   3.496   1.259   2.794 -0.2239  0.4501  0.1336
  978SOL    HW2 3644   3.405   1.266   2.821 -0.3661  0.6115 -0.3704
  978SOL    HW3 3645   3.500   1.178   2.743 -0.3047  0.9317 -0.6628
  978SOL    MW4 3646   3.485   1.249   2.791  0.1380 -0.4720 -0.6393
  979SOL     OW 3647   3.184   1.920   3.173 -0.1774 -0.0606  0.1363
  979SOL    HW2 3648   3.136   1.840   3.153 -0.2563 -0.1303  0.5989
  979SOL    HW3 3649   3.237   1.898   3.250 -0.7628  0.5474  0.7289
  979SOL    MW4 3650   3.184   1.907   3.181 -0.4428  0.6342  0.5173
  980SOL     OW 3651   1.452   3.449   5.266 -0.2593  0.0099 -0.0838
  980SOL    HW2 3652   1.452   3.445   5.171  0.1450  0.5629 -0.1112
  980SOL    HW3 3653   1.475   3.360   5.294  1.3959  0.2630 -0.5369
  980SOL    MW4 3654   1.455   3.437   5.257 -0.4126  0.7149 -0.2081
  981SOL     OW 3655   4.304   0.084   3.851 -0.2461 -0.4672 -0.2443
  981SOL    HW2 3656   4.349   0.119   3.774  0.3714  0.0120  0.3221
  981SOL    HW3 3657   4.215   0.118   3.844  0.0824  0.4262 -0.2206
  981SOL    MW4 3658   4.298   0.094   3.839  0.0116 -0.0438 -0.2962
  982SOL     OW 3659   2.037   5.035   4.834 -0.3909  0.1076  0.0604
  982SOL    HW2 3660   2.088   5.041   4.754 -0.8457 -0.0565 -0.2454
  982SOL    HW3 3661   2.066   5.110   4.886 -0.9241  0.8959 -0.7507
  982SOL    MW4 3662   2.048   5.046   4.830 -1.4001  0.0818 -0.3598
  983SOL     OW 3663   3.988   0.829   1.286  0.2699 -0.0297 -0.5130
  983SOL    HW2 3664   3.895   0.852   1.276  0.0315 -0.5802  0.3282
  983SOL    HW3 3665   3.996   0.803   1.378  0.9389 -1.4152 -0.9386
  983SOL    MW4 3666   3.977   0.829   1.297 -0.0559  0.7255 -0.0524
  984SOL     OW 3667   4.323   1.123   3.987  0.3473  0.3894 -0.1110
  984SOL    HW2 3668   4.253   1.169   4.033  0.3851  0.6034 -0.2666
  984SOL    HW3 3669   4.362   1.189   3.929  1.4560  0.6204  0.8443
  984SOL    MW4 3670   4.319   1.138   3.986 -0.3568 -0.0197 -0.1108
  985SOL     OW 3671   6.374   4.699   4.957  0.2612 -0.1221 -0.1561
  985SOL    HW2 3672   6.342   4.620   4.913  0.2805 -0.0232 -0.3505
  985SOL    HW3 3673   6.416   4.668   5.037 -0.0814 -0.2757 -0.0343
  985SOL    MW4 3674   6.375   4.685   4.962 -0.6138  0.1979 -0.5148
  986SOL     OW 3675   5.741   4.587   3.666 -0.0151  0.6078 -0.1945
  986SOL    HW2 3676   5.834   4.567   3.653  0.2972  2.1062 -0.4201
  986SOL    HW3 3677   5.697   4.543   3.593  0.1548 -2.3305  1.3214
  986SOL    MW4 3678   5.747   4.578   3.655 -0.3583 -0.0728  0.7037
  987SOL     OW 3679   4.192   0.307   5.914  0.3078  0.8104 -0.2680
  987SOL    HW2 3680   4.180   0.266   5.828  0.5432  1.5599 -0.6698
  987SOL    HW3 3681   4.255   0.251   5.959 -1.8984 -1.2098  0.5411
  987SOL    MW4 3682   4.199   0.294   5.909 -0.3982 -0.6349  0.1960
  988SOL     OW 3683   1.614   4.305   0.386 -0.2998  0.1470  0.0660
  988SOL    HW2 3684   1.579   4.386   0.421 -1.5660 -0.7158  0.8747
  988SOL    HW3 3685   1.565   4.291   0.305  0.1103  0.3192 -0.2156
  988SOL    MW4 3686   1.603   4.314   0.380  0.1435 -0.2827 -0.3267
  989SOL     OW 3687   1.847   2.984   2.637  0.4390 -0.4199 -0.3829
  989SOL    HW2 3688   1.928   2.959   2.591  0.5720 -2.9182  0.9987
  989SOL    HW3 3689   1.789   2.909   2.624  0.0749 -0.7347  2.4411
  989SOL    MW4 3690   1.850   2.971   2.629  0.0413 -0.5525 -0.0275
  990SOL     OW 3691   3.992   2.630   3.973  0.0035  0.2768 -0.5364
  990SOL    HW2 3692   4.071   2.577   3.964  0.2904  0.5546  0.2392
  990SOL    HW3 3693   4.018   2.717   3.941 -0.2494  0.1417 -1.1135
  990SOL    MW4 3694   4.006   2.635   3.968 -0.2861  0.4452  0.0895
  991SOL     OW 3695   2.173   3.836   4.335  0.3547 -0.1092  0.0081
  991SOL    HW2 3696   2.115   3.801   4.268  2.6698 -0.8029 -1.7998
  991SOL    HW3 3697   2.260   3.832   4.295  1.8755 -0.5395  3.0609
  991SOL    MW4 3698   2.177   3.831   4.321 -0.0165  0.7457 -0.4687
  992SOL     OW 3699   6.222   0.065   5.722  0.6308 -0.2821  0.5716
  992SOL    HW2 3700   6.258  -0.013   5.681 -0.4448 -0.6934  0.3838
  992SOL    HW3 3701   6.230   0.133   5.655  0.2423 -0.5847  0.2161
  992SOL    MW4 3702   6.228   0.064   5.708 -0.7853  0.4657  0.4184
  993SOL     OW 3703   1.816   4.395   3.024  0.5477  0.3954  0.7239
  993SOL    HW2 3704   1.877   4.457   2.983 -1.0853  0.5643 -1.6835
  993SOL    HW3 3705   1.793   4.334   2.953 -1.7499  0.1203  1.6276
  993SOL    MW4 3706   1.821   4.395   3.009  0.1999  1.0596  0.3884
  994SOL     OW 3707   2.853   0.128   2.342  0.1775  0.1774 -0.1913
  994SOL    HW2 3708   2.771   0.130   2.292  1.4724  2.3298 -2.4286
  994SOL    HW3 3709   2.912   0.076   2.289  1.1404  1.2132 -0.1621
  994SOL    MW4 3710   2.850   0.122   2.329  0.0689  0.6006  0.0415
  995SOL     OW 3711   3.014   0.264   4.626 -0.1654  0.1334 -0.2635
  995SOL    HW2 3712   3.102   0.293   4.603 -0.1026  0.1213 -0.0404
  995SOL    HW3 3713   2.961   0.344   4.623  0.0128  0.2814  0.3712
  995SOL    MW4 3714   3.018   0.278   4.623 -0.6617 -0.3263  0.5388
  996SOL     OW 3715   6.336   0.257   2.029  0.2508 -0.4453 -0.0109
  996SOL    HW2 3716   6.309   0.248   1.937 -0.8222 -1.5318  0.3848
  996SOL    HW3 3717   6.262   0.300   2.071  1.5546  1.9796  0.0004
  996SOL    MW4 3718   6.323   0.262   2.022 -0.2283 -0.3942  0.0603
  997SOL     OW 3719   0.408   6.178   6.148 -0.2414 -0.2940  0.0388
  997SOL    HW2 3720   0.323   6.213   6.176 -0.3536 -1.0150  0.6660
  997SOL    HW3 3721   0.467   6.198   6.221 -0.1518 -0.7965  0.1091
  997SOL    MW4 3722   0.405   6.185   6.161 -0.2381 -0.1761 -0.1349
  998SOL     OW 3723   2.011   2.132   4.418 -0.3652  0.5717 -0.1659
  998SOL    HW2 3724   1.988   2.040   4.433 -0.0098  0.4311 -0.4762
  998SOL    HW3 3725   2.105   2.136   4.434 -0.8165  1.4665  2.6656
  998SOL    MW4 3726   2.020   2.120   4.422 -0.2298 -0.0492  0.1613
  999SOL     OW 3727   5.659   0.413   2.489 -0.0358  0.1893 -0.1967
  999SOL    HW2 3728   5.633   0.458   2.570  2.3975  0.0811  0.7069
  999SOL    HW3 3729   5.692   0.483   2.432  1.0495 -0.0981  0.0780
  999SOL    MW4 3730   5.660   0.428   2.492  0.5644  0.6180  0.2775
 1000SOL     OW 3731   1.910   0.318   4.935 -0.1891  0.1935 -0.1469
 1000SOL    HW2 3732   1.886   0.329   4.843  1.5057  2.1908 -0.4298
 1000SOL    HW3 3733   2.004   0.336   4.937 -0.2758  0.5886  2.0300
 1000SOL    MW4 3734   1.919   0.322   4.923  0.2194 -0.0106 -0.3861
 1001SOL     OW 3735   5.288   2.388   5.787  0.1457 -0.1725  0.8157
 1001SOL    HW2 3736   5.345   2.449   5.835 -0.3784 -0.3136  1.6306
 1001SOL    HW3 3737   5.297   2.414   5.696 -0.2566  1.2853  1.1733
 1001SOL    MW4 3738   5.297   2.399   5.781 -0.4680 -0.2700 -0.2094
 1002SOL     OW 3739   1.833   4.489   3.577 -0.5480  0.6979  0.3133
 1002SOL    HW2 3740   1.891   4.529   3.512  0.8393 -0.2231  0.9324
 1002SOL    HW3 3741   1.874   4.507   3.661 -0.2840 -1.2828  0.6692
 1002SOL    MW4 3742   1.846   4.497   3.580 -0.0351 -0.0020 -0.1635
 1003SOL     OW 3743   3.250   0.751   3.079 -0.1721 -0.1636  0.1933
 1003SOL    HW2 3744   3.265   0.799   2.997  2.2825 -1.6181 -0.3018
 1003SOL    HW3 3745   3.160   0.720   3.073 -0.6279  1.3004 -1.1025
 1003SOL    MW4 3746   3.240   0.753   3.068  0.3601  0.1958  0.0944
 1004SOL     OW 3747   0.074   5.539   1.839 -0.1636 -0.2042 -0.2409
 1004SOL    HW2 3748   0.157   5.504   1.868 -0.6410 -0.7068  0.5500
 1004SOL    HW3 3749   0.092   5.631   1.819  0.5340 -0.2636  0.1061
 1004SOL    MW4 3750   0.087   5.547   1.840 -0.0584 -0.1488 -0.4683
 1005SOL     OW 3751   2.139   4.714   6.039 -0.1783 -0.5065  0.8911
 1005SOL    HW2 3752   2.197   4.772   6.087 -0.6381  0.3206  0.4620
 1005SOL    HW3 3753   2.072   4.687   6.102 -0.8669  0.6937  0.6993
 1005SOL    MW4 3754   2.138   4.718   6.054 -0.1132  0.4132 -0.1743
 1006SOL     OW 3755   1.261   4.800   2.431 -0.2355 -0.3326  0.4403
 1006SOL    HW2 3756   1.287   4.762   2.515 -1.2342 -1.7523  0.1404
 1006SOL    HW3 3757   1.338   4.788   2.375 -0.3703 -1.5034  0.4886
 1006SOL    MW4 3758   1.275   4.793   2.435  0.2048  0.1067 -0.3823
 1007SOL     OW 3759   6.342   4.748   5.662 -0.1344  0.8159  0.1708
 1007SOL    HW2 3760   6.371   4.796   5.585 -0.6792  0.3883 -0.3114
 1007SOL    HW3 3761   6.309   4.665   5.628  1.2352 -0.1204  1.0410
 1007SOL    MW4 3762   6.341   4.744   5.647  0.0235  0.6732  0.4012
 1008SOL     OW 3763   4.740   4.132   5.828 -0.0309 -0.3670  0.0587
 1008SOL    HW2 3764   4.809   4.066   5.821 -1.4594 -1.8163 -1.5113
 1008SOL    HW3 3765   4.677   4.093   5.889 -0.2044  0.2474  0.2824
 1008SOL    MW4 3766   4.740   4.118   5.835  0.0913  0.1063 -0.0241
 1009SOL     OW 3767   2.821   2.860   0.602 -0.6448  0.3371 -0.1623
 1009SOL    HW2 3768   2.806   2.772   0.568  0.2944 -0.5939  1.7016
 1009SOL    HW3 3769   2.746   2.877   0.660 -0.4487  0.4776  0.0512
 1009SOL    MW4 3770   2.809   2.851   0.605  0.2645  0.2360  0.5244
 1010SOL     OW 3771   3.504   1.191   5.721 -0.3094  0.5200  0.2469
 1010SOL    HW2 3772   3.456   1.120   5.679  1.4891  1.2339 -3.4847
 1010SOL    HW3 3773   3.455   1.270   5.700  0.6173  0.9000 -0.5549
 1010SOL    MW4 3774   3.491   1.192   5.713 -0.3126 -0.5578  0.5691
 1011SOL     OW 3775   4.621   3.480   6.292 -0.1246 -0.6129  0.5022
 1011SOL    HW2 3776   4.623   3.387   6.268  0.0347 -0.2550 -0.9823
 1011SOL    HW3 3777   4.594   3.481   6.383  0.3417 -2.1450  0.6843
 1011SOL    MW4 3778   4.618   3.468   6.301  0.0697  0.6818 -0.1377
 1012SOL     OW 3779   1.700   5.735   2.808 -0.0407 -0.0244 -0.8480
 1012SOL    HW2 3780   1.691   5.644   2.834 -2.0129 -0.1383 -1.7935
 1012SOL    HW3 3781   1.627   5.780   2.851  2.0443  1.5757  1.2895
 1012SOL    MW4 3782   1.689   5.729   2.817 -0.1825  0.1222  0.0581
 1013SOL     OW 3783   5.201   4.676   1.927 -0.0778 -0.2613  0.4818
 1013SOL    HW2 3784   5.212   4.768   1.953  1.9693 -0.4100  0.3400
 1013SOL    HW3 3785   5.288   4.638   1.942 -0.4692 -1.7892 -0.9894
 1013SOL    MW4 3786   5.214   4.683   1.933  0.3379  0.0544  0.7582
 1014SOL     OW 3787   3.454   2.019   2.607 -0.0090  0.4024  0.0889
 1014SOL    HW2 3788   3.393   2.061   2.668 -0.8311  0.0446 -0.4568
 1014SOL    HW3 3789   3.456   2.079   2.532  1.6812  1.2862  0.7946
 1014SOL    MW4 3790   3.446   2.033   2.605 -0.0321  0.6507 -0.9150
 1015SOL     OW 3791   3.630   1.161   3.230 -0.0749 -0.0395  0.1882
 1015SOL    HW2 3792   3.611   1.255   3.223 -1.4103 -0.3383 -0.4813
 1015SOL    HW3 3793   3.589   1.135   3.313  0.4194 -0.0269  0.4462
 1015SOL    MW4 3794   3.622   1.170   3.240 -0.0771  0.2113 -0.3046
 1016SOL     OW 3795   1.729   4.498   6.012 -0.2630 -0.2091 -0.1661
 1016SOL    HW2 3796   1.634   4.485   6.006 -0.3786  0.9294 -1.4853
 1016SOL    HW3 3797   1.750   4.485   6.104 -1.5749 -1.2763  0.0059
 1016SOL    MW4 3798   1.719   4.495   6.023  0.4652 -0.1539  0.6064
 1017SOL     OW 3799   5.320   1.389   6.077 -0.3943 -0.6681 -0.5680
 1017SOL    HW2 3800   5.251   1.375   6.012  1.4870  1.1317 -3.1853
 1017SOL    HW3 3801   5.393   1.334   6.046 -0.6051 -2.8158  2.3233
 1017SOL    MW4 3802   5.321   1.380   6.064  0.4407 -0.6943 -0.0021
 1018SOL     OW 3803   5.667   5.627   3.952 -0.3476 -0.3240 -1.0029
 1018SOL    HW2 3804   5.740   5.649   3.894 -0.1464  0.6691 -0.3911
 1018SOL    HW3 3805   5.692   5.664   4.037 -2.1322  1.1558 -1.0767
 1018SOL    MW4 3806   5.680   5.635   3.956 -0.1966  0.1490 -0.5378
 1019SOL     OW 3807   6.104   0.907   4.507 -0.1564 -0.2628  0.7118
 1019SOL    HW2 3808   6.158   0.864   4.574 -1.1181 -0.0825  1.6195
 1019SOL    HW3 3809   6.060   0.835   4.462 -0.1817 -0.3329  0.8501
 1019SOL    MW4 3810   6.105   0.892   4.510  0.1754 -0.5046 -0.2215
 1020SOL     OW 3811   3.045   2.207   3.460 -0.7420 -0.1913  0.1809
 1020SOL    HW2 3812   3.004   2.151   3.395 -0.5019  0.8946 -0.9372
 1020SOL    HW3 3813   3.123   2.243   3.416  0.1319 -0.4093  1.4834
 1020SOL    MW4 3814   3.050   2.205   3.446 -0.2258  0.3528 -0.0321
 1021SOL     OW 3815   5.703   2.702   3.357  0.1755  0.0954 -0.2513
 1021SOL    HW2 3816   5.722   2.715   3.264  0.5242 -0.2042 -0.2211
 1021SOL    HW3 3817   5.701   2.791   3.393  1.1928  0.1476 -0.3200
 1021SOL    MW4 3818   5.705   2.716   3.349  0.1700 -0.0007 -0.0450
 1022SOL     OW 3819   4.174   5.104   6.089  0.5792  0.4406  0.4420
 1022SOL    HW2 3820   4.173   5.193   6.054  1.1383  0.4389  0.4083
 1022SOL    HW3 3821   4.248   5.062   6.045  0.2433 -0.0791  0.3636
 1022SOL    MW4 3822   4.184   5.110   6.078  0.3040 -0.0278  0.1655
 1023SOL     OW 3823   0.885   2.126   0.842  0.1473  0.1605 -0.6885
 1023SOL    HW2 3824   0.839   2.201   0.881  0.8618 -0.6464  1.9225
 1023SOL    HW3 3825   0.956   2.165   0.790 -1.2662  1.3064 -1.8454
 1023SOL    MW4 3826   0.889   2.141   0.840 -0.1967 -0.2863  0.0359
 1024SOL     OW 3827   4.663   3.435   2.911  0.1257 -0.0029 -0.7765
 1024SOL    HW2 3828   4.749   3.412   2.944  0.1165  0.2621 -0.5651
 1024SOL    HW3 3829   4.642   3.366   2.848  0.7064  0.2016 -1.2025
 1024SOL    MW4 3830   4.672   3.423   2.907  0.2098 -0.0122 -0.1477
 1025SOL     OW 3831   5.270   2.136   4.488 -0.0091  0.4213 -0.0170
 1025SOL    HW2 3832   5.250   2.083   4.411  0.1869 -0.9164  0.8191
 1025SOL    HW3 3833   5.238   2.224   4.466 -0.0365  0.0469 -1.5698
 1025SOL    MW4 3834   5.263   2.141   4.475 -0.1282  0.1812  0.6825
 1026SOL     OW 3835   4.389   4.124   2.009 -0.5672 -0.1791 -0.2966
 1026SOL    HW2 3836   4.406   4.068   1.933 -0.5191  1.3862 -1.5004
 1026SOL    HW3 3837   4.309   4.172   1.986 -1.5048 -0.8640  1.3805
 1026SOL    MW4 3838   4.380   4.123   1.996 -0.3720 -0.9025 -0.0082
 1027SOL     OW 3839   4.124   5.287   4.182 -0.1862 -0.2839 -0.0619
 1027SOL    HW2 3840   4.192   5.231   4.145 -1.4330 -1.8167 -0.1138
 1027SOL    HW3 3841   4.141   5.286   4.276 -2.3054 -3.8581  0.4438
 1027SOL    MW4 3842   4.136   5.280   4.189  0.1790  0.4973 -0.0108
 1028SOL     OW 3843   5.423   1.328   3.726 -0.2097 -0.5361 -0.3386
 1028SOL    HW2 3844   5.396   1.237   3.715  1.3436 -0.9827 -0.7330
 1028SOL    HW3 3845   5.412   1.345   3.820 -0.3383 -1.1912 -0.2306
 1028SOL    MW4 3846   5.418   1.318   3.737  0.3992 -0.4990  0.7497
 1029SOL     OW 3847   0.446   1.716   4.892 -0.2364 -0.0058  0.2614
 1029SOL    HW2 3848   0.540   1.702   4.904 -0.1945 -0.4297 -0.5175
 1029SOL    HW3 3849   0.431   1.701   4.799 -0.8408  1.4533  0.0926
 1029SOL    MW4 3850   0.456   1.712   4.882  0.0861  0.1663  0.2167
 1030SOL     OW 3851   1.882   0.406   1.082 -0.1479  0.1467 -0.1223
 1030SOL    HW2 3852   1.893   0.327   1.030  1.3857  0.5388 -0.4179
 1030SOL    HW3 3853   1.808   0.452   1.041  0.4249 -0.0144 -1.3625
 1030SOL    MW4 3854   1.873   0.402   1.070  0.1976  0.2111 -0.3959
 1031SOL     OW 3855   5.371   2.354   2.096 -0.7758  0.3881  0.2603
 1031SOL    HW2 3856   5.356   2.337   2.003  0.9665 -2.2470  0.3380
 1031SOL    HW3 3857   5.326   2.282   2.140 -0.7370  1.0460  1.3951
 1031SOL    MW4 3858   5.363   2.342   2.089  0.4162  0.0970  0.6673
 1032SOL     OW 3859   2.608   0.684   1.724 -0.4139 -0.5531  0.3461
 1032SOL    HW2 3860   2.596   0.609   1.666 -1.2578 -0.2701  0.1508
 1032SOL    HW3 3861   2.541   0.746   1.698  1.3313  1.0038 -0.6381
 1032SOL    MW4 3862   2.598   0.682   1.713  0.4102  0.5379 -0.0475
 1033SOL     OW 3863   2.070   4.900   6.393  0.0422 -0.1686  0.3102
 1033SOL    HW2 3864   2.001   4.908   6.459 -0.9113 -0.7241 -0.5869
 1033SOL    HW3 3865   2.025   4.915   6.310  0.7405 -1.7152 -0.3815
 1033SOL    MW4 3866   2.055   4.903   6.391 -0.1006  0.2745  0.2063
 1034SOL     OW 3867   2.834   4.457   6.233 -0.0941  0.1167 -0.1062
 1034SOL    HW2 3868   2.889   4.499   6.299 -1.8264  0.5050  1.1520
 1034SOL    HW3 3869   2.807   4.528   6.175  1.3854 -0.2163 -1.2731
 1034SOL    MW4 3870   2.838   4.472   6.234 -0.2415 -0.0529 -0.3437
 1035SOL     OW 3871   3.124   3.387   4.278 -0.4513 -0.5173  0.0757
 1035SOL    HW2 3872   3.112   3.302   4.320 -1.5484 -0.2082  0.4305
 1035SOL    HW3 3873   3.172   3.440   4.342 -0.5404 -0.6035  0.2144
 1035SOL    MW4 3874   3.129   3.383   4.292 -0.1399  0.0459  0.2812
 1036SOL     OW 3875   4.113   1.042   2.715  0.1654  0.0262 -0.0157
 1036SOL    HW2 3876   4.060   0.964   2.704  1.2163 -0.9336  1.3869
 1036SOL    HW3 3877   4.051   1.115   2.706 -1.0849 -0.9948  0.0600
 1036SOL    MW4 3878   4.098   1.041   2.712  0.0081  0.0025 -0.0320
 1037SOL     OW 3879   0.202   1.542   3.204  0.3608 -0.4382  0.2183
 1037SOL    HW2 3880   0.249   1.496   3.134 -2.9520  0.2964 -2.7834
 1037SOL    HW3 3881   0.156   1.473   3.252  0.0562 -0.7116 -0.4630
 1037SOL    MW4 3882   0.202   1.527   3.201  0.2830  0.1886  0.6228
 1038SOL     OW 3883   2.223   1.675   5.020 -0.1655 -0.3747 -0.4239
 1038SOL    HW2 3884   2.274   1.598   4.994 -2.8560 -2.5275  0.0876
 1038SOL    HW3 3885   2.138   1.639   5.047 -2.1899  2.9307 -1.7064
 1038SOL    MW4 3886   2.218   1.660   5.020 -0.0650  0.3237  0.1737
 1039SOL     OW 3887   3.689   5.320   1.696  0.1724  0.2679 -0.4653
 1039SOL    HW2 3888   3.684   5.290   1.787 -1.3282 -1.2169 -0.9908
 1039SOL    HW3 3889   3.691   5.416   1.703 -0.8101  0.2181  1.1231
 1039SOL    MW4 3890   3.688   5.329   1.709  0.5436  0.0594  0.2133
 1040SOL     OW 3891   2.893   6.425   1.822  0.3344  0.1599  0.0348
 1040SOL    HW2 3892   2.912   6.350   1.878  0.9022  0.2033 -0.0957
 1040SOL    HW3 3893   2.863   6.387   1.739 -0.9768  0.0997  0.5210
 1040SOL    MW4 3894   2.891   6.410   1.818  0.5221 -0.1412 -0.0755
 1041SOL     OW 3895   4.587   3.727   0.337  0.5168 -0.0914  0.0096
 1041SOL    HW2 3896   4.507   3.742   0.287  1.0064  0.5672 -0.5902
 1041SOL    HW3 3897   4.588   3.633   0.354 -1.3750  0.1175  1.7121
 1041SOL    MW4 3898   4.577   3.716   0.333 -0.0253 -0.1772 -0.4081
 1042SOL     OW 3899   0.239   5.684   1.552 -0.1856  0.1360  0.2134
 1042SOL    HW2 3900   0.184   5.645   1.485  0.0754 -0.4044  0.3100
 1042SOL    HW3 3901   0.293   5.612   1.585  2.1892  1.0180 -1.4350
 1042SOL    MW4 3902   0.239   5.670   1.548  0.5306 -0.8668 -0.0784
 1043SOL     OW 3903   1.561   0.199   3.280  0.4320 -0.3908  0.2306
 1043SOL    HW2 3904   1.626   0.267   3.296  1.1694 -1.1528  0.6000
 1043SOL    HW3 3905   1.608   0.117   3.296 -0.5762 -0.9707  0.3474
 1043SOL    MW4 3906   1.576   0.197   3.284 -0.0531 -0.7384 -0.0584
 1044SOL     OW 3907   0.109   4.051   5.037 -0.3353  0.4218  0.5323
 1044SOL    HW2 3908   0.061   4.132   5.018  0.2979  1.0590  1.5008
 1044SOL    HW3 3909   0.067   4.017   5.116 -0.3252  0.0416  0.3724
 1044SOL    MW4 3910   0.097   4.057   5.045  0.1597  0.5926 -0.0633
 1045SOL     OW 3911   5.844   3.239   1.201  0.1335 -0.3572 -0.0482
 1045SOL    HW2 3912   5.799   3.179   1.142 -0.5120 -0.4112  0.4857
 1045SOL    HW3 3913   5.850   3.321   1.152  1.4919 -0.9874 -0.9858
 1045SOL    MW4 3914   5.839   3.242   1.187  0.1472 -0.1611  0.5764
 1046SOL     OW 3915   5.086   3.720   2.719 -0.4046 -0.2635  0.0898
 1046SOL    HW2 3916   5.033   3.766   2.654 -1.0177 -3.1718 -1.6115
 1046SOL    HW3 3917   5.024   3.700   2.789 -1.1049 -1.7353 -0.8998
 1046SOL    MW4 3918   5.070   3.723   2.720 -0.3205 -0.0568 -0.4573
 1047SOL     OW 3919   0.147   5.889   2.076 -0.0275 -0.4158  0.2839
 1047SOL    HW2 3920   0.118   5.855   1.992 -0.5484  1.6931 -0.4453
 1047SOL    HW3 3921   0.075   5.945   2.106  0.4589 -0.5403  1.7784
 1047SOL    MW4 3922   0.134   5.892   2.069  0.5493  0.3781 -0.2176
 1048SOL     OW 3923   1.630   1.849   0.531 -0.2237 -0.1547  0.4126
 1048SOL    HW2 3924   1.600   1.842   0.441  0.7153  0.7371  0.0154
 1048SOL    HW3 3925   1.710   1.796   0.533  0.6273  1.0797  0.2931
 1048SOL    MW4 3926   1.636   1.841   0.519 -0.4928  0.3122  0.1158
 1049SOL     OW 3927   5.588   1.785   4.674 -0.3342  0.1823  0.1441
 1049SOL    HW2 3928   5.584   1.689   4.677 -0.5414  0.1887  0.0790
 1049SOL    HW3 3929   5.534   1.809   4.599 -0.7922  0.3843  0.5288
 1049SOL    MW4 3930   5.580   1.776   4.665 -0.3904 -0.3248 -0.1877
 1050SOL     OW 3931   3.608   2.211   4.441  0.4676 -0.7713 -0.1218
 1050SOL    HW2 3932   3.686   2.223   4.387  2.1856  1.3278  2.5752
 1050SOL    HW3 3933   3.631   2.139   4.501 -0.9498 -2.2523 -1.2475
 1050SOL    MW4 3934   3.621   2.203   4.442 -0.4555  0.5565  0.2587
 1051SOL     OW 3935   3.983   1.524   2.764 -0.0356  0.2811 -0.3910
 1051SOL    HW2 3936   4.005   1.596   2.705  0.8471 -0.1409 -0.6050
 1051SOL    HW3 3937   4.043   1.535   2.838  0.7814 -0.7532 -0.8625
 1051SOL    MW4 3938   3.994   1.535   2.766  0.0112 -0.1337  0.1798
 1052SOL     OW 3939   0.697   2.563   2.343  0.1582  0.6096  0.0446
 1052SOL    HW2 3940   0.624   2.619   2.317 -0.4010  0.8530  1.9963
 1052SOL    HW3 3941   0.774   2.621   2.339 -0.1367  1.0267  0.3522
 1052SOL    MW4 3942   0.698   2.578   2.339 -0.1963 -0.0370 -0.6290
 1053SOL     OW 3943   1.539   2.023   4.829  0.3733 -0.5228  0.2763
 1053SOL    HW2 3944   1.467   2.003   4.769  0.3209 -0.3557  0.2837
 1053SOL    HW3 3945   1.538   2.118   4.837 -0.6517 -0.6270  1.7925
 1053SOL    MW4 3946   1.529   2.033   4.822  0.2741 -0.2514  0.2623
 1054SOL     OW 3947   3.651   5.014   3.763  0.1658  0.0629 -0.5557
 1054SOL    HW2 3948   3.558   5.020   3.740 -0.2312 -0.7993  0.7306
 1054SOL    HW3 3949   3.674   4.922   3.747  0.3860 -0.0881  0.5541
 1054SOL    MW4 3950   3.642   5.002   3.757 -0.3594 -0.1544 -0.0108
 1055SOL     OW 3951   3.589   2.525   5.474  0.2304  0.6299 -0.1875
 1055SOL    HW2 3952   3.639   2.498   5.397 -2.6707 -0.5658 -1.7956
 1055SOL    HW3 3953   3.525   2.587   5.440 -1.5085 -0.3721  1.1181
 1055SOL    MW4 3954   3.587   2.530   5.459 -0.2885  0.2448  0.2460
 1056SOL     OW 3955   5.924   2.900   5.915 -0.2712 -0.3977  0.5330
 1056SOL    HW2 3956   5.908   2.835   5.984 -0.8493 -0.8573 -0.0218
 1056SOL    HW3 3957   5.843   2.950   5.909  0.8459  1.8285  2.3964
 1056SOL    MW4 3958   5.911   2.898   5.923 -0.2998 -0.0353  0.1296
 1057SOL     OW 3959   2.410   1.588   0.033  0.2084  0.4470  0.2932
 1057SOL    HW2 3960   2.427   1.553  -0.055  1.4831  0.3957  0.5392
 1057SOL    HW3 3961   2.317   1.611   0.032 -0.4256 -1.8517 -0.2668
 1057SOL    MW4 3962   2.400   1.586   0.021 -0.3942  0.5910  0.0032
 1058SOL     OW 3963   5.617   0.735   4.251  0.6717  0.0498  0.0483
 1058SOL    HW2 3964   5.607   0.817   4.298  1.7285 -0.2101  0.7870
 1058SOL    HW3 3965   5.574   0.670   4.307 -0.8462  0.1839 -0.9065
 1058SOL    MW4 3966   5.610   0.737   4.265  0.7796  0.2301 -0.0029
 1059SOL     OW 3967   0.782   6.428   3.277 -0.2993 -0.4248 -0.0704
 1059SOL    HW2 3968   0.728   6.380   3.340  0.3521 -1.3287 -0.1766
 1059SOL    HW3 3969   0.773   6.378   3.195  0.7480 -0.6317 -0.0672
 1059SOL    MW4 3970   0.774   6.415   3.274 -0.7653  0.2199 -0.3531
 1060SOL     OW 3971   2.746   1.950   4.615  0.3221  0.2048  0.0888
 1060SOL    HW2 3972   2.674   2.004   4.581  0.7618  0.7261 -0.0160
 1060SOL    HW3 3973   2.770   1.992   4.697  1.2681  0.6929 -0.4336
 1060SOL    MW4 3974   2.739   1.963   4.622  0.0738  0.2655  0.7232
 1061SOL     OW 3975   1.392   6.210   2.241 -0.4586 -0.3169  0.0146
 1061SOL    HW2 3976   1.375   6.199   2.148 -0.3283  0.1960 -0.0723
 1061SOL    HW3 3977   1.345   6.289   2.265 -0.1905 -0.2396  0.3015
 1061SOL    MW4 3978   1.384   6.219   2.232 -0.2267  0.0496 -0.1587
 1062SOL     OW 3979   4.626   2.573   5.110  0.0908 -1.0428 -0.5018
 1062SOL    HW2 3980   4.649   2.641   5.174 -1.2620 -0.0428 -1.0406
 1062SOL    HW3 3981   4.681   2.498   5.135  0.8995 -0.0920  0.7178
 1062SOL    MW4 3982   4.636   2.572   5.122 -0.4697  0.1451 -0.5142
 1063SOL     OW 3983   3.558   2.208   1.459  0.1002 -0.1101 -0.6487
 1063SOL    HW2 3984   3.610   2.277   1.499 -1.0837  1.3163 -1.4982
 1063SOL    HW3 3985   3.487   2.192   1.522  1.0905 -1.5493  0.1719
 1063SOL    MW4 3986   3.556   2.215   1.473 -0.5522 -0.0692 -0.2334
 1064SOL     OW 3987   5.213   1.608   5.129  0.1686  0.1542 -0.0040
 1064SOL    HW2 3988   5.272   1.684   5.125  0.3547  0.0208  0.2374
 1064SOL    HW3 3989   5.250   1.546   5.066  0.2819  0.0729  0.1433
 1064SOL    MW4 3990   5.226   1.610   5.120 -0.1617  0.6563 -0.2182
 1065SOL     OW 3991   3.865   3.243   6.040  0.7937  0.4616  0.4011
 1065SOL    HW2 3992   3.884   3.337   6.041 -0.0082  0.6333  0.0350
 1065SOL    HW3 3993   3.790   3.233   6.099  2.2229 -0.2695  2.2008
 1065SOL    MW4 3994   3.858   3.254   6.048  0.3450 -0.3352 -0.1340
 1066SOL     OW 3995   5.449   2.921   5.530 -0.0283 -0.6312 -0.4833
 1066SOL    HW2 3996   5.444   2.959   5.618  1.4575 -0.7514 -0.3267
 1066SOL    HW3 3997   5.434   2.994   5.471  1.3454 -0.0671 -0.1578
 1066SOL    MW4 3998   5.446   2.935   5.534  0.5887 -0.0193  0.5854
 1067SOL     OW 3999   5.265   2.118   5.854 -0.1108  0.3704  0.1112
 1067SOL    HW2 4000   5.345   2.108   5.906  0.7966  0.3879 -1.2199
 1067SOL    HW3 4001   5.261   2.211   5.833  0.0500  0.2277 -0.5982
 1067SOL    MW4 4002   5.275   2.129   5.858 -0.3073 -0.2484 -0.7377
 1068SOL     OW 4003   5.090   3.912   0.001 -0.0414 -0.2366 -0.5880
 1068SOL    HW2 4004   5.008   3.898  -0.046  0.1845  0.0826 -1.0774
 1068SOL    HW3 4005   5.078   3.865   0.084 -1.1391  0.7378 -0.1751
 1068SOL    MW4 4006   5.078   3.904   0.006  0.2499  0.1989  0.7318
 1069SOL     OW 4007   1.702   4.717   5.840 -0.2628 -0.0904 -0.2118
 1069SOL    HW2 4008   1.733   4.655   5.774  0.0376  0.8442 -0.9729
 1069SOL    HW3 4009   1.705   4.668   5.923  0.2177 -0.9935 -0.7495
 1069SOL    MW4 4010   1.706   4.702   5.843  0.3132  0.1992  0.0970
 1070SOL     OW 4011   2.837   0.320   5.380  0.3181  0.2851 -0.5365
 1070SOL    HW2 4012   2.873   0.354   5.462  0.1171 -1.1043  0.1601
 1070SOL    HW3 4013   2.796   0.237   5.404  0.7867 -0.4649 -2.1448
 1070SOL    MW4 4014   2.837   0.314   5.394  0.1685 -0.5929 -0.1971
 1071SOL     OW 4015   2.170   4.772   2.381 -0.2415  0.0207 -0.2155
 1071SOL    HW2 4016   2.144   4.857   2.347 -0.2659  0.2363  0.3424
 1071SOL    HW3 4017   2.262   4.762   2.354  0.0314  0.6118  0.4830
 1071SOL    MW4 4018   2.179   4.782   2.373  0.2660  0.0929  0.1381
 1072SOL     OW 4019   6.128   4.516   6.367 -0.3860 -0.2390 -0.2099
 1072SOL    HW2 4020   6.152   4.472   6.449  1.3431 -0.4372 -0.7729
 1072SOL    HW3 4021   6.166   4.604   6.375  2.2008 -1.1050 -1.8227
 1072SOL    MW4 4022   6.136   4.522   6.379  0.5393 -0.4090 -0.3602
 1073SOL     OW 4023   0.665   4.235   4.050  0.2557  0.0956  0.2966
 1073SOL    HW2 4024   0.681   4.148   4.088  2.0051  0.3694  0.2476
 1073SOL    HW3 4025   0.605   4.218   3.977  0.0519 -0.9804  0.6973
 1073SOL    MW4 4026   0.659   4.221   4.045 -0.2196 -0.4746 -0.0184
 1074SOL     OW 4027   3.895   5.798   0.801  0.1091 -0.1897 -0.7100
 1074SOL    HW2 4028   3.816   5.852   0.806  0.0512 -0.1690 -1.5839
 1074SOL    HW3 4029   3.949   5.840   0.734  0.0150 -1.2541 -1.4819
 1074SOL    MW4 4030   3.892   5.811   0.793 -0.0596  0.2041 -0.3928
 1075SOL     OW 4031   3.263   0.969   2.225 -0.9523 -0.1359 -0.3213
 1075SOL    HW2 4032   3.184   0.930   2.262 -2.2308  2.4086 -0.1606
 1075SOL    HW3 4033   3.318   0.991   2.300 -1.0461  0.0345 -0.3039
 1075SOL    MW4 4034   3.260   0.967   2.239 -0.3082  0.0205  0.0092
 1076SOL     OW 4035   3.231   2.004   6.168 -0.1354  0.1085  0.5152
 1076SOL    HW2 4036   3.138   2.006   6.190 -0.4072  0.5319 -0.5793
 1076SOL    HW3 4037   3.253   2.096   6.150 -0.1058 -0.2430 -1.4960
 1076SOL    MW4 4038   3.222   2.017   6.169 -0.3695  0.0658  0.3606
 1077SOL     OW 4039   5.142   4.003   3.821 -0.0281  0.1228  0.1651
 1077SOL    HW2 4040   5.227   3.964   3.842 -0.5965 -1.6599 -0.6038
 1077SOL    HW3 4041   5.078   3.945   3.863 -0.8906  1.5776  0.9549
 1077SOL    MW4 4042   5.145   3.990   3.829  0.8217  0.4092  0.1346
 1078SOL     OW 4043   1.436   0.286   3.665 -0.1846 -0.1354  0.4014
 1078SOL    HW2 4044   1.453   0.360   3.606  2.0763 -0.6020  0.3886
 1078SOL    HW3 4045   1.386   0.224   3.611  0.1705  0.2658 -0.4089
 1078SOL    MW4 4046   1.431   0.288   3.650 -0.1776 -0.7895 -0.3593
 1079SOL     OW 4047   2.675   5.037   5.296 -0.1259 -0.1651  1.3329
 1079SOL    HW2 4048   2.626   4.957   5.276 -0.5887  0.2021  0.9787
 1079SOL    HW3 4049   2.644   5.101   5.232  1.3975 -0.1389  0.5792
 1079SOL    MW4 4050   2.664   5.035   5.285 -0.3370 -0.2494 -0.1922
 1080SOL     OW 4051   0.102   0.998   4.621 -0.1001  0.1886  0.2215
 1080SOL    HW2 4052   0.040   0.953   4.563  0.8946  0.8842 -1.4437
 1080SOL    HW3 4053   0.131   0.930   4.682 -0.3767 -0.8647 -0.7769
 1080SOL    MW4 4054   0.098   0.983   4.622  0.4756 -0.1862  0.3689
 1081SOL     OW 4055   2.442   2.329  -0.030  0.2088  0.0304  0.1060
 1081SOL    HW2 4056   2.513   2.329  -0.094 -0.4921 -0.0152 -0.6958
 1081SOL    HW3 4057   2.420   2.237  -0.018  0.0815  0.0621  0.1187
 1081SOL    MW4 4058   2.449   2.317  -0.037  0.5481  0.7182  0.3851
 1082SOL     OW 4059   0.534   1.178   3.861 -0.0211  0.2387 -0.1365
 1082SOL    HW2 4060   0.509   1.256   3.812 -0.4299  0.3885  0.3010
 1082SOL    HW3 4061   0.552   1.209   3.950  1.6414  0.1149 -0.4000
 1082SOL    MW4 4062   0.533   1.192   3.867 -0.2221  0.3914 -0.6147
 1083SOL     OW 4063   6.430   2.911   6.230  0.8910 -0.8003  0.0626
 1083SOL    HW2 4064   6.460   2.931   6.319  0.5274  2.3266 -0.4019
 1083SOL    HW3 4065   6.335   2.922   6.234  0.8053 -1.2441 -0.5914
 1083SOL    MW4 4066   6.422   2.915   6.242 -0.3575 -0.2571 -0.1802
 1084SOL     OW 4067   6.010   4.788   3.878  0.6980 -0.1889  0.6312
 1084SOL    HW2 4068   5.944   4.746   3.934  0.5882 -0.9245 -0.0342
 1084SOL    HW3 4069   5.969   4.870   3.851 -1.3796 -1.9783 -2.3457
 1084SOL    MW4 4070   5.996   4.793   3.882 -0.0325  0.4369  0.0846
 1085SOL     OW 4071   1.128   1.096   4.703  0.2622  0.2116  0.1041
 1085SOL    HW2 4072   1.151   1.025   4.643 -0.7566 -0.7229  0.7629
 1085SOL    HW3 4073   1.211   1.139   4.724  0.8234 -0.4369 -0.7353
 1085SOL    MW4 4074   1.142   1.092   4.698  0.1003 -0.3320 -0.2547
 1086SOL     OW 4075   2.515   3.354   2.873  0.1760  0.6107 -0.4995
 1086SOL    HW2 4076   2.507   3.260   2.886  1.3140  0.5365 -0.2545
 1086SOL    HW3 4077   2.580   3.363   2.803 -1.7077  1.1659 -2.2842
 1086SOL    MW4 4078   2.523   3.343   2.866  0.2286  0.4181 -0.1173
 1087SOL     OW 4079   5.630   1.862   5.326 -0.6166 -0.1793 -0.0773
 1087SOL    HW2 4080   5.684   1.850   5.404  1.4109  0.7498 -1.2552
 1087SOL    HW3 4081   5.662   1.797   5.264 -0.9293  0.3278 -0.7790
 1087SOL    MW4 4082   5.641   1.852   5.328  0.2736  0.4537  0.2801
 1088SOL     OW 4083   1.870   1.175   6.082  0.2349 -0.3435  0.2481
 1088SOL    HW2 4084   1.873   1.216   6.168  0.3465 -3.7723  2.0482
 1088SOL    HW3 4085   1.937   1.108   6.085 -0.0423 -0.8417 -2.3961
 1088SOL    MW4 4086   1.879   1.171   6.094 -0.2795 -0.7274 -0.5463
 1089SOL     OW 4087   5.285   2.151   0.424  0.0182 -0.2632 -0.1730
 1089SOL    HW2 4088   5.335   2.079   0.385 -0.7111 -2.0389  2.0148
 1089SOL    HW3 4089   5.240   2.113   0.499 -1.0433  2.3129  0.6352
 1089SOL    MW4 4090   5.286   2.137   0.428 -0.0259  0.3746 -0.4778
 1090SOL     OW 4091   0.679   0.506   1.875  0.4367  0.0160 -0.5369
 1090SOL    HW2 4092   0.667   0.473   1.964  0.8894 -0.1497 -0.5351
 1090SOL    HW3 4093   0.768   0.540   1.873  0.0834  0.9483 -0.6410
 1090SOL    MW4 4094   0.689   0.506   1.886 -0.2686  0.7507  0.1372
 1091SOL     OW 4095   2.633   4.714   1.334 -0.0303  0.1770 -0.0392
 1091SOL    HW2 4096   2.598   4.760   1.411  1.3418  1.4316 -0.1277
 1091SOL    HW3 4097   2.696   4.652   1.369  0.5768  0.7314 -0.1221
 1091SOL    MW4 4098   2.636   4.712   1.349  0.1069  0.1443  0.3422
 1092SOL     OW 4099   1.254   5.483   4.482  0.1814 -0.1748  0.5471
 1092SOL    HW2 4100   1.246   5.573   4.512 -0.9917  0.1925 -0.7461
 1092SOL    HW3 4101   1.321   5.487   4.413  0.6891 -0.4456  1.0195
 1092SOL    MW4 4102   1.262   5.495   4.477 -0.5214 -0.2669  0.1177
 1093SOL     OW 4103   2.911   1.076   0.889 -0.6361  0.1370  0.8098
 1093SOL    HW2 4104   2.965   1.051   0.964  0.7046 -0.4775 -0.3270
 1093SOL    HW3 4105   2.973   1.109   0.824 -1.2058 -2.9613 -1.5695
 1093SOL    MW4 4106   2.926   1.077   0.890 -0.1642  0.2937  0.2603
 1094SOL     OW 4107   2.547   4.412   5.935  0.2696  0.8974 -0.4825
 1094SOL    HW2 4108   2.490   4.464   5.878  0.4259  0.6985 -0.8202
 1094SOL    HW3 4109   2.635   4.436   5.908  0.4748  3.5145  2.0367
 1094SOL    MW4 4110   2.551   4.422   5.924  0.0891 -0.1982  0.3869
 1095SOL     OW 4111   0.611   0.672   3.575 -0.2694  0.3188 -0.4607
 1095SOL    HW2 4112   0.563   0.709   3.501  1.2901 -0.9606 -2.1832
 1095SOL    HW3 4113   0.682   0.622   3.536  0.3762 -0.7679  1.9002
 1095SOL    MW4 4114   0.614   0.670   3.560  0.0443 -0.2773  0.3321
 1096SOL     OW 4115   2.094   1.648   2.900 -0.6997  0.0673  0.1341
 1096SOL    HW2 4116   2.088   1.743   2.895 -1.2120  0.0356  0.1845
 1096SOL    HW3 4117   2.133   1.622   2.817  1.8183  0.5165  1.0646
 1096SOL    MW4 4118   2.099   1.657   2.889  0.5361  0.0366  0.4150
 1097SOL     OW 4119   2.864   0.798   1.697  0.6101 -0.4450  0.0654
 1097SOL    HW2 4120   2.893   0.783   1.786 -1.4296 -2.7484  0.4574
 1097SOL    HW3 4121   2.774   0.765   1.695  0.5833 -0.4977 -2.8444
 1097SOL    MW4 4122   2.856   0.792   1.708  0.3773  0.0480  0.4960
 1098SOL     OW 4123   6.294   2.916   0.914 -0.3427  0.2087 -0.1526
 1098SOL    HW2 4124   6.371   2.926   0.858 -1.2340 -2.2010 -1.9942
 1098SOL    HW3 4125   6.285   2.821   0.925 -1.7573  0.5200  1.9152
 1098SOL    MW4 4126   6.303   2.905   0.908  0.2518 -0.8406 -0.4388
 1099SOL     OW 4127   0.032   0.380   0.728  0.3547 -0.4813  0.5260
 1099SOL    HW2 4128   0.071   0.293   0.736 -1.9782 -1.9341 -2.1042
 1099SOL    HW3 4129  -0.048   0.375   0.781  0.1116 -0.0088  0.2059
 1099SOL    MW4 4130   0.027   0.368   0.736 -0.3324  0.0054  0.1479
 1100SOL     OW 4131   5.915   2.554   5.310  0.1100 -0.2511 -0.3587
 1100SOL    HW2 4132   5.827   2.588   5.296  0.0967 -0.7765 -1.6868
 1100SOL    HW3 4133   5.966   2.590   5.237  1.1677  0.5809  0.7453
 1100SOL    MW4 4134   5.910   2.564   5.299  0.0719  0.0476  0.0049
 1101SOL     OW 4135   4.084   5.836   1.591  0.0093 -0.2253  0.0917
 1101SOL    HW2 4136   4.089   5.925   1.554  0.0327  0.2935  1.2884
 1101SOL    HW3 4137   4.164   5.827   1.642  1.4730 -2.0563 -2.2890
 1101SOL    MW4 4138   4.095   5.847   1.593 -0.3063  0.3935  0.7227
 1102SOL     OW 4139   4.966   4.580   4.041  0.0002  0.4940  0.6904
 1102SOL    HW2 4140   4.920   4.558   3.960  0.2950 -1.5448  1.0250
 1102SOL    HW3 4141   4.930   4.519   4.106 -0.7635  2.5628  2.3117
 1102SOL    MW4 4142   4.955   4.569   4.039 -0.1358  0.1383  0.4321
 1103SOL     OW 4143   3.045   3.912   2.476 -0.3495  0.8827 -0.3588
 1103SOL    HW2 4144   3.087   3.966   2.543 -0.2744  0.4094 -0.0177
 1103SOL    HW3 4145   3.103   3.836   2.468 -0.8333  0.5084 -0.3153
 1103SOL    MW4 4146   3.058   3.909   2.484  0.2593  0.1498 -0.3304
 1104SOL     OW 4147   3.863   2.305   1.746  0.3523 -0.1427  0.0103
 1104SOL    HW2 4148   3.864   2.367   1.819 -1.7563 -0.6447  0.5389
 1104SOL    HW3 4149   3.830   2.224   1.783 -0.1765 -0.5974 -1.3681
 1104SOL    MW4 4150   3.859   2.302   1.760  0.3379 -0.1278  0.2964
 1105SOL     OW 4151   0.746   1.075   1.232 -0.3315  0.4772  0.3354
 1105SOL    HW2 4152   0.702   1.044   1.153  0.9115 -0.5656  0.0039
 1105SOL    HW3 4153   0.688   1.049   1.303 -0.8227  0.1892 -0.1561
 1105SOL    MW4 4154   0.733   1.067   1.231  0.4026  0.5449 -0.1588
 1106SOL     OW 4155   1.543   2.893   2.043 -0.3516 -0.0723 -0.1107
 1106SOL    HW2 4156   1.582   2.974   2.011  0.0925  0.6375  2.0588
 1106SOL    HW3 4157   1.457   2.890   2.000  0.6973  0.0829 -2.3344
 1106SOL    MW4 4158   1.537   2.903   2.034 -1.0110  0.5930 -0.7650
 1107SOL     OW 4159   2.516   1.317   1.521 -0.2796 -0.4491 -0.2546
 1107SOL    HW2 4160   2.453   1.318   1.592  1.3697 -2.4408  1.3592
 1107SOL    HW3 4161   2.589   1.266   1.554  1.5831  0.5055 -2.5658
 1107SOL    MW4 4162   2.517   1.311   1.534  0.0797  0.2103 -0.0206
 1108SOL     OW 4163   2.153   5.301   0.310  0.7384 -0.3264  0.4801
 1108SOL    HW2 4164   2.146   5.212   0.343 -0.0220 -0.8127 -0.8813
 1108SOL    HW3 4165   2.156   5.291   0.215  0.0767  1.1226  0.2739
 1108SOL    MW4 4166   2.152   5.288   0.302  0.6200  0.0025 -0.0210
 1109SOL     OW 4167   5.416   2.301   2.901 -0.0958  0.7014  0.1224
 1109SOL    HW2 4168   5.457   2.277   2.984 -0.0444  0.7432  0.1089
 1109SOL    HW3 4169   5.364   2.224   2.877  1.8996 -0.3420 -1.1233
 1109SOL    MW4 4170   5.414   2.288   2.909  0.2641 -0.1414  0.2038
 1110SOL     OW 4171   1.796   1.330   5.855  0.0077  0.3567  0.1077
 1110SOL    HW2 4172   1.819   1.283   5.935  0.0824  0.5357  0.1935
 1110SOL    HW3 4173   1.878   1.370   5.826 -0.1553  0.8631  0.3266
 1110SOL    MW4 4174   1.810   1.329   5.862 -0.4838 -0.0976  0.0428
 1111SOL     OW 4175   6.412   3.222   4.603 -0.4239 -0.1757  0.0483
 1111SOL    HW2 4176   6.507   3.219   4.610 -0.4761 -1.7782  0.5639
 1111SOL    HW3 4177   6.390   3.148   4.547 -1.2865  1.2963 -1.6737
 1111SOL    MW4 4178   6.421   3.212   4.596  0.9700  0.5390 -0.6278
 1112SOL     OW 4179   5.946   1.346   0.772  0.1467 -0.0945 -0.1919
 1112SOL    HW2 4180   5.984   1.290   0.840 -0.9035 -0.3956  0.1732
 1112SOL    HW3 4181   5.938   1.290   0.696 -0.2938 -0.2539 -0.0284
 1112SOL    MW4 4182   5.950   1.332   0.771  0.0952 -0.1538  0.7056
 1113SOL     OW 4183   1.393   5.609   0.088  0.1809 -0.5563 -0.2136
 1113SOL    HW2 4184   1.317   5.654   0.125  1.4733  2.0361 -0.5312
 1113SOL    HW3 4185   1.389   5.628  -0.005  0.3679 -1.8021 -0.4976
 1113SOL    MW4 4186   1.382   5.617   0.081 -0.0401 -0.1333 -0.1003
 1114SOL     OW 4187   4.681   1.884   3.701 -0.2907  0.5978  0.1725
 1114SOL    HW2 4188   4.703   1.868   3.609 -0.1497  2.0633 -0.0654
 1114SOL    HW3 4189   4.585   1.886   3.702 -0.3906 -1.7804  0.5073
 1114SOL    MW4 4190   4.671   1.882   3.689  0.2700  0.1063  0.0071
 1115SOL     OW 4191   0.992   3.381   2.818  0.4284  0.1526  0.0858
 1115SOL    HW2 4192   1.063   3.440   2.843 -1.2638  1.6341  1.7084
 1115SOL    HW3 4193   0.963   3.342   2.900 -2.6650  2.0688  0.0842
 1115SOL    MW4 4194   0.998   3.384   2.832 -0.3010  0.1859 -0.9934
 1116SOL     OW 4195   4.145   2.925   5.994 -0.4942  0.4984  0.3995
 1116SOL    HW2 4196   4.143   2.856   6.060 -0.4350 -1.7196 -1.8019
 1116SOL    HW3 4197   4.075   2.903   5.933 -1.2289  3.0517  0.1909
 1116SOL    MW4 4198   4.136   2.913   5.994  0.1175 -0.1416 -0.4959
 1117SOL     OW 4199   0.689   3.049   6.218  0.7757  0.3147  0.3815
 1117SOL    HW2 4200   0.717   3.090   6.136 -1.5012  1.9439  0.3325
 1117SOL    HW3 4201   0.711   3.114   6.285 -1.6918  1.1781  0.4502
 1117SOL    MW4 4202   0.695   3.063   6.216  0.5886 -0.2522  0.3115
 1118SOL     OW 4203   4.014   6.362   5.535 -0.1059 -0.3630 -0.2341
 1118SOL    HW2 4204   3.987   6.299   5.603 -0.4623 -0.0106 -0.0466
 1118SOL    HW3 4205   3.946   6.355   5.468  0.3005 -0.7861 -0.6139
 1118SOL    MW4 4206   4.001   6.352   5.535 -0.0839 -0.3054  0.5131
 1119SOL     OW 4207   5.828   0.942   3.197 -0.0988  0.2534 -0.3300
 1119SOL    HW2 4208   5.818   0.854   3.235  0.9353  1.3520  2.7610
 1119SOL    HW3 4209   5.915   0.941   3.156  0.6919  0.3378  1.2984
 1119SOL    MW4 4210   5.838   0.930   3.196  0.1511  0.3235  0.0952
 1120SOL     OW 4211   0.852   5.733   4.994 -0.2257 -0.6650  0.5954
 1120SOL    HW2 4212   0.804   5.651   4.989  0.2239 -1.0656  2.3225
 1120SOL    HW3 4213   0.872   5.744   5.087 -0.1645  1.3404  0.3887
 1120SOL    MW4 4214   0.848   5.724   5.005 -0.0683  0.5056  0.5689
 1121SOL     OW 4215   1.645   0.569   1.018 -0.3233  0.2482 -0.2065
 1121SOL    HW2 4216   1.679   0.628   0.950 -0.7140  0.1149 -0.5204
 1121SOL    HW3 4217   1.604   0.498   0.969 -0.7942  0.2575  0.1720
 1121SOL    MW4 4218   1.644   0.568   1.003  0.5771  0.5565  0.0749
 1122SOL     OW 4219   0.308   6.338   5.651  0.7361 -0.5849  0.8170
 1122SOL    HW2 4220   0.394   6.371   5.624  0.4463 -1.1218 -0.8974
 1122SOL    HW3 4221   0.260   6.416   5.679  0.3817  0.4116 -2.2493
 1122SOL    MW4 4222   0.313   6.352   5.651 -0.3609  0.0714  0.1940
 1123SOL     OW 4223   3.115   4.644   5.995 -0.2018  0.3191  0.1405
 1123SOL    HW2 4224   3.105   4.630   5.901  0.7230  3.3290 -0.5342
 1123SOL    HW3 4225   3.034   4.689   6.021 -0.4504 -0.4885  0.7926
 1123SOL    MW4 4226   3.103   4.648   5.986 -0.3366 -0.7059  0.4592
 1124SOL     OW 4227   5.126   1.931   6.022  0.2069 -0.4921 -0.3653
 1124SOL    HW2 4228   5.180   1.987   5.966  0.3884  0.2583  0.5241
 1124SOL    HW3 4229   5.178   1.919   6.102 -0.6882 -0.2283  0.2758
 1124SOL    MW4 4230   5.140   1.937   6.025  0.1547  0.3242  0.0252
 1125SOL     OW 4231   4.224   0.732   0.310 -0.5475  0.1617  0.3921
 1125SOL    HW2 4232   4.300   0.681   0.341 -0.8282  0.7730  2.2206
 1125SOL    HW3 4233   4.191   0.682   0.236 -0.2987 -1.9010  1.5767
 1125SOL    MW4 4234   4.230   0.718   0.305  0.5496  0.7389  0.6866
 1126SOL     OW 4235   0.866   3.581   4.480 -0.8557 -0.1764 -0.1390
 1126SOL    HW2 4236   0.830   3.607   4.565 -0.4350 -2.4811  0.8135
 1126SOL    HW3 4237   0.808   3.511   4.449 -0.2335 -0.2875 -1.1062
 1126SOL    MW4 4238   0.854   3.575   4.487  0.5511  0.4877 -0.1982
 1127SOL     OW 4239   2.919   2.915   0.226 -0.4548  0.5271  0.0146
 1127SOL    HW2 4240   2.914   2.997   0.176  0.7618  0.7806  0.2638
 1127SOL    HW3 4241   3.009   2.884   0.212 -0.6500 -0.3359  0.5860
 1127SOL    MW4 4242   2.930   2.922   0.218 -0.5700 -0.2501 -0.0455
 1128SOL     OW 4243   0.604   6.049   2.906 -0.5800  0.4762  0.4596
 1128SOL    HW2 4244   0.690   6.063   2.867  0.0123 -0.5992  1.3337
 1128SOL    HW3 4245   0.545   6.041   2.831  0.3367 -0.3442 -0.1915
 1128SOL    MW4 4246   0.607   6.050   2.891 -0.3788 -0.3937 -0.3721
 1129SOL     OW 4247   4.765   3.473   3.245 -0.0155 -0.1228 -0.2556
 1129SOL    HW2 4248   4.783   3.560   3.210  0.2605 -0.5801 -1.2860
 1129SOL    HW3 4249   4.729   3.489   3.332  1.9537  0.9480  0.4108
 1129SOL    MW4 4250   4.763   3.487   3.252 -0.0678 -0.5710 -0.3762
 1130SOL     OW 4251   2.779   4.701   5.152  0.2644 -0.2517  0.3459
 1130SOL    HW2 4252   2.723   4.778   5.144  1.3192  0.4357 -0.6990
 1130SOL    HW3 4253   2.866   4.737   5.168  0.6995 -1.2532  0.2536
 1130SOL    MW4 4254   2.783   4.716   5.153 -0.0143 -0.4688  0.2768
 1131SOL     OW 4255   4.238   4.325   4.258 -0.2937 -0.1273 -0.1667
 1131SOL    HW2 4256   4.263   4.364   4.174  0.1679  1.9770  0.8844
 1131SOL    HW3 4257   4.143   4.313   4.251 -0.4324  1.0986 -0.6012
 1131SOL    MW4 4258   4.228   4.329   4.246 -0.2818  0.3237  0.4425
 1132SOL     OW 4259   2.201   3.518   5.181 -0.5427 -0.3130  0.2941
 1132SOL    HW2 4260   2.160   3.508   5.266  0.9896  1.3494  1.3160
 1132SOL    HW3 4261   2.157   3.594   5.142 -1.2021 -1.0349 -0.3988
 1132SOL    MW4 4262   2.190   3.527   5.187 -0.2070  0.3241  0.3043
 1133SOL     OW 4263   2.462   5.679   4.766 -0.3575  0.3374 -0.5108
 1133SOL    HW2 4264   2.542   5.678   4.818 -0.3162  1.0768 -0.5442
 1133SOL    HW3 4265   2.406   5.612   4.806 -0.6559  1.4397  1.0337
 1133SOL    MW4 4266   2.465   5.670   4.778  0.2720  0.2503 -0.3292
 1134SOL     OW 4267   3.365   2.105   2.023 -0.1175  0.4535 -0.1579
 1134SOL    HW2 4268   3.415   2.087   1.944 -1.3317  0.6349 -0.9873
 1134SOL    HW3 4269   3.307   2.177   1.999 -2.6347 -1.3979 -0.0758
 1134SOL    MW4 4270   3.364   2.112   2.010 -0.2651 -0.3109 -0.1176
 1135SOL     OW 4271   0.622   3.801   2.245  0.0397  0.2148 -0.1573
 1135SOL    HW2 4272   0.529   3.820   2.232  0.0316  0.5593  0.3787
 1135SOL    HW3 4273   0.626   3.755   2.328  0.1723 -1.3439 -0.9897
 1135SOL    MW4 4274   0.610   3.798   2.254 -0.0118  0.0148 -0.5482
 1136SOL     OW 4275   5.197   5.711   1.476  0.2532  0.4641 -0.0977
 1136SOL    HW2 4276   5.197   5.625   1.519 -0.5239  1.4051  1.9151
 1136SOL    HW3 4277   5.221   5.692   1.385 -1.0389 -2.0158 -0.0235
 1136SOL    MW4 4278   5.200   5.697   1.470  0.1854 -0.2925 -0.1928
 1137SOL     OW 4279   0.202   2.950   2.054  0.1578 -0.4409 -0.1127
 1137SOL    HW2 4280   0.153   2.870   2.035 -0.1982 -0.5936  1.3177
 1137SOL    HW3 4281   0.288   2.919   2.082 -0.3473 -0.4242  1.5718
 1137SOL    MW4 4282   0.207   2.935   2.056 -0.0559  0.4304 -0.3752
 1138SOL     OW 4283   5.948   3.228   3.849  0.5651  0.1908  0.2542
 1138SOL    HW2 4284   6.019   3.273   3.803  0.7183  1.1184  1.3680
 1138SOL    HW3 4285   5.941   3.143   3.804  2.5178 -0.0052  0.2233
 1138SOL    MW4 4286   5.957   3.222   3.837 -0.1580  0.3685  0.7116
 1139SOL     OW 4287   0.305   1.318   3.728  0.6105  0.2787  0.0960
 1139SOL    HW2 4288   0.272   1.404   3.703  2.4834  1.9693  2.9079
 1139SOL    HW3 4289   0.241   1.285   3.791 -0.5963 -0.9256 -1.6612
 1139SOL    MW4 4290   0.292   1.325   3.733  0.0129  0.0789 -0.5597
 1140SOL     OW 4291   1.135   4.792   3.355  0.1908  0.0060  0.2153
 1140SOL    HW2 4292   1.221   4.811   3.317 -0.4364 -0.3300 -1.4497
 1140SOL    HW3 4293   1.078   4.861   3.319 -0.0546  0.9056  2.1784
 1140SOL    MW4 4294   1.139   4.804   3.345 -0.1731  0.2017 -0.5999
 1141SOL     OW 4295   0.877   2.330   5.536  0.3768  0.1779  0.0798
 1141SOL    HW2 4296   0.852   2.238   5.533  1.3490 -0.0897 -1.9328
 1141SOL    HW3 4297   0.827   2.367   5.609  0.5006 -2.0773  1.3990
 1141SOL    MW4 4298   0.867   2.323   5.545 -0.0574  0.1984 -0.0400
 1142SOL     OW 4299   2.590   4.622   4.294 -0.4016 -0.3123  0.0444
 1142SOL    HW2 4300   2.662   4.575   4.251 -0.1084  0.4709 -0.3321
 1142SOL    HW3 4301   2.632   4.674   4.362 -0.7722 -0.8769  0.7280
 1142SOL    MW4 4302   2.605   4.623   4.297  0.6904  0.4798  0.2442
 1143SOL     OW 4303   3.230   0.708   4.387  0.1150 -0.0979  0.1516
 1143SOL    HW2 4304   3.188   0.653   4.321 -0.6483  0.6648 -0.0196
 1143SOL    HW3 4305   3.160   0.731   4.447  0.5301  0.2636  0.5083
 1143SOL    MW4 4306   3.215   0.704   4.386 -0.2843 -0.0100 -0.1780
 1144SOL     OW 4307   1.404   2.786   0.955 -0.3416  0.1954 -0.4349
 1144SOL    HW2 4308   1.330   2.843   0.933 -0.3562 -0.7971 -3.2912
 1144SOL    HW3 4309   1.460   2.789   0.878  0.9059 -1.7250  0.3376
 1144SOL    MW4 4310   1.402   2.794   0.942 -0.0652 -0.4538  0.2796
 1145SOL     OW 4311   4.833   1.102   2.559  0.0940 -0.3120  0.0266
 1145SOL    HW2 4312   4.806   1.185   2.599 -0.2957 -0.1365 -0.5962
 1145SOL    HW3 4313   4.928   1.107   2.558  0.1193 -0.3326  0.9541
 1145SOL    MW4 4314   4.842   1.114   2.564 -0.0101 -0.1749  0.3656
 1146SOL     OW 4315   4.863   3.816   4.618  0.0419  0.1867  0.0288
 1146SOL    HW2 4316   4.918   3.799   4.694 -0.9744  0.5392  0.8626
 1146SOL    HW3 4317   4.782   3.852   4.654  0.1191  1.8759 -1.3053
 1146SOL    MW4 4318   4.859   3.819   4.633 -0.0389 -0.4231  0.4180
 1147SOL     OW 4319   4.504   3.549   2.000 -0.3048 -0.0116 -0.3071
 1147SOL    HW2 4320   4.480   3.628   2.048 -1.3398  0.9771 -2.3341
 1147SOL    HW3 4321   4.421   3.514   1.968  0.2237 -1.4693 -0.1679
 1147SOL    MW4 4322   4.490   3.555   2.002  0.5047  0.3555  0.6853
 1148SOL     OW 4323   6.345   4.721   2.335  0.0453 -0.1692 -0.3945
 1148SOL    HW2 4324   6.427   4.762   2.363 -0.2096  1.5363 -1.9239
 1148SOL    HW3 4325   6.276   4.779   2.368 -0.3787  0.1609 -1.8034
 1148SOL    MW4 4326   6.347   4.734   2.343  0.0982  0.3913 -0.5418
 1149SOL     OW 4327   5.497   3.901   1.868  0.1075  0.1924 -0.3348
 1149SOL    HW2 4328   5.474   3.928   1.957 -0.8449  0.1845 -0.5656
 1149SOL    HW3 4329   5.560   3.967   1.839  0.3353  0.2632  0.3021
 1149SOL    MW4 4330   5.502   3.914   1.876 -0.0182 -0.4399  0.1498
 1150SOL     OW 4331   0.662   5.160   4.798  0.2698 -0.0098 -0.1179
 1150SOL    HW2 4332   0.736   5.160   4.739  1.3622 -1.5381  1.1691
 1150SOL    HW3 4333   0.698   5.189   4.882 -1.4627  3.2529 -0.3370
 1150SOL    MW4 4334   0.676   5.164   4.801  0.2247 -0.0043  0.4535
 1151SOL     OW 4335   2.123   4.053   5.298  0.4635 -0.1593  0.0236
 1151SOL    HW2 4336   2.083   3.972   5.267 -0.6264  0.4853 -0.2994
 1151SOL    HW3 4337   2.056   4.094   5.352  0.6882  0.9267 -0.4911
 1151SOL    MW4 4338   2.109   4.048   5.301 -0.1732  0.0433  0.4883
 1152SOL     OW 4339   0.016   1.469   2.575  0.6890  0.0582 -0.4914
 1152SOL    HW2 4340   0.067   1.414   2.515  0.5952 -0.3794 -0.1748
 1152SOL    HW3 4341  -0.047   1.409   2.614 -0.1227  0.6145 -0.9378
 1152SOL    MW4 4342   0.015   1.454   2.572 -0.6695 -0.1466  0.0266
 1153SOL     OW 4343   5.932   3.678   1.832 -0.4248 -0.2761  0.0153
 1153SOL    HW2 4344   5.855   3.643   1.875 -0.8465 -0.4368 -0.8489
 1153SOL    HW3 4345   5.899   3.714   1.749  0.5872 -1.4707 -0.9497
 1153SOL    MW4 4346   5.918   3.679   1.826  0.4814 -0.4364 -0.0248
 1154SOL     OW 4347   4.012   0.972   0.663  0.2851 -0.2975  0.5456
 1154SOL    HW2 4348   4.030   0.946   0.754  0.8411  0.8487  0.7932
 1154SOL    HW3 4349   3.919   0.954   0.651  0.3510 -1.0759  1.1301
 1154SOL    MW4 4350   4.002   0.966   0.674 -0.1998 -0.1820  0.1801
 1155SOL     OW 4351   3.840   3.175   2.405  0.9298 -0.0472  0.2251
 1155SOL    HW2 4352   3.853   3.172   2.311  0.5042  1.8870  0.0533
 1155SOL    HW3 4353   3.923   3.145   2.442  1.7908  0.9877 -0.7958
 1155SOL    MW4 4354   3.853   3.171   2.398  0.4838 -0.1433 -0.2777
 1156SOL     OW 4355   1.185   2.293   6.227  0.1185 -0.4079 -0.0958
 1156SOL    HW2 4356   1.186   2.304   6.322  0.4566  1.6322 -0.2847
 1156SOL    HW3 4357   1.095   2.270   6.206 -0.2507  0.3590  0.6228
 1156SOL    MW4 4358   1.173   2.291   6.237  0.3277  0.0862 -0.1963
 1157SOL     OW 4359   6.281   2.544   4.399  0.1455 -0.2878  0.6051
 1157SOL    HW2 4360   6.319   2.565   4.314 -1.0730 -0.0766  0.0932
 1157SOL    HW3 4361   6.230   2.465   4.383  0.5718 -0.7212  1.3425
 1157SOL    MW4 4362   6.279   2.537   4.386  0.3692 -1.0824  0.0915
 1158SOL     OW 4363   3.477   4.110   4.235  0.0408  0.2561  0.5919
 1158SOL    HW2 4364   3.409   4.174   4.257  0.7460  0.9225  0.9020
 1158SOL    HW3 4365   3.541   4.119   4.306  1.0076  0.4608 -0.2792
 1158SOL    MW4 4366   3.476   4.120   4.248 -1.0018 -0.8252 -0.2120
 1159SOL     OW 4367   0.905   0.883   6.402 -0.1817  0.0134 -0.3980
 1159SOL    HW2 4368   0.969   0.953   6.389 -0.6631  0.6926  0.7224
 1159SOL    HW3 4369   0.845   0.891   6.328  0.8439 -0.4569 -1.3092
 1159SOL    MW4 4370   0.906   0.893   6.390 -0.6783 -0.1328  0.4280
 1160SOL     OW 4371   2.757   0.906   3.089  0.6433 -1.1194 -0.3163
 1160SOL    HW2 4372   2.849   0.904   3.115  0.1921 -0.7163  1.4344
 1160SOL    HW3 4373   2.714   0.842   3.146 -0.3782 -0.2959 -0.1127
 1160SOL    MW4 4374   2.763   0.897   3.100  0.0759  0.4990 -0.6589
 1161SOL     OW 4375   5.701   2.791   4.506 -0.0519  0.4934  0.2127
 1161SOL    HW2 4376   5.661   2.835   4.431  0.1182  0.9947  0.4104
 1161SOL    HW3 4377   5.709   2.860   4.572 -0.0154  0.1003  0.6164
 1161SOL    MW4 4378   5.697   2.806   4.505  0.3108  0.6716 -0.0020
 1162SOL     OW 4379   2.315   6.344   2.694  0.4176  0.4223  0.2404
 1162SOL    HW2 4380   2.246   6.333   2.628  0.0760 -2.0596  0.8953
 1162SOL    HW3 4381   2.392   6.370   2.644  0.3485 -2.0608 -1.3595
 1162SOL    MW4 4382   2.316   6.346   2.678 -0.2139  0.1720 -0.2529
 1163SOL     OW 4383   4.944   0.054   4.037 -0.5789  0.8450 -0.0185
 1163SOL    HW2 4384   4.990   0.135   4.059 -0.7081  0.8021  0.4193
 1163SOL    HW3 4385   4.864   0.084   3.993  0.4809  0.8896 -2.0429
 1163SOL    MW4 4386   4.940   0.069   4.034 -0.6798  0.7482 -0.5390
 1164SOL     OW 4387   4.785   0.312   0.383  0.0217  0.0922 -0.1793
 1164SOL    HW2 4388   4.697   0.287   0.410  0.1853 -0.3314 -0.0306
 1164SOL    HW3 4389   4.786   0.297   0.288 -0.3181  0.8670 -0.3061
 1164SOL    MW4 4390   4.773   0.307   0.374 -0.7054 -0.0257 -0.2961
 1165SOL     OW 4391   1.771   2.572   5.580 -0.3781 -0.1363  0.0413
 1165SOL    HW2 4392   1.749   2.550   5.670 -0.0170  0.5711  0.3136
 1165SOL    HW3 4393   1.858   2.535   5.566 -1.7074 -3.1266 -1.1059
 1165SOL    MW4 4394   1.780   2.564   5.590  0.4836 -0.3321  0.3272
 1166SOL     OW 4395   2.542   5.349   6.056  0.2185 -0.3333 -0.3717
 1166SOL    HW2 4396   2.487   5.278   6.088  0.1085 -1.2975 -2.5317
 1166SOL    HW3 4397   2.550   5.408   6.131 -1.3781 -1.5794  0.8711
 1166SOL    MW4 4398   2.535   5.347   6.070 -0.1345 -0.1248  0.3884
 1167SOL     OW 4399   0.398   3.874   5.355  0.1764 -0.2779  0.1734
 1167SOL    HW2 4400   0.355   3.828   5.428  0.2913 -1.9097 -0.7414
 1167SOL    HW3 4401   0.484   3.832   5.348 -0.2193 -0.8627 -1.5436
 1167SOL    MW4 4402   0.404   3.862   5.364  0.2314 -0.5919  0.4500
 1168SOL     OW 4403   3.832   0.862   1.970  0.1983  0.6259  0.0079
 1168SOL    HW2 4404   3.774   0.916   1.916  0.2375  0.2639 -0.4003
 1168SOL    HW3 4405   3.793   0.775   1.968  0.1588  0.6235  0.6303
 1168SOL    MW4 4406   3.819   0.858   1.962 -0.4975  0.2641  0.3148
 1169SOL     OW 4407   5.167   2.655   6.178 -0.2801  0.0142  0.5248
 1169SOL    HW2 4408   5.089   2.686   6.223  0.6749  1.8751  1.0212
 1169SOL    HW3 4409   5.212   2.736   6.151  0.2284 -1.0136 -1.9402
 1169SOL    MW4 4410   5.163   2.670   6.180 -0.1763  0.4437  0.2948
 1170SOL     OW 4411   6.289   3.172   0.123  0.5146  0.0256  0.0473
 1170SOL    HW2 4412   6.229   3.184   0.050  0.5874  0.0598 -0.0065
 1170SOL    HW3 4413   6.322   3.260   0.142  1.7524 -0.2043 -0.9419
 1170SOL    MW4 4414   6.286   3.185   0.116  0.3657  0.9468 -0.3297
 1171SOL     OW 4415   1.349   1.602   4.370  0.6602  0.2013  0.2363
 1171SOL    HW2 4416   1.401   1.668   4.416  1.0738 -0.3194  0.5121
 1171SOL    HW3 4417   1.259   1.634   4.379  1.0737  2.3583 -2.2516
 1171SOL    MW4 4418   1.344   1.615   4.378  0.2502 -0.3758 -0.5028
 1172SOL     OW 4419   2.606   1.949   1.557  0.0892 -0.2721 -0.1355
 1172SOL    HW2 4420   2.665   1.881   1.523  0.0140  0.3898 -1.6435
 1172SOL    HW3 4421   2.576   1.996   1.480 -1.0415  0.5407  0.7639
 1172SOL    MW4 4422   2.610   1.946   1.543  0.5296 -0.7532  0.4839
 1173SOL     OW 4423   2.695   5.141   0.805 -0.2186  0.4142  0.7973
 1173SOL    HW2 4424   2.653   5.093   0.877  0.9157  0.8884  1.7968
 1173SOL    HW3 4425   2.652   5.107   0.726 -0.7642 -0.8807  1.6123
 1173SOL    MW4 4426   2.684   5.130   0.804  0.9611  0.7267 -0.6732
 1174SOL     OW 4427   6.060   0.145   1.074 -0.5335  0.3559 -0.3288
 1174SOL    HW2 4428   6.050   0.141   0.979 -1.0679 -0.8659 -0.2413
 1174SOL    HW3 4429   6.011   0.070   1.107  0.8826 -0.1227  0.8213
 1174SOL    MW4 4430   6.052   0.134   1.066  0.4795  0.4572  0.1129
 1175SOL     OW 4431   1.297   1.326   5.563  0.0980 -0.0556  0.0685
 1175SOL    HW2 4432   1.274   1.271   5.638  1.6449 -0.4125  0.3156
 1175SOL    HW3 4433   1.353   1.395   5.600  1.7314 -0.8177 -0.8715
 1175SOL    MW4 4434   1.301   1.328   5.578  0.4775 -0.1345  0.3484
 1176SOL     OW 4435   6.435   5.022   1.409 -0.2824 -0.1619  0.2161
 1176SOL    HW2 4436   6.353   5.063   1.436  0.4491  1.3848  0.1824
 1176SOL    HW3 4437   6.429   5.017   1.313 -0.4642 -0.3336  0.2369
 1176SOL    MW4 4438   6.424   5.027   1.400 -0.2158 -0.1301 -0.3712
 1177SOL     OW 4439   4.639   4.419   4.272 -0.1563 -0.0198  0.4859
 1177SOL    HW2 4440   4.590   4.352   4.319  0.9136  0.4174  2.3320
 1177SOL    HW3 4441   4.729   4.386   4.270  0.1607  0.8272  0.3659
 1177SOL    MW4 4442   4.644   4.406   4.278 -0.3037  0.0504  0.0612
 1178SOL     OW 4443   3.314   0.050   0.314  0.1789 -0.0826  0.1664
 1178SOL    HW2 4444   3.354   0.022   0.232 -0.9572  0.8782 -0.7504
 1178SOL    HW3 4445   3.247   0.113   0.288 -0.5174 -0.0898  1.8022
 1178SOL    MW4 4446   3.310   0.055   0.300 -0.2413 -0.2299 -0.1467
 1179SOL     OW 4447   0.077   2.979   0.774 -0.0550 -0.3551 -0.3171
 1179SOL    HW2 4448   0.117   2.892   0.779 -0.5589 -0.6981 -1.8226
 1179SOL    HW3 4449   0.120   3.029   0.844  0.6426 -1.6454  0.2110
 1179SOL    MW4 4450   0.088   2.974   0.784  0.5656 -0.5551 -0.6502
 1180SOL     OW 4451   6.427   1.592   0.017  0.1174  0.1409 -0.6171
 1180SOL    HW2 4452   6.388   1.547  -0.058 -0.7319  1.3825 -0.9689
 1180SOL    HW3 4453   6.386   1.551   0.093  0.6452 -0.8224 -0.8364
 1180SOL    MW4 4454   6.416   1.581   0.017  0.0986  0.2618  0.6537
 1181SOL     OW 4455   2.364   1.115   1.384  0.3302 -0.0993 -0.5244
 1181SOL    HW2 4456   2.278   1.157   1.383 -0.3627 -1.1193  2.8003
 1181SOL    HW3 4457   2.423   1.182   1.420 -0.1650 -0.8353  1.8590
 1181SOL    MW4 4458   2.361   1.129   1.389  0.1570 -0.1119 -0.1677
 1182SOL     OW 4459   2.894   3.490   6.388 -0.5817 -0.0349  0.0438
 1182SOL    HW2 4460   2.882   3.532   6.473 -0.6325  1.0155 -0.4623
 1182SOL    HW3 4461   2.951   3.550   6.340 -1.0805 -0.2951 -0.8886
 1182SOL    MW4 4462   2.900   3.504   6.393 -0.1341 -0.2443  0.4263
 1183SOL     OW 4463   3.772   5.854   2.383  0.3011  0.1850 -0.4254
 1183SOL    HW2 4464   3.736   5.783   2.329 -0.2571 -0.0904  0.2990
 1183SOL    HW3 4465   3.696   5.906   2.407  0.6285  0.6523 -0.3989
 1183SOL    MW4 4466   3.758   5.851   2.379 -0.1004 -0.0884  0.3931
 1184SOL     OW 4467   5.882   0.979   4.650 -0.1857 -0.0964 -0.0816
 1184SOL    HW2 4468   5.868   0.903   4.707  0.6782  0.4466  0.8832
 1184SOL    HW3 4469   5.955   0.954   4.595 -0.5878 -0.3633 -0.5012
 1184SOL    MW4 4470   5.890   0.966   4.650  0.4943  0.3532  0.7838
 1185SOL     OW 4471   2.894   6.060   3.795 -0.1026 -0.3024 -0.0474
 1185SOL    HW2 4472   2.961   6.034   3.733  0.7388  1.8250 -0.1151
 1185SOL    HW3 4473   2.931   6.136   3.840 -1.3819 -0.7209  1.8512
 1185SOL    MW4 4474   2.908   6.067   3.793  0.4097  0.7750  0.0962
 1186SOL     OW 4475   3.804   6.073   6.372  0.4022 -0.5854  0.5536
 1186SOL    HW2 4476   3.798   5.978   6.366 -2.7566 -0.5955  1.7894
 1186SOL    HW3 4477   3.870   6.089   6.439  0.6225 -1.9258  0.6823
 1186SOL    MW4 4478   3.812   6.063   6.380 -0.2980 -0.3599  0.4230
 1187SOL     OW 4479   5.939   3.765   2.344  0.1460  0.2992  0.1469
 1187SOL    HW2 4480   5.877   3.731   2.409  0.7538  1.4995  1.4287
 1187SOL    HW3 4481   6.023   3.728   2.371  0.4653  1.1151  0.2982
 1187SOL    MW4 4482   5.942   3.755   2.356  0.5612  0.1572 -0.0423
 1188SOL     OW 4483   0.240   4.983   0.050 -0.4442  0.3071 -0.4544
 1188SOL    HW2 4484   0.299   4.982   0.125  0.6344  0.7172 -1.2747
 1188SOL    HW3 4485   0.174   4.917   0.071  1.3130 -1.5129 -0.2994
 1188SOL    MW4 4486   0.239   4.974   0.063  0.2270 -0.2842 -0.2748
 1189SOL     OW 4487   5.868   1.817   1.371 -0.0966 -0.1239 -0.1953
 1189SOL    HW2 4488   5.876   1.791   1.280  0.0597 -2.2191  0.3769
 1189SOL    HW3 4489   5.947   1.869   1.388 -0.5676  1.0783 -1.4503
 1189SOL    MW4 4490   5.880   1.821   1.361 -0.4390 -0.7841  0.6775
 1190SOL     OW 4491   1.289   2.487   2.900 -0.2361  0.3631 -0.2976
 1190SOL    HW2 4492   1.309   2.532   2.817 -0.5385  0.4983 -0.3002
 1190SOL    HW3 4493   1.307   2.553   2.967  0.7562  0.0077 -0.1968
 1190SOL    MW4 4494   1.294   2.502   2.898 -0.4645 -1.0051  0.4771
 1191SOL     OW 4495   4.144   5.298   2.331  0.2097  0.5390  0.3581
 1191SOL    HW2 4496   4.104   5.291   2.244 -0.8851 -1.4057  0.9481
 1191SOL    HW3 4497   4.198   5.219   2.338 -0.3695  0.2356  1.7257
 1191SOL    MW4 4498   4.146   5.287   2.320 -0.5927  0.1594  0.2567
 1192SOL     OW 4499   2.398   4.020   3.376 -0.5981 -0.1605  0.7096
 1192SOL    HW2 4500   2.455   3.962   3.427 -1.0387 -0.8495  0.4349
 1192SOL    HW3 4501   2.458   4.071   3.322 -0.2329 -0.9713  0.3218
 1192SOL    MW4 4502   2.413   4.019   3.376 -0.1753 -0.3298  0.1114
 1193SOL     OW 4503   6.163   5.081   0.783  0.2721 -0.3071  0.3652
 1193SOL    HW2 4504   6.169   5.176   0.793 -0.4508 -0.1092 -0.8853
 1193SOL    HW3 4505   6.071   5.065   0.760  0.4115 -1.3026  0.4500
 1193SOL    MW4 4506   6.151   5.092   0.781 -0.3204 -0.1707 -0.2008
 1194SOL     OW 4507   2.594   2.682   3.648  0.7137  0.4758  0.1358
 1194SOL    HW2 4508   2.516   2.737   3.639  0.0056  0.0228  2.5616
 1194SOL    HW3 4509   2.592   2.624   3.573 -0.6960  1.2025 -0.4234
 1194SOL    MW4 4510   2.583   2.681   3.637 -0.3358  0.3888 -0.0572
 1195SOL     OW 4511   3.899   5.775   1.782  0.0193  0.1834  0.3462
 1195SOL    HW2 4512   3.974   5.775   1.723  0.5555 -0.2465  1.0140
 1195SOL    HW3 4513   3.903   5.860   1.826 -0.4161  0.5304 -0.2510
 1195SOL    MW4 4514   3.909   5.786   1.780  0.6255 -0.7858 -0.1237
 1196SOL     OW 4515   1.833   1.685   5.555 -0.4354 -0.4306  0.0498
 1196SOL    HW2 4516   1.819   1.769   5.599 -0.0702  0.2753 -1.1341
 1196SOL    HW3 4517   1.919   1.656   5.586 -0.0053  0.2549 -0.4705
 1196SOL    MW4 4518   1.843   1.692   5.565 -0.2274  0.0347  0.5094
 1197SOL     OW 4519   0.314   2.424   2.073  0.0331  0.4052  0.2028
 1197SOL    HW2 4520   0.267   2.501   2.106 -0.0823  0.2369  0.4291
 1197SOL    HW3 4521   0.393   2.420   2.126 -1.2746 -1.2855  2.1903
 1197SOL    MW4 4522   0.318   2.434   2.084 -1.0838 -0.0704  0.4662
 1198SOL     OW 4523   5.526   5.811   2.188 -0.2591  0.0625  0.0898
 1198SOL    HW2 4524   5.451   5.764   2.225 -0.1004 -1.2412 -1.1432
 1198SOL    HW3 4525   5.491   5.857   2.112  0.0880 -0.1261 -0.1874
 1198SOL    MW4 4526   5.512   5.811   2.183 -0.4449  0.4398 -0.1791
 1199SOL     OW 4527   6.120   4.777   3.610 -0.2422  0.1454 -0.2429
 1199SOL    HW2 4528   6.072   4.699   3.583 -0.3793  0.8157 -2.0996
 1199SOL    HW3 4529   6.095   4.791   3.701 -2.6188 -0.2525 -0.7765
 1199SOL    MW4 4530   6.110   4.769   3.619  0.2385 -0.4402 -0.2751
 1200SOL     OW 4531   3.741   2.128   6.105  0.8493  0.5408 -0.1094
 1200SOL    HW2 4532   3.658   2.173   6.123  0.4607  0.5315 -1.7353
 1200SOL    HW3 4533   3.790   2.135   6.187 -1.4088 -0.9265  1.5025
 1200SOL    MW4 4534   3.736   2.135   6.118  0.2775 -0.2884 -0.0366
 1201SOL     OW 4535   0.073   4.065   4.251 -0.3835 -0.1806  0.0782
 1201SOL    HW2 4536  -0.003   4.007   4.248  0.0670 -0.7447 -1.0395
 1201SOL    HW3 4537   0.079   4.092   4.342 -1.1149 -1.2003  0.4489
 1201SOL    MW4 4538   0.064   4.061   4.262 -0.5342  0.0188 -0.3470
 1202SOL     OW 4539   3.482   2.433   4.301  0.0579  0.0095  0.0043
 1202SOL    HW2 4540   3.509   2.360   4.358 -2.4795 -0.8710  0.1866
 1202SOL    HW3 4541   3.413   2.397   4.246 -1.9106  2.4464  0.6798
 1202SOL    MW4 4542   3.476   2.419   4.302  0.1600 -0.3211 -0.0182
 1203SOL     OW 4543   6.108   1.765   5.820  0.0944 -0.3135 -0.0026
 1203SOL    HW2 4544   6.065   1.742   5.737  0.2393 -0.6187  0.0064
 1203SOL    HW3 4545   6.166   1.691   5.838 -0.7815 -0.7866  0.9596
 1203SOL    MW4 4546   6.110   1.752   5.811 -0.1246  0.3685 -0.4607
 1204SOL     OW 4547   4.145   2.239   1.959 -0.0461 -0.1296 -0.0746
 1204SOL    HW2 4548   4.193   2.313   1.997 -3.2124  1.9807  0.1939
 1204SOL    HW3 4549   4.137   2.260   1.866 -0.9544 -0.1054 -0.0008
 1204SOL    MW4 4550   4.150   2.252   1.952 -0.4695  0.4222  0.0867
 1205SOL     OW 4551   1.175   1.198   5.804  0.1463  0.0464  0.3071
 1205SOL    HW2 4552   1.096   1.172   5.852  0.7017  0.2700  1.3801
 1205SOL    HW3 4553   1.226   1.247   5.868  1.2460 -0.2592 -0.3116
 1205SOL    MW4 4554   1.171   1.201   5.819  0.1922 -0.6876  0.3256
 1206SOL     OW 4555   3.736   3.284  -0.030  0.2225 -0.1981 -0.3626
 1206SOL    HW2 4556   3.691   3.276   0.054  0.9912 -2.5503 -0.1208
 1206SOL    HW3 4557   3.766   3.196  -0.051  0.5041  0.4072 -2.8827
 1206SOL    MW4 4558   3.734   3.272  -0.022 -0.2491  0.7335  0.2911
 1207SOL     OW 4559   5.084   1.450   3.040 -0.6446  0.1492  0.7719
 1207SOL    HW2 4560   4.995   1.484   3.035 -0.8273 -0.3191  0.7290
 1207SOL    HW3 4561   5.075   1.357   3.017 -0.0270  0.2798 -0.0483
 1207SOL    MW4 4562   5.071   1.442   3.036  0.1494 -0.1502  0.5318
 1208SOL     OW 4563   2.310   5.692   0.205  0.1739 -0.4647  0.4238
 1208SOL    HW2 4564   2.282   5.740   0.283  0.5752 -0.5758  0.6371
 1208SOL    HW3 4565   2.395   5.730   0.182 -1.5112  2.2074 -2.1885
 1208SOL    MW4 4566   2.318   5.703   0.212  0.3194 -0.3858  0.4040
 1209SOL     OW 4567   5.083   2.896   5.292 -0.7419 -0.3891 -0.4397
 1209SOL    HW2 4568   5.109   2.987   5.306 -2.4865  0.0214  0.3917
 1209SOL    HW3 4569   5.149   2.845   5.339 -1.6614  0.6357  2.1972
 1209SOL    MW4 4570   5.095   2.901   5.300 -0.4136  0.7453 -0.2992
 1210SOL     OW 4571   1.240   1.770   1.735 -0.0050  0.5085 -0.7680
 1210SOL    HW2 4572   1.148   1.775   1.759 -0.0852  2.4473 -1.3152
 1210SOL    HW3 4573   1.239   1.755   1.640  0.2744 -0.3331 -0.6518
 1210SOL    MW4 4574   1.228   1.768   1.725  0.0007  0.3874 -0.4877
 1211SOL     OW 4575   6.163   6.147   2.885  0.0312  0.3110  0.4624
 1211SOL    HW2 4576   6.231   6.158   2.818 -0.6182  0.7617 -0.1290
 1211SOL    HW3 4577   6.142   6.053   2.882 -1.0971  0.5917 -1.0663
 1211SOL    MW4 4578   6.169   6.136   2.876  0.2045  0.5518 -0.3231
 1212SOL     OW 4579   2.841   0.269   2.653  0.0585 -0.3074  0.1614
 1212SOL    HW2 4580   2.854   0.357   2.688  0.2627  0.3483 -1.4840
 1212SOL    HW3 4581   2.894   0.266   2.574 -0.4730 -1.6891 -0.1736
 1212SOL    MW4 4582   2.849   0.280   2.647  0.7144  0.3533 -0.6900
 1213SOL     OW 4583   5.454   4.841   4.413 -0.3316 -0.0463 -0.1275
 1213SOL    HW2 4584   5.476   4.864   4.503  0.9435 -0.6371 -0.2720
 1213SOL    HW3 4585   5.527   4.875   4.361 -1.7544  1.6375 -1.1547
 1213SOL    MW4 4586   5.466   4.849   4.418  0.0168 -0.0620  0.5980
 1214SOL     OW 4587   4.053   0.545   2.651 -0.5463  0.1127 -0.1274
 1214SOL    HW2 4588   4.003   0.504   2.581 -0.5441  1.2340 -0.8054
 1214SOL    HW3 4589   4.144   0.533   2.626 -0.5517  0.8757 -0.5495
 1214SOL    MW4 4590   4.058   0.538   2.638  0.4794  0.2820  1.0065
 1215SOL     OW 4591   6.184   2.147   3.359  0.3724  0.3078  0.2756
 1215SOL    HW2 4592   6.166   2.239   3.338  0.5504  0.3248  0.1892
 1215SOL    HW3 4593   6.099   2.104   3.355  0.4842  0.1525 -1.3052
 1215SOL    MW4 4594   6.170   2.154   3.355 -0.7088 -0.1641  0.3421
 1216SOL     OW 4595   1.174   1.466   4.800 -0.6474  0.1351  0.5980
 1216SOL    HW2 4596   1.245   1.526   4.824 -1.4886  0.7946  1.5530
 1216SOL    HW3 4597   1.161   1.411   4.877 -1.2303  0.0785  0.4671
 1216SOL    MW4 4598   1.181   1.467   4.813  0.3260 -0.1441 -0.3094
 1217SOL     OW 4599   2.054   2.892   0.749 -0.0897  0.2864 -0.3804
 1217SOL    HW2 4600   2.099   2.954   0.691 -1.4228  2.1793  0.5217
 1217SOL    HW3 4601   1.971   2.934   0.770 -0.8452 -1.6183  0.6780
 1217SOL    MW4 4602   2.049   2.906   0.744  0.6405 -0.1417 -0.1339
 1218SOL     OW 4603   5.425   5.825   3.431  0.4167 -0.1327  0.5828
 1218SOL    HW2 4604   5.446   5.771   3.507 -1.0231 -1.5608  0.0052
 1218SOL    HW3 4605   5.329   5.826   3.427  0.2313  3.9427  1.5825
 1218SOL    MW4 4606   5.415   5.818   3.440 -0.0115  0.3565  0.4093
 1219SOL     OW 4607   3.050   2.464   1.519  0.0516 -0.0890 -0.0312
 1219SOL    HW2 4608   3.017   2.376   1.540  0.4903  0.2124  2.1087
 1219SOL    HW3 4609   2.971   2.518   1.512 -0.1526 -0.3494  0.2275
 1219SOL    MW4 4610   3.035   2.459   1.521  0.5324 -0.2471 -0.5852
 1220SOL     OW 4611   2.555   1.816   0.318 -0.1106  0.0971 -0.0430
 1220SOL    HW2 4612   2.464   1.794   0.341 -0.3363  1.1343  0.1208
 1220SOL    HW3 4613   2.606   1.791   0.395 -0.5920  1.6645  0.8418
 1220SOL    MW4 4614   2.549   1.810   0.331  0.0479 -0.5562  0.0417
 1221SOL     OW 4615   0.890   3.970   0.846  0.7437  0.1669 -0.0194
 1221SOL    HW2 4616   0.895   4.057   0.807  0.5933 -0.2050 -0.8877
 1221SOL    HW3 4617   0.819   3.927   0.799 -1.9479  0.8757  3.0208
 1221SOL    MW4 4618   0.881   3.975   0.835  0.0197 -0.1687  0.1233
 1222SOL     OW 4619   0.722   0.170   2.175  0.3212 -0.2888  0.8659
 1222SOL    HW2 4620   0.810   0.198   2.199 -0.0190 -0.5557  2.5116
 1222SOL    HW3 4621   0.669   0.250   2.178  0.6710  0.0672 -1.1384
 1222SOL    MW4 4622   0.727   0.184   2.178  0.3300 -0.0119  0.5022
 1223SOL     OW 4623   3.731   5.596   3.163 -0.4728  0.1517  0.0130
 1223SOL    HW2 4624   3.817   5.637   3.170 -0.1632 -0.1967 -1.3903
 1223SOL    HW3 4625   3.692   5.606   3.250  1.2757 -0.3433  0.9060
 1223SOL    MW4 4626   3.738   5.602   3.175 -0.2938 -0.3035  0.4607
 1224SOL     OW 4627   4.723   1.842   3.405  0.3291 -0.3837 -0.3849
 1224SOL    HW2 4628   4.710   1.930   3.370 -0.1878 -1.2467 -2.5066
 1224SOL    HW3 4629   4.763   1.793   3.333  2.3177 -1.4723  1.3145
 1224SOL    MW4 4630   4.727   1.847   3.391 -0.6891  0.4312  0.3548
 1225SOL     OW 4631   5.111   3.525   4.062  0.4270  0.8407 -0.4039
 1225SOL    HW2 4632   5.179   3.492   4.002 -2.3579 -1.6555 -2.5683
 1225SOL    HW3 4633   5.127   3.478   4.144  0.0911 -1.5438 -1.6022
 1225SOL    MW4 4634   5.122   3.514   4.065  0.5640 -0.0344 -0.3435
 1226SOL     OW 4635   0.917   3.454   5.704  0.6081  0.8522 -0.6241
 1226SOL    HW2 4636   0.997   3.495   5.734  0.9871 -1.1146  1.3085
 1226SOL    HW3 4637   0.867   3.525   5.663  1.9281  2.8090  0.9852
 1226SOL    MW4 4638   0.921   3.468   5.703 -0.3588  0.2270 -0.0991
 1227SOL     OW 4639   0.077   4.579   5.810  0.3363  0.1560  0.3586
 1227SOL    HW2 4640   0.125   4.644   5.861  2.7987 -0.2648 -1.2092
 1227SOL    HW3 4641   0.031   4.629   5.743  0.0544  0.4546  0.7730
 1227SOL    MW4 4642   0.077   4.594   5.808  0.7470 -0.0353 -0.1588
 1228SOL     OW 4643   4.706   5.586   0.375 -0.8221 -0.0205  0.0261
 1228SOL    HW2 4644   4.726   5.508   0.427  0.2518  1.1284  1.4582
 1228SOL    HW3 4645   4.626   5.621   0.414 -0.0014  0.8566  1.0126
 1228SOL    MW4 4646   4.698   5.581   0.387 -0.6272  0.6978 -0.4663
 1229SOL     OW 4647   6.015   1.770   3.633 -0.4688 -0.4780  0.1692
 1229SOL    HW2 4648   5.974   1.686   3.615  1.3313 -1.3635 -0.0313
 1229SOL    HW3 4649   6.060   1.793   3.551  0.8857 -0.4402  0.8816
 1229SOL    MW4 4650   6.016   1.762   3.620  0.0833  0.2876  0.0375
 1230SOL     OW 4651   4.777   3.281   3.665 -0.3704  0.3180 -0.3680
 1230SOL    HW2 4652   4.700   3.255   3.715 -0.6514 -1.2762 -1.5522
 1230SOL    HW3 4653   4.766   3.375   3.651 -2.4360  0.0240 -1.0593
 1230SOL    MW4 4654   4.766   3.290   3.670 -0.2728 -0.1443  0.0920
 1231SOL     OW 4655   0.354   1.806   3.687 -0.8599  0.4228 -0.2163
 1231SOL    HW2 4656   0.260   1.808   3.705 -1.2357 -0.6908 -1.8240
 1231SOL    HW3 4657   0.373   1.892   3.650 -1.5513  0.1687 -1.1922
 1231SOL    MW4 4658   0.344   1.817   3.685 -0.1453 -0.0383  0.2337
 1232SOL     OW 4659   1.660   5.899   4.568 -0.6586  0.5198  0.5278
 1232SOL    HW2 4660   1.629   5.989   4.571  0.8515  1.0908  0.3228
 1232SOL    HW3 4661   1.641   5.870   4.479  0.2705  1.2200  0.0715
 1232SOL    MW4 4662   1.654   5.907   4.557  0.0606 -0.0963  0.0665
 1233SOL     OW 4663   3.663   3.853   4.145 -0.5616 -0.3288 -0.0771
 1233SOL    HW2 4664   3.568   3.843   4.137 -0.6560 -0.3060  0.9444
 1233SOL    HW3 4665   3.691   3.782   4.203 -0.1629  0.5225  0.8104
 1233SOL    MW4 4666   3.654   3.842   4.151  0.5951  0.3239 -0.4992
 1234SOL     OW 4667   5.210   3.859   3.085  0.3084  0.2608  0.1524
 1234SOL    HW2 4668   5.281   3.799   3.063  1.1964  1.6891 -0.9954
 1234SOL    HW3 4669   5.164   3.874   3.003 -0.1551  0.8462  0.5048
 1234SOL    MW4 4670   5.213   3.853   3.072  0.1037  0.1555  0.0944
 1235SOL     OW 4671   2.259   2.497   2.472  0.0798 -0.3252  0.5170
 1235SOL    HW2 4672   2.235   2.410   2.506  0.6383 -0.6850  0.0168
 1235SOL    HW3 4673   2.204   2.508   2.394 -0.2716 -0.0615  0.8031
 1235SOL    MW4 4674   2.248   2.487   2.466 -0.4834 -0.0221  0.5765
 1236SOL     OW 4675   4.128   2.812   4.213  0.4648 -0.2421  0.4090
 1236SOL    HW2 4676   4.051   2.842   4.260 -0.0709 -0.8068 -0.0993
 1236SOL    HW3 4677   4.115   2.842   4.123  1.4212  0.7178  0.5645
 1236SOL    MW4 4678   4.116   2.820   4.207 -0.5465  0.0191 -0.3477
 1237SOL     OW 4679   2.212   5.826   0.418 -0.0236 -0.0086  0.7198
 1237SOL    HW2 4680   2.156   5.763   0.465  0.5575 -0.0139  1.4223
 1237SOL    HW3 4681   2.152   5.873   0.361 -0.6225 -0.5584  0.8831
 1237SOL    MW4 4682   2.197   5.824   0.417  0.2520  0.2704  0.2886
 1238SOL     OW 4683   2.087   4.078   0.384 -0.2126 -0.2426 -0.0483
 1238SOL    HW2 4684   2.134   4.108   0.462  1.1879 -0.0748 -0.9186
 1238SOL    HW3 4685   2.012   4.137   0.376 -0.8081 -0.7309  1.5664
 1238SOL    MW4 4686   2.083   4.089   0.393  0.0637 -0.3264  0.1186
 1239SOL     OW 4687   3.538   1.001   2.648  0.2387  0.0749 -0.6703
 1239SOL    HW2 4688   3.484   1.021   2.572 -0.9036  0.3586  0.1807
 1239SOL    HW3 4689   3.621   0.969   2.612 -0.0197  0.8682 -2.0197
 1239SOL    MW4 4690   3.542   1.000   2.633 -0.5798  0.3131 -0.0759
 1240SOL     OW 4691   6.383   4.773   3.130  0.2819  0.3954 -0.3888
 1240SOL    HW2 4692   6.320   4.701   3.130  1.1802 -0.4233 -0.7438
 1240SOL    HW3 4693   6.430   4.763   3.047 -2.0449  3.6540 -2.3329
 1240SOL    MW4 4694   6.381   4.762   3.119 -0.7742 -0.9056 -0.5120
 1241SOL     OW 4695   3.591   6.398   4.299 -0.5044 -0.2288 -0.0087
 1241SOL    HW2 4696   3.506   6.355   4.294 -0.8159  0.2445  0.9566
 1241SOL    HW3 4697   3.623   6.377   4.387  0.5832 -0.7723 -0.5153
 1241SOL    MW4 4698   3.584   6.389   4.310 -0.9218  0.3240  0.1462
 1242SOL     OW 4699   0.883   4.389   4.118  0.3526  0.1295  0.0535
 1242SOL    HW2 4700   0.817   4.338   4.071 -0.7465 -0.2434  1.8750
 1242SOL    HW3 4701   0.872   4.478   4.086 -0.9447  0.0416  0.1969
 1242SOL    MW4 4702   0.873   4.394   4.108 -0.0951 -0.4322 -0.1495
 1243SOL     OW 4703   1.254   5.759   4.552  0.1459 -0.4507  0.0318
 1243SOL    HW2 4704   1.294   5.815   4.619 -2.0197  0.1126  0.9577
 1243SOL    HW3 4705   1.161   5.783   4.553 -0.3041 -1.8660 -1.7862
 1243SOL    MW4 4706   1.247   5.769   4.561 -0.5775  0.1638 -0.4981
 1244SOL     OW 4707   6.420   2.737   3.490  1.1614  0.0290 -0.1505
 1244SOL    HW2 4708   6.380   2.792   3.557  3.0869  0.8756  0.3558
 1244SOL    HW3 4709   6.351   2.724   3.425 -0.0479  1.0584  0.8841
 1244SOL    MW4 4710   6.406   2.742   3.491 -0.2287  0.4619  0.2125
 1245SOL     OW 4711   3.873   4.589   3.553 -0.4094  0.4961 -0.3113
 1245SOL    HW2 4712   3.895   4.656   3.489  2.6676  0.4919  0.5646
 1245SOL    HW3 4713   3.829   4.636   3.624 -1.8787  0.8422 -1.3972
 1245SOL    MW4 4714   3.870   4.604   3.554 -0.2116  0.1285 -0.8966
 1246SOL     OW 4715   3.674   4.130   4.462  0.0429 -0.2092  0.7836
 1246SOL    HW2 4716   3.744   4.087   4.412  0.0373  0.6849 -0.0235
 1246SOL    HW3 4717   3.635   4.060   4.513 -0.8432 -1.4950 -1.4881
 1246SOL    MW4 4718   3.678   4.115   4.462  0.2236  0.0700 -0.2564
 1247SOL     OW 4719   6.279   3.854   5.101 -0.0198  0.3670  0.3632
 1247SOL    HW2 4720   6.217   3.905   5.153 -0.8677 -0.3767  0.1136
 1247SOL    HW3 4721   6.356   3.845   5.157  0.7424  3.1026 -0.1118
 1247SOL    MW4 4722   6.281   3.860   5.115 -0.5154 -0.4562 -0.2147
 1248SOL     OW 4723   6.182   0.618   1.497 -0.3067  0.2055  0.4032
 1248SOL    HW2 4724   6.104   0.567   1.519 -1.2594  1.2753 -0.4255
 1248SOL    HW3 4725   6.157   0.709   1.514  0.4774  0.6385 -0.6596
 1248SOL    MW4 4726   6.168   0.623   1.502  0.2906 -0.1437 -0.0279
 1249SOL     OW 4727   5.945   5.376   2.836 -0.1851  0.0101 -0.1599
 1249SOL    HW2 4728   5.877   5.336   2.782  0.0518 -0.6004 -0.0153
 1249SOL    HW3 4729   6.027   5.347   2.796 -0.0087 -0.4559  0.5293
 1249SOL    MW4 4730   5.947   5.367   2.823 -0.4450  0.3325 -0.1314
 1250SOL     OW 4731   2.419   5.702   5.791  0.2372  0.4175  0.4975
 1250SOL    HW2 4732   2.501   5.717   5.837  1.3547 -0.2994 -1.1396
 1250SOL    HW3 4733   2.355   5.687   5.860  1.2778  1.8618  1.8420
 1250SOL    MW4 4734   2.422   5.702   5.806 -0.2248 -0.0758 -0.1796
 1251SOL     OW 4735   3.621   4.797   0.087  0.1231  0.0850 -0.2843
 1251SOL    HW2 4736   3.684   4.854   0.130  1.5796 -1.1129 -0.7169
 1251SOL    HW3 4737   3.675   4.728   0.047 -1.2338  0.4246 -2.9310
 1251SOL    MW4 4738   3.637   4.795   0.087  0.3615  0.0704 -0.3710
 1252SOL     OW 4739   1.207   2.025   1.111 -0.2965  0.5634  0.9522
 1252SOL    HW2 4740   1.250   2.026   1.025 -0.8139  0.6735  0.6935
 1252SOL    HW3 4741   1.201   2.117   1.136 -0.9429  0.5929  0.7035
 1252SOL    MW4 4742   1.212   2.037   1.103  0.4478  0.0468  0.0492
 1253SOL     OW 4743   6.196   1.044   4.855 -0.8639  0.2443 -0.6706
 1253SOL    HW2 4744   6.100   1.054   4.855 -0.8862  0.2467 -2.2763
 1253SOL    HW3 4745   6.210   0.950   4.843 -0.6502  0.2214 -0.2663
 1253SOL    MW4 4746   6.185   1.033   4.853  0.3630  0.3924  0.2964
 1254SOL     OW 4747   0.481   0.511   0.902  0.1698  0.3688  0.1984
 1254SOL    HW2 4748   0.543   0.510   0.829 -0.0879 -0.1332 -0.0186
 1254SOL    HW3 4749   0.397   0.533   0.862  0.2420  1.3112  0.5302
 1254SOL    MW4 4750   0.479   0.514   0.887 -0.0160  0.6495 -0.4754
 1255SOL     OW 4751   3.664   3.929   6.174  0.2236  0.6038  0.8199
 1255SOL    HW2 4752   3.752   3.947   6.140  0.1466  0.2806  0.4450
 1255SOL    HW3 4753   3.612   3.908   6.096 -0.3160  1.3047  0.9742
 1255SOL    MW4 4754   3.668   3.929   6.159  0.3160  0.6319  0.3706
 1256SOL     OW 4755   3.149   5.303   0.883  0.0085 -0.1329  0.6016
 1256SOL    HW2 4756   3.054   5.313   0.895  0.0242  0.3472  0.3468
 1256SOL    HW3 4757   3.175   5.381   0.836  0.7235  0.2949  1.6724
 1256SOL    MW4 4758   3.140   5.314   0.879 -0.3056  0.4756  0.4062
 1257SOL     OW 4759   3.933  -0.001   2.533 -0.2957  0.5406  0.0301
 1257SOL    HW2 4760   4.021   0.031   2.511  0.4229 -0.0693  1.8199
 1257SOL    HW3 4761   3.944  -0.095   2.545 -1.6485  0.1290 -1.7169
 1257SOL    MW4 4762   3.946  -0.009   2.532  0.0135  0.7169 -0.3972
 1258SOL     OW 4763   3.939   2.372   3.598 -0.1277 -0.2360  0.5679
 1258SOL    HW2 4764   3.855   2.392   3.558  0.9473  2.3925 -0.6462
 1258SOL    HW3 4765   3.987   2.321   3.533  0.1444  0.5411  0.1473
 1258SOL    MW4 4766   3.934   2.368   3.584 -0.4272 -0.3796  0.2839
 1259SOL     OW 4767   0.520   1.185   0.044  0.3833 -0.7431  0.3834
 1259SOL    HW2 4768   0.459   1.250   0.080  1.2320  0.1286  0.2898
 1259SOL    HW3 4769   0.597   1.191   0.099  1.4854  0.1925 -1.1730
 1259SOL    MW4 4770   0.522   1.195   0.056  1.2179 -0.0185  0.0520
 1260SOL     OW 4771   5.557   4.727   5.916 -0.0640 -0.5628  0.3331
 1260SOL    HW2 4772   5.559   4.667   5.841 -1.8572 -0.0880 -0.1423
 1260SOL    HW3 4773   5.616   4.687   5.980  0.5227 -1.6492 -0.8331
 1260SOL    MW4 4774   5.565   4.714   5.914 -0.2428  0.4027 -0.2370
 1261SOL     OW 4775   2.835   0.242   3.925  0.0231 -0.1439 -0.1519
 1261SOL    HW2 4776   2.881   0.191   3.992 -0.2416  0.0370  0.1685
 1261SOL    HW3 4777   2.870   0.330   3.933  0.5083 -0.2783 -0.7326
 1261SOL    MW4 4778   2.845   0.247   3.935  0.5613  0.2877 -0.0385
 1262SOL     OW 4779   0.104   1.379   3.403  0.3497 -0.6681  0.3010
 1262SOL    HW2 4780   0.169   1.410   3.466  0.6225 -3.8970  1.8114
 1262SOL    HW3 4781   0.140   1.298   3.369 -1.3221 -0.7060 -1.5816
 1262SOL    MW4 4782   0.117   1.373   3.407  0.4494 -0.4124 -0.2248
 1263SOL     OW 4783   4.449   6.042   6.384  0.2550  0.4359  0.4329
 1263SOL    HW2 4784   4.476   6.068   6.296  0.2631 -0.2748  0.2137
 1263SOL    HW3 4785   4.525   6.058   6.439  0.2288  0.9455  0.3218
 1263SOL    MW4 4786   4.462   6.047   6.380  0.2170 -1.0878  0.6421
 1264SOL     OW 4787   3.799   4.030   3.007 -0.0846  0.8076  0.4304
 1264SOL    HW2 4788   3.759   3.944   3.018 -1.5397  1.4884  0.8436
 1264SOL    HW3 4789   3.776   4.077   3.088  0.1072  1.7916 -0.0717
 1264SOL    MW4 4790   3.790   4.025   3.019  0.5976  0.2541 -0.4965
 1265SOL     OW 4791   3.565   3.269   1.631 -0.1040 -0.2175  0.1647
 1265SOL    HW2 4792   3.603   3.294   1.546 -3.3315  0.3938 -1.2461
 1265SOL    HW3 4793   3.582   3.175   1.638  2.3976  0.1537  0.1445
 1265SOL    MW4 4794   3.572   3.260   1.621 -0.1898 -0.0167 -0.1638
 1266SOL     OW 4795   5.683   3.177   4.137 -0.4493 -0.2220 -0.2534
 1266SOL    HW2 4796   5.622   3.250   4.143 -0.1692 -0.0335  0.4303
 1266SOL    HW3 4797   5.769   3.219   4.128 -0.3404 -0.4727 -0.3826
 1266SOL    MW4 4798   5.687   3.192   4.137  0.1807  0.1883 -0.2552
 1267SOL     OW 4799   4.251   4.418   6.134 -0.1143  0.0391 -0.0582
 1267SOL    HW2 4800   4.314   4.455   6.073  0.7041 -0.8997  0.1981
 1267SOL    HW3 4801   4.264   4.466   6.216 -0.9693  1.0538 -0.4914
 1267SOL    MW4 4802   4.261   4.429   6.137  0.8682  0.6810  0.4006
 1268SOL     OW 4803   1.732   4.245   0.974  0.1500 -0.2910 -0.5723
 1268SOL    HW2 4804   1.636   4.248   0.973  0.1368  0.1185  0.6315
 1268SOL    HW3 4805   1.756   4.216   0.886 -1.0840 -0.5985 -0.8217
 1268SOL    MW4 4806   1.723   4.242   0.962 -0.2614  0.1974 -0.8652
 1269SOL     OW 4807   2.713   0.572   2.540  0.0411 -0.1581  0.1272
 1269SOL    HW2 4808   2.760   0.570   2.624 -0.0909  0.5084  0.2283
 1269SOL    HW3 4809   2.677   0.484   2.530 -1.5225  0.2423  1.6918
 1269SOL    MW4 4810   2.714   0.560   2.550 -0.3872  0.7902 -0.2086
 1270SOL     OW 4811   1.338   4.739   2.711  0.8043 -0.0814 -0.3625
 1270SOL    HW2 4812   1.404   4.671   2.697  0.1966 -1.1564  1.5728
 1270SOL    HW3 4813   1.278   4.701   2.775  0.0461  2.0310  0.2621
 1270SOL    MW4 4814   1.339   4.725   2.717  0.1009 -0.1726  0.4864
 1271SOL     OW 4815   0.647   6.217   2.036  0.1228 -0.2640  0.2884
 1271SOL    HW2 4816   0.570   6.215   2.093 -0.6128 -0.8937 -0.6977
 1271SOL    HW3 4817   0.685   6.130   2.044 -0.0779 -0.4089 -0.2937
 1271SOL    MW4 4818   0.642   6.205   2.045  0.2898 -0.0112 -0.7118
 1272SOL     OW 4819   5.092   1.096   0.739 -0.5774 -0.1178  0.5101
 1272SOL    HW2 4820   5.046   1.039   0.677 -2.9700  2.1751  0.0096
 1272SOL    HW3 4821   5.125   1.168   0.685 -2.3503  1.7256  1.7379
 1272SOL    MW4 4822   5.091   1.098   0.724 -0.0472 -0.3542 -0.2589
 1273SOL     OW 4823   3.728   3.009   0.872  0.3770  0.1099 -0.4684
 1273SOL    HW2 4824   3.733   2.931   0.817 -3.0482 -1.1838  0.7441
 1273SOL    HW3 4825   3.702   3.079   0.813  0.1112 -0.4581 -1.0395
 1273SOL    MW4 4826   3.725   3.008   0.857  0.8869  0.1569 -0.2141
 1274SOL     OW 4827   4.964   3.049   0.832  0.3268  0.1854 -1.1582
 1274SOL    HW2 4828   4.993   3.133   0.796 -1.9116  1.8987  0.7383
 1274SOL    HW3 4829   4.965   3.062   0.927 -3.0525 -0.7631 -0.8706
 1274SOL    MW4 4830   4.968   3.062   0.840 -0.0285 -0.0196  0.0992
 1275SOL     OW 4831   4.630   5.802   2.149 -0.3583 -0.3364 -0.5177
 1275SOL    HW2 4832   4.614   5.875   2.089 -1.9945 -0.1668  0.0793
 1275SOL    HW3 4833   4.705   5.831   2.202  0.7533 -0.2581 -2.0509
 1275SOL    MW4 4834   4.638   5.816   2.148  0.1824  0.3399  0.3055
 1276SOL     OW 4835   0.672   4.284   0.853  0.2246 -0.0970 -0.1915
 1276SOL    HW2 4836   0.606   4.221   0.883 -1.3007  1.5018 -0.0252
 1276SOL    HW3 4837   0.623   4.345   0.797  1.7647  0.6136 -0.8080
 1276SOL    MW4 4838   0.657   4.283   0.850 -0.5678  0.7319  0.0104
 1277SOL     OW 4839   5.666   2.769   1.103 -0.2132 -0.2460 -0.1310
 1277SOL    HW2 4840   5.718   2.848   1.094  0.3761 -0.7891 -1.9038
 1277SOL    HW3 4841   5.720   2.710   1.156 -0.6969  0.5239  1.2737
 1277SOL    MW4 4842   5.680   2.771   1.109  0.9641  0.4749  0.1874
 1278SOL     OW 4843   1.045   2.615   0.987 -0.1047  0.5483  0.2142
 1278SOL    HW2 4844   1.096   2.668   0.926 -0.0251 -0.9592 -1.1048
 1278SOL    HW3 4845   0.953   2.635   0.965 -0.1085  1.6883  1.1681
 1278SOL    MW4 4846   1.039   2.625   0.976  0.0188  0.2817 -0.0505
 1279SOL     OW 4847   4.067   3.413   2.080  0.6591 -0.1046 -0.1472
 1279SOL    HW2 4848   4.071   3.479   2.150  1.4726 -0.2736 -0.0298
 1279SOL    HW3 4849   4.009   3.453   2.014  0.5566  0.4154  0.2465
 1279SOL    MW4 4850   4.060   3.427   2.080 -0.9578  0.1207 -0.4825
 1280SOL     OW 4851   3.755   0.061   4.074 -0.3508  0.3098 -0.7241
 1280SOL    HW2 4852   3.691   0.069   4.003 -2.7208 -0.9040  1.1093
 1280SOL    HW3 4853   3.705   0.024   4.147  1.7207  2.2627  1.8850
 1280SOL    MW4 4854   3.740   0.057   4.074 -0.2831  0.1879  0.2954
 1281SOL     OW 4855   1.522   4.115   0.571 -0.0146 -0.1211 -0.2574
 1281SOL    HW2 4856   1.431   4.120   0.601 -0.0327  0.4366 -0.4095
 1281SOL    HW3 4857   1.537   4.197   0.526  0.4263 -0.4112 -0.6411
 1281SOL    MW4 4858   1.512   4.126   0.569  0.0593 -0.5099  0.9383
 1282SOL     OW 4859   6.092   4.443   4.881 -0.6589 -0.2657 -0.5717
 1282SOL    HW2 4860   6.052   4.358   4.862 -1.0456  0.0966 -1.4254
 1282SOL    HW3 4861   6.171   4.445   4.826 -0.1178 -0.4598  0.1713
 1282SOL    MW4 4862   6.097   4.432   4.871 -0.0810  0.1532  0.2431
 1283SOL     OW 4863   5.452   1.028   0.388 -0.9435  0.0053 -0.2055
 1283SOL    HW2 4864   5.516   1.009   0.320  2.9424 -2.4464  3.5801
 1283SOL    HW3 4865   5.379   0.969   0.369  0.7544 -1.8411 -1.4054
 1283SOL    MW4 4866   5.451   1.017   0.377 -0.3330  0.0596  0.0359
 1284SOL     OW 4867   3.196   3.481   6.003  0.2131 -0.2376 -0.5652
 1284SOL    HW2 4868   3.175   3.481   6.097 -2.3308  0.3230 -1.0681
 1284SOL    HW3 4869   3.286   3.448   5.999  0.2537 -0.6645  2.0327
 1284SOL    MW4 4870   3.205   3.477   6.015 -0.1601  0.2769  0.5318
 1285SOL     OW 4871   5.903   4.171   5.058  0.2010  0.2558  0.1157
 1285SOL    HW2 4872   5.836   4.186   4.991 -0.4097 -1.4919  0.2861
 1285SOL    HW3 4873   5.983   4.154   5.008  0.3433  1.4075 -0.0980
 1285SOL    MW4 4874   5.905   4.171   5.043 -0.7516 -0.0451  0.5031
 1286SOL     OW 4875   0.574   2.830   2.592 -0.4368  0.3590 -0.0119
 1286SOL    HW2 4876   0.482   2.823   2.614 -0.8170  1.3405 -1.1802
 1286SOL    HW3 4877   0.614   2.871   2.670 -1.4363  2.2001 -0.4100
 1286SOL    MW4 4878   0.567   2.835   2.606 -0.2455 -0.1703  0.1773
 1287SOL     OW 4879   3.953   6.027   1.904 -0.4383 -0.0227 -0.3388
 1287SOL    HW2 4880   4.043   6.011   1.875 -0.0761  0.7095  0.3306
 1287SOL    HW3 4881   3.953   6.001   1.996 -0.9515 -0.1592 -0.3782
 1287SOL    MW4 4882   3.965   6.021   1.912  0.3710 -0.6614 -0.2685
 1288SOL     OW 4883   0.447   2.662   3.174  0.0514  0.3061  0.1856
 1288SOL    HW2 4884   0.484   2.650   3.087 -0.3144  0.2936  0.0312
 1288SOL    HW3 4885   0.483   2.746   3.204 -0.5120  0.7326 -0.3285
 1288SOL    MW4 4886   0.457   2.672   3.167  0.0492  0.5735  0.3676
 1289SOL     OW 4887   0.039   1.171   0.926  0.0843 -0.0116 -0.1176
 1289SOL    HW2 4888   0.030   1.077   0.910  0.1422 -0.2858  1.3188
 1289SOL    HW3 4889   0.134   1.186   0.925  0.2299 -0.4751  2.1143
 1289SOL    MW4 4890   0.051   1.160   0.924 -0.0990 -0.1389  0.0168
 1290SOL     OW 4891   2.073   1.185   1.725 -0.0459 -0.3428 -0.1041
 1290SOL    HW2 4892   2.061   1.104   1.775  0.9775  0.5958  1.7667
 1290SOL    HW3 4893   2.013   1.247   1.766  1.1880  0.5937  0.3499
 1290SOL    MW4 4894   2.063   1.182   1.737  0.6742  0.4530 -0.4389
 1291SOL     OW 4895   3.047   4.178   3.121 -0.0824  0.4550 -0.0800
 1291SOL    HW2 4896   3.108   4.170   3.048 -0.8733  0.0802 -0.7253
 1291SOL    HW3 4897   3.007   4.264   3.110  0.1044  0.5744  0.1647
 1291SOL    MW4 4898   3.050   4.188   3.110  0.0269 -0.3945 -0.3334
 1292SOL     OW 4899   3.321   5.132   3.912 -0.6009  0.0045  0.7636
 1292SOL    HW2 4900   3.305   5.038   3.900  1.6545 -0.2381 -1.2035
 1292SOL    HW3 4901   3.398   5.137   3.968  1.4309  0.4264 -1.8488
 1292SOL    MW4 4902   3.329   5.120   3.918  0.0972  0.4128  0.2994
 1293SOL     OW 4903   4.637   0.723   5.263  0.8484  0.4390 -0.0824
 1293SOL    HW2 4904   4.716   0.709   5.314  0.3215  2.0129  1.2562
 1293SOL    HW3 4905   4.665   0.779   5.190  0.6282  3.0254  1.6900
 1293SOL    MW4 4906   4.651   0.728   5.260  0.0000  0.0571  0.1674
 1294SOL     OW 4907   3.890   1.784   1.182  0.0198 -0.0989 -0.2089
 1294SOL    HW2 4908   3.986   1.780   1.175  0.2370  1.8148  0.9177
 1294SOL    HW3 4909   3.873   1.762   1.274 -0.8269 -2.1868 -0.7978
 1294SOL    MW4 4910   3.901   1.780   1.193 -0.0100 -0.1510  0.0131
 1295SOL     OW 4911   3.271   2.863   2.279  0.0650  0.1463 -0.0801
 1295SOL    HW2 4912   3.345   2.802   2.284 -0.1033  0.0035  0.8131
 1295SOL    HW3 4913   3.195   2.811   2.307 -0.1626  0.6284  0.2078
 1295SOL    MW4 4914   3.271   2.848   2.283  0.5099  0.5022  0.5803
 1296SOL     OW 4915   6.224   2.724   3.268  0.8447 -0.2107 -0.4112
 1296SOL    HW2 4916   6.190   2.644   3.228 -0.3130  0.9508 -1.8680
 1296SOL    HW3 4917   6.161   2.745   3.337  1.8032 -1.1533  0.8194
 1296SOL    MW4 4918   6.211   2.716   3.272 -0.0223  0.2585 -0.9543
 1297SOL     OW 4919   0.320   5.570   3.603  0.0983  0.3031  0.0272
 1297SOL    HW2 4920   0.237   5.607   3.573 -0.4598 -0.9095  0.0088
 1297SOL    HW3 4921   0.385   5.606   3.543 -0.4779  0.9117 -0.2417
 1297SOL    MW4 4922   0.317   5.579   3.591  0.0697  0.1087  0.0404
 1298SOL     OW 4923   5.597   1.997   6.196  0.4789 -0.1497 -0.4323
 1298SOL    HW2 4924   5.528   2.064   6.195  0.8848  0.2877  0.1983
 1298SOL    HW3 4925   5.679   2.047   6.202  0.7082 -0.7190  2.7148
 1298SOL    MW4 4926   5.599   2.013   6.197  0.5530 -0.1397  0.0375
 1299SOL     OW 4927   2.774   5.787   4.489  0.3688 -0.0810 -0.1930
 1299SOL    HW2 4928   2.776   5.871   4.535 -0.9300 -0.9950  1.6981
 1299SOL    HW3 4929   2.681   5.765   4.483  0.6683 -1.2519 -0.9127
 1299SOL    MW4 4930   2.762   5.795   4.494 -0.1448  0.1965  0.2410
 1300SOL     OW 4931   0.200   4.744   5.996  0.4028  0.1741  0.2296
 1300SOL    HW2 4932   0.128   4.807   5.990  0.8835  0.7286  0.2024
 1300SOL    HW3 4933   0.239   4.760   6.082 -0.3253 -1.0355  0.8092
 1300SOL    MW4 4934   0.195   4.754   6.007 -0.0145 -0.3839  0.3027
 1301SOL     OW 4935   4.787   3.570   4.903 -0.3172 -0.3822 -0.6890
 1301SOL    HW2 4936   4.711   3.572   4.845  0.1198 -0.0827 -1.2550
 1301SOL    HW3 4937   4.797   3.477   4.926 -0.6722 -0.4613 -0.8440
 1301SOL    MW4 4938   4.778   3.558   4.898  0.2525 -0.1350 -0.0479
 1302SOL     OW 4939   5.513   0.188   5.885  0.3652 -0.1531  0.1359
 1302SOL    HW2 4940   5.430   0.235   5.893  0.1719 -0.5691  0.6330
 1302SOL    HW3 4941   5.558   0.204   5.968  0.9565  0.3915 -0.2834
 1302SOL    MW4 4942   5.508   0.196   5.897  0.2212  0.5474 -0.3282
 1303SOL     OW 4943   1.690   6.349   5.466  0.5433  0.5302 -0.2954
 1303SOL    HW2 4944   1.633   6.417   5.429  0.5683  0.8780  0.3018
 1303SOL    HW3 4945   1.754   6.397   5.519  0.9046  0.0814 -0.3141
 1303SOL    MW4 4946   1.691   6.364   5.468 -0.1860 -0.6826 -0.0620
 1304SOL     OW 4947   5.290   4.042   1.728 -0.1506 -0.2384 -0.0942
 1304SOL    HW2 4948   5.290   4.020   1.635 -1.4683 -0.8651  0.0389
 1304SOL    HW3 4949   5.377   4.018   1.758 -0.2964 -1.7346 -0.7832
 1304SOL    MW4 4950   5.301   4.036   1.720 -0.4014 -0.3142 -0.3991
 1305SOL     OW 4951   4.515   0.235   0.469  0.3343 -0.2760  0.4310
 1305SOL    HW2 4952   4.503   0.253   0.562  0.2916 -0.6167  0.4933
 1305SOL    HW3 4953   4.468   0.153   0.454  0.0785 -0.0645  0.0439
 1305SOL    MW4 4954   4.507   0.226   0.479 -0.3220  0.1300  0.1947
 1306SOL     OW 4955   0.542   5.968   1.812 -0.2374  0.2049  0.1897
 1306SOL    HW2 4956   0.476   6.006   1.870  0.6533  1.0817  0.6637
 1306SOL    HW3 4957   0.500   5.963   1.727 -1.7792 -1.6521  0.9812
 1306SOL    MW4 4958   0.528   5.972   1.809 -0.0520  0.4674 -0.2919
 1307SOL     OW 4959   2.335   6.289   4.087 -0.0727  0.5117  0.0970
 1307SOL    HW2 4960   2.415   6.241   4.066 -0.4804  0.2674 -0.9178
 1307SOL    HW3 4961   2.324   6.350   4.015 -1.4097 -0.2333 -0.3485
 1307SOL    MW4 4962   2.344   6.291   4.075  0.3112  0.2895 -0.4197
 1308SOL     OW 4963   0.990   5.489   1.938  0.4846 -0.0418 -0.1432
 1308SOL    HW2 4964   1.050   5.449   2.001  0.8142 -0.9758 -1.0098
 1308SOL    HW3 4965   1.031   5.474   1.853 -1.2037 -1.2033 -0.8274
 1308SOL    MW4 4966   1.003   5.482   1.935 -0.1248  0.1422  0.4577
 1309SOL     OW 4967   3.379   4.105   6.030  0.5654  0.2793 -0.2313
 1309SOL    HW2 4968   3.323   4.028   6.021  1.9871 -0.7660 -0.5152
 1309SOL    HW3 4969   3.332   4.162   6.090  0.0504 -1.3554  0.9947
 1309SOL    MW4 4970   3.366   4.102   6.036  0.2260 -0.0355 -0.2893
 1310SOL     OW 4971   2.897   2.455   2.185  0.3002  0.4301  0.2497
 1310SOL    HW2 4972   2.811   2.495   2.197  0.6781  1.4079 -0.2027
 1310SOL    HW3 4973   2.922   2.427   2.273 -0.7355 -0.4331  0.2890
 1310SOL    MW4 4974   2.889   2.457   2.198  0.4886 -0.1903 -0.1907
 1311SOL     OW 4975   5.504   3.234   3.356 -0.2490 -0.2960 -0.2296
 1311SOL    HW2 4976   5.457   3.213   3.437 -0.1698 -1.5409 -0.4808
 1311SOL    HW3 4977   5.595   3.246   3.384 -0.3959  0.3155  0.0027
 1311SOL    MW4 4978   5.510   3.233   3.371  0.2558  0.1363  0.0615
 1312SOL     OW 4979   2.864   6.089   1.444 -0.1422 -0.3481  0.4104
 1312SOL    HW2 4980   2.876   6.052   1.532  2.9295  2.0197  1.1787
 1312SOL    HW3 4981   2.813   6.168   1.458 -0.8466 -0.6886 -0.1794
 1312SOL    MW4 4982   2.859   6.094   1.458  0.1977  0.7904 -0.4206
 1313SOL     OW 4983   1.689   5.162   1.668  0.9343  0.1801  0.1294
 1313SOL    HW2 4984   1.707   5.224   1.739  0.1060 -0.4330  0.8901
 1313SOL    HW3 4985   1.697   5.215   1.588 -0.6240  1.5068  0.7931
 1313SOL    MW4 4986   1.693   5.177   1.667 -0.1070 -0.2632 -0.1824
 1314SOL     OW 4987   4.167   1.585   4.716  0.1045 -0.1387 -0.5740
 1314SOL    HW2 4988   4.162   1.517   4.648 -1.2937 -0.4809 -0.1588
 1314SOL    HW3 4989   4.094   1.565   4.775  1.5357 -0.1004  1.2958
 1314SOL    MW4 4990   4.156   1.573   4.715  0.4531  0.2412  0.0573
 1315SOL     OW 4991   4.240   3.225   5.813 -0.1831  0.2260 -0.0648
 1315SOL    HW2 4992   4.184   3.150   5.836 -0.6094 -0.1012 -1.9997
 1315SOL    HW3 4993   4.317   3.214   5.869 -0.8859 -0.8157  0.7580
 1315SOL    MW4 4994   4.242   3.213   5.823  0.2548  0.1249  0.1531
 1316SOL     OW 4995   5.469   4.244   1.153 -0.1585 -0.2445 -0.6473
 1316SOL    HW2 4996   5.415   4.277   1.081 -0.3707 -0.3535 -0.5382
 1316SOL    HW3 4997   5.554   4.287   1.140 -0.3214  0.0648 -0.7191
 1316SOL    MW4 4998   5.473   4.254   1.142 -0.3735 -0.1340 -0.2097
 1317SOL     OW 4999   4.107   0.230   4.122  0.1067  0.4365  0.0765
 1317SOL    HW2 5000   4.117   0.325   4.113  0.6767  0.4836  1.0132
 1317SOL    HW3 5001   4.118   0.214   4.216 -0.8075 -0.4692  0.0437
 1317SOL    MW4 5002   4.110   0.241   4.133  0.0825 -0.3273  1.1069
 1318SOL     OW 5003   4.911   3.342   6.291 -0.1072 -0.4568  0.1989
 1318SOL    HW2 5004   5.005   3.355   6.282 -0.2506 -0.4360 -1.7540
 1318SOL    HW3 5005   4.899   3.247   6.287 -0.1925 -0.4403  0.0433
 1318SOL    MW4 5006   4.922   3.331   6.289 -0.1739  0.2248  0.0045
 1319SOL     OW 5007   4.614   1.602   1.232  0.2405  0.1802  0.6382
 1319SOL    HW2 5008   4.682   1.655   1.190  0.6259 -2.0246 -1.7352
 1319SOL    HW3 5009   4.624   1.515   1.194 -4.2215 -0.1706 -0.2553
 1319SOL    MW4 5010   4.624   1.598   1.222 -0.3925  0.3684 -0.2041
 1320SOL     OW 5011   2.946   4.724   3.341  0.3029 -0.4801  0.3667
 1320SOL    HW2 5012   2.959   4.702   3.248 -0.6809 -0.3597  0.1945
 1320SOL    HW3 5013   3.018   4.784   3.361  0.6236 -0.6427 -0.2687
 1320SOL    MW4 5014   2.957   4.729   3.331  0.1713  0.4738 -0.0529
 1321SOL     OW 5015   4.315   6.189   1.935  0.7152  0.3085  0.3532
 1321SOL    HW2 5016   4.229   6.231   1.932  0.4231 -0.3209 -0.1748
 1321SOL    HW3 5017   4.370   6.244   1.879  0.4774  0.3059  0.1165
 1321SOL    MW4 5018   4.311   6.202   1.927 -0.5420 -0.1063  0.3205
 1322SOL     OW 5019   5.902   4.472   1.874  0.0458  0.5545  0.7562
 1322SOL    HW2 5020   5.977   4.415   1.890  0.8036 -0.1320 -3.8895
 1322SOL    HW3 5021   5.926   4.555   1.916  1.9163 -0.5523  2.0379
 1322SOL    MW4 5022   5.915   4.475   1.882 -0.7569 -0.4432 -0.2908
 1323SOL     OW 5023   2.094   6.038   1.438  0.3571 -0.1325  0.5135
 1323SOL    HW2 5024   2.118   6.107   1.377  0.5692 -1.5766 -1.1206
 1323SOL    HW3 5025   2.068   6.084   1.518  0.6827  1.7952 -0.4379
 1323SOL    MW4 5026   2.093   6.053   1.441  0.1034  0.4206  0.4962
 1324SOL     OW 5027   2.618   2.297   1.797 -0.6887 -0.2830 -0.4330
 1324SOL    HW2 5028   2.646   2.209   1.820  0.3970  0.2152  0.2378
 1324SOL    HW3 5029   2.655   2.312   1.710 -0.0211 -0.1363 -0.1313
 1324SOL    MW4 5030   2.627   2.287   1.789 -0.2150  0.4737  0.0367
 1325SOL     OW 5031   3.942   1.864   4.912 -0.0570 -0.4491  0.1408
 1325SOL    HW2 5032   3.849   1.882   4.926 -0.2426 -0.4150 -1.0647
 1325SOL    HW3 5033   3.987   1.926   4.970 -0.7743  0.2950 -0.0701
 1325SOL    MW4 5034   3.936   1.875   4.921 -0.5421 -0.3661 -0.0332
 1326SOL     OW 5035   3.517   3.057   3.807  0.5986 -0.0555 -0.3831
 1326SOL    HW2 5036   3.431   3.016   3.810  0.9052 -0.6655  0.0449
 1326SOL    HW3 5037   3.510   3.132   3.867  0.6345 -0.6158  0.3254
 1326SOL    MW4 5038   3.505   3.062   3.815 -0.0545 -0.2863 -0.1232
 1327SOL     OW 5039   4.764   4.071   1.676 -0.4005  0.5145 -0.0587
 1327SOL    HW2 5040   4.764   4.162   1.646 -0.0891  0.4429 -0.2900
 1327SOL    HW3 5041   4.846   4.035   1.641  0.2039  0.5472  1.2395
 1327SOL    MW4 5042   4.775   4.078   1.667  0.1430 -0.1596  0.1973
 1328SOL     OW 5043   1.778   1.042   4.934  0.0808 -0.1019 -0.1272
 1328SOL    HW2 5044   1.848   1.034   4.869 -0.9353 -1.0278 -1.1439
 1328SOL    HW3 5045   1.812   0.998   5.012  0.6766 -0.4503 -0.5780
 1328SOL    MW4 5046   1.791   1.035   4.936 -0.0145 -0.1482  0.4952
 1329SOL     OW 5047   1.925   0.592   3.148  0.1038 -0.0839  0.2159
 1329SOL    HW2 5048   1.923   0.684   3.122 -0.9696  0.2518  1.3632
 1329SOL    HW3 5049   2.017   0.568   3.145  0.7602  1.7837  2.3677
 1329SOL    MW4 5050   1.937   0.601   3.144 -0.6084 -0.3061 -0.6180
 1330SOL     OW 5051   3.153   0.319   0.888 -0.6093  0.3418  0.4687
 1330SOL    HW2 5052   3.088   0.309   0.958 -0.1350 -0.8371  0.7579
 1330SOL    HW3 5053   3.101   0.336   0.809 -1.2938 -0.8812  0.6422
 1330SOL    MW4 5054   3.138   0.320   0.887  0.0528 -0.1058 -0.2582
 1331SOL     OW 5055   5.099   1.440   6.306  0.2876 -0.0926  0.8334
 1331SOL    HW2 5056   5.046   1.520   6.299  1.9611  0.9752 -0.0223
 1331SOL    HW3 5057   5.168   1.451   6.241  2.3550 -0.8292  2.7977
 1331SOL    MW4 5058   5.101   1.452   6.297 -0.1039  0.3987 -0.1409
 1332SOL     OW 5059   4.471   4.526   1.416 -0.0496  0.8002 -0.0419
 1332SOL    HW2 5060   4.522   4.562   1.489 -1.0849  2.0997  0.0672
 1332SOL    HW3 5061   4.505   4.572   1.338  0.5989 -0.1076 -0.3144
 1332SOL    MW4 5062   4.482   4.537   1.415  0.5603 -0.0941 -0.1546
 1333SOL     OW 5063   5.123   2.760   0.901  0.3660 -0.2591 -0.5185
 1333SOL    HW2 5064   5.188   2.698   0.871  0.7288 -0.0074 -0.2606
 1333SOL    HW3 5065   5.160   2.797   0.981  1.1019  1.7788 -1.7327
 1333SOL    MW4 5066   5.136   2.757   0.907 -0.0136  0.0088  0.2980
 1334SOL     OW 5067   5.871   2.454   4.995  0.2314  0.6681  0.3628
 1334SOL    HW2 5068   5.853   2.486   4.907 -0.4586 -1.8727 -0.5302
 1334SOL    HW3 5069   5.964   2.430   4.993 -0.1773 -1.0702 -0.3617
 1334SOL    MW4 5070   5.881   2.455   4.983 -0.4505 -0.0317  0.1802
 1335SOL     OW 5071   2.128   0.529   0.211 -0.0354 -0.4362 -0.3480
 1335SOL    HW2 5072   2.204   0.532   0.152  0.1943  0.7224 -0.0271
 1335SOL    HW3 5073   2.147   0.596   0.277 -1.3941 -0.0461 -0.3287
 1335SOL    MW4 5074   2.141   0.538   0.212  0.8199  0.5745 -0.3742
 1336SOL     OW 5075   4.272   5.195   6.367  0.1127  0.1249 -0.5649
 1336SOL    HW2 5076   4.230   5.149   6.295 -0.8500 -0.9245  0.6131
 1336SOL    HW3 5077   4.366   5.191   6.347  0.0420 -2.0437 -0.7355
 1336SOL    MW4 5078   4.279   5.188   6.355  0.1670  0.2831 -0.5782
 1337SOL     OW 5079   3.054   3.614   2.125  0.3838  0.3277 -0.1747
 1337SOL    HW2 5080   3.088   3.653   2.044  0.5064 -0.2841 -0.4167
 1337SOL    HW3 5081   3.117   3.547   2.148  0.0333  0.0912  0.1047
 1337SOL    MW4 5082   3.067   3.611   2.117  0.2133 -0.6959  0.4802
 1338SOL     OW 5083   0.264   1.398   5.008 -0.3648 -0.2029 -0.2105
 1338SOL    HW2 5084   0.352   1.432   5.024  0.5317 -2.1998 -0.6153
 1338SOL    HW3 5085   0.232   1.448   4.932 -0.3515  1.7817  1.0219
 1338SOL    MW4 5086   0.271   1.410   5.000 -0.1328  0.0496 -0.4112
 1339SOL     OW 5087   3.329   5.612   4.889  0.3847 -0.1484 -1.1002
 1339SOL    HW2 5088   3.413   5.640   4.853  1.1665 -2.1085 -0.9277
 1339SOL    HW3 5089   3.332   5.516   4.884 -1.5730 -0.2768 -0.4735
 1339SOL    MW4 5090   3.341   5.603   4.883 -0.5404 -0.0591  0.1926
 1340SOL     OW 5091   2.025   2.318   1.480 -0.4608  0.3494  0.2377
 1340SOL    HW2 5092   1.951   2.358   1.525 -0.5285  0.8678 -0.3205
 1340SOL    HW3 5093   2.102   2.359   1.520 -0.5357  1.2928 -0.5315
 1340SOL    MW4 5094   2.026   2.329   1.491  0.2757 -0.3072 -0.7387
 1341SOL     OW 5095   3.669   2.423   1.580 -0.2376  0.1685  0.0298
 1341SOL    HW2 5096   3.584   2.429   1.624 -0.8306 -1.3640 -0.8350
 1341SOL    HW3 5097   3.729   2.391   1.648 -0.4235  0.8398  0.5266
 1341SOL    MW4 5098   3.666   2.420   1.595 -0.2523 -0.5146 -0.2100
 1342SOL     OW 5099   4.130   1.586   2.235 -0.2282 -0.1387  0.1831
 1342SOL    HW2 5100   4.169   1.507   2.197 -0.9233 -0.4497  0.0874
 1342SOL    HW3 5101   4.036   1.567   2.235 -0.4502  0.9320 -0.4009
 1342SOL    MW4 5102   4.123   1.573   2.230  0.3334  0.0461 -0.5366
 1343SOL     OW 5103   0.207   5.694   0.682 -0.2625  0.2366  0.2831
 1343SOL    HW2 5104   0.170   5.707   0.595 -1.0395  0.1483  0.5920
 1343SOL    HW3 5105   0.169   5.764   0.735  2.0738  1.8235  0.0267
 1343SOL    MW4 5106   0.197   5.705   0.677 -0.1428  0.3952 -0.1781
 1344SOL     OW 5107   2.840   0.737   2.351 -0.3003  0.2796  0.3640
 1344SOL    HW2 5108   2.791   0.679   2.410 -0.8205 -0.3874 -0.6970
 1344SOL    HW3 5109   2.803   0.824   2.367 -1.5649 -0.1456 -0.1254
 1344SOL    MW4 5110   2.829   0.741   2.361 -0.2635 -0.2333 -0.3158
 1345SOL     OW 5111   2.607   1.558   1.735 -0.3022 -0.6941 -0.6350
 1345SOL    HW2 5112   2.597   1.467   1.760  2.4052 -1.5233 -2.1809
 1345SOL    HW3 5113   2.681   1.590   1.787 -1.5202  0.8054  0.2519
 1345SOL    MW4 5114   2.616   1.550   1.745 -0.1440 -0.0713  0.8083
 1346SOL     OW 5115   5.585   5.901   0.156  0.1442 -0.3957  0.3927
 1346SOL    HW2 5116   5.576   5.824   0.099  2.1992 -0.0653 -0.4601
 1346SOL    HW3 5117   5.512   5.893   0.218 -1.3749 -1.4879 -1.4231
 1346SOL    MW4 5118   5.574   5.890   0.157  0.4877  0.2693  0.1944
 1347SOL     OW 5119   2.195   4.534   1.080  0.0599  0.2075  0.2580
 1347SOL    HW2 5120   2.287   4.522   1.103 -0.1541 -1.0587  0.5214
 1347SOL    HW3 5121   2.192   4.619   1.036  1.0816  1.0501  1.7207
 1347SOL    MW4 5122   2.206   4.544   1.077  1.1340 -0.0321 -0.1144
 1348SOL     OW 5123   2.836   4.785   2.002  0.2196 -0.1661 -0.1042
 1348SOL    HW2 5124   2.911   4.738   2.038  0.4021  0.5048  0.4210
 1348SOL    HW3 5125   2.834   4.867   2.051 -0.7155 -0.0769 -0.2748
 1348SOL    MW4 5126   2.846   4.789   2.014  0.8171  0.5289 -0.8575
 1349SOL     OW 5127   2.069   2.967   5.084  0.0383 -0.1234  0.2719
 1349SOL    HW2 5128   2.082   3.053   5.123 -1.2248 -0.0282  0.5332
 1349SOL    HW3 5129   2.154   2.923   5.092  0.7159  1.1134  0.0718
 1349SOL    MW4 5130   2.082   2.972   5.090 -0.0671 -0.6865 -0.1518
 1350SOL     OW 5131   5.768   3.237   3.373  0.0390  0.3506  0.3953
 1350SOL    HW2 5132   5.852   3.191   3.379  0.9235  1.5622 -1.5133
 1350SOL    HW3 5133   5.779   3.313   3.431  0.2808  0.4952  0.1664
 1350SOL    MW4 5134   5.781   3.241   3.381 -0.6337 -0.2876  0.1132
 1351SOL     OW 5135   5.008   3.345   2.296 -0.6739  0.0435 -0.4929
 1351SOL    HW2 5136   4.920   3.319   2.324 -0.5616 -0.1714 -0.3406
 1351SOL    HW3 5137   5.066   3.282   2.337 -0.2959  1.2078  0.8553
 1351SOL    MW4 5138   5.004   3.334   2.305 -0.3330  0.5663  0.0723
 1352SOL     OW 5139   0.672   1.418   2.037  0.3191  0.1555 -0.2631
 1352SOL    HW2 5140   0.755   1.461   2.056  0.1953  0.6247 -0.7539
 1352SOL    HW3 5141   0.646   1.378   2.120  0.4426  1.0309  0.2117
 1352SOL    MW4 5142   0.679   1.418   2.050 -0.2830  0.0983 -0.1357
 1353SOL     OW 5143   0.817   4.099   2.546 -0.3677 -0.1150 -0.2126
 1353SOL    HW2 5144   0.856   4.046   2.477  1.7170 -0.0474  0.8228
 1353SOL    HW3 5145   0.730   4.062   2.559  0.7438 -2.8863  0.0113
 1353SOL    MW4 5146   0.811   4.087   2.539  0.1923  0.7113  0.1691
 1354SOL     OW 5147   2.919   1.134   2.827 -0.7363  0.2822  0.5517
 1354SOL    HW2 5148   3.011   1.123   2.805 -0.4292 -0.2837  2.0700
 1354SOL    HW3 5149   2.878   1.051   2.802 -0.9002  0.6056 -0.3124
 1354SOL    MW4 5150   2.925   1.122   2.821  0.3071 -0.3689 -0.4421
 1355SOL     OW 5151   6.229   2.804   4.453  0.2404  0.1335  0.1396
 1355SOL    HW2 5152   6.150   2.816   4.400  1.1024 -1.0733 -1.4908
 1355SOL    HW3 5153   6.254   2.713   4.439  1.5633  0.3063  1.1699
 1355SOL    MW4 5154   6.222   2.794   4.444  0.4835  0.2953  0.2636
 1356SOL     OW 5155   0.694   1.372   2.584 -0.1870  0.1325 -0.4299
 1356SOL    HW2 5156   0.784   1.373   2.615 -0.1862 -0.6820 -0.3806
 1356SOL    HW3 5157   0.650   1.438   2.637  0.0206 -0.5972  0.6932
 1356SOL    MW4 5158   0.700   1.381   2.595  0.3837 -0.6171 -0.6320
 1357SOL     OW 5159   0.041   1.959   3.189  0.9209  0.3095  0.4589
 1357SOL    HW2 5160   0.045   1.882   3.132  1.5377  1.2304 -0.8170
 1357SOL    HW3 5161  -0.050   1.990   3.181  1.3492  1.2963 -1.3185
 1357SOL    MW4 5162   0.029   1.953   3.180 -0.2218  0.2378  0.9353
 1358SOL     OW 5163   0.736   4.728   4.626 -0.1058 -0.2063 -0.6048
 1358SOL    HW2 5164   0.794   4.706   4.553 -0.4634 -2.0495 -0.3779
 1358SOL    HW3 5165   0.649   4.703   4.596 -0.5632  0.9998 -0.3206
 1358SOL    MW4 5166   0.732   4.722   4.612  0.2022 -0.1600 -0.0933
 1359SOL     OW 5167   1.514   0.969   2.889 -0.4159  0.7661  0.7040
 1359SOL    HW2 5168   1.584   1.025   2.921 -0.8647  0.2258  2.8083
 1359SOL    HW3 5169   1.476   1.016   2.815  0.5348  2.2514  1.1371
 1359SOL    MW4 5170   1.518   0.982   2.884 -0.0185  0.1778 -0.0527
 1360SOL     OW 5171   5.823   5.266   3.813  0.3059  0.1969  0.3518
 1360SOL    HW2 5172   5.802   5.294   3.901 -0.6890  0.4790  0.0384
 1360SOL    HW3 5173   5.772   5.323   3.756 -0.7205 -1.3495 -0.3397
 1360SOL    MW4 5174   5.814   5.277   3.817  0.2600  0.4799 -0.0026
 1361SOL     OW 5175   4.773   0.496   4.240  0.6881  0.2065  0.1264
 1361SOL    HW2 5176   4.707   0.544   4.190 -0.6551  0.1646  1.7746
 1361SOL    HW3 5177   4.836   0.466   4.174  0.3589  2.2663 -1.2024
 1361SOL    MW4 5178   4.773   0.498   4.224  0.0208 -0.1720  0.5282
 1362SOL     OW 5179   0.331   5.218   6.333  0.1250  0.4710  0.6401
 1362SOL    HW2 5180   0.302   5.290   6.389  1.4341  1.0097  0.6457
 1362SOL    HW3 5181   0.355   5.261   6.250 -0.0207 -0.0936  0.2991
 1362SOL    MW4 5182   0.330   5.233   6.329  0.1310 -0.0434  0.1416
 1363SOL     OW 5183   3.723   0.352   3.209  0.6690  0.4639 -0.0248
 1363SOL    HW2 5184   3.735   0.411   3.283  1.7411 -0.3168  0.4398
 1363SOL    HW3 5185   3.800   0.296   3.209 -1.1249 -2.2483  0.7400
 1363SOL    MW4 5186   3.735   0.352   3.218 -0.3774 -0.0255 -0.0720
 1364SOL     OW 5187   2.733   5.761   2.493  0.7120 -0.0244  0.1794
 1364SOL    HW2 5188   2.651   5.781   2.540  0.4469 -0.0267 -0.2736
 1364SOL    HW3 5189   2.711   5.686   2.438  0.8254  0.3863 -0.4429
 1364SOL    MW4 5190   2.719   5.754   2.492 -0.3896  0.0956  0.4757
 1365SOL     OW 5191   6.233   5.852   4.932  0.1373 -0.1704 -0.1330
 1365SOL    HW2 5192   6.242   5.757   4.928  0.2018 -0.1376 -0.8520
 1365SOL    HW3 5193   6.148   5.867   4.974  1.5750 -0.5101  3.2892
 1365SOL    MW4 5194   6.223   5.842   4.937 -0.3978 -0.0341 -0.5591
 1366SOL     OW 5195   1.010   3.347   1.340 -0.2977 -0.1810 -0.0071
 1366SOL    HW2 5196   1.031   3.440   1.350  1.4079 -0.4321 -0.8745
 1366SOL    HW3 5197   1.040   3.325   1.252 -2.4115 -1.1481 -0.5559
 1366SOL    MW4 5198   1.017   3.357   1.330 -0.3589 -0.5002  0.1885
 1367SOL     OW 5199   6.345   4.772   1.050 -0.0930 -0.2770  0.3948
 1367SOL    HW2 5200   6.380   4.812   0.970  0.3242  1.2352  1.2865
 1367SOL    HW3 5201   6.253   4.801   1.052  0.0059  0.0273  0.6559
 1367SOL    MW4 5202   6.337   4.781   1.040  0.4641 -0.1649  0.5367
 1368SOL     OW 5203   2.919   1.281   6.401 -0.0817 -0.7615 -0.1487
 1368SOL    HW2 5204   3.011   1.284   6.429 -0.5354 -0.3564  1.3633
 1368SOL    HW3 5205   2.920   1.320   6.314  1.0543  0.1175  0.2318
 1368SOL    MW4 5206   2.931   1.286   6.393 -0.1136  0.6523  0.0227
 1369SOL     OW 5207   6.372   3.474   1.485 -0.1087  0.5863  0.4604
 1369SOL    HW2 5208   6.322   3.435   1.556 -1.9490 -0.8207 -1.4831
 1369SOL    HW3 5209   6.457   3.496   1.524 -0.8764 -0.5586  2.9321
 1369SOL    MW4 5210   6.377   3.472   1.499 -0.0933  0.3261 -0.3364
 1370SOL     OW 5211   1.943   1.704   0.255  0.3138  0.6810 -0.4801
 1370SOL    HW2 5212   1.999   1.773   0.291  0.8992 -0.2898  0.5169
 1370SOL    HW3 5213   1.973   1.624   0.297 -1.7048  0.0935 -0.0410
 1370SOL    MW4 5214   1.955   1.702   0.265  0.3601  0.7366 -0.4201
 1371SOL     OW 5215   3.064   4.965   2.738 -1.0042 -0.3818  0.1493
 1371SOL    HW2 5216   2.992   4.903   2.726 -0.1860 -2.0879  3.1450
 1371SOL    HW3 5217   3.047   5.005   2.824  1.9990 -1.4754  1.3710
 1371SOL    MW4 5218   3.052   4.962   2.748  0.2984  0.0477 -0.0598
 1372SOL     OW 5219   4.267   1.843   2.985 -0.3654 -0.5511  0.2775
 1372SOL    HW2 5220   4.336   1.843   3.051 -0.2767 -1.5796  0.2012
 1372SOL    HW3 5221   4.313   1.842   2.902 -0.4322 -2.1275  0.2258
 1372SOL    MW4 5222   4.282   1.843   2.983  1.3597  0.7727 -0.3977
 1373SOL     OW 5223   3.023   1.132   2.530  0.6652 -0.0918 -0.0291
 1373SOL    HW2 5224   2.939   1.114   2.572  0.2769  0.7332 -0.4375
 1373SOL    HW3 5225   3.052   1.047   2.497  0.8036 -0.6854  1.5666
 1373SOL    MW4 5226   3.016   1.118   2.531  0.3416 -0.0547 -0.0272
 1374SOL     OW 5227   6.138   3.636   6.137  0.7441  0.0909  0.4974
 1374SOL    HW2 5228   6.086   3.700   6.089 -0.8762 -1.4906  0.0042
 1374SOL    HW3 5229   6.195   3.597   6.071 -1.9355 -2.5428 -0.5117
 1374SOL    MW4 5230   6.139   3.639   6.122  0.2331 -0.1461  0.1188
 1375SOL     OW 5231   0.662   3.280   5.373 -0.6140 -0.3009 -0.6246
 1375SOL    HW2 5232   0.704   3.294   5.289 -0.4206  0.0765 -0.4691
 1375SOL    HW3 5233   0.734   3.272   5.435 -0.7609  0.1402 -0.3892
 1375SOL    MW4 5234   0.677   3.281   5.370 -0.5386  0.3307 -0.0555
 1376SOL     OW 5235   5.408   0.616   1.528 -0.7288 -0.3469  0.0247
 1376SOL    HW2 5236   5.396   0.590   1.436 -1.6015 -0.6623  0.2194
 1376SOL    HW3 5237   5.425   0.710   1.524 -0.3033 -0.4398 -0.4935
 1376SOL    MW4 5238   5.409   0.625   1.515  0.1482 -0.2379 -0.3707
 1377SOL     OW 5239   0.239   3.342   3.712 -0.3871  0.3172  0.1199
 1377SOL    HW2 5240   0.276   3.258   3.740 -1.0170 -0.5933 -1.6407
 1377SOL    HW3 5241   0.241   3.397   3.791  0.6942 -1.1061  1.1287
 1377SOL    MW4 5242   0.244   3.339   3.726 -0.4330 -0.3382 -0.2999
 1378SOL     OW 5243   5.193   4.054   4.363 -0.2522  0.1714 -0.1953
 1378SOL    HW2 5244   5.284   4.066   4.390 -0.4556 -1.1029  1.1819
 1378SOL    HW3 5245   5.173   3.964   4.387 -1.2105 -0.3339 -2.5539
 1378SOL    MW4 5246   5.203   4.044   4.370  0.0029 -0.1126 -0.1003
 1379SOL     OW 5247   5.399   1.725   0.920  0.0851 -0.1317  0.1147
 1379SOL    HW2 5248   5.493   1.745   0.926  0.4005 -1.3923 -0.2069
 1379SOL    HW3 5249   5.359   1.776   0.990  1.0320  0.3043  0.3597
 1379SOL    MW4 5250   5.406   1.734   0.930  0.5060 -0.1171 -0.1641
 1380SOL     OW 5251   5.413   6.140   3.127  0.1079 -0.0307  0.5525
 1380SOL    HW2 5252   5.330   6.175   3.094  0.5864  0.7162  0.0926
 1380SOL    HW3 5253   5.441   6.077   3.060  0.7610  1.0111 -0.1866
 1380SOL    MW4 5254   5.405   6.137   3.114 -0.4233  0.2849 -0.2071
 1381SOL     OW 5255   3.632   3.304   2.790  0.8261  0.0390  0.4583
 1381SOL    HW2 5256   3.611   3.319   2.698 -1.4045  0.1960  0.9289
 1381SOL    HW3 5257   3.686   3.225   2.790 -1.2533 -1.4855 -0.8417
 1381SOL    MW4 5258   3.637   3.296   2.778 -0.0411 -0.1780  0.6536
 1382SOL     OW 5259   1.722   3.978   0.748 -0.0941  0.0085 -0.1534
 1382SOL    HW2 5260   1.672   4.016   0.675 -1.8908 -0.6781  0.6721
 1382SOL    HW3 5261   1.775   3.910   0.708 -1.0376 -0.3383 -0.8460
 1382SOL    MW4 5262   1.723   3.974   0.733 -0.3007  0.5461  0.3623
 1383SOL     OW 5263   6.138   2.839   2.075 -0.6199 -0.3240 -0.0692
 1383SOL    HW2 5264   6.178   2.903   2.016 -0.6379  0.3838  0.6641
 1383SOL    HW3 5265   6.089   2.781   2.018 -0.9162  0.5495 -0.7242
 1383SOL    MW4 5266   6.137   2.840   2.060  0.3023 -0.1647 -0.0673
 1384SOL     OW 5267   4.290   2.397   2.584  0.2915  0.0097 -0.2313
 1384SOL    HW2 5268   4.196   2.397   2.604  0.3397  1.5214  0.0989
 1384SOL    HW3 5269   4.325   2.322   2.633 -0.4859  0.4006  0.9805
 1384SOL    MW4 5270   4.282   2.387   2.593 -0.0467  0.6069 -0.1567
 1385SOL     OW 5271   3.568   4.468   5.472  0.4152 -0.5400  0.0076
 1385SOL    HW2 5272   3.660   4.485   5.493  0.1724 -0.5605  1.1287
 1385SOL    HW3 5273   3.529   4.441   5.554 -0.6629 -0.2867 -0.4032
 1385SOL    MW4 5274   3.575   4.467   5.485 -0.0030  0.7113 -0.0400
 1386SOL     OW 5275   1.314   0.180   0.920  0.3776  0.1615 -0.2831
 1386SOL    HW2 5276   1.235   0.171   0.974  0.6283 -0.6337 -0.0344
 1386SOL    HW3 5277   1.290   0.243   0.852 -0.1661  0.6540  0.3486
 1386SOL    MW4 5278   1.301   0.187   0.918  0.4371  0.2710 -0.5112
 1387SOL     OW 5279   3.141   5.886   1.132 -0.7515 -0.4257 -0.7575
 1387SOL    HW2 5280   3.214   5.827   1.148  0.5552  0.8165 -1.9070
 1387SOL    HW3 5281   3.153   5.957   1.195 -1.8370 -0.9176  0.0446
 1387SOL    MW4 5282   3.152   5.888   1.143  0.5507  0.1919  0.5428
 1388SOL     OW 5283   2.162   1.887   0.233 -0.3620 -0.2326 -0.2396
 1388SOL    HW2 5284   2.194   1.835   0.159  0.4341  0.1812 -0.1929
 1388SOL    HW3 5285   2.198   1.974   0.219 -0.8004  0.0372  0.2617
 1388SOL    MW4 5286   2.171   1.892   0.222 -0.7626 -0.0400 -0.0184
 1389SOL     OW 5287   0.325   0.545   6.190  0.3464 -0.6067  0.0292
 1389SOL    HW2 5288   0.351   0.540   6.098  0.3348  0.3191 -0.0359
 1389SOL    HW3 5289   0.403   0.519   6.239  1.0768  0.9976 -0.2000
 1389SOL    MW4 5290   0.339   0.541   6.185 -0.1419 -0.1530  0.0019
 1390SOL     OW 5291   1.386   6.028   1.275  0.1453  0.0850 -0.3319
 1390SOL    HW2 5292   1.293   6.006   1.276 -0.1456  1.2796 -0.3229
 1390SOL    HW3 5293   1.397   6.086   1.199  0.9294 -0.2050 -0.4582
 1390SOL    MW4 5294   1.376   6.033   1.265  0.6089 -0.2098 -0.5587
 1391SOL     OW 5295   4.449   5.724   0.437 -0.0817  0.6466 -0.4634
 1391SOL    HW2 5296   4.355   5.718   0.453 -0.4550  4.0768 -0.5845
 1391SOL    HW3 5297   4.487   5.746   0.522  0.2681  1.4566 -0.8112
 1391SOL    MW4 5298   4.442   5.726   0.450  0.0844 -0.3604 -0.0854
 1392SOL     OW 5299   1.757   0.921   4.194  0.3285  0.1681  0.2463
 1392SOL    HW2 5300   1.668   0.952   4.209  0.0616 -0.3119 -0.2972
 1392SOL    HW3 5301   1.779   0.870   4.272  0.2301  0.4997  0.4951
 1392SOL    MW4 5302   1.748   0.918   4.206  0.1093  0.3819 -0.7661
 1393SOL     OW 5303   2.363   6.145   3.137 -0.4667  0.5068  0.7276
 1393SOL    HW2 5304   2.435   6.190   3.181  0.7076 -0.0398 -0.5988
 1393SOL    HW3 5305   2.366   6.055   3.171 -1.0324  0.6666  1.2371
 1393SOL    MW4 5306   2.373   6.139   3.147 -0.1380  0.5801  0.8612
 1394SOL     OW 5307   2.875   2.228   5.315  0.3446 -0.3137 -0.2072
 1394SOL    HW2 5308   2.911   2.297   5.260  0.2269 -0.2187 -0.1667
 1394SOL    HW3 5309   2.796   2.199   5.269  0.1974 -0.1732 -0.0478
 1394SOL    MW4 5310   2.869   2.233   5.302 -0.3963  0.3190  0.1189
 1395SOL     OW 5311   6.092   3.250   1.314  0.3412 -0.3661 -0.1766
 1395SOL    HW2 5312   6.011   3.237   1.264  0.8547 -0.3834 -1.0219
 1395SOL    HW3 5313   6.101   3.345   1.320 -0.8015 -0.3064  1.7179
 1395SOL    MW4 5314   6.082   3.261   1.308 -0.3587 -0.2592  0.2877
 1396SOL     OW 5315   0.463   5.032   5.000 -0.4571  0.2886 -0.0767
 1396SOL    HW2 5316   0.434   4.987   4.921  0.0137 -0.1570  0.0040
 1396SOL    HW3 5317   0.527   4.973   5.040 -1.3078  0.0985  1.0920
 1396SOL    MW4 5318   0.467   5.018   4.995  0.5412 -0.2766  0.1762
 1397SOL     OW 5319   2.751   1.851   1.219 -0.3262  0.4070  0.2248
 1397SOL    HW2 5320   2.805   1.785   1.176  0.8092  0.5021  1.4279
 1397SOL    HW3 5321   2.796   1.933   1.203 -0.9550  0.7097 -0.0412
 1397SOL    MW4 5322   2.764   1.853   1.212 -0.3677 -0.4374 -0.1238
 1398SOL     OW 5323   0.252   1.179   4.772 -0.0531  0.0658  0.2170
 1398SOL    HW2 5324   0.223   1.170   4.863 -1.2821  0.3169 -0.1377
 1398SOL    HW3 5325   0.201   1.115   4.724 -0.1942  0.6831 -0.4690
 1398SOL    MW4 5326   0.242   1.170   4.778 -0.3779  0.0630  0.3672
 1399SOL     OW 5327   1.975   4.344   1.120  0.3805  0.3673  0.2146
 1399SOL    HW2 5328   1.900   4.344   1.060  0.4594 -2.6112 -0.0353
 1399SOL    HW3 5329   2.038   4.404   1.080  0.1190 -0.9423 -2.3596
 1399SOL    MW4 5330   1.974   4.352   1.107 -0.2366  0.1724  0.2345
 1400SOL     OW 5331   5.679   1.358   0.820  0.5176  0.2476 -0.2393
 1400SOL    HW2 5332   5.770   1.348   0.792  1.1754 -0.0006  1.8632
 1400SOL    HW3 5333   5.653   1.442   0.783  1.3989  0.0550 -1.3606
 1400SOL    MW4 5334   5.688   1.368   0.811 -0.5149  0.1003 -0.8111
 1401SOL     OW 5335   3.906   4.276   3.438  0.0795 -0.2544 -0.2150
 1401SOL    HW2 5336   3.972   4.231   3.491  0.1355  0.7061  0.5428
 1401SOL    HW3 5337   3.941   4.364   3.426 -2.1694  1.1222  2.3460
 1401SOL    MW4 5338   3.919   4.281   3.443  0.0522 -0.0055 -0.4045
 1402SOL     OW 5339   3.593   2.639   4.125  0.3275 -0.1408 -0.1715
 1402SOL    HW2 5340   3.599   2.726   4.165  0.9850 -0.5377  0.6302
 1402SOL    HW3 5341   3.553   2.585   4.193 -0.9076 -0.2824 -0.9871
 1402SOL    MW4 5342   3.589   2.643   4.139 -0.3343  0.3318  0.6053
 1403SOL     OW 5343   1.869   6.238   4.263 -0.0503 -0.4115  0.0261
 1403SOL    HW2 5344   1.783   6.281   4.268  0.9254  1.8485 -1.5015
 1403SOL    HW3 5345   1.848   6.147   4.239 -2.0615 -0.3269  1.1749
 1403SOL    MW4 5346   1.855   6.232   4.261  0.2799 -0.1543  0.6184
 1404SOL     OW 5347   5.128   2.790   0.100 -0.4491  0.3207  0.1345
 1404SOL    HW2 5348   5.149   2.844   0.024 -0.3411 -2.0136 -1.5843
 1404SOL    HW3 5349   5.211   2.750   0.125 -0.8072 -0.3047  0.3443
 1404SOL    MW4 5350   5.142   2.792   0.093  0.1748 -0.2858 -0.0103
 1405SOL     OW 5351   2.585   3.781   4.524 -0.1073 -0.2543  0.2320
 1405SOL    HW2 5352   2.519   3.727   4.567 -0.5968  0.0360 -0.1483
 1405SOL    HW3 5353   2.642   3.719   4.479 -0.9960 -0.4461 -0.6727
 1405SOL    MW4 5354   2.584   3.766   4.524  0.0778  0.7052  0.4619
 1406SOL     OW 5355   4.701   3.785   3.892 -0.1902 -0.7801 -0.0885
 1406SOL    HW2 5356   4.711   3.740   3.976 -0.9485 -0.2388  0.3056
 1406SOL    HW3 5357   4.606   3.795   3.882 -0.0553  0.1450 -0.4814
 1406SOL    MW4 5358   4.690   3.780   3.902  0.4258  0.5514  0.2587
 1407SOL     OW 5359   5.555   6.108   6.174 -0.2482  0.0440 -0.0185
 1407SOL    HW2 5360   5.639   6.146   6.147 -0.2967  0.2526  0.1230
 1407SOL    HW3 5361   5.492   6.178   6.160 -0.1863  0.3732  1.2113
 1407SOL    MW4 5362   5.558   6.123   6.169  0.3799 -0.5864  0.3373
 1408SOL     OW 5363   1.285   5.813   0.492  0.0837 -0.3690  0.7298
 1408SOL    HW2 5364   1.362   5.765   0.463  0.1065 -1.4913  2.4878
 1408SOL    HW3 5365   1.317   5.901   0.511  0.5473 -0.3177 -0.2420
 1408SOL    MW4 5366   1.299   5.818   0.491  0.4480  0.2213  0.1138
 1409SOL     OW 5367   3.483   6.237   4.779  0.0033  0.1333 -0.5217
 1409SOL    HW2 5368   3.511   6.146   4.786  3.3025  1.0689  0.7272
 1409SOL    HW3 5369   3.541   6.275   4.713 -0.9238  1.4754 -0.6125
 1409SOL    MW4 5370   3.495   6.230   4.771 -0.0616  0.3819 -0.4373
 1410SOL     OW 5371   3.465   4.593  -0.029 -0.7376 -0.1553 -0.3228
 1410SOL    HW2 5372   3.510   4.620   0.051  1.7463 -0.1840 -1.6096
 1410SOL    HW3 5373   3.451   4.499  -0.017  1.8072 -0.6738 -0.8048
 1410SOL    MW4 5374   3.469   4.584  -0.017 -0.0963  0.0111 -0.3395
 1411SOL     OW 5375   5.997   2.083   4.843 -0.1632 -0.0284  0.1689
 1411SOL    HW2 5376   6.037   2.096   4.930 -0.2723 -1.7660  0.5211
 1411SOL    HW3 5377   5.912   2.127   4.849  0.4743  1.2359  0.3790
 1411SOL    MW4 5378   5.991   2.091   4.856  0.0645 -0.2224 -0.3555
 1412SOL     OW 5379   1.756   6.407   1.034  0.3860  0.1381 -0.2514
 1412SOL    HW2 5380   1.809   6.484   1.014  0.6462  0.2940  1.0061
 1412SOL    HW3 5381   1.809   6.355   1.094 -0.2017 -0.5345 -0.2959
 1412SOL    MW4 5382   1.770   6.410   1.039  0.0569 -0.0758 -0.4715
 1413SOL     OW 5383   5.062   0.354   3.001  0.1570  0.3519 -0.1571
 1413SOL    HW2 5384   5.111   0.333   2.922  0.6746  3.2744 -0.7318
 1413SOL    HW3 5385   4.980   0.392   2.969  0.0869  0.9692  0.7310
 1413SOL    MW4 5386   5.057   0.356   2.986 -0.5750 -0.1359  0.5712
 1414SOL     OW 5387   6.179   3.796   1.130  0.0380  0.1206 -0.1658
 1414SOL    HW2 5388   6.189   3.799   1.035 -0.3079 -0.8122 -0.2430
 1414SOL    HW3 5389   6.232   3.721   1.158 -1.0278 -0.5142  0.2041
 1414SOL    MW4 5390   6.188   3.787   1.121 -0.2670  0.6135  0.3475
 1415SOL     OW 5391   3.424   0.901   3.512  0.8899  0.5334  0.1509
 1415SOL    HW2 5392   3.445   0.835   3.578  2.3861  1.4816  0.6705
 1415SOL    HW3 5393   3.329   0.910   3.517  0.6276 -1.6007  0.0137
 1415SOL    MW4 5394   3.414   0.893   3.521 -0.1394 -0.5464 -0.1220
 1416SOL     OW 5395   2.410   0.871   5.662 -0.1502 -0.0883 -0.4398
 1416SOL    HW2 5396   2.481   0.886   5.725 -1.0015  0.4258  0.4332
 1416SOL    HW3 5397   2.406   0.776   5.652 -0.1129 -0.1955  0.4347
 1416SOL    MW4 5398   2.419   0.861   5.669  0.2618  0.7962 -0.1742
 1417SOL     OW 5399   5.152   4.355   3.344 -0.2290  0.2115 -0.1545
 1417SOL    HW2 5400   5.184   4.316   3.426 -2.6738 -1.1600  0.2275
 1417SOL    HW3 5401   5.183   4.296   3.276  4.8009  3.0897 -0.8608
 1417SOL    MW4 5402   5.161   4.342   3.346 -0.6318 -0.8951 -0.2294
 1418SOL     OW 5403   5.848   4.728   0.899  0.8726  0.4436 -0.1013
 1418SOL    HW2 5404   5.788   4.691   0.963  1.0474  2.2128  1.1534
 1418SOL    HW3 5405   5.898   4.653   0.866 -0.0915 -0.6637  0.8894
 1418SOL    MW4 5406   5.847   4.713   0.903 -0.0732  0.5307 -0.2642
 1419SOL     OW 5407   5.902   2.497   4.713  0.3401  0.0889 -0.0118
 1419SOL    HW2 5408   5.940   2.410   4.726  0.3384 -0.1411 -1.4177
 1419SOL    HW3 5409   5.977   2.556   4.709  0.4488 -0.0968 -0.8213
 1419SOL    MW4 5410   5.917   2.493   4.714 -0.4940  0.5811  0.5842
 1420SOL     OW 5411   5.365   5.357   1.257  0.7954  0.0377 -0.3128
 1420SOL    HW2 5412   5.389   5.295   1.188 -0.9152 -0.3189 -0.6470
 1420SOL    HW3 5413   5.326   5.431   1.210  1.3032  0.6413  0.1846
 1420SOL    MW4 5414   5.363   5.359   1.242  0.5733 -0.2927 -0.5113
 1421SOL     OW 5415   3.028   4.284   3.780 -0.1938  0.2063 -0.4935
 1421SOL    HW2 5416   3.049   4.193   3.760 -0.5615  0.5460 -2.6874
 1421SOL    HW3 5417   3.110   4.322   3.810 -0.2234 -1.0077  1.2897
 1421SOL    MW4 5418   3.041   4.277   3.781 -0.2148  0.8037 -0.7968
 1422SOL     OW 5419   1.274   1.365   2.416 -0.3300  0.6994  0.2750
 1422SOL    HW2 5420   1.300   1.395   2.329 -0.0831 -0.5679 -0.1072
 1422SOL    HW3 5421   1.348   1.388   2.472 -0.4195  1.3692  0.1335
 1422SOL    MW4 5422   1.287   1.372   2.412  0.2567  0.0939  0.3536
 1423SOL     OW 5423   5.400   4.550   0.764 -0.4192  0.0003 -0.7718
 1423SOL    HW2 5424   5.439   4.628   0.803 -1.0456  0.6676 -1.4395
 1423SOL    HW3 5425   5.308   4.573   0.754 -0.3617 -0.3304 -2.1775
 1423SOL    MW4 5426   5.393   4.563   0.768 -0.4963 -0.4972  0.0188
 1424SOL     OW 5427   3.254   6.082   4.743 -0.1574 -0.3489 -0.8533
 1424SOL    HW2 5428   3.330   6.139   4.727  0.6486 -1.0314  0.4159
 1424SOL    HW3 5429   3.195   6.136   4.796  0.9226 -0.8726  0.9693
 1424SOL    MW4 5430   3.256   6.097   4.748 -0.0958  0.1584 -0.4398
 1425SOL     OW 5431   0.091   2.109   2.393 -0.5212 -0.7535  0.2905
 1425SOL    HW2 5432   0.136   2.168   2.454  0.9594  0.2574 -1.6699
 1425SOL    HW3 5433   0.007   2.152   2.376 -0.3182 -0.2843  0.4620
 1425SOL    MW4 5434   0.086   2.123   2.399 -0.3131  0.5189  0.3453
 1426SOL     OW 5435   0.841   5.886   3.107 -0.2219 -0.1513  0.1924
 1426SOL    HW2 5436   0.793   5.958   3.147 -1.7607 -0.2616 -1.3185
 1426SOL    HW3 5437   0.911   5.865   3.169 -2.1610 -0.0200  2.5513
 1426SOL    MW4 5438   0.844   5.893   3.120  0.3354 -0.1748  0.3687
 1427SOL     OW 5439   3.784   6.030   1.331 -0.3083  0.3465 -0.1172
 1427SOL    HW2 5440   3.817   6.057   1.245 -2.9926 -1.2875 -1.8196
 1427SOL    HW3 5441   3.695   5.998   1.313 -0.8504 -0.3916  3.2504
 1427SOL    MW4 5442   3.777   6.029   1.317 -0.2332  0.1055  0.9143
 1428SOL     OW 5443   1.948   1.566   1.498  0.0307  0.3679 -0.7242
 1428SOL    HW2 5444   2.025   1.582   1.551 -0.1942  0.6102 -0.4691
 1428SOL    HW3 5445   1.898   1.647   1.502 -0.3092  0.1655 -0.7700
 1428SOL    MW4 5446   1.951   1.579   1.505  0.0089  0.9363 -0.0997
 1429SOL     OW 5447   4.422   1.237   0.200 -0.0955 -0.5374  0.3071
 1429SOL    HW2 5448   4.457   1.169   0.257  0.6917 -0.4044  0.0095
 1429SOL    HW3 5449   4.389   1.190   0.123 -0.3260 -0.6447  0.4709
 1429SOL    MW4 5450   4.422   1.222   0.197  0.7560 -0.5611 -0.0784
 1430SOL     OW 5451   1.756   1.176   1.518  0.4811  0.3941  0.6892
 1430SOL    HW2 5452   1.726   1.089   1.544 -0.3709  0.7641  0.9793
 1430SOL    HW3 5453   1.722   1.188   1.429  2.3723 -0.3856 -0.1979
 1430SOL    MW4 5454   1.747   1.166   1.509  0.0721 -0.1191  0.1235
 1431SOL     OW 5455   0.428   3.318   1.952 -0.1516  0.3530 -0.1839
 1431SOL    HW2 5456   0.446   3.358   1.867  3.1197  0.1189  0.2672
 1431SOL    HW3 5457   0.403   3.391   2.008  2.3358  1.3680 -0.2441
 1431SOL    MW4 5458   0.427   3.333   1.948 -0.4010  0.6552  0.2849
 1432SOL     OW 5459   3.021   3.646   3.392  0.3937 -0.4227 -0.2266
 1432SOL    HW2 5460   3.107   3.671   3.427  0.2014 -2.9571  2.4331
 1432SOL    HW3 5461   3.039   3.611   3.305  2.2295 -1.6856  0.6016
 1432SOL    MW4 5462   3.035   3.645   3.385  0.8684 -0.2326 -0.8680
 1433SOL     OW 5463   1.362   4.503   2.279  0.5123 -0.0339 -0.1870
 1433SOL    HW2 5464   1.420   4.430   2.299  0.5178 -0.3242 -1.1960
 1433SOL    HW3 5465   1.419   4.580   2.283  0.7384 -0.2008 -0.1544
 1433SOL    MW4 5466   1.377   4.503   2.282 -0.1694  0.1401  0.8264
 1434SOL     OW 5467   1.985   6.163   4.809  0.7562 -0.3515 -0.3246
 1434SOL    HW2 5468   1.934   6.140   4.886 -0.4569  0.7770 -0.7561
 1434SOL    HW3 5469   1.921   6.200   4.748  2.0041  0.6726 -1.0657
 1434SOL    MW4 5470   1.970   6.165   4.811  0.2123 -0.4075 -0.0595
 1435SOL     OW 5471   2.054   2.247   2.241 -0.0094  0.4478  0.5580
 1435SOL    HW2 5472   2.054   2.217   2.332  0.4152  2.0661  1.1187
 1435SOL    HW3 5473   2.123   2.195   2.200 -2.4054 -2.7931  0.2037
 1435SOL    MW4 5474   2.063   2.236   2.248 -0.0580 -0.3087  0.4467
 1436SOL     OW 5475   2.567   0.353   2.473 -0.4472 -0.4722  0.0547
 1436SOL    HW2 5476   2.599   0.276   2.519  0.4540  0.8498  1.7414
 1436SOL    HW3 5477   2.527   0.318   2.393 -1.7571 -2.8553  1.6125
 1436SOL    MW4 5478   2.566   0.338   2.468  0.0711 -0.4108 -0.8480
 1437SOL     OW 5479   5.072   2.991   0.276 -0.3648  0.3678  0.0710
 1437SOL    HW2 5480   5.101   3.071   0.234 -1.5689  0.7696 -0.0380
 1437SOL    HW3 5481   5.099   2.921   0.216 -0.3329  0.7836 -0.4036
 1437SOL    MW4 5482   5.079   2.992   0.262 -0.5479 -0.7425 -0.6250
 1438SOL     OW 5483   0.374   4.848   3.585  1.2865 -0.2753  0.4134
 1438SOL    HW2 5484   0.399   4.929   3.539  0.2369 -0.3622 -0.3324
 1438SOL    HW3 5485   0.343   4.790   3.516 -0.3937 -0.3869  1.2201
 1438SOL    MW4 5486   0.374   4.851   3.570 -0.6075 -1.1071  0.0522
 1439SOL     OW 5487   5.490   2.587   3.564 -0.3085  0.3090 -1.0666
 1439SOL    HW2 5488   5.577   2.550   3.547 -0.3579 -0.5686  0.4432
 1439SOL    HW3 5489   5.430   2.513   3.557 -0.5095  0.1870  1.2354
 1439SOL    MW4 5490   5.493   2.573   3.561  0.3254 -0.1163  0.1721
 1440SOL     OW 5491   5.732   4.599   6.073  0.8382 -0.0827 -0.2872
 1440SOL    HW2 5492   5.657   4.542   6.088  0.4472  0.6938  0.9039
 1440SOL    HW3 5493   5.767   4.615   6.161  0.4870  2.0622 -0.4763
 1440SOL    MW4 5494   5.727   4.593   6.087 -0.4418 -0.2425  0.4423
 1441SOL     OW 5495   6.306   1.554   5.917  0.2883  0.1589 -0.4300
 1441SOL    HW2 5496   6.290   1.462   5.897 -0.8705  0.4210 -0.7726
 1441SOL    HW3 5497   6.386   1.575   5.869  1.2547 -0.9745  0.6187
 1441SOL    MW4 5498   6.315   1.544   5.908  0.3748 -0.3053  0.2653
 1442SOL     OW 5499   5.662   4.934   4.232  0.1265 -0.1897 -0.0071
 1442SOL    HW2 5500   5.649   5.023   4.198  0.7617  0.6193  1.7065
 1442SOL    HW3 5501   5.757   4.920   4.226  0.0373 -0.7194 -0.2018
 1442SOL    MW4 5502   5.673   4.944   4.227  0.4007 -0.4572 -0.1125
 1443SOL     OW 5503   0.403   0.948   4.941  0.3985 -0.4884  0.2493
 1443SOL    HW2 5504   0.351   0.887   4.890 -1.0263 -0.4077  1.5497
 1443SOL    HW3 5505   0.411   0.907   5.027 -1.3192  1.4792  1.4243
 1443SOL    MW4 5506   0.397   0.935   4.945  0.3373  0.0620  0.2693
 1444SOL     OW 5507   3.555   2.485   5.940  0.2724 -0.3119  0.9696
 1444SOL    HW2 5508   3.513   2.449   5.862 -1.0374  1.4207  0.8196
 1444SOL    HW3 5509   3.649   2.478   5.921  0.0037 -0.7233 -0.3738
 1444SOL    MW4 5510   3.562   2.479   5.927 -0.4566 -0.2387  0.1916
 1445SOL     OW 5511   3.653   0.768   3.085  0.5259 -0.0670 -0.4604
 1445SOL    HW2 5512   3.593   0.842   3.094  0.1095 -0.3034 -1.2351
 1445SOL    HW3 5513   3.619   0.718   3.011 -0.0161 -1.8100  0.8834
 1445SOL    MW4 5514   3.641   0.771   3.077 -0.0655  0.2502 -0.2493
 1446SOL     OW 5515   4.897   4.347   1.206 -0.4664  0.0628  0.6447
 1446SOL    HW2 5516   4.918   4.254   1.195 -2.7047 -0.4446  0.3757
 1446SOL    HW3 5517   4.819   4.348   1.261  0.0235  1.8527  1.3722
 1446SOL    MW4 5518   4.890   4.335   1.212  0.4610  0.1172  0.7015
 1447SOL     OW 5519   0.855   4.967   3.186 -0.1595  0.3238  0.1569
 1447SOL    HW2 5520   0.817   4.898   3.240  1.3680  0.2280  1.1928
 1447SOL    HW3 5521   0.901   5.024   3.248  0.1032  1.2612 -0.8597
 1447SOL    MW4 5522   0.856   4.965   3.201 -0.1731  0.4122  0.4880
 1448SOL     OW 5523   2.461   5.916   5.109  0.3759 -0.1740  0.3917
 1448SOL    HW2 5524   2.525   5.925   5.180  0.2876  0.4741  0.3967
 1448SOL    HW3 5525   2.416   6.000   5.107  0.3172 -0.2157 -0.3775
 1448SOL    MW4 5526   2.464   5.928   5.118 -0.0625  0.6182  0.4642
 1449SOL     OW 5527   3.337   4.376   2.163  0.1501 -0.0963  0.4461
 1449SOL    HW2 5528   3.367   4.437   2.096 -0.2603 -0.0001  0.3474
 1449SOL    HW3 5529   3.414   4.362   2.219  0.5686 -0.3651 -0.1792
 1449SOL    MW4 5530   3.351   4.382   2.161  0.0112 -0.1635  0.2257
 1450SOL     OW 5531   2.391   5.411   1.630 -0.3456 -0.4727  0.2716
 1450SOL    HW2 5532   2.319   5.403   1.693  0.3273  0.1928  1.1566
 1450SOL    HW3 5533   2.435   5.326   1.634 -1.5458 -1.2081 -0.9215
 1450SOL    MW4 5534   2.387   5.399   1.639 -1.1721 -0.1852 -0.2170
 1451SOL     OW 5535   1.999   2.676   0.586  0.4272  0.2079  0.3377
 1451SOL    HW2 5536   2.022   2.609   0.650 -1.9701  1.0557  2.2664
 1451SOL    HW3 5537   2.017   2.759   0.630  0.4194  0.8481 -0.8031
 1451SOL    MW4 5538   2.004   2.678   0.600  0.0485 -0.5414  0.1344
 1452SOL     OW 5539   4.101   3.075   3.650 -0.1004  0.0059  0.3046
 1452SOL    HW2 5540   4.181   3.026   3.634 -1.0308 -1.1363 -1.1177
 1452SOL    HW3 5541   4.031   3.011   3.639 -1.2905  1.3581 -0.3573
 1452SOL    MW4 5542   4.102   3.060   3.646  0.3654 -0.1488 -0.8587
 1453SOL     OW 5543   4.353   2.871   1.566  0.6848  0.1355  0.2404
 1453SOL    HW2 5544   4.325   2.802   1.627 -0.9809 -0.2332 -0.8770
 1453SOL    HW3 5545   4.297   2.945   1.586  0.0299 -0.0327 -0.8967
 1453SOL    MW4 5546   4.342   2.871   1.577 -0.2258 -0.2851 -0.3920
 1454SOL     OW 5547   0.580   2.325   0.734  0.0104  0.1242 -0.0337
 1454SOL    HW2 5548   0.620   2.326   0.820  0.6313  0.8575 -0.3279
 1454SOL    HW3 5549   0.535   2.240   0.730  1.8189 -0.9008  0.1629
 1454SOL    MW4 5550   0.579   2.314   0.745 -0.2621 -0.1260 -0.5924
 1455SOL     OW 5551   2.157   4.507   5.824  0.1344 -0.0723 -0.1235
 1455SOL    HW2 5552   2.159   4.549   5.910 -0.3286  0.0511 -0.1701
 1455SOL    HW3 5553   2.121   4.420   5.840  1.4513 -0.6069  0.0309
 1455SOL    MW4 5554   2.152   4.501   5.837  0.2615  0.4736  0.1364
 1456SOL     OW 5555   0.246   1.538   6.404  0.5671 -0.0432  0.2235
 1456SOL    HW2 5556   0.297   1.619   6.398  0.2491  0.0923 -0.8965
 1456SOL    HW3 5557   0.158   1.567   6.426  0.5071 -0.0918  0.0540
 1456SOL    MW4 5558   0.241   1.552   6.406  0.3755 -0.9327 -0.2413
 1457SOL     OW 5559   5.325   5.264   4.232 -0.6398  0.5060  0.1772
 1457SOL    HW2 5560   5.289   5.209   4.301  0.3741 -0.4719 -0.0546
 1457SOL    HW3 5561   5.412   5.229   4.215  0.6829  3.0864  1.0571
 1457SOL    MW4 5562   5.331   5.252   4.239 -0.2566 -0.6496  0.1181
 1458SOL     OW 5563   6.408   5.082   1.135  0.0847  0.3648  0.2880
 1458SOL    HW2 5564   6.427   5.173   1.116  0.1261  0.2300 -0.3392
 1458SOL    HW3 5565   6.440   5.034   1.058 -1.4413 -0.0102 -0.1500
 1458SOL    MW4 5566   6.414   5.087   1.122 -0.6299 -0.4391 -0.3989
 1459SOL     OW 5567   0.638   0.087   3.624  0.5859  0.0670 -0.3014
 1459SOL    HW2 5568   0.714   0.145   3.618 -0.0095  1.4204  2.8764
 1459SOL    HW3 5569   0.638   0.058   3.715 -1.6244 -1.4884 -0.7233
 1459SOL    MW4 5570   0.648   0.091   3.635  0.0823 -0.6442 -0.1010
 1460SOL     OW 5571   0.362   4.902   4.770 -0.4912  0.0099 -0.2527
 1460SOL    HW2 5572   0.352   4.808   4.783 -1.2909 -0.0334 -1.0441
 1460SOL    HW3 5573   0.272   4.934   4.756 -0.1339  0.7139 -1.0525
 1460SOL    MW4 5574   0.349   4.894   4.770 -0.2109  0.5382 -0.4430
 1461SOL     OW 5575   3.908   0.185   5.260 -0.0433 -0.2626 -0.1184
 1461SOL    HW2 5576   3.989   0.135   5.255 -1.0064 -1.8059 -1.4103
 1461SOL    HW3 5577   3.854   0.139   5.324 -0.3341  0.0711 -0.1175
 1461SOL    MW4 5578   3.911   0.172   5.268  0.2165  0.2750  0.0995
 1462SOL     OW 5579   2.101   0.029   4.784  0.0310  0.0213 -0.0305
 1462SOL    HW2 5580   2.034   0.063   4.724  1.5797  1.4050 -1.0545
 1462SOL    HW3 5581   2.051  -0.007   4.857 -1.8499  0.5036 -1.0148
 1462SOL    MW4 5582   2.085   0.029   4.786 -0.2068  0.3834  0.1732
 1463SOL     OW 5583   4.126   4.196   6.250 -0.0585 -0.3468 -0.1745
 1463SOL    HW2 5584   4.162   4.272   6.205 -1.0687 -0.3926 -1.1218
 1463SOL    HW3 5585   4.161   4.201   6.339  0.6400  0.6917 -0.4930
 1463SOL    MW4 5586   4.135   4.207   6.256 -0.2271  0.2994 -0.7785
 1464SOL     OW 5587   6.317   5.770   3.822 -0.2146  0.3090 -0.2045
 1464SOL    HW2 5588   6.228   5.796   3.846 -0.0422 -0.9410  2.0932
 1464SOL    HW3 5589   6.310   5.677   3.800  0.6037  0.0260  0.6745
 1464SOL    MW4 5590   6.304   5.761   3.822 -0.1414  0.0260  0.2559
 1465SOL     OW 5591   3.784   4.861   4.412 -0.2054  0.2376 -0.1851
 1465SOL    HW2 5592   3.733   4.926   4.365  0.4377  1.5534  0.8636
 1465SOL    HW3 5593   3.870   4.902   4.424 -0.0889 -0.3848  1.3544
 1465SOL    MW4 5594   3.789   4.875   4.407 -0.2913  0.5951 -0.6161
 1466SOL     OW 5595   5.172   4.023   4.751 -0.1363 -0.0224 -0.4236
 1466SOL    HW2 5596   5.206   3.965   4.683 -1.6661 -1.0138 -0.4006
 1466SOL    HW3 5597   5.103   4.073   4.708 -1.7143 -1.2711  0.5462
 1466SOL    MW4 5598   5.167   4.022   4.736 -0.2765 -0.4352 -0.7132
 1467SOL     OW 5599   4.245   4.822   6.255  0.0948  0.0982  0.6359
 1467SOL    HW2 5600   4.183   4.882   6.295 -0.3991  1.7736 -2.3183
 1467SOL    HW3 5601   4.330   4.846   6.293 -0.1885  2.3221 -0.0137
 1467SOL    MW4 5602   4.248   4.833   6.265  0.6663 -0.0105  0.1033
 1468SOL     OW 5603   5.040   5.471   6.025 -0.4092 -0.2356  0.3757
 1468SOL    HW2 5604   4.964   5.414   6.016  0.3305 -1.1859  0.0754
 1468SOL    HW3 5605   5.028   5.538   5.957 -0.5461 -0.8737 -0.2320
 1468SOL    MW4 5606   5.028   5.472   6.015  0.7802 -0.0608 -0.4704
 1469SOL     OW 5607   1.745   5.482   2.335  0.8376 -0.0936 -0.6667
 1469SOL    HW2 5608   1.795   5.553   2.375  0.8705  0.4663 -1.6759
 1469SOL    HW3 5609   1.655   5.515   2.332  0.6597 -0.5246 -0.1720
 1469SOL    MW4 5610   1.740   5.496   2.340 -0.5021 -0.1154  0.8599
 1470SOL     OW 5611   1.708   2.901   4.190  0.2148 -0.0991  0.3297
 1470SOL    HW2 5612   1.654   2.957   4.134  1.3590 -0.4566 -1.1902
 1470SOL    HW3 5613   1.692   2.812   4.158  1.3857 -0.2483  0.1280
 1470SOL    MW4 5614   1.698   2.897   4.179  0.0584 -0.4453 -0.1678
 1471SOL     OW 5615   0.084   5.713   3.999  0.5273 -0.5341 -0.6301
 1471SOL    HW2 5616   0.167   5.707   3.951  0.1932 -0.3134 -1.2477
 1471SOL    HW3 5617   0.019   5.734   3.932 -0.0187 -0.6342 -0.1390
 1471SOL    MW4 5618   0.087   5.715   3.984  0.6818  0.0487  0.7194
 1472SOL     OW 5619   6.312   2.170   4.924 -0.0413  0.3120  0.0992
 1472SOL    HW2 5620   6.281   2.079   4.926  0.8435 -0.0493 -1.2307
 1472SOL    HW3 5621   6.361   2.180   5.006  1.1817 -0.9331 -0.4310
 1472SOL    MW4 5622   6.315   2.159   4.935 -0.4906 -0.1927 -0.0788
 1473SOL     OW 5623   6.371   1.142   3.935 -0.1942 -0.3224 -0.2143
 1473SOL    HW2 5624   6.401   1.052   3.927  0.1023 -0.2404 -0.0501
 1473SOL    HW3 5625   6.287   1.136   3.981 -0.6998 -0.5966 -1.1392
 1473SOL    MW4 5626   6.364   1.130   3.940 -0.2368 -1.1111 -0.5210
 1474SOL     OW 5627   1.320   0.242   0.180  0.2043 -0.6609 -0.2897
 1474SOL    HW2 5628   1.415   0.255   0.174  0.1433 -0.3420 -0.6332
 1474SOL    HW3 5629   1.284   0.330   0.186 -0.1290 -0.7336 -1.1024
 1474SOL    MW4 5630   1.328   0.255   0.180  0.3098  0.4922  0.8061
 1475SOL     OW 5631   3.091   5.367   3.295 -0.2558  0.0153 -0.1178
 1475SOL    HW2 5632   3.094   5.446   3.242 -0.2181 -0.3324 -0.6391
 1475SOL    HW3 5633   3.123   5.394   3.381  1.1799  0.2411 -0.7030
 1475SOL    MW4 5634   3.096   5.381   3.300  0.5397 -0.1277 -0.4084
 1476SOL     OW 5635   6.393   0.795   3.206  0.6285  0.1037 -0.3288
 1476SOL    HW2 5636   6.327   0.727   3.191  2.2290 -1.3937 -0.8848
 1476SOL    HW3 5637   6.415   0.826   3.118 -0.1697  1.4801 -0.0759
 1476SOL    MW4 5638   6.387   0.790   3.193  0.1237  0.4369  0.0255
 1477SOL     OW 5639   3.735   2.577   3.875 -0.2146 -0.4760 -0.3263
 1477SOL    HW2 5640   3.696   2.580   3.962  0.9603 -0.4707  0.2173
 1477SOL    HW3 5641   3.828   2.592   3.890 -0.0752  0.0829 -1.6439
 1477SOL    MW4 5642   3.742   2.579   3.889  0.1158  0.7622 -0.1761
 1478SOL     OW 5643   0.202   4.290   2.554 -0.2022 -0.5548 -0.1803
 1478SOL    HW2 5644   0.201   4.290   2.458 -0.1316  0.7172 -0.1987
 1478SOL    HW3 5645   0.262   4.218   2.577 -0.7386 -1.3074 -1.0648
 1478SOL    MW4 5646   0.210   4.280   2.544  0.6971  0.5189 -0.4077
 1479SOL     OW 5647   0.974   2.814   2.837 -0.2606 -0.4641 -0.1049
 1479SOL    HW2 5648   0.987   2.777   2.924 -1.1595 -1.4673 -0.3845
 1479SOL    HW3 5649   0.984   2.740   2.778  0.6655  0.2676 -0.8986
 1479SOL    MW4 5650   0.977   2.799   2.841 -0.5364  0.2506  0.2036
 1480SOL     OW 5651   1.665   4.869   4.445  0.0432  0.1075  0.8352
 1480SOL    HW2 5652   1.593   4.815   4.479  0.8526 -0.4913  1.6363
 1480SOL    HW3 5653   1.711   4.812   4.384  0.2225  0.2787  0.8101
 1480SOL    MW4 5654   1.662   4.854   4.442  0.3291 -0.3926  0.0728
 1481SOL     OW 5655   4.742   0.303   5.773  0.4724 -0.3554 -0.1269
 1481SOL    HW2 5656   4.706   0.281   5.687  1.0526 -2.1025  0.0385
 1481SOL    HW3 5657   4.699   0.243   5.833  1.0223 -0.0280  0.6092
 1481SOL    MW4 5658   4.732   0.292   5.769  0.2267 -0.0722 -0.1173
 1482SOL     OW 5659   2.614   3.208   0.571 -0.4432 -0.3353  0.0447
 1482SOL    HW2 5660   2.693   3.185   0.522  0.4953 -0.7487  1.6989
 1482SOL    HW3 5661   2.590   3.295   0.538 -0.1007 -0.7662 -1.4290
 1482SOL    MW4 5662   2.621   3.217   0.560  0.5331  0.1461 -0.0852
 1483SOL     OW 5663   1.431   4.004   2.675 -0.0614 -0.0188 -0.5302
 1483SOL    HW2 5664   1.508   3.957   2.644 -0.2959 -0.5151 -0.3753
 1483SOL    HW3 5665   1.367   3.935   2.693  0.4161  0.1189  2.0827
 1483SOL    MW4 5666   1.432   3.988   2.674 -0.0372 -0.2515  0.0271
 1484SOL     OW 5667   6.335   6.373   5.085 -0.1192 -0.6734  0.3320
 1484SOL    HW2 5668   6.398   6.317   5.039  1.3314  0.7732  0.4778
 1484SOL    HW3 5669   6.281   6.410   5.015  0.0154 -0.9461  0.0805
 1484SOL    MW4 5670   6.336   6.370   5.070  0.4853 -0.1383  0.3452
 1485SOL     OW 5671   3.071   0.972   6.349  0.1841 -0.3064  0.1479
 1485SOL    HW2 5672   3.144   1.028   6.324 -1.1803  0.9539 -1.2884
 1485SOL    HW3 5673   3.058   0.913   6.275  0.2759 -1.1273  0.7647
 1485SOL    MW4 5674   3.079   0.972   6.336 -0.7004  0.3209  0.6458
 1486SOL     OW 5675   0.913   1.845   2.649  0.2791  0.1037  0.4193
 1486SOL    HW2 5676   0.950   1.776   2.704 -0.0662 -1.5690 -1.3336
 1486SOL    HW3 5677   0.821   1.850   2.675  0.1341 -0.6359  0.0823
 1486SOL    MW4 5678   0.906   1.836   2.660  0.7717  0.2332  0.4340
 1487SOL     OW 5679   5.307   1.583   4.368 -0.4792  0.3748 -0.5911
 1487SOL    HW2 5680   5.342   1.502   4.407  2.9597  0.9969 -2.0105
 1487SOL    HW3 5681   5.301   1.564   4.275 -1.0687  1.3207 -0.7567
 1487SOL    MW4 5682   5.311   1.570   4.361  0.3271 -0.4329 -0.4100
 1488SOL     OW 5683   0.196   3.741   5.479  1.1929 -0.1722 -0.3271
 1488SOL    HW2 5684   0.220   3.654   5.448 -0.4914 -0.7191 -0.1451
 1488SOL    HW3 5685   0.166   3.728   5.569 -0.0166  0.4144 -0.6195
 1488SOL    MW4 5686   0.195   3.728   5.486 -0.0266  0.3426  0.0194
 1489SOL     OW 5687   3.605   3.711   3.912  0.3050  0.0882  0.0669
 1489SOL    HW2 5688   3.679   3.743   3.963 -0.1476  3.4572 -1.1442
 1489SOL    HW3 5689   3.618   3.747   3.824 -1.9363 -0.5969 -0.6267
 1489SOL    MW4 5690   3.616   3.720   3.907 -0.2559 -0.0385  0.0619
 1490SOL     OW 5691   1.274   2.333   1.873 -0.0981  0.0462  0.1020
 1490SOL    HW2 5692   1.278   2.307   1.965 -0.7232 -1.1370 -0.1795
 1490SOL    HW3 5693   1.343   2.282   1.831  0.4750  0.9113 -0.0164
 1490SOL    MW4 5694   1.284   2.323   1.879  0.4796  0.0805 -0.2463
 1491SOL     OW 5695   6.166   2.173   2.085  0.3372  0.8319  0.4862
 1491SOL    HW2 5696   6.164   2.116   2.161 -1.8407  1.0830  0.6958
 1491SOL    HW3 5697   6.241   2.143   2.033 -1.3006 -2.9822  0.0249
 1491SOL    MW4 5698   6.176   2.162   2.088 -0.0144 -0.5848  0.3039
 1492SOL     OW 5699   0.209   5.601   0.382  0.4568  0.2738 -0.0820
 1492SOL    HW2 5700   0.156   5.681   0.382 -0.0875 -0.0604  1.5883
 1492SOL    HW3 5701   0.146   5.530   0.385  0.9683 -0.1781  0.1761
 1492SOL    MW4 5702   0.194   5.602   0.382 -0.3694 -0.5999 -0.4922
 1493SOL     OW 5703   3.383   5.627   5.183  0.3384 -0.1853  0.4160
 1493SOL    HW2 5704   3.447   5.697   5.197 -0.8982  0.6534  2.3260
 1493SOL    HW3 5705   3.354   5.639   5.093 -1.0423  2.9047  1.1157
 1493SOL    MW4 5706   3.388   5.638   5.173 -0.0967  0.4353 -0.0011
 1494SOL     OW 5707   2.509   4.403   1.798  0.2080 -0.5652 -0.0492
 1494SOL    HW2 5708   2.430   4.372   1.841 -0.2608  0.4444 -0.1381
 1494SOL    HW3 5709   2.581   4.375   1.855 -0.4025  0.8155  1.4717
 1494SOL    MW4 5710   2.508   4.395   1.811  0.4646 -0.1087 -0.1280
 1495SOL     OW 5711   2.732   5.754   2.930 -0.0107 -1.0184 -0.3556
 1495SOL    HW2 5712   2.799   5.749   2.861  0.5758  0.3463  0.0677
 1495SOL    HW3 5713   2.671   5.821   2.899  0.6731  0.1669  0.7463
 1495SOL    MW4 5714   2.733   5.762   2.917 -0.1473  0.4084  0.8556
 1496SOL     OW 5715   3.308   1.489   2.756 -0.1204 -0.1466  0.6473
 1496SOL    HW2 5716   3.362   1.519   2.829 -0.4659 -1.2327  1.3697
 1496SOL    HW3 5717   3.223   1.469   2.796  0.0757 -2.0223  0.2064
 1496SOL    MW4 5718   3.304   1.491   2.771  0.0905  0.7009  0.4179
 1497SOL     OW 5719   4.532   6.083   0.606 -0.0420  0.3379 -0.3181
 1497SOL    HW2 5720   4.532   6.165   0.655 -0.1756 -0.2551  0.7315
 1497SOL    HW3 5721   4.448   6.080   0.562 -0.2376  0.5432  0.0409
 1497SOL    MW4 5722   4.521   6.093   0.607  0.3706  0.0809  0.5946
 1498SOL     OW 5723   4.229   1.285   3.330 -0.3900 -0.7972  0.2226
 1498SOL    HW2 5724   4.271   1.294   3.416 -0.6504  1.3292  0.1672
 1498SOL    HW3 5725   4.284   1.335   3.270 -1.4673 -0.3038 -0.3902
 1498SOL    MW4 5726   4.242   1.293   3.334  0.6036  0.0606  0.1624
 1499SOL     OW 5727   0.485   1.984   5.068 -0.0539 -0.4218  0.0413
 1499SOL    HW2 5728   0.483   1.929   4.990  0.5732  0.4534 -0.6254
 1499SOL    HW3 5729   0.397   2.021   5.074 -0.1499 -0.6194 -0.1577
 1499SOL    MW4 5730   0.473   1.982   5.058  0.0713  0.4747  0.2734
 1500SOL     OW 5731   3.402   0.581   3.257  0.3886 -0.3739 -0.2396
 1500SOL    HW2 5732   3.472   0.635   3.293  0.3968 -0.5030 -0.0598
 1500SOL    HW3 5733   3.356   0.639   3.196  0.6260 -0.2777 -0.3289
 1500SOL    MW4 5734   3.405   0.596   3.254 -0.2876  0.1294  0.0501
 1501SOL     OW 5735   4.033   3.085   6.219 -0.0723  0.9549  0.3288
 1501SOL    HW2 5736   3.976   3.150   6.177 -1.4253  1.3459  2.5594
 1501SOL    HW3 5737   4.082   3.046   6.147 -2.8753  0.8997 -1.7245
 1501SOL    MW4 5738   4.032   3.089   6.204  0.1335 -0.5756  0.6010
 1502SOL     OW 5739   3.364   3.844   4.406 -0.0887  0.0857 -0.2230
 1502SOL    HW2 5740   3.305   3.897   4.459 -0.6511  0.0427 -0.7852
 1502SOL    HW3 5741   3.448   3.849   4.451 -0.6035 -0.1667  0.8172
 1502SOL    MW4 5742   3.367   3.852   4.419  0.5306  0.0091 -0.4030
 1503SOL     OW 5743   5.862   1.370   5.345  0.0679  0.1712 -0.0983
 1503SOL    HW2 5744   5.817   1.450   5.371 -0.7676 -0.1096 -0.6813
 1503SOL    HW3 5745   5.922   1.397   5.275  0.9096  0.5591  0.7396
 1503SOL    MW4 5746   5.864   1.384   5.339 -0.6234  0.0902 -0.2815
 1504SOL     OW 5747   4.932   4.745   6.256 -0.0303 -0.7853 -0.5337
 1504SOL    HW2 5748   5.011   4.737   6.308 -0.6831 -0.4875  0.5262
 1504SOL    HW3 5749   4.871   4.795   6.310 -1.0933 -1.3452 -1.1562
 1504SOL    MW4 5750   4.934   4.750   6.270  1.0782  0.3844 -0.2093
 1505SOL     OW 5751   4.437   5.725   6.216  0.2701 -0.2528 -0.9239
 1505SOL    HW2 5752   4.382   5.780   6.272  0.4774 -1.2836  0.3327
 1505SOL    HW3 5753   4.520   5.772   6.209  0.1733 -0.0238 -0.5231
 1505SOL    MW4 5754   4.441   5.738   6.222  0.0599  0.1324 -0.0531
 1506SOL     OW 5755   6.382   2.419   5.293 -0.1916 -0.0502 -0.3075
 1506SOL    HW2 5756   6.340   2.410   5.378 -3.0651 -0.5608 -1.6313
 1506SOL    HW3 5757   6.409   2.330   5.270  0.6793  0.1037  0.0677
 1506SOL    MW4 5758   6.380   2.406   5.301 -0.0669 -0.1357  0.4591
 1507SOL     OW 5759   5.354   1.157   5.001  0.4711 -0.1025  0.1341
 1507SOL    HW2 5760   5.445   1.180   5.019  0.7978 -1.9646  1.1098
 1507SOL    HW3 5761   5.359   1.087   4.935 -0.4684  2.1532 -2.5513
 1507SOL    MW4 5762   5.367   1.151   4.994 -0.2256  0.2706 -0.2832
 1508SOL     OW 5763   4.065   4.351   5.861  0.5080 -0.0897 -0.0528
 1508SOL    HW2 5764   4.125   4.305   5.920  1.1098  0.1200 -0.4968
 1508SOL    HW3 5765   3.990   4.291   5.851  0.5606 -0.2734  0.6398
 1508SOL    MW4 5766   4.063   4.337   5.867 -0.5869 -0.0626  0.0501
 1509SOL     OW 5767   3.549   0.225   0.273  0.2081  0.0668 -0.3916
 1509SOL    HW2 5768   3.599   0.293   0.318  1.0321 -0.1761 -0.9208
 1509SOL    HW3 5769   3.527   0.163   0.342  2.3420 -0.8353 -0.4254
 1509SOL    MW4 5770   3.553   0.226   0.288 -0.4264 -0.0900 -0.0642
 1510SOL     OW 5771   4.569   6.260   4.781 -0.6941 -0.0608  0.1809
 1510SOL    HW2 5772   4.599   6.245   4.691 -0.6358 -1.7418  0.4589
 1510SOL    HW3 5773   4.615   6.340   4.807  1.0331 -0.7465 -0.5509
 1510SOL    MW4 5774   4.579   6.269   4.773 -0.1103  0.4570  0.1784
 1511SOL     OW 5775   5.464   2.050   5.463  0.6498 -0.0364  0.1514
 1511SOL    HW2 5776   5.376   2.061   5.426  0.2322  1.0931  1.4104
 1511SOL    HW3 5777   5.518   2.022   5.389 -0.5282  0.3724 -0.8920
 1511SOL    MW4 5778   5.459   2.048   5.448  0.0730  0.1511  0.2380
 1512SOL     OW 5779   1.281   4.695   3.800  0.9209 -0.6600  0.1436
 1512SOL    HW2 5780   1.288   4.687   3.705  0.4361  0.6259 -0.0189
 1512SOL    HW3 5781   1.333   4.772   3.822  0.4471 -0.5182  0.8239
 1512SOL    MW4 5782   1.289   4.704   3.790  0.0734 -0.3535 -0.3424
 1513SOL     OW 5783   0.793   4.324   2.394  1.0858 -0.2825  0.6760
 1513SOL    HW2 5784   0.836   4.261   2.451  2.2712  0.0473  0.1904
 1513SOL    HW3 5785   0.844   4.405   2.405  0.1904  0.3114  0.5575
 1513SOL    MW4 5786   0.805   4.327   2.403 -0.4764 -0.0500 -0.2082
 1514SOL     OW 5787   4.411   1.072   5.476  0.0279 -0.0842 -0.4901
 1514SOL    HW2 5788   4.390   1.149   5.529  1.8666 -0.4956  0.9183
 1514SOL    HW3 5789   4.468   1.019   5.532  1.7304 -0.7469 -2.7048
 1514SOL    MW4 5790   4.416   1.075   5.490  0.1207 -0.2449  0.1112
 1515SOL     OW 5791   4.082   2.621   4.742 -0.6804 -0.1836 -0.2622
 1515SOL    HW2 5792   4.075   2.585   4.831  1.1500  0.4073  0.1667
 1515SOL    HW3 5793   4.156   2.681   4.746 -1.0531  0.4589 -2.0157
 1515SOL    MW4 5794   4.091   2.624   4.754 -0.1722  0.1791 -0.4889
 1516SOL     OW 5795   3.963   5.594   4.951 -0.2320  0.0944  0.2087
 1516SOL    HW2 5796   3.995   5.664   4.894  1.9839 -0.8482  0.1943
 1516SOL    HW3 5797   3.896   5.636   5.005  0.8004  2.1453 -0.0015
 1516SOL    MW4 5798   3.958   5.609   4.951 -0.1173  0.2497  0.0086
 1517SOL     OW 5799   2.414   4.843   6.078 -0.5968  0.9371 -0.4671
 1517SOL    HW2 5800   2.456   4.764   6.112  0.3770  1.0910 -1.2381
 1517SOL    HW3 5801   2.422   4.835   5.983  0.4203  2.3964 -0.5493
 1517SOL    MW4 5802   2.421   4.832   6.070 -0.0412 -0.6454  0.1975
 1518SOL     OW 5803   5.825   4.660   4.036  0.2628  0.3411  0.5531
 1518SOL    HW2 5804   5.731   4.673   4.050  0.0963  0.0869 -0.3135
 1518SOL    HW3 5805   5.853   4.608   4.112 -0.7815 -1.6664 -0.3701
 1518SOL    MW4 5806   5.816   4.655   4.048  0.0125 -0.0258  0.3997
 1519SOL     OW 5807   6.401   0.037   4.684 -0.3060  0.7781 -0.1883
 1519SOL    HW2 5808   6.443  -0.037   4.641 -0.0410 -0.2871  1.7618
 1519SOL    HW3 5809   6.373   0.094   4.613  0.3767 -0.7076 -1.7146
 1519SOL    MW4 5810   6.403   0.035   4.669  0.4220 -0.5070 -0.3892
 1520SOL     OW 5811   1.187   0.419   1.355 -0.1809 -0.3099  0.1503
 1520SOL    HW2 5812   1.175   0.500   1.305 -0.7428  0.1409  0.9783
 1520SOL    HW3 5813   1.280   0.399   1.346 -0.1666  0.0757 -0.5943
 1520SOL    MW4 5814   1.198   0.427   1.348 -0.5755 -0.3234 -0.0559
 1521SOL     OW 5815   4.040   3.241   4.406 -0.0500 -0.8295 -0.0729
 1521SOL    HW2 5816   3.970   3.286   4.454  0.8945  0.0736  0.5081
 1521SOL    HW3 5817   4.101   3.213   4.474  0.7999 -0.4444 -0.6648
 1521SOL    MW4 5818   4.039   3.243   4.421 -0.3626  0.4260  0.1817
 1522SOL     OW 5819   4.567   1.947   4.572 -0.1572  0.2766  0.2215
 1522SOL    HW2 5820   4.582   1.923   4.481 -0.6787 -1.3327  0.5220
 1522SOL    HW3 5821   4.485   1.903   4.595 -0.4310  1.2799  1.2514
 1522SOL    MW4 5822   4.558   1.938   4.563  0.5482 -0.4313 -0.6163
 1523SOL     OW 5823   5.562   1.564   6.347  0.2783  0.0756  0.6825
 1523SOL    HW2 5824   5.562   1.659   6.352  0.2347  0.2545 -1.5724
 1523SOL    HW3 5825   5.649   1.538   6.377  0.9055  0.9864 -0.2813
 1523SOL    MW4 5826   5.574   1.573   6.351 -0.1219  0.0572 -0.2731
 1524SOL     OW 5827   5.413   3.825   4.116 -0.1446  0.3415 -0.1366
 1524SOL    HW2 5828   5.508   3.818   4.115  0.1583  3.0881 -1.9538
 1524SOL    HW3 5829   5.389   3.843   4.025 -2.5267 -1.1728  0.1143
 1524SOL    MW4 5830   5.422   3.827   4.104  0.2181  0.0710 -0.3539
 1525SOL     OW 5831   5.307   2.069   2.714  0.2851 -0.1235  0.0189
 1525SOL    HW2 5832   5.229   2.025   2.679  0.2286  1.6708 -2.3303
 1525SOL    HW3 5833   5.379   2.031   2.665  0.5622  0.2694  0.1229
 1525SOL    MW4 5834   5.306   2.058   2.703 -0.2982 -0.0122  0.0675
 1526SOL     OW 5835   4.593   1.255   5.713 -0.0853 -0.3081 -0.0049
 1526SOL    HW2 5836   4.625   1.165   5.718  1.9879  0.4359  1.3031
 1526SOL    HW3 5837   4.579   1.281   5.804 -1.4675  0.4435 -0.4089
 1526SOL    MW4 5838   4.595   1.247   5.725 -0.9405 -0.0864  0.1355
 1527SOL     OW 5839   3.300   2.388   6.279  0.2803  0.1989  0.0864
 1527SOL    HW2 5840   3.293   2.479   6.249  1.4113 -0.0964 -1.1765
 1527SOL    HW3 5841   3.249   2.338   6.215 -1.2549  0.0046  1.3816
 1527SOL    MW4 5842   3.292   2.394   6.266  0.2747 -0.0990  0.3552
 1528SOL     OW 5843   4.410   6.297   2.846  0.2948  0.3199  0.1768
 1528SOL    HW2 5844   4.496   6.260   2.861  0.2768 -0.3352 -1.1344
 1528SOL    HW3 5845   4.354   6.258   2.914  1.1466  1.2725  1.4509
 1528SOL    MW4 5846   4.414   6.287   2.857  0.3333  0.1900  0.0524
 1529SOL     OW 5847   4.777   6.073   4.900 -0.2002  0.1764  0.0155
 1529SOL    HW2 5848   4.749   5.987   4.871 -1.5756  0.6539 -0.1521
 1529SOL    HW3 5849   4.716   6.134   4.858  0.7543  1.2348  0.1110
 1529SOL    MW4 5850   4.765   6.070   4.891  0.4162 -0.4350  0.1863
 1530SOL     OW 5851   5.016   2.816   3.257  0.5695  0.2788  0.8448
 1530SOL    HW2 5852   5.032   2.836   3.164 -2.3260 -1.0082 -0.0502
 1530SOL    HW3 5853   5.071   2.740   3.274  0.8941  0.3316  0.0867
 1530SOL    MW4 5854   5.026   2.808   3.247 -0.1533 -0.0744  0.0206
 1531SOL     OW 5855   2.395   3.232   5.328 -0.4757 -0.1878  0.0374
 1531SOL    HW2 5856   2.377   3.139   5.337  0.0150 -0.1949  1.1266
 1531SOL    HW3 5857   2.429   3.258   5.413  0.0739  0.8378 -0.4734
 1531SOL    MW4 5858   2.397   3.223   5.340 -0.1843  0.0825  0.1332
 1532SOL     OW 5859   0.470   1.647   0.649 -0.2181  0.4035 -0.0752
 1532SOL    HW2 5860   0.491   1.714   0.584  0.0064  0.6905  0.2861
 1532SOL    HW3 5861   0.461   1.696   0.731 -0.4380  0.0376  0.1198
 1532SOL    MW4 5862   0.472   1.662   0.651  0.0455 -0.9473 -0.1008
 1533SOL     OW 5863   2.981   3.233   0.212  0.5316  0.1932  0.7389
 1533SOL    HW2 5864   2.939   3.296   0.270  1.8369  1.9157 -0.1007
 1533SOL    HW3 5865   2.925   3.230   0.135  0.3346  0.1124  0.8840
 1533SOL    MW4 5866   2.968   3.241   0.209 -0.3017  0.0438 -0.3341
 1534SOL     OW 5867   1.268   3.162   0.186  0.1383  0.0492  0.4256
 1534SOL    HW2 5868   1.257   3.109   0.265  1.0140 -0.1462  0.4182
 1534SOL    HW3 5869   1.182   3.157   0.143  0.3768 -1.8989  0.0876
 1534SOL    MW4 5870   1.255   3.154   0.191  0.4139 -0.2554  0.2139
 1535SOL     OW 5871   4.363   0.505   4.264 -0.2586 -0.2090  0.5551
 1535SOL    HW2 5872   4.412   0.425   4.249  0.1052  0.1197 -0.0991
 1535SOL    HW3 5873   4.335   0.500   4.355 -0.0672 -0.9789  0.5796
 1535SOL    MW4 5874   4.366   0.494   4.274 -0.2522 -0.4815 -0.1074
 1536SOL     OW 5875   2.210   0.855   4.563 -0.2616  0.2817  0.0838
 1536SOL    HW2 5876   2.131   0.806   4.586 -1.3313  1.6313 -0.5947
 1536SOL    HW3 5877   2.282   0.800   4.594 -1.4507 -1.0652  0.5564
 1536SOL    MW4 5878   2.209   0.841   4.570 -0.1552  0.1392  1.1870
 1537SOL     OW 5879   3.360   2.737   0.333  0.2591  0.2973 -0.3122
 1537SOL    HW2 5880   3.378   2.814   0.279 -0.8163  2.8796  2.7109
 1537SOL    HW3 5881   3.265   2.735   0.341  0.3400 -0.6862  0.5339
 1537SOL    MW4 5882   3.350   2.747   0.327  0.1780 -0.6743  0.4059
 1538SOL     OW 5883   1.110   5.015   2.761  0.3735 -0.2688 -0.3840
 1538SOL    HW2 5884   1.187   5.030   2.706  0.1183  0.5804 -0.5336
 1538SOL    HW3 5885   1.123   4.928   2.798  1.1933 -0.3110 -0.7491
 1538SOL    MW4 5886   1.122   5.006   2.759 -0.4441  0.1435  0.2623
 1539SOL     OW 5887   1.554   4.469   3.229 -0.2006 -0.0025  0.4764
 1539SOL    HW2 5888   1.482   4.462   3.166 -1.1941 -1.9950  1.7115
 1539SOL    HW3 5889   1.617   4.402   3.202 -0.2023 -0.2377  1.0223
 1539SOL    MW4 5890   1.553   4.459   3.217  0.0089 -0.0818 -0.3059
 1540SOL     OW 5891   3.665   1.239   5.953  0.0281  0.4261  0.0963
 1540SOL    HW2 5892   3.732   1.171   5.968 -1.5338 -1.0252  0.8272
 1540SOL    HW3 5893   3.627   1.217   5.868 -0.6478  0.2416  0.4442
 1540SOL    MW4 5894   3.669   1.227   5.944 -0.2343 -0.2663 -0.1111
 1541SOL     OW 5895   5.104   0.878   3.808 -0.1239 -0.2426  0.2961
 1541SOL    HW2 5896   5.063   0.961   3.786 -3.8268 -1.6477  0.9758
 1541SOL    HW3 5897   5.131   0.841   3.724  0.0797  0.9259 -0.1718
 1541SOL    MW4 5898   5.102   0.884   3.794  0.1918 -0.2953 -0.3757
 1542SOL     OW 5899   2.471   2.071   0.272  0.2828 -0.1689 -0.5417
 1542SOL    HW2 5900   2.493   1.978   0.281 -1.8716 -0.6046  0.7614
 1542SOL    HW3 5901   2.436   2.078   0.183 -0.0484 -0.7256 -0.4613
 1542SOL    MW4 5902   2.469   2.060   0.261  0.4525 -0.1539 -0.6951
 1543SOL     OW 5903   0.218   1.504   0.643  0.6756  0.0670  0.6092
 1543SOL    HW2 5904   0.156   1.558   0.691  1.0888 -0.4750  1.7932
 1543SOL    HW3 5905   0.299   1.556   0.643  0.0849  1.1132 -1.5855
 1543SOL    MW4 5906   0.221   1.518   0.649  0.5934  0.0328 -0.4245
 1544SOL     OW 5907   4.221   3.690   0.864  0.3056  0.4167  0.1665
 1544SOL    HW2 5908   4.243   3.759   0.927 -2.6714  0.9028  0.8208
 1544SOL    HW3 5909   4.137   3.717   0.827 -1.2436 -3.0100  0.7680
 1544SOL    MW4 5910   4.213   3.703   0.868  0.3011  0.6587  0.3487
 1545SOL     OW 5911   5.105   0.759   1.120 -0.5242  0.0600  0.0423
 1545SOL    HW2 5912   5.084   0.851   1.134 -0.5974 -0.0311  0.5456
 1545SOL    HW3 5913   5.192   0.760   1.079  0.4794  0.2894  2.0823
 1545SOL    MW4 5914   5.114   0.771   1.116 -0.0773 -0.8796  0.0952
 1546SOL     OW 5915   0.894   5.490   3.221 -0.0445 -0.3699  0.1960
 1546SOL    HW2 5916   0.976   5.526   3.186  1.0533 -1.7442  1.2767
 1546SOL    HW3 5917   0.826   5.541   3.177  1.3056 -0.5973 -2.3305
 1546SOL    MW4 5918   0.896   5.502   3.210 -0.0633 -0.2999  0.5161
 1547SOL     OW 5919   3.506   1.613   2.412  0.0613 -0.1566  0.2107
 1547SOL    HW2 5920   3.440   1.552   2.379 -0.4880  0.1283  0.7381
 1547SOL    HW3 5921   3.507   1.684   2.348  1.1480 -0.9887 -0.7295
 1547SOL    MW4 5922   3.497   1.614   2.399 -0.5677 -0.3035  0.8325
 1548SOL     OW 5923   2.263   5.327   5.750  0.7011 -0.1099  0.3745
 1548SOL    HW2 5924   2.265   5.233   5.772  3.0274 -0.6178 -1.6489
 1548SOL    HW3 5925   2.337   5.364   5.798  1.4878  0.1274 -0.9977
 1548SOL    MW4 5926   2.273   5.319   5.760 -0.1963 -0.2893  0.3724
 1549SOL     OW 5927   0.652   1.921   1.075  0.0898 -0.0842  0.3999
 1549SOL    HW2 5928   0.630   1.887   1.161 -0.9106  0.8242  0.5287
 1549SOL    HW3 5929   0.744   1.944   1.081  0.2879 -0.9553  0.8982
 1549SOL    MW4 5930   0.661   1.920   1.087  0.2755  0.0192  0.3906
 1550SOL     OW 5931   1.326   5.918   4.352  0.0806 -0.6358 -0.3179
 1550SOL    HW2 5932   1.419   5.897   4.341  0.1591 -0.2011 -0.4938
 1550SOL    HW3 5933   1.298   5.865   4.426  0.1259 -1.8272 -1.1311
 1550SOL    MW4 5934   1.335   5.908   4.360 -0.5214  0.8946  0.1388
 1551SOL     OW 5935   0.910   4.555   0.781  0.1030  0.2122  0.5974
 1551SOL    HW2 5936   0.906   4.633   0.724 -2.3881  0.1194  0.5211
 1551SOL    HW3 5937   0.840   4.569   0.844 -0.9774 -2.3229  0.0831
 1551SOL    MW4 5938   0.900   4.567   0.781 -0.4604 -0.1241 -0.1780
 1552SOL     OW 5939   6.060   1.639   2.950 -0.2921  0.3833 -0.2058
 1552SOL    HW2 5940   5.977   1.601   2.920  0.4890 -0.4165 -1.4516
 1552SOL    HW3 5941   6.126   1.573   2.930  0.5079  0.4620  1.9632
 1552SOL    MW4 5942   6.058   1.626   2.943  0.3781 -0.3549 -0.0167
 1553SOL     OW 5943   0.355   5.716   6.223  0.1903 -0.3515 -0.7127
 1553SOL    HW2 5944   0.283   5.718   6.161  0.8224  0.3485 -1.4395
 1553SOL    HW3 5945   0.432   5.697   6.170  0.8235  0.7798 -0.2336
 1553SOL    MW4 5946   0.356   5.714   6.208  0.1428 -0.6409 -0.6486
 1554SOL     OW 5947   1.587   5.826   1.013 -0.5317 -0.0910  0.2876
 1554SOL    HW2 5948   1.586   5.817   1.108 -1.2337  0.7697  0.3799
 1554SOL    HW3 5949   1.664   5.881   0.995 -1.2079  0.9491  0.4999
 1554SOL    MW4 5950   1.597   5.832   1.023 -0.1834  0.0197 -0.0582
 1555SOL     OW 5951   3.093   6.163   4.973 -0.0931  0.0958  0.0959
 1555SOL    HW2 5952   3.030   6.225   4.935 -0.0532 -0.8517 -1.6115
 1555SOL    HW3 5953   3.042   6.084   4.987  0.9180 -1.1574 -2.6221
 1555SOL    MW4 5954   3.078   6.161   4.970 -0.3512 -0.3875  0.0394
 1556SOL     OW 5955   0.232   5.505   2.621  0.3511  0.0125 -0.3024
 1556SOL    HW2 5956   0.297   5.487   2.690  0.4004 -0.0720 -0.3708
 1556SOL    HW3 5957   0.150   5.518   2.668  0.1792 -1.0331 -0.2905
 1556SOL    MW4 5958   0.230   5.504   2.636  0.5208 -0.0826  0.0949
 1557SOL     OW 5959   4.378   5.623   1.499 -0.6987 -0.3735  0.0429
 1557SOL    HW2 5960   4.434   5.700   1.486 -0.3734 -0.1555  2.2916
 1557SOL    HW3 5961   4.365   5.619   1.594 -0.5819 -3.2085  0.0166
 1557SOL    MW4 5962   4.383   5.633   1.510  0.0797 -0.3640 -1.3868
 1558SOL     OW 5963   3.677   1.858   3.012  0.0895 -0.1212 -0.1847
 1558SOL    HW2 5964   3.581   1.855   3.007  0.1329 -0.0753 -1.1297
 1558SOL    HW3 5965   3.706   1.866   2.922  1.0428 -1.4419 -0.0344
 1558SOL    MW4 5966   3.668   1.858   3.000  0.0805 -0.1195  0.7116
 1559SOL     OW 5967   1.096   3.841   6.302 -0.5352 -0.4935 -0.1678
 1559SOL    HW2 5968   1.123   3.901   6.371 -1.3536 -0.8743  0.5049
 1559SOL    HW3 5969   1.041   3.894   6.244 -0.5784 -0.3872 -0.0307
 1559SOL    MW4 5970   1.092   3.856   6.304 -0.1320 -0.2730  0.0406
 1560SOL     OW 5971   1.952   1.879   3.450  0.2121 -0.3879  0.0900
 1560SOL    HW2 5972   1.942   1.937   3.526  0.6278 -1.5888  1.1005
 1560SOL    HW3 5973   1.964   1.938   3.376 -1.4676  0.8513  0.7537
 1560SOL    MW4 5974   1.952   1.895   3.451  0.8014 -0.1948 -0.2268
 1561SOL     OW 5975   1.987   4.112   6.340  0.0926  0.1161  0.4513
 1561SOL    HW2 5976   2.024   4.184   6.289 -0.6797  0.3602  0.2270
 1561SOL    HW3 5977   2.051   4.041   6.329  1.2958  1.0122  1.3831
 1561SOL    MW4 5978   2.000   4.112   6.332 -0.8632 -0.1874 -0.1090
 1562SOL     OW 5979   3.157   4.717   3.924  0.7173 -0.3411  0.0146
 1562SOL    HW2 5980   3.087   4.715   3.989 -0.1871 -0.2405 -0.9347
 1562SOL    HW3 5981   3.175   4.625   3.904  0.6160 -0.3573 -0.0002
 1562SOL    MW4 5982   3.150   4.705   3.930 -0.0120 -0.0753  0.0664
 1563SOL     OW 5983   3.743   1.850   3.286  0.5794 -0.0549 -0.2499
 1563SOL    HW2 5984   3.725   1.841   3.192 -1.5628  1.3648 -0.0345
 1563SOL    HW3 5985   3.684   1.787   3.328 -0.2792  1.0493  0.2440
 1563SOL    MW4 5986   3.733   1.840   3.279  0.4619 -0.6176 -0.9169
 1564SOL     OW 5987   2.151   6.205   0.385  0.4313 -0.4085 -0.2953
 1564SOL    HW2 5988   2.124   6.171   0.471  0.8183 -0.6263 -0.2567
 1564SOL    HW3 5989   2.199   6.285   0.405  0.2695 -0.3041 -0.3277
 1564SOL    MW4 5990   2.154   6.211   0.399  0.0630 -0.1509  0.0666
 1565SOL     OW 5991   1.557   2.285   1.282  0.3627  0.0213  0.4381
 1565SOL    HW2 5992   1.586   2.368   1.244 -0.7219 -0.2481 -1.0610
 1565SOL    HW3 5993   1.555   2.225   1.208  0.7222 -1.2443  1.4321
 1565SOL    MW4 5994   1.561   2.288   1.267 -0.5735  0.1471 -0.0199
 1566SOL     OW 5995   1.097   5.030   1.461  0.5844 -0.7675 -0.3066
 1566SOL    HW2 5996   1.005   5.048   1.443  1.0501  0.5611 -1.5733
 1566SOL    HW3 5997   1.109   5.057   1.552 -0.6425 -2.6359  0.4695
 1566SOL    MW4 5998   1.087   5.036   1.471 -0.0935 -0.3390  0.2499
 1567SOL     OW 5999   3.534   5.849   3.986 -0.3652  0.5187  0.1976
 1567SOL    HW2 6000   3.576   5.809   4.063 -0.4139  2.5178  1.3190
 1567SOL    HW3 6001   3.527   5.942   4.008 -0.4193  1.1430 -2.2390
 1567SOL    MW4 6002   3.538   5.856   3.999  0.1191  0.2627  0.3919
 1568SOL     OW 6003   3.889   0.524   1.752 -0.1622 -0.0300 -0.0536
 1568SOL    HW2 6004   3.853   0.446   1.711  1.9570 -0.7359 -0.6962
 1568SOL    HW3 6005   3.831   0.541   1.826 -1.1379 -1.7211 -0.3766
 1568SOL    MW4 6006   3.876   0.516   1.756  1.1390  0.1217 -0.3108
 1569SOL     OW 6007   2.262   3.964   5.517 -0.1269  0.1628  0.4485
 1569SOL    HW2 6008   2.345   3.996   5.482 -0.8146  1.1342 -0.3473
 1569SOL    HW3 6009   2.196   3.991   5.453 -1.2220  0.5738  1.6928
 1569SOL    MW4 6010   2.264   3.972   5.504 -0.3383 -0.3102 -0.9722
 1570SOL     OW 6011   0.520   0.617   0.104 -0.0571 -0.0313 -0.1550
 1570SOL    HW2 6012   0.603   0.608   0.150  0.4464 -0.1886 -1.0610
 1570SOL    HW3 6013   0.454   0.589   0.167  0.6692 -0.8876  0.2427
 1570SOL    MW4 6014   0.522   0.612   0.118 -0.3463 -0.2702  0.6853
 1571SOL     OW 6015   2.001   3.328   4.245 -0.2677 -0.2325 -0.3516
 1571SOL    HW2 6016   1.990   3.339   4.340  0.8893  1.1561 -0.3440
 1571SOL    HW3 6017   1.915   3.346   4.208 -0.6661 -0.5394  0.4012
 1571SOL    MW4 6018   1.988   3.332   4.253 -0.2518 -0.1679 -0.2724
 1572SOL     OW 6019   5.254   3.301   2.649  0.1861  0.2706  0.1602
 1572SOL    HW2 6020   5.316   3.365   2.616 -1.9524  1.8932 -0.9269
 1572SOL    HW3 6021   5.236   3.244   2.575  0.7397 -0.5378  0.6275
 1572SOL    MW4 6022   5.260   3.302   2.635 -0.3009  0.3195 -0.1936
 1573SOL     OW 6023   0.684   0.844   5.161  0.3832 -0.1777 -0.4340
 1573SOL    HW2 6024   0.760   0.798   5.197 -0.5293 -1.3771  0.0252
 1573SOL    HW3 6025   0.658   0.791   5.086  0.6216  0.8142 -1.2369
 1573SOL    MW4 6026   0.691   0.831   5.156  0.0648  0.1568 -0.7201
 1574SOL     OW 6027   3.249   4.460   4.131  0.2494 -0.0236 -0.1566
 1574SOL    HW2 6028   3.329   4.482   4.084  1.1536 -0.6272  1.0359
 1574SOL    HW3 6029   3.208   4.544   4.151  1.0670  0.3393  0.0133
 1574SOL    MW4 6030   3.254   4.474   4.128 -0.1101 -0.7772 -0.0116
 1575SOL     OW 6031   3.894   4.978   1.546  0.0779  0.3275  0.2070
 1575SOL    HW2 6032   3.983   5.009   1.564  1.0004 -1.6512 -0.6516
 1575SOL    HW3 6033   3.868   5.024   1.466 -0.5616  2.4849  1.5736
 1575SOL    MW4 6034   3.902   4.988   1.538  0.3362  0.0506 -0.3103
 1576SOL     OW 6035   1.471   4.457   3.945  0.4024 -0.1027  0.3144
 1576SOL    HW2 6036   1.429   4.510   3.877  1.6457  0.2697 -0.1913
 1576SOL    HW3 6037   1.403   4.396   3.972  0.1347 -0.9464 -1.9761
 1576SOL    MW4 6038   1.456   4.456   3.939 -0.3950 -0.5194  0.1477
 1577SOL     OW 6039   0.740   6.345   3.017  0.0045  0.1964 -0.5595
 1577SOL    HW2 6040   0.690   6.368   2.938  0.5547 -0.5880 -1.1492
 1577SOL    HW3 6041   0.725   6.251   3.028 -0.2722  0.3446  0.4310
 1577SOL    MW4 6042   0.731   6.336   3.008  0.2860 -0.3492  0.0918
 1578SOL     OW 6043   4.370   6.342   5.772  0.1042  0.1647 -0.0053
 1578SOL    HW2 6044   4.335   6.279   5.709 -0.6367  1.6088 -1.1042
 1578SOL    HW3 6045   4.301   6.351   5.838  0.2500 -0.2255  0.2039
 1578SOL    MW4 6046   4.356   6.335   5.773  0.0123  0.7305 -0.4523
 1579SOL     OW 6047   0.799   2.203   3.457  0.2111  0.3460 -0.4025
 1579SOL    HW2 6048   0.866   2.161   3.511  1.4245 -0.2368 -2.2703
 1579SOL    HW3 6049   0.831   2.193   3.367 -2.6695 -0.4570 -1.4318
 1579SOL    MW4 6050   0.812   2.196   3.452  0.5190  0.0471  0.4742
 1580SOL     OW 6051   0.859   3.430   2.312 -0.5145  0.1173 -0.2055
 1580SOL    HW2 6052   0.862   3.337   2.336 -0.1054  0.3004  0.4795
 1580SOL    HW3 6053   0.838   3.475   2.394 -0.6569  0.6349 -0.5251
 1580SOL    MW4 6054   0.857   3.424   2.326 -0.0129 -0.1030  0.3128
 1581SOL     OW 6055   4.546   5.648   2.392 -0.4209  0.3598  0.2842
 1581SOL    HW2 6056   4.571   5.709   2.324 -0.2817 -0.5352 -0.4900
 1581SOL    HW3 6057   4.458   5.675   2.418  0.0527  1.5433  0.7376
 1581SOL    MW4 6058   4.538   5.659   2.387 -0.5233  0.4977  0.0458
 1582SOL     OW 6059   6.138   5.976   3.724  0.2501 -0.4977  0.2906
 1582SOL    HW2 6060   6.185   6.034   3.783 -0.6350  1.7029 -1.0289
 1582SOL    HW3 6061   6.206   5.937   3.669  0.7718  0.2811  0.3752
 1582SOL    MW4 6062   6.153   5.979   3.724 -0.3994  0.4320 -0.5266
 1583SOL     OW 6063   5.737   0.037   0.676 -0.6425 -0.4740 -0.0553
 1583SOL    HW2 6064   5.702  -0.019   0.606 -2.1039 -1.4284  1.3733
 1583SOL    HW3 6065   5.798  -0.020   0.723  0.1402  0.0898 -0.3655
 1583SOL    MW4 6066   5.740   0.022   0.673  0.1111 -0.2752 -0.3814
 1584SOL     OW 6067   4.900   2.130   6.346 -0.4453  0.3362  0.1167
 1584SOL    HW2 6068   4.817   2.106   6.386  0.0242 -1.1194  0.2660
 1584SOL    HW3 6069   4.966   2.115   6.414  0.1556 -0.4053 -0.6057
 1584SOL    MW4 6070   4.898   2.125   6.360 -0.0718 -0.1939 -0.1064
 1585SOL     OW 6071   2.510   1.522   6.202  0.1696 -0.3089  0.0063
 1585SOL    HW2 6072   2.479   1.513   6.112 -0.1786 -0.1862  0.1130
 1585SOL    HW3 6073   2.600   1.555   6.193  0.9975 -2.4588 -0.3675
 1585SOL    MW4 6074   2.518   1.525   6.189 -0.3050 -0.6727  0.1423
 1586SOL     OW 6075   1.747   5.999   6.358 -0.1681 -0.4663 -0.4838
 1586SOL    HW2 6076   1.805   6.024   6.286  0.5994 -0.2003  0.2018
 1586SOL    HW3 6077   1.794   5.928   6.402  0.3638  0.7246  0.9543
 1586SOL    MW4 6078   1.761   5.993   6.354 -0.3294  0.1273  0.1347
 1587SOL     OW 6079   3.592   2.909   4.243 -0.6353  0.7993  0.2111
 1587SOL    HW2 6080   3.589   2.978   4.177 -1.6689  0.6790  0.1219
 1587SOL    HW3 6081   3.563   2.951   4.324  1.1065  1.0761  0.7421
 1587SOL    MW4 6082   3.588   2.924   4.245  0.8211  0.0489  0.1008
 1588SOL     OW 6083   3.381   6.211   4.245  0.8939  0.3214 -0.0608
 1588SOL    HW2 6084   3.301   6.208   4.297  1.1011 -0.0662  0.2341
 1588SOL    HW3 6085   3.442   6.154   4.290  1.3544  0.6421 -0.2668
 1588SOL    MW4 6086   3.379   6.203   4.258 -0.0040 -0.0086  0.2931
 1589SOL     OW 6087   1.507   1.707   5.819  0.1842 -0.4184 -0.2606
 1589SOL    HW2 6088   1.479   1.701   5.910 -0.4079 -0.0717 -0.4184
 1589SOL    HW3 6089   1.523   1.800   5.804 -2.2675 -0.0784 -1.2391
 1589SOL    MW4 6090   1.506   1.718   5.829  0.7743  0.2535 -0.1577
 1590SOL     OW 6091   0.942   2.012   1.409 -0.2458 -0.3199 -0.3401
 1590SOL    HW2 6092   0.914   2.045   1.323  1.0179  2.3563  0.1911
 1590SOL    HW3 6093   0.966   1.921   1.392  1.1463  0.4427 -3.1349
 1590SOL    MW4 6094   0.941   2.004   1.395 -0.4163 -0.5322 -0.2115
 1591SOL     OW 6095   5.551   1.806   5.965  0.1498  0.0455  0.4875
 1591SOL    HW2 6096   5.541   1.862   6.041 -0.5892  2.2213 -1.0920
 1591SOL    HW3 6097   5.644   1.810   5.944 -0.0760  1.9174 -0.3901
 1591SOL    MW4 6098   5.562   1.814   5.972 -0.0949 -0.4308  0.0418
 1592SOL     OW 6099   2.706   5.180   6.334 -0.6800 -0.2418  0.0949
 1592SOL    HW2 6100   2.699   5.255   6.393 -0.3116  0.6661 -0.9831
 1592SOL    HW3 6101   2.776   5.127   6.371 -0.7634  0.0743  0.7187
 1592SOL    MW4 6102   2.714   5.183   6.347 -0.0502  0.0473  0.3546
 1593SOL     OW 6103   0.534   2.739   3.882 -0.1350  0.2156  0.0569
 1593SOL    HW2 6104   0.547   2.826   3.920 -3.3255  0.7271  0.3257
 1593SOL    HW3 6105   0.614   2.720   3.834  1.0891  2.8105  0.9273
 1593SOL    MW4 6106   0.546   2.748   3.881 -0.0982 -0.1082  0.0288
 1594SOL     OW 6107   0.984   4.399   5.362 -0.4079 -0.2430  0.2970
 1594SOL    HW2 6108   1.076   4.402   5.388 -0.1668  0.2069 -0.5631
 1594SOL    HW3 6109   0.969   4.484   5.320 -0.8556 -0.8216 -0.7397
 1594SOL    MW4 6110   0.994   4.411   5.360  0.3658 -0.6832  0.2558
 1595SOL     OW 6111   5.671   5.417   4.520 -0.2581  0.2734  0.5648
 1595SOL    HW2 6112   5.627   5.335   4.541 -1.2785 -0.2839 -3.0292
 1595SOL    HW3 6113   5.601   5.473   4.488  0.8686  1.4935  0.1637
 1595SOL    MW4 6114   5.656   5.414   4.519  0.7545 -0.1717 -0.6415
 1596SOL     OW 6115   5.987   4.853   1.434  0.1287  0.6770  0.5985
 1596SOL    HW2 6116   6.031   4.937   1.418  1.8897 -0.6385 -2.2186
 1596SOL    HW3 6117   5.938   4.836   1.353  0.2314 -1.2499  0.8992
 1596SOL    MW4 6118   5.986   4.862   1.421  0.3897 -0.3908 -0.2265
 1597SOL     OW 6119   2.014   2.695   6.262  0.0201  0.2235  0.6257
 1597SOL    HW2 6120   1.995   2.741   6.181  0.0772 -1.1065 -0.1787
 1597SOL    HW3 6121   2.106   2.671   6.256 -0.1953 -0.6567  0.6604
 1597SOL    MW4 6122   2.024   2.698   6.251 -0.1916  0.1751  0.0716
 1598SOL     OW 6123   0.481   3.091   3.433  0.2033  0.0162 -0.1986
 1598SOL    HW2 6124   0.491   3.185   3.448 -0.5580 -0.0567  0.8211
 1598SOL    HW3 6125   0.523   3.050   3.508 -0.2824 -0.4439 -0.1716
 1598SOL    MW4 6126   0.488   3.098   3.445 -0.3402  0.4493 -0.1517
 1599SOL     OW 6127   5.734   0.980   1.648  0.1907  0.3592  0.7567
 1599SOL    HW2 6128   5.744   1.068   1.614 -2.1713  0.4341  0.0367
 1599SOL    HW3 6129   5.797   0.974   1.719  2.1472  1.7317 -0.7635
 1599SOL    MW4 6130   5.743   0.991   1.653  0.2450 -0.3550 -0.1410
 1600SOL     OW 6131   2.552   4.878   2.075 -0.4964 -0.4142  0.1459
 1600SOL    HW2 6132   2.641   4.911   2.086 -0.5194 -0.0512 -0.6979
 1600SOL    HW3 6133   2.496   4.953   2.092 -0.5847 -0.2564 -0.8250
 1600SOL    MW4 6134   2.556   4.892   2.079  0.2958  0.3716 -0.3288
 1601SOL     OW 6135   0.601   5.540   2.430 -0.5136 -0.7237 -0.2804
 1601SOL    HW2 6136   0.534   5.532   2.362 -0.6924 -1.0420 -0.0711
 1601SOL    HW3 6137   0.673   5.485   2.400  0.0480  0.3633 -0.9662
 1601SOL    MW4 6138   0.601   5.532   2.417  0.1343  0.1138 -0.3144
 1602SOL     OW 6139   3.565   4.002   0.712  0.0505 -0.1234  0.3844
 1602SOL    HW2 6140   3.477   4.012   0.677 -0.4761  2.1909  2.0932
 1602SOL    HW3 6141   3.620   4.057   0.655  0.4071 -1.4372 -0.5826
 1602SOL    MW4 6142   3.561   4.011   0.700  0.4392 -0.4173 -0.2328
 1603SOL     OW 6143   1.650   6.396   3.372  0.0075  0.1492 -0.3044
 1603SOL    HW2 6144   1.739   6.362   3.384 -0.6727 -1.9445 -0.7231
 1603SOL    HW3 6145   1.605   6.376   3.454 -0.3654  0.2095 -0.4896
 1603SOL    MW4 6146   1.656   6.389   3.384  0.1929 -0.4354  0.0232
 1604SOL     OW 6147   6.202   4.784  -0.011 -0.0023 -0.3076  0.1970
 1604SOL    HW2 6148   6.122   4.827   0.020 -0.3533 -0.8122  0.0061
 1604SOL    HW3 6149   6.256   4.774   0.068  0.3232  0.9588  0.1541
 1604SOL    MW4 6150   6.199   4.788   0.004  0.2823  0.2232 -0.1885
 1605SOL     OW 6151   5.737   2.686   4.068 -0.0560  0.1005 -0.2828
 1605SOL    HW2 6152   5.701   2.775   4.067 -0.7545 -0.0780 -3.6174
 1605SOL    HW3 6153   5.690   2.640   3.998 -1.0674 -3.5712  2.5179
 1605SOL    MW4 6154   5.726   2.692   4.058 -0.2602 -0.0147  0.3970
 1606SOL     OW 6155   3.343   0.325   0.104  0.1561 -0.2597 -0.3670
 1606SOL    HW2 6156   3.422   0.305   0.153  0.7547 -1.5647 -1.8044
 1606SOL    HW3 6157   3.272   0.287   0.155  0.5343  0.1887  0.5044
 1606SOL    MW4 6158   3.344   0.318   0.117  0.0198  0.1000  0.1103
 1607SOL     OW 6159   1.913   0.011   3.568 -0.0465 -0.5570 -0.8135
 1607SOL    HW2 6160   1.836   0.063   3.590  0.4838 -0.1063  0.0048
 1607SOL    HW3 6161   1.956   0.061   3.498  0.6810  0.3564  0.2429
 1607SOL    MW4 6162   1.908   0.025   3.562  0.5719 -0.5225 -0.8436
 1608SOL     OW 6163   2.731   6.272   6.190 -0.0254  0.0226 -0.3617
 1608SOL    HW2 6164   2.645   6.245   6.222 -0.3455  0.7730 -0.5740
 1608SOL    HW3 6165   2.791   6.205   6.223 -0.8797 -1.3255 -1.4527
 1608SOL    MW4 6166   2.728   6.260   6.199 -0.1225 -0.7413  0.4697
 1609SOL     OW 6167   0.372   0.244   3.843  0.2705  0.6849  0.1922
 1609SOL    HW2 6168   0.382   0.150   3.831  1.5464  0.8079  0.1258
 1609SOL    HW3 6169   0.461   0.278   3.841 -0.2221  2.0082 -0.6532
 1609SOL    MW4 6170   0.385   0.236   3.841  0.4246 -0.2318  0.4626
 1610SOL     OW 6171   3.480   2.430   0.830 -0.1858  0.1184 -0.2234
 1610SOL    HW2 6172   3.392   2.449   0.861 -0.3347  0.1199 -0.6458
 1610SOL    HW3 6173   3.504   2.348   0.873 -0.6718 -0.2589 -0.6723
 1610SOL    MW4 6174   3.472   2.422   0.840 -0.4426 -0.2134  0.2018
 1611SOL     OW 6175   0.700   2.251   4.646  0.0975  0.3061 -0.3463
 1611SOL    HW2 6176   0.649   2.279   4.722  1.5024  0.1409  0.7005
 1611SOL    HW3 6177   0.646   2.184   4.604 -0.2855 -0.3110  1.0813
 1611SOL    MW4 6178   0.687   2.246   4.650 -0.2174 -0.0867  0.5892
 1612SOL     OW 6179   2.337   0.579   4.182 -0.2260 -0.2639  0.1480
 1612SOL    HW2 6180   2.294   0.495   4.164  0.6252 -0.5579 -0.5747
 1612SOL    HW3 6181   2.301   0.638   4.115  2.6177 -1.2516 -2.4931
 1612SOL    MW4 6182   2.326   0.576   4.171  0.1549 -0.2336 -0.0514
 1613SOL     OW 6183   5.346   0.291   0.841 -0.0583 -0.0121  0.1135
 1613SOL    HW2 6184   5.307   0.338   0.915 -1.4944 -1.4740  0.3423
 1613SOL    HW3 6185   5.419   0.242   0.879  0.2048  0.4786  0.2470
 1613SOL    MW4 6186   5.350   0.291   0.856  0.0846  0.3591 -0.0498
 1614SOL     OW 6187   4.813   5.189   0.683  0.2700 -0.0047  0.6198
 1614SOL    HW2 6188   4.743   5.227   0.630 -0.2083 -0.7732  0.6885
 1614SOL    HW3 6189   4.892   5.202   0.631  0.1919  1.3925  0.7929
 1614SOL    MW4 6190   4.814   5.196   0.670  0.6929 -0.1403  0.3750
 1615SOL     OW 6191   1.234   5.186   5.649 -0.3667  0.2519  0.0954
 1615SOL    HW2 6192   1.141   5.198   5.668 -0.5194  0.1585 -0.5714
 1615SOL    HW3 6193   1.259   5.267   5.604  0.0990  0.6646  1.0715
 1615SOL    MW4 6194   1.225   5.199   5.645 -0.3494 -0.4375  0.0186
 1616SOL     OW 6195   6.133   3.218   6.315 -0.0176  0.5624  0.1905
 1616SOL    HW2 6196   6.067   3.283   6.340  0.3148  1.3484 -0.8744
 1616SOL    HW3 6197   6.193   3.266   6.259  0.9623 -0.3715  0.4153
 1616SOL    MW4 6198   6.132   3.233   6.311 -0.1945 -0.2106  0.0782
 1617SOL     OW 6199   4.079   3.706   6.293  0.1867  0.8824  0.4474
 1617SOL    HW2 6200   4.036   3.790   6.303 -0.2735  0.6823  0.2043
 1617SOL    HW3 6201   4.010   3.641   6.310 -0.3262  0.5201 -2.4274
 1617SOL    MW4 6202   4.065   3.708   6.296 -0.4833  0.0219  0.0626
 1618SOL     OW 6203   1.738   0.496   2.453  0.7270  0.2320 -0.4505
 1618SOL    HW2 6204   1.718   0.403   2.450  0.3004 -0.0306  3.7526
 1618SOL    HW3 6205   1.661   0.536   2.494  2.1660  1.8702  0.8452
 1618SOL    MW4 6206   1.725   0.489   2.458  0.6080 -0.0085  0.5119
 1619SOL     OW 6207   4.629   5.461   4.200  0.4616  0.2154 -0.8272
 1619SOL    HW2 6208   4.587   5.400   4.139  0.2244  0.5697 -1.0177
 1619SOL    HW3 6209   4.622   5.417   4.285 -1.0107  0.5989 -0.7061
 1619SOL    MW4 6210   4.622   5.447   4.203 -0.4261  0.3053 -0.8792
 1620SOL     OW 6211   3.124   2.466   5.779 -0.1693  0.5124  0.3539
 1620SOL    HW2 6212   3.078   2.459   5.696 -1.3131  1.3421  0.8980
 1620SOL    HW3 6213   3.214   2.438   5.759 -0.5705  0.1414 -1.0138
 1620SOL    MW4 6214   3.130   2.461   5.765  0.1305 -0.0867 -0.0324
 1621SOL     OW 6215   5.321   5.981   2.765  0.4965 -0.4339 -0.4057
 1621SOL    HW2 6216   5.385   5.944   2.826  0.7577 -1.7045 -1.4268
 1621SOL    HW3 6217   5.250   6.011   2.821  0.1837 -2.6660  0.4798
 1621SOL    MW4 6218   5.320   5.980   2.780  0.0807  0.0481  0.4767
 1622SOL     OW 6219   5.021   5.708   2.120  0.1348  0.0719 -0.5063
 1622SOL    HW2 6220   4.976   5.727   2.203  0.4931 -0.8041 -0.0984
 1622SOL    HW3 6221   5.044   5.794   2.086 -1.2537  0.5125 -0.3982
 1622SOL    MW4 6222   5.018   5.722   2.127 -0.7741 -0.4113  0.7265
 1623SOL     OW 6223   0.465   5.056   4.073  0.6323 -0.2733  0.0626
 1623SOL    HW2 6224   0.555   5.043   4.042 -0.2716 -2.8047 -1.8339
 1623SOL    HW3 6225   0.458   4.996   4.148  0.5048 -0.1369  0.1582
 1623SOL    MW4 6226   0.476   5.046   4.079  0.4171  0.0917 -0.2079
 1624SOL     OW 6227   2.655   1.615   5.155 -0.4528 -0.1624  0.0473
 1624SOL    HW2 6228   2.625   1.537   5.109 -1.5263 -0.2328  0.8189
 1624SOL    HW3 6229   2.684   1.582   5.240 -1.7536  0.3546  0.7221
 1624SOL    MW4 6230   2.655   1.600   5.160  0.3261 -0.2195 -0.3577
 1625SOL     OW 6231   1.128   4.520   1.909  0.5049  0.0021  0.2413
 1625SOL    HW2 6232   1.205   4.470   1.935  0.4595  0.2066  0.7893
 1625SOL    HW3 6233   1.057   4.482   1.960  0.0556 -0.7892 -0.9257
 1625SOL    MW4 6234   1.129   4.509   1.919 -0.0640 -0.0559 -0.2373
 1626SOL     OW 6235   3.409   3.081   5.942 -0.0373  0.4212 -0.2587
 1626SOL    HW2 6236   3.395   3.154   5.882 -0.6493  0.1931 -0.4033
 1626SOL    HW3 6237   3.321   3.050   5.963  0.1128  1.0346  1.4238
 1626SOL    MW4 6238   3.396   3.086   5.937  0.1243 -0.4075 -0.2315
 1627SOL     OW 6239   1.845   2.513   2.708 -0.0011  0.2788 -0.0251
 1627SOL    HW2 6240   1.930   2.556   2.710  0.1585 -0.0666  1.9610
 1627SOL    HW3 6241   1.852   2.449   2.637  0.7272  1.5094 -1.1090
 1627SOL    MW4 6242   1.857   2.510   2.699  0.1480 -0.2856  0.3903
 1628SOL     OW 6243   2.346   6.182   5.183  0.1495 -0.1596 -0.2271
 1628SOL    HW2 6244   2.420   6.213   5.235  0.1615 -0.0680 -0.2979
 1628SOL    HW3 6245   2.291   6.260   5.170  0.2937 -0.1137 -0.5985
 1628SOL    MW4 6246   2.349   6.197   5.188  0.0895  0.8262  0.0112
 1629SOL     OW 6247   1.632   5.578   5.195  0.2215 -0.1693  0.7689
 1629SOL    HW2 6248   1.711   5.551   5.242  2.6596  2.3976 -1.4538
 1629SOL    HW3 6249   1.661   5.587   5.104 -2.9392 -0.0484 -0.3242
 1629SOL    MW4 6250   1.646   5.576   5.189  0.6583  0.0068 -0.0038
 1630SOL     OW 6251   2.404   5.442   0.245  0.2594  0.2942  0.3363
 1630SOL    HW2 6252   2.340   5.394   0.298  1.8351 -1.3123  0.9086
 1630SOL    HW3 6253   2.361   5.524   0.223 -1.5569 -0.2530  1.6296
 1630SOL    MW4 6254   2.390   5.446   0.249  0.1399  0.1832 -0.2667
 1631SOL     OW 6255   0.541   2.501   1.037 -0.0815  0.2801 -0.6103
 1631SOL    HW2 6256   0.465   2.507   0.979  0.5745  1.3760 -1.3842
 1631SOL    HW3 6257   0.549   2.588   1.075 -0.0219 -0.2088  0.5430
 1631SOL    MW4 6258   0.532   2.513   1.034  0.4482  0.3839 -0.5289
 1632SOL     OW 6259   5.370   5.899   6.002 -0.1534  0.3003  0.3899
 1632SOL    HW2 6260   5.400   5.975   5.952  1.6449 -1.0275 -0.6854
 1632SOL    HW3 6261   5.340   5.836   5.937 -0.2272 -0.4661  1.1320
 1632SOL    MW4 6262   5.370   5.900   5.987 -0.1677  0.5115 -0.2427
 1633SOL     OW 6263   3.391   0.413   1.005 -0.4683  0.1821 -0.0666
 1633SOL    HW2 6264   3.406   0.348   1.074  0.3925 -0.7105 -1.0580
 1633SOL    HW3 6265   3.299   0.404   0.983 -0.7914  0.5847  1.0618
 1633SOL    MW4 6266   3.381   0.404   1.011  0.8585  0.2170  0.2383
 1634SOL     OW 6267   1.695   5.048   0.995 -0.3138 -1.0548  0.4942
 1634SOL    HW2 6268   1.717   5.074   1.084  1.4654 -0.6809 -0.0040
 1634SOL    HW3 6269   1.694   5.131   0.946 -0.0539 -1.3683 -0.0542
 1634SOL    MW4 6270   1.698   5.062   1.000 -0.2495 -0.5626  0.1046
 1635SOL     OW 6271   1.458   3.872   3.049 -0.4890 -0.0451 -0.0043
 1635SOL    HW2 6272   1.367   3.844   3.037 -0.1571 -0.5863 -1.4592
 1635SOL    HW3 6273   1.459   3.963   3.020 -0.7542  0.3049  1.0142
 1635SOL    MW4 6274   1.446   3.880   3.044 -0.3246  0.0557 -0.3839
 1636SOL     OW 6275   0.167   2.471   5.102  0.5191 -0.1897  0.0923
 1636SOL    HW2 6276   0.220   2.467   5.181  0.8607  0.1512 -0.1113
 1636SOL    HW3 6277   0.078   2.453   5.131  0.5473  0.5234  0.6586
 1636SOL    MW4 6278   0.162   2.468   5.116 -0.4268 -0.2638  0.4790
 1637SOL     OW 6279   0.627   2.065   6.359  0.3433 -0.7181 -0.3038
 1637SOL    HW2 6280   0.638   2.047   6.452 -2.5235 -2.2301 -0.1510
 1637SOL    HW3 6281   0.707   2.111   6.334  1.0960 -0.0448  2.9225
 1637SOL    MW4 6282   0.639   2.068   6.368 -0.4990 -0.2124 -0.5687
 1638SOL     OW 6283   0.333   2.079   1.280  0.2917  0.3058  0.0539
 1638SOL    HW2 6284   0.241   2.061   1.298 -0.0366  2.4786  0.7342
 1638SOL    HW3 6285   0.369   2.110   1.363  1.0538  1.6853 -0.7498
 1638SOL    MW4 6286   0.326   2.080   1.293 -0.1810 -0.3099 -0.3543
 1639SOL     OW 6287   1.966   3.527   3.764 -0.1256  0.0579 -0.4947
 1639SOL    HW2 6288   2.057   3.521   3.735 -0.2073  1.1630 -1.0215
 1639SOL    HW3 6289   1.917   3.552   3.686 -0.7689  0.2494 -0.0405
 1639SOL    MW4 6290   1.972   3.529   3.750 -0.2052  0.6734 -0.4523
 1640SOL     OW 6291   4.396   5.643   3.736  0.5043  0.0354 -0.7248
 1640SOL    HW2 6292   4.348   5.685   3.664  0.7662  0.1116 -0.8566
 1640SOL    HW3 6293   4.331   5.632   3.805  0.1468 -0.4459 -1.1388
 1640SOL    MW4 6294   4.381   5.647   3.736  0.0535 -0.3768 -0.0524
 1641SOL     OW 6295   0.006   3.262   0.491 -0.6945  0.3998 -0.0467
 1641SOL    HW2 6296   0.049   3.316   0.557  0.4030 -1.4150  0.8081
 1641SOL    HW3 6297  -0.030   3.188   0.541  0.0706 -0.9576 -1.4310
 1641SOL    MW4 6298   0.007   3.259   0.507  0.0030 -0.6541  0.0033
 1642SOL     OW 6299   4.285   2.919   3.123 -0.3536  0.3027 -0.1207
 1642SOL    HW2 6300   4.348   2.855   3.155 -0.4848 -0.1145 -0.6750
 1642SOL    HW3 6301   4.216   2.920   3.190  0.5483  1.2545  0.8183
 1642SOL    MW4 6302   4.284   2.911   3.136  0.2479 -0.4181  0.8345
 1643SOL     OW 6303   5.462   6.071   4.542  0.1043  0.2432  0.2600
 1643SOL    HW2 6304   5.408   6.020   4.602 -0.0411  1.4504  1.2015
 1643SOL    HW3 6305   5.430   6.161   4.551  1.1110  0.6987 -0.4727
 1643SOL    MW4 6306   5.451   6.076   4.551 -0.4314 -0.3569  0.6564
 1644SOL     OW 6307   4.891   3.335   2.996  0.4223  0.4122 -0.1525
 1644SOL    HW2 6308   4.947   3.265   2.963  0.3863  0.2972  0.0285
 1644SOL    HW3 6309   4.946   3.385   3.056 -0.3491 -1.2483  2.1032
 1644SOL    MW4 6310   4.906   3.332   3.000 -0.7315  0.0399  0.0903
 1645SOL     OW 6311   4.610   2.421   3.031  0.0132  0.0181 -0.5763
 1645SOL    HW2 6312   4.551   2.346   3.026 -0.5874  0.1397  2.5560
 1645SOL    HW3 6313   4.635   2.425   3.123 -0.4366  3.9761 -0.4538
 1645SOL    MW4 6314   4.605   2.412   3.043 -0.1037 -0.6291  0.5627
 1646SOL     OW 6315   1.140   2.953   4.027 -0.2018 -0.5098 -0.1831
 1646SOL    HW2 6316   1.057   2.931   4.070  1.2551 -3.9416  1.2231
 1646SOL    HW3 6317   1.186   3.007   4.092 -0.4484 -0.4483 -0.0543
 1646SOL    MW4 6318   1.135   2.957   4.041  0.0857  0.0411 -0.2696
 1647SOL     OW 6319   4.535   3.188   0.101  0.0663 -0.4669  0.2410
 1647SOL    HW2 6320   4.446   3.222   0.103 -0.3665 -1.5788  1.1794
 1647SOL    HW3 6321   4.527   3.098   0.132  1.2001 -1.3714 -1.8684
 1647SOL    MW4 6322   4.523   3.180   0.105  0.0587  0.3991 -0.5453
 1648SOL     OW 6323   2.140   2.735   5.535  0.1124  0.5387 -0.1048
 1648SOL    HW2 6324   2.159   2.747   5.628 -0.2062 -1.2849  0.2230
 1648SOL    HW3 6325   2.057   2.781   5.522  0.2675  0.9956  0.4547
 1648SOL    MW4 6326   2.131   2.743   5.546  0.4712  0.0086  0.2472
 1649SOL     OW 6327   3.800   0.635   4.761 -0.2031  0.1151  0.2563
 1649SOL    HW2 6328   3.819   0.644   4.854  1.3609 -0.6565  0.0457
 1649SOL    HW3 6329   3.763   0.547   4.753  1.5354 -0.6359 -0.0719
 1649SOL    MW4 6330   3.798   0.625   4.772  0.3850 -0.7158  0.9249
 1650SOL     OW 6331   3.373   1.337   4.066  0.4155 -0.2896  0.1493
 1650SOL    HW2 6332   3.320   1.292   4.132  0.7288 -0.5299  0.2388
 1650SOL    HW3 6333   3.424   1.401   4.116  1.7320 -1.4503  0.3570
 1650SOL    MW4 6334   3.373   1.340   4.082 -0.5490 -0.2079 -0.3609
 1651SOL     OW 6335   3.954   1.052   4.723  0.3791  0.7113  0.0494
 1651SOL    HW2 6336   3.884   0.993   4.696 -1.3719  3.4213 -1.9017
 1651SOL    HW3 6337   4.014   1.055   4.649  2.9116 -1.7528  1.7789
 1651SOL    MW4 6338   3.953   1.045   4.710  0.3062 -0.3742 -0.0707
 1652SOL     OW 6339   1.399   4.807   6.077  0.0981  0.0927 -0.5360
 1652SOL    HW2 6340   1.494   4.794   6.072  0.2257 -0.3448  1.7744
 1652SOL    HW3 6341   1.369   4.800   5.987  2.1910 -0.3398 -1.2570
 1652SOL    MW4 6342   1.407   4.805   6.065  0.1896  0.0250 -0.0261
 1653SOL     OW 6343   6.202   3.993   2.296  0.0677 -0.1304 -0.5368
 1653SOL    HW2 6344   6.269   4.061   2.302 -2.1136  2.5903 -3.1740
 1653SOL    HW3 6345   6.147   4.006   2.374 -1.8043  3.1850 -2.1766
 1653SOL    MW4 6346   6.203   4.004   2.307 -0.0147 -0.5242 -0.1445
 1654SOL     OW 6347   5.498   5.566   0.264 -0.2393 -0.2100 -0.3960
 1654SOL    HW2 6348   5.404   5.577   0.282 -0.3404  0.2671 -1.2040
 1654SOL    HW3 6349   5.506   5.476   0.233 -0.7264  0.3234 -2.1439
 1654SOL    MW4 6350   5.486   5.555   0.262  0.3336 -0.2062 -0.3966
 1655SOL     OW 6351   3.462   3.395   5.961 -0.0534 -0.5481  0.5068
 1655SOL    HW2 6352   3.522   3.392   5.887 -1.4097 -2.1456 -0.5981
 1655SOL    HW3 6353   3.515   3.429   6.033  0.9482  2.5338 -1.4643
 1655SOL    MW4 6354   3.477   3.399   5.961  0.0802  0.2965  0.1984
 1656SOL     OW 6355   1.230   0.805   2.773 -0.4467 -0.0456 -0.3513
 1656SOL    HW2 6356   1.184   0.855   2.840  1.0014 -0.6942  1.2194
 1656SOL    HW3 6357   1.250   0.721   2.814  1.4845 -0.0579 -1.1570
 1656SOL    MW4 6358   1.227   0.801   2.787 -0.5601 -0.0763  0.3436
 1657SOL     OW 6359   2.371   3.987   6.283  0.4727 -0.0978  0.2728
 1657SOL    HW2 6360   2.438   3.945   6.338 -0.9973 -1.1524  1.3280
 1657SOL    HW3 6361   2.408   3.985   6.195  1.5625 -1.2340  0.7244
 1657SOL    MW4 6362   2.385   3.981   6.279 -0.2845  0.4244  0.0213
 1658SOL     OW 6363   4.473   1.190   5.967  0.5590  0.0850 -0.2827
 1658SOL    HW2 6364   4.399   1.239   5.931  0.6468  1.2420  1.0454
 1658SOL    HW3 6365   4.441   1.100   5.972 -1.7694  0.8917  2.5563
 1658SOL    MW4 6366   4.459   1.184   5.963 -0.1498 -0.3938  0.3636
 1659SOL     OW 6367   2.104   5.319   0.645  0.2413  0.1149 -0.1777
 1659SOL    HW2 6368   2.077   5.399   0.600  2.4856  0.0842 -1.7102
 1659SOL    HW3 6369   2.197   5.310   0.626  0.6146 -1.5983  1.9701
 1659SOL    MW4 6370   2.113   5.329   0.637  0.6813 -0.0794 -0.1172
 1660SOL     OW 6371   1.761   5.630   4.134 -0.0183 -0.6169  0.3042
 1660SOL    HW2 6372   1.855   5.646   4.137  0.0453 -0.6182 -1.0094
 1660SOL    HW3 6373   1.734   5.663   4.048 -1.3199 -0.1119  0.8808
 1660SOL    MW4 6374   1.770   5.637   4.123  0.1872  0.1616 -0.6358
 1661SOL     OW 6375   3.482   3.147   2.010 -0.6324 -0.6354  0.1598
 1661SOL    HW2 6376   3.468   3.135   2.104 -0.8667 -2.0771 -0.0348
 1661SOL    HW3 6377   3.393   3.153   1.974 -0.5858 -1.5069 -0.1204
 1661SOL    MW4 6378   3.468   3.146   2.018 -0.1630  0.0412 -0.1017
 1662SOL     OW 6379   5.392   6.140   1.737 -0.4434 -0.0941  0.5261
 1662SOL    HW2 6380   5.298   6.157   1.725 -0.6599 -0.7562  1.2266
 1662SOL    HW3 6381   5.411   6.070   1.676  0.3457  2.1594 -2.0134
 1662SOL    MW4 6382   5.382   6.133   1.728 -0.0303 -0.2305  0.3869
 1663SOL     OW 6383   3.107   4.442   5.444  0.1105  0.0656 -0.0809
 1663SOL    HW2 6384   3.017   4.410   5.447  0.2493 -0.2613  0.8538
 1663SOL    HW3 6385   3.137   4.422   5.355 -0.5159 -0.4431 -0.1807
 1663SOL    MW4 6386   3.099   4.435   5.432  0.3227 -0.1449 -0.8329
 1664SOL     OW 6387   3.756   5.515   4.179  0.3025  0.4807 -0.1956
 1664SOL    HW2 6388   3.749   5.460   4.257 -0.3014  0.9447  0.0853
 1664SOL    HW3 6389   3.850   5.528   4.166  0.5074 -1.3737 -0.8096
 1664SOL    MW4 6390   3.767   5.510   4.187 -0.2205 -0.4495 -0.0198
 1665SOL     OW 6391   4.515   4.292   2.249  0.0287 -0.4150  0.5970
 1665SOL    HW2 6392   4.560   4.227   2.302  0.0065 -1.6457 -0.8153
 1665SOL    HW3 6393   4.489   4.245   2.170 -2.1819  0.7066  0.5774
 1665SOL    MW4 6394   4.518   4.278   2.245 -0.1396  0.3322 -0.0717
 1666SOL     OW 6395   0.439   1.798   5.603 -0.3640 -0.3447  0.0519
 1666SOL    HW2 6396   0.429   1.824   5.695 -2.1041 -0.8235  0.0480
 1666SOL    HW3 6397   0.357   1.825   5.562  0.1302 -0.7034 -1.2256
 1666SOL    MW4 6398   0.427   1.805   5.610 -0.6705 -0.4988 -0.4271
 1667SOL     OW 6399   3.153   1.756   3.600 -0.2104 -0.4362 -0.1903
 1667SOL    HW2 6400   3.167   1.843   3.562 -2.6770 -0.1224 -0.5268
 1667SOL    HW3 6401   3.066   1.731   3.570 -1.3123 -1.2244  3.2557
 1667SOL    MW4 6402   3.143   1.765   3.591 -0.2296  0.1030  0.2996
 1668SOL     OW 6403   2.179   0.400   5.003  0.5987 -1.2215  0.3993
 1668SOL    HW2 6404   2.146   0.470   5.059  2.1887 -1.1551  1.2953
 1668SOL    HW3 6405   2.201   0.443   4.921 -0.7535 -1.1363  0.0562
 1668SOL    MW4 6406   2.177   0.415   4.999  0.4082 -0.4737  0.2448
 1669SOL     OW 6407   3.554   3.951   1.488 -0.4020 -0.4471  0.0444
 1669SOL    HW2 6408   3.540   3.860   1.516 -1.4143 -0.1368  0.6061
 1669SOL    HW3 6409   3.557   4.001   1.569 -2.4663  0.3539 -0.3204
 1669SOL    MW4 6410   3.553   3.945   1.502 -0.4326 -0.6148 -0.1626
 1670SOL     OW 6411   0.173   3.623   3.038 -0.0197 -0.1479 -0.0066
 1670SOL    HW2 6412   0.092   3.655   3.077  1.1125  2.2093  0.5698
 1670SOL    HW3 6413   0.166   3.645   2.945  0.9236  2.3242  0.4547
 1670SOL    MW4 6414   0.161   3.630   3.031  0.4380 -0.3242  0.1008
 1671SOL     OW 6415   2.888   1.306   3.027  0.0204  0.3542 -0.3345
 1671SOL    HW2 6416   2.890   1.240   2.958 -1.9930 -0.8580  0.6538
 1671SOL    HW3 6417   2.816   1.364   3.003 -0.6712 -0.0523  0.6475
 1671SOL    MW4 6418   2.879   1.305   3.015 -0.1788  1.1812 -0.0576
 1672SOL     OW 6419   5.667   0.772   0.775  0.4218  0.0675  0.1420
 1672SOL    HW2 6420   5.655   0.682   0.803 -2.4611  0.5237  0.6209
 1672SOL    HW3 6421   5.733   0.807   0.834 -0.6407 -0.8967  1.9878
 1672SOL    MW4 6422   5.674   0.765   0.786 -0.6514  0.5136  1.0365
 1673SOL     OW 6423   5.901   1.208   2.934  0.0053  0.0246  0.1340
 1673SOL    HW2 6424   5.812   1.175   2.919  0.2945 -0.5045 -0.5007
 1673SOL    HW3 6425   5.912   1.206   3.028 -0.6469  0.0641  0.2192
 1673SOL    MW4 6426   5.890   1.204   2.944  0.2253  0.5750 -0.0992
 1674SOL     OW 6427   3.755   0.287   1.638  0.2566  0.0639 -0.5178
 1674SOL    HW2 6428   3.823   0.225   1.611 -0.3853 -0.9895  0.2099
 1674SOL    HW3 6429   3.717   0.317   1.556  0.6428 -0.4279 -0.8876
 1674SOL    MW4 6430   3.759   0.282   1.623 -0.0169  0.1569  0.0117
 1675SOL     OW 6431   2.299   4.894   1.276 -0.1146  0.2426  0.0598
 1675SOL    HW2 6432   2.210   4.926   1.293 -0.2334  0.0807 -0.2688
 1675SOL    HW3 6433   2.323   4.847   1.356  0.4255  1.9494  0.9582
 1675SOL    MW4 6434   2.290   4.892   1.289  0.6605 -0.1479  0.3677
 1676SOL     OW 6435   0.654   3.510   1.497 -0.2559 -0.0863 -0.4996
 1676SOL    HW2 6436   0.632   3.435   1.442  0.6759 -0.6336 -0.1327
 1676SOL    HW3 6437   0.689   3.575   1.436  1.4670 -0.9638 -0.5008
 1676SOL    MW4 6438   0.656   3.509   1.482 -0.1759  0.3123  0.1294
 1677SOL     OW 6439   1.305   3.762   2.120 -0.2005 -0.0676 -0.5986
 1677SOL    HW2 6440   1.306   3.783   2.213 -2.8317  2.1450 -0.9321
 1677SOL    HW3 6441   1.370   3.821   2.081  0.0864 -0.2013 -0.3285
 1677SOL    MW4 6442   1.314   3.773   2.127  0.2272 -0.3253 -0.2483
 1678SOL     OW 6443   1.644   4.117   4.070  0.1066  0.4433  0.2435
 1678SOL    HW2 6444   1.679   4.155   3.989 -0.5625 -1.3272 -0.9239
 1678SOL    HW3 6445   1.550   4.110   4.054  0.0433 -0.4594  0.9438
 1678SOL    MW4 6446   1.636   4.121   4.057  0.1671  0.0300  0.4106
 1679SOL     OW 6447   4.680   3.727   1.330 -0.4148  0.5135 -0.2340
 1679SOL    HW2 6448   4.610   3.733   1.394 -2.0813  0.1944 -1.9239
 1679SOL    HW3 6449   4.711   3.817   1.318  1.4433  0.3662  2.4832
 1679SOL    MW4 6450   4.675   3.739   1.337 -0.1303 -0.5095  0.1210
 1680SOL     OW 6451   3.247   4.838   2.996  0.1612  0.6097  0.2665
 1680SOL    HW2 6452   3.306   4.820   3.069 -0.8686  0.0566  0.9926
 1680SOL    HW3 6453   3.287   4.793   2.922 -1.2628 -3.2751  1.5779
 1680SOL    MW4 6454   3.260   4.830   2.996  0.3289  0.2131  0.0223
 1681SOL     OW 6455   1.948   2.875   4.641  0.1391  0.1971  0.0974
 1681SOL    HW2 6456   1.965   2.804   4.579 -0.1039  1.0108 -0.9469
 1681SOL    HW3 6457   2.027   2.929   4.638  0.1855  0.1607  0.6145
 1681SOL    MW4 6458   1.960   2.873   4.632 -0.3522  0.1537 -0.3467
 1682SOL     OW 6459   4.406   4.914   1.449  0.2424  0.5566  0.0144
 1682SOL    HW2 6460   4.392   5.008   1.459  0.1146  0.6467 -0.8691
 1682SOL    HW3 6461   4.496   4.906   1.418 -0.7120  0.6878 -3.1975
 1682SOL    MW4 6462   4.416   4.925   1.446  0.1692  0.3376 -0.2717
 1683SOL     OW 6463   1.237   3.532   2.841 -0.0728 -0.3742 -0.3240
 1683SOL    HW2 6464   1.299   3.562   2.774 -1.5435  0.6227 -1.2918
 1683SOL    HW3 6465   1.230   3.605   2.902  0.9270 -1.1154  0.7178
 1683SOL    MW4 6466   1.244   3.545   2.840  0.1971  0.5181 -0.0319
 1684SOL     OW 6467   2.201   1.115   3.621  0.3645 -0.0229  0.0370
 1684SOL    HW2 6468   2.120   1.078   3.657 -0.2902 -0.5862 -1.8918
 1684SOL    HW3 6469   2.201   1.206   3.650 -0.3687 -0.3187  1.0197
 1684SOL    MW4 6470   2.190   1.122   3.630 -0.7975  0.2871 -0.7385
 1685SOL     OW 6471   3.702   1.983   2.731 -0.7100 -0.6907  0.3426
 1685SOL    HW2 6472   3.758   1.936   2.669  1.4387  1.6385  0.3584
 1685SOL    HW3 6473   3.617   1.987   2.688  0.5264  0.2623 -2.2417
 1685SOL    MW4 6474   3.698   1.978   2.718 -0.5073  0.3246 -0.4277
 1686SOL     OW 6475   6.180   3.235   2.196  0.5155 -0.2528  0.2102
 1686SOL    HW2 6476   6.161   3.264   2.107 -0.0476 -1.3147 -0.0300
 1686SOL    HW3 6477   6.195   3.316   2.245  1.9059  0.3216 -1.0673
 1686SOL    MW4 6478   6.180   3.249   2.191 -0.3755 -0.0483 -0.3403
 1687SOL     OW 6479   3.928   5.031   2.727  0.4839  0.0877  0.3817
 1687SOL    HW2 6480   3.937   5.083   2.647  2.5499 -0.1062  0.4452
 1687SOL    HW3 6481   3.936   5.094   2.798  2.0246 -0.1478  0.4460
 1687SOL    MW4 6482   3.930   5.046   2.726 -0.4585 -0.2182  0.1165
 1688SOL     OW 6483   5.149   3.178   5.457 -0.5422 -0.1523 -0.2332
 1688SOL    HW2 6484   5.078   3.223   5.411  0.0360  0.9344 -0.0948
 1688SOL    HW3 6485   5.110   3.151   5.540 -2.2133 -3.9501 -2.0321
 1688SOL    MW4 6486   5.135   3.181   5.462  0.2578 -0.4104  0.0275
 1689SOL     OW 6487   1.870   4.231   0.321 -0.2491  0.0622  0.0075
 1689SOL    HW2 6488   1.858   4.175   0.244  0.1170 -0.4974  0.3495
 1689SOL    HW3 6489   1.781   4.242   0.355 -0.4703  0.6736 -0.7345
 1689SOL    MW4 6490   1.856   4.225   0.315 -0.1117  0.4456 -0.1308
 1690SOL     OW 6491   3.986   3.647   2.294 -0.5187  0.4695  0.0778
 1690SOL    HW2 6492   4.068   3.661   2.341  0.6800 -1.2946 -1.3601
 1690SOL    HW3 6493   3.934   3.592   2.353  0.0899  0.0585  0.2395
 1690SOL    MW4 6494   3.990   3.641   2.308  0.7369 -0.7879  0.3595
 1691SOL     OW 6495   0.629   0.602   4.289  0.3970  0.6851  0.3184
 1691SOL    HW2 6496   0.707   0.583   4.237 -0.8794  2.2042 -2.3241
 1691SOL    HW3 6497   0.559   0.553   4.246 -0.3200 -0.0418  2.1974
 1691SOL    MW4 6498   0.630   0.593   4.277 -0.0054 -0.8337 -0.1692
 1692SOL     OW 6499   5.791   3.065   1.738 -0.3148  0.4515  0.2168
 1692SOL    HW2 6500   5.796   3.063   1.833  0.7825  1.2045  0.1940
 1692SOL    HW3 6501   5.851   3.136   1.712 -0.0929 -0.1728 -1.0671
 1692SOL    MW4 6502   5.799   3.074   1.747  0.3094 -0.2212  0.3298
 1693SOL     OW 6503   2.553   1.261   6.322  0.0749  0.5476 -0.5220
 1693SOL    HW2 6504   2.632   1.212   6.297  0.1293  0.3507  0.0192
 1693SOL    HW3 6505   2.549   1.332   6.259  0.5965  0.4590 -0.6660
 1693SOL    MW4 6506   2.563   1.264   6.311 -0.0472  0.3447  0.6242
 1694SOL     OW 6507   1.343   1.160   4.364  0.5522  0.2759  0.4731
 1694SOL    HW2 6508   1.372   1.239   4.410  1.6960 -0.9403  1.9644
 1694SOL    HW3 6509   1.273   1.124   4.418 -0.0320  0.3118 -0.2472
 1694SOL    MW4 6510   1.338   1.166   4.377 -0.3749 -0.2906 -0.8873
 1695SOL     OW 6511   2.576   4.136   3.182 -0.0138 -0.0939  0.2902
 1695SOL    HW2 6512   2.640   4.080   3.137  0.3843  1.0094 -0.5872
 1695SOL    HW3 6513   2.628   4.189   3.242 -0.2069  0.2037  0.2001
 1695SOL    MW4 6514   2.591   4.136   3.184 -0.1411  0.5510  0.4302
 1696SOL     OW 6515   2.548   4.978   0.994 -0.0765  0.4141  0.3376
 1696SOL    HW2 6516   2.495   4.899   0.989 -1.1014  0.9691  1.8643
 1696SOL    HW3 6517   2.570   4.987   1.086  0.2987  1.7254  0.1445
 1696SOL    MW4 6518   2.544   4.969   1.005 -0.1626 -0.1959 -0.1881
 1697SOL     OW 6519   5.143   5.001   5.607  0.2781 -0.0815 -0.0918
 1697SOL    HW2 6520   5.141   4.914   5.645 -0.6762 -0.8647 -1.8104
 1697SOL    HW3 6521   5.130   5.060   5.681 -2.1332 -1.5547  0.7763
 1697SOL    MW4 6522   5.141   4.998   5.621 -0.0354 -0.5777 -0.0625
 1698SOL     OW 6523   4.018   1.256   1.335 -0.2275 -0.9534 -0.2359
 1698SOL    HW2 6524   4.084   1.318   1.365 -2.0912  1.3118 -0.5500
 1698SOL    HW3 6525   4.051   1.224   1.251  0.6178 -0.1162 -0.2330
 1698SOL    MW4 6526   4.031   1.260   1.328 -0.7485 -0.2603  0.5530
 1699SOL     OW 6527   3.296   5.293   4.155  0.7198  0.2671 -0.3456
 1699SOL    HW2 6528   3.318   5.386   4.146  1.0093  0.2897  0.4910
 1699SOL    HW3 6529   3.245   5.289   4.235 -0.8074 -0.0581 -1.3023
 1699SOL    MW4 6530   3.292   5.305   4.164 -0.0715  0.1604  0.1855
 1700SOL     OW 6531   2.016   4.510   2.851  0.0262  0.8758 -0.4551
 1700SOL    HW2 6532   2.002   4.548   2.764  1.1942 -1.8415 -1.9472
 1700SOL    HW3 6533   2.105   4.538   2.875 -0.1787  1.3669 -0.2491
 1700SOL    MW4 6534   2.026   4.519   2.843  0.3965 -0.5773 -0.8358
 1701SOL     OW 6535   0.260   4.793   6.267  0.5289  0.8308 -0.3856
 1701SOL    HW2 6536   0.323   4.729   6.297 -1.1562 -0.5927  0.2692
 1701SOL    HW3 6537   0.255   4.857   6.338  0.2320  0.1868  0.1874
 1701SOL    MW4 6538   0.268   4.793   6.280 -0.7029  0.0779 -0.4831
 1702SOL     OW 6539   2.383   5.185   2.880  0.1058  0.2671  0.0726
 1702SOL    HW2 6540   2.312   5.132   2.842 -0.6095  0.7289  0.7273
 1702SOL    HW3 6541   2.418   5.130   2.950  0.4065  0.0315 -0.2617
 1702SOL    MW4 6542   2.378   5.171   2.884  0.1077 -0.0882 -0.0030
 1703SOL     OW 6543   4.393   1.685   5.616 -0.2247  0.8384 -0.2345
 1703SOL    HW2 6544   4.349   1.615   5.567 -1.3233  0.7832  0.7731
 1703SOL    HW3 6545   4.321   1.739   5.649  0.5879  2.2047 -0.6261
 1703SOL    MW4 6546   4.377   1.683   5.614  0.0180 -0.2900  0.2385
 1704SOL     OW 6547   0.657   2.730   1.428  0.5985 -0.6131 -0.1771
 1704SOL    HW2 6548   0.714   2.806   1.440 -0.3857  0.2140 -0.6190
 1704SOL    HW3 6549   0.717   2.657   1.411  1.5570  0.0472  0.2823
 1704SOL    MW4 6550   0.673   2.730   1.428 -0.1035 -0.2303 -0.1227
 1705SOL     OW 6551   5.244   4.574   1.477 -0.3593 -0.0038 -0.3477
 1705SOL    HW2 6552   5.333   4.548   1.500 -1.2703 -3.0140  0.1664
 1705SOL    HW3 6553   5.207   4.608   1.559 -0.4032 -0.9998  0.0550
 1705SOL    MW4 6554   5.251   4.575   1.491 -0.3569  0.1021 -0.0667
 1706SOL     OW 6555   5.403   4.826   3.438 -0.6342 -0.3356  0.0645
 1706SOL    HW2 6556   5.325   4.873   3.408 -0.2624  1.5723  1.8535
 1706SOL    HW3 6557   5.372   4.773   3.511 -0.2770  0.4967  0.8374
 1706SOL    MW4 6558   5.389   4.825   3.444 -0.6910  0.5986  0.7518
 1707SOL     OW 6559   3.160   2.935   3.319 -0.0977  0.2881  0.5940
 1707SOL    HW2 6560   3.074   2.958   3.355  0.4262  0.5856  1.6901
 1707SOL    HW3 6561   3.209   2.902   3.394  0.9065  0.5748  0.0768
 1707SOL    MW4 6562   3.155   2.934   3.334 -0.2427  0.6106  0.4252
 1708SOL     OW 6563   3.454   5.352   0.578 -0.1266  0.2201  0.1368
 1708SOL    HW2 6564   3.358   5.351   0.574 -0.1257 -0.7470  0.1885
 1708SOL    HW3 6565   3.478   5.435   0.536 -0.9535  0.0889 -0.6526
 1708SOL    MW4 6566   3.444   5.363   0.572 -0.4041 -0.1563  0.0544
 1709SOL     OW 6567   4.466   1.885   2.464 -0.5063 -0.3057 -0.7122
 1709SOL    HW2 6568   4.474   1.798   2.426 -0.8189 -0.1438 -1.1736
 1709SOL    HW3 6569   4.555   1.920   2.465  0.2957 -1.9940  2.9500
 1709SOL    MW4 6570   4.479   1.878   2.459 -0.4927 -0.3095  0.1565
 1710SOL     OW 6571   3.919   0.289   2.215  0.3875 -0.4944  0.0483
 1710SOL    HW2 6572   3.853   0.228   2.249  1.0181 -1.6319 -0.6977
 1710SOL    HW3 6573   3.869   0.367   2.191 -0.5464 -0.9766  0.3711
 1710SOL    MW4 6574   3.904   0.291   2.216 -0.2779 -0.0290  0.2643
 1711SOL     OW 6575   1.131   1.383   4.520 -0.0560 -0.2356 -0.2807
 1711SOL    HW2 6576   1.164   1.431   4.596 -0.0281 -0.2138 -0.3064
 1711SOL    HW3 6577   1.066   1.323   4.556 -1.8442  1.4344 -0.5120
 1711SOL    MW4 6578   1.127   1.382   4.535 -0.4678  0.0881  0.5677
 1712SOL     OW 6579   0.406   2.680   6.286  0.3474 -0.0027 -0.3572
 1712SOL    HW2 6580   0.424   2.770   6.258 -1.7933  0.1107 -1.6202
 1712SOL    HW3 6581   0.470   2.627   6.237  0.9138  0.7390 -0.4434
 1712SOL    MW4 6582   0.417   2.685   6.276 -0.0617 -0.0908 -0.0613
 1713SOL     OW 6583   0.982   4.792   6.229  0.4722 -0.3694  0.3633
 1713SOL    HW2 6584   1.018   4.867   6.181 -0.5192  1.3834  2.1918
 1713SOL    HW3 6585   0.901   4.770   6.183  0.4005  0.1767  0.2178
 1713SOL    MW4 6586   0.976   4.799   6.217 -0.1962  0.1776  0.0186
 1714SOL     OW 6587   5.690   4.969   5.948 -0.4904  0.5554  0.1285
 1714SOL    HW2 6588   5.695   4.976   6.044 -0.1961 -0.7743  0.2216
 1714SOL    HW3 6589   5.648   4.885   5.932 -0.9002  0.9406 -0.9291
 1714SOL    MW4 6590   5.685   4.959   5.959 -0.5557  0.3885  0.4440
 1715SOL     OW 6591   1.813   2.220   4.957 -0.4140 -0.0509  0.0142
 1715SOL    HW2 6592   1.746   2.284   4.931  0.2635  0.8544  0.4592
 1715SOL    HW3 6593   1.846   2.185   4.875 -0.1604  0.8433 -0.2747
 1715SOL    MW4 6594   1.808   2.223   4.943 -0.0127 -0.6856  0.0563
 1716SOL     OW 6595   0.469   0.668   1.832  0.2371  0.0815 -0.2918
 1716SOL    HW2 6596   0.544   0.610   1.824  1.0071  1.0625 -0.3812
 1716SOL    HW3 6597   0.452   0.698   1.743  0.0419  0.2230 -0.2090
 1716SOL    MW4 6598   0.477   0.665   1.819 -0.1838  0.3093 -0.1911
 1717SOL     OW 6599   4.297   1.639   0.230 -0.3041  0.0841 -0.3693
 1717SOL    HW2 6600   4.382   1.614   0.268 -1.3500 -1.2363  1.2475
 1717SOL    HW3 6601   4.254   1.555   0.212 -1.1003  0.7357 -1.5904
 1717SOL    MW4 6602   4.303   1.624   0.233  0.0942 -0.5338  0.3634
 1718SOL     OW 6603   0.854   6.195   4.401  0.1327 -0.3848 -0.1383
 1718SOL    HW2 6604   0.829   6.122   4.457 -0.3298  0.6164  1.0020
 1718SOL    HW3 6605   0.775   6.250   4.396  0.6778  0.3973 -0.3907
 1718SOL    MW4 6606   0.840   6.193   4.408  0.3872 -0.5620  0.3491
 1719SOL     OW 6607   5.789   2.770   2.374 -0.4066 -0.2675  0.6323
 1719SOL    HW2 6608   5.813   2.859   2.400 -1.1505  0.2804 -0.4690
 1719SOL    HW3 6609   5.693   2.771   2.375 -0.4162 -1.1484  0.8776
 1719SOL    MW4 6610   5.779   2.782   2.377 -0.0918  0.1983  0.3248
 1720SOL     OW 6611   5.049   5.467   4.290  0.2724  0.1804  0.1432
 1720SOL    HW2 6612   5.135   5.429   4.306  0.1302 -0.4908 -0.6278
 1720SOL    HW3 6613   4.987   5.399   4.317 -0.0054  0.3540 -0.0471
 1720SOL    MW4 6614   5.052   5.453   4.296 -0.5400  0.7981  0.3074
 1721SOL     OW 6615   4.794   5.327   5.933 -0.1454  0.8218  1.1644
 1721SOL    HW2 6616   4.753   5.242   5.945 -1.8445  1.3978 -0.0873
 1721SOL    HW3 6617   4.744   5.386   5.989  0.3231  1.1821  1.2091
 1721SOL    MW4 6618   4.782   5.324   5.942 -0.1865  0.0321  0.4316
 1722SOL     OW 6619   4.995   0.005   2.500  0.0436 -0.1955  0.4282
 1722SOL    HW2 6620   5.014  -0.008   2.593  1.4829  1.9794  0.5034
 1722SOL    HW3 6621   4.905   0.039   2.499 -0.5736 -1.6940  0.8416
 1722SOL    MW4 6622   4.986   0.008   2.513  0.3776  0.2423 -0.3130
 1723SOL     OW 6623   4.048   2.332   5.536  0.2336  0.5607  0.2044
 1723SOL    HW2 6624   4.140   2.353   5.555  0.5029  1.1735 -1.5691
 1723SOL    HW3 6625   4.017   2.407   5.486 -0.8877 -0.2000 -0.2680
 1723SOL    MW4 6626   4.056   2.345   5.532  0.3687 -0.4645 -0.0344
 1724SOL     OW 6627   5.800   3.120   4.900 -0.3308  0.5788  0.3474
 1724SOL    HW2 6628   5.711   3.144   4.926 -2.0770 -2.2957 -2.3248
 1724SOL    HW3 6629   5.828   3.057   4.967 -0.0734  1.7975  1.4239
 1724SOL    MW4 6630   5.792   3.115   4.913 -0.2685 -0.1027 -0.3758
 1725SOL     OW 6631   1.417   0.062   1.467  0.6210  0.2208  0.4925
 1725SOL    HW2 6632   1.434   0.132   1.530  0.2825  0.5115  0.2709
 1725SOL    HW3 6633   1.392   0.109   1.387  1.1703 -0.1389  0.1070
 1725SOL    MW4 6634   1.416   0.078   1.465 -0.9135 -0.2803 -0.4692
 1726SOL     OW 6635   4.225   0.961   1.176  0.2974 -0.8276  0.5328
 1726SOL    HW2 6636   4.152   1.016   1.149  0.3703 -1.3917 -0.8785
 1726SOL    HW3 6637   4.187   0.898   1.237 -0.4677 -1.3093 -0.4249
 1726SOL    MW4 6638   4.211   0.960   1.181  0.1978 -0.5700  0.1013
 1727SOL     OW 6639   3.678   4.754   5.299  0.0956  0.0059  0.5009
 1727SOL    HW2 6640   3.585   4.760   5.320  0.2203  1.5436  0.7312
 1727SOL    HW3 6641   3.716   4.704   5.371 -0.7381 -1.9165 -0.3182
 1727SOL    MW4 6642   3.671   4.748   5.311  0.1930  0.2857 -0.6673
 1728SOL     OW 6643   1.598   0.316   6.047 -0.1841  0.6895 -0.3422
 1728SOL    HW2 6644   1.673   0.376   6.049 -0.2328  0.7527 -0.4121
 1728SOL    HW3 6645   1.626   0.245   5.989 -1.0435  1.8692 -2.3219
 1728SOL    MW4 6646   1.612   0.314   6.039  0.0610  0.1118  0.3202
 1729SOL     OW 6647   0.759   3.403   1.005 -0.1589 -0.0005  0.0373
 1729SOL    HW2 6648   0.745   3.365   1.092 -2.0980  0.8340  0.1439
 1729SOL    HW3 6649   0.809   3.336   0.958  0.4433 -0.7136  1.5955
 1729SOL    MW4 6650   0.764   3.389   1.011 -0.2189 -0.3333 -0.6744
 1730SOL     OW 6651   3.001   1.224   5.417 -0.5888  0.7309  0.3618
 1730SOL    HW2 6652   3.024   1.289   5.351 -0.8659  0.4267 -0.0441
 1730SOL    HW3 6653   3.041   1.255   5.498 -0.5289  1.2816  0.1204
 1730SOL    MW4 6654   3.009   1.236   5.419 -0.1605 -0.1456 -0.0195
 1731SOL     OW 6655   0.758   0.286   5.147 -0.4543 -0.0916 -0.0266
 1731SOL    HW2 6656   0.736   0.210   5.201 -0.8328  0.4240  0.5571
 1731SOL    HW3 6657   0.692   0.351   5.170 -0.5717  0.1696 -1.0544
 1731SOL    MW4 6658   0.746   0.284   5.157  0.0329  0.4711  0.1226
 1732SOL     OW 6659   3.524   4.869   6.205  0.2823 -0.2478 -0.0003
 1732SOL    HW2 6660   3.525   4.848   6.299 -1.9620 -0.7602 -0.0276
 1732SOL    HW3 6661   3.584   4.806   6.166  3.0149  1.4014  1.2748
 1732SOL    MW4 6662   3.532   4.858   6.212 -0.7073  0.2531  0.0457
 1733SOL     OW 6663   5.520   5.428   2.869 -0.4521  0.0281 -0.1589
 1733SOL    HW2 6664   5.457   5.477   2.816  0.6390  0.5318 -1.0354
 1733SOL    HW3 6665   5.524   5.477   2.952 -1.8408 -0.5195  0.2650
 1733SOL    MW4 6666   5.512   5.441   2.873  0.0447  0.1851  0.6047
 1734SOL     OW 6667   0.968   2.441   5.069  0.5161 -0.1442  1.0567
 1734SOL    HW2 6668   0.939   2.415   5.156 -0.1439  2.1303  1.5800
 1734SOL    HW3 6669   0.939   2.531   5.060  0.2854 -0.4091 -1.6715
 1734SOL    MW4 6670   0.961   2.449   5.079  0.3403  0.1382 -0.1018
 1735SOL     OW 6671   6.336   3.930   2.850  0.6995  0.8199 -0.2699
 1735SOL    HW2 6672   6.267   3.900   2.792  0.7173 -0.0595  0.1466
 1735SOL    HW3 6673   6.291   3.973   2.922  0.5653  0.1616  0.0501
 1735SOL    MW4 6674   6.321   3.932   2.852  0.5646 -0.1612 -0.0707
 1736SOL     OW 6675   1.930   4.954   6.143 -0.0032  0.4537 -0.1018
 1736SOL    HW2 6676   1.970   4.911   6.067  1.2442  0.6895  0.4020
 1736SOL    HW3 6677   1.917   5.044   6.115 -2.6865 -0.1760 -1.1846
 1736SOL    MW4 6678   1.934   4.960   6.129  0.7222  0.1119 -0.8824
 1737SOL     OW 6679   0.272   2.574   5.983  0.2599  0.4609  0.5104
 1737SOL    HW2 6680   0.350   2.622   5.955  0.9829 -0.4063  0.9965
 1737SOL    HW3 6681   0.304   2.488   6.009 -0.8226  0.1926  1.0289
 1737SOL    MW4 6682   0.286   2.569   5.983  0.0744  0.0409  0.2655
 1738SOL     OW 6683   6.279   1.679   2.512  0.3854 -0.0529  0.3912
 1738SOL    HW2 6684   6.329   1.759   2.493 -0.3776  0.6564  1.2900
 1738SOL    HW3 6685   6.346   1.616   2.542  1.1809 -0.2298 -1.5918
 1738SOL    MW4 6686   6.295   1.681   2.513 -0.0795  0.0528 -0.3076
 1739SOL     OW 6687   3.471   2.751   5.958 -0.0950  0.0850 -0.0169
 1739SOL    HW2 6688   3.408   2.770   5.889 -0.4747  0.6105  0.4671
 1739SOL    HW3 6689   3.509   2.666   5.933  0.7650  0.8700 -1.5812
 1739SOL    MW4 6690   3.468   2.742   5.946 -0.0244 -0.9739 -0.2347
 1740SOL     OW 6691   2.742   3.758   4.918  0.4158 -0.3082  0.1935
 1740SOL    HW2 6692   2.654   3.721   4.925 -0.7714  2.1385 -0.5482
 1740SOL    HW3 6693   2.769   3.737   4.828  1.0667 -1.9394  0.7396
 1740SOL    MW4 6694   2.734   3.750   4.907 -0.1439  0.6860 -0.3941
 1741SOL     OW 6695   1.004   3.583   5.408  0.0767 -0.0903  0.3851
 1741SOL    HW2 6696   0.944   3.630   5.350  0.9780  1.3831  0.6168
 1741SOL    HW3 6697   1.092   3.612   5.381  0.6020 -0.7560  1.3102
 1741SOL    MW4 6698   1.008   3.593   5.397  0.0706 -0.3411 -0.8778
 1742SOL     OW 6699   5.768   4.065   0.805  0.3448 -0.1168  0.2911
 1742SOL    HW2 6700   5.698   4.126   0.785 -0.0307 -0.4623  0.5288
 1742SOL    HW3 6701   5.814   4.053   0.721  1.2917  1.5385  0.5234
 1742SOL    MW4 6702   5.765   4.071   0.791  0.1234  0.2883 -0.5249
 1743SOL     OW 6703   3.456   2.372   2.692  0.5624 -0.0611  0.2659
 1743SOL    HW2 6704   3.377   2.329   2.662  0.3842  1.0198 -0.8814
 1743SOL    HW3 6705   3.434   2.406   2.779  0.3610 -1.2759  0.7102
 1743SOL    MW4 6706   3.443   2.371   2.699  0.2840 -0.1550 -0.5346
 1744SOL     OW 6707   4.634   2.720   6.312  0.7652 -0.2597  0.2073
 1744SOL    HW2 6708   4.613   2.679   6.228  1.0315  0.4773 -0.2334
 1744SOL    HW3 6709   4.729   2.728   6.312  0.8101 -0.7330  0.8157
 1744SOL    MW4 6710   4.644   2.716   6.301  0.5330 -0.7467  0.7804
 1745SOL     OW 6711   1.517   0.079   4.630  0.4138  0.1227  0.1476
 1745SOL    HW2 6712   1.442   0.098   4.685  0.1490  0.7456 -0.4040
 1745SOL    HW3 6713   1.533  -0.014   4.641 -0.1157  0.0918  0.6729
 1745SOL    MW4 6714   1.509   0.069   4.639 -0.0057 -0.2021 -0.1928
 1746SOL     OW 6715   5.389   5.399   2.030  0.1197  0.2330  0.1104
 1746SOL    HW2 6716   5.408   5.437   1.944 -0.1573 -0.7014 -0.3831
 1746SOL    HW3 6717   5.365   5.473   2.085 -0.2350  0.7880 -0.7703
 1746SOL    MW4 6718   5.389   5.413   2.026 -0.2832  0.7125 -0.5685
 1747SOL     OW 6719   3.909   2.176   3.783  0.0459  0.5470  0.0534
 1747SOL    HW2 6720   3.978   2.129   3.737  0.2656  1.0260 -0.1115
 1747SOL    HW3 6721   3.899   2.258   3.734 -0.6614  0.4662  0.0570
 1747SOL    MW4 6722   3.917   2.181   3.771 -0.2358  0.1379  0.2204
 1748SOL     OW 6723   0.715   1.275   0.239  0.0107 -0.0539 -0.0039
 1748SOL    HW2 6724   0.733   1.354   0.290 -1.4803 -0.0358  0.5157
 1748SOL    HW3 6725   0.727   1.203   0.301  1.5337 -0.2889 -0.5175
 1748SOL    MW4 6726   0.719   1.276   0.253 -0.0383 -0.0716  0.0947
 1749SOL     OW 6727   6.064   0.596   5.526 -0.4682  0.3545 -0.3306
 1749SOL    HW2 6728   5.992   0.572   5.584  0.0626  1.7654  0.9927
 1749SOL    HW3 6729   6.115   0.660   5.577  1.6370 -0.4814 -1.2759
 1749SOL    MW4 6730   6.062   0.601   5.541  0.6204  0.0256  0.0541
 1750SOL     OW 6731   0.595   0.440   1.491 -0.2048 -0.0477  0.0598
 1750SOL    HW2 6732   0.548   0.389   1.557 -0.9815  1.0548  0.3789
 1750SOL    HW3 6733   0.609   0.526   1.532 -1.2915  0.8841 -1.4222
 1750SOL    MW4 6734   0.590   0.445   1.505 -0.1634 -0.1746 -0.6533
 1751SOL     OW 6735   0.919   2.899   5.182 -0.5613 -0.3953 -0.4894
 1751SOL    HW2 6736   1.013   2.881   5.178 -0.9800 -2.8965 -4.0725
 1751SOL    HW3 6737   0.882   2.827   5.232 -0.5936  1.1701  1.8880
 1751SOL    MW4 6738   0.926   2.887   5.188  0.3786  0.0646 -0.0988
 1752SOL     OW 6739   2.388   1.843   3.432 -0.2816  0.0647 -0.1631
 1752SOL    HW2 6740   2.435   1.832   3.350 -0.6800  0.3239 -0.4296
 1752SOL    HW3 6741   2.441   1.797   3.497 -0.0147 -0.2181 -0.5813
 1752SOL    MW4 6742   2.401   1.835   3.430 -0.0381  0.0508  0.6630
 1753SOL     OW 6743   4.505   0.294   4.775 -0.1038 -0.5636 -0.2006
 1753SOL    HW2 6744   4.553   0.376   4.766 -2.8335  1.2966  0.9652
 1753SOL    HW3 6745   4.464   0.280   4.689  0.6004 -0.9061 -0.4895
 1753SOL    MW4 6746   4.506   0.303   4.762  0.0679  0.2328  0.2081
 1754SOL     OW 6747   3.584   3.978   5.174  0.0599  0.0199  0.1713
 1754SOL    HW2 6748   3.500   3.934   5.161 -0.5242  1.3770 -0.8843
 1754SOL    HW3 6749   3.589   3.993   5.269  0.3428 -2.3346  0.5882
 1754SOL    MW4 6750   3.574   3.974   5.185  0.2543  0.0753  0.4509
 1755SOL     OW 6751   1.358   0.628   0.819 -0.0929  0.2337 -0.6689
 1755SOL    HW2 6752   1.291   0.688   0.787 -0.6417 -0.1454 -0.2564
 1755SOL    HW3 6753   1.328   0.541   0.792  0.6971  0.1426 -1.2647
 1755SOL    MW4 6754   1.345   0.625   0.811  0.1185  0.3189  0.7953
 1756SOL     OW 6755   2.187   2.078   1.100 -0.5130  0.6021 -0.0131
 1756SOL    HW2 6756   2.173   2.079   1.006 -0.7196 -0.5250 -0.0136
 1756SOL    HW3 6757   2.224   2.164   1.120  1.5798  0.1217 -1.4366
 1756SOL    MW4 6758   2.190   2.090   1.090 -0.1686  0.1394 -0.0177
 1757SOL     OW 6759   5.391   3.483   2.479 -0.3011 -1.0663  0.1300
 1757SOL    HW2 6760   5.370   3.567   2.520  0.6358 -0.8372  0.1570
 1757SOL    HW3 6761   5.338   3.482   2.399 -1.4780 -1.1379  0.8755
 1757SOL    MW4 6762   5.381   3.494   2.474 -0.3036  0.6119  0.5195
 1758SOL     OW 6763   6.231   5.357   2.763 -0.7891 -0.0780 -0.5415
 1758SOL    HW2 6764   6.274   5.426   2.812 -0.4027 -0.8189  0.1840
 1758SOL    HW3 6765   6.268   5.363   2.675  0.8713 -0.7414  0.0783
 1758SOL    MW4 6766   6.241   5.367   2.758  0.7384  0.6868 -0.2910
 1759SOL     OW 6767   3.448   4.467   4.728  0.2046 -0.2273 -0.0249
 1759SOL    HW2 6768   3.494   4.455   4.645  0.4288  1.3785 -0.1527
 1759SOL    HW3 6769   3.379   4.530   4.709  0.8808  0.9373  1.2088
 1759SOL    MW4 6770   3.445   4.474   4.715 -0.1269 -0.6925  0.4306
 1760SOL     OW 6771   5.923   0.190   5.879 -0.1144  0.5971 -0.1823
 1760SOL    HW2 6772   6.002   0.224   5.922  0.5673 -1.0859 -0.0167
 1760SOL    HW3 6773   5.934   0.095   5.882 -1.2631  0.3809 -1.8456
 1760SOL    MW4 6774   5.935   0.182   5.885  0.6374 -0.0297  0.6437
 1761SOL     OW 6775   0.966   0.314   2.241  0.2192  0.4525  0.2267
 1761SOL    HW2 6776   1.051   0.322   2.196  0.6847 -0.5198  0.9100
 1761SOL    HW3 6777   0.988   0.283   2.329 -0.8885 -0.5361  0.1810
 1761SOL    MW4 6778   0.980   0.311   2.246  0.3448 -0.0443  0.5758
 1762SOL     OW 6779   5.095   0.977   1.448  0.0646  0.8460 -0.2227
 1762SOL    HW2 6780   5.069   1.066   1.424  0.7719  0.7178 -1.5897
 1762SOL    HW3 6781   5.187   0.985   1.472 -0.4531  0.8444  1.9444
 1762SOL    MW4 6782   5.104   0.990   1.448  0.0307  0.3573 -0.1694
 1763SOL     OW 6783   3.208   3.166   0.857  0.0775  0.3997  0.1470
 1763SOL    HW2 6784   3.295   3.183   0.821  0.4259  1.9265  1.6037
 1763SOL    HW3 6785   3.222   3.107   0.930  0.0504  1.4435  1.0210
 1763SOL    MW4 6786   3.221   3.161   0.862  0.1259 -0.4549 -0.0402
 1764SOL     OW 6787   3.233   3.542   5.346  0.0963  0.5307  0.5061
 1764SOL    HW2 6788   3.207   3.461   5.302  0.3255  0.9767 -0.4731
 1764SOL    HW3 6789   3.327   3.549   5.330 -0.3557  2.4205 -1.9168
 1764SOL    MW4 6790   3.242   3.532   5.338  0.8868 -0.3284  0.0129
 1765SOL     OW 6791   5.030   3.331   2.019 -0.7045  0.2768 -0.1582
 1765SOL    HW2 6792   5.033   3.349   2.113  0.8103 -0.2726 -0.0658
 1765SOL    HW3 6793   4.983   3.247   2.013  1.3106 -0.9647  0.3823
 1765SOL    MW4 6794   5.024   3.322   2.031 -0.1669  0.2470 -0.0760
 1766SOL     OW 6795   0.347   1.869   4.485 -0.1156  0.3521  0.4340
 1766SOL    HW2 6796   0.360   1.803   4.553 -0.5909  0.6165  0.7934
 1766SOL    HW3 6797   0.317   1.820   4.409  0.4847  0.0451  0.3904
 1766SOL    MW4 6798   0.345   1.854   4.484 -0.5199 -0.0930 -0.5455
 1767SOL     OW 6799   1.533   5.477   0.276  0.0585 -0.4872 -0.1572
 1767SOL    HW2 6800   1.475   5.515   0.210  1.1329 -3.6291 -3.2419
 1767SOL    HW3 6801   1.621   5.487   0.239  0.8063 -1.5284  1.2564
 1767SOL    MW4 6802   1.537   5.483   0.262  0.0774  0.1319 -0.2454
 1768SOL     OW 6803   3.546   4.501   3.262 -0.6685  0.0401 -0.3402
 1768SOL    HW2 6804   3.560   4.508   3.167 -0.9194 -0.9919 -0.4705
 1768SOL    HW3 6805   3.454   4.522   3.274 -0.5473  0.5555 -0.2652
 1768SOL    MW4 6806   3.536   4.505   3.251  0.1710 -0.0283  0.1234
 1769SOL     OW 6807   5.915   4.950   4.125 -0.1705 -0.4207  0.2421
 1769SOL    HW2 6808   5.964   5.032   4.118 -0.7644  0.0340  1.2539
 1769SOL    HW3 6809   5.887   4.931   4.036  1.6136 -0.5617 -0.3370
 1769SOL    MW4 6810   5.918   4.958   4.112  0.3780 -0.0066  0.3101
 1770SOL     OW 6811   6.066   1.708   4.137  0.3437 -0.1066  0.1053
 1770SOL    HW2 6812   6.158   1.721   4.117  0.5271  0.8688  1.4287
 1770SOL    HW3 6813   6.023   1.787   4.105 -0.0588 -0.5857 -0.5664
 1770SOL    MW4 6814   6.072   1.720   4.130  0.1993 -0.1014 -0.1650
 1771SOL     OW 6815   0.789   1.772   5.217  0.6233 -0.6501  0.3922
 1771SOL    HW2 6816   0.837   1.706   5.267 -1.2341 -1.2441  1.4580
 1771SOL    HW3 6817   0.702   1.774   5.255 -0.3353  0.1894 -1.6658
 1771SOL    MW4 6818   0.784   1.764   5.229  0.3210 -0.2934  0.8753
 1772SOL     OW 6819   1.092   1.611   0.712 -0.2435  0.4105  0.3252
 1772SOL    HW2 6820   1.063   1.526   0.745 -0.4771  0.5563  0.5004
 1772SOL    HW3 6821   1.154   1.643   0.778 -0.6396  0.6600  0.5797
 1772SOL    MW4 6822   1.096   1.604   0.725 -0.3902 -0.4630 -0.1593
 1773SOL     OW 6823   4.620   4.827   4.053  0.2297  1.0139 -0.2305
 1773SOL    HW2 6824   4.591   4.877   3.977 -0.7769  1.3018  0.3199
 1773SOL    HW3 6825   4.600   4.884   4.128 -1.3604 -0.3397  0.4525
 1773SOL    MW4 6826   4.613   4.841   4.053 -0.0757  0.0666 -0.1777
 1774SOL     OW 6827   5.173   2.007   4.175 -0.2558 -0.0930 -0.1871
 1774SOL    HW2 6828   5.267   1.987   4.174  0.0993  1.3766  0.6423
 1774SOL    HW3 6829   5.137   1.956   4.102  1.0091 -1.4265  0.0655
 1774SOL    MW4 6830   5.181   1.997   4.165  0.2850 -0.2043 -0.5852
 1775SOL     OW 6831   2.414   3.541   2.517 -0.0439  0.1685 -0.5001
 1775SOL    HW2 6832   2.457   3.483   2.454  0.5702 -1.2150  1.1138
 1775SOL    HW3 6833   2.327   3.504   2.528  0.5945 -1.0061  1.0976
 1775SOL    MW4 6834   2.409   3.529   2.510  0.0866  0.0759 -0.2152
 1776SOL     OW 6835   6.074   3.718   4.326 -0.0391  0.1641  0.0149
 1776SOL    HW2 6836   6.058   3.631   4.362  2.3390 -1.2595 -2.0375
 1776SOL    HW3 6837   6.025   3.719   4.244 -2.6308  2.0898  1.4065
 1776SOL    MW4 6838   6.065   3.707   4.320  0.4440  0.2868  0.0991
 1777SOL     OW 6839   2.677   5.499   4.364  0.4952  0.3680 -0.2776
 1777SOL    HW2 6840   2.623   5.577   4.380  0.2286  0.2911 -0.7800
 1777SOL    HW3 6841   2.764   5.534   4.345  0.7477  0.4778  0.9639
 1777SOL    MW4 6842   2.681   5.514   4.364 -0.3493  0.3142 -0.4230
 1778SOL     OW 6843   5.044   2.427   4.107  0.3891 -0.4221  0.0650
 1778SOL    HW2 6844   5.093   2.384   4.037  1.7745  1.8375 -0.4563
 1778SOL    HW3 6845   4.965   2.461   4.065  0.1932 -0.8547  0.0782
 1778SOL    MW4 6846   5.040   2.426   4.092  0.2390  0.1046  0.6394
 1779SOL     OW 6847   3.878   5.189   4.828 -0.2423  0.0796 -0.2218
 1779SOL    HW2 6848   3.836   5.270   4.798 -1.1511 -0.6046 -0.8497
 1779SOL    HW3 6849   3.845   5.177   4.917  2.8005  2.3512  1.4129
 1779SOL    MW4 6850   3.868   5.198   4.836 -0.1499 -0.0492  0.5975
 1780SOL     OW 6851   4.475   1.247   1.624 -0.0565 -0.6495 -0.4507
 1780SOL    HW2 6852   4.526   1.195   1.686 -1.0938 -1.2607 -0.0795
 1780SOL    HW3 6853   4.432   1.313   1.678 -0.1969 -0.5699 -0.6579
 1780SOL    MW4 6854   4.476   1.249   1.639  0.0955 -1.0018 -0.0665
 1781SOL     OW 6855   2.840   5.178   4.223  0.0850 -0.1513 -0.0945
 1781SOL    HW2 6856   2.751   5.211   4.231  0.1035 -0.1602  0.1538
 1781SOL    HW3 6857   2.848   5.153   4.131 -0.4088 -0.8505  0.0431
 1781SOL    MW4 6858   2.829   5.179   4.212 -0.0172  0.2461  0.5200
 1782SOL     OW 6859   2.945   2.867   2.760 -0.3953 -0.3441  0.5372
 1782SOL    HW2 6860   2.980   2.890   2.846  0.3114  1.6774 -0.2406
 1782SOL    HW3 6861   3.022   2.839   2.710  0.1613  3.1883 -0.8811
 1782SOL    MW4 6862   2.960   2.866   2.764 -0.3220  0.3806  0.2144
 1783SOL     OW 6863   3.469   6.084   5.213  0.2743 -0.0131  0.3958
 1783SOL    HW2 6864   3.395   6.111   5.158  1.7525  1.8766 -0.8039
 1783SOL    HW3 6865   3.472   6.148   5.284 -0.7717 -1.6298  1.9809
 1783SOL    MW4 6866   3.460   6.096   5.215  0.1462  0.4821 -0.0328
 1784SOL     OW 6867   1.683   3.425   0.875 -0.2078 -0.6505  0.2522
 1784SOL    HW2 6868   1.635   3.441   0.956 -0.9425 -0.0729 -0.2831
 1784SOL    HW3 6869   1.614   3.410   0.810  0.3403  0.2757 -0.5487
 1784SOL    MW4 6870   1.668   3.425   0.877 -0.0572 -0.9768 -0.4827
 1785SOL     OW 6871   5.135   1.691   2.134 -0.4836  0.4608  0.7483
 1785SOL    HW2 6872   5.046   1.725   2.140 -0.7342 -0.3704  2.5696
 1785SOL    HW3 6873   5.151   1.649   2.219  1.6642  0.6140  0.4922
 1785SOL    MW4 6874   5.126   1.690   2.146 -0.0471 -0.3857  0.1356
 1786SOL     OW 6875   0.809   1.077   4.433  0.3808  0.5338  0.0437
 1786SOL    HW2 6876   0.748   1.027   4.487 -1.1187  1.3314 -0.8396
 1786SOL    HW3 6877   0.856   1.133   4.494  1.2203 -1.0306  0.8999
 1786SOL    MW4 6878   0.807   1.078   4.448  0.0572 -0.0351  0.0351
 1787SOL     OW 6879   4.135   3.541   1.715 -0.2247  0.3795  0.2415
 1787SOL    HW2 6880   4.182   3.619   1.685  1.2313 -0.6215 -0.1809
 1787SOL    HW3 6881   4.062   3.576   1.767  0.8805  2.0018  0.7854
 1787SOL    MW4 6882   4.131   3.556   1.718  0.3431 -0.7182 -0.5451
 1788SOL     OW 6883   2.893   3.541   1.728 -0.3044  0.2783 -0.1454
 1788SOL    HW2 6884   2.891   3.602   1.654  0.0335  1.0667  0.4917
 1788SOL    HW3 6885   2.855   3.589   1.801  1.3684  0.2951  0.7680
 1788SOL    MW4 6886   2.887   3.555   1.728  0.2199 -0.5610 -0.3136
 1789SOL     OW 6887   5.687   0.288   3.846  0.2973  0.0428 -0.3545
 1789SOL    HW2 6888   5.752   0.326   3.905 -0.0390 -2.9207  2.1690
 1789SOL    HW3 6889   5.707   0.194   3.844 -0.7801 -0.2809 -3.7315
 1789SOL    MW4 6890   5.698   0.281   3.853 -0.2360 -0.5472  0.0000
 1790SOL     OW 6891   3.908   3.686   4.709  0.1678 -0.0195 -0.1751
 1790SOL    HW2 6892   3.942   3.669   4.797  0.0108  3.0696  0.5845
 1790SOL    HW3 6893   3.949   3.769   4.683 -1.5676  0.3324 -2.0463
 1790SOL    MW4 6894   3.918   3.695   4.718 -0.4969 -0.3990 -0.0559
 1791SOL     OW 6895   3.185   3.299   0.033  0.0616  0.5425  0.3346
 1791SOL    HW2 6896   3.105   3.280   0.082  0.5768 -0.9257  0.6603
 1791SOL    HW3 6897   3.232   3.362   0.087 -1.7290  3.0200 -0.7959
 1791SOL    MW4 6898   3.181   3.305   0.047 -0.1654  0.2893  0.0442
 1792SOL     OW 6899   3.445   3.762   2.348 -0.5041  0.4376 -0.0257
 1792SOL    HW2 6900   3.382   3.808   2.293 -0.6401  0.3472  0.0548
 1792SOL    HW3 6901   3.483   3.695   2.290 -1.0656 -0.0395  0.1483
 1792SOL    MW4 6902   3.442   3.759   2.333 -0.0670 -0.2048  0.1732
 1793SOL     OW 6903   0.511   2.161   4.206  0.0505 -0.3287 -0.0223
 1793SOL    HW2 6904   0.516   2.065   4.207 -0.0851 -0.3336  0.2064
 1793SOL    HW3 6905   0.521   2.186   4.298  0.0963 -0.1225 -0.0834
 1793SOL    MW4 6906   0.513   2.152   4.218  0.2309  0.0673 -0.0355
 1794SOL     OW 6907   3.903   2.878   3.590  0.0724  0.2884  0.6052
 1794SOL    HW2 6908   3.831   2.829   3.551  1.9097 -3.2716  1.3308
 1794SOL    HW3 6909   3.894   2.862   3.684 -0.9601  4.0359  1.3348
 1794SOL    MW4 6910   3.892   2.870   3.597  0.5224 -0.4833  0.2154
 1795SOL     OW 6911   3.916   4.728   0.796  0.1138 -0.0526 -0.3773
 1795SOL    HW2 6912   3.914   4.820   0.769 -1.5378 -0.0806 -0.4476
 1795SOL    HW3 6913   4.009   4.705   0.797  0.4740  1.2250 -1.6672
 1795SOL    MW4 6914   3.928   4.737   0.793 -0.7616  0.2515  0.0825
 1796SOL     OW 6915   3.571   0.907   4.809 -0.6340 -0.0634  0.0481
 1796SOL    HW2 6916   3.487   0.915   4.855 -0.4416  0.4108  0.3308
 1796SOL    HW3 6917   3.633   0.955   4.865  0.5113 -2.9857  1.5084
 1796SOL    MW4 6918   3.568   0.915   4.823 -0.1314  0.7851  0.2612
 1797SOL     OW 6919   1.249   2.679   1.410  0.0635  0.2254 -0.3182
 1797SOL    HW2 6920   1.324   2.700   1.354 -0.3966  1.5126 -0.4878
 1797SOL    HW3 6921   1.261   2.587   1.432  1.3312  0.2237 -0.8951
 1797SOL    MW4 6922   1.261   2.670   1.405 -0.5500  0.2684 -0.5475
 1798SOL     OW 6923   3.671   3.349   2.067  0.0458  0.7852 -0.1244
 1798SOL    HW2 6924   3.593   3.297   2.048  1.3174 -0.1332 -3.3922
 1798SOL    HW3 6925   3.736   3.285   2.097  0.7012  0.9248 -1.2139
 1798SOL    MW4 6926   3.669   3.334   2.069 -0.0627 -0.1404  0.2702
 1799SOL     OW 6927   6.376   2.840   5.822  0.2985  0.2424  0.1393
 1799SOL    HW2 6928   6.403   2.783   5.893 -0.1426 -0.7153 -0.4537
 1799SOL    HW3 6929   6.310   2.898   5.860  0.3725  0.0204  0.6035
 1799SOL    MW4 6930   6.371   2.840   5.836 -0.3453  0.5205  0.2947
 1800SOL     OW 6931   1.974   3.072   1.070 -0.2656 -0.1271 -0.2510
 1800SOL    HW2 6932   2.064   3.047   1.090 -0.7864 -1.0076  1.0663
 1800SOL    HW3 6933   1.966   3.161   1.105  0.1075 -0.0213 -0.4306
 1800SOL    MW4 6934   1.985   3.081   1.077  0.3498  0.3855 -0.5859
 1801SOL     OW 6935   2.753   4.181   1.607  0.6839 -0.0863  0.4888
 1801SOL    HW2 6936   2.699   4.110   1.641 -1.5654 -0.1877 -2.8544
 1801SOL    HW3 6937   2.696   4.227   1.545  2.3454  4.1061  1.7418
 1801SOL    MW4 6938   2.738   4.178   1.603  0.2682  0.7362 -0.2382
 1802SOL     OW 6939   3.145   1.602   5.009  0.3157 -0.0462  0.1745
 1802SOL    HW2 6940   3.102   1.560   4.935 -0.1744 -1.4089  1.1814
 1802SOL    HW3 6941   3.231   1.559   5.015  0.4010  0.1412  0.3099
 1802SOL    MW4 6942   3.151   1.591   5.000 -0.4288  0.0242 -0.1194
 1803SOL     OW 6943   1.910   1.173   5.258  0.0212  0.4655  0.3736
 1803SOL    HW2 6944   1.870   1.237   5.199  1.7584  0.2235 -1.1659
 1803SOL    HW3 6945   1.870   1.090   5.232  0.3089  0.4526 -0.0498
 1803SOL    MW4 6946   1.899   1.170   5.246  0.3106 -0.1606  0.1250
 1804SOL     OW 6947   4.247   0.869   3.880 -0.0982 -0.2143  0.2829
 1804SOL    HW2 6948   4.333   0.827   3.887 -0.1802 -0.1542  2.7602
 1804SOL    HW3 6949   4.264   0.962   3.892 -0.4947 -0.2374  1.1821
 1804SOL    MW4 6950   4.260   0.875   3.883  0.3405 -0.0231  0.2994
 1805SOL     OW 6951   0.095   2.322   2.828 -0.0239 -0.2589  0.4184
 1805SOL    HW2 6952   0.142   2.273   2.896 -1.4434 -0.0031  1.6348
 1805SOL    HW3 6953   0.058   2.397   2.874 -0.1275  0.5042 -0.8781
 1805SOL    MW4 6954   0.097   2.325   2.843  0.0095 -0.0939 -0.1374
 1806SOL     OW 6955  -0.002   2.644   0.405  0.1448 -0.9053 -0.2625
 1806SOL    HW2 6956   0.071   2.587   0.431 -0.1858 -1.3093 -0.2189
 1806SOL    HW3 6957  -0.076   2.613   0.457  0.4456  0.9161  1.3697
 1806SOL    MW4 6958  -0.002   2.632   0.416  0.3116  0.1181 -0.1642
 1807SOL     OW 6959   1.680   1.576   2.276 -0.4106  0.1026 -0.5396
 1807SOL    HW2 6960   1.634   1.538   2.201 -1.9284  1.5841 -0.4186
 1807SOL    HW3 6961   1.751   1.626   2.238  1.0520 -1.9998 -0.7462
 1807SOL    MW4 6962   1.683   1.577   2.261  0.2715 -0.3747 -0.0005
 1808SOL     OW 6963   5.223   5.519   0.357  0.7784 -0.0500  0.1503
 1808SOL    HW2 6964   5.176   5.455   0.303  1.5964  0.0468 -0.7102
 1808SOL    HW3 6965   5.273   5.466   0.418 -0.9169 -0.1458  1.5363
 1808SOL    MW4 6966   5.223   5.504   0.358 -0.9581  0.1069  0.7864
 1809SOL     OW 6967   4.908   0.151   0.608 -0.1904 -0.0266 -0.1015
 1809SOL    HW2 6968   4.883   0.113   0.524  1.0719 -0.8336 -0.1393
 1809SOL    HW3 6969   4.851   0.109   0.672  0.7110 -1.5166 -0.2317
 1809SOL    MW4 6970   4.897   0.141   0.606  0.0096 -0.8050 -0.2575
 1810SOL     OW 6971   2.021   6.152   3.846 -0.1521 -0.4667  0.0511
 1810SOL    HW2 6972   2.073   6.099   3.906  0.4463 -0.7006 -0.6532
 1810SOL    HW3 6973   2.086   6.199   3.794 -0.6637  0.0118 -0.1603
 1810SOL    MW4 6974   2.036   6.151   3.847 -0.4422  0.2054 -0.2178
 1811SOL     OW 6975   2.055   2.406   4.848 -0.2975  0.0586  0.6242
 1811SOL    HW2 6976   2.068   2.418   4.942 -0.2214  0.4173  0.5705
 1811SOL    HW3 6977   1.961   2.389   4.839 -0.1889 -0.6703  0.8315
 1811SOL    MW4 6978   2.044   2.405   4.859  0.6165 -0.5705  0.8762
 1812SOL     OW 6979   5.175   3.533   5.792 -0.2672 -0.3471 -0.1224
 1812SOL    HW2 6980   5.167   3.590   5.869  1.0237  0.6980 -0.7231
 1812SOL    HW3 6981   5.090   3.538   5.750 -0.1889  1.2058 -0.1678
 1812SOL    MW4 6982   5.163   3.541   5.796 -0.1804  0.2823 -0.1840
 1813SOL     OW 6983   2.281   2.107   1.413  0.0869  0.3317  0.4083
 1813SOL    HW2 6984   2.278   2.025   1.463  0.2109  0.5056  0.7096
 1813SOL    HW3 6985   2.357   2.097   1.356 -0.5609 -0.2166 -0.3697
 1813SOL    MW4 6986   2.291   2.095   1.412 -0.3865  0.6470 -0.2780
 1814SOL     OW 6987   6.330   1.186   4.326 -0.4733  0.3878  0.7864
 1814SOL    HW2 6988   6.305   1.274   4.300  0.5934  0.2668 -0.8034
 1814SOL    HW3 6989   6.418   1.196   4.364 -0.2994  0.0027  0.4897
 1814SOL    MW4 6990   6.339   1.199   4.327 -0.1381  0.7154 -0.2369
 1815SOL     OW 6991   0.893   2.102   3.708 -0.8321 -0.2245  0.4322
 1815SOL    HW2 6992   0.898   2.044   3.784 -0.0651 -0.3072  0.3261
 1815SOL    HW3 6993   0.980   2.140   3.702 -0.8494 -0.3192 -0.4829
 1815SOL    MW4 6994   0.905   2.099   3.717  0.2863 -0.0887  0.0038
 1816SOL     OW 6995   3.513   2.911   0.136  0.5425  0.4625 -0.4863
 1816SOL    HW2 6996   3.515   3.003   0.161  1.0013  0.3776 -0.1808
 1816SOL    HW3 6997   3.593   2.875   0.173  0.0945 -0.1825 -0.1234
 1816SOL    MW4 6998   3.524   2.918   0.144  0.4080  0.2106  0.4408
 1817SOL     OW 6999   2.916   4.558   0.420 -0.7552 -0.2432  0.3233
 1817SOL    HW2 7000   2.868   4.618   0.363  0.6124 -0.8924 -1.6184
 1817SOL    HW3 7001   2.939   4.610   0.496 -0.2836  1.5031 -0.9525
 1817SOL    MW4 7002   2.912   4.573   0.422 -0.3394 -0.3979  0.4495
 1818SOL     OW 7003   4.295   0.401   2.575  0.2120 -0.2648 -0.4991
 1818SOL    HW2 7004   4.281   0.370   2.485  1.4954  2.9862 -1.9850
 1818SOL    HW3 7005   4.387   0.427   2.577  0.4856 -1.1474  2.1314
 1818SOL    MW4 7006   4.306   0.401   2.563  0.2130 -0.0711 -0.0303
 1819SOL     OW 7007   1.179   0.671   1.181  0.4665  0.3027  0.7806
 1819SOL    HW2 7008   1.106   0.703   1.128  0.8981 -0.5316 -0.3506
 1819SOL    HW3 7009   1.257   0.705   1.138  0.8060  0.0026  1.1517
 1819SOL    MW4 7010   1.180   0.680   1.169  0.1298 -0.5026 -0.5128
 1820SOL     OW 7011   2.477   0.042   2.506 -0.4877 -0.4931  0.3322
 1820SOL    HW2 7012   2.388   0.077   2.516 -0.3431  1.4304 -3.1829
 1820SOL    HW3 7013   2.470  -0.016   2.430  1.2540 -0.2325 -0.0549
 1820SOL    MW4 7014   2.464   0.039   2.497 -0.3440  0.5696 -0.1569
 1821SOL     OW 7015   2.487   5.712   4.364 -0.1742  0.8661 -0.2354
 1821SOL    HW2 7016   2.452   5.647   4.425 -0.3443  0.3494 -0.8635
 1821SOL    HW3 7017   2.446   5.794   4.388  1.5933  1.2106  1.9291
 1821SOL    MW4 7018   2.477   5.714   4.375 -0.0994 -0.5094  0.8175
 1822SOL     OW 7019   3.106   3.338   0.559  0.2138 -0.0328 -0.7284
 1822SOL    HW2 7020   3.183   3.325   0.504 -0.5472 -1.2869 -1.5510
 1822SOL    HW3 7021   3.032   3.331   0.498 -0.5840  0.4849  0.1547
 1822SOL    MW4 7022   3.106   3.336   0.544 -0.1001 -0.0221  0.0549
 1823SOL     OW 7023   5.248   4.951   3.043 -0.2901 -0.0479  0.2220
 1823SOL    HW2 7024   5.272   4.882   2.981  0.1591  0.5336 -0.2608
 1823SOL    HW3 7025   5.263   4.911   3.129 -1.0343 -0.9017 -0.0270
 1823SOL    MW4 7026   5.253   4.936   3.046  0.2148 -0.6747 -0.3722
 1824SOL     OW 7027   5.348   6.140   5.850  0.2062  0.2177 -0.1598
 1824SOL    HW2 7028   5.401   6.217   5.871 -0.5579  0.8675 -0.5637
 1824SOL    HW3 7029   5.262   6.175   5.829 -0.4284 -0.8287  0.5872
 1824SOL    MW4 7030   5.344   6.155   5.850 -0.1434  0.3094  0.0490
 1825SOL     OW 7031   1.925   5.739   1.248 -0.1050  0.4114  0.3533
 1825SOL    HW2 7032   1.885   5.821   1.277  0.5227 -0.1138  2.9757
 1825SOL    HW3 7033   2.019   5.759   1.242 -0.0877  0.1826 -0.1835
 1825SOL    MW4 7034   1.932   5.753   1.251  0.1611 -0.1882  0.1914
 1826SOL     OW 7035   5.169   3.992   0.760 -0.3077  0.0763 -0.1633
 1826SOL    HW2 7036   5.251   3.986   0.808  0.4737  0.1343 -1.4374
 1826SOL    HW3 7037   5.193   4.034   0.677 -1.3852 -1.0106 -1.0702
 1826SOL    MW4 7038   5.183   3.997   0.755 -0.1412  0.1786  0.5757
 1827SOL     OW 7039   6.035   5.003   5.091 -0.2826  0.2195  0.0908
 1827SOL    HW2 7040   6.077   4.964   5.013  2.5307  1.0725  1.0349
 1827SOL    HW3 7041   6.083   4.965   5.164 -1.8232  0.6297  1.3538
 1827SOL    MW4 7042   6.047   4.992   5.090  0.3229  0.0474 -0.5038
 1828SOL     OW 7043   3.028   6.407   2.605 -0.3719  0.1487 -0.1016
 1828SOL    HW2 7044   3.081   6.461   2.546  1.5646 -0.7508  0.7262
 1828SOL    HW3 7045   3.027   6.455   2.688  2.5893 -1.5855  1.0908
 1828SOL    MW4 7046   3.034   6.420   2.608 -0.2840  0.0173  0.1440
 1829SOL     OW 7047   4.370   2.059   6.210  0.0792 -0.0993  0.1074
 1829SOL    HW2 7048   4.325   1.995   6.156  0.5079  0.1361 -0.5390
 1829SOL    HW3 7049   4.363   2.141   6.162  1.7293 -0.1825 -0.3270
 1829SOL    MW4 7050   4.363   2.061   6.197  0.2660  0.5599 -0.8278
 1830SOL     OW 7051   3.803   4.566   5.096 -0.6886  0.0711  0.1024
 1830SOL    HW2 7052   3.745   4.612   5.157 -0.8910 -0.3733  0.2535
 1830SOL    HW3 7053   3.769   4.589   5.009 -1.2818 -0.4073  0.1937
 1830SOL    MW4 7054   3.791   4.575   5.093  0.7765  0.2229  0.5653
 1831SOL     OW 7055   2.733   4.933   0.226 -0.0661  0.8135  0.5746
 1831SOL    HW2 7056   2.752   4.912   0.317  0.1104 -0.2664  0.3080
 1831SOL    HW3 7057   2.651   4.887   0.207  0.1358  0.6528  0.0671
 1831SOL    MW4 7058   2.725   4.924   0.235  0.0296  0.0450  0.2553
 1832SOL     OW 7059   5.457   4.887   1.180 -0.1825  0.1882 -0.0782
 1832SOL    HW2 7060   5.392   4.835   1.226  0.2598  1.1093  1.6865
 1832SOL    HW3 7061   5.531   4.893   1.241  0.7370  0.8677 -1.2056
 1832SOL    MW4 7062   5.458   4.881   1.194 -0.1018  0.1773 -0.2614
 1833SOL     OW 7063   0.177   2.725   0.803  0.0775 -0.5588 -0.4300
 1833SOL    HW2 7064   0.270   2.732   0.824 -0.5012  1.2586  1.8528
 1833SOL    HW3 7065   0.138   2.683   0.879 -0.8615 -2.5452 -1.9038
 1833SOL    MW4 7066   0.184   2.720   0.816 -0.2089  0.3069 -0.0125
 1834SOL     OW 7067   1.690   2.081   0.702  0.2361  0.0359  0.5122
 1834SOL    HW2 7068   1.715   2.040   0.785  0.6317  0.1947  0.4711
 1834SOL    HW3 7069   1.620   2.025   0.668 -0.6466  0.5387  1.4509
 1834SOL    MW4 7070   1.684   2.068   0.709 -0.4319 -0.2893 -0.1671
 1835SOL     OW 7071   6.075   3.923   1.599 -0.0320  0.6247  0.1880
 1835SOL    HW2 7072   6.086   3.961   1.512  2.2569  0.0197  0.1491
 1835SOL    HW3 7073   6.104   3.832   1.590  0.5345  0.6315  1.6288
 1835SOL    MW4 7074   6.081   3.916   1.586 -0.7001 -0.8628 -0.4399
 1836SOL     OW 7075   1.749   5.379   1.079 -0.4019  0.1820  0.3985
 1836SOL    HW2 7076   1.760   5.471   1.055 -0.1132  0.1542  0.4212
 1836SOL    HW3 7077   1.658   5.373   1.109 -0.7968  0.1982 -0.7514
 1836SOL    MW4 7078   1.739   5.390   1.080 -0.1791  0.1648  0.6934
 1837SOL     OW 7079   0.598   3.647   0.161 -0.1059 -0.0201 -0.8312
 1837SOL    HW2 7080   0.566   3.731   0.131  0.2592  1.0132  1.4483
 1837SOL    HW3 7081   0.520   3.602   0.195 -0.0148  0.2105 -0.3058
 1837SOL    MW4 7082   0.584   3.652   0.162  0.1291  0.1813  0.1482
 1838SOL     OW 7083   3.679   3.277   5.101  0.0507 -0.6611  0.2740
 1838SOL    HW2 7084   3.630   3.207   5.145  2.1248  0.0029  4.1632
 1838SOL    HW3 7085   3.618   3.350   5.099 -0.6232 -1.1944  0.6515
 1838SOL    MW4 7086   3.665   3.277   5.107  0.3874 -0.1245 -0.3672
 1839SOL     OW 7087   3.291   5.105   3.046 -0.3751  0.4869 -0.0364
 1839SOL    HW2 7088   3.295   5.011   3.030 -0.3217  0.3412  0.8208
 1839SOL    HW3 7089   3.233   5.138   2.977  1.1092  0.1159 -1.5314
 1839SOL    MW4 7090   3.283   5.097   3.034 -0.1276  0.2639 -0.1187
 1840SOL     OW 7091   3.233   6.005   2.715 -0.0573  0.2202 -0.7108
 1840SOL    HW2 7092   3.250   6.099   2.705 -0.8026  0.6981  1.7324
 1840SOL    HW3 7093   3.310   5.972   2.762 -0.2497 -0.1739 -0.6688
 1840SOL    MW4 7094   3.245   6.013   2.720  0.1342  1.0398 -0.0505
 1841SOL     OW 7095   1.838   5.272   0.456  0.3662 -0.1299 -0.0742
 1841SOL    HW2 7096   1.868   5.357   0.423  0.7025  0.3318  1.3826
 1841SOL    HW3 7097   1.898   5.251   0.528  0.2341 -1.5727 -0.3466
 1841SOL    MW4 7098   1.850   5.280   0.461  0.4227 -0.4499 -0.0819
 1842SOL     OW 7099   5.197   2.071   5.402  0.0963  0.1375  0.6510
 1842SOL    HW2 7100   5.175   2.001   5.463  1.3865 -1.0964 -0.2274
 1842SOL    HW3 7101   5.172   2.037   5.316  0.5927  0.8172  0.2275
 1842SOL    MW4 7102   5.191   2.058   5.399  0.2121  0.1110  0.1246
 1843SOL     OW 7103   0.173   6.339   4.003 -0.5725 -0.1617 -0.8366
 1843SOL    HW2 7104   0.181   6.316   4.095 -0.2967  2.3018 -0.1683
 1843SOL    HW3 7105   0.079   6.335   3.985 -0.5838 -1.1541 -0.6280
 1843SOL    MW4 7106   0.161   6.335   4.013 -0.7066  0.4121 -0.3478
 1844SOL     OW 7107   2.548   1.181   4.277 -0.1046 -0.4156 -0.6732
 1844SOL    HW2 7108   2.599   1.247   4.229  1.2504 -0.6741  0.3864
 1844SOL    HW3 7109   2.597   1.166   4.357 -2.3130 -0.0200  0.8347
 1844SOL    MW4 7110   2.561   1.188   4.281  0.2277 -0.1723 -1.2271
 1845SOL     OW 7111   6.414   3.998   1.048  0.1061 -0.1770 -0.3926
 1845SOL    HW2 7112   6.408   3.951   0.964  0.2500 -0.3110 -0.3299
 1845SOL    HW3 7113   6.415   3.928   1.113  2.8801 -0.2683 -0.4001
 1845SOL    MW4 7114   6.413   3.982   1.045  0.0958  0.2773  0.6029
 1846SOL     OW 7115   0.526   5.143   5.933  0.0320  0.0194  0.5487
 1846SOL    HW2 7116   0.481   5.212   5.981 -1.7747 -0.6120 -0.1462
 1846SOL    HW3 7117   0.527   5.173   5.842  1.9155  0.4375  0.6607
 1846SOL    MW4 7118   0.520   5.156   5.927 -0.6271 -0.1087  0.0254
 1847SOL     OW 7119   2.192   0.692   5.413 -0.4290 -0.3563 -0.3171
 1847SOL    HW2 7120   2.159   0.676   5.325  0.0905 -1.6483 -0.2929
 1847SOL    HW3 7121   2.114   0.688   5.469 -0.3144 -3.5467 -0.2415
 1847SOL    MW4 7122   2.177   0.689   5.409  0.0157  0.3780 -0.3018
 1848SOL     OW 7123   6.348   0.261   2.669  0.1944 -0.5881 -0.0486
 1848SOL    HW2 7124   6.429   0.231   2.710  0.7250  0.5537 -0.2376
 1848SOL    HW3 7125   6.291   0.184   2.670  1.2072 -1.3566  0.2562
 1848SOL    MW4 7126   6.351   0.247   2.674  0.2865 -0.1396 -0.2960
 1849SOL     OW 7127   4.837   2.462   3.895 -0.7029 -0.4158  0.7768
 1849SOL    HW2 7128   4.859   2.551   3.869  0.0145 -0.4111  1.3674
 1849SOL    HW3 7129   4.856   2.409   3.817 -0.1939 -0.1825  0.7399
 1849SOL    MW4 7130   4.842   2.467   3.881 -0.5005 -0.5688 -0.1140
 1850SOL     OW 7131   1.806   1.499   2.828 -0.0991  0.0757 -0.2497
 1850SOL    HW2 7132   1.762   1.567   2.777  3.2645  0.3438 -3.1476
 1850SOL    HW3 7133   1.887   1.539   2.857 -0.3202 -1.2145  2.5268
 1850SOL    MW4 7134   1.811   1.513   2.825  0.7362  0.8476  0.5739
 1851SOL     OW 7135   5.125   6.405   0.564 -0.0833 -0.5304 -0.3343
 1851SOL    HW2 7136   5.048   6.456   0.589 -0.0386 -0.1900 -0.8680
 1851SOL    HW3 7137   5.182   6.408   0.641  1.5070  3.2328 -1.4269
 1851SOL    MW4 7138   5.123   6.412   0.577 -0.0031 -0.1207 -0.0400
 1852SOL     OW 7139   0.064   5.197   6.279  0.8794  0.4435  0.1968
 1852SOL    HW2 7140   0.047   5.103   6.286  1.4462  0.0303 -2.6627
 1852SOL    HW3 7141   0.157   5.207   6.297  0.8318  0.4452  0.4404
 1852SOL    MW4 7142   0.074   5.186   6.282  0.0747  0.4853 -0.0535
 1853SOL     OW 7143   0.994   5.778   1.968  0.4339 -0.1202  0.4028
 1853SOL    HW2 7144   1.066   5.804   2.025  1.0455  1.6608 -1.0835
 1853SOL    HW3 7145   1.002   5.683   1.961  1.5438 -0.1451  1.6751
 1853SOL    MW4 7146   1.005   5.769   1.974  0.3939 -0.6640  0.0751
 1854SOL     OW 7147   4.667   3.117   3.472 -0.3064 -0.3800  0.0976
 1854SOL    HW2 7148   4.698   3.028   3.493 -1.7673 -1.1010 -0.6796
 1854SOL    HW3 7149   4.701   3.171   3.544  0.5853 -1.5635  0.6070
 1854SOL    MW4 7150   4.676   3.112   3.485 -0.1631 -0.1136 -0.0441
 1855SOL     OW 7151   3.954   2.321   3.308  0.3274 -0.0729 -0.1071
 1855SOL    HW2 7152   3.877   2.263   3.306 -0.1408  0.5176  0.4127
 1855SOL    HW3 7153   3.982   2.325   3.217  1.0365 -1.9743 -0.0304
 1855SOL    MW4 7154   3.947   2.314   3.296 -0.2927 -0.6553  0.2128
 1856SOL     OW 7155   5.415   3.034   2.454 -0.6627 -0.3110 -0.3711
 1856SOL    HW2 7156   5.495   3.044   2.506 -0.1190 -3.4195 -0.4139
 1856SOL    HW3 7157   5.442   2.985   2.376 -2.2981  0.2038 -1.3208
 1856SOL    MW4 7158   5.429   3.029   2.451  0.2571  0.1083 -0.3336
 1857SOL     OW 7159   0.723   4.479   1.064 -0.4335 -0.0885  0.7061
 1857SOL    HW2 7160   0.647   4.473   1.122 -0.6883  1.0362  0.5166
 1857SOL    HW3 7161   0.704   4.417   0.993 -1.2659  0.2945  0.5727
 1857SOL    MW4 7162   0.710   4.470   1.062  0.2391  0.2514  0.2131
 1858SOL     OW 7163   1.780   0.817   1.926 -0.1880  0.3499 -0.4011
 1858SOL    HW2 7164   1.816   0.811   2.014 -2.4296  0.6119  0.6018
 1858SOL    HW3 7165   1.767   0.911   1.911  1.4277  0.4265 -1.6014
 1858SOL    MW4 7166   1.783   0.829   1.936  0.2003 -0.2257  0.5273
 1859SOL     OW 7167   0.701   0.345   5.606  0.0671  0.5421  0.4144
 1859SOL    HW2 7168   0.772   0.285   5.587 -1.5636 -1.4254  0.1679
 1859SOL    HW3 7169   0.721   0.424   5.556  1.6672 -0.2392 -0.2259
 1859SOL    MW4 7170   0.713   0.348   5.597 -0.0863  0.0438 -0.6617
 1860SOL     OW 7171   4.442   5.430   3.964 -0.0790  0.6505  0.3216
 1860SOL    HW2 7172   4.413   5.365   3.899 -2.3514  1.5261  0.3817
 1860SOL    HW3 7173   4.361   5.466   4.000  1.1333  2.1302  1.7114
 1860SOL    MW4 7174   4.428   5.426   3.960  0.6546  0.0423  0.3674
 1861SOL     OW 7175   2.039   5.646   4.740 -0.3895 -0.2097 -0.4164
 1861SOL    HW2 7176   1.988   5.582   4.691  0.0353 -1.0039  0.1509
 1861SOL    HW3 7177   1.997   5.730   4.722 -1.9652 -0.8499  0.1244
 1861SOL    MW4 7178   2.027   5.649   4.731 -0.1133  0.1559 -0.3279
 1862SOL     OW 7179   0.063   4.574   6.280 -0.5021  0.1185  0.0783
 1862SOL    HW2 7180   0.006   4.589   6.205 -1.0934  0.1089  0.5231
 1862SOL    HW3 7181   0.123   4.648   6.281 -0.2886 -0.0437 -0.5885
 1862SOL    MW4 7182   0.064   4.586   6.270 -0.0400 -0.0500 -0.3192
 1863SOL     OW 7183   0.176   3.598   2.577 -0.5133 -0.3255 -0.3485
 1863SOL    HW2 7184   0.146   3.634   2.493 -1.7932 -0.9319 -0.1836
 1863SOL    HW3 7185   0.144   3.508   2.576 -0.3853 -0.3870  0.7202
 1863SOL    MW4 7186   0.168   3.591   2.565 -0.1741 -0.7367  0.5045
 1864SOL     OW 7187   5.017   0.092   3.082  0.2336 -0.1122  0.6425
 1864SOL    HW2 7188   4.927   0.106   3.111  0.0078 -0.4092  0.1090
 1864SOL    HW3 7189   5.050   0.180   3.064 -0.3005 -0.0605 -0.1536
 1864SOL    MW4 7190   5.010   0.105   3.083 -0.9808  0.1797  0.2553
 1865SOL     OW 7191   5.674   0.118   0.237 -0.1925  0.0192 -0.3634
 1865SOL    HW2 7192   5.694   0.060   0.164  0.5140  0.6074 -0.6454
 1865SOL    HW3 7193   5.634   0.195   0.197  1.3057  0.8794 -0.2858
 1865SOL    MW4 7194   5.671   0.121   0.222  0.2851 -0.0086  0.3137
 1866SOL     OW 7195   2.005   4.322   4.973  0.2091  0.4034 -0.0486
 1866SOL    HW2 7196   1.935   4.290   4.915  0.3445 -0.0025  0.0092
 1866SOL    HW3 7197   2.062   4.246   4.986  0.2071  0.5012  0.5748
 1866SOL    MW4 7198   2.003   4.308   4.967  0.5962 -0.0066  0.1911
 1867SOL     OW 7199   5.801   4.648   2.236  0.6575 -0.0263 -0.0498
 1867SOL    HW2 7200   5.761   4.561   2.225  0.3552  0.0814  0.1667
 1867SOL    HW3 7201   5.819   4.677   2.147  0.9357 -0.3892 -0.1169
 1867SOL    MW4 7202   5.798   4.640   2.223 -0.1370 -0.3632  0.2280
 1868SOL     OW 7203   3.330   4.123   2.484  0.1854 -0.8464 -0.0305
 1868SOL    HW2 7204   3.367   4.043   2.522  1.6611 -0.0678  0.2645
 1868SOL    HW3 7205   3.406   4.168   2.445 -0.9346 -0.5653 -2.0025
 1868SOL    MW4 7206   3.345   4.119   2.484 -0.5093  0.0739 -0.3976
 1869SOL     OW 7207   3.736   3.118   4.053 -0.1913 -0.2091 -0.3310
 1869SOL    HW2 7208   3.659   3.168   4.024 -0.3576 -1.2386 -1.7735
 1869SOL    HW3 7209   3.772   3.081   3.972  0.3050 -1.8949  0.6176
 1869SOL    MW4 7210   3.731   3.120   4.038 -0.4145  0.2439 -0.0243
 1870SOL     OW 7211   1.164   4.488   5.058 -0.1156 -0.4117  0.5034
 1870SOL    HW2 7212   1.078   4.462   5.090  0.7004 -0.9594  2.3789
 1870SOL    HW3 7213   1.223   4.421   5.090  1.1398  0.3832 -0.0618
 1870SOL    MW4 7214   1.160   4.476   5.066 -0.0806  0.3424 -0.1643
 1871SOL     OW 7215   0.325   4.563   0.156  0.2377 -0.4823 -0.3030
 1871SOL    HW2 7216   0.263   4.491   0.144 -1.1407  0.8571 -2.0641
 1871SOL    HW3 7217   0.351   4.586   0.067  1.0822  0.8105  0.2520
 1871SOL    MW4 7218   0.320   4.557   0.142 -0.2444 -0.1390  0.3212
 1872SOL     OW 7219   1.519   0.180   2.231  0.0165 -0.2526 -0.0095
 1872SOL    HW2 7220   1.498   0.273   2.222 -0.7764 -0.4426 -0.1974
 1872SOL    HW3 7221   1.436   0.140   2.257  0.1052 -1.0630 -0.9402
 1872SOL    MW4 7222   1.505   0.187   2.233  0.5475 -0.9679 -0.0902
 1873SOL     OW 7223   5.712   0.014   2.673  0.6165  0.1328  0.4875
 1873SOL    HW2 7224   5.653  -0.017   2.742 -0.4299  1.1714  0.0965
 1873SOL    HW3 7225   5.752  -0.065   2.638 -2.7338 -1.0380 -1.1896
 1873SOL    MW4 7226   5.709  -0.001   2.677  0.4800  0.8022  0.5463
 1874SOL     OW 7227   4.507   2.135   5.568  0.2227 -0.4932  0.0174
 1874SOL    HW2 7228   4.541   2.065   5.624  0.4391 -0.1062  0.3691
 1874SOL    HW3 7229   4.577   2.151   5.505  0.2761 -0.4161  0.0962
 1874SOL    MW4 7230   4.521   2.128   5.567  0.2180  0.3660  0.8398
 1875SOL     OW 7231   0.971   5.481   1.267  0.1178  0.6240 -0.0804
 1875SOL    HW2 7232   0.889   5.434   1.278 -0.1409  0.9989 -0.3782
 1875SOL    HW3 7233   1.036   5.427   1.311 -0.4126  0.6853  0.8059
 1875SOL    MW4 7234   0.969   5.468   1.275  0.0898  0.5279 -0.4276
 1876SOL     OW 7235   5.087   6.428   2.757 -0.3915  0.0030  0.2731
 1876SOL    HW2 7236   5.024   6.389   2.818 -0.0917 -0.1475  0.4908
 1876SOL    HW3 7237   5.164   6.373   2.765 -0.7990 -0.8600 -1.2553
 1876SOL    MW4 7238   5.088   6.415   2.766  0.3145  0.2403 -0.5491
 1877SOL     OW 7239   0.907   1.166   3.696  0.2135  0.0323 -0.2207
 1877SOL    HW2 7240   0.968   1.093   3.701  0.9198  0.6745  1.4984
 1877SOL    HW3 7241   0.911   1.206   3.784 -1.3246  1.1734 -0.6339
 1877SOL    MW4 7242   0.916   1.162   3.709 -0.0650  0.1161  0.6193
 1878SOL     OW 7243   1.375   3.656   5.699 -0.0972 -0.3773  0.2864
 1878SOL    HW2 7244   1.375   3.749   5.675 -2.0103 -0.4147  0.0093
 1878SOL    HW3 7245   1.408   3.654   5.789 -0.7293  0.6590  0.5506
 1878SOL    MW4 7246   1.379   3.668   5.708  0.4364 -0.2969  0.2488
 1879SOL     OW 7247   0.644   0.454   3.206 -0.4480 -0.0837 -0.1083
 1879SOL    HW2 7248   0.653   0.369   3.164 -0.9729  0.9556 -2.5439
 1879SOL    HW3 7249   0.565   0.447   3.259 -0.3484 -1.1721 -0.0952
 1879SOL    MW4 7250   0.635   0.442   3.207  0.2165  0.0165 -0.4694
 1880SOL     OW 7251   1.058   0.216   1.051 -0.0714  0.0297 -0.3959
 1880SOL    HW2 7252   0.998   0.220   1.126 -0.6203  1.0100 -0.8658
 1880SOL    HW3 7253   1.001   0.227   0.974  0.6972  0.8263 -0.8604
 1880SOL    MW4 7254   1.043   0.218   1.051  0.0274  0.0930 -0.2698
 1881SOL     OW 7255   4.493   6.335   1.800 -0.0139  0.0995  0.5864
 1881SOL    HW2 7256   4.555   6.312   1.731 -0.9652 -1.0545  0.0742
 1881SOL    HW3 7257   4.411   6.352   1.754 -0.5301 -0.1625  1.3812
 1881SOL    MW4 7258   4.490   6.334   1.785 -0.1214  0.2024  0.0592
 1882SOL     OW 7259   1.550   2.959   2.579  0.3373  0.2542  0.3275
 1882SOL    HW2 7260   1.606   3.013   2.635  0.5006  0.2140  0.2009
 1882SOL    HW3 7261   1.587   2.872   2.585  0.7857  0.3894 -0.4168
 1882SOL    MW4 7262   1.562   2.955   2.587  0.4650 -0.0665  0.0181
 1883SOL     OW 7263   2.693   5.557   5.619 -0.1124  0.4167  0.2067
 1883SOL    HW2 7264   2.635   5.522   5.687  0.1864 -0.5825 -0.0318
 1883SOL    HW3 7265   2.647   5.635   5.587 -0.8959  0.1520  0.6343
 1883SOL    MW4 7266   2.679   5.563   5.624 -0.2968  0.2479  0.0146
 1884SOL     OW 7267   0.586   1.905   1.678  0.0318 -0.1538 -0.9187
 1884SOL    HW2 7268   0.541   1.955   1.747 -0.6322 -0.3884 -1.1715
 1884SOL    HW3 7269   0.675   1.941   1.676  0.2807 -0.6355  0.5453
 1884SOL    MW4 7270   0.592   1.917   1.686  0.2073 -0.3182 -0.2811
 1885SOL     OW 7271   4.624   1.449   3.549 -0.2224 -0.0063 -0.2148
 1885SOL    HW2 7272   4.626   1.481   3.458 -0.2116  1.1641  0.1809
 1885SOL    HW3 7273   4.534   1.420   3.562 -0.3569  0.3071 -0.4404
 1885SOL    MW4 7274   4.612   1.449   3.538 -0.4221 -0.0570 -0.8182
 1886SOL     OW 7275   6.130   4.005   5.800 -0.6309  0.1051 -0.1464
 1886SOL    HW2 7276   6.224   3.992   5.798 -0.7114 -0.8906  1.0850
 1886SOL    HW3 7277   6.096   3.927   5.845 -1.8987  1.0877  0.6707
 1886SOL    MW4 7278   6.138   3.993   5.806 -0.1176 -0.1164 -0.5497
 1887SOL     OW 7279   3.249   3.998   4.609  0.3430  0.0830 -0.1130
 1887SOL    HW2 7280   3.281   4.068   4.666  0.8727  0.1944 -0.5414
 1887SOL    HW3 7281   3.217   3.931   4.669  1.0067  0.1473  0.3194
 1887SOL    MW4 7282   3.249   3.999   4.624  0.2078  0.6996  0.4140
 1888SOL     OW 7283   6.198   1.143   0.410 -0.4339 -0.3094  0.5675
 1888SOL    HW2 7284   6.260   1.155   0.482 -0.6278  1.5237  0.4713
 1888SOL    HW3 7285   6.218   1.056   0.375  0.1885 -0.9096  2.3243
 1888SOL    MW4 7286   6.209   1.133   0.415 -0.0955  0.4088  0.1879
 1889SOL     OW 7287   2.456   0.337   3.713  0.2098 -0.2301  0.2546
 1889SOL    HW2 7288   2.364   0.360   3.702  0.2024 -0.3650  0.0188
 1889SOL    HW3 7289   2.464   0.311   3.805  0.2714  0.9375  0.5977
 1889SOL    MW4 7290   2.445   0.337   3.724 -0.2229  0.2475  0.3331
 1890SOL     OW 7291   2.477   2.290   2.126  0.1976  0.0850  0.1158
 1890SOL    HW2 7292   2.475   2.259   2.217  0.6619  0.1164  0.1386
 1890SOL    HW3 7293   2.464   2.384   2.133 -0.6047 -0.0200  0.0893
 1890SOL    MW4 7294   2.475   2.298   2.139  0.1991 -0.5783 -0.7668
 1891SOL     OW 7295   1.764   1.661   5.925 -0.1097  0.2258  0.3116
 1891SOL    HW2 7296   1.779   1.568   5.909  0.1478  0.5519 -1.5296
 1891SOL    HW3 7297   1.672   1.675   5.902 -0.0522  0.4962  0.2367
 1891SOL    MW4 7298   1.754   1.651   5.920 -0.2882 -0.2625  0.0633
 1892SOL     OW 7299   3.584   3.068   5.259  0.6403  0.4484  0.3678
 1892SOL    HW2 7300   3.547   3.100   5.341 -2.6695  0.8663 -1.1423
 1892SOL    HW3 7301   3.537   2.987   5.241  0.3729  1.0043 -1.6856
 1892SOL    MW4 7302   3.573   3.061   5.267  0.1398  0.3820  0.1229
 1893SOL     OW 7303   2.321   5.191   1.397 -0.6424  0.0673 -0.2017
 1893SOL    HW2 7304   2.311   5.153   1.310  0.7642 -0.4666 -0.1561
 1893SOL    HW3 7305   2.287   5.280   1.388  0.7408  0.4880 -1.6785
 1893SOL    MW4 7306   2.315   5.198   1.385  0.1158  0.0982 -0.3154
 1894SOL     OW 7307   0.811   6.012   2.596 -0.7201  0.1304  0.2884
 1894SOL    HW2 7308   0.786   5.922   2.617  0.2840 -0.2719 -0.2053
 1894SOL    HW3 7309   0.829   6.053   2.680 -0.4545 -0.3456  0.4620
 1894SOL    MW4 7310   0.810   6.005   2.610 -0.2176 -0.1911  0.8390
 1895SOL     OW 7311   2.439   2.374   0.893  0.4470 -0.4564  0.1406
 1895SOL    HW2 7312   2.505   2.305   0.896  1.3831  0.3734 -0.8149
 1895SOL    HW3 7313   2.397   2.370   0.979  1.1808 -1.5289  0.4722
 1895SOL    MW4 7314   2.442   2.364   0.905  0.4000 -0.5931  0.2227
 1896SOL     OW 7315   3.617   5.930   5.791 -0.3127 -0.2700  0.1986
 1896SOL    HW2 7316   3.643   5.896   5.705 -1.0221  0.3746 -0.2821
 1896SOL    HW3 7317   3.549   5.869   5.820 -4.0718  2.3571 -2.1562
 1896SOL    MW4 7318   3.612   5.917   5.783  0.1805  0.3744  0.0467
 1897SOL     OW 7319   1.907   2.432   0.343 -0.8828  0.2913  0.1475
 1897SOL    HW2 7320   1.995   2.467   0.354 -1.0541  0.6329  0.4433
 1897SOL    HW3 7321   1.920   2.339   0.326 -0.3792  0.6036 -1.3501
 1897SOL    MW4 7322   1.920   2.424   0.342 -0.1358 -0.0329 -0.2865
 1898SOL     OW 7323   5.206   3.431   0.896  0.2364 -0.1978  0.4017
 1898SOL    HW2 7324   5.214   3.386   0.979 -4.3561 -0.1272  1.1319
 1898SOL    HW3 7325   5.179   3.520   0.919  0.2765  0.2537 -1.1453
 1898SOL    MW4 7326   5.204   3.437   0.910  0.1505 -0.1676 -0.4742
 1899SOL     OW 7327   4.992   0.931   5.793  0.1689 -0.1410 -0.1290
 1899SOL    HW2 7328   4.970   1.002   5.733  1.6367  1.0592  0.6968
 1899SOL    HW3 7329   5.026   0.861   5.737  0.6638  0.6143 -0.7854
 1899SOL    MW4 7330   4.994   0.931   5.778 -0.1360 -0.5547  0.0648
 1900SOL     OW 7331   4.601   5.394   5.715 -0.3621 -0.8364  0.4877
 1900SOL    HW2 7332   4.647   5.382   5.799 -0.9480 -0.3834  0.8844
 1900SOL    HW3 7333   4.632   5.479   5.684 -1.4490 -0.1866  1.1122
 1900SOL    MW4 7334   4.612   5.404   5.722 -0.1914 -0.2384  0.2670
 1901SOL     OW 7335   2.262   4.333   1.915  0.7915 -0.2550 -0.1827
 1901SOL    HW2 7336   2.312   4.259   1.948  1.6702  0.6204  0.5389
 1901SOL    HW3 7337   2.222   4.372   1.993  0.0195 -0.1893 -0.6014
 1901SOL    MW4 7338   2.264   4.329   1.929 -0.7184 -0.0196  0.1850
 1902SOL     OW 7339   0.143   2.947   4.648  0.2542 -0.2954 -0.2062
 1902SOL    HW2 7340   0.194   2.934   4.568  0.4864  0.5610 -0.2086
 1902SOL    HW3 7341   0.152   3.040   4.667 -2.6135  0.2412 -1.0630
 1902SOL    MW4 7342   0.151   2.957   4.640 -0.1089 -0.2716  0.5068
 1903SOL     OW 7343   3.306   5.132   1.594  1.1363 -0.0490 -0.1281
 1903SOL    HW2 7344   3.266   5.092   1.671  2.2917 -0.1039  0.4575
 1903SOL    HW3 7345   3.290   5.070   1.523 -0.3958  0.2385 -0.0896
 1903SOL    MW4 7346   3.298   5.119   1.595  0.3516 -0.3780  0.2012
 1904SOL     OW 7347   2.614   0.469   4.724  0.2916 -0.0510 -0.3008
 1904SOL    HW2 7348   2.575   0.415   4.656 -3.2186  1.9953 -0.1500
 1904SOL    HW3 7349   2.590   0.426   4.806 -0.1627  0.3087 -0.2438
 1904SOL    MW4 7350   2.606   0.456   4.726 -0.0251 -0.3251  0.3298
 1905SOL     OW 7351   0.822   4.761   0.332  0.0740 -0.2763 -0.3775
 1905SOL    HW2 7352   0.795   4.852   0.322 -1.3645 -0.6899 -0.4210
 1905SOL    HW3 7353   0.913   4.767   0.362  0.0483  1.1646 -0.4886
 1905SOL    MW4 7354   0.831   4.774   0.335  0.2805 -0.2451 -0.4286
 1906SOL     OW 7355   5.912   2.559   0.133  0.1428 -0.6204 -0.2066
 1906SOL    HW2 7356   5.880   2.559   0.223 -0.3108 -1.9231 -0.3515
 1906SOL    HW3 7357   5.881   2.476   0.096 -0.8921  0.5046 -2.0047
 1906SOL    MW4 7358   5.904   2.548   0.140  0.1058  0.2316  0.1048
 1907SOL     OW 7359   3.689   0.980   0.602 -0.6131  0.2389 -0.8646
 1907SOL    HW2 7360   3.615   0.922   0.620 -1.1397  0.3791 -2.4314
 1907SOL    HW3 7361   3.663   1.064   0.638 -0.1165 -0.3016  0.8470
 1907SOL    MW4 7362   3.676   0.983   0.609 -0.1375 -0.3815  0.0693
 1908SOL     OW 7363   3.590   5.562   2.016 -0.1717 -0.1655  0.1576
 1908SOL    HW2 7364   3.528   5.490   2.024 -0.4969 -0.1126 -1.4133
 1908SOL    HW3 7365   3.534   5.639   2.004  0.1808 -0.0212 -0.5957
 1908SOL    MW4 7366   3.574   5.563   2.015  0.0974 -0.7874 -0.3213
 1909SOL     OW 7367   0.615   1.958   3.895  0.3681 -0.0149  0.1758
 1909SOL    HW2 7368   0.570   1.925   3.973  1.3824  1.1504  1.2900
 1909SOL    HW3 7369   0.545   1.997   3.843 -0.0785  0.9482  1.4464
 1909SOL    MW4 7370   0.600   1.959   3.898 -0.3584  0.3579  0.4718
 1910SOL     OW 7371   2.668   3.591   1.902 -0.2459  0.2842 -0.4148
 1910SOL    HW2 7372   2.574   3.587   1.916 -0.1114 -1.6829  0.2437
 1910SOL    HW3 7373   2.706   3.569   1.987  0.7678 -0.6952 -1.0946
 1910SOL    MW4 7374   2.661   3.588   1.915  0.2346  0.2409  0.4018
 1911SOL     OW 7375   1.026   2.851   0.655 -0.1299  0.8971 -0.3279
 1911SOL    HW2 7376   0.958   2.861   0.588  0.9152  0.3882 -1.5150
 1911SOL    HW3 7377   1.099   2.809   0.609 -0.1416 -1.5112  1.6443
 1911SOL    MW4 7378   1.027   2.847   0.640  0.0668 -0.4755 -0.0271
 1912SOL     OW 7379   4.227   5.909   0.068  0.3181  0.3582 -0.2713
 1912SOL    HW2 7380   4.307   5.960   0.057 -0.7853  2.0341 -0.7599
 1912SOL    HW3 7381   4.197   5.893  -0.021  1.5955 -2.8447 -0.2745
 1912SOL    MW4 7382   4.234   5.913   0.055 -0.2079 -0.0787 -0.0240
 1913SOL     OW 7383   4.672   0.696   0.853 -0.2377  0.8044 -0.1589
 1913SOL    HW2 7384   4.637   0.777   0.891 -0.2753  1.1066 -0.8265
 1913SOL    HW3 7385   4.739   0.667   0.915 -2.0935 -0.1529  1.5040
 1913SOL    MW4 7386   4.676   0.703   0.866 -0.0090 -0.2622 -0.3033
 1914SOL     OW 7387   6.132   2.374   5.014  0.0089  0.3734  0.5849
 1914SOL    HW2 7388   6.193   2.305   4.984 -2.6006 -1.2711 -1.3579
 1914SOL    HW3 7389   6.108   2.347   5.103 -1.1023 -1.3997 -0.2054
 1914SOL    MW4 7390   6.137   2.361   5.022  0.1011  0.1220  0.3827
 1915SOL     OW 7391   1.662   0.917   6.257 -0.1977  0.1875 -0.4556
 1915SOL    HW2 7392   1.700   0.944   6.340 -1.8675 -0.3959  0.5475
 1915SOL    HW3 7393   1.631   0.998   6.217 -1.0141  0.3080  0.3735
 1915SOL    MW4 7394   1.663   0.931   6.263  0.0010 -0.4890 -0.2201
 1916SOL     OW 7395   1.322   5.390   3.678 -0.0637 -0.5205  0.4224
 1916SOL    HW2 7396   1.256   5.368   3.612  0.3018  0.7976 -0.4200
 1916SOL    HW3 7397   1.389   5.322   3.669 -1.4587 -2.1539  1.6003
 1916SOL    MW4 7398   1.322   5.378   3.668  0.3052 -0.1592 -0.3433
 1917SOL     OW 7399   4.365   1.167   1.315  0.2861 -0.7033  0.4494
 1917SOL    HW2 7400   4.324   1.084   1.291 -0.1456 -0.4350  0.2526
 1917SOL    HW3 7401   4.371   1.164   1.411 -2.0035  0.0661  0.6849
 1917SOL    MW4 7402   4.361   1.156   1.325 -0.2284 -0.2780 -0.0330
 1918SOL     OW 7403   0.572   2.756   1.153 -0.2063  0.1516  0.1046
 1918SOL    HW2 7404   0.598   2.746   1.244  0.8386 -1.0292 -0.2881
 1918SOL    HW3 7405   0.541   2.846   1.146 -1.0070  0.0384  1.7805
 1918SOL    MW4 7406   0.571   2.766   1.164  0.4525  0.2646 -1.0172
 1919SOL     OW 7407   2.018   4.592   0.078 -0.0811 -0.1312 -0.0593
 1919SOL    HW2 7408   2.094   4.534   0.073 -1.5357 -2.0914 -0.4842
 1919SOL    HW3 7409   1.947   4.536   0.107 -1.1419  1.9239  1.5952
 1919SOL    MW4 7410   2.019   4.577   0.081 -0.5561  0.3227 -0.3513
 1920SOL     OW 7411   4.651   0.116   5.135 -0.2850  0.1449 -0.1670
 1920SOL    HW2 7412   4.645   0.112   5.040 -0.0895  2.2669 -0.3113
 1920SOL    HW3 7413   4.622   0.204   5.157  0.8464  0.1079  1.6467
 1920SOL    MW4 7414   4.646   0.127   5.125 -0.1382  0.1351 -0.1267
 1921SOL     OW 7415   5.296   3.399   3.878 -0.0972  0.1718 -0.3288
 1921SOL    HW2 7416   5.261   3.312   3.861  2.1090 -0.7168 -0.6279
 1921SOL    HW3 7417   5.340   3.424   3.796 -0.0597  1.2443  0.0000
 1921SOL    MW4 7418   5.297   3.391   3.865  0.0636 -0.1582  0.0347
 1922SOL     OW 7419   4.574   4.936   2.179  0.3082 -0.0484  0.1491
 1922SOL    HW2 7420   4.557   4.897   2.093 -1.2297  1.1055 -0.1195
 1922SOL    HW3 7421   4.652   4.891   2.211  0.0231 -1.5818 -1.1801
 1922SOL    MW4 7422   4.582   4.925   2.172  0.5910  0.1409 -0.0065
 1923SOL     OW 7423   4.331   2.928   4.515  0.3484  0.2416  0.4346
 1923SOL    HW2 7424   4.411   2.978   4.529  1.0278 -0.5690 -0.4414
 1923SOL    HW3 7425   4.260   2.991   4.529  1.1586  1.2111  0.2721
 1923SOL    MW4 7426   4.332   2.943   4.519 -0.3933 -0.5509 -0.7219
 1924SOL     OW 7427   6.146   2.411   3.263  0.3146  0.2602  0.3305
 1924SOL    HW2 7428   6.240   2.408   3.281  0.5187  1.2834 -0.4801
 1924SOL    HW3 7429   6.110   2.468   3.331  0.6102  1.5646 -0.5795
 1924SOL    MW4 7430   6.154   2.418   3.274 -0.8221  0.1262 -0.7777
 1925SOL     OW 7431   2.232   1.553   1.615 -0.4097 -0.0080  0.0584
 1925SOL    HW2 7432   2.261   1.472   1.656 -0.7449 -0.4491 -0.5439
 1925SOL    HW3 7433   2.295   1.619   1.643  1.9755 -1.1500 -2.1684
 1925SOL    MW4 7434   2.244   1.551   1.624  0.3368  0.5492  0.1926
 1926SOL     OW 7435   4.226   1.501   5.146  0.7336  0.7117 -1.0168
 1926SOL    HW2 7436   4.279   1.576   5.173  0.4670  0.2246  0.9719
 1926SOL    HW3 7437   4.286   1.426   5.154  1.0132  0.6418 -3.0321
 1926SOL    MW4 7438   4.241   1.501   5.150  0.1095 -0.3787 -0.5656
 1927SOL     OW 7439   3.687   2.786   3.472  0.4469  0.1168  0.0040
 1927SOL    HW2 7440   3.692   2.714   3.410 -0.9512  0.0783 -0.1030
 1927SOL    HW3 7441   3.620   2.759   3.535 -0.9538  1.7749 -0.6831
 1927SOL    MW4 7442   3.679   2.773   3.472  0.1963  0.3470 -0.0391
 1928SOL     OW 7443   3.898   4.620   4.143 -0.5795 -0.2632 -0.6585
 1928SOL    HW2 7444   3.850   4.621   4.226 -1.0484 -0.0685 -0.9259
 1928SOL    HW3 7445   3.953   4.698   4.145 -0.2892 -0.4727 -0.3625
 1928SOL    MW4 7446   3.899   4.630   4.154  0.4033  0.2629  0.1648
 1929SOL     OW 7447   5.273   0.553   5.980  0.0702  0.0808  0.1507
 1929SOL    HW2 7448   5.202   0.520   5.925 -0.7262  2.1788 -0.1934
 1929SOL    HW3 7449   5.340   0.583   5.919 -1.1602  3.1653  0.1492
 1929SOL    MW4 7450   5.272   0.553   5.965 -0.0376  0.0859 -0.3489
 1930SOL     OW 7451   2.817   0.766   5.968 -0.5806 -0.1789 -0.3476
 1930SOL    HW2 7452   2.754   0.838   5.961  0.2905  0.4852 -2.4086
 1930SOL    HW3 7453   2.764   0.686   5.961 -1.3071  0.3402 -0.8808
 1930SOL    MW4 7454   2.802   0.765   5.966 -0.1696  1.2598  0.1270
 1931SOL     OW 7455   3.488   0.483   2.497  0.0100 -0.0204 -0.0903
 1931SOL    HW2 7456   3.535   0.403   2.519  0.6721  0.5245  0.5274
 1931SOL    HW3 7457   3.514   0.545   2.565 -1.1069  0.4837 -0.1134
 1931SOL    MW4 7458   3.498   0.481   2.509 -0.9376  0.1950  0.5052
 1932SOL     OW 7459   0.682   3.081   4.867  0.0091  0.2840 -0.1545
 1932SOL    HW2 7460   0.631   3.063   4.946  1.3070 -1.5879  0.3392
 1932SOL    HW3 7461   0.720   3.167   4.881 -2.2593  1.3589 -0.1730
 1932SOL    MW4 7462   0.680   3.090   4.879 -0.4680 -0.2471  0.0293
 1933SOL     OW 7463   1.821   2.339   2.998  0.3887 -0.1394 -0.5902
 1933SOL    HW2 7464   1.873   2.377   2.927  0.1153 -1.2919 -1.4475
 1933SOL    HW3 7465   1.854   2.250   3.007 -0.4338 -0.4116 -0.1312
 1933SOL    MW4 7466   1.832   2.332   2.990  0.4063 -0.8504  0.1681
 1934SOL     OW 7467   1.048   5.324   4.015  0.5646 -0.2994 -0.1229
 1934SOL    HW2 7468   0.982   5.254   4.010  1.8910 -1.6222  0.3728
 1934SOL    HW3 7469   1.001   5.398   4.053 -0.6770 -1.1628  0.0993
 1934SOL    MW4 7470   1.033   5.325   4.019 -0.0798  0.2776 -0.4515
 1935SOL     OW 7471   1.713   1.558   1.897  0.5755 -0.6216  0.0999
 1935SOL    HW2 7472   1.711   1.505   1.817 -0.9397  0.5204 -0.6771
 1935SOL    HW3 7473   1.640   1.619   1.887  1.5135  0.8136  1.5132
 1935SOL    MW4 7474   1.703   1.559   1.885  0.1846 -0.1182 -0.4410
 1936SOL     OW 7475   1.083   5.836   6.105  0.1764  0.3006 -0.2775
 1936SOL    HW2 7476   1.059   5.744   6.092  0.1764  0.1237  0.8520
 1936SOL    HW3 7477   1.091   5.871   6.016 -1.4452 -0.3592 -0.7285
 1936SOL    MW4 7478   1.081   5.828   6.092 -0.0924  0.1493 -0.3712
 1937SOL     OW 7479   5.857   2.403   4.279 -0.2809 -0.0202  1.0565
 1937SOL    HW2 7480   5.791   2.383   4.345 -1.7018  1.6899  0.2389
 1937SOL    HW3 7481   5.866   2.499   4.281  1.8487 -0.1622  0.8136
 1937SOL    MW4 7482   5.850   2.413   4.288  0.1773  0.0389 -0.1037
 1938SOL     OW 7483   1.103   0.152   3.665  0.7950  0.3940  0.1490
 1938SOL    HW2 7484   1.059   0.067   3.667 -1.5201  1.5173  0.3696
 1938SOL    HW3 7485   1.034   0.215   3.645  2.6088  2.1522 -1.0629
 1938SOL    MW4 7486   1.088   0.150   3.663  0.2725 -0.4180  0.6496
 1939SOL     OW 7487   2.046   3.651   4.960  0.4725 -0.2233 -0.0398
 1939SOL    HW2 7488   1.970   3.596   4.976 -0.3358  0.2289 -2.0194
 1939SOL    HW3 7489   2.097   3.604   4.895  0.8441  0.4159 -0.2201
 1939SOL    MW4 7490   2.043   3.638   4.954 -0.1778  0.1610  0.4930
 1940SOL     OW 7491   4.068   2.607   3.685  0.0037 -0.1807 -0.8076
 1940SOL    HW2 7492   4.060   2.670   3.613  0.6845 -0.0220 -0.7483
 1940SOL    HW3 7493   4.025   2.528   3.652 -2.5863  0.8460 -0.1853
 1940SOL    MW4 7494   4.061   2.605   3.671  0.0027  0.4010  0.1659
 1941SOL     OW 7495   1.194   2.975   0.365 -0.3938  0.0836 -0.5126
 1941SOL    HW2 7496   1.210   2.889   0.405  0.5167  0.7708  0.6858
 1941SOL    HW3 7497   1.102   2.993   0.384 -0.2465 -0.0616  0.4066
 1941SOL    MW4 7498   1.184   2.966   0.373 -0.0165  0.2545 -0.3853
 1942SOL     OW 7499   3.863   4.297   6.318 -0.1925 -0.2806 -0.4941
 1942SOL    HW2 7500   3.830   4.264   6.402  1.0221 -1.5603 -0.4987
 1942SOL    HW3 7501   3.935   4.239   6.295  1.3886  1.7609 -1.0141
 1942SOL    MW4 7502   3.868   4.285   6.326  0.7288 -0.0087  0.1370
 1943SOL     OW 7503   3.130   1.046   4.537 -0.3525 -0.2834 -0.1729
 1943SOL    HW2 7504   3.088   0.972   4.495 -2.0971 -0.3008  1.4400
 1943SOL    HW3 7505   3.140   1.019   4.628  0.5745  0.8158  0.0689
 1943SOL    MW4 7506   3.125   1.033   4.544  0.1326  0.8531 -0.0483
 1944SOL     OW 7507   2.177   4.612   4.917 -0.0922 -0.6565 -0.4859
 1944SOL    HW2 7508   2.103   4.647   4.868 -0.1365  0.7933  0.5459
 1944SOL    HW3 7509   2.137   4.547   4.976 -0.4290 -0.4743 -0.5060
 1944SOL    MW4 7510   2.162   4.608   4.918  0.0694  0.4794 -0.0314
 1945SOL     OW 7511   2.439   3.656   3.618 -0.0256 -0.0290  0.1602
 1945SOL    HW2 7512   2.470   3.577   3.574  0.9523 -0.3527  1.3652
 1945SOL    HW3 7513   2.488   3.727   3.575 -1.6309  0.0872 -1.6050
 1945SOL    MW4 7514   2.450   3.655   3.606  0.2483 -0.0001  0.0387
 1946SOL     OW 7515   2.704   0.591   5.677 -0.1367 -0.1328  0.7519
 1946SOL    HW2 7516   2.658   0.523   5.628 -0.5804  0.5979  0.1204
 1946SOL    HW3 7517   2.694   0.566   5.769 -1.9974  0.1114  0.6490
 1946SOL    MW4 7518   2.697   0.579   5.683  0.4069  0.1226  0.1595
 1947SOL     OW 7519   1.326   3.478   2.107 -0.4731  0.4326 -0.3768
 1947SOL    HW2 7520   1.336   3.573   2.096  0.7565  0.5388  1.2637
 1947SOL    HW3 7521   1.272   3.468   2.185  0.1648 -0.2071 -0.0065
 1947SOL    MW4 7522   1.320   3.490   2.116  0.3006 -0.4282  0.2361
 1948SOL     OW 7523   2.325   3.071   2.413  0.5051 -0.3303 -0.1365
 1948SOL    HW2 7524   2.287   3.144   2.365  0.2385 -0.4174 -0.0573
 1948SOL    HW3 7525   2.399   3.043   2.359  0.8227  0.2215  0.0081
 1948SOL    MW4 7526   2.330   3.077   2.400 -0.0510  0.2546  0.1040
 1949SOL     OW 7527   2.926   5.832   3.122 -0.5235  0.3856  0.6568
 1949SOL    HW2 7528   2.845   5.807   3.078  0.3084 -1.1031 -0.1053
 1949SOL    HW3 7529   2.904   5.833   3.215 -1.0781 -1.5157  0.5856
 1949SOL    MW4 7530   2.913   5.829   3.128 -0.3056 -0.5535 -0.8490
 1950SOL     OW 7531   1.835   1.235   2.110  0.4040 -0.4612  0.3181
 1950SOL    HW2 7532   1.828   1.190   2.026 -0.3483 -1.8181  1.0635
 1950SOL    HW3 7533   1.754   1.285   2.119  0.2927 -0.6590  0.4205
 1950SOL    MW4 7534   1.824   1.236   2.100 -0.2804 -0.4710 -0.5823
 1951SOL     OW 7535   4.398   4.460   4.654 -0.4893 -0.0528 -0.4201
 1951SOL    HW2 7536   4.331   4.495   4.594 -0.3220  0.4556 -0.3207
 1951SOL    HW3 7537   4.481   4.487   4.615 -0.3785  0.2713  0.0285
 1951SOL    MW4 7538   4.400   4.468   4.641  0.6043  1.0959  0.3842
 1952SOL     OW 7539   0.193   2.717   4.965  0.0499  0.1803  0.2903
 1952SOL    HW2 7540   0.264   2.701   4.902 -0.8046  1.4287 -1.0695
 1952SOL    HW3 7541   0.178   2.631   5.005  1.7224 -0.3075 -0.0098
 1952SOL    MW4 7542   0.201   2.703   4.962 -0.2933 -0.3984  0.4233
 1953SOL     OW 7543   0.464   4.050   5.759  0.1095 -0.1434  0.3300
 1953SOL    HW2 7544   0.387   4.080   5.809 -0.1949  0.2237 -0.3429
 1953SOL    HW3 7545   0.447   4.080   5.669 -1.0600 -3.7637 -0.8352
 1953SOL    MW4 7546   0.451   4.058   5.754  0.4366  1.1740  0.2818
 1954SOL     OW 7547   2.285   0.091   4.425 -0.1140  0.6893 -0.0089
 1954SOL    HW2 7548   2.368   0.093   4.377 -0.7210  1.8965 -1.0729
 1954SOL    HW3 7549   2.224   0.048   4.365 -0.7971  1.9058 -0.2175
 1954SOL    MW4 7550   2.288   0.085   4.411  0.3870  0.5252  0.0877
 1955SOL     OW 7551   5.408   1.794   5.574  0.2656 -0.2556  0.5141
 1955SOL    HW2 7552   5.443   1.862   5.516 -1.2852 -0.4421 -0.7238
 1955SOL    HW3 7553   5.317   1.822   5.590 -0.0701 -1.5019  0.8396
 1955SOL    MW4 7554   5.400   1.807   5.569 -0.1384 -0.3086  0.0955
 1956SOL     OW 7555   4.761   0.643   1.234  0.0128 -0.0029  0.1497
 1956SOL    HW2 7556   4.709   0.596   1.299 -0.3973 -0.6396 -0.6054
 1956SOL    HW3 7557   4.851   0.617   1.252 -0.0971 -0.1743  0.4681
 1956SOL    MW4 7558   4.766   0.633   1.245  0.1600  0.0473  0.1072
 1957SOL     OW 7559   0.215   1.695   2.574 -0.2886  0.0677  0.0575
 1957SOL    HW2 7560   0.173   1.610   2.585 -0.8650  0.3749  0.2711
 1957SOL    HW3 7561   0.217   1.733   2.662  2.3089 -0.7814  0.4425
 1957SOL    MW4 7562   0.210   1.689   2.587  0.4752  0.4597  0.0539
 1958SOL     OW 7563   5.158   1.962   5.650 -0.0459 -0.0275 -0.0651
 1958SOL    HW2 7564   5.198   2.005   5.726 -1.7882  1.4348  0.0963
 1958SOL    HW3 7565   5.088   1.908   5.688 -0.5450  0.2506 -0.5770
 1958SOL    MW4 7566   5.154   1.960   5.665 -0.0286  0.0180  0.0233
 1959SOL     OW 7567   3.245   1.591   3.379 -0.0715  0.8355 -0.0441
 1959SOL    HW2 7568   3.238   1.647   3.456  1.6923  1.0734 -0.0108
 1959SOL    HW3 7569   3.230   1.503   3.412 -1.8259  1.1496  0.0897
 1959SOL    MW4 7570   3.242   1.587   3.394 -0.6191 -0.2088  0.3562
 1960SOL     OW 7571   0.389   3.461   3.017 -0.1265  0.6326 -0.6424
 1960SOL    HW2 7572   0.319   3.524   3.034  0.0179  0.2776  1.5724
 1960SOL    HW3 7573   0.344   3.382   2.986 -0.3012  1.7385 -3.6051
 1960SOL    MW4 7574   0.374   3.459   3.015  0.3137 -0.3669 -0.1173
 1961SOL     OW 7575   2.225   1.299   3.035 -0.3443 -0.0381  0.4308
 1961SOL    HW2 7576   2.224   1.210   3.069 -1.5595 -0.2749 -0.1816
 1961SOL    HW3 7577   2.149   1.341   3.075  0.0849  0.6652  0.5333
 1961SOL    MW4 7578   2.215   1.293   3.044  0.0923 -0.3601 -0.2133
 1962SOL     OW 7579   5.968   5.196   0.191  0.1955  0.2598 -0.0286
 1962SOL    HW2 7580   6.009   5.232   0.112 -0.9410  0.5394 -0.5225
 1962SOL    HW3 7581   5.948   5.105   0.168 -1.9842  0.8909 -0.8566
 1962SOL    MW4 7582   5.971   5.189   0.177  0.2643  0.0738 -0.7740
 1963SOL     OW 7583   4.782   3.701   0.119  0.2675 -0.0331  0.0969
 1963SOL    HW2 7584   4.800   3.607   0.124  0.3807  0.0647  2.7702
 1963SOL    HW3 7585   4.707   3.713   0.177 -1.8809  1.1187 -2.6947
 1963SOL    MW4 7586   4.774   3.690   0.127 -0.0494  0.8431  0.1298
 1964SOL     OW 7587   5.536   0.748   4.726 -0.2022 -0.2502  0.2487
 1964SOL    HW2 7588   5.538   0.817   4.660 -0.9207 -0.2738  0.1963
 1964SOL    HW3 7589   5.618   0.700   4.713 -0.9502 -1.1089 -1.5412
 1964SOL    MW4 7590   5.547   0.751   4.716  0.8939  0.1329 -0.6097
 1965SOL     OW 7591   3.158   0.992   5.394 -0.7464  0.7034  0.0206
 1965SOL    HW2 7592   3.116   1.078   5.387 -2.4693 -0.0634  0.4892
 1965SOL    HW3 7593   3.234   0.998   5.335 -1.5417  2.1341 -0.9254
 1965SOL    MW4 7594   3.163   1.004   5.385 -0.5389 -0.1123  0.3723
 1966SOL     OW 7595   4.011   3.569   1.157 -0.0608  0.0140  0.2697
 1966SOL    HW2 7596   4.052   3.514   1.090 -0.1440  2.4538 -1.8929
 1966SOL    HW3 7597   4.082   3.588   1.218  0.3882 -1.0089  0.0958
 1966SOL    MW4 7598   4.026   3.564   1.157 -0.1546  0.9891 -0.2802
 1967SOL     OW 7599   5.204   0.255   4.031  0.0574 -0.9360  0.2688
 1967SOL    HW2 7600   5.131   0.316   4.033 -1.5371 -2.5906 -1.8484
 1967SOL    HW3 7601   5.276   0.304   3.992 -0.5649  0.1320  0.4314
 1967SOL    MW4 7602   5.204   0.269   4.026 -0.4280 -0.4967  0.1471
 1968SOL     OW 7603   2.260   3.668   0.842 -0.1727 -0.0212 -0.6717
 1968SOL    HW2 7604   2.223   3.583   0.817 -1.4753  0.0850  0.6754
 1968SOL    HW3 7605   2.353   3.662   0.821  0.0334 -2.2740  0.5268
 1968SOL    MW4 7606   2.267   3.656   0.836  0.7557  0.3335  0.1711
 1969SOL     OW 7607   1.422   2.535   0.275 -0.2193  0.4442 -0.4290
 1969SOL    HW2 7608   1.429   2.631   0.282 -0.1693  0.6146 -2.2001
 1969SOL    HW3 7609   1.447   2.517   0.184 -1.7342 -1.0896 -0.5816
 1969SOL    MW4 7610   1.426   2.545   0.264 -0.3884 -0.1221  0.3091
 1970SOL     OW 7611   2.329   4.886   2.928 -0.7447  0.5772 -0.1977
 1970SOL    HW2 7612   2.240   4.906   2.900  0.3244  1.9623 -3.0184
 1970SOL    HW3 7613   2.330   4.790   2.938 -1.9669  0.2090 -2.7164
 1970SOL    MW4 7614   2.318   4.876   2.926  0.1455 -0.9421 -0.2741
 1971SOL     OW 7615   0.667   5.986   4.053  0.1304 -0.1044 -0.8094
 1971SOL    HW2 7616   0.748   6.021   4.089  0.2808 -1.1655 -0.0476
 1971SOL    HW3 7617   0.659   5.899   4.092 -1.4253  0.0130 -0.7739
 1971SOL    MW4 7618   0.676   5.979   4.063 -0.4654 -0.0498  0.2943
 1972SOL     OW 7619   0.139   0.724   5.714  0.1790  0.1666  0.2067
 1972SOL    HW2 7620   0.226   0.732   5.674 -0.5515  0.8072 -1.3483
 1972SOL    HW3 7621   0.151   0.757   5.803  1.1144  2.3111 -0.6351
 1972SOL    MW4 7622   0.152   0.730   5.720 -0.5708 -0.0820  0.1611
 1973SOL     OW 7623   4.569   3.762   5.916  0.3770  0.7936 -0.1665
 1973SOL    HW2 7624   4.642   3.748   5.976 -0.1982 -1.7561  0.0403
 1973SOL    HW3 7625   4.589   3.705   5.841  0.1855  2.5617 -1.6292
 1973SOL    MW4 7626   4.582   3.753   5.914  0.3343  0.0208 -0.3195
 1974SOL     OW 7627   2.082   5.371   5.250  0.3906  0.4969 -0.0206
 1974SOL    HW2 7628   2.099   5.285   5.289  1.9038  0.4383 -0.7552
 1974SOL    HW3 7629   2.161   5.422   5.269  0.5693  0.9186 -1.7483
 1974SOL    MW4 7630   2.094   5.366   5.258  0.2463  0.0212  0.5892
 1975SOL     OW 7631   1.553   2.608   4.766 -0.0804 -0.2865  0.4712
 1975SOL    HW2 7632   1.484   2.621   4.830 -0.8284 -1.4090 -0.0781
 1975SOL    HW3 7633   1.617   2.553   4.810 -0.1821 -0.3519  0.5367
 1975SOL    MW4 7634   1.552   2.603   4.780  0.1051  0.5912  0.7135
 1976SOL     OW 7635   1.740   1.047   3.034  0.1764 -0.2538  0.1856
 1976SOL    HW2 7636   1.716   1.139   3.038  1.3034  0.1003 -0.7318
 1976SOL    HW3 7637   1.792   1.038   2.954 -0.8000 -1.9094 -0.3173
 1976SOL    MW4 7638   1.744   1.058   3.024  0.4763 -0.0037 -0.5046
 1977SOL     OW 7639   1.778   6.053   5.597 -0.1663 -0.3622 -0.2652
 1977SOL    HW2 7640   1.864   6.010   5.595 -0.3586 -0.7411 -1.5618
 1977SOL    HW3 7641   1.783   6.119   5.528 -0.7751 -0.0879 -0.0564
 1977SOL    MW4 7642   1.790   6.056   5.588 -0.6853  0.2978 -0.1011
 1978SOL     OW 7643   3.302   6.107   3.158  0.3792 -0.7477 -0.0329
 1978SOL    HW2 7644   3.247   6.160   3.101  1.9673 -0.8718 -1.7827
 1978SOL    HW3 7645   3.357   6.170   3.204  0.5605 -0.7356 -0.2610
 1978SOL    MW4 7646   3.302   6.122   3.156 -0.1852 -0.3489  0.7444
 1979SOL     OW 7647   2.360   0.764   3.092  0.4116 -0.0249 -0.8143
 1979SOL    HW2 7648   2.344   0.858   3.090  0.6139  0.0258 -0.1262
 1979SOL    HW3 7649   2.450   0.756   3.125 -0.0828 -0.5105  0.4415
 1979SOL    MW4 7650   2.370   0.775   3.096 -0.2626  0.0592 -0.3179
 1980SOL     OW 7651   2.489   1.006   2.720  0.3252  0.0245  0.3113
 1980SOL    HW2 7652   2.481   1.101   2.722 -0.1133 -0.0098  0.2821
 1980SOL    HW3 7653   2.502   0.984   2.628 -3.0859 -0.1972 -0.2460
 1980SOL    MW4 7654   2.489   1.016   2.708  0.1628  0.3647 -0.2438
 1981SOL     OW 7655   2.838   3.473   5.628 -0.2225 -1.0228 -0.0817
 1981SOL    HW2 7656   2.761   3.441   5.674  0.7266 -0.4643  2.0084
 1981SOL    HW3 7657   2.912   3.438   5.678  0.8549  0.2466 -0.7393
 1981SOL    MW4 7658   2.837   3.464   5.640  0.1334  0.0437 -0.3671
 1982SOL     OW 7659   3.148   4.496   0.264  0.3741  0.0974  0.3538
 1982SOL    HW2 7660   3.118   4.463   0.179  0.1434 -0.2341  0.5627
 1982SOL    HW3 7661   3.070   4.537   0.303  0.5122  0.3678  0.3518
 1982SOL    MW4 7662   3.134   4.497   0.258 -0.0854  0.3003  0.3201
 1983SOL     OW 7663   5.012   5.924   2.690  0.7269 -0.0249 -0.2434
 1983SOL    HW2 7664   5.047   5.978   2.761  0.0636  2.2046 -1.4954
 1983SOL    HW3 7665   4.922   5.905   2.716  0.9992 -0.6606  0.2584
 1983SOL    MW4 7666   5.005   5.929   2.703 -0.1911  0.2803 -0.4840
 1984SOL     OW 7667   4.187   1.452   1.455  0.3652  0.0671 -0.5698
 1984SOL    HW2 7668   4.237   1.475   1.376  1.6016  0.4661  0.3001
 1984SOL    HW3 7669   4.187   1.532   1.507 -1.5116  0.1813 -0.6753
 1984SOL    MW4 7670   4.194   1.466   1.451 -0.9794 -0.0148 -0.3405
 1985SOL     OW 7671   5.855   2.850   0.253 -0.4739 -0.7965 -0.6661
 1985SOL    HW2 7672   5.827   2.931   0.296  0.5739 -1.1401  0.7307
 1985SOL    HW3 7673   5.903   2.880   0.176  1.1704 -0.0087  0.6130
 1985SOL    MW4 7674   5.857   2.865   0.248  0.3816 -0.1270  0.7139
 1986SOL     OW 7675   0.981   3.889   4.558 -0.0842 -0.2301 -0.2748
 1986SOL    HW2 7676   0.983   3.903   4.464  0.2752 -0.1061 -0.2513
 1986SOL    HW3 7677   0.920   3.955   4.591 -0.5583 -0.5667 -0.4662
 1986SOL    MW4 7678   0.973   3.899   4.550  0.1445  0.3571 -0.1577
 1987SOL     OW 7679   0.039   4.468   0.529  0.6868 -0.1558  0.0793
 1987SOL    HW2 7680   0.022   4.509   0.443 -0.4950 -1.7651 -0.5014
 1987SOL    HW3 7681   0.097   4.395   0.509  1.1072 -0.0238  0.8015
 1987SOL    MW4 7682   0.044   4.464   0.515 -0.2017 -0.8798  0.3101
 1988SOL     OW 7683   5.598   0.416   5.731  0.3781  0.1581  0.1978
 1988SOL    HW2 7684   5.584   0.333   5.776 -1.0835 -0.2107 -0.8361
 1988SOL    HW3 7685   5.524   0.423   5.671  2.0965  0.6947 -2.0131
 1988SOL    MW4 7686   5.586   0.406   5.729  0.1758 -0.3843 -0.4110
 1989SOL     OW 7687   5.536   4.170   3.799  0.1099 -0.7468 -0.5139
 1989SOL    HW2 7688   5.558   4.180   3.706 -0.2246 -0.3058 -0.5514
 1989SOL    HW3 7689   5.605   4.219   3.845  0.7918 -1.7047 -0.4662
 1989SOL    MW4 7690   5.548   4.178   3.793  0.2782  0.2921  0.2677
 1990SOL     OW 7691   3.209   5.819   6.111  0.3108  0.1432  0.7235
 1990SOL    HW2 7692   3.250   5.732   6.111  2.3713  1.0150  2.3811
 1990SOL    HW3 7693   3.274   5.876   6.070 -1.4517  0.8066 -1.3351
 1990SOL    MW4 7694   3.223   5.815   6.106 -0.6611  0.0106  0.2020
 1991SOL     OW 7695   0.028   4.288   5.738  0.2441  0.0146 -0.6766
 1991SOL    HW2 7696   0.033   4.283   5.643  1.3677 -1.3326 -0.5810
 1991SOL    HW3 7697   0.049   4.379   5.759  0.2810  0.2490 -1.6867
 1991SOL    MW4 7698   0.031   4.299   5.728  0.4876  0.1605 -0.0880
 1992SOL     OW 7699   4.151   4.771   5.658 -0.2712  0.2397  0.3197
 1992SOL    HW2 7700   4.241   4.763   5.625 -0.5442  1.2984 -0.7254
 1992SOL    HW3 7701   4.135   4.689   5.704  1.5573  0.3837  1.3307
 1992SOL    MW4 7702   4.161   4.759   5.660 -0.4506 -0.0163 -0.3956
 1993SOL     OW 7703   4.755   5.153   1.501  0.2131  0.0286  0.5634
 1993SOL    HW2 7704   4.751   5.105   1.584  0.9688  1.1830  1.3097
 1993SOL    HW3 7705   4.762   5.245   1.528 -0.6224  0.5187 -0.8050
 1993SOL    MW4 7706   4.756   5.159   1.516  0.2254 -0.0102  0.0308
 1994SOL     OW 7707   4.659   3.156   0.402 -0.4178 -0.3592 -0.5240
 1994SOL    HW2 7708   4.584   3.098   0.391  0.0906 -1.1100 -0.1187
 1994SOL    HW3 7709   4.717   3.110   0.463  0.4629  0.1183 -0.9721
 1994SOL    MW4 7710   4.657   3.142   0.408 -0.3424 -0.6897  0.0737
 1995SOL     OW 7711   2.437   5.464   4.550  0.4135  0.4994 -0.3675
 1995SOL    HW2 7712   2.345   5.438   4.558  0.2406  1.2960  0.5322
 1995SOL    HW3 7713   2.456   5.506   4.634  1.8925 -0.5178 -0.1570
 1995SOL    MW4 7714   2.427   5.466   4.562 -0.3545  0.0948 -0.3143
 1996SOL     OW 7715   4.725   5.915   2.735 -0.3942 -0.1591  0.3702
 1996SOL    HW2 7716   4.702   5.902   2.827 -0.3227  0.2946  0.4504
 1996SOL    HW3 7717   4.664   5.981   2.703 -0.6263 -0.5448  0.0049
 1996SOL    MW4 7718   4.714   5.922   2.743 -0.6357  0.0389 -0.0850
 1997SOL     OW 7719   6.413   2.359   5.883 -0.0645  0.8181 -0.3799
 1997SOL    HW2 7720   6.466   2.430   5.847 -1.5270  2.3351  0.3528
 1997SOL    HW3 7721   6.459   2.332   5.962 -0.4908  2.3014  0.3953
 1997SOL    MW4 7722   6.426   2.365   5.888  0.2008  0.6165  0.4432
 1998SOL     OW 7723   1.744   0.203   4.267  0.1912 -0.1233  0.4707
 1998SOL    HW2 7724   1.724   0.206   4.174 -1.9105  0.6016  0.9077
 1998SOL    HW3 7725   1.708   0.119   4.296  2.9800 -1.5384  0.2639
 1998SOL    MW4 7726   1.737   0.192   4.258  0.9226  0.0292 -0.0527
 1999SOL     OW 7727   2.561   2.863   4.334 -0.2649 -0.8534  0.0399
 1999SOL    HW2 7728   2.539   2.869   4.241 -1.2009  3.0710  0.3207
 1999SOL    HW3 7729   2.477   2.854   4.378  0.0814 -1.5564  0.5718
 1999SOL    MW4 7730   2.547   2.863   4.328 -0.3050  0.1474  0.1592
 2000SOL     OW 7731   2.768   6.012   4.646 -0.4180 -0.6014  0.2474
 2000SOL    HW2 7732   2.707   5.995   4.718  0.1997  3.1368  1.9267
 2000SOL    HW3 7733   2.717   6.065   4.585  0.3946  0.4638  0.4644
 2000SOL    MW4 7734   2.753   6.017   4.648 -0.4121  0.1179 -0.2669
 2001SOL     OW 7735   5.928   1.448   1.637 -0.2639  0.0915 -0.1276
 2001SOL    HW2 7736   5.998   1.466   1.574  0.1559 -0.0823  0.2800
 2001SOL    HW3 7737   5.871   1.525   1.632  0.5202  0.7159  0.2722
 2001SOL    MW4 7738   5.930   1.461   1.628 -0.3304 -0.4702 -0.3231
 2002SOL     OW 7739   6.374   0.286   3.081  0.2676  0.1569 -0.0421
 2002SOL    HW2 7740   6.434   0.267   3.152 -1.7320 -1.9938  1.2119
 2002SOL    HW3 7741   6.431   0.310   3.007  2.7309 -2.3837  0.8367
 2002SOL    MW4 7742   6.389   0.287   3.080 -0.5187  0.6276  0.1725
 2003SOL     OW 7743   2.677   4.317   0.403  0.3340 -0.4297  0.6052
 2003SOL    HW2 7744   2.716   4.401   0.380  0.0263 -0.0335  1.4795
 2003SOL    HW3 7745   2.712   4.256   0.339  1.4925  0.1352  0.6745
 2003SOL    MW4 7746   2.687   4.320   0.391 -0.2687 -0.0864  0.2097
 2004SOL     OW 7747   3.528   3.026   4.477  0.4945 -0.4299  0.1080
 2004SOL    HW2 7748   3.466   2.965   4.516 -0.2180  0.5608  0.5614
 2004SOL    HW3 7749   3.582   3.055   4.551 -0.1180  0.5878  0.1676
 2004SOL    MW4 7750   3.527   3.022   4.492 -0.1758 -0.0847 -0.5574
 2005SOL     OW 7751   5.237   3.639   0.531  0.4292 -0.3142  0.4801
 2005SOL    HW2 7752   5.162   3.637   0.590 -0.5121  0.5578 -0.6588
 2005SOL    HW3 7753   5.288   3.715   0.558 -0.5424  0.6935 -0.4478
 2005SOL    MW4 7754   5.234   3.648   0.542 -0.1653 -0.3932  0.2784
 2006SOL     OW 7755   3.746   5.889   3.804 -0.5629 -0.6471 -0.0519
 2006SOL    HW2 7756   3.685   5.851   3.867  0.6306 -2.6388 -0.0246
 2006SOL    HW3 7757   3.758   5.820   3.738 -2.5037  1.6417 -3.1062
 2006SOL    MW4 7758   3.739   5.875   3.803 -0.2770 -0.1449  0.3211
 2007SOL     OW 7759   2.074   2.793   0.349 -0.1166  0.4421 -0.9843
 2007SOL    HW2 7760   2.030   2.755   0.273 -1.7556  1.6696 -0.6986
 2007SOL    HW3 7761   2.049   2.737   0.422 -0.2982  0.5110 -0.9946
 2007SOL    MW4 7762   2.065   2.780   0.348  0.0175 -0.3004  0.0181
 2008SOL     OW 7763   1.354   3.353   5.807  0.3055  0.4005 -0.8444
 2008SOL    HW2 7764   1.439   3.397   5.811  0.4686  0.0444 -0.3201
 2008SOL    HW3 7765   1.313   3.387   5.727  1.6816 -0.7616 -2.1050
 2008SOL    MW4 7766   1.360   3.364   5.797  0.0208 -0.4476 -0.2028
 2009SOL     OW 7767   2.521   5.519   1.408  0.2005 -0.1504 -0.2888
 2009SOL    HW2 7768   2.463   5.568   1.351 -1.1510 -1.3937 -0.0429
 2009SOL    HW3 7769   2.466   5.491   1.481  0.9318 -1.8731 -0.3429
 2009SOL    MW4 7770   2.506   5.522   1.410 -0.9265  0.5899 -0.3381
 2010SOL     OW 7771   0.183   6.222   0.065 -0.5446  0.5192  0.1636
 2010SOL    HW2 7772   0.185   6.168  -0.014 -2.5725  1.2658 -0.4787
 2010SOL    HW3 7773   0.106   6.190   0.114 -1.0500  1.9687  0.3724
 2010SOL    MW4 7774   0.173   6.211   0.061  0.1192 -0.0183  0.6658
 2011SOL     OW 7775   5.004   0.728   5.605  0.1737  0.1587 -0.2546
 2011SOL    HW2 7776   5.040   0.640   5.602 -1.4228 -0.4956 -2.4734
 2011SOL    HW3 7777   5.047   0.774   5.533 -0.2911  0.6469 -0.2256
 2011SOL    MW4 7778   5.015   0.723   5.595  0.0158  0.3256 -0.2445
 2012SOL     OW 7779   3.248   2.502   1.003  0.8286  0.1342  0.0207
 2012SOL    HW2 7780   3.172   2.468   0.955  1.0347 -0.5116  0.1426
 2012SOL    HW3 7781   3.227   2.487   1.095  0.4798  1.2811  0.1396
 2012SOL    MW4 7782   3.235   2.495   1.008 -0.3685  0.4346  0.0001
 2013SOL     OW 7783   0.064   0.224   3.323  0.4484  0.1313  0.3775
 2013SOL    HW2 7784   0.103   0.165   3.388 -0.6449 -0.0510  0.8904
 2013SOL    HW3 7785  -0.030   0.223   3.343  0.3939  2.0322  0.3685
 2013SOL    MW4 7786   0.057   0.216   3.334 -0.6950  0.5419 -0.1559
 2014SOL     OW 7787   3.182   5.346   0.511  0.1036  0.0622 -0.0970
 2014SOL    HW2 7788   3.101   5.390   0.536 -0.0394 -0.6338  0.6927
 2014SOL    HW3 7789   3.169   5.323   0.419  0.4630  2.2430 -0.7538
 2014SOL    MW4 7790   3.170   5.349   0.502 -0.1002 -0.4381  0.0201
 2015SOL     OW 7791   5.574   2.554   3.825 -0.0479 -0.5095  0.1971
 2015SOL    HW2 7792   5.565   2.460   3.840 -2.3939 -0.4451 -0.3980
 2015SOL    HW3 7793   5.541   2.567   3.736 -0.4602  0.9624  0.5386
 2015SOL    MW4 7794   5.568   2.543   3.815  0.5025  0.3773  0.1029
 2016SOL     OW 7795   1.479   4.123   4.924 -0.2716  0.2432 -0.3160
 2016SOL    HW2 7796   1.565   4.102   4.962  0.1560 -2.0192 -2.2597
 2016SOL    HW3 7797   1.499   4.146   4.833 -1.6311  1.1312 -0.4134
 2016SOL    MW4 7798   1.493   4.123   4.917 -0.0479  0.1595 -0.3819
 2017SOL     OW 7799   1.743   3.642   3.878  0.1704  0.7052  0.3804
 2017SOL    HW2 7800   1.832   3.628   3.848 -1.1028 -0.4049 -3.5767
 2017SOL    HW3 7801   1.747   3.722   3.930  3.1717  2.0048 -1.5736
 2017SOL    MW4 7802   1.755   3.651   3.881  0.2819  0.2213  0.0887
 2018SOL     OW 7803   5.892   1.044   4.976 -0.4530  0.4178  0.6088
 2018SOL    HW2 7804   5.810   0.994   4.972 -0.1981  0.0683 -0.7110
 2018SOL    HW3 7805   5.875   1.123   4.926  0.1531  0.1335 -0.0609
 2018SOL    MW4 7806   5.879   1.048   4.969  0.2424  0.0186  0.3711
 2019SOL     OW 7807   0.817   1.974   6.066  0.1397  0.6056  0.0190
 2019SOL    HW2 7808   0.850   2.025   6.140 -0.3825  0.1014  0.6165
 2019SOL    HW3 7809   0.889   1.974   6.003  0.6027  1.0267  0.5342
 2019SOL    MW4 7810   0.831   1.981   6.067 -0.3790  0.1846 -0.1336
 2020SOL     OW 7811   1.300   3.108   4.181  0.0664  0.2193  0.4591
 2020SOL    HW2 7812   1.298   3.203   4.195  2.3067  0.1638  1.6310
 2020SOL    HW3 7813   1.387   3.091   4.143  0.2073 -1.4677  1.4258
 2020SOL    MW4 7814   1.311   3.118   4.178 -0.4247 -0.1024  0.1527
 2021SOL     OW 7815   3.810   2.279   4.242 -0.1688  0.1530 -0.5828
 2021SOL    HW2 7816   3.874   2.266   4.172 -0.1643  1.1299 -0.7766
 2021SOL    HW3 7817   3.834   2.364   4.281 -0.2827 -0.2912  0.4856
 2021SOL    MW4 7818   3.822   2.289   4.238  0.7261 -0.4467 -0.2945
 2022SOL     OW 7819   4.090   4.866   2.226 -0.2555 -0.3648  0.5883
 2022SOL    HW2 7820   4.172   4.904   2.257 -0.4028  0.8846 -0.4759
 2022SOL    HW3 7821   4.067   4.801   2.293  0.7623  0.3887  1.7162
 2022SOL    MW4 7822   4.098   4.862   2.239 -0.1766 -0.6619 -0.3139
 2023SOL     OW 7823   1.227   4.866   4.698 -0.1085  0.3647  0.1455
 2023SOL    HW2 7824   1.186   4.800   4.754 -0.1644  0.2126 -0.0726
 2023SOL    HW3 7825   1.161   4.887   4.633 -0.3012  1.0693  0.5536
 2023SOL    MW4 7826   1.213   4.860   4.697 -0.2613  0.0921 -0.5035
 2024SOL     OW 7827   0.681   3.051   1.672 -0.0455  0.4045 -0.1373
 2024SOL    HW2 7828   0.741   2.992   1.626 -0.5032 -1.1188  1.1116
 2024SOL    HW3 7829   0.736   3.125   1.699  0.6179  0.4233 -1.4639
 2024SOL    MW4 7830   0.696   3.053   1.670  0.3936  0.1248  0.1617
 2025SOL     OW 7831   5.697   1.501   2.286 -0.2314 -0.2709  0.3186
 2025SOL    HW2 7832   5.657   1.547   2.360  1.1034  0.1683  0.8127
 2025SOL    HW3 7833   5.742   1.427   2.326 -0.7481 -0.9057 -0.2514
 2025SOL    MW4 7834   5.698   1.497   2.301  0.8263 -0.1668 -0.1958
 2026SOL     OW 7835   4.727   2.875   4.543  0.5350  0.3428 -0.0133
 2026SOL    HW2 7836   4.778   2.848   4.620  0.6892 -0.3953 -0.3656
 2026SOL    HW3 7837   4.720   2.795   4.490 -1.3348  0.3179  0.2107
 2026SOL    MW4 7838   4.733   2.861   4.546  1.0843  0.4265  0.2022
 2027SOL     OW 7839   2.259   1.324   4.457 -0.2806  0.4834  0.2523
 2027SOL    HW2 7840   2.345   1.293   4.484  0.5583  1.8022 -0.7856
 2027SOL    HW3 7841   2.221   1.250   4.409  0.1275 -0.2117  0.9715
 2027SOL    MW4 7842   2.265   1.310   4.454  0.0994  0.0642 -0.1816
 2028SOL     OW 7843   6.267   5.399   1.199  0.2591 -0.4757  0.2142
 2028SOL    HW2 7844   6.328   5.473   1.199  1.2094 -1.2329  0.0370
 2028SOL    HW3 7845   6.264   5.370   1.108  0.7889 -1.3520  0.4646
 2028SOL    MW4 7846   6.275   5.405   1.187 -0.3434  0.1353 -0.5415
 2029SOL     OW 7847   4.264   4.422   2.664  0.0213  0.4018 -0.6239
 2029SOL    HW2 7848   4.212   4.349   2.631  0.0226  0.2724 -0.3427
 2029SOL    HW3 7849   4.201   4.475   2.714  0.5294 -0.8552  1.5152
 2029SOL    MW4 7850   4.249   4.419   2.666  0.3468 -0.9660  0.2988
 2030SOL     OW 7851   4.140   4.237   1.954  0.5867  0.2620  0.5473
 2030SOL    HW2 7852   4.078   4.302   1.987  0.6624  0.4641  0.2881
 2030SOL    HW3 7853   4.086   4.174   1.907  0.5928  0.5090  0.2093
 2030SOL    MW4 7854   4.125   4.237   1.952  0.5095  0.5181 -0.2487
 2031SOL     OW 7855   4.158   0.880   5.655 -0.0854  0.1241 -0.8081
 2031SOL    HW2 7856   4.099   0.943   5.697 -0.3572 -1.4510  1.3214
 2031SOL    HW3 7857   4.233   0.875   5.714 -0.4813 -2.1852 -0.4383
 2031SOL    MW4 7858   4.160   0.888   5.668  0.1022 -0.1640 -0.0755
 2032SOL     OW 7859   3.471   5.944   2.835  0.8613 -0.1806 -0.2837
 2032SOL    HW2 7860   3.503   6.006   2.900 -1.0257  0.8255 -0.2580
 2032SOL    HW3 7861   3.484   5.858   2.876  3.3731  0.1246 -0.2702
 2032SOL    MW4 7862   3.477   5.941   2.849  0.3480 -0.1211 -0.5297
 2033SOL     OW 7863   3.658   1.256   0.720 -0.8106  0.0706  0.3810
 2033SOL    HW2 7864   3.650   1.212   0.804 -2.1619  0.6723  0.5929
 2033SOL    HW3 7865   3.730   1.318   0.732  0.5979 -1.5089  0.3122
 2033SOL    MW4 7866   3.666   1.259   0.733  0.1559  0.1742 -0.0701
 2034SOL     OW 7867   5.099   4.720   1.675  0.1198  0.0413 -0.3912
 2034SOL    HW2 7868   5.135   4.699   1.761 -1.9721 -0.1380  0.4969
 2034SOL    HW3 7869   5.007   4.695   1.681 -0.2548  0.7658 -2.4296
 2034SOL    MW4 7870   5.092   4.714   1.687 -0.0596 -0.0932  0.0653
 2035SOL     OW 7871   3.414   0.838   1.369  0.9193  0.3732  0.7672
 2035SOL    HW2 7872   3.434   0.764   1.311 -0.8766  0.0014  0.5593
 2035SOL    HW3 7873   3.425   0.916   1.313 -1.4183 -0.0120 -0.3650
 2035SOL    MW4 7874   3.418   0.839   1.354 -0.1324 -1.0158  0.4422
 2036SOL     OW 7875   2.436   1.837   1.099  0.7290  0.2040 -0.0188
 2036SOL    HW2 7876   2.457   1.926   1.126 -1.2456  0.4740  0.8166
 2036SOL    HW3 7877   2.397   1.797   1.177  0.5380 -1.0076 -0.7098
 2036SOL    MW4 7878   2.433   1.844   1.113 -0.0604  0.0370  0.2891
 2037SOL     OW 7879   2.363   1.400   5.321 -0.0525 -0.0040 -0.0735
 2037SOL    HW2 7880   2.379   1.490   5.293  0.2382 -0.5655 -1.8570
 2037SOL    HW3 7881   2.269   1.388   5.310 -0.1143  0.1147  0.3056
 2037SOL    MW4 7882   2.353   1.410   5.316 -0.0266  0.2127 -0.0995
 2038SOL     OW 7883   3.576   1.583   0.884 -0.2302 -0.0773 -0.5195
 2038SOL    HW2 7884   3.537   1.499   0.909  1.5070 -1.2955 -1.6165
 2038SOL    HW3 7885   3.666   1.578   0.916  0.1582  1.0101 -1.3751
 2038SOL    MW4 7886   3.583   1.571   0.892  0.4250  0.0460 -0.0088
 2039SOL     OW 7887   1.098   6.268   1.213 -0.5389  0.4177 -0.0268
 2039SOL    HW2 7888   1.170   6.254   1.152 -0.6156  2.8997 -0.7963
 2039SOL    HW3 7889   1.090   6.185   1.260  1.1306 -0.7624 -1.6733
 2039SOL    MW4 7890   1.106   6.255   1.211 -0.0448  0.3215 -0.3792
 2040SOL     OW 7891   4.230   5.987   3.713  0.2014 -0.3372 -0.3312
 2040SOL    HW2 7892   4.146   5.960   3.750 -0.3576  2.0864  0.3850
 2040SOL    HW3 7893   4.295   5.960   3.777 -0.3210  0.0227  0.3709
 2040SOL    MW4 7894   4.227   5.980   3.726 -0.2315  0.1965 -0.0855
 2041SOL     OW 7895   5.553   1.939   2.621 -0.0508  1.1383 -0.0100
 2041SOL    HW2 7896   5.620   1.894   2.570 -0.3394 -0.6506  1.1383
 2041SOL    HW3 7897   5.586   1.939   2.710 -0.8896  1.6300  0.3131
 2041SOL    MW4 7898   5.566   1.933   2.626 -0.1070 -0.4449 -0.1429
 2042SOL     OW 7899   1.323   1.699   2.603  0.4821 -0.2387  0.1211
 2042SOL    HW2 7900   1.362   1.678   2.687 -0.1105  0.2065  0.5168
 2042SOL    HW3 7901   1.397   1.702   2.542  0.9162 -0.5259  0.6262
 2042SOL    MW4 7902   1.338   1.697   2.606  0.0885 -0.6784  0.5505
 2043SOL     OW 7903   3.397   3.120   2.312  0.1817  0.6173 -0.0426
 2043SOL    HW2 7904   3.349   3.180   2.369 -0.5573  1.2538 -1.3127
 2043SOL    HW3 7905   3.339   3.045   2.302  0.7825  0.0022  0.9197
 2043SOL    MW4 7906   3.383   3.118   2.318 -0.2735 -0.4148  0.2035
 2044SOL     OW 7907   5.367   0.660   2.279 -0.2649 -0.2131  0.2154
 2044SOL    HW2 7908   5.341   0.570   2.299 -1.0354 -0.3177 -1.0784
 2044SOL    HW3 7909   5.455   0.652   2.242 -0.3601 -0.4606  0.0351
 2044SOL    MW4 7910   5.375   0.647   2.277  0.0306 -0.6911 -0.5726
 2045SOL     OW 7911   0.640   4.301   3.517  0.9295 -0.9798 -0.2698
 2045SOL    HW2 7912   0.689   4.338   3.443 -0.9139 -1.7722 -2.0059
 2045SOL    HW3 7913   0.556   4.348   3.515  1.1347 -0.4145  1.9209
 2045SOL    MW4 7914   0.635   4.312   3.507 -0.2816 -0.2967 -0.3233
 2046SOL     OW 7915   1.692   2.106   3.641  0.2127  0.7471 -0.7528
 2046SOL    HW2 7916   1.764   2.151   3.596  1.2934  0.0197  0.2138
 2046SOL    HW3 7917   1.656   2.046   3.575  1.4106  0.0979 -0.8346
 2046SOL    MW4 7918   1.696   2.104   3.626 -0.3557 -0.2464 -0.6072
 2047SOL     OW 7919   4.596   6.082   0.210 -0.1401  0.3319 -0.4247
 2047SOL    HW2 7920   4.681   6.051   0.240 -1.1012 -2.1140 -0.0113
 2047SOL    HW3 7921   4.592   6.173   0.239  1.0392 -0.4232  2.4617
 2047SOL    MW4 7922   4.606   6.090   0.218 -0.5121 -0.4445  0.0199
 2048SOL     OW 7923   3.732   0.933   1.264 -0.9789 -0.6496 -0.2674
 2048SOL    HW2 7924   3.669   0.890   1.321 -1.5985  1.2263  0.5707
 2048SOL    HW3 7925   3.688   0.940   1.180 -1.2806 -0.7558 -0.1183
 2048SOL    MW4 7926   3.718   0.928   1.261  0.5099 -0.1329  0.6358
 2049SOL     OW 7927   2.527   6.096   2.503 -0.0947 -0.7532 -0.6112
 2049SOL    HW2 7928   2.621   6.112   2.502 -0.0059 -1.2512 -0.2002
 2049SOL    HW3 7929   2.515   6.020   2.560 -0.8522 -0.0281  0.2363
 2049SOL    MW4 7930   2.538   6.088   2.510 -0.3506  0.1533 -0.1410
 2050SOL     OW 7931   4.927   1.021   1.828  0.1080 -0.4017 -0.6262
 2050SOL    HW2 7932   5.010   1.008   1.873 -0.3201 -0.5999  0.1226
 2050SOL    HW3 7933   4.922   0.948   1.766  0.8539  0.0609 -1.2565
 2050SOL    MW4 7934   4.937   1.009   1.826  0.0966  0.4227  0.4362
 2051SOL     OW 7935   4.050   3.399   2.486 -0.1541  0.2469 -0.6667
 2051SOL    HW2 7936   4.014   3.422   2.572 -1.5092  1.4482 -1.5092
 2051SOL    HW3 7937   3.979   3.352   2.443 -0.6136  2.1811 -2.1698
 2051SOL    MW4 7938   4.036   3.396   2.492  0.0637 -0.3445  0.0161
 2052SOL     OW 7939   2.047   4.828   4.525  0.1131  0.0544 -0.1845
 2052SOL    HW2 7940   2.029   4.780   4.606 -3.1190 -0.7962 -1.2574
 2052SOL    HW3 7941   2.132   4.795   4.496  1.0480 -0.1006  2.4675
 2052SOL    MW4 7942   2.056   4.818   4.532 -0.7037 -0.2055  0.5375
 2053SOL     OW 7943   3.154   1.001   1.369 -0.0144  0.0540 -0.3600
 2053SOL    HW2 7944   3.167   0.924   1.425 -1.0537  1.2321  1.6373
 2053SOL    HW3 7945   3.152   0.966   1.280  0.8036 -2.0491  0.3845
 2053SOL    MW4 7946   3.156   0.986   1.365  0.2477  0.1923  0.1472
 2054SOL     OW 7947   2.044   3.655   0.123 -0.5446  0.0584 -0.0889
 2054SOL    HW2 7948   2.061   3.561   0.129 -1.1388  0.0001  1.0814
 2054SOL    HW3 7949   2.021   3.680   0.213  0.4192  1.4808 -0.2164
 2054SOL    MW4 7950   2.043   3.646   0.136 -0.0179 -0.1483 -0.1308
 2055SOL     OW 7951   0.272   1.079   4.151  0.3578 -0.5598 -0.7921
 2055SOL    HW2 7952   0.232   1.091   4.236 -0.1838  1.3841 -1.2774
 2055SOL    HW3 7953   0.364   1.060   4.170  0.6319  1.4894  0.2552
 2055SOL    MW4 7954   0.279   1.078   4.165 -0.2394 -0.4198 -0.1860
 2056SOL     OW 7955   1.257   0.930   4.525 -0.1085 -0.0228 -0.2774
 2056SOL    HW2 7956   1.288   0.888   4.606 -1.0992  1.2145  0.7858
 2056SOL    HW3 7957   1.198   0.865   4.486  0.9530 -0.9257 -0.4179
 2056SOL    MW4 7958   1.253   0.916   4.531 -0.6582  0.4555 -0.3500
 2057SOL     OW 7959   3.934   2.556   4.260  0.0912  0.6283  0.3463
 2057SOL    HW2 7960   3.865   2.611   4.296 -0.6865 -0.0951 -0.0038
 2057SOL    HW3 7961   3.955   2.596   4.175 -1.3619 -0.2814 -0.4950
 2057SOL    MW4 7962   3.928   2.569   4.253 -0.1716 -0.1900  0.3472
 2058SOL     OW 7963   5.481   5.646   0.824  0.6333  0.3450  0.4500
 2058SOL    HW2 7964   5.524   5.561   0.832  0.3501  0.1636  0.0933
 2058SOL    HW3 7965   5.551   5.710   0.832  0.9666  0.0545 -0.0858
 2058SOL    MW4 7966   5.496   5.643   0.826  0.0674  0.3472  0.4637
 2059SOL     OW 7967   4.912   5.348   0.058 -0.6293  0.1399 -0.2824
 2059SOL    HW2 7968   4.894   5.440   0.074 -2.9429 -0.6600  2.7245
 2059SOL    HW3 7969   5.002   5.335   0.086 -0.7940  1.2189  0.8084
 2059SOL    MW4 7970   4.921   5.358   0.064 -0.3036 -0.3017 -0.1676
 2060SOL     OW 7971   3.982   6.153   1.516 -0.0996 -0.3562  0.3869
 2060SOL    HW2 7972   3.934   6.197   1.586  0.7064  3.2833 -1.1462
 2060SOL    HW3 7973   3.915   6.130   1.451 -0.3017  0.9354  0.1113
 2060SOL    MW4 7974   3.967   6.155   1.517 -0.1954 -0.2468 -0.1976
 2061SOL     OW 7975   5.364   1.607   5.873 -0.0735  0.2878 -0.4577
 2061SOL    HW2 7976   5.435   1.671   5.884 -0.7597  0.9268  0.4837
 2061SOL    HW3 7977   5.362   1.560   5.957 -1.1376  0.6966 -0.2326
 2061SOL    MW4 7978   5.373   1.609   5.886  0.0685  0.1672  0.6747
 2062SOL     OW 7979   1.152   0.678   6.113 -0.4029  0.0713 -0.1760
 2062SOL    HW2 7980   1.212   0.604   6.104 -2.1023 -1.4620  0.4934
 2062SOL    HW3 7981   1.209   0.755   6.114  1.7293 -1.3789  2.0431
 2062SOL    MW4 7982   1.167   0.679   6.112  0.2047 -0.3022  0.5997
 2063SOL     OW 7983   5.823   5.555   2.386  0.2293  0.0094 -0.1482
 2063SOL    HW2 7984   5.795   5.593   2.303 -0.4591  1.2941  0.6443
 2063SOL    HW3 7985   5.833   5.630   2.445  1.9427 -0.7469  0.5941
 2063SOL    MW4 7986   5.821   5.570   2.383 -0.1981  0.2363 -0.1543
 2064SOL     OW 7987   1.392   1.192   4.095 -0.1309 -0.4306  0.1626
 2064SOL    HW2 7988   1.355   1.197   4.183 -0.4760 -0.4449  0.0204
 2064SOL    HW3 7989   1.484   1.216   4.106 -0.8474  2.8473  0.0871
 2064SOL    MW4 7990   1.400   1.196   4.108  0.1908  0.1197  0.5994
 2065SOL     OW 7991   5.432   0.628   4.040 -0.2780  0.2967  0.4263
 2065SOL    HW2 7992   5.468   0.650   3.954 -0.8357 -0.9220 -0.1497
 2065SOL    HW3 7993   5.494   0.665   4.102  1.5506 -1.0025 -0.5190
 2065SOL    MW4 7994   5.445   0.635   4.036  0.0930 -0.2786 -0.0875
 2066SOL     OW 7995   1.113   1.585   2.483  0.7439 -0.3711 -0.2117
 2066SOL    HW2 7996   1.164   1.506   2.463  0.6303 -0.9906  1.7169
 2066SOL    HW3 7997   1.172   1.639   2.536  0.2193  0.0248 -0.0225
 2066SOL    MW4 7998   1.128   1.582   2.488 -0.2113 -0.4126  0.5437
 2067SOL     OW 7999   0.020   2.589   2.682  0.1396  0.3241 -0.4496
 2067SOL    HW2 8000  -0.012   2.574   2.770 -1.9412  0.0441 -1.1919
 2067SOL    HW3 8001   0.027   2.685   2.675 -3.4636  0.6963 -1.0880
 2067SOL    MW4 8002   0.016   2.600   2.693  0.1396 -0.1397  0.4197
 2068SOL     OW 8003   2.445   3.073   0.411  0.2622 -1.2281 -0.6394
 2068SOL    HW2 8004   2.369   3.050   0.465 -1.1767 -0.6386 -2.3369
 2068SOL    HW3 8005   2.503   3.119   0.472 -1.6464  0.1305  0.2925
 2068SOL    MW4 8006   2.443   3.076   0.426  0.1392  0.1517  0.6276
 2069SOL     OW 8007   2.981   2.027   5.952  0.7164 -0.6648  0.0273
 2069SOL    HW2 8008   2.929   1.948   5.936 -0.1308  0.2358 -1.9851
 2069SOL    HW3 8009   2.946   2.091   5.891  1.7430  1.1353  1.2484
 2069SOL    MW4 8010   2.969   2.025   5.942  0.1658  0.1547 -0.6994
 2070SOL     OW 8011   5.518   3.970   3.073  0.0856 -0.9295 -0.2834
 2070SOL    HW2 8012   5.504   3.949   2.981 -0.1562 -0.7110 -0.2979
 2070SOL    HW3 8013   5.495   3.890   3.121  0.6240 -1.1837 -0.4401
 2070SOL    MW4 8014   5.513   3.957   3.067 -0.3745  0.0805 -0.1943
 2071SOL     OW 8015   0.080   4.131   0.041  0.3318  0.4894  0.7338
 2071SOL    HW2 8016   0.135   4.104   0.114  2.6388 -0.0192 -1.0839
 2071SOL    HW3 8017   0.081   4.227   0.044 -0.7281  0.4833  2.1163
 2071SOL    MW4 8018   0.087   4.140   0.051 -0.3256 -0.4415 -0.1894
 2072SOL     OW 8019   4.238   2.631  -0.013  0.1326 -0.2470  0.1208
 2072SOL    HW2 8020   4.295   2.558  -0.039 -0.1427 -0.3716 -0.1354
 2072SOL    HW3 8021   4.282   2.669   0.063  0.2373 -0.7350  0.3085
 2072SOL    MW4 8022   4.251   2.626  -0.006 -0.1701  0.0968  0.0390
 2073SOL     OW 8023   0.094   0.803   2.086  0.5396  0.4659  0.5828
 2073SOL    HW2 8024   0.087   0.867   2.014 -1.6198  1.4531  1.5854
 2073SOL    HW3 8025   0.171   0.831   2.135  1.9949 -0.1525 -1.1913
 2073SOL    MW4 8026   0.104   0.815   2.083 -0.5184 -0.2110 -0.1289
 2074SOL     OW 8027   6.356   3.051   4.387  0.2504 -0.2272 -0.1130
 2074SOL    HW2 8028   6.289   3.085   4.329 -0.4476  0.3022  0.9706
 2074SOL    HW3 8029   6.322   2.967   4.418  0.7583 -0.6564 -0.6825
 2074SOL    MW4 8030   6.343   3.044   4.384 -0.4871  0.8744 -0.5593
 2075SOL     OW 8031   1.744   0.858   2.591  0.6277 -0.3594  0.0079
 2075SOL    HW2 8032   1.760   0.878   2.499  0.9866 -1.6100 -0.2219
 2075SOL    HW3 8033   1.649   0.850   2.598  0.6919 -3.0516 -0.9253
 2075SOL    MW4 8034   1.734   0.859   2.580  0.3832  0.3677 -0.5370
 2076SOL     OW 8035   4.714   5.093   4.249  0.3578  0.3220  0.6493
 2076SOL    HW2 8036   4.623   5.071   4.267  0.5879 -0.5362  0.8149
 2076SOL    HW3 8037   4.727   5.178   4.292 -0.7111  1.0914 -0.5058
 2076SOL    MW4 8038   4.704   5.101   4.257 -0.1333 -0.1102 -0.1637
 2077SOL     OW 8039   3.755   3.597   2.468  0.7252 -0.6752  0.1324
 2077SOL    HW2 8040   3.716   3.509   2.474 -1.5862  0.3299  0.9525
 2077SOL    HW3 8041   3.717   3.634   2.388  1.5605 -0.3305 -0.1151
 2077SOL    MW4 8042   3.745   3.590   2.458 -0.3006 -0.2489 -1.0489
 2078SOL     OW 8043   5.807   3.981   3.071 -0.5616  0.0452 -0.1826
 2078SOL    HW2 8044   5.715   3.977   3.098  0.0532  1.6895  2.5156
 2078SOL    HW3 8045   5.814   4.064   3.023 -0.5339 -0.2869 -0.7687
 2078SOL    MW4 8046   5.796   3.991   3.068 -0.1810  0.4710 -0.2769
 2079SOL     OW 8047   0.334   2.339   0.550  0.4072 -0.2123 -0.0652
 2079SOL    HW2 8048   0.332   2.251   0.587 -1.6402 -0.1318  0.1005
 2079SOL    HW3 8049   0.328   2.326   0.456  3.1367 -0.3085 -0.3183
 2079SOL    MW4 8050   0.333   2.326   0.543 -0.6339 -0.1325  0.0805
 2080SOL     OW 8051   1.565   2.177   1.033 -0.6760 -0.0098 -0.0036
 2080SOL    HW2 8052   1.528   2.250   0.984  0.0767 -0.6459 -1.5767
 2080SOL    HW3 8053   1.660   2.187   1.023 -0.5552 -1.8037 -1.2505
 2080SOL    MW4 8054   1.573   2.188   1.025  0.5169  0.0336 -0.1836
 2081SOL     OW 8055   6.433   4.069   1.368  0.2290 -0.0131  0.6878
 2081SOL    HW2 8056   6.340   4.046   1.366  0.3673 -0.5431 -0.1839
 2081SOL    HW3 8057   6.440   4.149   1.316  0.3581 -0.3690  0.1512
 2081SOL    MW4 8058   6.422   4.077   1.361  0.1063 -0.2848  0.5913
 2082SOL     OW 8059   0.501   1.235   2.216  0.2510 -0.5715 -0.6334
 2082SOL    HW2 8060   0.455   1.233   2.300  0.4421  0.1847 -0.5008
 2082SOL    HW3 8061   0.592   1.214   2.238  0.2782 -0.4896 -0.6668
 2082SOL    MW4 8062   0.507   1.232   2.230  0.0139 -0.0671  0.1791
 2083SOL     OW 8063   2.777   4.884   5.823 -0.4028  0.3447  0.5291
 2083SOL    HW2 8064   2.870   4.905   5.833  0.2974 -0.8830 -2.3230
 2083SOL    HW3 8065   2.731   4.964   5.847  1.5737  1.9720 -0.7950
 2083SOL    MW4 8066   2.783   4.897   5.828 -0.1923 -0.0203 -0.1453
 2084SOL     OW 8067   3.133   1.168   3.374  0.5748 -0.2819 -0.3015
 2084SOL    HW2 8068   3.163   1.204   3.458  0.8734  0.0388 -0.5426
 2084SOL    HW3 8069   3.209   1.121   3.340  0.5667 -0.1137 -0.5549
 2084SOL    MW4 8070   3.147   1.167   3.381 -0.0368 -0.3764 -0.4102
 2085SOL     OW 8071   1.630   6.093   0.503  0.5639  0.0367 -0.1444
 2085SOL    HW2 8072   1.676   6.130   0.427  0.1746  1.5638  0.3235
 2085SOL    HW3 8073   1.698   6.043   0.549  1.5533  1.4293 -0.0015
 2085SOL    MW4 8074   1.645   6.091   0.499  0.0050 -0.1637 -0.1127
 2086SOL     OW 8075   1.366   0.279   3.929 -0.3151  0.0919 -0.2668
 2086SOL    HW2 8076   1.418   0.349   3.968 -0.3667 -0.7032  1.3427
 2086SOL    HW3 8077   1.402   0.267   3.842  1.5481  0.2335  0.4439
 2086SOL    MW4 8078   1.377   0.287   3.923 -0.0742 -0.2913 -0.0673
 2087SOL     OW 8079   2.047   0.545   4.301 -0.2974  0.7848  0.0943
 2087SOL    HW2 8080   2.130   0.546   4.255 -0.6063  0.2617 -0.4822
 2087SOL    HW3 8081   2.050   0.466   4.356 -1.3392 -0.5711 -1.6915
 2087SOL    MW4 8082   2.058   0.535   4.302 -0.0762  0.0922  0.1905
 2088SOL     OW 8083   1.647   6.341   3.856  0.1040  0.6047 -0.1992
 2088SOL    HW2 8084   1.576   6.336   3.919 -0.9319  1.9610 -1.1912
 2088SOL    HW3 8085   1.726   6.345   3.909 -0.2282 -3.5305  0.9233
 2088SOL    MW4 8086   1.648   6.341   3.871 -0.3713  0.1726 -0.0254
 2089SOL     OW 8087   4.955   4.152   0.869 -0.2412  0.5155 -0.2995
 2089SOL    HW2 8088   4.954   4.221   0.803  0.3269 -0.4019 -1.2839
 2089SOL    HW3 8089   5.023   4.092   0.840 -1.2244 -0.8547  0.1423
 2089SOL    MW4 8090   4.964   4.153   0.857 -0.0950  0.1711  0.5090
 2090SOL     OW 8091   6.009   3.884   0.897  0.3497  0.4814  0.5846
 2090SOL    HW2 8092   6.076   3.924   0.841 -1.3314  1.3345 -0.9215
 2090SOL    HW3 8093   5.981   3.955   0.956  1.1214 -0.0293  1.6080
 2090SOL    MW4 8094   6.014   3.899   0.898  0.6485 -0.8355 -0.0229
 2091SOL     OW 8095   2.430   2.741   2.402 -0.6266 -0.4326 -0.1488
 2091SOL    HW2 8096   2.408   2.654   2.436  1.0845 -0.5533  0.7849
 2091SOL    HW3 8097   2.369   2.755   2.330 -0.9857 -2.3927 -0.2839
 2091SOL    MW4 8098   2.419   2.731   2.397  0.8447 -0.6315  0.0889
 2092SOL     OW 8099   4.199   4.932   2.782 -0.5303 -0.1148  0.2568
 2092SOL    HW2 8100   4.248   4.996   2.834 -1.0631 -1.3874  2.4894
 2092SOL    HW3 8101   4.114   4.973   2.768  0.2091  0.9907 -1.2799
 2092SOL    MW4 8102   4.194   4.946   2.787 -0.2490  0.3090 -0.3157
 2093SOL     OW 8103   4.331   4.306   3.686  0.1312  0.0179 -0.1497
 2093SOL    HW2 8104   4.404   4.244   3.692 -0.5059 -0.7502 -0.1129
 2093SOL    HW3 8105   4.336   4.340   3.596 -0.8300 -1.7975 -0.9516
 2093SOL    MW4 8106   4.342   4.302   3.675 -0.5000 -0.0565 -0.0491
 2094SOL     OW 8107   1.240   4.586   3.076 -0.5565 -0.4089 -0.5510
 2094SOL    HW2 8108   1.167   4.619   3.023 -0.6535  1.8387  0.8696
 2094SOL    HW3 8109   1.202   4.569   3.162  0.4025 -0.1288 -0.0543
 2094SOL    MW4 8110   1.225   4.588   3.080 -0.2631 -0.1283 -0.2011
 2095SOL     OW 8111   1.910   1.327   0.831 -0.5375 -0.1859  0.4690
 2095SOL    HW2 8112   1.924   1.416   0.864 -0.2931 -0.0375 -0.0109
 2095SOL    HW3 8113   1.970   1.273   0.882 -0.7360 -0.0843  0.8104
 2095SOL    MW4 8114   1.920   1.332   0.842 -0.5093 -0.1391 -1.1161
 2096SOL     OW 8115   5.727   2.286   3.309  0.0099 -0.5957 -0.2119
 2096SOL    HW2 8116   5.792   2.217   3.323 -0.2045 -0.8799 -0.5777
 2096SOL    HW3 8117   5.729   2.339   3.388 -1.2801 -2.2205  0.9706
 2096SOL    MW4 8118   5.736   2.284   3.321 -0.2734 -0.3643  0.0745
 2097SOL     OW 8119   6.158   3.149   0.998 -0.5493  0.0913 -0.4485
 2097SOL    HW2 8120   6.204   3.163   1.080  1.3809  0.8616 -1.6089
 2097SOL    HW3 8121   6.217   3.094   0.945 -1.0559  0.8536 -1.8697
 2097SOL    MW4 8122   6.172   3.143   1.002  0.2229 -0.1933  0.0845
 2098SOL     OW 8123   3.052   5.572   3.089 -0.2175 -0.2704 -0.4150
 2098SOL    HW2 8124   2.984   5.521   3.043 -1.6389  0.8923  0.3180
 2098SOL    HW3 8125   3.013   5.658   3.101  0.7235 -0.0776  1.5890
 2098SOL    MW4 8126   3.038   5.577   3.084 -0.1610  0.2306 -0.0265
 2099SOL     OW 8127   3.284   0.980   3.216  0.1665  0.7151 -0.1681
 2099SOL    HW2 8128   3.261   0.899   3.171  0.1086  1.3325 -1.2804
 2099SOL    HW3 8129   3.354   1.017   3.164 -1.3723  2.5520 -1.0423
 2099SOL    MW4 8130   3.290   0.974   3.203  0.3866 -0.1463 -0.0047
 2100SOL     OW 8131   3.965   1.166   6.302 -0.5887  0.2043 -0.2202
 2100SOL    HW2 8132   3.920   1.081   6.297  0.7263 -0.4692 -1.2826
 2100SOL    HW3 8133   3.954   1.194   6.392  1.3213 -2.4777  0.9764
 2100SOL    MW4 8134   3.958   1.158   6.313 -0.0470  0.3025  0.4612
 2101SOL     OW 8135   0.360   5.966   5.969  0.2451  0.1453 -0.2887
 2101SOL    HW2 8136   0.394   6.020   6.040  2.2735  0.0382 -1.1157
 2101SOL    HW3 8137   0.319   6.028   5.909  0.5509  0.4932 -0.1366
 2101SOL    MW4 8138   0.359   5.981   5.970  0.0424 -0.6556 -0.6935
 2102SOL     OW 8139   0.415   6.092   0.741  0.0127  0.2241 -0.1893
 2102SOL    HW2 8140   0.430   6.186   0.731 -1.9752  0.5613 -0.4969
 2102SOL    HW3 8141   0.324   6.085   0.769  0.2051 -1.6123  0.1121
 2102SOL    MW4 8142   0.405   6.104   0.743 -0.7657  0.3410  0.1459
 2103SOL     OW 8143   4.089   2.621   5.915  0.4240  0.2255 -0.4451
 2103SOL    HW2 8144   4.112   2.671   5.994 -1.2790  0.3946 -0.0204
 2103SOL    HW3 8145   4.136   2.666   5.845  1.4870  0.4451  0.3752
 2103SOL    MW4 8146   4.098   2.634   5.917 -0.5077  0.1222  0.4189
 2104SOL     OW 8147   4.981   5.608   1.330 -0.0056 -0.8326 -0.4719
 2104SOL    HW2 8148   4.966   5.530   1.383 -0.0753 -0.5127 -0.0157
 2104SOL    HW3 8149   5.025   5.670   1.389  1.3568 -1.0360 -1.2251
 2104SOL    MW4 8150   4.985   5.606   1.344 -0.1411  0.1875 -0.4270
 2105SOL     OW 8151   2.311   4.409   6.086 -0.4408  0.1755 -0.7448
 2105SOL    HW2 8152   2.349   4.469   6.150 -1.1085 -1.0205  0.8471
 2105SOL    HW3 8153   2.384   4.386   6.028  0.4216  0.6035  0.1400
 2105SOL    MW4 8154   2.326   4.414   6.086 -0.3262  0.4503  0.3113
 2106SOL     OW 8155   0.698   3.819   5.380  0.1482  0.0432  0.2232
 2106SOL    HW2 8156   0.671   3.749   5.321  1.0466 -0.3474  0.2679
 2106SOL    HW3 8157   0.737   3.885   5.323  0.8978 -0.2767  0.3622
 2106SOL    MW4 8158   0.699   3.818   5.365 -0.0653  0.0751  0.5163
 2107SOL     OW 8159   6.353   5.611   3.504 -1.0607 -0.2492 -0.2351
 2107SOL    HW2 8160   6.364   5.548   3.575 -2.4624  0.9191  1.1112
 2107SOL    HW3 8161   6.381   5.565   3.425  0.2833 -1.6973  1.0193
 2107SOL    MW4 8162   6.358   5.597   3.503 -0.4127  0.0366  0.1989
 2108SOL     OW 8163   1.466   3.959   1.565 -0.3470  0.1158 -0.8941
 2108SOL    HW2 8164   1.547   3.977   1.613 -0.4670 -0.8248 -0.3038
 2108SOL    HW3 8165   1.398   3.958   1.633 -1.2080  2.8016 -1.5958
 2108SOL    MW4 8166   1.468   3.961   1.580  0.2412  0.1767 -0.4678
 2109SOL     OW 8167   0.851   2.656   5.298  0.7283 -0.1025 -0.2216
 2109SOL    HW2 8168   0.926   2.658   5.357  1.8641 -1.2865 -1.5844
 2109SOL    HW3 8169   0.796   2.585   5.332  0.0846  0.8795  0.8810
 2109SOL    MW4 8170   0.853   2.647   5.310  0.0189  0.3169  0.4078
 2110SOL     OW 8171   1.203   3.905   3.542 -0.0643  0.6104  0.7218
 2110SOL    HW2 8172   1.206   3.984   3.488  1.4034  1.6821  2.2769
 2110SOL    HW3 8173   1.269   3.848   3.504 -1.4668 -0.1374 -0.7087
 2110SOL    MW4 8174   1.212   3.908   3.530  0.1593 -0.3290  0.1210
 2111SOL     OW 8175   5.006   4.918   1.487  0.4024  0.1324 -0.1240
 2111SOL    HW2 8176   5.044   4.859   1.552  4.9393  1.8111 -0.9396
 2111SOL    HW3 8177   4.945   4.862   1.438 -0.4575 -2.0757  3.0962
 2111SOL    MW4 8178   5.003   4.903   1.489 -0.4102  0.4360 -0.0087
 2112SOL     OW 8179   0.405   1.157   0.537  0.5910  0.3325 -0.0647
 2112SOL    HW2 8180   0.463   1.149   0.613  0.8120 -0.3643 -0.2943
 2112SOL    HW3 8181   0.445   1.225   0.484  0.7808  0.3914  0.1505
 2112SOL    MW4 8182   0.418   1.165   0.540 -0.2950  0.3748 -0.0555
 2113SOL     OW 8183   1.973   3.983   0.922  0.5688 -0.0689  0.0549
 2113SOL    HW2 8184   1.988   3.890   0.942 -0.7223 -0.0996  1.0403
 2113SOL    HW3 8185   1.917   3.982   0.845 -0.6826 -0.1826  0.9330
 2113SOL    MW4 8186   1.967   3.970   0.915  0.3365 -0.5366 -0.1369
 2114SOL     OW 8187   6.169   3.677   5.632  0.0916  0.0895 -0.0764
 2114SOL    HW2 8188   6.177   3.617   5.558 -2.3662 -1.2497  0.6297
 2114SOL    HW3 8189   6.114   3.749   5.600  0.2144  0.2423  0.0476
 2114SOL    MW4 8190   6.163   3.679   5.618  0.4852 -0.2247  0.2459
 2115SOL     OW 8191   1.395   2.592   2.300  0.9024  0.0754  0.0217
 2115SOL    HW2 8192   1.364   2.625   2.215  0.9562  0.7390  0.2542
 2115SOL    HW3 8193   1.336   2.631   2.364  2.0119  1.1261  0.4441
 2115SOL    MW4 8194   1.384   2.602   2.297  0.5805  0.1823  0.2194
 2116SOL     OW 8195   2.266   1.948   2.318  0.1683 -0.0958 -0.2889
 2116SOL    HW2 8196   2.205   1.876   2.333  0.3399 -0.2759 -0.4428
 2116SOL    HW3 8197   2.278   1.950   2.223  0.2616  0.0542 -0.2742
 2116SOL    MW4 8198   2.260   1.939   2.307 -0.3570  0.0974 -0.5096
 2117SOL     OW 8199   0.289   4.566   1.034 -0.3685 -0.2256  0.8034
 2117SOL    HW2 8200   0.293   4.662   1.025  0.3741 -0.3286 -0.2626
 2117SOL    HW3 8201   0.230   4.538   0.964  0.4625 -0.6275  0.2441
 2117SOL    MW4 8202   0.282   4.575   1.023  0.4216 -0.4454 -0.1213
 2118SOL     OW 8203   4.780   4.170   2.001  0.1679 -0.4995 -0.0246
 2118SOL    HW2 8204   4.788   4.228   1.925  0.8603  0.5802  0.8380
 2118SOL    HW3 8205   4.759   4.085   1.964  0.4443  0.0096 -1.4258
 2118SOL    MW4 8206   4.778   4.167   1.986 -0.5499 -0.0697 -0.0157
 2119SOL     OW 8207   3.952   4.343   4.204  0.6476 -0.0206 -0.4012
 2119SOL    HW2 8208   3.857   4.331   4.204  0.4854  1.0574  0.7341
 2119SOL    HW3 8209   3.965   4.436   4.191  1.5550 -0.1628 -0.5849
 2119SOL    MW4 8210   3.941   4.353   4.202  0.1563 -0.4988  0.5114
 2120SOL     OW 8211   1.977   5.493   0.341  0.1885  0.0823  0.2962
 2120SOL    HW2 8212   2.052   5.434   0.332  2.0473  2.4045 -0.6409
 2120SOL    HW3 8213   1.998   5.546   0.418 -1.4004 -0.3680  1.0793
 2120SOL    MW4 8214   1.990   5.492   0.350 -0.0560  0.4282 -0.3686
 2121SOL     OW 8215   3.182   5.398   2.208  0.1121 -0.2581 -0.4367
 2121SOL    HW2 8216   3.254   5.379   2.148  1.5331  0.3287  0.9888
 2121SOL    HW3 8217   3.194   5.336   2.280 -0.0379  0.6645  0.4072
 2121SOL    MW4 8218   3.193   5.388   2.210 -0.4819  0.5718  0.1947
 2122SOL     OW 8219   2.025   6.312   3.201  0.1466 -0.2162 -0.0623
 2122SOL    HW2 8220   2.024   6.219   3.178 -2.1740 -0.3541  0.2993
 2122SOL    HW3 8221   1.989   6.356   3.124 -2.2936 -0.0882  1.0340
 2122SOL    MW4 8222   2.020   6.306   3.188  0.2358 -0.1648 -0.9014
 2123SOL     OW 8223   0.072   2.374   0.227 -0.2442 -0.2846 -0.1823
 2123SOL    HW2 8224   0.065   2.460   0.186  1.5949 -0.5339 -1.1290
 2123SOL    HW3 8225  -0.008   2.328   0.201 -0.7603  0.7854 -0.5349
 2123SOL    MW4 8226   0.061   2.379   0.218  0.0992  1.1927  0.0178
 2124SOL     OW 8227   0.877   3.642   1.014  0.4060 -0.3601  0.5243
 2124SOL    HW2 8228   0.836   3.561   0.984 -2.2420  1.3634 -0.8193
 2124SOL    HW3 8229   0.834   3.661   1.097  1.6986 -0.7420  1.3174
 2124SOL    MW4 8230   0.866   3.634   1.021  0.6162  0.0964  0.0911
 2125SOL     OW 8231   3.258   4.972   0.571  0.5836 -0.6612 -0.2214
 2125SOL    HW2 8232   3.207   4.959   0.491  0.5327 -0.6822 -0.1855
 2125SOL    HW3 8233   3.338   5.017   0.542  1.5039 -2.4413 -0.5900
 2125SOL    MW4 8234   3.262   4.976   0.557  0.0789  0.4796 -0.1857
 2126SOL     OW 8235   0.908   1.696   1.089  0.3069  0.2434  0.0772
 2126SOL    HW2 8236   0.877   1.700   0.998  0.8652 -0.5946 -0.1565
 2126SOL    HW3 8237   0.854   1.628   1.129  0.3604  0.3046  0.2513
 2126SOL    MW4 8238   0.897   1.687   1.082  0.7054 -0.1311  0.7822
 2127SOL     OW 8239   1.204   2.387   1.587  0.1382 -0.1827  0.1820
 2127SOL    HW2 8240   1.246   2.406   1.671 -1.0008 -0.8320  0.9244
 2127SOL    HW3 8241   1.175   2.296   1.595 -1.3526  0.2235 -0.3102
 2127SOL    MW4 8242   1.206   2.377   1.599  0.8388  0.5503 -0.1202
 2128SOL     OW 8243   5.048   2.082   4.880 -0.2757 -0.0531 -0.0012
 2128SOL    HW2 8244   5.101   2.011   4.919  0.8541 -0.2214 -1.7200
 2128SOL    HW3 8245   5.112   2.148   4.855 -1.1495  0.8052 -0.0149
 2128SOL    MW4 8246   5.064   2.081   4.882  0.0030  0.2776 -0.2614
 2129SOL     OW 8247   5.485   2.924   2.205  0.1517  0.5590 -0.0452
 2129SOL    HW2 8248   5.464   2.997   2.147 -0.7485  1.3598  1.2303
 2129SOL    HW3 8249   5.471   2.846   2.152 -1.9316  1.2204 -0.5391
 2129SOL    MW4 8250   5.480   2.923   2.190 -0.2385  0.1092  0.4456
 2130SOL     OW 8251   6.058   0.645   3.420  0.3085  0.2853  0.2781
 2130SOL    HW2 8252   5.974   0.669   3.381  0.5726 -0.2463 -0.6535
 2130SOL    HW3 8253   6.036   0.581   3.488  0.1031 -1.9755 -1.7593
 2130SOL    MW4 8254   6.044   0.639   3.424  0.6961  0.0375 -0.7910
 2131SOL     OW 8255   1.694   5.844   2.497 -0.0414 -0.3595 -0.2500
 2131SOL    HW2 8256   1.677   5.797   2.578 -1.1017 -0.5845 -0.5888
 2131SOL    HW3 8257   1.611   5.842   2.450  0.3104  0.5586 -0.9388
 2131SOL    MW4 8258   1.681   5.838   2.501 -0.4133  0.3313  0.5262
 2132SOL     OW 8259   4.688   5.100   5.659 -0.4572  0.6503 -0.1684
 2132SOL    HW2 8260   4.608   5.055   5.634 -0.1804  0.4643 -0.7192
 2132SOL    HW3 8261   4.671   5.192   5.638 -0.4715  0.5892 -0.4288
 2132SOL    MW4 8262   4.675   5.107   5.653  0.5722 -0.2542  0.0517
 2133SOL     OW 8263   6.385   0.880   4.427 -0.0922  0.1764  0.1980
 2133SOL    HW2 8264   6.291   0.896   4.424 -0.0523  0.9603  1.9435
 2133SOL    HW3 8265   6.417   0.912   4.343 -1.2282  1.0193  0.0623
 2133SOL    MW4 8266   6.377   0.886   4.415 -0.2592 -0.6633 -0.4235
 2134SOL     OW 8267   5.984   5.509   6.391 -0.0400  0.1257 -0.0172
 2134SOL    HW2 8268   6.028   5.536   6.310 -0.7767 -0.6685 -0.7052
 2134SOL    HW3 8269   6.006   5.417   6.401  0.5176  0.3598  1.0206
 2134SOL    MW4 8270   5.992   5.500   6.382 -0.0427 -0.0542 -0.3338
 2135SOL     OW 8271   2.887   0.482   1.713  0.5206  0.3526  0.2100
 2135SOL    HW2 8272   2.796   0.487   1.741  0.5605  1.1769  0.2176
 2135SOL    HW3 8273   2.895   0.397   1.670  0.0222 -0.1884  1.1640
 2135SOL    MW4 8274   2.876   0.472   1.711  0.3640  0.0673 -0.6826
 2136SOL     OW 8275   5.583   3.728   3.699  0.0244  0.0958 -0.4174
 2136SOL    HW2 8276   5.569   3.636   3.677  0.1641 -0.3211  1.1519
 2136SOL    HW3 8277   5.670   3.731   3.737  0.8905  1.2571 -2.3452
 2136SOL    MW4 8278   5.592   3.716   3.701 -0.4258  0.3658 -0.2399
 2137SOL     OW 8279   4.157   0.398   0.587  0.0807  0.5424  0.1264
 2137SOL    HW2 8280   4.236   0.367   0.631  0.5437  0.9177 -0.4366
 2137SOL    HW3 8281   4.158   0.493   0.600 -0.1869  0.5683 -0.0340
 2137SOL    MW4 8282   4.167   0.407   0.595 -0.4260 -0.0606  0.5822
 2138SOL     OW 8283   3.191   3.759   1.601 -0.2872 -0.5738 -0.1046
 2138SOL    HW2 8284   3.209   3.851   1.585 -0.3217 -0.3773  0.9345
 2138SOL    HW3 8285   3.221   3.715   1.521 -2.2922  0.5267 -1.5358
 2138SOL    MW4 8286   3.197   3.765   1.588  0.2322 -0.1496  0.0334
 2139SOL     OW 8287   0.102   3.213   4.017 -0.4269 -0.1296 -0.3320
 2139SOL    HW2 8288   0.058   3.159   4.083 -0.4822 -0.0179 -0.2772
 2139SOL    HW3 8289   0.064   3.300   4.028 -1.2169 -0.3405 -1.2170
 2139SOL    MW4 8290   0.091   3.217   4.027 -0.0666 -0.1779  0.1336
 2140SOL     OW 8291   1.950   3.801   4.717  0.5503  0.5037 -0.3423
 2140SOL    HW2 8292   1.947   3.896   4.729  1.2999  0.5000 -0.0341
 2140SOL    HW3 8293   1.880   3.767   4.772  0.7503  0.8298  0.1169
 2140SOL    MW4 8294   1.941   3.809   4.726 -0.5847  0.3015 -0.6090
 2141SOL     OW 8295   3.049   4.383   2.103  0.0072 -0.0137 -0.1939
 2141SOL    HW2 8296   3.135   4.348   2.123 -0.0928 -1.0497 -1.4714
 2141SOL    HW3 8297   3.002   4.381   2.186 -0.2958 -3.8425 -0.3030
 2141SOL    MW4 8298   3.054   4.378   2.116  0.6216  0.8920 -0.1633
 2142SOL     OW 8299   2.596   6.371   1.930 -0.3713 -0.8206  0.3955
 2142SOL    HW2 8300   2.643   6.319   1.864  1.7335  0.3019  0.9289
 2142SOL    HW3 8301   2.647   6.362   2.009  0.3948  2.3869  0.4026
 2142SOL    MW4 8302   2.609   6.363   1.931  0.2895 -0.0281  0.5582
 2143SOL     OW 8303   5.745   6.090   4.484 -0.3684 -0.3571  0.7352
 2143SOL    HW2 8304   5.652   6.078   4.504 -0.3914 -2.1160 -0.2418
 2143SOL    HW3 8305   5.781   6.001   4.486  0.8768  0.0888 -0.8252
 2143SOL    MW4 8306   5.737   6.076   4.487  0.6921 -0.4646 -0.3515
 2144SOL     OW 8307   5.370   0.143   5.399  0.5539 -0.0446 -0.0020
 2144SOL    HW2 8308   5.357   0.068   5.457 -0.7957 -1.3421 -1.8427
 2144SOL    HW3 8309   5.282   0.164   5.367  0.9414  2.1764  0.2373
 2144SOL    MW4 8310   5.357   0.136   5.402  0.1034  1.2615  0.8980
 2145SOL     OW 8311   4.771   0.480   3.884 -0.6808 -0.2869  0.1062
 2145SOL    HW2 8312   4.675   0.475   3.886 -0.6806 -0.1935  1.5627
 2145SOL    HW3 8313   4.791   0.573   3.881 -0.6229 -0.3032 -0.0636
 2145SOL    MW4 8314   4.761   0.491   3.884  0.1480  0.6242  0.3243
 2146SOL     OW 8315   0.117   5.964   1.094 -0.4939 -0.2080  0.0704
 2146SOL    HW2 8316   0.150   6.008   1.172 -1.0589 -1.4564  1.0521
 2146SOL    HW3 8317   0.191   5.912   1.063 -0.1246  0.6529 -0.5188
 2146SOL    MW4 8318   0.131   5.963   1.100  0.2457  0.2660  0.3557
 2147SOL     OW 8319   4.008   0.170   3.488 -0.2072 -0.4981  0.1201
 2147SOL    HW2 8320   3.998   0.227   3.411 -0.8155 -1.6904 -0.7130
 2147SOL    HW3 8321   3.938   0.105   3.478  0.1031 -1.0346  1.3672
 2147SOL    MW4 8322   3.997   0.169   3.476 -0.1478 -0.1977 -0.2302
 2148SOL     OW 8323   2.815   3.267   4.653 -0.0363  0.0496  0.1803
 2148SOL    HW2 8324   2.731   3.311   4.642 -0.9863 -0.4943  3.7567
 2148SOL    HW3 8325   2.863   3.324   4.713  2.0462  0.1240 -1.4554
 2148SOL    MW4 8326   2.810   3.280   4.660  0.1376 -0.1596  0.5046
 2149SOL     OW 8327   3.541   0.924   0.157  0.1813  0.0983 -0.4228
 2149SOL    HW2 8328   3.607   0.857   0.173 -0.4288 -0.3293  0.3692
 2149SOL    HW3 8329   3.489   0.889   0.084  0.2774  0.0146 -0.4509
 2149SOL    MW4 8330   3.543   0.910   0.149 -0.0720  0.5729 -0.7712
 2150SOL     OW 8331   5.077   0.357   6.278 -0.1398  0.2871  0.4308
 2150SOL    HW2 8332   5.123   0.436   6.306  0.4056 -0.1146  0.6909
 2150SOL    HW3 8333   5.114   0.337   6.192 -0.7477  0.6781  0.0705
 2150SOL    MW4 8334   5.088   0.365   6.271  0.0019  0.4089 -0.0215
 2151SOL     OW 8335   5.167   6.056   3.874  0.2723 -0.7143 -0.1243
 2151SOL    HW2 8336   5.076   6.039   3.897  0.8692 -2.1988  1.3286
 2151SOL    HW3 8337   5.191   5.983   3.817 -0.0933  0.9505 -2.5410
 2151SOL    MW4 8338   5.159   6.044   3.870 -0.4960  0.7259  0.0961
 2152SOL     OW 8339   3.518   0.855   5.871  0.0594 -0.0196  0.4618
 2152SOL    HW2 8340   3.476   0.931   5.911  0.2258  1.2580 -1.5918
 2152SOL    HW3 8341   3.449   0.815   5.818  0.5124  0.0273 -0.1797
 2152SOL    MW4 8342   3.504   0.860   5.869  0.0274  0.2723  0.3475
 2153SOL     OW 8343   5.560   5.728   1.172  0.1026  0.0090 -0.4840
 2153SOL    HW2 8344   5.617   5.661   1.134  2.7706  1.0300  1.4774
 2153SOL    HW3 8345   5.558   5.708   1.265 -0.7611  1.4476 -0.1713
 2153SOL    MW4 8346   5.567   5.716   1.179 -0.8531 -0.1530  0.2623
 2154SOL     OW 8347   1.894   1.971   0.543 -0.3318 -0.0238 -0.2406
 2154SOL    HW2 8348   1.947   1.908   0.591 -0.3530 -1.2958 -1.7971
 2154SOL    HW3 8349   1.812   1.975   0.592 -1.1932 -2.9275 -1.1814
 2154SOL    MW4 8350   1.890   1.963   0.556 -0.2953  0.2129  0.6794
 2155SOL     OW 8351   5.901   0.006   3.688 -0.3076  0.3752 -0.2090
 2155SOL    HW2 8352   5.914  -0.025   3.599  0.8384 -3.4192  1.1075
 2155SOL    HW3 8353   5.899   0.102   3.679  0.0690  0.1932 -4.2058
 2155SOL    MW4 8354   5.903   0.015   3.675 -0.1953  0.4544  0.1296
 2156SOL     OW 8355   1.010   5.610   6.341  0.2347  0.3361 -0.2289
 2156SOL    HW2 8356   1.048   5.689   6.380 -0.1139  0.5961 -0.4086
 2156SOL    HW3 8357   0.937   5.588   6.399 -0.1735  0.6193 -0.6245
 2156SOL    MW4 8358   1.005   5.618   6.354 -0.5832  0.4233  0.0635
 2157SOL     OW 8359   0.527   1.736   5.318 -1.2747  0.1536 -0.2706
 2157SOL    HW2 8360   0.557   1.679   5.389  0.7558  0.1814 -1.0385
 2157SOL    HW3 8361   0.433   1.745   5.333 -1.3980 -2.1223  0.7707
 2157SOL    MW4 8362   0.519   1.730   5.330 -1.0062  0.0680  0.5459
 2158SOL     OW 8363   1.458   5.364   5.267  0.4071  0.1077 -0.0701
 2158SOL    HW2 8364   1.525   5.430   5.250  1.0762 -0.1281  1.5064
 2158SOL    HW3 8365   1.472   5.338   5.358 -0.3589 -1.6419 -0.4183
 2158SOL    MW4 8366   1.469   5.370   5.277 -0.4692 -0.2036 -0.4913
 2159SOL     OW 8367   2.518   5.416   2.838  0.7835 -0.4966  0.3528
 2159SOL    HW2 8368   2.555   5.414   2.750  0.2860 -0.1518  0.1307
 2159SOL    HW3 8369   2.471   5.333   2.846 -1.3183  0.5119 -0.6735
 2159SOL    MW4 8370   2.517   5.405   2.828  0.3234 -0.1211  0.1561
 2160SOL     OW 8371   1.522   0.398   0.334  0.0895  0.2230 -0.0319
 2160SOL    HW2 8372   1.537   0.399   0.429  0.2026 -0.7610 -0.0244
 2160SOL    HW3 8373   1.609   0.387   0.296  0.1860  1.7641 -0.3204
 2160SOL    MW4 8374   1.535   0.397   0.342 -0.3193 -0.4001  0.3305
 2161SOL     OW 8375   5.304   2.597   0.641  0.4002 -0.0748  0.2672
 2161SOL    HW2 8376   5.330   2.678   0.686  0.4775 -0.0184  0.1236
 2161SOL    HW3 8377   5.248   2.627   0.568 -2.5929 -0.3429  2.2628
 2161SOL    MW4 8378   5.300   2.612   0.637 -0.5786  0.2533 -0.5019
 2162SOL     OW 8379   3.489   2.758   3.246  0.0780  0.1587  0.0540
 2162SOL    HW2 8380   3.513   2.706   3.170  0.8124  0.2902  0.1915
 2162SOL    HW3 8381   3.552   2.830   3.248 -0.2150  0.4123  0.5226
 2162SOL    MW4 8382   3.500   2.760   3.236 -0.3554 -0.4054 -0.3868
 2163SOL     OW 8383   2.310   0.621   3.505 -0.1751  0.6226  0.6097
 2163SOL    HW2 8384   2.346   0.667   3.580 -1.1495  0.8689  0.9449
 2163SOL    HW3 8385   2.280   0.691   3.447 -0.2429  0.4258  0.4059
 2163SOL    MW4 8386   2.311   0.637   3.507 -0.3544 -0.5857  0.4085
 2164SOL     OW 8387   1.163   0.623   1.557 -0.2543 -0.0767  0.0201
 2164SOL    HW2 8388   1.182   0.550   1.498  1.3454 -1.2293  1.8763
 2164SOL    HW3 8389   1.219   0.694   1.525 -2.0515  0.5657 -1.9907
 2164SOL    MW4 8390   1.173   0.623   1.545 -0.1188 -0.3395  0.3727
 2165SOL     OW 8391   0.629   5.707   1.789  0.2549  0.2940 -0.0540
 2165SOL    HW2 8392   0.590   5.794   1.788 -1.5521 -0.4835 -0.7458
 2165SOL    HW3 8393   0.711   5.718   1.740 -1.2184  1.0994 -2.5504
 2165SOL    MW4 8394   0.635   5.720   1.782  0.5301  0.6393 -0.0855
 2166SOL     OW 8395   1.697   3.268   5.003 -0.3153 -0.6015 -0.0356
 2166SOL    HW2 8396   1.777   3.241   4.958 -0.0942 -0.1939  0.1064
 2166SOL    HW3 8397   1.690   3.209   5.078 -0.6175 -1.2007 -0.5277
 2166SOL    MW4 8398   1.706   3.257   5.007 -0.5176  0.0982  0.5483
 2167SOL     OW 8399   5.449   3.041   0.246 -0.1315  0.0631 -0.1680
 2167SOL    HW2 8400   5.468   3.131   0.273  1.4001  0.0086 -0.9437
 2167SOL    HW3 8401   5.402   3.003   0.320  0.9632  0.9029  1.0092
 2167SOL    MW4 8402   5.445   3.048   0.259 -0.0257  0.4254  0.1697
 2168SOL     OW 8403   2.682   2.106   4.161  0.4402 -0.3395  0.0660
 2168SOL    HW2 8404   2.612   2.169   4.144  0.4315 -0.1190  0.8808
 2168SOL    HW3 8405   2.658   2.029   4.109 -0.8375 -0.5640  0.9244
 2168SOL    MW4 8406   2.669   2.104   4.152 -0.1236 -0.6539 -0.0006
 2169SOL     OW 8407   5.696   4.373   2.240  0.3380 -0.1137 -0.2310
 2169SOL    HW2 8408   5.707   4.293   2.188 -0.6767  0.2551 -1.0587
 2169SOL    HW3 8409   5.609   4.364   2.279  0.9898 -0.2678  1.2281
 2169SOL    MW4 8410   5.686   4.361   2.238 -1.0939 -1.0125 -0.3910
 2170SOL     OW 8411   2.334   2.257   1.788 -0.1838 -1.3076 -0.6508
 2170SOL    HW2 8412   2.428   2.271   1.790 -0.4384  0.6758 -0.5355
 2170SOL    HW3 8413   2.324   2.166   1.761  1.7380 -1.3408 -1.4165
 2170SOL    MW4 8414   2.345   2.247   1.784  0.0573  0.2893 -0.0156
 2171SOL     OW 8415   2.127   3.524   6.133 -0.4949  0.3309  0.0410
 2171SOL    HW2 8416   2.174   3.588   6.187 -0.8358  1.3644 -0.8487
 2171SOL    HW3 8417   2.129   3.443   6.185  0.5782  0.8586  0.8703
 2171SOL    MW4 8418   2.134   3.522   6.147  0.3399  0.3524 -0.5267
 2172SOL     OW 8419   1.022   6.375   2.097 -0.2067 -0.2080 -0.1875
 2172SOL    HW2 8420   0.977   6.402   2.177  0.3680 -0.8870  0.3678
 2172SOL    HW3 8421   1.003   6.446   2.035  0.8538  1.2477  1.0836
 2172SOL    MW4 8422   1.013   6.388   2.099 -0.6121 -0.1927 -0.0764
 2173SOL     OW 8423   3.754   1.574   4.847  0.2446  0.0536  0.7250
 2173SOL    HW2 8424   3.831   1.597   4.899  0.9610 -0.9019  0.1133
 2173SOL    HW3 8425   3.695   1.648   4.858  2.0431  1.7322 -0.3714
 2173SOL    MW4 8426   3.756   1.587   4.855 -0.4673 -0.1272 -0.7405
 2174SOL     OW 8427   3.527   4.591   1.285 -0.4862  0.3389  0.6407
 2174SOL    HW2 8428   3.582   4.529   1.237 -1.6553  0.3014 -0.7101
 2174SOL    HW3 8429   3.538   4.674   1.240 -3.1225 -0.1156 -1.0942
 2174SOL    MW4 8430   3.536   4.594   1.273  0.3450 -0.1496 -0.0148
 2175SOL     OW 8431   0.121   6.286   3.194  0.2804  0.3601  0.0084
 2175SOL    HW2 8432   0.092   6.317   3.108  2.7271  0.2580 -0.9330
 2175SOL    HW3 8433   0.195   6.229   3.175  0.4390 -0.2380  2.1796
 2175SOL    MW4 8434   0.127   6.283   3.180 -0.2584 -0.5741 -0.0879
 2176SOL     OW 8435   3.479   4.021   3.488 -0.3006 -0.1098  0.2725
 2176SOL    HW2 8436   3.484   3.973   3.405  2.8449 -1.1647  0.9435
 2176SOL    HW3 8437   3.550   4.085   3.483  0.2394 -0.4970  2.3116
 2176SOL    MW4 8438   3.489   4.023   3.476 -0.1843 -0.6939  0.2501
 2177SOL     OW 8439   3.671   6.212   0.331  0.0664 -0.0790 -0.0177
 2177SOL    HW2 8440   3.743   6.165   0.373  1.0526  0.3411 -1.1644
 2177SOL    HW3 8441   3.643   6.154   0.260 -0.5598 -0.1248  0.2635
 2177SOL    MW4 8442   3.677   6.198   0.327 -0.5346 -0.2891 -0.1627
 2178SOL     OW 8443   5.365   3.763   4.667  0.1058  0.2810  0.9553
 2178SOL    HW2 8444   5.441   3.762   4.609  1.2489  0.4689  2.3892
 2178SOL    HW3 8445   5.391   3.819   4.740 -2.2401  2.2260  0.4651
 2178SOL    MW4 8446   5.378   3.771   4.669  0.5403  0.5928 -0.3891
 2179SOL     OW 8447   4.084   2.889   3.318  0.4915 -0.2574  0.6972
 2179SOL    HW2 8448   4.020   2.895   3.389  1.8506 -1.5712  2.1216
 2179SOL    HW3 8449   4.154   2.834   3.354  1.1243 -1.1953 -1.7563
 2179SOL    MW4 8450   4.085   2.882   3.332  0.1619 -0.4658 -0.4208
 2180SOL     OW 8451   2.948   6.257   0.558  0.1673  0.3406  0.0411
 2180SOL    HW2 8452   3.025   6.307   0.531 -1.3134  1.3775 -2.6589
 2180SOL    HW3 8453   2.957   6.173   0.514 -0.0523  0.3338  0.0049
 2180SOL    MW4 8454   2.959   6.252   0.549 -0.0454 -0.2398 -0.2223
 2181SOL     OW 8455   1.008   6.354   3.521 -0.4967 -0.1769  0.3877
 2181SOL    HW2 8456   1.082   6.322   3.471 -0.0253 -0.2835  1.1298
 2181SOL    HW3 8457   0.942   6.376   3.456 -0.1262 -0.8740 -0.2345
 2181SOL    MW4 8458   1.009   6.353   3.506  0.4910 -0.0618  0.0327
 2182SOL     OW 8459   0.532   0.888   2.006 -0.5922 -0.9693  0.4336
 2182SOL    HW2 8460   0.498   0.814   1.957  0.1958 -1.0055 -0.0712
 2182SOL    HW3 8461   0.476   0.961   1.981  0.3388 -0.7886 -1.2352
 2182SOL    MW4 8462   0.520   0.888   1.996 -0.0770  0.1933  0.2714
 2183SOL     OW 8463   6.094   2.731   2.715 -0.1467 -0.4708  0.1084
 2183SOL    HW2 8464   6.131   2.683   2.641 -1.8176  1.0233 -1.8152
 2183SOL    HW3 8465   5.999   2.727   2.701 -0.4328  1.4139  1.1495
 2183SOL    MW4 8466   6.086   2.724   2.704 -0.4266 -0.4983 -0.5588
 2184SOL     OW 8467   0.863   1.840   4.729  0.0872  0.3867 -0.2046
 2184SOL    HW2 8468   0.916   1.920   4.728 -0.0931  0.5050 -0.2454
 2184SOL    HW3 8469   0.788   1.860   4.673 -0.8819  0.8234  1.1907
 2184SOL    MW4 8470   0.860   1.853   4.722 -0.4615  0.3152 -0.1186
 2185SOL     OW 8471   0.241   0.572   3.004  0.3797  0.4638  0.2847
 2185SOL    HW2 8472   0.291   0.601   2.928 -0.5415 -0.2704 -0.6355
 2185SOL    HW3 8473   0.280   0.488   3.029 -1.1596 -0.7736 -1.2620
 2185SOL    MW4 8474   0.253   0.564   2.998 -0.4433 -0.3353 -0.2189
 2186SOL     OW 8475   5.377   1.112   1.451  0.4040 -0.8923 -0.0474
 2186SOL    HW2 8476   5.378   1.118   1.356  1.7392  1.3418  0.0357
 2186SOL    HW3 8477   5.322   1.185   1.480  1.2046 -0.6345  0.9041
 2186SOL    MW4 8478   5.370   1.123   1.443  0.3118 -0.2767  0.0795
 2187SOL     OW 8479   2.142   3.442   2.573 -0.0888 -0.3365 -0.1856
 2187SOL    HW2 8480   2.052   3.471   2.583  0.3997  1.0883  0.2694
 2187SOL    HW3 8481   2.163   3.398   2.655  0.5297  1.9250  0.9320
 2187SOL    MW4 8482   2.133   3.440   2.585  0.0965 -0.3910 -0.6255
 2188SOL     OW 8483   2.343   2.972   1.263  0.8908 -0.2256  0.2868
 2188SOL    HW2 8484   2.382   2.992   1.348  2.2992 -1.5966  0.0030
 2188SOL    HW3 8485   2.342   2.877   1.259  1.3001 -0.1828 -1.4403
 2188SOL    MW4 8486   2.348   2.962   1.274 -0.0789 -0.1262 -0.0051
 2189SOL     OW 8487   1.925   1.535   6.383  0.3520  0.4096 -0.0854
 2189SOL    HW2 8488   1.872   1.569   6.311 -1.8310 -1.3315  0.5957
 2189SOL    HW3 8489   1.934   1.442   6.364  0.4194  0.0788  1.4725
 2189SOL    MW4 8490   1.919   1.527   6.371  0.4431  0.1859  0.1491
 2190SOL     OW 8491   4.968   1.574   3.627  0.0510 -0.8739  0.4298
 2190SOL    HW2 8492   4.882   1.558   3.665 -1.2386  0.1774 -1.8510
 2190SOL    HW3 8493   4.983   1.499   3.570  0.4415 -0.8146  0.4520
 2190SOL    MW4 8494   4.959   1.562   3.625  0.1431  0.4805  0.5202
 2191SOL     OW 8495   6.280   2.027   5.322  0.1080 -0.0302 -0.4551
 2191SOL    HW2 8496   6.237   2.095   5.374  4.2889  1.9885  0.7890
 2191SOL    HW3 8497   6.229   2.023   5.241 -3.3344  0.7481  1.4803
 2191SOL    MW4 8498   6.268   2.036   5.318 -0.1882 -0.0265 -0.5526
 2192SOL     OW 8499   6.175   2.978   0.304 -0.0810 -0.7892 -0.0256
 2192SOL    HW2 8500   6.141   3.038   0.371 -2.1310 -1.8217 -0.0854
 2192SOL    HW3 8501   6.218   3.036   0.241 -2.1603  0.7041 -0.1857
 2192SOL    MW4 8502   6.177   2.994   0.305 -0.1275 -0.0303  0.0448
 2193SOL     OW 8503   2.648   5.015   3.075 -0.4997 -0.6495 -0.3927
 2193SOL    HW2 8504   2.622   5.093   3.125 -0.1515 -0.7080 -0.1172
 2193SOL    HW3 8505   2.674   4.952   3.142  1.9408 -0.0489 -0.6697
 2193SOL    MW4 8506   2.648   5.017   3.091  0.3600  0.1125 -0.3502
 2194SOL     OW 8507   1.257   2.476   5.227  0.2916  0.3887 -0.0127
 2194SOL    HW2 8508   1.346   2.441   5.216 -0.2985 -1.1272 -0.0996
 2194SOL    HW3 8509   1.209   2.406   5.271 -0.5730  1.6621  1.1627
 2194SOL    MW4 8510   1.263   2.462   5.232 -0.4124 -0.1779  0.1289
 2195SOL     OW 8511   4.344   0.840   1.824  0.3452 -0.1490 -0.0575
 2195SOL    HW2 8512   4.422   0.785   1.816 -0.2271 -1.1073  0.6730
 2195SOL    HW3 8513   4.303   0.837   1.737  0.7667 -0.1931 -0.2542
 2195SOL    MW4 8514   4.349   0.832   1.811 -0.4369  0.3892 -0.3563
 2196SOL     OW 8515   2.724   1.733   0.782  0.2021 -0.6101 -0.6798
 2196SOL    HW2 8516   2.819   1.733   0.769  0.5530  2.9395  0.6413
 2196SOL    HW3 8517   2.712   1.699   0.871  0.2489 -0.9016 -0.7847
 2196SOL    MW4 8518   2.735   1.729   0.792 -0.5948 -0.1495 -0.4838
 2197SOL     OW 8519   6.380   0.809   2.924 -0.1892 -0.3424 -0.2021
 2197SOL    HW2 8520   6.376   0.714   2.912  2.4856 -0.5299 -0.2078
 2197SOL    HW3 8521   6.337   0.845   2.846 -0.7599 -1.5549 -0.4605
 2197SOL    MW4 8522   6.374   0.801   2.912 -0.5351  0.2434  0.0341
 2198SOL     OW 8523   3.917   3.347   4.873 -0.0561  0.2048 -0.6580
 2198SOL    HW2 8524   4.008   3.368   4.849 -0.3785  0.2176 -1.9324
 2198SOL    HW3 8525   3.893   3.415   4.936  0.7850  0.2460 -0.3619
 2198SOL    MW4 8526   3.926   3.359   4.879  0.3155 -0.0492  0.7331
 2199SOL     OW 8527   4.965   2.208   2.191  0.0699 -0.1432 -0.4465
 2199SOL    HW2 8528   4.918   2.148   2.132  1.7689 -0.5593 -1.4466
 2199SOL    HW3 8529   5.057   2.200   2.164  0.5906  1.3861  0.7795
 2199SOL    MW4 8530   4.971   2.199   2.179  0.5049  0.6313  0.3437
 2200SOL     OW 8531   3.233   3.501   3.818  0.5738  0.1566  0.4680
 2200SOL    HW2 8532   3.294   3.478   3.888 -0.4087 -0.7491  1.0553
 2200SOL    HW3 8533   3.289   3.528   3.746  1.6434  0.1571  1.2692
 2200SOL    MW4 8534   3.248   3.502   3.818 -0.2167 -0.1723 -0.3226
 2201SOL     OW 8535   2.970   5.104   2.489 -0.0779 -0.0056 -0.4806
 2201SOL    HW2 8536   2.878   5.079   2.490 -0.1664  0.3269  0.3261
 2201SOL    HW3 8537   2.997   5.100   2.581  0.7595 -0.2737 -0.7317
 2201SOL    MW4 8538   2.962   5.100   2.502  0.3981 -0.1461 -0.0772
 2202SOL     OW 8539   1.732   5.278   0.776 -0.2657 -1.1002  0.2676
 2202SOL    HW2 8540   1.791   5.206   0.755 -0.6635 -1.5932  0.7746
 2202SOL    HW3 8541   1.777   5.327   0.845  0.3511 -0.3941 -0.6215
 2202SOL    MW4 8542   1.746   5.275   0.783 -0.0545  0.0976  0.2335
 2203SOL     OW 8543   0.199   1.381   1.264 -0.1687 -0.0368 -0.6601
 2203SOL    HW2 8544   0.136   1.440   1.223 -0.1333  0.3724 -0.1245
 2203SOL    HW3 8545   0.146   1.313   1.306 -0.2293 -0.0290 -0.7246
 2203SOL    MW4 8546   0.184   1.380   1.264  0.3911  0.2857 -0.0067
 2204SOL     OW 8547   2.468   5.983   2.046  0.3762  0.0239  0.0787
 2204SOL    HW2 8548   2.425   5.960   2.128  0.1609 -0.7946 -0.2628
 2204SOL    HW3 8549   2.549   6.027   2.073  0.0532  0.2380  0.7198
 2204SOL    MW4 8550   2.473   5.986   2.061  0.3073  0.0212  0.0426
 2205SOL     OW 8551   3.985   0.193   1.955 -0.5087 -0.1579  0.0655
 2205SOL    HW2 8552   3.898   0.153   1.951 -0.1025 -1.0804  0.1531
 2205SOL    HW3 8553   3.984   0.244   2.036 -1.0270 -0.0207 -0.0207
 2205SOL    MW4 8554   3.973   0.194   1.965  0.2504 -0.1531 -0.4465
 2206SOL     OW 8555   4.215   6.080   3.451  0.3332 -0.4505  0.1128
 2206SOL    HW2 8556   4.235   6.073   3.544 -0.4725 -0.7805  0.2626
 2206SOL    HW3 8557   4.293   6.121   3.413  0.1786  0.8203  1.1101
 2206SOL    MW4 8558   4.228   6.084   3.458  0.3869  0.1440  0.2453
 2207SOL     OW 8559   4.077   0.855   6.071 -0.2117  0.0884 -0.8856
 2207SOL    HW2 8560   4.084   0.886   6.162 -0.0844 -0.4880 -0.6915
 2207SOL    HW3 8561   4.089   0.760   6.078  2.1682  0.2728 -1.7616
 2207SOL    MW4 8562   4.080   0.847   6.084 -0.0220  0.4525  0.2373
 2208SOL     OW 8563   0.564   0.968   3.553 -0.3725 -0.4239  0.1924
 2208SOL    HW2 8564   0.641   1.008   3.514 -0.6472 -0.7384 -0.6884
 2208SOL    HW3 8565   0.495   1.034   3.542 -1.1149 -1.5023 -2.2887
 2208SOL    MW4 8566   0.565   0.982   3.547 -0.2520  0.3826  0.8914
 2209SOL     OW 8567   5.345   2.879   2.749 -0.4163  0.1515 -0.3257
 2209SOL    HW2 8568   5.340   2.974   2.764  0.5171  0.2690 -0.6521
 2209SOL    HW3 8569   5.272   2.860   2.690  0.2113  0.9185 -1.3859
 2209SOL    MW4 8570   5.335   2.889   2.744 -0.2307  0.1756  0.1048
 2210SOL     OW 8571   2.492   4.532   3.411  0.0369  0.0218 -0.0092
 2210SOL    HW2 8572   2.531   4.566   3.331 -0.3333  1.0296  0.2270
 2210SOL    HW3 8573   2.538   4.578   3.482 -0.1361 -0.3308  0.3370
 2210SOL    MW4 8574   2.503   4.543   3.410  0.4858  0.4487 -0.4059
 2211SOL     OW 8575   6.244   0.052   2.992  0.1820  0.4350 -0.1595
 2211SOL    HW2 8576   6.155   0.059   3.026  0.3440  1.1922  0.1298
 2211SOL    HW3 8577   6.286   0.134   3.019  1.7901 -1.0018  2.0686
 2211SOL    MW4 8578   6.238   0.064   3.000  0.0986 -0.6559  0.1059
 2212SOL     OW 8579   0.072   5.904   5.291  0.2934 -0.1304  0.1238
 2212SOL    HW2 8580  -0.023   5.895   5.298  0.0404  0.6563 -1.6722
 2212SOL    HW3 8581   0.103   5.905   5.381 -1.6385  1.7789  0.8450
 2212SOL    MW4 8582   0.064   5.903   5.303  0.1124  0.3161  0.3137
 2213SOL     OW 8583   0.327   4.957   2.590  0.0386  0.2913  0.7124
 2213SOL    HW2 8584   0.390   5.029   2.582 -0.3833  0.6786  0.7920
 2213SOL    HW3 8585   0.381   4.880   2.608  0.5844  0.3737 -0.4925
 2213SOL    MW4 8586   0.343   4.956   2.591  0.5699 -0.1445 -0.1834
 2214SOL     OW 8587   0.949   2.688   2.384  0.1028 -0.1642  0.2652
 2214SOL    HW2 8588   1.026   2.701   2.440  0.5187  1.9650 -0.6796
 2214SOL    HW3 8589   0.984   2.687   2.295 -0.9234  0.8655 -0.1839
 2214SOL    MW4 8590   0.964   2.690   2.380  0.2564  0.1516 -0.1561
 2215SOL     OW 8591   1.820   5.985   3.749  0.0389  0.6151 -0.1696
 2215SOL    HW2 8592   1.892   6.039   3.780 -0.2922  0.6405  0.5965
 2215SOL    HW3 8593   1.837   5.971   3.656  0.7869  0.9905 -0.0903
 2215SOL    MW4 8594   1.832   5.990   3.741 -0.4177 -0.2710  0.6987
 2216SOL     OW 8595   2.355   3.621   6.291 -0.0369  0.3220 -0.0083
 2216SOL    HW2 8596   2.383   3.680   6.221  1.0571 -0.0630  0.0840
 2216SOL    HW3 8597   2.420   3.634   6.361  0.0805 -0.8017  0.1124
 2216SOL    MW4 8598   2.367   3.630   6.291 -0.4914 -0.2130 -0.3914
 2217SOL     OW 8599   5.265   5.084   0.585 -0.6057  0.4471 -0.3953
 2217SOL    HW2 8600   5.261   5.024   0.659  4.6731 -0.3536 -0.4080
 2217SOL    HW3 8601   5.277   5.027   0.509  0.8550  1.3956 -0.8994
 2217SOL    MW4 8602   5.266   5.069   0.584 -0.0998 -0.1481 -0.2784
 2218SOL     OW 8603   3.446   1.767   4.078 -0.1562 -0.2100  0.0042
 2218SOL    HW2 8604   3.361   1.745   4.116 -0.0293 -0.5208  0.1074
 2218SOL    HW3 8605   3.502   1.694   4.101  0.3794  0.4110  0.7138
 2218SOL    MW4 8606   3.442   1.755   4.086  0.0357  0.0710  0.7729
 2219SOL     OW 8607   3.184   4.652   4.479  0.4005  0.3022  0.0318
 2219SOL    HW2 8608   3.212   4.681   4.392  0.1454  0.4543 -0.0016
 2219SOL    HW3 8609   3.094   4.621   4.467 -0.0034  1.2637  0.4239
 2219SOL    MW4 8610   3.176   4.652   4.466 -0.3228  0.4118  0.4964
 2220SOL     OW 8611   4.891   3.302   4.593  0.5892 -0.2814  0.0310
 2220SOL    HW2 8612   4.884   3.238   4.522  0.6023  0.3573 -0.5604
 2220SOL    HW3 8613   4.975   3.283   4.635  1.4131  0.4202 -1.2276
 2220SOL    MW4 8614   4.901   3.291   4.589 -0.1572  0.1622  0.2266
 2221SOL     OW 8615   1.091   1.426   5.407 -0.0360 -0.2532 -0.1033
 2221SOL    HW2 8616   1.031   1.492   5.442 -1.5858 -2.6039  2.1340
 2221SOL    HW3 8617   1.167   1.429   5.465  0.4391  0.3364 -0.7432
 2221SOL    MW4 8618   1.093   1.435   5.420 -0.1210 -0.4463 -0.3031
 2222SOL     OW 8619   6.356   5.632   1.098 -0.3815 -0.2914  0.8561
 2222SOL    HW2 8620   6.322   5.718   1.120  2.6069  0.9455  1.1133
 2222SOL    HW3 8621   6.354   5.628   1.003 -3.7151 -1.4701  0.8319
 2222SOL    MW4 8622   6.351   5.643   1.089  0.3827  0.0905 -0.3903
 2223SOL     OW 8623   4.261   6.092   4.251  0.2312  0.2575  0.1807
 2223SOL    HW2 8624   4.355   6.081   4.237  0.1981 -0.6764  0.6110
 2223SOL    HW3 8625   4.252   6.104   4.346 -0.1353 -0.2099  0.2058
 2223SOL    MW4 8626   4.272   6.092   4.262 -0.5367  0.3532  0.9699
 2224SOL     OW 8627   0.025   5.131   2.952  0.6930 -0.2152  0.8239
 2224SOL    HW2 8628  -0.060   5.095   2.976 -1.6994  3.5534 -1.0596
 2224SOL    HW3 8629   0.046   5.193   3.022  0.7703  0.4818  0.1939
 2224SOL    MW4 8630   0.017   5.134   2.964 -0.8446 -0.0057 -0.5513
 2225SOL     OW 8631   2.020   6.032   3.193  0.4701  0.1113  0.1841
 2225SOL    HW2 8632   2.095   6.011   3.249  1.3482 -0.4613 -1.1630
 2225SOL    HW3 8633   2.044   6.000   3.106 -0.3719  1.9659 -0.8094
 2225SOL    MW4 8634   2.033   6.025   3.189  0.0759  0.3334 -0.0315
 2226SOL     OW 8635   0.709   1.146   1.510  0.7295 -0.6112 -0.0905
 2226SOL    HW2 8636   0.798   1.157   1.477  0.9499 -0.8361  0.4258
 2226SOL    HW3 8637   0.719   1.095   1.590  0.4771  2.0025  1.7111
 2226SOL    MW4 8638   0.722   1.141   1.516  0.1270 -0.1271  0.4149
 2227SOL     OW 8639   2.394   5.978   1.349  0.3068 -0.4839  0.4572
 2227SOL    HW2 8640   2.368   6.064   1.381 -1.1507 -0.9877  0.6830
 2227SOL    HW3 8641   2.415   5.928   1.428  1.2451 -0.3223  0.3217
 2227SOL    MW4 8642   2.394   5.983   1.364  0.3681  0.3224 -0.1099
 2228SOL     OW 8643   5.309   1.785   3.692 -0.0327  0.6783  0.4573
 2228SOL    HW2 8644   5.375   1.844   3.656  0.3931 -0.0582 -0.0039
 2228SOL    HW3 8645   5.291   1.723   3.621  0.0026 -0.1357  1.1421
 2228SOL    MW4 8646   5.315   1.785   3.678 -0.1845  0.3345 -0.2717
 2229SOL     OW 8647   0.326   4.964   5.708  0.6181  0.3892  0.3731
 2229SOL    HW2 8648   0.339   4.899   5.777  0.5328 -1.9045 -1.6400
 2229SOL    HW3 8649   0.400   5.025   5.718  2.2587 -1.5560  0.7106
 2229SOL    MW4 8650   0.337   4.964   5.719 -0.1356  0.4000 -0.0518
 2230SOL     OW 8651   1.211   0.406   2.075  0.4402  0.0426  0.7480
 2230SOL    HW2 8652   1.239   0.335   2.016 -0.8703  0.4320 -0.3875
 2230SOL    HW3 8653   1.206   0.483   2.019  1.5977  1.0238  1.9203
 2230SOL    MW4 8654   1.214   0.407   2.060 -0.0671  0.6126  0.1858
 2231SOL     OW 8655   3.186   2.539   1.780  0.2815 -0.1679 -0.1586
 2231SOL    HW2 8656   3.117   2.589   1.824 -0.4316 -1.6907  0.5294
 2231SOL    HW3 8657   3.147   2.514   1.696 -0.5705 -2.1786  0.7826
 2231SOL    MW4 8658   3.171   2.542   1.775  0.1495  0.2061 -0.2032
 2232SOL     OW 8659   1.596   2.176   0.347 -0.0841 -0.0412 -0.2280
 2232SOL    HW2 8660   1.543   2.239   0.395  0.4401  1.0153 -1.0087
 2232SOL    HW3 8661   1.566   2.091   0.378 -1.1063  0.5787  0.5231
 2232SOL    MW4 8662   1.585   2.173   0.357  0.0248  0.2165  0.1295
 2233SOL     OW 8663   2.623   1.425   0.778 -0.2508 -0.3717  0.2720
 2233SOL    HW2 8664   2.624   1.349   0.836 -1.5362 -0.4775  0.1700
 2233SOL    HW3 8665   2.629   1.500   0.837 -0.7403 -0.5036  0.4944
 2233SOL    MW4 8666   2.624   1.425   0.793  0.0843  0.6079  0.2999
 2234SOL     OW 8667   2.697   4.847   3.309 -0.0216  0.2090 -0.4359
 2234SOL    HW2 8668   2.696   4.927   3.362  0.2650 -0.4797  0.6414
 2234SOL    HW3 8669   2.785   4.811   3.322  0.0204 -0.0247 -1.3161
 2234SOL    MW4 8670   2.708   4.853   3.318  0.1666 -0.0638 -0.0810
 2235SOL     OW 8671   6.095   3.629   5.170 -0.2695  0.0860  0.5163
 2235SOL    HW2 8672   6.026   3.685   5.135  0.6005 -0.0325 -1.5479
 2235SOL    HW3 8673   6.176   3.666   5.135  0.6714 -0.2739  2.1927
 2235SOL    MW4 8674   6.097   3.641   5.161  0.2999 -0.3683 -0.0207
 2236SOL     OW 8675   4.997   4.319   6.344 -0.4296  0.1099 -0.5199
 2236SOL    HW2 8676   5.015   4.332   6.251 -0.5873 -0.6681 -0.6732
 2236SOL    HW3 8677   4.944   4.239   6.346 -0.6157  0.2478  0.2221
 2236SOL    MW4 8678   4.992   4.310   6.332 -0.0616  0.0161  0.1987
 2237SOL     OW 8679   2.070   4.451   4.466  0.5266  0.1828  0.2455
 2237SOL    HW2 8680   2.120   4.529   4.443 -0.1485 -0.1482 -2.6443
 2237SOL    HW3 8681   2.107   4.423   4.550  2.1617  2.3978  0.3599
 2237SOL    MW4 8682   2.081   4.458   4.474 -0.3756  0.3389 -0.3155
 2238SOL     OW 8683   3.645   5.839   0.605  0.5466 -0.3002 -0.0523
 2238SOL    HW2 8684   3.694   5.778   0.549  0.9106 -1.4486  1.4407
 2238SOL    HW3 8685   3.603   5.899   0.544  1.8021 -0.8267 -1.4965
 2238SOL    MW4 8686   3.646   5.839   0.589  0.2253 -0.3949  0.0798
 2239SOL     OW 8687   3.383   4.284   2.707 -0.3157 -0.1550 -0.0930
 2239SOL    HW2 8688   3.353   4.228   2.635 -0.5384 -0.9609  0.6001
 2239SOL    HW3 8689   3.477   4.267   2.713 -0.8190 -3.0496  2.1708
 2239SOL    MW4 8690   3.391   4.274   2.698  0.0426 -0.6973 -0.3912
 2240SOL     OW 8691   6.178   0.300   5.965  0.1132 -0.9152  0.2258
 2240SOL    HW2 8692   6.227   0.220   5.981  1.5532 -0.0722  0.2286
 2240SOL    HW3 8693   6.212   0.332   5.881 -0.4343 -0.2886  0.2324
 2240SOL    MW4 8694   6.189   0.294   5.956  0.2274 -0.6467  0.1531
 2241SOL     OW 8695   2.518   2.079   4.478 -0.0723 -0.1398 -0.6554
 2241SOL    HW2 8696   2.527   2.168   4.444  0.1778  0.2371  0.3630
 2241SOL    HW3 8697   2.472   2.031   4.409  1.3037  0.3286 -1.9424
 2241SOL    MW4 8698   2.513   2.084   4.464  0.0541 -0.0333  0.1997
 2242SOL     OW 8699   2.405   3.077   2.970  0.0404  0.1354 -0.5366
 2242SOL    HW2 8700   2.475   3.012   2.959  0.0531  0.3879 -2.3477
 2242SOL    HW3 8701   2.389   3.080   3.064  0.6142 -1.8703 -0.3326
 2242SOL    MW4 8702   2.412   3.069   2.981 -0.0879 -0.2699 -0.0173
 2243SOL     OW 8703   3.712   0.379   0.412 -0.9247  0.2093  0.0322
 2243SOL    HW2 8704   3.777   0.348   0.476 -1.2554 -1.3231 -0.3399
 2243SOL    HW3 8705   3.764   0.428   0.348 -0.2455 -0.2976  0.1765
 2243SOL    MW4 8706   3.728   0.382   0.412  0.0780 -0.1257  0.2302
 2244SOL     OW 8707   5.536   0.838   6.059 -0.1828  0.5041  0.0150
 2244SOL    HW2 8708   5.535   0.785   5.979 -1.5042 -0.8263  0.8559
 2244SOL    HW3 8709   5.509   0.926   6.030  0.6265  0.3791 -1.1816
 2244SOL    MW4 8710   5.532   0.843   6.044  0.3300 -0.1389  0.4449
 2245SOL     OW 8711   5.927   5.069   5.762 -0.2624  0.2128 -0.3197
 2245SOL    HW2 8712   5.843   5.062   5.807 -0.3289  1.9267 -0.0830
 2245SOL    HW3 8713   5.919   5.148   5.708  0.3089 -1.0379 -2.3301
 2245SOL    MW4 8714   5.915   5.079   5.761  0.2492  0.4898 -0.2550
 2246SOL     OW 8715   3.251   5.655   0.159 -0.1389 -0.1437  0.6149
 2246SOL    HW2 8716   3.285   5.744   0.169 -1.2965  0.4898 -0.7279
 2246SOL    HW3 8717   3.168   5.654   0.208  0.6496 -1.0200  2.0206
 2246SOL    MW4 8718   3.244   5.666   0.167  0.2967  0.2111  0.6970
 2247SOL     OW 8719   3.907   4.021   3.723 -0.0664  0.0375  0.5541
 2247SOL    HW2 8720   3.964   3.949   3.750  1.8476  1.0060 -0.6224
 2247SOL    HW3 8721   3.864   4.050   3.803  1.7743 -0.2097  1.6852
 2247SOL    MW4 8722   3.909   4.015   3.737  0.1229 -0.7556  0.0945
 2248SOL     OW 8723   0.729   3.349   4.452  0.3646  0.1053  0.1277
 2248SOL    HW2 8724   0.665   3.330   4.383  1.5611 -1.2808 -0.6517
 2248SOL    HW3 8725   0.812   3.319   4.416  1.7306  3.0238  0.5792
 2248SOL    MW4 8726   0.731   3.343   4.438 -0.9964  0.0191  0.0933
 2249SOL     OW 8727   2.196   1.313   3.986 -0.2009  1.1171  0.8467
 2249SOL    HW2 8728   2.270   1.374   3.987  0.9579 -0.2415  0.9163
 2249SOL    HW3 8729   2.122   1.364   4.019  0.5858  2.6381  0.3533
 2249SOL    MW4 8730   2.196   1.328   3.990  0.3278 -0.1847  0.0441
 2250SOL     OW 8731   5.982   1.835   6.041 -0.3548 -0.2053 -0.4229
 2250SOL    HW2 8732   6.019   1.810   5.957 -2.7483  0.7078 -1.8397
 2250SOL    HW3 8733   6.058   1.852   6.097  1.3106 -0.1847 -2.5843
 2250SOL    MW4 8734   5.997   1.834   6.037  0.2765  0.3598 -0.1868
 2251SOL     OW 8735   0.646   1.988   5.830 -0.6992 -0.1340  0.2016
 2251SOL    HW2 8736   0.563   2.035   5.839  0.3211  1.7922  0.0578
 2251SOL    HW3 8737   0.693   2.005   5.911  0.9031  1.6952 -1.0135
 2251SOL    MW4 8738   0.641   1.997   5.842 -0.4680  0.3253  1.1880
 2252SOL     OW 8739   0.992   5.109   3.380  0.3349  0.0653 -0.2689
 2252SOL    HW2 8740   1.057   5.173   3.409 -1.6341  1.6867  0.8440
 2252SOL    HW3 8741   0.908   5.153   3.391 -0.9290 -1.1132 -3.6831
 2252SOL    MW4 8742   0.989   5.123   3.385  0.0927  0.7457 -0.2841
 2253SOL     OW 8743   3.028   2.824   3.706  0.0911  0.2218 -0.0958
 2253SOL    HW2 8744   3.121   2.847   3.699  0.9333 -1.2056  3.6031
 2253SOL    HW3 8745   2.984   2.907   3.725  1.0362  0.6195  0.4665
 2253SOL    MW4 8746   3.035   2.838   3.708  0.1175 -0.6428 -0.3269
 2254SOL     OW 8747   1.412   2.570   1.809 -0.0591 -0.2589  0.0539
 2254SOL    HW2 8748   1.477   2.597   1.874 -1.5638  1.4856  0.9352
 2254SOL    HW3 8749   1.367   2.496   1.850 -1.2249  1.0404  1.2415
 2254SOL    MW4 8750   1.415   2.564   1.823  0.2780 -0.2386 -0.1107
 2255SOL     OW 8751   3.169   2.215   5.061  0.0585 -0.0213 -0.0329
 2255SOL    HW2 8752   3.193   2.168   4.982  1.6001 -0.3476  0.5954
 2255SOL    HW3 8753   3.170   2.148   5.130  0.3673  0.5564  0.5392
 2255SOL    MW4 8754   3.172   2.200   5.060 -0.5109  0.5986 -0.7821
 2256SOL     OW 8755   5.074   5.313   2.134 -0.5342 -0.9638 -0.2402
 2256SOL    HW2 8756   5.157   5.350   2.103 -0.5669 -1.4119 -0.8789
 2256SOL    HW3 8757   5.099   5.257   2.207 -0.3412 -0.6712 -0.0784
 2256SOL    MW4 8758   5.088   5.311   2.139  0.2112 -0.4574 -0.2799
 2257SOL     OW 8759   0.502   4.818   0.156  0.0812  0.1887  0.0246
 2257SOL    HW2 8760   0.420   4.799   0.202 -0.4292  0.4761 -0.7486
 2257SOL    HW3 8761   0.541   4.732   0.141  0.7120  0.1345  1.7773
 2257SOL    MW4 8762   0.497   4.804   0.160  0.5620  0.3723  0.2711
 2258SOL     OW 8763   2.640   4.663   3.592  0.1153  0.3070  0.5870
 2258SOL    HW2 8764   2.702   4.736   3.603 -0.7865  1.0331  0.9378
 2258SOL    HW3 8765   2.620   4.635   3.681  2.6352 -2.3264  0.4962
 2258SOL    MW4 8766   2.646   4.669   3.605  0.4569  1.0415  0.3061
 2259SOL     OW 8767   2.446   1.461   3.963 -0.4111  0.3235 -0.1999
 2259SOL    HW2 8768   2.426   1.553   3.978  0.8318  0.7769 -1.1366
 2259SOL    HW3 8769   2.496   1.460   3.881 -0.9548 -1.2528 -0.5531
 2259SOL    MW4 8770   2.450   1.473   3.954 -0.2185 -0.0568 -0.0407
 2260SOL     OW 8771   6.120   4.135   4.878  0.0450  0.5779 -0.9293
 2260SOL    HW2 8772   6.171   4.053   4.876 -0.9368 -0.0724 -0.0060
 2260SOL    HW3 8773   6.162   4.190   4.811  1.8151 -0.0126 -0.3708
 2260SOL    MW4 8774   6.132   4.131   4.869 -0.0331 -0.0072  0.2496
 2261SOL     OW 8775   6.009   4.788   4.355 -0.5659  0.0147  0.5966
 2261SOL    HW2 8776   6.102   4.765   4.356 -0.6077 -0.1560  1.6526
 2261SOL    HW3 8777   5.997   4.836   4.274  0.2748 -0.6712  0.0495
 2261SOL    MW4 8778   6.020   4.791   4.345 -0.3188 -0.3754 -0.6530
 2262SOL     OW 8779   5.377   3.469   3.590  0.4362 -0.4562 -0.9040
 2262SOL    HW2 8780   5.309   3.402   3.579  0.0928 -0.2271 -0.1874
 2262SOL    HW3 8781   5.348   3.542   3.535 -0.1766 -0.1535 -0.1991
 2262SOL    MW4 8782   5.364   3.470   3.581 -0.2318 -0.5777 -0.3481
 2263SOL     OW 8783   0.323   3.424   3.295 -0.4483 -0.7568  0.2433
 2263SOL    HW2 8784   0.243   3.379   3.268  0.7234 -1.2318 -2.8347
 2263SOL    HW3 8785   0.364   3.451   3.213  1.7973  0.8298  1.7842
 2263SOL    MW4 8786   0.318   3.421   3.280 -0.5952  0.0804  0.5663
 2264SOL     OW 8787   1.911   4.234   0.728  0.2222 -0.1791 -0.2822
 2264SOL    HW2 8788   1.906   4.184   0.647  0.0916  0.0963 -0.4465
 2264SOL    HW3 8789   2.002   4.224   0.757  0.4887  0.3753 -0.8916
 2264SOL    MW4 8790   1.922   4.226   0.722  0.6654 -0.0185  0.2412
 2265SOL     OW 8791   0.081   3.952   2.497 -0.5243 -0.4606 -0.4152
 2265SOL    HW2 8792   0.052   3.879   2.441 -1.4596  0.5138 -1.2356
 2265SOL    HW3 8793   0.176   3.955   2.484 -0.6218 -0.8000 -1.2979
 2265SOL    MW4 8794   0.090   3.942   2.488  0.5173  0.2909 -0.1260
 2266SOL     OW 8795   3.271   5.520   0.765 -0.2055  0.3996  0.3320
 2266SOL    HW2 8796   3.285   5.547   0.674 -2.4544  0.5575 -0.0362
 2266SOL    HW3 8797   3.314   5.587   0.817  0.1439  0.9343 -0.6217
 2266SOL    MW4 8798   3.278   5.532   0.760  0.4077 -0.1630 -0.7564
 2267SOL     OW 8799   5.842   4.121   3.326  0.3010  0.5375  0.0369
 2267SOL    HW2 8800   5.783   4.195   3.313  0.6261  0.5799 -1.3109
 2267SOL    HW3 8801   5.843   4.076   3.242  3.2579  1.3224 -0.4385
 2267SOL    MW4 8802   5.834   4.125   3.313 -0.2673  0.4150 -0.4132
 2268SOL     OW 8803   3.126   6.224   2.953 -0.3013  0.0917  0.3278
 2268SOL    HW2 8804   3.072   6.302   2.970 -0.2927 -0.1759  1.6871
 2268SOL    HW3 8805   3.203   6.258   2.907  0.0154  1.0044  1.4780
 2268SOL    MW4 8806   3.129   6.239   2.949 -0.0891  0.1256  0.0646
 2269SOL     OW 8807   3.546   5.696   1.357  0.5359 -0.1264  0.3263
 2269SOL    HW2 8808   3.626   5.717   1.308  1.2998  0.4081  1.7590
 2269SOL    HW3 8809   3.551   5.750   1.436 -1.0532 -0.3903  0.6374
 2269SOL    MW4 8810   3.557   5.706   1.361 -0.2262  0.3393 -0.1511
 2270SOL     OW 8811   2.099   4.592   3.139 -0.1186 -1.4090 -0.1313
 2270SOL    HW2 8812   2.163   4.604   3.069  0.6845  0.5067  0.8596
 2270SOL    HW3 8813   2.146   4.542   3.206 -0.3480 -1.7981 -0.2567
 2270SOL    MW4 8814   2.113   4.587   3.139 -0.1848  0.3365  0.1217
 2271SOL     OW 8815   5.953   0.397   1.126  1.3360 -0.3702 -0.2350
 2271SOL    HW2 8816   5.984   0.307   1.125 -1.4778 -1.4546 -1.1873
 2271SOL    HW3 8817   5.878   0.396   1.186  0.9693  1.2138 -0.5995
 2271SOL    MW4 8818   5.947   0.385   1.134 -0.2298 -0.0765 -0.0699
 2272SOL     OW 8819   5.491   0.211   2.435  0.1842 -0.1969 -0.1976
 2272SOL    HW2 8820   5.544   0.283   2.467  1.0645 -0.9310  0.0312
 2272SOL    HW3 8821   5.513   0.203   2.342 -1.4566  1.1404 -0.7469
 2272SOL    MW4 8822   5.501   0.219   2.427  0.2342 -0.1933  0.1661
 2273SOL     OW 8823   5.816   5.052   2.648 -0.2533  0.2517  0.3128
 2273SOL    HW2 8824   5.751   5.122   2.650 -0.6736 -0.0128 -1.6927
 2273SOL    HW3 8825   5.770   4.979   2.605  1.0755 -0.2242 -0.3473
 2273SOL    MW4 8826   5.801   5.052   2.642 -0.0786  0.1662  0.5428
 2274SOL     OW 8827   1.697   3.408   1.650 -0.4792  0.0331  0.3015
 2274SOL    HW2 8828   1.668   3.392   1.560 -0.8121 -1.5560  0.6462
 2274SOL    HW3 8829   1.771   3.347   1.662 -0.1630  0.5391  0.9650
 2274SOL    MW4 8830   1.703   3.398   1.639 -0.2512  0.2296 -0.1391
 2275SOL     OW 8831   5.817   4.714   2.953  0.2623  0.2748 -0.1120
 2275SOL    HW2 8832   5.793   4.701   3.045 -0.9996 -1.1279 -0.5986
 2275SOL    HW3 8833   5.785   4.802   2.932 -2.0636 -0.4624  0.0557
 2275SOL    MW4 8834   5.810   4.724   2.962 -0.2704  0.6590  0.3032
 2276SOL     OW 8835   5.509   0.254   3.616  0.0414 -0.4318 -0.4242
 2276SOL    HW2 8836   5.462   0.335   3.597  0.7484 -0.3452 -1.9529
 2276SOL    HW3 8837   5.580   0.280   3.675 -1.5960 -0.5228  1.7125
 2276SOL    MW4 8838   5.512   0.268   3.621  0.0883  0.0151 -0.8315
 2277SOL     OW 8839   2.212   4.378   1.418  0.2022 -0.0416 -0.0950
 2277SOL    HW2 8840   2.203   4.307   1.482 -0.0328  0.3817  0.3448
 2277SOL    HW3 8841   2.260   4.338   1.345  0.6627 -0.4720  0.4342
 2277SOL    MW4 8842   2.217   4.363   1.416 -0.3488  0.0738  0.2879
 2278SOL     OW 8843   1.491   0.062   0.418  0.3051 -0.2589  0.4971
 2278SOL    HW2 8844   1.515   0.008   0.493 -1.5863 -1.5691  0.2232
 2278SOL    HW3 8845   1.430   0.127   0.453  1.9961  1.3356  0.6783
 2278SOL    MW4 8846   1.486   0.064   0.432  0.3321  0.4598  0.3941
 2279SOL     OW 8847   4.270   4.651   1.128 -0.4625 -0.2306 -0.1108
 2279SOL    HW2 8848   4.244   4.695   1.209 -2.0171 -0.3992 -0.4896
 2279SOL    HW3 8849   4.348   4.601   1.152  0.1616  1.1269  0.8204
 2279SOL    MW4 8850   4.277   4.651   1.142 -0.1154  0.1645 -0.3410
 2280SOL     OW 8851   3.059   5.081   5.077 -0.1379  0.0007 -0.4223
 2280SOL    HW2 8852   3.128   5.052   5.018  1.9564  1.3688  1.2147
 2280SOL    HW3 8853   2.985   5.102   5.020  1.1677 -0.4795 -2.3528
 2280SOL    MW4 8854   3.058   5.080   5.062  0.0367 -0.5329 -0.1553
 2281SOL     OW 8855   6.091   0.892   1.539  0.2868  0.2681  0.0497
 2281SOL    HW2 8856   6.129   0.968   1.495 -0.6216  0.7849  0.1164
 2281SOL    HW3 8857   6.004   0.884   1.500  0.7063 -1.3020 -0.6000
 2281SOL    MW4 8858   6.084   0.901   1.528 -0.3817 -0.1404  0.0778
 2282SOL     OW 8859   4.105   1.910   4.119  0.1043 -0.4634  0.0392
 2282SOL    HW2 8860   4.051   1.929   4.196 -0.6174 -1.0179 -0.3178
 2282SOL    HW3 8861   4.189   1.952   4.138 -0.1443 -0.3798  1.0198
 2282SOL    MW4 8862   4.109   1.918   4.132  0.5375  0.1132 -0.0542
 2283SOL     OW 8863   3.280   0.281   3.474 -0.4467 -0.1171  0.3205
 2283SOL    HW2 8864   3.288   0.188   3.451 -0.2417 -0.2251  0.8160
 2283SOL    HW3 8865   3.289   0.283   3.569  1.0011  0.5543  0.2012
 2283SOL    MW4 8866   3.282   0.269   3.483  0.2017 -0.4196 -0.2526
 2284SOL     OW 8867   3.205   3.814   4.812  0.0628 -0.0399  0.0839
 2284SOL    HW2 8868   3.294   3.801   4.844  0.1409  1.0253  0.3273
 2284SOL    HW3 8869   3.159   3.856   4.885 -0.8286 -1.1696  0.2106
 2284SOL    MW4 8870   3.211   3.818   4.826 -0.3035  0.4386  0.2402
 2285SOL     OW 8871   6.124   4.481   4.532 -0.4500 -0.3020  0.4133
 2285SOL    HW2 8872   6.050   4.435   4.572  0.3277 -0.0410  2.2574
 2285SOL    HW3 8873   6.089   4.566   4.505 -1.3128 -1.0055 -0.7582
 2285SOL    MW4 8874   6.110   4.486   4.534 -0.5477  0.1208  0.1305
 2286SOL     OW 8875   4.245   6.368   1.386  0.5760  0.1565  0.1023
 2286SOL    HW2 8876   4.215   6.361   1.477  0.5142  0.9910  0.1614
 2286SOL    HW3 8877   4.321   6.426   1.391  0.4452  0.3819 -0.4000
 2286SOL    MW4 8878   4.251   6.375   1.399  0.4460 -0.4755  0.0840
 2287SOL     OW 8879   5.010   5.681   5.845  0.2016  0.1319 -0.1312
 2287SOL    HW2 8880   5.100   5.710   5.833 -0.0476  0.2395 -2.1787
 2287SOL    HW3 8881   4.992   5.628   5.767 -1.7905  0.9035 -0.2578
 2287SOL    MW4 8882   5.020   5.678   5.833  0.0832 -0.2587  0.3979
 2288SOL     OW 8883   3.018   3.985   6.249 -0.1209  0.3258  0.3867
 2288SOL    HW2 8884   2.987   4.023   6.167  0.7967 -1.3243 -0.7664
 2288SOL    HW3 8885   3.026   3.892   6.232  2.5925  0.2603  1.5161
 2288SOL    MW4 8886   3.015   3.978   6.236  0.0230 -0.0296 -0.6654
 2289SOL     OW 8887   3.106   5.145   5.991  0.2273  0.3221  0.0999
 2289SOL    HW2 8888   3.144   5.075   6.043  1.7824  0.0153 -1.3604
 2289SOL    HW3 8889   3.018   5.156   6.026  0.9259 -0.4040  2.2113
 2289SOL    MW4 8890   3.099   5.137   6.002 -0.1395 -0.5418  0.0181
 2290SOL     OW 8891   5.794   0.633   4.712 -0.1018 -0.0253 -0.0052
 2290SOL    HW2 8892   5.771   0.543   4.689  0.2059  0.0590 -0.6769
 2290SOL    HW3 8893   5.861   0.624   4.780  0.3514 -0.3199 -0.4806
 2290SOL    MW4 8894   5.800   0.620   4.718  0.0486 -0.2946 -0.0926
 2291SOL     OW 8895   2.945   0.265   1.056 -0.6715  0.8007  0.1232
 2291SOL    HW2 8896   2.869   0.291   1.003 -0.1003  1.1209 -0.5533
 2291SOL    HW3 8897   2.960   0.174   1.031 -1.7112  0.2558  1.3412
 2291SOL    MW4 8898   2.937   0.256   1.045  0.1875 -0.2787 -0.4995
 2292SOL     OW 8899   2.974   3.938   5.400  0.0092 -0.1127 -0.0340
 2292SOL    HW2 8900   3.034   3.989   5.455  0.1141 -1.3659  1.0692
 2292SOL    HW3 8901   2.919   3.891   5.462 -0.7354 -0.5788 -1.0297
 2292SOL    MW4 8902   2.975   3.938   5.415  0.1752  0.1411  0.5885
 2293SOL     OW 8903   4.183   4.830   1.315 -0.7692 -0.0887 -0.0700
 2293SOL    HW2 8904   4.167   4.887   1.239  1.2954 -0.9763 -1.2465
 2293SOL    HW3 8905   4.258   4.871   1.360 -0.0655 -1.1680 -0.2296
 2293SOL    MW4 8906   4.191   4.843   1.311  0.1723  0.1496 -0.1343
 2294SOL     OW 8907   4.802   3.635   4.131  0.1078  0.0624  0.0251
 2294SOL    HW2 8908   4.895   3.630   4.152  0.7927  4.3267 -1.0504
 2294SOL    HW3 8909   4.759   3.656   4.214  0.5438  0.8244  0.0677
 2294SOL    MW4 8910   4.808   3.637   4.145 -0.1790 -0.3232  0.4865
 2295SOL     OW 8911   0.150   5.645   1.261 -0.0283 -0.1322  0.8560
 2295SOL    HW2 8912   0.119   5.562   1.297  0.7918 -1.0198 -0.4346
 2295SOL    HW3 8913   0.082   5.671   1.199 -0.1411  0.0135  1.0394
 2295SOL    MW4 8914   0.137   5.638   1.258  0.5609 -0.2765 -0.0236
 2296SOL     OW 8915   3.128   3.969   0.901  0.1460 -0.3677  0.3721
 2296SOL    HW2 8916   3.051   3.951   0.847 -0.5499  0.2736  1.1238
 2296SOL    HW3 8917   3.105   4.047   0.951  1.2749 -0.1908  0.6466
 2296SOL    MW4 8918   3.115   3.977   0.901 -0.6359 -0.2205  0.3924
 2297SOL     OW 8919   3.916   4.934   1.835 -0.6948 -0.4479 -0.4789
 2297SOL    HW2 8920   3.848   4.966   1.895 -0.1793  0.5731 -0.4058
 2297SOL    HW3 8921   3.881   4.951   1.748 -1.2615 -1.5327 -0.4725
 2297SOL    MW4 8922   3.903   4.941   1.832 -0.5265  0.4489  0.2359
 2298SOL     OW 8923   2.803   5.737   1.793  0.0278 -0.3271  0.1740
 2298SOL    HW2 8924   2.775   5.713   1.705 -0.5871  2.2789 -0.4048
 2298SOL    HW3 8925   2.870   5.672   1.815  0.1629 -1.0710 -2.1864
 2298SOL    MW4 8926   2.808   5.725   1.785  0.1340 -0.5206  0.0129
 2299SOL     OW 8927   6.228   2.161   5.950  0.2686 -0.4732 -0.4384
 2299SOL    HW2 8928   6.184   2.206   6.022  1.0399 -0.8392  0.2683
 2299SOL    HW3 8929   6.298   2.220   5.924  1.1917 -1.1764  0.3955
 2299SOL    MW4 8930   6.231   2.174   5.956 -1.0853  0.1192  0.6611
 2300SOL     OW 8931   1.761   4.852   4.927  1.1019 -0.4143  0.1838
 2300SOL    HW2 8932   1.772   4.896   5.011 -0.0582 -0.3443  0.3162
 2300SOL    HW3 8933   1.707   4.912   4.875  1.0278 -0.8693 -0.2725
 2300SOL    MW4 8934   1.755   4.866   4.931 -0.3101 -0.4152  0.1195
 2301SOL     OW 8935   1.398   6.356   0.830  0.5048 -0.4288  0.2590
 2301SOL    HW2 8936   1.364   6.337   0.743  2.1266  0.9022 -0.7129
 2301SOL    HW3 8937   1.385   6.450   0.842 -0.0302 -0.6416  1.6306
 2301SOL    MW4 8938   1.392   6.366   0.820  0.0012 -0.3462 -0.1484
 2302SOL     OW 8939   4.676   6.406   3.647  0.6487  0.0622  0.1137
 2302SOL    HW2 8940   4.666   6.320   3.688 -1.6133 -0.5310 -1.4986
 2302SOL    HW3 8941   4.721   6.387   3.564 -1.3291  0.1373 -1.0217
 2302SOL    MW4 8942   4.681   6.392   3.641 -0.6726  0.3260  0.8036
 2303SOL     OW 8943   2.991   0.770   2.724  0.3613 -0.2000 -0.7921
 2303SOL    HW2 8944   2.909   0.794   2.768  0.1657  0.2734 -1.3881
 2303SOL    HW3 8945   3.005   0.678   2.747  0.6865  0.2314  0.8803
 2303SOL    MW4 8946   2.982   0.761   2.733 -0.1510  0.1041  0.2372
 2304SOL     OW 8947   1.273   3.664   6.188 -0.2023  0.2336 -0.3654
 2304SOL    HW2 8948   1.226   3.596   6.140 -0.3754 -0.3520  0.6137
 2304SOL    HW3 8949   1.205   3.715   6.231  0.0054  0.0070  0.2387
 2304SOL    MW4 8950   1.258   3.662   6.187 -0.2722 -1.1466  0.7595
 2305SOL     OW 8951   4.758   2.179   4.971 -1.4850  0.7823 -0.4420
 2305SOL    HW2 8952   4.841   2.131   4.968 -2.9649 -2.0584  0.8667
 2305SOL    HW3 8953   4.761   2.228   5.053 -0.9418  1.0788 -0.6323
 2305SOL    MW4 8954   4.769   2.179   4.981 -0.2622 -0.0556  0.3234
 2306SOL     OW 8955   6.049   1.193   0.976  0.0337  0.3200  0.2503
 2306SOL    HW2 8956   6.089   1.112   0.945  1.3638  1.9435 -2.7061
 2306SOL    HW3 8957   6.116   1.233   1.032 -0.8042 -0.7345  2.1030
 2306SOL    MW4 8958   6.063   1.188   0.980 -0.4602 -0.1537  0.0008
 2307SOL     OW 8959   1.850   4.219   3.546 -0.5179 -0.0128  0.1809
 2307SOL    HW2 8960   1.935   4.194   3.510 -0.9293  0.4012 -1.1190
 2307SOL    HW3 8961   1.850   4.315   3.544 -1.4794 -0.0192 -0.9804
 2307SOL    MW4 8962   1.861   4.229   3.541  0.7688 -0.3318 -0.6409
 2308SOL     OW 8963   4.283   5.717   2.035  0.3515  0.5561 -0.0509
 2308SOL    HW2 8964   4.246   5.653   2.096 -1.2275 -1.3041 -2.7315
 2308SOL    HW3 8965   4.378   5.714   2.051  0.0236 -0.0788  2.0207
 2308SOL    MW4 8966   4.291   5.708   2.045  0.1755 -0.4864  0.0049
 2309SOL     OW 8967   5.020   3.826   2.451 -0.3200 -0.0100 -0.3551
 2309SOL    HW2 8968   5.089   3.857   2.392 -0.7443 -0.6505 -1.2093
 2309SOL    HW3 8969   5.014   3.732   2.434  0.0244 -0.3576  1.2252
 2309SOL    MW4 8970   5.029   3.817   2.441  0.6068  0.0333 -0.3459
 2310SOL     OW 8971   3.844   5.542   1.417  0.0880  0.0737 -0.1940
 2310SOL    HW2 8972   3.908   5.610   1.398  2.1589 -1.2538  1.4567
 2310SOL    HW3 8973   3.862   5.473   1.353  0.2994 -0.2490  0.1971
 2310SOL    MW4 8974   3.855   5.542   1.406  0.2089  0.0647 -0.2327
 2311SOL     OW 8975   4.252   0.730   2.791  0.9542  0.0670  0.3478
 2311SOL    HW2 8976   4.267   0.759   2.701 -0.5298 -0.2545 -0.0256
 2311SOL    HW3 8977   4.271   0.808   2.844 -1.9971  1.5551 -0.5556
 2311SOL    MW4 8978   4.256   0.745   2.786  0.0473 -0.4695  0.2616
 2312SOL     OW 8979   5.247   5.287   5.994  0.4597  0.0254  0.5058
 2312SOL    HW2 8980   5.179   5.354   5.987 -0.5623 -1.0916 -1.1110
 2312SOL    HW3 8981   5.329   5.336   5.995 -0.2029  1.2994 -1.5206
 2312SOL    MW4 8982   5.249   5.302   5.993  0.6916 -0.1250 -0.1369
 2313SOL     OW 8983   4.652   1.464   0.849 -0.5603 -0.2501  0.1726
 2313SOL    HW2 8984   4.638   1.445   0.757  2.7228  1.1878 -0.7536
 2313SOL    HW3 8985   4.666   1.379   0.890 -1.3097 -0.8464 -0.7736
 2313SOL    MW4 8986   4.652   1.450   0.843 -0.1870 -0.5462 -0.3949
 2314SOL     OW 8987   4.334   5.415   3.377 -0.1979 -0.0853 -0.4886
 2314SOL    HW2 8988   4.361   5.429   3.287 -2.5395 -1.2712 -1.4528
 2314SOL    HW3 8989   4.250   5.461   3.384 -0.9208 -1.4929  0.5252
 2314SOL    MW4 8990   4.326   5.423   3.366 -0.2207 -0.6095  0.4645
 2315SOL     OW 8991   4.700   2.675   0.267 -0.1875  0.2141 -0.0413
 2315SOL    HW2 8992   4.649   2.743   0.221 -0.6544  1.1479  1.7583
 2315SOL    HW3 8993   4.762   2.725   0.321  0.5186 -0.8574  0.1616
 2315SOL    MW4 8994   4.702   2.691   0.268 -0.3864 -0.7349  0.6989
 2316SOL     OW 8995   4.577   6.378   0.228 -0.0057 -0.0597  0.1217
 2316SOL    HW2 8996   4.521   6.389   0.305 -0.0266 -1.9096  0.4098
 2316SOL    HW3 8997   4.561   6.456   0.175 -0.6179  0.8499  1.5895
 2316SOL    MW4 8998   4.567   6.390   0.231  0.1580 -0.2790 -0.1277
 2317SOL     OW 8999   3.857   3.680   5.504 -0.1103  0.3036  0.4431
 2317SOL    HW2 9000   3.923   3.633   5.555  0.5867  0.3462 -0.4017
 2317SOL    HW3 9001   3.902   3.757   5.471 -0.6049  0.3652 -0.1020
 2317SOL    MW4 9002   3.871   3.684   5.507  0.2127  0.0823  0.4514
 2318SOL     OW 9003   1.912   2.513   4.076 -0.4036  0.6506 -0.6450
 2318SOL    HW2 9004   1.942   2.435   4.124  0.5766  1.5313  0.2340
 2318SOL    HW3 9005   1.950   2.504   3.989  0.6386  0.6718 -0.2098
 2318SOL    MW4 9006   1.921   2.501   4.071  0.1648 -0.4864 -0.1518
 2319SOL     OW 9007   1.176   4.944   0.603  0.0885  0.2556 -0.4271
 2319SOL    HW2 9008   1.107   4.914   0.663  0.7771 -1.8136 -0.5774
 2319SOL    HW3 9009   1.153   5.034   0.584 -0.9445  0.5603  1.8468
 2319SOL    MW4 9010   1.163   4.952   0.609  0.1573  0.2160 -0.3699
 2320SOL     OW 9011   4.693   4.478   2.537  0.1324  0.2117  0.3825
 2320SOL    HW2 9012   4.699   4.493   2.443  0.8261 -2.0012  0.0227
 2320SOL    HW3 9013   4.658   4.560   2.572 -0.4479  0.9738 -1.8243
 2320SOL    MW4 9014   4.689   4.491   2.529  0.1344 -0.3348  0.1463
 2321SOL     OW 9015   1.862   5.571   0.743  0.1492 -0.2031 -0.2555
 2321SOL    HW2 9016   1.836   5.616   0.824 -0.7084 -0.3665 -0.4390
 2321SOL    HW3 9017   1.781   5.533   0.709  0.6011 -0.5948 -0.9128
 2321SOL    MW4 9018   1.848   5.572   0.749 -0.2461  0.6913  0.0204
 2322SOL     OW 9019   4.350   2.539   0.713  0.2867 -0.0590  0.0460
 2322SOL    HW2 9020   4.358   2.534   0.618 -2.0146  0.1070 -0.2039
 2322SOL    HW3 9021   4.276   2.598   0.728  0.0521 -0.7563  1.9252
 2322SOL    MW4 9022   4.342   2.546   0.702 -0.3908  0.0135  0.0779
 2323SOL     OW 9023   0.961   6.315   1.720 -0.3122 -0.3961  0.2500
 2323SOL    HW2 9024   1.020   6.247   1.753 -0.6547  0.8840  3.9447
 2323SOL    HW3 9025   0.892   6.266   1.675  0.9426 -2.2613  0.2294
 2323SOL    MW4 9026   0.959   6.299   1.718  0.3295  0.1429 -0.2268
 2324SOL     OW 9027   1.554   4.116   6.343  0.2543 -0.3619 -0.0170
 2324SOL    HW2 9028   1.545   4.022   6.360 -0.3834  0.1058  2.6772
 2324SOL    HW3 9029   1.476   4.138   6.291  0.6178 -1.3482 -1.0376
 2324SOL    MW4 9030   1.542   4.107   6.338  0.3778 -0.1292  0.1651
 2325SOL     OW 9031   1.514   4.747   2.343 -0.1841 -0.3779 -0.0903
 2325SOL    HW2 9032   1.595   4.747   2.392  0.3107  0.9164 -0.8280
 2325SOL    HW3 9033   1.530   4.808   2.270 -1.7167 -0.2905 -0.4020
 2325SOL    MW4 9034   1.527   4.755   2.340 -0.4802 -0.2012 -0.1613
 2326SOL     OW 9035   0.251   5.259   5.282 -0.4223 -1.1384 -0.1814
 2326SOL    HW2 9036   0.166   5.267   5.238 -0.1991 -0.3054 -0.4893
 2326SOL    HW3 9037   0.314   5.292   5.219 -0.3448  2.5676  1.5113
 2326SOL    MW4 9038   0.248   5.265   5.268 -0.2371  0.4451  0.2693
 2327SOL     OW 9039   5.160   0.768   2.117  0.1636 -0.5436  0.1086
 2327SOL    HW2 9040   5.096   0.794   2.183  0.3714 -2.1207  0.9806
 2327SOL    HW3 9041   5.244   0.766   2.164  0.3490 -1.4840 -0.2347
 2327SOL    MW4 9042   5.163   0.771   2.132 -0.6540 -0.0961  0.2849
 2328SOL     OW 9043   4.573   0.384   5.198  0.0840  0.2140 -0.3585
 2328SOL    HW2 9044   4.594   0.396   5.291 -2.4831  0.2834  0.2888
 2328SOL    HW3 9045   4.505   0.449   5.180  0.2403 -0.0718 -2.2127
 2328SOL    MW4 9046   4.567   0.394   5.208 -0.4832  0.0880 -0.4080
 2329SOL     OW 9047   2.289   2.788   4.436 -0.4660  0.0681  0.5427
 2329SOL    HW2 9048   2.318   2.699   4.417 -0.0221  0.1691  0.7321
 2329SOL    HW3 9049   2.264   2.785   4.528 -1.3038 -0.0786  0.3186
 2329SOL    MW4 9050   2.289   2.776   4.445  0.3320 -0.7764  0.3428
 2330SOL     OW 9051   1.265   3.134   4.498  0.1727  0.1063 -0.1352
 2330SOL    HW2 9052   1.325   3.188   4.549  0.8557  0.1937 -0.9906
 2330SOL    HW3 9053   1.299   3.140   4.408  0.7738 -2.4004 -0.1306
 2330SOL    MW4 9054   1.278   3.142   4.493 -0.3238 -0.1771  0.2463
 2331SOL     OW 9055   4.905   3.218   1.540  0.4257 -0.1392 -0.8237
 2331SOL    HW2 9056   4.977   3.163   1.510  0.2026 -0.9924  0.1256
 2331SOL    HW3 9057   4.866   3.169   1.612 -0.3757  0.8460 -0.5566
 2331SOL    MW4 9058   4.909   3.204   1.546  0.2044  0.8262  0.4051
 2332SOL     OW 9059   4.635   0.644   4.865  0.1734 -0.2423 -0.2387
 2332SOL    HW2 9060   4.700   0.632   4.935  1.0687  0.1843 -0.9710
 2332SOL    HW3 9061   4.679   0.613   4.786  0.4828  2.4174 -1.2047
 2332SOL    MW4 9062   4.649   0.638   4.864  0.4330 -0.7484  0.3539
 2333SOL     OW 9063   2.053   6.081   4.486  0.0567  0.1927 -0.0522
 2333SOL    HW2 9064   2.097   6.155   4.528  0.7262 -1.1335  1.7274
 2333SOL    HW3 9065   2.017   6.031   4.559  0.8509 -1.9964 -1.0717
 2333SOL    MW4 9066   2.054   6.084   4.501 -1.0722  0.3017  0.6473
 2334SOL     OW 9067   3.161   4.942   0.306  0.0060 -0.5535 -0.3758
 2334SOL    HW2 9068   3.158   5.037   0.297  0.6503 -0.5481 -0.5463
 2334SOL    HW3 9069   3.243   4.916   0.265 -0.2623 -1.2062 -0.5145
 2334SOL    MW4 9070   3.171   4.951   0.299 -0.1876 -0.0742 -0.4469
 2335SOL     OW 9071   4.103   5.627   3.007  0.4995 -0.5489 -0.3142
 2335SOL    HW2 9072   4.091   5.535   2.982 -0.2851 -0.6117  0.2806
 2335SOL    HW3 9073   4.025   5.671   2.975  0.3996 -0.2762  0.2957
 2335SOL    MW4 9074   4.091   5.620   2.999 -0.1863  0.0173  0.1580
 2336SOL     OW 9075   5.015   2.504   5.844  0.3660  0.3155  0.1730
 2336SOL    HW2 9076   5.097   2.454   5.842  0.1971  0.0159  0.6807
 2336SOL    HW3 9077   4.976   2.490   5.758  1.3507  1.3167 -0.4660
 2336SOL    MW4 9078   5.021   2.496   5.832 -0.6288 -0.1086  0.1688
 2337SOL     OW 9079   3.375   0.877   3.920  0.2841 -0.0550 -0.2632
 2337SOL    HW2 9080   3.445   0.858   3.983  1.7935 -0.1055 -1.8732
 2337SOL    HW3 9081   3.400   0.829   3.841 -0.3534  1.7621 -1.6391
 2337SOL    MW4 9082   3.387   0.868   3.918  0.1369  0.1269  0.5038
 2338SOL     OW 9083   4.422   2.231   2.984  0.0611  0.6524 -0.8946
 2338SOL    HW2 9084   4.422   2.152   3.038 -0.6491 -1.1612 -3.3707
 2338SOL    HW3 9085   4.344   2.279   3.012 -0.6536 -0.5634 -0.7233
 2338SOL    MW4 9086   4.412   2.227   2.995 -0.0779  0.3442  0.3820
 2339SOL     OW 9087   1.178   0.600   3.183  0.3206  0.3965  0.2745
 2339SOL    HW2 9088   1.086   0.607   3.156  0.5772  1.7224 -0.3601
 2339SOL    HW3 9089   1.212   0.527   3.131  0.2860  1.6145 -1.5410
 2339SOL    MW4 9090   1.170   0.591   3.173  0.0797  0.4429 -0.5654
 2340SOL     OW 9091   1.436   1.049   1.379 -0.5627 -0.0225 -0.3613
 2340SOL    HW2 9092   1.443   1.131   1.428 -0.5603  0.2889 -0.8756
 2340SOL    HW3 9093   1.365   1.063   1.317 -1.1884 -0.7428  0.1686
 2340SOL    MW4 9094   1.428   1.061   1.377 -0.5109  0.0888  0.1825
 2341SOL     OW 9095   1.275   0.354   0.730  0.5293 -0.1187 -0.1934
 2341SOL    HW2 9096   1.182   0.367   0.748  0.6605  2.5011 -0.9508
 2341SOL    HW3 9097   1.276   0.304   0.648 -0.2400  0.3808 -0.5245
 2341SOL    MW4 9098   1.263   0.350   0.721 -0.4348 -0.5865  0.3462
 2342SOL     OW 9099   4.533   5.610   2.996  0.4034  0.6939 -0.1548
 2342SOL    HW2 9100   4.592   5.596   3.070  0.1411  0.7179  0.0581
 2342SOL    HW3 9101   4.586   5.587   2.919  1.0003  1.6518 -0.0427
 2342SOL    MW4 9102   4.548   5.605   2.995  0.3908  0.2959  0.0971
 2343SOL     OW 9103   3.083   2.036   5.262  0.0131  0.5788 -0.4710
 2343SOL    HW2 9104   3.015   2.098   5.235  0.0237  0.0797 -1.6662
 2343SOL    HW3 9105   3.036   1.957   5.286  0.1349  0.4041 -0.8057
 2343SOL    MW4 9106   3.068   2.034   5.262 -0.0270 -0.1824  0.2139
 2344SOL     OW 9107   0.040   1.167   5.669 -0.0395 -0.0668  0.4465
 2344SOL    HW2 9108   0.034   1.263   5.673 -1.1629 -0.0835 -0.3500
 2344SOL    HW3 9109  -0.034   1.137   5.722  0.9157 -0.5291  1.5621
 2344SOL    MW4 9110   0.030   1.176   5.676 -0.0152 -0.1169 -0.0472
 2345SOL     OW 9111   3.243   4.191   3.433  0.1694  0.3380 -0.1011
 2345SOL    HW2 9112   3.225   4.167   3.342  0.8443  1.4954 -0.5659
 2345SOL    HW3 9113   3.325   4.146   3.454 -0.0492 -0.0261 -0.0182
 2345SOL    MW4 9114   3.251   4.182   3.424 -0.1915 -0.4429 -0.1808
 2346SOL     OW 9115   2.464   3.267   4.843  0.0906  0.7964  0.2946
 2346SOL    HW2 9116   2.494   3.319   4.918  1.0298 -1.8909  1.9322
 2346SOL    HW3 9117   2.374   3.244   4.866  0.1882  0.4482  0.3311
 2346SOL    MW4 9118   2.456   3.271   4.856 -0.1150 -0.6041  0.0663
 2347SOL     OW 9119   3.704   4.920   2.019 -0.4896 -0.0744  0.4595
 2347SOL    HW2 9120   3.740   4.971   2.092  0.7466  2.3642 -1.6802
 2347SOL    HW3 9121   3.619   4.960   2.002  0.1638  0.8674 -0.7555
 2347SOL    MW4 9122   3.698   4.932   2.027  0.1546  0.2729 -0.2968
 2348SOL     OW 9123   0.300   4.121   0.213  0.3427  0.6330  0.2577
 2348SOL    HW2 9124   0.325   4.050   0.272  0.3588 -0.6154 -1.1654
 2348SOL    HW3 9125   0.300   4.199   0.267  1.9066 -0.2005  1.5512
 2348SOL    MW4 9126   0.303   4.122   0.228  0.4210  0.6291  0.1623
 2349SOL     OW 9127   0.814   2.185   2.870  0.2020  0.4002 -0.4933
 2349SOL    HW2 9128   0.905   2.156   2.882 -0.2760 -0.8421  0.3453
 2349SOL    HW3 9129   0.808   2.266   2.920  0.0812 -1.1188  2.1127
 2349SOL    MW4 9130   0.825   2.192   2.878  0.1915  0.5786  0.0821
 2350SOL     OW 9131   5.876   1.998   2.787  0.6038 -0.3005  0.1650
 2350SOL    HW2 9132   5.861   2.069   2.725  1.1391  2.5677  3.0812
 2350SOL    HW3 9133   5.970   1.980   2.781  0.8097  0.5450  0.6424
 2350SOL    MW4 9134   5.886   2.005   2.778 -0.1422  0.3437  0.2106
 2351SOL     OW 9135   5.876   1.092   6.143  0.3165 -0.2823  0.4404
 2351SOL    HW2 9136   5.929   1.097   6.222 -0.4716 -0.6581  1.0110
 2351SOL    HW3 9137   5.786   1.090   6.175 -0.0585  0.5886 -0.5128
 2351SOL    MW4 9138   5.871   1.092   6.157  0.2600 -0.7961 -0.1645
 2352SOL     OW 9139   1.631   3.626   6.224 -0.0807 -0.2261  0.2658
 2352SOL    HW2 9140   1.652   3.615   6.317 -2.0292  0.2609  0.8085
 2352SOL    HW3 9141   1.716   3.623   6.180  0.7977 -1.6593  1.9242
 2352SOL    MW4 9142   1.645   3.624   6.230  0.1400  0.5715 -0.3562
 2353SOL     OW 9143   3.730   0.080   1.940  0.3803  0.0517  0.2905
 2353SOL    HW2 9144   3.688   0.055   1.858  0.6518  0.5804 -0.0121
 2353SOL    HW3 9145   3.743  -0.003   1.987  0.8472 -0.3251 -0.4937
 2353SOL    MW4 9146   3.726   0.066   1.935  0.4422 -0.2639  0.6601
 2354SOL     OW 9147   5.527   5.044   5.732 -0.0062  0.0179  0.0541
 2354SOL    HW2 9148   5.591   5.045   5.803 -3.0412 -0.1236  3.0514
 2354SOL    HW3 9149   5.523   5.134   5.701  1.5318  0.0348 -0.1747
 2354SOL    MW4 9150   5.534   5.056   5.737  0.1106  0.5035  0.4611
 2355SOL     OW 9151   2.388   5.677   4.045 -0.1300 -0.1774  0.2308
 2355SOL    HW2 9152   2.412   5.720   4.128 -1.2905  0.7380  0.1193
 2355SOL    HW3 9153   2.302   5.639   4.063 -0.9267  1.0150 -0.8646
 2355SOL    MW4 9154   2.380   5.678   4.059 -0.1969 -0.1887  0.7387
 2356SOL     OW 9155   3.595   5.191   3.981  0.3192  0.0712 -0.3912
 2356SOL    HW2 9156   3.569   5.278   3.950  1.1179  1.3869  2.3044
 2356SOL    HW3 9157   3.630   5.147   3.903 -0.3875  2.0323 -1.8995
 2356SOL    MW4 9158   3.596   5.197   3.966  0.0703 -1.0210  0.1677
 2357SOL     OW 9159   1.952   4.619   1.949 -0.0436 -0.4256  0.3425
 2357SOL    HW2 9160   1.996   4.695   1.912 -1.3864 -0.7879 -2.2423
 2357SOL    HW3 9161   1.874   4.654   1.992  0.4353 -0.1814  1.0268
 2357SOL    MW4 9162   1.948   4.633   1.950 -0.2060  0.1667 -0.0927
 2358SOL     OW 9163   0.541   2.382   1.787 -0.2870  0.0814 -0.4048
 2358SOL    HW2 9164   0.464   2.342   1.828 -0.9139  0.9836 -0.6580
 2358SOL    HW3 9165   0.603   2.393   1.859 -0.6326 -0.0957 -0.0757
 2358SOL    MW4 9166   0.539   2.378   1.802 -0.0798 -0.5447 -0.1577
 2359SOL     OW 9167   1.608   3.624   0.383 -0.0301 -0.2640 -0.3347
 2359SOL    HW2 9168   1.551   3.641   0.458 -0.7714 -1.5562 -0.5790
 2359SOL    HW3 9169   1.581   3.538   0.351  0.1981  0.3047 -2.1718
 2359SOL    MW4 9170   1.597   3.615   0.389 -0.4586 -0.2259  0.1849
 2360SOL     OW 9171   6.332   1.747   2.155  0.2940  0.0682 -0.7715
 2360SOL    HW2 9172   6.330   1.652   2.171 -0.6520 -0.1701 -2.1108
 2360SOL    HW3 9173   6.391   1.781   2.222  0.7074 -1.4747 -0.2992
 2360SOL    MW4 9174   6.339   1.739   2.166  0.1794 -0.1107  0.1189
 2361SOL     OW 9175   5.104   6.011   6.046  0.4961  0.5381 -0.2903
 2361SOL    HW2 9176   5.065   5.995   5.960  2.6070  1.6047 -1.5294
 2361SOL    HW3 9177   5.194   5.981   6.037  1.3917  2.6885  0.8201
 2361SOL    MW4 9178   5.111   6.005   6.034  0.4270 -0.1199  0.3564
 2362SOL     OW 9179   4.556   4.783   1.913 -0.4086 -0.6185  0.8026
 2362SOL    HW2 9180   4.517   4.712   1.964 -0.7890 -0.3836  0.8352
 2362SOL    HW3 9181   4.491   4.803   1.845 -0.7983  0.4761  1.4874
 2362SOL    MW4 9182   4.543   4.776   1.910 -0.2905  0.7208 -0.6866
 2363SOL     OW 9183   4.309   0.458   3.852 -0.1653 -0.1617 -0.1422
 2363SOL    HW2 9184   4.377   0.393   3.868  1.1300  0.8838 -1.2455
 2363SOL    HW3 9185   4.283   0.444   3.761 -0.4479  0.3480 -0.1419
 2363SOL    MW4 9186   4.314   0.448   3.842  0.1199  0.0061 -0.2645
 2364SOL     OW 9187   4.084   1.979   5.513 -0.3607  0.8480  0.6883
 2364SOL    HW2 9188   4.091   1.896   5.561 -1.2271  0.6393  0.4852
 2364SOL    HW3 9189   4.082   2.046   5.581 -0.4391  0.6389  0.8920
 2364SOL    MW4 9190   4.084   1.977   5.528  0.6869  0.3849  0.3330
 2365SOL     OW 9191   6.420   4.306   4.958 -0.1044  0.0447  0.0131
 2365SOL    HW2 9192   6.388   4.280   4.871 -0.3396  0.9779 -0.1836
 2365SOL    HW3 9193   6.341   4.309   5.012  0.0234 -0.3844  0.2308
 2365SOL    MW4 9194   6.405   4.303   4.954 -0.6643 -0.1994 -0.6290
 2366SOL     OW 9195   1.253   0.803   3.554  0.4603 -0.4731 -0.1408
 2366SOL    HW2 9196   1.181   0.759   3.599  1.6900 -2.7562 -0.2802
 2366SOL    HW3 9197   1.316   0.824   3.623 -0.5673  2.1986  0.0963
 2366SOL    MW4 9198   1.252   0.800   3.569  0.0159  0.1101 -0.1673
 2367SOL     OW 9199   5.407   5.909   6.294  0.3066 -0.1763 -0.4090
 2367SOL    HW2 9200   5.461   5.979   6.257  0.0846 -0.2491 -0.8822
 2367SOL    HW3 9201   5.377   5.859   6.218 -1.4044  0.5660 -0.2907
 2367SOL    MW4 9202   5.410   5.912   6.279  0.1711  0.0593  0.6273
 2368SOL     OW 9203   0.841   3.211   0.835 -0.0554 -0.5934  0.5122
 2368SOL    HW2 9204   0.882   3.133   0.873 -1.2284 -0.3322  2.4807
 2368SOL    HW3 9205   0.902   3.241   0.768  1.6677 -1.6948  1.5275
 2368SOL    MW4 9206   0.854   3.204   0.831 -0.2209 -0.7918  0.1381
 2369SOL     OW 9207   4.703   5.816   4.811  0.3436 -0.7306 -0.0697
 2369SOL    HW2 9208   4.618   5.858   4.824  0.7902 -0.0333  0.7398
 2369SOL    HW3 9209   4.716   5.817   4.716  0.1481  0.6353 -0.1101
 2369SOL    MW4 9210   4.694   5.822   4.800 -0.4648  0.0047  0.1873
 2370SOL     OW 9211   5.822   3.633   1.343 -0.3607  0.1954 -0.4440
 2370SOL    HW2 9212   5.866   3.593   1.268 -1.7589  0.9530 -1.7070
 2370SOL    HW3 9213   5.751   3.572   1.365 -0.6797  0.5574 -0.4783
 2370SOL    MW4 9214   5.819   3.619   1.336  0.0616  0.0186 -0.1710
 2371SOL     OW 9215   1.681   2.036   2.317 -0.5731  0.3339  0.8036
 2371SOL    HW2 9216   1.747   2.048   2.249 -1.7032 -0.8886 -0.5665
 2371SOL    HW3 9217   1.616   2.104   2.299 -0.9321 -0.0648  0.5880
 2371SOL    MW4 9218   1.681   2.047   2.306 -0.2585 -0.2901 -0.0597
 2372SOL     OW 9219   3.415   3.717   1.891  0.4088  0.2792 -0.1687
 2372SOL    HW2 9220   3.403   3.622   1.880  0.2515  0.3508 -0.6365
 2372SOL    HW3 9221   3.491   3.725   1.949  0.8264 -0.1227 -0.6566
 2372SOL    MW4 9222   3.424   3.705   1.897  0.1909 -0.5642  0.0387
 2373SOL     OW 9223   4.402   5.147   2.912  0.3001 -0.1890 -0.5558
 2373SOL    HW2 9224   4.434   5.200   2.839 -1.6227  2.2680  0.2577
 2373SOL    HW3 9225   4.350   5.207   2.965  1.8724 -1.7632  3.1171
 2373SOL    MW4 9226   4.399   5.162   2.909  0.1644  0.0182  0.3502
 2374SOL     OW 9227   4.946   4.924   2.948  0.1833  0.4095 -0.2827
 2374SOL    HW2 9228   4.911   4.946   3.035 -1.3687  2.1582 -1.2710
 2374SOL    HW3 9229   5.037   4.900   2.964 -0.6337 -1.4620  2.0791
 2374SOL    MW4 9230   4.953   4.924   2.962  0.0954  0.1205 -0.4826
 2375SOL     OW 9231   0.635   0.616   5.533 -0.9887  0.1439  0.2730
 2375SOL    HW2 9232   0.724   0.618   5.570 -0.9486  0.2817  0.1697
 2375SOL    HW3 9233   0.638   0.679   5.461 -1.0906 -0.0670  0.0843
 2375SOL    MW4 9234   0.647   0.625   5.528  0.0257 -0.3147 -0.1660
 2376SOL     OW 9235   2.733   1.227   2.099 -0.2791  0.4145 -0.2264
 2376SOL    HW2 9236   2.646   1.193   2.122 -0.3598  1.1267  0.6035
 2376SOL    HW3 9237   2.782   1.150   2.071 -1.1174 -0.0296 -0.5331
 2376SOL    MW4 9238   2.728   1.212   2.099  0.6291  0.0829  0.5834
 2377SOL     OW 9239   4.539   0.484   6.218  0.1613  0.4839  0.0018
 2377SOL    HW2 9240   4.531   0.538   6.296 -1.6561 -0.5541  0.6046
 2377SOL    HW3 9241   4.512   0.541   6.146  1.3032  1.2782  0.1875
 2377SOL    MW4 9242   4.534   0.498   6.219 -0.9776 -0.5267  0.5520
 2378SOL     OW 9243   6.308   2.623   5.069 -0.1882 -0.1771 -0.4597
 2378SOL    HW2 9244   6.264   2.540   5.050 -1.0000  0.6603 -2.4282
 2378SOL    HW3 9245   6.344   2.611   5.157 -0.3500 -2.5764 -0.6658
 2378SOL    MW4 9246   6.307   2.610   5.078  0.0937  0.1023 -0.2130
 2379SOL     OW 9247   2.007   2.439   5.571  0.4606 -0.0023  0.7499
 2379SOL    HW2 9248   2.080   2.501   5.566 -0.5412  1.3278  1.7749
 2379SOL    HW3 9249   2.033   2.377   5.640  1.3940 -0.6462 -0.1596
 2379SOL    MW4 9250   2.020   2.439   5.580 -0.2875  0.0555  0.2974
 2380SOL     OW 9251   1.250   2.986   6.320 -0.0262  0.5758  0.5698
 2380SOL    HW2 9252   1.220   2.945   6.401 -0.3817  0.8074  0.5571
 2380SOL    HW3 9253   1.335   3.024   6.343  0.2564 -0.0598  0.6132
 2380SOL    MW4 9254   1.257   2.986   6.334 -0.1464  0.4530 -0.1666
 2381SOL     OW 9255   2.582   3.389   3.550 -0.4628  0.2468 -0.4944
 2381SOL    HW2 9256   2.634   3.308   3.547 -1.2453 -0.3098  0.2947
 2381SOL    HW3 9257   2.521   3.380   3.476 -0.6629  0.0336 -0.3041
 2381SOL    MW4 9258   2.581   3.377   3.540  0.3782 -0.3050 -0.0345
 2382SOL     OW 9259   1.064   1.767   2.288  0.0963  0.5816  0.7367
 2382SOL    HW2 9260   0.976   1.792   2.316  0.5119 -0.4112  3.1701
 2382SOL    HW3 9261   1.087   1.694   2.344  1.0771 -1.6847 -2.3605
 2382SOL    MW4 9262   1.056   1.761   2.299  0.1383  0.1862 -0.2250
 2383SOL     OW 9263   6.057   4.429   3.377  0.2261  0.4559 -0.5425
 2383SOL    HW2 9264   6.019   4.343   3.358 -0.5519  0.6106  0.2688
 2383SOL    HW3 9265   6.139   4.430   3.327  3.0836 -2.8689  3.4458
 2383SOL    MW4 9266   6.063   4.417   3.368 -0.2207 -0.3493  0.0503
 2384SOL     OW 9267   2.097   3.376   0.193 -0.0912 -0.2304 -0.3416
 2384SOL    HW2 9268   2.053   3.325   0.261  0.5056  0.5048  0.6106
 2384SOL    HW3 9269   2.186   3.342   0.190 -0.3595 -0.8899 -1.4238
 2384SOL    MW4 9270   2.103   3.365   0.202 -0.1297 -0.2410 -0.2005
 2385SOL     OW 9271   4.547   5.138   1.099 -0.0185 -0.1209  0.1498
 2385SOL    HW2 9272   4.569   5.059   1.148  0.1363  0.9365  1.8438
 2385SOL    HW3 9273   4.508   5.105   1.017 -2.4650 -1.9761  1.9173
 2385SOL    MW4 9274   4.545   5.123   1.094 -0.2793 -0.0461 -0.1097
 2386SOL     OW 9275   1.205   2.860   5.227  0.0979 -0.6084 -0.0495
 2386SOL    HW2 9276   1.299   2.867   5.211  0.2665 -3.3300 -0.8475
 2386SOL    HW3 9277   1.199   2.814   5.311 -0.5973  0.7526  0.6822
 2386SOL    MW4 9278   1.217   2.855   5.236  0.0722 -0.0707 -0.5047
 2387SOL     OW 9279   1.717   3.959   2.465  0.2653  0.7097 -0.1257
 2387SOL    HW2 9280   1.768   3.878   2.475 -0.9566  0.1454  2.3897
 2387SOL    HW3 9281   1.779   4.029   2.485  0.8336  0.2696 -0.3187
 2387SOL    MW4 9282   1.732   3.957   2.469  0.3093  0.1963  0.1823
 2388SOL     OW 9283   0.152   3.076   5.011  0.0960  0.4242  0.0309
 2388SOL    HW2 9284   0.066   3.039   5.030 -0.3994  1.6610  0.2982
 2388SOL    HW3 9285   0.214   3.007   5.035 -0.8270 -0.5899 -0.4418
 2388SOL    MW4 9286   0.149   3.062   5.017 -0.7001  0.5295  0.3696
 2389SOL     OW 9287   1.241   1.595   0.194  0.0181  0.1334  0.4595
 2389SOL    HW2 9288   1.270   1.559   0.278  0.7199 -0.2564  0.0566
 2389SOL    HW3 9289   1.146   1.589   0.197  0.0447 -0.0306  1.1631
 2389SOL    MW4 9290   1.233   1.590   0.205 -0.3129 -0.0788  0.1679
 2390SOL     OW 9291   5.799   5.172   1.960 -0.9663 -0.4625 -0.5197
 2390SOL    HW2 9292   5.837   5.104   2.015 -0.3269 -0.2269 -0.6679
 2390SOL    HW3 9293   5.756   5.231   2.021  1.4495  0.9076 -0.0605
 2390SOL    MW4 9294   5.798   5.170   1.975 -0.2497  0.4102 -0.1441
 2391SOL     OW 9295   0.089   4.914   4.733  0.0745  0.1082 -0.1250
 2391SOL    HW2 9296   0.041   4.997   4.735 -1.0446 -0.5137  1.8427
 2391SOL    HW3 9297   0.051   4.863   4.805  1.3265 -1.7852 -0.7340
 2391SOL    MW4 9298   0.077   4.918   4.743  0.0504  0.1263 -0.2711
 2392SOL     OW 9299   5.469   0.104   2.120  0.3901  0.2350  0.8726
 2392SOL    HW2 9300   5.505   0.034   2.173 -3.8848 -1.1122  2.4135
 2392SOL    HW3 9301   5.432   0.060   2.043  0.7682  1.3313  0.0267
 2392SOL    MW4 9302   5.469   0.089   2.117  0.1777  0.1685 -0.0762
 2393SOL     OW 9303   3.201   6.083   5.506 -0.0747  0.1214  0.4076
 2393SOL    HW2 9304   3.164   6.039   5.430  2.1900  0.3020 -0.8987
 2393SOL    HW3 9305   3.266   6.143   5.469  1.1695  0.1388  2.4940
 2393SOL    MW4 9306   3.205   6.085   5.491 -0.9742 -0.4928  0.1086
 2394SOL     OW 9307   4.825   5.846   1.300 -0.2952 -0.1619 -0.3604
 2394SOL    HW2 9308   4.865   5.764   1.330  0.7584  0.3924 -0.1879
 2394SOL    HW3 9309   4.755   5.863   1.362  0.0027 -0.5197  0.0819
 2394SOL    MW4 9310   4.821   5.837   1.312  0.6837 -0.4591  0.0618
 2395SOL     OW 9311   3.973   4.906   3.726 -0.1959  0.4108  0.3478
 2395SOL    HW2 9312   3.985   4.938   3.637 -0.0696 -0.0207  0.2098
 2395SOL    HW3 9313   3.911   4.834   3.718  0.3755 -0.1096  0.5092
 2395SOL    MW4 9314   3.967   4.901   3.713  0.0779  0.6033  0.1353
 2396SOL     OW 9315   0.573   6.378   2.769 -0.3266  0.0341 -0.5694
 2396SOL    HW2 9316   0.601   6.332   2.690  0.5988  1.4360 -1.1086
 2396SOL    HW3 9317   0.491   6.337   2.793  0.1379 -1.4370 -1.3816
 2396SOL    MW4 9318   0.566   6.367   2.761  0.7950 -0.1436 -0.2514
 2397SOL     OW 9319   3.577   1.659   3.376  0.2064 -0.0694  0.0101
 2397SOL    HW2 9320   3.512   1.725   3.352  0.1732  0.0967  0.5479
 2397SOL    HW3 9321   3.550   1.629   3.463  0.6153 -0.2928  0.0631
 2397SOL    MW4 9322   3.565   1.663   3.384  0.2010 -0.0615  0.0932
 2398SOL     OW 9323   3.119   6.107   1.312  0.0928 -0.0895  0.4056
 2398SOL    HW2 9324   3.164   6.071   1.389  0.5777  1.5083  0.9056
 2398SOL    HW3 9325   3.027   6.111   1.338  0.3110  0.8584  1.1010
 2398SOL    MW4 9326   3.113   6.103   1.326 -0.4516  0.4997 -0.1403
 2399SOL     OW 9327   6.140   3.999   0.669 -0.6883 -0.0517 -0.4152
 2399SOL    HW2 9328   6.186   3.929   0.623 -1.2327 -0.1224 -0.8699
 2399SOL    HW3 9329   6.055   4.004   0.625 -0.4683  1.2499 -0.7352
 2399SOL    MW4 9330   6.135   3.990   0.657 -0.3559  0.7496 -0.1429
 2400SOL     OW 9331   6.287   1.518   3.406  0.3516 -0.1010  0.6559
 2400SOL    HW2 9332   6.236   1.481   3.478  1.2118  0.3359  1.5169
 2400SOL    HW3 9333   6.369   1.468   3.408  0.2758 -0.2799 -0.2200
 2400SOL    MW4 9334   6.291   1.506   3.416  0.1806 -0.7206  0.1074
 2401SOL     OW 9335   1.186   1.885   3.632  0.2145  0.0707 -0.2465
 2401SOL    HW2 9336   1.245   1.828   3.583  0.7137 -1.3633  1.8678
 2401SOL    HW3 9337   1.141   1.936   3.566  1.2499 -1.3448 -2.1375
 2401SOL    MW4 9338   1.188   1.884   3.617 -0.1791 -0.5553 -0.9610
 2402SOL     OW 9339   1.412   4.329   3.428 -0.0577  0.2781 -0.6966
 2402SOL    HW2 9340   1.438   4.325   3.520  1.0826 -0.2933 -1.0278
 2402SOL    HW3 9341   1.459   4.405   3.393  0.1822 -0.0081 -1.0037
 2402SOL    MW4 9342   1.422   4.338   3.436  0.4521  0.1617 -0.7113
 2403SOL     OW 9343   2.967   0.154   6.320 -0.4296  0.3949 -0.0181
 2403SOL    HW2 9344   3.060   0.172   6.304 -0.6037  0.5869 -0.8299
 2403SOL    HW3 9345   2.936   0.116   6.238 -0.8227 -0.6611  0.6070
 2403SOL    MW4 9346   2.975   0.151   6.307 -0.1029 -0.3690 -0.1882
 2404SOL     OW 9347   2.774   1.587   6.287  0.1010 -0.0303 -0.1500
 2404SOL    HW2 9348   2.753   1.555   6.375  2.7558 -0.4817  0.4239
 2404SOL    HW3 9349   2.821   1.514   6.247 -0.9828  0.2104 -1.9552
 2404SOL    MW4 9350   2.777   1.573   6.293 -0.1029  0.2856  0.3827
 2405SOL     OW 9351   0.967   4.104   2.777  0.0518 -0.2049 -0.8229
 2405SOL    HW2 9352   0.916   4.093   2.698  0.2352 -1.4250 -0.7907
 2405SOL    HW3 9353   1.015   4.186   2.764 -0.9788  0.3250 -1.3606
 2405SOL    MW4 9354   0.967   4.113   2.765 -0.1069  0.6216 -0.6353
 2406SOL     OW 9355   6.403   5.188   5.216 -0.0639  0.2773 -0.1967
 2406SOL    HW2 9356   6.403   5.176   5.311 -0.3203 -0.8141 -0.3153
 2406SOL    HW3 9357   6.435   5.104   5.182 -1.5544  0.0572 -1.1221
 2406SOL    MW4 9358   6.407   5.175   5.224  0.2103 -0.0908  0.4132
 2407SOL     OW 9359   0.741   4.323   0.153 -0.1442  0.7861 -0.2595
 2407SOL    HW2 9360   0.667   4.284   0.106 -0.6199  1.6555 -0.2596
 2407SOL    HW3 9361   0.708   4.407   0.183  0.5789  0.8104  0.4980
 2407SOL    MW4 9362   0.727   4.329   0.151 -0.0277 -0.3745  0.8712
 2408SOL     OW 9363   2.778   0.676   4.989  0.4385 -0.4348  0.4837
 2408SOL    HW2 9364   2.683   0.664   4.984  0.3725  0.1347  0.2512
 2408SOL    HW3 9365   2.801   0.653   5.079  0.2405 -1.6506  0.2292
 2408SOL    MW4 9366   2.768   0.672   5.000 -1.0136  0.0553  0.0343
 2409SOL     OW 9367   2.772   3.154   5.175 -0.7944 -0.3584 -0.2267
 2409SOL    HW2 9368   2.713   3.157   5.100 -1.8989 -0.0085  0.6221
 2409SOL    HW3 9369   2.767   3.241   5.213 -2.5852 -1.2980  1.9430
 2409SOL    MW4 9370   2.763   3.166   5.170 -0.1832 -0.0988 -0.0961
 2410SOL     OW 9371   0.073   0.834   0.042  0.1473 -0.3111 -0.4326
 2410SOL    HW2 9372   0.138   0.817  -0.027 -0.0270 -0.5886 -0.5315
 2410SOL    HW3 9373  -0.011   0.820  -0.001  0.0527 -1.6311  0.1171
 2410SOL    MW4 9374   0.071   0.830   0.027 -0.0312 -0.2597 -0.1528
 2411SOL     OW 9375   5.112   1.074   2.319 -0.0931 -0.0894  0.0250
 2411SOL    HW2 9376   5.079   1.141   2.259  0.3483 -1.1224 -1.4415
 2411SOL    HW3 9377   5.208   1.079   2.309 -0.0396 -0.5915  0.2822
 2411SOL    MW4 9378   5.121   1.084   2.310  0.2415 -0.2852 -0.2753
 2412SOL     OW 9379   1.653   1.015   3.724 -0.2577  0.2878  0.7985
 2412SOL    HW2 9380   1.576   1.056   3.763 -0.0545 -0.0454  1.5550
 2412SOL    HW3 9381   1.639   1.023   3.629 -1.6763 -0.6008  0.9113
 2412SOL    MW4 9382   1.641   1.022   3.717 -0.6555  0.2642 -0.1410
 2413SOL     OW 9383   4.242   3.101   1.628 -0.1549 -0.6036 -0.1644
 2413SOL    HW2 9384   4.148   3.082   1.626 -0.4736  0.8780 -0.8732
 2413SOL    HW3 9385   4.253   3.172   1.566  1.4748 -0.8190 -0.1708
 2413SOL    MW4 9386   4.231   3.108   1.619 -0.2933  0.1960 -0.1805
 2414SOL     OW 9387   2.846   4.802   2.681 -0.3272 -0.3534 -0.0440
 2414SOL    HW2 9388   2.769   4.851   2.710  0.6715  2.5186 -1.8734
 2414SOL    HW3 9389   2.814   4.749   2.607 -1.0631 -1.3245  0.9321
 2414SOL    MW4 9390   2.832   4.801   2.675  0.5055 -0.0707 -0.3704
 2415SOL     OW 9391   5.153   2.132   3.225 -0.2994 -0.2032 -0.4707
 2415SOL    HW2 9392   5.162   2.062   3.290 -1.7535 -0.6110 -0.6695
 2415SOL    HW3 9393   5.059   2.143   3.216 -0.0946  0.8394 -1.4698
 2415SOL    MW4 9394   5.142   2.124   3.232 -0.6587 -0.2667  0.1670
 2416SOL     OW 9395   6.369   1.303   1.418 -0.2364 -0.3671 -0.0646
 2416SOL    HW2 9396   6.321   1.222   1.400 -0.5515 -0.3302  0.5801
 2416SOL    HW3 9397   6.443   1.276   1.471  1.5851 -0.7042 -2.5720
 2416SOL    MW4 9398   6.372   1.289   1.422  0.0858 -0.0929 -0.5858
 2417SOL     OW 9399   5.380   0.562  -0.006  0.6617  0.0230  0.2840
 2417SOL    HW2 9400   5.445   0.504  -0.046  0.4238 -0.2051  0.2295
 2417SOL    HW3 9401   5.333   0.600  -0.080  1.2785  0.8250  0.2907
 2417SOL    MW4 9402   5.383   0.559  -0.021  0.6865  0.1792  0.4681
 2418SOL     OW 9403   4.148   3.084   5.532 -0.2944  0.6968  0.0189
 2418SOL    HW2 9404   4.130   3.080   5.438 -1.2869  1.4727  0.1499
 2418SOL    HW3 9405   4.230   3.037   5.543 -1.9073 -2.6139 -0.7631
 2418SOL    MW4 9406   4.156   3.077   5.521 -0.3661  0.2681  0.2397
 2419SOL     OW 9407   5.276   3.173   4.352  0.0642  0.1179  0.3446
 2419SOL    HW2 9408   5.219   3.115   4.302 -1.5056 -1.0827  3.2756
 2419SOL    HW3 9409   5.232   3.257   4.351 -0.6659 -0.2459  0.7444
 2419SOL    MW4 9410   5.263   3.176   4.345 -0.1679  0.0768 -0.6651
 2420SOL     OW 9411   3.816   3.700   5.991  0.2817  0.3822  0.0093
 2420SOL    HW2 9412   3.846   3.623   6.039 -0.8356  0.0290  0.1706
 2420SOL    HW3 9413   3.856   3.774   6.037  0.3382 -0.0350  0.6429
 2420SOL    MW4 9414   3.825   3.700   6.003 -0.0170  0.6653  0.2334
 2421SOL     OW 9415   5.705   2.413   5.994 -0.2194 -0.4137 -0.0951
 2421SOL    HW2 9416   5.790   2.456   5.985 -0.3125 -0.2154 -0.0215
 2421SOL    HW3 9417   5.715   2.330   5.947 -0.5624  0.4223 -1.7142
 2421SOL    MW4 9418   5.718   2.408   5.986 -0.4567 -0.4550 -0.3597
 2422SOL     OW 9419   5.066   1.644   1.809  0.1356  0.5381  0.2941
 2422SOL    HW2 9420   5.149   1.674   1.846  0.5926  0.1600 -0.3851
 2422SOL    HW3 9421   5.049   1.560   1.852  0.5338  0.2233 -0.1446
 2422SOL    MW4 9422   5.074   1.637   1.819  0.1440  0.0345 -0.2200
 2423SOL     OW 9423   4.249   0.408   1.358 -0.1608  0.0861 -0.1547
 2423SOL    HW2 9424   4.257   0.422   1.452 -1.6117 -4.3175  0.8431
 2423SOL    HW3 9425   4.160   0.436   1.337  0.1802  1.1146 -0.2697
 2423SOL    MW4 9426   4.238   0.414   1.368  0.2333  0.1989 -0.3906
 2424SOL     OW 9427   2.019   2.799   1.283  0.2383  0.4031 -0.6199
 2424SOL    HW2 9428   2.043   2.818   1.193  0.5231 -0.0935 -0.6565
 2424SOL    HW3 9429   1.927   2.824   1.290 -0.9940 -3.0884 -2.1528
 2424SOL    MW4 9430   2.010   2.804   1.272 -0.7320  0.4423  0.3467
 2425SOL     OW 9431   1.482   0.184   5.059  0.3806  0.2307  0.3293
 2425SOL    HW2 9432   1.477   0.239   4.980 -0.4777  1.8052  1.4246
 2425SOL    HW3 9433   1.417   0.115   5.043 -0.7435  1.2819  0.1649
 2425SOL    MW4 9434   1.473   0.182   5.046 -0.5191 -0.0197 -0.4594
 2426SOL     OW 9435   3.191   3.923   0.384 -0.0765  0.4320 -0.2968
 2426SOL    HW2 9436   3.258   3.975   0.340 -0.1740  0.6284 -0.2175
 2426SOL    HW3 9437   3.213   3.928   0.477 -0.3802  0.7632 -0.2399
 2426SOL    MW4 9438   3.202   3.931   0.391 -0.0666 -0.2668 -0.1818
 2427SOL     OW 9439   5.250   2.154   2.247 -0.2545 -0.4035  0.0016
 2427SOL    HW2 9440   5.245   2.216   2.320  0.8871 -0.9539  0.5688
 2427SOL    HW3 9441   5.300   2.080   2.281  0.0541 -0.8013 -1.2570
 2427SOL    MW4 9442   5.256   2.153   2.261 -0.4659 -0.2286  0.4017
 2428SOL     OW 9443   2.634   1.862   3.199 -0.2795 -0.1626  0.2710
 2428SOL    HW2 9444   2.714   1.819   3.171  0.7445  2.5163 -1.2844
 2428SOL    HW3 9445   2.570   1.840   3.131 -0.1269 -0.2313  0.1489
 2428SOL    MW4 9446   2.636   1.853   3.186 -0.1323  0.3444 -0.0371
 2429SOL     OW 9447   5.544   4.438   3.039 -0.3635  0.2035 -0.2358
 2429SOL    HW2 9448   5.519   4.368   3.099  0.4971  0.2826  0.2277
 2429SOL    HW3 9449   5.634   4.417   3.013 -0.3235  0.7900 -0.5946
 2429SOL    MW4 9450   5.552   4.426   3.044  0.1014  0.1899 -0.5481
 2430SOL     OW 9451   0.983   0.083   0.425 -0.2849  0.2987 -0.1189
 2430SOL    HW2 9452   0.923   0.143   0.382  0.5391  2.2316  1.2546
 2430SOL    HW3 9453   0.946   0.070   0.512  0.3244  0.0058  0.1024
 2430SOL    MW4 9454   0.971   0.089   0.431  0.8467  0.3493 -0.0363
 2431SOL     OW 9455   5.022   0.242   5.553  0.5597  0.3008 -0.0704
 2431SOL    HW2 9456   4.977   0.326   5.546 -0.4463 -0.3589 -2.7546
 2431SOL    HW3 9457   4.952   0.178   5.567  0.7494 -0.5355 -2.4912
 2431SOL    MW4 9458   5.007   0.245   5.554 -0.0918  0.1652  0.4827
 2432SOL     OW 9459   3.000   2.094   3.824  0.5107 -0.0064 -0.0478
 2432SOL    HW2 9460   2.940   2.164   3.849  1.4453  0.4986  0.8411
 2432SOL    HW3 9461   2.946   2.015   3.821 -0.2412  0.4831  0.4766
 2432SOL    MW4 9462   2.985   2.093   3.827 -0.0097 -0.3149  0.0714
 2433SOL     OW 9463   1.247   0.640   5.150 -0.1877 -0.0911 -0.9215
 2433SOL    HW2 9464   1.339   0.616   5.159 -0.1137  0.2766 -0.7108
 2433SOL    HW3 9465   1.200   0.577   5.205  0.0841  0.8003  0.3677
 2433SOL    MW4 9466   1.253   0.628   5.158  0.0813 -0.4991  0.1477
 2434SOL     OW 9467   6.132   5.100   1.158  0.1023 -0.6054 -0.4921
 2434SOL    HW2 9468   6.216   5.114   1.114 -0.4663  1.3497 -1.0460
 2434SOL    HW3 9469   6.069   5.149   1.105 -1.0911 -0.6436  0.8530
 2434SOL    MW4 9470   6.135   5.108   1.145 -0.0267 -0.1996  0.0795
 2435SOL     OW 9471   0.528   3.317   5.958 -0.2703  0.3098  0.4635
 2435SOL    HW2 9472   0.490   3.398   5.924 -0.2108  0.3242  0.4323
 2435SOL    HW3 9473   0.459   3.280   6.013 -0.6993 -0.1689 -0.3820
 2435SOL    MW4 9474   0.514   3.323   5.961  0.4544 -0.5057 -0.4667
 2436SOL     OW 9475   5.484   6.116   5.188 -0.3494  0.7484 -0.2463
 2436SOL    HW2 9476   5.463   6.023   5.179  0.2314  0.7334 -1.8509
 2436SOL    HW3 9477   5.494   6.146   5.098 -0.4915  2.3672  0.2614
 2436SOL    MW4 9478   5.483   6.107   5.175 -0.1101 -0.5407 -0.1354
 2437SOL     OW 9479   6.107   3.786   3.470 -0.2706  0.3144  0.2854
 2437SOL    HW2 9480   6.064   3.720   3.416  0.0042 -0.1446  0.6224
 2437SOL    HW3 9481   6.189   3.805   3.424 -0.4051  0.5140  0.1250
 2437SOL    MW4 9482   6.112   3.780   3.457  0.5897  0.3834 -0.4532
 2438SOL     OW 9483   2.469   4.546   2.149  0.5602  0.0916 -0.1557
 2438SOL    HW2 9484   2.563   4.549   2.132  0.5214 -1.8007 -0.9101
 2438SOL    HW3 9485   2.429   4.581   2.069  0.5883  1.8083  0.5255
 2438SOL    MW4 9486   2.476   4.551   2.136  0.3868 -0.1222  0.6297
 2439SOL     OW 9487   6.182   5.966   0.214 -0.3046  0.6752 -0.7025
 2439SOL    HW2 9488   6.149   5.909   0.284  2.4135 -1.6582 -1.1455
 2439SOL    HW3 9489   6.134   5.938   0.136  0.5544 -0.6728 -0.7891
 2439SOL    MW4 9490   6.171   5.955   0.213  0.0777 -0.4825 -0.2172
 2440SOL     OW 9491   4.745   0.085   1.881  0.3439  0.1366 -0.4412
 2440SOL    HW2 9492   4.744   0.155   1.816 -1.1867  1.6528  1.1159
 2440SOL    HW3 9493   4.705   0.011   1.837 -0.9112  1.2049 -1.1724
 2440SOL    MW4 9494   4.740   0.085   1.867 -0.1359 -0.3582 -0.3028
 2441SOL     OW 9495   0.578   5.830   1.382  0.5066 -0.0738 -0.1322
 2441SOL    HW2 9496   0.514   5.793   1.322 -0.1981  0.6593  0.1426
 2441SOL    HW3 9497   0.656   5.776   1.370  0.4931  0.2349 -1.9217
 2441SOL    MW4 9498   0.580   5.818   1.372 -0.2144  0.1650 -0.0642
 2442SOL     OW 9499   2.645   3.052   5.387  0.1272  0.1295  0.4543
 2442SOL    HW2 9500   2.589   2.978   5.365  1.2666 -1.3018  2.1259
 2442SOL    HW3 9501   2.688   3.074   5.304  0.5405 -1.7920  0.1027
 2442SOL    MW4 9502   2.643   3.045   5.373 -0.5798 -0.3629 -0.5698
 2443SOL     OW 9503   2.217   4.167   5.982 -0.0252 -0.3766 -0.0089
 2443SOL    HW2 9504   2.235   4.165   5.888 -3.0246 -1.7399 -0.6560
 2443SOL    HW3 9505   2.237   4.257   6.009  2.5480 -0.4045 -1.5116
 2443SOL    MW4 9506   2.222   4.179   5.973  0.3841 -0.2745 -0.4618
 2444SOL     OW 9507   0.609   3.131   3.676 -0.2038 -0.5684 -0.3188
 2444SOL    HW2 9508   0.701   3.148   3.693 -0.4412  1.1641 -0.5858
 2444SOL    HW3 9509   0.578   3.209   3.631 -1.9279 -0.8667  0.2643
 2444SOL    MW4 9510   0.617   3.143   3.673  0.2949  0.1124  0.9528
 2445SOL     OW 9511   2.294   5.126   1.792 -0.3442 -0.1441  0.0953
 2445SOL    HW2 9512   2.230   5.104   1.725 -1.7910  0.2083  1.2990
 2445SOL    HW3 9513   2.369   5.069   1.774 -1.3342 -1.1978 -0.8373
 2445SOL    MW4 9514   2.296   5.116   1.781  0.3505 -0.2869 -0.4742
 2446SOL     OW 9515   0.186   6.386   3.452 -0.2125 -0.0415 -0.0916
 2446SOL    HW2 9516   0.279   6.407   3.455  0.1320 -1.3635 -0.9461
 2446SOL    HW3 9517   0.169   6.363   3.361 -0.6680 -2.8069  0.5952
 2446SOL    MW4 9518   0.196   6.386   3.441 -0.0453  0.6309 -0.1068
 2447SOL     OW 9519   3.598   6.405   5.178 -0.2459 -0.1464 -0.5080
 2447SOL    HW2 9520   3.511   6.376   5.151 -0.0484 -0.2860 -1.0115
 2447SOL    HW3 9521   3.655   6.377   5.107  0.6244 -2.3268  0.9289
 2447SOL    MW4 9522   3.594   6.398   5.165 -0.1953 -0.2222 -0.3545
 2448SOL     OW 9523   5.361   2.107   4.744 -0.0801 -0.1147  0.3734
 2448SOL    HW2 9524   5.349   2.111   4.649 -1.0354  2.7324  0.5213
 2448SOL    HW3 9525   5.333   2.019   4.768  0.8021 -1.1321 -2.0352
 2448SOL    MW4 9526   5.356   2.096   4.735  0.0498 -0.3786 -0.2455
 2449SOL     OW 9527   2.900   3.603   5.073 -0.2803 -0.0083 -0.4724
 2449SOL    HW2 9528   2.838   3.668   5.041 -0.9081 -0.4941 -0.2714
 2449SOL    HW3 9529   2.969   3.654   5.116 -2.5248  0.4852  2.8893
 2449SOL    MW4 9530   2.901   3.618   5.074 -0.0032 -0.1233 -0.2298
 2450SOL     OW 9531   6.343   1.613   1.799  0.0171  0.8545  0.8908
 2450SOL    HW2 9532   6.398   1.643   1.872  0.2512  0.2006  0.9862
 2450SOL    HW3 9533   6.263   1.582   1.841 -0.7120  2.3696  0.7108
 2450SOL    MW4 9534   6.340   1.613   1.814 -0.2773 -0.0430 -0.1264
 2451SOL     OW 9535   1.951   3.152   2.308  0.2172  0.0414 -0.2003
 2451SOL    HW2 9536   1.992   3.084   2.360 -2.4020 -0.8445  0.8739
 2451SOL    HW3 9537   1.908   3.106   2.237 -0.8139  0.6478  0.0093
 2451SOL    MW4 9538   1.951   3.137   2.306 -0.6608  0.1571 -0.3956
 2452SOL     OW 9539   5.836   2.625   1.249  0.4698 -0.0479 -0.1743
 2452SOL    HW2 9540   5.913   2.639   1.194  0.4354  2.7215  0.2944
 2452SOL    HW3 9541   5.863   2.658   1.335 -1.2287  1.1113 -0.0360
 2452SOL    MW4 9542   5.850   2.631   1.253  0.1829 -0.2706 -0.3142
 2453SOL     OW 9543   3.770   5.385   2.258 -0.0008  0.1512 -0.2533
 2453SOL    HW2 9544   3.799   5.415   2.344 -1.3637  0.7376  0.0159
 2453SOL    HW3 9545   3.810   5.446   2.197  0.0374  0.4293  0.0464
 2453SOL    MW4 9546   3.779   5.397   2.261  0.2099  0.3794  0.2386
 2454SOL     OW 9547   4.403   3.792   3.929  0.0108 -0.2581  0.2702
 2454SOL    HW2 9548   4.372   3.805   4.019  3.3880 -1.1207  1.6867
 2454SOL    HW3 9549   4.375   3.703   3.907 -0.1359 -0.3378  0.7621
 2454SOL    MW4 9550   4.395   3.782   3.938 -0.2809 -0.5076  0.4238
 2455SOL     OW 9551   0.689   1.979   0.188 -0.5705  0.4539  0.2874
 2455SOL    HW2 9552   0.782   1.999   0.180 -0.3090 -0.2320  1.3233
 2455SOL    HW3 9553   0.682   1.887   0.164 -1.1471  0.7462 -0.7268
 2455SOL    MW4 9554   0.700   1.969   0.184 -0.0852  0.6979  0.3460
 2456SOL     OW 9555   3.933   3.034   4.789 -0.3864 -0.9658  0.0384
 2456SOL    HW2 9556   3.885   3.117   4.776 -0.1101 -1.0932 -2.1800
 2456SOL    HW3 9557   3.976   3.045   4.874 -0.8937  0.8915  0.1172
 2456SOL    MW4 9558   3.932   3.047   4.799  0.3520 -1.3383 -0.0636
 2457SOL     OW 9559   5.043   6.117   5.259 -0.5407  0.7188  0.3859
 2457SOL    HW2 9560   5.115   6.179   5.245  0.8034 -0.9468 -0.4249
 2457SOL    HW3 9561   5.018   6.130   5.351  0.7114  1.4279  0.6490
 2457SOL    MW4 9562   5.049   6.127   5.270  0.3764 -0.4526 -0.0343
 2458SOL     OW 9563   4.582   0.896   1.411 -0.0768 -0.1090  0.1848
 2458SOL    HW2 9564   4.513   0.843   1.372 -0.4810  0.3229  0.2965
 2458SOL    HW3 9565   4.633   0.927   1.337 -0.3172 -0.0093  0.0578
 2458SOL    MW4 9566   4.579   0.893   1.396  0.0904 -0.2669  0.7754
 2459SOL     OW 9567   0.524   0.168   6.326 -0.4244 -0.1122 -0.2865
 2459SOL    HW2 9568   0.533   0.263   6.329 -0.4927 -0.0428 -1.6214
 2459SOL    HW3 9569   0.439   0.150   6.365 -1.0871  0.5190 -1.4012
 2459SOL    MW4 9570   0.514   0.178   6.332  0.5974  0.2207  0.2255
 2460SOL     OW 9571   5.950   4.872   5.533 -0.0878  0.4799  0.3086
 2460SOL    HW2 9572   5.873   4.888   5.479  0.3629  0.2826 -0.4067
 2460SOL    HW3 9573   5.941   4.933   5.606 -1.0374  0.2870  0.3600
 2460SOL    MW4 9574   5.939   4.882   5.535  0.2060  0.3663 -0.0741
 2461SOL     OW 9575   2.060   0.578   3.932 -0.6220 -0.7078  0.3143
 2461SOL    HW2 9576   2.106   0.499   3.904  0.1857  0.1271 -0.8662
 2461SOL    HW3 9577   1.998   0.596   3.862 -0.6506 -0.1901  0.4654
 2461SOL    MW4 9578   2.058   0.570   3.919 -0.1793 -0.2998  0.6011
 2462SOL     OW 9579   5.789   0.484   3.171 -0.2242 -0.3584 -0.0779
 2462SOL    HW2 9580   5.738   0.412   3.207 -0.3612 -0.8652 -1.2238
 2462SOL    HW3 9581   5.876   0.447   3.157  0.2102  0.2267  0.9796
 2462SOL    MW4 9582   5.794   0.470   3.174  0.2719 -0.2759  0.4660
 2463SOL     OW 9583   5.865   4.251   3.674  0.5894 -0.1371  0.2368
 2463SOL    HW2 9584   5.932   4.319   3.684  0.9228 -0.5931  1.2579
 2463SOL    HW3 9585   5.914   4.169   3.674  0.0467 -0.4657  0.7808
 2463SOL    MW4 9586   5.880   4.249   3.675 -0.1241  0.4754  0.4283
 2464SOL     OW 9587   1.987   3.252   0.408  0.1045  0.0631  0.3122
 2464SOL    HW2 9588   1.909   3.200   0.392  0.6623 -0.9467  0.7425
 2464SOL    HW3 9589   1.956   3.332   0.450 -0.8381  0.3944 -0.9723
 2464SOL    MW4 9590   1.973   3.256   0.412  0.3397  0.0031 -0.0751
 2465SOL     OW 9591   1.407   3.304   2.934 -0.1650 -0.6989  0.5486
 2465SOL    HW2 9592   1.329   3.267   2.976 -0.4581  0.5676  1.1822
 2465SOL    HW3 9593   1.375   3.381   2.887  0.6785 -0.1889  0.7819
 2465SOL    MW4 9594   1.392   3.309   2.934 -0.0526 -0.0430  0.0079
 2466SOL     OW 9595   5.332   5.038   5.945  0.0966  0.0939  0.1926
 2466SOL    HW2 9596   5.312   5.127   5.973 -1.0090  0.3808 -1.4212
 2466SOL    HW3 9597   5.405   5.047   5.884 -1.1138  0.1152 -1.2920
 2466SOL    MW4 9598   5.339   5.051   5.941 -0.0925 -0.2198 -0.3102
 2467SOL     OW 9599   5.645   1.275   2.014  0.4662  0.1243  0.0817
 2467SOL    HW2 9600   5.717   1.250   2.070  0.9915 -0.4309 -0.8198
 2467SOL    HW3 9601   5.656   1.370   2.001  1.0555  0.0380 -0.0746
 2467SOL    MW4 9602   5.656   1.284   2.019  0.0281  0.0166 -0.0854
 2468SOL     OW 9603   4.809   2.014   4.160 -0.0559  0.6723  0.3746
 2468SOL    HW2 9604   4.881   2.050   4.211  0.2313  0.1125  0.3662
 2468SOL    HW3 9605   4.774   2.089   4.112  0.1788  1.0458  0.7884
 2468SOL    MW4 9606   4.814   2.029   4.160 -0.3823  0.0033  0.3228
 2469SOL     OW 9607   2.425   4.185   0.440  0.4058  0.2786  0.0458
 2469SOL    HW2 9608   2.518   4.205   0.430  1.0180 -1.8002  0.9194
 2469SOL    HW3 9609   2.396   4.160   0.352  0.7911  0.4818 -0.1412
 2469SOL    MW4 9610   2.433   4.184   0.427  0.1347 -0.4817 -0.0339
 2470SOL     OW 9611   0.055   0.114   3.644  0.5885 -0.2299 -0.3920
 2470SOL    HW2 9612   0.114   0.188   3.653  1.4663 -1.1350  1.7883
 2470SOL    HW3 9613   0.094   0.061   3.574  0.5975  0.7229 -1.1340
 2470SOL    MW4 9614   0.068   0.116   3.636 -0.1632 -0.4577 -0.7720
 2471SOL     OW 9615   0.904   2.315   1.238  0.2135 -0.1858  0.1809
 2471SOL    HW2 9616   0.993   2.291   1.262  0.9574  1.8823 -0.2579
 2471SOL    HW3 9617   0.892   2.402   1.276 -0.4515  0.9118 -2.3289
 2471SOL    MW4 9618   0.914   2.324   1.246  0.2917  0.0229  0.2005
 2472SOL     OW 9619   0.954   3.023   4.396 -0.4310 -0.2888  0.5560
 2472SOL    HW2 9620   0.932   2.997   4.485 -1.8226  1.3710  0.7486
 2472SOL    HW3 9621   1.044   2.991   4.383 -0.3637 -0.9561  2.3778
 2472SOL    MW4 9622   0.963   3.016   4.406  0.3008  0.0381  0.3752
 2473SOL     OW 9623   5.117   5.492   4.996  0.6079  0.1242  0.3146
 2473SOL    HW2 9624   5.189   5.495   4.934  1.5015 -1.3217  1.2079
 2473SOL    HW3 9625   5.054   5.430   4.958  0.3533  0.5311  0.0657
 2473SOL    MW4 9626   5.118   5.484   4.983  0.2665 -0.3057 -1.0233
 2474SOL     OW 9627   3.333   1.992   0.855 -0.4282 -0.8355 -0.0357
 2474SOL    HW2 9628   3.385   2.070   0.875  0.9677 -1.8473  0.4025
 2474SOL    HW3 9629   3.322   1.994   0.760 -1.3244  0.4338  0.0691
 2474SOL    MW4 9630   3.339   2.003   0.845 -0.0174 -0.1631  0.1778
 2475SOL     OW 9631   3.375   3.132   4.195 -0.0995  0.9690 -0.3471
 2475SOL    HW2 9632   3.352   3.041   4.175  1.2456  0.2008  1.3579
 2475SOL    HW3 9633   3.401   3.169   4.111  2.0509 -1.0753 -0.6807
 2475SOL    MW4 9634   3.375   3.125   4.181 -0.3833  0.1296  0.0577
 2476SOL     OW 9635   0.795   5.543   4.562  0.3462  0.2559  0.2129
 2476SOL    HW2 9636   0.824   5.536   4.653  1.6167  1.3112 -0.0760
 2476SOL    HW3 9637   0.738   5.620   4.562  1.1589  0.8678 -0.0609
 2476SOL    MW4 9638   0.791   5.553   4.574  0.1374  0.5659 -0.1079
 2477SOL     OW 9639   1.100   3.032   1.268  0.0079 -0.3763 -0.6487
 2477SOL    HW2 9640   1.111   3.083   1.188  1.4715 -2.6803 -2.0349
 2477SOL    HW3 9641   1.086   2.942   1.238 -2.2557 -0.9378  1.6738
 2477SOL    MW4 9642   1.100   3.026   1.254 -0.3883 -0.1777 -0.0323
 2478SOL     OW 9643   3.469   1.470   4.723  0.3316  0.2179 -0.1333
 2478SOL    HW2 9644   3.398   1.524   4.690  0.2509 -0.9763 -2.0431
 2478SOL    HW3 9645   3.547   1.503   4.678  1.0613  1.4531  1.8670
 2478SOL    MW4 9646   3.470   1.482   4.713  0.0266 -0.3233 -0.4566
 2479SOL     OW 9647   3.533   2.500   0.053  0.2750  0.0440  0.7418
 2479SOL    HW2 9648   3.573   2.525   0.136 -0.0121 -1.4573  1.3790
 2479SOL    HW3 9649   3.534   2.579   0.000  3.5184  0.2677  0.9416
 2479SOL    MW4 9650   3.539   2.514   0.057 -0.3717  0.3329 -0.4272
 2480SOL     OW 9651   4.017   3.934   2.637  0.4491  0.1239  0.8377
 2480SOL    HW2 9652   3.944   3.944   2.576  1.0987  2.5581  0.3431
 2480SOL    HW3 9653   3.981   3.881   2.709 -1.2213 -0.2946 -0.2537
 2480SOL    MW4 9654   4.002   3.928   2.639  0.5612  0.3801 -0.2479
 2481SOL     OW 9655   4.171   5.922   0.984  0.5634  0.5011 -0.4961
 2481SOL    HW2 9656   4.203   5.917   0.894 -0.2121  0.4703 -0.7782
 2481SOL    HW3 9657   4.103   5.989   0.982  0.5852  0.5489  0.0856
 2481SOL    MW4 9658   4.166   5.930   0.972 -0.0476 -0.4179  0.4079
 2482SOL     OW 9659   1.584   1.976   5.093 -0.2095 -0.3883  0.0633
 2482SOL    HW2 9660   1.647   2.038   5.130  0.1439 -1.2809  1.0239
 2482SOL    HW3 9661   1.582   1.997   5.000  0.5070  0.5265  0.2347
 2482SOL    MW4 9662   1.592   1.987   5.086 -0.5103  0.2907  0.2544
 2483SOL     OW 9663   3.892   0.243   4.491  0.0026 -0.1818  0.3771
 2483SOL    HW2 9664   3.977   0.276   4.461  0.2852 -0.7260  0.5505
 2483SOL    HW3 9665   3.842   0.228   4.411  0.7742 -1.6870  0.1384
 2483SOL    MW4 9666   3.897   0.245   4.476 -0.5397 -0.4353  0.3899
 2484SOL     OW 9667   0.749   1.464   0.429  0.5095 -0.2376  0.0488
 2484SOL    HW2 9668   0.707   1.451   0.514 -0.5284 -2.0341 -0.6821
 2484SOL    HW3 9669   0.814   1.533   0.445  1.0931 -1.2257  2.5515
 2484SOL    MW4 9670   0.752   1.471   0.443  0.6338  0.0518 -0.1127
 2485SOL     OW 9671   3.336   5.857   0.667  0.4327 -0.7827  0.1644
 2485SOL    HW2 9672   3.432   5.854   0.666  0.4385 -0.5952 -0.7763
 2485SOL    HW3 9673   3.315   5.947   0.689  0.4809 -0.7219 -0.0340
 2485SOL    MW4 9674   3.346   5.868   0.669 -0.2395 -0.6930 -0.3838
 2486SOL     OW 9675   3.758   5.698   3.573  0.4143 -0.4044 -0.5406
 2486SOL    HW2 9676   3.665   5.721   3.577  0.6340  0.3453  1.3320
 2486SOL    HW3 9677   3.762   5.623   3.514 -1.5610 -1.2713  0.3299
 2486SOL    MW4 9678   3.747   5.691   3.566  0.1485  0.0349  0.4746
 2487SOL     OW 9679   2.419   3.461   1.277 -0.0670 -0.2773  0.1188
 2487SOL    HW2 9680   2.366   3.381   1.268 -0.6607  0.2007 -0.7662
 2487SOL    HW3 9681   2.368   3.528   1.232  1.1574  0.2662 -0.4872
 2487SOL    MW4 9682   2.405   3.459   1.270  0.2020  0.0088 -0.4847
 2488SOL     OW 9683   2.083   6.011   0.211 -0.2182  0.3339 -0.1612
 2488SOL    HW2 9684   2.111   6.081   0.269  0.3970 -3.5784  4.9189
 2488SOL    HW3 9685   1.995   5.989   0.239  0.2540 -2.0112 -0.3156
 2488SOL    MW4 9686   2.075   6.018   0.222  0.3372 -0.1112 -0.0905
 2489SOL     OW 9687   2.989   1.118   1.724 -0.0925 -0.3313  0.1929
 2489SOL    HW2 9688   2.949   1.054   1.783 -1.5750 -1.3219 -1.7930
 2489SOL    HW3 9689   2.933   1.118   1.647  1.5678  1.1900 -1.0866
 2489SOL    MW4 9690   2.977   1.109   1.722  0.4845 -0.2696  0.0665
 2490SOL     OW 9691   3.850   5.590   2.066 -0.1134 -0.7587  0.0654
 2490SOL    HW2 9692   3.762   5.575   2.029  0.0274  1.0419 -1.1184
 2490SOL    HW3 9693   3.910   5.561   1.997  0.3473 -3.4651  1.4548
 2490SOL    MW4 9694   3.846   5.584   2.052 -0.5109 -0.5316  0.1845
 2491SOL     OW 9695   3.665   4.892   5.072 -1.0879 -0.2543  0.3439
 2491SOL    HW2 9696   3.678   4.843   5.154 -2.2860  0.0941  0.7697
 2491SOL    HW3 9697   3.575   4.871   5.047 -1.0309  0.3743 -0.3957
 2491SOL    MW4 9698   3.655   4.883   5.080  0.3631 -0.2722  0.3964
 2492SOL     OW 9699   2.404   5.282   5.486 -0.1077  0.1172  0.4928
 2492SOL    HW2 9700   2.478   5.233   5.523  0.2361  0.0992 -0.2154
 2492SOL    HW3 9701   2.372   5.335   5.560  1.7635  1.5278  0.3754
 2492SOL    MW4 9702   2.409   5.283   5.501 -0.1061 -0.7670 -0.3913
 2493SOL     OW 9703   0.698   5.410   0.330 -0.1163  0.6471 -0.0959
 2493SOL    HW2 9704   0.626   5.364   0.287 -0.1754  0.2053  0.4623
 2493SOL    HW3 9705   0.654   5.467   0.394 -0.0030  0.9057 -0.2475
 2493SOL    MW4 9706   0.682   5.411   0.333  0.2584 -0.4311  0.2023
 2494SOL     OW 9707   0.555   3.445   3.947  0.0755  0.5617 -0.3421
 2494SOL    HW2 9708   0.559   3.349   3.948  0.8662  0.5719 -1.1873
 2494SOL    HW3 9709   0.609   3.472   4.021  0.9830  0.3673 -0.9195
 2494SOL    MW4 9710   0.563   3.436   3.957  0.2569  0.1178 -0.3989
 2495SOL     OW 9711   0.501   5.748   5.815  0.2532 -0.2859  0.5152
 2495SOL    HW2 9712   0.585   5.769   5.856  1.4686  1.1420 -2.4412
 2495SOL    HW3 9713   0.437   5.805   5.858  1.6449  1.8936 -0.1675
 2495SOL    MW4 9714   0.504   5.758   5.826  0.1272  0.3254 -0.0739
 2496SOL     OW 9715   1.424   5.887   5.922 -0.1186  0.4347  0.3503
 2496SOL    HW2 9716   1.487   5.912   5.854 -1.4412  3.2277 -0.0137
 2496SOL    HW3 9717   1.457   5.927   6.002  0.1373 -0.7483  0.8626
 2496SOL    MW4 9718   1.437   5.895   5.923 -0.5118 -0.5423 -0.0778
 2497SOL     OW 9719   5.267   6.185   3.632 -0.0169 -0.0004 -0.5474
 2497SOL    HW2 9720   5.221   6.167   3.714 -1.6652  0.2558 -1.3591
 2497SOL    HW3 9721   5.360   6.176   3.653 -0.3210  1.3325  1.6420
 2497SOL    MW4 9722   5.273   6.181   3.645 -0.2775 -0.0116  0.3690
 2498SOL     OW 9723   2.629   2.129   3.534  0.3239 -0.7143  0.1410
 2498SOL    HW2 9724   2.687   2.057   3.508  0.6036 -1.0998  1.7329
 2498SOL    HW3 9725   2.688   2.198   3.564  0.0407  0.0827 -1.0286
 2498SOL    MW4 9726   2.644   2.129   3.534  0.4839 -0.6707 -0.1071
 2499SOL     OW 9727   4.565   0.626   4.084  0.1536 -0.3912  0.6201
 2499SOL    HW2 9728   4.539   0.654   3.997 -0.1625 -0.3218  0.7360
 2499SOL    HW3 9729   4.486   0.585   4.121  0.0722  0.2175  1.1379
 2499SOL    MW4 9730   4.551   0.624   4.077  0.5965  0.0586  0.0399
 2500SOL     OW 9731   4.869   6.076   1.584  0.3018  0.0316 -0.1853
 2500SOL    HW2 9732   4.854   6.096   1.492  0.8529 -1.4559 -0.6221
 2500SOL    HW3 9733   4.921   5.996   1.584  0.1366 -0.1222  1.4225
 2500SOL    MW4 9734   4.874   6.068   1.572 -0.9300 -0.2928  0.0632
 2501SOL     OW 9735   5.198   4.951   1.947 -0.6887  0.2656 -0.1204
 2501SOL    HW2 9736   5.263   5.006   1.990  0.4333 -0.3057 -1.0383
 2501SOL    HW3 9737   5.148   5.011   1.892 -0.0063  0.4966 -0.4911
 2501SOL    MW4 9738   5.200   4.966   1.945 -0.0148 -0.2852 -0.8474
 2502SOL     OW 9739   3.075   3.733   5.225 -0.3436 -0.3861 -0.6435
 2502SOL    HW2 9740   3.127   3.667   5.270 -2.2056 -0.8462  0.9721
 2502SOL    HW3 9741   3.047   3.794   5.294 -1.1036  0.3979 -1.5992
 2502SOL    MW4 9742   3.078   3.732   5.240  0.4053 -0.1213  0.3693
 2503SOL     OW 9743   1.202   1.412   6.194  0.2597 -0.2088  1.0240
 2503SOL    HW2 9744   1.144   1.353   6.242 -0.6707 -0.0089  0.1767
 2503SOL    HW3 9745   1.156   1.430   6.112  1.1275  0.6482  0.7016
 2503SOL    MW4 9746   1.189   1.407   6.190 -0.2193 -0.1019 -0.2885
 2504SOL     OW 9747   0.308   2.229   1.869 -0.1837 -0.1311  0.6318
 2504SOL    HW2 9748   0.216   2.210   1.854 -0.7389  2.0391  0.9050
 2504SOL    HW3 9749   0.308   2.291   1.943  1.2079  2.2344 -1.2178
 2504SOL    MW4 9750   0.296   2.235   1.877  0.2432 -0.3984 -0.1145
 2505SOL     OW 9751   3.004   3.750   0.720 -0.3426 -0.1635 -0.4967
 2505SOL    HW2 9752   2.934   3.692   0.749  0.6439 -1.2694 -0.2978
 2505SOL    HW3 9753   2.961   3.811   0.659 -1.6123 -0.3514  0.1893
 2505SOL    MW4 9754   2.989   3.751   0.716  0.4345 -0.4106  0.1267
 2506SOL     OW 9755   4.311   6.401   3.455  0.6244 -0.6630  0.5946
 2506SOL    HW2 9756   4.350   6.465   3.513  1.2151 -2.2077  1.9829
 2506SOL    HW3 9757   4.284   6.451   3.378  2.3803  0.9891  0.9909
 2506SOL    MW4 9758   4.313   6.416   3.452  0.2991 -0.1293 -0.1413
 2507SOL     OW 9759   1.154   0.662   2.333 -0.1783  0.0366 -0.1960
 2507SOL    HW2 9760   1.248   0.657   2.347 -0.4203 -0.6890  1.3915
 2507SOL    HW3 9761   1.144   0.663   2.238  1.3206 -2.9102 -0.4943
 2507SOL    MW4 9762   1.165   0.661   2.323 -0.0611  0.7677  0.0129
 2508SOL     OW 9763   0.655   6.294   5.062 -0.3210  0.0860  0.2500
 2508SOL    HW2 9764   0.566   6.288   5.027 -0.6414 -0.3282  1.0974
 2508SOL    HW3 9765   0.708   6.321   4.987 -0.8369 -1.5957 -0.7853
 2508SOL    MW4 9766   0.650   6.296   5.047 -0.2027  0.0165 -0.7150
 2509SOL     OW 9767   0.643   1.711   0.150  0.1977 -0.0652 -0.0830
 2509SOL    HW2 9768   0.731   1.684   0.123 -0.6687 -2.0793 -1.1771
 2509SOL    HW3 9769   0.613   1.640   0.207 -1.4209 -0.4856 -1.3635
 2509SOL    MW4 9770   0.651   1.698   0.154  0.2737  0.5279  0.2750
 2510SOL     OW 9771   5.889   4.290   5.518  0.0286  0.4501  0.0849
 2510SOL    HW2 9772   5.824   4.223   5.539  0.6624  0.3819  1.9881
 2510SOL    HW3 9773   5.936   4.305   5.600 -0.2865  3.4604 -0.1830
 2510SOL    MW4 9774   5.887   4.283   5.532 -0.4858  0.1713 -0.2043
 2511SOL     OW 9775   0.818   4.661   1.632  0.3281  0.2791 -0.4416
 2511SOL    HW2 9776   0.804   4.654   1.538  0.1560  0.0727 -0.4008
 2511SOL    HW3 9777   0.913   4.664   1.642  0.3400  2.1382 -0.7498
 2511SOL    MW4 9778   0.829   4.661   1.621 -0.6617  0.1158  0.2818
 2512SOL     OW 9779   2.309   0.000   0.426 -0.3608  0.2500 -0.0270
 2512SOL    HW2 9780   2.374   0.000   0.497 -0.2839  1.2992 -0.0886
 2512SOL    HW3 9781   2.238   0.055   0.458  0.1591  1.6523 -1.1873
 2512SOL    MW4 9782   2.309   0.007   0.440  0.3128 -0.4451 -0.0808
 2513SOL     OW 9783   5.429   1.766   0.526 -0.2696  0.1974 -0.6759
 2513SOL    HW2 9784   5.467   1.766   0.438 -1.7060 -0.0518 -1.3255
 2513SOL    HW3 9785   5.337   1.745   0.512 -0.5889  0.4646  0.8724
 2513SOL    MW4 9786   5.422   1.763   0.513  0.4416 -0.3161  0.0600
 2514SOL     OW 9787   5.195   4.248   3.603  0.0283 -0.2648  0.8607
 2514SOL    HW2 9788   5.234   4.313   3.662 -0.5783 -1.4815  2.7267
 2514SOL    HW3 9789   5.102   4.250   3.625 -0.5725  0.5676 -1.4775
 2514SOL    MW4 9790   5.188   4.257   3.614 -0.8592  0.1908  0.0992
 2515SOL     OW 9791   3.255   4.529   1.313  0.2825 -0.4151  0.3194
 2515SOL    HW2 9792   3.248   4.434   1.305  1.3255 -0.4449 -0.5661
 2515SOL    HW3 9793   3.349   4.546   1.310  0.1120  0.6443  0.5509
 2515SOL    MW4 9794   3.267   4.519   1.312  0.0176  0.6974 -0.2737
 2516SOL     OW 9795   0.193   4.046   4.512  0.3370 -0.2939 -0.1387
 2516SOL    HW2 9796   0.197   4.123   4.568  1.1219  0.7952 -1.6118
 2516SOL    HW3 9797   0.104   4.013   4.522 -0.0316  0.8432  0.4775
 2516SOL    MW4 9798   0.182   4.052   4.521 -0.6066  0.0040 -0.6176
 2517SOL     OW 9799   0.718   3.777   4.339  0.1612  0.5336  0.2875
 2517SOL    HW2 9800   0.769   3.858   4.327  1.7150 -0.4134  0.2787
 2517SOL    HW3 9801   0.775   3.720   4.390 -1.6398  0.0709  1.8922
 2517SOL    MW4 9802   0.733   3.780   4.344  0.4947 -0.5480 -0.0820
 2518SOL     OW 9803   6.083   2.261   4.663 -0.0600 -0.6293  0.1263
 2518SOL    HW2 9804   6.047   2.192   4.718  0.8397 -2.0130 -0.9614
 2518SOL    HW3 9805   6.178   2.247   4.666  0.1794  0.8022  0.1699
 2518SOL    MW4 9806   6.091   2.250   4.671  0.2985 -0.2793 -0.7607
 2519SOL     OW 9807   5.996   3.134   5.489 -0.2905 -0.0043  0.2010
 2519SOL    HW2 9808   5.928   3.116   5.555 -1.1734  1.7071 -0.1746
 2519SOL    HW3 9809   5.998   3.055   5.435 -2.1012 -0.0654  0.1500
 2519SOL    MW4 9810   5.987   3.121   5.491  0.1169 -0.3607  0.4727
 2520SOL     OW 9811   3.908   1.280   3.045  0.2661  0.0834 -0.2352
 2520SOL    HW2 9812   3.936   1.267   3.136  1.6078 -0.3833 -0.6857
 2520SOL    HW3 9813   3.887   1.373   3.040  0.8875  0.2685  0.3775
 2520SOL    MW4 9814   3.909   1.291   3.057 -0.2587  0.0905 -0.2598
 2521SOL     OW 9815   4.982   2.119   2.447 -0.1941  0.2582  0.6103
 2521SOL    HW2 9816   5.000   2.191   2.508 -1.7499  1.4808 -0.2678
 2521SOL    HW3 9817   4.955   2.163   2.366 -1.8752 -1.2977  0.2532
 2521SOL    MW4 9818   4.981   2.135   2.444  0.1937  0.1019 -0.5961
 2522SOL     OW 9819   1.712   3.337   2.062 -0.6939  0.0811 -1.0661
 2522SOL    HW2 9820   1.802   3.366   2.043 -0.6177  0.0946 -0.6969
 2522SOL    HW3 9821   1.702   3.351   2.156 -1.0307 -0.0717 -1.0785
 2522SOL    MW4 9822   1.723   3.343   2.072  0.0208  0.2500 -0.2189
 2523SOL     OW 9823   0.132   0.250   6.070 -0.0282  0.3470 -0.7345
 2523SOL    HW2 9824   0.133   0.330   6.017  0.4977  2.6797  2.5031
 2523SOL    HW3 9825   0.223   0.235   6.093 -0.3297 -0.0296  0.2640
 2523SOL    MW4 9826   0.144   0.258   6.066  0.2941  0.5518  0.2163
 2524SOL     OW 9827   4.297   1.364   5.554  0.8028  0.2778  0.0208
 2524SOL    HW2 9828   4.358   1.385   5.484  0.3427  0.8201 -0.2276
 2524SOL    HW3 9829   4.220   1.330   5.509 -0.3591  2.6386  0.0666
 2524SOL    MW4 9830   4.295   1.362   5.539 -0.6699 -0.2954 -0.2274
 2525SOL     OW 9831   3.114   5.031   2.144 -0.1153  0.0605  0.6769
 2525SOL    HW2 9832   3.141   4.955   2.195 -0.8702 -0.1562  0.7683
 2525SOL    HW3 9833   3.019   5.037   2.157 -0.2980  0.1197 -0.5286
 2525SOL    MW4 9834   3.105   5.022   2.152  0.3325  0.0109  0.2007
 2526SOL     OW 9835   0.588   3.169   4.607 -0.7672  0.7782  0.4434
 2526SOL    HW2 9836   0.613   3.123   4.687  0.2853 -0.9599 -0.8258
 2526SOL    HW3 9837   0.653   3.239   4.597 -0.1255  0.1863  0.4397
 2526SOL    MW4 9838   0.600   3.172   4.616 -0.3774  0.1356  0.5231
 2527SOL     OW 9839   0.217   4.495   2.975  0.0567  0.1955  0.0203
 2527SOL    HW2 9840   0.242   4.587   2.971  0.0140  0.2030 -0.0715
 2527SOL    HW3 9841   0.128   4.492   2.940 -0.3958  0.2877  1.1266
 2527SOL    MW4 9842   0.209   4.507   2.970  0.0673  0.2653  0.0797
 2528SOL     OW 9843   4.161   0.719   2.076 -0.3504  0.2176  0.1603
 2528SOL    HW2 9844   4.153   0.674   2.160 -1.5689 -0.3343 -0.2193
 2528SOL    HW3 9845   4.255   0.729   2.063 -0.1392  0.2809  1.5641
 2528SOL    MW4 9846   4.172   0.714   2.085 -0.3743  0.2202 -0.3403
 2529SOL     OW 9847   1.199   2.346   2.590  0.5826 -0.4970  0.3528
 2529SOL    HW2 9848   1.179   2.398   2.512  2.0715 -1.1659 -0.5321
 2529SOL    HW3 9849   1.128   2.283   2.596  0.2229 -0.1555 -0.2115
 2529SOL    MW4 9850   1.187   2.344   2.581 -0.0626  0.2596  0.5719
 2530SOL     OW 9851   0.114   4.798   1.472 -0.0924 -0.6488  0.2878
 2530SOL    HW2 9852   0.061   4.877   1.467  2.0871  0.9228  0.3664
 2530SOL    HW3 9853   0.089   4.757   1.555 -0.6449  0.4316  0.6714
 2530SOL    MW4 9854   0.104   4.803   1.482 -0.1270 -0.0914  0.0814
 2531SOL     OW 9855   1.278   2.638   3.568  0.0119  0.2677  0.2262
 2531SOL    HW2 9856   1.266   2.630   3.663  1.7462 -1.1720  0.3806
 2531SOL    HW3 9857   1.371   2.620   3.554 -0.2409  0.2931 -1.7836
 2531SOL    MW4 9858   1.288   2.635   3.579  0.2205 -0.0297 -0.2354
 2532SOL     OW 9859   1.655   6.152   0.907  0.4727 -0.1995 -0.3068
 2532SOL    HW2 9860   1.561   6.164   0.920  0.4758 -2.0993  2.2697
 2532SOL    HW3 9861   1.695   6.229   0.947  0.0563  1.0188 -2.1292
 2532SOL    MW4 9862   1.648   6.163   0.914 -0.3779 -0.3227  0.4456
 2533SOL     OW 9863   3.212   2.209   3.175  0.0137  0.3677 -0.2450
 2533SOL    HW2 9864   3.230   2.115   3.169  0.4971  0.3802  0.7722
 2533SOL    HW3 9865   3.260   2.248   3.101  0.7756 -0.0605  0.0133
 2533SOL    MW4 9866   3.221   2.202   3.164  0.5116  0.1123 -0.1610
 2534SOL     OW 9867   0.127   5.314   1.021  0.0316 -0.1744  0.0526
 2534SOL    HW2 9868   0.182   5.375   0.971  0.5725  0.4972  1.4153
 2534SOL    HW3 9869   0.186   5.279   1.088 -0.0643 -2.8044 -1.1285
 2534SOL    MW4 9870   0.142   5.318   1.023  0.3023 -0.1157  0.1781
 2535SOL     OW 9871   2.701   1.341   0.351  0.1935 -0.0956 -0.1268
 2535SOL    HW2 9872   2.695   1.362   0.258 -1.5417 -0.6444 -0.1811
 2535SOL    HW3 9873   2.620   1.374   0.388  0.9521  0.2930  1.2545
 2535SOL    MW4 9874   2.690   1.348   0.343  0.2288 -0.1530  0.4376
 2536SOL     OW 9875   2.955   6.002   2.889 -0.1347 -0.0831 -0.3194
 2536SOL    HW2 9876   3.022   6.069   2.904  1.8176 -1.8824 -0.5803
 2536SOL    HW3 9877   2.945   5.957   2.973 -0.8858  0.0332 -0.3369
 2536SOL    MW4 9878   2.963   6.005   2.902  0.1169  0.6245 -0.0249
 2537SOL     OW 9879   3.854   2.270   2.049 -0.1232 -0.0854 -0.4284
 2537SOL    HW2 9880   3.948   2.269   2.032 -0.1478 -1.0616 -0.5175
 2537SOL    HW3 9881   3.841   2.348   2.104  0.8030 -0.2130 -0.0125
 2537SOL    MW4 9882   3.864   2.280   2.054  0.0595 -0.1698 -0.2316
 2538SOL     OW 9883   2.658   4.209   2.258 -1.0845 -0.3148  0.0661
 2538SOL    HW2 9884   2.565   4.232   2.260 -0.9774  0.1095  0.1482
 2538SOL    HW3 9885   2.667   4.141   2.325 -1.4572 -0.8193 -0.3878
 2538SOL    MW4 9886   2.647   4.203   2.267 -0.4835  0.1573 -0.2624
 2539SOL     OW 9887   2.725   0.929   4.104 -0.1168  0.0603  0.8311
 2539SOL    HW2 9888   2.684   1.014   4.116 -1.8465 -0.6250  0.1159
 2539SOL    HW3 9889   2.682   0.872   4.169 -1.0254 -0.8830 -0.5378
 2539SOL    MW4 9890   2.714   0.932   4.114 -0.6164  0.1316 -0.0957
 2540SOL     OW 9891   6.252   0.795   6.360  0.5627 -0.4499 -0.0049
 2540SOL    HW2 9892   6.276   0.857   6.291  0.6264 -0.2529  0.1897
 2540SOL    HW3 9893   6.162   0.817   6.382  0.7479 -0.0901  0.4128
 2540SOL    MW4 9894   6.244   0.806   6.354  0.5382 -0.2992 -0.1803
 2541SOL     OW 9895   4.144   3.865   5.888  0.1271  0.6489  0.4352
 2541SOL    HW2 9896   4.212   3.832   5.947 -1.0014 -1.8713  0.4653
 2541SOL    HW3 9897   4.126   3.791   5.829 -1.6524  1.6974 -0.4106
 2541SOL    MW4 9898   4.151   3.851   5.888  0.0926  0.3210 -0.1299
 2542SOL     OW 9899   2.876   5.276   3.779 -0.4512 -0.5221  0.5709
 2542SOL    HW2 9900   2.786   5.297   3.753 -0.8665 -0.9023  1.6568
 2542SOL    HW3 9901   2.913   5.234   3.701 -0.5006  1.5317 -0.6540
 2542SOL    MW4 9902   2.869   5.273   3.765 -0.0747  0.2841  0.0421
 2543SOL     OW 9903   3.016   2.411   3.680  0.1245 -0.3985  0.1033
 2543SOL    HW2 9904   3.028   2.407   3.775  0.9302  0.3278  0.0414
 2543SOL    HW3 9905   3.028   2.321   3.651  0.5922 -0.5036  0.6058
 2543SOL    MW4 9906   3.019   2.398   3.689 -0.4359 -0.2524  0.1589
 2544SOL     OW 9907   5.854   1.942   3.816  0.2483  0.4961  0.3490
 2544SOL    HW2 9908   5.932   1.960   3.764  0.6853  0.6647  1.0478
 2544SOL    HW3 9909   5.882   1.958   3.906 -0.7530  1.1046  0.5625
 2544SOL    MW4 9910   5.868   1.946   3.821 -0.6270  1.0339  0.1297
 2545SOL     OW 9911   4.542   2.874   4.193  0.3902  0.1056  0.0168
 2545SOL    HW2 9912   4.456   2.911   4.212  0.3250  0.3268 -0.6989
 2545SOL    HW3 9913   4.555   2.808   4.262 -0.5779 -0.3002 -0.1640
 2545SOL    MW4 9914   4.533   2.870   4.205 -0.0968 -0.3910  0.1763
 2546SOL     OW 9915   1.684   1.147   1.227  0.3490  0.0677  0.0270
 2546SOL    HW2 9916   1.675   1.173   1.136 -2.2610  2.0686  0.7273
 2546SOL    HW3 9917   1.599   1.107   1.249  1.0032 -0.5844  1.5352
 2546SOL    MW4 9918   1.672   1.145   1.218 -0.2092  0.8901  0.3287
 2547SOL     OW 9919   4.498   0.230   0.163  0.0504 -0.1239 -0.2732
 2547SOL    HW2 9920   4.501   0.302   0.226  0.5043 -0.4022  0.0241
 2547SOL    HW3 9921   4.409   0.233   0.128 -0.2292 -0.0170  0.4397
 2547SOL    MW4 9922   4.487   0.240   0.167 -0.1929 -0.1501  0.0708
 2548SOL     OW 9923   1.223   5.885   2.088  0.3580  0.7895  0.0320
 2548SOL    HW2 9924   1.250   5.908   2.177  0.1983 -0.9319  0.5559
 2548SOL    HW3 9925   1.202   5.969   2.047  1.1385  1.6774  1.3769
 2548SOL    MW4 9926   1.224   5.899   2.094 -0.1096  0.1793 -0.5396
 2549SOL     OW 9927   0.582   6.318   0.450  0.4568  0.4285  0.4374
 2549SOL    HW2 9928   0.530   6.376   0.394 -0.0862 -0.6914 -0.2659
 2549SOL    HW3 9929   0.570   6.353   0.538  1.0178  1.9991 -0.0797
 2549SOL    MW4 9930   0.573   6.331   0.454  0.2621 -0.0016  0.7737
 2550SOL     OW 9931   5.152   0.614   2.504 -0.3164 -0.1004 -0.0919
 2550SOL    HW2 9932   5.118   0.545   2.448 -0.0176 -0.1291 -0.2401
 2550SOL    HW3 9933   5.106   0.693   2.475  0.6987  0.1162 -1.2052
 2550SOL    MW4 9934   5.142   0.615   2.493 -1.0229 -0.5632 -0.6718
 2551SOL     OW 9935   1.758   0.731   0.806 -0.0364  0.8858 -0.0706
 2551SOL    HW2 9936   1.833   0.790   0.815 -0.3754  1.3109 -0.0035
 2551SOL    HW3 9937   1.779   0.676   0.731  0.4879  0.7875  0.1438
 2551SOL    MW4 9938   1.770   0.732   0.798 -0.7047  0.0394 -0.1650
 2552SOL     OW 9939   1.867   5.283   5.548 -0.1637  0.0721  0.2322
 2552SOL    HW2 9940   1.871   5.193   5.517  0.6070 -0.0030  0.5440
 2552SOL    HW3 9941   1.805   5.281   5.621 -1.5340  0.1408 -0.8744
 2552SOL    MW4 9942   1.859   5.271   5.554  0.0578 -0.5168 -0.0643
 2553SOL     OW 9943   4.893   4.947   0.469 -0.4284  0.2270  0.0276
 2553SOL    HW2 9944   4.882   4.941   0.374 -0.9561 -1.4575  0.1706
 2553SOL    HW3 9945   4.805   4.964   0.502 -0.6158 -1.1958  0.3298
 2553SOL    MW4 9946   4.880   4.949   0.461  0.0765  0.4461 -0.2935
 2554SOL     OW 9947   3.091   6.380   3.669  0.0788 -0.1935 -0.7261
 2554SOL    HW2 9948   3.140   6.390   3.587  0.4145 -0.4964 -0.5625
 2554SOL    HW3 9949   3.078   6.469   3.700 -0.0408 -0.0739 -1.1022
 2554SOL    MW4 9950   3.096   6.393   3.662 -0.1492 -0.5637  0.4339
 2555SOL     OW 9951   6.289   4.557   1.859  0.2511  0.5633  0.0254
 2555SOL    HW2 9952   6.228   4.484   1.869  1.6123 -0.4946  0.8291
 2555SOL    HW3 9953   6.294   4.597   1.946 -0.1020  1.3250 -0.2926
 2555SOL    MW4 9954   6.282   4.553   1.872 -0.3278 -0.6670 -0.1905
 2556SOL     OW 9955   2.577   2.966   0.724 -0.2858 -0.3170  0.2350
 2556SOL    HW2 9956   2.601   3.050   0.687  1.4634 -0.6343  0.5437
 2556SOL    HW3 9957   2.600   2.973   0.817 -3.7460  0.1574  1.1629
 2556SOL    MW4 9958   2.583   2.978   0.732 -0.6233 -0.0712  0.0538
 2557SOL     OW 9959   4.491   3.836   2.456  0.2697 -0.1346 -0.3593
 2557SOL    HW2 9960   4.510   3.798   2.542  0.6987  0.6653 -0.0901
 2557SOL    HW3 9961   4.474   3.928   2.474 -4.2706 -0.7189 -0.5416
 2557SOL    MW4 9962   4.492   3.843   2.470 -0.8218  0.1153 -0.4104
 2558SOL     OW 9963   3.691   5.407   5.991 -0.1766 -0.2928 -0.1512
 2558SOL    HW2 9964   3.651   5.369   6.069 -0.6650  1.7210  0.6318
 2558SOL    HW3 9965   3.617   5.423   5.932  0.0212 -0.4686 -0.4517
 2558SOL    MW4 9966   3.676   5.404   5.993 -0.0067 -0.0499  0.1004
 2559SOL     OW 9967   0.137   4.029   3.559 -0.2383  0.1843 -0.4947
 2559SOL    HW2 9968   0.197   4.066   3.493 -0.1727  1.1383  0.0850
 2559SOL    HW3 9969   0.050   4.055   3.529 -0.2784 -0.1978 -0.7110
 2559SOL    MW4 9970   0.133   4.038   3.546 -0.5805  0.1640  0.4034
 2560SOL     OW 9971   5.247   4.908   0.804  0.0068 -0.4313 -0.1059
 2560SOL    HW2 9972   5.214   4.818   0.810 -0.9775 -0.2689 -2.0612
 2560SOL    HW3 9973   5.220   4.949   0.886 -0.0148 -1.7766  0.5773
 2560SOL    MW4 9974   5.239   4.901   0.815  0.1851  0.3063  0.2583
 2561SOL     OW 9975   3.740   1.222   3.839 -0.1839  0.5969  0.1302
 2561SOL    HW2 9976   3.646   1.201   3.845 -0.9595  2.9740 -1.9795
 2561SOL    HW3 9977   3.774   1.202   3.926 -2.4781 -1.0379  0.7595
 2561SOL    MW4 9978   3.732   1.217   3.852  0.2555  0.4278 -1.0465
 2562SOL     OW 9979   0.026   0.870   0.935  0.0858 -0.0611  0.0515
 2562SOL    HW2 9980  -0.032   0.797   0.912 -1.7780  0.5902  2.3481
 2562SOL    HW3 9981   0.067   0.843   1.017  1.4065  0.4000 -0.4438
 2562SOL    MW4 9982   0.023   0.856   0.943  0.0508 -0.0734 -0.3632
 2563SOL     OW 9983   4.350   5.272   5.413 -0.0169 -0.1529  0.1388
 2563SOL    HW2 9984   4.275   5.319   5.376 -0.0355  0.6058  1.1226
 2563SOL    HW3 9985   4.352   5.298   5.505 -0.4149 -2.5442  0.9021
 2563SOL    MW4 9986   4.340   5.281   5.420 -0.0979 -0.2280 -0.0248
 2564SOL     OW 9987   1.414   4.501   0.164  0.6978  0.0493  0.3811
 2564SOL    HW2 9988   1.488   4.467   0.114 -0.2948 -1.1193 -0.3169
 2564SOL    HW3 9989   1.357   4.542   0.099  1.6059  2.7330  1.1259
 2564SOL    MW4 9990   1.416   4.502   0.149  0.1074  0.0911  0.0299
 2565SOL     OW 9991   1.436   0.548   3.539 -0.4416 -0.1974  0.1244
 2565SOL    HW2 9992   1.343   0.550   3.514 -0.4534  2.6328 -0.0079
 2565SOL    HW3 9993   1.483   0.561   3.456 -0.3024  4.4841  0.6498
 2565SOL    MW4 9994   1.430   0.550   3.525 -0.3177 -0.1075  0.3216
 2566SOL     OW 9995   3.890   3.890   2.346  0.0837 -0.1436  0.0464
 2566SOL    HW2 9996   3.963   3.934   2.301 -0.2737 -0.0719 -0.4800
 2566SOL    HW3 9997   3.899   3.798   2.322 -0.9112  0.0840 -1.3593
 2566SOL    MW4 9998   3.901   3.884   2.337  0.1812  0.4282 -0.5119
 2567SOL     OW 9999   4.215   2.064   1.531 -0.6365  0.7982 -0.1280
 2567SOL    HW210000   4.276   2.078   1.458 -0.2673  0.6570  0.1529
 2567SOL    HW310001   4.188   1.973   1.523 -0.6214  0.7917 -0.1013
 2567SOL    MW410002   4.219   2.054   1.520  0.9904  0.1253  0.0730
 2568SOL     OW10003   4.841   2.454   1.214 -0.4692 -0.0826  0.1358
 2568SOL    HW210004   4.896   2.532   1.223  0.7255 -0.7442 -1.0658
 2568SOL    HW310005   4.829   2.422   1.303  4.0643 -1.8397  0.3800
 2568SOL    MW410006   4.846   2.460   1.227  0.2972  0.3673  0.0414
 2569SOL     OW10007   0.770   5.583   3.636 -0.0983 -0.0628  0.6116
 2569SOL    HW210008   0.823   5.604   3.713 -0.1531  0.1104  0.6022
 2569SOL    HW310009   0.713   5.512   3.665 -0.0431 -0.0716  0.6985
 2569SOL    MW410010   0.770   5.576   3.650 -0.2881  0.1157 -0.1100
 2570SOL     OW10011   6.423   2.341   1.338 -0.6025 -0.1535  0.2681
 2570SOL    HW210012   6.430   2.363   1.430  0.2398  0.8071 -0.0153
 2570SOL    HW310013   6.355   2.399   1.304  0.0984  0.5059 -0.0176
 2570SOL    MW410014   6.415   2.351   1.345 -0.4325 -0.4540 -0.0087
 2571SOL     OW10015   3.680   1.766   5.541 -0.7622  0.3053 -0.2523
 2571SOL    HW210016   3.730   1.809   5.610 -1.9647  1.7069 -0.2114
 2571SOL    HW310017   3.720   1.796   5.460  0.7577 -1.4717 -0.2265
 2571SOL    MW410018   3.692   1.775   5.540  0.6451  0.3531 -0.1036
 2572SOL     OW10019   5.000   0.379   2.402 -0.5210 -0.2113  0.2616
 2572SOL    HW210020   5.081   0.329   2.397  0.0857  0.5520  1.6630
 2572SOL    HW310021   4.930   0.314   2.401  0.1551 -0.9412  0.0318
 2572SOL    MW410022   5.001   0.364   2.401 -0.0149 -0.2000 -0.7601
 2573SOL     OW10023   2.389   6.028   6.159 -0.2754 -0.4463 -0.2684
 2573SOL    HW210024   2.328   6.001   6.227  0.4512 -0.2466  0.4776
 2573SOL    HW310025   2.422   5.945   6.122  1.0065 -0.6068  1.1593
 2573SOL    MW410026   2.386   6.013   6.163 -0.2942 -0.3318  0.4603
 2574SOL     OW10027   0.808   6.235   5.669  0.4642 -0.2156 -0.0278
 2574SOL    HW210028   0.893   6.191   5.673 -0.6269 -2.3874  1.2089
 2574SOL    HW310029   0.755   6.182   5.610  0.0468  1.3847 -1.1716
 2574SOL    MW410030   0.812   6.223   5.662 -0.1147 -0.0022  0.6297
 2575SOL     OW10031   3.888   5.778   2.880 -0.1849  0.7044  0.3992
 2575SOL    HW210032   3.848   5.840   2.941 -1.0477  0.3700  0.1894
 2575SOL    HW310033   3.814   5.728   2.845  0.3721  0.4216 -0.3940
 2575SOL    MW410034   3.873   5.779   2.884  0.2115 -0.2643 -0.1836
 2576SOL     OW10035   2.784   1.000   2.435 -0.4206  0.3796  0.7977
 2576SOL    HW210036   2.698   1.027   2.403  0.1187  1.6085  0.3385
 2576SOL    HW310037   2.844   1.021   2.363  0.0767 -2.0529  0.3819
 2576SOL    MW410038   2.781   1.006   2.421  0.7342 -0.1316  0.2225
 2577SOL     OW10039   3.061   3.909   3.169 -0.1383  0.6105  0.7069
 2577SOL    HW210040   3.046   4.003   3.164 -0.6811  0.4592 -1.5674
 2577SOL    HW310041   2.985   3.875   3.217 -2.4604  0.9044 -2.4521
 2577SOL    MW410042   3.049   3.917   3.174  0.2353  0.3503  0.5847
 2578SOL     OW10043   4.921   4.261   2.274  0.1603  0.5342 -0.3725
 2578SOL    HW210044   4.864   4.305   2.211 -1.3128 -0.7909 -0.0550
 2578SOL    HW310045   4.969   4.197   2.221 -0.8732 -0.3860 -0.2615
 2578SOL    MW410046   4.920   4.258   2.259 -0.0939  0.3028 -0.2378
 2579SOL     OW10047   5.726   5.561   5.286 -0.4657  0.4085  0.5573
 2579SOL    HW210048   5.711   5.656   5.293  0.2056  0.6153 -0.6016
 2579SOL    HW310049   5.650   5.528   5.238  0.2778  0.6893 -0.8545
 2579SOL    MW410050   5.714   5.570   5.281  0.0851 -0.5758  0.0573
 2580SOL     OW10051   1.043   6.101   5.673  0.3450 -0.5077 -0.5876
 2580SOL    HW210052   1.108   6.170   5.690  0.8716 -0.5743 -2.1542
 2580SOL    HW310053   1.082   6.022   5.711  1.1647 -0.5328 -1.4608
 2580SOL    MW410054   1.057   6.100   5.680  0.3941 -0.0392  0.4275
 2581SOL     OW10055   6.047   3.302   2.517  0.0415 -0.0057  0.4348
 2581SOL    HW210056   5.978   3.298   2.583  1.7488 -1.1885  2.2310
 2581SOL    HW310057   6.002   3.279   2.435 -1.7750 -0.2949  1.4607
 2581SOL    MW410058   6.032   3.298   2.515  0.0494 -0.6102 -0.9487
 2582SOL     OW10059   1.667   6.253   2.282  0.2466 -0.3074  0.2114
 2582SOL    HW210060   1.705   6.227   2.198 -0.6728  0.2351 -0.3900
 2582SOL    HW310061   1.576   6.225   2.277 -0.0274  0.4672  0.6871
 2582SOL    MW410062   1.660   6.246   2.270 -0.0475  0.0814  0.0794
 2583SOL     OW10063   0.363   0.159   0.706  0.4956  0.8312 -0.2315
 2583SOL    HW210064   0.393   0.224   0.769  1.7168  0.1736 -0.0973
 2583SOL    HW310065   0.380   0.198   0.621  2.0578  0.3839 -0.1665
 2583SOL    MW410066   0.369   0.173   0.703  0.1976  0.3279  0.1642
 2584SOL     OW10067   0.618   2.064   0.449 -0.5036 -0.0240 -0.6429
 2584SOL    HW210068   0.530   2.039   0.476 -0.0480 -0.8730  0.1083
 2584SOL    HW310069   0.633   2.017   0.367 -1.3257  1.3770 -1.6392
 2584SOL    MW410070   0.608   2.055   0.442 -0.1961  0.4805 -0.1033
 2585SOL     OW10071   2.992   2.082   0.913 -0.5108  0.4571  0.0556
 2585SOL    HW210072   3.075   2.096   0.959 -0.8274  1.2218  0.4137
 2585SOL    HW310073   3.015   2.027   0.839  0.0341 -0.7323  1.0660
 2585SOL    MW410074   3.006   2.077   0.910 -0.0904 -0.5668 -0.4115
 2586SOL     OW10075   2.289   3.384   5.627  0.0884 -0.2001 -0.4564
 2586SOL    HW210076   2.246   3.439   5.693  2.1961 -0.8067  1.5498
 2586SOL    HW310077   2.244   3.299   5.633  1.1866 -0.6931  1.2951
 2586SOL    MW410078   2.277   3.380   5.636 -0.7043  0.3351  0.0707
 2587SOL     OW10079   4.942   5.381   1.479 -0.6522  0.1724 -0.3724
 2587SOL    HW210080   4.923   5.297   1.437 -0.4360  0.8714 -1.9472
 2587SOL    HW310081   5.021   5.365   1.530 -1.5064 -0.9770  0.6667
 2587SOL    MW410082   4.950   5.368   1.480  0.5460 -0.0681 -0.1231
 2588SOL     OW10083   4.743   0.169   3.847 -0.3888 -0.1474  0.4551
 2588SOL    HW210084   4.716   0.103   3.784 -0.7823  2.1517 -1.9448
 2588SOL    HW310085   4.661   0.213   3.872 -0.1205 -0.4279  1.9222
 2588SOL    MW410086   4.728   0.166   3.842  0.7767 -0.0008  0.4336
 2589SOL     OW10087   4.408   2.389   1.382 -0.2216 -0.5484  0.0416
 2589SOL    HW210088   4.476   2.404   1.316 -0.3104 -0.0629  0.0528
 2589SOL    HW310089   4.341   2.455   1.363  0.5790  0.8411  1.7264
 2589SOL    MW410090   4.408   2.400   1.371  0.7455 -0.3195  0.2463
 2590SOL     OW10091   5.653   6.238   1.345  0.3084  0.1180  0.0461
 2590SOL    HW210092   5.584   6.172   1.348  2.2339 -2.1453 -1.4798
 2590SOL    HW310093   5.658   6.263   1.253  0.4978  1.4197  0.3984
 2590SOL    MW410094   5.645   6.232   1.333 -0.1706 -0.1621 -0.1957
 2591SOL     OW10095   3.294   1.267   3.114 -0.4849 -0.4360 -0.1405
 2591SOL    HW210096   3.366   1.306   3.163 -0.0708  0.4481 -1.4032
 2591SOL    HW310097   3.227   1.248   3.180  0.3203  0.0840  0.8442
 2591SOL    MW410098   3.295   1.270   3.129  0.0049 -0.8062 -0.3203
 2592SOL     OW10099   0.863   3.808   5.880 -0.1504  0.1594 -0.4072
 2592SOL    HW210100   0.905   3.842   5.959  0.6793  0.0575 -0.7978
 2592SOL    HW310101   0.869   3.713   5.888  0.1475  0.1535 -0.7087
 2592SOL    MW410102   0.869   3.800   5.891  0.2235 -0.1744 -0.5172
 2593SOL     OW10103   0.374   3.324   4.569  0.3458 -0.3053  1.0170
 2593SOL    HW210104   0.299   3.275   4.536  1.0022 -0.3265 -0.5199
 2593SOL    HW310105   0.450   3.271   4.544  1.0956  1.4899 -0.7681
 2593SOL    MW410106   0.374   3.310   4.561  0.3070 -0.0981 -0.5811
 2594SOL     OW10107   5.034   4.072   1.845  0.8570 -0.0433 -0.3699
 2594SOL    HW210108   5.119   4.063   1.803  0.3164 -0.5396 -1.4280
 2594SOL    HW310109   4.999   3.982   1.847  0.7374  0.0240  0.8804
 2594SOL    MW410110   5.040   4.059   1.840 -0.0176 -0.1668  0.1721
 2595SOL     OW10111   1.140   2.242   0.055  0.0612 -0.3241 -0.1023
 2595SOL    HW210112   1.224   2.204   0.080 -0.8060 -0.7226  2.5460
 2595SOL    HW310113   1.133   2.322   0.107 -0.5548  0.5237 -1.4470
 2595SOL    MW410114   1.150   2.247   0.066  0.1883  0.2654 -0.0777
 2596SOL     OW10115   3.995   4.537   4.588  0.2145  0.7279 -0.3850
 2596SOL    HW210116   3.908   4.570   4.569 -0.0027 -0.2381 -1.1395
 2596SOL    HW310117   3.991   4.513   4.681 -0.7528 -0.5386 -0.7275
 2596SOL    MW410118   3.983   4.538   4.598  0.8466 -0.2153  0.0023
 2597SOL     OW10119   4.401   4.732   5.875 -0.1264  0.2752  0.0701
 2597SOL    HW210120   4.396   4.644   5.837 -1.1819  0.2075  0.3193
 2597SOL    HW310121   4.309   4.756   5.890 -0.0058  2.2458 -1.8769
 2597SOL    MW410122   4.388   4.724   5.872 -0.2094  0.1041  0.4439
 2598SOL     OW10123   4.642   4.958   1.305  0.4620  0.8496  0.1458
 2598SOL    HW210124   4.696   5.026   1.347  2.1110 -0.1466 -0.2523
 2598SOL    HW310125   4.691   4.877   1.319 -0.6823 -0.0218 -0.7356
 2598SOL    MW410126   4.656   4.956   1.312  0.0738  0.0136 -0.0583
 2599SOL     OW10127   3.307   0.344   4.639 -0.1565 -0.3309  0.1278
 2599SOL    HW210128   3.309   0.405   4.565  1.1342 -1.8751 -1.1860
 2599SOL    HW310129   3.294   0.400   4.716  0.7857  1.5802 -1.0246
 2599SOL    MW410130   3.305   0.360   4.640 -0.1431  0.3868 -0.2789
 2600SOL     OW10131   0.777   1.186   2.310 -0.1538  0.5128  0.3007
 2600SOL    HW210132   0.855   1.169   2.257 -0.3801  0.6833 -0.0849
 2600SOL    HW310133   0.792   1.136   2.391  0.9078  1.4627  0.7319
 2600SOL    MW410134   0.789   1.178   2.314  0.1629  0.0983  0.0025
 2601SOL     OW10135   3.875   4.018   4.332  0.1952  0.0071  0.3455
 2601SOL    HW210136   3.948   4.057   4.283  0.6223  0.4890  1.3157
 2601SOL    HW310137   3.868   3.929   4.299  1.5754 -0.2181  0.5641
 2601SOL    MW410138   3.884   4.012   4.321  0.4177 -0.0032 -0.3610
 2602SOL     OW10139   2.643   5.651   4.984 -0.4220 -0.2638  0.0263
 2602SOL    HW210140   2.553   5.662   5.014 -0.3611 -1.1418  0.5607
 2602SOL    HW310141   2.696   5.696   5.051 -0.5360  2.2297 -1.4120
 2602SOL    MW410142   2.638   5.659   4.997 -0.1971 -0.2098 -0.4090
 2603SOL     OW10143   6.404   5.417   3.311  0.2050 -0.0370 -0.1210
 2603SOL    HW210144   6.312   5.416   3.286  0.2586 -1.0183 -0.3293
 2603SOL    HW310145   6.412   5.350   3.379  0.6819  0.3481  0.2115
 2603SOL    MW410146   6.393   5.408   3.316 -0.5021  0.6953 -0.5277
 2604SOL     OW10147   2.626   1.285   1.824  0.8378 -0.3236 -0.3960
 2604SOL    HW210148   2.548   1.230   1.813  0.0662  0.3044  1.4682
 2604SOL    HW310149   2.660   1.262   1.910  2.5759 -0.3558 -1.0515
 2604SOL    MW410150   2.620   1.275   1.834  0.1602  0.2033  0.0825
 2605SOL     OW10151   5.780   2.080   3.025  0.4175 -0.3294 -0.0311
 2605SOL    HW210152   5.832   2.013   3.070  1.3844  1.0073  0.9335
 2605SOL    HW310153   5.803   2.070   2.933  0.2928 -1.5363  0.0597
 2605SOL    MW410154   5.790   2.070   3.019  0.9735 -0.2508  0.2363
 2606SOL     OW10155   3.822   1.547   1.019 -0.1275  0.1348 -0.5572
 2606SOL    HW210156   3.821   1.480   1.087 -0.6145 -0.9489 -1.5993
 2606SOL    HW310157   3.819   1.630   1.067 -1.9144 -0.6054  0.7226
 2606SOL    MW410158   3.822   1.549   1.034 -0.3219 -0.1512  0.7862
 2607SOL     OW10159   0.984   3.956   6.074  0.1084  0.2630  0.8264
 2607SOL    HW210160   0.945   4.043   6.068  0.0034  0.2578  1.3653
 2607SOL    HW310161   1.073   3.966   6.041  1.1657  1.2670  3.6954
 2607SOL    MW410162   0.990   3.969   6.069 -0.6710  0.7738  0.1046
 2608SOL     OW10163   0.978   3.820   5.568 -0.2964  0.2455  0.3863
 2608SOL    HW210164   0.887   3.840   5.590 -0.5837  1.8112 -1.8766
 2608SOL    HW310165   0.974   3.737   5.521 -0.4131 -0.1633  1.1043
 2608SOL    MW410166   0.965   3.812   5.565  0.0275 -0.2460 -0.0925
 2609SOL     OW10167   6.002   0.017   4.062 -0.7682 -0.5618  0.4514
 2609SOL    HW210168   6.005   0.107   4.029 -1.6863 -0.5668  0.3390
 2609SOL    HW310169   6.015   0.026   4.156 -1.7248 -0.2242  0.5590
 2609SOL    MW410170   6.004   0.030   4.070  0.3278 -0.5868 -0.3114
 2610SOL     OW10171   1.234   6.241   5.847  0.4616  0.3604 -0.5113
 2610SOL    HW210172   1.232   6.336   5.853 -4.4736  0.4369  0.2891
 2610SOL    HW310173   1.292   6.223   5.773  1.2199  3.9770 -0.9663
 2610SOL    MW410174   1.241   6.251   5.838 -0.1152 -0.3128 -0.1874
 2611SOL     OW10175   2.782   1.060   6.258 -0.1211 -0.0432  0.4901
 2611SOL    HW210176   2.755   0.970   6.277  0.5091 -0.1488  0.9363
 2611SOL    HW310177   2.869   1.068   6.298 -0.2682  0.8407  0.6631
 2611SOL    MW410178   2.790   1.049   6.266  0.0563 -0.1157  0.0140
 2612SOL     OW10179   5.978   0.523   4.222  0.4151  0.7523 -0.2863
 2612SOL    HW210180   6.070   0.515   4.198  0.3148 -2.0693 -0.0083
 2612SOL    HW310181   5.970   0.475   4.304 -1.1627  1.7567  0.1972
 2612SOL    MW410182   5.989   0.516   4.230  0.0273  0.4167 -0.4146
 2613SOL     OW10183   1.165   6.225   6.111 -0.0565  0.0850 -0.1770
 2613SOL    HW210184   1.194   6.222   6.019  0.4229 -2.5628 -0.0028
 2613SOL    HW310185   1.077   6.261   6.107  0.4786  1.3911 -1.4915
 2613SOL    MW410186   1.157   6.229   6.098 -0.0265 -0.1827 -0.0900
 2614SOL     OW10187   5.541   5.274   5.194 -0.0272  0.7875  0.2109
 2614SOL    HW210188   5.542   5.215   5.118  0.6428  1.9516 -0.7145
 2614SOL    HW310189   5.622   5.253   5.241 -1.6176 -1.6753  2.0432
 2614SOL    MW410190   5.552   5.263   5.190 -0.3672 -0.1221 -0.2692
 2615SOL     OW10191   1.166   0.888   5.650 -0.5387 -0.1294  0.5087
 2615SOL    HW210192   1.234   0.951   5.628 -0.1160 -1.0266 -0.9433
 2615SOL    HW310193   1.084   0.931   5.625 -0.1659 -0.5648 -1.6422
 2615SOL    MW410194   1.164   0.902   5.644 -0.0471 -0.2812 -0.5961
 2616SOL     OW10195   0.868   4.450   5.056  0.5685 -0.1508  0.3750
 2616SOL    HW210196   0.845   4.473   5.146  3.4137 -0.3547  1.2407
 2616SOL    HW310197   0.831   4.520   5.003 -0.2689  0.5207  1.7789
 2616SOL    MW410198   0.860   4.462   5.061  0.5777 -0.1110  0.1193
 2617SOL     OW10199   3.923   4.830   4.971 -0.2066  0.1912  0.0452
 2617SOL    HW210200   3.909   4.863   4.882 -0.1559 -1.6984 -0.7096
 2617SOL    HW310201   3.854   4.871   5.023  0.9168  2.8679 -0.3885
 2617SOL    MW410202   3.912   4.840   4.966 -0.1785 -0.3160  0.9485
 2618SOL     OW10203   5.219   0.154   1.219  0.0471 -0.7682 -0.1921
 2618SOL    HW210204   5.246   0.076   1.171  0.4274 -0.8381  0.1334
 2618SOL    HW310205   5.123   0.155   1.212  0.1449  0.0822 -2.2991
 2618SOL    MW410206   5.210   0.144   1.212 -0.3484 -0.0302 -0.1081
 2619SOL     OW10207   4.490   1.985   3.123  0.2904  0.1835  0.1949
 2619SOL    HW210208   4.503   1.909   3.180  0.4921 -0.7398 -1.0207
 2619SOL    HW310209   4.571   1.992   3.073  0.1554  1.0231  0.0836
 2619SOL    MW410210   4.502   1.976   3.124 -0.6380 -0.9946  0.4797
 2620SOL     OW10211   0.337   3.007   0.648 -0.0343 -0.0607 -0.0202
 2620SOL    HW210212   0.243   3.017   0.660 -0.0962  0.3921 -0.8456
 2620SOL    HW310213   0.364   2.946   0.717 -0.6700  1.0241  1.2309
 2620SOL    MW410214   0.328   3.000   0.659  0.1432  0.6092  0.1968
 2621SOL     OW10215   6.405   4.863   5.412  0.2047 -0.4111  0.1444
 2621SOL    HW210216   6.470   4.851   5.343 -0.0631  0.6840 -0.3135
 2621SOL    HW310217   6.321   4.850   5.369  0.0591 -0.4156  0.4273
 2621SOL    MW410218   6.402   4.860   5.398  0.1623 -0.5603 -0.2818
 2622SOL     OW10219   4.254   1.685   3.500 -0.5592 -0.0403  0.2366
 2622SOL    HW210220   4.228   1.725   3.583  0.2666 -0.3931  0.6891
 2622SOL    HW310221   4.177   1.690   3.445 -1.4972 -0.8580  1.4312
 2622SOL    MW410222   4.241   1.691   3.504  0.0089  0.5008  0.0114
 2623SOL     OW10223   2.959   3.451   1.395 -0.4525 -0.7034 -0.0489
 2623SOL    HW210224   2.964   3.416   1.484  1.0132  0.1528  0.2397
 2623SOL    HW310225   3.044   3.431   1.357  0.4258  2.2884  0.0732
 2623SOL    MW410226   2.971   3.444   1.402 -0.2125 -0.1847  0.0242
 2624SOL     OW10227   4.071   3.614   4.397  0.1680 -0.2859  0.5264
 2624SOL    HW210228   4.062   3.577   4.485 -0.2314  0.2067  0.7002
 2624SOL    HW310229   4.102   3.541   4.344  1.4775 -0.3151  1.2891
 2624SOL    MW410230   4.074   3.600   4.402  0.1657 -0.0207 -0.6082
 2625SOL     OW10231   5.978   1.522   0.530 -0.1744 -0.1953 -0.0332
 2625SOL    HW210232   5.975   1.591   0.596 -0.5572  0.8751 -1.1254
 2625SOL    HW310233   5.887   1.504   0.509 -0.1394 -2.0829  1.2501
 2625SOL    MW410234   5.966   1.529   0.536  0.5803  0.1082  0.0911
 2626SOL     OW10235   2.997   3.278   3.468 -0.0295  0.1416  0.2636
 2626SOL    HW210236   3.080   3.290   3.421  1.0864 -1.1331  1.7624
 2626SOL    HW310237   2.930   3.312   3.409  1.5800  1.3920 -0.9177
 2626SOL    MW410238   2.999   3.284   3.454 -0.1344  0.2789  0.0000
 2627SOL     OW10239   5.704   3.563   4.026  0.6650  0.1034  0.0123
 2627SOL    HW210240   5.791   3.563   4.065 -0.0419 -1.6861  1.7418
 2627SOL    HW310241   5.714   3.512   3.945  1.3527  0.6020 -0.2319
 2627SOL    MW410242   5.717   3.557   4.020  0.6600 -0.1296  0.0755
 2628SOL     OW10243   3.420   3.218   1.129  0.2628 -0.5288  0.8546
 2628SOL    HW210244   3.346   3.178   1.083  1.3165 -0.2190 -1.2668
 2628SOL    HW310245   3.419   3.309   1.101  0.6480 -0.1894  1.9001
 2628SOL    MW410246   3.410   3.225   1.119 -0.3888  0.1031 -0.1338
 2629SOL     OW10247   0.939   1.182   0.753 -0.0152 -0.7015 -0.3048
 2629SOL    HW210248   0.953   1.250   0.819 -0.7435 -0.0214 -0.8387
 2629SOL    HW310249   1.018   1.185   0.699 -0.8384  1.0920 -1.5050
 2629SOL    MW410250   0.952   1.191   0.755 -0.5132  0.4751 -0.0491
 2630SOL     OW10251   4.524   3.547   1.167  0.0718  0.0075  0.2479
 2630SOL    HW210252   4.562   3.615   1.223 -0.3166  0.0720  0.4306
 2630SOL    HW310253   4.580   3.471   1.182  1.5657  0.7430 -1.2387
 2630SOL    MW410254   4.537   3.546   1.177 -0.0424  0.2605  0.0350
 2631SOL     OW10255   5.709   0.655   2.952 -0.4252  0.3861  0.2416
 2631SOL    HW210256   5.695   0.746   2.977 -0.4081  0.4311  0.0904
 2631SOL    HW310257   5.706   0.606   3.034  0.4721  0.6318  0.4297
 2631SOL    MW410258   5.707   0.660   2.966 -0.6608 -0.0386  0.3845
 2632SOL     OW10259   5.989   4.689   4.966 -0.2696 -0.5505 -0.1632
 2632SOL    HW210260   6.032   4.606   4.945  0.9175 -0.0341  0.1670
 2632SOL    HW310261   5.977   4.686   5.061 -0.3201 -0.3799 -0.1637
 2632SOL    MW410262   5.993   4.678   4.976  0.5687  0.1022 -0.2352
 2633SOL     OW10263   6.265   0.496   4.176  0.3918 -0.4763  0.0449
 2633SOL    HW210264   6.295   0.538   4.257 -1.9253  1.4947  0.0014
 2633SOL    HW310265   6.289   0.558   4.107 -0.8593 -0.3612 -0.3148
 2633SOL    MW410266   6.272   0.510   4.178  0.4537  0.5922  0.4569
 2634SOL     OW10267   2.532   1.565   2.148  0.3523  0.4762  0.0445
 2634SOL    HW210268   2.622   1.581   2.176 -0.0606 -0.4138  2.0184
 2634SOL    HW310269   2.479   1.622   2.203 -0.5561 -2.0109  1.8815
 2634SOL    MW410270   2.537   1.575   2.159 -0.2527  0.5102  0.3038
 2635SOL     OW10271   1.063   2.754   1.239  0.5604 -0.2392  0.7666
 2635SOL    HW210272   1.073   2.715   1.153  0.2439  2.6067 -0.6898
 2635SOL    HW310273   1.143   2.731   1.286  1.2187 -0.9739 -0.6680
 2635SOL    MW410274   1.075   2.746   1.234  0.4235 -0.0406 -0.0895
 2636SOL     OW10275   0.091   4.627   1.699 -0.1045 -0.2986 -0.3011
 2636SOL    HW210276   0.161   4.590   1.753 -0.3343  0.5034  0.5611
 2636SOL    HW310277   0.011   4.614   1.751 -0.2388  1.0753 -0.1412
 2636SOL    MW410278   0.089   4.620   1.713  1.1611 -1.1827 -0.2171
 2637SOL     OW10279   3.445   0.540   4.453 -0.1171 -0.5117  0.4420
 2637SOL    HW210280   3.458   0.556   4.546 -0.5480  0.1027  0.4017
 2637SOL    HW310281   3.394   0.615   4.422  1.0034 -0.1019 -0.5271
 2637SOL    MW410282   3.440   0.552   4.461  0.3568 -0.2919  0.2192
 2638SOL     OW10283   5.478   0.545   3.410 -0.2061 -0.0447 -0.1830
 2638SOL    HW210284   5.445   0.574   3.325 -0.7090 -1.4261 -0.4860
 2638SOL    HW310285   5.399   0.525   3.460  0.1245 -1.5290 -0.2333
 2638SOL    MW410286   5.463   0.546   3.405 -0.4754  0.1515 -0.3710
 2639SOL     OW10287   4.096   4.329   2.301  0.0239  0.0933 -0.8156
 2639SOL    HW210288   4.191   4.341   2.293  0.3864  0.0381  2.1852
 2639SOL    HW310289   4.058   4.397   2.245  1.8533  1.1062 -0.8907
 2639SOL    MW410290   4.103   4.340   2.292  0.5373 -0.0338 -0.4239
 2640SOL     OW10291   4.839   2.699   6.001 -0.3039 -0.0164  0.4308
 2640SOL    HW210292   4.895   2.622   5.992 -0.7744 -0.4656  1.2262
 2640SOL    HW310293   4.900   2.772   6.011  0.1483 -0.2348 -0.5994
 2640SOL    MW410294   4.854   2.698   6.001 -0.2010 -0.0910 -0.4959
 2641SOL     OW10295   5.796   4.183   0.096  0.0938  0.1962  0.0537
 2641SOL    HW210296   5.785   4.262   0.043  0.7844 -0.0089 -0.4159
 2641SOL    HW310297   5.871   4.138   0.057  0.9711  0.2945  1.5286
 2641SOL    MW410298   5.805   4.187   0.084 -0.1215 -0.1156 -0.5829
 2642SOL     OW10299   0.411   5.342   6.095 -0.2308  0.1813 -0.2814
 2642SOL    HW210300   0.500   5.371   6.114 -0.1561 -0.8309  1.0922
 2642SOL    HW310301   0.383   5.396   6.021  1.9160 -0.2380 -1.4889
 2642SOL    MW410302   0.419   5.353   6.087  0.0887 -0.5831  0.4391
 2643SOL     OW10303   3.428   3.534   4.083  0.0002 -0.3452  0.3577
 2643SOL    HW210304   3.496   3.596   4.058  0.2949 -1.1498 -0.9428
 2643SOL    HW310305   3.452   3.507   4.172  1.1193 -0.2456  0.1056
 2643SOL    MW410306   3.441   3.538   4.091 -0.2892 -0.0582  0.2336
 2644SOL     OW10307   1.318   6.325   0.290 -0.6239  0.6352  0.1358
 2644SOL    HW210308   1.351   6.411   0.316  0.1806  0.6787 -1.0165
 2644SOL    HW310309   1.253   6.344   0.222  0.3311  0.2824 -0.8896
 2644SOL    MW410310   1.314   6.339   0.285 -0.1254 -0.6102  0.1291
 2645SOL     OW10311   2.966   5.441   5.771  0.9262  0.1451  0.0817
 2645SOL    HW210312   2.956   5.426   5.678  0.0933  0.0798  0.1800
 2645SOL    HW310313   3.002   5.530   5.777  0.7668  0.2353 -0.2870
 2645SOL    MW410314   2.970   5.451   5.760  0.5651 -0.6855  0.7303
 2646SOL     OW10315   3.340   2.584   4.466  0.5630 -0.3530 -0.2163
 2646SOL    HW210316   3.405   2.542   4.409  0.2419 -1.9354  0.5032
 2646SOL    HW310317   3.256   2.549   4.437  0.2732 -0.1670  0.3752
 2646SOL    MW410318   3.337   2.574   4.455  0.1787 -0.8690 -0.3985
 2647SOL     OW10319   1.525   1.513   6.162 -0.1755 -0.3131  0.1114
 2647SOL    HW210320   1.495   1.597   6.128  0.4552  0.1657  0.7222
 2647SOL    HW310321   1.467   1.495   6.236 -1.1458 -1.0574 -0.7897
 2647SOL    MW410322   1.513   1.521   6.167 -0.6561 -0.3693 -0.1202
 2648SOL     OW10323   3.291   2.656   6.184  0.0058 -0.0410  0.2266
 2648SOL    HW210324   3.359   2.680   6.121 -1.2261  0.7849 -0.8422
 2648SOL    HW310325   3.211   2.648   6.132 -0.4856 -2.4980  1.1956
 2648SOL    MW410326   3.289   2.658   6.169  0.3312 -0.2531 -0.3330
 2649SOL     OW10327   6.374   5.363   1.662 -0.0818 -0.5217 -0.7771
 2649SOL    HW210328   6.388   5.271   1.681 -2.4696 -0.9031 -0.4870
 2649SOL    HW310329   6.431   5.410   1.723 -0.6302 -1.8095  0.7841
 2649SOL    MW410330   6.383   5.357   1.673 -0.8892 -0.0889 -0.3557
 2650SOL     OW10331   5.049   5.922   4.252 -0.7139 -0.3203 -0.3782
 2650SOL    HW210332   5.005   5.988   4.198 -1.0136 -0.2965 -0.1051
 2650SOL    HW310333   5.137   5.958   4.266 -1.1773  0.4667  0.5585
 2650SOL    MW410334   5.055   5.935   4.246 -0.0262  0.2909  0.1983
 2651SOL     OW10335   4.123   4.149   3.939  0.2184 -0.1291  0.1808
 2651SOL    HW210336   4.051   4.200   3.901  1.4860 -0.1733 -2.5456
 2651SOL    HW310337   4.198   4.208   3.935  1.2108 -1.4189 -0.9505
 2651SOL    MW410338   4.123   4.164   3.933 -0.2185 -0.6935 -0.1131
 2652SOL     OW10339   5.306   0.567   2.892 -0.3231  0.3744  0.0570
 2652SOL    HW210340   5.283   0.643   2.840  0.0793  0.5882  0.1887
 2652SOL    HW310341   5.322   0.498   2.828  1.6810  1.0304 -0.2227
 2652SOL    MW410342   5.305   0.568   2.877 -0.0244  0.0878  0.1989
 2653SOL     OW10343   6.428   5.172   4.676  0.3087  0.0026 -0.1525
 2653SOL    HW210344   6.508   5.187   4.626  2.0529  0.2841  2.5218
 2653SOL    HW310345   6.420   5.249   4.732 -0.5627 -1.0299  1.2030
 2653SOL    MW410346   6.438   5.184   4.677 -0.2118 -0.1037 -0.1446
 2654SOL     OW10347   1.644   3.471   5.783 -0.5319  0.5230  0.0579
 2654SOL    HW210348   1.645   3.465   5.879 -0.7802  0.4203  0.0547
 2654SOL    HW310349   1.708   3.539   5.763  1.0681 -0.8798  0.1910
 2654SOL    MW410350   1.653   3.479   5.793 -0.6663 -0.5884 -0.4423
 2655SOL     OW10351   3.385   3.481   1.539  0.1391  0.2090  0.3532
 2655SOL    HW210352   3.430   3.559   1.571  1.1300  0.4352 -1.4413
 2655SOL    HW310353   3.429   3.408   1.584  1.8365  0.4806 -0.7908
 2655SOL    MW410354   3.397   3.482   1.549  0.4734  0.0363 -0.7839
 2656SOL     OW10355   1.463   3.830   0.847  0.1656 -0.3803 -0.2940
 2656SOL    HW210356   1.496   3.779   0.921 -0.1763 -0.8187 -0.4381
 2656SOL    HW310357   1.531   3.895   0.831  0.1714 -0.1723  0.5103
 2656SOL    MW410358   1.476   3.832   0.855 -0.7019 -0.7697  0.3713
 2657SOL     OW10359   4.167   5.504   6.250  0.3782  0.3262 -0.3401
 2657SOL    HW210360   4.216   5.422   6.262  0.6945  0.7196  1.3553
 2657SOL    HW310361   4.135   5.525   6.338  0.2267  1.9726 -0.7649
 2657SOL    MW410362   4.169   5.496   6.263 -0.6191 -0.4926 -0.2751
 2658SOL     OW10363   1.016   0.418   2.919 -0.5015 -0.2351 -0.4835
 2658SOL    HW210364   1.016   0.386   3.009 -0.2869 -1.4755 -0.8994
 2658SOL    HW310365   1.108   0.437   2.900 -0.8271  2.8956  0.4724
 2658SOL    MW410366   1.028   0.417   2.928 -0.4275  0.2942  0.2020
 2659SOL     OW10367   0.861   2.036   5.228 -0.2772 -0.5670  0.1721
 2659SOL    HW210368   0.810   1.956   5.213 -0.9770 -0.2218  0.6296
 2659SOL    HW310369   0.948   2.005   5.250  0.1619 -1.1532 -2.1083
 2659SOL    MW410370   0.865   2.021   5.229 -0.5463  0.2009  0.4804
 2660SOL     OW10371   0.528   2.215   3.389  0.5473 -0.4054 -0.0818
 2660SOL    HW210372   0.511   2.296   3.342 -2.4790 -0.6077  0.5036
 2660SOL    HW310373   0.619   2.223   3.418  0.4818  2.5565 -0.4034
 2660SOL    MW410374   0.538   2.226   3.387 -0.2888  0.5103 -0.3620
 2661SOL     OW10375   1.741   5.031   0.306 -0.0379 -0.2413  0.1864
 2661SOL    HW210376   1.668   5.060   0.252 -1.3970  0.2592  2.1758
 2661SOL    HW310377   1.785   5.111   0.332  0.1034 -0.4102  0.4759
 2661SOL    MW410378   1.737   5.045   0.302 -0.0556 -0.0225 -0.1467
 2662SOL     OW10379   2.316   0.528   0.918  0.0155 -0.3691 -0.1873
 2662SOL    HW210380   2.280   0.440   0.922  1.7227 -1.1194 -0.4543
 2662SOL    HW310381   2.357   0.533   0.832 -3.0331  1.9733 -1.7168
 2662SOL    MW410382   2.316   0.517   0.908 -0.0012  0.1209 -0.5888
 2663SOL     OW10383   0.555   3.868   0.002 -0.0075  0.2403  0.2754
 2663SOL    HW210384   0.641   3.846  -0.036  0.0210 -0.9145  0.9634
 2663SOL    HW310385   0.493   3.849  -0.068  0.1522 -0.6728  0.3627
 2663SOL    MW410386   0.558   3.863  -0.012  1.1270  0.0803 -0.0807
 2664SOL     OW10387   3.778   2.048   1.776  0.6429 -0.4875 -0.3973
 2664SOL    HW210388   3.825   2.048   1.692  1.6457  0.5751  0.1375
 2664SOL    HW310389   3.786   1.958   1.807 -0.6089 -1.1609 -1.8886
 2664SOL    MW410390   3.785   2.036   1.769 -0.2878 -0.2191 -0.1966
 2665SOL     OW10391   4.551   3.959   1.539 -0.5015  0.1047  0.2193
 2665SOL    HW210392   4.637   3.989   1.570 -0.3370  0.3888 -0.4797
 2665SOL    HW310393   4.501   4.039   1.526 -0.6150 -0.0136 -0.0848
 2665SOL    MW410394   4.556   3.973   1.541 -0.5072  0.3797 -0.0206
 2666SOL     OW10395   5.337   3.116   5.043 -0.4893  0.1222  0.1202
 2666SOL    HW210396   5.410   3.137   4.985 -0.6124 -0.4149 -0.2340
 2666SOL    HW310397   5.364   3.148   5.129 -0.1887  0.6745 -0.1734
 2666SOL    MW410398   5.350   3.123   5.047 -0.3907 -0.2155 -0.2467
 2667SOL     OW10399   4.863   3.375   5.400  0.2481  0.4087  0.2890
 2667SOL    HW210400   4.804   3.439   5.360  1.0316 -0.4613 -2.4775
 2667SOL    HW310401   4.821   3.291   5.387  0.7835  0.0473  0.8490
 2667SOL    MW410402   4.850   3.373   5.393 -0.3915  0.3354 -0.1164
 2668SOL     OW10403   4.146   3.220   4.111  0.0538  0.8136  0.0788
 2668SOL    HW210404   4.164   3.146   4.169  0.5167  1.2662  0.5185
 2668SOL    HW310405   4.221   3.223   4.051 -0.5356  0.1987 -0.7177
 2668SOL    MW410406   4.158   3.211   4.110 -0.0907  0.0782 -0.5227
 2669SOL     OW10407   0.664   0.679   4.891 -0.3916  0.2486 -0.1649
 2669SOL    HW210408   0.615   0.710   4.815 -0.7206  1.1952  0.4203
 2669SOL    HW310409   0.755   0.704   4.874 -0.4529  0.3955 -0.2752
 2669SOL    MW410410   0.669   0.686   4.879 -0.3164  0.7687  0.3879
 2670SOL     OW10411   4.633   2.808   2.607  0.3178 -0.5434 -0.6566
 2670SOL    HW210412   4.682   2.824   2.526 -0.4100  2.4334 -0.6154
 2670SOL    HW310413   4.685   2.849   2.675 -0.8263  0.1841 -0.1916
 2670SOL    MW410414   4.646   2.815   2.605  0.2783  1.0536 -0.1810
 2671SOL     OW10415   3.282   3.848   5.754  0.1146 -0.6609 -0.0271
 2671SOL    HW210416   3.371   3.881   5.751 -0.9563  2.4323 -0.6049
 2671SOL    HW310417   3.284   3.769   5.699  1.7200  1.4677 -3.3386
 2671SOL    MW410418   3.294   3.842   5.746  0.0907  0.5107  0.1572
 2672SOL     OW10419   3.813   1.360   1.696  0.0657 -0.5530  0.9930
 2672SOL    HW210420   3.903   1.344   1.667  0.2093 -0.0340  1.1454
 2672SOL    HW310421   3.761   1.294   1.651  0.3963 -0.2679  0.1793
 2672SOL    MW410422   3.818   1.349   1.686 -0.1593  0.4371  0.4835
 2673SOL     OW10423   4.944   1.852   5.783 -0.2021  0.3492  0.7805
 2673SOL    HW210424   4.986   1.813   5.859  1.1342 -0.2285 -0.2094
 2673SOL    HW310425   4.912   1.937   5.814  0.4242  0.1807  1.9426
 2673SOL    MW410426   4.946   1.858   5.797  0.3269  0.4073 -0.0781
 2674SOL     OW10427   0.442   5.561   0.003  0.0625 -0.0273  0.1403
 2674SOL    HW210428   0.476   5.623   0.068  1.1483 -1.4047  0.9616
 2674SOL    HW310429   0.444   5.608  -0.080  2.3405  0.5618  0.4719
 2674SOL    MW410430   0.447   5.575   0.001 -0.6584 -0.1543  0.1014
 2675SOL     OW10431   3.044   4.334   0.028  0.0957  0.2053  0.0654
 2675SOL    HW210432   2.973   4.391  -0.001 -1.4094 -1.6468 -0.0461
 2675SOL    HW310433   3.003   4.274   0.090  1.2461 -1.8158 -1.0524
 2675SOL    MW410434   3.029   4.334   0.033  0.2348  0.6560 -0.2494
 2676SOL     OW10435   2.995   3.438   3.700  0.0640 -0.3882  0.7076
 2676SOL    HW210436   3.007   3.407   3.610 -2.1390 -0.4993  0.4163
 2676SOL    HW310437   3.083   3.467   3.726  0.4903  1.1038 -1.9990
 2676SOL    MW410438   3.008   3.438   3.691 -0.5967  0.4480 -0.4141
 2677SOL     OW10439   4.885   3.336   5.877 -0.0113  0.0401 -0.4317
 2677SOL    HW210440   4.892   3.387   5.796 -0.8287  0.1023 -0.4694
 2677SOL    HW310441   4.975   3.329   5.909  0.3327 -0.0554 -1.3886
 2677SOL    MW410442   4.898   3.341   5.871  0.0343 -0.4255  0.4050
 2678SOL     OW10443   5.347   0.835   3.577  0.0347 -0.0368 -0.4068
 2678SOL    HW210444   5.298   0.776   3.519  0.1509 -0.8122  0.2655
 2678SOL    HW310445   5.319   0.923   3.552 -0.3134 -0.3846 -1.2786
 2678SOL    MW410446   5.337   0.839   3.566 -0.2936 -0.3280  0.3046
 2679SOL     OW10447   3.033   3.296   3.062  0.1720  0.4012 -0.0009
 2679SOL    HW210448   3.058   3.386   3.044  1.8575 -0.0189  0.0644
 2679SOL    HW310449   3.116   3.248   3.067 -0.7093 -1.2933 -0.7463
 2679SOL    MW410450   3.047   3.301   3.061 -0.6098 -0.3355  0.3975
 2680SOL     OW10451   5.203   3.410   6.254 -0.4200 -0.1730 -0.0622
 2680SOL    HW210452   5.276   3.347   6.257 -0.9262 -0.7602  0.0456
 2680SOL    HW310453   5.220   3.468   6.328  0.2815  0.0817 -0.4106
 2680SOL    MW410454   5.215   3.409   6.264  0.5313  0.3050  0.0328
 2681SOL     OW10455   3.023   6.346   5.299 -0.3075  0.3408  0.5044
 2681SOL    HW210456   2.982   6.342   5.385  2.0346  0.4170  1.7028
 2681SOL    HW310457   3.018   6.438   5.274 -0.1344  0.4924  1.0171
 2681SOL    MW410458   3.017   6.358   5.307 -0.1780 -0.2876  0.1936
 2682SOL     OW10459   2.636   3.730   1.370  0.4161 -0.0919  0.2757
 2682SOL    HW210460   2.591   3.659   1.417  1.6275 -1.5115 -0.6057
 2682SOL    HW310461   2.726   3.726   1.402  1.1637 -0.8206 -1.7767
 2682SOL    MW410462   2.642   3.720   1.380 -0.2259  0.5157  0.3784
 2683SOL     OW10463   4.564   5.179   2.365 -0.0209  0.2435 -0.1871
 2683SOL    HW210464   4.506   5.118   2.320  0.6145  0.0980 -0.8187
 2683SOL    HW310465   4.542   5.265   2.329  1.2348  0.0048 -1.6252
 2683SOL    MW410466   4.553   5.182   2.354  0.2436 -0.0928 -0.1047
 2684SOL     OW10467   6.012   6.241   3.874  0.1462  0.5689 -0.0203
 2684SOL    HW210468   5.975   6.288   3.800 -0.6938 -0.7313 -0.4547
 2684SOL    HW310469   6.045   6.310   3.932  0.9066  1.6246 -1.6139
 2684SOL    MW410470   6.012   6.256   3.872 -0.5686 -0.5374 -0.0321
 2685SOL     OW10471   5.114   2.808   2.609  0.2265 -0.1247 -0.0634
 2685SOL    HW210472   5.076   2.738   2.661  1.9285 -0.3918  0.8779
 2685SOL    HW310473   5.121   2.771   2.521 -0.8263 -0.3720 -0.0581
 2685SOL    MW410474   5.110   2.794   2.604 -0.0735 -0.2014  0.2605
 2686SOL     OW10475   4.143   3.724   2.070 -0.3408  0.4773  0.7866
 2686SOL    HW210476   4.235   3.732   2.093 -0.0367 -1.0372  0.2204
 2686SOL    HW310477   4.099   3.702   2.152 -0.0112 -0.0297  0.8286
 2686SOL    MW410478   4.149   3.722   2.083 -0.0070 -0.2368 -0.1283
 2687SOL     OW10479   2.990   5.729   3.852  0.0039  0.5339  0.3782
 2687SOL    HW210480   2.917   5.786   3.878 -0.3186  0.0466  0.5634
 2687SOL    HW310481   2.977   5.716   3.758  1.3485  2.5506 -0.1535
 2687SOL    MW410482   2.979   5.735   3.843 -0.0511  0.8365  0.7995
 2688SOL     OW10483   0.835   3.865   3.378  0.2126  0.2444  0.4127
 2688SOL    HW210484   0.837   3.776   3.414 -2.8024 -0.0790 -0.0114
 2688SOL    HW310485   0.841   3.922   3.455  0.7592 -0.3099  0.7958
 2688SOL    MW410486   0.836   3.861   3.393 -0.3229  0.3131  0.6329
 2689SOL     OW10487   1.224   3.870   1.090 -0.1170  0.5600 -0.2438
 2689SOL    HW210488   1.174   3.952   1.088  0.9557  1.2225 -0.2666
 2689SOL    HW310489   1.286   3.880   1.162  0.8450  0.2616 -1.0083
 2689SOL    MW410490   1.225   3.882   1.099 -0.0625 -0.2492 -0.4351
 2690SOL     OW10491   4.619   5.319   0.527  0.2438  0.1391 -0.5820
 2690SOL    HW210492   4.569   5.351   0.602 -1.2695  0.6433 -1.7457
 2690SOL    HW310493   4.553   5.288   0.465  1.4123  0.0925 -1.8718
 2690SOL    MW410494   4.604   5.319   0.529  0.2825  0.7072  0.2004
 2691SOL     OW10495   1.818   1.264   0.570  0.4430 -0.0782  0.5365
 2691SOL    HW210496   1.723   1.280   0.567  0.5865  1.2403  1.8443
 2691SOL    HW310497   1.844   1.294   0.656  1.9707 -1.0742  0.4554
 2691SOL    MW410498   1.809   1.270   0.581 -0.6173  0.2411  0.1429
 2692SOL     OW10499   1.297   2.752   5.689 -0.3904 -0.1831  0.2323
 2692SOL    HW210500   1.221   2.809   5.699 -0.1662  0.4662 -1.4600
 2692SOL    HW310501   1.351   2.794   5.622  0.7678 -1.3591  0.3748
 2692SOL    MW410502   1.294   2.765   5.681  0.7179 -0.2336  0.8795
 2693SOL     OW10503   4.642   1.388   0.223 -0.0516  0.2795 -0.4895
 2693SOL    HW210504   4.718   1.331   0.207  0.8067  1.4085 -0.5135
 2693SOL    HW310505   4.567   1.328   0.219  0.8302 -0.8822 -0.3712
 2693SOL    MW410506   4.642   1.372   0.220  0.1257  0.0527  0.2037
 2694SOL     OW10507   6.353   4.224   5.984  0.0238  0.4650  0.4631
 2694SOL    HW210508   6.397   4.241   5.900 -0.6664  0.8249  0.1657
 2694SOL    HW310509   6.266   4.262   5.973  0.1230  1.0309  1.5560
 2694SOL    MW410510   6.347   4.231   5.971  0.3936 -0.3131 -0.4356
 2695SOL     OW10511   6.333   5.595   0.138 -0.2783 -0.0023 -0.1384
 2695SOL    HW210512   6.286   5.632   0.063 -0.3949  0.9147  0.3733
 2695SOL    HW310513   6.406   5.655   0.153 -0.8718  0.4327  1.1422
 2695SOL    MW410514   6.336   5.608   0.130 -0.0516 -0.2915 -0.0313
 2696SOL     OW10515   2.005   1.554   5.127  0.3114 -0.2530 -0.0947
 2696SOL    HW210516   1.927   1.584   5.173  0.0255 -0.1279 -0.6451
 2696SOL    HW310517   1.978   1.472   5.085  0.4769 -0.2149 -0.2786
 2696SOL    MW410518   1.991   1.547   5.127 -0.0257  0.7513  0.2785
 2697SOL     OW10519   0.270   2.803   5.219  0.1418  0.0233 -0.0703
 2697SOL    HW210520   0.201   2.754   5.263 -0.7804  1.1868 -0.1656
 2697SOL    HW310521   0.264   2.776   5.128  1.4235 -1.6717  0.3049
 2697SOL    MW410522   0.260   2.793   5.213  0.4158 -0.0814 -0.0641
 2698SOL     OW10523   5.723   3.397   3.818  0.1012 -0.4202 -0.3771
 2698SOL    HW210524   5.812   3.360   3.820 -0.7349 -2.5320  0.7862
 2698SOL    HW310525   5.666   3.323   3.838 -2.1770  0.2671 -3.6036
 2698SOL    MW410526   5.727   3.382   3.821 -0.5678 -0.4765  0.3305
 2699SOL     OW10527   6.143   5.363   2.029 -0.4516 -0.5696  0.0175
 2699SOL    HW210528   6.115   5.355   2.120  0.1188 -2.9158  0.0656
 2699SOL    HW310529   6.233   5.395   2.034  0.1159 -2.1103  0.4244
 2699SOL    MW410530   6.151   5.366   2.042  0.3884  0.4993 -0.6468
 2700SOL     OW10531   3.982   3.870   5.305 -0.5521  0.9055  0.8986
 2700SOL    HW210532   4.075   3.892   5.306 -0.1523 -0.6943  1.3765
 2700SOL    HW310533   3.946   3.920   5.231  1.2341 -0.5781 -1.0695
 2700SOL    MW410534   3.989   3.880   5.295  0.0584  0.0610  0.4527
 2701SOL     OW10535   2.667   0.064   4.622 -0.1053  0.3996  0.0868
 2701SOL    HW210536   2.599   0.002   4.648  0.4168  0.4528  1.6520
 2701SOL    HW310537   2.621   0.147   4.610 -0.1979  0.7556  2.4020
 2701SOL    MW410538   2.652   0.066   4.624 -0.5839  0.0049 -0.1622
 2702SOL     OW10539   6.072   4.530   2.138 -0.0805 -0.1579  0.0361
 2702SOL    HW210540   6.032   4.611   2.171  0.7614  0.1873  0.2289
 2702SOL    HW310541   6.037   4.461   2.194 -0.3354  0.1492  0.2586
 2702SOL    MW410542   6.062   4.532   2.150  0.4409  0.1669  0.4864
 2703SOL     OW10543   2.460   1.337   0.522 -0.1582 -0.4127 -0.0400
 2703SOL    HW210544   2.399   1.283   0.471 -1.2903  0.2267  0.5903
 2703SOL    HW310545   2.528   1.275   0.552 -1.5673 -1.5810  0.9102
 2703SOL    MW410546   2.461   1.321   0.520 -0.2352 -1.2927  0.0693
 2704SOL     OW10547   0.395   1.868   5.912  0.2209  0.1706  0.2424
 2704SOL    HW210548   0.329   1.807   5.946 -0.2149  0.8066  0.5456
 2704SOL    HW310549   0.468   1.861   5.974  0.9351 -1.3509 -0.6775
 2704SOL    MW410550   0.396   1.859   5.925  0.2402 -0.7790 -0.2093
 2705SOL     OW10551   4.543   5.250   6.338 -0.1986 -0.1422  0.5103
 2705SOL    HW210552   4.540   5.345   6.348 -0.9329  0.3807 -3.1656
 2705SOL    HW310553   4.623   5.233   6.289 -0.4447 -1.3511  0.4820
 2705SOL    MW410554   4.553   5.260   6.333  0.3004  0.6596  0.3229
 2706SOL     OW10555   0.431   5.861   5.557 -0.6331  0.0924 -0.1424
 2706SOL    HW210556   0.465   5.845   5.645 -0.3050  1.8029  0.0749
 2706SOL    HW310557   0.425   5.774   5.518  1.3441 -0.5194  0.7851
 2706SOL    MW410558   0.434   5.848   5.564 -0.2026 -0.3682 -0.9935
 2707SOL     OW10559   6.104   0.415   2.135  0.0507 -0.2637 -0.2986
 2707SOL    HW210560   6.095   0.428   2.230 -0.0163 -0.8443 -0.2208
 2707SOL    HW310561   6.114   0.503   2.100 -0.6034  0.0117  0.1783
 2707SOL    MW410562   6.104   0.428   2.143  0.4186  0.4404 -0.0712
 2708SOL     OW10563   5.590   0.295   0.470  0.2668 -0.3852  0.3167
 2708SOL    HW210564   5.594   0.205   0.436  2.7592 -0.7168  1.2897
 2708SOL    HW310565   5.611   0.287   0.563  3.4396  1.3662 -0.0796
 2708SOL    MW410566   5.594   0.282   0.478 -0.1060  0.1590 -0.4323
 2709SOL     OW10567   1.545   1.392   5.745  0.4746  0.3882  0.6717
 2709SOL    HW210568   1.628   1.395   5.791  1.1482  1.3960 -0.5698
 2709SOL    HW310569   1.548   1.464   5.682 -2.2329  1.8992  2.0673
 2709SOL    MW410570   1.556   1.402   5.742  0.6336 -0.1718  0.2669
 2710SOL     OW10571   4.597   5.540   2.057 -0.5268  0.1855 -0.3024
 2710SOL    HW210572   4.543   5.498   2.124  1.1217 -0.7751  0.4817
 2710SOL    HW310573   4.620   5.625   2.094 -0.7107  0.2019 -0.2257
 2710SOL    MW410574   4.593   5.546   2.071  0.1098 -0.3895 -0.5942
 2711SOL     OW10575   6.437   4.172   2.700  0.2538  0.0575  0.3313
 2711SOL    HW210576   6.429   4.083   2.663 -0.5636  0.1354  0.2988
 2711SOL    HW310577   6.496   4.217   2.640 -1.0822  0.1948 -0.9526
 2711SOL    MW410578   6.444   4.166   2.687  0.0913  0.3807  0.1887
 2712SOL     OW10579   3.437   0.481   6.034  0.2968 -0.0900  0.3913
 2712SOL    HW210580   3.373   0.552   6.043  1.2127  0.6653  1.1177
 2712SOL    HW310581   3.455   0.453   6.124 -0.5225 -1.6993  0.0839
 2712SOL    MW410582   3.431   0.487   6.047 -0.4245  0.4934  0.8200
 2713SOL     OW10583   5.606   1.251   5.064  0.3220  0.4451 -0.2088
 2713SOL    HW210584   5.676   1.239   5.000  1.1264 -0.9179  0.8768
 2713SOL    HW310585   5.638   1.209   5.143 -2.4194 -1.9029 -0.1862
 2713SOL    MW410586   5.619   1.244   5.066 -0.0535  0.2075 -0.4059
 2714SOL     OW10587   5.127   3.861   5.019  0.2010 -0.1458  0.1213
 2714SOL    HW210588   5.140   3.931   4.954 -0.1355  1.4621  1.7281
 2714SOL    HW310589   5.095   3.787   4.967 -0.0620  1.0685 -1.5516
 2714SOL    MW410590   5.125   3.861   5.003 -0.3927  0.2280  0.4681
 2715SOL     OW10591   3.921   0.900   2.243 -0.3733 -0.0967 -0.4907
 2715SOL    HW210592   3.852   0.888   2.308 -1.1329  2.4673 -0.7140
 2715SOL    HW310593   3.883   0.866   2.162 -1.1047  0.5562 -0.4382
 2715SOL    MW410594   3.907   0.894   2.241 -0.5274  0.7088  0.1290
 2716SOL     OW10595   3.604   1.233   4.755  0.1168  0.0207 -0.5879
 2716SOL    HW210596   3.545   1.305   4.729  0.6578  1.2511  1.4004
 2716SOL    HW310597   3.545   1.159   4.771 -1.2639  1.6279  2.8622
 2716SOL    MW410598   3.588   1.233   4.754  0.1034 -0.0923 -0.3296
 2717SOL     OW10599   2.831   0.892   4.772 -0.1486  0.4441 -0.0148
 2717SOL    HW210600   2.817   0.806   4.813  1.0814  0.8614  1.3808
 2717SOL    HW310601   2.924   0.909   4.785 -0.5492  2.3897  0.5457
 2717SOL    MW410602   2.842   0.883   4.779 -0.0597  0.5841 -0.3472
 2718SOL     OW10603   4.243   2.756   2.031 -0.0620  1.0447 -0.7052
 2718SOL    HW210604   4.149   2.772   2.044 -0.3965 -0.0119 -1.6579
 2718SOL    HW310605   4.284   2.786   2.112 -1.4359 -0.2160  0.5228
 2718SOL    MW410606   4.236   2.762   2.043  0.1867  0.1715 -0.4338
 2719SOL     OW10607   1.750   5.931   3.170  0.0660 -0.0213  0.4816
 2719SOL    HW210608   1.832   5.980   3.175 -1.2916  2.8599 -2.2360
 2719SOL    HW310609   1.774   5.849   3.128  1.9806 -0.7355  2.7164
 2719SOL    MW410610   1.764   5.927   3.165  0.1861  0.4806 -0.2494
 2720SOL     OW10611   0.534   3.937   3.368  0.5023 -0.2378  0.1400
 2720SOL    HW210612   0.526   4.000   3.440  0.3136  0.2407 -0.2900
 2720SOL    HW310613   0.614   3.888   3.388  1.1747  0.7606  0.0181
 2720SOL    MW410614   0.544   3.939   3.380 -0.3467  0.2987  0.1647
 2721SOL     OW10615   4.282   4.215   0.855 -0.4053 -0.2176  0.1560
 2721SOL    HW210616   4.373   4.210   0.886 -0.6058 -1.9346  0.5219
 2721SOL    HW310617   4.239   4.274   0.917  0.1398 -0.4935  0.8066
 2721SOL    MW410618   4.288   4.222   0.867  0.3910 -0.4558  0.3945
 2722SOL     OW10619   0.364   3.716   4.916  0.2135  0.3185 -0.3813
 2722SOL    HW210620   0.309   3.695   4.992  0.7327  1.1920  0.2603
 2722SOL    HW310621   0.368   3.635   4.865 -0.9575  0.0002  0.0073
 2722SOL    MW410622   0.357   3.703   4.919  0.3541 -0.4745 -0.9640
 2723SOL     OW10623   5.786   0.918   3.572  0.1424 -0.2845  0.3011
 2723SOL    HW210624   5.796   1.007   3.537 -0.0349 -0.2264  0.3986
 2723SOL    HW310625   5.871   0.877   3.556  0.8646  0.5013  1.9711
 2723SOL    MW410626   5.799   0.924   3.565  0.1118 -0.0061  0.0759
 2724SOL     OW10627   3.941   3.267   3.479 -0.4119  0.2023  0.3929
 2724SOL    HW210628   3.961   3.279   3.386 -1.3364 -1.0476 -0.0028
 2724SOL    HW310629   4.015   3.215   3.512 -0.8285 -0.6955 -0.0377
 2724SOL    MW410630   3.953   3.262   3.471  0.3052 -0.4125 -0.1770
 2725SOL     OW10631   0.439   4.730   5.848  0.2125  0.1496 -0.4079
 2725SOL    HW210632   0.366   4.744   5.908 -0.2501  2.6057 -1.4157
 2725SOL    HW310633   0.496   4.668   5.894 -2.0855 -1.2482  0.7327
 2725SOL    MW410634   0.437   4.724   5.862 -0.5782  0.6517  0.4323
 2726SOL     OW10635   5.434   4.175   4.421 -0.2824  0.4432 -0.5528
 2726SOL    HW210636   5.406   4.255   4.377  1.0537  0.5686 -1.2174
 2726SOL    HW310637   5.459   4.116   4.350 -0.5190 -0.2990 -0.0392
 2726SOL    MW410638   5.434   4.178   4.406 -0.0074  0.8379 -0.2724
 2727SOL     OW10639   1.451   4.269   3.692  0.3193  0.1712  0.1572
 2727SOL    HW210640   1.513   4.307   3.755  0.1061  0.4729  0.1915
 2727SOL    HW310641   1.466   4.175   3.697  0.9245  0.2554  0.0090
 2727SOL    MW410642   1.461   4.262   3.701  0.5035 -0.2094 -0.6545
 2728SOL     OW10643   4.307   2.799   4.767 -0.5159  0.1031 -0.7555
 2728SOL    HW210644   4.392   2.779   4.806 -1.5671 -1.9374  0.6794
 2728SOL    HW310645   4.328   2.857   4.694  2.0460  0.0948 -0.1434
 2728SOL    MW410646   4.321   2.804   4.762 -0.0493 -0.0611  0.0562
 2729SOL     OW10647   5.213   3.239   1.103 -0.2951  0.0135 -0.0406
 2729SOL    HW210648   5.291   3.200   1.064 -0.1592  0.0776  0.1666
 2729SOL    HW310649   5.244   3.279   1.185 -0.8082 -1.2844  0.8266
 2729SOL    MW410650   5.227   3.239   1.109  0.2616 -1.0360 -0.0703
 2730SOL     OW10651   5.665   4.861   3.356 -0.3039  0.7288  0.8764
 2730SOL    HW210652   5.570   4.858   3.368 -0.6857  2.6641 -1.1085
 2730SOL    HW310653   5.685   4.786   3.301 -0.9033  1.0967  0.1440
 2730SOL    MW410654   5.655   4.851   3.351 -0.1256 -0.0188  0.3069
 2731SOL     OW10655   1.626   2.848   5.767 -0.1475 -0.2898  0.2252
 2731SOL    HW210656   1.576   2.848   5.685 -0.5862 -0.9051  0.4927
 2731SOL    HW310657   1.560   2.844   5.836  0.1152  1.9619  0.6901
 2731SOL    MW410658   1.611   2.848   5.765 -0.2375  0.3742  0.3530
 2732SOL     OW10659   3.801   2.523   5.844 -0.4035  0.9825  0.5254
 2732SOL    HW210660   3.876   2.568   5.882  0.3401 -0.2404  0.5649
 2732SOL    HW310661   3.748   2.592   5.805  1.2449  1.7872 -0.3822
 2732SOL    MW410662   3.804   2.538   5.844  0.3134 -0.2277 -0.1769
 2733SOL     OW10663   1.412   0.552   2.430 -0.1251  0.3536  0.1340
 2733SOL    HW210664   1.447   0.524   2.345  0.1616 -1.0348  0.6846
 2733SOL    HW310665   1.402   0.471   2.479 -1.1453  1.0595  1.1202
 2733SOL    MW410666   1.416   0.537   2.425 -0.0977 -0.1484 -0.0895
 2734SOL     OW10667   5.741   5.749   4.714 -0.6070 -0.5668  0.3754
 2734SOL    HW210668   5.778   5.781   4.632 -1.0667 -2.3394 -0.5869
 2734SOL    HW310669   5.772   5.810   4.781 -0.3568  1.0264 -1.1263
 2734SOL    MW410670   5.750   5.761   4.712  0.9629  0.2401  0.1798
 2735SOL     OW10671   2.787   3.745   5.539  0.0214  0.2196  0.5897
 2735SOL    HW210672   2.828   3.660   5.552 -0.9020 -0.0827  1.7657
 2735SOL    HW310673   2.706   3.741   5.590  0.1074  1.9085  0.9389
 2735SOL    MW410674   2.781   3.733   5.548  0.2021 -0.1021  0.3906
 2736SOL     OW10675   5.599   3.314   2.851 -0.1392 -0.3078 -0.7649
 2736SOL    HW210676   5.644   3.278   2.928  1.1233  0.8552 -0.9140
 2736SOL    HW310677   5.522   3.259   2.840  0.0804 -0.9883  0.8598
 2736SOL    MW410678   5.595   3.302   2.860 -0.6080 -0.1212  0.2124
 2737SOL     OW10679   0.030   6.325   2.462  0.5406  0.1200  1.1016
 2737SOL    HW210680   0.124   6.312   2.454  0.3363 -0.4884 -0.6288
 2737SOL    HW310681  -0.009   6.261   2.403 -0.9367  0.8590  1.2145
 2737SOL    MW410682   0.037   6.315   2.454 -0.3872  0.3696  0.0754
 2738SOL     OW10683   3.272   2.768   5.699  1.1125 -0.1818 -0.1672
 2738SOL    HW210684   3.221   2.688   5.708  1.4923 -0.4974 -0.7630
 2738SOL    HW310685   3.223   2.834   5.749  0.7921 -0.7776  0.3149
 2738SOL    MW410686   3.259   2.766   5.707 -0.2358 -0.1446 -0.8356
 2739SOL     OW10687   5.212   2.007   1.455  0.4409  0.5205 -0.1840
 2739SOL    HW210688   5.134   2.056   1.480 -0.7881 -0.9411 -0.9781
 2739SOL    HW310689   5.214   1.933   1.515  0.5717 -0.0372 -0.8559
 2739SOL    MW410690   5.202   2.003   1.466 -0.4841  0.2308  0.4348
 2740SOL     OW10691   4.557   0.488   2.580  0.6554 -0.2553 -0.2658
 2740SOL    HW210692   4.533   0.566   2.631 -1.0817 -1.0219  0.1719
 2740SOL    HW310693   4.568   0.419   2.646 -0.9614 -1.1066 -0.8372
 2740SOL    MW410694   4.555   0.489   2.596 -0.4064  0.0274 -0.4718
 2741SOL     OW10695   4.611   4.354   6.145 -0.1148 -0.0587  0.0872
 2741SOL    HW210696   4.693   4.388   6.180  0.9483 -0.7160 -1.6391
 2741SOL    HW310697   4.607   4.264   6.176  0.9982 -0.7506 -1.6420
 2741SOL    MW410698   4.621   4.347   6.154  0.0960 -0.0722  0.6053
 2742SOL     OW10699   0.666   3.632   0.614 -0.0978  0.2456 -0.6793
 2742SOL    HW210700   0.690   3.723   0.635  2.6739 -1.0638  2.9559
 2742SOL    HW310701   0.618   3.601   0.691  1.8845 -2.2015 -0.2941
 2742SOL    MW410702   0.663   3.640   0.627  0.0158 -0.3465  0.1578
 2743SOL     OW10703   4.021   4.741   1.545  0.2645  0.5814  0.1278
 2743SOL    HW210704   3.970   4.819   1.526  1.3014  1.0053 -1.1007
 2743SOL    HW310705   4.090   4.741   1.479 -0.1575 -1.8027 -0.4168
 2743SOL    MW410706   4.024   4.751   1.534  0.3761 -0.2291 -0.5434
 2744SOL     OW10707   2.362   5.155   4.997  0.0381  0.4688 -0.3746
 2744SOL    HW210708   2.450   5.182   5.023  0.8094  0.2021 -2.5552
 2744SOL    HW310709   2.339   5.085   5.059  0.2287  2.2640  1.8796
 2744SOL    MW410710   2.370   5.149   5.009 -0.5387 -0.3579 -0.1197
 2745SOL     OW10711   1.654   4.612   2.936 -0.4261  0.4323 -0.2930
 2745SOL    HW210712   1.693   4.530   2.965  0.8246  0.2588 -2.2314
 2745SOL    HW310713   1.706   4.680   2.978  3.1309  0.2388 -3.7660
 2745SOL    MW410714   1.666   4.610   2.945 -0.4575  0.5127 -0.1101
 2746SOL     OW10715   3.792   2.979   0.495  0.3639  0.5398  0.2063
 2746SOL    HW210716   3.755   2.910   0.551 -0.1645 -0.3916 -1.2381
 2746SOL    HW310717   3.796   2.939   0.408  2.5278  1.4567 -0.1729
 2746SOL    MW410718   3.787   2.964   0.491  0.5640 -0.1737  0.4349
 2747SOL     OW10719   0.136   6.072   2.837  0.2081  0.6321 -0.1823
 2747SOL    HW210720   0.063   6.104   2.784 -1.1757  1.9479  2.3677
 2747SOL    HW310721   0.096   6.016   2.902  1.6395  0.3935  0.5329
 2747SOL    MW410722   0.121   6.069   2.838 -0.0344 -0.4936  0.3162
 2748SOL     OW10723   4.856   2.406   6.355  0.3440  0.3050  0.4729
 2748SOL    HW210724   4.855   2.318   6.317  1.2470 -0.5307  2.2685
 2748SOL    HW310725   4.789   2.403   6.424  0.3621  1.0329  0.5285
 2748SOL    MW410726   4.847   2.394   6.359 -0.0562  0.3774 -0.2924
 2749SOL     OW10727   0.298   5.231   1.199 -0.3805 -0.3437 -0.0248
 2749SOL    HW210728   0.322   5.146   1.162 -0.1779  0.2762 -1.3981
 2749SOL    HW310729   0.263   5.211   1.286 -0.3084 -1.8209 -0.3141
 2749SOL    MW410730   0.296   5.217   1.206  0.3880  0.6853  0.3366
 2750SOL     OW10731   6.378   4.936   6.270  0.0841 -0.0119  0.0777
 2750SOL    HW210732   6.452   4.888   6.233 -0.1954 -0.1544 -0.2920
 2750SOL    HW310733   6.324   4.869   6.312 -0.2322 -0.0034 -0.3160
 2750SOL    MW410734   6.381   4.921   6.271  0.0902 -0.3127  0.1057
 2751SOL     OW10735   1.750   0.411   1.328 -0.6771 -0.3152 -0.2732
 2751SOL    HW210736   1.768   0.331   1.377 -0.6249 -0.3289 -0.3150
 2751SOL    HW310737   1.797   0.400   1.245 -1.4561 -0.6589 -0.6815
 2751SOL    MW410738   1.759   0.399   1.323  0.2245  0.2486 -0.3923
 2752SOL     OW10739   0.583   3.173   2.145  0.2688 -0.4447 -0.5703
 2752SOL    HW210740   0.540   3.222   2.074 -0.6066 -0.2730  0.0512
 2752SOL    HW310741   0.575   3.081   2.119  1.7209 -0.3086 -1.6364
 2752SOL    MW410742   0.576   3.168   2.132 -0.0637 -0.4850 -0.1369
 2753SOL     OW10743   2.655   6.420   0.993 -0.5617  0.7193 -0.6582
 2753SOL    HW210744   2.702   6.415   0.910 -0.8340  0.3473 -0.7916
 2753SOL    HW310745   2.693   6.351   1.047 -2.8791 -1.6035 -1.7633
 2753SOL    MW410746   2.666   6.411   0.989 -0.3515  0.2916 -0.3509
 2754SOL     OW10747   1.074   3.921   4.270  0.1600 -0.3423  0.0370
 2754SOL    HW210748   1.049   4.011   4.253 -0.6914 -0.4205  0.8093
 2754SOL    HW310749   1.168   3.924   4.285 -0.0537  0.6234  1.3275
 2754SOL    MW410750   1.083   3.933   4.270  0.2199  0.8507 -0.0092
 2755SOL     OW10751   4.403   0.535   2.922 -0.2253 -0.1105  0.2215
 2755SOL    HW210752   4.353   0.595   2.866 -1.4512 -0.2223  1.1512
 2755SOL    HW310753   4.339   0.468   2.948  0.7262 -0.9464  0.4836
 2755SOL    MW410754   4.388   0.534   2.918 -0.3839  0.1830  0.0149
 2756SOL     OW10755   2.873   4.913   4.305  0.5111  0.4861 -0.3481
 2756SOL    HW210756   2.862   5.007   4.319 -0.0809  0.2999  0.4975
 2756SOL    HW310757   2.927   4.885   4.379 -0.9510 -0.1642  0.5101
 2756SOL    MW410758   2.879   4.922   4.317  0.5929  0.0109  0.1340
 2757SOL     OW10759   1.956   4.753   0.309 -0.3254  0.3145 -0.4736
 2757SOL    HW210760   1.974   4.699   0.232  0.4999 -1.1872  0.7186
 2757SOL    HW310761   1.871   4.723   0.340 -0.3294  0.4112 -0.3893
 2757SOL    MW410762   1.947   4.742   0.303  0.6882  0.1483  0.6889
 2758SOL     OW10763   3.745   1.786   2.257 -0.2297 -0.0625 -0.0146
 2758SOL    HW210764   3.774   1.817   2.343 -0.3983 -0.5057  0.2049
 2758SOL    HW310765   3.781   1.849   2.195  0.1230  0.1065  0.3604
 2758SOL    MW410766   3.753   1.798   2.260 -0.1075 -0.3176  0.2112
 2759SOL     OW10767   0.203   1.122   3.324 -0.3645 -0.3698  0.0102
 2759SOL    HW210768   0.241   1.056   3.265  1.6868 -0.1352  0.9662
 2759SOL    HW310769   0.131   1.077   3.367 -0.4155 -1.2799 -0.9827
 2759SOL    MW410770   0.199   1.107   3.322 -0.2046 -0.3450  0.5946
 2760SOL     OW10771   2.351   0.565   5.617  0.3412 -0.1652  0.3621
 2760SOL    HW210772   2.289   0.506   5.660 -0.4628  0.3259 -0.1002
 2760SOL    HW310773   2.302   0.601   5.542  1.2749  0.0172 -0.1733
 2760SOL    MW410774   2.336   0.562   5.612  0.3767  0.0731  0.0046
 2761SOL     OW10775   1.769   3.798   4.496  0.4158  0.4022  0.9445
 2761SOL    HW210776   1.843   3.798   4.558  2.2259  0.2622 -1.0957
 2761SOL    HW310777   1.792   3.866   4.432 -1.6484  0.9107  0.6726
 2761SOL    MW410778   1.782   3.807   4.496  0.1102 -0.1962  0.3546
 2762SOL     OW10779   1.812   1.201   3.838 -0.4008  0.2086  0.2091
 2762SOL    HW210780   1.761   1.169   3.764  0.5523 -0.5121 -0.1546
 2762SOL    HW310781   1.749   1.202   3.911 -2.3675  4.2385 -1.2147
 2762SOL    MW410782   1.797   1.197   3.838  0.8838  0.1880 -0.6406
 2763SOL     OW10783   2.358   6.029   5.887  0.1947  0.3519 -0.2705
 2763SOL    HW210784   2.341   6.120   5.861  1.1555  0.9282  1.0053
 2763SOL    HW310785   2.349   6.029   5.982 -1.6623 -1.3335 -0.3763
 2763SOL    MW410786   2.355   6.041   5.896  0.0501 -0.3045  0.2073
 2764SOL     OW10787   0.319   4.675   2.350 -0.0380 -0.0201  0.1455
 2764SOL    HW210788   0.288   4.634   2.431  0.9713  1.0849  1.1254
 2764SOL    HW310789   0.260   4.749   2.336 -0.4905 -0.4756 -0.3922
 2764SOL    MW410790   0.307   4.679   2.359  0.1071 -0.0945  0.4494
 2765SOL     OW10791   6.233   0.396   0.873  0.1813 -0.0995 -0.4634
 2765SOL    HW210792   6.147   0.364   0.844  0.7288 -0.8138 -1.3524
 2765SOL    HW310793   6.216   0.485   0.904 -0.7778 -0.0004 -1.2140
 2765SOL    MW410794   6.219   0.403   0.873  0.2037 -0.1958 -0.0657
 2766SOL     OW10795   1.467   5.504   2.424  0.1335  0.1834  0.5420
 2766SOL    HW210796   1.448   5.579   2.480 -1.4006 -0.3771  0.8056
 2766SOL    HW310797   1.403   5.509   2.354 -0.0491 -0.9322  0.6163
 2766SOL    MW410798   1.456   5.515   2.422 -0.1211  0.3308 -0.2197
 2767SOL     OW10799   0.584   0.416   2.119  0.2593 -0.2132  0.1946
 2767SOL    HW210800   0.545   0.474   2.184 -0.9156 -0.8848  0.1116
 2767SOL    HW310801   0.512   0.361   2.088  1.1970 -1.2758 -0.2098
 2767SOL    MW410802   0.570   0.416   2.123  0.0065 -0.5379 -0.5356
 2768SOL     OW10803   0.667   0.799   0.687  0.6814  0.8121  0.1865
 2768SOL    HW210804   0.679   0.801   0.593  2.1990 -0.3590  0.3021
 2768SOL    HW310805   0.594   0.858   0.704  0.6695  1.3826 -1.6601
 2768SOL    MW410806   0.659   0.807   0.677  0.7589  0.3647  0.2511
 2769SOL     OW10807   6.162   4.875   4.857  0.0456  0.3327 -0.4564
 2769SOL    HW210808   6.237   4.845   4.908 -0.9029  0.0322  0.8262
 2769SOL    HW310809   6.092   4.813   4.878 -1.1797  1.8350  0.1112
 2769SOL    MW410810   6.163   4.863   4.866 -0.0682 -0.4195 -0.4366
 2770SOL     OW10811   5.307   4.346   0.929 -0.2372 -0.0012  0.0224
 2770SOL    HW210812   5.341   4.420   0.880 -1.6535  0.4141 -0.3974
 2770SOL    HW310813   5.247   4.385   0.993 -0.2866 -0.7219  0.4309
 2770SOL    MW410814   5.303   4.361   0.931 -0.1187  0.3058 -0.3485
 2771SOL     OW10815   5.828   2.487   0.401  0.6493  0.4862  0.3276
 2771SOL    HW210816   5.864   2.398   0.403  1.1553  0.6269 -0.9068
 2771SOL    HW310817   5.734   2.476   0.415  0.5656 -0.3568 -0.7327
 2771SOL    MW410818   5.821   2.474   0.403  0.9321 -0.3202 -0.5318
 2772SOL     OW10819   1.118   2.988   3.756  0.9395  0.3099  0.0561
 2772SOL    HW210820   1.184   2.964   3.690 -0.5674 -3.4703 -0.3281
 2772SOL    HW310821   1.147   2.944   3.836 -0.4795 -0.4762  0.1684
 2772SOL    MW410822   1.131   2.979   3.758  0.1627  0.2634 -0.0438
 2773SOL     OW10823   6.412   3.721   4.724 -0.6698  0.2813  0.1667
 2773SOL    HW210824   6.333   3.761   4.761 -1.9850 -1.7761 -0.2479
 2773SOL    HW310825   6.483   3.778   4.752 -2.3497  2.6005 -0.0147
 2773SOL    MW410826   6.411   3.734   4.733  0.1822 -0.3585  0.0585
 2774SOL     OW10827   0.427   2.349   6.044 -0.0361 -0.6075  0.2942
 2774SOL    HW210828   0.424   2.317   6.134 -0.5557 -2.8646 -0.4585
 2774SOL    HW310829   0.517   2.380   6.033  0.3060 -1.1838  1.3098
 2774SOL    MW410830   0.438   2.349   6.055 -0.6522 -0.4119 -0.0782
 2775SOL     OW10831   6.162   0.983   1.800  0.3068 -0.2964 -0.4390
 2775SOL    HW210832   6.134   1.068   1.832 -5.6897 -2.0451  0.3257
 2775SOL    HW310833   6.150   0.988   1.705 -0.7150 -0.3599 -0.3299
 2775SOL    MW410834   6.157   0.995   1.791 -0.8451 -0.3196 -0.3778
 2776SOL     OW10835   4.251   5.475   1.239  0.0593 -0.3925 -0.2060
 2776SOL    HW210836   4.221   5.557   1.278 -1.6136  0.0687 -2.3108
 2776SOL    HW310837   4.330   5.453   1.289  0.7890  2.6721  0.2082
 2776SOL    MW410838   4.258   5.483   1.251 -0.0869 -0.1982 -0.2831
 2777SOL     OW10839   3.292   4.583   3.278 -0.3715 -0.6458 -0.2335
 2777SOL    HW210840   3.285   4.525   3.202 -0.6868 -1.0881  0.1284
 2777SOL    HW310841   3.227   4.549   3.340 -1.1517  0.5994 -0.3396
 2777SOL    MW410842   3.282   4.571   3.276  0.2784 -0.5642  0.3688
 2778SOL     OW10843   4.989   0.903   5.336 -0.4896 -0.1269  0.1727
 2778SOL    HW210844   5.066   0.953   5.363 -0.4574 -0.6839  1.1864
 2778SOL    HW310845   4.915   0.962   5.348 -0.2638  0.3108 -0.5179
 2778SOL    MW410846   4.990   0.917   5.341 -0.2078 -0.4174  0.1349
 2779SOL     OW10847   3.161   4.713   5.397  0.2683 -0.4107  0.4622
 2779SOL    HW210848   3.165   4.622   5.427  0.8075 -0.3041  0.7236
 2779SOL    HW310849   3.103   4.756   5.459  0.7654 -0.3672  0.9074
 2779SOL    MW410850   3.154   4.707   5.409 -0.0387  0.4876  0.3915
 2780SOL     OW10851   1.975   1.458   4.013  0.0617  0.4600  0.4296
 2780SOL    HW210852   1.982   1.545   3.972  3.0984 -0.4196 -1.2536
 2780SOL    HW310853   1.944   1.476   4.102 -0.4172  3.1432 -0.1912
 2780SOL    MW410854   1.972   1.472   4.019  0.3265  0.5055 -0.0492
 2781SOL     OW10855   1.022   0.017   4.622  0.1320  0.2252  0.0869
 2781SOL    HW210856   0.981   0.089   4.573  0.1543 -0.2162 -0.5949
 2781SOL    HW310857   1.080  -0.025   4.559  2.6461  1.6004  1.3658
 2781SOL    MW410858   1.024   0.021   4.607  0.5532  0.7462  0.2589
 2782SOL     OW10859   2.908   5.102   5.441  0.4307 -0.1447  0.2939
 2782SOL    HW210860   2.898   5.192   5.474  0.8002  0.3024 -0.7893
 2782SOL    HW310861   2.830   5.088   5.387 -0.4773 -1.0900  1.7766
 2782SOL    MW410862   2.896   5.112   5.439  0.5663 -0.2789  0.1030
 2783SOL     OW10863   5.957   2.871   0.647  0.1082 -0.4748  0.1417
 2783SOL    HW210864   5.865   2.845   0.640  0.0687  0.0914 -1.9072
 2783SOL    HW310865   6.001   2.823   0.577  0.7393  1.8116 -1.1348
 2783SOL    MW410866   5.951   2.861   0.637  0.0080  0.1521 -0.1239
 2784SOL     OW10867   3.591   0.054   3.825  0.1890  0.0464  0.0082
 2784SOL    HW210868   3.618   0.144   3.808  2.9660 -0.8869 -1.1690
 2784SOL    HW310869   3.561   0.021   3.741 -2.4873  0.2904  0.7867
 2784SOL    MW410870   3.591   0.062   3.812  0.1237  0.1466  0.7535
 2785SOL     OW10871   3.593   3.157   6.156  0.2512 -0.0742  0.3844
 2785SOL    HW210872   3.526   3.163   6.224 -0.0432  1.6135 -0.0171
 2785SOL    HW310873   3.543   3.143   6.075  0.3847  0.8987  0.1245
 2785SOL    MW410874   3.578   3.156   6.154 -0.5260 -0.0896 -0.1237
 2786SOL     OW10875   0.184   1.119   5.046  0.8942 -0.4668 -0.0692
 2786SOL    HW210876   0.220   1.204   5.070  0.8385 -0.9367  1.7791
 2786SOL    HW310877   0.261   1.067   5.021  1.2899 -0.7184  1.5377
 2786SOL    MW410878   0.199   1.123   5.046 -0.0803  0.1736  0.3334
 2787SOL     OW10879   3.287   4.875   2.563 -0.3131 -0.3016  0.4041
 2787SOL    HW210880   3.363   4.932   2.569 -1.2005  0.8165  1.7945
 2787SOL    HW310881   3.222   4.916   2.621 -2.3513 -0.6218 -1.5163
 2787SOL    MW410882   3.288   4.888   2.572  0.2196  0.4561 -0.1126
 2788SOL     OW10883   3.086   0.740   2.239 -0.4737  0.4869 -0.5621
 2788SOL    HW210884   3.123   0.666   2.288 -0.3864  1.4659  0.9004
 2788SOL    HW310885   2.995   0.743   2.267 -0.6436  0.5347 -1.1206
 2788SOL    MW410886   3.079   0.731   2.249  0.4531 -0.0246 -0.3624
 2789SOL     OW10887   3.080   0.692   4.622  0.3820  0.2714  0.4233
 2789SOL    HW210888   3.043   0.605   4.606  0.4587  0.1835  0.7220
 2789SOL    HW310889   3.133   0.681   4.701  0.2423  0.6347  0.5682
 2789SOL    MW410890   3.082   0.679   4.630  0.1018 -0.0816  0.3738
 2790SOL     OW10891   1.532   3.717   1.101  0.1041  0.1555 -0.5327
 2790SOL    HW210892   1.469   3.646   1.116  0.3880 -0.2078 -1.0057
 2790SOL    HW310893   1.516   3.779   1.172 -0.9517  0.1907 -0.7808
 2790SOL    MW410894   1.521   3.715   1.112 -0.8240  0.7014  0.0643
 2791SOL     OW10895   5.457   2.508   4.914 -0.2349 -0.8334 -0.1517
 2791SOL    HW210896   5.518   2.483   4.984  1.4998  1.5090 -0.7072
 2791SOL    HW310897   5.508   2.567   4.858 -1.9428 -1.6855 -2.7542
 2791SOL    MW410898   5.472   2.512   4.916 -0.5609 -0.2335  0.1374
 2792SOL     OW10899   6.353   4.277   3.709 -0.6396  0.1502  0.4919
 2792SOL    HW210900   6.425   4.331   3.678 -1.5075  1.1422  0.1153
 2792SOL    HW310901   6.378   4.250   3.797 -0.5053  1.8065  0.9907
 2792SOL    MW410902   6.365   4.280   3.716 -0.1664  0.3566 -0.5956
 2793SOL     OW10903   4.293   2.689   1.747  0.4277 -0.0098 -0.4888
 2793SOL    HW210904   4.354   2.617   1.761 -1.1183 -1.3935 -0.6336
 2793SOL    HW310905   4.265   2.715   1.834  0.2294 -0.2532 -0.4804
 2793SOL    MW410906   4.298   2.683   1.760 -0.3751  0.5457  0.0014
 2794SOL     OW10907   3.929   4.507   0.611  0.1184  0.0183 -0.4588
 2794SOL    HW210908   3.859   4.568   0.638  0.3538  0.3195 -0.5185
 2794SOL    HW310909   3.948   4.457   0.691 -0.1580 -0.0578 -0.4390
 2794SOL    MW410910   3.922   4.509   0.625  0.0850  0.6065 -0.1672
 2795SOL     OW10911   4.274   3.858   5.304  0.1646  0.2778 -0.4852
 2795SOL    HW210912   4.352   3.886   5.256  0.2207 -0.3867 -0.7886
 2795SOL    HW310913   4.220   3.815   5.239  0.1522 -0.4547 -0.0027
 2795SOL    MW410914   4.277   3.856   5.289 -0.3242 -0.1169  0.0276
 2796SOL     OW10915   2.861   2.844   1.651  0.0300 -0.6808 -0.1804
 2796SOL    HW210916   2.834   2.906   1.583  2.3485 -1.2429 -1.7308
 2796SOL    HW310917   2.951   2.870   1.672  0.2697 -2.1771  0.7779
 2796SOL    MW410918   2.870   2.856   1.645 -0.3618  0.5080  0.2997
 2797SOL     OW10919   3.287   1.823   4.901 -0.4416  0.4040 -0.2936
 2797SOL    HW210920   3.242   1.754   4.948 -2.1782  1.1511 -0.7758
 2797SOL    HW310921   3.333   1.873   4.969 -2.7363  1.3519  0.6631
 2797SOL    MW410922   3.287   1.821   4.916  0.4839 -0.2572 -0.1967
 2798SOL     OW10923   5.001   4.329   1.794 -0.5913  0.3007  0.1379
 2798SOL    HW210924   5.019   4.235   1.796  0.4358  0.4590 -0.7738
 2798SOL    HW310925   4.955   4.342   1.710 -0.7393  0.6151  0.2675
 2798SOL    MW410926   4.997   4.318   1.783  0.0701 -0.0198 -0.4825
 2799SOL     OW10927   1.407   4.519   4.732 -0.2435 -0.0900 -0.4756
 2799SOL    HW210928   1.322   4.476   4.742  0.0664 -0.5785  0.1354
 2799SOL    HW310929   1.453   4.468   4.666 -0.5735  0.4221 -1.1118
 2799SOL    MW410930   1.402   4.507   4.725  0.4726  0.4926  0.1762
 2800SOL     OW10931   0.856   0.285   3.624  0.0032 -0.1133  0.0146
 2800SOL    HW210932   0.828   0.372   3.595  0.9831 -0.1882 -1.2884
 2800SOL    HW310933   0.843   0.286   3.718  2.4906  2.4700  0.5088
 2800SOL    MW410934   0.851   0.297   3.632 -0.4861 -0.0202  0.0386
 2801SOL     OW10935   1.469   4.438   5.911  0.4543 -0.4774 -0.2526
 2801SOL    HW210936   1.442   4.488   5.834  0.2476 -0.7734 -0.3778
 2801SOL    HW310937   1.388   4.418   5.957  0.5276 -0.7501 -0.2396
 2801SOL    MW410938   1.455   4.442   5.907 -0.1611  0.4706  0.0947
 2802SOL     OW10939   2.628   5.532   3.069 -0.5637  0.7414 -0.1117
 2802SOL    HW210940   2.680   5.591   3.014  1.0620 -0.8511 -0.3961
 2802SOL    HW310941   2.577   5.480   3.006 -2.6738  2.3472  0.1667
 2802SOL    MW410942   2.628   5.533   3.053  0.0707  0.0006  0.4827
 2803SOL     OW10943   5.153   5.881   5.568  0.1424 -0.7502 -0.0528
 2803SOL    HW210944   5.174   5.806   5.512  0.9057  0.2906 -1.2434
 2803SOL    HW310945   5.073   5.917   5.530 -0.1670 -0.8970  0.4531
 2803SOL    MW410946   5.145   5.876   5.555  0.1487  0.6877  0.4115
 2804SOL     OW10947   6.024   0.198   0.810 -0.6396  0.2388  0.0250
 2804SOL    HW210948   6.095   0.156   0.761 -0.7852 -0.1264  0.1240
 2804SOL    HW310949   5.972   0.243   0.744 -1.2354 -0.8262 -0.2472
 2804SOL    MW410950   6.027   0.198   0.795 -0.3598  0.4437  0.4111
 2805SOL     OW10951   2.417   5.084   2.149 -0.2931 -0.5491  0.2339
 2805SOL    HW210952   2.420   5.171   2.109 -2.5643 -0.8333 -0.7157
 2805SOL    HW310953   2.391   5.100   2.240 -0.2483 -0.2128  0.1869
 2805SOL    MW410954   2.414   5.098   2.156  0.4894 -0.1899  0.9647
 2806SOL     OW10955   3.103   1.323   5.645 -0.7845 -0.5640  0.2314
 2806SOL    HW210956   3.029   1.370   5.684 -1.0967 -0.0343 -0.9592
 2806SOL    HW310957   3.102   1.238   5.688 -1.8995 -0.4543  0.4558
 2806SOL    MW410958   3.093   1.318   5.656 -0.0806  0.6148 -0.4195
 2807SOL     OW10959   0.802   3.776   0.328  0.0854 -0.2294 -0.3487
 2807SOL    HW210960   0.880   3.726   0.352  0.0797  0.5158  1.3428
 2807SOL    HW310961   0.739   3.709   0.300 -0.0265 -1.2783  2.1410
 2807SOL    MW410962   0.804   3.760   0.328  0.9383  0.1626 -0.2041
 2808SOL     OW10963   4.435   3.825   4.618  0.2912 -0.5329 -0.0888
 2808SOL    HW210964   4.419   3.842   4.525  1.4348 -1.1868 -0.4179
 2808SOL    HW310965   4.372   3.882   4.663 -0.3387 -0.2669 -1.2511
 2808SOL    MW410966   4.424   3.835   4.612  0.1450 -0.3588 -0.0151
 2809SOL     OW10967   0.477   6.150   2.344  0.6283 -0.0948  0.1246
 2809SOL    HW210968   0.544   6.157   2.411  0.1556 -0.5952  0.6576
 2809SOL    HW310969   0.485   6.061   2.310 -0.2379 -0.4060  0.7062
 2809SOL    MW410970   0.487   6.139   2.348 -0.7422  0.3906  0.1504
 2810SOL     OW10971   4.805   0.416   2.149 -0.3342  0.2541  0.1359
 2810SOL    HW210972   4.899   0.428   2.132 -0.2388  0.9008  1.0089
 2810SOL    HW310973   4.792   0.456   2.235 -1.3314 -0.2316  0.2205
 2810SOL    MW410974   4.816   0.423   2.158  0.5167  0.1857 -0.3035
 2811SOL     OW10975   5.115   5.287   0.242 -0.3419 -0.3467  0.6279
 2811SOL    HW210976   5.202   5.245   0.238 -0.5413 -0.8938  1.7089
 2811SOL    HW310977   5.074   5.249   0.319 -1.2021  0.5977  0.6511
 2811SOL    MW410978   5.121   5.276   0.251  0.4474  0.2097 -0.1042
 2812SOL     OW10979   0.796   2.997   5.663  0.1571 -0.0436 -0.4166
 2812SOL    HW210980   0.721   3.016   5.720 -0.2057 -1.9006 -0.1904
 2812SOL    HW310981   0.756   2.980   5.577  0.4798  0.4471 -0.6664
 2812SOL    MW410982   0.781   2.997   5.659  0.4382 -0.0605  0.2704
 2813SOL     OW10983   0.803   0.247   0.319 -0.0140  0.2492 -0.2043
 2813SOL    HW210984   0.793   0.334   0.359 -0.8227 -0.3653  0.9775
 2813SOL    HW310985   0.715   0.223   0.293  0.3694  0.2396 -1.5879
 2813SOL    MW410986   0.790   0.256   0.321  0.2531  0.4692  0.3122
 2814SOL     OW10987   5.856   6.435   2.993  0.7378  0.4980 -0.1682
 2814SOL    HW210988   5.823   6.406   3.078  1.0867 -1.9678 -0.7924
 2814SOL    HW310989   5.815   6.520   2.979 -0.5315  0.2621  1.7697
 2814SOL    MW410990   5.846   6.443   3.002 -0.2482 -0.1809  0.4964
 2815SOL     OW10991   2.491   5.840   2.627 -0.4645 -0.0301 -0.2164
 2815SOL    HW210992   2.414   5.796   2.589 -1.2063 -0.1216  1.3070
 2815SOL    HW310993   2.486   5.820   2.720  1.4111  0.0137 -0.0746
 2815SOL    MW410994   2.480   5.832   2.634  0.1890 -0.3355 -0.0705
 2816SOL     OW10995   3.028   3.068   6.148 -0.3520  0.4789  0.1059
 2816SOL    HW210996   3.027   3.158   6.183 -3.2356  0.5874 -0.0104
 2816SOL    HW310997   3.080   3.019   6.211  1.1719  2.1696  0.2590
 2816SOL    MW410998   3.035   3.074   6.161 -0.3577  0.0131 -0.5220
 2817SOL     OW10999   1.713   4.186   1.863  0.5150  0.0798 -0.1429
 2817SOL    HW211000   1.700   4.135   1.783 -0.3516 -0.0585  0.0818
 2817SOL    HW311001   1.808   4.193   1.872  0.6208 -0.3849 -0.8774
 2817SOL    MW411002   1.724   4.180   1.854  0.3177  0.2554  0.1289
 2818SOL     OW11003   3.949   0.292   6.080  0.2948  0.0891  0.1444
 2818SOL    HW211004   3.963   0.200   6.102 -1.1089  0.0618  1.0770
 2818SOL    HW311005   4.033   0.321   6.044  1.3648 -1.0571  1.5768
 2818SOL    MW411006   3.962   0.284   6.078 -0.2247 -0.2056  0.0644
 2819SOL     OW11007   2.737   3.417   5.212 -0.0655  0.4284 -0.7067
 2819SOL    HW211008   2.784   3.490   5.173  1.3626 -0.7132 -1.2190
 2819SOL    HW311009   2.772   3.411   5.301 -0.3905  0.5406 -0.5694
 2819SOL    MW411010   2.748   3.426   5.219 -0.1065  0.4036  0.1924
 2820SOL     OW11011   6.101   0.440   2.401  0.0627 -0.4988 -0.3048
 2820SOL    HW211012   6.052   0.372   2.447  1.0458 -0.0524  1.4999
 2820SOL    HW311013   6.078   0.521   2.445  0.2956  0.1000 -1.2487
 2820SOL    MW411014   6.092   0.442   2.413  0.1786  0.3310  0.4883
 2821SOL     OW11015   5.164   1.052   6.021  0.2102 -0.7179 -0.1411
 2821SOL    HW211016   5.111   1.047   6.101  0.1143 -2.4159 -0.2877
 2821SOL    HW311017   5.114   1.004   5.955  0.9233 -0.4855 -0.8684
 2821SOL    MW411018   5.151   1.045   6.023 -0.2465  0.3770  0.4117
 2822SOL     OW11019   4.666   5.508   2.759  0.2829  0.5434 -0.2264
 2822SOL    HW211020   4.707   5.572   2.701  1.4005 -0.7761 -0.9371
 2822SOL    HW311021   4.738   5.470   2.808 -0.6590  2.0537  2.5938
 2822SOL    MW411022   4.681   5.512   2.758  0.1966  0.0307 -0.0647
 2823SOL     OW11023   1.084   0.624   0.315  0.2101 -0.4592 -0.2768
 2823SOL    HW211024   1.059   0.576   0.394 -1.5937 -1.3927 -1.3631
 2823SOL    HW311025   1.103   0.557   0.250 -2.1263  0.1912 -1.7538
 2823SOL    MW411026   1.083   0.609   0.317  0.6563 -0.4172 -0.3423
 2824SOL     OW11027   3.859   5.676   0.184  0.1023  0.0901  0.1096
 2824SOL    HW211028   3.783   5.654   0.131 -0.6154 -3.9435  2.3990
 2824SOL    HW311029   3.930   5.622   0.148  0.9489  1.0379  0.2894
 2824SOL    MW411030   3.859   5.666   0.172  1.0404  0.3676 -0.1156
 2825SOL     OW11031   1.445   1.170   3.804 -0.4525  0.5684  0.0574
 2825SOL    HW211032   1.418   1.183   3.895 -0.7546 -0.5196  0.1365
 2825SOL    HW311033   1.368   1.134   3.760  0.4059 -1.3029 -0.0214
 2825SOL    MW411034   1.432   1.167   3.810  1.0032 -0.8436  0.6911
 2826SOL     OW11035   2.036   0.815   0.329 -0.2952 -0.0190 -0.5176
 2826SOL    HW211036   2.068   0.901   0.305  1.0230 -0.1881  0.5274
 2826SOL    HW311037   1.942   0.819   0.313 -0.8067  2.6196  2.2027
 2826SOL    MW411038   2.028   0.827   0.324 -0.7830  0.1333 -0.0157
 2827SOL     OW11039   3.134   2.778   0.117 -0.2821 -0.6896 -0.1478
 2827SOL    HW211040   3.174   2.810   0.036  1.8224  0.7300  1.3655
 2827SOL    HW311041   3.150   2.684   0.116  1.0500 -0.4755 -0.7043
 2827SOL    MW411042   3.142   2.770   0.106  0.2100 -0.2613 -0.2838
 2828SOL     OW11043   4.451   0.122   3.618 -0.7887 -0.0745  0.2183
 2828SOL    HW211044   4.525   0.063   3.608 -0.9749 -0.9185  2.9755
 2828SOL    HW311045   4.487   0.209   3.602  0.3408 -0.6220 -0.3077
 2828SOL    MW411046   4.465   0.126   3.615 -0.1248 -0.0605 -0.4269
 2829SOL     OW11047   1.898   1.335   0.271  0.0749  0.5132  0.1981
 2829SOL    HW211048   1.944   1.296   0.197 -0.8682 -0.1543 -0.0570
 2829SOL    HW311049   1.966   1.383   0.319  1.1561 -0.9623  0.2055
 2829SOL    MW411050   1.913   1.336   0.267  1.0853  0.4068  0.5957
 2830SOL     OW11051   5.563   0.808   2.679 -0.2334 -0.1349 -0.0072
 2830SOL    HW211052   5.555   0.862   2.757 -0.0700  0.8044 -0.6139
 2830SOL    HW311053   5.551   0.718   2.709  0.7007  0.1297  1.2338
 2830SOL    MW411054   5.561   0.803   2.693  0.3476  0.0615  0.2387
 2831SOL     OW11055   2.597   0.302   6.274  0.0195  0.2161 -0.0563
 2831SOL    HW211056   2.515   0.293   6.321  0.0314 -1.4799 -0.3149
 2831SOL    HW311057   2.596   0.232   6.209  1.9352 -0.2621  0.3524
 2831SOL    MW411058   2.586   0.292   6.271 -0.0749  0.2164  0.7057
 2832SOL     OW11059   4.172   5.387   0.274 -0.1226  0.2367  1.2817
 2832SOL    HW211060   4.120   5.307   0.266 -0.7376  0.7035  0.5122
 2832SOL    HW311061   4.259   5.362   0.241 -0.4758  0.0370  0.4738
 2832SOL    MW411062   4.177   5.373   0.269  0.4908 -0.3015 -0.4630
 2833SOL     OW11063   3.499   2.007   1.796 -0.4596 -0.1367  0.3986
 2833SOL    HW211064   3.497   1.913   1.779 -2.6656 -0.4173  1.7752
 2833SOL    HW311065   3.591   2.031   1.788 -0.1402 -1.9160 -2.3130
 2833SOL    MW411066   3.511   1.998   1.793 -0.5671 -0.1821  0.4417
 2834SOL     OW11067   4.919   0.610   6.169 -0.7738 -0.1883 -0.1913
 2834SOL    HW211068   4.918   0.586   6.076 -1.7649 -2.5768  0.3539
 2834SOL    HW311069   5.011   0.605   6.193 -0.5598 -0.0142 -0.9358
 2834SOL    MW411070   4.931   0.606   6.160 -0.9624  0.2720 -0.6047
 2835SOL     OW11071   5.820   2.692   2.662 -1.0231  0.4969  0.2673
 2835SOL    HW211072   5.844   2.602   2.638 -1.2818  0.2524  0.9080
 2835SOL    HW311073   5.802   2.734   2.578 -1.4679 -0.2218 -0.0168
 2835SOL    MW411074   5.821   2.685   2.647 -0.3229 -0.7403  0.7513
 2836SOL     OW11075   5.325   4.077   3.421  0.4904  0.3559 -0.2593
 2836SOL    HW211076   5.413   4.053   3.452  0.9704  0.5027 -1.4521
 2836SOL    HW311077   5.280   4.108   3.500  0.4114 -2.6621  1.0340
 2836SOL    MW411078   5.331   4.078   3.436 -0.7418 -0.5826  0.8907
 2837SOL     OW11079   0.512   5.158   2.544  0.0778  0.0048 -0.6968
 2837SOL    HW211080   0.466   5.239   2.524  1.1861  0.4138 -1.6951
 2837SOL    HW311081   0.541   5.124   2.459  0.1051 -1.1554 -0.2516
 2837SOL    MW411082   0.510   5.164   2.530 -0.0966 -0.4731 -1.2118
 2838SOL     OW11083   2.023   5.194   0.885 -0.3120  0.1988  0.1266
 2838SOL    HW211084   2.042   5.220   0.795  1.3196 -0.1839  0.3310
 2838SOL    HW311085   2.044   5.272   0.937  0.9639 -0.2809  0.3709
 2838SOL    MW411086   2.028   5.208   0.880  0.1651 -0.5593  0.4600
 2839SOL     OW11087   5.852   0.842   2.617 -0.2469  0.0760 -0.1463
 2839SOL    HW211088   5.856   0.859   2.523 -1.0601  0.1927 -0.1707
 2839SOL    HW311089   5.758   0.839   2.637 -0.0849  0.3938  0.7230
 2839SOL    MW411090   5.840   0.844   2.607 -0.2202 -0.0482  0.0601
 2840SOL     OW11091   3.615   2.960   2.435  0.3960 -0.7112 -0.7889
 2840SOL    HW211092   3.529   2.982   2.399  0.4786 -2.3631 -2.0979
 2840SOL    HW311093   3.660   3.045   2.441 -0.5324 -0.0750 -2.2066
 2840SOL    MW411094   3.610   2.974   2.431  1.0154 -0.2709 -0.4070
 2841SOL     OW11095   2.727   6.187   2.832 -0.3476 -0.4342  0.4873
 2841SOL    HW211096   2.751   6.211   2.743 -0.3827 -0.1551  0.5518
 2841SOL    HW311097   2.802   6.136   2.864  1.2674  2.3399  1.4778
 2841SOL    MW411098   2.740   6.184   2.825 -0.2895 -0.0270  0.4029
 2842SOL     OW11099   5.649   1.912   0.881  0.1685  0.1929  0.1674
 2842SOL    HW211100   5.580   1.966   0.842  0.4074  0.8803  0.6633
 2842SOL    HW311101   5.688   1.968   0.948  0.5173 -0.5596  0.6084
 2842SOL    MW411102   5.645   1.927   0.885 -0.9187  0.2008 -0.7127
 2843SOL     OW11103   2.790   1.041   3.392 -0.5704  0.4533  0.3794
 2843SOL    HW211104   2.867   0.991   3.364 -0.5322 -0.3169  1.7674
 2843SOL    HW311105   2.799   1.126   3.349  0.0995 -0.2446 -0.9184
 2843SOL    MW411106   2.801   1.045   3.382 -0.1844 -0.0201  0.9125
 2844SOL     OW11107   4.305   3.024   4.250 -0.7861 -0.1285 -0.1949
 2844SOL    HW211108   4.250   2.958   4.292 -0.3503 -0.3423  0.0518
 2844SOL    HW311109   4.324   3.087   4.320 -1.4787  0.4478 -0.5128
 2844SOL    MW411110   4.301   3.024   4.265 -0.2149 -0.6325 -0.3859
 2845SOL     OW11111   1.383   2.787   1.630 -0.1485  0.1824 -0.2724
 2845SOL    HW211112   1.332   2.752   1.557 -0.3935 -0.3037  0.1324
 2845SOL    HW311113   1.374   2.723   1.700  1.8621 -0.4524 -0.5202
 2845SOL    MW411114   1.375   2.774   1.629  0.5395 -0.1583 -0.0781
 2846SOL     OW11115   3.516   4.496   1.958  0.3535 -0.0855 -0.2131
 2846SOL    HW211116   3.464   4.451   1.891 -0.2457  0.0885  0.1330
 2846SOL    HW311117   3.579   4.548   1.908 -0.6089  0.6683 -0.6590
 2846SOL    MW411118   3.518   4.497   1.942 -0.0180  0.4420 -0.0322
 2847SOL     OW11119   0.961   0.168   2.564  0.4562  0.6115  0.0172
 2847SOL    HW211120   0.947   0.139   2.654 -0.5532 -0.8008 -0.5584
 2847SOL    HW311121   1.055   0.154   2.549  0.3859 -0.4092  0.4418
 2847SOL    MW411122   0.972   0.162   2.574 -0.1489  0.2700  0.3155
 2848SOL     OW11123   0.355   3.449   4.819 -0.0657  0.3375  0.0978
 2848SOL    HW211124   0.261   3.430   4.820 -0.0895  0.4126  1.2981
 2848SOL    HW311125   0.378   3.450   4.727 -1.3375  0.7595 -0.2491
 2848SOL    MW411126   0.345   3.447   4.807  0.0675  0.1105 -0.1411
 2849SOL     OW11127   1.157   5.117   3.825  0.3809 -0.2147  0.4151
 2849SOL    HW211128   1.116   5.203   3.827  0.5872 -0.0858 -0.3843
 2849SOL    HW311129   1.107   5.068   3.759 -0.3713 -1.0462  1.5676
 2849SOL    MW411130   1.145   5.122   3.816 -0.1884 -0.6779  0.2074
 2850SOL     OW11131   4.285   3.877   6.351 -0.6372  0.4081 -0.6634
 2850SOL    HW211132   4.310   3.906   6.264  1.1545 -3.4804 -1.6636
 2850SOL    HW311133   4.218   3.810   6.336  0.3827 -1.0130  0.7952
 2850SOL    MW411134   4.279   3.872   6.338 -0.0387 -0.4126 -0.4284
 2851SOL     OW11135   6.164   5.243   4.585 -0.5929  0.2598 -0.0119
 2851SOL    HW211136   6.138   5.321   4.633 -1.2952  0.2479 -0.3555
 2851SOL    HW311137   6.243   5.213   4.629 -1.2876  0.1681  1.2191
 2851SOL    MW411138   6.171   5.249   4.597  0.1590 -0.0749 -0.5406
 2852SOL     OW11139   4.282   3.483   3.090  0.3440 -0.0187  0.5331
 2852SOL    HW211140   4.286   3.527   3.006 -2.0417 -1.5548 -0.5050
 2852SOL    HW311141   4.278   3.554   3.155  0.9642  1.1994 -0.7312
 2852SOL    MW411142   4.282   3.498   3.088  0.0103  0.1999  0.3614
 2853SOL     OW11143   0.792   1.955   4.326  0.7237  0.1211  0.2800
 2853SOL    HW211144   0.812   1.896   4.254 -0.5888 -0.5775  0.4547
 2853SOL    HW311145   0.757   1.899   4.395 -0.6304  1.0755  0.4238
 2853SOL    MW411146   0.790   1.940   4.325 -0.5224 -0.1557 -0.1300
 2854SOL     OW11147   6.218   0.332   5.012 -0.6113  0.0556  0.3264
 2854SOL    HW211148   6.216   0.238   4.995  1.8561 -0.0229  0.2115
 2854SOL    HW311149   6.129   0.352   5.041 -1.0532 -2.4187  0.9633
 2854SOL    MW411150   6.206   0.322   5.014 -0.2450  0.2050 -0.2589
 2855SOL     OW11151   2.978   0.711   1.971 -0.1126 -0.0820 -0.1162
 2855SOL    HW211152   2.890   0.679   1.995  0.3388 -1.8207 -0.6778
 2855SOL    HW311153   3.021   0.727   2.055 -0.5499 -0.4166  0.1754
 2855SOL    MW411154   2.972   0.709   1.985 -0.7656  0.5176 -0.3870
 2856SOL     OW11155   3.340   2.479   4.737  0.2114 -0.3328 -0.5104
 2856SOL    HW211156   3.352   2.507   4.646  1.2480 -0.6158 -0.4764
 2856SOL    HW311157   3.357   2.559   4.788 -0.9470 -0.0285 -0.5746
 2856SOL    MW411158   3.344   2.494   4.732  0.4563 -0.1561  0.8199
 2857SOL     OW11159   3.634   0.168   0.005  0.1013 -0.1815 -0.1664
 2857SOL    HW211160   3.604   0.235  -0.057  2.2539  0.1173 -0.9713
 2857SOL    HW311161   3.627   0.210   0.091 -0.7182  0.2341 -0.4238
 2857SOL    MW411162   3.629   0.182   0.008  0.7942 -0.5871  0.0619
 2858SOL     OW11163   4.014   1.571   4.976  0.4932 -0.3848  0.3752
 2858SOL    HW211164   4.030   1.666   4.977  1.5760 -0.5581  0.7702
 2858SOL    HW311165   4.097   1.532   5.005  0.8997 -1.5651 -2.1113
 2858SOL    MW411166   4.027   1.578   4.980 -1.2030 -0.4521  0.5414
 2859SOL     OW11167   4.640   3.739   2.679 -0.0931 -0.2361  0.0198
 2859SOL    HW211168   4.629   3.760   2.772 -0.2397  0.2285 -0.0997
 2859SOL    HW311169   4.712   3.796   2.650  1.5616 -2.0472  0.3985
 2859SOL    MW411170   4.648   3.749   2.687  0.1332 -0.8731 -0.6211
 2860SOL     OW11171   3.993   5.604   3.714 -0.1351  0.0316 -0.1821
 2860SOL    HW211172   3.923   5.656   3.674 -0.1045  0.3026  0.1179
 2860SOL    HW311173   3.953   5.518   3.729  0.0426 -0.2844 -1.3947
 2860SOL    MW411174   3.979   5.599   3.711  0.6321  0.0354  0.5324
 2861SOL     OW11175   4.311   0.665   1.099  0.3145  0.3617  0.2446
 2861SOL    HW211176   4.220   0.682   1.075  1.1832  1.5080 -2.6515
 2861SOL    HW311177   4.358   0.744   1.073  2.4138 -0.9068 -0.0633
 2861SOL    MW411178   4.305   0.677   1.093  0.0061 -0.1884  0.3047
 2862SOL     OW11179   3.809   4.694   1.044  0.4637  0.2716 -0.4949
 2862SOL    HW211180   3.827   4.692   0.950  0.0782 -0.8232 -0.5654
 2862SOL    HW311181   3.717   4.719   1.050  0.1075 -0.9564 -0.4976
 2862SOL    MW411182   3.799   4.697   1.032 -0.9088  0.0504 -0.3383
 2863SOL     OW11183   3.577   0.819   0.982 -1.0552 -0.0285  0.2325
 2863SOL    HW211184   3.503   0.880   0.986 -0.1223  1.4506 -2.5047
 2863SOL    HW311185   3.556   0.761   0.908  0.8539  0.9851 -1.1815
 2863SOL    MW411186   3.564   0.819   0.972  0.2446  0.0717 -0.0926
 2864SOL     OW11187   3.103   2.447   2.838 -0.0182  0.5236  0.3339
 2864SOL    HW211188   3.062   2.460   2.924  0.9680  0.8525  0.7657
 2864SOL    HW311189   3.049   2.500   2.778 -1.2554 -0.4267  0.5734
 2864SOL    MW411190   3.090   2.456   2.841  0.0495  0.9338 -0.0448
 2865SOL     OW11191   2.605   4.190   5.536  0.4133  0.3714 -0.0226
 2865SOL    HW211192   2.545   4.263   5.521  1.0952  1.0512  0.4752
 2865SOL    HW311193   2.584   4.159   5.623  0.4369  0.2790 -0.0495
 2865SOL    MW411194   2.595   4.196   5.545  0.6175 -0.3444 -0.1083
 2866SOL     OW11195   2.919   1.653   3.513 -0.1634  0.3860 -0.5416
 2866SOL    HW211196   2.870   1.735   3.515 -0.0644  0.4287  0.0918
 2866SOL    HW311197   2.883   1.605   3.438 -1.1999  0.3922 -0.0517
 2866SOL    MW411198   2.908   1.657   3.503  0.4839  0.6735  0.3023
 2867SOL     OW11199   4.918   4.962   0.183  0.2518  0.1960 -0.5058
 2867SOL    HW211200   4.852   4.944   0.116 -1.1338  0.8945  0.6135
 2867SOL    HW311201   4.979   5.023   0.141  0.3868 -0.7130 -1.6664
 2867SOL    MW411202   4.917   4.968   0.169  0.7445 -0.2032 -0.0073
 2868SOL     OW11203   1.073   5.017   5.082  0.3438  0.1563 -0.0974
 2868SOL    HW211204   1.149   5.029   5.024  1.5745 -1.1638  1.1612
 2868SOL    HW311205   1.096   5.062   5.163 -1.4479  2.1530 -0.6192
 2868SOL    MW411206   1.086   5.024   5.085 -0.2122 -0.2068 -0.1570
 2869SOL     OW11207   2.532   6.306   3.305 -0.0010 -0.3016  0.4662
 2869SOL    HW211208   2.457   6.360   3.333 -1.0935 -1.0636 -0.8915
 2869SOL    HW311209   2.603   6.369   3.293 -0.1721  0.3629  2.4452
 2869SOL    MW411210   2.531   6.321   3.307  0.1519 -0.2123 -0.1848
 2870SOL     OW11211   5.445   5.963   1.946  0.0182  0.1632 -0.1341
 2870SOL    HW211212   5.521   5.999   1.992  0.0614 -1.5202  1.1994
 2870SOL    HW311213   5.429   6.025   1.874  1.2564  1.7329  0.8801
 2870SOL    MW411214   5.453   5.976   1.942  0.1961 -0.2382 -0.4034
 2871SOL     OW11215   3.591   0.028   1.688 -0.8480 -0.5549  0.1126
 2871SOL    HW211216   3.627   0.111   1.657 -1.8101  0.0347  0.5306
 2871SOL    HW311217   3.572  -0.022   1.609  2.7975 -1.7889 -0.1416
 2871SOL    MW411218   3.593   0.032   1.674 -0.6136  0.3009  0.4101
 2872SOL     OW11219   6.187   5.316   5.437  0.0223  0.1795 -0.0098
 2872SOL    HW211220   6.217   5.226   5.447  1.3823  0.6258  0.1167
 2872SOL    HW311221   6.264   5.364   5.408 -0.2949  1.5729  1.3211
 2872SOL    MW411222   6.201   5.310   5.435 -0.0291 -0.4677 -0.1889
 2873SOL     OW11223   4.227   6.248   5.390 -0.7153  0.1903  0.7255
 2873SOL    HW211224   4.307   6.297   5.369 -0.0201 -1.1379  0.1086
 2873SOL    HW311225   4.186   6.298   5.460 -0.2340  1.8271 -0.1034
 2873SOL    MW411226   4.232   6.261   5.396 -0.3126 -0.5593  0.4308
 2874SOL     OW11227   4.508   0.268   3.957  0.4055 -0.1221 -0.2472
 2874SOL    HW211228   4.446   0.196   3.966 -0.3694  0.5118 -0.3452
 2874SOL    HW311229   4.534   0.289   4.047 -0.5736  0.4806 -0.0842
 2874SOL    MW411230   4.503   0.261   3.970 -0.3647 -0.1280  0.1254
 2875SOL     OW11231   0.880   1.275   3.969 -0.0820  0.2187  0.4636
 2875SOL    HW211232   0.935   1.354   3.964  1.1740 -0.5974  0.8174
 2875SOL    HW311233   0.868   1.260   4.063 -0.8482  0.3264  0.3904
 2875SOL    MW411234   0.886   1.284   3.980 -0.1335  0.2137 -0.1275
 2876SOL     OW11235   1.488   1.607   0.604 -0.0686  0.5225  0.3235
 2876SOL    HW211236   1.535   1.686   0.577 -1.2240  1.3504  0.6578
 2876SOL    HW311237   1.434   1.635   0.678 -0.4656 -0.5991  0.4815
 2876SOL    MW411238   1.487   1.621   0.610  0.2023  0.4522 -0.7964
 2877SOL     OW11239   4.391   3.185   5.348  0.7737 -0.2945 -0.4670
 2877SOL    HW211240   4.441   3.156   5.425  1.9369  0.8164 -0.7663
 2877SOL    HW311241   4.440   3.260   5.315 -0.8777  0.5865 -1.0449
 2877SOL    MW411242   4.404   3.191   5.354  0.1535  0.1599  0.2782
 2878SOL     OW11243   4.477   2.559   3.365  0.0846 -0.0356  0.1194
 2878SOL    HW211244   4.535   2.541   3.439  0.4929 -2.0012 -0.5944
 2878SOL    HW311245   4.421   2.482   3.360  0.3221 -0.1237 -1.8227
 2878SOL    MW411246   4.477   2.546   3.374 -0.6759 -0.0700  0.0436
 2879SOL     OW11247   0.419   4.862   4.282  0.0506 -0.0669 -0.3319
 2879SOL    HW211248   0.443   4.887   4.371 -0.2517 -2.9021  0.6739
 2879SOL    HW311249   0.324   4.851   4.284 -0.0608  0.5732 -1.2460
 2879SOL    MW411250   0.410   4.864   4.294  0.2829  0.3053 -0.2227
 2880SOL     OW11251   0.753   1.050   4.983  0.4970  0.3631  0.4771
 2880SOL    HW211252   0.684   1.115   4.973 -0.9283 -1.1273  0.3402
 2880SOL    HW311253   0.717   0.986   5.044  0.0151 -2.6614 -2.6965
 2880SOL    MW411254   0.739   1.051   4.990 -0.0757 -0.0345  0.2889
 2881SOL     OW11255   6.204   0.665   0.944  0.5521 -0.2816 -0.1819
 2881SOL    HW211256   6.127   0.719   0.928 -0.8088 -2.4230 -1.3435
 2881SOL    HW311257   6.194   0.635   1.034  0.3275 -0.0929 -0.1440
 2881SOL    MW411258   6.193   0.668   0.954  0.0469  0.1796 -0.2529
 2882SOL     OW11259   3.170   1.587   2.084  0.2434 -0.2574 -0.2426
 2882SOL    HW211260   3.115   1.508   2.084  0.3927 -0.3701 -1.3291
 2882SOL    HW311261   3.235   1.570   2.152 -0.6901 -0.3742  0.6542
 2882SOL    MW411262   3.171   1.574   2.093  0.3964  0.2988  0.1828
 2883SOL     OW11263   4.978   3.646   0.656  0.1710  0.4616  0.7949
 2883SOL    HW211264   4.893   3.632   0.697  0.4538 -0.6991  1.0340
 2883SOL    HW311265   4.971   3.731   0.613 -1.3666  0.0392  0.1491
 2883SOL    MW411266   4.966   3.655   0.656 -0.3021  0.4083 -0.7629
 2884SOL     OW11267   5.969   5.259   1.615 -0.5945  0.1020  0.0694
 2884SOL    HW211268   6.022   5.338   1.608 -1.9545  1.2905  2.2271
 2884SOL    HW311269   6.012   5.206   1.682  0.7569 -1.4776 -1.9003
 2884SOL    MW411270   5.982   5.262   1.623 -0.3442 -0.0369  0.1088
 2885SOL     OW11271   2.563   0.389   5.560  0.2043 -0.3597 -0.4231
 2885SOL    HW211272   2.489   0.447   5.549  0.8807  0.2811 -1.7672
 2885SOL    HW311273   2.597   0.375   5.472  1.5549 -0.8069  0.1379
 2885SOL    MW411274   2.558   0.395   5.547  0.0276  0.0312  0.5587
 2886SOL     OW11275   4.482   4.356   1.733  0.1407 -0.3836  0.6437
 2886SOL    HW211276   4.412   4.362   1.799  0.6110 -2.8971  1.4710
 2886SOL    HW311277   4.450   4.291   1.670  1.2069 -0.6382  0.3498
 2886SOL    MW411278   4.469   4.348   1.733  0.9232 -0.0909  0.0754
 2887SOL     OW11279   5.366   1.893   2.212 -0.4284  0.0495  0.0185
 2887SOL    HW211280   5.316   1.837   2.152 -1.7250  1.3651 -0.1889
 2887SOL    HW311281   5.439   1.926   2.158 -0.2592 -0.5930 -0.1543
 2887SOL    MW411282   5.369   1.890   2.197  0.8702 -0.3865 -0.1962
 2888SOL     OW11283   4.966   4.236   3.779  1.0574  0.0896 -0.7110
 2888SOL    HW211284   5.021   4.159   3.796  1.1744  0.3134 -0.0163
 2888SOL    HW311285   4.898   4.204   3.719 -0.4937 -1.2849  1.5966
 2888SOL    MW411286   4.964   4.221   3.773  0.3592 -0.1663 -0.2949
 2889SOL     OW11287   2.760   3.147   6.040 -0.2036 -0.5363 -0.2061
 2889SOL    HW211288   2.831   3.202   6.073 -1.1672 -0.6049  2.2180
 2889SOL    HW311289   2.800   3.094   5.972  2.0535 -0.4519  0.9620
 2889SOL    MW411290   2.775   3.147   6.036 -0.1257 -0.0395  0.2849
 2890SOL     OW11291   4.301   6.149   4.522 -1.0892 -0.2576 -0.6043
 2890SOL    HW211292   4.296   6.059   4.552  0.9416  0.0891  1.0159
 2890SOL    HW311293   4.230   6.194   4.568 -1.0226 -0.7083 -0.0473
 2890SOL    MW411294   4.291   6.143   4.532 -0.0748 -0.4861 -0.2881
 2891SOL     OW11295   1.866   2.525   3.575  0.0135 -0.1967  0.5003
 2891SOL    HW211296   1.927   2.581   3.527  0.0612 -1.0281 -0.4297
 2891SOL    HW311297   1.909   2.510   3.659  0.5226  0.2268  0.3190
 2891SOL    MW411298   1.880   2.530   3.580  0.2493  0.6336 -0.1565
 2892SOL     OW11299   5.300   1.105   3.542 -0.6633  0.2518  0.0152
 2892SOL    HW211300   5.383   1.146   3.517  0.1521 -0.5705  1.2692
 2892SOL    HW311301   5.237   1.136   3.476  0.5295  1.2400 -0.7023
 2892SOL    MW411302   5.303   1.115   3.530 -0.3094  0.2326  0.0410
 2893SOL     OW11303   0.806   0.635   5.972 -0.3517  0.1408  0.0356
 2893SOL    HW211304   0.744   0.589   5.916 -0.0635  0.1654 -0.3099
 2893SOL    HW311305   0.886   0.640   5.920  0.1267 -0.4130  0.7090
 2893SOL    MW411306   0.809   0.630   5.957 -0.5330  0.1129 -0.0601
 2894SOL     OW11307   3.126   6.023   3.639 -0.0693 -0.0932  0.2368
 2894SOL    HW211308   3.118   6.062   3.551  1.3850 -0.9564 -0.3149
 2894SOL    HW311309   3.203   6.065   3.676  0.8021 -1.5149  0.1072
 2894SOL    MW411310   3.135   6.034   3.632 -0.8775  0.2398 -0.3718
 2895SOL     OW11311   6.387   2.560   6.325 -0.5500  0.2174 -0.1830
 2895SOL    HW211312   6.393   2.558   6.229  1.1063 -2.8584 -0.1426
 2895SOL    HW311313   6.330   2.487   6.346 -0.6850  0.7050  1.1947
 2895SOL    MW411314   6.381   2.550   6.315 -0.2569 -0.0438 -0.3279
 2896SOL     OW11315   6.233   1.947   6.141  0.3212 -0.4604 -0.2064
 2896SOL    HW211316   6.252   2.010   6.211  0.6762 -1.0523  0.2467
 2896SOL    HW311317   6.243   1.997   6.060  0.6860  0.0402  0.1412
 2896SOL    MW411318   6.237   1.962   6.140  0.0520 -0.3832 -0.0848
 2897SOL     OW11319   4.089   3.347   5.476 -0.0431 -0.0783 -0.4399
 2897SOL    HW211320   4.029   3.325   5.405  1.1482  0.5257 -1.6932
 2897SOL    HW311321   4.132   3.264   5.497  0.5705 -0.0334 -1.4120
 2897SOL    MW411322   4.087   3.333   5.469  0.2047  0.4775  0.2196
 2898SOL     OW11323   3.514   5.710   3.024 -0.6796  0.6794 -0.4126
 2898SOL    HW211324   3.593   5.672   3.062 -1.1672  1.0737  1.0552
 2898SOL    HW311325   3.459   5.634   3.003 -0.8040  0.4624  0.6197
 2898SOL    MW411326   3.517   5.695   3.026 -0.1077 -0.4764  0.1598
 2899SOL     OW11327   0.483   3.060   5.328  0.1048 -0.2321 -0.1451
 2899SOL    HW211328   0.396   3.091   5.354 -0.0736 -1.8116  1.2515
 2899SOL    HW311329   0.535   3.140   5.321 -0.9525  0.5832  0.9076
 2899SOL    MW411330   0.478   3.075   5.330 -0.0552  0.1450 -0.2575
 2900SOL     OW11331   5.384   3.376   3.165  0.3436 -0.0679  0.5737
 2900SOL    HW211332   5.370   3.310   3.097 -2.9815 -0.7361  1.7209
 2900SOL    HW311333   5.422   3.327   3.238 -0.4316 -0.3835  0.7817
 2900SOL    MW411334   5.387   3.361   3.166 -0.8387  0.0600  0.5702
 2901SOL     OW11335   4.588   2.883   0.117  0.6117 -0.1090  0.3287
 2901SOL    HW211336   4.663   2.942   0.117  0.8715 -0.3898 -1.6298
 2901SOL    HW311337   4.579   2.855   0.026 -3.4987  1.9980 -0.1629
 2901SOL    MW411338   4.596   2.887   0.105  0.5437 -0.1101  0.3786
 2902SOL     OW11339   2.537   3.491   0.541  0.0794  0.3284 -0.2361
 2902SOL    HW211340   2.453   3.498   0.496  0.4197  0.2451 -0.9077
 2902SOL    HW311341   2.520   3.521   0.630  0.0839  3.7992 -1.2624
 2902SOL    MW411342   2.524   3.496   0.546 -0.6641  0.0515 -0.7563
 2903SOL     OW11343   3.858   1.517   2.249  0.0846 -0.6302 -0.0970
 2903SOL    HW211344   3.827   1.460   2.320 -0.9214  0.7995  0.6696
 2903SOL    HW311345   3.813   1.600   2.265  0.8775  0.1230 -1.6600
 2903SOL    MW411346   3.848   1.520   2.261  0.1982 -0.3530  0.4721
 2904SOL     OW11347   0.455   4.429   1.201  0.0632  0.0531  0.2149
 2904SOL    HW211348   0.453   4.480   1.281  1.1054 -0.5610  0.6648
 2904SOL    HW311349   0.393   4.472   1.142 -0.4078  0.7477  1.2026
 2904SOL    MW411350   0.447   4.441   1.203 -0.3243  0.6349  0.1585
 2905SOL     OW11351   4.647   3.729   4.345 -0.1848 -0.0264 -0.3860
 2905SOL    HW211352   4.711   3.800   4.341 -1.4036  1.1275  0.3355
 2905SOL    HW311353   4.563   3.772   4.359 -0.7116 -1.6881  2.2417
 2905SOL    MW411354   4.645   3.744   4.346  0.3813 -0.1330  0.3347
 2906SOL     OW11355   1.510   2.482   3.526  0.1655 -0.4560  0.0234
 2906SOL    HW211356   1.458   2.402   3.519 -0.3853 -0.3889  2.5065
 2906SOL    HW311357   1.593   2.454   3.565  0.2710  0.0823  0.1926
 2906SOL    MW411358   1.514   2.468   3.530 -0.1284 -0.1375  0.5964
 2907SOL     OW11359   0.807   1.813   2.388  0.0624 -0.7304 -0.2515
 2907SOL    HW211360   0.841   1.813   2.478 -1.9581 -1.2804  0.5813
 2907SOL    HW311361   0.760   1.730   2.381 -2.2333  0.5399 -0.7889
 2907SOL    MW411362   0.805   1.802   2.399 -0.1364 -0.1467  0.3197
 2908SOL     OW11363   5.632   6.067   0.692 -0.1386  0.5517 -0.3215
 2908SOL    HW211364   5.580   6.135   0.734 -1.1744 -0.0217 -0.6244
 2908SOL    HW311365   5.567   6.012   0.648  0.8444  0.8233 -2.2093
 2908SOL    MW411366   5.617   6.068   0.691  0.0497 -0.1235 -0.8217
 2909SOL     OW11367   2.935   2.042   3.254 -0.4831  0.2553 -0.1575
 2909SOL    HW211368   3.015   2.012   3.211  0.1634  1.0410  0.4582
 2909SOL    HW311369   2.895   2.103   3.192  1.1371  2.4203  0.8261
 2909SOL    MW411370   2.940   2.046   3.240 -0.4813  0.3751 -0.1927
 2910SOL     OW11371   4.204   0.299   0.169 -0.3489 -0.6015  0.2148
 2910SOL    HW211372   4.187   0.265   0.081 -0.8078  1.7270 -0.6622
 2910SOL    HW311373   4.190   0.393   0.162  0.3071 -0.2476  2.6340
 2910SOL    MW411374   4.200   0.307   0.157 -0.1401  0.3820 -0.6668
 2911SOL     OW11375   2.682   2.519   5.173 -0.3932  0.7369  0.6247
 2911SOL    HW211376   2.676   2.606   5.134  0.1399  0.3600 -0.3426
 2911SOL    HW311377   2.769   2.487   5.147 -2.2137 -1.9422 -3.1006
 2911SOL    MW411378   2.693   2.526   5.165  0.1604 -0.2462 -0.5825
 2912SOL     OW11379   0.344   0.946   3.830 -0.7029 -0.0643  0.4977
 2912SOL    HW211380   0.379   1.030   3.802 -0.3351 -0.2747  0.3112
 2912SOL    HW311381   0.387   0.928   3.913 -1.0614  0.1018  0.7244
 2912SOL    MW411382   0.354   0.954   3.837 -0.6084 -0.6445 -0.1506
 2913SOL     OW11383   2.382   5.990   0.574  0.3465  0.2897  0.0039
 2913SOL    HW211384   2.329   5.940   0.513 -0.3949  0.5590  0.4183
 2913SOL    HW311385   2.440   6.042   0.518  0.1793 -0.0030 -0.4484
 2913SOL    MW411386   2.383   5.990   0.559 -0.3068  0.3432 -0.2213
 2914SOL     OW11387   3.854   1.558   3.077 -0.3584  0.4010  0.0288
 2914SOL    HW211388   3.844   1.546   3.172  0.5505  0.2029  0.1049
 2914SOL    HW311389   3.768   1.588   3.048 -1.3918 -1.8032  0.5497
 2914SOL    MW411390   3.841   1.560   3.086  0.7508  0.0661 -0.2527
 2915SOL     OW11391   1.269   4.747   5.140 -0.0224  0.6385  0.4318
 2915SOL    HW211392   1.217   4.762   5.219 -0.4650  0.5861  0.1578
 2915SOL    HW311393   1.244   4.659   5.111  0.4693  0.4784  0.4798
 2915SOL    MW411394   1.259   4.737   5.146  0.0236  0.5183 -0.3316
 2916SOL     OW11395   3.200   0.576   4.035  0.1817  0.4723 -0.7272
 2916SOL    HW211396   3.128   0.551   3.977  0.4337 -1.7633 -0.1778
 2916SOL    HW311397   3.172   0.548   4.122  0.4689  2.3777  0.0318
 2916SOL    MW411398   3.187   0.569   4.038 -0.1039  0.4435  0.0591
 2917SOL     OW11399   2.795   4.501   4.150 -0.2768 -0.0562 -0.0801
 2917SOL    HW211400   2.783   4.466   4.062  1.4733 -0.3295 -0.2385
 2917SOL    HW311401   2.826   4.426   4.201  0.0184  0.4237  0.4483
 2917SOL    MW411402   2.797   4.486   4.145 -0.3633 -0.0308  0.2823
 2918SOL     OW11403   2.828   0.151   5.762  0.3454 -0.3063  0.1059
 2918SOL    HW211404   2.734   0.134   5.770 -0.0218  1.3597 -0.2995
 2918SOL    HW311405   2.855   0.101   5.685 -0.9788  1.9173 -1.9303
 2918SOL    MW411406   2.819   0.142   5.753  0.0536 -0.4004  0.0171
 2919SOL     OW11407   3.564   5.146   2.991  0.2920 -0.0852  0.3585
 2919SOL    HW211408   3.610   5.073   2.950  1.0548  0.9476 -0.6671
 2919SOL    HW311409   3.472   5.120   2.991  0.5972 -1.1979  0.3575
 2919SOL    MW411410   3.558   5.133   2.986 -0.6936 -0.1229  0.4250
 2920SOL     OW11411   4.489   1.991   0.591 -0.2729  0.3554 -0.2295
 2920SOL    HW211412   4.438   1.929   0.540 -0.9124  0.9573 -0.3487
 2920SOL    HW311413   4.435   2.070   0.593  0.9338  1.2244 -0.8745
 2920SOL    MW411414   4.475   1.993   0.585  0.4342  0.0700 -0.5160
 2921SOL     OW11415   4.097   5.790   4.805 -0.4525 -0.4443  0.4213
 2921SOL    HW211416   4.032   5.852   4.770  0.5444  0.0379 -0.6317
 2921SOL    HW311417   4.120   5.826   4.891 -0.3811  0.2772  0.1062
 2921SOL    MW411418   4.091   5.803   4.812  0.5833 -0.3736  0.1892
 2922SOL     OW11419   4.037   6.407   4.034  0.2910  0.7057 -0.3858
 2922SOL    HW211420   4.082   6.480   4.076 -1.4846  1.2833  0.6250
 2922SOL    HW311421   3.944   6.425   4.048 -0.2167 -1.4362 -0.6497
 2922SOL    MW411422   4.030   6.419   4.042 -0.5408 -0.1153  0.3269
 2923SOL     OW11423   4.697   1.815   0.266  0.2555 -0.1025  0.0882
 2923SOL    HW211424   4.790   1.801   0.244  0.5206  1.0743  0.4013
 2923SOL    HW311425   4.696   1.898   0.313 -1.0490  0.2264 -0.4919
 2923SOL    MW411426   4.709   1.824   0.269  0.1086  0.4024  0.4718
 2924SOL     OW11427   3.041   0.788   6.116 -0.2498  0.5062  0.9397
 2924SOL    HW211428   3.041   0.699   6.153  1.2629  0.5963  1.2386
 2924SOL    HW311429   2.959   0.794   6.068 -0.2888 -1.1314  0.7407
 2924SOL    MW411430   3.031   0.777   6.115 -0.3229  0.4531  0.5224
 2925SOL     OW11431   4.274   2.204   3.842 -0.1282 -0.2364  0.2566
 2925SOL    HW211432   4.341   2.143   3.873 -0.6834 -1.1690 -0.3618
 2925SOL    HW311433   4.218   2.153   3.785 -0.3348  0.9712 -0.6684
 2925SOL    MW411434   4.275   2.189   3.839 -0.7605  0.3648 -0.2253
 2926SOL     OW11435   4.071   4.576   5.222  0.2646 -0.1785 -0.1051
 2926SOL    HW211436   4.111   4.637   5.160  1.0329 -1.9423 -1.4579
 2926SOL    HW311437   4.007   4.528   5.170 -1.4825  0.5177  1.3190
 2926SOL    MW411438   4.068   4.578   5.207 -0.6718  0.2247  0.0217
 2927SOL     OW11439   4.504   5.301   2.651 -0.4537 -0.2299  0.3030
 2927SOL    HW211440   4.541   5.266   2.570  0.2424  0.7676  0.1745
 2927SOL    HW311441   4.552   5.382   2.667 -0.8796 -0.1850  1.4889
 2927SOL    MW411442   4.515   5.307   2.642  0.3808 -0.0041 -0.5764
 2928SOL     OW11443   6.117   6.331   2.447 -0.1809 -0.1687  0.1829
 2928SOL    HW211444   6.052   6.272   2.485  0.7191 -0.2861  1.6310
 2928SOL    HW311445   6.183   6.340   2.515  1.3498 -0.0837 -1.2503
 2928SOL    MW411446   6.117   6.324   2.461 -0.1927 -0.0682 -0.1513
 2929SOL     OW11447   2.134   4.584   0.725 -0.1411  0.3181 -0.2111
 2929SOL    HW211448   2.094   4.557   0.643 -1.1629  0.2051  0.3103
 2929SOL    HW311449   2.064   4.576   0.790  0.7577  0.0160  0.7488
 2929SOL    MW411450   2.119   4.580   0.723 -0.1659 -0.1701 -0.7646
 2930SOL     OW11451   5.695   0.648   1.350  0.3710  0.5045  0.4783
 2930SOL    HW211452   5.678   0.557   1.326 -0.4121  0.7398  0.1052
 2930SOL    HW311453   5.621   0.697   1.313  0.7468  1.2828  0.7329
 2930SOL    MW411454   5.683   0.643   1.342  0.1610 -0.4304  0.1488
 2931SOL     OW11455   5.829   1.889   0.496  0.1628 -0.0799  0.2526
 2931SOL    HW211456   5.922   1.894   0.474 -0.0607 -1.2327 -1.1190
 2931SOL    HW311457   5.826   1.845   0.581  0.8416 -0.7635 -0.0750
 2931SOL    MW411458   5.841   1.884   0.504  0.0028 -0.4966 -0.6022
 2932SOL     OW11459   6.363   0.754   3.660 -0.1239 -0.1008 -0.1373
 2932SOL    HW211460   6.326   0.834   3.623  1.3011  0.8357  0.3790
 2932SOL    HW311461   6.373   0.695   3.585  1.4131  1.2528 -1.0521
 2932SOL    MW411462   6.360   0.757   3.645 -0.7321 -0.1312  0.0009
 2933SOL     OW11463   0.343   3.982   2.425 -0.2296  0.4563 -0.3059
 2933SOL    HW211464   0.344   3.929   2.345 -1.2831 -0.3746  0.2034
 2933SOL    HW311465   0.406   3.939   2.483 -2.0863 -1.1471  0.6268
 2933SOL    MW411466   0.352   3.969   2.422  0.1056 -0.1451  0.2397
 2934SOL     OW11467   1.023   2.647   6.353 -0.3992  0.3030 -0.4782
 2934SOL    HW211468   1.073   2.620   6.276 -0.9282  2.1695 -1.5602
 2934SOL    HW311469   0.956   2.580   6.363  0.6162 -0.7750 -0.6902
 2934SOL    MW411470   1.021   2.635   6.344  0.0013  0.0652  0.1533
 2935SOL     OW11471   5.860   0.590   3.757  0.5697 -0.3447  0.2523
 2935SOL    HW211472   5.909   0.641   3.821  1.4761  1.8437 -2.0276
 2935SOL    HW311473   5.926   0.541   3.709  0.4490  1.2350 -1.6548
 2935SOL    MW411474   5.875   0.590   3.759 -0.1653  0.9562 -0.3791
 2936SOL     OW11475   5.339   2.537   6.350 -0.2803  0.0224 -0.4111
 2936SOL    HW211476   5.287   2.465   6.386  1.2898 -0.7755  0.3322
 2936SOL    HW311477   5.287   2.568   6.276 -1.6516 -0.9544  0.0784
 2936SOL    MW411478   5.325   2.532   6.345 -0.6672 -0.2388  0.1804
 2937SOL     OW11479   5.460   4.628   5.364 -0.2461 -0.1492 -0.1616
 2937SOL    HW211480   5.454   4.713   5.406 -1.9131  0.4747 -1.5534
 2937SOL    HW311481   5.489   4.646   5.275 -0.7446 -1.0023 -0.5165
 2937SOL    MW411482   5.463   4.641   5.358  0.3138 -0.0586  0.1117
 2938SOL     OW11483   4.752   2.197   0.747  0.1256 -0.5986 -0.5982
 2938SOL    HW211484   4.810   2.268   0.776 -0.0065 -0.1388 -1.4176
 2938SOL    HW311485   4.778   2.122   0.800  0.4399 -0.0074  0.1152
 2938SOL    MW411486   4.763   2.197   0.758  0.8226 -0.1116  0.3225
 2939SOL     OW11487   5.174   4.129   5.577  0.4089 -0.0195 -0.6586
 2939SOL    HW211488   5.127   4.149   5.496  2.2240  1.1661 -1.4880
 2939SOL    HW311489   5.105   4.115   5.642 -1.0840 -0.3536 -2.2471
 2939SOL    MW411490   5.158   4.130   5.575  0.1446 -0.1302 -0.0291
 2940SOL     OW11491   1.258   1.701   5.215 -0.3026 -0.2634  0.4451
 2940SOL    HW211492   1.212   1.720   5.133  1.9341  0.4251 -0.7291
 2940SOL    HW311493   1.253   1.606   5.223 -0.5143 -0.3514 -0.5306
 2940SOL    MW411494   1.251   1.691   5.205  1.1920  0.4427  0.4042
 2941SOL     OW11495   6.292   6.178   1.860 -0.1621 -0.0143 -0.6807
 2941SOL    HW211496   6.209   6.208   1.822 -0.6134 -0.7127 -0.2725
 2941SOL    HW311497   6.331   6.123   1.792  0.5673  1.2630 -1.3490
 2941SOL    MW411498   6.286   6.175   1.846 -0.0537 -0.1877  0.2646
 2942SOL     OW11499   0.435   4.899   0.588  0.0570 -0.3527  0.0360
 2942SOL    HW211500   0.523   4.935   0.597 -0.6813  1.4250  0.5921
 2942SOL    HW311501   0.446   4.822   0.532  2.2424 -1.3853  1.7398
 2942SOL    MW411502   0.448   4.893   0.582 -0.1982 -0.3908 -0.2795
 2943SOL     OW11503   4.059   5.042   5.464  0.0528 -0.3004 -0.0241
 2943SOL    HW211504   4.032   4.951   5.468 -0.0160 -0.3033 -0.4747
 2943SOL    HW311505   4.074   5.068   5.555  0.8826 -1.0004  0.0501
 2943SOL    MW411506   4.058   5.034   5.477 -0.8246  0.5727  0.2776
 2944SOL     OW11507   2.744   1.543   3.276 -0.0524  0.1418  0.3464
 2944SOL    HW211508   2.778   1.593   3.202  1.1599  0.9225  1.3770
 2944SOL    HW311509   2.806   1.470   3.287 -0.3444 -0.0917  0.4473
 2944SOL    MW411510   2.757   1.540   3.268  0.7687 -0.1354 -0.4075
 2945SOL     OW11511   4.915   0.497   3.380 -0.3131 -0.7421 -0.3518
 2945SOL    HW211512   4.918   0.434   3.307 -1.8778 -2.0881  0.6590
 2945SOL    HW311513   4.939   0.445   3.457  3.7472  1.1798 -0.0642
 2945SOL    MW411514   4.918   0.482   3.380  0.0090 -0.1658  0.1716
 2946SOL     OW11515   1.829   0.464   6.028 -0.0421 -0.2770  0.1258
 2946SOL    HW211516   1.823   0.559   6.029 -3.0961 -0.3850  1.2612
 2946SOL    HW311517   1.862   0.443   5.940  2.3588  1.7852  0.4159
 2946SOL    MW411518   1.833   0.474   6.016  0.0464 -0.3576  0.4080
 2947SOL     OW11519   2.912   6.434   5.550 -0.6705  0.6124 -0.2540
 2947SOL    HW211520   2.819   6.440   5.528 -0.0589 -0.2347 -3.5113
 2947SOL    HW311521   2.922   6.346   5.586 -1.0078  0.4431 -0.5650
 2947SOL    MW411522   2.901   6.423   5.552 -0.0501 -0.3297  0.7122
 2948SOL     OW11523   3.105   1.224   1.042  0.7295 -0.1945 -0.1297
 2948SOL    HW211524   3.178   1.257   0.989  0.1549 -0.2004 -0.9481
 2948SOL    HW311525   3.121   1.130   1.048  1.4189 -0.0281  0.6991
 2948SOL    MW411526   3.117   1.216   1.036 -0.7445  0.2283  0.2880
 2949SOL     OW11527   4.987   2.081   1.107  0.1496  0.0465  0.0401
 2949SOL    HW211528   5.034   2.144   1.162 -0.0511 -0.8390  1.2602
 2949SOL    HW311529   4.918   2.046   1.164  0.1488 -1.1541 -0.6731
 2949SOL    MW411530   4.984   2.085   1.121 -0.1599 -0.5426 -0.2104
 2950SOL     OW11531   4.118   4.148   5.591  0.1151 -0.4013 -0.1650
 2950SOL    HW211532   4.190   4.090   5.619  0.4891 -0.0437 -0.3751
 2950SOL    HW311533   4.084   4.184   5.673 -0.7105 -1.5875  0.0474
 2950SOL    MW411534   4.123   4.145   5.606  0.1663 -0.3675 -0.9392
 2951SOL     OW11535   3.472   1.178   3.868 -0.4660  0.1896 -0.2469
 2951SOL    HW211536   3.447   1.225   3.948  0.7045 -1.8664  1.4506
 2951SOL    HW311537   3.424   1.095   3.873  1.2894 -0.9071 -0.4639
 2951SOL    MW411538   3.463   1.173   3.879  0.0411  0.2828  0.2421
 2952SOL     OW11539   5.559   2.955  -0.025  0.2561 -0.1921 -0.1124
 2952SOL    HW211540   5.522   2.989   0.057  0.7242  0.2879 -0.1012
 2952SOL    HW311541   5.622   2.889   0.003 -0.6707 -1.1169 -0.1350
 2952SOL    MW411542   5.562   2.951  -0.010  0.0553  0.3263  0.2863
 2953SOL     OW11543   2.066   6.316   2.530  0.4091  0.0335  0.8486
 2953SOL    HW211544   2.068   6.221   2.533 -0.4364 -0.0324 -0.2631
 2953SOL    HW311545   2.094   6.338   2.441  0.1045  0.7923  0.9315
 2953SOL    MW411546   2.070   6.307   2.519  0.2577 -0.3665  0.3878
 2954SOL     OW11547   4.601   0.287   1.986 -0.5607  0.3693  0.8036
 2954SOL    HW211548   4.663   0.329   2.045  1.2595  1.2892 -1.6004
 2954SOL    HW311549   4.646   0.208   1.957 -0.6219  0.8728 -0.7239
 2954SOL    MW411550   4.615   0.282   1.990  0.1282 -0.0157 -0.0437
 2955SOL     OW11551   1.638   0.085   5.854  0.1964  0.1612 -0.1002
 2955SOL    HW211552   1.713   0.051   5.902 -1.1011  0.6046  2.3895
 2955SOL    HW311553   1.578   0.011   5.846  0.1553  0.2389 -0.5648
 2955SOL    MW411554   1.640   0.071   5.859  0.2513 -0.4699 -0.2743
 2956SOL     OW11555   4.567   3.137   5.077 -0.0658  0.4807  0.1429
 2956SOL    HW211556   4.596   3.109   4.990  0.0737  2.1929 -0.3950
 2956SOL    HW311557   4.479   3.101   5.085  0.9386 -2.1785  0.5356
 2956SOL    MW411558   4.560   3.128   5.066 -0.7391 -0.5236 -0.0215
 2957SOL     OW11559   5.550   4.786   2.183 -0.1148 -0.1616  0.3806
 2957SOL    HW211560   5.473   4.793   2.238 -0.6610 -0.6490 -0.2965
 2957SOL    HW311561   5.616   4.743   2.238  0.6793  2.7952  1.9326
 2957SOL    MW411562   5.549   4.781   2.197  0.0503 -0.5140  0.0184
 2958SOL     OW11563   3.636   6.306   1.451  0.2892  0.4283  0.3422
 2958SOL    HW211564   3.655   6.215   1.472 -0.0115 -0.1868 -1.8890
 2958SOL    HW311565   3.715   6.338   1.407 -0.2557  0.6945 -0.4690
 2958SOL    MW411566   3.649   6.298   1.448  0.6740  0.4235  0.2059
 2959SOL     OW11567   6.073   3.454   2.051  0.0732  0.2597  0.3680
 2959SOL    HW211568   6.116   3.535   2.025 -0.6389 -0.1698 -2.4523
 2959SOL    HW311569   5.999   3.482   2.105  0.1684  1.4352 -0.0797
 2959SOL    MW411570   6.069   3.468   2.055 -0.1354  0.4472  0.3138
 2960SOL     OW11571   6.383   3.585   3.849  0.3209 -0.2597  0.0983
 2960SOL    HW211572   6.400   3.677   3.826 -3.4231  0.2943 -1.1468
 2960SOL    HW311573   6.402   3.536   3.770  0.9044 -0.3471  0.2926
 2960SOL    MW411574   6.387   3.591   3.836  0.7349  0.3279 -0.0170
 2961SOL     OW11575   6.069   2.764   0.410 -0.1884 -0.1498 -0.5478
 2961SOL    HW211576   5.989   2.766   0.358  1.3088  1.4445 -2.9496
 2961SOL    HW311577   6.108   2.851   0.398  0.5966  0.0992  2.7973
 2961SOL    MW411578   6.064   2.776   0.402  0.0656 -0.3621 -0.2665
 2962SOL     OW11579   4.385   4.797   4.583  0.1265 -0.3363 -0.1609
 2962SOL    HW211580   4.301   4.781   4.627 -0.0423  2.3642  0.6617
 2962SOL    HW311581   4.393   4.725   4.520 -1.7613 -1.8577  1.2084
 2962SOL    MW411582   4.375   4.785   4.581 -0.7366  0.6048 -0.0843
 2963SOL     OW11583   0.060   1.105   3.012 -0.4304 -0.1512  0.4371
 2963SOL    HW211584  -0.028   1.107   2.976 -0.6461  1.3308  0.9781
 2963SOL    HW311585   0.099   1.025   2.977 -2.1136 -1.0408  0.5030
 2963SOL    MW411586   0.054   1.094   3.003 -0.1627  0.3302 -0.2493
 2964SOL     OW11587   1.392   5.454   6.009 -0.6124 -0.3457  0.0952
 2964SOL    HW211588   1.378   5.370   5.966 -0.5991 -0.0589 -0.4690
 2964SOL    HW311589   1.442   5.506   5.946 -1.1671  0.3080  0.1859
 2964SOL    MW411590   1.397   5.450   5.995 -0.7179 -0.2306  0.1522
 2965SOL     OW11591   0.852   5.773   4.282 -0.2438 -0.0368  0.1952
 2965SOL    HW211592   0.894   5.715   4.219 -0.8919 -1.4741  1.0481
 2965SOL    HW311593   0.759   5.759   4.270 -0.4274 -2.6286  3.3972
 2965SOL    MW411594   0.845   5.764   4.272 -0.2877  0.0301 -0.0001
 2966SOL     OW11595   5.538   0.225   2.780  0.4840 -0.3389 -0.2808
 2966SOL    HW211596   5.589   0.170   2.720 -0.8586 -0.7561 -1.0719
 2966SOL    HW311597   5.448   0.214   2.752 -0.3927 -1.6193  2.6505
 2966SOL    MW411598   5.533   0.216   2.768 -0.5736  0.5245  0.3919
 2967SOL     OW11599   0.585   3.967   2.593  0.0277  0.7570  0.1467
 2967SOL    HW211600   0.598   3.877   2.624 -2.4415  0.7602  1.5015
 2967SOL    HW311601   0.519   4.003   2.653 -1.5446  2.3481 -2.3670
 2967SOL    MW411602   0.578   3.960   2.605  0.2788 -0.3637 -0.0860
 2968SOL     OW11603   0.633   1.003   0.997  0.0063  0.0354 -0.3251
 2968SOL    HW211604   0.581   0.922   1.001  0.3135 -0.1241  0.7695
 2968SOL    HW311605   0.711   0.979   0.948  0.4234 -0.5396  0.5899
 2968SOL    MW411606   0.636   0.989   0.991 -0.1950 -0.7740  0.9903
 2969SOL     OW11607   0.147   0.439   4.436 -0.8978  0.3242  0.2843
 2969SOL    HW211608   0.194   0.511   4.393  0.0949 -0.3820  0.1656
 2969SOL    HW311609   0.142   0.371   4.369 -1.3543  0.0696  0.5744
 2969SOL    MW411610   0.153   0.440   4.421  0.3796 -0.3779 -0.1401
 2970SOL     OW11611   3.948   5.753   3.303  0.3550 -0.1418  0.0187
 2970SOL    HW211612   3.920   5.817   3.369 -0.3028  0.2332 -0.6067
 2970SOL    HW311613   4.033   5.786   3.272  1.0533 -0.7477  1.2194
 2970SOL    MW411614   3.956   5.766   3.308  1.2256  0.8826 -0.0822
 2971SOL     OW11615   4.281   3.598   1.287 -0.0094 -0.0199 -0.6281
 2971SOL    HW211616   4.360   3.590   1.233  0.2077 -1.6791 -0.1067
 2971SOL    HW311617   4.295   3.537   1.359 -2.3323 -1.3507 -1.2257
 2971SOL    MW411618   4.293   3.589   1.289 -0.4425  0.3172  0.0309
 2972SOL     OW11619   3.647   1.125   0.993  0.3067 -0.5550  0.1080
 2972SOL    HW211620   3.722   1.167   1.034  0.7885 -0.2274 -1.0649
 2972SOL    HW311621   3.582   1.119   1.063  1.4429 -0.9235  1.1626
 2972SOL    MW411622   3.648   1.130   1.008 -0.0057  0.0749  0.0212
 2973SOL     OW11623   4.526   1.197   0.928  0.2521  0.6687 -0.2906
 2973SOL    HW211624   4.432   1.213   0.929  0.1591  0.1120  0.1397
 2973SOL    HW311625   4.548   1.192   0.835 -0.6221 -1.8861 -0.4347
 2973SOL    MW411626   4.516   1.198   0.915 -0.3186 -0.8428  0.2651
 2974SOL     OW11627   1.037   4.770   2.270 -0.0140 -0.2974 -0.2367
 2974SOL    HW211628   1.080   4.764   2.185  2.0308 -1.5404  0.8059
 2974SOL    HW311629   1.107   4.793   2.331 -1.2226 -0.3917  1.2536
 2974SOL    MW411630   1.052   4.772   2.267 -0.1777 -0.3293 -0.4575
 2975SOL     OW11631   3.939   6.375   1.080 -0.8615 -0.3411  0.1648
 2975SOL    HW211632   4.033   6.392   1.083 -0.7249 -1.1565  1.1370
 2975SOL    HW311633   3.916   6.350   1.170 -2.0905  0.2426  0.0400
 2975SOL    MW411634   3.948   6.374   1.092  0.5698 -0.1905 -1.0263
 2976SOL     OW11635   3.967   5.829   4.326 -0.3238  0.3826 -0.4849
 2976SOL    HW211636   4.048   5.793   4.362 -1.3214 -0.9831  0.5160
 2976SOL    HW311637   3.990   5.855   4.237  1.3358  0.5182 -0.0558
 2976SOL    MW411638   3.981   5.827   4.319 -0.4311  0.0660 -0.3088
 2977SOL     OW11639   4.997   2.474   1.695  0.5942  0.3499  0.3527
 2977SOL    HW211640   4.918   2.527   1.699 -0.4756 -1.0765 -0.7555
 2977SOL    HW311641   5.063   2.532   1.657  0.2006  1.6655  1.6165
 2977SOL    MW411642   4.995   2.489   1.690 -0.0863  0.1916  0.1577
 2978SOL     OW11643   2.298   3.907   1.230 -0.1433 -0.9672 -0.6382
 2978SOL    HW211644   2.269   3.964   1.159 -1.4514 -0.5466  0.2110
 2978SOL    HW311645   2.365   3.957   1.275 -1.8877  0.3323  0.6360
 2978SOL    MW411646   2.303   3.921   1.227  0.1474 -0.5756 -0.2258
 2979SOL     OW11647   2.510   5.435   5.799 -0.8582 -0.0224 -0.8625
 2979SOL    HW211648   2.479   5.525   5.789 -0.3979  0.0441 -1.8469
 2979SOL    HW311649   2.522   5.423   5.893 -1.3133  0.8107 -0.6951
 2979SOL    MW411650   2.508   5.445   5.810 -0.3615  0.1800  1.0893
 2980SOL     OW11651   0.304   4.958   2.151  0.5627  0.1183  0.5899
 2980SOL    HW211652   0.386   4.978   2.196 -0.2014  1.8096  1.3308
 2980SOL    HW311653   0.331   4.919   2.068  2.0902  0.0616  1.0880
 2980SOL    MW411654   0.318   4.956   2.146  0.0895  0.6875  0.0600
 2981SOL     OW11655   5.182   3.334   1.783 -0.5982 -0.0403 -0.1073
 2981SOL    HW211656   5.133   3.320   1.864  0.3381 -2.1156  0.1704
 2981SOL    HW311657   5.268   3.364   1.811 -0.2999 -0.6816 -0.3087
 2981SOL    MW411658   5.187   3.336   1.797 -0.4704 -0.1918 -0.2282
 2982SOL     OW11659   0.445   0.614   2.239  0.0307 -0.4372  0.2712
 2982SOL    HW211660   0.371   0.637   2.295  0.6336  0.1955  0.8293
 2982SOL    HW311661   0.414   0.631   2.150  0.0007  1.3339  0.5834
 2982SOL    MW411662   0.431   0.619   2.234  0.3873 -0.4987  0.0960
 2983SOL     OW11663   3.459   4.562   5.005 -0.3169  0.0550 -0.3197
 2983SOL    HW211664   3.458   4.493   5.071 -0.5954 -0.4881 -0.8817
 2983SOL    HW311665   3.442   4.517   4.922  0.5074  0.6462 -0.8344
 2983SOL    MW411666   3.457   4.547   5.003 -0.7101  0.0320  0.6477
 2984SOL     OW11667   0.905   2.977   6.366  0.6068 -0.3039  0.1194
 2984SOL    HW211668   0.832   2.973   6.305  2.2381 -0.2577 -1.9241
 2984SOL    HW311669   0.883   2.911   6.433 -0.9790 -0.7436 -0.7809
 2984SOL    MW411670   0.893   2.968   6.367 -0.1334 -0.3311 -0.1593
 2985SOL     OW11671   1.730   2.167   1.960  0.3086  0.7131 -0.8960
 2985SOL    HW211672   1.662   2.106   1.931 -2.6587  1.4591  3.5019
 2985SOL    HW311673   1.711   2.248   1.912 -1.9007  0.8179  0.0120
 2985SOL    MW411674   1.718   2.170   1.950 -0.2110 -0.3366  0.1604
 2986SOL     OW11675   1.216   4.667   1.455  0.4090  0.1638  0.0065
 2986SOL    HW211676   1.264   4.739   1.415 -1.2099  0.8819 -0.7392
 2986SOL    HW311677   1.166   4.707   1.526  0.1603 -0.3930  0.1554
 2986SOL    MW411678   1.216   4.682   1.459  0.7019 -0.3964 -0.3521
 2987SOL     OW11679   2.009   1.532   1.899  0.5259 -0.1001  0.5564
 2987SOL    HW211680   2.044   1.483   1.973  0.4872 -2.1357 -0.7081
 2987SOL    HW311681   1.922   1.494   1.885 -0.6083  2.1176  1.1164
 2987SOL    MW411682   2.002   1.521   1.907  0.3139 -0.0704 -0.2041
 2988SOL     OW11683   5.676   3.007   5.899 -0.3680  0.1942 -0.3302
 2988SOL    HW211684   5.605   2.943   5.905 -0.2665  0.0624 -0.5118
 2988SOL    HW311685   5.682   3.045   5.986 -0.6765  0.2211 -0.3184
 2988SOL    MW411686   5.667   3.004   5.911  0.4290 -0.4182  0.3137
 2989SOL     OW11687   4.309   0.761   2.514 -0.5207  0.0254 -0.5478
 2989SOL    HW211688   4.401   0.749   2.491  0.5144 -1.0856  3.4430
 2989SOL    HW311689   4.298   0.856   2.519  1.4567  0.2442  1.9633
 2989SOL    MW411690   4.320   0.772   2.512  0.4326 -0.2677 -0.6329
 2990SOL     OW11691   2.681   2.235   0.354  0.5411  0.1926 -0.0516
 2990SOL    HW211692   2.720   2.189   0.429 -1.0299 -0.5964  0.3304
 2990SOL    HW311693   2.608   2.179   0.327  0.9309  0.5810 -2.0558
 2990SOL    MW411694   2.676   2.222   0.360  0.3364  0.4465 -0.3574
 2991SOL     OW11695   6.308   2.137   6.322  0.0726  0.4602 -0.3414
 2991SOL    HW211696   6.252   2.212   6.340  0.0943  0.3852  0.0462
 2991SOL    HW311697   6.347   2.115   6.407  1.4786  1.1413 -0.7736
 2991SOL    MW411698   6.306   2.144   6.335 -0.1732 -0.1960  0.0698
 2992SOL     OW11699   4.315   2.088   0.250  0.1009  0.1641 -0.2807
 2992SOL    HW211700   4.410   2.095   0.258  0.1485 -0.8595  0.2389
 2992SOL    HW311701   4.292   2.150   0.181  1.2375 -0.0808 -0.9091
 2992SOL    MW411702   4.325   2.097   0.242  0.5648 -0.4985  0.5013
 2993SOL     OW11703   2.369   4.675   1.892 -0.3755  0.1620 -0.2608
 2993SOL    HW211704   2.397   4.763   1.918 -0.7641  0.3065 -0.3147
 2993SOL    HW311705   2.449   4.632   1.862  0.1169 -0.0722  1.3109
 2993SOL    MW411706   2.383   4.681   1.892  0.3552  0.5573  0.3577
 2994SOL     OW11707   5.580   1.473   2.756  0.0517 -0.1135 -0.9133
 2994SOL    HW211708   5.651   1.507   2.810  1.2128  0.5035 -2.7502
 2994SOL    HW311709   5.576   1.533   2.681 -1.8133 -0.6686 -1.3096
 2994SOL    MW411710   5.589   1.486   2.753 -0.1103 -0.1341  0.4751
 2995SOL     OW11711   5.125   5.138   5.348 -0.3099 -0.1432  0.6242
 2995SOL    HW211712   5.116   5.124   5.442  0.8544  0.5479  0.8570
 2995SOL    HW311713   5.045   5.102   5.311 -1.1441  0.2512  1.9530
 2995SOL    MW411714   5.113   5.132   5.356  0.0404  0.1048 -0.0216
 2996SOL     OW11715   1.298   2.719   4.032 -0.1079  0.1507 -0.4414
 2996SOL    HW211716   1.234   2.790   4.036 -0.8500 -0.3509 -2.2709
 2996SOL    HW311717   1.320   2.701   4.123 -0.3229  2.3289  0.0902
 2996SOL    MW411718   1.292   2.726   4.045  0.4737 -0.1089  0.5245
 2997SOL     OW11719   3.332   2.840   4.560 -0.0833  0.9619 -0.1681
 2997SOL    HW211720   3.322   2.755   4.517  2.4027  1.4678 -1.9788
 2997SOL    HW311721   3.332   2.820   4.654 -0.4512 -0.9040 -0.5347
 2997SOL    MW411722   3.330   2.826   4.567 -0.0643  0.0862 -0.7656
 2998SOL     OW11723   6.426   4.883   1.980  0.2323  0.0822 -0.7322
 2998SOL    HW211724   6.460   4.847   2.062  0.3894 -0.2676 -0.9495
 2998SOL    HW311725   6.331   4.882   1.991  0.0754 -2.6537 -1.6525
 2998SOL    MW411726   6.418   4.878   1.993 -0.6475  0.3780 -0.1653
 2999SOL     OW11727   0.654   2.590   6.170 -0.1210  0.1164  0.0940
 2999SOL    HW211728   0.727   2.652   6.176  0.5681 -0.6401 -0.2761
 2999SOL    HW311729   0.689   2.516   6.120 -1.2376 -0.1293 -0.3621
 2999SOL    MW411730   0.668   2.588   6.164  0.5756  0.0341  0.0458
 3000SOL     OW11731   3.372   6.179   3.731  0.2098 -0.1340 -0.4536
 3000SOL    HW211732   3.358   6.273   3.741  0.8049  0.0192 -0.9601
 3000SOL    HW311733   3.406   6.151   3.817 -0.4280  0.0135 -0.1468
 3000SOL    MW411734   3.375   6.188   3.744  0.0078  0.2442 -0.2249
 3001SOL     OW11735   3.005   2.068   2.036 -0.5422  0.7973 -0.1449
 3001SOL    HW211736   2.913   2.082   2.059 -0.4582 -0.9970  1.5943
 3001SOL    HW311737   3.002   2.013   1.958 -0.9452  0.6244 -0.0092
 3001SOL    MW411738   2.992   2.063   2.028  0.6447 -0.2131 -0.2870
 3002SOL     OW11739   2.966   3.344   0.831  0.5077  0.4226  0.0768
 3002SOL    HW211740   2.902   3.398   0.785 -0.8845  0.6542  2.1599
 3002SOL    HW311741   3.003   3.288   0.763 -3.3985 -1.2070 -0.9870
 3002SOL    MW411742   2.963   3.344   0.816 -0.1202  0.2150  0.8085
 3003SOL     OW11743   1.113   5.527   6.076  0.2305  0.2806  0.2127
 3003SOL    HW211744   1.098   5.550   6.168  0.4588 -0.0436  0.3288
 3003SOL    HW311745   1.191   5.472   6.077 -0.3319 -0.5384 -0.0628
 3003SOL    MW411746   1.121   5.523   6.089  0.0710 -0.3610 -0.0393
 3004SOL     OW11747   0.979   4.995   0.014 -0.6607  0.0334 -0.2143
 3004SOL    HW211748   0.951   4.985  -0.077 -0.3448 -1.1747 -0.1897
 3004SOL    HW311749   1.025   4.914   0.034 -1.6533 -0.1741  1.3620
 3004SOL    MW411750   0.981   4.983   0.004  0.4687 -0.4507 -0.0813
 3005SOL     OW11751   3.902   0.716   0.819 -0.1273  0.5954  0.5023
 3005SOL    HW211752   3.810   0.690   0.816 -0.2775  1.1722 -2.1689
 3005SOL    HW311753   3.928   0.725   0.727  3.0624 -1.0746  1.0635
 3005SOL    MW411754   3.894   0.713   0.807 -0.0278 -0.3518 -0.0622
 3006SOL     OW11755   2.853   0.494   4.559  0.3354 -0.2553 -0.1001
 3006SOL    HW211756   2.811   0.468   4.477 -0.4915 -0.5960  0.4246
 3006SOL    HW311757   2.784   0.488   4.625  0.7240  1.0106  0.4546
 3006SOL    MW411758   2.839   0.490   4.557  0.3487  0.4321 -0.8049
 3007SOL     OW11759   0.589   1.528   1.249 -0.4732 -0.2049  0.0105
 3007SOL    HW211760   0.567   1.621   1.243  0.3181 -0.0373 -0.3971
 3007SOL    HW311761   0.585   1.509   1.342 -1.7947 -0.0612  0.0091
 3007SOL    MW411762   0.585   1.538   1.260 -0.3093 -0.1775 -0.0084
 3008SOL     OW11763   0.591   5.027   1.499 -0.2821  0.4742  0.1246
 3008SOL    HW211764   0.613   4.988   1.584  0.2364 -0.6982 -0.5111
 3008SOL    HW311765   0.520   4.972   1.466  0.7779 -0.2605 -1.0048
 3008SOL    MW411766   0.584   5.014   1.506 -0.0837  0.1311  0.0345
 3009SOL     OW11767   6.268   4.543   0.681  0.0014 -0.0994 -0.4063
 3009SOL    HW211768   6.260   4.638   0.673  1.2399  0.0511 -0.1594
 3009SOL    HW311769   6.330   4.519   0.611 -1.0849 -0.8718 -1.1333
 3009SOL    MW411770   6.275   4.552   0.671 -0.2913  0.2996 -0.0521
 3010SOL     OW11771   2.106   0.756   4.132 -0.0358 -0.4714  0.2230
 3010SOL    HW211772   2.067   0.722   4.213  0.9573 -0.1927  0.8304
 3010SOL    HW311773   2.069   0.701   4.063 -0.2002 -1.3042  0.9519
 3010SOL    MW411774   2.096   0.744   4.133  0.4675 -0.0640 -0.0682
 3011SOL     OW11775   0.180   6.406   5.397  0.0942 -0.7406  0.1326
 3011SOL    HW211776   0.177   6.330   5.339  1.9383 -0.0980 -0.9098
 3011SOL    HW311777   0.217   6.372   5.479 -1.0987 -1.3496  0.4468
 3011SOL    MW411778   0.185   6.392   5.400 -0.0578 -0.3558 -0.4123
 3012SOL     OW11779   4.794   6.126   0.494  0.2422 -0.2091 -0.3879
 3012SOL    HW211780   4.705   6.122   0.529 -0.1274 -0.3159 -1.2881
 3012SOL    HW311781   4.848   6.081   0.559 -0.4738 -0.7670 -0.1589
 3012SOL    MW411782   4.789   6.120   0.507  0.3442  0.0564  0.4063
 3013SOL     OW11783   2.996   5.988   0.449 -0.1972 -0.1927 -0.6688
 3013SOL    HW211784   3.089   5.979   0.428 -0.1707  0.1333 -0.6995
 3013SOL    HW311785   2.952   5.986   0.364 -0.4768 -3.0476 -0.5323
 3013SOL    MW411786   3.002   5.987   0.435  0.1751 -0.2522 -0.3923
 3014SOL     OW11787   4.661   3.874   2.248  0.4112 -0.2339  0.4254
 3014SOL    HW211788   4.694   3.962   2.267  1.8844 -0.9861  1.6066
 3014SOL    HW311789   4.625   3.843   2.331  2.4876 -1.7653  0.8442
 3014SOL    MW411790   4.661   3.881   2.262  0.1182  0.1692  0.1552
 3015SOL     OW11791   5.697   4.114   2.159  0.2154 -0.3288 -0.0541
 3015SOL    HW211792   5.713   4.099   2.253  1.5299 -0.1326 -0.2266
 3015SOL    HW311793   5.609   4.080   2.144  1.0770 -3.1453  0.6617
 3015SOL    MW411794   5.687   4.107   2.170  0.3028 -0.1854  0.0887
 3016SOL     OW11795   2.417   5.659   1.197 -0.1138 -0.3505 -0.0496
 3016SOL    HW211796   2.472   5.675   1.120  0.2918  1.2068  0.5227
 3016SOL    HW311797   2.340   5.715   1.183 -0.4302 -0.6992  0.2867
 3016SOL    MW411798   2.414   5.669   1.185  0.1128 -0.6340 -0.2633
 3017SOL     OW11799   1.048   3.234   2.588 -0.0718  0.6247  0.6190
 3017SOL    HW211800   1.029   3.294   2.660 -1.5227  2.3385 -1.1021
 3017SOL    HW311801   0.966   3.227   2.540  0.3027 -2.1157  0.2418
 3017SOL    MW411802   1.035   3.241   2.591 -0.4671 -0.3967 -0.0295
 3018SOL     OW11803   0.437   3.383   1.104 -0.1572 -0.0354  0.4915
 3018SOL    HW211804   0.529   3.391   1.132 -0.0488 -1.7308  0.7481
 3018SOL    HW311805   0.387   3.398   1.184 -0.1417  1.2562  0.2781
 3018SOL    MW411806   0.443   3.386   1.118 -0.4682  0.2568 -0.1338
 3019SOL     OW11807   4.670   4.788   5.078  0.0367 -0.2682 -0.1097
 3019SOL    HW211808   4.713   4.766   5.161  1.3705  2.8313  0.1360
 3019SOL    HW311809   4.594   4.841   5.104 -0.6556 -0.8867 -0.8280
 3019SOL    MW411810   4.665   4.792   5.093  0.5465  0.1522 -0.4677
 3020SOL     OW11811   4.199   6.291   5.052 -0.3007  0.0404  0.0028
 3020SOL    HW211812   4.139   6.279   4.979 -0.0139 -0.1757 -0.1985
 3020SOL    HW311813   4.163   6.365   5.101 -1.7644 -1.2366  0.9330
 3020SOL    MW411814   4.187   6.299   5.049 -0.1365  0.1201 -0.4401
 3021SOL     OW11815   0.280   3.471   3.941  0.3236 -0.4702 -0.1428
 3021SOL    HW211816   0.259   3.562   3.921  1.5310  0.1431  1.1347
 3021SOL    HW311817   0.376   3.471   3.951  0.2077 -1.5794  1.2242
 3021SOL    MW411818   0.290   3.483   3.940  0.9153 -0.1007  0.7853
 3022SOL     OW11819   3.261   6.088   0.374  0.2056 -0.3811  0.8057
 3022SOL    HW211820   3.281   6.026   0.304 -0.5475  0.6348 -0.3443
 3022SOL    HW311821   3.220   6.163   0.329 -1.0379 -0.0442  2.4072
 3022SOL    MW411822   3.258   6.090   0.359 -0.6221  0.6836  0.1026
 3023SOL     OW11823   1.962   2.896   4.085 -0.0447 -0.0702  0.0608
 3023SOL    HW211824   1.872   2.895   4.118  0.4074 -1.5965  1.3946
 3023SOL    HW311825   1.983   2.988   4.073 -1.6759  0.3259  0.0221
 3023SOL    MW411826   1.953   2.908   4.088 -0.2111 -0.3605  0.4137
 3024SOL     OW11827   4.943   4.554   2.827 -0.2824  0.2286  0.6602
 3024SOL    HW211828   4.905   4.466   2.826 -2.0439  0.9314  0.4593
 3024SOL    HW311829   5.022   4.548   2.774  0.2687 -1.4901  1.6422
 3024SOL    MW411830   4.948   4.542   2.820 -0.3927 -1.2144 -0.0550
 3025SOL     OW11831   5.753   5.638   2.115  0.0081 -0.3584  0.4944
 3025SOL    HW211832   5.680   5.700   2.121 -0.6520 -0.9375 -0.8521
 3025SOL    HW311833   5.827   5.690   2.086 -0.6042 -0.2110 -0.8786
 3025SOL    MW411834   5.753   5.653   2.112 -0.5386 -0.4311  0.2874
 3026SOL     OW11835   0.689   1.700   5.896 -0.6771 -0.5184 -0.4932
 3026SOL    HW211836   0.704   1.688   5.990  2.9730 -0.2708 -0.9073
 3026SOL    HW311837   0.681   1.795   5.885  1.4434 -0.3082 -0.6309
 3026SOL    MW411838   0.690   1.711   5.907  0.5286  0.4228  0.2387
 3027SOL     OW11839   5.052   1.380   0.314 -0.0203  0.2248 -0.3948
 3027SOL    HW211840   5.021   1.346   0.230 -0.5094 -0.5320  0.0773
 3027SOL    HW311841   5.132   1.331   0.332  0.0458  0.3366 -0.3823
 3027SOL    MW411842   5.058   1.369   0.305 -0.5639  0.3341  0.4314
 3028SOL     OW11843   1.960   4.504   2.341  0.3432 -0.6313  0.2095
 3028SOL    HW211844   1.957   4.599   2.333 -2.0186 -0.4361  2.1916
 3028SOL    HW311845   2.023   4.487   2.411  0.9638 -0.5569 -0.3267
 3028SOL    MW411846   1.968   4.514   2.349  0.0899 -0.7367 -0.8049
 3029SOL     OW11847   0.075   5.617   2.311  0.2402  0.2336 -0.0766
 3029SOL    HW211848   0.087   5.712   2.319  1.0933  0.1641 -0.4009
 3029SOL    HW311849   0.019   5.593   2.385  1.2170  0.7713  0.8600
 3029SOL    MW411850   0.069   5.627   2.322  0.7402  0.5212  0.1011
 3030SOL     OW11851   5.038   3.340   3.620 -0.2255  0.3472  0.0319
 3030SOL    HW211852   4.946   3.320   3.632 -0.4731  1.7658  0.7532
 3030SOL    HW311853   5.059   3.307   3.532 -1.5962  0.6244 -0.4162
 3030SOL    MW411854   5.029   3.333   3.610  0.1840  0.8651 -0.7484
 3031SOL     OW11855   5.057   2.467   0.250 -0.3150 -0.0269  0.0012
 3031SOL    HW211856   5.089   2.435   0.166 -0.9648  0.5723 -0.4871
 3031SOL    HW311857   4.975   2.419   0.264 -0.0500 -0.3579  0.4543
 3031SOL    MW411858   5.051   2.456   0.241  0.0753 -0.1536 -0.5258
 3032SOL     OW11859   1.770   4.107   5.705 -0.1081  0.6175  0.1213
 3032SOL    HW211860   1.692   4.161   5.696  0.4114  1.3604 -0.0202
 3032SOL    HW311861   1.816   4.144   5.780  0.7693  1.0577 -0.6087
 3032SOL    MW411862   1.766   4.119   5.714  0.1102 -0.7923 -0.0508
 3033SOL     OW11863   1.509   3.233   0.461 -0.2069 -0.1663 -0.2897
 3033SOL    HW211864   1.603   3.217   0.465 -0.2439 -0.6555 -1.0534
 3033SOL    HW311865   1.500   3.298   0.391 -0.2724  1.4935  1.1769
 3033SOL    MW411866   1.520   3.240   0.452  0.4986  0.7155  0.5234
 3034SOL     OW11867   3.329   0.753   6.085 -0.4725  0.2280  0.0410
 3034SOL    HW211868   3.376   0.827   6.048  1.4619 -1.0847 -0.2945
 3034SOL    HW311869   3.238   0.783   6.095 -0.2087  1.9049 -2.0713
 3034SOL    MW411870   3.323   0.766   6.082  0.2337 -0.2586 -0.2929
 3035SOL     OW11871   2.471   0.927   2.446  0.4785 -0.1021 -0.1686
 3035SOL    HW211872   2.515   0.888   2.371  0.7885 -0.1113  0.0163
 3035SOL    HW311873   2.380   0.938   2.418  0.4737 -0.6097 -0.3496
 3035SOL    MW411874   2.464   0.923   2.433  0.3300  0.6097 -0.1251
 3036SOL     OW11875   2.379   4.238  -0.032 -0.1055 -0.3568 -0.2095
 3036SOL    HW211876   2.354   4.205   0.054  0.9243 -0.5457  0.0253
 3036SOL    HW311877   2.387   4.159  -0.087  0.9495 -0.4063 -0.0137
 3036SOL    MW411878   2.377   4.223  -0.028  0.2467 -0.0185 -0.5646
 3037SOL     OW11879   2.192   3.103   1.599  0.5363  0.1802 -0.6182
 3037SOL    HW211880   2.284   3.120   1.581  0.2365  0.5961 -1.8941
 3037SOL    HW311881   2.178   3.013   1.569 -0.0303  0.9692 -2.9135
 3037SOL    MW411882   2.202   3.093   1.592  0.7148  0.1515  0.1651
 3038SOL     OW11883   3.834   4.549   0.188 -0.0874  0.0115 -0.1983
 3038SOL    HW211884   3.842   4.628   0.242  1.2952 -0.3053  0.1131
 3038SOL    HW311885   3.874   4.480   0.241 -2.6657 -1.2920  0.2089
 3038SOL    MW411886   3.841   4.551   0.203 -0.3518 -0.0968 -0.3123
 3039SOL     OW11887   4.358   2.237   0.620  0.0381 -0.4628  0.3123
 3039SOL    HW211888   4.319   2.250   0.707  1.2177 -0.2271  0.8205
 3039SOL    HW311889   4.285   2.209   0.565 -0.7025 -0.7450  1.4109
 3039SOL    MW411890   4.343   2.235   0.624 -0.4447 -0.2543 -0.2370
 3040SOL     OW11891   4.019   6.270   4.514  0.2490  0.2013 -0.7041
 3040SOL    HW211892   3.977   6.201   4.463 -2.0384  0.5781  0.5419
 3040SOL    HW311893   4.003   6.247   4.605  2.8586  0.3868 -0.1089
 3040SOL    MW411894   4.011   6.258   4.519 -0.0941  0.8821 -0.1196
 3041SOL     OW11895   0.083   3.084   5.808 -0.4180  0.4188  0.2882
 3041SOL    HW211896   0.040   3.000   5.791 -0.1953  0.0144  1.5942
 3041SOL    HW311897   0.176   3.065   5.802 -0.3765  0.8162 -0.4333
 3041SOL    MW411898   0.090   3.070   5.805  0.2043  0.3752  0.4168
 3042SOL     OW11899   1.866   5.775   0.028  0.1304  0.6308 -0.0099
 3042SOL    HW211900   1.867   5.812   0.116  0.3240  2.7289 -0.8319
 3042SOL    HW311901   1.957   5.752   0.011  0.0362 -0.1220  0.4444
 3042SOL    MW411902   1.878   5.777   0.037  0.3029  0.2937  0.4238
 3043SOL     OW11903   5.496   0.688   0.467  0.4146  0.0103  0.3340
 3043SOL    HW211904   5.576   0.740   0.479  0.2833  0.6290 -1.2482
 3043SOL    HW311905   5.523   0.614   0.413 -0.3409  1.0698 -1.5989
 3043SOL    MW411906   5.510   0.685   0.462  0.1476  1.1992  0.2697
 3044SOL     OW11907   2.406   5.526   3.774 -0.8013 -0.1781 -0.1918
 3044SOL    HW211908   2.322   5.505   3.733 -0.9037 -0.0216 -0.0643
 3044SOL    HW311909   2.387   5.527   3.868 -0.2690 -1.8795 -0.0374
 3044SOL    MW411910   2.392   5.524   3.781 -0.6045 -0.0323 -0.2115
 3045SOL     OW11911   4.770   3.357   0.111 -0.0395 -0.2592  0.1025
 3045SOL    HW211912   4.801   3.362   0.021 -1.0396 -1.3304 -0.3237
 3045SOL    HW311913   4.687   3.311   0.105 -0.7797  0.8491  1.4294
 3045SOL    MW411914   4.763   3.352   0.098 -0.5895  0.3370  0.1570
 3046SOL     OW11915   4.622   3.760   5.507 -0.1279 -0.0086  0.2480
 3046SOL    HW211916   4.560   3.834   5.500  0.5588  0.4339 -1.7583
 3046SOL    HW311917   4.708   3.801   5.507  0.2527 -0.7732 -0.5316
 3046SOL    MW411918   4.625   3.775   5.506 -0.0915 -0.0876 -0.3323
 3047SOL     OW11919   0.961   5.578   0.281  0.0217 -0.5456  0.1080
 3047SOL    HW211920   0.911   5.565   0.362 -0.7991 -2.4544 -0.6350
 3047SOL    HW311921   0.914   5.646   0.234  0.1067  0.0867  0.9134
 3047SOL    MW411922   0.948   5.585   0.286  0.1663  0.4274 -0.0103
 3048SOL     OW11923   0.986   3.164   5.095 -0.2846  0.0685 -0.0184
 3048SOL    HW211924   1.060   3.171   5.156 -0.8991 -0.5244  0.8248
 3048SOL    HW311925   0.940   3.085   5.124  0.6181 -1.5425 -2.6016
 3048SOL    MW411926   0.990   3.154   5.107  0.7291 -0.1168  0.3235
 3049SOL     OW11927   5.137   3.199   0.480  0.0045 -0.4185  0.0800
 3049SOL    HW211928   5.074   3.227   0.413 -1.2302  0.2697  1.4829
 3049SOL    HW311929   5.149   3.106   0.464 -1.0790 -0.4786 -0.4401
 3049SOL    MW411930   5.131   3.191   0.469  0.4344  0.1775  0.1369
 3050SOL     OW11931   0.481   3.349   3.519 -0.0035 -0.0263  0.0858
 3050SOL    HW211932   0.440   3.386   3.441  1.0446  1.2077  0.1046
 3050SOL    HW311933   0.412   3.350   3.585 -1.1863 -1.9445 -1.0379
 3050SOL    MW411934   0.467   3.354   3.518 -0.5317 -1.1800  0.6112
 3051SOL     OW11935   0.844   6.283   0.397 -0.0300  0.7641  0.9331
 3051SOL    HW211936   0.751   6.288   0.422 -0.6203  0.3461 -0.9850
 3051SOL    HW311937   0.872   6.374   0.392 -0.9170  0.9970 -0.3534
 3051SOL    MW411938   0.835   6.295   0.400  0.0301 -0.1164  0.1860
 3052SOL     OW11939   0.130   0.470   5.814 -0.0262 -0.1005  0.0130
 3052SOL    HW211940   0.144   0.558   5.781 -1.1943  0.5653  1.2276
 3052SOL    HW311941   0.140   0.414   5.737  2.0856  0.9262 -0.5321
 3052SOL    MW411942   0.133   0.474   5.800 -0.3976  0.0178 -0.2779
 3053SOL     OW11943   3.433   2.268   3.000 -0.1187  0.0792  0.4610
 3053SOL    HW211944   3.472   2.214   3.069  0.5855 -0.6863 -0.5018
 3053SOL    HW311945   3.415   2.206   2.929  0.9208  1.1055 -0.7555
 3053SOL    MW411946   3.436   2.252   3.000 -0.0806  0.3235 -0.3612
 3054SOL     OW11947   0.633   4.721   4.231 -1.0393 -0.3602  0.5140
 3054SOL    HW211948   0.545   4.759   4.231 -1.9654 -1.6942 -4.7015
 3054SOL    HW311949   0.618   4.627   4.230  0.5319 -0.6333  0.7285
 3054SOL    MW411950   0.620   4.714   4.231  0.4143 -0.6098  0.5874
 3055SOL     OW11951   6.297   6.241   0.630 -0.1229  0.5552  0.2861
 3055SOL    HW211952   6.347   6.228   0.550 -1.1154 -2.0100 -0.0054
 3055SOL    HW311953   6.359   6.226   0.701  0.0191 -0.4861 -0.0522
 3055SOL    MW411954   6.312   6.238   0.629 -0.2806 -0.4159 -0.1031
 3056SOL     OW11955   0.723   4.970   0.572  0.1164 -0.1601 -0.0064
 3056SOL    HW211956   0.723   4.876   0.593 -1.3717 -0.4859 -1.3035
 3056SOL    HW311957   0.716   4.973   0.477 -2.6683  1.2378  0.1458
 3056SOL    MW411958   0.722   4.958   0.562  0.1649  0.0032  0.3988
 3057SOL     OW11959   0.687   5.435   2.857 -0.1831  0.0252  0.1322
 3057SOL    HW211960   0.593   5.444   2.841 -0.4181 -1.1354  0.7696
 3057SOL    HW311961   0.720   5.525   2.854 -0.8638  0.2599 -2.6063
 3057SOL    MW411962   0.679   5.448   2.855 -0.0793 -0.4697 -0.3250
 3058SOL     OW11963   2.801   2.789   1.280  0.4934 -0.1453  0.4128
 3058SOL    HW211964   2.729   2.762   1.223 -0.9777 -0.2196  2.2203
 3058SOL    HW311965   2.880   2.756   1.237 -0.5248 -0.0518 -1.6385
 3058SOL    MW411966   2.802   2.781   1.267 -0.2281  1.1377  0.5428
 3059SOL     OW11967   3.098   1.915   5.630  0.0376 -0.0561 -0.5928
 3059SOL    HW211968   3.167   1.898   5.566  0.1883 -0.5284 -0.3117
 3059SOL    HW311969   3.130   1.875   5.711  1.8850  4.2084  1.0607
 3059SOL    MW411970   3.112   1.907   5.632 -0.2558 -0.4259 -0.3576
 3060SOL     OW11971   0.347   5.740   2.488  0.0854 -0.3104 -0.3978
 3060SOL    HW211972   0.400   5.765   2.564  1.8988 -0.3438 -1.5859
 3060SOL    HW311973   0.303   5.659   2.515 -0.8194  0.6769  1.2473
 3060SOL    MW411974   0.348   5.733   2.501  0.1090  0.8670 -0.5721
 3061SOL     OW11975   4.211   3.778   2.485 -0.2008  0.1085  0.5545
 3061SOL    HW211976   4.146   3.810   2.548  0.6082  1.1054  0.9126
 3061SOL    HW311977   4.290   3.829   2.504  0.1946  0.1173 -0.9880
 3061SOL    MW411978   4.213   3.789   2.496 -0.3867 -0.1772 -0.5997
 3062SOL     OW11979   0.699   6.021   0.239  0.1091  0.3468 -0.0370
 3062SOL    HW211980   0.744   6.037   0.322 -1.3144 -1.5732  1.1907
 3062SOL    HW311981   0.610   6.053   0.253  0.1127  0.9388 -1.2134
 3062SOL    MW411982   0.693   6.027   0.251  0.3779  0.4432 -0.2883
 3063SOL     OW11983   0.439   1.429   1.763  0.2495 -1.0753  0.2607
 3063SOL    HW211984   0.451   1.517   1.797 -0.6400 -1.1002  0.6785
 3063SOL    HW311985   0.352   1.431   1.722  0.3043 -1.6994  0.0959
 3063SOL    MW411986   0.429   1.441   1.762  0.3182 -0.0930 -0.2308
 3064SOL     OW11987   0.990   3.557   3.240 -0.8411 -0.1322  0.4794
 3064SOL    HW211988   0.988   3.648   3.210 -0.2853 -0.0069  0.8106
 3064SOL    HW311989   0.981   3.563   3.335 -0.9056 -0.4312  0.4930
 3064SOL    MW411990   0.989   3.570   3.249 -0.0886 -0.3825  0.3705
 3065SOL     OW11991   1.669   3.313   5.543  0.3043  0.4096  0.0111
 3065SOL    HW211992   1.752   3.331   5.499 -0.2279  0.8614 -0.8264
 3065SOL    HW311993   1.665   3.377   5.614  0.6814  0.3613  0.0789
 3065SOL    MW411994   1.679   3.323   5.546 -0.3878  0.2484  0.5534
 3066SOL     OW11995   5.769   5.652   3.450 -0.1800  0.2002 -0.4294
 3066SOL    HW211996   5.820   5.589   3.501 -0.5830  0.9366  0.9258
 3066SOL    HW311997   5.692   5.671   3.504 -0.2239  1.5982 -0.9340
 3066SOL    MW411998   5.766   5.646   3.464  0.0820 -0.6286 -0.2300
 3067SOL     OW11999   4.653   6.265   2.166  0.5151  0.4759 -0.0621
 3067SOL    HW212000   4.608   6.347   2.149  0.1132  0.0358 -1.2015
 3067SOL    HW312001   4.669   6.265   2.261 -1.9840  0.5992  0.4142
 3067SOL    MW412002   4.649   6.276   2.177 -0.2996  0.4637  0.7167
 3068SOL     OW12003   2.882   1.396   1.078 -0.1965  0.2671 -0.0120
 3068SOL    HW212004   2.831   1.356   1.008 -0.4479  1.6095 -0.6231
 3068SOL    HW312005   2.962   1.343   1.082 -0.6842 -0.5368 -0.5059
 3068SOL    MW412006   2.886   1.384   1.069  0.2764  0.7183  0.5180
 3069SOL     OW12007   0.491   1.682   2.211  0.2663 -0.2742  0.2700
 3069SOL    HW212008   0.553   1.619   2.248 -0.7063 -1.2634  0.2674
 3069SOL    HW312009   0.485   1.658   2.118  0.0267 -0.0609  0.2293
 3069SOL    MW412010   0.498   1.670   2.203 -0.1898 -0.5295  0.5071
 3070SOL     OW12011   0.506   6.280   1.754  0.3813 -0.5082  0.4760
 3070SOL    HW212012   0.536   6.218   1.821 -2.1087 -2.7492 -0.3565
 3070SOL    HW312013   0.581   6.289   1.695  1.2670 -1.6247  1.3740
 3070SOL    MW412014   0.520   6.273   1.755 -0.3092 -0.2538 -0.0191
 3071SOL     OW12015   5.053   4.161   1.468  0.6460 -0.4200  0.0953
 3071SOL    HW212016   5.137   4.180   1.424 -0.3967  1.1140 -1.3552
 3071SOL    HW312017   5.052   4.066   1.477  2.7319 -0.4530  0.5676
 3071SOL    MW412018   5.064   4.151   1.463 -0.0786  0.7315  0.3942
 3072SOL     OW12019   2.081   2.422   0.738  0.3636 -0.0767 -0.4610
 3072SOL    HW212020   2.167   2.464   0.737  0.7975 -0.8267  1.1840
 3072SOL    HW312021   2.051   2.431   0.829 -1.3803  0.3235 -1.0454
 3072SOL    MW412022   2.088   2.428   0.750  0.1305  0.4089  0.3415
 3073SOL     OW12023   0.926   4.355   6.385 -0.3064 -0.2964 -0.6965
 3073SOL    HW212024   0.865   4.345   6.457 -1.0355 -1.4778 -1.4320
 3073SOL    HW312025   0.962   4.267   6.371  3.3218  0.6787  1.1392
 3073SOL    MW412026   0.923   4.342   6.392 -0.2132 -0.8017 -0.6310
 3074SOL     OW12027   3.081   3.982   1.223  0.2069  0.2910 -0.6878
 3074SOL    HW212028   3.032   3.901   1.214  0.3061  0.1277  0.0831
 3074SOL    HW312029   3.021   4.051   1.195 -1.6196  0.4214  2.9636
 3074SOL    MW412030   3.067   3.980   1.218  0.1214  0.4262 -0.3469
 3075SOL     OW12031   2.828   3.897   0.567  0.8029 -0.1873 -0.9375
 3075SOL    HW212032   2.862   3.956   0.500  0.4010 -1.3361 -2.1988
 3075SOL    HW312033   2.747   3.863   0.531  1.0513 -1.5692 -0.2919
 3075SOL    MW412034   2.822   3.900   0.554 -0.0092  0.4722  0.3206
 3076SOL     OW12035   4.805   3.063   5.903  0.5473 -0.4144  0.5874
 3076SOL    HW212036   4.807   3.158   5.901 -1.1452 -0.3326  0.9606
 3076SOL    HW312037   4.775   3.041   5.991  0.2810 -1.2552  0.3050
 3076SOL    MW412038   4.801   3.073   5.914 -0.0722 -0.1498  0.1317
 3077SOL     OW12039   0.165   4.264   6.112 -0.4589 -0.1813  0.6312
 3077SOL    HW212040   0.183   4.188   6.167 -1.5455  0.9531  2.6770
 3077SOL    HW312041   0.081   4.245   6.071  0.6775 -1.3382 -1.3274
 3077SOL    MW412042   0.156   4.251   6.114 -0.0171  0.4798  0.0681
 3078SOL     OW12043   6.089   1.967   1.471 -0.2611  0.0005  0.3789
 3078SOL    HW212044   6.161   2.002   1.418  0.7545 -0.2965  1.5269
 3078SOL    HW312045   6.119   1.881   1.499 -1.3110 -0.3713  0.4241
 3078SOL    MW412046   6.102   1.960   1.468 -0.1635 -0.0127 -0.2867
 3079SOL     OW12047   0.805   5.976   4.867  0.6363  0.2412 -0.9520
 3079SOL    HW212048   0.819   5.889   4.905 -0.6892  1.0321  1.6246
 3079SOL    HW312049   0.827   6.036   4.938 -0.2786  1.9302 -2.0459
 3079SOL    MW412050   0.809   5.972   4.882 -0.8153 -0.0329  0.4541
 3080SOL     OW12051   0.435   5.293   5.095  0.0528  0.3605  0.1701
 3080SOL    HW212052   0.459   5.225   5.032 -2.0013  1.5165 -2.0382
 3080SOL    HW312053   0.473   5.373   5.059 -0.0326  0.8597  1.1567
 3080SOL    MW412054   0.443   5.294   5.082  0.3034  0.1384  0.0273
 3081SOL     OW12055   5.656   2.982   3.467 -0.0510 -0.6305 -0.0036
 3081SOL    HW212056   5.675   3.056   3.410  1.7075 -0.8187  0.2925
 3081SOL    HW312057   5.720   2.988   3.537 -1.7362 -0.7990  1.6177
 3081SOL    MW412058   5.667   2.993   3.468 -0.9771 -0.2687  0.5752
 3082SOL     OW12059   5.637   2.640   1.762 -0.0148 -0.1349  0.0596
 3082SOL    HW212060   5.709   2.677   1.711  0.6309 -1.4435 -0.0314
 3082SOL    HW312061   5.665   2.550   1.781 -1.7688 -0.8043 -0.2979
 3082SOL    MW412062   5.650   2.633   1.758  0.3690 -0.1614 -0.3516
 3083SOL     OW12063   3.444   6.234   5.481  0.0922  0.5144  0.3504
 3083SOL    HW212064   3.434   6.328   5.467 -0.1040  0.1261 -3.3393
 3083SOL    HW312065   3.517   6.226   5.542  0.1758  3.0287  0.6877
 3083SOL    MW412066   3.452   6.245   5.487  0.8910  0.0548 -0.0851
 3084SOL     OW12067   0.938   0.256   1.352  0.1114 -0.0481  0.3403
 3084SOL    HW212068   1.020   0.300   1.371 -0.0484  1.1541 -1.4929
 3084SOL    HW312069   0.891   0.254   1.435  1.8101 -0.3917  1.3116
 3084SOL    MW412070   0.942   0.261   1.365 -0.2339  0.1258  0.5401
 3085SOL     OW12071   0.092   0.921   1.217  0.4871  0.3708 -0.3492
 3085SOL    HW212072   0.107   0.994   1.279 -0.4934 -0.2514  0.6521
 3085SOL    HW312073   0.131   0.845   1.260  1.4827  0.2737 -1.3795
 3085SOL    MW412074   0.099   0.921   1.231 -0.3799  0.5968 -0.0317
 3086SOL     OW12075   4.174   3.381   4.804  0.0543  0.1550 -0.2685
 3086SOL    HW212076   4.196   3.401   4.713 -0.4979  1.2992 -0.1802
 3086SOL    HW312077   4.222   3.301   4.824  2.0955  1.1746 -0.8327
 3086SOL    MW412078   4.183   3.373   4.794 -0.5674  0.1761 -0.1982
 3087SOL     OW12079   6.016   4.070   3.529 -0.0914 -0.2609  0.0198
 3087SOL    HW212080   5.954   4.085   3.458  1.4423  0.4773 -1.2149
 3087SOL    HW312081   6.031   3.975   3.527  1.0882 -0.1004 -1.7286
 3087SOL    MW412082   6.010   4.059   3.519  0.1059 -0.3480  1.1518
 3088SOL     OW12083   6.430   2.532   4.635 -0.3019  0.5940 -0.1616
 3088SOL    HW212084   6.433   2.617   4.678  0.6965 -0.0346  1.0959
 3088SOL    HW312085   6.374   2.545   4.559 -0.1558  2.3693 -0.0015
 3088SOL    MW412086   6.423   2.545   4.631 -0.1519  0.4540  0.1349
 3089SOL     OW12087   2.152   5.907   4.293 -0.3698  0.0054 -0.1625
 3089SOL    HW212088   2.136   5.973   4.226 -0.2615  2.4361  2.0446
 3089SOL    HW312089   2.123   5.948   4.375  1.8965 -1.7435  1.6754
 3089SOL    MW412090   2.146   5.921   4.295  0.1265 -0.1885 -0.2567
 3090SOL     OW12091   4.699   0.657   2.054 -0.5510  0.3182 -0.1137
 3090SOL    HW212092   4.720   0.575   2.098 -2.3393  0.0381  0.3196
 3090SOL    HW312093   4.612   0.681   2.088  0.2943  2.8785  0.4676
 3090SOL    MW412094   4.690   0.650   2.065  0.2012 -0.2008  0.6892
 3091SOL     OW12095   5.035   5.156   1.332 -0.0342 -0.1116  0.2127
 3091SOL    HW212096   5.001   5.087   1.388 -0.7603  1.2749  1.5390
 3091SOL    HW312097   5.126   5.167   1.359  0.2998 -1.0124 -0.5010
 3091SOL    MW412098   5.043   5.149   1.343 -0.6516  0.3173 -0.1330
 3092SOL     OW12099   3.657   3.683   6.365 -0.3644 -0.2110  0.0275
 3092SOL    HW212100   3.652   3.752   6.298  1.5011 -0.3900 -0.3502
 3092SOL    HW312101   3.572   3.687   6.409 -0.9444  1.1715 -1.1101
 3092SOL    MW412102   3.645   3.693   6.362 -0.1676 -0.5343  0.3251
 3093SOL     OW12103   5.907   6.042   1.913 -0.4155  0.1700  0.0803
 3093SOL    HW212104   5.955   6.124   1.911  1.4657 -0.9008 -0.9093
 3093SOL    HW312105   5.878   6.029   1.823 -2.8239  0.8668  0.6682
 3093SOL    MW412106   5.909   6.051   1.901 -0.4928  0.1091 -0.0396
 3094SOL     OW12107   6.064   2.139   0.735 -0.0145  0.0586 -0.0162
 3094SOL    HW212108   6.002   2.211   0.744 -0.0058  0.0258  0.3011
 3094SOL    HW312109   6.017   2.062   0.766  0.1971  0.0403  0.2636
 3094SOL    MW412110   6.050   2.138   0.740 -0.8658 -0.1410  0.5099
 3095SOL     OW12111   1.129   5.331   3.470 -0.1244  0.5674  0.1895
 3095SOL    HW212112   1.177   5.334   3.387 -1.1792  0.6616 -0.4349
 3095SOL    HW312113   1.078   5.411   3.471 -1.6534 -0.3675 -0.0334
 3095SOL    MW412114   1.129   5.342   3.459 -0.1073  0.1078 -0.6224
 3096SOL     OW12115   3.870   4.297   2.663 -0.2561 -1.3244 -0.2728
 3096SOL    HW212116   3.783   4.310   2.699  0.0950 -0.0389  0.2037
 3096SOL    HW312117   3.923   4.268   2.738  0.7718  2.5914  0.7866
 3096SOL    MW412118   3.866   4.295   2.678  0.5319  0.4406 -0.0828
 3097SOL     OW12119   2.901   4.334   1.234 -0.1045  0.4041 -0.8436
 3097SOL    HW212120   2.835   4.277   1.194 -0.2687 -0.1943  0.2503
 3097SOL    HW312121   2.880   4.422   1.201 -0.7936  0.0652 -1.3333
 3097SOL    MW412122   2.889   4.338   1.224  0.3990 -0.0602  0.4936
 3098SOL     OW12123   2.894   1.859   0.196  0.5085  0.1624 -0.4312
 3098SOL    HW212124   2.926   1.795   0.132  0.2798  0.6029 -0.9896
 3098SOL    HW312125   2.911   1.817   0.281  2.6862  0.4178 -0.6833
 3098SOL    MW412126   2.901   1.845   0.198 -0.3072 -0.5581 -0.1937
 3099SOL     OW12127   3.001   3.681   6.208 -0.4268  0.1534 -0.0143
 3099SOL    HW212128   3.084   3.634   6.217 -1.2695 -1.1033  1.7233
 3099SOL    HW312129   2.951   3.630   6.145 -1.3243 -1.3691  1.8389
 3099SOL    MW412130   3.006   3.668   6.201  0.1102  0.5068 -0.2746
 3100SOL     OW12131   6.223   0.242   5.495 -0.3791  0.2224 -0.2686
 3100SOL    HW212132   6.267   0.326   5.485  1.9427 -0.6720  1.5206
 3100SOL    HW312133   6.247   0.193   5.416 -2.0483  1.2628 -1.5026
 3100SOL    MW412134   6.232   0.247   5.483 -0.0535 -0.5734 -0.1131
 3101SOL     OW12135   4.584   2.296   2.360  0.0980  0.1770 -0.0337
 3101SOL    HW212136   4.596   2.260   2.272  2.3184  2.0555 -0.5694
 3101SOL    HW312137   4.627   2.232   2.417 -1.1416 -0.9288 -0.2684
 3101SOL    MW412138   4.591   2.283   2.356 -0.1278  0.5032 -0.3235
 3102SOL     OW12139   4.068   4.072   2.193 -0.2574 -0.9888 -0.3366
 3102SOL    HW212140   4.069   4.160   2.232  0.8978 -1.1135 -0.0517
 3102SOL    HW312141   4.081   4.087   2.100  1.7540 -0.9172 -0.0890
 3102SOL    MW412142   4.070   4.086   2.186  0.5794  0.1124  0.5632
 3103SOL     OW12143   5.640   4.053   5.471  0.4284  0.1862  0.0087
 3103SOL    HW212144   5.573   4.025   5.409  0.5948 -2.5380  0.9341
 3103SOL    HW312145   5.592   4.076   5.550  0.4632  0.2709  0.0060
 3103SOL    MW412146   5.625   4.053   5.473 -0.3898 -0.0266  0.0792
 3104SOL     OW12147   3.743   0.888   2.497 -0.6166 -0.0974  0.0864
 3104SOL    HW212148   3.720   0.815   2.439  1.1271 -0.0405 -0.7501
 3104SOL    HW312149   3.823   0.860   2.540 -0.8778  0.6347  1.0823
 3104SOL    MW412150   3.751   0.875   2.495  0.0303  0.6041 -0.2186
 3105SOL     OW12151   0.254   0.312   3.123 -0.4094  0.1774  0.3647
 3105SOL    HW212152   0.294   0.232   3.089  2.1555  1.5900 -0.1795
 3105SOL    HW312153   0.211   0.285   3.204 -1.2109 -2.0558 -0.7248
 3105SOL    MW412154   0.253   0.298   3.129  0.0362 -0.0549  0.3343
 3106SOL     OW12155   1.614   6.360   0.654  0.2015 -0.6942 -0.2965
 3106SOL    HW212156   1.554   6.354   0.729 -0.6073  0.2876 -0.8417
 3106SOL    HW312157   1.650   6.272   0.645  0.2338 -0.8637  1.1694
 3106SOL    MW412158   1.611   6.348   0.663  0.1997  0.2780 -0.3627
 3107SOL     OW12159   6.330   0.230   1.070  0.2174  0.9760 -0.2715
 3107SOL    HW212160   6.252   0.178   1.091 -0.0873  1.5882  0.1448
 3107SOL    HW312161   6.297   0.300   1.014  0.2836  1.8113  0.7080
 3107SOL    MW412162   6.315   0.232   1.066  0.3237  0.6793  0.1815
 3108SOL     OW12163   4.588   0.713   3.061  0.1449 -0.0398 -0.6919
 3108SOL    HW212164   4.621   0.736   3.147 -0.3201  0.7894 -0.7237
 3108SOL    HW312165   4.505   0.667   3.078  1.3195 -2.2462 -0.6057
 3108SOL    MW412166   4.581   0.710   3.074 -0.1427 -0.1115  0.0543
 3109SOL     OW12167   1.536   3.069   5.966  0.1701 -0.0271  0.3059
 3109SOL    HW212168   1.573   3.054   5.879  0.3354  0.1783  0.3414
 3109SOL    HW312169   1.443   3.084   5.950  0.2599  0.3482  0.1342
 3109SOL    MW412170   1.529   3.069   5.952  0.1788  0.9265 -0.2687
 3110SOL     OW12171   5.899   2.064   3.403 -0.4279  0.2874  0.2300
 3110SOL    HW212172   5.852   1.981   3.398  0.8046 -0.4990  1.0617
 3110SOL    HW312173   5.888   2.092   3.494 -0.5873  0.9046  0.0294
 3110SOL    MW412174   5.891   2.057   3.415  0.6971  0.2423  0.2844
 3111SOL     OW12175   1.764   4.861   2.762 -0.5794 -0.3499  0.6558
 3111SOL    HW212176   1.804   4.844   2.848  2.0095  0.6150 -0.2569
 3111SOL    HW312177   1.827   4.917   2.717 -2.6960  0.6584 -1.2561
 3111SOL    MW412178   1.778   4.866   2.767 -0.0276  0.2186 -0.2932
 3112SOL     OW12179   4.628   5.825   1.105  0.6649  0.1546  0.2754
 3112SOL    HW212180   4.715   5.819   1.144  0.8280 -0.2692 -0.1416
 3112SOL    HW312181   4.610   5.736   1.072 -0.0871  0.1383  0.7027
 3112SOL    MW412182   4.637   5.812   1.106  0.8311 -0.7181 -0.0573
 3113SOL     OW12183   2.307   0.126   2.118 -0.0051 -0.4031 -0.0911
 3113SOL    HW212184   2.245   0.072   2.167 -0.2588 -0.5039 -0.5110
 3113SOL    HW312185   2.252   0.192   2.074  0.4829  1.7857  2.3315
 3113SOL    MW412186   2.291   0.128   2.119  0.2395  0.3731 -0.3500
 3114SOL     OW12187   3.145   6.236   4.387 -0.3220  0.4209  0.5837
 3114SOL    HW212188   3.068   6.287   4.362  0.4070  1.1013 -0.3749
 3114SOL    HW312189   3.114   6.174   4.453 -2.1025 -0.5508 -1.0609
 3114SOL    MW412190   3.131   6.234   4.392  0.0921  0.3018 -0.2446
 3115SOL     OW12191   3.399   1.960   0.229  0.6261  0.3379 -0.1950
 3115SOL    HW212192   3.453   1.947   0.151  0.6622  3.5730 -0.8373
 3115SOL    HW312193   3.439   2.034   0.274 -1.4752  0.8405  0.9810
 3115SOL    MW412194   3.411   1.968   0.225  0.1443  0.3256 -0.5318
 3116SOL     OW12195   0.708   1.528   2.346 -0.7930 -0.6102 -0.4029
 3116SOL    HW212196   0.711   1.456   2.409 -0.0726 -1.0781 -0.9473
 3116SOL    HW312197   0.778   1.508   2.284 -1.1918  0.0775 -1.0951
 3116SOL    MW412198   0.718   1.516   2.346  0.3754  0.1479  0.0757
 3117SOL     OW12199   4.240   5.660   5.767  0.2560 -0.3932 -0.6203
 3117SOL    HW212200   4.231   5.745   5.809  0.1927 -0.4355 -0.5471
 3117SOL    HW312201   4.153   5.620   5.776  0.0699 -0.1671 -1.3063
 3117SOL    MW412202   4.227   5.666   5.774  0.0035  0.3379  0.3670
 3118SOL     OW12203   1.370   3.949   0.354 -0.0345 -0.2670 -0.0246
 3118SOL    HW212204   1.408   4.002   0.424  2.1046  0.0521 -1.3473
 3118SOL    HW312205   1.446   3.915   0.306 -1.4017 -2.2549 -0.8889
 3118SOL    MW412206   1.385   3.951   0.357 -1.0225 -0.0757  0.5312
 3119SOL     OW12207   4.298   1.609   3.808 -0.1444  0.3246 -0.0691
 3119SOL    HW212208   4.349   1.690   3.800  0.7589 -0.1434  0.8048
 3119SOL    HW312209   4.234   1.628   3.877 -1.1327  0.8826 -1.1062
 3119SOL    MW412210   4.296   1.623   3.816 -0.5328 -0.9509  0.0756
 3120SOL     OW12211   5.423   6.398   1.857 -0.3825 -0.4969 -0.3058
 3120SOL    HW212212   5.409   6.315   1.812 -1.4665 -0.2766 -0.4150
 3120SOL    HW312213   5.387   6.464   1.797  1.2763  0.1587 -0.6264
 3120SOL    MW412214   5.416   6.396   1.843  0.2199 -0.2589 -0.1663
 3121SOL     OW12215   3.391   0.998   5.558 -0.2737 -0.2976  0.1776
 3121SOL    HW212216   3.377   0.929   5.622 -0.7349  0.8320  1.3406
 3121SOL    HW312217   3.308   1.002   5.510  0.0414 -1.0844 -0.4559
 3121SOL    MW412218   3.378   0.989   5.560  0.3606  0.1635 -0.0834
 3122SOL     OW12219   0.125   4.774   2.920 -0.0667 -0.3977  0.2196
 3122SOL    HW212220   0.168   4.858   2.935 -1.7058  0.5860 -0.3817
 3122SOL    HW312221   0.110   4.772   2.825 -0.1504 -1.3253  0.2459
 3122SOL    MW412222   0.129   4.785   2.909 -0.3370  0.5096  0.3812
 3123SOL     OW12223   3.179   2.153   0.134  0.0770 -0.2034 -0.0080
 3123SOL    HW212224   3.085   2.152   0.152  0.0294  2.0584  0.1013
 3123SOL    HW312225   3.214   2.081   0.187 -1.2438  0.6767  2.2222
 3123SOL    MW412226   3.171   2.143   0.144  0.2291  0.3163 -0.5468
 3124SOL     OW12227   1.606   2.600   2.853  0.2884 -0.0485 -0.3591
 3124SOL    HW212228   1.685   2.571   2.807 -0.4997 -0.7499 -1.2894
 3124SOL    HW312229   1.578   2.523   2.903 -0.6709 -0.2950 -1.2520
 3124SOL    MW412230   1.613   2.586   2.854  0.1366 -0.0613 -0.1831
 3125SOL     OW12231   1.725   5.198   5.760  0.0693 -0.3562 -0.1862
 3125SOL    HW212232   1.711   5.104   5.747 -0.9523 -0.4082  1.0915
 3125SOL    HW312233   1.797   5.202   5.823 -0.3260 -0.2945  0.2594
 3125SOL    MW412234   1.733   5.186   5.766  0.0565 -0.1408 -0.7167
 3126SOL     OW12235   0.805   2.696   3.803  0.6700 -0.3237 -0.2618
 3126SOL    HW212236   0.793   2.694   3.708  0.4272 -1.3303 -0.2223
 3126SOL    HW312237   0.821   2.788   3.823  1.5844 -0.2171 -1.3782
 3126SOL    MW412238   0.806   2.708   3.793  0.1208 -0.3549  0.4597
 3127SOL     OW12239   6.227   1.860   4.668  0.5210  0.3619 -0.4636
 3127SOL    HW212240   6.265   1.874   4.755 -0.1000  1.8859 -0.4105
 3127SOL    HW312241   6.278   1.918   4.611  0.2043  0.1891 -0.9221
 3127SOL    MW412242   6.239   1.869   4.672  0.2617  0.1572 -0.4761
 3128SOL     OW12243   1.531   5.176   3.204  0.1547  0.4719  0.3505
 3128SOL    HW212244   1.593   5.162   3.275  0.3323  0.6529  0.2305
 3128SOL    HW312245   1.583   5.213   3.133 -0.0740  0.5491  0.2206
 3128SOL    MW412246   1.546   5.179   3.204  0.0957 -0.5207 -0.4084
 3129SOL     OW12247   6.399   5.477   4.085 -0.4413 -0.5426  0.1638
 3129SOL    HW212248   6.419   5.400   4.033 -2.1201  0.3163 -1.8963
 3129SOL    HW312249   6.456   5.546   4.048  1.2514 -0.7696  2.1633
 3129SOL    MW412250   6.409   5.476   4.073  0.1175 -0.2326 -0.1184
 3130SOL     OW12251   0.137   5.766   6.015  0.1423  0.1489 -0.3815
 3130SOL    HW212252   0.052   5.808   6.006 -0.0935  0.1005  1.3177
 3130SOL    HW312253   0.200   5.834   5.990 -0.3561  0.2134 -1.5549
 3130SOL    MW412254   0.134   5.780   6.010 -0.3227 -0.2382  0.0554
 3131SOL     OW12255   1.679   2.387   0.568  0.6264  0.1838 -0.7212
 3131SOL    HW212256   1.698   2.304   0.610 -1.9845 -0.3558 -0.4207
 3131SOL    HW312257   1.750   2.399   0.504  2.1757 -1.1984  0.6665
 3131SOL    MW412258   1.691   2.378   0.565 -0.0232 -0.0824 -0.4112
 3132SOL     OW12259   5.130   3.347   5.994 -0.3929 -0.4220  0.1581
 3132SOL    HW212260   5.172   3.412   5.937  2.0404 -0.7036  1.4709
 3132SOL    HW312261   5.156   3.374   6.083  0.9156 -3.2462  0.7417
 3132SOL    MW412262   5.139   3.359   5.998  0.1147  0.0539  0.5680
 3133SOL     OW12263   2.394   5.777   3.053 -0.3492 -0.0939  0.5298
 3133SOL    HW212264   2.431   5.845   2.996  0.5619 -0.6339  0.4557
 3133SOL    HW312265   2.300   5.799   3.058 -0.1366  0.9621  0.2372
 3133SOL    MW412266   2.386   5.789   3.046 -0.2342  0.5969 -0.5389
 3134SOL     OW12267   4.521   2.280   0.943  0.0616 -0.0980 -0.3939
 3134SOL    HW212268   4.592   2.276   0.879  0.9799 -0.8506  0.6310
 3134SOL    HW312269   4.527   2.198   0.991 -2.3907 -0.7944 -1.1621
 3134SOL    MW412270   4.531   2.269   0.941  0.1393  0.7410  0.1687
 3135SOL     OW12271   6.050   2.883   4.697 -0.2495 -0.4926  0.5526
 3135SOL    HW212272   6.064   2.971   4.661 -3.2385 -0.0989  0.1056
 3135SOL    HW312273   6.052   2.826   4.620  1.7576 -0.9012  0.8501
 3135SOL    MW412274   6.052   2.887   4.682  0.4103  0.7210  0.0875
 3136SOL     OW12275   0.427   0.134   3.459  0.1693 -0.6124  0.4752
 3136SOL    HW212276   0.359   0.180   3.508  2.0580  3.2304 -0.0955
 3136SOL    HW312277   0.500   0.128   3.520  0.7044 -0.8333 -0.1821
 3136SOL    MW412278   0.428   0.139   3.473  0.7970  0.2076 -0.5806
 3137SOL     OW12279   5.392   6.010   5.621  0.2817 -0.2438  0.4092
 3137SOL    HW212280   5.307   5.973   5.595 -0.1669 -0.0411  1.5420
 3137SOL    HW312281   5.372   6.063   5.698  1.3869  0.1054  0.4636
 3137SOL    MW412282   5.378   6.012   5.628 -0.8452  0.6460 -0.1222
 3138SOL     OW12283   5.128   1.756   5.383  0.1125  0.2682 -0.1395
 3138SOL    HW212284   5.044   1.719   5.410  0.0827  0.4977  0.0912
 3138SOL    HW312285   5.162   1.695   5.317 -0.3751  0.3397 -0.4561
 3138SOL    MW412286   5.122   1.743   5.378  0.3518 -0.4577  0.0076
 3139SOL     OW12287   0.157   4.785   0.487  0.2693  0.1000 -0.1502
 3139SOL    HW212288   0.209   4.723   0.537 -0.7558 -1.2563 -0.6934
 3139SOL    HW312289   0.221   4.834   0.435  1.1863  0.3201  1.1483
 3139SOL    MW412290   0.172   4.783   0.486 -0.2517  0.0564 -0.6090
 3140SOL     OW12291   3.207   5.329   5.826  0.4720 -0.0873 -0.5010
 3140SOL    HW212292   3.183   5.266   5.894  0.5104  2.0145  1.6157
 3140SOL    HW312293   3.123   5.364   5.795  0.4813  0.7092  0.3079
 3140SOL    MW412294   3.193   5.326   5.831 -0.3299  0.0987  0.4849
 3141SOL     OW12295   4.881   2.256   0.343 -0.3820  0.3004  0.1963
 3141SOL    HW212296   4.838   2.172   0.360 -0.2995 -0.1594 -1.6781
 3141SOL    HW312297   4.887   2.297   0.429  1.4276 -2.4704  1.5493
 3141SOL    MW412298   4.876   2.250   0.357  0.1874  0.1873 -0.8211
 3142SOL     OW12299   5.169   3.140   2.391 -0.2385  0.6404  0.0606
 3142SOL    HW212300   5.119   3.079   2.337 -0.0648  0.9939 -0.5129
 3142SOL    HW312301   5.249   3.093   2.413  0.5231  1.1227 -1.5328
 3142SOL    MW412302   5.173   3.126   2.387 -0.1270 -0.8961  0.2184
 3143SOL     OW12303   3.264   0.874   2.823  0.0261 -0.4123 -0.0672
 3143SOL    HW212304   3.177   0.850   2.792 -0.0495  1.7947 -1.7806
 3143SOL    HW312305   3.324   0.834   2.760  0.1694 -0.4572  0.0948
 3143SOL    MW412306   3.261   0.866   2.811  0.6149  0.4227 -0.1030
 3144SOL     OW12307   1.899   1.423   3.680  0.2550  0.0361 -0.1754
 3144SOL    HW212308   1.892   1.511   3.718 -0.1398 -0.1173  0.1127
 3144SOL    HW312309   1.879   1.364   3.752  1.8557 -0.3574 -0.0013
 3144SOL    MW412310   1.896   1.427   3.694 -0.0504  0.2552 -0.2001
 3145SOL     OW12311   5.696   4.485   5.044 -0.4121  0.0991  0.2945
 3145SOL    HW212312   5.694   4.571   5.087  1.7860  0.4370 -0.1586
 3145SOL    HW312313   5.671   4.424   5.112  0.0788  0.9128  1.2372
 3145SOL    MW412314   5.693   4.489   5.058 -0.3237  0.7144 -0.1270
 3146SOL     OW12315   0.261   1.295   3.014 -0.2202 -0.2897  0.0942
 3146SOL    HW212316   0.205   1.219   3.026 -0.3951  0.1171  2.2575
 3146SOL    HW312317   0.350   1.264   3.033 -0.3590  0.1062  1.5715
 3146SOL    MW412318   0.266   1.281   3.018 -0.4377  0.5905 -0.6022
 3147SOL     OW12319   2.051   3.096   3.373 -0.9570 -1.1132  0.1961
 3147SOL    HW212320   2.091   3.179   3.402 -2.5466 -0.9139  1.9840
 3147SOL    HW312321   2.088   3.030   3.431 -0.9481 -1.4227 -0.1536
 3147SOL    MW412322   2.061   3.098   3.384 -0.5006  0.1592 -0.0060
 3148SOL     OW12323   2.465   0.550   0.639 -0.3501 -0.3188  0.0020
 3148SOL    HW212324   2.415   0.604   0.577  0.7920 -0.4808 -1.1065
 3148SOL    HW312325   2.475   0.466   0.594 -0.0911 -0.6704  0.7088
 3148SOL    MW412326   2.459   0.546   0.625 -0.5211  0.1801 -0.4608
 3149SOL     OW12327   0.119   2.235   3.255 -0.3616 -0.4759  0.2895
 3149SOL    HW212328   0.100   2.142   3.249 -1.3365 -0.3208  0.8151
 3149SOL    HW312329   0.173   2.243   3.334  0.0238 -0.6387  0.0433
 3149SOL    MW412330   0.124   2.224   3.265 -0.6914  0.8262  0.4193
 3150SOL     OW12331   5.126   2.450   4.621  0.0808 -0.2413 -0.0021
 3150SOL    HW212332   5.048   2.473   4.572  1.8808  1.9083 -2.1273
 3150SOL    HW312333   5.159   2.533   4.655  2.7631 -0.5713 -1.4351
 3150SOL    MW412334   5.120   2.464   4.619 -0.2709  0.3783  0.5705
 3151SOL     OW12335   6.345   5.861   5.897 -0.3076 -0.2681 -0.5582
 3151SOL    HW212336   6.369   5.919   5.825  0.8148  0.7905  0.6216
 3151SOL    HW312337   6.274   5.908   5.941  0.6167  0.2586  0.4111
 3151SOL    MW412338   6.338   5.875   5.893  0.6740 -0.0614  0.1713
 3152SOL     OW12339   1.699   4.910   3.567 -0.5749  0.2179 -0.0517
 3152SOL    HW212340   1.709   4.815   3.565 -0.7917  0.1980 -0.2664
 3152SOL    HW312341   1.766   4.940   3.628  0.2886  0.0308 -0.8789
 3152SOL    MW412342   1.709   4.902   3.575 -0.0172  0.4893 -0.1826
 3153SOL     OW12343   0.538   1.255   4.119  0.1156  0.4769 -0.0972
 3153SOL    HW212344   0.626   1.273   4.151  0.3020  1.3542 -1.0111
 3153SOL    HW312345   0.522   1.163   4.138  2.0184 -0.2377 -1.6481
 3153SOL    MW412346   0.547   1.245   4.125 -0.1715 -0.2432 -0.8747
 3154SOL     OW12347   6.349   5.528   6.133 -0.2978  0.3404 -0.3710
 3154SOL    HW212348   6.433   5.555   6.172  0.5390 -0.4724 -1.5363
 3154SOL    HW312349   6.360   5.548   6.039 -0.6910 -1.4623 -0.8290
 3154SOL    MW412350   6.362   5.534   6.126  0.4401  0.5012 -0.1157
 3155SOL     OW12351   0.865   3.077   2.156 -0.1013  0.5097  0.1879
 3155SOL    HW212352   0.791   3.138   2.150 -0.2084  0.2365 -1.7367
 3155SOL    HW312353   0.831   3.002   2.205 -1.0787  0.4484 -0.5566
 3155SOL    MW412354   0.851   3.075   2.162 -0.6433  0.0624  0.1713
 3156SOL     OW12355   2.496   4.939   1.697 -0.5964 -0.2070  0.0156
 3156SOL    HW212356   2.546   4.871   1.741 -0.6323  0.5622  1.2923
 3156SOL    HW312357   2.563   4.998   1.662 -0.5304 -1.4145 -2.0293
 3156SOL    MW412358   2.512   4.938   1.698  0.0632  0.5878 -0.0782
 3157SOL     OW12359   4.178   1.392   4.012  0.4638  0.5508 -0.3162
 3157SOL    HW212360   4.120   1.468   4.017  0.5676  0.5673  2.3533
 3157SOL    HW312361   4.258   1.420   4.057  1.5170 -0.3302 -1.5867
 3157SOL    MW412362   4.181   1.405   4.019  0.1629  0.6538 -0.8989
 3158SOL     OW12363   3.298   5.510   2.953  0.4091 -0.1612 -0.4157
 3158SOL    HW212364   3.271   5.433   2.904  1.6283 -0.3878 -0.7520
 3158SOL    HW312365   3.219   5.536   3.001 -0.1710 -1.2800 -0.7233
 3158SOL    MW412366   3.284   5.503   2.953 -0.7178  0.2570  0.4995
 3159SOL     OW12367   3.912   5.174   2.965  0.4259 -0.5078 -0.0652
 3159SOL    HW212368   3.868   5.259   2.969  2.3986  0.5337  2.3899
 3159SOL    HW312369   3.906   5.141   3.055  1.7411 -1.8674 -0.4458
 3159SOL    MW412370   3.905   5.181   2.978 -0.4632 -0.1441 -0.3267
 3160SOL     OW12371   2.261   2.562   3.723 -0.1359  0.8571  0.3494
 3160SOL    HW212372   2.293   2.652   3.710  0.4954  0.5318 -0.4577
 3160SOL    HW312373   2.276   2.519   3.639 -1.9297  0.4307  0.2197
 3160SOL    MW412374   2.267   2.568   3.710 -0.2970 -0.2886  0.0312
 3161SOL     OW12375   3.608   3.798   3.646  0.6918  0.2237 -0.5652
 3161SOL    HW212376   3.680   3.787   3.582  0.2686  0.7616 -1.1415
 3161SOL    HW312377   3.560   3.874   3.615 -0.8589 -0.8485 -0.8818
 3161SOL    MW412378   3.611   3.807   3.633 -0.1068 -0.0419  0.1605
 3162SOL     OW12379   3.559   2.058   4.821 -0.3498  0.0668  0.1519
 3162SOL    HW212380   3.629   2.084   4.763 -3.5712  1.5689 -3.4962
 3162SOL    HW312381   3.520   2.140   4.851 -1.8553 -0.6589  0.2934
 3162SOL    MW412382   3.563   2.072   4.817  0.4287  0.0396  0.5901
 3163SOL     OW12383   2.384   5.929   2.312  0.3533 -0.0963  0.3593
 3163SOL    HW212384   2.438   5.980   2.373  1.3246 -1.8113  0.9902
 3163SOL    HW312385   2.294   5.945   2.341  0.6661  0.8288  0.8641
 3163SOL    MW412386   2.379   5.938   2.324 -0.2440  0.1339 -0.2444
 3164SOL     OW12387   2.637   4.885   4.137 -0.1342 -0.3384 -0.4053
 3164SOL    HW212388   2.605   4.800   4.168 -0.1732 -0.4090 -0.6415
 3164SOL    HW312389   2.719   4.899   4.184 -0.2615 -0.3843 -0.1671
 3164SOL    MW412390   2.643   4.876   4.147 -0.3019  0.0293 -0.2422
 3165SOL     OW12391   5.112   3.566   0.264  0.1587  0.2484  0.2976
 3165SOL    HW212392   5.164   3.584   0.342  0.6100  0.1896  0.0120
 3165SOL    HW312393   5.070   3.650   0.243  1.0529  0.5948 -0.1446
 3165SOL    MW412394   5.113   3.580   0.271  0.3211  0.0109  0.3546
 3166SOL     OW12395   1.459   4.147   0.924  0.1268  0.6576 -0.1300
 3166SOL    HW212396   1.424   4.169   1.011  1.1806  2.4602 -0.1135
 3166SOL    HW312397   1.476   4.232   0.883  2.1612 -0.1408 -1.0648
 3166SOL    MW412398   1.457   4.162   0.930 -0.3930 -0.8915 -0.3423
 3167SOL     OW12399   5.804   0.224   6.337  0.2935 -0.1504  0.2424
 3167SOL    HW212400   5.753   0.292   6.381 -1.8220 -0.7160 -1.1648
 3167SOL    HW312401   5.775   0.142   6.377 -0.2898 -0.5119 -0.8579
 3167SOL    MW412402   5.793   0.222   6.348 -0.1188 -0.0045 -0.4795
 3168SOL     OW12403   0.351   6.228   4.954  0.1502  0.3982 -0.1369
 3168SOL    HW212404   0.355   6.323   4.962  0.9628  0.2082  2.3219
 3168SOL    HW312405   0.422   6.207   4.892  0.4399  1.3302 -0.1420
 3168SOL    MW412406   0.361   6.238   4.947 -0.5939 -0.1041 -0.0393
 3169SOL     OW12407   5.205   4.509   5.454  0.1473 -0.2577  0.2688
 3169SOL    HW212408   5.287   4.545   5.420  0.6085 -1.9236 -0.4821
 3169SOL    HW312409   5.139   4.576   5.435  0.5018 -0.7056 -3.2980
 3169SOL    MW412410   5.207   4.522   5.447  0.1259 -0.0207  0.0381
 3170SOL     OW12411   3.894   4.312   3.786  0.4243 -0.4015  0.0380
 3170SOL    HW212412   3.958   4.378   3.758  1.8384 -2.1604 -1.1519
 3170SOL    HW312413   3.905   4.240   3.723 -1.7264 -1.3811  0.6984
 3170SOL    MW412414   3.904   4.311   3.774  0.2662 -0.5758  0.4151
 3171SOL     OW12415   5.516   4.533   1.630  0.0243  0.0630 -0.3717
 3171SOL    HW212416   5.503   4.620   1.667 -2.4292 -0.5888  0.4769
 3171SOL    HW312417   5.522   4.475   1.706  2.0302 -0.5340 -0.9057
 3171SOL    MW412418   5.515   4.537   1.645 -0.1193  0.0730 -0.2946
 3172SOL     OW12419   6.228   2.051   3.092 -0.0428  0.0072  0.4269
 3172SOL    HW212420   6.188   2.093   3.169  0.9451  2.2040 -0.1761
 3172SOL    HW312421   6.167   1.981   3.069 -1.3608  0.5462  2.0298
 3172SOL    MW412422   6.214   2.048   3.099 -0.1574 -0.1847 -0.2631
 3173SOL     OW12423   4.952   0.406   2.706  0.1472 -0.0091 -0.4108
 3173SOL    HW212424   4.923   0.497   2.708 -0.2431 -0.1454  0.7895
 3173SOL    HW312425   4.978   0.391   2.615 -0.3656  1.1133 -0.7574
 3173SOL    MW412426   4.952   0.416   2.694 -0.1192  0.0971 -0.4017
 3174SOL     OW12427   2.307   5.266   6.344  0.4703 -0.5221  0.5104
 3174SOL    HW212428   2.345   5.200   6.286 -1.1259  0.6429 -2.0646
 3174SOL    HW312429   2.232   5.223   6.384 -0.2423 -0.4960 -0.7377
 3174SOL    MW412430   2.302   5.252   6.341 -0.1682 -0.0204  0.3922
 3175SOL     OW12431   0.131   6.204   5.228  0.0125  0.7746 -0.0216
 3175SOL    HW212432   0.062   6.138   5.239 -1.1073  1.7087 -1.2060
 3175SOL    HW312433   0.139   6.215   5.133  1.7824  0.7390  0.0809
 3175SOL    MW412434   0.123   6.196   5.217  0.2210  0.6665 -0.3912
 3176SOL     OW12435   4.228   5.781   3.287  0.3820  0.3154  0.0133
 3176SOL    HW212436   4.258   5.705   3.238 -0.6107 -0.0999  0.0216
 3176SOL    HW312437   4.212   5.748   3.376  1.0813  0.8034  0.3237
 3176SOL    MW412438   4.230   5.767   3.293 -0.1585 -0.1408  0.0386
 3177SOL     OW12439   4.089   2.072   3.011  0.0380 -0.4563 -0.0968
 3177SOL    HW212440   4.109   1.982   3.038  0.7570 -0.5725 -0.9764
 3177SOL    HW312441   4.111   2.074   2.918 -0.3296  0.5339 -0.1703
 3177SOL    MW412442   4.094   2.060   3.002  0.4496 -0.4315 -0.5336
 3178SOL     OW12443   1.986   3.971   1.927  0.3581  0.9184 -0.7284
 3178SOL    HW212444   1.964   3.976   1.834  2.3090 -0.8414 -1.3903
 3178SOL    HW312445   1.965   3.881   1.952  0.4998  1.1687  0.3528
 3178SOL    MW412446   1.981   3.960   1.918 -0.1990 -0.9581  0.6572
 3179SOL     OW12447   0.285   2.332   3.473 -0.5551  0.4173 -0.4781
 3179SOL    HW212448   0.279   2.426   3.454 -0.6237  0.6150  0.4513
 3179SOL    HW312449   0.379   2.312   3.465 -0.3494  0.8650  0.5835
 3179SOL    MW412450   0.297   2.342   3.470 -0.3557 -1.2217  0.8662
 3180SOL     OW12451   0.521   5.387   1.435  0.2507 -0.1223  0.4275
 3180SOL    HW212452   0.609   5.363   1.408  0.2699  1.0210 -0.6294
 3180SOL    HW312453   0.467   5.313   1.409  0.6280 -0.0259 -0.6964
 3180SOL    MW412454   0.525   5.374   1.428 -0.0485 -0.4936  0.1316
 3181SOL     OW12455   4.796   5.445   3.603  0.1135 -0.5451  0.2146
 3181SOL    HW212456   4.823   5.365   3.558 -0.4730 -0.8417  0.3909
 3181SOL    HW312457   4.702   5.451   3.588  0.0788 -0.1228  0.5731
 3181SOL    MW412458   4.787   5.435   3.595  0.0454 -1.0148 -0.3483
 3182SOL     OW12459   1.218   6.327   2.754 -0.3211 -0.0143  0.2649
 3182SOL    HW212460   1.278   6.257   2.778 -1.7610 -0.5404  2.6009
 3182SOL    HW312461   1.272   6.406   2.756  1.0113 -0.8334 -1.0415
 3182SOL    MW412462   1.233   6.328   2.757 -0.0740  0.7452 -0.0521
 3183SOL     OW12463   1.561   5.244   2.800 -0.2847 -0.1128  0.7671
 3183SOL    HW212464   1.481   5.292   2.819  0.1724  0.7439  0.5602
 3183SOL    HW312465   1.531   5.158   2.770 -1.2333  1.0775 -1.9809
 3183SOL    MW412466   1.547   5.239   2.799 -0.3458  0.1979 -0.0085
 3184SOL     OW12467   0.391   0.415   3.324  0.3400  0.3639  0.0795
 3184SOL    HW212468   0.357   0.387   3.238  1.3859 -0.4697 -0.0798
 3184SOL    HW312469   0.403   0.333   3.372  0.6067  0.7716  0.7092
 3184SOL    MW412470   0.388   0.400   3.319  0.1723 -1.2365  0.7514
 3185SOL     OW12471   5.572   1.617   2.520 -0.5404  0.3711 -0.1875
 3185SOL    HW212472   5.494   1.670   2.503 -1.2927  0.5157  3.0901
 3185SOL    HW312473   5.645   1.679   2.514 -1.0538  1.0164  0.1162
 3185SOL    MW412474   5.571   1.632   2.517 -0.0531 -0.1228  0.1902
 3186SOL     OW12475   0.824   0.120   0.662  0.8611 -0.1720 -0.6834
 3186SOL    HW212476   0.803   0.068   0.739  0.2957  0.7051 -0.2329
 3186SOL    HW312477   0.752   0.182   0.654  1.0028 -0.1308 -1.8173
 3186SOL    MW412478   0.812   0.121   0.671  0.1338  0.9167  0.4115
 3187SOL     OW12479   2.576   5.082   5.566  0.5191  0.1184 -0.2199
 3187SOL    HW212480   2.631   5.051   5.494  0.9500 -1.2937  0.6720
 3187SOL    HW312481   2.495   5.031   5.557  0.2773  0.4795 -0.1230
 3187SOL    MW412482   2.572   5.071   5.555 -0.3035  0.2578  0.5063
 3188SOL     OW12483   6.119   2.517   0.748  0.1735 -0.3024 -0.0752
 3188SOL    HW212484   6.139   2.505   0.655 -2.5214 -2.3682 -0.5185
 3188SOL    HW312485   6.030   2.550   0.750 -0.8976 -2.9056  1.6984
 3188SOL    MW412486   6.110   2.520   0.736 -0.0031  0.4139  0.5420
 3189SOL     OW12487   5.864   5.516   5.785 -0.0785 -0.0355  0.2179
 3189SOL    HW212488   5.794   5.490   5.845  0.1703  0.0047  0.5251
 3189SOL    HW312489   5.826   5.506   5.698 -0.1479 -0.9424  0.3488
 3189SOL    MW412490   5.850   5.511   5.781 -0.0339  0.0640 -0.7403
 3190SOL     OW12491   1.937   0.177   0.924  0.1681  0.6442  0.0282
 3190SOL    HW212492   2.027   0.210   0.928 -0.1650  1.7018 -0.6531
 3190SOL    HW312493   1.932   0.131   0.840  0.1299  0.4011  0.1634
 3190SOL    MW412494   1.948   0.175   0.913 -0.1427  0.0748 -0.3682
 3191SOL     OW12495   0.832   5.986   6.090 -0.2595 -0.0900 -0.3131
 3191SOL    HW212496   0.794   5.999   6.177 -1.3668 -1.8956 -0.4676
 3191SOL    HW312497   0.916   5.943   6.107  0.0505  0.5852 -0.1077
 3191SOL    MW412498   0.838   5.982   6.104 -0.1600 -0.2592 -0.1147
 3192SOL     OW12499   0.871   6.103   2.845 -0.4142 -0.0559 -0.1165
 3192SOL    HW212500   0.906   6.182   2.887  0.1592 -0.0219 -0.6440
 3192SOL    HW312501   0.899   6.031   2.902 -2.5655  0.2291  1.4362
 3192SOL    MW412502   0.879   6.104   2.858  0.5699 -0.3250  0.2949
 3193SOL     OW12503   4.004   1.787   3.723 -0.8013 -0.0539  0.0445
 3193SOL    HW212504   4.017   1.757   3.813 -3.3716  0.6121  0.7364
 3193SOL    HW312505   3.962   1.713   3.679 -4.2161  1.1660  0.8927
 3193SOL    MW412506   4.000   1.773   3.729  0.2099  0.2178  0.4689
 3194SOL     OW12507   1.965   3.693   4.165  0.7291  0.1576  0.0739
 3194SOL    HW212508   2.037   3.660   4.111 -0.4761 -1.3654 -0.6931
 3194SOL    HW312509   1.944   3.620   4.223 -1.2128 -0.0503 -0.8098
 3194SOL    MW412510   1.972   3.679   4.165  0.4804 -0.4624 -0.5220
 3195SOL     OW12511   0.975   0.723   4.915  0.0094 -0.4947  0.3614
 3195SOL    HW212512   0.942   0.659   4.978 -3.9142 -0.4896 -1.4086
 3195SOL    HW312513   0.992   0.802   4.967 -1.2539 -1.0631  1.6875
 3195SOL    MW412514   0.973   0.725   4.930  0.6570 -0.1849 -0.2305
 3196SOL     OW12515   4.118   6.381   0.656 -0.1044  0.1244  0.2227
 3196SOL    HW212516   4.022   6.373   0.657 -0.2025  1.0798 -0.5662
 3196SOL    HW312517   4.137   6.450   0.720  0.2394 -1.4353  1.8997
 3196SOL    MW412518   4.108   6.389   0.665 -0.0440 -0.1507 -0.1919
 3197SOL     OW12519   0.223   1.842   1.763 -0.8196  0.4072  0.7260
 3197SOL    HW212520   0.301   1.885   1.798 -1.6316  2.3580  0.2609
 3197SOL    HW312521   0.230   1.752   1.794  1.0409  0.8090  1.6266
 3197SOL    MW412522   0.234   1.836   1.772 -0.3521 -0.6050 -0.9922
 3198SOL     OW12523   3.037   2.724   2.319 -0.3546 -0.3521  0.3327
 3198SOL    HW212524   3.030   2.643   2.269 -0.8682 -1.1717  1.6797
 3198SOL    HW312525   2.950   2.763   2.316  0.2794  1.0951 -1.7481
 3198SOL    MW412526   3.025   2.719   2.312  0.5747  0.0353  0.1134
 3199SOL     OW12527   5.524   3.988   2.385 -0.2013 -0.2793 -0.4574
 3199SOL    HW212528   5.533   3.902   2.343  0.9607 -0.0263 -0.7544
 3199SOL    HW312529   5.603   3.997   2.438  0.4396  1.2320 -1.5978
 3199SOL    MW412530   5.536   3.977   2.386  0.1847 -0.2990  0.0633
 3200SOL     OW12531   4.153   1.802   1.536 -0.1598 -0.0237 -0.4444
 3200SOL    HW212532   4.227   1.769   1.485 -1.2479 -0.2025 -1.9851
 3200SOL    HW312533   4.148   1.744   1.612  0.6877 -0.6061 -0.8194
 3200SOL    MW412534   4.162   1.790   1.539  0.7515 -0.0985  0.0877
 3201SOL     OW12535   3.904   3.620   0.467  0.4359 -0.5618  0.1783
 3201SOL    HW212536   3.887   3.640   0.375 -0.3142  0.0432  0.4425
 3201SOL    HW312537   3.831   3.565   0.494  0.0817  0.1362  0.6903
 3201SOL    MW412538   3.892   3.615   0.459 -0.1225  0.1325  0.3017
 3202SOL     OW12539   0.628   1.414   1.494  0.8408  0.0097  0.0056
 3202SOL    HW212540   0.559   1.425   1.560  1.0018 -0.4676  0.2506
 3202SOL    HW312541   0.675   1.336   1.520  1.0176 -0.0858 -0.5827
 3202SOL    MW412542   0.625   1.405   1.506  0.4840  0.1070 -0.3623
 3203SOL     OW12543   4.119   0.593   5.999 -0.0571  0.1850  0.1722
 3203SOL    HW212544   4.166   0.532   6.056 -1.4168 -0.5723  0.5367
 3203SOL    HW312545   4.121   0.551   5.913 -1.8758 -0.9731  0.6250
 3203SOL    MW412546   4.125   0.579   5.995  0.2748  0.0255  0.0477
 3204SOL     OW12547   3.232   3.890   2.198  0.5002  0.5219 -0.2628
 3204SOL    HW212548   3.268   3.972   2.163  0.0554  1.3042  1.0341
 3204SOL    HW312549   3.143   3.887   2.165 -0.2177  1.7135  1.4395
 3204SOL    MW412550   3.225   3.901   2.189  0.0430  0.1560  0.2923
 3205SOL     OW12551   0.525   4.437   4.784 -0.2511 -0.0514 -0.1197
 3205SOL    HW212552   0.480   4.519   4.805  2.5571  1.4452  0.4521
 3205SOL    HW312553   0.470   4.370   4.824 -3.2457  1.3429 -1.5466
 3205SOL    MW412554   0.512   4.439   4.792  0.2555 -0.1237  0.0102
 3206SOL     OW12555   2.821   3.940   5.148 -0.3420  0.6529  0.0017
 3206SOL    HW212556   2.754   3.872   5.158 -0.0176 -0.2312 -2.8725
 3206SOL    HW312557   2.883   3.923   5.219 -2.4691  0.7270  1.9756
 3206SOL    MW412558   2.820   3.929   5.159 -0.2210 -0.3998  0.0850
 3207SOL     OW12559   4.801   6.413   0.418 -0.3877 -0.2248 -0.7927
 3207SOL    HW212560   4.810   6.323   0.450 -0.3293 -0.1607 -0.6314
 3207SOL    HW312561   4.756   6.403   0.334  1.0519 -0.5382 -1.5621
 3207SOL    MW412562   4.796   6.400   0.411  1.1071 -0.0786 -0.0309
 3208SOL     OW12563   3.493   2.098   3.231 -0.7921  0.3507  0.5016
 3208SOL    HW212564   3.445   2.169   3.273 -1.4598  0.5769 -0.6035
 3208SOL    HW312565   3.586   2.120   3.244 -0.9471 -0.0520  2.5921
 3208SOL    MW412566   3.499   2.110   3.238 -0.4619 -0.1337  0.5510
 3209SOL     OW12567   5.077   2.276   1.290  0.0363  0.7039  0.0825
 3209SOL    HW212568   5.041   2.238   1.370 -1.2343 -0.6100 -1.0493
 3209SOL    HW312569   5.020   2.351   1.272 -0.5113  0.2229 -0.2572
 3209SOL    MW412570   5.065   2.281   1.298 -0.2898  0.2113 -0.0022
 3210SOL     OW12571   5.012   1.027   1.151  0.7561 -0.1804 -0.7861
 3210SOL    HW212572   5.015   1.073   1.235  1.2696 -1.2917 -0.1681
 3210SOL    HW312573   5.056   1.086   1.090  0.1259  0.7628 -0.3428
 3210SOL    MW412574   5.018   1.041   1.154 -0.4849 -0.1643  0.2648
 3211SOL     OW12575   3.555   0.828   1.743  0.2714  0.4490 -0.4908
 3211SOL    HW212576   3.505   0.746   1.746 -0.0245  0.5970 -1.1909
 3211SOL    HW312577   3.624   0.812   1.679  1.6877 -0.0473  1.1045
 3211SOL    MW412578   3.557   0.815   1.735 -0.3343 -0.3756  0.0512
 3212SOL     OW12579   0.563   5.701   2.078  1.0309  0.0197  0.0832
 3212SOL    HW212580   0.527   5.619   2.110  0.4357  0.4389  0.5250
 3212SOL    HW312581   0.543   5.701   1.984 -1.0771  0.6784  0.4780
 3212SOL    MW412582   0.555   5.690   2.070 -0.1148 -0.0017  0.0918
 3213SOL     OW12583   0.838   5.199   4.605  0.1216  0.2188  0.2983
 3213SOL    HW212584   0.915   5.141   4.602  0.2988  0.4714 -0.2871
 3213SOL    HW312585   0.868   5.277   4.652  1.1110  1.5299 -2.3070
 3213SOL    MW412586   0.852   5.201   4.611  0.4041  0.6658  0.0773
 3214SOL     OW12587   0.576   6.132   4.817 -0.1494 -0.2821  0.4883
 3214SOL    HW212588   0.575   6.175   4.731  1.1540  1.4938  1.3019
 3214SOL    HW312589   0.650   6.072   4.813 -1.3199 -1.7630 -0.2732
 3214SOL    MW412590   0.585   6.130   4.805 -0.1540  0.4989 -0.6149
 3215SOL     OW12591   1.642   5.393   3.989  0.2415 -0.1093  0.3626
 3215SOL    HW212592   1.707   5.323   3.993  0.2238 -0.2148 -0.8749
 3215SOL    HW312593   1.687   5.469   4.028  1.4442  0.0470 -1.2008
 3215SOL    MW412594   1.657   5.394   3.995 -0.0129 -0.7166 -0.1934
 3216SOL     OW12595   1.177   0.516   3.467 -0.2528 -0.0221  0.1425
 3216SOL    HW212596   1.140   0.427   3.462  0.9828 -0.5841  0.6128
 3216SOL    HW312597   1.206   0.535   3.378 -1.1505  0.2065 -0.1122
 3216SOL    MW412598   1.176   0.506   3.455  0.0139 -0.0114 -0.3262
 3217SOL     OW12599   3.820   3.290   5.336 -0.2623  0.1958  0.1149
 3217SOL    HW212600   3.790   3.272   5.246  2.2370 -0.3238 -0.7022
 3217SOL    HW312601   3.743   3.322   5.381 -1.7959 -0.2724 -2.0213
 3217SOL    MW412602   3.806   3.292   5.330  0.2551  0.5449 -0.1332
 3218SOL     OW12603   5.732   1.834   3.346  0.3169 -0.7319 -0.0015
 3218SOL    HW212604   5.655   1.804   3.394 -0.2918 -1.2303 -1.2348
 3218SOL    HW312605   5.742   1.771   3.274 -0.5067  1.4604 -2.2098
 3218SOL    MW412606   5.723   1.822   3.343  0.0652  0.3688 -0.2818
 3219SOL     OW12607   2.240   1.201   4.999 -0.1517 -0.1930  0.1039
 3219SOL    HW212608   2.164   1.238   4.955 -0.0041 -0.6406 -0.5612
 3219SOL    HW312609   2.212   1.186   5.089 -0.7444 -0.0593 -0.0555
 3219SOL    MW412610   2.226   1.204   5.005 -0.5868 -0.2017 -0.1605
 3220SOL     OW12611   3.415   0.771   2.585  0.3379 -0.6911  0.0271
 3220SOL    HW212612   3.471   0.840   2.619 -0.7961  0.0972  0.3151
 3220SOL    HW312613   3.343   0.816   2.542 -0.2335 -1.6887 -0.1091
 3220SOL    MW412614   3.413   0.786   2.584  0.0927 -0.7539  0.3173
 3221SOL     OW12615   5.204   5.437   1.576  0.6099 -0.3651 -0.0667
 3221SOL    HW212616   5.254   5.446   1.657 -1.0883 -2.3856  1.2965
 3221SOL    HW312617   5.257   5.378   1.522  1.1827  0.0602  0.0088
 3221SOL    MW412618   5.218   5.430   1.579  0.1883  0.0060 -0.1483
 3222SOL     OW12619   1.776   0.079   4.756  0.1070 -0.0009 -0.0980
 3222SOL    HW212620   1.829   0.148   4.718  0.9505 -0.4843  0.1777
 3222SOL    HW312621   1.702   0.070   4.696  0.4774  0.4831 -0.6413
 3222SOL    MW412622   1.773   0.087   4.743  0.5897 -0.4256  0.0099
 3223SOL     OW12623   6.236   1.407   2.911  0.0914 -0.1131  0.4883
 3223SOL    HW212624   6.329   1.424   2.904 -0.3858  1.9351 -1.9127
 3223SOL    HW312625   6.224   1.376   3.001  3.0570 -0.6049  0.7998
 3223SOL    MW412626   6.247   1.405   2.922  0.5269 -0.0971 -0.1668
 3224SOL     OW12627   4.875   5.872   0.709  0.0706 -0.5126 -0.4224
 3224SOL    HW212628   4.883   5.844   0.618  1.4693 -1.0508 -0.1584
 3224SOL    HW312629   4.839   5.795   0.754 -0.0960 -0.4366 -0.4260
 3224SOL    MW412630   4.871   5.858   0.703  0.1795  0.5291  0.5706
 3225SOL     OW12631   2.210   1.766   4.457  0.0523 -0.4530  0.2790
 3225SOL    HW212632   2.278   1.704   4.432 -1.0810 -1.4356 -0.4298
 3225SOL    HW312633   2.218   1.773   4.552  0.1668 -1.7358  0.3808
 3225SOL    MW412634   2.220   1.759   4.466 -0.8268  0.3678  0.0904
 3226SOL     OW12635   1.259   2.968   1.943  0.1661 -0.0877 -0.2409
 3226SOL    HW212636   1.173   2.984   1.905  0.0595 -1.7108 -0.7408
 3226SOL    HW312637   1.290   3.055   1.969 -1.3650  0.5884 -0.5753
 3226SOL    MW412638   1.252   2.982   1.941 -0.0247 -0.8938  0.1743
 3227SOL     OW12639   3.950   4.963   6.060  0.3328  0.5910  0.0274
 3227SOL    HW212640   3.923   5.018   5.986  0.7482  0.8397  0.0551
 3227SOL    HW312641   4.031   5.004   6.091  0.8108 -0.2102 -0.1396
 3227SOL    MW412642   3.958   4.976   6.054 -0.1224  0.0080 -0.0982
 3228SOL     OW12643   3.961   1.216   3.311  0.1793  0.8453  0.3609
 3228SOL    HW212644   4.050   1.251   3.304  1.0942 -1.3088  0.3154
 3228SOL    HW312645   3.905   1.293   3.318  1.8187  2.3686 -1.9012
 3228SOL    MW412646   3.966   1.230   3.311 -0.3239  0.8352  0.1747
 3229SOL     OW12647   3.964   1.488   5.462 -0.2202 -0.0326 -0.8439
 3229SOL    HW212648   3.877   1.482   5.422 -0.6667 -1.4785  0.2493
 3229SOL    HW312649   4.013   1.415   5.425 -0.2816 -0.7003  0.3154
 3229SOL    MW412650   3.959   1.478   5.452 -0.1320 -0.0757 -0.3737
 3230SOL     OW12651   5.380   0.823   1.027 -0.3636 -0.1329 -0.3795
 3230SOL    HW212652   5.382   0.834   0.932  0.6805  0.2451 -0.3318
 3230SOL    HW312653   5.377   0.912   1.061 -1.2835 -0.2839 -0.0589
 3230SOL    MW412654   5.380   0.836   1.019  0.0298  0.2039 -0.0893
 3231SOL     OW12655   5.492   6.429   1.473 -0.1580  0.0632  0.7653
 3231SOL    HW212656   5.529   6.415   1.560  0.8580 -2.1704  0.0612
 3231SOL    HW312657   5.545   6.372   1.416 -0.4262  1.8617 -1.4020
 3231SOL    MW412658   5.504   6.419   1.477  0.0901 -0.3592 -0.3423
 3232SOL     OW12659   2.546   1.524   5.680 -0.3694  0.4191  0.1530
 3232SOL    HW212660   2.577   1.492   5.596 -2.3564  1.0276 -0.8589
 3232SOL    HW312661   2.475   1.585   5.659 -0.2551  1.3763  2.2256
 3232SOL    MW412662   2.541   1.528   5.666  0.8391  0.1033  0.3115
 3233SOL     OW12663   2.825   2.779   3.215 -0.1847  0.0046 -0.0217
 3233SOL    HW212664   2.835   2.753   3.307  0.1445  2.4076  0.6963
 3233SOL    HW312665   2.760   2.718   3.180 -0.1640 -1.1075  1.7361
 3233SOL    MW412666   2.818   2.767   3.223  0.0461 -0.7089 -0.1828
 3234SOL     OW12667   1.769   3.633   3.113  0.0146 -0.1300 -0.0223
 3234SOL    HW212668   1.708   3.574   3.159  0.4028  0.9312  1.9817
 3234SOL    HW312669   1.732   3.641   3.025 -0.5821 -2.5558 -0.0858
 3234SOL    MW412670   1.756   3.626   3.108  0.6039  0.4279 -0.2219
 3235SOL     OW12671   3.565   1.688   2.089  0.3472  0.1713  0.4329
 3235SOL    HW212672   3.629   1.725   2.149  0.8188  0.3119 -0.1448
 3235SOL    HW312673   3.492   1.751   2.089  0.7805  0.6863  0.1006
 3235SOL    MW412674   3.563   1.702   2.097  0.4986  0.0113  0.1348
 3236SOL     OW12675   2.842   0.469   4.254 -0.4573 -0.2203 -0.4972
 3236SOL    HW212676   2.875   0.558   4.240 -0.1541 -0.0286  1.2221
 3236SOL    HW312677   2.759   0.466   4.207 -0.2399  0.8139 -0.9722
 3236SOL    MW412678   2.836   0.480   4.246 -0.0575 -0.4924  0.1198
 3237SOL     OW12679   4.995   1.446   1.474  0.0584 -0.6199 -0.3723
 3237SOL    HW212680   4.902   1.458   1.454 -0.0454 -1.6342 -0.5727
 3237SOL    HW312681   4.995   1.389   1.552  0.5038  0.3006  0.3173
 3237SOL    MW412682   4.983   1.440   1.482  0.2479  0.4715  0.1886
 3238SOL     OW12683   3.513   4.517   4.034  0.1868 -0.0995  0.6082
 3238SOL    HW212684   3.584   4.514   3.970  0.8322  0.0436  1.3045
 3238SOL    HW312685   3.539   4.586   4.096 -1.1867  0.8727  0.1501
 3238SOL    MW412686   3.526   4.525   4.034 -0.3069 -0.7864  0.2821
 3239SOL     OW12687   4.570   2.216   0.272  0.0647  0.2549  0.0149
 3239SOL    HW212688   4.625   2.225   0.349 -0.6401  0.6121  0.4860
 3239SOL    HW312689   4.624   2.168   0.209  0.7565  0.2391  0.6108
 3239SOL    MW412690   4.584   2.211   0.274  0.7787  0.2610  0.0911
 3240SOL     OW12691   2.034   5.581   2.992  0.1624 -0.1541 -0.3172
 3240SOL    HW212692   2.051   5.562   2.900  0.2300 -0.8523 -0.1662
 3240SOL    HW312693   1.941   5.603   2.996 -0.1623 -1.4467 -0.3514
 3240SOL    MW412694   2.024   5.582   2.981 -0.6595 -1.1478 -0.0234
 3241SOL     OW12695   0.885   3.038   5.963 -0.0700  0.3279 -0.1946
 3241SOL    HW212696   0.928   3.027   5.879 -1.9387  0.6268 -1.2418
 3241SOL    HW312697   0.938   3.103   6.009  2.8928 -2.1659  0.3018
 3241SOL    MW412698   0.898   3.045   5.958 -0.4838 -0.5372  0.4977
 3242SOL     OW12699   4.176   3.686   5.087  0.1125 -0.4959  0.8451
 3242SOL    HW212700   4.178   3.605   5.138 -0.4728 -0.8275  0.3445
 3242SOL    HW312701   4.252   3.678   5.028 -2.5041 -2.9611 -2.6156
 3242SOL    MW412702   4.187   3.674   5.086  0.6528 -0.6731  0.2499
 3243SOL     OW12703   4.998   2.948   2.208  0.1003 -0.3789  0.1469
 3243SOL    HW212704   5.033   2.874   2.157 -1.5920 -1.1019 -0.0422
 3243SOL    HW312705   4.962   2.908   2.286  1.0331  0.5306  1.0749
 3243SOL    MW412706   4.998   2.933   2.211  0.1564 -0.0163  0.3402
 3244SOL     OW12707   2.837   1.995   4.882  0.1189  0.2100  0.0968
 3244SOL    HW212708   2.927   2.026   4.884 -0.0968  0.9170  2.5385
 3244SOL    HW312709   2.840   1.908   4.922  0.0054 -0.9524 -2.2048
 3244SOL    MW412710   2.849   1.987   4.887  0.1028  0.2650  0.0704
 3245SOL     OW12711   6.071   2.367   1.492 -0.1286  0.1688  0.1327
 3245SOL    HW212712   6.012   2.436   1.521 -1.6982 -0.1886 -1.9511
 3245SOL    HW312713   6.057   2.296   1.553 -1.5432  0.2636 -0.0503
 3245SOL    MW412714   6.061   2.367   1.504 -0.1255 -0.2002  0.2478
 3246SOL     OW12715   5.912   0.969   0.183 -0.4416 -0.1478  0.2004
 3246SOL    HW212716   5.818   0.965   0.203 -1.1892  0.7025 -2.5569
 3246SOL    HW312717   5.955   0.932   0.259 -3.0184 -0.4892  1.6077
 3246SOL    MW412718   5.905   0.964   0.195 -0.4997 -0.0902  0.4657
 3247SOL     OW12719   6.068   5.881  -0.032 -0.1139  0.3397 -0.6869
 3247SOL    HW212720   6.006   5.841   0.028 -1.2504  1.9337 -0.7568
 3247SOL    HW312721   6.111   5.807  -0.075 -0.8966 -0.7921  0.4303
 3247SOL    MW412722   6.066   5.866  -0.030 -0.1864  1.0341 -0.1367
 3248SOL     OW12723   1.334   2.610   4.993 -0.1913 -0.0876 -0.3715
 3248SOL    HW212724   1.271   2.575   5.056 -0.8474  0.3995 -0.7443
 3248SOL    HW312725   1.294   2.690   4.961  1.1458  0.8642  0.2362
 3248SOL    MW412726   1.320   2.616   4.997 -0.4588 -0.1610  0.5087
 3249SOL     OW12727   6.250   4.052   3.076  0.7501  0.0390 -0.2116
 3249SOL    HW212728   6.200   3.982   3.117 -0.9429  0.6905 -1.1062
 3249SOL    HW312729   6.340   4.038   3.107 -0.2874  0.1363  3.2673
 3249SOL    MW412730   6.255   4.041   3.086 -0.0504  0.7356 -0.4748
 3250SOL     OW12731   1.254   5.080   4.869  0.0743 -0.1493  0.7752
 3250SOL    HW212732   1.340   5.108   4.837  0.8694  0.1411  2.9786
 3250SOL    HW312733   1.231   5.006   4.814  1.3756  0.2642 -0.3734
 3250SOL    MW412734   1.262   5.074   4.858  0.0884 -0.1429  0.4564
 3251SOL     OW12735   3.250   4.496   1.017 -0.1402 -0.4360 -0.0555
 3251SOL    HW212736   3.255   4.578   0.968 -0.0412 -0.3280  0.1349
 3251SOL    HW312737   3.252   4.522   1.109  0.8487 -0.6941  0.0136
 3251SOL    MW412738   3.251   4.510   1.022 -0.0040 -0.2074  0.1400
 3252SOL     OW12739   3.314   3.489   2.161 -0.5401  0.6754  0.5689
 3252SOL    HW212740   3.306   3.432   2.085  0.3152  0.5666  0.5478
 3252SOL    HW312741   3.363   3.565   2.129  1.6821 -0.2859  1.4346
 3252SOL    MW412742   3.319   3.492   2.147 -0.4981  0.2391 -0.0123
 3253SOL     OW12743   2.758   6.156   4.214 -0.2629 -0.1020 -0.0420
 3253SOL    HW212744   2.763   6.060   4.212 -0.3074 -0.0991 -0.3526
 3253SOL    HW312745   2.686   6.177   4.155  0.4243  0.1761 -0.7849
 3253SOL    MW412746   2.749   6.146   4.206  0.0553  0.4514  0.2655
 3254SOL     OW12747   6.250   4.498   5.578 -0.7147  0.0123  0.5811
 3254SOL    HW212748   6.239   4.436   5.651  0.2609  1.0615  1.6500
 3254SOL    HW312749   6.162   4.532   5.562 -1.3592 -1.9445 -0.3325
 3254SOL    MW412750   6.237   4.494   5.586  0.3709  0.4074  0.1082
 3255SOL     OW12751   4.838   4.999   0.893  0.4054  0.1344 -0.0540
 3255SOL    HW212752   4.762   5.027   0.944  1.0765 -0.3072  1.2154
 3255SOL    HW312753   4.841   5.062   0.820 -0.9274  0.3989  0.0797
 3255SOL    MW412754   4.828   5.011   0.890 -0.4434  0.9569 -0.4487
 3256SOL     OW12755   5.043   4.717   2.251 -0.1790  0.0551 -0.3157
 3256SOL    HW212756   4.986   4.788   2.221 -0.2717 -0.2251 -0.7941
 3256SOL    HW312757   5.036   4.721   2.347 -0.2301  0.6531 -0.3365
 3256SOL    MW412758   5.034   4.727   2.260  0.0556  0.0584 -0.0387
 3257SOL     OW12759   6.056   2.934   0.047 -0.5412  0.4682 -0.3165
 3257SOL    HW212760   6.118   2.894  -0.015 -1.3391  1.1337 -1.5971
 3257SOL    HW312761   6.105   2.939   0.129  0.9079  0.4351 -1.1272
 3257SOL    MW412762   6.071   2.930   0.049  0.0552  0.2993  0.4683
 3258SOL     OW12763   1.036   3.826   3.777 -0.2814 -0.5503 -0.2645
 3258SOL    HW212764   1.068   3.891   3.838  0.9486 -1.6437  0.3131
 3258SOL    HW312765   1.099   3.828   3.704 -0.4594 -0.8116 -0.4294
 3258SOL    MW412766   1.049   3.835   3.775  0.2568  0.1208 -0.2597
 3259SOL     OW12767   0.153   4.559   1.315  0.6087 -0.7201  0.3162
 3259SOL    HW212768   0.173   4.605   1.233  1.5733 -1.6020  0.0434
 3259SOL    HW312769   0.125   4.629   1.374 -0.3901 -0.0979 -0.8370
 3259SOL    MW412770   0.152   4.574   1.312  0.3743 -0.9160  0.2508
 3260SOL     OW12771   5.764   5.367   0.872  0.2305  0.3165 -0.0600
 3260SOL    HW212772   5.756   5.434   0.941  0.7492  1.1026 -0.7421
 3260SOL    HW312773   5.675   5.337   0.857  0.0761  0.3433  0.7465
 3260SOL    MW412774   5.751   5.372   0.879  0.7137  0.0952  0.7395
 3261SOL     OW12775   3.384   2.974   2.631  0.0530  0.3556  0.3754
 3261SOL    HW212776   3.464   2.959   2.581 -0.4275 -2.4180  0.2645
 3261SOL    HW312777   3.396   3.060   2.670  2.8061  0.3060 -0.1468
 3261SOL    MW412778   3.396   2.983   2.630 -0.4573 -0.4244 -0.1932
 3262SOL     OW12779   1.772   0.737   0.384 -0.3668 -0.2367 -0.1678
 3262SOL    HW212780   1.776   0.820   0.431 -1.6035  0.5464 -1.3516
 3262SOL    HW312781   1.681   0.731   0.354  0.4970 -0.2908 -3.0680
 3262SOL    MW412782   1.760   0.747   0.386  0.0054  0.0282  0.2031
 3263SOL     OW12783   3.502   2.572   3.027  0.1759  0.2443  0.4913
 3263SOL    HW212784   3.453   2.598   2.949 -2.2939 -0.2036  1.7967
 3263SOL    HW312785   3.492   2.477   3.031 -0.7338  0.3695  1.9470
 3263SOL    MW412786   3.495   2.563   3.017  0.3435 -0.5435  0.7920
 3264SOL     OW12787   3.535   5.340   4.736  0.1516  0.3831  0.1087
 3264SOL    HW212788   3.582   5.423   4.746  0.5829  0.1032  0.4381
 3264SOL    HW312789   3.514   5.336   4.643 -1.6955  1.8269  0.3969
 3264SOL    MW412790   3.538   5.351   4.725 -0.2984  0.3081 -0.4592
 3265SOL     OW12791   5.425   5.910   1.584  0.6899 -0.3587 -0.0218
 3265SOL    HW212792   5.436   5.968   1.509  0.8493  1.3856  1.2973
 3265SOL    HW312793   5.336   5.875   1.574 -0.3107  1.9083  0.3246
 3265SOL    MW412794   5.415   5.913   1.573 -0.3642 -0.0928  0.1846
 3266SOL     OW12795   0.851   0.969   2.484  0.0066 -0.5809 -0.1278
 3266SOL    HW212796   0.942   0.940   2.475  0.2408  0.6163 -2.2685
 3266SOL    HW312797   0.802   0.913   2.424 -0.1121  0.9006 -1.4659
 3266SOL    MW412798   0.856   0.958   2.475 -0.4913 -0.0766  0.3138
 3267SOL     OW12799   6.046   2.562   3.486 -0.3136 -0.2543  0.2191
 3267SOL    HW212800   6.038   2.500   3.558 -2.2125 -1.0533 -0.5931
 3267SOL    HW312801   6.006   2.642   3.519  0.5191 -0.0176  0.6689
 3267SOL    MW412802   6.039   2.564   3.500  0.4416  0.2415 -0.0489
 3268SOL     OW12803   4.106   3.045   2.487 -0.3066  0.4534  0.0410
 3268SOL    HW212804   4.166   3.115   2.514 -0.2553  0.4510 -0.0632
 3268SOL    HW312805   4.151   3.003   2.413  1.0168 -1.5565  1.8923
 3268SOL    MW412806   4.120   3.049   2.481 -0.2888 -0.1137 -1.0422
 3269SOL     OW12807   5.171   4.917   4.715 -0.2602 -0.2915 -0.2504
 3269SOL    HW212808   5.152   4.833   4.673 -0.5770 -0.1552 -0.3792
 3269SOL    HW312809   5.109   4.978   4.676 -0.0547 -0.0038 -0.1297
 3269SOL    MW412810   5.160   4.914   4.704 -0.1855  0.0932 -0.4668
 3270SOL     OW12811   0.200   6.148   1.279 -0.1371 -0.5456 -0.2108
 3270SOL    HW212812   0.210   6.160   1.373  0.9606 -1.6814 -0.1624
 3270SOL    HW312813   0.164   6.232   1.248  1.3459  0.5648  0.9339
 3270SOL    MW412814   0.196   6.161   1.287 -0.2359  0.5500 -0.3831
 3271SOL     OW12815   0.262   1.711   1.093 -0.2491  0.3576  0.1202
 3271SOL    HW212816   0.196   1.649   1.061  0.7943 -0.4691 -0.5142
 3271SOL    HW312817   0.214   1.793   1.106 -1.3954 -0.2235 -0.3126
 3271SOL    MW412818   0.247   1.714   1.090  0.0545  0.7339 -0.6545
 3272SOL     OW12819   2.866   0.046   6.087 -0.1184  0.4015  0.4488
 3272SOL    HW212820   2.825  -0.034   6.119  0.6580  0.4871  1.7272
 3272SOL    HW312821   2.794   0.098   6.052 -0.4955 -1.3487 -1.5679
 3272SOL    MW412822   2.851   0.042   6.087 -0.4257  0.0053  0.5823
 3273SOL     OW12823   0.189   1.144   6.110  0.5276 -0.1621  0.0353
 3273SOL    HW212824   0.206   1.239   6.116 -0.7493  0.1580 -0.9465
 3273SOL    HW312825   0.254   1.105   6.168 -0.8178  1.4941  2.8844
 3273SOL    MW412826   0.200   1.152   6.118 -0.4882 -0.2428 -0.1826
 3274SOL     OW12827   0.563   3.590   3.276  0.2026  0.5457 -0.5760
 3274SOL    HW212828   0.560   3.632   3.362  0.3206  1.5288 -1.0357
 3274SOL    HW312829   0.609   3.507   3.291  0.4788  0.8393  0.2525
 3274SOL    MW412830   0.569   3.585   3.289 -0.1633  0.0038 -0.4355
 3275SOL     OW12831   0.511   3.858   1.612 -0.0690 -0.3504 -0.6214
 3275SOL    HW212832   0.453   3.817   1.677  0.3390 -0.4319 -0.3027
 3275SOL    HW312833   0.463   3.934   1.582  0.5497  0.8586  1.2677
 3275SOL    MW412834   0.497   3.862   1.617 -0.2413 -0.1479  0.0996
 3276SOL     OW12835   0.568   5.331   3.124  0.2069  0.1182 -0.3227
 3276SOL    HW212836   0.553   5.416   3.166  1.2204 -0.1898  0.7267
 3276SOL    HW312837   0.623   5.351   3.049  1.5609  0.2808  0.6675
 3276SOL    MW412838   0.573   5.345   3.120  0.7744 -0.5680 -0.1699
 3277SOL     OW12839   3.529   0.400   4.244 -0.7182  0.3238 -1.2035
 3277SOL    HW212840   3.537   0.464   4.173 -1.7055  1.3628 -0.4203
 3277SOL    HW312841   3.510   0.453   4.322  0.4251 -0.7843 -0.1254
 3277SOL    MW412842   3.527   0.415   4.245  0.0542 -0.0986  0.1584
 3278SOL     OW12843   1.246   5.834   3.100 -0.1642  0.3838  0.2011
 3278SOL    HW212844   1.198   5.752   3.109  1.3164 -0.5972 -0.5825
 3278SOL    HW312845   1.226   5.882   3.181 -2.1729 -0.1068  0.0511
 3278SOL    MW412846   1.237   5.830   3.112 -0.2480 -0.2164  0.1087
 3279SOL     OW12847   0.372   3.527   0.283  0.4911  0.6275  0.6827
 3279SOL    HW212848   0.280   3.525   0.254  0.8543  0.3608 -0.5140
 3279SOL    HW312849   0.400   3.435   0.278  1.3199  0.9232 -0.6947
 3279SOL    MW412850   0.363   3.515   0.279 -0.3698 -1.1029  0.4335
 3280SOL     OW12851   0.428   6.271   1.152  0.1545  0.1141  0.1440
 3280SOL    HW212852   0.410   6.208   1.222 -0.9206 -0.8109 -0.9319
 3280SOL    HW312853   0.517   6.302   1.170  0.2649 -0.8442  1.3470
 3280SOL    MW412854   0.437   6.267   1.164 -0.4375 -0.1825  0.1334
 3281SOL     OW12855   4.055   1.404   6.183 -0.1854 -0.8740  0.1707
 3281SOL    HW212856   4.045   1.321   6.229  0.2368  0.0240  1.9683
 3281SOL    HW312857   4.054   1.380   6.090 -0.9573 -2.7654  0.6214
 3281SOL    MW412858   4.054   1.390   6.177  0.2363  0.6105  0.2331
 3282SOL     OW12859   2.825   1.154   4.450 -0.3171  0.3432  0.3655
 3282SOL    HW212860   2.861   1.199   4.373 -1.3368  1.2395  0.3909
 3282SOL    HW312861   2.884   1.080   4.464  0.6770  0.9447 -0.4562
 3282SOL    MW412862   2.838   1.150   4.442 -0.2404  0.1080 -0.3267
 3283SOL     OW12863   1.223   6.356   5.414  0.3699 -0.1770 -0.1983
 3283SOL    HW212864   1.129   6.366   5.403 -0.1063 -1.0431  2.5632
 3283SOL    HW312865   1.241   6.266   5.388  0.7037  0.3025 -1.8055
 3283SOL    MW412866   1.213   6.346   5.409  0.7466 -0.1989  0.4316
 3284SOL     OW12867   0.745   3.307   5.110  0.5273 -0.4731 -0.0508
 3284SOL    HW212868   0.827   3.263   5.085  1.5728  1.2112  0.2612
 3284SOL    HW312869   0.749   3.392   5.066 -0.1314  0.3987  1.5138
 3284SOL    MW412870   0.756   3.312   5.101  0.7629  0.4589  0.2616
 3285SOL     OW12871   6.368   2.030   4.495  0.0588 -0.3010  0.2560
 3285SOL    HW212872   6.414   2.056   4.415 -1.5876  1.5213 -0.1871
 3285SOL    HW312873   6.369   2.109   4.549  0.1601 -1.1729  1.5798
 3285SOL    MW412874   6.374   2.044   4.491 -0.3886 -0.0252 -0.0948
 3286SOL     OW12875   5.306   5.542   6.348  0.6697 -0.1718  0.2542
 3286SOL    HW212876   5.250   5.565   6.423 -1.0158  2.4824 -1.6038
 3286SOL    HW312877   5.265   5.587   6.274  2.2098 -2.6957 -2.3231
 3286SOL    MW412878   5.293   5.551   6.348 -0.4447 -0.4864  0.2997
 3287SOL     OW12879   3.942   0.038   6.180 -0.0011  0.4095 -0.2711
 3287SOL    HW212880   3.894  -0.043   6.160  1.5121 -0.8659  0.9539
 3287SOL    HW312881   3.940   0.044   6.275  2.2565  0.2610 -0.1736
 3287SOL    MW412882   3.935   0.028   6.190  0.4060 -0.2509  0.5344
 3288SOL     OW12883   0.942   2.869   1.745  0.3005  0.1592 -0.1459
 3288SOL    HW212884   0.907   2.808   1.810  1.8151 -0.1969  0.3637
 3288SOL    HW312885   0.962   2.948   1.796  2.4305 -0.4675  0.0601
 3288SOL    MW412886   0.940   2.872   1.761 -0.8007  0.0791 -0.5647
 3289SOL     OW12887   1.621   3.328   6.043  0.3016 -0.3448 -0.2140
 3289SOL    HW212888   1.700   3.318   6.095 -0.6807  1.1526  1.6881
 3289SOL    HW312889   1.599   3.239   6.015  0.3939 -1.3906  2.7571
 3289SOL    MW412890   1.628   3.315   6.046 -0.3509  0.0903  0.4628
 3290SOL     OW12891   5.397   5.522   1.774  1.0408 -0.1279  0.3375
 3290SOL    HW212892   5.374   5.613   1.791  1.4663  0.1082 -0.2844
 3290SOL    HW312893   5.489   5.525   1.749  1.2825 -0.8366  1.1218
 3290SOL    MW412894   5.406   5.535   1.773  0.2226 -0.1295  0.3463
 3291SOL     OW12895   3.549   2.990   5.702 -0.1555 -0.0043 -0.0676
 3291SOL    HW212896   3.626   3.046   5.708 -0.8928  1.1121 -0.7891
 3291SOL    HW312897   3.493   3.018   5.775 -1.1978  1.2836 -1.3175
 3291SOL    MW412898   3.552   3.001   5.713 -0.0773  0.6508  0.0117
 3292SOL     OW12899   3.600   6.253   2.304  0.4590 -0.1851 -0.5581
 3292SOL    HW212900   3.643   6.247   2.218 -1.6516 -0.9873 -1.6235
 3292SOL    HW312901   3.539   6.326   2.295  0.6883  0.1541  0.5146
 3292SOL    MW412902   3.598   6.262   2.291 -0.3536 -0.2436  0.0835
 3293SOL     OW12903   3.483   6.431   2.080 -0.2272  0.1337  0.1248
 3293SOL    HW212904   3.542   6.483   2.025  0.1938 -0.2189  0.2341
 3293SOL    HW312905   3.400   6.479   2.079  0.7365  2.0183  1.9613
 3293SOL    MW412906   3.480   6.444   2.073  0.1510 -0.5052 -0.3967
 3294SOL     OW12907   0.629   2.200   3.730 -0.3777  0.6534 -0.8101
 3294SOL    HW212908   0.718   2.182   3.697  0.3082  2.9245 -0.3931
 3294SOL    HW312909   0.638   2.199   3.825 -1.0622 -0.2023 -0.7487
 3294SOL    MW412910   0.642   2.198   3.738 -0.2141  0.2390 -0.0264
 3295SOL     OW12911   0.972   4.969   3.656 -0.9667  0.3509 -0.6455
 3295SOL    HW212912   0.963   4.965   3.561  1.6596 -0.1038 -0.9352
 3295SOL    HW312913   0.961   4.878   3.685 -0.6753  0.3238 -0.6235
 3295SOL    MW412914   0.969   4.957   3.647 -0.0888 -0.5636  0.0995
 3296SOL     OW12915   0.020   1.432   5.114 -0.0236 -0.2989  0.2308
 3296SOL    HW212916  -0.028   1.350   5.101  0.6010 -0.4468 -1.4664
 3296SOL    HW312917   0.106   1.416   5.073  0.5051  0.8425  0.8384
 3296SOL    MW412918   0.025   1.419   5.107  0.7136 -0.2359  0.1262
 3297SOL     OW12919   1.755   2.712   0.428 -0.1250 -0.2456  0.3016
 3297SOL    HW212920   1.829   2.668   0.470 -1.3370 -1.0112  1.7723
 3297SOL    HW312921   1.753   2.676   0.339  0.3963 -1.3361  0.7064
 3297SOL    MW412922   1.765   2.701   0.422  0.5640 -0.3768  0.3148
 3298SOL     OW12923   0.715   5.608   5.473  0.2894  0.0893 -0.4454
 3298SOL    HW212924   0.731   5.641   5.385  1.8801  1.6846  0.3827
 3298SOL    HW312925   0.620   5.610   5.483  0.1748  1.6845 -1.4828
 3298SOL    MW412926   0.705   5.612   5.463  0.4350 -0.8398  0.0441
 3299SOL     OW12927   5.015   2.617   5.115  0.3931  0.0281 -0.5237
 3299SOL    HW212928   5.110   2.623   5.103  0.5680 -1.1892  0.0476
 3299SOL    HW312929   4.999   2.523   5.126 -0.6209  0.3871  1.4051
 3299SOL    MW412930   5.025   2.605   5.115  0.6677  0.1489  0.0589
 3300SOL     OW12931   5.320   3.672   1.808 -0.1447 -0.3886 -0.0187
 3300SOL    HW212932   5.366   3.749   1.841  0.8576 -0.8556 -0.2907
 3300SOL    HW312933   5.352   3.662   1.718 -0.9303 -0.6167 -0.2812
 3300SOL    MW412934   5.330   3.681   1.800 -0.8085  0.3409 -0.0677
 3301SOL     OW12935   5.242   3.149   0.102 -0.1083 -0.1069  0.5144
 3301SOL    HW212936   5.304   3.111   0.165 -1.7236  0.1446  2.3332
 3301SOL    HW312937   5.268   3.241   0.096 -0.3103  0.0149  1.3272
 3301SOL    MW412938   5.254   3.156   0.110 -0.5915 -0.5978  0.0241
 3302SOL     OW12939   1.499   6.408   6.204  0.5304 -0.2846  0.2612
 3302SOL    HW212940   1.432   6.474   6.190  1.9462  0.9165 -1.1607
 3302SOL    HW312941   1.548   6.439   6.280  1.8970  0.9663 -1.0770
 3302SOL    MW412942   1.497   6.420   6.212 -0.0301  0.5444 -0.0306
 3303SOL     OW12943   1.553   3.081   4.037  0.1923 -0.0842 -0.4461
 3303SOL    HW212944   1.522   3.040   3.957  0.9904  0.7990 -1.2326
 3303SOL    HW312945   1.618   3.145   4.008  1.4160 -0.6056  1.0057
 3303SOL    MW412946   1.557   3.084   4.023 -0.4395  0.2584  0.1482
 3304SOL     OW12947   2.607   0.769   4.276 -0.1480 -0.2586 -0.5709
 3304SOL    HW212948   2.524   0.817   4.280  0.0226 -0.0469  1.0994
 3304SOL    HW312949   2.650   0.790   4.358  0.2120 -2.7888 -0.0389
 3304SOL    MW412950   2.601   0.778   4.287  0.2127 -0.1853  0.0711
 3305SOL     OW12951   5.078   5.167   3.156 -0.9745  0.0261  0.0070
 3305SOL    HW212952   5.118   5.080   3.156 -0.7050  0.1474  0.3341
 3305SOL    HW312953   5.106   5.206   3.074 -2.1542 -0.6665 -0.7643
 3305SOL    MW412954   5.087   5.161   3.145  0.1112  0.0184  0.1962
 3306SOL     OW12955   2.191   2.400   0.341 -0.0078  0.4947 -0.2456
 3306SOL    HW212956   2.257   2.462   0.310  0.0455  0.6282  0.1265
 3306SOL    HW312957   2.208   2.393   0.435 -1.5285  1.7692  0.1729
 3306SOL    MW412958   2.202   2.408   0.349 -0.1803  0.1764 -0.4507
 3307SOL     OW12959   3.984   0.668   5.735  0.0626  0.5406  0.2771
 3307SOL    HW212960   3.948   0.614   5.665 -1.0399  1.0803  0.4028
 3307SOL    HW312961   4.043   0.729   5.691 -0.5320  0.7970 -0.1863
 3307SOL    MW412962   3.987   0.669   5.720  0.3164  0.1375  0.2892
 3308SOL     OW12963   2.522   2.316   5.086  0.0573  0.4213 -0.6636
 3308SOL    HW212964   2.562   2.400   5.108 -0.8494  0.9766 -1.0783
 3308SOL    HW312965   2.592   2.252   5.102  0.3836  1.0982  0.8599
 3308SOL    MW412966   2.537   2.319   5.091 -0.2808 -0.0356 -0.2838
 3309SOL     OW12967   1.348   3.668   4.369  0.0435 -0.4562 -0.1252
 3309SOL    HW212968   1.419   3.622   4.324  1.4112  1.9945 -0.6674
 3309SOL    HW312969   1.275   3.665   4.308  0.7644 -0.2086 -1.0332
 3309SOL    MW412970   1.348   3.662   4.355  0.2296 -0.3291  0.8456
 3310SOL     OW12971   1.256   5.579   2.251 -0.1293  0.7391  0.2150
 3310SOL    HW212972   1.205   5.512   2.204  0.8327  1.0298 -1.3134
 3310SOL    HW312973   1.190   5.637   2.288 -0.9610  0.9448 -1.4853
 3310SOL    MW412974   1.240   5.578   2.250  0.3692  0.4292  0.1119
 3311SOL     OW12975   5.539   5.102   3.502  0.6878  0.4934  0.0947
 3311SOL    HW212976   5.580   5.060   3.427  1.1727  1.1965 -0.0495
 3311SOL    HW312977   5.612   5.129   3.558  0.4204  1.4916 -0.0144
 3311SOL    MW412978   5.554   5.100   3.500 -0.3871 -0.7388  0.6246
 3312SOL     OW12979   1.509   4.248   5.722 -0.1216  0.2241  0.2814
 3312SOL    HW212980   1.436   4.190   5.701  0.3180 -0.2340 -0.0073
 3312SOL    HW312981   1.491   4.279   5.811  0.5085 -1.7363  1.1562
 3312SOL    MW412982   1.497   4.244   5.731  0.6031 -0.0725  0.3489
 3313SOL     OW12983   4.583   4.707   6.087  0.6630  0.0632 -0.4070
 3313SOL    HW212984   4.542   4.749   6.163 -0.6319 -0.9455 -0.5126
 3313SOL    HW312985   4.510   4.689   6.028  1.1124 -2.5591 -0.2528
 3313SOL    MW412986   4.568   4.710   6.089  0.3358 -0.3774 -0.2259
 3314SOL     OW12987   1.596   2.623   2.019 -0.1373  0.2398 -0.8772
 3314SOL    HW212988   1.662   2.634   1.950  0.4975 -0.5222 -0.4079
 3314SOL    HW312989   1.574   2.712   2.045  2.1446  0.5521  0.2991
 3314SOL    MW412990   1.602   2.636   2.013 -0.2548  0.1841  0.1256
 3315SOL     OW12991   0.228   1.414   6.146  0.3233 -0.7630 -0.0627
 3315SOL    HW212992   0.220   1.443   6.237 -0.4805 -0.6390 -0.1716
 3315SOL    HW312993   0.320   1.428   6.125  0.8741 -2.1369  1.1925
 3315SOL    MW412994   0.239   1.419   6.155 -0.1215 -0.5646  1.0244
 3316SOL     OW12995   3.402   4.842   5.023 -0.2972 -0.0603  0.6623
 3316SOL    HW212996   3.392   4.757   4.980  1.2215  0.2715 -0.3948
 3316SOL    HW312997   3.337   4.898   4.982 -1.9538 -0.8894  1.9994
 3316SOL    MW412998   3.392   4.838   5.012 -0.2130  0.4611  0.0374
 3317SOL     OW12999   4.499   1.302   5.167 -0.3441 -0.3656 -0.1485
 3317SOL    HW213000   4.461   1.216   5.182  1.8484 -1.5366 -0.7785
 3317SOL    HW313001   4.575   1.284   5.111  1.4058  1.6853  1.3940
 3317SOL    MW413002   4.504   1.288   5.162 -0.5891 -0.8561 -0.4030
 3318SOL     OW13003   2.771   3.582   4.419 -0.4639  0.1714  0.0697
 3318SOL    HW213004   2.753   3.606   4.328 -1.0336 -1.4722 -0.2924
 3318SOL    HW313005   2.770   3.486   4.419 -1.5933  0.1269  2.0233
 3318SOL    MW413006   2.768   3.572   4.407  0.1957 -0.3176  0.2701
 3319SOL     OW13007   0.271   0.303   1.239 -0.4659 -0.0086  0.2921
 3319SOL    HW213008   0.231   0.335   1.158 -1.3261  0.2232  0.7963
 3319SOL    HW313009   0.314   0.379   1.277  1.0562 -0.3907 -0.5643
 3319SOL    MW413010   0.271   0.317   1.233 -0.1333 -0.3782 -0.2242
 3320SOL     OW13011   1.842   0.202   5.677 -0.8419 -0.0959  0.4589
 3320SOL    HW213012   1.892   0.281   5.698  0.6938 -0.5826 -1.0994
 3320SOL    HW313013   1.784   0.189   5.752 -0.4562  1.9563  1.1755
 3320SOL    MW413014   1.841   0.211   5.689 -0.1685  0.3321 -0.1221
 3321SOL     OW13015   0.217   2.601   3.486  0.3503 -0.0984  0.3202
 3321SOL    HW213016   0.132   2.642   3.500 -0.4246 -1.0253 -1.2788
 3321SOL    HW313017   0.279   2.673   3.483  0.1362  0.4550  4.1851
 3321SOL    MW413018   0.214   2.616   3.487 -0.3265  0.1613  0.3442
 3322SOL     OW13019   6.035   1.930   0.957 -0.1480  0.6886  0.0035
 3322SOL    HW213020   6.127   1.906   0.949 -0.2629  0.7180 -1.8695
 3322SOL    HW313021   6.037   2.019   0.993  0.6175  1.1096 -1.0184
 3322SOL    MW413022   6.048   1.939   0.961 -0.0908 -0.0951 -0.3790
 3323SOL     OW13023   1.607   1.554   1.416 -0.0873  0.0163 -0.1889
 3323SOL    HW213024   1.569   1.474   1.453 -0.4221 -0.0755 -0.7208
 3323SOL    HW313025   1.535   1.594   1.366 -0.2060  1.1342  0.8092
 3323SOL    MW413026   1.592   1.549   1.414  0.4142 -0.5492  0.5208
 3324SOL     OW13027   2.874   6.317   4.843  0.7237 -0.3562  0.4157
 3324SOL    HW213028   2.917   6.398   4.871 -2.0528  1.8967 -1.3407
 3324SOL    HW313029   2.893   6.311   4.750 -1.5135  0.0113 -0.1280
 3324SOL    MW413030   2.882   6.327   4.835 -1.0796 -0.5217  0.0483
 3325SOL     OW13031   1.242   5.712   4.172 -0.4608  0.1481 -0.4297
 3325SOL    HW213032   1.242   5.776   4.243 -1.1631 -1.8957  1.5235
 3325SOL    HW313033   1.314   5.652   4.193  1.5752  1.3438 -3.3449
 3325SOL    MW413034   1.251   5.712   4.184  0.5238  0.0269 -0.3117
 3326SOL     OW13035   1.537   3.617   4.136 -0.2424 -0.2844 -0.0127
 3326SOL    HW213036   1.528   3.572   4.052  1.3496 -1.6118  0.4619
 3326SOL    HW313037   1.571   3.704   4.114 -3.7423  1.0170 -0.9766
 3326SOL    MW413038   1.540   3.623   4.122 -0.0350  0.2090  0.0689
 3327SOL     OW13039   3.721   3.750   5.744 -0.3388  0.3745  0.2601
 3327SOL    HW213040   3.763   3.727   5.661  0.2108  0.0131  0.6375
 3327SOL    HW313041   3.790   3.744   5.809 -1.2327 -1.5088  1.0990
 3327SOL    MW413042   3.736   3.746   5.742  0.3657 -0.5876 -0.3312
 3328SOL     OW13043   1.254   2.084   5.912  0.3723  0.2569  0.4886
 3328SOL    HW213044   1.228   2.173   5.889  0.5907  0.5070  1.1735
 3328SOL    HW313045   1.284   2.091   6.003  0.3245 -0.5295  0.5708
 3328SOL    MW413046   1.254   2.096   5.921  0.2153  0.1446  0.2502
 3329SOL     OW13047   4.424   3.501   0.525 -0.0629  0.6081 -0.0562
 3329SOL    HW213048   4.518   3.486   0.513  0.0120  1.4794 -0.6119
 3329SOL    HW313049   4.405   3.464   0.611  0.6486 -0.1940 -0.2361
 3329SOL    MW413050   4.434   3.494   0.535  0.4144  0.0838 -0.0797
 3330SOL     OW13051   2.694   3.183   2.604 -0.2760  0.0791  0.6584
 3330SOL    HW213052   2.613   3.174   2.654  0.0756 -0.0645  1.2192
 3330SOL    HW313053   2.732   3.265   2.637 -0.2791  0.2349  0.2743
 3330SOL    MW413054   2.688   3.193   2.615 -0.0152 -0.8280  0.2801
 3331SOL     OW13055   0.820   3.268   4.078 -0.1712  0.1637 -0.1614
 3331SOL    HW213056   0.876   3.278   4.154 -1.6898  0.6265  0.9314
 3331SOL    HW313057   0.732   3.282   4.110 -0.7319  3.0079 -2.4622
 3331SOL    MW413058   0.816   3.271   4.092 -0.0342  0.4228 -0.5876
 3332SOL     OW13059   5.676   6.122   2.008 -0.5047  0.4435 -0.1905
 3332SOL    HW213060   5.684   6.217   2.000 -1.2525  0.5052 -0.3036
 3332SOL    HW313061   5.761   6.089   1.981 -0.0699  1.1048  0.3369
 3332SOL    MW413062   5.688   6.131   2.003  0.1678 -0.1048 -0.1351
 3333SOL     OW13063   5.823   6.396   5.165 -0.6239 -0.7103 -0.5980
 3333SOL    HW213064   5.893   6.455   5.194  0.0202 -1.4613 -0.5825
 3333SOL    HW313065   5.756   6.403   5.232 -0.2018 -0.5910 -0.1847
 3333SOL    MW413066   5.824   6.404   5.177 -0.4191  0.5139  0.1711
 3334SOL     OW13067   0.562   4.459   0.675  0.2527 -0.4174 -0.0448
 3334SOL    HW213068   0.622   4.526   0.644 -0.9786  1.1889  0.8976
 3334SOL    HW313069   0.477   4.503   0.683 -0.8325 -2.3213 -0.2714
 3334SOL    MW413070   0.558   4.473   0.672  0.2070 -0.0609 -0.1581
 3335SOL     OW13071   3.848   2.218   3.005 -0.4282  0.1219 -0.4503
 3335SOL    HW213072   3.914   2.149   3.004 -1.2032 -0.6292 -1.3836
 3335SOL    HW313073   3.811   2.217   2.916 -0.1520  2.0347 -0.6456
 3335SOL    MW413074   3.852   2.209   2.993 -0.2859 -0.4416  0.4878
 3336SOL     OW13075   5.486   4.466   6.121 -0.3640 -0.1419 -0.3223
 3336SOL    HW213076   5.471   4.390   6.064  1.0250 -2.8686  2.6432
 3336SOL    HW313077   5.449   4.441   6.205 -0.5674  2.8782  0.6154
 3336SOL    MW413078   5.479   4.453   6.125 -0.3417 -0.8603 -0.0925
 3337SOL     OW13079   5.277   3.131   1.644 -0.1032 -0.1599  0.1850
 3337SOL    HW213080   5.230   3.202   1.688  0.7140 -0.3194  1.3460
 3337SOL    HW313081   5.365   3.133   1.681 -0.2260 -2.1625  0.7102
 3337SOL    MW413082   5.282   3.141   1.654  0.6664 -0.3925  0.1338
 3338SOL     OW13083   4.831   3.984   5.206 -0.0164  0.5587  0.6443
 3338SOL    HW213084   4.844   3.940   5.290 -0.9178  0.0664  0.5408
 3338SOL    HW313085   4.888   4.060   5.210 -0.0487  0.5472  1.7048
 3338SOL    MW413086   4.840   3.988   5.217 -0.7575  0.3879 -0.2655
 3339SOL     OW13087   0.260   5.132   0.844 -0.2461 -0.2320  0.2256
 3339SOL    HW213088   0.219   5.129   0.757  0.6825 -1.4927 -0.1999
 3339SOL    HW313089   0.213   5.202   0.890 -1.5348 -0.3127 -0.8910
 3339SOL    MW413090   0.248   5.141   0.838  0.2167  0.1090  0.6258
 3340SOL     OW13091   5.976   1.638   2.579  0.4199  0.2197  0.5558
 3340SOL    HW213092   6.069   1.662   2.577  1.1348 -2.2096 -1.6089
 3340SOL    HW313093   5.973   1.561   2.636  0.2912 -1.2992 -1.3917
 3340SOL    MW413094   5.988   1.631   2.587  0.6673 -0.4998 -0.5145
 3341SOL     OW13095   1.259   2.652   4.546 -0.1368 -0.5657  0.0124
 3341SOL    HW213096   1.172   2.645   4.509  0.7461 -1.6454 -1.9997
 3341SOL    HW313097   1.255   2.601   4.627 -1.2744 -0.8458 -0.2108
 3341SOL    MW413098   1.247   2.645   4.552 -0.0389  0.0697 -0.3677
 3342SOL     OW13099   5.252   0.882   6.327  0.2449 -0.3962 -0.0970
 3342SOL    HW213100   5.335   0.873   6.374  0.5939  0.8859 -0.4293
 3342SOL    HW313101   5.243   0.976   6.313 -2.5324 -0.1756  2.2023
 3342SOL    MW413102   5.262   0.894   6.331  0.1932  0.1400 -0.0661
 3343SOL     OW13103   3.752   0.063   0.919  0.1443 -0.4821 -0.1264
 3343SOL    HW213104   3.679   0.003   0.911  0.0659 -0.6159  1.3259
 3343SOL    HW313105   3.815   0.017   0.976 -0.8140  1.5325  2.8253
 3343SOL    MW413106   3.751   0.049   0.926 -0.6457  0.1540 -0.1461
 3344SOL     OW13107   5.059   4.739   0.134  0.2372 -0.6172  0.0027
 3344SOL    HW213108   5.095   4.753   0.046  2.0336  0.4035  0.8365
 3344SOL    HW313109   5.012   4.819   0.155 -1.3025 -1.3522 -0.4762
 3344SOL    MW413110   5.058   4.751   0.125  0.6113 -0.6581 -0.1557
 3345SOL     OW13111   5.548   5.697   3.632 -0.0710 -0.0837 -0.2543
 3345SOL    HW213112   5.561   5.610   3.670 -0.6058  0.0706  0.3119
 3345SOL    HW313113   5.516   5.751   3.705  1.7139  0.9909 -0.2164
 3345SOL    MW413114   5.545   5.693   3.647  0.2382 -0.0450 -0.2491
 3346SOL     OW13115   2.683   3.258   1.395 -0.3605 -0.0423 -0.1732
 3346SOL    HW213116   2.734   3.178   1.405 -0.4483  0.0575  1.3523
 3346SOL    HW313117   2.681   3.296   1.483  0.5902  2.2008 -1.0506
 3346SOL    MW413118   2.689   3.252   1.408 -0.1735 -0.2713 -0.1104
 3347SOL     OW13119   1.156   0.461   0.092 -0.4056 -0.5603  0.1565
 3347SOL    HW213120   1.069   0.422   0.086 -0.1081 -1.4418  1.3293
 3347SOL    HW313121   1.163   0.515   0.013 -1.1759 -2.1850 -1.0860
 3347SOL    MW413122   1.146   0.463   0.081  0.1471 -0.9231 -0.1032
 3348SOL     OW13123   5.588   3.918   1.495 -0.3006 -0.4504 -0.1036
 3348SOL    HW213124   5.608   3.911   1.402 -0.3543  1.7989 -0.3452
 3348SOL    HW313125   5.603   4.010   1.515 -1.0264 -0.7406  1.9518
 3348SOL    MW413126   5.593   3.929   1.485 -0.2383  0.2824  0.2003
 3349SOL     OW13127   0.157   1.521   0.352  0.4414 -0.2287  0.2375
 3349SOL    HW213128   0.180   1.483   0.437 -2.2248 -1.8692  0.3635
 3349SOL    HW313129   0.202   1.465   0.288 -2.1795 -2.8694  0.4862
 3349SOL    MW413130   0.166   1.508   0.355 -0.4771 -0.1227 -0.7839
 3350SOL     OW13131   4.092   2.911   1.413 -0.1663  0.4431  0.3032
 3350SOL    HW213132   4.093   3.002   1.384 -0.3955  0.7206  1.1425
 3350SOL    HW313133   4.183   2.890   1.430 -0.0558  0.3503 -0.3797
 3350SOL    MW413134   4.104   2.920   1.411 -0.1666  0.0385  0.1753
 3351SOL     OW13135   0.633   0.207   2.800  0.4280 -0.0465  0.2155
 3351SOL    HW213136   0.595   0.120   2.786  2.5420 -1.2635  1.4200
 3351SOL    HW313137   0.649   0.240   2.711  1.3875 -1.7782 -0.3122
 3351SOL    MW413138   0.630   0.200   2.786  0.2290  0.3768 -0.0004
 3352SOL     OW13139   3.474   1.170   3.467 -0.0363  0.1363  0.1665
 3352SOL    HW213140   3.457   1.077   3.482 -1.0521  0.2864  0.0491
 3352SOL    HW313141   3.561   1.185   3.503  0.1487 -0.8633  0.1623
 3352SOL    MW413142   3.483   1.160   3.474  0.0140 -0.4377  0.6901
 3353SOL     OW13143   2.393   1.432   4.914 -0.0033 -0.8620  0.3842
 3353SOL    HW213144   2.359   1.352   4.953 -0.3876 -0.2273  1.4114
 3353SOL    HW313145   2.336   1.448   4.839  0.7658 -2.1263 -0.4998
 3353SOL    MW413146   2.381   1.424   4.910  0.4086 -0.5654  0.6059
 3354SOL     OW13147   0.493   0.826   4.399  0.2662  0.4188  0.5838
 3354SOL    HW213148   0.494   0.906   4.346 -1.8574 -0.0436 -0.2841
 3354SOL    HW313149   0.542   0.762   4.349 -0.1040  0.5200  0.0856
 3354SOL    MW413150   0.499   0.828   4.386  0.0015 -0.3744  0.1320
 3355SOL     OW13151   2.421   2.573   2.036 -0.3353 -0.2807 -0.5673
 3355SOL    HW213152   2.502   2.557   1.988  0.9795 -1.2838  1.8195
 3355SOL    HW313153   2.407   2.667   2.029  1.0377 -0.0910 -1.0497
 3355SOL    MW413154   2.430   2.583   2.029 -0.0346  0.3895  0.1006
 3356SOL     OW13155   0.751   5.351   2.284  0.0839  0.6596  0.0563
 3356SOL    HW213156   0.741   5.349   2.189  1.2622 -0.2466 -0.0725
 3356SOL    HW313157   0.837   5.311   2.300 -0.2173  0.5432  1.5210
 3356SOL    MW413158   0.761   5.346   2.274  0.3883 -0.2408  0.1716
 3357SOL     OW13159   0.765   5.257   2.641 -0.9217  0.7329 -0.4916
 3357SOL    HW213160   0.734   5.321   2.706 -0.9187  1.6733 -1.3935
 3357SOL    HW313161   0.687   5.207   2.618 -0.6876 -0.5003  1.1620
 3357SOL    MW413162   0.751   5.259   2.647 -0.2579 -0.1718  0.1782
 3358SOL     OW13163   3.427   1.555   0.015 -0.1297  0.2575  0.0791
 3358SOL    HW213164   3.476   1.488  -0.033 -2.0310 -1.9091  1.0013
 3358SOL    HW313165   3.493   1.622   0.035  1.6248 -0.7876 -1.7936
 3358SOL    MW413166   3.442   1.555   0.011 -0.2743  0.3623  0.0751
 3359SOL     OW13167   1.853   5.486   3.325  0.2263  0.2526 -0.0686
 3359SOL    HW213168   1.891   5.543   3.392  0.7600 -0.5460  0.3274
 3359SOL    HW313169   1.818   5.411   3.374 -1.0737  0.5356 -0.5115
 3359SOL    MW413170   1.853   5.484   3.340 -0.3519  0.1365 -0.0293
 3360SOL     OW13171   3.088   1.472   4.367 -0.1167  0.3021  0.0558
 3360SOL    HW213172   3.091   1.379   4.342  1.7604  0.4204 -0.3156
 3360SOL    HW313173   3.126   1.518   4.292  3.2187  0.9016  1.9340
 3360SOL    MW413174   3.094   1.466   4.354  0.0183 -0.1630  0.3221
 3361SOL     OW13175   3.044   4.270   4.481 -0.1801 -0.5813  0.6207
 3361SOL    HW213176   3.135   4.268   4.452 -0.7180 -1.0352 -1.1703
 3361SOL    HW313177   3.003   4.195   4.439 -1.4830 -0.1370  1.0352
 3361SOL    MW413178   3.051   4.260   4.472 -0.1772 -0.5259 -0.3736
 3362SOL     OW13179   5.384   0.367   4.742 -0.1310 -0.1101 -0.3541
 3362SOL    HW213180   5.341   0.410   4.815 -1.9890 -0.5637 -1.1170
 3362SOL    HW313181   5.334   0.286   4.729 -0.5788  0.4784 -2.7948
 3362SOL    MW413182   5.372   0.362   4.750  0.1557 -0.2576  0.0553
 3363SOL     OW13183   2.938   5.463   2.133 -0.3244  0.2395  0.4182
 3363SOL    HW213184   2.940   5.468   2.037 -1.0409  0.0138  0.3872
 3363SOL    HW313185   3.027   5.437   2.157  0.4370  2.2795 -0.0452
 3363SOL    MW413186   2.950   5.460   2.123 -0.3703 -0.1623  0.3647
 3364SOL     OW13187   0.794   2.077   5.582  0.3432  0.3209  0.2288
 3364SOL    HW213188   0.741   2.062   5.660  2.4943 -2.5792  1.2571
 3364SOL    HW313189   0.739   2.046   5.510 -0.5087  0.2147  0.9052
 3364SOL    MW413190   0.779   2.071   5.583  0.0695  0.7370  0.0661
 3365SOL     OW13191   2.216   1.432   2.377  0.2587 -0.0417  0.0971
 3365SOL    HW213192   2.299   1.386   2.392  1.3771  1.6547 -0.5075
 3365SOL    HW313193   2.183   1.452   2.464  0.3190 -0.9951  0.3488
 3365SOL    MW413194   2.223   1.428   2.390  0.1231 -0.1314 -0.3444
 3366SOL     OW13195   5.078   0.236   1.537  0.2714 -0.2161 -0.2175
 3366SOL    HW213196   5.030   0.155   1.549  0.2126  0.0110  1.2090
 3366SOL    HW313197   5.084   0.274   1.624 -0.8257  1.9615 -1.0198
 3366SOL    MW413198   5.073   0.231   1.550 -0.3409  0.0059 -0.3227
 3367SOL     OW13199   6.013   2.047   5.795 -0.6361 -0.1220  0.0774
 3367SOL    HW213200   6.077   2.073   5.862  0.2626 -0.1210 -0.7684
 3367SOL    HW313201   6.037   1.958   5.771 -1.3580 -0.3635  0.2057
 3367SOL    MW413202   6.024   2.039   5.801 -0.0903 -0.5452 -0.1833
 3368SOL     OW13203   6.121   5.983   5.978  0.4582 -0.0733 -0.4313
 3368SOL    HW213204   6.105   6.041   5.904 -0.3726 -1.1099 -1.0763
 3368SOL    HW313205   6.081   5.900   5.954  1.3376 -0.8382  0.6157
 3368SOL    MW413206   6.114   5.980   5.965  0.2325  0.2210 -0.2461
 3369SOL     OW13207   4.603   4.244   2.675  0.2214 -0.0033 -0.2519
 3369SOL    HW213208   4.558   4.189   2.610  0.2802 -0.5524  0.1721
 3369SOL    HW313209   4.642   4.314   2.622  1.5009 -1.2374 -1.0097
 3369SOL    MW413210   4.602   4.246   2.659 -0.3047  0.6103  0.2358
 3370SOL     OW13211   3.320   4.109   5.437 -0.0013 -0.1703 -0.2357
 3370SOL    HW213212   3.281   4.178   5.382 -0.0305 -1.5361 -2.0290
 3370SOL    HW313213   3.252   4.091   5.502  0.2086  1.8055  0.6158
 3370SOL    MW413214   3.306   4.116   5.438 -0.0449  0.4391  0.4772
 3371SOL     OW13215   3.980   4.048   1.836 -0.5568  0.2214  0.1438
 3371SOL    HW213216   4.015   4.068   1.749 -1.3693  0.6014 -0.1064
 3371SOL    HW313217   3.901   4.102   1.842 -0.3171  0.4560  1.2521
 3371SOL    MW413218   3.974   4.058   1.825  0.2605  0.0209 -0.2657
 3372SOL     OW13219   1.424   2.339   0.479 -0.2480  0.2383 -0.3504
 3372SOL    HW213220   1.509   2.364   0.516  0.6510 -0.5326 -1.8118
 3372SOL    HW313221   1.412   2.397   0.404 -1.0626  0.3653 -0.1381
 3372SOL    MW413222   1.433   2.350   0.474  0.2740 -0.5169  0.3667
 3373SOL     OW13223   1.240   1.089   2.317  0.3948  0.0989 -0.5103
 3373SOL    HW213224   1.201   1.044   2.392  1.3946 -0.0982 -0.0864
 3373SOL    HW313225   1.252   1.179   2.347  0.6151  0.0658 -0.4944
 3373SOL    MW413226   1.237   1.095   2.331  0.7921 -0.5675 -0.0971
 3374SOL     OW13227   6.355   1.020   6.205  0.7382  0.2643  0.2270
 3374SOL    HW213228   6.431   1.007   6.149 -0.1421  0.6814 -1.0935
 3374SOL    HW313229   6.280   1.011   6.147 -0.2368 -0.0685  1.4901
 3374SOL    MW413230   6.355   1.017   6.190  0.5935 -0.2812  0.6198
 3375SOL     OW13231   3.184   5.888   6.376  0.0563  0.0053 -0.3706
 3375SOL    HW213232   3.203   5.855   6.288  0.8746  2.5433 -1.2459
 3375SOL    HW313233   3.113   5.832   6.407  0.8004 -1.9921 -1.9653
 3375SOL    MW413234   3.177   5.876   6.368 -0.4183 -0.8092  0.3008
 3376SOL     OW13235   6.120   3.516   1.326 -0.3927  0.0019 -0.0868
 3376SOL    HW213236   6.115   3.568   1.407  0.4014 -2.3959  1.6194
 3376SOL    HW313237   6.213   3.519   1.302 -0.3766 -0.4681 -0.0862
 3376SOL    MW413238   6.132   3.523   1.334 -0.0287  0.0692  0.2802
 3377SOL     OW13239   0.071   5.583   4.588 -0.3159 -0.1054  0.3681
 3377SOL    HW213240   0.079   5.528   4.510 -0.6978  1.2231 -0.6549
 3377SOL    HW313241   0.149   5.638   4.587 -1.4157  1.5241 -0.4254
 3377SOL    MW413242   0.082   5.583   4.578  0.2392 -0.1182 -0.0146
 3378SOL     OW13243   6.392   2.421   3.618 -0.1198 -0.1554 -0.2358
 3378SOL    HW213244   6.477   2.452   3.649  0.4900 -2.1732  0.2985
 3378SOL    HW313245   6.398   2.429   3.522  0.6879 -0.2746 -0.2068
 3378SOL    MW413246   6.404   2.426   3.609 -0.5401  0.1014  0.1307
 3379SOL     OW13247   4.595   2.166   2.100 -0.0619  0.1010 -0.0551
 3379SOL    HW213248   4.579   2.178   2.006  0.8389  0.5707 -0.1643
 3379SOL    HW313249   4.546   2.087   2.122 -1.1055  0.5438 -0.6906
 3379SOL    MW413250   4.587   2.157   2.090  0.0516  0.4175  0.5127
 3380SOL     OW13251   3.355   4.531   0.437  0.1473 -0.5454  0.2501
 3380SOL    HW213252   3.270   4.547   0.395 -0.1002  4.3327  1.9490
 3380SOL    HW313253   3.418   4.538   0.366 -0.6512  0.5011 -0.3963
 3380SOL    MW413254   3.352   4.534   0.423  0.0553  0.2461  0.0582
 3381SOL     OW13255   4.077   3.633   5.700  0.0061 -0.4224 -0.1552
 3381SOL    HW213256   4.140   3.599   5.764 -1.2055  1.5220  2.2676
 3381SOL    HW313257   4.129   3.687   5.641  1.2713 -2.8506 -1.3918
 3381SOL    MW413258   4.092   3.635   5.701  0.3611  0.1855 -0.2995
 3382SOL     OW13259   1.439   4.827   1.853  0.7199  0.1671 -0.5631
 3382SOL    HW213260   1.458   4.894   1.788  3.2799 -1.0189 -1.1629
 3382SOL    HW313261   1.486   4.749   1.822 -0.4258 -1.2961  1.1731
 3382SOL    MW413262   1.448   4.825   1.840  0.4150  0.6921 -0.7821
 3383SOL     OW13263   1.490   1.907   0.278 -0.0863  0.6031 -0.4690
 3383SOL    HW213264   1.399   1.937   0.281 -0.1861  0.2628  2.3266
 3383SOL    HW313265   1.497   1.859   0.196 -2.6512  0.0040 -0.4022
 3383SOL    MW413266   1.479   1.905   0.268 -0.2128 -0.0133  0.4570
 3384SOL     OW13267   3.198   4.808   1.618 -0.5024  0.1302  0.0579
 3384SOL    HW213268   3.183   4.714   1.628  0.0027  0.0024 -0.3555
 3384SOL    HW313269   3.201   4.823   1.524  1.5650  0.1954  0.0864
 3384SOL    MW413270   3.196   4.798   1.607 -0.3156  0.4801  0.2462
 3385SOL     OW13271   2.136   3.356   3.413  0.0257 -0.3998 -0.1984
 3385SOL    HW213272   2.152   3.405   3.494  2.6540 -0.7830 -0.3896
 3385SOL    HW313273   2.121   3.424   3.347  0.8900  0.0516  0.0517
 3385SOL    MW413274   2.136   3.372   3.415 -0.0008 -0.2017 -0.5908
 3386SOL     OW13275   0.302   0.564   3.804  0.2825  0.0833  0.2468
 3386SOL    HW213276   0.286   0.606   3.720  1.8459  3.0561  1.2724
 3386SOL    HW313277   0.378   0.509   3.789 -0.3265 -0.5535 -0.5885
 3386SOL    MW413278   0.310   0.563   3.791  0.0748 -0.3595 -0.9803
 3387SOL     OW13279   5.655   3.548   5.921  0.3368  0.1588  0.0589
 3387SOL    HW213280   5.643   3.494   5.843 -1.9181 -1.7690  1.5654
 3387SOL    HW313281   5.575   3.601   5.926  0.7071  0.6755  0.7543
 3387SOL    MW413282   5.643   3.548   5.911  0.1545  0.5020 -0.2349
 3388SOL     OW13283   2.643   2.248   6.229 -0.1121  0.7065  0.4657
 3388SOL    HW213284   2.657   2.335   6.192  2.1947  0.3706  0.3741
 3388SOL    HW313285   2.714   2.236   6.292 -0.6488 -0.9250  0.8279
 3388SOL    MW413286   2.654   2.258   6.232 -0.7770  0.2062 -0.2621
 3389SOL     OW13287   6.259   0.787   6.012 -0.4339 -0.3797  0.8069
 3389SOL    HW213288   6.247   0.698   6.047  1.0697 -1.9659 -2.3088
 3389SOL    HW313289   6.347   0.787   5.975 -0.8953  1.9821 -0.4859
 3389SOL    MW413290   6.269   0.775   6.012  0.7050  0.3646  0.6224
 3390SOL     OW13291   2.678   3.573   6.217  0.3368  0.4248 -0.6740
 3390SOL    HW213292   2.716   3.549   6.132 -0.0714  3.0966 -1.7090
 3390SOL    HW313293   2.748   3.553   6.280  1.5168  0.4397 -1.9137
 3390SOL    MW413294   2.693   3.567   6.214  0.1319  0.1636  0.5381
 3391SOL     OW13295   5.126   0.548   3.851  0.0537 -0.2921  0.3418
 3391SOL    HW213296   5.212   0.513   3.828 -0.0774 -1.0877  1.0072
 3391SOL    HW313297   5.070   0.524   3.777  1.0471  3.1218 -1.7367
 3391SOL    MW413298   5.130   0.540   3.838  0.0337  0.5336 -0.1664
 3392SOL     OW13299   6.280   6.243   1.411  0.2136 -0.5311  0.2833
 3392SOL    HW213300   6.340   6.317   1.405 -0.1896 -0.2892 -1.2889
 3392SOL    HW313301   6.237   6.240   1.325 -2.0754 -0.6448  1.3408
 3392SOL    MW413302   6.282   6.252   1.398 -0.2486 -0.4559  0.0931
 3393SOL     OW13303   2.518   3.667   4.016 -0.7382  0.1093 -0.4207
 3393SOL    HW213304   2.497   3.582   3.977 -0.1538 -0.4621  0.4591
 3393SOL    HW313305   2.506   3.730   3.945 -0.6793 -0.7739 -1.2375
 3393SOL    MW413306   2.514   3.664   4.001 -0.5938 -0.3484 -0.5225
 3394SOL     OW13307   2.445   2.704   4.797 -0.1264  0.2609  0.0686
 3394SOL    HW213308   2.482   2.790   4.775  0.2202 -0.2172 -1.2844
 3394SOL    HW313309   2.357   2.705   4.757 -0.7061  0.5222  1.3040
 3394SOL    MW413310   2.438   2.716   4.789 -0.4311 -0.0362  0.9594
 3395SOL     OW13311   5.972   3.616   3.251  0.2075 -0.0279 -0.3532
 3395SOL    HW213312   5.892   3.648   3.292  1.6422  2.3575  0.7866
 3395SOL    HW313313   6.006   3.691   3.202  2.0816 -0.7688 -0.2833
 3395SOL    MW413314   5.966   3.630   3.250 -0.9304 -0.3811 -0.4229
 3396SOL     OW13315   1.478   3.459   4.973  0.1311 -0.2241 -0.6356
 3396SOL    HW213316   1.441   3.498   4.894  0.7574 -0.5024 -1.0735
 3396SOL    HW313317   1.533   3.387   4.941 -0.6707 -1.2054  0.1295
 3396SOL    MW413318   1.480   3.454   4.959  0.2154 -0.4189  0.5183
 3397SOL     OW13319   6.297   6.099   6.201  0.1015  0.4251 -0.7014
 3397SOL    HW213320   6.319   6.167   6.137 -1.0658  0.9865 -0.5424
 3397SOL    HW313321   6.236   6.042   6.155  1.2862 -0.7047 -0.9215
 3397SOL    MW413322   6.292   6.101   6.187 -0.1032  0.2812 -0.1103
 3398SOL     OW13323   3.416   5.605   2.695  0.1995 -0.5397  0.1372
 3398SOL    HW213324   3.352   5.601   2.766  0.7351  4.2343  1.2140
 3398SOL    HW313325   3.365   5.631   2.618  0.4997  1.7627  0.6488
 3398SOL    MW413326   3.401   5.608   2.694 -0.1334 -0.5763 -0.8465
 3399SOL     OW13327   3.655   0.967   6.189  0.3720  0.1687  0.1119
 3399SOL    HW213328   3.587   0.901   6.201  0.7569 -0.4916 -1.2013
 3399SOL    HW313329   3.689   0.983   6.278 -0.9509 -0.0578  0.6727
 3399SOL    MW413330   3.651   0.961   6.202 -0.1512 -0.4781  0.3688
 3400SOL     OW13331   4.666   4.564   4.567 -0.3784  0.1773 -0.3202
 3400SOL    HW213332   4.653   4.523   4.481 -1.1893  0.1862 -0.2058
 3400SOL    HW313333   4.732   4.509   4.610 -0.2509 -0.0487 -0.7945
 3400SOL    MW413334   4.673   4.552   4.561  0.3218  0.0080 -0.4585
 3401SOL     OW13335   4.596   2.577   2.425  0.0200 -0.9250 -0.1264
 3401SOL    HW213336   4.638   2.595   2.341  1.3776 -1.7256  0.3404
 3401SOL    HW313337   4.580   2.483   2.423  0.6995 -1.0719  0.7632
 3401SOL    MW413338   4.600   2.567   2.414 -0.1275 -0.8621 -0.7460
 3402SOL     OW13339   0.934   4.236   0.785 -0.7165 -0.6157 -0.2579
 3402SOL    HW213340   0.847   4.268   0.811 -1.0490 -0.2796 -1.6843
 3402SOL    HW313341   0.984   4.315   0.764  1.1190 -0.5028  3.6726
 3402SOL    MW413342   0.929   4.251   0.785  0.1168 -0.3663  0.4958
 3403SOL     OW13343   1.572   0.500   1.550  0.3197  0.3416  0.2569
 3403SOL    HW213344   1.644   0.492   1.612  0.5982 -0.8533 -0.1894
 3403SOL    HW313345   1.600   0.448   1.474 -1.2429 -0.6291  0.3010
 3403SOL    MW413346   1.585   0.492   1.548  0.2034 -0.3230  0.0118
 3404SOL     OW13347   4.673   3.650   1.817  0.2042 -0.1449 -0.1217
 3404SOL    HW213348   4.755   3.601   1.822  1.0028  0.9620 -1.6405
 3404SOL    HW313349   4.613   3.601   1.873  1.5591 -1.6463  0.1041
 3404SOL    MW413350   4.676   3.637   1.825  0.0729  0.1421 -0.6087
 3405SOL     OW13351   5.188   4.825   4.271  0.1035  0.1825 -0.5196
 3405SOL    HW213352   5.278   4.826   4.306 -0.5892  0.4178  1.3780
 3405SOL    HW313353   5.193   4.877   4.191  1.6146  0.4097 -0.3142
 3405SOL    MW413354   5.201   4.832   4.265  0.0302 -0.6727  0.1021
 3406SOL     OW13355   5.083   1.425   4.346 -0.1786 -0.1214 -0.2051
 3406SOL    HW213356   5.158   1.482   4.363  0.2903 -0.9413  0.6039
 3406SOL    HW313357   5.028   1.434   4.423  0.2894 -1.3219  0.2993
 3406SOL    MW413358   5.086   1.434   4.358  0.1592 -0.0092 -0.0929
 3407SOL     OW13359   1.883   0.672   0.084  0.4422 -0.0932 -0.0391
 3407SOL    HW213360   1.892   0.656   0.177  0.5084 -0.1539 -0.0560
 3407SOL    HW313361   1.849   0.761   0.078  0.2109 -0.1747  0.0515
 3407SOL    MW413362   1.880   0.682   0.095 -0.4410  0.4950 -0.2001
 3408SOL     OW13363   4.378   3.860   0.711 -0.2077 -0.3476 -0.4607
 3408SOL    HW213364   4.316   3.796   0.745 -1.0909  0.6118 -0.2036
 3408SOL    HW313365   4.443   3.869   0.780  0.2130 -1.3218 -0.7089
 3408SOL    MW413366   4.378   3.853   0.725 -0.0586  0.0206  0.1864
 3409SOL     OW13367   2.779   0.235   3.512 -0.1620 -0.5286 -0.0042
 3409SOL    HW213368   2.693   0.199   3.531 -0.3261 -0.7479 -1.0847
 3409SOL    HW313369   2.839   0.186   3.568 -0.4547 -2.0703 -0.9862
 3409SOL    MW413370   2.776   0.224   3.522  0.1639 -0.1050 -0.5845
 3410SOL     OW13371   1.144   5.516   5.539 -0.4517 -0.7690 -0.7445
 3410SOL    HW213372   1.114   5.505   5.629  0.4106 -2.8725 -0.6580
 3410SOL    HW313373   1.079   5.470   5.486  0.1003 -1.2995 -0.9784
 3410SOL    MW413374   1.132   5.508   5.544  0.0870  0.2957  0.0690
 3411SOL     OW13375   3.447   4.337   3.731  0.4963  0.1449 -0.3986
 3411SOL    HW213376   3.453   4.252   3.775  1.1114  0.3574 -0.0538
 3411SOL    HW313377   3.484   4.322   3.644  0.0139 -0.0878 -0.5671
 3411SOL    MW413378   3.453   4.324   3.725  0.0374  0.0067 -0.2773
 3412SOL     OW13379   1.817   0.391   3.637  0.6103 -0.1060  0.0071
 3412SOL    HW213380   1.780   0.314   3.679  2.0359  0.2945  2.1552
 3412SOL    HW313381   1.761   0.464   3.666  0.6049 -0.0337 -0.1796
 3412SOL    MW413382   1.805   0.391   3.646  0.2760 -0.1165 -0.6630
 3413SOL     OW13383   5.572   4.777   0.364  0.0587 -0.0925 -0.7440
 3413SOL    HW213384   5.564   4.811   0.453  1.1763 -0.4211 -0.4972
 3413SOL    HW313385   5.484   4.749   0.341 -0.4022  0.7365 -0.0495
 3413SOL    MW413386   5.559   4.778   0.373  0.4634 -0.0508 -0.5519
 3414SOL     OW13387   3.139   4.036   5.624 -0.0421  0.3592  0.2245
 3414SOL    HW213388   3.180   3.956   5.659 -2.6968 -0.1022  2.6710
 3414SOL    HW313389   3.157   4.103   5.690  0.5808  1.3324 -0.9012
 3414SOL    MW413390   3.147   4.034   5.638 -0.1383 -0.4591 -0.4030
 3415SOL     OW13391   0.266   0.307   3.599 -0.6675  0.2705  0.1351
 3415SOL    HW213392   0.292   0.393   3.567  0.2822 -0.3468 -0.8191
 3415SOL    HW313393   0.310   0.298   3.683 -1.0071  0.8195  0.3794
 3415SOL    MW413394   0.275   0.317   3.605 -0.1496  0.0983 -0.1931
 3416SOL     OW13395   4.627   0.938   3.717  0.0456  0.0590 -0.6767
 3416SOL    HW213396   4.582   0.958   3.798 -1.2308  0.6405 -1.5058
 3416SOL    HW313397   4.634   1.022   3.672  0.0433 -0.3767 -1.5105
 3416SOL    MW413398   4.622   0.952   3.721  0.0082 -0.0506  0.0453
 3417SOL     OW13399   3.200   0.156   2.489  0.3161 -0.2313  0.4497
 3417SOL    HW213400   3.222   0.206   2.568  2.7494 -0.2959 -0.1337
 3417SOL    HW313401   3.182   0.223   2.423  0.1986 -0.1626  0.5504
 3417SOL    MW413402   3.200   0.172   2.491  0.4263 -0.5748  0.0490
 3418SOL     OW13403   5.751   3.882   2.694 -0.5606 -0.3226 -0.5431
 3418SOL    HW213404   5.722   3.794   2.668 -1.0497 -0.0607 -0.8855
 3418SOL    HW313405   5.670   3.931   2.707 -0.2754  0.2643 -0.9825
 3418SOL    MW413406   5.737   3.877   2.692  0.1034  0.0259 -0.8886
 3419SOL     OW13407   5.549   0.330   0.059 -0.0232  0.3681  0.9884
 3419SOL    HW213408   5.455   0.312   0.052  0.1727 -0.3105 -0.2130
 3419SOL    HW313409   5.556   0.391   0.132 -1.8562  3.6865 -1.3140
 3419SOL    MW413410   5.538   0.335   0.067  0.2976 -0.6873 -0.1830
 3420SOL     OW13411   5.916   0.301   5.614 -0.9851  0.0767  0.7403
 3420SOL    HW213412   6.009   0.308   5.594 -1.1801 -0.5560 -0.4948
 3420SOL    HW313413   5.912   0.293   5.710  0.2388 -0.2038  0.7804
 3420SOL    MW413414   5.928   0.301   5.624  0.3224 -0.5684  0.2335
 3421SOL     OW13415   0.640   1.097   2.767  0.2613  0.0898 -0.2656
 3421SOL    HW213416   0.689   1.176   2.747 -0.5631  1.1742  1.7073
 3421SOL    HW313417   0.693   1.051   2.832 -1.0931  1.1434  1.6909
 3421SOL    MW413418   0.653   1.101   2.773 -0.1945  0.0159  0.1642
 3422SOL     OW13419   5.481   2.884   4.818  0.2651  0.4512  0.0425
 3422SOL    HW213420   5.520   2.861   4.902  1.1490  1.1242 -0.1670
 3422SOL    HW313421   5.451   2.974   4.829 -1.0025  0.0353  0.1078
 3422SOL    MW413422   5.482   2.893   4.831 -0.1004 -0.5273 -0.1350
 3423SOL     OW13423   1.368   1.223   4.743 -0.3013  0.3937  0.0217
 3423SOL    HW213424   1.331   1.285   4.805 -2.6423  0.1159 -0.9847
 3423SOL    HW313425   1.385   1.275   4.664 -2.4160 -0.1414 -0.8801
 3423SOL    MW413426   1.365   1.238   4.741  0.1317 -0.0644 -0.2640
 3424SOL     OW13427   3.405   4.844   3.882  0.0622  0.2022 -0.3316
 3424SOL    HW213428   3.335   4.799   3.929  1.5560  0.6423  2.5382
 3424SOL    HW313429   3.485   4.814   3.924  1.5490  0.7964 -2.5686
 3424SOL    MW413430   3.406   4.834   3.894 -0.3766 -0.2084  0.7112
 3425SOL     OW13431   1.584   5.832   4.306 -0.1927 -0.6312  0.6162
 3425SOL    HW213432   1.660   5.886   4.286  0.3371 -1.0843  1.3335
 3425SOL    HW313433   1.609   5.744   4.278 -1.3836 -0.3885 -1.3622
 3425SOL    MW413434   1.598   5.827   4.300  0.0304 -0.0709 -0.4939
 3426SOL     OW13435   2.591   2.308   1.272  0.0151 -0.5910 -0.4396
 3426SOL    HW213436   2.646   2.325   1.348 -0.0083 -0.9142 -0.3460
 3426SOL    HW313437   2.642   2.337   1.197  0.1384 -0.4988 -0.3186
 3426SOL    MW413438   2.605   2.314   1.272  0.2527 -0.6318 -0.3896
 3427SOL     OW13439   4.158   1.180   2.938 -0.2658  0.0880 -0.4531
 3427SOL    HW213440   4.150   1.148   2.848 -0.5830 -0.1737 -0.3337
 3427SOL    HW313441   4.068   1.194   2.967 -0.2035 -0.4772  0.0447
 3427SOL    MW413442   4.145   1.177   2.930 -0.1901 -0.3571  0.1220
 3428SOL     OW13443   1.662   6.420   5.010  0.1565 -0.0552  0.2707
 3428SOL    HW213444   1.692   6.437   4.921  0.1560  0.0245  0.2862
 3428SOL    HW313445   1.607   6.495   5.032 -0.1195 -0.2377  0.2157
 3428SOL    MW413446   1.659   6.432   5.001  0.6753  0.2761  1.0110
 3429SOL     OW13447   2.921   3.016   3.411  0.0867  0.1193 -0.0615
 3429SOL    HW213448   2.959   3.100   3.435  4.1656 -0.8183 -2.2526
 3429SOL    HW313449   2.863   3.037   3.337  0.9378  1.0698 -0.4912
 3429SOL    MW413450   2.918   3.030   3.404 -0.1807  0.0719 -0.0752
 3430SOL     OW13451   4.767   2.395   4.743  0.4535 -0.0379 -0.4043
 3430SOL    HW213452   4.822   2.333   4.696  2.8695  0.7097  1.2196
 3430SOL    HW313453   4.764   2.361   4.833 -0.8883  0.5060 -0.2280
 3430SOL    MW413454   4.774   2.382   4.749  0.3117 -0.6761  0.3200
 3431SOL     OW13455   1.319   2.035   4.657 -0.1253 -0.0067  0.1066
 3431SOL    HW213456   1.258   2.002   4.591 -1.0140  2.0445 -0.1755
 3431SOL    HW313457   1.337   2.125   4.630  0.2912  0.5506  2.0871
 3431SOL    MW413458   1.313   2.042   4.645  0.0183  0.5915 -0.1837
 3432SOL     OW13459   4.792   0.518   3.027  0.3587  0.2334  0.2355
 3432SOL    HW213460   4.871   0.570   3.044  0.9958 -0.8978  0.7958
 3432SOL    HW313461   4.725   0.584   3.004  1.7194  1.1331 -1.3782
 3432SOL    MW413462   4.793   0.534   3.026  0.1713 -0.1430  0.1335
 3433SOL     OW13463   6.146   4.855   5.303 -0.1023 -0.3407 -0.6811
 3433SOL    HW213464   6.110   4.886   5.386  1.7297 -1.1581  0.4796
 3433SOL    HW313465   6.094   4.777   5.283 -0.3077 -0.3591 -0.0928
 3433SOL    MW413466   6.134   4.849   5.311  0.2321 -0.2987 -0.0922
 3434SOL     OW13467   2.284   0.020   1.702  0.4428 -0.1972  0.0654
 3434SOL    HW213468   2.294   0.114   1.713  1.8474 -0.4505  1.2613
 3434SOL    HW313469   2.273  -0.014   1.791 -1.6352 -1.0354 -0.4597
 3434SOL    MW413470   2.284   0.028   1.715  0.1751  0.0016  0.7554
 3435SOL     OW13471   5.936   5.403   4.694  0.6639  0.2674 -0.0260
 3435SOL    HW213472   5.912   5.314   4.723  1.7642 -0.0089  0.0868
 3435SOL    HW313473   5.861   5.432   4.642  0.8102 -1.2412 -1.1623
 3435SOL    MW413474   5.923   5.395   4.691 -0.3801  0.1003 -0.0962
 3436SOL     OW13475   5.371   5.057   5.305  0.0512  0.4095  0.1662
 3436SOL    HW213476   5.417   5.132   5.267 -0.4777 -0.1474 -1.6798
 3436SOL    HW313477   5.283   5.090   5.322  0.4811  0.8618  1.6650
 3436SOL    MW413478   5.366   5.072   5.302 -0.5218 -0.7157  0.3477
 3437SOL     OW13479   2.703   1.728   2.663  0.6523  0.5366 -0.3000
 3437SOL    HW213480   2.769   1.672   2.703  0.2984 -0.9268 -1.6636
 3437SOL    HW313481   2.710   1.811   2.710 -0.0646 -1.1374  3.0857
 3437SOL    MW413482   2.713   1.732   2.674 -0.1630  0.3621  0.0365
 3438SOL     OW13483   0.699   5.937   6.334  0.3471  0.0433 -0.1428
 3438SOL    HW213484   0.677   5.862   6.278  0.9454  0.5493 -1.0699
 3438SOL    HW313485   0.726   5.897   6.417  1.1418 -0.8030 -0.7803
 3438SOL    MW413486   0.700   5.922   6.338  0.4126 -0.0140 -0.1066
 3439SOL     OW13487   3.081   6.333   1.197 -0.1686 -0.1393 -0.0392
 3439SOL    HW213488   3.100   6.244   1.227 -0.5040 -0.1145  0.2538
 3439SOL    HW313489   3.104   6.389   1.272  0.7990  0.0986 -0.4943
 3439SOL    MW413490   3.087   6.329   1.211 -0.1614  0.2441 -0.2600
 3440SOL     OW13491   0.720   4.584   2.686  0.2735 -0.1344  0.5010
 3440SOL    HW213492   0.729   4.512   2.749 -0.2512  0.1130  0.8688
 3440SOL    HW313493   0.807   4.622   2.681  0.6678 -1.0747 -0.0391
 3440SOL    MW413494   0.732   4.579   2.694  0.1545  0.6339 -0.2783
 3441SOL     OW13495   5.434   0.896   3.152 -0.0726  0.2660  0.3498
 3441SOL    HW213496   5.511   0.893   3.095 -0.3912 -0.3500 -0.0632
 3441SOL    HW313497   5.470   0.889   3.241  0.4715  1.9227  0.2881
 3441SOL    MW413498   5.449   0.895   3.156  0.2404  0.2888 -0.1779
 3442SOL     OW13499   2.338   4.564   2.648 -0.2618  0.0956 -0.3550
 3442SOL    HW213500   2.344   4.658   2.631  1.7586  0.5357  2.1706
 3442SOL    HW313501   2.422   4.529   2.618  0.0513 -0.4171  1.0367
 3442SOL    MW413502   2.350   4.572   2.642 -0.0788  0.0831  0.2890
 3443SOL     OW13503   5.264   3.518   4.853  0.0735  0.2902 -0.3601
 3443SOL    HW213504   5.302   3.554   4.933  1.3352 -2.6733  0.5366
 3443SOL    HW313505   5.336   3.515   4.791 -0.6357  1.5498 -1.2923
 3443SOL    MW413506   5.278   3.522   4.856 -0.4686 -0.4207 -0.1541
 3444SOL     OW13507   5.246   2.376   3.319  0.0572  0.0783 -0.1254
 3444SOL    HW213508   5.316   2.422   3.272 -2.0671  3.3128 -0.4852
 3444SOL    HW313509   5.240   2.290   3.277  2.3008  0.5546 -1.5651
 3444SOL    MW413510   5.254   2.371   3.307 -0.8900 -0.1161  0.2785
 3445SOL     OW13511   2.421   6.016   0.125 -0.8892 -0.0449 -0.0926
 3445SOL    HW213512   2.397   6.086   0.187  0.4206  1.8791 -1.6458
 3445SOL    HW313513   2.338   5.985   0.091 -1.5502  0.0081  1.3724
 3445SOL    MW413514   2.407   6.021   0.129  0.0394 -0.2811 -0.3845
 3446SOL     OW13515   3.505   6.091   3.519  0.5177  0.2305  0.2001
 3446SOL    HW213516   3.597   6.113   3.534  1.1715 -3.3570  2.6533
 3446SOL    HW313517   3.460   6.119   3.599 -0.3604  0.9078 -0.5057
 3446SOL    MW413518   3.511   6.098   3.532 -0.4917  0.2781  0.0978
 3447SOL     OW13519   6.042   0.242   2.623 -0.2422 -0.2046  0.2341
 3447SOL    HW213520   6.003   0.288   2.697 -2.0112 -1.5360  0.1809
 3447SOL    HW313521   5.968   0.206   2.575  0.9759 -1.1542 -1.0098
 3447SOL    MW413522   6.027   0.244   2.626  0.6443 -0.2692 -0.8429
 3448SOL     OW13523   6.309   1.945   3.907 -0.2379  1.4174  0.6445
 3448SOL    HW213524   6.272   1.942   3.995 -0.7484  2.4803  0.4798
 3448SOL    HW313525   6.403   1.961   3.921 -0.2433  1.1701  0.9907
 3448SOL    MW413526   6.317   1.946   3.920  0.0548 -0.3568 -0.4086
 3449SOL     OW13527   0.478   6.263   4.014 -0.4434  0.4930  0.5131
 3449SOL    HW213528   0.481   6.187   4.073  0.0149  1.2437  1.4761
 3449SOL    HW313529   0.470   6.338   4.072  3.2738  1.5469 -0.1225
 3449SOL    MW413530   0.477   6.263   4.029 -0.3189  0.5452 -0.0643
 3450SOL     OW13531   2.896   5.076   3.982 -0.3043  0.9813  0.1633
 3450SOL    HW213532   2.885   5.142   3.914  1.5191  0.4737 -0.6877
 3450SOL    HW313533   2.851   4.998   3.947 -1.5969  1.4362  0.7323
 3450SOL    MW413534   2.889   5.074   3.969 -0.7149 -0.3225 -0.0307
 3451SOL     OW13535   5.804   2.054   2.344 -0.1469  0.3449  0.1534
 3451SOL    HW213536   5.835   1.988   2.281  0.5790  0.6576  0.1768
 3451SOL    HW313537   5.879   2.112   2.357 -0.1378  0.0323  1.6547
 3451SOL    MW413538   5.818   2.053   2.337 -0.3903 -0.7562 -0.0638
 3452SOL     OW13539   6.166   3.660  -0.031  0.2590 -0.2486 -0.4288
 3452SOL    HW213540   6.168   3.669  -0.126 -1.3841 -2.2144 -0.7020
 3452SOL    HW313541   6.084   3.615  -0.012 -0.0900  1.2656  2.0620
 3452SOL    MW413542   6.156   3.655  -0.041 -0.1971  0.3050  0.3729
 3453SOL     OW13543   6.226   2.123   0.497 -0.1751  0.1865  0.2571
 3453SOL    HW213544   6.209   2.042   0.448  1.1665 -0.7723  1.3048
 3453SOL    HW313545   6.166   2.119   0.571 -0.8108  0.6576 -0.2256
 3453SOL    MW413546   6.216   2.112   0.500  0.4506  0.2885 -0.9843
 3454SOL     OW13547   4.248   3.801   4.164  0.7943 -0.0851 -0.0504
 3454SOL    HW213548   4.292   3.836   4.242 -1.5340  0.9452  0.9231
 3454SOL    HW313549   4.230   3.710   4.185 -0.4599  0.3649  1.0103
 3454SOL    MW413550   4.251   3.794   4.177  0.6042 -0.3470 -0.0058
 3455SOL     OW13551   5.206   4.563   5.934  0.5501  0.2895  0.1298
 3455SOL    HW213552   5.239   4.635   5.987 -0.7335 -0.4586  2.0676
 3455SOL    HW313553   5.157   4.606   5.863  1.4168  1.3169  0.1367
 3455SOL    MW413554   5.204   4.578   5.931 -0.5143 -0.0382 -0.0056
 3456SOL     OW13555   1.986   3.124  -0.007  0.2531 -0.0770  0.5448
 3456SOL    HW213556   1.925   3.051   0.003  0.7211 -0.4945  0.3429
 3456SOL    HW313557   1.936   3.200   0.023  0.1587 -0.6386  1.8823
 3456SOL    MW413558   1.971   3.125  -0.002  0.2550 -0.5354 -0.2196
 3457SOL     OW13559   2.076   5.906   2.292 -0.0564 -0.0708 -0.0103
 3457SOL    HW213560   2.083   5.835   2.230 -2.4170 -0.3168 -0.0942
 3457SOL    HW313561   2.064   5.984   2.238 -0.3602 -0.0324  0.1115
 3457SOL    MW413562   2.075   5.907   2.277  0.7277  0.1729  0.0834
 3458SOL     OW13563   6.018   1.876   3.118 -0.2052 -0.2816 -0.3808
 3458SOL    HW213564   6.037   1.807   3.055  2.6802 -0.2281  0.2874
 3458SOL    HW313565   6.067   1.852   3.196  0.0507  1.9859  0.2371
 3458SOL    MW413566   6.027   1.864   3.120 -0.3457  0.2396  0.1993
 3459SOL     OW13567   0.193   4.486   4.616  0.3742 -0.3634 -0.0155
 3459SOL    HW213568   0.280   4.525   4.608  0.5353 -0.0981  2.4430
 3459SOL    HW313569   0.163   4.477   4.525  1.5226  2.7487 -0.8154
 3459SOL    MW413570   0.201   4.490   4.603 -0.2889 -0.5343  0.3682
 3460SOL     OW13571   5.257   6.365   5.002 -0.5505 -0.0256 -0.0955
 3460SOL    HW213572   5.309   6.378   4.922 -0.4425 -0.0228 -0.0253
 3460SOL    HW313573   5.167   6.378   4.974 -0.3992  1.6798  0.1342
 3460SOL    MW413574   5.252   6.368   4.988  0.2092 -0.1047 -0.1412
 3461SOL     OW13575   5.695   4.057   5.803  0.0942  0.7499  0.0916
 3461SOL    HW213576   5.722   3.967   5.820  0.0523  0.6926 -0.1327
 3461SOL    HW313577   5.602   4.050   5.779  0.2576  0.7695 -0.5865
 3461SOL    MW413578   5.686   4.045   5.802  0.1519 -0.1931  0.0414
 3462SOL     OW13579   4.590   1.888   4.279 -0.4451 -0.0054  0.1214
 3462SOL    HW213580   4.671   1.917   4.237 -1.1240 -0.7728 -1.8515
 3462SOL    HW313581   4.521   1.923   4.224 -1.4427 -0.2060  1.2055
 3462SOL    MW413582   4.592   1.896   4.266 -0.5195 -0.7140 -0.3667
 3463SOL     OW13583   0.695   0.023   3.914  0.2889 -0.4132 -0.2664
 3463SOL    HW213584   0.748  -0.055   3.896  1.6322  0.0425  1.4462
 3463SOL    HW313585   0.627  -0.007   3.975  0.7575 -0.2957  0.3291
 3463SOL    MW413586   0.693   0.009   3.920  0.0036 -0.4028  0.3597
 3464SOL     OW13587   3.716   5.352   2.981 -0.4740 -0.0161  0.6160
 3464SOL    HW213588   3.654   5.279   2.979 -0.5192  0.0392  0.0149
 3464SOL    HW313589   3.681   5.410   3.049 -0.9102 -0.1313  0.4941
 3464SOL    MW413590   3.703   5.350   2.990  0.3891  0.0537  0.7281
 3465SOL     OW13591   3.398   1.881   3.349 -0.4506  0.2007  0.4992
 3465SOL    HW213592   3.445   1.947   3.299  0.3443 -1.2738 -0.7802
 3465SOL    HW313593   3.373   1.925   3.430 -0.8746  2.3703 -0.7385
 3465SOL    MW413594   3.401   1.895   3.353  0.0928 -0.5191 -0.2536
 3466SOL     OW13595   4.179   6.314   3.701  0.0906  0.1007  0.5634
 3466SOL    HW213596   4.226   6.380   3.752 -1.5866  1.0884  0.9230
 3466SOL    HW313597   4.180   6.348   3.612 -0.9530  0.7619  0.7844
 3466SOL    MW413598   4.185   6.328   3.696  0.1774  0.4710  0.0097
 3467SOL     OW13599   6.055   0.931   3.061 -0.2246 -0.0597  0.8095
 3467SOL    HW213600   6.112   0.989   3.011 -1.6265  1.0211  0.4077
 3467SOL    HW313601   6.044   0.854   3.005  0.2712  0.0256  0.5913
 3467SOL    MW413602   6.061   0.929   3.047 -0.1865 -0.3429 -0.0139
 3468SOL     OW13603   1.124   5.486   1.684  0.2881  0.6843  0.4957
 3468SOL    HW213604   1.163   5.399   1.674 -1.5101  0.0689 -2.3376
 3468SOL    HW313605   1.197   5.546   1.672  1.3935 -0.3786  1.5072
 3468SOL    MW413606   1.139   5.482   1.681 -0.1194 -0.2177  0.3199
 3469SOL     OW13607   1.499   4.551   1.095 -0.0794  0.1740  0.3879
 3469SOL    HW213608   1.501   4.508   1.010 -0.3930  0.6641  0.1336
 3469SOL    HW313609   1.590   4.576   1.111 -0.3455  2.1149 -0.8497
 3469SOL    MW413610   1.511   4.549   1.086 -0.3230  0.7499  0.2001
 3470SOL     OW13611   1.210   3.373   3.232  0.6267 -0.0328 -0.2361
 3470SOL    HW213612   1.145   3.443   3.232 -0.9045 -1.3558  1.9252
 3470SOL    HW313613   1.179   3.312   3.165 -0.6599 -0.8635  1.0711
 3470SOL    MW413614   1.197   3.374   3.223  0.2844  0.4151  0.1716
 3471SOL     OW13615   4.634   0.618   0.586 -0.1458  0.2355  0.8764
 3471SOL    HW213616   4.644   0.664   0.670  1.8220  0.2314  0.6849
 3471SOL    HW313617   4.680   0.535   0.598 -1.1417 -0.4329  0.2566
 3471SOL    MW413618   4.641   0.613   0.599  0.1367  0.5477 -0.1142
 3472SOL     OW13619   4.688   2.192   5.374 -0.2214 -0.3959  0.1485
 3472SOL    HW213620   4.771   2.160   5.407  0.4614  0.2404 -0.8710
 3472SOL    HW313621   4.646   2.116   5.336 -0.4571 -0.8735  1.3310
 3472SOL    MW413622   4.693   2.178   5.373 -0.1948  0.3937 -0.3113
 3473SOL     OW13623   3.690   2.800   0.683 -0.1930 -0.5400 -0.3022
 3473SOL    HW213624   3.598   2.780   0.696 -0.2584  0.4982  1.0075
 3473SOL    HW313625   3.736   2.741   0.743 -0.0486 -0.5386 -0.4112
 3473SOL    MW413626   3.684   2.790   0.692 -0.3843 -0.0577 -0.5481
 3474SOL     OW13627   0.077   2.216   6.127 -0.3365  0.2660 -0.1743
 3474SOL    HW213628   0.130   2.256   6.196 -2.1301  1.0541  0.8154
 3474SOL    HW313629   0.005   2.173   6.174 -0.7611 -0.5020 -1.4760
 3474SOL    MW413630   0.074   2.216   6.142  0.4763  0.0434  0.3426
 3475SOL     OW13631   0.425   0.939   0.803 -0.1272  0.4403 -0.3974
 3475SOL    HW213632   0.407   0.954   0.896 -0.6865 -1.8508 -0.0748
 3475SOL    HW313633   0.343   0.903   0.769  0.8819 -1.2987 -1.1102
 3475SOL    MW413634   0.412   0.936   0.811  0.5717  0.2433 -0.8289
 3476SOL     OW13635   0.724   5.281   3.395  0.1407 -0.4331  0.2082
 3476SOL    HW213636   0.630   5.267   3.381 -0.6163  2.0606  1.9157
 3476SOL    HW313637   0.751   5.336   3.321 -0.5715  1.4058  1.2314
 3476SOL    MW413638   0.715   5.286   3.383  0.0241 -0.8658 -0.0961
 3477SOL     OW13639   5.178   4.251   2.838  0.1263 -0.0765  0.2995
 3477SOL    HW213640   5.204   4.162   2.814  3.7584  0.9643 -0.2591
 3477SOL    HW313641   5.169   4.248   2.933 -1.0912 -1.2546  0.1889
 3477SOL    MW413642   5.180   4.238   2.847  0.1639 -0.1975  0.2947
 3478SOL     OW13643   6.350   0.583   4.430  0.1971  0.2579  0.1556
 3478SOL    HW213644   6.436   0.541   4.441  0.1217  0.4511  1.6231
 3478SOL    HW313645   6.367   0.676   4.446 -0.3298  0.2607  0.7361
 3478SOL    MW413646   6.364   0.590   4.433 -0.0195  0.7520 -0.1605
 3479SOL     OW13647   4.571   2.986   4.834 -0.2072  0.2824  0.4055
 3479SOL    HW213648   4.574   2.893   4.855 -1.9088  0.5416  2.0267
 3479SOL    HW313649   4.663   3.013   4.830  0.3030 -1.0027  2.2245
 3479SOL    MW413650   4.584   2.978   4.836  0.0846  0.0511  0.4901
 3480SOL     OW13651   3.609   0.013   3.561 -0.3977  0.0559  0.2094
 3480SOL    HW213652   3.587   0.105   3.546  0.7800  0.4208  0.6104
 3480SOL    HW313653   3.678  -0.006   3.497 -2.0168 -1.1696 -1.2885
 3480SOL    MW413654   3.615   0.023   3.551  0.1040  0.3676 -0.1871
 3481SOL     OW13655   0.369   4.821   5.478 -0.8887  0.0405 -0.2388
 3481SOL    HW213656   0.361   4.890   5.412  0.8003  0.4920 -0.0131
 3481SOL    HW313657   0.388   4.868   5.559  2.2859 -0.6909 -0.4336
 3481SOL    MW413658   0.371   4.836   5.480  0.3135  0.3664 -0.0769
 3482SOL     OW13659   2.257   6.094   0.798  0.1337 -0.1147 -0.0035
 3482SOL    HW213660   2.314   6.075   0.723  1.6753 -0.7041  1.2393
 3482SOL    HW313661   2.307   6.156   0.851 -0.4813 -0.4561  1.0139
 3482SOL    MW413662   2.271   6.100   0.795 -0.0098  0.6737 -0.3752
 3483SOL     OW13663   0.612   3.057   5.865  0.3076  0.2001 -0.7169
 3483SOL    HW213664   0.586   3.147   5.882 -1.4149 -0.5227  0.6678
 3483SOL    HW313665   0.703   3.052   5.894  0.4953  1.5239 -1.0375
 3483SOL    MW413666   0.621   3.068   5.871 -0.1986 -0.0502  0.5265
 3484SOL     OW13667   0.746   6.234   5.959 -0.3716  0.0103  0.0556
 3484SOL    HW213668   0.782   6.156   6.002  0.4295  0.3540  0.0201
 3484SOL    HW313669   0.789   6.235   5.873 -0.1028  0.6954  0.1958
 3484SOL    MW413670   0.756   6.224   5.953 -0.5285 -0.3024  0.2160
 3485SOL     OW13671   2.120   0.663   6.326  0.0078  0.0536  0.4516
 3485SOL    HW213672   2.056   0.675   6.396  0.5847  0.1046  0.9785
 3485SOL    HW313673   2.095   0.581   6.284 -0.4912  0.1501  0.5602
 3485SOL    MW413674   2.109   0.653   6.330 -0.9701 -0.3037 -0.0450
 3486SOL     OW13675   2.101   0.256   0.180  0.1667 -0.4194 -0.2107
 3486SOL    HW213676   2.108   0.351   0.187 -1.8935  0.0253 -2.9039
 3486SOL    HW313677   2.179   0.230   0.131  0.8450 -0.2000  0.7167
 3486SOL    MW413678   2.113   0.265   0.174  0.4692 -0.2822 -0.5404
 3487SOL     OW13679   1.746   4.336   4.211  0.3261  0.1972 -0.7497
 3487SOL    HW213680   1.702   4.270   4.157 -1.5698  0.0354  0.8730
 3487SOL    HW313681   1.815   4.287   4.256  0.0331 -0.3054 -0.8312
 3487SOL    MW413682   1.749   4.320   4.210 -0.9382  0.5585 -0.4084
 3488SOL     OW13683   2.405   2.673   1.543 -0.0255 -0.9164  0.3442
 3488SOL    HW213684   2.369   2.587   1.567  1.9297 -1.4395  1.6366
 3488SOL    HW313685   2.454   2.701   1.620 -0.3938  1.2774 -0.1417
 3488SOL    MW413686   2.407   2.666   1.556 -0.3353  0.5718  0.1027
 3489SOL     OW13687   5.050   6.049   3.515 -0.6892  0.4067  0.4209
 3489SOL    HW213688   5.125   6.074   3.568 -0.3232 -1.2212  0.7378
 3489SOL    HW313689   4.979   6.037   3.578 -0.6005 -0.2492  0.4065
 3489SOL    MW413690   5.050   6.050   3.531 -0.1933  0.4155 -0.7331
 3490SOL     OW13691   5.470   1.409   3.977  0.2376 -0.6378 -0.3593
 3490SOL    HW213692   5.544   1.466   3.998  0.3688 -0.3010 -1.6601
 3490SOL    HW313693   5.475   1.339   4.042  0.8892  0.1044  0.4093
 3490SOL    MW413694   5.481   1.407   3.988 -0.5798 -0.4261  0.1244
 3491SOL     OW13695   5.504   0.515   0.753 -0.6684  0.1401  0.9614
 3491SOL    HW213696   5.486   0.568   0.676 -0.7963 -0.4119  0.6027
 3491SOL    HW313697   5.436   0.448   0.753  0.9446 -1.6219 -0.0804
 3491SOL    MW413698   5.493   0.513   0.743 -0.1170 -0.3622  0.2880
 3492SOL     OW13699   5.538   4.775   0.868 -0.1014  0.2214  0.5519
 3492SOL    HW213700   5.516   4.767   0.961 -2.2209 -1.4353 -0.0026
 3492SOL    HW313701   5.633   4.783   0.866 -0.1205  2.4156  2.9278
 3492SOL    MW413702   5.548   4.775   0.880 -0.5023  0.2180 -0.7379
 3493SOL     OW13703   5.230   6.392   3.386 -0.2260  0.4989 -1.0926
 3493SOL    HW213704   5.209   6.324   3.450  0.2433 -2.4038 -3.7792
 3493SOL    HW313705   5.323   6.410   3.400  0.2592 -1.2143 -1.7858
 3493SOL    MW413706   5.240   6.385   3.396 -0.0988  0.1804 -0.4950
 3494SOL     OW13707   4.566   2.468   1.158 -0.3399  0.5048 -0.0670
 3494SOL    HW213708   4.660   2.483   1.155 -0.6206  2.5834 -0.3381
 3494SOL    HW313709   4.550   2.403   1.090  0.8016  0.8271 -0.6722
 3494SOL    MW413710   4.576   2.461   1.149 -0.0751 -0.0236  0.1416
 3495SOL     OW13711   4.027   5.546   4.166  0.5138 -0.9746  0.4427
 3495SOL    HW213712   4.066   5.601   4.235 -1.3233  0.9650  0.0346
 3495SOL    HW313713   4.071   5.462   4.176  2.6388  0.1850  1.8811
 3495SOL    MW413714   4.038   5.542   4.176  0.4677  0.1469  0.2397
 3496SOL     OW13715   3.877   5.853   5.836  0.0038 -0.1194  0.2390
 3496SOL    HW213716   3.880   5.758   5.831 -0.9664 -0.1968  0.7453
 3496SOL    HW313717   3.784   5.874   5.828  0.2587  0.8210 -0.3765
 3496SOL    MW413718   3.865   5.843   5.834 -0.0681  0.2443 -0.1808
 3497SOL     OW13719   4.723   3.969   1.121 -0.2755  0.5076 -0.2624
 3497SOL    HW213720   4.663   4.033   1.160 -0.2129  0.9957 -0.9471
 3497SOL    HW313721   4.809   4.009   1.129  0.1483 -0.7063  1.7898
 3497SOL    MW413722   4.726   3.983   1.127 -0.1000  0.0894  0.6061
 3498SOL     OW13723   0.473   1.134   1.377  0.1078 -0.7463  0.1438
 3498SOL    HW213724   0.551   1.152   1.429  0.3595 -2.6963  0.5179
 3498SOL    HW313725   0.470   1.204   1.313  2.3374 -0.7640 -0.0614
 3498SOL    MW413726   0.483   1.145   1.376  0.6354  0.0585 -0.0627
 3499SOL     OW13727   5.428   1.836   4.152  0.2421  0.1640  0.2732
 3499SOL    HW213728   5.403   1.772   4.086  1.5046 -1.9260  1.7042
 3499SOL    HW313729   5.496   1.888   4.109 -1.2444  1.0395 -1.1237
 3499SOL    MW413730   5.434   1.834   4.138 -0.7594  0.1170  0.3252
 3500SOL     OW13731   3.907   1.059   1.458  0.2468  0.4333  0.5461
 3500SOL    HW213732   3.943   1.129   1.403  1.4843 -1.8009 -1.6930
 3500SOL    HW313733   3.844   1.015   1.402  1.0280 -1.4987  1.1286
 3500SOL    MW413734   3.903   1.063   1.443  0.4751 -0.7553  0.7875
 3501SOL     OW13735   6.394   3.487   5.076  0.5886  0.5485  0.8022
 3501SOL    HW213736   6.450   3.435   5.133  0.0038 -0.1318  0.7746
 3501SOL    HW313737   6.421   3.463   4.987 -0.0291 -0.1169  0.7841
 3501SOL    MW413738   6.405   3.477   5.072 -0.0131 -0.7434  0.8582
 3502SOL     OW13739   4.488   0.967   0.571  0.6623  0.5883  0.4566
 3502SOL    HW213740   4.442   0.898   0.618 -0.4005  0.4959 -0.6791
 3502SOL    HW313741   4.537   1.013   0.639 -2.1028  1.5184  1.9785
 3502SOL    MW413742   4.489   0.964   0.586 -0.3770 -0.6820 -0.4048
 3503SOL     OW13743   3.143   5.231   0.254 -0.0526 -0.0712 -0.2557
 3503SOL    HW213744   3.052   5.230   0.284 -0.4382 -3.0828 -1.2180
 3503SOL    HW313745   3.138   5.261   0.163  0.2023  1.7093  0.2916
 3503SOL    MW413746   3.130   5.235   0.246 -0.2691 -0.1677 -0.2100
 3504SOL     OW13747   4.296   4.161   0.551  0.3558 -0.0384  0.4291
 3504SOL    HW213748   4.305   4.088   0.489  0.4279  0.5447 -0.2621
 3504SOL    HW313749   4.327   4.126   0.634  1.0757 -0.5795 -0.0557
 3504SOL    MW413750   4.301   4.147   0.554 -0.2160  0.2139  0.3806
 3505SOL     OW13751   2.937   4.245   4.751 -0.0154 -0.0378  0.5721
 3505SOL    HW213752   2.988   4.262   4.672 -0.4814  0.9906  0.4705
 3505SOL    HW313753   2.858   4.201   4.720 -1.1624  2.1695  0.1564
 3505SOL    MW413754   2.933   4.242   4.736 -0.2076  0.2852  0.2271
 3506SOL     OW13755   1.746   5.249   3.010 -0.4935  0.3571  0.7824
 3506SOL    HW213756   1.810   5.178   3.019 -1.3663 -0.3141  1.8218
 3506SOL    HW313757   1.703   5.232   2.926  0.3526  0.5591  0.2900
 3506SOL    MW413758   1.749   5.237   3.000 -0.3768 -0.0162  0.2270
 3507SOL     OW13759   2.048   4.078   2.304  0.0330 -0.0567 -0.5781
 3507SOL    HW213760   1.997   4.111   2.230 -1.1372 -1.6394 -0.5312
 3507SOL    HW313761   2.004   4.115   2.381  0.2760  0.3025 -0.6096
 3507SOL    MW413762   2.035   4.088   2.305 -0.5446  0.2915  0.3487
 3508SOL     OW13763   4.559   2.527   6.091 -0.0437  0.1646 -0.0803
 3508SOL    HW213764   4.501   2.549   6.018  0.7307 -0.7661 -1.0072
 3508SOL    HW313765   4.610   2.453   6.059  2.2348  1.4457  0.3803
 3508SOL    MW413766   4.558   2.520   6.077  0.4028 -0.2437  0.4213
 3509SOL     OW13767   3.437   5.390   3.187  0.3790 -0.3461 -0.1557
 3509SOL    HW213768   3.428   5.452   3.259 -0.5275 -1.8279  1.0678
 3509SOL    HW313769   3.382   5.426   3.118  2.2251  1.7498 -0.6645
 3509SOL    MW413770   3.429   5.403   3.187  0.4709  0.1789 -0.4767
 3510SOL     OW13771   4.286   3.078   5.074  0.6870  0.0244 -0.1406
 3510SOL    HW213772   4.213   3.138   5.086  0.3437 -0.5539  0.7410
 3510SOL    HW313773   4.246   2.994   5.052  1.1657  0.1133 -1.4606
 3510SOL    MW413774   4.271   3.075   5.073 -0.0235  0.0759 -0.6963
 3511SOL     OW13775   4.378   0.562   5.045  0.7767 -0.2288  0.5401
 3511SOL    HW213776   4.353   0.540   4.955 -1.6685  0.8642  0.8575
 3511SOL    HW313777   4.450   0.624   5.035 -0.2689  0.8518 -0.7879
 3511SOL    MW413778   4.384   0.568   5.032  1.1929  0.4374  0.1653
 3512SOL     OW13779   4.197   4.670   0.863 -0.6898  0.5830 -0.2925
 3512SOL    HW213780   4.229   4.669   0.953 -1.2934  1.3435 -0.0511
 3512SOL    HW313781   4.264   4.717   0.814  0.3942 -1.1874 -0.5663
 3512SOL    MW413782   4.210   4.676   0.869  0.2992 -0.1310 -0.1034
 3513SOL     OW13783   2.453   4.345   3.029 -0.2787 -0.3992  0.2593
 3513SOL    HW213784   2.363   4.314   3.018 -0.1949 -0.5292 -0.0698
 3513SOL    HW313785   2.501   4.268   3.060 -0.0787 -0.5966 -0.5168
 3513SOL    MW413786   2.448   4.331   3.032 -0.8048  0.1362 -0.3856
 3514SOL     OW13787   2.503   5.251   3.183  0.4080  0.5793  0.2738
 3514SOL    HW213788   2.550   5.285   3.259  1.3992  0.8748 -0.4552
 3514SOL    HW313789   2.433   5.315   3.168  0.2453  0.5521  0.8867
 3514SOL    MW413790   2.500   5.264   3.191 -0.5025 -0.0895  0.0365
 3515SOL     OW13791   0.338   3.772   6.276 -0.6262  0.8862  0.1291
 3515SOL    HW213792   0.262   3.740   6.325 -1.0708  2.2191  0.3455
 3515SOL    HW313793   0.382   3.693   6.246 -2.5711  0.0875 -0.7487
 3515SOL    MW413794   0.334   3.757   6.279 -0.3399  0.1226 -0.0064
 3516SOL     OW13795   3.289   1.768   2.539 -0.2260 -0.0448 -0.2286
 3516SOL    HW213796   3.325   1.856   2.524 -0.1446 -0.0491 -0.0539
 3516SOL    HW313797   3.364   1.715   2.564 -0.6136  0.3805  2.0871
 3516SOL    MW413798   3.303   1.773   2.540 -0.1196 -0.3147 -0.9720
 3517SOL     OW13799   2.113   0.767   1.645 -0.1584 -0.6372 -0.2664
 3517SOL    HW213800   2.042   0.704   1.656  0.3467 -1.0249  0.9945
 3517SOL    HW313801   2.092   0.838   1.705  0.4681 -0.7251  0.0688
 3517SOL    MW413802   2.101   0.768   1.655 -0.6073  0.4208 -0.0204
 3518SOL     OW13803   1.198   5.720   0.236  0.8910  0.0297 -0.3333
 3518SOL    HW213804   1.238   5.754   0.316  2.0849  0.0449 -0.9197
 3518SOL    HW313805   1.136   5.654   0.267 -1.7948  2.8498  0.8883
 3518SOL    MW413806   1.195   5.716   0.251  0.4957  0.0133  0.3752
 3519SOL     OW13807   4.726   2.017   0.434  0.3430 -0.3307 -0.3511
 3519SOL    HW213808   4.775   1.967   0.500 -2.2514 -3.2243 -0.4283
 3519SOL    HW313809   4.637   2.020   0.468 -0.1271  2.1965 -1.6117
 3519SOL    MW413810   4.721   2.011   0.447 -0.1279 -0.3696  0.2602
 3520SOL     OW13811   0.172   0.878   0.704  0.2462 -0.5799 -0.0497
 3520SOL    HW213812   0.104   0.894   0.639 -0.8744 -1.2891  0.9048
 3520SOL    HW313813   0.126   0.881   0.788  0.8240 -3.7640  0.4876
 3520SOL    MW413814   0.157   0.881   0.707  0.7757 -0.1302 -0.0636
 3521SOL     OW13815   2.473   1.494   3.304 -0.1902  0.2662 -0.1164
 3521SOL    HW213816   2.563   1.524   3.295  0.4862 -0.0931  3.7436
 3521SOL    HW313817   2.481   1.401   3.324 -1.5110  0.0399 -0.5453
 3521SOL    MW413818   2.486   1.486   3.305 -0.0487 -0.2737  0.1034
 3522SOL     OW13819   5.352   0.537   1.939 -0.3246  0.5753 -0.0051
 3522SOL    HW213820   5.419   0.508   1.877 -0.3728 -2.6747  1.3048
 3522SOL    HW313821   5.400   0.593   2.001  0.5092  0.7443 -0.7712
 3522SOL    MW413822   5.368   0.541   1.939 -0.1425 -0.5175  0.3049
 3523SOL     OW13823   3.088   2.126   2.287 -0.4670  0.0128 -0.3395
 3523SOL    HW213824   3.175   2.107   2.321 -0.7055 -0.3150  0.1050
 3523SOL    HW313825   3.094   2.108   2.193  0.3899  1.6038 -0.6199
 3523SOL    MW413826   3.100   2.121   2.279  0.2125 -0.7121 -0.1032
 3524SOL     OW13827   5.928   2.564   1.607  0.4231 -0.1423 -0.0940
 3524SOL    HW213828   5.852   2.506   1.614 -0.2920  0.9134  1.5040
 3524SOL    HW313829   5.894   2.642   1.563  1.3074 -0.7629 -1.9747
 3524SOL    MW413830   5.913   2.567   1.602 -0.3216  0.1722  0.3795
 3525SOL     OW13831   1.114   0.872   2.516  0.0686  0.0158 -0.0952
 3525SOL    HW213832   1.151   0.846   2.600  0.0464  0.6969  0.1304
 3525SOL    HW313833   1.108   0.790   2.466 -2.6352 -0.9306  1.5804
 3525SOL    MW413834   1.118   0.857   2.521 -0.5222  0.0057 -0.1112
 3526SOL     OW13835   6.181   3.214   5.714  0.0349  0.1262 -0.1773
 3526SOL    HW213836   6.142   3.184   5.632  0.1784  1.2401 -0.6729
 3526SOL    HW313837   6.274   3.225   5.694 -0.1610  1.8087 -0.3179
 3526SOL    MW413838   6.188   3.211   5.701  0.3346 -0.2860 -0.2099
 3527SOL     OW13839   1.817   3.897   2.837 -0.0423  0.4787 -0.1187
 3527SOL    HW213840   1.817   3.908   2.932  1.0760 -0.9984  0.0863
 3527SOL    HW313841   1.759   3.822   2.822 -0.6283  1.0296 -0.6679
 3527SOL    MW413842   1.809   3.889   2.848  0.7881 -0.0834 -0.1170
 3528SOL     OW13843   5.245   0.717   3.304 -0.7113  0.1218  0.0911
 3528SOL    HW213844   5.314   0.749   3.246 -0.1647 -1.0686  0.0466
 3528SOL    HW313845   5.226   0.629   3.272 -0.8240 -0.3263  1.3337
 3528SOL    MW413846   5.252   0.709   3.292  0.1309  0.1577 -0.5577
 3529SOL     OW13847   3.064   0.173   5.202 -0.1662  0.1716  0.3360
 3529SOL    HW213848   2.981   0.169   5.154 -0.0292 -3.0035  0.1388
 3529SOL    HW313849   3.044   0.222   5.281 -1.7253  1.0304 -0.5349
 3529SOL    MW413850   3.050   0.179   5.206  0.3330  0.3376 -0.2524
 3530SOL     OW13851   0.126   2.256   2.162 -0.0468 -0.2289 -0.3243
 3530SOL    HW213852   0.132   2.209   2.245  1.5902  0.2513 -0.1323
 3530SOL    HW313853   0.207   2.308   2.158  0.5934 -1.2506 -2.8263
 3530SOL    MW413854   0.138   2.257   2.172  0.2338  0.6179 -0.1731
 3531SOL     OW13855   5.396   3.891   3.848 -0.0359  0.4057  0.3825
 3531SOL    HW213856   5.455   3.834   3.798  0.2095 -0.3527  1.4964
 3531SOL    HW313857   5.434   3.978   3.839  0.0229  0.2888 -0.6960
 3531SOL    MW413858   5.409   3.895   3.840 -0.2626 -0.3607  0.4876
 3532SOL     OW13859   0.553   6.177   6.376  0.1969  0.2207 -0.1938
 3532SOL    HW213860   0.496   6.103   6.357  0.7424  0.4016 -3.1514
 3532SOL    HW313861   0.641   6.138   6.383  0.6290  0.5674 -2.7271
 3532SOL    MW413862   0.557   6.162   6.374 -0.1767  0.0236 -0.0810
 3533SOL     OW13863   1.752   1.643   6.197 -0.8517 -0.3987 -0.4474
 3533SOL    HW213864   1.682   1.578   6.203 -0.7009 -0.5462 -0.2685
 3533SOL    HW313865   1.753   1.669   6.105 -1.4271 -0.0776 -0.3723
 3533SOL    MW413866   1.742   1.638   6.186  0.0227 -0.1890 -0.5443
 3534SOL     OW13867   4.075   0.953   1.904 -0.0214  0.0088 -0.5617
 3534SOL    HW213868   4.142   0.893   1.936 -0.1941 -0.4743 -1.0832
 3534SOL    HW313869   3.992   0.916   1.935  0.0027  1.3064  1.2026
 3534SOL    MW413870   4.073   0.940   1.912 -0.1798  0.2714  0.0204
 3535SOL     OW13871   1.872   2.814   5.287 -0.5084  0.2761 -0.3275
 3535SOL    HW213872   1.857   2.844   5.377  0.5417 -0.9059  0.2797
 3535SOL    HW313873   1.955   2.854   5.262  0.4284 -1.2675  0.1508
 3535SOL    MW413874   1.881   2.823   5.295  0.1909 -0.1375 -0.5082
 3536SOL     OW13875   5.916   3.189   0.064  0.5815 -0.4912  0.1723
 3536SOL    HW213876   5.877   3.176   0.151 -0.6868 -3.1104 -0.6645
 3536SOL    HW313877   5.961   3.107   0.046  0.8179  0.0034 -1.6510
 3536SOL    MW413878   5.917   3.176   0.073 -0.6403 -0.3058 -0.2995
 3537SOL     OW13879   1.463   3.271   4.662 -0.3685  0.5368  0.2771
 3537SOL    HW213880   1.544   3.219   4.659 -1.2226 -0.8224 -1.2121
 3537SOL    HW313881   1.413   3.234   4.734  0.0210  0.9220  0.7561
 3537SOL    MW413882   1.467   3.259   4.671  0.0407  0.4332 -0.3274
 3538SOL     OW13883   0.043   1.954   0.113 -0.1684  0.2696 -0.0453
 3538SOL    HW213884   0.085   1.944   0.027  0.8424  1.1274  0.3263
 3538SOL    HW313885   0.097   1.903   0.172 -1.5348 -1.2938 -0.0803
 3538SOL    MW413886   0.056   1.946   0.109  0.1346 -0.3343  0.1900
 3539SOL     OW13887   1.475   3.368   2.532 -0.1042  0.1462  0.1662
 3539SOL    HW213888   1.546   3.355   2.469 -1.3252 -0.9022 -1.0705
 3539SOL    HW313889   1.400   3.322   2.493 -1.4187  1.0577  1.5021
 3539SOL    MW413890   1.474   3.360   2.518 -0.1403  0.2659  0.2056
 3540SOL     OW13891   5.497   5.044   1.558  0.1956 -0.3095 -0.2772
 3540SOL    HW213892   5.502   4.954   1.590  0.0283 -0.0587  0.4814
 3540SOL    HW313893   5.560   5.092   1.611 -0.0566  0.1103 -0.3496
 3540SOL    MW413894   5.506   5.039   1.569 -0.5376  0.0096  0.2074
 3541SOL     OW13895   5.079   2.144   0.191  0.6547 -0.1665 -0.5246
 3541SOL    HW213896   5.006   2.182   0.240  0.4239 -0.2122 -0.8266
 3541SOL    HW313897   5.153   2.147   0.252  0.3063 -0.4816 -0.0767
 3541SOL    MW413898   5.079   2.149   0.206 -0.0661 -0.2151 -0.5217
 3542SOL     OW13899   2.867   1.023   1.981  0.2988 -0.4185 -0.2747
 3542SOL    HW213900   2.809   0.949   1.965  2.5454 -2.1425 -1.0160
 3542SOL    HW313901   2.945   0.984   2.019  0.4188  2.0080  2.2058
 3542SOL    MW413902   2.870   1.008   1.984 -0.1721  0.0204  0.4749
 3543SOL     OW13903   5.310   2.464   5.538  0.6420 -0.3834  0.2256
 3543SOL    HW213904   5.313   2.417   5.455 -0.8426 -0.2596  0.0669
 3543SOL    HW313905   5.295   2.556   5.513  1.7960 -0.0767  0.5896
 3543SOL    MW413906   5.308   2.470   5.523  0.2951  0.6454 -0.1754
 3544SOL     OW13907   0.106   2.767   5.609  0.2363  0.7152  0.1999
 3544SOL    HW213908   0.104   2.679   5.646  0.8207  0.7104  0.2278
 3544SOL    HW313909   0.069   2.823   5.678  0.3210  0.5600  0.3701
 3544SOL    MW413910   0.101   2.763   5.623  0.3624 -0.4771  0.1502
 3545SOL     OW13911   2.736   1.036   1.637 -0.2334  0.0192  0.3439
 3545SOL    HW213912   2.783   0.955   1.657 -0.2932  0.2031  1.2714
 3545SOL    HW313913   2.668   1.041   1.703 -0.6772  0.4763 -0.1393
 3545SOL    MW413914   2.733   1.026   1.648 -0.3905  0.1849 -0.1260
 3546SOL     OW13915   3.416   3.552   3.588 -0.7224 -0.4475  0.5278
 3546SOL    HW213916   3.495   3.559   3.643 -0.4320  1.5255 -0.0816
 3546SOL    HW313917   3.417   3.461   3.557  2.0005 -0.1840 -0.4169
 3546SOL    MW413918   3.427   3.541   3.592  0.3226  0.0480  0.4687
 3547SOL     OW13919   1.637   5.358   6.148  0.0291 -0.1640  0.3323
 3547SOL    HW213920   1.620   5.290   6.214 -0.1177 -1.1206 -0.6614
 3547SOL    HW313921   1.550   5.379   6.114  0.1579 -0.1022  0.0393
 3547SOL    MW413922   1.623   5.351   6.152 -0.1492  0.4225  0.4625
 3548SOL     OW13923   0.841   2.649   1.872  0.1748  0.2058  0.3752
 3548SOL    HW213924   0.751   2.679   1.861  0.3676  0.4485 -0.6759
 3548SOL    HW313925   0.871   2.631   1.783  0.5722 -1.6684  0.8509
 3548SOL    MW413926   0.833   2.651   1.859  0.2370  0.3405  0.0808
 3549SOL     OW13927   5.456   4.322   2.347 -0.1234 -0.5361 -0.4567
 3549SOL    HW213928   5.410   4.239   2.361  0.6982 -0.8714  0.3384
 3549SOL    HW313929   5.391   4.378   2.304 -1.1088 -1.1716  0.1656
 3549SOL    MW413930   5.441   4.319   2.343  0.2292  0.0857  0.2402
 3550SOL     OW13931   0.745   6.381   0.899 -0.1682 -0.2721  0.2648
 3550SOL    HW213932   0.712   6.406   0.986  0.2330 -0.1352  0.3835
 3550SOL    HW313933   0.794   6.301   0.914  1.8762  0.9625  0.6109
 3550SOL    MW413934   0.747   6.374   0.912 -0.3929 -0.4673 -0.5277
 3551SOL     OW13935   1.786   2.288   3.432 -0.1724 -0.4513  0.5090
 3551SOL    HW213936   1.822   2.360   3.483 -1.5842  0.4888  0.2539
 3551SOL    HW313937   1.730   2.331   3.367 -1.1923 -1.7815  0.4636
 3551SOL    MW413938   1.783   2.303   3.430 -0.3022 -0.3144  0.2596
 3552SOL     OW13939   2.560   1.500   1.267 -0.2252  0.0237  0.1120
 3552SOL    HW213940   2.503   1.568   1.303 -0.1989  0.0299  0.1427
 3552SOL    HW313941   2.568   1.436   1.338  3.4277  2.1332  1.9178
 3552SOL    MW413942   2.554   1.500   1.281 -0.3528 -0.4089  0.7221
 3553SOL     OW13943   2.158   1.697   0.011 -0.5041 -0.1768 -0.3535
 3553SOL    HW213944   2.167   1.721  -0.081  0.8250  0.0706 -0.1803
 3553SOL    HW313945   2.082   1.639   0.014  0.2161 -1.2518 -1.8071
 3553SOL    MW413946   2.149   1.693  -0.001  0.5593 -0.2528  0.1918
 3554SOL     OW13947   0.203   6.089   4.699 -0.5291  0.2000 -0.4316
 3554SOL    HW213948   0.161   6.054   4.620  0.7088  0.3009 -1.1664
 3554SOL    HW313949   0.296   6.067   4.688 -0.1296  1.4066  0.3507
 3554SOL    MW413950   0.210   6.081   4.687 -0.5024  0.0813  0.5491
 3555SOL     OW13951   3.446   2.372   3.306  0.1837  0.7343  0.1719
 3555SOL    HW213952   3.521   2.400   3.255 -0.2760  1.0472 -0.3417
 3555SOL    HW313953   3.372   2.423   3.271 -0.5903 -0.7847 -0.4910
 3555SOL    MW413954   3.446   2.382   3.295 -0.0636  0.1344  0.1975
 3556SOL     OW13955   5.566   5.507   5.048  0.1544  0.7833 -0.1707
 3556SOL    HW213956   5.552   5.422   5.090  0.4998  0.3675 -0.8616
 3556SOL    HW313957   5.489   5.519   4.993 -0.3787  1.4058  0.6997
 3556SOL    MW413958   5.554   5.497   5.046 -0.1200  0.2458 -0.0011
 3557SOL     OW13959   5.852   2.394   5.531 -0.1482 -0.3596  0.1666
 3557SOL    HW213960   5.875   2.453   5.459  1.2187  0.0904  0.9194
 3557SOL    HW313961   5.758   2.378   5.521 -0.4854  1.6597 -0.2858
 3557SOL    MW413962   5.843   2.400   5.520  0.0030  0.3235  0.1701
 3558SOL     OW13963   2.032   4.869   1.467 -0.0468 -0.3299 -0.1192
 3558SOL    HW213964   2.059   4.780   1.445 -1.3928 -1.0441  0.9412
 3558SOL    HW313965   1.952   4.883   1.415 -0.0066  0.1495 -0.0592
 3558SOL    MW413966   2.025   4.859   1.457  0.2445 -0.5070  0.3380
 3559SOL     OW13967   2.087   2.344   4.257 -0.3388 -0.0237  0.2847
 3559SOL    HW213968   2.092   2.250   4.241 -0.9677  0.1495 -1.0895
 3559SOL    HW313969   2.027   2.353   4.331  0.4296 -0.7268  1.0231
 3559SOL    MW413970   2.080   2.333   4.265  0.9813 -0.6114 -0.0144
 3560SOL     OW13971   4.654   1.523   3.297  0.7123 -0.1201 -0.3692
 3560SOL    HW213972   4.646   1.428   3.284  2.4438 -0.2024 -1.2132
 3560SOL    HW313973   4.725   1.549   3.237  1.4645  1.4055  1.1097
 3560SOL    MW413974   4.662   1.514   3.287 -0.0306 -0.9167 -0.2050
 3561SOL     OW13975   3.126   1.444   2.998  0.3115  0.2255 -0.0691
 3561SOL    HW213976   3.039   1.403   3.003  1.2196 -1.7552  0.4916
 3561SOL    HW313977   3.184   1.381   3.040  2.4025  0.4217 -2.4311
 3561SOL    MW413978   3.122   1.430   3.004  0.2098 -0.6593 -0.4535
 3562SOL     OW13979   3.551   6.247   6.012 -0.5504  0.1957 -0.1140
 3562SOL    HW213980   3.629   6.255   6.066 -0.6854 -1.1051  0.3002
 3562SOL    HW313981   3.502   6.328   6.028  0.0068  0.3718  0.7421
 3562SOL    MW413982   3.555   6.259   6.021 -0.2943  0.1857 -0.3326
 3563SOL     OW13983   6.027   4.878   0.480  0.3729 -0.6036  0.3300
 3563SOL    HW213984   6.027   4.968   0.449  0.3992 -0.8171 -0.3090
 3563SOL    HW313985   6.013   4.825   0.401 -0.8053 -1.1090  0.8387
 3563SOL    MW413986   6.025   4.883   0.466 -0.1654  0.3348 -0.6220
 3564SOL     OW13987   3.806   1.019   4.145 -0.1379  0.4496 -0.7356
 3564SOL    HW213988   3.733   0.958   4.138  0.4503 -0.2711 -0.7241
 3564SOL    HW313989   3.881   0.971   4.110  0.6212  0.6885  0.5081
 3564SOL    MW413990   3.806   1.005   4.139  0.0882  0.2208 -0.2857
 3565SOL     OW13991   2.363   2.478   3.950 -0.5647 -0.3785  0.1646
 3565SOL    HW213992   2.339   2.496   3.860 -0.8459 -0.3282  0.2466
 3565SOL    HW313993   2.321   2.548   4.001  0.3989  0.1530  0.2408
 3565SOL    MW413994   2.354   2.489   3.945  0.1110 -0.9094  0.0072
 3566SOL     OW13995   3.240   5.403   1.151  0.0473 -0.1003  0.0960
 3566SOL    HW213996   3.162   5.376   1.199 -0.1139 -0.3989 -0.3188
 3566SOL    HW313997   3.233   5.357   1.067  0.5313  0.0834 -0.0500
 3566SOL    MW413998   3.229   5.393   1.146 -0.1382  0.7809 -0.0391
 3567SOL     OW13999   2.086   1.505   0.394 -0.0168  0.6433 -0.1197
 3567SOL    HW214000   2.157   1.475   0.337 -0.1239  0.2668 -0.0553
 3567SOL    HW314001   2.104   1.465   0.479  0.4113  1.5860  0.2538
 3567SOL    MW414002   2.098   1.496   0.398  0.8410 -0.4338  0.0705
 3568SOL     OW14003   2.470   2.841   5.297  0.1991 -0.2620  0.1247
 3568SOL    HW214004   2.493   2.748   5.298  2.1089  0.1748  0.2262
 3568SOL    HW314005   2.392   2.846   5.242  0.2261 -1.8980 -0.0978
 3568SOL    MW414006   2.463   2.829   5.290 -0.2704  0.2685 -0.6924
 3569SOL     OW14007   1.184   4.229   0.141 -0.3094  0.2432  0.6494
 3569SOL    HW214008   1.271   4.204   0.173 -0.8275 -0.9256  1.2003
 3569SOL    HW314009   1.195   4.319   0.110  1.4738 -0.4183 -0.8032
 3569SOL    MW414010   1.197   4.238   0.141 -0.2371  0.1385 -0.0957
 3570SOL     OW14011   5.090   5.372   3.552  0.1250 -0.1648 -0.1960
 3570SOL    HW214012   5.147   5.363   3.476 -0.9320 -0.1418 -1.0221
 3570SOL    HW314013   5.084   5.467   3.566 -0.5705 -0.1102 -0.8019
 3570SOL    MW414014   5.097   5.384   3.544  0.3302  0.3307  0.2373
 3571SOL     OW14015   5.928   3.975   3.925  0.5665 -0.0532  0.5826
 3571SOL    HW214016   6.021   3.964   3.947  0.0658 -0.2788  2.8736
 3571SOL    HW314017   5.914   4.070   3.930  0.8594  0.0760 -0.7431
 3571SOL    MW414018   5.939   3.986   3.928  0.3380 -0.7783  0.6945
 3572SOL     OW14019   2.979   0.662   3.027 -0.0499 -0.1228  0.0605
 3572SOL    HW214020   2.892   0.639   2.992 -0.5879 -0.4837  1.5634
 3572SOL    HW314021   2.961   0.700   3.113  1.3169 -0.9108  0.7277
 3572SOL    MW414022   2.965   0.664   3.033 -0.0344 -0.2299 -0.4130
 3573SOL     OW14023   5.404   2.765   1.677 -0.0431 -0.2809 -0.4250
 3573SOL    HW214024   5.467   2.711   1.724 -0.0249  0.3594  0.2991
 3573SOL    HW314025   5.369   2.826   1.743  0.5849  1.1906 -1.3867
 3573SOL    MW414026   5.408   2.766   1.692 -0.1349 -0.0728  0.0832
 3574SOL     OW14027   2.787   4.043   0.849 -0.2060 -0.4993 -0.1728
 3574SOL    HW214028   2.805   4.133   0.823 -2.6104 -0.1790 -0.9239
 3574SOL    HW314029   2.790   3.993   0.768  0.6393 -1.0469  0.1749
 3574SOL    MW414030   2.790   4.048   0.835  0.4493  0.2660 -0.4900
 3575SOL     OW14031   0.475   1.881   4.136  0.0281 -0.0895  0.7223
 3575SOL    HW214032   0.382   1.864   4.149  0.1859 -2.8562 -0.9847
 3575SOL    HW314033   0.520   1.810   4.181  1.0644 -1.1933 -1.8278
 3575SOL    MW414034   0.469   1.870   4.144 -0.1971 -0.6201 -0.3523
 3576SOL     OW14035   0.072   3.992   3.211 -0.8541  0.1483  0.1407
 3576SOL    HW214036   0.104   4.081   3.197  0.1350  0.2300  2.5139
 3576SOL    HW314037   0.144   3.936   3.183 -1.4019  0.0393 -1.1608
 3576SOL    MW414038   0.086   3.996   3.205 -0.1804  0.2002  0.1011
 3577SOL     OW14039   3.466   2.069   5.498  0.0986  0.0273  0.2409
 3577SOL    HW214040   3.535   2.055   5.562  0.5414  1.9938  0.2540
 3577SOL    HW314041   3.512   2.077   5.414 -0.2976 -0.5158 -0.0374
 3577SOL    MW414042   3.481   2.068   5.495 -0.2224 -0.2136 -0.6930
 3578SOL     OW14043   6.373   6.009   3.294  0.2944  0.1814  0.2762
 3578SOL    HW214044   6.399   6.083   3.350  1.0113 -0.9425  1.4939
 3578SOL    HW314045   6.323   5.952   3.352  1.1942 -1.1028 -0.1690
 3578SOL    MW414046   6.370   6.011   3.309  0.0674  0.3548 -0.1230
 3579SOL     OW14047   0.877   3.927   0.101  0.1626 -0.1563  0.0979
 3579SOL    HW214048   0.847   3.895   0.016 -1.8518  2.3947 -0.2658
 3579SOL    HW314049   0.843   3.862   0.163 -0.5835 -0.6949 -0.8417
 3579SOL    MW414050   0.868   3.914   0.098  0.2572 -0.1154 -0.3027
 3580SOL     OW14051   1.684   3.340   2.359  0.0282  0.1380 -0.0811
 3580SOL    HW214052   1.756   3.308   2.413 -1.7077  0.1358  2.4198
 3580SOL    HW314053   1.648   3.262   2.316  0.8162 -0.0080 -0.4924
 3580SOL    MW414054   1.689   3.326   2.360  0.0616  0.1330  0.7274
 3581SOL     OW14055   1.349   0.104   3.453  0.1274  0.6208 -0.1943
 3581SOL    HW214056   1.321   0.013   3.442 -0.2086  0.8011 -0.9134
 3581SOL    HW314057   1.420   0.115   3.390  0.5703  0.6934  0.3121
 3581SOL    MW414058   1.355   0.093   3.444  0.5412  0.1943 -0.7062
 3582SOL     OW14059   3.433   0.848   6.323 -0.1147  0.2060 -0.5630
 3582SOL    HW214060   3.390   0.933   6.318 -2.6889 -0.8572  1.2935
 3582SOL    HW314061   3.395   0.798   6.250 -1.8466 -0.6103  0.8427
 3582SOL    MW414062   3.422   0.852   6.312  0.3886 -0.1509  0.5558
 3583SOL     OW14063   0.337   1.374   0.157  0.2409  0.1937  0.9393
 3583SOL    HW214064   0.270   1.308   0.172 -0.1312  0.5018  0.6659
 3583SOL    HW314065   0.298   1.434   0.093  0.4668  0.8221  1.3708
 3583SOL    MW414066   0.323   1.373   0.150 -0.2942  0.2781 -0.0959
 3584SOL     OW14067   1.464   0.820   5.982 -0.0448  0.0849  0.1172
 3584SOL    HW214068   1.557   0.798   5.989 -0.0603  0.3920  1.5781
 3584SOL    HW314069   1.460   0.882   5.910  0.8364 -0.1744 -0.1699
 3584SOL    MW414070   1.476   0.825   5.973 -0.0796 -0.2067  0.8185
 3585SOL     OW14071   6.335   4.498   2.161 -0.3508 -0.6184 -0.1816
 3585SOL    HW214072   6.241   4.501   2.149 -0.6660 -2.3092  1.3965
 3585SOL    HW314073   6.354   4.567   2.225 -0.4788 -0.1520 -0.6442
 3585SOL    MW414074   6.325   4.507   2.168 -0.3786  0.1876 -0.0501
 3586SOL     OW14075   1.583   1.066   3.440  0.0195  0.0947  0.0347
 3586SOL    HW214076   1.625   1.153   3.440 -0.5210  0.3588 -0.5654
 3586SOL    HW314077   1.631   1.016   3.373  1.0026 -0.4159  1.0785
 3586SOL    MW414078   1.595   1.071   3.431 -0.1497  0.1265  0.1086
 3587SOL     OW14079   6.185   5.238   3.595 -0.0667 -0.4352 -0.2252
 3587SOL    HW214080   6.171   5.163   3.538 -2.4663 -0.8163  0.7483
 3587SOL    HW314081   6.182   5.203   3.684  0.4095  0.5958  0.2264
 3587SOL    MW414082   6.183   5.224   3.599  0.4400 -0.3705 -0.1934
 3588SOL     OW14083   5.641   0.955   0.201  0.0265 -0.1498  0.2869
 3588SOL    HW214084   5.604   1.014   0.135  0.5120  0.7977  0.8365
 3588SOL    HW314085   5.621   0.867   0.169  1.1425  0.2560 -1.6369
 3588SOL    MW414086   5.633   0.951   0.188  0.6643  0.0932 -0.6010
 3589SOL     OW14087   4.869   1.455   4.539  0.1309  0.6455  0.0448
 3589SOL    HW214088   4.799   1.408   4.586 -0.2975 -1.9827 -2.8880
 3589SOL    HW314089   4.828   1.537   4.512  0.0354  1.7102  3.0218
 3589SOL    MW414090   4.854   1.459   4.542 -0.0232  0.1468 -0.2932
 3590SOL     OW14091   4.709   0.794   3.308 -0.1432 -0.0248  0.4370
 3590SOL    HW214092   4.693   0.739   3.384  2.1328 -2.4859 -0.6793
 3590SOL    HW314093   4.801   0.820   3.316  0.4311 -1.1082 -1.8425
 3590SOL    MW414094   4.719   0.790   3.319 -0.0976  0.3569  0.2301
 3591SOL     OW14095   1.929   4.102   4.303 -0.3661 -0.1467  0.2871
 3591SOL    HW214096   1.999   4.090   4.367  0.1693  0.5578 -0.1573
 3591SOL    HW314097   1.967   4.074   4.220 -0.2982  1.0970 -0.1200
 3591SOL    MW414098   1.943   4.096   4.300 -0.2096  0.0362  0.0372
 3592SOL     OW14099   5.156   3.271   4.775  0.5315 -0.3725  0.0465
 3592SOL    HW214100   5.215   3.220   4.718 -0.0381  0.0533 -0.9580
 3592SOL    HW314101   5.205   3.350   4.796 -0.2325  0.7751 -2.1670
 3592SOL    MW414102   5.170   3.275   4.770 -0.0843  0.5223  0.2083
 3593SOL     OW14103   1.415   4.732   4.536 -0.2052 -0.3991 -0.3306
 3593SOL    HW214104   1.373   4.801   4.589 -0.3719 -0.6674 -0.1091
 3593SOL    HW314105   1.418   4.656   4.594  0.4102 -0.4435 -0.4150
 3593SOL    MW414106   1.410   4.731   4.551 -0.2001  0.4422 -0.1957
 3594SOL     OW14107   3.372   0.754   2.065  0.1845 -0.9178 -0.1544
 3594SOL    HW214108   3.336   0.825   2.119 -1.9257 -2.1227  0.1336
 3594SOL    HW314109   3.314   0.751   1.989  2.7293  0.3211 -2.2889
 3594SOL    MW414110   3.359   0.763   2.062  0.5593 -0.2329 -0.4291
 3595SOL     OW14111   5.843   4.527   5.833  0.0422  0.0191 -0.2521
 3595SOL    HW214112   5.804   4.575   5.906 -1.2544 -0.2064 -0.7649
 3595SOL    HW314113   5.887   4.595   5.781 -1.0221  0.5419 -0.4982
 3595SOL    MW414114   5.844   4.542   5.835  0.2475  0.6101  0.1199
 3596SOL     OW14115   1.169   1.408   4.068 -0.2767 -0.7383 -0.0855
 3596SOL    HW214116   1.251   1.361   4.056  0.7348  0.4278  1.8403
 3596SOL    HW314117   1.163   1.466   3.992 -0.0531 -1.8233 -0.9476
 3596SOL    MW414118   1.179   1.410   4.056 -0.2620 -0.6523  0.1474
 3597SOL     OW14119   6.201   5.094   3.839  0.4247  0.3021 -0.1156
 3597SOL    HW214120   6.280   5.043   3.855 -0.5972 -0.9755  1.0239
 3597SOL    HW314121   6.162   5.106   3.925  0.6069  3.0766 -0.3175
 3597SOL    MW414122   6.206   5.089   3.852  0.2127  0.0688  0.1426
 3598SOL     OW14123   1.163   1.183   0.219 -0.2800  0.3664 -0.4032
 3598SOL    HW214124   1.142   1.091   0.201 -0.8016  0.6159 -1.1416
 3598SOL    HW314125   1.258   1.185   0.224 -0.2149 -0.0952 -1.1459
 3598SOL    MW414126   1.173   1.171   0.217 -0.3873 -0.1084  0.7792
 3599SOL     OW14127   4.231   0.437   3.585  0.0319  0.1965  0.4638
 3599SOL    HW214128   4.162   0.377   3.555  0.8143 -0.8438  0.7082
 3599SOL    HW314129   4.287   0.448   3.509 -0.1510  0.6926  0.3976
 3599SOL    MW414130   4.229   0.430   3.571 -0.7102 -0.5696 -0.4338
 3600SOL     OW14131   3.627   5.082   6.045 -0.1718 -0.0964  0.2126
 3600SOL    HW214132   3.582   5.009   6.087 -0.9142  0.7763  0.9537
 3600SOL    HW314133   3.653   5.048   5.959  0.3711 -1.5403  0.9187
 3600SOL    MW414134   3.625   5.068   6.039  0.1719  0.0017 -0.0121
 3601SOL     OW14135   0.354   3.514   2.149  0.2775  0.9273  0.1271
 3601SOL    HW214136   0.366   3.525   2.244  1.7555 -1.7220  0.3522
 3601SOL    HW314137   0.264   3.480   2.141  0.5313  0.0818  0.7212
 3601SOL    MW414138   0.343   3.511   2.161 -0.2828 -0.0392 -0.6053
 3602SOL     OW14139   5.517   6.339   5.908 -0.1476 -0.1187  0.4897
 3602SOL    HW214140   5.530   6.434   5.911  0.1920 -0.1903  1.4536
 3602SOL    HW314141   5.605   6.303   5.899 -0.3427 -0.3258 -0.8052
 3602SOL    MW414142   5.530   6.347   5.907  0.2015 -0.3338 -0.4758
 3603SOL     OW14143   3.956   2.248   6.288  0.0578  0.1930  0.0628
 3603SOL    HW214144   3.987   2.284   6.204 -1.3005  0.8876 -0.1760
 3603SOL    HW314145   3.917   2.323   6.333  0.3407 -0.2792  1.1171
 3603SOL    MW414146   3.955   2.263   6.283  0.1733  0.6380 -0.3941
 3604SOL     OW14147   3.454   6.267   3.317  0.2442 -0.3273 -0.2993
 3604SOL    HW214148   3.540   6.295   3.287  0.4239  1.2397  1.5349
 3604SOL    HW314149   3.472   6.202   3.385 -0.0717 -0.7687 -0.6263
 3604SOL    MW414150   3.468   6.262   3.322 -0.2521  0.0634 -0.0408
 3605SOL     OW14151   6.220   0.298   3.817 -0.5722  0.2039 -0.3670
 3605SOL    HW214152   6.228   0.203   3.814 -0.5360  0.1543  0.8358
 3605SOL    HW314153   6.309   0.330   3.800 -0.0978 -0.0532  1.4332
 3605SOL    MW414154   6.233   0.290   3.814 -0.2661  0.3159  0.1426
 3606SOL     OW14155   5.609   4.737   5.137  0.0518 -0.1250  0.1750
 3606SOL    HW214156   5.646   4.815   5.178  1.3671 -0.1858 -0.8295
 3606SOL    HW314157   5.579   4.766   5.051 -0.5683 -0.4807  0.2628
 3606SOL    MW414158   5.610   4.751   5.131 -0.4901 -0.0882 -0.3019
 3607SOL     OW14159   5.513   6.200   0.148 -0.3147  0.0997 -0.0936
 3607SOL    HW214160   5.436   6.185   0.093 -0.3436 -0.2128  0.0311
 3607SOL    HW314161   5.528   6.116   0.192 -0.7824  0.5762  1.0005
 3607SOL    MW414162   5.505   6.187   0.146  0.5601 -0.4615  0.5734
 3608SOL     OW14163   3.662   5.516   5.632 -0.0607  0.0783  0.6304
 3608SOL    HW214164   3.702   5.445   5.682 -0.5664 -1.4242 -0.9593
 3608SOL    HW314165   3.634   5.474   5.551 -1.4061  1.8871  0.0975
 3608SOL    MW414166   3.664   5.501   5.628  0.2602  0.1821  0.2051
 3609SOL     OW14167   6.017   2.177   1.108 -0.0042 -0.4917  0.0841
 3609SOL    HW214168   5.924   2.153   1.107 -0.2031  0.2289  0.2661
 3609SOL    HW314169   6.017   2.271   1.088  0.6854 -0.4823  0.1126
 3609SOL    MW414170   6.005   2.186   1.105  0.5993 -1.2585 -0.6784
 3610SOL     OW14171   1.323   5.853   4.835  0.8259  0.0217 -0.2899
 3610SOL    HW214172   1.402   5.799   4.829  0.3426 -0.5650 -5.1414
 3610SOL    HW314173   1.253   5.792   4.857  1.0124 -0.4431 -0.9632
 3610SOL    MW414174   1.324   5.838   4.837 -0.3507  0.1057  0.9609
 3611SOL     OW14175   4.771   2.457   3.241 -0.1524  0.2353 -0.0040
 3611SOL    HW214176   4.847   2.455   3.184 -0.9077  0.0939 -1.0429
 3611SOL    HW314177   4.769   2.546   3.276  1.8950 -0.4356  2.0487
 3611SOL    MW414178   4.780   2.468   3.238 -0.3788 -0.1151 -0.3442
 3612SOL     OW14179   0.731   1.697   4.959  0.0835  0.2744  0.3787
 3612SOL    HW214180   0.770   1.730   5.040  0.9650 -0.2501  0.1786
 3612SOL    HW314181   0.767   1.754   4.890  0.6192 -0.2958  0.1778
 3612SOL    MW414182   0.741   1.709   4.960 -0.0274  0.1353  0.2188
 3613SOL     OW14183   2.903   2.464   3.390 -1.0884  0.1364  0.2173
 3613SOL    HW214184   2.945   2.402   3.449  1.8732  0.3848 -1.4489
 3613SOL    HW314185   2.892   2.544   3.442  0.0944 -0.0982  0.8478
 3613SOL    MW414186   2.907   2.467   3.405  0.0749  0.2280 -0.1814
 3614SOL     OW14187   4.953   3.896   1.533 -0.6000 -0.4347  0.8616
 3614SOL    HW214188   4.974   3.879   1.625 -0.5270 -0.0645  0.9137
 3614SOL    HW314189   4.962   3.811   1.490  0.6209 -0.3677  0.9570
 3614SOL    MW414190   4.957   3.882   1.539  0.2412 -0.1601 -0.7218
 3615SOL     OW14191   3.221   2.471   3.917  0.1242  0.0006 -0.3132
 3615SOL    HW214192   3.284   2.431   3.857  0.0610  0.5735 -0.7677
 3615SOL    HW314193   3.216   2.410   3.991 -0.1766 -0.9708 -1.1072
 3615SOL    MW414194   3.228   2.457   3.919 -0.1812 -0.1742 -0.5851
 3616SOL     OW14195   2.088   1.922   5.004  0.4626 -0.0296  0.5678
 3616SOL    HW214196   2.106   1.986   4.935  0.5179 -0.8787 -0.2295
 3616SOL    HW314197   2.145   1.848   4.984 -1.0386 -1.1608  0.2565
 3616SOL    MW414198   2.098   1.920   4.992  0.0939 -0.6242  0.4639
 3617SOL     OW14199   5.838   0.268   1.564 -0.2414  0.1667  0.0269
 3617SOL    HW214200   5.890   0.225   1.632 -0.0124  0.1837 -0.1341
 3617SOL    HW314201   5.747   0.251   1.588 -0.1567 -0.1105  0.1539
 3617SOL    MW414202   5.833   0.260   1.576 -0.1335  0.5746  0.0641
 3618SOL     OW14203   4.579   3.182   6.227  0.0301  0.1888  0.1173
 3618SOL    HW214204   4.563   3.176   6.321  0.1024 -1.7678  0.0363
 3618SOL    HW314205   4.629   3.103   6.205  1.2782  1.3145 -1.3383
 3618SOL    MW414206   4.583   3.171   6.236  0.2393  0.4035  0.5513
 3619SOL     OW14207   1.384   0.709   4.233  0.3665  0.5171 -0.0546
 3619SOL    HW214208   1.359   0.634   4.286 -0.7786  0.3075 -0.8428
 3619SOL    HW314209   1.451   0.677   4.174 -0.2721  0.0372 -0.5346
 3619SOL    MW414210   1.389   0.695   4.232  0.2808  0.0139  0.7022
 3620SOL     OW14211   5.085   4.656   4.671 -0.0687  0.1415 -0.1319
 3620SOL    HW214212   5.099   4.606   4.591  0.1251  0.2468 -0.1649
 3620SOL    HW314213   5.149   4.621   4.733 -0.6185 -0.3494  0.1681
 3620SOL    MW414214   5.096   4.645   4.669 -0.0100  0.5455 -0.1662
 3621SOL     OW14215   0.053   6.159   0.426 -0.3477 -0.2730  0.3440
 3621SOL    HW214216   0.085   6.069   0.423  1.6174  0.4100 -1.2205
 3621SOL    HW314217   0.003   6.170   0.345  1.9335  0.8241 -1.0204
 3621SOL    MW414218   0.051   6.149   0.415 -0.2363  0.2528 -0.2327
 3622SOL     OW14219   2.763   4.350   3.918 -0.3675 -0.1784  0.5440
 3622SOL    HW214220   2.737   4.259   3.932 -2.3372  0.0782 -1.0565
 3622SOL    HW314221   2.839   4.344   3.859  1.9947 -0.8406  3.4104
 3622SOL    MW414222   2.770   4.337   3.912 -0.4732 -0.2619  0.1299
 3623SOL     OW14223   5.711   5.114   1.150  0.2118  0.2090  0.0029
 3623SOL    HW214224   5.780   5.095   1.087 -0.1289  1.7778 -0.8842
 3623SOL    HW314225   5.703   5.034   1.202  3.7492  0.4581  1.2065
 3623SOL    MW414226   5.719   5.101   1.149 -0.0084 -0.4443 -0.1702
 3624SOL     OW14227   6.311   1.086   3.250  0.1425  0.7417 -0.1596
 3624SOL    HW214228   6.381   1.098   3.186 -0.8309 -0.2038 -1.4466
 3624SOL    HW314229   6.279   0.997   3.235  0.4953  0.1166  2.2988
 3624SOL    MW414230   6.316   1.076   3.239  0.1734  0.1384  0.0913
 3625SOL     OW14231   2.444   0.127   5.582 -0.5613 -0.4656  0.7749
 3625SOL    HW214232   2.467   0.220   5.594 -0.7525 -0.5573  1.9890
 3625SOL    HW314233   2.413   0.122   5.492 -0.0840  0.5562  0.5323
 3625SOL    MW414234   2.443   0.139   5.572 -0.6494 -0.4461 -0.3821
 3626SOL     OW14235   4.968   4.102   1.151  0.3758  0.1831 -0.1494
 3626SOL    HW214236   4.983   4.103   1.057 -0.1610 -2.6458 -0.3745
 3626SOL    HW314237   5.041   4.050   1.186  0.7009  1.4000  1.0466
 3626SOL    MW414238   4.980   4.095   1.143  0.4586 -0.1709  0.2330
 3627SOL     OW14239   4.956   3.172   4.039 -1.0867  0.1951  0.2566
 3627SOL    HW214240   4.883   3.120   4.072 -1.6905  0.0692 -1.2037
 3627SOL    HW314241   4.917   3.255   4.012 -0.4905  0.5736  0.5385
 3627SOL    MW414242   4.941   3.176   4.040  0.0797 -0.1720 -0.5557
 3628SOL     OW14243   0.099   5.605   5.611 -0.2841  0.4457 -0.2968
 3628SOL    HW214244   0.061   5.590   5.524  0.3007 -0.1257 -0.4597
 3628SOL    HW314245   0.145   5.524   5.631 -0.2145  0.6665  0.4467
 3628SOL    MW414246   0.100   5.592   5.602  0.3973 -0.1179 -0.0494
 3629SOL     OW14247   1.767   5.362   1.910  0.1738 -0.1150 -0.2878
 3629SOL    HW214248   1.742   5.274   1.941 -0.4137  0.2344  0.2637
 3629SOL    HW314249   1.696   5.418   1.939 -0.1714  0.3282 -1.8998
 3629SOL    MW414250   1.754   5.358   1.918 -0.8970 -0.2280  0.2130
 3630SOL     OW14251   5.499   5.368   3.423 -0.3408  0.6873  0.1126
 3630SOL    HW214252   5.509   5.273   3.431  0.8660  0.8568  0.8023
 3630SOL    HW314253   5.409   5.379   3.392 -0.0216 -0.7380 -1.4731
 3630SOL    MW414254   5.488   5.357   3.420  0.1666 -0.4587  0.4717
 3631SOL     OW14255   5.002   0.662   4.740  0.1205  0.2741  0.1867
 3631SOL    HW214256   4.982   0.619   4.657  2.0565 -2.2936  0.9496
 3631SOL    HW314257   5.052   0.740   4.715  0.9882 -0.6561 -1.0811
 3631SOL    MW414258   5.006   0.667   4.726 -0.0662  0.0217 -0.3049
 3632SOL     OW14259   3.057   2.345   1.201  0.0571 -0.6648 -0.2290
 3632SOL    HW214260   3.001   2.316   1.273  2.3135 -1.2345  1.3799
 3632SOL    HW314261   3.094   2.265   1.165  0.3183 -0.2608 -0.8810
 3632SOL    MW414262   3.054   2.331   1.206 -0.0884 -0.2062  0.3604
 3633SOL     OW14263   3.836   3.001   1.504  0.2111  0.1386  0.2529
 3633SOL    HW214264   3.914   2.951   1.479  0.3703  0.7105 -0.4273
 3633SOL    HW314265   3.821   3.061   1.431 -3.0350 -2.3860 -1.4177
 3633SOL    MW414266   3.845   3.002   1.491 -0.4159  0.6013 -0.1997
 3634SOL     OW14267   5.874   0.261   0.576 -0.1469  0.2165 -0.4554
 3634SOL    HW214268   5.926   0.216   0.509 -1.2818 -2.3997  0.2934
 3634SOL    HW314269   5.814   0.194   0.609 -0.0680  1.5469  2.7694
 3634SOL    MW414270   5.873   0.247   0.572  0.2644 -0.3289 -0.3940
 3635SOL     OW14271   4.376   1.434   1.833 -0.1251  0.6733  0.3307
 3635SOL    HW214272   4.288   1.406   1.807  0.2715  0.1247 -0.4603
 3635SOL    HW314273   4.370   1.530   1.837 -0.2437  0.8028 -1.7918
 3635SOL    MW414274   4.364   1.443   1.830 -0.1665 -0.1936  0.1424
 3636SOL     OW14275   2.976   1.793   4.123 -0.1140  0.0223  0.1281
 3636SOL    HW214276   2.920   1.824   4.194 -3.0176 -1.5442 -1.3021
 3636SOL    HW314277   2.948   1.703   4.107  1.9035 -0.3910 -1.6237
 3636SOL    MW414278   2.965   1.785   4.130  0.1572  0.0073  0.0182
 3637SOL     OW14279   3.247   2.368   4.178  0.0524  0.2897 -0.8004
 3637SOL    HW214280   3.207   2.431   4.239 -0.2557 -0.5072 -0.1573
 3637SOL    HW314281   3.198   2.287   4.192  1.3808 -0.4983 -0.5562
 3637SOL    MW414282   3.235   2.366   4.188  0.0578 -0.3849 -0.1750
 3638SOL     OW14283   3.362   1.223   4.539  0.4889  0.5457 -0.2870
 3638SOL    HW214284   3.294   1.194   4.478 -0.8367  1.7547  0.5552
 3638SOL    HW314285   3.432   1.158   4.530  0.3704  0.6811 -3.0923
 3638SOL    MW414286   3.362   1.210   4.529  0.4803  0.0341  0.6080
 3639SOL     OW14287   3.468   1.939   6.313 -0.2679  0.3881 -0.9713
 3639SOL    HW214288   3.407   1.954   6.240 -1.4051 -0.9776 -0.3647
 3639SOL    HW314289   3.547   1.906   6.272 -0.5037  0.6701 -1.6670
 3639SOL    MW414290   3.470   1.937   6.298  0.0016 -0.0342 -0.1252
 3640SOL     OW14291   2.775   0.256   5.084 -0.1280 -0.6227  0.1561
 3640SOL    HW214292   2.750   0.299   5.165  0.3913 -0.7851  0.4038
 3640SOL    HW314293   2.711   0.186   5.073 -1.4246  0.6210 -0.6194
 3640SOL    MW414294   2.763   0.252   5.093 -0.0629 -0.0210 -0.1093
 3641SOL     OW14295   3.327   2.441   2.314 -0.3898 -0.2706 -0.6782
 3641SOL    HW214296   3.369   2.355   2.313  1.9195  0.6473  2.1693
 3641SOL    HW314297   3.267   2.437   2.389  0.7752  0.9515  0.3711
 3641SOL    MW414298   3.325   2.430   2.324  0.9235 -0.0462 -0.2975
 3642SOL     OW14299   0.469   1.684   1.539  0.2725 -0.1240 -0.3260
 3642SOL    HW214300   0.527   1.735   1.596  1.0659  0.4989 -1.6278
 3642SOL    HW314301   0.474   1.729   1.454 -1.0672 -0.8672 -0.8277
 3642SOL    MW414302   0.478   1.697   1.535 -0.1815 -0.2730  0.3417
 3643SOL     OW14303   3.550   0.660   2.848 -0.6446 -0.5533 -0.3922
 3643SOL    HW214304   3.598   0.724   2.795 -2.0863 -0.9519 -2.2800
 3643SOL    HW314305   3.459   0.687   2.840 -0.9483 -0.8314  1.6825
 3643SOL    MW414306   3.545   0.672   2.840 -0.3372  0.5715  0.5172
 3644SOL     OW14307   4.252   4.455   0.690 -0.3604  0.1598 -0.2407
 3644SOL    HW214308   4.259   4.372   0.736 -1.9213 -0.0956 -0.4146
 3644SOL    HW314309   4.213   4.515   0.753  2.6658  1.4290  0.6138
 3644SOL    MW414310   4.248   4.452   0.704 -0.2663  0.2380  0.4020
 3645SOL     OW14311   2.816   5.296   2.319 -0.1709 -0.2895 -0.5637
 3645SOL    HW214312   2.858   5.344   2.248  0.0450  0.7858  0.2657
 3645SOL    HW314313   2.889   5.255   2.366 -0.2247 -0.1482 -0.3567
 3645SOL    MW414314   2.832   5.297   2.316  0.1085  0.1224  0.1057
 3646SOL     OW14315   3.029   3.095   4.033  0.2991  0.1914 -0.0904
 3646SOL    HW214316   3.108   3.057   3.995 -0.5542  0.2940 -2.1051
 3646SOL    HW314317   2.980   3.129   3.958 -2.3090 -1.0621  0.9073
 3646SOL    MW414318   3.033   3.094   4.018 -0.0885 -0.3239 -0.4877
 3647SOL     OW14319   1.194   5.338   2.098 -0.0496  0.1232 -0.4963
 3647SOL    HW214320   1.276   5.298   2.128  0.4228  1.3711 -0.0528
 3647SOL    HW314321   1.131   5.266   2.097  0.7353 -0.6039  0.3909
 3647SOL    MW414322   1.197   5.323   2.102  0.3833 -0.9785  0.4816
 3648SOL     OW14323   1.894   0.389   2.671 -0.2372 -0.5822  0.4248
 3648SOL    HW214324   1.853   0.407   2.586 -0.6337  1.0722  0.9345
 3648SOL    HW314325   1.920   0.297   2.665 -1.5517 -0.9224 -0.9509
 3648SOL    MW414326   1.892   0.379   2.659  0.1494  0.1128  0.5910
 3649SOL     OW14327   4.368   3.272   1.196  0.6577  0.5302 -0.3348
 3649SOL    HW214328   4.348   3.345   1.136 -1.8786 -1.2363 -1.8121
 3649SOL    HW314329   4.379   3.196   1.139  1.9082 -0.5724  1.2622
 3649SOL    MW414330   4.367   3.272   1.180 -0.2574 -0.2811 -0.3864
 3650SOL     OW14331   6.301   4.090   1.757 -0.3256 -0.1324 -0.1155
 3650SOL    HW214332   6.247   4.020   1.720 -0.0252  0.7637 -2.3665
 3650SOL    HW314333   6.388   4.075   1.719  0.1023  0.6305  0.5399
 3650SOL    MW414334   6.306   4.079   1.747  0.0802  0.2399 -0.1830
 3651SOL     OW14335   6.406   0.564   0.512  0.0891  0.2692 -0.1908
 3651SOL    HW214336   6.464   0.537   0.441 -0.7498 -0.1910 -0.7017
 3651SOL    HW314337   6.422   0.500   0.582 -0.4568 -0.3890 -0.6646
 3651SOL    MW414338   6.416   0.552   0.512  0.2473  0.2337  0.2222
 3652SOL     OW14339   2.673   1.669   0.508  0.0591  0.1015 -0.2280
 3652SOL    HW214340   2.620   1.607   0.460 -2.5959  1.6113  0.5469
 3652SOL    HW314341   2.652   1.653   0.600  1.2942  0.4948  0.1554
 3652SOL    MW414342   2.663   1.659   0.514 -0.2793 -0.8650  0.3737
 3653SOL     OW14343   4.040   4.947   6.372  0.5309  0.6675  0.4926
 3653SOL    HW214344   3.978   4.875   6.364 -0.3373  1.4992 -0.5200
 3653SOL    HW314345   4.073   4.940   6.462 -0.6160 -0.1186  0.8751
 3653SOL    MW414346   4.037   4.936   6.383  0.0023  0.3288 -0.1364
 3654SOL     OW14347   1.950   1.701   3.842  0.0643 -0.6675  0.3167
 3654SOL    HW214348   1.856   1.713   3.828  0.3897 -0.5602 -2.2734
 3654SOL    HW314349   1.990   1.726   3.759  2.5048  0.2805  1.6821
 3654SOL    MW414350   1.943   1.706   3.829 -0.0850 -0.0407  0.2607
 3655SOL     OW14351   3.178   3.884   6.008 -0.3696 -0.4258  0.3092
 3655SOL    HW214352   3.225   3.826   6.067 -0.9718 -1.5926 -0.3287
 3655SOL    HW314353   3.219   3.871   5.923 -0.3095  0.3218  0.2189
 3655SOL    MW414354   3.190   3.875   6.005 -0.1431  0.1120  0.2277
 3656SOL     OW14355   1.306   6.076   0.166  0.2207  0.1549  0.0204
 3656SOL    HW214356   1.317   6.090   0.072 -1.5692  1.3615 -0.0598
 3656SOL    HW314357   1.320   6.161   0.206 -0.9228  0.0824  0.6269
 3656SOL    MW414358   1.309   6.089   0.159  0.1792 -0.2911 -0.2968
 3657SOL     OW14359   5.297   1.131   3.070  0.2623  0.3369  0.0324
 3657SOL    HW214360   5.345   1.053   3.099  0.3667 -0.0459 -1.0834
 3657SOL    HW314361   5.307   1.130   2.974 -1.0154  0.8748 -0.1262
 3657SOL    MW414362   5.305   1.120   3.061  0.4143 -0.0552 -0.5625
 3658SOL     OW14363   0.823   5.242   0.552 -0.0773  0.0915  0.6897
 3658SOL    HW214364   0.786   5.154   0.558 -0.4126  0.1579 -0.1868
 3658SOL    HW314365   0.786   5.278   0.471  1.7134  0.2477 -0.1009
 3658SOL    MW414366   0.813   5.235   0.542 -0.1692  0.0302  0.3874
 3659SOL     OW14367   1.536   2.623   5.391  0.3119  0.3729  0.0918
 3659SOL    HW214368   1.623   2.583   5.398 -0.5143 -1.6141 -0.1611
 3659SOL    HW314369   1.522   2.633   5.296 -0.2976 -0.7058  0.0549
 3659SOL    MW414370   1.546   2.619   5.379 -0.0385  0.1976 -0.4400
 3660SOL     OW14371   4.186   6.267   6.346  0.8009 -0.1759 -0.2365
 3660SOL    HW214372   4.254   6.200   6.346  0.3301 -0.7493 -2.8468
 3660SOL    HW314373   4.107   6.221   6.375  0.7126 -0.5088 -0.9800
 3660SOL    MW414374   4.185   6.252   6.350 -0.0338 -0.1634  0.2323
 3661SOL     OW14375   4.566   2.066   1.133  0.5477 -0.6090  0.3017
 3661SOL    HW214376   4.525   2.003   1.074  1.8863 -2.3407  1.1430
 3661SOL    HW314377   4.501   2.079   1.202  0.6271 -1.8622  0.6421
 3661SOL    MW414378   4.552   2.059   1.134 -0.0807  0.5204 -0.2321
 3662SOL     OW14379   4.969   1.293   0.058  0.0176 -0.0792  0.2881
 3662SOL    HW214380   5.002   1.354  -0.008  0.5605 -0.9991 -0.3082
 3662SOL    HW314381   5.040   1.230   0.071 -0.5581 -0.6314  0.8303
 3662SOL    MW414382   4.983   1.293   0.051  0.5178  0.2439 -0.1426
 3663SOL     OW14383   3.461   3.203   3.565  0.7009  0.3816  0.0860
 3663SOL    HW214384   3.529   3.189   3.499 -1.4207 -3.2962 -1.6601
 3663SOL    HW314385   3.488   3.149   3.639  0.7533  0.6115  0.2314
 3663SOL    MW414386   3.473   3.194   3.566  0.1445 -0.1873  0.4812
 3664SOL     OW14387   1.147   3.599   4.206  0.5822 -0.1740 -0.1481
 3664SOL    HW214388   1.173   3.512   4.175  2.3194  0.0365  0.6313
 3664SOL    HW314389   1.058   3.610   4.173  0.5250 -2.0204 -0.7316
 3664SOL    MW414390   1.139   3.589   4.198 -0.0470  0.4586 -0.1853
 3665SOL     OW14391   0.832   1.418   2.946  0.0226  0.0209 -0.1913
 3665SOL    HW214392   0.765   1.393   3.010  0.7648  1.7549  1.3570
 3665SOL    HW314393   0.789   1.484   2.891 -0.2590 -0.6387 -0.7821
 3665SOL    MW414394   0.817   1.423   2.947 -0.1706  0.0217 -0.1391
 3666SOL     OW14395   1.425   5.129   3.656 -0.0768 -0.4037  0.7245
 3666SOL    HW214396   1.489   5.086   3.712  0.4583 -0.2419  0.2439
 3666SOL    HW314397   1.344   5.127   3.707  0.3171 -0.5643  1.3593
 3666SOL    MW414398   1.423   5.123   3.670 -0.2900  0.8378 -0.1100
 3667SOL     OW14399   0.727   5.397   1.030  0.0273 -0.4280 -0.0193
 3667SOL    HW214400   0.739   5.491   1.039 -0.2942 -0.4111  0.2473
 3667SOL    HW314401   0.783   5.372   0.956 -0.6463  0.1325 -0.7304
 3667SOL    MW414402   0.736   5.406   1.022 -0.5863  0.2187  0.1932
 3668SOL     OW14403   1.411   0.803   0.157 -0.5888  0.1763 -0.0048
 3668SOL    HW214404   1.436   0.893   0.137  0.1989  0.1605  0.8203
 3668SOL    HW314405   1.463   0.749   0.098 -0.4229  0.2282  0.0956
 3668SOL    MW414406   1.421   0.807   0.147  0.2796  0.4059 -0.2590
 3669SOL     OW14407   4.400   4.744   5.500  0.2408  0.0312 -0.6895
 3669SOL    HW214408   4.486   4.715   5.530 -0.2088 -0.3817  0.2262
 3669SOL    HW314409   4.410   4.753   5.405  1.7579  1.6121 -0.4305
 3669SOL    MW414410   4.413   4.741   5.491 -0.6505 -0.2822 -0.2571
 3670SOL     OW14411   3.751   1.414   4.409  0.3117 -0.0477  0.4396
 3670SOL    HW214412   3.783   1.414   4.499  0.4080  0.3057  0.4063
 3670SOL    HW314413   3.655   1.420   4.417  0.3462  0.4225  0.5102
 3670SOL    MW414414   3.742   1.415   4.422 -0.1276  0.0330  0.5659
 3671SOL     OW14415   5.578   2.670   5.547  0.4175  0.4839  0.4362
 3671SOL    HW214416   5.538   2.755   5.564  0.0644  0.1918  1.1082
 3671SOL    HW314417   5.578   2.661   5.452 -0.6704  0.6983  0.4030
 3671SOL    MW414418   5.573   2.680   5.537 -0.1073  0.1899  0.4259
 3672SOL     OW14419   3.276   3.270   3.368 -0.3638  0.0393  0.5511
 3672SOL    HW214420   3.333   3.230   3.435  0.2305 -0.9195 -0.4968
 3672SOL    HW314421   3.283   3.211   3.293  0.1121  1.8313 -0.8745
 3672SOL    MW414422   3.285   3.257   3.367  0.4404  0.4861 -0.0440
 3673SOL     OW14423   5.389   1.841   5.146  0.2329 -0.0640 -0.2840
 3673SOL    HW214424   5.319   1.875   5.202 -1.3659 -1.4680 -1.3359
 3673SOL    HW314425   5.456   1.810   5.208 -0.4456  0.5188  0.7831
 3673SOL    MW414426   5.389   1.841   5.162  0.1294 -0.0975  0.0157
 3674SOL     OW14427   4.529   3.336   5.706 -0.1337 -0.0081  0.4370
 3674SOL    HW214428   4.557   3.257   5.660 -2.7772 -0.9028  0.1537
 3674SOL    HW314429   4.527   3.311   5.798  2.7559  1.0222  0.8832
 3674SOL    MW414430   4.532   3.323   5.712 -0.1264 -0.3912  0.1022
 3675SOL     OW14431   2.731   2.690   2.546 -0.4144 -0.3916  0.2037
 3675SOL    HW214432   2.676   2.611   2.544 -0.7118 -0.3659  3.0156
 3675SOL    HW314433   2.669   2.761   2.562 -0.0946  0.4225 -1.8955
 3675SOL    MW414434   2.716   2.689   2.548  0.2526  0.0173  0.0212
 3676SOL     OW14435   2.258   3.046   5.995  0.1204  0.1629  0.4531
 3676SOL    HW214436   2.176   3.082   6.028 -0.2194  1.3918 -1.5861
 3676SOL    HW314437   2.317   3.122   5.989 -0.1448  0.2619 -2.5304
 3676SOL    MW414438   2.255   3.061   5.999 -0.8325  0.0681 -0.7232
 3677SOL     OW14439   4.940   2.215   6.067 -0.3507  0.2411  0.3457
 3677SOL    HW214440   4.973   2.170   5.990 -0.2014  1.0439 -0.0722
 3677SOL    HW314441   4.954   2.153   6.139  1.6301  0.3450  0.1114
 3677SOL    MW414442   4.947   2.201   6.067 -0.4262 -0.2256  0.4015
 3678SOL     OW14443   6.403   3.989   5.771 -0.2329  0.2351  0.0218
 3678SOL    HW214444   6.429   3.897   5.767 -1.4171 -0.2286  1.5603
 3678SOL    HW314445   6.479   4.034   5.809  0.0621 -0.2535  0.0208
 3678SOL    MW414446   6.416   3.983   5.775  0.1628  0.0837  0.2739
 3679SOL     OW14447   4.280   3.420   1.924 -0.1843 -0.4739  0.2075
 3679SOL    HW214448   4.235   3.469   1.855  0.3333 -0.5290 -0.1775
 3679SOL    HW314449   4.213   3.404   1.990 -0.5427  0.0986 -0.0083
 3679SOL    MW414450   4.265   3.425   1.923  0.2127  0.4422 -0.8443
 3680SOL     OW14451   5.124   5.544   0.695  0.0513 -0.4743 -0.4734
 3680SOL    HW214452   5.073   5.486   0.753  0.0165 -0.1670 -0.1958
 3680SOL    HW314453   5.188   5.485   0.654 -0.8251 -0.9573 -1.1953
 3680SOL    MW414454   5.125   5.528   0.697  0.2096  0.1178 -0.0657
 3681SOL     OW14455   2.715   3.606   1.138 -0.0732 -0.2930 -0.0543
 3681SOL    HW214456   2.693   3.653   1.218 -0.2017  1.6662 -1.1775
 3681SOL    HW314457   2.665   3.524   1.144 -2.9622  1.3479  0.2598
 3681SOL    MW414458   2.705   3.601   1.149  0.3750  0.0935 -0.2306
 3682SOL     OW14459   0.308   4.521   1.834 -0.5352  0.2689 -0.0845
 3682SOL    HW214460   0.348   4.554   1.914 -0.2382 -0.8851  0.2598
 3682SOL    HW314461   0.374   4.464   1.796 -1.2665 -0.4423 -0.3164
 3682SOL    MW414462   0.322   4.518   1.839 -0.2060 -0.1354 -0.3813
 3683SOL     OW14463   3.593   6.021   4.315 -0.5077 -0.2356 -0.1118
 3683SOL    HW214464   3.683   6.049   4.299 -1.1047  0.5872 -2.5056
 3683SOL    HW314465   3.591   5.929   4.290 -0.4162 -0.1508 -0.4309
 3683SOL    MW414466   3.604   6.013   4.310 -0.2953  0.3735  0.9191
 3684SOL     OW14467   2.347   0.718   2.627  0.1519 -0.2435 -0.2304
 3684SOL    HW214468   2.408   0.777   2.581  0.3514  0.2355  0.6280
 3684SOL    HW314469   2.395   0.691   2.705 -0.1539 -1.1158 -0.3387
 3684SOL    MW414470   2.362   0.722   2.631 -0.2578 -0.1787  0.0174
 3685SOL     OW14471   2.114   1.447   6.132 -0.3601 -0.0604  0.2874
 3685SOL    HW214472   2.115   1.542   6.143  1.0127 -0.1717  1.3159
 3685SOL    HW314473   2.048   1.417   6.194 -0.7598  0.1969 -0.0014
 3685SOL    MW414474   2.106   1.456   6.141  0.2244 -0.5941  0.5386
 3686SOL     OW14475   5.589   0.695   3.801  0.0274  0.5701 -0.9634
 3686SOL    HW214476   5.675   0.656   3.786 -1.0120 -2.2671 -0.2587
 3686SOL    HW314477   5.566   0.736   3.718  1.0302 -0.8439 -1.9817
 3686SOL    MW414478   5.597   0.695   3.788 -1.0099 -0.2442  0.0298
 3687SOL     OW14479   1.935   2.086   1.280 -0.0694  0.2383  0.2486
 3687SOL    HW214480   2.009   2.142   1.303  0.2005 -0.5334  1.3478
 3687SOL    HW314481   1.972   1.998   1.276 -0.3907  0.1296 -1.9124
 3687SOL    MW414482   1.950   2.082   1.282 -0.2077  0.2954 -0.6194
 3688SOL     OW14483   4.155   5.964   2.179  0.0891  0.0813 -0.2144
 3688SOL    HW214484   4.181   5.893   2.120 -1.8312 -0.0224 -0.9801
 3688SOL    HW314485   4.114   5.920   2.253  1.6798  0.2690  0.8412
 3688SOL    MW414486   4.153   5.949   2.181 -0.8815  0.2938  0.2945
 3689SOL     OW14487   5.209   2.685   4.217  0.4002 -0.8039 -0.6539
 3689SOL    HW214488   5.119   2.700   4.189  0.7466  0.8205 -0.9481
 3689SOL    HW314489   5.207   2.597   4.255 -1.5788 -0.3197  0.4898
 3689SOL    MW414490   5.197   2.675   4.218 -0.0673 -0.0581 -0.0667
 3690SOL     OW14491   2.637   5.878   5.328  0.4792  0.7792  0.3944
 3690SOL    HW214492   2.587   5.820   5.385  1.8031  0.2417  1.0436
 3690SOL    HW314493   2.676   5.942   5.387  0.5522  1.1951 -0.1010
 3690SOL    MW414494   2.636   5.879   5.343  0.1977 -0.4839 -0.0451
 3691SOL     OW14495   2.585   2.487   3.439 -0.6061  0.0485 -0.2817
 3691SOL    HW214496   2.670   2.445   3.425  0.0585  1.3767 -0.4367
 3691SOL    HW314497   2.561   2.519   3.352 -2.1339 -1.8093 -0.6072
 3691SOL    MW414498   2.593   2.486   3.425  0.0857 -0.3686 -0.2052
 3692SOL     OW14499   5.346   2.356   3.571 -0.2296  0.1307 -0.0554
 3692SOL    HW214500   5.318   2.358   3.480 -2.9223 -1.9788  0.6098
 3692SOL    HW314501   5.268   2.378   3.622  0.4467 -1.4132  1.8067
 3692SOL    MW414502   5.332   2.359   3.566 -0.2377  0.4399  0.5015
 3693SOL     OW14503   5.066   3.106   5.716  0.2778 -0.1322  0.0999
 3693SOL    HW214504   5.136   3.045   5.738 -0.0731 -0.4829  0.2559
 3693SOL    HW314505   5.002   3.096   5.787  0.1945  0.3842  0.1065
 3693SOL    MW414506   5.067   3.097   5.728 -0.5339  0.6775 -0.0557
 3694SOL     OW14507   2.050   4.823   3.559  0.1498  0.2149 -0.0899
 3694SOL    HW214508   2.025   4.771   3.483 -0.9949  2.0427 -1.0278
 3694SOL    HW314509   2.089   4.760   3.620 -0.7067 -1.6219 -1.3699
 3694SOL    MW414510   2.052   4.808   3.557  0.0272  0.4281  0.1314
 3695SOL     OW14511   4.381   1.012   3.481 -0.1158  0.0730  0.4957
 3695SOL    HW214512   4.402   0.949   3.551  2.1619  0.3603  0.1456
 3695SOL    HW314513   4.309   1.064   3.517 -1.1779 -1.8292  1.3195
 3695SOL    MW414514   4.374   1.010   3.495  0.0341  0.3094 -0.2841
 3696SOL     OW14515   0.746   3.719   2.774  0.4867 -0.1572 -0.3886
 3696SOL    HW214516   0.781   3.658   2.710  1.3504  0.8555 -0.9045
 3696SOL    HW314517   0.737   3.667   2.854  0.3954 -1.1644 -1.0376
 3696SOL    MW414518   0.749   3.705   2.776 -0.2763  0.2226 -0.3850
 3697SOL     OW14519   4.562   4.746   0.382 -0.5543 -0.1646  0.3077
 3697SOL    HW214520   4.624   4.694   0.330 -1.0586 -1.4955  0.9902
 3697SOL    HW314521   4.600   4.834   0.382  0.4878 -0.5761 -0.6413
 3697SOL    MW414522   4.575   4.751   0.375  0.2535  1.3560  0.4609
 3698SOL     OW14523   1.168   4.388   0.704  0.2310  0.1181  0.8119
 3698SOL    HW214524   1.152   4.439   0.625 -1.0877 -0.6627  0.5456
 3698SOL    HW314525   1.185   4.453   0.772 -0.3048  0.8528  0.2523
 3698SOL    MW414526   1.168   4.403   0.702  0.0949  0.2024 -0.3206
 3699SOL     OW14527   5.300   1.172   6.296 -0.6272  0.3108 -0.3187
 3699SOL    HW214528   5.395   1.166   6.298 -0.6794 -0.6363 -0.1296
 3699SOL    HW314529   5.280   1.232   6.224  0.0517 -0.8755 -1.5191
 3699SOL    MW414530   5.310   1.179   6.287  0.8932 -0.2980  0.1225
 3700SOL     OW14531   4.099   1.004   4.453 -0.2362  0.4523  0.0748
 3700SOL    HW214532   4.179   1.032   4.497 -0.1424 -0.2314  0.3399
 3700SOL    HW314533   4.110   0.910   4.439  0.3026  0.8534 -2.5983
 3700SOL    MW414534   4.111   0.996   4.457 -0.1611 -0.2460  0.5870
 3701SOL     OW14535   2.961   1.254   4.230 -0.4996  0.3693  0.5364
 3701SOL    HW214536   2.936   1.207   4.151  0.6850  0.1949  0.2477
 3701SOL    HW314537   2.924   1.341   4.219  0.5922  0.7006 -0.7506
 3701SOL    MW414538   2.953   1.259   4.218 -0.9387  0.6948 -0.0030
 3702SOL     OW14539   2.577   5.704   0.976  0.0912 -0.3866  0.6250
 3702SOL    HW214540   2.667   5.673   0.982  0.8283  1.5910  0.3711
 3702SOL    HW314541   2.566   5.728   0.884 -1.0252 -1.4705  0.4486
 3702SOL    MW414542   2.587   5.703   0.965  0.1745  0.4675 -0.0189
 3703SOL     OW14543   3.711   4.071   3.957  0.1783 -0.2282  0.0322
 3703SOL    HW214544   3.699   4.152   4.006 -1.2271  0.0281 -0.6732
 3703SOL    HW314545   3.700   4.002   4.021  0.7135  0.1265  0.5138
 3703SOL    MW414546   3.708   4.073   3.972  0.0447  0.4970  0.0080
 3704SOL     OW14547   2.268   1.849   5.391  0.0847 -0.1899  0.4896
 3704SOL    HW214548   2.180   1.849   5.353  0.0106 -1.3321  0.6546
 3704SOL    HW314549   2.280   1.940   5.421 -1.0306 -0.0142  0.4684
 3704SOL    MW414550   2.258   1.861   5.390  0.3673  0.0542  0.0857
 3705SOL     OW14551   0.102   0.213   3.982  0.4764 -0.0027 -0.1516
 3705SOL    HW214552   0.106   0.119   3.965  0.1081 -0.1863  0.7000
 3705SOL    HW314553   0.193   0.241   3.988  0.5878 -0.2845 -0.4815
 3705SOL    MW414554   0.114   0.205   3.980  0.1751  0.2150 -0.1496
 3706SOL     OW14555   4.684   5.375   1.136  0.3652 -0.3140  0.1135
 3706SOL    HW214556   4.641   5.290   1.127  1.9796 -1.1041 -0.6566
 3706SOL    HW314557   4.772   5.353   1.168  0.4672  1.1678  0.9397
 3706SOL    MW414558   4.690   5.361   1.139  0.2193 -0.1938 -0.5239
 3707SOL     OW14559   3.516   5.067   0.463  0.7172  0.6259 -0.0469
 3707SOL    HW214560   3.548   5.031   0.546  1.5754  1.2124 -0.1074
 3707SOL    HW314561   3.504   5.160   0.480  0.3235  0.6461 -0.4205
 3707SOL    MW414562   3.519   5.075   0.476 -0.2265 -0.7188 -0.5516
 3708SOL     OW14563   4.567   1.693   4.689 -0.3268  0.0730 -0.0636
 3708SOL    HW214564   4.480   1.732   4.681  0.3030  1.2651 -1.4625
 3708SOL    HW314565   4.619   1.733   4.619  1.0877 -1.3633  0.0968
 3708SOL    MW414566   4.563   1.703   4.679  0.6550  0.1276  0.0988
 3709SOL     OW14567   2.361   2.801   3.644 -0.7782  0.7043 -0.5721
 3709SOL    HW214568   2.387   2.869   3.706 -0.8882 -0.0654  0.3417
 3709SOL    HW314569   2.270   2.821   3.622 -1.1090  0.3548  0.4068
 3709SOL    MW414570   2.352   2.812   3.649 -0.0787 -0.2600 -1.1261
 3710SOL     OW14571   2.391   2.515   0.157 -0.0167  0.2305  0.9603
 3710SOL    HW214572   2.388   2.605   0.124  0.0467  0.5010  1.6685
 3710SOL    HW314573   2.415   2.462   0.081 -0.8040  0.7143  0.3567
 3710SOL    MW414574   2.394   2.520   0.142  0.5063  0.0513 -0.2242
 3711SOL     OW14575   5.854   5.409   3.118 -0.1518  0.7790 -0.2085
 3711SOL    HW214576   5.859   5.316   3.138  0.9772  0.9737  0.4668
 3711SOL    HW314577   5.862   5.414   3.022 -0.6870  0.1671 -0.2907
 3711SOL    MW414578   5.856   5.398   3.108 -0.6194 -0.1948  0.3948
 3712SOL     OW14579   0.562   1.251   4.464 -0.1549  0.0250  0.2739
 3712SOL    HW214580   0.643   1.211   4.435 -0.2205  0.0381  0.0706
 3712SOL    HW314581   0.532   1.196   4.537  0.3676  0.3915  0.7747
 3712SOL    MW414582   0.569   1.239   4.470  0.2989 -0.1064  0.0544
 3713SOL     OW14583   0.927   4.396   2.096  0.3739  0.7541  0.1076
 3713SOL    HW214584   0.933   4.414   2.190 -0.8213  2.1858 -0.0488
 3713SOL    HW314585   0.943   4.302   2.088 -1.5813  0.1725  1.9880
 3713SOL    MW414586   0.930   4.386   2.107 -0.1617 -0.4126 -0.1089
 3714SOL     OW14587   4.575   1.293   4.410  0.2779 -0.1299  0.3482
 3714SOL    HW214588   4.574   1.204   4.444  1.4752 -0.2935  0.0121
 3714SOL    HW314589   4.649   1.295   4.348 -0.9271  0.5559 -1.1474
 3714SOL    MW414590   4.585   1.282   4.406  0.0701  0.0521 -0.6093
 3715SOL     OW14591   3.685   2.407   2.477 -0.4963  0.2309  0.0463
 3715SOL    HW214592   3.611   2.400   2.537 -0.6762  0.4645 -0.1459
 3715SOL    HW314593   3.757   2.362   2.522 -0.6598  0.3039  0.3831
 3715SOL    MW414594   3.685   2.400   2.491 -0.5785  0.3068  0.2771
 3716SOL     OW14595   5.285   0.318   4.312  0.1929 -0.6749  0.0012
 3716SOL    HW214596   5.265   0.286   4.224  1.3148 -1.6803  0.0944
 3716SOL    HW314597   5.237   0.258   4.370 -0.2200 -0.2572  0.0986
 3716SOL    MW414598   5.276   0.306   4.308 -0.1861  0.5634 -0.1611
 3717SOL     OW14599   5.716   5.316   2.683  0.2355  0.2730 -0.3531
 3717SOL    HW214600   5.657   5.354   2.748  0.1286 -0.6515  0.1071
 3717SOL    HW314601   5.684   5.350   2.599  1.0404  2.3763  0.1050
 3717SOL    MW414602   5.704   5.326   2.681  0.5858  0.1857 -0.0759
 3718SOL     OW14603   1.654   1.364   4.826  0.6410 -0.3389 -0.0493
 3718SOL    HW214604   1.591   1.328   4.889  1.9543  0.4962  1.8301
 3718SOL    HW314605   1.648   1.459   4.839  0.9204 -0.1508 -1.2390
 3718SOL    MW414606   1.645   1.372   4.836 -0.3521  0.1236 -0.2352
 3719SOL     OW14607   2.676   5.120   2.582 -0.3759 -0.3472 -0.3059
 3719SOL    HW214608   2.642   5.074   2.659  1.4061  0.6405  1.1434
 3719SOL    HW314609   2.710   5.203   2.616  0.8525 -0.0599 -2.0759
 3719SOL    MW414610   2.676   5.125   2.596  0.4620 -0.2987 -0.2313
 3720SOL     OW14611   2.458   2.801   0.113  0.5330 -0.0942 -0.4485
 3720SOL    HW214612   2.536   2.852   0.137  0.1527 -0.3878  1.5932
 3720SOL    HW314613   2.392   2.867   0.094  0.0066  0.2993  2.3039
 3720SOL    MW414614   2.460   2.817   0.114 -0.3061  0.1581  0.3245
 3721SOL     OW14615   2.264   5.043   0.856 -0.0524 -0.1238 -0.2989
 3721SOL    HW214616   2.229   4.974   0.800  0.2872 -0.9081  0.4368
 3721SOL    HW314617   2.192   5.107   0.863 -0.3749 -0.4068 -0.9708
 3721SOL    MW414618   2.250   5.043   0.850 -0.2140 -0.0838  0.5156
 3722SOL     OW14619   5.488   0.943   2.085 -0.4110 -0.2670  0.4009
 3722SOL    HW214620   5.445   0.956   2.000  0.4928  0.2639  0.0107
 3722SOL    HW314621   5.434   0.992   2.147 -2.1181 -2.1103  0.4901
 3722SOL    MW414622   5.475   0.951   2.082 -0.0640 -0.0550 -0.6103
 3723SOL     OW14623   0.882   5.250   3.059  0.3211 -0.2545  0.0354
 3723SOL    HW214624   0.902   5.307   3.134  1.5527  0.3658 -0.7297
 3723SOL    HW314625   0.945   5.178   3.067  1.3026  0.4478 -1.0527
 3723SOL    MW414626   0.893   5.248   3.070 -0.4984  0.2186 -0.6185
 3724SOL     OW14627   3.105   3.751   1.867 -0.0151  0.7334  0.2385
 3724SOL    HW214628   3.194   3.778   1.893  0.1602 -0.8129  1.4069
 3724SOL    HW314629   3.107   3.750   1.771  1.6166 -0.3893  0.2441
 3724SOL    MW414630   3.117   3.754   1.858  0.1192 -0.1235 -0.0739
 3725SOL     OW14631   2.461   6.285   2.298 -0.6922  0.1575 -0.3173
 3725SOL    HW214632   2.498   6.223   2.360  0.1236  2.5936  1.8177
 3725SOL    HW314633   2.537   6.320   2.251 -1.0596  0.1515 -0.9406
 3725SOL    MW414634   2.476   6.282   2.300  0.3544 -0.4096 -0.2319
 3726SOL     OW14635   1.357   3.376   4.190  0.1788 -0.3488  0.4230
 3726SOL    HW214636   1.441   3.369   4.235  0.8947 -3.0823 -1.1087
 3726SOL    HW314637   1.380   3.384   4.097 -1.2780  3.0000  0.1779
 3726SOL    MW414638   1.371   3.376   4.183  0.3310  0.6788 -0.6486
 3727SOL     OW14639   2.602   4.006   4.236 -0.2724 -0.2047 -0.4141
 3727SOL    HW214640   2.600   4.040   4.147  1.9197  0.9406 -0.0923
 3727SOL    HW314641   2.659   3.930   4.232 -0.6674 -0.5243 -0.0843
 3727SOL    MW414642   2.609   4.000   4.224 -0.7261 -0.3664 -0.0893
 3728SOL     OW14643   1.298   2.200   5.568  0.5826  0.2453 -0.6462
 3728SOL    HW214644   1.391   2.211   5.554  0.5297 -1.0546 -2.3024
 3728SOL    HW314645   1.285   2.106   5.575 -0.3307  0.4894  1.9383
 3728SOL    MW414646   1.308   2.189   5.567 -0.5690 -0.1546  0.1001
 3729SOL     OW14647   3.320   6.300   5.107  0.4373  0.4148 -0.2031
 3729SOL    HW214648   3.230   6.278   5.086  0.8742 -2.2774  0.4481
 3729SOL    HW314649   3.313   6.367   5.176 -1.0372  0.3413 -0.2606
 3729SOL    MW414650   3.308   6.306   5.113 -0.1080  0.1924 -0.1023
 3730SOL     OW14651   0.913   3.729   5.181  0.3196 -0.1194  0.3960
 3730SOL    HW214652   0.906   3.824   5.169 -1.8218 -0.4020 -1.1055
 3730SOL    HW314653   1.004   3.709   5.158 -0.0519  1.1961 -2.6896
 3730SOL    MW414654   0.924   3.739   5.176 -0.6020 -0.1402 -0.3514
 3731SOL     OW14655   2.418   3.976   2.732  1.1064  0.4169 -0.6189
 3731SOL    HW214656   2.445   3.892   2.694 -1.2364 -1.3522  1.2997
 3731SOL    HW314657   2.345   4.004   2.677  1.1675  0.6133 -0.5994
 3731SOL    MW414658   2.412   3.969   2.720 -0.2997  0.1547  0.2524
 3732SOL     OW14659   0.232   4.602   2.610  0.3291 -0.1836  0.0698
 3732SOL    HW214660   0.196   4.513   2.604  0.2025 -0.0642 -1.1382
 3732SOL    HW314661   0.155   4.659   2.602  0.7630  0.0965 -3.3097
 3732SOL    MW414662   0.217   4.598   2.608 -0.5647 -0.5239  0.0983
 3733SOL     OW14663   0.317   1.364   5.331 -0.4916  0.8010  0.5852
 3733SOL    HW214664   0.232   1.329   5.356  0.7917 -0.3833  3.7511
 3733SOL    HW314665   0.341   1.423   5.402  2.1686 -0.4608  0.8576
 3733SOL    MW414666   0.309   1.367   5.344 -0.2285  0.1250 -0.5956
 3734SOL     OW14667   4.048   5.788   5.321  0.6314  0.3748  0.3741
 3734SOL    HW214668   4.013   5.712   5.367  1.3780 -0.7508 -0.8347
 3734SOL    HW314669   4.016   5.863   5.371 -1.2117 -0.6743  0.8661
 3734SOL    MW414670   4.039   5.788   5.334 -0.7695 -1.0117 -0.7378
 3735SOL     OW14671   2.562   3.362   4.610  0.2577 -0.4330  0.3642
 3735SOL    HW214672   2.522   3.334   4.692  0.0176 -2.8739 -0.5079
 3735SOL    HW314673   2.518   3.443   4.587 -0.5043 -0.3518  2.0347
 3735SOL    MW414674   2.551   3.369   4.618  0.7221  0.4379 -0.7260
 3736SOL     OW14675   4.395   2.811   0.945 -0.0807 -0.0903 -0.2633
 3736SOL    HW214676   4.473   2.786   0.895  0.3429 -0.3287  0.4974
 3736SOL    HW314677   4.421   2.800   1.037 -0.5635  1.1446  0.0436
 3736SOL    MW414678   4.409   2.807   0.951  0.3922 -0.0687  0.1837
 3737SOL     OW14679   1.140   5.574   3.139  0.1000 -0.7138  0.4456
 3737SOL    HW214680   1.127   5.525   3.058  1.0363 -1.5188  0.7590
 3737SOL    HW314681   1.196   5.517   3.193 -0.0991  0.0163  1.4581
 3737SOL    MW414682   1.146   5.560   3.135  0.0784  0.2914 -0.1374
 3738SOL     OW14683   4.432   6.417   6.301  0.2614  0.2319  0.3781
 3738SOL    HW214684   4.448   6.358   6.375  0.2876  1.1540  1.1349
 3738SOL    HW314685   4.519   6.442   6.271  0.2576  0.4082  0.5065
 3738SOL    MW414686   4.446   6.413   6.307  0.3460 -0.2830 -0.3571
 3739SOL     OW14687   3.722   1.837   6.230 -0.6647 -0.4969  0.1310
 3739SOL    HW214688   3.761   1.750   6.216 -0.9321 -0.4023 -1.3767
 3739SOL    HW314689   3.793   1.889   6.268 -0.2061 -1.1204  0.1451
 3739SOL    MW414690   3.737   1.832   6.233  0.4077  0.0213  0.1325
 3740SOL     OW14691   0.669   2.266   4.007  0.7438 -0.8418  0.1444
 3740SOL    HW214692   0.760   2.240   4.020  0.8211 -0.1536  1.0780
 3740SOL    HW314693   0.621   2.220   4.076  0.6466  0.1704  0.7638
 3740SOL    MW414694   0.675   2.256   4.018 -0.6028  0.2556 -0.0340
 3741SOL     OW14695   4.421   5.012   5.968 -0.2429 -0.0864  0.2748
 3741SOL    HW214696   4.423   4.922   6.000 -0.7023  0.1101  0.8778
 3741SOL    HW314697   4.423   5.004   5.873  2.0747 -0.6759  0.3070
 3741SOL    MW414698   4.422   4.999   5.960 -0.2887  0.1462 -0.0925
 3742SOL     OW14699   5.625   3.833   0.773  0.1611  0.2725 -0.1837
 3742SOL    HW214700   5.680   3.758   0.794 -1.5752 -0.2867  2.9485
 3742SOL    HW314701   5.681   3.909   0.786  0.4123 -0.2919  2.5066
 3742SOL    MW414702   5.639   3.833   0.777 -0.4656 -0.0345 -0.2266
 3743SOL     OW14703   5.531   5.319   0.758 -0.0862  0.2441 -0.1564
 3743SOL    HW214704   5.444   5.291   0.788  0.0119 -0.8432 -0.8499
 3743SOL    HW314705   5.562   5.247   0.703  1.3928  0.4963  0.3179
 3743SOL    MW414706   5.523   5.306   0.755 -0.1274 -0.3387 -0.1347
 3744SOL     OW14707   1.205   1.085   3.709  0.3022  0.0299 -0.6699
 3744SOL    HW214708   1.210   1.111   3.617  0.9816  1.3846 -0.2746
 3744SOL    HW314709   1.236   0.994   3.711  0.0562 -0.0859 -1.7955
 3744SOL    MW414710   1.210   1.076   3.697 -0.1640 -0.4625  0.4125
 3745SOL     OW14711   4.195   0.844   4.880 -0.2750 -0.2790  0.2002
 3745SOL    HW214712   4.138   0.845   4.957  0.8198  0.3866  1.0225
 3745SOL    HW314713   4.141   0.881   4.810 -0.1572  2.6712  1.5162
 3745SOL    MW414714   4.180   0.849   4.881  0.3060 -0.0315  0.1725
 3746SOL     OW14715   0.000   0.375   5.205 -0.5588  0.0459 -0.2800
 3746SOL    HW214716  -0.081   0.365   5.156 -0.3923  0.2612 -0.5959
 3746SOL    HW314717   0.016   0.288   5.244 -0.9914  0.0315 -0.1321
 3746SOL    MW414718  -0.008   0.362   5.204  0.0266 -0.0791  0.5909
 3747SOL     OW14719   3.849   2.734   1.668 -0.0879  0.3123  0.4630
 3747SOL    HW214720   3.857   2.827   1.688  0.7276  0.4691 -0.5223
 3747SOL    HW314721   3.770   2.727   1.616 -0.0707  0.4771  0.4152
 3747SOL    MW414722   3.840   2.745   1.664 -0.2774 -0.5091 -0.5425
 3748SOL     OW14723   2.276   6.330   3.440 -0.0014  0.0933  0.0846
 3748SOL    HW214724   2.207   6.307   3.378 -1.1129  0.1531  1.2563
 3748SOL    HW314725   2.277   6.426   3.440  2.2599  0.1777 -2.2196
 3748SOL    MW414726   2.267   6.340   3.432  0.6191 -0.4841  0.3628
 3749SOL     OW14727   1.452   1.599   3.854 -0.4613  0.1431  0.3221
 3749SOL    HW214728   1.533   1.645   3.831  0.7562 -1.6086  0.9140
 3749SOL    HW314729   1.466   1.568   3.944 -2.5172  1.2930  1.0880
 3749SOL    MW414730   1.465   1.601   3.863  0.0348  0.1615  0.0794
 3750SOL     OW14731   3.038   2.831   5.284 -0.5776 -0.1781 -0.1583
 3750SOL    HW214732   3.003   2.897   5.223 -0.5097 -0.6243 -0.6937
 3750SOL    HW314733   2.983   2.839   5.362 -0.5147  0.5665 -0.1853
 3750SOL    MW414734   3.026   2.841   5.286  0.5228  0.5077  0.3149
 3751SOL     OW14735   5.291   5.585   4.497 -0.0502 -0.0054 -0.1341
 3751SOL    HW214736   5.331   5.562   4.414  1.2326 -0.0419  0.4652
 3751SOL    HW314737   5.350   5.652   4.534 -1.5972  1.4174 -0.0965
 3751SOL    MW414738   5.304   5.591   4.491 -0.4760  0.1932 -0.3046
 3752SOL     OW14739   5.854   2.090   6.140  0.0699  0.0926  0.2595
 3752SOL    HW214740   5.911   2.015   6.124 -0.9215 -0.3407 -1.4018
 3752SOL    HW314741   5.815   2.111   6.055 -0.3395  1.9655  0.8468
 3752SOL    MW414742   5.856   2.083   6.127  0.3335 -0.9104 -0.0967
 3753SOL     OW14743   5.322   3.455   0.112 -0.0384 -0.0174  0.4219
 3753SOL    HW214744   5.241   3.500   0.138 -0.9552 -1.1996 -0.2754
 3753SOL    HW314745   5.387   3.525   0.104 -1.1960  1.0762  0.2126
 3753SOL    MW414746   5.320   3.471   0.114  0.4415  0.1281 -0.9679
 3754SOL     OW14747   4.901   3.871   0.529 -0.0834 -0.2456  0.0038
 3754SOL    HW214748   4.935   3.954   0.495 -1.2953 -0.1428 -1.0525
 3754SOL    HW314749   4.819   3.896   0.571  0.3778 -0.6859  1.1808
 3754SOL    MW414750   4.894   3.885   0.530 -0.3662 -0.4180  0.1260
 3755SOL     OW14751   0.889   3.554   1.669  0.1086 -0.0311  0.2318
 3755SOL    HW214752   0.829   3.563   1.595 -0.4540 -0.4805  0.6229
 3755SOL    HW314753   0.971   3.523   1.630 -1.3328 -4.4318  0.1282
 3755SOL    MW414754   0.892   3.551   1.654  0.3377 -0.2791  0.2776
 3756SOL     OW14755   3.744   4.174   2.368 -0.6218 -0.5095 -0.1938
 3756SOL    HW214756   3.779   4.085   2.367 -0.3613 -0.4275  0.4893
 3756SOL    HW314757   3.769   4.208   2.454 -0.0941  0.4741 -0.7178
 3756SOL    MW414758   3.752   4.167   2.379 -0.8292 -0.2843 -0.0392
 3757SOL     OW14759   3.329   3.340   5.679  0.1903  0.4588  0.1085
 3757SOL    HW214760   3.237   3.362   5.694  0.2563  1.1125 -0.4024
 3757SOL    HW314761   3.327   3.267   5.616  0.0163  0.1863  0.4277
 3757SOL    MW414762   3.317   3.333   5.672  0.4275 -0.4416 -0.0673
 3758SOL     OW14763   1.002   4.748   1.290 -0.8556 -0.2388 -0.1465
 3758SOL    HW214764   0.963   4.832   1.317  1.3967  1.2453 -1.2050
 3758SOL    HW314765   1.066   4.728   1.358  0.1207  0.0397 -0.9645
 3758SOL    MW414766   1.005   4.757   1.303 -0.6683 -0.2595 -0.5444
 3759SOL     OW14767   3.130   1.274   4.731  0.1386  0.5478 -0.1028
 3759SOL    HW214768   3.179   1.353   4.709  0.4542  0.3679 -0.0455
 3759SOL    HW314769   3.130   1.223   4.650  1.1646 -0.0431  0.2571
 3759SOL    MW414770   3.136   1.278   4.717 -0.0847 -0.6002  0.0849
 3760SOL     OW14771   0.324   4.056   0.671 -0.0737 -0.2818  0.1535
 3760SOL    HW214772   0.287   3.983   0.720 -1.2400  0.3378  0.2289
 3760SOL    HW314773   0.349   4.018   0.587 -0.4972 -0.8072  0.2601
 3760SOL    MW414774   0.323   4.041   0.666  0.1972  0.2312  0.7273
 3761SOL     OW14775   0.911   3.626   3.502 -0.4336 -0.0141 -0.2992
 3761SOL    HW214776   0.857   3.561   3.548  0.6906 -0.5496  0.3104
 3761SOL    HW314777   0.997   3.619   3.543  0.4465 -0.0448 -2.0757
 3761SOL    MW414778   0.915   3.617   3.514  0.3691  0.0132  0.5746
 3762SOL     OW14779   5.761   0.890   5.310 -0.4206 -0.2791  0.2550
 3762SOL    HW214780   5.805   0.884   5.395  0.8707  0.8054 -0.3208
 3762SOL    HW314781   5.830   0.912   5.248 -1.7160  1.2021 -0.7259
 3762SOL    MW414782   5.776   0.892   5.313  0.0995 -0.1251 -0.2595
 3763SOL     OW14783   2.811   4.890   3.663  0.2651 -0.0746 -0.0909
 3763SOL    HW214784   2.769   4.922   3.742 -0.4181  2.5055 -1.4040
 3763SOL    HW314785   2.904   4.888   3.684  0.1496  1.1381  0.6106
 3763SOL    MW414786   2.817   4.894   3.676  0.6123  0.9006 -0.1032
 3764SOL     OW14787   5.729   0.007   3.922 -0.4365 -0.3605 -0.0676
 3764SOL    HW214788   5.800   0.017   3.986  0.7139  0.4594 -1.4276
 3764SOL    HW314789   5.768  -0.038   3.848 -1.0490  0.9500 -1.2449
 3764SOL    MW414790   5.743   0.002   3.921 -0.7169 -0.8546  0.8027
 3765SOL     OW14791   4.023   1.941   0.291  0.3409 -0.1802  0.2373
 3765SOL    HW214792   4.084   1.907   0.226  0.6741  0.8684 -0.0122
 3765SOL    HW314793   4.041   2.035   0.294 -0.9258  0.0708  0.5105
 3765SOL    MW414794   4.033   1.949   0.283  0.1440  0.2605 -0.3051
 3766SOL     OW14795   2.413   4.891   4.869  0.0063 -0.4871 -0.2193
 3766SOL    HW214796   2.488   4.907   4.927 -0.1117  1.1888 -0.4898
 3766SOL    HW314797   2.359   4.969   4.878 -0.8137 -0.9009 -1.4005
 3766SOL    MW414798   2.416   4.904   4.878  0.0226  0.3211 -0.3637
 3767SOL     OW14799   3.991   4.046   0.567  0.0595  0.2677 -0.2295
 3767SOL    HW214800   4.040   4.051   0.484 -0.9617  0.0510 -0.8640
 3767SOL    HW314801   4.058   4.053   0.635  1.3440 -2.5718 -1.0230
 3767SOL    MW414802   4.007   4.048   0.565  0.5837 -0.4724  0.9788
 3768SOL     OW14803   0.019   0.772   5.022  0.4184 -0.0095  0.4906
 3768SOL    HW214804   0.001   0.844   5.083  0.8250 -0.8269  1.6075
 3768SOL    HW314805   0.068   0.708   5.074  2.6283  0.1644 -1.2675
 3768SOL    MW414806   0.023   0.773   5.037  0.4031  0.3580  0.1230
 3769SOL     OW14807   2.930   2.274   4.487  0.7266  0.1938 -0.5567
 3769SOL    HW214808   3.018   2.235   4.478  1.7843  2.0557  0.9427
 3769SOL    HW314809   2.899   2.284   4.397  3.0503  1.5486 -1.3175
 3769SOL    MW414810   2.938   2.270   4.474  0.2081 -0.3296  0.7481
 3770SOL     OW14811   5.823   3.990   2.448 -0.7515 -0.4442  0.6708
 3770SOL    HW214812   5.867   3.928   2.389 -1.1716 -0.0182 -0.1041
 3770SOL    HW314813   5.812   3.941   2.530 -0.4617 -1.1626  0.2897
 3770SOL    MW414814   5.827   3.975   2.451 -0.6333  0.3424  0.4711
 3771SOL     OW14815   0.800   5.798   0.127  0.1179  0.2491  0.1439
 3771SOL    HW214816   0.874   5.837   0.080 -1.6426  1.3880 -1.8235
 3771SOL    HW314817   0.762   5.870   0.176  0.3592 -0.3705  1.2750
 3771SOL    MW414818   0.805   5.813   0.127  0.0028 -0.7876 -0.7149
 3772SOL     OW14819   1.860   6.426   2.874 -0.0313  0.1670  0.3284
 3772SOL    HW214820   1.809   6.433   2.955  0.7436 -1.7070  1.0404
 3772SOL    HW314821   1.811   6.363   2.821 -0.2861  1.0312 -0.4788
 3772SOL    MW414822   1.847   6.419   2.878 -0.7357 -0.5487  1.0653
 3773SOL     OW14823   5.177   4.157   5.865  0.2314 -0.0249 -0.2764
 3773SOL    HW214824   5.243   4.216   5.831 -0.3031 -0.3390 -1.9370
 3773SOL    HW314825   5.225   4.093   5.917  0.7706  2.1500  2.0892
 3773SOL    MW414826   5.192   4.156   5.867  0.2960  0.5774 -0.2189
 3774SOL     OW14827   1.244   4.513   0.378 -0.3229 -0.0131  0.3216
 3774SOL    HW214828   1.177   4.445   0.383  0.0685 -0.4171  0.0615
 3774SOL    HW314829   1.292   4.495   0.297  0.9315 -0.4990  1.1438
 3774SOL    MW414830   1.241   4.502   0.368 -0.0622 -0.1924 -0.1472
 3775SOL     OW14831   4.762   3.020   0.646 -0.0670 -0.2848  0.2726
 3775SOL    HW214832   4.842   3.024   0.698 -0.2179  0.2196  0.4710
 3775SOL    HW314833   4.698   3.071   0.696 -0.1714  0.3373 -0.4665
 3775SOL    MW414834   4.764   3.027   0.659  0.2939  0.4503 -0.2189
 3776SOL     OW14835   5.609   6.382   1.101 -0.3098 -0.4176 -0.3121
 3776SOL    HW214836   5.580   6.363   1.011 -0.9625  0.6651 -0.3439
 3776SOL    HW314837   5.591   6.475   1.113  0.8168 -0.2928  0.5690
 3776SOL    MW414838   5.603   6.392   1.090 -0.1568  0.0873  0.0833
 3777SOL     OW14839   5.328   0.051   3.028 -0.4870 -0.3493  0.2843
 3777SOL    HW214840   5.284   0.116   2.974  1.3710  0.7203 -0.0288
 3777SOL    HW314841   5.266  -0.022   3.033 -0.6233 -0.6924 -3.5983
 3777SOL    MW414842   5.314   0.050   3.022 -0.2892 -0.3946  0.1493
 3778SOL     OW14843   2.942   1.398   6.141  0.1217 -0.1293 -0.4539
 3778SOL    HW214844   3.010   1.336   6.113  0.4699  0.2135 -0.3809
 3778SOL    HW314845   2.889   1.413   6.063  0.9978  0.7103 -0.9112
 3778SOL    MW414846   2.944   1.392   6.127 -0.2828 -0.2842  0.0925
 3779SOL     OW14847   2.777   0.187   4.344  0.0211  0.0881  0.0264
 3779SOL    HW214848   2.771   0.201   4.439 -1.1716  1.6895 -0.2579
 3779SOL    HW314849   2.808   0.270   4.309 -0.7119 -0.0892 -1.1071
 3779SOL    MW414850   2.781   0.199   4.352 -0.2341 -0.0391 -0.3380
 3780SOL     OW14851   2.196   3.203   4.893  0.3685 -0.5023  0.4858
 3780SOL    HW214852   2.168   3.291   4.867  0.6843 -0.7069 -0.6065
 3780SOL    HW314853   2.186   3.201   4.988  0.0810  0.6155  0.4857
 3780SOL    MW414854   2.191   3.214   4.902 -0.0971  0.3317 -0.1511
 3781SOL     OW14855   0.440   3.038   0.387 -0.2350  0.3964 -0.0963
 3781SOL    HW214856   0.446   2.954   0.341  3.7777 -0.4366  1.5781
 3781SOL    HW314857   0.402   3.017   0.472 -1.4749  0.7711 -0.5354
 3781SOL    MW414858   0.436   3.024   0.392 -0.3617 -0.1332  0.1565
 3782SOL     OW14859   4.115   1.153   4.213 -0.1824 -0.2986  0.1770
 3782SOL    HW214860   4.069   1.122   4.290 -0.3758  0.5711  0.4187
 3782SOL    HW314861   4.049   1.201   4.163  0.2584  0.2752  0.1354
 3782SOL    MW414862   4.101   1.155   4.216  0.4625  0.0168 -0.5969
 3783SOL     OW14863   6.284   1.029   5.830 -0.3088  0.1514 -0.0120
 3783SOL    HW214864   6.280   0.971   5.906 -0.7154 -0.1663 -0.2686
 3783SOL    HW314865   6.266   0.971   5.755 -0.0624  0.4858 -0.3335
 3783SOL    MW414866   6.281   1.014   5.830 -0.1457 -0.0597 -0.0208
 3784SOL     OW14867   0.142   0.326   5.571 -0.0183 -0.2306  0.1727
 3784SOL    HW214868   0.226   0.331   5.525 -0.6641 -0.7357 -1.0792
 3784SOL    HW314869   0.087   0.392   5.528 -0.5331 -0.4863  0.4295
 3784SOL    MW414870   0.146   0.336   5.559  0.0404  0.6073 -0.6346
 3785SOL     OW14871   2.768   4.593   2.468 -0.1085 -0.0347  0.0056
 3785SOL    HW214872   2.861   4.583   2.490  0.7828  4.1373 -1.0301
 3785SOL    HW314873   2.762   4.569   2.376  0.9861  3.3776 -1.1152
 3785SOL    MW414874   2.780   4.589   2.459 -0.4002 -0.4566 -0.1280
 3786SOL     OW14875   0.182   1.265   3.970 -0.6062  0.4380 -0.0407
 3786SOL    HW214876   0.242   1.207   4.017  1.1255  0.9320 -1.5134
 3786SOL    HW314877   0.100   1.216   3.966  0.0395 -0.7994  0.9820
 3786SOL    MW414878   0.179   1.251   3.975  0.2025  0.1594  0.1055
 3787SOL     OW14879   5.937   3.113   5.153 -0.6286  0.0250 -0.2188
 3787SOL    HW214880   6.032   3.107   5.154 -0.5116  1.1761 -1.3909
 3787SOL    HW314881   5.917   3.198   5.192 -1.1883 -0.2245  0.0630
 3787SOL    MW414882   5.947   3.123   5.158 -0.1901  0.0535  0.5984
 3788SOL     OW14883   3.981   4.318   5.427  0.1843  0.3324 -0.0968
 3788SOL    HW214884   4.028   4.257   5.485 -1.3916 -1.3486 -0.4819
 3788SOL    HW314885   3.927   4.370   5.486 -1.6814 -1.6117  0.0336
 3788SOL    MW414886   3.980   4.317   5.442 -0.5351  0.0612  0.0345
 3789SOL     OW14887   1.616   6.251   1.659  0.1308 -0.7006  0.6329
 3789SOL    HW214888   1.658   6.277   1.576 -0.3200 -1.7019  0.0707
 3789SOL    HW314889   1.642   6.319   1.721 -1.3104  1.3624 -0.8372
 3789SOL    MW414890   1.625   6.264   1.656  0.6055  0.3297 -0.0795
 3790SOL     OW14891   2.674   2.941   6.261 -0.0069 -0.1838 -0.0167
 3790SOL    HW214892   2.730   2.913   6.333 -0.4664 -0.1446  0.3607
 3790SOL    HW314893   2.719   3.018   6.225 -1.7589  2.4057  2.8570
 3790SOL    MW414894   2.687   2.948   6.266  0.2088  0.0778 -0.3171
 3791SOL     OW14895   1.863   3.263   6.178 -0.2211  0.2514 -0.9299
 3791SOL    HW214896   1.812   3.182   6.187 -0.7370  0.5892 -0.7837
 3791SOL    HW314897   1.949   3.241   6.214  0.2009 -0.7399 -2.4858
 3791SOL    MW414898   1.868   3.249   6.184  0.1243  0.5475  0.1573
 3792SOL     OW14899   4.132   5.065   5.730 -0.0047 -0.0250 -0.7913
 3792SOL    HW214900   4.064   5.089   5.793  1.2925  0.3702  0.5131
 3792SOL    HW314901   4.130   4.969   5.727  1.3730 -0.1998  1.6073
 3792SOL    MW414902   4.123   5.055   5.738 -0.0548 -0.0872  0.3521
 3793SOL     OW14903   0.072   0.718   0.280  0.2952 -0.5035 -0.3462
 3793SOL    HW214904  -0.004   0.661   0.269 -0.4524  0.1897  1.0300
 3793SOL    HW314905   0.078   0.765   0.196 -0.5888 -0.8033 -0.5898
 3793SOL    MW414906   0.063   0.717   0.267 -0.0078 -0.2949 -0.4497
 3794SOL     OW14907   1.707   4.045   5.080 -0.4709  0.1764 -0.5959
 3794SOL    HW214908   1.790   4.015   5.044 -1.1286  0.6305 -2.6301
 3794SOL    HW314909   1.657   3.965   5.097  0.2183 -0.0798  0.2836
 3794SOL    MW414910   1.711   4.030   5.078 -0.1329 -0.2030  0.4220
 3795SOL     OW14911   1.590   0.560   4.397 -0.1826 -0.5802  0.1249
 3795SOL    HW214912   1.650   0.620   4.440  0.9764 -1.1091 -0.6909
 3795SOL    HW314913   1.597   0.479   4.447  0.7644 -1.0306 -0.6993
 3795SOL    MW414914   1.599   0.557   4.409 -0.3690  0.2846 -0.0816
 3796SOL     OW14915   0.890   4.176   5.598 -0.1879  0.0974 -0.1724
 3796SOL    HW214916   0.970   4.125   5.583 -0.9606 -1.5695  1.0233
 3796SOL    HW314917   0.922   4.264   5.617  1.5051 -0.7870  1.5278
 3796SOL    MW414918   0.905   4.181   5.598  0.4631 -0.3487 -0.2350
 3797SOL     OW14919   6.033   5.660   1.440  0.3485 -0.0387  0.1245
 3797SOL    HW214920   5.973   5.712   1.493 -0.3342 -0.8632  0.1736
 3797SOL    HW314921   6.062   5.590   1.497 -2.3747 -2.4649 -1.2407
 3797SOL    MW414922   6.029   5.658   1.454 -0.2766  0.4602 -0.2879
 3798SOL     OW14923   6.139   4.751   1.656 -0.1724 -0.0826  0.0527
 3798SOL    HW214924   6.086   4.772   1.579  0.1654  0.7838  0.0472
 3798SOL    HW314925   6.141   4.655   1.659  1.3359 -0.1847 -2.0920
 3798SOL    MW414926   6.132   4.741   1.646  0.5604 -0.0002  0.2278
 3799SOL     OW14927   4.601   5.852   1.480  0.1014 -0.0241  0.1305
 3799SOL    HW214928   4.556   5.916   1.535 -1.2468  0.3457 -1.3602
 3799SOL    HW314929   4.655   5.801   1.542 -1.3233  0.3987  1.7807
 3799SOL    MW414930   4.602   5.854   1.496 -0.0783 -0.0059  0.5501
 3800SOL     OW14931   4.934   2.055   3.707 -0.6029  0.0201 -0.2597
 3800SOL    HW214932   4.857   1.999   3.693  0.1296 -0.6663 -1.7693
 3800SOL    HW314933   4.991   2.002   3.764 -1.0060  0.3303  0.4555
 3800SOL    MW414934   4.931   2.040   3.713 -0.2513  0.1478  0.4797
 3801SOL     OW14935   3.235   4.121   5.021  0.2238  0.5490 -0.4492
 3801SOL    HW214936   3.285   4.131   4.939 -0.7349 -0.2299 -1.1561
 3801SOL    HW314937   3.153   4.080   4.994 -0.2628  0.6070  0.8708
 3801SOL    MW414938   3.231   4.117   5.006  0.3236  0.3144  0.3171
 3802SOL     OW14939   3.467   0.683   3.694  0.1479 -0.2550  0.1430
 3802SOL    HW214940   3.418   0.621   3.748  0.4223  0.2063  0.9446
 3802SOL    HW314941   3.559   0.659   3.707  0.1595 -1.9094 -2.3141
 3802SOL    MW414942   3.473   0.672   3.703  0.1685 -0.3118 -0.3656
 3803SOL     OW14943   5.475   5.509   4.305 -0.2811  0.1614 -0.1703
 3803SOL    HW214944   5.477   5.579   4.240  0.0261  0.8677  0.5881
 3803SOL    HW314945   5.451   5.431   4.255  3.7521 -0.1735 -1.9310
 3803SOL    MW414946   5.472   5.508   4.290 -0.1487  0.4061  0.3208
 3804SOL     OW14947   2.221   0.064   5.996  0.0103  0.0775 -0.1043
 3804SOL    HW214948   2.257   0.144   6.035 -1.2317  0.6863 -0.1651
 3804SOL    HW314949   2.239  -0.004   6.061  2.4609  0.0375 -0.7010
 3804SOL    MW414950   2.228   0.066   6.010  0.9509  0.1399  0.3824
 3805SOL     OW14951   5.604   4.845   3.685  0.2064  0.3372  0.1239
 3805SOL    HW214952   5.640   4.757   3.671  1.2288  0.3051  2.5413
 3805SOL    HW314953   5.561   4.866   3.602  1.0211 -1.9145 -0.9640
 3805SOL    MW414954   5.603   4.836   3.672 -0.2267 -0.3880 -0.0496
 3806SOL     OW14955   1.531   4.719   5.262  0.2188  0.0084 -0.0251
 3806SOL    HW214956   1.594   4.677   5.203 -0.0369  1.0740 -1.1054
 3806SOL    HW314957   1.455   4.738   5.206 -1.3295 -1.7368  1.3483
 3806SOL    MW414958   1.529   4.716   5.247  0.2281 -0.3834  0.9979
 3807SOL     OW14959   2.578   3.992   4.892  0.1046 -0.4736 -0.1257
 3807SOL    HW214960   2.630   4.073   4.894 -0.0493 -0.3490 -0.8766
 3807SOL    HW314961   2.642   3.922   4.899  0.4563 -0.3388 -1.7008
 3807SOL    MW414962   2.593   3.994   4.893  0.3638 -0.2806 -0.0931
 3808SOL     OW14963   6.225   3.042   1.890  0.2250  0.1868 -0.1045
 3808SOL    HW214964   6.156   3.023   1.826 -2.7331  1.5886  2.4134
 3808SOL    HW314965   6.290   3.093   1.842  0.1286 -2.0342 -2.8368
 3808SOL    MW414966   6.225   3.046   1.875 -0.4745  0.1605  0.1326
 3809SOL     OW14967   4.689   4.190   3.339 -0.1549 -0.1358 -0.1109
 3809SOL    HW214968   4.753   4.201   3.269 -1.2405  1.1878 -0.9582
 3809SOL    HW314969   4.610   4.233   3.306 -1.5894 -1.9594  0.7642
 3809SOL    MW414970   4.687   4.197   3.325  0.1898 -0.1927  0.1109
 3810SOL     OW14971   4.159   0.502   1.868  0.1088  0.3679  0.2103
 3810SOL    HW214972   4.163   0.587   1.913  1.6975 -0.3125  1.4489
 3810SOL    HW314973   4.066   0.492   1.844 -0.3338  1.8887  1.1288
 3810SOL    MW414974   4.147   0.512   1.871  0.3167 -0.0042 -0.4521
 3811SOL     OW14975   6.355   2.314   1.750 -0.0889 -0.0340  0.3602
 3811SOL    HW214976   6.303   2.382   1.793 -2.2402 -1.0285 -0.5272
 3811SOL    HW314977   6.366   2.246   1.817  0.9052  0.5570  0.8262
 3811SOL    MW414978   6.349   2.314   1.765  1.2383 -0.1047  0.5147
 3812SOL     OW14979   4.794   5.374   2.193 -0.2907  0.2909 -0.0099
 3812SOL    HW214980   4.755   5.433   2.128 -0.2503  0.9570  0.5545
 3812SOL    HW314981   4.888   5.374   2.171 -0.5917 -1.6678 -1.6501
 3812SOL    MW414982   4.801   5.382   2.181 -0.8529 -0.1017 -0.6832
 3813SOL     OW14983   0.277   3.109   1.797  0.2460 -0.5559  0.0676
 3813SOL    HW214984   0.228   3.055   1.859  0.4155 -0.8327 -0.0396
 3813SOL    HW314985   0.340   3.157   1.851 -1.0848  0.8909  0.4025
 3813SOL    MW414986   0.279   3.108   1.812  0.7297 -0.3835 -0.0447
 3814SOL     OW14987   2.712   4.538   4.939  0.4966  0.2665 -0.2574
 3814SOL    HW214988   2.665   4.601   4.884  0.7893  1.2253  0.5768
 3814SOL    HW314989   2.734   4.586   5.018  2.2733 -0.3627 -0.3199
 3814SOL    MW414990   2.708   4.553   4.942  0.4734 -0.4412  0.4394
 3815SOL     OW14991   4.249   3.042   6.397  0.1848  0.2655 -0.3443
 3815SOL    HW214992   4.165   3.052   6.353 -0.9071 -1.3092  1.2254
 3815SOL    HW314993   4.307   3.006   6.330 -1.0300 -0.7651 -0.8870
 3815SOL    MW414994   4.245   3.039   6.382 -0.3415  0.7829 -0.1526
 3816SOL     OW14995   0.150   0.208   1.789  0.0853 -0.1773 -0.0755
 3816SOL    HW214996   0.238   0.238   1.767  0.0703  0.7475  1.0489
 3816SOL    HW314997   0.158   0.113   1.794  1.0738 -0.0899  0.2351
 3816SOL    MW414998   0.163   0.199   1.787 -0.1608 -0.1982 -0.3576
 3817SOL     OW14999   5.906   6.300   4.572 -0.4142 -0.0257  0.4489
 3817SOL    HW215000   5.858   6.218   4.569  2.7520 -1.9819 -0.7674
 3817SOL    HW315001   5.962   6.292   4.649  1.6892 -0.1580 -1.0223
 3817SOL    MW415002   5.907   6.288   4.582 -0.5732  0.2542  0.0271
 3818SOL     OW15003   0.314   3.346   4.205 -0.2127 -0.4893  0.3449
 3818SOL    HW215004   0.279   3.303   4.127  0.2997 -0.7143  0.2364
 3818SOL    HW315005   0.262   3.310   4.277 -1.2461  0.3331  0.0321
 3818SOL    MW415006   0.303   3.336   4.204  0.1329  0.0520  0.5318
 3819SOL     OW15007   5.625   0.274   4.180 -0.2671 -0.2663 -0.6529
 3819SOL    HW215008   5.578   0.240   4.104 -1.7716  0.0943  0.1005
 3819SOL    HW315009   5.673   0.350   4.146 -0.7566 -0.2330 -1.2841
 3819SOL    MW415010   5.625   0.280   4.165  0.6479  0.0735  0.0066
 3820SOL     OW15011   0.439   4.563   6.321  0.2854 -0.8258  0.2489
 3820SOL    HW215012   0.534   4.575   6.330  0.3197 -1.5197  0.8518
 3820SOL    HW315013   0.429   4.504   6.247  0.2050  1.0433 -1.3178
 3820SOL    MW415014   0.451   4.557   6.313  0.0418 -0.4050 -1.1070
 3821SOL     OW15015   3.756   1.848   0.295 -0.2339  0.1291  0.1834
 3821SOL    HW215016   3.745   1.754   0.307  0.0534 -0.1681 -1.6569
 3821SOL    HW315017   3.843   1.867   0.329 -0.4710 -0.1730  0.9797
 3821SOL    MW415018   3.766   1.838   0.301 -0.0570 -0.1881 -0.4477
 3822SOL     OW15019   5.405   2.833   6.199  0.1941 -0.3985 -1.1294
 3822SOL    HW215020   5.475   2.849   6.262 -0.0522  1.0109 -1.1834
 3822SOL    HW315021   5.449   2.834   6.114  0.3665 -1.2980 -1.0648
 3822SOL    MW415022   5.420   2.835   6.196 -0.0426 -0.4528  0.5988
 3823SOL     OW15023   5.491   3.508   0.521 -0.2633 -0.5209  0.3358
 3823SOL    HW215024   5.409   3.554   0.505 -0.3619 -0.9377 -0.4088
 3823SOL    HW315025   5.509   3.522   0.614 -0.6398  0.4427  0.2710
 3823SOL    MW415026   5.483   3.516   0.531  0.3085 -0.0917 -0.2737
 3824SOL     OW15027   4.995   2.483   2.161 -0.6642  0.8403 -0.4621
 3824SOL    HW215028   4.970   2.399   2.199  1.7015  1.1436  2.1304
 3824SOL    HW315029   5.025   2.461   2.073 -0.4264 -0.9966  0.0278
 3824SOL    MW415030   4.996   2.469   2.154 -0.4790 -0.2046 -0.1516
 3825SOL     OW15031   0.419   5.702   4.387  0.5433  0.4768 -0.1886
 3825SOL    HW215032   0.371   5.634   4.340  0.7484 -0.8008  1.3401
 3825SOL    HW315033   0.357   5.775   4.393 -0.5326 -0.4266  0.0851
 3825SOL    MW415034   0.405   5.703   4.382 -0.0241 -0.7564  0.3034
 3826SOL     OW15035   2.137   4.068   4.477 -0.7524  0.2120  0.1971
 3826SOL    HW215036   2.156   3.979   4.448 -1.8776 -0.3026  0.9826
 3826SOL    HW315037   2.213   4.119   4.449 -0.4514 -0.8322 -0.9651
 3826SOL    MW415038   2.150   4.063   4.470 -0.2622 -0.0424 -0.6290
 3827SOL     OW15039   2.586   6.296   5.272  0.5712  0.3850  0.5813
 3827SOL    HW215040   2.597   6.352   5.196  1.6754  1.0953  1.2385
 3827SOL    HW315041   2.664   6.240   5.274  0.0715 -0.3293  0.6298
 3827SOL    MW415042   2.597   6.296   5.262 -0.3219 -0.0630  0.7316
 3828SOL     OW15043   1.848   3.531   2.672 -0.4412 -0.0742 -0.4173
 3828SOL    HW215044   1.872   3.543   2.764  0.5368  0.3590 -0.7149
 3828SOL    HW315045   1.836   3.436   2.662  1.0954 -0.3057 -0.2190
 3828SOL    MW415046   1.849   3.520   2.682 -0.0446  0.0330 -0.1300
 3829SOL     OW15047   1.365   6.019   5.059 -0.2264  0.2201 -0.4313
 3829SOL    HW215048   1.285   6.065   5.086 -1.2036 -0.7477 -1.5483
 3829SOL    HW315049   1.342   5.979   4.975  0.1991 -3.0936  0.8950
 3829SOL    MW415050   1.351   6.020   5.052  0.2560 -0.2019 -0.3171
 3830SOL     OW15051   3.388   5.656   1.663  0.2318  0.2355  0.0408
 3830SOL    HW215052   3.479   5.633   1.641  0.7248  2.2059 -0.1536
 3830SOL    HW315053   3.343   5.656   1.579  0.3717  0.5232 -0.0372
 3830SOL    MW415054   3.394   5.653   1.649  0.0725  0.6100  0.1521
 3831SOL     OW15055   2.323   1.751   4.712 -0.4516 -0.5029  0.4749
 3831SOL    HW215056   2.411   1.745   4.676 -1.1452  4.0499 -2.8166
 3831SOL    HW315057   2.333   1.805   4.791 -0.1666 -1.8065  1.3726
 3831SOL    MW415058   2.336   1.757   4.718 -0.2452 -0.4806  0.5260
 3832SOL     OW15059   2.000   5.093   4.483 -0.1693  0.4323 -0.1953
 3832SOL    HW215060   2.086   5.125   4.510  0.2498  0.5467 -1.6155
 3832SOL    HW315061   2.008   4.997   4.488 -0.0205  0.4452 -0.1870
 3832SOL    MW415062   2.012   5.084   4.488  0.0746  0.1611  0.5288
 3833SOL     OW15063   3.651   3.485   6.163 -0.0578  0.3934 -0.4696
 3833SOL    HW215064   3.635   3.415   6.226 -1.1716 -0.8054 -2.0204
 3833SOL    HW315065   3.654   3.564   6.217  1.2715 -0.7998  1.3335
 3833SOL    MW415066   3.649   3.486   6.179  0.0003  0.0071  0.2912
 3834SOL     OW15067   5.123   1.945   3.904  0.0882 -0.0739  0.4140
 3834SOL    HW215068   5.064   1.881   3.942 -3.5224  1.5465 -1.9255
 3834SOL    HW315069   5.181   1.893   3.848  0.3604 -1.6341  2.0410
 3834SOL    MW415070   5.123   1.930   3.901 -0.3985  0.5699 -0.1243
 3835SOL     OW15071   2.172   1.726   6.169  0.3586 -0.5452 -0.2208
 3835SOL    HW215072   2.107   1.775   6.120 -0.2972 -3.2296 -2.2418
 3835SOL    HW315073   2.257   1.754   6.134  0.0920  0.2178 -0.2543
 3835SOL    MW415074   2.175   1.736   6.158 -0.9234  0.2552  0.0911
 3836SOL     OW15075   2.515   2.441   5.833 -0.1642 -0.6598 -0.3814
 3836SOL    HW215076   2.449   2.435   5.764 -0.2019 -0.7214 -0.3402
 3836SOL    HW315077   2.590   2.392   5.798  0.3934  0.6338 -1.0399
 3836SOL    MW415078   2.516   2.433   5.819  0.4235 -0.0971 -0.5531
 3837SOL     OW15079   4.843   1.414   1.796  0.1691  0.2494  0.0142
 3837SOL    HW215080   4.769   1.459   1.755 -0.4007  1.0495  1.8171
 3837SOL    HW315081   4.809   1.382   1.879  1.3996 -0.9132  0.1064
 3837SOL    MW415082   4.829   1.416   1.802 -1.1948  0.3233 -0.5113
 3838SOL     OW15083   4.291   3.395   2.694  0.2859 -0.3349  0.2867
 3838SOL    HW215084   4.384   3.415   2.689  0.6431 -1.6932  0.9117
 3838SOL    HW315085   4.288   3.300   2.704 -1.0724 -0.1506  2.1413
 3838SOL    MW415086   4.303   3.385   2.695  0.0476 -0.0007  0.0058
 3839SOL     OW15087   1.694   3.605   5.273  0.5369 -0.7291 -0.2218
 3839SOL    HW215088   1.615   3.556   5.294  0.1296  0.1338  0.3058
 3839SOL    HW315089   1.663   3.684   5.230  1.1421 -0.5731 -0.3874
 3839SOL    MW415090   1.679   3.609   5.270 -0.0366  1.0744 -0.2898
 3840SOL     OW15091   4.602   3.188   0.810  0.6464 -0.0451 -0.7323
 3840SOL    HW215092   4.538   3.225   0.750  0.6685 -2.9434 -2.7470
 3840SOL    HW315093   4.550   3.149   0.880  0.5663  2.2098  0.5630
 3840SOL    MW415094   4.587   3.188   0.811 -0.2743  0.1420  0.0893
 3841SOL     OW15095   0.997   5.445   4.384 -0.6076 -0.0676  0.3167
 3841SOL    HW215096   1.081   5.474   4.420  0.0031 -1.2656 -0.0789
 3841SOL    HW315097   0.931   5.485   4.440  0.2080  1.3485  0.2993
 3841SOL    MW415098   0.999   5.454   4.396 -0.2979  0.0158 -0.3931
 3842SOL     OW15099   1.183   5.393   4.925 -0.5028 -0.4921  0.1461
 3842SOL    HW215100   1.168   5.298   4.925  0.0157 -0.5773  0.9599
 3842SOL    HW315101   1.238   5.409   4.848  1.3116 -1.1668  1.2591
 3842SOL    MW415102   1.188   5.383   4.915  0.2963  0.9212  0.3742
 3843SOL     OW15103   5.326   1.047   2.807  0.1147 -0.6430  0.3002
 3843SOL    HW215104   5.248   1.096   2.785  0.0384 -0.6738  0.4950
 3843SOL    HW315105   5.302   0.955   2.795  0.1557 -0.6476  0.2514
 3843SOL    MW415106   5.313   1.041   2.803 -0.1047  0.0837  0.5484
 3844SOL     OW15107   6.393   1.305   3.707 -0.0411 -0.0156  0.7393
 3844SOL    HW215108   6.402   1.263   3.793  0.6005 -0.3609  0.5106
 3844SOL    HW315109   6.303   1.337   3.706 -0.5548 -1.3738  0.9416
 3844SOL    MW415110   6.382   1.303   3.718 -0.2153 -0.0593  0.0255
 3845SOL     OW15111   5.113   1.628   0.213  0.2826 -0.2801 -0.0342
 3845SOL    HW215112   5.083   1.541   0.240  0.2433 -0.4932 -0.7436
 3845SOL    HW315113   5.192   1.611   0.161  0.2821  0.1085 -0.1652
 3845SOL    MW415114   5.119   1.614   0.210 -0.0687 -0.0373 -0.3171
 3846SOL     OW15115   0.458   2.913   6.129 -0.0724 -0.5156  0.4562
 3846SOL    HW215116   0.546   2.933   6.160  0.3771 -0.3354 -0.8938
 3846SOL    HW315117   0.471   2.845   6.063 -0.9022 -0.0838 -0.1574
 3846SOL    MW415118   0.471   2.907   6.125  0.4178  0.0823 -0.3745
 3847SOL     OW15119   3.988   5.129   3.874  0.0600  0.1836  0.0761
 3847SOL    HW215120   3.989   5.044   3.829 -0.4236  0.0587  0.2934
 3847SOL    HW315121   3.913   5.175   3.836 -1.7292 -0.7526  2.2066
 3847SOL    MW415122   3.978   5.124   3.863 -0.6322  0.1707 -0.1008
 3848SOL     OW15123   1.842   5.024   5.439  0.4128  0.1138  0.8994
 3848SOL    HW215124   1.838   4.981   5.354  0.0445  0.0560  0.9453
 3848SOL    HW315125   1.927   4.999   5.474  0.7733  0.5369  0.3406
 3848SOL    MW415126   1.853   5.015   5.432 -0.1287 -0.2193 -0.5223
 3849SOL     OW15127   1.633   0.568   3.768  0.0930  0.6976 -0.1282
 3849SOL    HW215128   1.660   0.653   3.800  0.7426  0.8101 -0.9547
 3849SOL    HW315129   1.566   0.587   3.702  1.6435  0.7285 -1.7909
 3849SOL    MW415130   1.628   0.581   3.763 -0.9003 -0.2631  0.3962
 3850SOL     OW15131   3.903   5.068   2.188  0.2736  0.1631 -0.2802
 3850SOL    HW215132   3.962   5.000   2.221  0.2163  0.6498  0.8763
 3850SOL    HW315133   3.960   5.135   2.151  0.5030  0.8015  1.1577
 3850SOL    MW415134   3.918   5.068   2.188  0.2386 -0.2537  0.0441
 3851SOL     OW15135   2.697   6.061   3.319 -0.0900 -0.4208 -0.1525
 3851SOL    HW215136   2.668   6.152   3.327 -0.5139 -0.4699 -0.9572
 3851SOL    HW315137   2.616   6.011   3.315  0.1343 -0.7741 -0.2934
 3851SOL    MW415138   2.682   6.067   3.319  0.1801 -0.0419 -0.3843
 3852SOL     OW15139   1.115   0.744   2.075  0.0350  0.1264 -0.1954
 3852SOL    HW215140   1.187   0.799   2.045 -0.5548  0.7989 -0.4364
 3852SOL    HW315141   1.047   0.807   2.100 -0.7425 -0.4968 -0.6977
 3852SOL    MW415142   1.115   0.760   2.074  0.0510 -0.1127  0.7438
 3853SOL     OW15143   4.781   6.013   5.176 -0.1895  0.0261  0.2960
 3853SOL    HW215144   4.763   6.049   5.089  2.0441  0.8829  0.1196
 3853SOL    HW315145   4.857   6.062   5.207  2.1860 -3.5047  0.6626
 3853SOL    MW415146   4.789   6.024   5.169 -0.0346  0.1190 -0.0800
 3854SOL     OW15147   3.088   5.390   4.638 -0.1606  0.0086  0.3430
 3854SOL    HW215148   3.142   5.315   4.663  0.4692  0.4898  0.4332
 3854SOL    HW315149   3.100   5.454   4.708  0.8792  0.9896 -0.6928
 3854SOL    MW415150   3.096   5.388   4.651  0.0312 -0.0023  0.5074
 3855SOL     OW15151   5.033   6.410   3.777  0.6893  0.4741  1.0591
 3855SOL    HW215152   5.007   6.431   3.867  0.9753  0.8109  1.0652
 3855SOL    HW315153   5.126   6.431   3.773  1.2250 -1.6591  1.3060
 3855SOL    MW415154   5.042   6.416   3.788  0.4145 -0.1190  0.5585
 3856SOL     OW15155   0.205   0.880   2.857  0.6781  0.0010 -0.0447
 3856SOL    HW215156   0.124   0.831   2.869  0.0752  1.0636  0.3052
 3856SOL    HW315157   0.274   0.814   2.866 -0.1509 -1.8494 -4.4708
 3856SOL    MW415158   0.204   0.864   2.860 -0.2819  0.0524 -0.0850
 3857SOL     OW15159   2.104   0.325   4.503  0.1472  0.5713  0.3280
 3857SOL    HW215160   2.142   0.237   4.504 -0.5039  0.2868  1.2109
 3857SOL    HW315161   2.164   0.378   4.556 -0.0688  0.3857  0.7633
 3857SOL    MW415162   2.117   0.320   4.510 -0.2983  0.0944  0.5709
 3858SOL     OW15163   0.074   1.855   3.660  0.3663  0.1679 -0.0749
 3858SOL    HW215164   0.134   1.839   3.587 -1.2352  2.2691 -2.0038
 3858SOL    HW315165   0.082   1.949   3.678  0.1050 -0.1512  1.9547
 3858SOL    MW415166   0.083   1.865   3.653 -0.1385 -0.0343 -0.2475
 3859SOL     OW15167   1.401   3.405   6.220  0.3342 -0.5011  0.4285
 3859SOL    HW215168   1.476   3.401   6.160 -0.6289  1.5861 -1.0470
 3859SOL    HW315169   1.376   3.498   6.221 -2.2654 -1.1261  0.8017
 3859SOL    MW415170   1.408   3.417   6.212 -0.6614  0.2882  0.2329
 3860SOL     OW15171   5.261   0.522   0.265  0.1144  0.2497 -0.5416
 3860SOL    HW215172   5.287   0.512   0.173 -0.7775  0.8802 -0.8712
 3860SOL    HW315173   5.236   0.434   0.293  1.5686 -0.1926 -0.5102
 3860SOL    MW415174   5.261   0.509   0.257  0.6456  0.3472  0.2847
 3861SOL     OW15175   0.223   4.592   5.567 -0.4698 -0.2281  0.5859
 3861SOL    HW215176   0.262   4.570   5.652  0.7814  0.4386  0.2073
 3861SOL    HW315177   0.272   4.669   5.537 -0.0127 -1.1969 -1.3171
 3861SOL    MW415178   0.235   4.599   5.574 -0.4178 -0.0212 -0.3267
 3862SOL     OW15179   1.489   4.043   2.286  0.2820 -0.2373 -0.3418
 3862SOL    HW215180   1.575   4.025   2.323  1.7338  2.4529 -2.0823
 3862SOL    HW315181   1.500   4.033   2.192 -2.1577 -2.6087 -0.5136
 3862SOL    MW415182   1.502   4.039   2.279  0.4254 -0.5549 -0.3871
 3863SOL     OW15183   5.815   3.757   5.065 -1.0427  0.8359 -0.0800
 3863SOL    HW215184   5.790   3.835   5.115 -1.1225  2.0576 -1.9389
 3863SOL    HW315185   5.852   3.791   4.985 -0.4081 -1.0670 -0.6391
 3863SOL    MW415186   5.816   3.772   5.061  0.2441  0.1263 -0.2860
 3864SOL     OW15187   4.379   4.352   5.452  0.0532 -0.5420 -0.5363
 3864SOL    HW215188   4.442   4.398   5.396  1.6366  0.3700  1.7970
 3864SOL    HW315189   4.306   4.330   5.395  1.7234 -0.0723 -3.0016
 3864SOL    MW415190   4.378   4.355   5.437 -0.1445 -0.4414  0.1562
 3865SOL     OW15191   0.520   2.412   3.194 -0.4707 -0.1888  0.1216
 3865SOL    HW215192   0.603   2.411   3.145  1.1343  0.6005  2.6338
 3865SOL    HW315193   0.504   2.504   3.212 -2.5560 -0.2215 -1.2380
 3865SOL    MW415194   0.529   2.424   3.190  0.1690  0.2600 -0.1130
 3866SOL     OW15195   5.961   1.830   4.736  0.0752 -0.2951 -0.2121
 3866SOL    HW215196   6.051   1.817   4.706  0.2441 -1.8455  0.8805
 3866SOL    HW315197   5.963   1.915   4.780  0.8569 -0.0456 -0.7073
 3866SOL    MW415198   5.974   1.840   4.737 -0.1628 -0.1387  0.5785
 3867SOL     OW15199   4.682   0.501   4.639 -0.2299  0.3343 -0.1829
 3867SOL    HW215200   4.747   0.525   4.573 -0.2039 -0.8834 -0.6201
 3867SOL    HW315201   4.598   0.522   4.600 -0.2053 -0.2326 -0.5540
 3867SOL    MW415202   4.680   0.507   4.625 -0.2903 -0.1505  0.4801
 3868SOL     OW15203   5.602   1.216   6.213 -0.7538 -0.0801  0.4823
 3868SOL    HW215204   5.546   1.179   6.145  0.3374  1.3156 -1.2422
 3868SOL    HW315205   5.635   1.298   6.177  1.5820 -0.3140  1.8120
 3868SOL    MW415206   5.599   1.222   6.200  0.7401  0.2212  0.4698
 3869SOL     OW15207   1.207   4.283   4.750 -0.1582  0.0451 -0.6518
 3869SOL    HW215208   1.194   4.248   4.839  0.2866 -1.3985 -1.1231
 3869SOL    HW315209   1.211   4.205   4.694  0.6660  0.8775 -1.7952
 3869SOL    MW415210   1.206   4.268   4.755 -0.3246 -0.1199 -0.0041
 3870SOL     OW15211   4.763   4.455   0.982  0.1682 -0.2353 -0.0372
 3870SOL    HW215212   4.797   4.436   0.894  1.6312  1.4818  0.0984
 3870SOL    HW315213   4.838   4.442   1.040  0.3378  2.2787  0.4479
 3870SOL    MW415214   4.778   4.451   0.978 -0.5062  0.1545  0.3785
 3871SOL     OW15215   3.323   5.633   0.516 -0.1620  0.3642  0.0535
 3871SOL    HW215216   3.400   5.630   0.461  0.2067  0.1005  0.5753
 3871SOL    HW315217   3.340   5.707   0.576 -1.0081  1.3097 -0.8294
 3871SOL    MW415218   3.335   5.643   0.517  0.2240 -0.2835 -0.2244
 3872SOL     OW15219   5.290   1.270   0.368  0.0548 -0.2122 -0.0814
 3872SOL    HW215220   5.353   1.335   0.335 -0.9340  0.2770 -1.0829
 3872SOL    HW315221   5.341   1.190   0.377  0.6539 -0.0599 -1.7119
 3872SOL    MW415222   5.305   1.268   0.365 -1.0872  0.2519  0.4473
 3873SOL     OW15223   2.341   5.623   0.691 -0.0189  0.0248  0.1960
 3873SOL    HW215224   2.393   5.668   0.624  0.2619 -0.1228  0.3118
 3873SOL    HW315225   2.398   5.552   0.721  0.3471  0.8168  1.4502
 3873SOL    MW415226   2.355   5.619   0.686  0.4294  0.1815  1.5128
 3874SOL     OW15227   5.605   5.405   1.546  1.3688 -0.0749 -0.7454
 3874SOL    HW215228   5.576   5.340   1.610  1.3864  0.7193  0.0957
 3874SOL    HW315229   5.613   5.357   1.464  1.1286 -1.0697 -0.1967
 3874SOL    MW415230   5.602   5.390   1.543  0.4207  0.7363  0.2762
 3875SOL     OW15231   4.615   0.125   4.427 -0.2879  0.2292 -0.1698
 3875SOL    HW215232   4.709   0.131   4.443 -0.4747  0.8823  0.7842
 3875SOL    HW315233   4.602   0.035   4.395  0.7532  0.3931 -1.1166
 3875SOL    MW415234   4.626   0.114   4.425  0.8057  0.2007 -0.1715
 3876SOL     OW15235   2.979   4.174   2.770 -0.0096  0.0469  0.5213
 3876SOL    HW215236   2.957   4.256   2.814 -0.2987  2.2242 -3.2271
 3876SOL    HW315237   2.903   4.154   2.716  0.7220 -1.7718  0.0681
 3876SOL    MW415238   2.966   4.182   2.769  0.3524 -0.1457  0.2581
 3877SOL     OW15239   4.984   3.954   5.874  0.4919 -0.2940  0.5894
 3877SOL    HW215240   5.044   4.029   5.868  0.4147 -0.3170 -1.1302
 3877SOL    HW315241   5.022   3.889   5.814 -0.7761 -0.6604  0.1641
 3877SOL    MW415242   4.997   3.955   5.865 -0.1683 -0.7124  0.6940
 3878SOL     OW15243   0.070   5.896   3.086 -0.5544  0.0085 -0.2391
 3878SOL    HW215244   0.007   5.832   3.052 -1.1836  0.2865  0.3892
 3878SOL    HW315245   0.024   5.940   3.157 -1.3132  3.3020 -2.5480
 3878SOL    MW415246   0.055   5.893   3.091  0.2436 -0.4198  0.0597
 3879SOL     OW15247   4.272   0.035   3.164 -0.2975  0.0963  0.3955
 3879SOL    HW215248   4.215   0.050   3.089  3.0787  0.7197 -2.3069
 3879SOL    HW315249   4.285  -0.059   3.167  0.1802  0.1250 -0.3931
 3879SOL    MW415250   4.266   0.025   3.155 -0.0616  0.0282  0.1646
 3880SOL     OW15251   5.927   6.031   3.171 -0.1917  0.1163 -0.3155
 3880SOL    HW215252   5.931   5.981   3.253 -0.3670 -0.8085 -0.8543
 3880SOL    HW315253   6.004   6.088   3.174 -0.4658  0.4608  0.7140
 3880SOL    MW415254   5.938   6.032   3.182 -0.0662 -0.5939  0.2222
 3881SOL     OW15255   0.305   3.788   3.230  0.5352 -0.0197 -0.1707
 3881SOL    HW215256   0.289   3.716   3.169 -1.7836  0.1096  0.1835
 3881SOL    HW315257   0.401   3.793   3.238  0.8940 -0.5217 -3.1789
 3881SOL    MW415258   0.316   3.780   3.223 -0.3498  0.1354 -0.1955
 3882SOL     OW15259   5.530   3.397   5.099  0.1886 -0.4686 -0.3291
 3882SOL    HW215260   5.457   3.453   5.125  0.2546 -0.3403 -0.4188
 3882SOL    HW315261   5.587   3.396   5.176  0.7643  0.5300 -0.7230
 3882SOL    MW415262   5.528   3.405   5.113 -0.2916  0.2287 -0.2694
 3883SOL     OW15263   3.090   5.636   0.400  0.1142 -0.0574 -0.7429
 3883SOL    HW215264   3.183   5.647   0.421  0.1491  0.5132 -1.1587
 3883SOL    HW315265   3.052   5.597   0.478  0.8341 -0.9827 -0.8273
 3883SOL    MW415266   3.097   5.632   0.413 -0.2041  0.2700  0.1794
 3884SOL     OW15267   4.164   6.086   2.812  0.4137  0.3912  0.0408
 3884SOL    HW215268   4.178   5.992   2.823  0.6932  0.3746 -0.4282
 3884SOL    HW315269   4.178   6.122   2.899  1.0016  0.0748  0.0872
 3884SOL    MW415270   4.168   6.078   2.825  0.5207  0.5093  0.1480
 3885SOL     OW15271   0.028   0.426   3.801 -0.4272 -0.6748 -0.0688
 3885SOL    HW215272   0.109   0.478   3.798 -0.7330 -0.1180  0.7403
 3885SOL    HW315273   0.045   0.361   3.869 -0.6919 -0.4923  0.1734
 3885SOL    MW415274   0.041   0.424   3.810 -0.2491  0.0660 -0.1016
 3886SOL     OW15275   1.104   4.678   4.866  0.0359 -0.2329  0.3310
 3886SOL    HW215276   1.137   4.597   4.905  0.9312  0.1647  0.4367
 3886SOL    HW315277   1.064   4.726   4.938  0.2414 -0.2191  0.4371
 3886SOL    MW415278   1.103   4.674   4.881  0.4841 -0.2779  0.1245
 3887SOL     OW15279   0.301   2.865   3.693 -0.2206  0.6879 -0.0403
 3887SOL    HW215280   0.315   2.939   3.752  1.4823  0.8415 -0.5757
 3887SOL    HW315281   0.248   2.900   3.621 -0.1097  1.1691  0.1130
 3887SOL    MW415282   0.296   2.879   3.691 -0.2820  0.0147  0.1389
 3888SOL     OW15283   0.085   4.594   5.157  0.6128  0.4169  0.4978
 3888SOL    HW215284   0.135   4.530   5.106 -2.4509 -1.0936 -0.8932
 3888SOL    HW315285   0.097   4.566   5.248 -0.2721 -1.9875 -0.0381
 3888SOL    MW415286   0.093   4.582   5.163 -0.0301 -0.3433  0.9396
 3889SOL     OW15287   6.136   1.885   0.385 -0.2001  0.4077  0.0337
 3889SOL    HW215288   6.147   1.845   0.298 -1.7530  0.5218 -0.2473
 3889SOL    HW315289   6.166   1.818   0.446  0.8391  0.2944 -0.5763
 3889SOL    MW415290   6.142   1.871   0.381  0.3112  0.4220  0.3205
 3890SOL     OW15291   1.585   3.860   0.212 -1.0372  0.1684 -0.2666
 3890SOL    HW215292   1.634   3.817   0.142 -2.9037 -1.2072 -0.7987
 3890SOL    HW315293   1.586   3.797   0.284 -0.8876  0.7109  0.2114
 3890SOL    MW415294   1.592   3.846   0.212  0.1402 -0.2577 -0.3431
 3891SOL     OW15295   6.306   0.195   4.472  0.5305  0.1918  0.4002
 3891SOL    HW215296   6.212   0.179   4.457  0.4353  0.2177  0.9498
 3891SOL    HW315297   6.338   0.228   4.388  0.3622 -1.2093 -0.2355
 3891SOL    MW415298   6.297   0.198   4.459 -0.1758 -0.0619  0.5252
 3892SOL     OW15299   0.023   2.966   4.119  0.4632  0.0356  0.1788
 3892SOL    HW215300   0.018   2.916   4.200  1.0282  1.3503  1.0641
 3892SOL    HW315301   0.065   2.908   4.057  2.5329 -0.1035  1.5987
 3892SOL    MW415302   0.028   2.952   4.122  0.7222 -0.3395 -0.3389
 3893SOL     OW15303   4.736   3.130   5.303 -0.1105 -0.1921  0.5219
 3893SOL    HW215304   4.683   3.124   5.224 -0.7532 -1.9832  1.0365
 3893SOL    HW315305   4.781   3.046   5.308  2.4332  1.0631  0.3916
 3893SOL    MW415306   4.735   3.118   5.294  0.0333  0.8285  0.0898
 3894SOL     OW15307   5.574   2.431   2.732 -0.4676  0.2520  0.5262
 3894SOL    HW215308   5.637   2.454   2.800 -0.8657  0.6620  0.7661
 3894SOL    HW315309   5.496   2.401   2.780 -1.7756  3.1143  0.3841
 3894SOL    MW415310   5.572   2.430   2.747  0.2372 -0.1800 -0.0087
 3895SOL     OW15311   1.943   5.843   1.685  0.2522 -0.2266 -0.2845
 3895SOL    HW215312   1.871   5.831   1.623  1.1448  0.3865 -1.4840
 3895SOL    HW315313   2.020   5.811   1.639  1.2069  1.7281 -0.1590
 3895SOL    MW415314   1.943   5.837   1.671 -0.0348 -0.9277  0.2468
 3896SOL     OW15315   3.024   0.369   3.080 -0.3519  0.1196 -0.0593
 3896SOL    HW215316   3.014   0.376   3.175  1.4408  0.1600  0.1447
 3896SOL    HW315317   3.013   0.459   3.048  0.0816  0.2743  0.2220
 3896SOL    MW415318   3.021   0.382   3.088 -0.1862  0.5257 -0.1933
 3897SOL     OW15319   5.919   0.346   5.015 -0.2403 -0.3307 -0.3478
 3897SOL    HW215320   5.922   0.304   4.929  0.8626  0.2294 -0.6009
 3897SOL    HW315321   5.835   0.320   5.051 -0.5655 -0.8723 -1.4477
 3897SOL    MW415322   5.909   0.337   5.008  0.6738 -0.4695 -0.0830
 3898SOL     OW15323   2.205   4.161   1.589 -0.0054 -0.2606 -0.4975
 3898SOL    HW215324   2.154   4.120   1.519 -1.4802 -0.0638  0.4198
 3898SOL    HW315325   2.140   4.196   1.649  1.2302  0.1724  0.6444
 3898SOL    MW415326   2.190   4.160   1.587  0.0969  0.1743 -0.0858
 3899SOL     OW15327   3.327   3.874   5.141  0.2514 -0.8726  0.0145
 3899SOL    HW215328   3.292   3.957   5.109 -0.5893 -1.1453  0.1824
 3899SOL    HW315329   3.253   3.834   5.187  0.6265 -1.7408 -0.1249
 3899SOL    MW415330   3.312   3.880   5.143  0.3473 -0.5982 -0.0620
 3900SOL     OW15331   0.754   6.405   0.117 -0.5784 -0.1141  0.0268
 3900SOL    HW215332   0.795   6.451   0.044 -0.0757  0.3918  0.6187
 3900SOL    HW315333   0.661   6.427   0.110 -0.7088 -0.9282 -1.0733
 3900SOL    MW415334   0.747   6.414   0.106  0.2702  0.3174 -0.0104
 3901SOL     OW15335   4.528   0.321   2.833 -0.1392 -0.9639  0.7700
 3901SOL    HW215336   4.510   0.258   2.902  1.2995 -0.9080  1.2391
 3901SOL    HW315337   4.498   0.405   2.868  1.0646 -0.8471  1.5742
 3901SOL    MW415338   4.522   0.324   2.847 -1.0404  0.6024  0.0147
 3902SOL     OW15339   3.272   5.872   2.474  0.3502 -0.2270 -0.3193
 3902SOL    HW215340   3.254   5.901   2.563  2.0021 -0.4375  0.1094
 3902SOL    HW315341   3.246   5.945   2.419 -0.5629 -0.0443  0.3268
 3902SOL    MW415342   3.266   5.885   2.479  0.0529 -0.4603  0.2589
 3903SOL     OW15343   6.241   4.827   0.682 -0.8585  0.4808 -0.1370
 3903SOL    HW215344   6.208   4.822   0.592  1.8562 -0.4226 -1.1856
 3903SOL    HW315345   6.220   4.916   0.711 -1.4879  0.8987 -1.7868
 3903SOL    MW415346   6.234   4.838   0.674 -0.4263  0.2249  0.6358
 3904SOL     OW15347   1.464   2.399   0.906 -1.1241  0.1101 -0.2922
 3904SOL    HW215348   1.531   2.452   0.863 -1.0423 -0.9739 -1.5645
 3904SOL    HW315349   1.421   2.460   0.966 -0.5483  1.4293 -1.1612
 3904SOL    MW415350   1.467   2.414   0.908 -0.0502 -0.3460  0.0388
 3905SOL     OW15351   3.290   2.553   2.074 -0.0450 -0.2107 -0.1614
 3905SOL    HW215352   3.299   2.512   2.160  0.8482  0.5892  0.1491
 3905SOL    HW315353   3.237   2.492   2.023  0.8845 -1.5216  0.4122
 3905SOL    MW415354   3.284   2.540   2.079 -0.2211  0.0981  0.2881
 3906SOL     OW15355   5.494   0.008   3.472 -0.2161 -0.6284 -0.2938
 3906SOL    HW215356   5.481   0.084   3.529  1.9326 -0.1498 -0.3289
 3906SOL    HW315357   5.537  -0.057   3.527  1.8694 -0.1715 -1.2657
 3906SOL    MW415358   5.498   0.009   3.487 -0.3764 -0.2412 -0.5940
 3907SOL     OW15359   3.838   2.161   0.529  0.0407 -1.0340 -0.0649
 3907SOL    HW215360   3.851   2.242   0.578  0.2335 -0.8045 -0.4986
 3907SOL    HW315361   3.919   2.149   0.479 -0.1322 -1.2974 -0.2868
 3907SOL    MW415362   3.850   2.170   0.529  0.1010 -0.0650 -0.0306
 3908SOL     OW15363   1.531   1.869   5.451  0.1454 -0.6057  0.4645
 3908SOL    HW215364   1.437   1.868   5.470  0.2222 -1.3805  0.8563
 3908SOL    HW315365   1.541   1.810   5.377  0.0378  1.2997 -1.1609
 3908SOL    MW415366   1.520   1.861   5.444 -0.3920  0.3559  0.4660
 3909SOL     OW15367   2.310   1.087   1.046 -0.3179 -0.8190  0.2880
 3909SOL    HW215368   2.307   1.156   1.112 -0.5797 -2.6288  2.2940
 3909SOL    HW315369   2.292   1.007   1.095  3.9899 -2.9324 -1.0845
 3909SOL    MW415370   2.307   1.085   1.061 -0.1005  0.4295 -0.5075
 3910SOL     OW15371   3.068   1.992   2.634 -0.6917  0.3294 -0.1148
 3910SOL    HW215372   3.104   1.925   2.692 -0.9475  1.1380  1.0166
 3910SOL    HW315373   3.022   1.943   2.565 -0.3884 -0.6522  0.3775
 3910SOL    MW415374   3.066   1.977   2.632  0.0504 -0.0266 -0.4287
 3911SOL     OW15375   3.499   0.558   1.505  0.5296 -0.1337  0.3385
 3911SOL    HW215376   3.421   0.589   1.458 -1.2716 -1.3181  2.3317
 3911SOL    HW315377   3.508   0.466   1.479  1.4113  0.0477 -0.0280
 3911SOL    MW415378   3.490   0.550   1.496 -0.6249 -0.2090 -0.2792
 3912SOL     OW15379   3.527   3.964   5.707 -0.0058 -0.0114 -0.1179
 3912SOL    HW215380   3.588   3.895   5.680  0.1543  0.0312  0.1377
 3912SOL    HW315381   3.561   4.044   5.665 -0.9131 -0.2982 -1.4932
 3912SOL    MW415382   3.539   3.965   5.698 -0.3282 -0.0465  0.0641
 3913SOL     OW15383   1.093   5.762   2.363 -0.1362 -0.4843  0.1032
 3913SOL    HW215384   1.024   5.738   2.302 -0.0065 -0.4256 -0.0678
 3913SOL    HW315385   1.092   5.858   2.364  0.4351 -0.4617 -0.4720
 3913SOL    MW415386   1.084   5.772   2.355 -0.3419 -0.3478 -0.4337
 3914SOL     OW15387   4.942   0.101   1.153 -0.6420 -0.9858 -0.1507
 3914SOL    HW215388   4.914   0.027   1.099  1.1892 -2.1578  0.4231
 3914SOL    HW315389   4.866   0.121   1.207 -1.1616 -2.4853 -0.2730
 3914SOL    MW415390   4.928   0.094   1.153  0.7136  0.0630  0.4957
 3915SOL     OW15391   1.330   2.315   4.257 -0.1816  0.6252  0.1029
 3915SOL    HW215392   1.287   2.297   4.173 -0.4429  0.7717  0.2054
 3915SOL    HW315393   1.364   2.404   4.248 -0.8541  0.9154  0.4241
 3915SOL    MW415394   1.329   2.324   4.245  0.6536  0.0135  0.6257
 3916SOL     OW15395   3.124   2.772   3.053  0.3202  0.0727 -0.4488
 3916SOL    HW215396   3.167   2.793   3.135  0.1660  1.6961 -0.7537
 3916SOL    HW315397   3.051   2.715   3.078  0.0727  0.8174  0.5904
 3916SOL    MW415398   3.120   2.767   3.067 -0.1721 -0.2130  0.4228
 3917SOL     OW15399   6.358   3.611   0.303 -0.0996 -0.6881 -0.1607
 3917SOL    HW215400   6.423   3.561   0.253 -0.7475 -0.3468 -1.3942
 3917SOL    HW315401   6.291   3.546   0.326  0.2810 -0.8799  0.4403
 3917SOL    MW415402   6.358   3.595   0.300  0.0589 -0.0801  0.3743
 3918SOL     OW15403   3.175   0.451   4.880  0.6809  0.7496  0.1102
 3918SOL    HW215404   3.192   0.545   4.872 -0.3153  0.9734  0.4288
 3918SOL    HW315405   3.080   0.443   4.869  0.6576 -0.1310  0.8363
 3918SOL    MW415406   3.165   0.462   4.878 -0.2366  0.5726 -0.1043
 3919SOL     OW15407   2.224   1.467   0.932  0.2096  0.2839 -0.4345
 3919SOL    HW215408   2.243   1.447   1.024  1.5563  2.0435 -0.2557
 3919SOL    HW315409   2.154   1.532   0.936  2.0032  2.3621 -0.4034
 3919SOL    MW415410   2.217   1.473   0.945  0.2576  0.6772  0.0650
 3920SOL     OW15411   2.489   3.377   5.092 -0.4224  0.0707  0.0270
 3920SOL    HW215412   2.437   3.326   5.154 -0.2734  1.3363  1.2509
 3920SOL    HW315413   2.563   3.410   5.144  0.4094  0.1043 -1.1457
 3920SOL    MW415414   2.492   3.375   5.107  0.6864 -0.0801  0.0758
 3921SOL     OW15415   5.666   3.592   4.669  0.8671  0.0515 -0.1134
 3921SOL    HW215416   5.642   3.618   4.758  1.5961 -1.3305  0.5210
 3921SOL    HW315417   5.627   3.659   4.613 -3.1090 -1.1637  0.9231
 3921SOL    MW415418   5.658   3.604   4.673 -0.0680  0.0974 -0.0534
 3922SOL     OW15419   2.429   3.591   5.331  0.1612  0.1376  0.3211
 3922SOL    HW215420   2.360   3.571   5.267 -0.0462 -0.4800  0.7334
 3922SOL    HW315421   2.382   3.621   5.409  0.3003 -1.0759  0.8921
 3922SOL    MW415422   2.414   3.593   5.333 -0.2522 -0.1238 -0.0964
 3923SOL     OW15423   1.768   4.571   1.180 -0.6749  0.4278 -0.3563
 3923SOL    HW215424   1.809   4.579   1.094  0.3883  0.9353  0.1695
 3923SOL    HW315425   1.836   4.533   1.236 -1.3162  0.1886  0.2803
 3923SOL    MW415426   1.783   4.567   1.176 -0.1116 -0.9869  0.1618
 3924SOL     OW15427   2.264   3.642   1.126  0.3885 -0.2304  0.6073
 3924SOL    HW215428   2.289   3.723   1.170  0.2791  0.2547 -0.2136
 3924SOL    HW315429   2.282   3.658   1.034 -0.2771 -0.8953  0.3566
 3924SOL    MW415430   2.270   3.655   1.120  0.1348  0.4974  0.7205
 3925SOL     OW15431   2.988   0.214   3.694 -0.5308  0.1994 -0.4009
 3925SOL    HW215432   2.935   0.227   3.773 -1.0935 -2.3198 -0.2873
 3925SOL    HW315433   3.075   0.247   3.718 -1.1267  1.0616  0.6600
 3925SOL    MW415434   2.992   0.220   3.708 -0.2968  0.3108 -0.3725
 3926SOL     OW15435   0.973   1.859   5.626  0.6828  0.3268 -0.2334
 3926SOL    HW215436   0.917   1.924   5.582  1.2023  0.7177 -0.3246
 3926SOL    HW315437   1.061   1.895   5.620  0.9683 -0.3479 -0.2036
 3926SOL    MW415438   0.977   1.872   5.619 -0.2175  0.0961 -0.3940
 3927SOL     OW15439   3.754   3.271   0.748 -0.0143 -0.8328  0.4553
 3927SOL    HW215440   3.712   3.320   0.818  0.0359 -1.1820  0.7339
 3927SOL    HW315441   3.846   3.295   0.754 -0.2627  0.5493 -0.6608
 3927SOL    MW415442   3.760   3.280   0.758  0.5763  0.3567 -0.5005
 3928SOL     OW15443   1.731   2.603   0.982  0.0816 -0.1358  0.3932
 3928SOL    HW215444   1.698   2.563   1.062 -1.7502 -0.2080 -0.3433
 3928SOL    HW315445   1.706   2.695   0.988 -0.2519 -0.1838 -0.1710
 3928SOL    MW415446   1.723   2.610   0.993 -0.4423  0.1142 -0.2276
 3929SOL     OW15447   4.065   3.741   3.818 -0.2045  0.2008  0.2747
 3929SOL    HW215448   4.059   3.692   3.736  1.4657 -0.0458  0.2654
 3929SOL    HW315449   4.006   3.695   3.878 -1.2013  0.1984 -0.6757
 3929SOL    MW415450   4.056   3.729   3.815 -0.2334 -0.1795  0.3681
 3930SOL     OW15451   5.596   3.049   0.530 -0.2128  0.2025 -0.3848
 3930SOL    HW215452   5.507   3.085   0.530 -0.4732 -0.4423  0.1737
 3930SOL    HW315453   5.585   2.957   0.506 -0.0131 -0.6188  2.3652
 3930SOL    MW415454   5.582   3.042   0.527  0.3221 -0.5558  0.7148
 3931SOL     OW15455   1.886   6.031   6.111  0.0080  0.2670  0.5116
 3931SOL    HW215456   1.972   6.002   6.080 -0.1790 -0.5040  0.6936
 3931SOL    HW315457   1.845   6.068   6.033  0.3550  0.2863  0.3315
 3931SOL    MW415458   1.892   6.032   6.096  0.1382  0.2020  0.0923
 3932SOL     OW15459   1.280   1.495   0.446 -0.0342 -0.1480  0.0991
 3932SOL    HW215460   1.208   1.553   0.470  0.2691  0.5548 -0.6452
 3932SOL    HW315461   1.354   1.527   0.497 -0.2017 -0.7530  0.7246
 3932SOL    MW415462   1.281   1.507   0.456 -0.2921  0.3893 -0.0016
 3933SOL     OW15463   4.537   0.963   5.726 -0.0549 -0.2903  0.1382
 3933SOL    HW215464   4.553   0.869   5.728 -0.3583 -0.3395  0.2325
 3933SOL    HW315465   4.468   0.978   5.791 -0.9025 -0.1783 -0.7647
 3933SOL    MW415466   4.530   0.953   5.735 -0.8983  0.2049  0.3507
 3934SOL     OW15467   4.486   5.943   5.552 -0.2402 -0.3605  0.7384
 3934SOL    HW215468   4.480   5.995   5.472  0.5844 -0.3406  0.6832
 3934SOL    HW315469   4.424   5.872   5.539 -0.8156  0.1728  0.4899
 3934SOL    MW415470   4.477   5.941   5.540  0.4449 -0.3873 -0.0848
 3935SOL     OW15471   5.796   4.730   4.768 -0.4266  0.5008 -0.6283
 3935SOL    HW215472   5.858   4.701   4.836  0.3579  1.6971 -0.8069
 3935SOL    HW315473   5.846   4.790   4.713 -1.7222  1.4540 -0.8292
 3935SOL    MW415474   5.811   4.734   4.770  0.2584  0.3017 -0.8953
 3936SOL     OW15475   4.364   3.292   0.721  0.3349 -0.2742  0.0213
 3936SOL    HW215476   4.347   3.329   0.807 -2.3726 -0.3044 -0.4158
 3936SOL    HW315477   4.311   3.212   0.719 -0.2983  0.1503 -1.9345
 3936SOL    MW415478   4.355   3.286   0.732 -0.1339  0.3561  0.2125
 3937SOL     OW15479   4.737   0.866   5.898 -0.1851  0.1668 -0.6646
 3937SOL    HW215480   4.688   0.925   5.841  0.3246  0.2702 -1.0026
 3937SOL    HW315481   4.824   0.861   5.859 -0.3742 -1.2494 -0.9472
 3937SOL    MW415482   4.742   0.873   5.886 -0.3620  0.0944  0.6485
 3938SOL     OW15483   2.475   3.176   4.229  0.5840  0.4331 -0.1387
 3938SOL    HW215484   2.403   3.239   4.227  0.7724  0.7287  1.1888
 3938SOL    HW315485   2.439   3.096   4.191  0.0337  1.0211 -0.8928
 3938SOL    MW415486   2.461   3.174   4.224  0.3988  0.2732 -0.2024
 3939SOL     OW15487   0.175   1.378   2.372 -0.0355 -0.6046  0.0123
 3939SOL    HW215488   0.170   1.285   2.393  0.2707 -1.1084 -1.8839
 3939SOL    HW315489   0.085   1.402   2.351 -0.0903 -0.5090  0.3540
 3939SOL    MW415490   0.163   1.369   2.372 -0.4595  0.0108 -0.2418
 3940SOL     OW15491   2.494   1.010   1.788  0.2409 -0.0278  0.1089
 3940SOL    HW215492   2.443   0.956   1.727  0.8121 -1.9650  1.2621
 3940SOL    HW315493   2.469   0.978   1.875  0.5924  1.6261  0.8535
 3940SOL    MW415494   2.484   0.999   1.791 -0.0061  0.4375  0.4574
 3941SOL     OW15495   1.235   2.872   3.236  0.0739  0.7293  0.1499
 3941SOL    HW215496   1.287   2.796   3.208 -0.6345  0.3953 -0.2841
 3941SOL    HW315497   1.260   2.942   3.176  0.8863  0.9075  0.6831
 3941SOL    MW415498   1.245   2.871   3.224  0.2937  0.4480  0.1842
 3942SOL     OW15499   4.057   1.795   3.332 -0.2561  0.2885  0.3672
 3942SOL    HW215500   3.965   1.800   3.305  0.3996  1.7423 -1.8040
 3942SOL    HW315501   4.091   1.883   3.319  1.5176 -0.2748  0.9390
 3942SOL    MW415502   4.049   1.807   3.327  0.0372 -0.3857 -0.5042
 3943SOL     OW15503   3.706   1.297   3.559 -0.1603  0.4572  0.0985
 3943SOL    HW215504   3.727   1.203   3.555  0.2230  0.5241  0.4340
 3943SOL    HW315505   3.734   1.323   3.647 -0.8056  0.7609  0.2142
 3943SOL    MW415506   3.713   1.288   3.570 -0.1395  0.6841 -0.3833
 3944SOL     OW15507   1.339   1.395   3.684  0.5388  0.2221 -0.6582
 3944SOL    HW215508   1.351   1.467   3.746 -1.1044  0.8974 -1.0817
 3944SOL    HW315509   1.384   1.321   3.725  2.0206  1.3846 -0.0750
 3944SOL    MW415510   1.347   1.395   3.698 -0.0701 -0.4125  0.1293
 3945SOL     OW15511   1.385   2.013   0.899  0.3005  0.7327 -0.4287
 3945SOL    HW215512   1.461   2.061   0.931  1.0991 -0.0216 -1.1252
 3945SOL    HW315513   1.391   2.020   0.803 -0.1539  0.1332 -0.5097
 3945SOL    MW415514   1.396   2.021   0.890 -0.8527  0.3036  0.6151
 3946SOL     OW15515   3.388   2.318   1.275 -0.6543  0.1942  0.1821
 3946SOL    HW215516   3.367   2.404   1.312  0.8225  0.4916  0.4230
 3946SOL    HW315517   3.440   2.275   1.343 -0.1379 -0.3040 -0.5176
 3946SOL    MW415518   3.392   2.324   1.289  0.1011  0.1930  0.3217
 3947SOL     OW15519   6.061   4.314   0.360 -0.0050 -0.7614  0.1756
 3947SOL    HW215520   6.070   4.321   0.455  0.2336 -0.8868  0.1620
 3947SOL    HW315521   6.079   4.222   0.341  0.5074 -0.6166 -0.0549
 3947SOL    MW415522   6.064   4.303   0.370 -0.2266  0.0517  0.3245
 3948SOL     OW15523   5.165   3.912   1.231  0.4841 -0.0281 -0.2764
 3948SOL    HW215524   5.260   3.911   1.224  0.4693 -0.3199 -0.4445
 3948SOL    HW315525   5.138   3.823   1.209  0.0636  0.4313 -1.7048
 3948SOL    MW415526   5.174   3.900   1.227  0.2482  0.0958 -0.0393
 3949SOL     OW15527   1.643   2.897   4.725 -0.5015 -0.1454  0.1678
 3949SOL    HW215528   1.561   2.907   4.677 -0.2385 -1.7961 -0.7102
 3949SOL    HW315529   1.645   2.804   4.750  1.4152 -0.3210 -0.4763
 3949SOL    MW415530   1.632   2.886   4.722  0.2409 -0.4446  0.3596
 3950SOL     OW15531   2.214   0.274   0.931 -0.1723 -0.1637 -0.7762
 3950SOL    HW215532   2.239   0.258   0.841  0.1013 -0.8165 -0.5913
 3950SOL    HW315533   2.291   0.249   0.983  0.2626  1.7312 -0.4506
 3950SOL    MW415534   2.227   0.268   0.926 -0.4528  0.3434  0.5819
 3951SOL     OW15535   4.858   0.541  -0.007 -0.4887 -0.3381  0.5508
 3951SOL    HW215536   4.772   0.581   0.009 -0.7398 -0.1644 -1.0545
 3951SOL    HW315537   4.875   0.559  -0.100  0.9198 -1.0742  0.6527
 3951SOL    MW415538   4.849   0.549  -0.017 -0.4550 -0.5540  0.3675
 3952SOL     OW15539   0.319   2.238   0.293 -0.0917 -0.4379  0.0291
 3952SOL    HW215540   0.239   2.271   0.251  1.4026  1.9197 -1.1927
 3952SOL    HW315541   0.390   2.267   0.236  1.8790  0.5616  2.7426
 3952SOL    MW415542   0.318   2.246   0.280 -0.1015 -0.6682 -0.3625
 3953SOL     OW15543   2.696   0.767   6.279 -0.5536 -0.2071 -0.6434
 3953SOL    HW215544   2.634   0.764   6.352  1.3526 -1.4897  1.0421
 3953SOL    HW315545   2.704   0.676   6.251  1.3887 -0.2644 -0.0269
 3953SOL    MW415546   2.689   0.754   6.285 -0.0096  0.2144 -0.5327
 3954SOL     OW15547   5.717   3.092   1.000 -0.0111 -0.2719  0.8353
 3954SOL    HW215548   5.697   3.152   0.928  2.7245  1.9684  1.7192
 3954SOL    HW315549   5.800   3.052   0.975  0.1217 -0.7616  1.9911
 3954SOL    MW415550   5.725   3.095   0.987  0.0867  0.3622 -0.3332
 3955SOL     OW15551   2.166   1.831   3.230 -0.7573 -0.0170 -0.0934
 3955SOL    HW215552   2.218   1.811   3.307  0.9765 -0.0843 -1.2187
 3955SOL    HW315553   2.204   1.911   3.195 -2.9097  1.2542  0.2719
 3955SOL    MW415554   2.178   1.839   3.235 -0.3826  0.0583  0.4248
 3956SOL     OW15555   2.924  -0.002   4.588  0.4558 -0.2643  0.3334
 3956SOL    HW215556   2.831   0.012   4.602  0.0527 -0.5288 -1.6954
 3956SOL    HW315557   2.961   0.086   4.584 -0.2513  0.0052 -1.7255
 3956SOL    MW415558   2.917   0.011   4.589  0.1134  0.4564  0.3458
 3957SOL     OW15559   0.036   4.747   4.506  0.0196 -0.4164  0.0005
 3957SOL    HW215560   0.108   4.686   4.526 -0.3899 -1.1204 -0.6406
 3957SOL    HW315561   0.040   4.811   4.577  1.2248 -0.4886  0.0316
 3957SOL    MW415562   0.046   4.747   4.518 -0.6646 -0.0778 -0.2556
 3958SOL     OW15563   1.015   4.692   5.874  0.5355 -0.1098  0.5124
 3958SOL    HW215564   0.945   4.743   5.915  1.7769  0.2094  2.3885
 3958SOL    HW315565   1.089   4.753   5.869  1.4156 -1.1060  0.9021
 3958SOL    MW415566   1.016   4.707   5.879  0.1962  0.0305 -0.1941
 3959SOL     OW15567   0.333   3.177   6.103 -0.0855  0.8790  0.1309
 3959SOL    HW215568   0.240   3.162   6.088  0.1157  0.5847 -0.9341
 3959SOL    HW315569   0.374   3.091   6.093  0.2478  0.9227  1.0690
 3959SOL    MW415570   0.326   3.164   6.100 -0.1605  0.3295 -0.0842
 3960SOL     OW15571   3.753   5.460   5.274 -0.2561  0.1661  0.8138
 3960SOL    HW215572   3.693   5.408   5.328  0.9461 -2.2148 -0.0244
 3960SOL    HW315573   3.829   5.475   5.330  0.2646 -0.8074  0.3855
 3960SOL    MW415574   3.755   5.455   5.289 -0.0512  0.5271  0.5909
 3961SOL     OW15575   6.381   1.338   4.805  0.3117 -0.5544 -0.3537
 3961SOL    HW215576   6.318   1.318   4.736 -1.6937  1.4245  0.7392
 3961SOL    HW315577   6.379   1.262   4.863 -0.8460 -0.6822 -0.5329
 3961SOL    MW415578   6.372   1.326   4.803 -0.0551  0.3636  0.2949
 3962SOL     OW15579   0.145   6.424   0.335 -0.2846 -0.2565 -0.0684
 3962SOL    HW215580   0.081   6.473   0.387  0.3910  1.7771 -1.0485
 3962SOL    HW315581   0.142   6.336   0.371 -0.8188  0.7202  2.5069
 3962SOL    MW415582   0.136   6.419   0.346 -0.1962  0.5576  0.3622
 3963SOL     OW15583   4.792   1.724   6.031 -0.0229  0.5617 -0.3175
 3963SOL    HW215584   4.761   1.811   6.057  0.0047  1.2403 -2.3129
 3963SOL    HW315585   4.749   1.708   5.946  2.1917 -0.0752 -1.4049
 3963SOL    MW415586   4.782   1.733   6.023 -0.5003  0.3470 -0.2209
 3964SOL     OW15587   3.737   5.541   2.779  0.0158  0.8258 -0.1982
 3964SOL    HW215588   3.644   5.557   2.763  0.5958  2.5598 -2.2743
 3964SOL    HW315589   3.739   5.495   2.863 -2.5527  2.8474  1.1117
 3964SOL    MW415590   3.725   5.537   2.788 -0.4546  0.4670 -0.2873
 3965SOL     OW15591   1.216   4.575   0.915 -0.1551 -0.2353  0.3874
 3965SOL    HW215592   1.251   4.663   0.926  1.8095 -0.9513  0.2639
 3965SOL    HW315593   1.141   4.572   0.975 -0.3556  1.5340  0.2937
 3965SOL    MW415594   1.211   4.586   0.925 -0.3357 -0.0176  0.8053
 3966SOL     OW15595   1.845   1.678   0.585  0.1295 -0.0622 -0.0379
 3966SOL    HW215596   1.926   1.697   0.634  0.8110 -1.8153 -0.3883
 3966SOL    HW315597   1.874   1.667   0.495 -0.8440  1.3437 -0.5393
 3966SOL    MW415598   1.860   1.679   0.580  0.3587 -0.2421 -0.0011
 3967SOL     OW15599   3.578   0.677   5.496  0.5056 -0.4192 -0.0397
 3967SOL    HW215600   3.568   0.605   5.558 -0.5161 -0.9948 -0.8440
 3967SOL    HW315601   3.631   0.741   5.543  0.1688 -1.0425  1.2457
 3967SOL    MW415602   3.584   0.676   5.510 -0.6634  0.1324 -0.9303
 3968SOL     OW15603   2.415   0.671   4.637 -0.1968 -0.2701 -0.4347
 3968SOL    HW215604   2.488   0.662   4.698 -1.3668  0.2257  1.1308
 3968SOL    HW315605   2.444   0.629   4.557  2.4952  1.5369 -0.5255
 3968SOL    MW415606   2.428   0.664   4.634 -0.1171 -0.6943 -0.3163
 3969SOL     OW15607   5.148   3.172   3.834  0.4908 -0.2998  0.1441
 3969SOL    HW215608   5.089   3.185   3.908 -1.0520 -1.2905 -0.8490
 3969SOL    HW315609   5.106   3.218   3.761  1.4459 -0.2153 -0.3743
 3969SOL    MW415610   5.134   3.179   3.834 -0.7900 -0.4225  0.1099
 3970SOL     OW15611   3.436   1.731   4.408 -0.1842 -0.3120 -0.2737
 3970SOL    HW215612   3.440   1.761   4.499 -1.0258  2.3038 -1.0236
 3970SOL    HW315613   3.515   1.765   4.368 -0.8175  0.3547 -0.9874
 3970SOL    MW415614   3.447   1.739   4.415 -0.0006 -0.3505  0.0377
 3971SOL     OW15615   5.355   4.364   5.773 -0.0589  0.0248 -0.2008
 3971SOL    HW215616   5.316   4.432   5.828  0.5257 -0.1194  0.4017
 3971SOL    HW315617   5.312   4.375   5.688 -0.9641  0.2610  0.2683
 3971SOL    MW415618   5.344   4.374   5.769 -0.2653 -0.2228 -0.2379
 3972SOL     OW15619   4.831   4.761   1.305 -0.2086 -0.8106  0.5421
 3972SOL    HW215620   4.786   4.745   1.222  1.3928 -1.6716 -0.1879
 3972SOL    HW315621   4.881   4.681   1.322  0.1708 -0.3159  1.8990
 3972SOL    MW415622   4.832   4.748   1.296  0.3012  0.4897 -0.7048
 3973SOL     OW15623   4.336   3.444   0.951  0.1563  0.0006 -0.0673
 3973SOL    HW215624   4.422   3.465   0.988 -0.6451  2.3890  0.6231
 3973SOL    HW315625   4.302   3.528   0.920 -2.3988 -0.6401  0.7108
 3973SOL    MW415626   4.343   3.458   0.952 -0.0705 -0.0571  0.0461
 3974SOL     OW15627   0.879   0.801   2.743  0.0016 -0.3960  0.4623
 3974SOL    HW215628   0.859   0.854   2.666  2.9471 -0.6023 -0.5385
 3974SOL    HW315629   0.917   0.862   2.806 -2.3129 -0.2425  1.8254
 3974SOL    MW415630   0.881   0.816   2.741 -0.2357 -0.5263 -0.3303
 3975SOL     OW15631   3.144   3.559   3.160 -0.3717  0.3851 -0.0044
 3975SOL    HW215632   3.168   3.630   3.101  0.4825  0.0099 -0.1239
 3975SOL    HW315633   3.228   3.521   3.187 -0.6979  1.0461  2.0932
 3975SOL    MW415634   3.158   3.563   3.156 -0.2746 -0.0472 -0.1174
 3976SOL     OW15635   1.010   5.367   5.372 -0.4853 -0.4911  0.1910
 3976SOL    HW215636   1.059   5.378   5.291  1.9807 -2.6476  1.2637
 3976SOL    HW315637   0.920   5.351   5.343 -0.5396  2.6115 -1.8749
 3976SOL    MW415638   1.004   5.367   5.357  0.1367  0.1117 -0.0512
 3977SOL     OW15639   1.544   2.481   2.487 -0.0461 -0.5826  1.1831
 3977SOL    HW215640   1.622   2.535   2.476  0.3756 -1.2730  0.6972
 3977SOL    HW315641   1.485   2.509   2.418  0.4373 -1.1767  0.5080
 3977SOL    MW415642   1.546   2.492   2.476  0.0295 -0.4194  0.2083
 3978SOL     OW15643   1.432   0.197   5.704 -0.0934 -0.7109 -0.5158
 3978SOL    HW215644   1.513   0.171   5.749  0.0602  2.9398  1.7171
 3978SOL    HW315645   1.362   0.160   5.758  0.1415  1.4886  1.4766
 3978SOL    MW415646   1.433   0.189   5.717 -0.2402  0.2570  0.4014
 3979SOL     OW15647   1.292   2.562   6.223 -0.6845 -0.1337  0.4635
 3979SOL    HW215648   1.352   2.569   6.298 -2.2441  2.0894  1.6288
 3979SOL    HW315649   1.278   2.468   6.212  1.6099 -0.6361  1.2752
 3979SOL    MW415650   1.298   2.551   6.232 -0.1423 -0.2222 -0.3187
 3980SOL     OW15651   2.639   5.977   5.840  0.5393 -0.2796 -0.4767
 3980SOL    HW215652   2.544   5.990   5.845  0.6564  0.6438 -0.5119
 3980SOL    HW315653   2.658   5.973   5.746  0.6390  0.3982 -0.4900
 3980SOL    MW415654   2.629   5.978   5.828 -0.4110  0.7739  0.5011
 3981SOL     OW15655   5.498   1.309   5.517 -0.2454  0.3947  0.2344
 3981SOL    HW215656   5.544   1.251   5.456 -0.2262  0.0966  0.5304
 3981SOL    HW315657   5.438   1.359   5.461 -1.5476 -1.1467  0.1797
 3981SOL    MW415658   5.497   1.308   5.501 -0.1060  0.6347  0.5791
 3982SOL     OW15659   5.119   4.535   4.414  0.2217 -0.2839  0.0036
 3982SOL    HW215660   5.191   4.493   4.367 -1.4493 -0.7607 -2.2938
 3982SOL    HW315661   5.101   4.614   4.364 -0.4622  0.1459  0.9116
 3982SOL    MW415662   5.126   4.540   4.401  0.4053 -0.1434  0.5476
 3983SOL     OW15663   3.446   5.049   5.422  0.4589  0.1373 -0.5387
 3983SOL    HW215664   3.365   5.059   5.471 -1.0359 -1.3468 -2.5470
 3983SOL    HW315665   3.441   4.962   5.383  2.4357  0.4843 -1.7631
 3983SOL    MW415666   3.435   5.039   5.423  0.0748 -0.2432  0.8085
 3984SOL     OW15667   4.589   2.805   1.426  0.3434  0.1649  0.2850
 3984SOL    HW215668   4.500   2.832   1.450  0.8649  3.2629 -0.7491
 3984SOL    HW315669   4.580   2.770   1.338 -0.0726 -1.3404  0.8972
 3984SOL    MW415670   4.576   2.804   1.418  0.4122  0.9066  0.5172
 3985SOL     OW15671   1.549   5.948   6.173  0.0077 -0.1620  0.0219
 3985SOL    HW215672   1.590   5.960   6.259 -0.6202 -1.6045  0.5622
 3985SOL    HW315673   1.614   5.981   6.111  1.3429 -0.9373  0.9427
 3985SOL    MW415674   1.563   5.954   6.176  0.6513  0.5121 -0.6624
 3986SOL     OW15675   0.490   3.567   6.175 -0.7198 -0.0549 -0.6164
 3986SOL    HW215676   0.584   3.580   6.165 -0.6899  1.0136  0.7569
 3986SOL    HW315677   0.462   3.526   6.093  0.7534  0.6595 -1.5098
 3986SOL    MW415678   0.498   3.563   6.163  0.0358  0.2275 -0.3688
 3987SOL     OW15679   1.538   1.710   5.197  0.5349 -0.8183  0.0026
 3987SOL    HW215680   1.443   1.704   5.212  0.7929 -0.6205  1.8859
 3987SOL    HW315681   1.549   1.791   5.147 -0.3670 -1.3797 -1.1562
 3987SOL    MW415682   1.527   1.720   5.192 -0.2822 -0.2075  0.3549
 3988SOL     OW15683   3.360   1.796   1.424  0.3436 -0.3120  0.4750
 3988SOL    HW215684   3.371   1.771   1.516  0.0189 -2.2847  0.0275
 3988SOL    HW315685   3.442   1.770   1.382  1.1271  2.0257  0.4366
 3988SOL    MW415686   3.372   1.789   1.431  0.6872  0.1883  0.5645
 3989SOL     OW15687   2.721   1.538   5.953 -0.8793  0.3471  0.2176
 3989SOL    HW215688   2.733   1.629   5.980 -1.6485  1.1241 -1.8550
 3989SOL    HW315689   2.627   1.530   5.936 -0.6680 -0.5250 -0.6521
 3989SOL    MW415690   2.710   1.549   5.954  0.2875  0.3228  0.5638
 3990SOL     OW15691   6.119   1.398   3.625  0.3182  0.5667 -0.3456
 3990SOL    HW215692   6.097   1.308   3.599  0.9759  0.1438  0.5115
 3990SOL    HW315693   6.037   1.446   3.614 -0.8959 -0.7803  1.9856
 3990SOL    MW415694   6.105   1.392   3.620  0.1170  0.2580 -0.4318
 3991SOL     OW15695   4.525   4.381   3.142  0.4131  0.2360 -0.7346
 3991SOL    HW215696   4.585   4.455   3.152 -1.6449  1.9217 -0.3733
 3991SOL    HW315697   4.498   4.384   3.050  1.4902 -1.0671 -1.1322
 3991SOL    MW415698   4.530   4.391   3.131 -0.1689  0.7363 -0.2267
 3992SOL     OW15699   1.332   3.918   5.209  0.3103 -0.0560 -0.3095
 3992SOL    HW215700   1.359   3.995   5.260 -0.5876 -0.7710  1.3391
 3992SOL    HW315701   1.266   3.952   5.148  1.4403  0.8294 -1.0750
 3992SOL    MW415702   1.327   3.933   5.208  0.4023 -0.8306  0.3569
 3993SOL     OW15703   1.398   0.880   0.586 -0.4220 -0.6125 -0.0662
 3993SOL    HW215704   1.456   0.882   0.662  0.2567  0.4288 -0.5849
 3993SOL    HW315705   1.426   0.803   0.536  1.8173  0.8424 -1.2478
 3993SOL    MW415706   1.410   0.870   0.589 -0.0849 -0.2241 -0.2209
 3994SOL     OW15707   0.315   4.991   0.344  0.2479  0.3562 -0.1677
 3994SOL    HW215708   0.356   4.981   0.430  1.6954  1.2319 -0.7246
 3994SOL    HW315709   0.284   5.082   0.343  3.7235  1.7027 -1.9322
 3994SOL    MW415710   0.316   5.002   0.355  0.0387  0.5707  0.3984
 3995SOL     OW15711   4.171   3.481   4.161  0.5289  0.2268  0.1401
 3995SOL    HW215712   4.181   3.386   4.168  0.7972  0.0386 -2.0171
 3995SOL    HW315713   4.096   3.492   4.103  0.3558  1.3362  0.5720
 3995SOL    MW415714   4.163   3.470   4.154 -0.2275  0.0985 -0.0683
 3996SOL     OW15715   3.545   3.815   5.958 -0.7832 -0.3556 -0.0048
 3996SOL    HW215716   3.630   3.780   5.932 -0.8376 -0.3956 -0.1338
 3996SOL    HW315717   3.526   3.882   5.892 -0.8484 -0.3432  0.0267
 3996SOL    MW415718   3.554   3.819   5.946 -0.2363 -0.6669 -0.0386
 3997SOL     OW15719   0.034   1.691   0.763  0.4073  0.5486 -0.7024
 3997SOL    HW215720  -0.017   1.701   0.683  0.4838 -1.9623 -1.1217
 3997SOL    HW315721  -0.011   1.748   0.827 -1.2280  0.5533 -1.7967
 3997SOL    MW415722   0.021   1.700   0.761 -0.0662  0.3617 -0.5193
 3998SOL     OW15723   0.401   2.097   0.723 -0.0449  0.5401  0.4797
 3998SOL    HW215724   0.460   2.038   0.770  1.4909  1.2922 -0.4313
 3998SOL    HW315725   0.316   2.052   0.725  0.3686 -0.2495  2.4329
 3998SOL    MW415726   0.397   2.083   0.729  0.1983 -0.5775  0.5540
 3999SOL     OW15727   3.312   2.003   4.312  0.6315  0.7921  0.3379
 3999SOL    HW215728   3.358   1.926   4.346 -1.0643 -0.0060  0.9136
 3999SOL    HW315729   3.367   2.033   4.239  2.1597  0.0254  1.1138
 3999SOL    MW415730   3.326   1.997   4.307  0.0443  0.2598  0.0989
 4000SOL     OW15731   1.739   2.838   3.372 -0.3752  0.1369 -0.1512
 4000SOL    HW215732   1.734   2.892   3.293  1.8201  0.1991 -0.3071
 4000SOL    HW315733   1.678   2.766   3.356  0.3626 -0.1043 -2.1343
 4000SOL    MW415734   1.731   2.836   3.359 -0.4344 -0.0839  0.0251
 4001SOL     OW15735   5.627   2.120   0.455  0.5207 -0.2420  0.0440
 4001SOL    HW215736   5.605   2.162   0.537  0.9689 -0.4082  0.2550
 4001SOL    HW315737   5.668   2.037   0.480  0.1122 -0.5692 -0.3570
 4001SOL    MW415738   5.630   2.115   0.469 -0.2932  0.1761 -0.2044
 4002SOL     OW15739   4.301   3.890   1.046  0.1358 -0.7542 -0.2156
 4002SOL    HW215740   4.287   3.896   1.140  0.3031  1.9544 -0.2786
 4002SOL    HW315741   4.392   3.863   1.037  0.3860 -0.1720  0.4464
 4002SOL    MW415742   4.311   3.888   1.057  0.1746 -0.2355 -0.1649
 4003SOL     OW15743   3.568   5.131   1.249 -0.4334 -0.5432  0.4803
 4003SOL    HW215744   3.556   5.122   1.344 -2.6974  0.3037  0.3198
 4003SOL    HW315745   3.548   5.223   1.231  1.9904 -0.1323 -0.6059
 4003SOL    MW415746   3.564   5.142   1.259 -0.4634  0.4640 -0.3057
 4004SOL     OW15747   5.861   4.632   6.324 -0.4378 -0.4511 -0.2022
 4004SOL    HW215748   5.884   4.725   6.318 -1.0727 -0.3662 -2.2135
 4004SOL    HW315749   5.940   4.590   6.357 -0.3287  0.8475  1.3266
 4004SOL    MW415750   5.874   4.639   6.327 -0.0136  0.4063  0.0102
 4005SOL     OW15751   1.283   0.719   5.444  0.0742 -1.0222 -0.3597
 4005SOL    HW215752   1.352   0.762   5.394  2.0888 -2.1343  1.3065
 4005SOL    HW315753   1.246   0.789   5.498 -0.3305 -0.3619 -1.4558
 4005SOL    MW415754   1.287   0.734   5.444 -0.2112  0.4633 -0.1808
 4006SOL     OW15755   4.169   4.114   4.990 -0.6496 -1.0155 -0.0178
 4006SOL    HW215756   4.175   4.168   5.069 -3.6614 -1.0519  0.3816
 4006SOL    HW315757   4.218   4.161   4.924 -0.1989  0.3576  1.2459
 4006SOL    MW415758   4.176   4.127   4.992  0.2500 -0.1825  0.0595
 4007SOL     OW15759   5.270   4.445   4.687  0.3902  0.1715 -0.2094
 4007SOL    HW215760   5.351   4.396   4.701  0.0414 -0.7938 -1.3975
 4007SOL    HW315761   5.213   4.419   4.758  0.2410 -1.1135 -0.7774
 4007SOL    MW415762   5.273   4.435   4.698 -0.1154  0.1889  0.4116
 4008SOL     OW15763   0.243   4.190   5.857 -0.4318  0.6032 -0.6245
 4008SOL    HW215764   0.170   4.230   5.810 -0.6246  1.9753  0.7449
 4008SOL    HW315765   0.251   4.243   5.937  0.1986 -1.2938  0.6375
 4008SOL    MW415766   0.234   4.202   5.862  0.2444  0.5471  0.2914
 4009SOL     OW15767   3.633   4.733   2.320  0.0220  0.1916 -0.1058
 4009SOL    HW215768   3.603   4.679   2.393  2.4199 -0.8453  0.1995
 4009SOL    HW315769   3.709   4.780   2.355  0.5010  0.5708 -1.6058
 4009SOL    MW415770   3.639   4.732   2.335 -0.0497  0.2987  0.4681
 4010SOL     OW15771   4.257   2.523   4.258 -0.1689  0.1853 -0.1661
 4010SOL    HW215772   4.311   2.582   4.311 -0.7071 -0.2611  0.9291
 4010SOL    HW315773   4.179   2.573   4.237 -0.5160 -0.0275  0.5571
 4010SOL    MW415774   4.254   2.537   4.262  0.0625  0.3938  0.3008
 4011SOL     OW15775   3.726   1.519   5.923  0.6484  0.7123 -0.1192
 4011SOL    HW215776   3.700   1.428   5.934  1.2798  0.4410 -0.7444
 4011SOL    HW315777   3.761   1.545   6.008  1.2482  0.1081 -0.1772
 4011SOL    MW415778   3.727   1.510   5.935 -0.2175  0.1528  0.5017
 4012SOL     OW15779   5.819   3.675   0.894  0.1952 -0.1642  0.0403
 4012SOL    HW215780   5.820   3.671   0.990 -0.9085  2.9824  0.2884
 4012SOL    HW315781   5.884   3.742   0.873 -0.5038  0.1087 -1.3238
 4012SOL    MW415782   5.828   3.683   0.904 -0.5375  0.0581  0.2545
 4013SOL     OW15783   6.344   0.537   0.139 -0.6360  0.3356 -0.0482
 4013SOL    HW215784   6.323   0.443   0.144 -0.0595  0.2400  0.7881
 4013SOL    HW315785   6.338   0.558   0.046  0.7689 -0.9080 -0.4684
 4013SOL    MW415786   6.341   0.527   0.127 -0.3243 -0.2481 -0.3052
 4014SOL     OW15787   3.256   4.783   0.895  0.4800  0.0822 -0.1404
 4014SOL    HW215788   3.323   4.844   0.925  1.2126 -1.4201  1.4407
 4014SOL    HW315789   3.287   4.753   0.810 -0.2244  2.3379 -1.2630
 4014SOL    MW415790   3.269   4.787   0.888  0.2756 -0.1646 -0.2085
 4015SOL     OW15791   0.106   1.949   1.100  0.5471 -0.5131  0.2450
 4015SOL    HW215792   0.074   1.996   1.177 -2.5062  1.1505 -1.8141
 4015SOL    HW315793   0.127   2.019   1.037  0.9983 -1.8341 -1.1275
 4015SOL    MW415794   0.105   1.965   1.102 -0.0896 -0.7009  0.9159
 4016SOL     OW15795   3.593   3.369   2.527  0.3194 -0.3749 -0.0777
 4016SOL    HW215796   3.498   3.385   2.521 -0.1309 -1.9344  2.0147
 4016SOL    HW315797   3.614   3.323   2.445 -0.0775  2.5314 -1.9518
 4016SOL    MW415798   3.583   3.365   2.515  0.0714  0.4064  0.4941
 4017SOL     OW15799   2.294   2.421   3.493 -0.0852  0.0731  0.5508
 4017SOL    HW215800   2.276   2.464   3.409 -0.7994 -0.3837  0.4563
 4017SOL    HW315801   2.388   2.405   3.492 -0.0529  0.2610 -0.0727
 4017SOL    MW415802   2.304   2.424   3.481  0.4573  0.0625  0.2693
 4018SOL     OW15803   3.634   3.102   4.840  0.0050  0.2069 -0.3526
 4018SOL    HW215804   3.665   3.142   4.920  2.3555 -1.8525 -0.1234
 4018SOL    HW315805   3.619   3.010   4.863 -3.6043  0.3918 -1.2364
 4018SOL    MW415806   3.636   3.095   4.853 -0.4837  0.7958  0.5317
 4019SOL     OW15807   5.774   4.578   0.437 -0.6193 -0.5465  0.0778
 4019SOL    HW215808   5.699   4.636   0.423  0.0659  0.4039  0.2719
 4019SOL    HW315809   5.746   4.494   0.403 -2.1467 -0.4699  1.0447
 4019SOL    MW415810   5.761   4.575   0.431 -0.3436  0.1161  0.7908
 4020SOL     OW15811   2.512   2.927   4.662  0.6210 -0.1161 -0.4827
 4020SOL    HW215812   2.606   2.938   4.677  0.5698  0.2416 -0.4020
 4020SOL    HW315813   2.486   3.006   4.615  0.1809  0.2469  0.3399
 4020SOL    MW415814   2.521   2.939   4.658  0.0491 -0.1539  0.1734
 4021SOL     OW15815   1.923   1.589   2.515 -0.3834  0.0787 -0.0833
 4021SOL    HW215816   2.002   1.574   2.567  0.0203  1.1834 -0.3491
 4021SOL    HW315817   1.883   1.502   2.506  0.9096 -0.5364 -0.1122
 4021SOL    MW415818   1.928   1.575   2.521 -0.1515 -0.8620 -0.1120
 4022SOL     OW15819   0.633   0.467   5.842  0.2234 -0.1903  0.4605
 4022SOL    HW215820   0.632   0.419   5.759  0.4564  4.1997 -2.4192
 4022SOL    HW315821   0.540   0.482   5.862  0.0797  2.1792 -1.4725
 4022SOL    MW415822   0.620   0.463   5.834  0.4251  0.0224 -0.2427
 4023SOL     OW15823   0.281   3.965   1.950 -0.1900  0.2635  0.6978
 4023SOL    HW215824   0.185   3.968   1.950 -0.3522 -1.3431 -2.3653
 4023SOL    HW315825   0.308   4.053   1.925 -1.0384 -0.0262 -1.3719
 4023SOL    MW415826   0.272   3.977   1.947 -0.2333  0.3163  0.2074
 4024SOL     OW15827   3.695   4.637   4.842  0.0093  0.1914 -0.2511
 4024SOL    HW215828   3.607   4.642   4.878  0.3751 -0.2711  0.7243
 4024SOL    HW315829   3.742   4.712   4.880  0.8065 -1.0973  1.4479
 4024SOL    MW415830   3.690   4.647   4.851  0.4368  0.1100 -0.8240
 4025SOL     OW15831   3.242   1.586   1.153  0.0277  0.5830 -0.2443
 4025SOL    HW215832   3.227   1.655   1.088  0.4261  0.7120 -0.2037
 4025SOL    HW315833   3.301   1.626   1.217  1.5021 -0.2669 -1.0317
 4025SOL    MW415834   3.248   1.601   1.153 -0.1837 -0.0473  0.0162
 4026SOL     OW15835   2.060   3.895   2.686 -0.2799 -0.2165  0.1475
 4026SOL    HW215836   2.123   3.849   2.742 -0.3141  0.9173  1.1399
 4026SOL    HW315837   1.978   3.892   2.734 -0.4107  0.3985 -0.0292
 4026SOL    MW415838   2.058   3.888   2.700  0.2645 -0.3598 -0.0705
 4027SOL     OW15839   1.268   6.307   0.577  0.2083 -0.0631  0.5052
 4027SOL    HW215840   1.181   6.273   0.595  0.4374 -0.2789  1.2447
 4027SOL    HW315841   1.285   6.282   0.486 -0.2771 -0.4989  0.5300
 4027SOL    MW415842   1.259   6.299   0.567 -0.0570 -0.2185  0.2642
 4028SOL     OW15843   5.527   2.436   3.246  0.1161 -0.1390 -0.6304
 4028SOL    HW215844   5.544   2.516   3.294  0.7471  0.6489 -2.0930
 4028SOL    HW315845   5.594   2.374   3.275  0.2109  0.1760 -0.1833
 4028SOL    MW415846   5.538   2.438   3.256 -0.0838 -0.5695  0.4814
 4029SOL     OW15847   2.976   2.498  -0.031 -0.0388 -0.1626 -0.4312
 4029SOL    HW215848   2.917   2.568  -0.005 -0.2560 -0.7054  0.6101
 4029SOL    HW315849   2.922   2.419  -0.029  0.6979 -0.6705  0.5494
 4029SOL    MW415850   2.961   2.497  -0.027 -0.3700 -0.4390 -0.2560
 4030SOL     OW15851   0.222   4.112   1.105 -0.0748 -0.6135 -0.5413
 4030SOL    HW215852   0.232   4.166   1.184 -0.1683 -0.5209 -0.5926
 4030SOL    HW315853   0.129   4.090   1.102 -0.2955  0.3805 -1.2803
 4030SOL    MW415854   0.211   4.116   1.115 -0.5206  0.7692  0.0256
 4031SOL     OW15855   2.628   4.215   6.131 -0.6670 -0.2923 -0.0452
 4031SOL    HW215856   2.570   4.143   6.106 -1.0842 -0.6482  1.8194
 4031SOL    HW315857   2.593   4.291   6.084 -1.1746 -0.9880 -0.8081
 4031SOL    MW415858   2.616   4.216   6.121 -0.2199  0.2008 -0.4611
 4032SOL     OW15859   3.464   3.275   4.680  0.3140  0.5559  0.1487
 4032SOL    HW215860   3.526   3.347   4.690 -0.7655  1.3735  1.1251
 4032SOL    HW315861   3.502   3.203   4.731  2.0995 -0.1044 -1.9480
 4032SOL    MW415862   3.477   3.275   4.688  0.3720 -0.0520 -0.4899
 4033SOL     OW15863   6.208   4.474   3.826  0.5971 -0.0586  0.5788
 4033SOL    HW215864   6.279   4.420   3.793  1.7093  0.6076  1.7930
 4033SOL    HW315865   6.194   4.443   3.916  0.4272  0.8503  0.8781
 4033SOL    MW415866   6.215   4.463   3.833  0.2331  0.3730  0.0025
 4034SOL     OW15867   5.908   0.521   0.867 -0.1884  0.0087  0.1477
 4034SOL    HW215868   5.913   0.615   0.884  1.0620  0.3345 -1.7841
 4034SOL    HW315869   5.929   0.481   0.952  2.3368  1.5174  0.3537
 4034SOL    MW415870   5.912   0.528   0.881  0.1376 -0.4639 -0.4350
 4035SOL     OW15871   1.464   5.199   0.806  0.0751 -0.1544  0.0479
 4035SOL    HW215872   1.552   5.230   0.785 -0.6840  1.0804 -1.5203
 4035SOL    HW315873   1.447   5.128   0.745 -0.0360 -0.3719  0.3271
 4035SOL    MW415874   1.473   5.194   0.795  0.2174 -0.2654  0.0633
 4036SOL     OW15875   1.583   0.417   0.624 -0.1676 -0.1202 -0.1242
 4036SOL    HW215876   1.572   0.368   0.706 -2.6567 -0.5180 -0.6016
 4036SOL    HW315877   1.556   0.506   0.647 -3.1649 -0.7128 -0.9260
 4036SOL    MW415878   1.578   0.423   0.638  0.1032 -0.2576 -0.3538
 4037SOL     OW15879   3.923   2.990   4.325 -0.0023  0.1570  0.0303
 4037SOL    HW215880   3.960   3.064   4.373 -0.7140  0.3240  0.3301
 4037SOL    HW315881   3.867   3.029   4.259 -1.6048 -0.1134  1.1737
 4037SOL    MW415882   3.921   3.005   4.322  1.0223  0.0356 -0.6875
 4038SOL     OW15883   1.039   3.615   0.338  0.6423 -0.4712 -0.0688
 4038SOL    HW215884   1.068   3.638   0.250 -0.4239  0.9452 -0.0847
 4038SOL    HW315885   1.014   3.523   0.332  1.9059 -0.7881 -0.8687
 4038SOL    MW415886   1.039   3.606   0.326 -0.0415  0.2279 -0.7212
 4039SOL     OW15887   4.648   6.220   5.799  0.0455 -0.2463 -0.2483
 4039SOL    HW215888   4.565   6.265   5.785  0.4875  0.6665 -0.0019
 4039SOL    HW315889   4.693   6.272   5.865  0.8362 -0.6932 -0.4214
 4039SOL    MW415890   4.643   6.233   5.806  0.7853 -0.1034  0.4977
 4040SOL     OW15891   0.118   4.893   5.187 -0.6316  0.2304 -0.4480
 4040SOL    HW215892   0.210   4.920   5.181 -0.3226 -0.4963  0.6674
 4040SOL    HW315893   0.116   4.806   5.149 -0.7680  0.0720 -0.0850
 4040SOL    MW415894   0.130   4.885   5.182 -0.4242 -0.4351  0.0876
 4041SOL     OW15895   5.823   2.094   5.157 -0.6931 -0.1439 -0.0560
 4041SOL    HW215896   5.766   2.017   5.151 -1.8209  0.7614 -1.5082
 4041SOL    HW315897   5.813   2.138   5.073  1.8560  0.3045 -0.2028
 4041SOL    MW415898   5.814   2.089   5.145  0.5552  0.0555 -0.8093
 4042SOL     OW15899   5.804   5.000   1.593 -0.0834  0.0917 -0.1895
 4042SOL    HW215900   5.858   5.077   1.579  1.0181 -0.6897 -0.3601
 4042SOL    HW315901   5.863   4.926   1.579 -0.9478 -0.7872  0.6221
 4042SOL    MW415902   5.819   5.000   1.589  0.5512 -0.4390 -0.0658
 4043SOL     OW15903   3.202   4.682   0.067 -0.4421 -0.0528 -0.1066
 4043SOL    HW215904   3.202   4.635   0.151  0.2808  1.2470  0.6577
 4043SOL    HW315905   3.277   4.645   0.020  0.2810  0.4684  0.5931
 4043SOL    MW415906   3.212   4.671   0.072 -0.3118 -0.1652  0.0308
 4044SOL     OW15907   4.947   6.290   4.235  0.2875 -0.0857  0.1883
 4044SOL    HW215908   4.892   6.333   4.301  1.9464  1.0442  0.9314
 4044SOL    HW315909   4.941   6.346   4.158 -0.0428 -0.2738  0.0769
 4044SOL    MW415910   4.939   6.303   4.234 -0.3945 -0.3088 -0.3646
 4045SOL     OW15911   3.217   2.101   1.141 -0.2513 -0.6296 -0.2202
 4045SOL    HW215912   3.188   2.029   1.197 -0.2668 -0.9641 -0.6448
 4045SOL    HW315913   3.278   2.151   1.195  0.3170 -1.3753 -0.1388
 4045SOL    MW415914   3.221   2.098   1.155 -0.3897  0.3693  0.1390
 4046SOL     OW15915   4.419   0.672   5.430  0.0239  0.1186  0.4118
 4046SOL    HW215916   4.352   0.734   5.401  0.5341 -0.4409 -2.2900
 4046SOL    HW315917   4.496   0.696   5.379  0.3908 -2.3644 -0.3185
 4046SOL    MW415918   4.420   0.684   5.419  0.0248  0.0341  0.4636
 4047SOL     OW15919   4.797   3.961   4.363 -0.3516 -0.3460 -0.0630
 4047SOL    HW215920   4.867   4.008   4.317  0.0020 -1.2066 -0.4291
 4047SOL    HW315921   4.822   3.964   4.455 -2.1208  3.2417  0.4831
 4047SOL    MW415922   4.809   3.967   4.369  0.1864  0.1581  0.2799
 4048SOL     OW15923   5.906   5.596   4.941 -0.0713 -0.0184  0.6379
 4048SOL    HW215924   5.843   5.588   4.870  0.1214  0.7512  0.3760
 4048SOL    HW315925   5.867   5.546   5.013 -1.4154  1.1483  0.7678
 4048SOL    MW415926   5.893   5.588   4.941 -0.4034 -0.2521 -0.0828
 4049SOL     OW15927   4.797   5.237   4.016 -0.2665  0.3583  0.1535
 4049SOL    HW215928   4.750   5.181   4.078  0.1766 -0.2571 -0.0561
 4049SOL    HW315929   4.889   5.214   4.028  0.0856  2.0008  1.0197
 4049SOL    MW415930   4.803   5.227   4.026 -0.2824  0.1628 -0.1444
 4050SOL     OW15931   4.598   4.850   3.646 -0.4407  0.2160 -0.2019
 4050SOL    HW215932   4.662   4.906   3.689  0.0589 -1.1969  0.9514
 4050SOL    HW315933   4.629   4.761   3.661 -1.0305 -0.4058 -2.2719
 4050SOL    MW415934   4.610   4.846   3.654 -0.2891 -0.1835 -0.0407
 4051SOL     OW15935   4.810   2.274   2.829 -0.6807  0.2053  0.5899
 4051SOL    HW215936   4.767   2.348   2.873 -1.3156  0.5180 -0.5222
 4051SOL    HW315937   4.887   2.313   2.786  0.0108 -0.1225  1.4821
 4051SOL    MW415938   4.815   2.289   2.829 -0.1306  0.5784 -0.1837
 4052SOL     OW15939   3.782   0.297   4.252  0.0824  0.5954 -0.1396
 4052SOL    HW215940   3.687   0.308   4.254  0.0763  0.7958 -1.3361
 4052SOL    HW315941   3.798   0.234   4.182  0.7602 -0.3684  0.8385
 4052SOL    MW415942   3.772   0.290   4.243  0.0974 -0.2192  0.0087
 4053SOL     OW15943   4.454   2.639   0.470  0.3442  0.1529  0.4778
 4053SOL    HW215944   4.451   2.721   0.518  0.5449 -0.6476  1.9247
 4053SOL    HW315945   4.545   2.631   0.442 -0.0258  1.1861 -1.0973
 4053SOL    MW415946   4.465   2.649   0.473  0.1921 -0.1363  0.0213
 4054SOL     OW15947   6.092   2.968   2.853  0.3128  0.0992 -1.4225
 4054SOL    HW215948   6.125   2.950   2.941 -2.4087  0.9109 -0.1358
 4054SOL    HW315949   6.111   2.888   2.804  3.7883  0.4004 -0.7868
 4054SOL    MW415950   6.099   2.955   2.858  0.2641 -0.2553  0.3700
 4055SOL     OW15951   2.401   1.891   2.731  0.2758 -0.3061 -0.1799
 4055SOL    HW215952   2.410   1.816   2.673 -0.1337 -1.5970  1.3486
 4055SOL    HW315953   2.444   1.963   2.684 -0.8091 -1.0465 -2.4378
 4055SOL    MW415954   2.408   1.890   2.717 -0.1700  0.3242  0.2262
 4056SOL     OW15955   4.696   6.209   2.440  0.1762  0.0186 -0.3725
 4056SOL    HW215956   4.773   6.153   2.450 -1.0370 -1.3855  1.8493
 4056SOL    HW315957   4.717   6.289   2.489 -0.4182 -1.1261  1.8510
 4056SOL    MW415958   4.709   6.212   2.448  0.6055 -0.2219  0.7152
 4057SOL     OW15959   0.896   5.571   0.762  0.3287  0.3442 -0.3355
 4057SOL    HW215960   0.906   5.481   0.794 -1.3617  0.0588 -0.5090
 4057SOL    HW315961   0.983   5.596   0.733  1.0093 -0.9382  0.4928
 4057SOL    MW415962   0.908   5.562   0.763  0.5299 -0.0243 -0.1343
 4058SOL     OW15963   6.353   2.937   3.676 -0.1500  0.2332 -0.0385
 4058SOL    HW215964   6.267   2.932   3.717 -0.3402  1.4176 -0.2420
 4058SOL    HW315965   6.384   3.025   3.697  0.8678 -0.0559 -0.2642
 4058SOL    MW415966   6.345   2.948   3.684  0.4124  0.2683  0.4397
 4059SOL     OW15967   4.905   5.613   3.006  0.3534  0.3365 -0.2083
 4059SOL    HW215968   4.919   5.539   2.946 -1.1823  0.5135 -0.8238
 4059SOL    HW315969   4.926   5.579   3.092 -0.3745 -0.8375 -0.4815
 4059SOL    MW415970   4.910   5.599   3.009  0.1451  0.6062  0.0202
 4060SOL     OW15971   6.288   0.441   5.755 -0.3763 -0.0653 -0.5505
 4060SOL    HW215972   6.382   0.450   5.774 -0.6474  0.5700  0.5625
 4060SOL    HW315973   6.278   0.473   5.666  0.4453 -0.0306 -0.6383
 4060SOL    MW415974   6.299   0.446   5.746 -0.2251 -0.1234  0.3788
 4061SOL     OW15975   2.984   6.143   5.896  0.7154 -0.0305  0.3504
 4061SOL    HW215976   3.056   6.188   5.941  0.7381 -1.2913  1.6525
 4061SOL    HW315977   2.909   6.201   5.906  1.4948  1.2596 -0.9432
 4061SOL    MW415978   2.984   6.156   5.904  0.1722 -0.6077 -0.3167
 4062SOL     OW15979   0.798   1.675   0.844  0.0105 -0.4632  0.3339
 4062SOL    HW215980   0.735   1.748   0.850 -0.9557 -1.3789  2.4944
 4062SOL    HW315981   0.760   1.616   0.778 -0.0211  0.2211 -0.2723
 4062SOL    MW415982   0.784   1.677   0.836 -0.5051 -0.1958 -0.3553
 4063SOL     OW15983   3.935   1.300   0.107  0.2965 -0.2095  0.1838
 4063SOL    HW215984   3.893   1.384   0.088  1.1240  0.2004  0.1535
 4063SOL    HW315985   4.016   1.323   0.153  0.1672 -1.0236  0.8510
 4063SOL    MW415986   3.940   1.314   0.111  0.1979 -0.2861  0.0892
 4064SOL     OW15987   4.157   1.794   5.714  1.0645 -0.0355 -0.2114
 4064SOL    HW215988   4.199   1.864   5.764  3.2419 -0.2077 -1.6802
 4064SOL    HW315989   4.084   1.766   5.769  0.7029  2.7063  0.8639
 4064SOL    MW415990   4.153   1.799   5.728  0.3280  0.2660  0.9341
 4065SOL     OW15991   0.677   0.339   2.545  0.0193  0.2993  0.0929
 4065SOL    HW215992   0.674   0.427   2.508  0.0337 -0.6126 -2.2799
 4065SOL    HW315993   0.770   0.318   2.552  0.0114  0.1408 -0.2467
 4065SOL    MW415994   0.689   0.348   2.541 -0.8862 -0.1698  0.3557
 4066SOL     OW15995   3.319   4.206   2.978  0.0391  0.6040  0.1956
 4066SOL    HW215996   3.367   4.239   2.902  1.8550 -0.5053  0.7889
 4066SOL    HW315997   3.382   4.208   3.049 -0.5872 -1.5115  0.8798
 4066SOL    MW415998   3.333   4.211   2.977 -0.2559  0.4089 -0.5024
 4067SOL     OW15999   2.236   5.512   4.887 -0.3964  0.7476 -0.4370
 4067SOL    HW216000   2.206   5.427   4.921  0.6320  0.4380 -0.2614
 4067SOL    HW316001   2.167   5.539   4.827 -0.8473 -0.1145 -0.3308
 4067SOL    MW416002   2.223   5.504   4.883 -0.3556  0.3101  0.1098
 4068SOL     OW16003   4.433   3.067   0.995 -0.1817 -0.0312  0.6448
 4068SOL    HW216004   4.490   3.048   1.070  0.2862 -0.4683  0.1890
 4068SOL    HW316005   4.405   2.980   0.965 -0.4476  0.1492  0.3720
 4068SOL    MW416006   4.437   3.053   1.001  0.0902  1.0670  0.0956
 4069SOL     OW16007   1.313   5.597   2.893  0.7339  0.2856  0.6209
 4069SOL    HW216008   1.404   5.601   2.922  0.5155  0.8978  1.2740
 4069SOL    HW316009   1.302   5.509   2.860  1.6586  0.3105  0.2189
 4069SOL    MW416010   1.323   5.586   2.893  0.7139 -0.1437 -0.2111
 4070SOL     OW16011   6.038   5.127   2.476  0.7247  0.4004 -0.2882
 4070SOL    HW216012   6.010   5.205   2.429  0.4753  1.6666  1.7987
 4070SOL    HW316013   5.963   5.106   2.533  1.6382  0.0505  0.8282
 4070SOL    MW416014   6.024   5.134   2.478  0.2426  0.0315 -0.0708
 4071SOL     OW16015   6.087   4.048   2.560 -0.1401  0.0250 -0.2956
 4071SOL    HW216016   6.000   4.078   2.532  0.8526  1.3669 -2.1508
 4071SOL    HW316017   6.103   4.095   2.642 -1.8631 -1.6452  1.1065
 4071SOL    MW416018   6.077   4.058   2.567  0.3397 -0.6125 -0.3522
 4072SOL     OW16019   5.804   0.575   1.811 -0.0279  0.0609  0.4164
 4072SOL    HW216020   5.862   0.561   1.736  0.7145  1.2956  0.7424
 4072SOL    HW316021   5.716   0.577   1.773  0.4726  3.6261 -0.9530
 4072SOL    MW416022   5.800   0.573   1.796 -0.8217  0.0743 -0.2605
 4073SOL     OW16023   4.109   2.045   3.675  0.3294  0.0612 -0.4198
 4073SOL    HW216024   4.082   1.953   3.676  0.9697 -0.1263  0.2699
 4073SOL    HW316025   4.153   2.056   3.590  0.9177 -0.4737 -0.1930
 4073SOL    MW416026   4.111   2.034   3.664  0.0727  0.2417 -0.1400
 4074SOL     OW16027   5.068   1.225   3.946  0.6135 -0.2321  0.2533
 4074SOL    HW216028   5.092   1.318   3.939 -0.3710  0.1094  1.0808
 4074SOL    HW316029   5.151   1.179   3.953  1.5336  0.0105 -4.9318
 4074SOL    MW416030   5.082   1.231   3.946  0.1005 -0.1077 -0.1765
 4075SOL     OW16031   4.167   5.912   5.840 -0.0220  0.2607 -0.0233
 4075SOL    HW216032   4.170   5.974   5.766 -0.5348 -0.6269 -0.8096
 4075SOL    HW316033   4.076   5.883   5.843 -0.3784  1.3810  1.9147
 4075SOL    MW416034   4.155   5.917   5.831  0.3965 -0.0219  0.2078
 4076SOL     OW16035   3.670   4.267   2.066 -0.0416 -0.1429  0.1357
 4076SOL    HW216036   3.635   4.354   2.050  0.4400  0.2605  1.2250
 4076SOL    HW316037   3.688   4.265   2.160  2.9963 -0.2685 -0.3587
 4076SOL    MW416038   3.668   4.278   2.076 -0.3684 -0.3231 -0.2625
 4077SOL     OW16039   3.795   6.264   1.721 -0.3241 -0.2026 -0.6021
 4077SOL    HW216040   3.737   6.193   1.693 -1.5695  1.4470 -2.4732
 4077SOL    HW316041   3.746   6.344   1.703  1.6606  1.2175 -0.0781
 4077SOL    MW416042   3.781   6.265   1.715 -0.8383 -0.0125  0.0012
 4078SOL     OW16043   5.409   4.428   5.058  0.6412 -1.1507  0.5044
 4078SOL    HW216044   5.392   4.349   5.007  1.2373 -0.4686 -0.8051
 4078SOL    HW316045   5.495   4.458   5.028 -1.5303  2.7011 -2.7758
 4078SOL    MW416046   5.418   4.421   5.047 -0.7304  0.3015  0.2365
 4079SOL     OW16047   3.208   5.347   3.786 -0.8416  0.2205  0.6879
 4079SOL    HW216048   3.242   5.276   3.841 -0.3294 -0.1852 -0.1392
 4079SOL    HW316049   3.147   5.394   3.843 -1.2846 -0.9603  1.2085
 4079SOL    MW416050   3.204   5.344   3.801  0.1443  0.0678 -0.1454
 4080SOL     OW16051   3.387   2.972   1.366  0.3838  0.0547  0.0598
 4080SOL    HW216052   3.300   3.012   1.363  1.5856  2.9910  1.1321
 4080SOL    HW316053   3.426   2.994   1.281  0.3476 -0.7557 -0.1841
 4080SOL    MW416054   3.380   2.980   1.354 -0.0670 -0.3201 -1.0094
 4081SOL     OW16055   3.136   1.752   2.793 -0.0133 -0.6191  0.1803
 4081SOL    HW216056   3.058   1.696   2.794 -0.2858 -0.2793  2.0943
 4081SOL    HW316057   3.184   1.725   2.714 -0.9282 -2.4116  0.1830
 4081SOL    MW416058   3.132   1.741   2.782  0.3716 -0.2352 -0.3371
 4082SOL     OW16059   4.821   6.218   4.603 -0.2860  0.2777 -0.0610
 4082SOL    HW216060   4.886   6.168   4.652  0.1636  0.0356 -0.8924
 4082SOL    HW316061   4.771   6.153   4.554  0.4905  0.6212 -1.3768
 4082SOL    MW416062   4.823   6.203   4.603  0.8156 -0.2393 -0.4967
 4083SOL     OW16063   0.047   2.513   1.593 -0.3657 -0.3430  0.2349
 4083SOL    HW216064  -0.007   2.445   1.632  0.8658 -1.1468  0.6214
 4083SOL    HW316065   0.137   2.482   1.605  0.1660  0.6640 -0.8832
 4083SOL    MW416066   0.052   2.500   1.599  0.7606 -0.6780  0.7021
 4084SOL     OW16067   2.040   5.332   3.887 -0.3065  0.2890  0.1071
 4084SOL    HW216068   1.974   5.263   3.899  1.0656 -1.0740  0.1865
 4084SOL    HW316069   2.120   5.294   3.923  0.3047  2.3194  1.0042
 4084SOL    MW416070   2.042   5.318   3.893  0.5455 -0.1939 -0.6270
 4085SOL     OW16071   0.210   1.826   3.371  0.2811 -0.2988  0.7081
 4085SOL    HW216072   0.145   1.858   3.308  0.3741 -0.4084  0.5543
 4085SOL    HW316073   0.179   1.738   3.394  0.3446 -0.3297  0.6767
 4085SOL    MW416074   0.197   1.818   3.366  0.0832  0.3577  0.3377
 4086SOL     OW16075   6.230   5.871   3.499 -0.1385  0.2508  0.2323
 4086SOL    HW216076   6.135   5.872   3.503 -0.2468  0.8560 -1.8092
 4086SOL    HW316077   6.254   5.778   3.499 -0.7300  0.0979  0.4511
 4086SOL    MW416078   6.221   5.859   3.500 -0.2675 -0.1168  0.1106
 4087SOL     OW16079   4.962   4.392   2.516  0.2066 -0.4789 -0.8664
 4087SOL    HW216080   4.877   4.431   2.538  1.0888  1.0556  0.0357
 4087SOL    HW316081   4.945   4.337   2.440 -1.6487 -0.4577 -0.5103
 4087SOL    MW416082   4.949   4.390   2.509 -0.2980 -0.2632 -0.2659
 4088SOL     OW16083   3.465   3.469   5.052  0.4705  0.0066 -0.0460
 4088SOL    HW216084   3.446   3.554   5.013  2.1131  0.5875  0.3294
 4088SOL    HW316085   3.459   3.484   5.146  1.3476 -0.1166  0.0412
 4088SOL    MW416086   3.462   3.482   5.059 -0.1422 -0.2758 -0.1570
 4089SOL     OW16087   2.805   3.524   5.983 -0.2886  0.0104 -0.5482
 4089SOL    HW216088   2.832   3.604   5.939 -1.7566  0.6198 -0.3801
 4089SOL    HW316089   2.750   3.478   5.920  0.1412 -0.6494 -0.4652
 4089SOL    MW416090   2.802   3.528   5.969  0.3446  0.1651 -0.7061
 4090SOL     OW16091   1.016   6.316   2.953  0.9402  0.2569 -0.4456
 4090SOL    HW216092   0.947   6.381   2.939 -0.9440 -1.7945 -1.2769
 4090SOL    HW316093   1.079   6.332   2.883 -0.0887  0.4570 -1.3416
 4090SOL    MW416094   1.015   6.327   2.942 -0.0434 -1.0917 -0.5199
 4091SOL     OW16095   5.797   1.557   2.883  0.3127 -0.0977 -0.2471
 4091SOL    HW216096   5.776   1.544   2.975  0.1947 -2.6792 -0.5547
 4091SOL    HW316097   5.757   1.641   2.861  0.2623  0.5361  2.0088
 4091SOL    MW416098   5.789   1.567   2.892  0.0182 -0.3070  0.1983
 4092SOL     OW16099   6.158   2.613   4.720 -0.2077  0.3272  0.4214
 4092SOL    HW216100   6.210   2.693   4.728 -0.3490  0.2619  2.1787
 4092SOL    HW316101   6.223   2.543   4.715 -0.0985  0.3570  1.3127
 4092SOL    MW416102   6.174   2.614   4.720  0.2970 -0.0518 -0.2645
 4093SOL     OW16103   2.455   1.753   2.337  0.1821  0.6689  0.6655
 4093SOL    HW216104   2.546   1.781   2.335  0.2401  0.7665  2.5346
 4093SOL    HW316105   2.405   1.833   2.319  0.4397  0.5690 -0.5841
 4093SOL    MW416106   2.460   1.767   2.335 -0.0943  0.0390 -0.5682
 4094SOL     OW16107   3.429   4.984   0.207 -0.4357  0.0392 -0.4188
 4094SOL    HW216108   3.489   4.915   0.179  0.3435  0.8345 -0.7326
 4094SOL    HW316109   3.459   5.008   0.295  0.3764  1.1448 -0.9696
 4094SOL    MW416110   3.441   4.978   0.215  0.1804  0.1737 -0.9321
 4095SOL     OW16111   6.031   0.758   2.166  0.3992 -0.5720 -0.0121
 4095SOL    HW216112   6.072   0.741   2.082 -0.3921  0.1026 -0.5445
 4095SOL    HW316113   6.084   0.828   2.205  0.6053 -0.6967 -0.0694
 4095SOL    MW416114   6.043   0.765   2.160 -0.0628 -0.0671  0.3187
 4096SOL     OW16115   3.961   5.648   1.017 -0.1712 -0.0173 -0.0232
 4096SOL    HW216116   3.933   5.677   0.930 -3.5622  3.1441  1.8497
 4096SOL    HW316117   4.042   5.696   1.033  0.4387 -0.5681 -1.3574
 4096SOL    MW416118   3.968   5.658   1.008  0.5352 -0.2518 -0.1378
 4097SOL     OW16119   1.341   3.019   0.655  0.2066  0.3277 -0.1997
 4097SOL    HW216120   1.350   3.063   0.571  1.3414 -0.2112 -0.3823
 4097SOL    HW316121   1.408   2.950   0.654  0.8152  0.8254  1.4532
 4097SOL    MW416122   1.351   3.015   0.644  0.9818 -0.3101  0.6524
 4098SOL     OW16123   2.407   4.949   4.327  0.1211 -0.0759  0.4405
 4098SOL    HW216124   2.477   4.976   4.268  0.1671 -0.5853  0.2520
 4098SOL    HW316125   2.429   4.990   4.411  0.9715 -0.6830  0.5357
 4098SOL    MW416126   2.419   4.958   4.330  0.2519 -0.0917 -0.2152
 4099SOL     OW16127   0.079   1.445   5.572  0.3103  0.2419 -0.4190
 4099SOL    HW216128   0.008   1.458   5.510  0.5349  0.4974 -0.6258
 4099SOL    HW316129   0.062   1.509   5.641 -0.5785 -0.8005  0.3794
 4099SOL    MW416130   0.067   1.455   5.573 -0.3111 -0.6454  0.6049
 4100SOL     OW16131   0.587   5.401   4.428 -0.5561  0.4216 -0.5827
 4100SOL    HW216132   0.651   5.457   4.473 -0.5493  0.1483 -0.2519
 4100SOL    HW316133   0.638   5.327   4.396 -0.5138  0.7320 -1.2696
 4100SOL    MW416134   0.602   5.399   4.430 -0.1346  0.3495 -0.0102
 4101SOL     OW16135   0.196   0.189   2.406 -0.2870 -0.2347 -0.0223
 4101SOL    HW216136   0.147   0.129   2.462  0.6816  1.7404  3.1541
 4101SOL    HW316137   0.287   0.165   2.418 -0.0479  0.3642 -0.5901
 4101SOL    MW416138   0.201   0.178   2.415 -0.0184 -0.3839 -0.3431
 4102SOL     OW16139   1.049   5.859   1.492 -0.4460  0.2528  0.1454
 4102SOL    HW216140   1.064   5.894   1.580  0.7960 -0.0897  0.0963
 4102SOL    HW316141   1.116   5.791   1.482  0.1862  1.0434 -1.4798
 4102SOL    MW416142   1.060   5.855   1.502  0.3064  0.2626 -0.2856
 4103SOL     OW16143   1.701   0.471   3.076 -0.0574  0.6399 -0.2262
 4103SOL    HW216144   1.731   0.423   2.999  1.3587 -0.3973  0.9248
 4103SOL    HW316145   1.772   0.531   3.096 -0.8098  1.5539 -0.2475
 4103SOL    MW416146   1.714   0.472   3.069 -0.1187 -0.2806 -0.3790
 4104SOL     OW16147   1.515   1.990   2.986  0.2560  0.0750  0.0773
 4104SOL    HW216148   1.460   2.065   3.007  0.6293  0.2256  0.5427
 4104SOL    HW316149   1.597   2.006   3.034  1.2621  0.5799 -1.7329
 4104SOL    MW416150   1.519   2.002   2.995  0.1674 -0.9249  0.4972
 4105SOL     OW16151   0.849   2.211   6.245 -0.4713 -0.3263 -0.0869
 4105SOL    HW216152   0.867   2.239   6.155 -1.7502  0.5929 -0.0871
 4105SOL    HW316153   0.850   2.292   6.296 -0.1889 -0.7882  0.6686
 4105SOL    MW416154   0.852   2.225   6.240  0.0358 -1.1309 -0.0990
 4106SOL     OW16155   4.595   0.353   3.560 -0.4558  0.1076 -0.5734
 4106SOL    HW216156   4.620   0.445   3.556 -1.0285  0.3196  0.3950
 4106SOL    HW316157   4.674   0.306   3.534 -0.9732  0.8946 -3.9541
 4106SOL    MW416158   4.609   0.359   3.556 -0.6454 -0.2440  0.2925
 4107SOL     OW16159   3.831   4.544   5.520  0.2560  0.4548  0.3635
 4107SOL    HW216160   3.811   4.590   5.602  1.1745  1.4523  0.0430
 4107SOL    HW316161   3.886   4.605   5.471 -0.8186  0.1487 -1.2988
 4107SOL    MW416162   3.835   4.558   5.525 -0.1198 -0.6499 -0.0880
 4108SOL     OW16163   0.486   6.113   4.246  0.9025  0.1629  0.6348
 4108SOL    HW216164   0.547   6.053   4.201  0.4879  2.0116 -2.7476
 4108SOL    HW316165   0.541   6.187   4.272  0.3396  1.9761 -2.6917
 4108SOL    MW416166   0.502   6.115   4.243  0.0375 -0.3845  0.3006
 4109SOL     OW16167   4.768   1.213   6.327  0.2189  0.2811 -0.3257
 4109SOL    HW216168   4.828   1.237   6.398  0.3636  1.6092 -0.8557
 4109SOL    HW316169   4.706   1.153   6.368  0.6513  0.5531  0.7798
 4109SOL    MW416170   4.768   1.209   6.342  0.9845  0.4418  0.0843
 4110SOL     OW16171   4.659   4.116   3.939  0.8151 -0.0781  0.1518
 4110SOL    HW216172   4.643   4.208   3.959  2.4982  0.0031  1.3476
 4110SOL    HW316173   4.754   4.106   3.948  0.8903 -1.5400 -1.7034
 4110SOL    MW416174   4.670   4.127   3.943  0.7227  0.1565  0.0638
 4111SOL     OW16175   3.382   1.478   5.021  0.1837  0.1382  0.4079
 4111SOL    HW216176   3.449   1.454   4.957 -0.4945  0.5278 -0.4849
 4111SOL    HW316177   3.363   1.397   5.068  0.2584 -0.3064 -0.3161
 4111SOL    MW416178   3.388   1.465   5.019 -0.2790  1.2325  0.6486
 4112SOL     OW16179   5.860   2.433   2.543 -0.4004 -0.0289 -0.0189
 4112SOL    HW216180   5.944   2.418   2.498  0.4404  1.0757  1.1158
 4112SOL    HW316181   5.846   2.352   2.593  0.0398 -0.1926 -0.1478
 4112SOL    MW416182   5.869   2.420   2.544  0.1823 -0.3280  0.4690
 4113SOL     OW16183   1.448   4.179   0.198  0.2997 -0.3840  0.8623
 4113SOL    HW216184   1.445   4.102   0.255 -0.3744 -0.4841  0.6956
 4113SOL    HW316185   1.484   4.146   0.115  0.0720 -0.5057  0.8119
 4113SOL    MW416186   1.453   4.165   0.194 -0.5230  0.2494 -0.3568
 4114SOL     OW16187   4.708   5.344   3.285 -0.0085 -0.2489  0.1175
 4114SOL    HW216188   4.690   5.316   3.195  0.7872  0.5190 -0.2879
 4114SOL    HW316189   4.682   5.436   3.288  2.4404  0.5223 -0.1160
 4114SOL    MW416190   4.702   5.352   3.274  0.8546 -0.1259 -0.8657
 4115SOL     OW16191   5.644   3.217   5.460 -0.2568  0.0546 -0.5852
 4115SOL    HW216192   5.669   3.304   5.491 -0.7955  0.0039  0.0178
 4115SOL    HW316193   5.682   3.157   5.525 -1.4705 -0.0484  0.0653
 4115SOL    MW416194   5.652   3.221   5.473 -0.4235  0.1321  0.4146
 4116SOL     OW16195   0.350   2.421   1.563 -0.5584 -0.6390  0.5109
 4116SOL    HW216196   0.366   2.416   1.469 -1.1376  0.4055  0.3359
 4116SOL    HW316197   0.370   2.334   1.596  2.5778 -0.2650 -0.1033
 4116SOL    MW416198   0.354   2.409   1.555  0.6286  0.7002 -0.3940
 4117SOL     OW16199   2.609   6.144   4.463 -0.0138  0.9353  0.4641
 4117SOL    HW216200   2.662   6.157   4.384  1.2425  0.3021  1.1623
 4117SOL    HW316201   2.529   6.102   4.433  0.5790  0.4293 -0.4456
 4117SOL    MW416202   2.606   6.141   4.449 -0.2723  0.2718 -0.2556
 4118SOL     OW16203   5.966   5.351   5.152  0.0677  0.1869 -0.1138
 4118SOL    HW216204   6.006   5.405   5.220 -1.1879 -0.1108  0.9093
 4118SOL    HW316205   6.038   5.299   5.116  0.5398 -0.8880  2.1828
 4118SOL    MW416206   5.980   5.351   5.157 -0.0627  0.4720  0.9550
 4119SOL     OW16207   3.379   0.985   5.213  0.1541  1.4128 -0.2168
 4119SOL    HW216208   3.405   0.899   5.180  2.1954  1.5469  0.8476
 4119SOL    HW316209   3.462   1.027   5.237 -0.8403  3.4215 -0.0646
 4119SOL    MW416210   3.393   0.979   5.212 -0.0724 -0.0115  0.5347
 4120SOL     OW16211   2.498   4.301   4.173 -0.0022  0.1151 -0.1239
 4120SOL    HW216212   2.461   4.262   4.252  1.0610  1.2278  0.9625
 4120SOL    HW316213   2.443   4.378   4.157 -1.3102 -1.0605 -1.5277
 4120SOL    MW416214   2.486   4.306   4.181 -0.1506 -0.1060  0.4502
 4121SOL     OW16215   5.688   1.815   2.863 -0.2263 -0.5205 -0.0448
 4121SOL    HW216216   5.636   1.866   2.925 -1.1722  0.6116 -1.6901
 4121SOL    HW316217   5.745   1.880   2.821 -0.4432 -1.0450 -1.1849
 4121SOL    MW416218   5.689   1.830   2.866  0.5072 -0.2997 -0.2029
 4122SOL     OW16219   5.524   2.203   4.393 -0.0486  0.0749 -0.0093
 4122SOL    HW216220   5.487   2.115   4.404 -2.0007  0.8412 -0.1724
 4122SOL    HW316221   5.491   2.252   4.469  1.1420  0.6486  0.1553
 4122SOL    MW416222   5.515   2.198   4.405 -0.2709  0.0151 -0.4247
 4123SOL     OW16223   5.855   2.331   0.777  0.0948 -0.1856 -0.0849
 4123SOL    HW216224   5.828   2.405   0.831  3.1627  0.6890  0.4061
 4123SOL    HW316225   5.850   2.364   0.687 -0.2028 -0.0000 -0.0038
 4123SOL    MW416226   5.851   2.345   0.772 -0.3609  0.0593 -0.5609
 4124SOL     OW16227   5.319   3.302   5.672  0.0997 -0.0149  0.4731
 4124SOL    HW216228   5.267   3.274   5.597 -1.1890  1.4231  0.7534
 4124SOL    HW316229   5.261   3.361   5.720  1.7678  1.1264  1.1995
 4124SOL    MW416230   5.305   3.306   5.668 -0.3505 -0.0384  0.3468
 4125SOL     OW16231   2.519   3.752   0.740 -0.0295 -0.6528 -0.4865
 4125SOL    HW216232   2.477   3.817   0.685 -1.3530 -1.2259 -0.1923
 4125SOL    HW316233   2.554   3.802   0.814  2.2280  0.1937 -2.0268
 4125SOL    MW416234   2.518   3.767   0.743 -0.0016  0.0493  0.5704
 4126SOL     OW16235   3.360   1.392   0.958 -0.3778 -0.0105 -0.1048
 4126SOL    HW216236   3.355   1.461   0.892 -0.3868  1.9307  1.8398
 4126SOL    HW316237   3.328   1.432   1.038  0.0185 -2.1621  1.2170
 4126SOL    MW416238   3.355   1.406   0.959 -0.0769  0.0606 -0.4276
 4127SOL     OW16239   4.219   3.486   3.581  0.4887 -0.7214 -0.3105
 4127SOL    HW216240   4.243   3.419   3.517 -0.6405 -0.5646 -0.9342
 4127SOL    HW316241   4.127   3.504   3.563  0.5569  0.4212  0.3712
 4127SOL    MW416242   4.210   3.480   3.570  0.6731  0.2202 -0.5049
 4128SOL     OW16243   5.042   3.283   0.717  1.3077 -0.5891  0.7770
 4128SOL    HW216244   5.095   3.263   0.640  0.3493  0.7076 -0.2728
 4128SOL    HW316245   5.102   3.330   0.775  1.3509  0.9346 -0.4304
 4128SOL    MW416246   5.057   3.287   0.715 -0.1652 -0.3571  0.4210
 4129SOL     OW16247   5.321   4.275   2.055 -0.0046  0.0103  0.0151
 4129SOL    HW216248   5.300   4.292   1.963  0.5223 -1.3711 -0.3681
 4129SOL    HW316249   5.273   4.344   2.102 -0.7788  0.3730 -1.2362
 4129SOL    MW416250   5.312   4.287   2.049 -0.0593  0.2238 -0.3608
 4130SOL     OW16251   3.399   5.773   5.801 -0.3017  0.1400  0.0094
 4130SOL    HW216252   3.388   5.804   5.711 -0.6753 -1.5642 -0.5730
 4130SOL    HW316253   3.419   5.680   5.792  1.1149  0.2402  1.6502
 4130SOL    MW416254   3.400   5.765   5.788  0.1176  0.1151 -0.4882
 4131SOL     OW16255   2.582   5.798   0.194  0.2064  0.5216  0.1513
 4131SOL    HW216256   2.546   5.886   0.180  0.7846  0.5705 -1.2712
 4131SOL    HW316257   2.672   5.813   0.222  0.1032  0.3822  0.5626
 4131SOL    MW416258   2.589   5.811   0.196  0.2166  0.3217 -0.4911
 4132SOL     OW16259   0.447   1.782   2.473 -0.6531  0.8542 -0.1828
 4132SOL    HW216260   0.446   1.734   2.390  0.8756  0.6204 -0.0920
 4132SOL    HW316261   0.362   1.762   2.513 -1.2759  0.6948 -1.5183
 4132SOL    MW416262   0.435   1.773   2.467 -0.0750  0.2624 -0.0444
 4133SOL     OW16263   6.118   5.436   4.108  0.5522  0.5246 -0.1385
 4133SOL    HW216264   6.101   5.429   4.202  1.3259  1.4588  0.0834
 4133SOL    HW316265   6.209   5.465   4.102  1.0117 -1.0251 -1.2181
 4133SOL    MW416266   6.128   5.439   4.120 -0.3111 -0.3470 -0.1214
 4134SOL     OW16267   2.968   1.489   0.242  0.2112 -0.0743 -0.1209
 4134SOL    HW216268   2.885   1.536   0.240  0.5471  0.5390  0.1499
 4134SOL    HW316269   3.012   1.513   0.161  0.6911  0.6629  0.3433
 4134SOL    MW416270   2.963   1.498   0.231 -0.7538 -0.5341 -0.1834
 4135SOL     OW16271   5.293   2.388   5.261 -0.0299 -0.6739  0.4241
 4135SOL    HW216272   5.357   2.330   5.221  1.2818  1.4114 -0.6757
 4135SOL    HW316273   5.303   2.471   5.214 -2.1023  0.3386  1.6365
 4135SOL    MW416274   5.303   2.391   5.250 -0.3279  0.3805  0.1338
 4136SOL     OW16275   3.677   3.108   1.206  0.1314 -0.3369 -0.5545
 4136SOL    HW216276   3.598   3.113   1.152  0.6979 -0.4610 -1.4094
 4136SOL    HW316277   3.714   3.022   1.187 -0.3678 -0.9579  1.0702
 4136SOL    MW416278   3.671   3.098   1.196  0.2447 -0.1911  0.3213
 4137SOL     OW16279   1.325   4.780   4.193  0.0098 -0.3363 -0.1583
 4137SOL    HW216280   1.284   4.712   4.246  1.1428 -0.1457  0.9986
 4137SOL    HW316281   1.307   4.861   4.241 -2.4382  0.4359 -2.1655
 4137SOL    MW416282   1.317   4.782   4.206  0.4689 -0.0354  1.0187
 4138SOL     OW16283   0.078   3.860   0.249 -0.1569  0.7641  0.0232
 4138SOL    HW216284   0.057   3.785   0.305 -1.0878 -0.1323 -1.4559
 4138SOL    HW316285   0.090   3.933   0.310 -0.6031 -0.2807  1.4168
 4138SOL    MW416286   0.077   3.860   0.265  0.0784 -0.2417  0.0344
 4139SOL     OW16287   3.985   2.529   4.978 -0.1818 -0.2868  0.2202
 4139SOL    HW216288   3.914   2.486   4.931  0.2238  0.0722 -0.7388
 4139SOL    HW316289   3.951   2.615   5.001  0.1380  0.1123 -0.7678
 4139SOL    MW416290   3.971   2.535   4.975  0.1411  0.6438 -0.2086
 4140SOL     OW16291   4.865   3.908   5.474  0.3522  0.2686 -0.7057
 4140SOL    HW216292   4.947   3.899   5.524 -0.8397 -1.7388  1.0792
 4140SOL    HW316293   4.840   3.999   5.485  1.2786  0.4079  0.5075
 4140SOL    MW416294   4.873   3.919   5.482  0.0106  0.2169 -0.0205
 4141SOL     OW16295   5.346   6.010   4.809  0.0104  0.4127 -0.0797
 4141SOL    HW216296   5.270   6.007   4.868 -0.2996  0.8672 -0.4472
 4141SOL    HW316297   5.409   6.067   4.853  1.1129 -1.7390  1.3274
 4141SOL    MW416298   5.344   6.017   4.823 -0.0628  0.1142 -0.2129
 4142SOL     OW16299   1.337   3.194   3.838 -0.5223 -0.0471  0.5993
 4142SOL    HW216300   1.250   3.173   3.805  0.4163 -0.5943 -1.7191
 4142SOL    HW316301   1.388   3.114   3.822  0.9520  1.0187 -0.2160
 4142SOL    MW416302   1.332   3.181   3.832  0.1035  0.7758 -0.3129
 4143SOL     OW16303   0.928   1.383   0.944  0.6051 -0.4007 -0.1388
 4143SOL    HW216304   0.877   1.368   1.023 -0.6461 -0.1089 -0.8587
 4143SOL    HW316305   0.890   1.463   0.906  3.3870  1.4836  0.7048
 4143SOL    MW416306   0.916   1.392   0.949 -0.3399 -0.3368  0.2016
 4144SOL     OW16307   0.169   2.560   3.762  0.6676 -0.6302  0.5402
 4144SOL    HW216308   0.235   2.588   3.699 -0.1520  0.7329  0.2413
 4144SOL    HW316309   0.198   2.597   3.846  0.6517 -0.6220  0.5422
 4144SOL    MW416310   0.182   2.569   3.765 -0.1390  0.3823  0.2564
 4145SOL     OW16311   2.254   6.101   4.897 -0.5789 -0.5840  0.1538
 4145SOL    HW216312   2.259   6.146   4.981 -0.8751 -0.8423  0.3101
 4145SOL    HW316313   2.171   6.131   4.859 -0.6626 -0.8085  0.1544
 4145SOL    MW416314   2.243   6.111   4.903 -0.6564  0.2124 -0.0375
 4146SOL     OW16315   3.992   3.804   1.007 -0.4501  0.4168 -0.7991
 4146SOL    HW216316   3.902   3.809   1.039 -0.0688  0.5340  0.3216
 4146SOL    HW316317   4.025   3.722   1.043 -0.1331  0.3295 -1.2798
 4146SOL    MW416318   3.985   3.794   1.016  0.1022 -0.8250 -0.0275
 4147SOL     OW16319   2.310   1.977   1.774  0.0515  0.0696 -0.1918
 4147SOL    HW216320   2.214   1.974   1.775  0.0102 -3.4821  1.1462
 4147SOL    HW316321   2.336   1.890   1.743  2.9105  1.4099 -1.9148
 4147SOL    MW416322   2.301   1.965   1.770 -0.0244  0.2261  0.0197
 4148SOL     OW16323   0.351   1.982   0.428  0.2913 -0.0961 -0.4798
 4148SOL    HW216324   0.296   1.979   0.506  0.7402  0.4970 -0.1330
 4148SOL    HW316325   0.332   2.066   0.388  0.6180 -0.0782 -0.6001
 4148SOL    MW416326   0.341   1.993   0.433  0.5390 -0.5560  0.0704
 4149SOL     OW16327   3.176   1.125   2.009 -0.5772 -0.1819  0.0700
 4149SOL    HW216328   3.228   1.055   2.049  0.7188  0.1501 -0.9387
 4149SOL    HW316329   3.217   1.138   1.924 -1.3463  1.2123 -0.1062
 4149SOL    MW416330   3.189   1.117   2.003 -0.1205  0.1433  0.0112
 4150SOL     OW16331   4.426   3.204   1.833 -0.1323 -0.1195  0.1789
 4150SOL    HW216332   4.379   3.176   1.754  3.2420  0.4440 -2.2868
 4150SOL    HW316333   4.381   3.283   1.862 -2.7942 -1.5509  0.2696
 4150SOL    MW416334   4.414   3.211   1.826  0.5616  0.3177  0.4749
 4151SOL     OW16335   2.019   3.927   3.422  0.1455 -0.3915 -0.1983
 4151SOL    HW216336   2.055   3.841   3.445  0.4264 -0.3691 -0.5400
 4151SOL    HW316337   1.932   3.909   3.388  0.5334 -0.6328 -1.0886
 4151SOL    MW416338   2.012   3.913   3.420 -0.1214 -0.4279  0.1917
 4152SOL     OW16339   0.391   4.672   2.088 -0.0242  0.4497 -0.3686
 4152SOL    HW216340   0.475   4.715   2.069  0.0677 -0.2533 -1.6781
 4152SOL    HW316341   0.374   4.693   2.180  2.0476 -0.1902  0.2159
 4152SOL    MW416342   0.400   4.681   2.098 -0.3798 -0.0529  0.2826
 4153SOL     OW16343   0.776   0.483   3.456 -0.4086  0.0338 -0.0551
 4153SOL    HW216344   0.836   0.556   3.441 -0.4692  0.1019  0.0314
 4153SOL    HW316345   0.748   0.457   3.369  0.8548 -0.9296 -0.1950
 4153SOL    MW416346   0.780   0.489   3.443  0.2705 -0.5933 -0.2351
 4154SOL     OW16347   2.336   2.414   5.601  0.5757  0.6285 -0.2179
 4154SOL    HW216348   2.320   2.321   5.583 -0.1747  0.6000  0.5407
 4154SOL    HW316349   2.390   2.444   5.527  0.0608 -0.1917 -0.9456
 4154SOL    MW416350   2.341   2.406   5.589  0.1598  0.5071 -0.0262
 4155SOL     OW16351   3.045   4.934   5.820 -0.6024  0.2916 -0.3868
 4155SOL    HW216352   3.126   4.885   5.836  0.2558  1.5957 -0.6173
 4155SOL    HW316353   3.061   5.020   5.859 -0.8916  1.4289 -2.6366
 4155SOL    MW416354   3.058   4.939   5.827 -0.2923 -0.2818 -0.8103
 4156SOL     OW16355   5.533   3.785   5.240 -0.3664 -0.1382 -0.0268
 4156SOL    HW216356   5.552   3.744   5.325  1.1816  0.5155 -0.0188
 4156SOL    HW316357   5.533   3.879   5.259 -0.0788  0.0105 -0.7331
 4156SOL    MW416358   5.536   3.792   5.254  0.5762  0.8191 -0.7227
 4157SOL     OW16359   2.592   3.868   0.989 -0.4164 -0.4720 -0.0051
 4157SOL    HW216360   2.682   3.889   0.964 -0.2325 -2.3341 -1.1455
 4157SOL    HW316361   2.601   3.793   1.049 -1.0860  1.4642  2.7085
 4157SOL    MW416362   2.605   3.861   0.994 -0.1918  0.1259 -0.2481
 4158SOL     OW16363   1.716   1.703   3.480 -0.4380 -0.2000  0.5562
 4158SOL    HW216364   1.794   1.752   3.455 -0.2795 -0.7225 -0.0049
 4158SOL    HW316365   1.685   1.665   3.398 -1.7409  0.6429  0.6266
 4158SOL    MW416366   1.722   1.705   3.466  0.3481 -0.2988  0.4619
 4159SOL     OW16367   1.127   2.318   5.407 -0.1577  0.5132 -0.0467
 4159SOL    HW216368   1.187   2.270   5.463 -0.5484  1.3805  1.1565
 4159SOL    HW316369   1.045   2.319   5.455 -0.0748  2.6421  0.1527
 4159SOL    MW416370   1.124   2.312   5.421  0.7224 -0.1112  0.5124
 4160SOL     OW16371   2.211   5.989   6.392  0.4075  0.1459 -0.3340
 4160SOL    HW216372   2.199   5.895   6.380 -0.3095  0.3132 -1.0196
 4160SOL    HW316373   2.149   6.012   6.461  1.9204 -0.1841  1.2079
 4160SOL    MW416374   2.201   5.980   6.400 -0.5347 -0.1859 -0.0003
 4161SOL     OW16375   4.310   1.382   2.116 -0.2659 -0.3562  0.0807
 4161SOL    HW216376   4.250   1.308   2.104  0.4781 -0.7925 -1.1218
 4161SOL    HW316377   4.328   1.413   2.027 -1.0827  1.7264  0.5699
 4161SOL    MW416378   4.304   1.376   2.102  0.3959 -0.3741 -0.0727
 4162SOL     OW16379   2.660   1.445   2.896 -0.4488 -0.4418 -0.0862
 4162SOL    HW216380   2.584   1.471   2.948 -0.6986  0.9369 -1.0875
 4162SOL    HW316381   2.624   1.417   2.812  0.1584  0.9563 -0.8502
 4162SOL    MW416382   2.645   1.445   2.892  0.3780  0.7724  0.2582
 4163SOL     OW16383   2.415   6.221   1.513 -0.5334  1.4409 -0.1239
 4163SOL    HW216384   2.371   6.303   1.536 -0.4606  1.6622 -0.7757
 4163SOL    HW316385   2.485   6.247   1.453 -0.7613  0.8550 -0.6460
 4163SOL    MW416386   2.419   6.235   1.508  0.1629 -0.1231  0.4715
 4164SOL     OW16387   2.156   5.400   1.032  0.1768 -0.2236  0.0096
 4164SOL    HW216388   2.117   5.418   1.118 -0.3038  0.6100 -0.3746
 4164SOL    HW316389   2.214   5.325   1.048  0.6259  0.3423  1.2119
 4164SOL    MW416390   2.159   5.392   1.046  0.8514 -0.2284 -0.0319
 4165SOL     OW16391   1.991   0.987   3.762  0.1609  0.4554  0.0195
 4165SOL    HW216392   2.040   0.978   3.844 -1.2421  0.5441  0.8951
 4165SOL    HW316393   1.917   1.043   3.784 -0.1007  0.6916 -1.3865
 4165SOL    MW416394   1.988   0.993   3.776 -0.0239 -0.4655 -0.0192
 4166SOL     OW16395   4.538   6.354   0.685  0.2262 -0.3837 -0.6611
 4166SOL    HW216396   4.594   6.418   0.730 -0.1184 -1.1974  1.0000
 4166SOL    HW316397   4.517   6.396   0.601  0.6028  1.3666  0.0587
 4166SOL    MW416398   4.543   6.368   0.680 -0.1330 -0.7498 -0.4977
 4167SOL     OW16399   3.649   4.322   4.171 -0.3381 -0.1999 -0.3058
 4167SOL    HW216400   3.594   4.388   4.129  0.5055 -0.7776 -2.4388
 4167SOL    HW316401   3.588   4.252   4.193 -1.0574  0.7751  0.9692
 4167SOL    MW416402   3.634   4.322   4.169  0.4365 -0.1779  0.0027
 4168SOL     OW16403   1.911   1.762   3.139 -0.2460 -0.8750 -0.1939
 4168SOL    HW216404   1.999   1.773   3.177 -0.5643 -0.5363  0.4764
 4168SOL    HW316405   1.916   1.806   3.054  0.3194 -1.1236 -0.2944
 4168SOL    MW416406   1.923   1.769   3.133  0.2179 -0.2640  0.6461
 4169SOL     OW16407   4.634   4.996   0.437 -0.1916 -0.0385  0.0243
 4169SOL    HW216408   4.560   5.032   0.486 -0.4203 -0.6753  0.1552
 4169SOL    HW316409   4.653   5.063   0.371 -1.7388 -0.4292 -0.8805
 4169SOL    MW416410   4.627   5.010   0.435  0.2868  0.2220 -0.0555
 4170SOL     OW16411   4.196   2.250   4.289  0.0297 -0.8029  0.5449
 4170SOL    HW216412   4.232   2.339   4.293  2.3366 -1.5028 -1.6821
 4170SOL    HW316413   4.130   2.254   4.221  0.2914 -0.8315  0.2875
 4170SOL    MW416414   4.192   2.262   4.281 -0.6159  1.0139 -0.0610
 4171SOL     OW16415   4.401   5.630   2.689 -0.1225  0.1698  0.5648
 4171SOL    HW216416   4.369   5.697   2.749  0.2596  0.2087  0.7233
 4171SOL    HW316417   4.486   5.605   2.723  0.2901  0.4927 -0.2010
 4171SOL    MW416418   4.408   5.635   2.701  0.0504  0.0431  0.1876
 4172SOL     OW16419   5.678   0.406   4.573  0.9341  0.4382 -0.2669
 4172SOL    HW216420   5.629   0.331   4.606 -1.5741  1.8021 -0.7182
 4172SOL    HW316421   5.612   0.464   4.535  3.1144  1.2347 -3.2730
 4172SOL    MW416422   5.663   0.404   4.572 -0.2129  0.3377 -0.0427
 4173SOL     OW16423   6.326   5.707   4.263  0.2862 -0.2757 -0.8646
 4173SOL    HW216424   6.288   5.779   4.212  0.9853  1.4660  0.9661
 4173SOL    HW316425   6.333   5.635   4.200 -1.0402  1.0184 -2.6067
 4173SOL    MW416426   6.322   5.707   4.248 -0.3563 -0.4434 -0.1231
 4174SOL     OW16427   5.416   4.083   6.216  0.3143 -0.1201  0.0767
 4174SOL    HW216428   5.414   4.178   6.234 -2.3673  0.2522 -1.6405
 4174SOL    HW316429   5.401   4.043   6.302 -0.9836  1.1446  0.4871
 4174SOL    MW416430   5.414   4.091   6.230  0.2234 -0.0793 -0.2934
 4175SOL     OW16431   5.769   2.165   5.875 -0.1677 -0.5024 -0.2413
 4175SOL    HW216432   5.703   2.136   5.813 -1.9458  0.7668  0.9716
 4175SOL    HW316433   5.851   2.127   5.843 -1.0260 -0.0656 -3.2138
 4175SOL    MW416434   5.771   2.156   5.863 -0.5830  0.2325  0.1197
 4176SOL     OW16435   2.407   2.853   2.023  0.3141 -0.4646  0.3415
 4176SOL    HW216436   2.421   2.905   2.102  0.3531  0.1346 -0.0450
 4176SOL    HW316437   2.317   2.873   1.997  1.1244  1.5713 -1.2906
 4176SOL    MW416438   2.397   2.863   2.030  0.2918 -0.0565 -0.2445
 4177SOL     OW16439   2.419   3.145   4.523 -0.4558  0.2684  0.1151
 4177SOL    HW216440   2.471   3.224   4.533  0.3466 -0.3900  1.2834
 4177SOL    HW316441   2.424   3.125   4.429  3.2819 -0.9897  0.4112
 4177SOL    MW416442   2.426   3.153   4.512 -0.5295 -0.4065 -0.3418
 4178SOL     OW16443   5.986   1.257   1.229  0.0114 -0.0809 -0.3396
 4178SOL    HW216444   5.968   1.214   1.145  0.4438  1.8168 -1.4522
 4178SOL    HW316445   6.025   1.341   1.206 -0.2444  0.6863  1.7676
 4178SOL    MW416446   5.989   1.262   1.215 -0.0247  0.2218  0.4312
 4179SOL     OW16447   4.890   4.771   0.715 -0.0055  0.3430  0.0632
 4179SOL    HW216448   4.872   4.832   0.787  2.0065  0.2489  0.7068
 4179SOL    HW316449   4.899   4.827   0.638  0.5150  0.7478  0.4088
 4179SOL    MW416450   4.889   4.787   0.714 -0.1203 -0.3867  0.0126
 4180SOL     OW16451   6.347   5.654   2.620  0.2185  0.1181 -0.2025
 4180SOL    HW216452   6.346   5.749   2.610 -0.5159  0.1634  0.1932
 4180SOL    HW316453   6.376   5.640   2.710 -0.4403  0.0065 -0.0010
 4180SOL    MW416454   6.351   5.665   2.630 -0.0695  0.1300 -0.2860
 4181SOL     OW16455   5.102   6.008   5.001  0.6580  0.7708  0.1035
 4181SOL    HW216456   5.049   5.929   4.987  1.3116  0.3744 -0.1745
 4181SOL    HW316457   5.076   6.039   5.087  0.1334  0.4539  0.0640
 4181SOL    MW416458   5.092   6.002   5.010 -0.5069 -0.2439 -0.4937
 4182SOL     OW16459   6.352   4.171   4.709  0.3721  0.2948 -0.0837
 4182SOL    HW216460   6.328   4.175   4.617  1.1458  0.5041 -0.2840
 4182SOL    HW316461   6.331   4.081   4.735 -0.6320  0.4806 -0.2364
 4182SOL    MW416462   6.346   4.160   4.700 -0.3244  0.5905  0.3477
 4183SOL     OW16463   1.700   4.791   6.138  0.3307  0.3450 -0.0554
 4183SOL    HW216464   1.680   4.772   6.230 -1.3886  1.2464 -0.1957
 4183SOL    HW316465   1.741   4.878   6.141  3.0757 -0.8666  0.0842
 4183SOL    MW416466   1.703   4.800   6.151  0.0270 -0.3550  0.5576
 4184SOL     OW16467   2.432   4.104   5.091  0.2588  0.0816 -0.5787
 4184SOL    HW216468   2.491   4.111   5.166 -0.8740 -0.0107  0.3431
 4184SOL    HW316469   2.485   4.062   5.023  1.4115  0.4936  0.0285
 4184SOL    MW416470   2.447   4.100   5.092  0.6133 -0.8247 -0.2693
 4185SOL     OW16471   4.608   4.732   2.598  0.1254 -0.0662 -0.6361
 4185SOL    HW216472   4.658   4.775   2.529  0.4898 -0.2254 -0.4745
 4185SOL    HW316473   4.658   4.747   2.678 -0.8163  0.9932 -0.2131
 4185SOL    MW416474   4.621   4.739   2.599 -0.6070  0.1153  0.0208
 4186SOL     OW16475   4.040   1.271   4.899 -0.2415  0.1428 -0.5379
 4186SOL    HW216476   4.024   1.211   4.826 -0.3368  0.8842 -1.1402
 4186SOL    HW316477   3.978   1.342   4.885 -0.8757 -0.1278  0.7765
 4186SOL    MW416478   4.030   1.272   4.887 -0.2165 -0.4857 -0.3701
 4187SOL     OW16479   0.809   0.128   6.316 -0.2551  0.6011  0.0469
 4187SOL    HW216480   0.842   0.059   6.258 -0.0464 -0.2690  1.1617
 4187SOL    HW316481   0.714   0.123   6.309 -0.2300  0.5333 -0.2476
 4187SOL    MW416482   0.801   0.118   6.307  0.3898  0.0501  0.0004
 4188SOL     OW16483   0.324   3.008   1.356 -0.8457  0.3096 -0.2872
 4188SOL    HW216484   0.241   3.055   1.351 -0.2644  1.5784  1.1583
 4188SOL    HW316485   0.316   2.952   1.433  0.0175  1.2952  0.5502
 4188SOL    MW416486   0.312   3.007   1.365  0.4954 -0.3990 -0.1724
 4189SOL     OW16487   2.738   5.759   6.345 -0.1497 -0.3410 -0.3850
 4189SOL    HW216488   2.660   5.764   6.400  0.1274 -1.2188  0.1123
 4189SOL    HW316489   2.760   5.850   6.326 -0.5157 -0.0349  0.5810
 4189SOL    MW416490   2.730   5.772   6.350  0.2658  0.5678  0.3930
 4190SOL     OW16491   3.572   5.104   3.275 -0.3482  0.2793 -0.0945
 4190SOL    HW216492   3.499   5.149   3.316 -0.4122  0.0457  0.0489
 4190SOL    HW316493   3.572   5.135   3.184  0.4251  1.5720  0.3280
 4190SOL    MW416494   3.563   5.114   3.268  0.1183  0.2823  0.3053
 4191SOL     OW16495   3.580   3.764   5.488  0.0346 -0.7848 -0.2905
 4191SOL    HW216496   3.656   3.715   5.456  0.7739  1.4566 -2.2493
 4191SOL    HW316497   3.511   3.698   5.499  1.7928 -2.6519  0.1046
 4191SOL    MW416498   3.581   3.749   5.485 -0.0204 -0.2277 -0.4529
 4192SOL     OW16499   1.460   1.303   1.819 -1.0100 -0.4213  0.1726
 4192SOL    HW216500   1.376   1.272   1.853 -0.5737 -0.3058  1.4084
 4192SOL    HW316501   1.452   1.399   1.820 -0.3737 -0.3612  1.6548
 4192SOL    MW416502   1.448   1.312   1.824 -0.2179  0.3549  0.0585
 4193SOL     OW16503   4.410   5.941   2.438 -0.2665  0.5750 -0.1482
 4193SOL    HW216504   4.405   5.985   2.353  1.1042  1.5977  0.2516
 4193SOL    HW316505   4.438   6.010   2.499 -1.3921 -0.0916  1.1804
 4193SOL    MW416506   4.413   5.956   2.435 -0.0152 -0.2139 -0.1224
 4194SOL     OW16507   5.066   4.367   6.085 -0.1034 -0.3888  0.1073
 4194SOL    HW216508   5.105   4.450   6.059 -1.1158  0.2980  0.6853
 4194SOL    HW316509   5.104   4.303   6.026  0.9221  0.4358 -0.1580
 4194SOL    MW416510   5.076   4.370   6.074 -0.8918  0.0982 -0.4664
 4195SOL     OW16511   1.302   0.423   2.983  0.2512 -0.2274 -0.6515
 4195SOL    HW216512   1.357   0.359   3.027  0.4505  0.1534 -0.3325
 4195SOL    HW316513   1.361   0.496   2.964 -0.3499  0.6285  0.6397
 4195SOL    MW416514   1.317   0.424   2.986  0.3029 -0.2707 -0.0354
 4196SOL     OW16515   3.353   2.052   2.322  0.3580  0.8116 -0.6302
 4196SOL    HW216516   3.339   1.982   2.258 -1.9645  2.6079 -2.3019
 4196SOL    HW316517   3.428   2.101   2.287  2.2014 -0.8706  0.7169
 4196SOL    MW416518   3.361   2.049   2.309 -0.5015  0.2336  0.0878
 4197SOL     OW16519   0.843   2.591   4.190  0.2008 -0.3220 -0.4804
 4197SOL    HW216520   0.889   2.573   4.109  0.8103 -1.2797  0.0643
 4197SOL    HW316521   0.750   2.583   4.167  0.3677 -0.5163 -1.0941
 4197SOL    MW416522   0.837   2.588   4.176 -0.0547 -0.3652 -0.5556
 4198SOL     OW16523   1.440   0.839   3.124  0.0591 -0.5351 -0.2536
 4198SOL    HW216524   1.457   0.890   3.045  0.0170  0.0104  0.0795
 4198SOL    HW316525   1.354   0.870   3.153 -0.2498 -1.2568 -0.3950
 4198SOL    MW416526   1.431   0.850   3.117 -0.6909  0.2306  0.1291
 4199SOL     OW16527   1.837   2.196   6.336  0.0793  0.2484  0.0130
 4199SOL    HW216528   1.744   2.195   6.361  0.3229  0.7547  0.9810
 4199SOL    HW316529   1.879   2.136   6.398  0.4039  0.0233 -0.4206
 4199SOL    MW416530   1.830   2.188   6.347  0.1468  0.3311 -0.4228
 4200SOL     OW16531   4.619   3.872   0.566  0.0439 -0.3125  0.2046
 4200SOL    HW216532   4.528   3.875   0.595  0.6430 -3.7260  3.1720
 4200SOL    HW316533   4.616   3.831   0.480 -1.2380 -3.0965  1.4419
 4200SOL    MW416534   4.607   3.867   0.559  0.2175  0.2469  1.0353
 4201SOL     OW16535   5.284   4.097   0.516 -0.1993 -0.1132 -0.0399
 4201SOL    HW216536   5.196   4.126   0.491 -0.0370 -0.2513 -0.8026
 4201SOL    HW316537   5.323   4.065   0.434  0.9535  0.9559  0.0576
 4201SOL    MW416538   5.278   4.097   0.502 -0.2272 -0.0341 -0.3261
 4202SOL     OW16539   4.712   5.805   6.130  0.0580  0.8140  0.5692
 4202SOL    HW216540   4.794   5.819   6.178 -0.2619  2.5850  0.6650
 4202SOL    HW316541   4.729   5.842   6.043  0.4135 -1.7762 -0.5702
 4202SOL    MW416542   4.725   5.812   6.125 -0.6326  0.3876  0.0440
 4203SOL     OW16543   3.868   1.586   0.106  0.4643  0.0272 -0.5329
 4203SOL    HW216544   3.942   1.593   0.046  1.7674 -1.6674  0.7710
 4203SOL    HW316545   3.796   1.628   0.060  1.5651 -0.5662 -2.9656
 4203SOL    MW416546   3.869   1.593   0.092 -0.6562 -0.1243 -0.0216
 4204SOL     OW16547   0.621   3.674   1.994 -0.2511 -0.6825  0.3469
 4204SOL    HW216548   0.683   3.734   1.953 -0.1432 -0.8258  0.2952
 4204SOL    HW316549   0.622   3.697   2.087 -0.2444 -0.5762  0.3203
 4204SOL    MW416550   0.629   3.685   2.001  0.8932 -0.7718  0.2766
 4205SOL     OW16551   1.578   2.622   3.293  0.1087  0.1993 -0.2026
 4205SOL    HW216552   1.561   2.588   3.381 -0.0315  0.5786 -0.0809
 4205SOL    HW316553   1.657   2.576   3.264  0.1935  0.1209  0.1489
 4205SOL    MW416554   1.586   2.611   3.301  0.0035 -0.0636 -0.1631
 4206SOL     OW16555   4.455   3.301   5.999 -0.1111 -0.7626  0.6560
 4206SOL    HW216556   4.437   3.352   6.078  0.1335 -1.5405  1.2265
 4206SOL    HW316557   4.486   3.217   6.032 -0.6480 -1.3367 -0.2649
 4206SOL    MW416558   4.457   3.297   6.014  0.1379  0.5765  0.2118
 4207SOL     OW16559   0.562   4.411   5.194 -0.2293 -0.6721 -0.6273
 4207SOL    HW216560   0.478   4.372   5.170 -0.7395  0.4384 -0.6941
 4207SOL    HW316561   0.602   4.346   5.252 -0.8859 -1.4557 -1.0201
 4207SOL    MW416562   0.556   4.397   5.198 -0.1422 -0.3118 -0.3153
 4208SOL     OW16563   5.786   3.707   3.453 -0.2400  0.2657  0.7648
 4208SOL    HW216564   5.827   3.743   3.532  0.1728  1.2925  0.1001
 4208SOL    HW316565   5.700   3.678   3.483 -0.5605  1.7350  1.3703
 4208SOL    MW416566   5.780   3.708   3.468  0.1079 -0.6772 -0.2854
 4209SOL     OW16567   1.497   0.577   3.266 -0.4428  0.5205 -0.3390
 4209SOL    HW216568   1.553   0.529   3.205 -2.2036 -1.7587 -0.2540
 4209SOL    HW316569   1.481   0.661   3.221  2.7056  1.1887 -0.4798
 4209SOL    MW416570   1.502   0.582   3.252 -0.3804  0.4867 -0.5309
 4210SOL     OW16571   2.366   4.964   3.747  0.5843 -0.4398  0.2791
 4210SOL    HW216572   2.373   4.979   3.653 -0.1133  0.9521  0.4111
 4210SOL    HW316573   2.342   4.872   3.755  0.3670 -0.5051 -0.9198
 4210SOL    MW416574   2.363   4.954   3.736 -0.5480 -0.0688 -0.6883
 4211SOL     OW16575   2.498   1.301   2.689  0.1009  0.5569 -0.2532
 4211SOL    HW216576   2.417   1.311   2.739  0.8856 -1.2230  1.5104
 4211SOL    HW316577   2.469   1.280   2.601 -1.3484  0.5760  0.1905
 4211SOL    MW416578   2.483   1.300   2.684  0.5100 -0.0836 -0.7043
 4212SOL     OW16579   0.837   1.965   2.147 -0.0623  0.2204 -0.4907
 4212SOL    HW216580   0.832   1.933   2.237 -1.2713  0.3510 -0.4905
 4212SOL    HW316581   0.881   2.049   2.154 -1.1056  0.7394  0.1411
 4212SOL    MW416582   0.842   1.972   2.160  1.1059  0.0233  0.2011
 4213SOL     OW16583   3.087   1.178   0.271 -0.3846 -0.2805 -0.6335
 4213SOL    HW216584   3.030   1.113   0.230 -0.2841  0.0647 -1.3413
 4213SOL    HW316585   3.149   1.126   0.323 -0.6326 -0.7220 -0.7699
 4213SOL    MW416586   3.088   1.162   0.272  0.1874 -0.0033 -0.6620
 4214SOL     OW16587   3.289   2.897   3.762  0.5723  0.0422  0.4912
 4214SOL    HW216588   3.312   2.831   3.828 -0.0369 -0.4527  0.2085
 4214SOL    HW316589   3.329   2.866   3.681 -2.5005 -1.8223 -0.4702
 4214SOL    MW416590   3.298   2.884   3.760  0.0026 -0.3375  0.6499
 4215SOL     OW16591   2.765   4.245   4.271  0.3756 -0.2223 -0.2737
 4215SOL    HW216592   2.785   4.166   4.222 -2.0613 -1.5368  0.6980
 4215SOL    HW316593   2.690   4.283   4.226 -0.5265 -0.2722  1.1251
 4215SOL    MW416594   2.758   4.240   4.258  0.5689 -0.0724 -0.5040
 4216SOL     OW16595   0.028   4.248   2.133 -0.0548 -0.2935 -0.3947
 4216SOL    HW216596   0.112   4.291   2.142 -0.8512  1.4301 -0.7433
 4216SOL    HW316597  -0.034   4.319   2.116 -1.3490 -1.6355 -1.6523
 4216SOL    MW416598   0.031   4.263   2.132  0.3475  0.8475  0.5174
 4217SOL     OW16599   0.469   3.117   1.001  0.1543 -0.4860  0.8730
 4217SOL    HW216600   0.521   3.126   0.921  1.3260 -0.7779  1.5780
 4217SOL    HW316601   0.446   3.206   1.025 -1.7447 -0.4836 -0.7398
 4217SOL    MW416602   0.473   3.130   0.994 -0.1004  0.3755 -0.0123
 4218SOL     OW16603   1.765   6.370   2.498  0.1340  0.0270 -0.5743
 4218SOL    HW216604   1.859   6.352   2.508 -0.0762 -1.4295 -0.8614
 4218SOL    HW316605   1.743   6.331   2.413 -0.8557 -0.2466 -0.2074
 4218SOL    MW416606   1.774   6.362   2.488 -1.0889  0.0121  0.3238
 4219SOL     OW16607   5.831   4.248   2.690  0.5179  0.4028  0.0262
 4219SOL    HW216608   5.901   4.313   2.685 -0.3578  1.3054 -1.4547
 4219SOL    HW316609   5.753   4.294   2.657 -0.7166 -0.6556  1.2917
 4219SOL    MW416610   5.830   4.263   2.685  0.2172  0.6166 -0.5130
 4220SOL     OW16611   0.994   1.533   3.897 -0.1288  0.3410  0.0992
 4220SOL    HW216612   0.964   1.613   3.942 -0.3272  0.7730 -0.7881
 4220SOL    HW316613   0.985   1.553   3.804  1.6478 -0.0165 -0.1725
 4220SOL    MW416614   0.989   1.546   3.891 -0.0708 -0.3860  0.0710
 4221SOL     OW16615   0.168   2.359   1.131 -0.0599  0.1276  0.0188
 4221SOL    HW216616   0.173   2.292   1.063  1.2722  0.4596 -0.2472
 4221SOL    HW316617   0.105   2.325   1.194 -1.3224 -0.1771 -1.3716
 4221SOL    MW416618   0.161   2.345   1.130 -0.0753  0.0490  0.0169
 4222SOL     OW16619   0.349   5.135   1.691  0.6783  0.4207  0.4033
 4222SOL    HW216620   0.348   5.041   1.707 -0.5452  0.6232  1.7673
 4222SOL    HW316621   0.334   5.143   1.597  1.3267 -0.7452  0.1811
 4222SOL    MW416622   0.347   5.124   1.681 -0.0923 -0.0027 -0.0258
 4223SOL     OW16623   1.254   1.793   3.911  0.0796  0.8342 -0.0397
 4223SOL    HW216624   1.216   1.816   3.827 -0.7590  2.0786  0.6328
 4223SOL    HW316625   1.319   1.726   3.892 -2.4725 -1.4753 -1.2430
 4223SOL    MW416626   1.258   1.787   3.898 -0.0868  0.1829  0.4525
 4224SOL     OW16627   6.066   3.580   0.607  0.0058  0.0894 -0.3630
 4224SOL    HW216628   6.092   3.502   0.556  1.6756 -0.0221  0.5865
 4224SOL    HW316629   6.087   3.557   0.697 -1.0754  1.0320  0.1379
 4224SOL    MW416630   6.072   3.567   0.612 -0.2109  0.5673  0.2227
 4225SOL     OW16631   0.300   1.053   1.041 -0.3201  0.4814 -0.2555
 4225SOL    HW216632   0.339   1.126   1.089  0.2380  0.2181 -0.2912
 4225SOL    HW316633   0.227   1.024   1.095 -1.5894  2.1096 -1.0317
 4225SOL    MW416634   0.296   1.059   1.055 -0.3930  0.1336  0.1773
 4226SOL     OW16635   2.929   1.411   3.851  0.4995 -0.0954 -0.0829
 4226SOL    HW216636   3.024   1.407   3.862  0.6467  1.3828 -0.5492
 4226SOL    HW316637   2.900   1.321   3.861  2.2094 -0.9706 -2.1484
 4226SOL    MW416638   2.938   1.399   3.854 -0.4835  0.6141  0.0059
 4227SOL     OW16639   1.479   0.456   2.189  0.7612  0.4100 -0.2249
 4227SOL    HW216640   1.534   0.521   2.145  0.1677 -0.2401 -2.0589
 4227SOL    HW316641   1.399   0.453   2.136  1.0400 -2.2787 -0.6617
 4227SOL    MW416642   1.476   0.464   2.176 -0.5411 -0.0733 -0.5983
 4228SOL     OW16643   2.677   4.763   4.523 -0.6221 -0.1674 -0.1189
 4228SOL    HW216644   2.756   4.755   4.577 -2.0189 -1.3453  1.9233
 4228SOL    HW316645   2.656   4.856   4.525  1.3089  0.3874 -1.7401
 4228SOL    MW416646   2.685   4.774   4.531  0.8298  0.2782  0.0102
 4229SOL     OW16647   2.666   0.047   5.459 -0.5532  0.2586 -0.1282
 4229SOL    HW216648   2.595   0.049   5.522 -2.2672  0.9671 -1.9686
 4229SOL    HW316649   2.634  -0.009   5.388 -0.1855  2.1940 -1.9393
 4229SOL    MW416650   2.653   0.040   5.458  0.2237 -0.3477  0.5118
 4230SOL     OW16651   4.809   6.041  -0.034  0.4617 -0.7535 -0.8758
 4230SOL    HW216652   4.807   6.136  -0.046  1.3719 -0.7183 -0.8071
 4230SOL    HW316653   4.801   6.029   0.061  0.9210 -0.7240 -0.8342
 4230SOL    MW416654   4.807   6.052  -0.023  0.2224 -0.2003 -0.3279
 4231SOL     OW16655   1.075   0.362   1.739 -0.0252 -0.5239 -0.6766
 4231SOL    HW216656   1.104   0.291   1.682  0.6681  0.0866 -1.1195
 4231SOL    HW316657   1.151   0.421   1.743  0.0193 -0.6580  1.0523
 4231SOL    MW416658   1.089   0.361   1.732 -0.4320  0.6371  0.5765
 4232SOL     OW16659   1.084   4.168   4.977  0.2927 -0.1150 -0.3003
 4232SOL    HW216660   1.097   4.074   4.963  1.2968 -0.0503  0.1655
 4232SOL    HW316661   0.990   4.181   4.961  0.2790 -1.0625 -1.0903
 4232SOL    MW416662   1.073   4.157   4.973  0.0428 -0.4029 -0.0216
 4233SOL     OW16663   4.124   0.005   2.109 -0.1854  0.2786 -0.5302
 4233SOL    HW216664   4.088   0.088   2.078  0.0372  0.7420  0.4083
 4233SOL    HW316665   4.122   0.012   2.204 -0.9393 -1.1339 -0.4089
 4233SOL    MW416666   4.119   0.017   2.117 -0.1285 -0.0159 -0.0353
 4234SOL     OW16667   2.623   6.001   3.780  0.0600 -0.4363  0.2814
 4234SOL    HW216668   2.588   6.052   3.707  0.3701  0.9189  1.0411
 4234SOL    HW316669   2.717   6.019   3.780  0.2037 -1.1439  0.4688
 4234SOL    MW416670   2.631   6.010   3.770 -0.1444 -0.5109  0.3732
 4235SOL     OW16671   1.015   4.439   1.492  0.4574  0.6735  0.6492
 4235SOL    HW216672   1.018   4.374   1.562 -0.6555 -0.2558 -0.1223
 4235SOL    HW316673   1.083   4.502   1.515  0.9052 -0.2320  1.9403
 4235SOL    MW416674   1.025   4.439   1.504  0.3494 -0.2488  0.0544
 4236SOL     OW16675   4.224   0.772   1.586  0.3015 -0.4340 -0.0439
 4236SOL    HW216676   4.205   0.866   1.587  1.6348 -0.1234  2.5536
 4236SOL    HW316677   4.263   0.757   1.500  0.0380  1.3763 -0.5235
 4236SOL    MW416678   4.226   0.783   1.575  0.7987 -0.0849  0.1213
 4237SOL     OW16679   3.628   4.913   5.804 -0.3193  0.3121  0.0919
 4237SOL    HW216680   3.637   4.955   5.719 -2.3160 -0.2101 -0.4149
 4237SOL    HW316681   3.669   4.827   5.793 -0.7772  0.1545 -0.4265
 4237SOL    MW416682   3.635   4.907   5.792 -0.1237 -0.6511 -0.0318
 4238SOL     OW16683   1.381   6.195   4.413  0.1528 -0.5682  0.2263
 4238SOL    HW216684   1.363   6.109   4.376 -0.2802 -0.5014  0.2809
 4238SOL    HW316685   1.303   6.247   4.392 -0.1868 -0.5830  1.4010
 4238SOL    MW416686   1.368   6.191   4.405  0.1669  0.1221 -0.2841
 4239SOL     OW16687   2.168   0.358   3.792  0.7650  0.5789 -0.1178
 4239SOL    HW216688   2.092   0.300   3.799  0.8908  0.4286  0.0170
 4239SOL    HW316689   2.165   0.391   3.702  1.1195 -0.2331 -0.4362
 4239SOL    MW416690   2.158   0.355   3.781  0.1084  0.3696  0.7977
 4240SOL     OW16691   2.585   0.202   6.021 -0.1477 -0.2309  0.4161
 4240SOL    HW216692   2.566   0.146   5.945 -0.5246  1.6080 -0.8926
 4240SOL    HW316693   2.538   0.283   6.004 -1.6693 -0.3238  3.4547
 4240SOL    MW416694   2.576   0.205   6.009  1.1382  0.6103  0.2187
 4241SOL     OW16695   2.413   3.781   4.238  0.4964 -0.0278  0.1212
 4241SOL    HW216696   2.458   3.865   4.245  1.6097 -0.5232 -0.6635
 4241SOL    HW316697   2.430   3.752   4.148 -0.5203 -0.7403  0.1336
 4241SOL    MW416698   2.421   3.788   4.227 -0.5831  0.0677  0.1455
 4242SOL     OW16699   4.576   2.960   1.759 -0.3470 -0.5267 -0.1508
 4242SOL    HW216700   4.545   3.043   1.796  0.2478 -1.0484  1.6139
 4242SOL    HW316701   4.502   2.927   1.709 -0.9849  0.5251  0.0688
 4242SOL    MW416702   4.562   2.967   1.758 -0.2077  0.2554 -0.2064
 4243SOL     OW16703   4.100   4.866   4.096 -0.1807 -0.1465 -0.3960
 4243SOL    HW216704   4.138   4.853   4.182 -0.8392  0.3491 -0.0246
 4243SOL    HW316705   4.127   4.788   4.046  0.7861 -0.0953  0.0334
 4243SOL    MW416706   4.109   4.854   4.100  0.4153  0.6578  0.2176
 4244SOL     OW16707   0.079   1.569   3.724 -0.1843  0.2968  0.3565
 4244SOL    HW216708   0.012   1.631   3.694  1.4635  1.6983 -0.6384
 4244SOL    HW316709   0.036   1.484   3.723 -1.4628  0.9005 -1.9497
 4244SOL    MW416710   0.064   1.566   3.720 -0.2094  0.6566 -0.2580
 4245SOL     OW16711   5.464   3.963   1.201 -0.4773  0.4742 -0.5600
 4245SOL    HW216712   5.551   3.924   1.202 -0.6536  0.0408  1.4842
 4245SOL    HW316713   5.476   4.049   1.161  1.3556  1.3629  1.7228
 4245SOL    MW416714   5.477   3.969   1.196 -0.4509  0.4123  0.2031
 4246SOL     OW16715   2.945   5.845   0.813  0.5443 -0.1071 -0.1020
 4246SOL    HW216716   3.028   5.830   0.768  0.8346  0.4029  0.2506
 4246SOL    HW316717   2.957   5.929   0.858  1.1031 -1.5660  2.7141
 4246SOL    MW416718   2.958   5.854   0.813 -0.1861 -0.5231  0.1418
 4247SOL     OW16719   5.725   3.882   1.255 -0.4042  0.1978  0.0314
 4247SOL    HW216720   5.769   3.799   1.273  0.4417  0.5503 -0.3836
 4247SOL    HW316721   5.793   3.948   1.267 -0.3397  0.6326 -2.2582
 4247SOL    MW416722   5.740   3.879   1.259 -0.1165  0.1148 -0.5452
 4248SOL     OW16723   5.630   0.917   4.958  0.1420  0.2965  0.0597
 4248SOL    HW216724   5.618   0.823   4.951  2.7056 -0.0806 -0.1594
 4248SOL    HW316725   5.582   0.953   4.884 -2.2052 -0.6251  1.0278
 4248SOL    MW416726   5.622   0.910   4.948  0.2229 -0.0888  0.0708
 4249SOL     OW16727   2.058   2.893   3.195 -0.3126 -0.3031  0.1956
 4249SOL    HW216728   2.058   2.964   3.259  3.2905 -0.7461  0.9048
 4249SOL    HW316729   2.011   2.822   3.238 -0.5252  0.3838  1.1290
 4249SOL    MW416730   2.052   2.893   3.209 -0.1392 -0.7139  0.0024
 4250SOL     OW16731   0.944   4.695   4.418  0.0951  0.1679  0.5435
 4250SOL    HW216732   0.908   4.695   4.329 -0.2570  1.4263  0.6616
 4250SOL    HW316733   1.033   4.661   4.408  1.0413  2.7377 -0.7644
 4250SOL    MW416734   0.951   4.690   4.405 -0.0074 -0.4384  0.7045
 4251SOL     OW16735   6.395   3.591   5.993  0.4481 -0.4782 -0.3507
 4251SOL    HW216736   6.436   3.662   6.042  0.6936 -0.3143 -0.7819
 4251SOL    HW316737   6.371   3.526   6.059  0.7941 -0.2729 -0.0222
 4251SOL    MW416738   6.397   3.591   6.008 -0.4021  0.0569 -0.1262
 4252SOL     OW16739   3.082   2.639   5.986 -0.2072  0.3135  0.2959
 4252SOL    HW216740   3.108   2.586   5.911 -2.2102  1.3534 -1.2140
 4252SOL    HW316741   3.027   2.580   6.039  1.8862 -0.6819  1.4747
 4252SOL    MW416742   3.078   2.624   5.983  0.4451  0.3290 -0.4192
 4253SOL     OW16743   1.692   3.880   5.441  0.0913 -0.1698  0.0995
 4253SOL    HW216744   1.770   3.825   5.432 -0.2037 -0.3680 -1.4978
 4253SOL    HW316745   1.724   3.969   5.424 -0.0799 -0.3020 -1.0141
 4253SOL    MW416746   1.706   3.885   5.438 -0.1345  0.6822 -0.4463
 4254SOL     OW16747   4.554   0.747   2.395  0.3178 -0.0738  0.5838
 4254SOL    HW216748   4.626   0.685   2.406 -0.5349 -1.0253  0.9040
 4254SOL    HW316749   4.597   0.832   2.388  1.4221 -0.5017  1.8120
 4254SOL    MW416750   4.569   0.750   2.396 -0.0116  0.0658  0.3047
 4255SOL     OW16751   4.286   3.262   2.376 -0.1357 -0.9146  0.1873
 4255SOL    HW216752   4.345   3.321   2.329  1.1559 -1.2451  1.3123
 4255SOL    HW316753   4.228   3.321   2.425 -0.0882 -0.5832 -0.1471
 4255SOL    MW416754   4.286   3.278   2.377  0.2509 -0.2209  0.1662
 4256SOL     OW16755   0.656   6.073   3.240  0.0388 -0.3140 -0.4356
 4256SOL    HW216756   0.690   6.090   3.328  0.5613 -0.9512 -0.5038
 4256SOL    HW316757   0.577   6.021   3.255  0.0043 -0.2317 -0.3336
 4256SOL    MW416758   0.650   6.068   3.254  0.3343  0.0066  0.0756
 4257SOL     OW16759   0.568   0.452   6.323 -0.1151  0.1107  0.0474
 4257SOL    HW216760   0.657   0.467   6.292 -0.2311 -1.0014 -0.9220
 4257SOL    HW316761   0.562   0.500   6.405  0.9103  1.3991 -0.6015
 4257SOL    MW416762   0.579   0.460   6.330  0.7982 -0.3717 -0.0950
 4258SOL     OW16763   2.553   1.009   5.865 -0.3528 -0.8687 -0.2546
 4258SOL    HW216764   2.506   1.000   5.948  1.2035 -1.4753  0.5997
 4258SOL    HW316765   2.492   1.056   5.808 -1.0605  0.4941  1.5472
 4258SOL    MW416766   2.538   1.014   5.868  0.0837 -0.2660  0.2871
 4259SOL     OW16767   6.200   3.653   1.862  0.1888  0.6113 -0.0446
 4259SOL    HW216768   6.229   3.710   1.933 -1.4240 -0.4657  1.5515
 4259SOL    HW316769   6.105   3.657   1.865 -0.0295 -2.2476  0.2845
 4259SOL    MW416770   6.191   3.661   1.872 -0.1819  0.1603 -0.2261
 4260SOL     OW16771   2.063   2.339   5.828  0.2105  0.3466  0.1978
 4260SOL    HW216772   2.119   2.340   5.906 -0.7977  1.0811  0.9339
 4260SOL    HW316773   1.989   2.284   5.852  0.9167 -1.2184 -1.0220
 4260SOL    MW416774   2.061   2.332   5.841 -0.4176  0.3237  1.3021
 4261SOL     OW16775   4.363   3.325   1.467  0.3678 -0.4238 -0.3516
 4261SOL    HW216776   4.359   3.297   1.376 -0.4294 -1.4948 -0.0085
 4261SOL    HW316777   4.457   3.327   1.488  0.5175 -1.2173 -0.8909
 4261SOL    MW416778   4.375   3.322   1.458  0.1179  0.3727  0.3504
 4262SOL     OW16779   0.041   3.893   5.298  0.1336 -0.2098 -1.0589
 4262SOL    HW216780   0.001   3.947   5.366 -0.2915 -0.5154 -1.0627
 4262SOL    HW316781   0.096   3.831   5.347  1.2156  0.6782 -1.0871
 4262SOL    MW416782   0.043   3.892   5.314 -0.0640  0.2671 -0.0058
 4263SOL     OW16783   6.377   2.068   0.749  0.2289 -0.7792  0.3733
 4263SOL    HW216784   6.360   2.105   0.663 -0.7281 -0.0477  0.8616
 4263SOL    HW316785   6.366   2.141   0.810 -0.3480 -1.5558  1.2263
 4263SOL    MW416786   6.373   2.082   0.746  0.7908 -0.1033  0.0008
 4264SOL     OW16787   6.384   4.065   5.510 -0.3882 -0.0468  0.0081
 4264SOL    HW216788   6.322   4.138   5.505  0.4683  0.6887  0.0376
 4264SOL    HW316789   6.382   4.039   5.603  0.5497  1.0476  0.3524
 4264SOL    MW416790   6.375   4.071   5.522  0.0939 -0.2947 -0.2176
 4265SOL     OW16791   2.661   5.696   5.982  0.3044 -0.2385 -1.0251
 4265SOL    HW216792   2.725   5.765   5.966  1.4450 -1.2333 -0.8848
 4265SOL    HW316793   2.713   5.616   5.988 -0.9805 -1.1107 -1.1331
 4265SOL    MW416794   2.676   5.694   5.980 -0.0680 -0.0250 -0.3150
 4266SOL     OW16795   2.318   1.553   4.319  0.0373  0.3744  0.3806
 4266SOL    HW216796   2.309   1.475   4.374 -0.0244  0.4925  0.5395
 4266SOL    HW316797   2.408   1.548   4.286  0.0215  0.2171  0.3595
 4266SOL    MW416798   2.329   1.542   4.322  0.2224  0.2769 -0.4650
 4267SOL     OW16799   5.366   2.289   4.160 -0.3447  0.5496  0.4986
 4267SOL    HW216800   5.293   2.334   4.201  0.5940  2.0334  0.6315
 4267SOL    HW316801   5.425   2.268   4.232  0.6454  1.8914  0.1221
 4267SOL    MW416802   5.364   2.292   4.175  0.0490  0.2459  0.1307
 4268SOL     OW16803   5.801   5.883   1.146 -0.3481  0.2464  0.1734
 4268SOL    HW216804   5.730   5.838   1.190  0.0321 -1.6893 -1.0980
 4268SOL    HW316805   5.772   5.974   1.141 -2.6937 -0.4573 -0.2310
 4268SOL    MW416806   5.788   5.889   1.152  0.1776  0.4816 -0.0918
 4269SOL     OW16807   3.790   1.699   3.996  0.3046 -0.2795 -0.1551
 4269SOL    HW216808   3.783   1.794   4.002  4.2957  0.3520 -2.0538
 4269SOL    HW316809   3.769   1.667   4.084 -1.4926  2.2469  0.4349
 4269SOL    MW416810   3.786   1.707   4.008  0.1792 -0.0659 -0.8668
 4270SOL     OW16811   1.968   4.237   3.196  0.5495  0.5789 -0.0384
 4270SOL    HW216812   2.056   4.251   3.160 -0.2275  2.2491 -1.4539
 4270SOL    HW316813   1.911   4.284   3.136 -1.3425 -0.5227  0.8233
 4270SOL    MW416814   1.972   4.245   3.183 -0.5880  0.0640  0.0926
 4271SOL     OW16815   6.049   2.866   3.460 -0.0887 -0.3773 -0.2624
 4271SOL    HW216816   6.125   2.923   3.468  0.2853 -0.6709 -1.5046
 4271SOL    HW316817   5.995   2.908   3.393 -1.5601  0.3832  1.3184
 4271SOL    MW416818   6.052   2.879   3.452  0.3742 -0.1505 -0.2412
 4272SOL     OW16819   0.091   1.202   2.587 -0.1416 -0.2241  0.1619
 4272SOL    HW216820   0.073   1.115   2.553  0.6056  0.6568 -2.6966
 4272SOL    HW316821   0.176   1.194   2.630 -0.2280 -0.9449  0.2091
 4272SOL    MW416822   0.099   1.190   2.588  0.2900  0.1339  0.3004
 4273SOL     OW16823   1.226   4.885   5.836  0.4567  0.1924  0.5099
 4273SOL    HW216824   1.247   4.928   5.753  0.6622  0.0717  0.4996
 4273SOL    HW316825   1.192   4.956   5.891  0.3270  0.2731  0.3258
 4273SOL    MW416826   1.224   4.900   5.832  0.1812  0.4943 -0.4407
 4274SOL     OW16827   4.093   5.517   3.371 -0.3851  0.0149 -0.2452
 4274SOL    HW216828   4.043   5.598   3.360 -0.2869  0.2184  0.6613
 4274SOL    HW316829   4.027   5.449   3.383 -0.4635  0.0479 -0.4948
 4274SOL    MW416830   4.078   5.519   3.371  0.3248  0.2840  0.9360
 4275SOL     OW16831   5.751   5.373   4.047 -0.7481 -0.0653 -0.1043
 4275SOL    HW216832   5.784   5.402   4.132 -1.4609 -1.4628  0.6812
 4275SOL    HW316833   5.709   5.451   4.010  1.1678  1.0586 -0.0343
 4275SOL    MW416834   5.750   5.387   4.054 -0.5660 -0.1626 -0.5443
 4276SOL     OW16835   2.038   1.519   4.320  0.1700 -0.1294 -0.1289
 4276SOL    HW216836   2.132   1.526   4.307 -0.0043  0.8704 -1.0421
 4276SOL    HW316837   2.006   1.609   4.312 -0.8832 -0.4812 -0.0599
 4276SOL    MW416838   2.046   1.532   4.317  0.4475  0.1245 -0.1895
 4277SOL     OW16839   2.025   6.271   5.356  0.0731  0.5794  0.1308
 4277SOL    HW216840   1.976   6.317   5.424 -1.0642  0.0925 -0.3253
 4277SOL    HW316841   1.958   6.224   5.307  0.8840  0.8137 -1.2445
 4277SOL    MW416842   2.009   6.271   5.359  0.1398  0.1765  0.1973
 4278SOL     OW16843   0.979   2.204   2.185  0.7331 -0.3130 -0.6209
 4278SOL    HW216844   0.969   2.233   2.094  1.8534  0.1375 -0.6101
 4278SOL    HW316845   1.059   2.151   2.185  1.5198  0.8308  0.3575
 4278SOL    MW416846   0.988   2.201   2.173 -0.3677  0.7627 -0.1319
 4279SOL     OW16847   3.444   2.307   3.829 -0.0985 -0.2128  0.6859
 4279SOL    HW216848   3.515   2.297   3.892  2.0742 -1.2550 -1.7531
 4279SOL    HW316849   3.392   2.227   3.838  0.6349 -0.6974  0.6605
 4279SOL    MW416850   3.446   2.295   3.838 -0.4633 -0.0100  0.1310
 4280SOL     OW16851   4.487   4.991   3.861 -0.0770  0.2417  0.6734
 4280SOL    HW216852   4.478   5.067   3.804 -1.0133  1.0273  1.8162
 4280SOL    HW316853   4.463   4.917   3.806  0.3000  0.8314 -0.3042
 4280SOL    MW416854   4.482   4.991   3.847 -0.1394  0.3132  0.0534
 4281SOL     OW16855   3.022   4.360   5.002 -0.0776 -0.0460 -0.4013
 4281SOL    HW216856   3.102   4.308   5.015 -1.5021 -1.8495  2.2579
 4281SOL    HW316857   2.986   4.328   4.920  0.1609 -1.8719  0.1457
 4281SOL    MW416858   3.028   4.349   4.993  0.2176  0.1452 -0.0279
 4282SOL     OW16859   2.890   5.952   4.981 -0.2483  0.0195  0.6354
 4282SOL    HW216860   2.810   5.998   4.956 -0.0087  0.7084  1.1108
 4282SOL    HW316861   2.908   5.894   4.907 -1.5886 -0.7047  0.8401
 4282SOL    MW416862   2.882   5.950   4.968  0.6270  0.4016  0.3527
 4283SOL     OW16863   2.876   3.656   2.925  0.2991  0.4201 -0.0544
 4283SOL    HW216864   2.869   3.617   3.012  0.5860 -0.9781 -0.6402
 4283SOL    HW316865   2.968   3.648   2.901  0.3947  1.5860 -0.1487
 4283SOL    MW416866   2.887   3.650   2.933 -0.5773 -0.1389  0.3992
 4284SOL     OW16867   6.021   0.094   3.184  0.2600  0.1566  0.4970
 4284SOL    HW216868   5.965   0.076   3.108  0.9980 -0.9130  0.1809
 4284SOL    HW316869   6.015   0.014   3.237  1.3445  0.0817  0.5288
 4284SOL    MW416870   6.013   0.081   3.181  0.0127 -0.2273  0.4465
 4285SOL     OW16871   5.734   1.593   5.421 -0.2867  0.1626 -0.2169
 4285SOL    HW216872   5.692   1.584   5.507 -0.1082  1.7006  0.0601
 4285SOL    HW316873   5.662   1.583   5.358 -0.8058  1.1921  0.1971
 4285SOL    MW416874   5.719   1.590   5.424 -0.0149  0.8274 -0.7866
 4286SOL     OW16875   5.402   3.596   4.304 -0.0256  0.3596  0.0074
 4286SOL    HW216876   5.401   3.659   4.232  0.1011  0.6745  0.2815
 4286SOL    HW316877   5.447   3.519   4.267 -1.4319 -0.1190 -0.7698
 4286SOL    MW416878   5.408   3.594   4.289  0.2273 -0.0953 -0.9202
 4287SOL     OW16879   2.055   0.606   1.013 -0.3809 -0.0262  0.0961
 4287SOL    HW216880   2.143   0.577   0.991 -0.3565 -0.5005  0.7781
 4287SOL    HW316881   2.008   0.526   1.038 -0.7983  0.3088  0.4059
 4287SOL    MW416882   2.060   0.592   1.014  0.6043 -0.1981 -0.1412
 4288SOL     OW16883   1.569   4.659   4.147  0.5965 -0.2296 -0.0612
 4288SOL    HW216884   1.490   4.712   4.156  1.7683  1.8689 -1.2671
 4288SOL    HW316885   1.546   4.594   4.081 -0.9142 -1.3702  1.5179
 4288SOL    MW416886   1.555   4.658   4.139  0.1575 -0.1905  0.3505
 4289SOL     OW16887   5.617   2.810   5.050  0.0032  0.4060  0.3925
 4289SOL    HW216888   5.703   2.783   5.018 -0.9889 -2.4817 -0.1383
 4289SOL    HW316889   5.636   2.872   5.121  2.5138 -0.5933  0.6883
 4289SOL    MW416890   5.631   2.815   5.055 -0.0386  0.3301 -0.1811
 4290SOL     OW16891   5.253   0.819   0.547  0.6619  0.3804  0.0998
 4290SOL    HW216892   5.286   0.845   0.633  1.3377  1.4376 -0.4604
 4290SOL    HW316893   5.329   0.781   0.503  0.1962 -0.6339  0.1333
 4290SOL    MW416894   5.267   0.818   0.553  0.1629  0.1287 -0.5565
 4291SOL     OW16895   5.895   5.701   2.879 -0.4417 -0.6416 -0.2445
 4291SOL    HW216896   5.906   5.609   2.857 -0.5464 -0.9115  0.8141
 4291SOL    HW316897   5.833   5.702   2.952  1.0682  0.1091  1.0918
 4291SOL    MW416898   5.888   5.689   2.886  0.1555 -0.2974 -0.3531
 4292SOL     OW16899   3.722   0.614   1.961  0.3638  0.6589 -0.3004
 4292SOL    HW216900   3.645   0.635   1.909  0.6003  2.2264 -0.0707
 4292SOL    HW316901   3.687   0.579   2.043 -0.1525  2.0875  0.1143
 4292SOL    MW416902   3.708   0.612   1.965  0.2307  0.5483  0.0268
 4293SOL     OW16903   0.673   3.907   0.695 -0.4499  0.3560  0.1125
 4293SOL    HW216904   0.709   3.940   0.613  1.5135  0.0750  0.7896
 4293SOL    HW316905   0.629   3.982   0.735 -0.9272  0.6392 -0.9244
 4293SOL    MW416906   0.672   3.921   0.690  0.2000  0.2841  0.2549
 4294SOL     OW16907   4.967   1.485   5.720  0.3794  0.0648 -0.7304
 4294SOL    HW216908   4.983   1.445   5.805 -2.5623  0.2811  0.0346
 4294SOL    HW316909   4.873   1.477   5.707  0.7759 -0.5873 -4.3394
 4294SOL    MW416910   4.957   1.479   5.729  0.4488 -0.1610  0.1447
 4295SOL     OW16911   3.667   1.554   1.551 -0.3285 -0.3958  0.2780
 4295SOL    HW216912   3.725   1.629   1.561 -0.1704 -0.6988  1.7656
 4295SOL    HW316913   3.719   1.479   1.582  0.1120 -1.4494 -2.6119
 4295SOL    MW416914   3.682   1.554   1.556  0.0646  1.2277 -0.0204
 4296SOL     OW16915   5.917   1.943   4.093  0.0782 -0.1332  0.6580
 4296SOL    HW216916   5.975   2.016   4.116  0.3005 -0.4057  0.9771
 4296SOL    HW316917   5.842   1.953   4.152  0.4022 -0.5244  1.1467
 4296SOL    MW416918   5.915   1.954   4.104 -0.1006 -0.5087  0.5828
 4297SOL     OW16919   3.860   5.398   1.029 -0.0673  0.4194 -0.2179
 4297SOL    HW216920   3.768   5.403   1.004  0.0643  1.6526 -0.5105
 4297SOL    HW316921   3.896   5.484   1.007  1.3470 -0.3019 -0.8332
 4297SOL    MW416922   3.853   5.410   1.023 -0.0388 -0.0129  0.7134
 4298SOL     OW16923   3.667   0.038   0.479 -0.5991  0.4316 -0.3355
 4298SOL    HW216924   3.743   0.064   0.427  1.1895 -0.1888  1.7886
 4298SOL    HW316925   3.641  -0.047   0.442  0.4038  0.1728 -0.4953
 4298SOL    MW416926   3.674   0.030   0.467  0.4276  0.8088 -0.4726
 4299SOL     OW16927   3.546   2.746   6.362  0.0426 -0.0142  0.0608
 4299SOL    HW216928   3.576   2.806   6.294 -0.6057  0.6148  0.3173
 4299SOL    HW316929   3.512   2.803   6.431  0.5860 -0.6425  0.8768
 4299SOL    MW416930   3.546   2.761   6.362 -0.0837 -0.4139 -0.5774
 4300SOL     OW16931   2.484   0.252   3.979  0.3560 -0.1464  0.0348
 4300SOL    HW216932   2.538   0.301   4.041 -0.1763  0.6777 -0.1374
 4300SOL    HW316933   2.536   0.175   3.957  1.4257  0.5880 -0.0622
 4300SOL    MW416934   2.498   0.248   3.984 -0.0028 -0.0249  0.1375
 4301SOL     OW16935   0.241   1.676   5.277 -0.2931 -0.1878 -0.1290
 4301SOL    HW216936   0.266   1.584   5.282 -0.8310 -0.3688 -0.6572
 4301SOL    HW316937   0.218   1.690   5.185  1.3017  0.8869 -0.4010
 4301SOL    MW416938   0.241   1.666   5.265 -0.7905 -0.1933 -0.1024
 4302SOL     OW16939   1.422   3.900   1.303  0.0441 -0.1933  0.4112
 4302SOL    HW216940   1.455   3.981   1.262 -0.7276 -0.3667 -0.5803
 4302SOL    HW316941   1.423   3.919   1.397 -0.0067  0.9236  0.1998
 4302SOL    MW416942   1.427   3.913   1.310  0.0099 -0.2787  0.0590
 4303SOL     OW16943   0.711   0.276   4.647  0.3036  0.2109  0.1086
 4303SOL    HW216944   0.654   0.349   4.622  1.3194  1.5672  1.5521
 4303SOL    HW316945   0.792   0.291   4.597  0.1806 -0.4874 -0.3089
 4303SOL    MW416946   0.714   0.288   4.637 -0.2463  0.4245  0.2734
 4304SOL     OW16947   5.633   6.303   0.481  0.1005  0.2653  0.2363
 4304SOL    HW216948   5.551   6.318   0.434 -0.0683 -0.3874  0.3114
 4304SOL    HW316949   5.695   6.278   0.413  0.4144  1.3627  0.0949
 4304SOL    MW416950   5.631   6.302   0.466 -0.6388 -0.0074  0.0061
 4305SOL     OW16951   5.492   5.106   2.879 -0.4504  0.0999  0.0402
 4305SOL    HW216952   5.579   5.076   2.906 -0.3488  1.1120  0.8993
 4305SOL    HW316953   5.505   5.197   2.855 -1.1074 -0.0058 -0.7505
 4305SOL    MW416954   5.506   5.114   2.879  0.2998 -0.5948  0.3093
 4306SOL     OW16955   3.982   5.536   5.450  0.2000  0.9133  0.1226
 4306SOL    HW216956   3.951   5.472   5.514 -0.2100  0.2753 -0.6984
 4306SOL    HW316957   4.034   5.484   5.388 -0.3813  1.3183 -0.7180
 4306SOL    MW416958   3.985   5.521   5.450  0.9126 -0.0547 -0.3515
 4307SOL     OW16959   2.715   3.853   1.861  0.6842 -0.3115 -0.0285
 4307SOL    HW216960   2.704   3.886   1.950 -0.3012  1.0645 -0.6419
 4307SOL    HW316961   2.699   3.759   1.869  0.4592 -0.1888  1.2204
 4307SOL    MW416962   2.712   3.845   1.874 -0.3259  0.4745 -0.2407
 4308SOL     OW16963   1.029   6.196   0.631 -0.0667 -0.0393  0.1161
 4308SOL    HW216964   0.949   6.244   0.610 -1.0014 -1.8707 -0.6721
 4308SOL    HW316965   1.016   6.164   0.720 -1.3156 -2.3054 -0.7893
 4308SOL    MW416966   1.017   6.198   0.640  0.4767 -0.7650 -0.3039
 4309SOL     OW16967   2.045   6.128   2.120 -0.6997  0.1442  0.2431
 4309SOL    HW216968   2.108   6.116   2.049  0.4132 -0.0546  1.2269
 4309SOL    HW316969   1.961   6.141   2.076  0.1428  1.2753 -1.1425
 4309SOL    MW416970   2.042   6.129   2.105 -0.7221  0.1851  0.5435
 4310SOL     OW16971   3.549   4.573   2.974 -0.2734  0.3613  0.6427
 4310SOL    HW216972   3.505   4.607   2.897  1.6789 -1.6182 -1.5128
 4310SOL    HW316973   3.638   4.608   2.969  0.0988 -0.4010  1.5768
 4310SOL    MW416974   3.555   4.582   2.963  0.0209  0.1143 -0.2206
 4311SOL     OW16975   0.572   4.648   5.339  0.0373  0.0411  0.0965
 4311SOL    HW216976   0.485   4.661   5.376 -0.4138  0.1171 -0.9834
 4311SOL    HW316977   0.572   4.557   5.309  0.4468 -0.0585  0.3897
 4311SOL    MW416978   0.561   4.638   5.340  0.0455  0.8798 -0.1448
 4312SOL     OW16979   1.829   1.907   0.048  0.3489  0.4876 -0.0421
 4312SOL    HW216980   1.898   1.841   0.054 -0.3248 -0.1665  0.7706
 4312SOL    HW316981   1.832   1.952   0.133 -0.9842 -0.3463  0.4775
 4312SOL    MW416982   1.839   1.905   0.060  0.4351  0.0373 -0.4424
 4313SOL     OW16983   2.441   5.895   3.310  0.4769  0.1098  0.4576
 4313SOL    HW216984   2.409   5.833   3.244 -0.8818 -0.3038  1.4558
 4313SOL    HW316985   2.405   5.862   3.393  1.6014  0.9772  1.3275
 4313SOL    MW416986   2.432   5.882   3.312 -0.3583 -0.1486 -0.0655
 4314SOL     OW16987   3.111   2.567   5.340  0.5418  0.1099 -0.1968
 4314SOL    HW216988   3.070   2.650   5.318 -0.0264  0.3217  1.5910
 4314SOL    HW316989   3.189   2.591   5.390 -0.0471 -0.4254  1.0151
 4314SOL    MW416990   3.116   2.581   5.343  0.3986  0.4522 -0.2072
 4315SOL     OW16991   4.133   0.621   2.337 -0.4122 -0.4959 -0.3061
 4315SOL    HW216992   4.188   0.668   2.399 -0.5700 -0.2731 -0.3348
 4315SOL    HW316993   4.177   0.537   2.325 -0.5970 -0.6999  0.4152
 4315SOL    MW416994   4.146   0.616   2.344 -0.4976 -0.5377 -0.1541
 4316SOL     OW16995   6.020   1.055   2.680  0.4415  0.3937  0.0206
 4316SOL    HW216996   5.988   1.114   2.748  2.6259  1.8791 -0.1611
 4316SOL    HW316997   5.946   0.996   2.664 -1.3461  2.1518  1.2260
 4316SOL    MW416998   6.006   1.055   2.687  0.3334  0.5025  0.1039
 4317SOL     OW16999   4.879   5.347   2.863  0.4748  0.3985  0.1575
 4317SOL    HW217000   4.861   5.300   2.781  0.2658 -3.7212  2.2823
 4317SOL    HW317001   4.817   5.310   2.925  1.4781  2.4382  2.5152
 4317SOL    MW417002   4.868   5.336   2.860  0.2213 -0.1170 -0.3785
 4318SOL     OW17003   2.702   4.925   2.387  0.3771 -0.3751  0.2735
 4318SOL    HW217004   2.642   4.851   2.400 -0.1065 -0.5714 -2.4926
 4318SOL    HW317005   2.680   4.986   2.457 -3.1361 -0.4449 -0.5758
 4318SOL    MW417006   2.691   4.923   2.398 -0.2311  0.4894  0.2653
 4319SOL     OW17007   2.968   2.051   6.253 -0.0773 -0.7334 -0.3989
 4319SOL    HW217008   2.955   2.066   6.159 -0.0789  0.1835 -0.2661
 4319SOL    HW317009   2.898   1.991   6.278 -0.6541 -0.2399 -0.8052
 4319SOL    MW417010   2.957   2.045   6.244 -0.0032 -0.1494 -0.0576
 4320SOL     OW17011   2.008   3.265   4.512  0.4996  0.2178  0.0029
 4320SOL    HW217012   2.065   3.207   4.563 -1.6080 -1.4291  0.6287
 4320SOL    HW317013   1.942   3.295   4.574 -0.3449  0.6822 -1.0819
 4320SOL    MW417014   2.007   3.262   4.527 -0.2012 -0.2927 -0.0227
 4321SOL     OW17015   1.145   1.751   4.945 -0.2918 -0.1339  0.2436
 4321SOL    HW217016   1.086   1.804   4.890  0.3927 -1.0500 -1.4351
 4321SOL    HW317017   1.223   1.739   4.892  0.4607 -0.9620  1.4932
 4321SOL    MW417018   1.147   1.757   4.930 -0.0639 -0.0932  0.0646
 4322SOL     OW17019   3.259   2.890   4.120 -0.3728 -0.0921  0.5192
 4322SOL    HW217020   3.267   2.839   4.040 -0.4574  0.9630 -0.1705
 4322SOL    HW317021   3.182   2.854   4.164 -0.2643 -0.7383  0.1802
 4322SOL    MW417022   3.250   2.879   4.116  0.5234  0.2864  0.2376
 4323SOL     OW17023   4.480   1.307   3.810  0.7410  0.1097 -0.3490
 4323SOL    HW217024   4.536   1.350   3.874  0.8431 -1.3759  0.6008
 4323SOL    HW317025   4.541   1.257   3.756  0.4905 -0.0294 -0.5032
 4323SOL    MW417026   4.496   1.306   3.811 -0.2918  0.1392  0.8024
 4324SOL     OW17027   1.095   1.508   5.741  0.6170 -0.3701  0.1587
 4324SOL    HW217028   1.094   1.413   5.746 -1.0202 -0.3864  0.1734
 4324SOL    HW317029   1.082   1.537   5.832  1.7118 -0.1148  0.2417
 4324SOL    MW417030   1.093   1.500   5.754 -0.1037  0.0790 -0.4128
 4325SOL     OW17031   6.113   2.283   4.358 -0.4802  0.0044 -0.1825
 4325SOL    HW217032   6.030   2.319   4.330 -1.2911 -1.4622  0.2072
 4325SOL    HW317033   6.101   2.264   4.451  0.1944 -0.4500 -0.1743
 4325SOL    MW417034   6.101   2.285   4.367 -0.2642 -0.0842  0.1433
 4326SOL     OW17035   5.775   0.774   0.520 -0.5060 -0.0797  0.3512
 4326SOL    HW217036   5.750   0.769   0.613 -1.3147  0.6980  0.1860
 4326SOL    HW317037   5.789   0.683   0.495  2.5114 -0.1830  1.9540
 4326SOL    MW417038   5.773   0.761   0.529  0.0545 -0.3570  0.4416
 4327SOL     OW17039   5.265   6.391   0.825  0.4207  0.4114 -0.4222
 4327SOL    HW217040   5.269   6.382   0.921 -1.2622  1.0609 -0.2663
 4327SOL    HW317041   5.227   6.309   0.795 -1.5311  1.1987 -0.2588
 4327SOL    MW417042   5.261   6.379   0.834  0.5407  0.5327  0.1927
 4328SOL     OW17043   0.267   4.998   2.972 -0.2533 -0.2242  0.3630
 4328SOL    HW217044   0.188   5.048   2.951  1.0856  1.4782 -0.8714
 4328SOL    HW317045   0.339   5.050   2.937  1.4656 -1.6347  1.6014
 4328SOL    MW417046   0.266   5.012   2.964  0.6727 -0.6958  0.0093
 4329SOL     OW17047   4.392   1.408   4.815  0.1835 -0.3647  0.7253
 4329SOL    HW217048   4.338   1.451   4.749  0.3671  0.6067  1.1869
 4329SOL    HW317049   4.481   1.415   4.782  0.2445 -0.1327  0.9341
 4329SOL    MW417050   4.396   1.415   4.802 -0.1127  0.0273 -0.0539
 4330SOL     OW17051   5.815   6.185   0.297  0.7407 -0.3691  0.2230
 4330SOL    HW217052   5.907   6.208   0.291  0.5635  0.0001 -1.4865
 4330SOL    HW317053   5.790   6.159   0.208 -1.1362  0.8826  0.3154
 4330SOL    MW417054   5.824   6.185   0.284 -0.5190 -0.2917  0.4519
 4331SOL     OW17055   1.650   2.680   1.557  0.7125  0.2353 -0.4333
 4331SOL    HW217056   1.685   2.747   1.498  1.3698  0.7874  0.5557
 4331SOL    HW317057   1.573   2.721   1.596  0.0195 -0.2910 -1.2076
 4331SOL    MW417058   1.644   2.694   1.554 -0.0002 -0.1402 -0.2240
 4332SOL     OW17059   1.035   2.588   6.061 -0.4845  0.0287 -0.7369
 4332SOL    HW217060   1.117   2.632   6.082 -2.2716  2.9407  0.9073
 4332SOL    HW317061   0.969   2.658   6.062 -3.1956 -2.3189 -0.7058
 4332SOL    MW417062   1.037   2.603   6.064 -0.2442 -0.3170 -0.3554
 4333SOL     OW17063   0.507   3.564   4.578  0.4079  0.3330  0.0331
 4333SOL    HW217064   0.468   3.641   4.536  2.5752  1.1515 -0.6297
 4333SOL    HW317065   0.459   3.490   4.541  1.2478  1.1148 -2.9313
 4333SOL    MW417066   0.496   3.565   4.567 -0.2187  0.1137  0.5540
 4334SOL     OW17067   4.504   1.642   2.359 -0.2772  0.4467 -0.0905
 4334SOL    HW217068   4.532   1.638   2.268 -2.3268  1.6427 -0.8419
 4334SOL    HW317069   4.432   1.579   2.364  0.4785 -0.3665  0.9968
 4334SOL    MW417070   4.498   1.633   2.348 -0.6048  0.0433 -0.2000
 4335SOL     OW17071   4.870   6.140   2.019  0.0111  0.9019  0.3273
 4335SOL    HW217072   4.828   6.087   1.952  1.9452  1.9500 -1.8648
 4335SOL    HW317073   4.799   6.195   2.054 -1.1572 -0.0575 -0.4425
 4335SOL    MW417074   4.855   6.140   2.015  0.5160 -0.2739 -0.1819
 4336SOL     OW17075   3.344   5.225   3.412  0.3456 -0.2566 -0.2820
 4336SOL    HW217076   3.249   5.211   3.410  0.2886 -0.1235  0.8418
 4336SOL    HW317077   3.362   5.281   3.336 -0.5556  0.2027 -0.1708
 4336SOL    MW417078   3.334   5.230   3.402 -0.0257 -0.2892 -0.8360
 4337SOL     OW17079   0.068   4.415   0.104  0.2591 -0.3087 -0.0272
 4337SOL    HW217080  -0.027   4.407   0.114  0.3482 -1.6044 -0.0906
 4337SOL    HW317081   0.080   4.441   0.013 -0.0057 -0.8830 -0.2308
 4337SOL    MW417082   0.057   4.417   0.093 -0.2681 -0.0698  0.0506
 4338SOL     OW17083   5.784   0.485   6.172 -0.2109  0.0156 -0.3466
 4338SOL    HW217084   5.789   0.576   6.200  2.6089 -0.4144  0.8781
 4338SOL    HW317085   5.691   0.463   6.179 -0.9368  2.7144 -0.5382
 4338SOL    MW417086   5.772   0.494   6.177  0.0811 -0.1660  0.2247
 4339SOL     OW17087   2.453   0.183   1.077  0.3911  0.2227 -0.1936
 4339SOL    HW217088   2.537   0.147   1.048  1.0074  0.1897  1.5125
 4339SOL    HW317089   2.414   0.113   1.129  0.0032  0.7870  0.2810
 4339SOL    MW417090   2.459   0.169   1.080 -0.2453 -0.1034 -0.2022
 4340SOL     OW17091   6.430   0.773   5.504 -0.2580 -0.2405  1.2253
 4340SOL    HW217092   6.502   0.751   5.564 -0.5050  1.6593  2.2999
 4340SOL    HW317093   6.465   0.842   5.448 -0.3477 -1.3328 -0.2516
 4340SOL    MW417094   6.444   0.779   5.505 -0.0877 -0.6673 -0.4039
 4341SOL     OW17095   1.552   4.433   4.965 -0.1869  0.0023  0.4557
 4341SOL    HW217096   1.494   4.466   4.897  0.0283  1.2836  0.8733
 4341SOL    HW317097   1.494   4.385   5.025 -0.5384 -0.2131 -0.0531
 4341SOL    MW417098   1.537   4.431   4.964 -0.4727  0.4810  0.0799
 4342SOL     OW17099   0.033   3.466   3.560  0.1148  1.0024  0.0326
 4342SOL    HW217100   0.101   3.420   3.610  1.0193  2.2460 -0.0238
 4342SOL    HW317101   0.079   3.538   3.518 -0.6312  0.0488 -2.5895
 4342SOL    MW417102   0.048   3.469   3.561 -0.4866 -0.5572 -0.3225
 4343SOL     OW17103   2.089   4.962   5.564  0.3481  0.4999 -0.6119
 4343SOL    HW217104   2.076   4.870   5.543 -0.5637  0.0625  1.5315
 4343SOL    HW317105   2.069   4.968   5.658  2.2982  2.5220 -0.2250
 4343SOL    MW417106   2.085   4.951   5.574 -0.2747 -0.8097  0.2230
 4344SOL     OW17107   0.908   5.333   6.051 -0.1259  0.4745 -0.1681
 4344SOL    HW217108   0.976   5.401   6.056  0.0256  0.2238  2.6466
 4344SOL    HW317109   0.922   5.292   5.966  1.2759  2.4220 -0.9639
 4344SOL    MW417110   0.919   5.337   6.040 -0.7275 -0.7689 -0.7387
 4345SOL     OW17111   3.101   0.598   3.712  0.2502  0.4737 -0.1158
 4345SOL    HW217112   3.168   0.577   3.647  1.5751 -0.7059  1.5639
 4345SOL    HW317113   3.040   0.655   3.664  1.4277  0.0959 -2.2273
 4345SOL    MW417114   3.102   0.603   3.697 -0.5412  0.2809  0.1984
 4346SOL     OW17115   1.444   1.267   5.008 -0.0066  0.6507  0.0463
 4346SOL    HW217116   1.414   1.313   5.087  1.1005 -0.0554  0.9029
 4346SOL    HW317117   1.473   1.182   5.040  2.7102  1.1941 -0.7262
 4346SOL    MW417118   1.444   1.262   5.023 -0.1691 -0.6823 -0.3334
 4347SOL     OW17119   4.286   1.729   6.175  0.3032 -0.3655 -0.5299
 4347SOL    HW217120   4.245   1.691   6.252  0.1549  2.6089  1.0252
 4347SOL    HW317121   4.214   1.747   6.115 -0.0201  0.1058 -0.0123
 4347SOL    MW417122   4.271   1.727   6.177 -0.5616  0.0239  0.5706
 4348SOL     OW17123   3.039   3.702   4.357  0.2709 -0.7420  0.6094
 4348SOL    HW217124   3.094   3.631   4.389 -2.3399 -3.2090  0.0539
 4348SOL    HW317125   2.952   3.683   4.393 -1.4372 -0.1958 -2.8117
 4348SOL    MW417126   3.034   3.691   4.366  0.3267 -0.1518  0.2345
 4349SOL     OW17127   1.095   5.003   6.069 -0.3017 -0.1388 -0.0890
 4349SOL    HW217128   1.008   5.038   6.089  0.3463  1.5505 -0.0761
 4349SOL    HW317129   1.149   5.027   6.144  0.4277 -0.2198 -0.5706
 4349SOL    MW417130   1.091   5.011   6.081  0.2356 -0.2131 -0.1992
 4350SOL     OW17131   3.202   0.731   1.841  0.2543  0.4281  1.0434
 4350SOL    HW217132   3.123   0.686   1.870 -1.2335  1.3574 -1.3331
 4350SOL    HW317133   3.265   0.660   1.825 -0.5347 -0.4393  1.6624
 4350SOL    MW417134   3.200   0.716   1.843  0.1026  0.1180  0.0622
 4351SOL     OW17135   3.159   5.083   1.852  0.6545 -0.6787  0.1161
 4351SOL    HW217136   3.069   5.114   1.845  1.0162  1.2002  2.2347
 4351SOL    HW317137   3.161   5.033   1.933  1.3278 -1.5241 -0.4083
 4351SOL    MW417138   3.148   5.081   1.862 -0.0293  0.3255  0.0338
 4352SOL     OW17139   6.056   0.072   6.343 -0.0409 -0.8696 -0.3719
 4352SOL    HW217140   5.995   0.144   6.325 -0.8322 -1.1761  0.9128
 4352SOL    HW317141   6.025   0.000   6.288  2.2082  0.3727 -3.5677
 4352SOL    MW417142   6.044   0.072   6.333 -0.3085 -0.1441 -0.3463
 4353SOL     OW17143   6.312   4.296   3.262  0.1866  0.4474 -0.2666
 4353SOL    HW217144   6.303   4.236   3.337 -0.9792  3.1314  1.9272
 4353SOL    HW317145   6.248   4.264   3.198 -2.0469  0.5168  1.7647
 4353SOL    MW417146   6.302   4.284   3.264 -0.3413  0.4068  0.8917
 4354SOL     OW17147   0.143   3.526   0.121  0.0363 -0.0487  0.5851
 4354SOL    HW217148   0.119   3.605   0.073  1.8145  1.0648  1.4103
 4354SOL    HW317149   0.195   3.475   0.059  1.2340  0.7827  0.8553
 4354SOL    MW417150   0.147   3.530   0.107  0.3343 -0.2245 -0.3126
 4355SOL     OW17151   4.279   2.791   3.494  0.3722 -0.4187 -0.6081
 4355SOL    HW217152   4.311   2.881   3.489 -0.4960 -0.1201 -0.9414
 4355SOL    HW317153   4.357   2.738   3.480  0.8456  0.2851 -0.7069
 4355SOL    MW417154   4.293   2.796   3.491 -0.6092 -0.0093  0.3082
 4356SOL     OW17155   5.046   0.688   0.202  0.0953 -0.3528  0.0774
 4356SOL    HW217156   5.123   0.631   0.209 -0.7802 -1.4041  2.1253
 4356SOL    HW317157   4.978   0.631   0.164 -0.1128  0.0827 -0.2100
 4356SOL    MW417158   5.047   0.673   0.198  0.6011  0.4013  0.5643
 4357SOL     OW17159   0.069   2.716   1.359 -0.0537 -0.6000 -0.0546
 4357SOL    HW217160   0.096   2.650   1.423  0.2879 -0.1682  0.2476
 4357SOL    HW317161  -0.017   2.686   1.328 -0.6628 -0.3227  1.2930
 4357SOL    MW417162   0.061   2.703   1.363  0.4022 -0.2358 -0.0124
 4358SOL     OW17163   2.753   0.576   2.119  0.4738 -0.0526 -0.2221
 4358SOL    HW217164   2.749   0.634   2.195 -0.0050  1.1910 -1.1552
 4358SOL    HW317165   2.814   0.507   2.144 -0.2303 -0.0716  1.5488
 4358SOL    MW417166   2.761   0.575   2.132  0.1894 -0.2114 -0.0328
 4359SOL     OW17167   6.429   0.526   3.452 -0.0775  0.6015 -0.1050
 4359SOL    HW217168   6.398   0.461   3.514  0.9796 -0.1842 -0.3544
 4359SOL    HW317169   6.515   0.552   3.486 -0.4235  1.7543 -0.0957
 4359SOL    MW417170   6.436   0.521   3.464  0.1263 -0.3835  0.2146
 4360SOL     OW17171   2.157   1.555   2.648  0.1360 -0.3001 -1.0234
 4360SOL    HW217172   2.177   1.466   2.678  3.0458  0.9396  1.2952
 4360SOL    HW317173   2.242   1.590   2.621 -0.9800  1.7297 -2.1587
 4360SOL    MW417174   2.171   1.548   2.649 -0.6125 -0.3017 -0.2864
 4361SOL     OW17175   3.402   4.797   5.309  0.2116  0.1634  0.0504
 4361SOL    HW217176   3.387   4.805   5.215 -0.9942 -1.3501  0.0680
 4361SOL    HW317177   3.318   4.766   5.344  1.3293 -1.6545  1.2631
 4361SOL    MW417178   3.389   4.794   5.301 -0.0131 -0.0480  0.0917
 4362SOL     OW17179   1.493   6.307   3.607  0.4565 -0.8281  0.4000
 4362SOL    HW217180   1.415   6.344   3.646  0.7556  0.4831 -0.1983
 4362SOL    HW317181   1.542   6.270   3.681 -0.5450 -1.3428  0.8141
 4362SOL    MW417182   1.489   6.307   3.622  0.4105 -0.7005 -0.4587
 4363SOL     OW17183   0.924   6.002   5.383  0.5901  0.0417 -0.5226
 4363SOL    HW217184   0.984   6.039   5.448  1.5072 -2.2390  0.0074
 4363SOL    HW317185   0.844   5.985   5.433  1.2638 -1.6250  0.0367
 4363SOL    MW417186   0.921   6.005   5.398 -0.1355  0.3440 -0.0884
 4364SOL     OW17187   3.007   6.435   0.954 -0.1283 -0.3085  0.1303
 4364SOL    HW217188   3.090   6.442   0.907  0.3426 -0.3707  0.9206
 4364SOL    HW317189   3.030   6.388   1.034 -0.9503 -0.4070  0.3111
 4364SOL    MW417190   3.021   6.430   0.958  0.9084 -0.0946  0.2223
 4365SOL     OW17191   2.857   5.151   4.897 -0.2402 -0.2866 -0.4545
 4365SOL    HW217192   2.891   5.126   4.811 -1.8345 -1.6260 -0.7372
 4365SOL    HW317193   2.826   5.241   4.885  1.0273  0.1204 -0.8147
 4365SOL    MW417194   2.857   5.160   4.884 -0.1077 -0.3053 -0.0776
 4366SOL     OW17195   4.362   0.160   4.554 -0.0924  0.0303 -0.3062
 4366SOL    HW217196   4.447   0.138   4.516  0.2902  1.9235 -0.6327
 4366SOL    HW317197   4.298   0.116   4.498  0.6388 -0.8865 -0.4377
 4366SOL    MW417198   4.365   0.151   4.542  0.2534 -0.7534 -0.0779
 4367SOL     OW17199   5.636   3.222   0.766 -0.2777  0.4015  0.1519
 4367SOL    HW217200   5.707   3.282   0.745 -0.9125  0.4137 -2.2838
 4367SOL    HW317201   5.632   3.162   0.691 -0.6722 -1.7321  1.7816
 4367SOL    MW417202   5.645   3.222   0.753 -0.3660 -0.0945  0.2857
 4368SOL     OW17203   0.288   5.215   4.554  0.2456  0.6614 -0.1959
 4368SOL    HW217204   0.301   5.272   4.478  0.1150  1.3832  0.3074
 4368SOL    HW317205   0.329   5.262   4.627  1.1934 -0.4587  0.0185
 4368SOL    MW417206   0.295   5.229   4.554  0.1252  0.0853  0.5760
 4369SOL     OW17207   5.020   5.651   4.552 -0.5292 -0.7682 -0.3806
 4369SOL    HW217208   5.115   5.639   4.544 -0.0846  1.9328 -0.1939
 4369SOL    HW317209   4.989   5.652   4.461 -0.0800  0.0738 -0.5406
 4369SOL    MW417210   5.029   5.650   4.539  0.0934 -0.0592 -0.0166
 4370SOL     OW17211   0.451   1.808   1.281  0.0657 -0.0545  0.0257
 4370SOL    HW217212   0.394   1.764   1.218  1.3257 -1.3673 -0.2474
 4370SOL    HW317213   0.421   1.899   1.281 -1.7251 -0.6048 -0.4200
 4370SOL    MW417214   0.439   1.814   1.273 -0.0208 -0.6134 -0.5073
 4371SOL     OW17215   2.016   2.654   3.341 -0.0089 -0.1013  0.1038
 4371SOL    HW217216   2.099   2.620   3.307  1.2938  0.0245  2.8986
 4371SOL    HW317217   1.949   2.599   3.299  1.6348 -1.9553 -0.2752
 4371SOL    MW417218   2.018   2.642   3.331 -0.3456  0.4123 -0.3142
 4372SOL     OW17219   2.489   2.693   0.620 -0.2222  0.2763  0.4323
 4372SOL    HW217220   2.515   2.779   0.654 -2.4091  1.5345 -0.8310
 4372SOL    HW317221   2.470   2.708   0.528 -1.9747 -1.2315  0.4796
 4372SOL    MW417222   2.490   2.706   0.613  0.5073  0.2389  0.6063
 4373SOL     OW17223   0.525   4.075   0.981  0.0997  0.2567  0.6363
 4373SOL    HW217224   0.515   3.981   0.965  1.0754  0.2899 -0.2657
 4373SOL    HW317225   0.467   4.092   1.055 -1.2753 -0.7684 -0.1384
 4373SOL    MW417226   0.516   4.065   0.989 -0.3522 -0.2240  0.1697
 4374SOL     OW17227   0.680   1.793   4.510 -0.5714  0.2681 -0.2177
 4374SOL    HW217228   0.616   1.786   4.440 -1.8645 -0.9132  1.0265
 4374SOL    HW317229   0.705   1.703   4.530  0.4638  0.6332  0.2387
 4374SOL    MW417230   0.675   1.780   4.503 -0.0189  0.1352  0.2245
 4375SOL     OW17231   0.880   4.478   6.034  0.1151  0.8654  0.0755
 4375SOL    HW217232   0.931   4.525   5.968 -0.6226  0.2141 -0.9960
 4375SOL    HW317233   0.793   4.518   6.030 -0.0178  0.6229  0.4573
 4375SOL    MW417234   0.875   4.489   6.025  0.7358  0.2590 -0.0357
 4376SOL     OW17235   3.087   4.905   3.721 -0.3447 -0.0840 -0.0451
 4376SOL    HW217236   3.125   4.868   3.642 -0.2366  1.1622 -0.5924
 4376SOL    HW317237   3.117   4.847   3.791  1.3368  0.0103 -0.6441
 4376SOL    MW417238   3.096   4.893   3.720  0.2155 -0.0489 -0.2014
 4377SOL     OW17239   1.122   2.677   5.455 -0.3955  0.2820 -0.0585
 4377SOL    HW217240   1.180   2.613   5.414 -1.6424 -1.6581  1.0769
 4377SOL    HW317241   1.157   2.688   5.543 -0.5595  0.6859 -0.0429
 4377SOL    MW417242   1.134   2.670   5.461 -0.0605  0.5449 -0.2021
 4378SOL     OW17243   3.673   5.606   1.631 -0.5068 -0.4486 -0.0168
 4378SOL    HW217244   3.733   5.663   1.679 -0.0884  0.2999 -1.4000
 4378SOL    HW317245   3.714   5.593   1.546 -2.2157 -0.0514 -0.9414
 4378SOL    MW417246   3.686   5.611   1.626  0.4835 -0.1647 -0.6393
 4379SOL     OW17247   4.205   0.675   6.329 -0.2514  0.0514 -0.4690
 4379SOL    HW217248   4.294   0.704   6.351 -0.4714  0.3921 -0.0157
 4379SOL    HW317249   4.209   0.655   6.235  0.6752 -1.2932 -0.1810
 4379SOL    MW417250   4.218   0.676   6.319 -0.4936 -0.4783 -0.5151
 4380SOL     OW17251   5.012   3.290   0.254 -0.2514  0.5342 -0.1813
 4380SOL    HW217252   5.054   3.373   0.236 -1.0452  0.8482 -0.6476
 4380SOL    HW317253   4.931   3.292   0.203  0.2767 -1.0208 -1.1741
 4380SOL    MW417254   5.007   3.301   0.245 -0.3731  0.2181  0.3042
 4381SOL     OW17255   5.468   1.178   0.785  0.7397  0.3627  0.0068
 4381SOL    HW217256   5.399   1.218   0.733 -1.1753  0.4210  2.4048
 4381SOL    HW317257   5.520   1.253   0.817  1.1388  0.4151 -0.7525
 4381SOL    MW417258   5.466   1.193   0.783 -0.1594  0.1280  0.0656
 4382SOL     OW17259   6.298   4.118   3.508 -0.4273 -0.3328 -0.6288
 4382SOL    HW217260   6.304   4.180   3.581  1.3164 -1.1660 -0.0055
 4382SOL    HW317261   6.211   4.081   3.515 -0.7953  0.6373  0.1620
 4382SOL    MW417262   6.288   4.122   3.518  0.2948  0.7998  0.5487
 4383SOL     OW17263   6.007   1.328   6.024 -0.3573 -0.6341  0.4423
 4383SOL    HW217264   5.953   1.251   6.043 -1.8133  0.3624  0.5648
 4383SOL    HW317265   5.956   1.402   6.059  1.2869  0.3344  0.8928
 4383SOL    MW417266   5.993   1.328   6.031 -0.0859 -0.5783 -0.1556
 4384SOL     OW17267   2.276   3.580   3.225  0.3445  0.3048 -0.3347
 4384SOL    HW217268   2.279   3.561   3.131  0.2644 -1.5868  0.0112
 4384SOL    HW317269   2.339   3.520   3.264  1.1736  1.8150  0.7431
 4384SOL    MW417270   2.285   3.570   3.218 -0.1158 -0.1132 -0.3230
 4385SOL     OW17271   6.318   1.888   4.932  0.4953  0.0619 -0.2535
 4385SOL    HW217272   6.407   1.924   4.928  0.3430  0.6744  1.3893
 4385SOL    HW317273   6.327   1.809   4.986 -0.3054  1.3280  1.8127
 4385SOL    MW417274   6.331   1.882   4.938  0.1074 -0.4441  0.2391
 4386SOL     OW17275   0.614   2.224   5.092  0.8259  0.4118  0.7283
 4386SOL    HW217276   0.595   2.133   5.069  0.7265  0.0684  2.0593
 4386SOL    HW317277   0.618   2.270   5.009  1.6959 -0.9600 -0.0224
 4386SOL    MW417278   0.612   2.218   5.078  0.1713  0.3064 -0.1505
 4387SOL     OW17279   4.982   0.500   0.444  0.2525 -0.0690 -0.3745
 4387SOL    HW217280   5.035   0.436   0.492  1.5346  0.8484 -0.5087
 4387SOL    HW317281   4.900   0.454   0.425  0.7962 -1.3697  0.2805
 4387SOL    MW417282   4.978   0.485   0.448 -0.8319  0.0020 -0.6927
 4388SOL     OW17283   4.771   0.889   5.109  0.3129  0.9223  0.4449
 4388SOL    HW217284   4.727   0.941   5.041  0.0287  1.9118  1.3515
 4388SOL    HW317285   4.864   0.907   5.096  0.1563  3.2671  1.9035
 4388SOL    MW417286   4.777   0.899   5.098  0.1071  0.1700  0.3738
 4389SOL     OW17287   3.398   3.120   6.366 -0.3512 -0.9546  0.0713
 4389SOL    HW217288   3.324   3.178   6.379  0.0809 -0.0678 -1.2080
 4389SOL    HW317289   3.446   3.122   6.449  0.0879  1.1651 -0.1913
 4389SOL    MW417290   3.395   3.128   6.378 -0.0697  0.8576  0.2426
 4390SOL     OW17291   5.024   2.549   3.404 -0.4923  0.3068 -0.1987
 4390SOL    HW217292   4.952   2.508   3.356  0.0921  1.2559 -2.0062
 4390SOL    HW317293   5.102   2.501   3.374 -0.0502  1.2965 -0.6636
 4390SOL    MW417294   5.025   2.537   3.393 -0.1846 -0.1785  0.0362
 4391SOL     OW17295   0.252   0.687   4.356 -0.3771 -0.6335  0.4732
 4391SOL    HW217296   0.211   0.757   4.305 -0.5164 -2.6119 -2.3376
 4391SOL    HW317297   0.337   0.722   4.381 -1.3013  1.3115  1.0961
 4391SOL    MW417298   0.258   0.700   4.353  0.0133  0.8205 -0.2667
 4392SOL     OW17299   1.938   5.511   2.091  0.0906  0.3975  0.3920
 4392SOL    HW217300   1.877   5.500   2.164 -0.1751 -0.8716  0.0022
 4392SOL    HW317301   1.911   5.445   2.027 -0.1029  1.8987 -1.1578
 4392SOL    MW417302   1.926   5.501   2.092 -0.0043 -0.0143 -0.0918
 4393SOL     OW17303   5.770   4.288   2.981 -0.1620  0.7820  0.6815
 4393SOL    HW217304   5.784   4.272   2.888 -0.6625  0.2199  0.6943
 4393SOL    HW317305   5.858   4.295   3.018  0.0437  0.6094  0.2323
 4393SOL    MW417306   5.783   4.287   2.974 -0.3468 -0.7179  0.3567
 4394SOL     OW17307   5.840   1.420   3.910 -0.0725  0.7685  0.0693
 4394SOL    HW217308   5.934   1.437   3.911  0.1037 -0.1060 -0.2887
 4394SOL    HW317309   5.830   1.341   3.963 -0.5904  0.7811 -0.0081
 4394SOL    MW417310   5.851   1.412   3.917 -0.2465  0.4672  0.8464
 4395SOL     OW17311   1.772   4.889   1.721 -0.5039  0.2866 -0.1919
 4395SOL    HW217312   1.761   4.979   1.691  0.2403 -0.2801 -2.3489
 4395SOL    HW317313   1.784   4.839   1.641  2.7667 -1.2096  1.0929
 4395SOL    MW417314   1.772   4.894   1.707  0.3075 -0.2966  0.2765
 4396SOL     OW17315   4.080   4.642   2.430  0.0012 -0.4446  0.6888
 4396SOL    HW217316   4.094   4.552   2.398  1.9738  0.3851 -1.0266
 4396SOL    HW317317   4.168   4.675   2.446 -0.5212  1.8639 -0.7791
 4396SOL    MW417318   4.093   4.634   2.428  0.6747  0.3825  0.2981
 4397SOL     OW17319   3.600   0.492   4.971  0.3050  0.0958  0.5594
 4397SOL    HW217320   3.611   0.398   4.986  1.0014  0.4993  2.8767
 4397SOL    HW317321   3.685   0.530   4.994  0.9635  1.1031 -2.9521
 4397SOL    MW417322   3.613   0.484   4.976  0.1168  0.2954 -0.0002
 4398SOL     OW17323   4.379   3.051   3.477 -0.1304 -0.0617 -0.4427
 4398SOL    HW217324   4.463   3.048   3.431 -0.0898  0.6804 -0.4293
 4398SOL    HW317325   4.340   3.134   3.450 -1.5274 -1.0529 -1.5944
 4398SOL    MW417326   4.385   3.062   3.467  0.2416 -0.3473 -0.0437
 4399SOL     OW17327   0.303   4.915   3.879  0.2516  0.4180  0.1422
 4399SOL    HW217328   0.344   4.901   3.793  1.2083 -1.9315  0.9139
 4399SOL    HW317329   0.368   4.966   3.928  1.1118 -0.9394  0.4601
 4399SOL    MW417330   0.317   4.920   3.874 -0.1839 -0.4269  0.7726
 4400SOL     OW17331   5.488   1.743   0.227 -0.2798 -0.0439  0.4794
 4400SOL    HW217332   5.431   1.732   0.151 -0.2076  0.3526  0.3639
 4400SOL    HW317333   5.568   1.783   0.192  0.2789 -1.0657  0.5581
 4400SOL    MW417334   5.491   1.747   0.212  0.0138  0.3638  0.1188
 4401SOL     OW17335   4.308   2.339   2.319  0.6575 -0.0968  0.0965
 4401SOL    HW217336   4.402   2.322   2.317  1.1021  2.1164 -0.0044
 4401SOL    HW317337   4.295   2.390   2.398 -0.3091  0.4383 -0.3973
 4401SOL    MW417338   4.319   2.343   2.329  0.1531  0.1564 -0.2464
 4402SOL     OW17339   1.141   3.698   4.747 -0.1337 -0.4744 -0.1708
 4402SOL    HW217340   1.075   3.722   4.681  1.0833 -2.3302 -2.2140
 4402SOL    HW317341   1.109   3.615   4.783 -1.1572  0.8733  2.2450
 4402SOL    MW417342   1.128   3.690   4.743  0.2435  0.8068 -0.1838
 4403SOL     OW17343   0.269   5.472   0.849  0.1032 -0.1974 -0.3933
 4403SOL    HW217344   0.272   5.549   0.792  0.8252 -0.0309 -0.1489
 4403SOL    HW317345   0.340   5.487   0.912 -1.7936  0.5091  1.7097
 4403SOL    MW417346   0.279   5.484   0.850 -0.5508  0.2703  0.5353
 4404SOL     OW17347   2.169   4.297   0.868 -0.2383  0.3819  0.7227
 4404SOL    HW217348   2.178   4.245   0.948 -0.0638  0.2021  0.5877
 4404SOL    HW317349   2.227   4.372   0.882 -1.1989  1.0351  1.3086
 4404SOL    MW417350   2.178   4.300   0.880 -0.2819 -0.1913  0.1728
 4405SOL     OW17351   5.433   1.106   6.008  0.3768 -0.1360 -0.1424
 4405SOL    HW217352   5.445   1.126   5.915 -2.0826  0.0868 -0.4750
 4405SOL    HW317353   5.342   1.077   6.015  0.4864 -0.1116  2.2140
 4405SOL    MW417354   5.423   1.105   5.997  0.3833  0.5257  0.3127
 4406SOL     OW17355   2.324   1.349   1.157  0.4463 -0.1494  0.0665
 4406SOL    HW217356   2.410   1.387   1.176  0.9197 -0.8006 -0.7516
 4406SOL    HW317357   2.262   1.410   1.198  1.1072  2.1015 -2.0276
 4406SOL    MW417358   2.327   1.362   1.165  1.0642 -0.0355  0.8821
 4407SOL     OW17359   4.541   6.268   1.310 -0.0925 -0.0842  0.2002
 4407SOL    HW217360   4.535   6.352   1.353 -0.7804  0.7979 -1.5108
 4407SOL    HW317361   4.463   6.220   1.339 -1.0763  0.8682 -0.7219
 4407SOL    MW417362   4.530   6.272   1.319 -0.3227  0.0941 -0.2590
 4408SOL     OW17363   0.659   2.442   2.603  0.6912  0.7310  0.7490
 4408SOL    HW217364   0.678   2.477   2.516 -0.9902  0.1063  0.0972
 4408SOL    HW317365   0.672   2.347   2.595 -1.8211  0.3558  0.4548
 4408SOL    MW417366   0.664   2.434   2.591  0.3752 -0.0142 -0.1749
 4409SOL     OW17367   3.016   5.222   1.246 -0.2551  0.2540 -0.1463
 4409SOL    HW217368   2.925   5.243   1.224  0.3412  0.6137 -2.5118
 4409SOL    HW317369   3.024   5.128   1.231 -0.3579  0.1356  0.5366
 4409SOL    MW417370   3.005   5.212   1.241 -0.3053 -0.0827  0.0411
 4410SOL     OW17371   0.588   5.731   4.157 -0.0822  0.4010 -0.2219
 4410SOL    HW217372   0.570   5.657   4.098 -0.7215  0.7785 -0.5174
 4410SOL    HW317373   0.534   5.714   4.234  0.8483 -0.1563  0.3264
 4410SOL    MW417374   0.578   5.719   4.159  0.5114 -0.5438 -0.1231
 4411SOL     OW17375   4.821   5.553   5.188 -0.0945 -0.4054 -0.2867
 4411SOL    HW217376   4.847   5.485   5.250  0.4915 -1.2004 -1.3697
 4411SOL    HW317377   4.742   5.591   5.227 -0.1471 -1.3566  0.6024
 4411SOL    MW417378   4.814   5.549   5.201 -0.6505  0.6724 -0.3623
 4412SOL     OW17379   3.240  -0.001   3.433 -0.3364 -0.2117 -0.2227
 4412SOL    HW217380   3.311  -0.061   3.410  0.3886  0.8332 -0.8234
 4412SOL    HW317381   3.175  -0.012   3.364  0.4152  0.6472 -1.1040
 4412SOL    MW417382   3.241  -0.010   3.421  0.2172 -0.0795 -0.1012
 4413SOL     OW17383   0.305   2.617   3.993  0.1930  0.1437 -0.8580
 4413SOL    HW217384   0.377   2.646   3.937  0.8014 -0.0138 -0.1724
 4413SOL    HW317385   0.313   2.522   3.996 -0.4793  0.0597 -1.3405
 4413SOL    MW417386   0.315   2.608   3.986  0.1533  0.4681  0.2726
 4414SOL     OW17387   3.208   6.176   1.773  0.2575 -0.0298  0.0302
 4414SOL    HW217388   3.288   6.136   1.807  1.0977  2.4079  1.1141
 4414SOL    HW317389   3.225   6.186   1.679  0.7113 -0.6314  0.0405
 4414SOL    MW417390   3.221   6.172   1.765 -0.0824  0.3076 -0.2110
 4415SOL     OW17391   6.408   2.441   3.343  0.0660 -0.2398 -0.2386
 4415SOL    HW217392   6.455   2.369   3.301  1.4632  0.5267 -0.0591
 4415SOL    HW317393   6.473   2.510   3.351  0.0964 -0.4802  3.6231
 4415SOL    MW417394   6.423   2.440   3.339 -0.0216  0.5493  0.1545
 4416SOL     OW17395   2.814   3.073   0.443 -0.3804  0.0617 -0.8493
 4416SOL    HW217396   2.803   2.998   0.501 -1.5840  1.3425  0.6888
 4416SOL    HW317397   2.891   3.052   0.390 -1.7279 -3.0443 -1.8082
 4416SOL    MW417398   2.822   3.061   0.444  0.2235  0.1595  0.3505
 4417SOL     OW17399   2.935   3.157   3.791 -0.3848 -0.7192 -0.3483
 4417SOL    HW217400   2.927   3.252   3.797 -0.6280 -0.8523  2.3862
 4417SOL    HW317401   2.846   3.127   3.773  0.0401 -0.4026 -3.6336
 4417SOL    MW417402   2.923   3.166   3.789 -0.4191 -0.0733  0.6987
 4418SOL     OW17403   3.470   3.636   0.575  0.2808 -0.6813  0.1685
 4418SOL    HW217404   3.386   3.598   0.602  0.6012 -1.2947  0.3216
 4418SOL    HW317405   3.509   3.670   0.655  0.3090 -0.6633  0.1473
 4418SOL    MW417406   3.464   3.636   0.589 -0.7962  0.3520  0.1906
 4419SOL     OW17407   2.030   2.590   1.690  0.4596 -0.3074 -0.4023
 4419SOL    HW217408   2.088   2.542   1.748 -0.6671 -0.6387  0.4973
 4419SOL    HW317409   2.085   2.657   1.650  1.8641 -1.7359 -0.9832
 4419SOL    MW417410   2.045   2.593   1.692 -0.4061  0.1915 -0.3487
 4420SOL     OW17411   1.433   5.519   4.260  0.0277 -0.3644 -0.0451
 4420SOL    HW217412   1.418   5.444   4.203 -1.1080 -0.4179  0.3142
 4420SOL    HW317413   1.515   5.499   4.305 -1.6306 -2.7170  2.1222
 4420SOL    MW417414   1.442   5.507   4.258 -0.0160 -0.5275 -0.2833
 4421SOL     OW17415   5.404   3.131   2.044 -0.2415  0.1605  0.0931
 4421SOL    HW217416   5.348   3.204   2.072 -0.0633 -0.0514  1.0490
 4421SOL    HW317417   5.493   3.166   2.050 -0.2427  0.5353 -1.5405
 4421SOL    MW417418   5.409   3.145   2.048 -0.1778 -0.1869 -0.6164
 4422SOL     OW17419   5.938   0.517   0.216 -0.2301  0.0231 -0.0453
 4422SOL    HW217420   6.001   0.573   0.261 -0.2849  0.5004 -0.5604
 4422SOL    HW317421   5.962   0.522   0.123 -0.6431 -0.2836 -0.1746
 4422SOL    MW417422   5.949   0.525   0.210 -0.0652  0.1286  0.1007
 4423SOL     OW17423   2.159   2.699   4.096  0.0581  0.1375 -0.2115
 4423SOL    HW217424   2.084   2.758   4.092  0.7733  1.0577 -0.3227
 4423SOL    HW317425   2.132   2.630   4.156  0.2877  2.1806  2.4252
 4423SOL    MW417426   2.146   2.698   4.103 -0.0844 -0.0500  0.5013
 4424SOL     OW17427   0.296   0.915   3.111  1.1445 -0.0515 -0.4384
 4424SOL    HW217428   0.250   0.908   3.028  1.0389 -0.4323 -0.3492
 4424SOL    HW317429   0.297   0.826   3.146  1.4534  0.0532 -0.1741
 4424SOL    MW417430   0.290   0.902   3.105 -0.2031 -0.1096  0.2700
 4425SOL     OW17431   2.231   4.165   5.710 -0.2434 -0.4061  0.5583
 4425SOL    HW217432   2.225   4.083   5.660 -0.9291 -0.3059  0.4700
 4425SOL    HW317433   2.257   4.230   5.645 -2.7341  0.0579 -0.0716
 4425SOL    MW417434   2.234   4.163   5.695  0.2026  0.4399 -0.3117
 4426SOL     OW17435   0.199   3.452   1.609 -0.8762 -0.5626  0.4445
 4426SOL    HW217436   0.291   3.429   1.613 -0.8380 -0.2652  1.7044
 4426SOL    HW317437   0.178   3.483   1.697 -2.1053 -0.3536  0.0993
 4426SOL    MW417438   0.208   3.453   1.621  0.0162  0.0119 -0.1845
 4427SOL     OW17439   6.241   5.698   6.311  0.4108  0.0851  0.3412
 4427SOL    HW217440   6.317   5.755   6.321  0.1739  0.6682 -0.9217
 4427SOL    HW317441   6.263   5.641   6.236 -0.0758 -0.2685  0.4615
 4427SOL    MW417442   6.254   5.698   6.302  0.3680  0.0033  0.9717
 4428SOL     OW17443   1.871   2.238   4.683 -0.1906 -0.2199  0.6704
 4428SOL    HW217444   1.939   2.216   4.620 -0.1528  2.0498 -0.1531
 4428SOL    HW317445   1.800   2.276   4.631 -0.7565  0.3792  1.8344
 4428SOL    MW417446   1.870   2.240   4.668 -0.0618  0.4792  0.2940
 4429SOL     OW17447   2.707   1.408   0.078  0.1588 -0.1848 -0.2067
 4429SOL    HW217448   2.780   1.352   0.051 -0.2724 -0.5459 -0.6269
 4429SOL    HW317449   2.631   1.374   0.031 -0.6103 -0.7819  1.3850
 4429SOL    MW417450   2.707   1.396   0.069  0.2796 -0.5916 -0.4084
 4430SOL     OW17451   2.084   2.523   2.233  0.1547  0.4657  0.4688
 4430SOL    HW217452   2.072   2.428   2.224 -0.0936  0.6704 -1.8061
 4430SOL    HW317453   2.005   2.552   2.279 -0.6763 -0.2051 -0.4834
 4430SOL    MW417454   2.072   2.514   2.238  0.3233 -0.2069 -0.2736
 4431SOL     OW17455   3.752   3.728   5.207 -0.2972 -0.2240  0.2034
 4431SOL    HW217456   3.830   3.761   5.252 -1.4039  0.1940  1.9121
 4431SOL    HW317457   3.703   3.807   5.184 -0.0537 -0.4643 -1.2521
 4431SOL    MW417458   3.756   3.743   5.210 -0.0950  0.4055  0.7652
 4432SOL     OW17459   0.476   3.812   4.460 -0.2634 -0.1143 -0.1101
 4432SOL    HW217460   0.558   3.814   4.411  0.1356  0.6041  0.5723
 4432SOL    HW317461   0.408   3.827   4.395  0.2782  1.0916 -0.4190
 4432SOL    MW417462   0.478   3.814   4.445  0.1074 -0.4570  0.0345
 4433SOL     OW17463   3.628   5.960   1.949  0.4044 -0.4097 -0.7721
 4433SOL    HW217464   3.698   5.932   2.008  0.6266 -0.3251 -0.9961
 4433SOL    HW317465   3.578   5.880   1.931  0.4811 -0.4820 -0.6621
 4433SOL    MW417466   3.631   5.946   1.954  0.2531 -1.0827  0.9988
 4434SOL     OW17467   1.349   1.498   2.194 -0.1292  0.0729 -0.0886
 4434SOL    HW217468   1.360   1.593   2.182  1.5096 -0.1455 -0.5692
 4434SOL    HW317469   1.428   1.460   2.156 -1.6262 -1.6353 -1.6957
 4434SOL    MW417470   1.361   1.506   2.187  0.2157 -0.3470 -0.0215
 4435SOL     OW17471   4.359   3.887   2.732  0.1239  0.1465  0.0607
 4435SOL    HW217472   4.432   3.931   2.775 -0.1184 -0.1361  0.7709
 4435SOL    HW317473   4.286   3.949   2.737  0.6132  0.9170 -1.6983
 4435SOL    MW417474   4.359   3.901   2.738  0.1781  0.3030  0.0413
 4436SOL     OW17475   5.656   5.133   0.616  0.4447  0.0517  0.2864
 4436SOL    HW217476   5.613   5.048   0.608  1.3765 -0.3148 -1.1340
 4436SOL    HW317477   5.666   5.163   0.526 -0.4069  1.9704  0.7933
 4436SOL    MW417478   5.651   5.125   0.603 -0.4891 -0.2861  0.5257
 4437SOL     OW17479   5.990   5.967   5.640 -0.9513 -0.2203 -0.2757
 4437SOL    HW217480   5.896   5.989   5.640 -1.2793 -1.5444 -0.2034
 4437SOL    HW317481   6.009   5.943   5.549 -0.0865  2.2881 -0.8379
 4437SOL    MW417482   5.980   5.967   5.628 -0.0553 -0.0075  0.0537
 4438SOL     OW17483   3.361   1.309   2.117 -0.0314  0.3968  0.0872
 4438SOL    HW217484   3.314   1.244   2.065 -1.4959  1.0583  0.5482
 4438SOL    HW317485   3.436   1.333   2.062  0.7597 -1.8836  0.0447
 4438SOL    MW417486   3.365   1.303   2.103 -0.3809  0.7562 -0.3418
 4439SOL     OW17487   1.159   1.657   3.197 -0.3396  0.6505 -0.3510
 4439SOL    HW217488   1.252   1.667   3.178 -0.0689  0.1757  0.6774
 4439SOL    HW317489   1.117   1.726   3.146  0.3820 -0.2592 -2.2749
 4439SOL    MW417490   1.166   1.668   3.188  0.3286 -0.5119  0.3724
 4440SOL     OW17491   1.628   2.704   6.126  0.0547 -0.1863 -0.3425
 4440SOL    HW217492   1.662   2.614   6.124  0.8859  0.1430 -1.3115
 4440SOL    HW317493   1.562   2.706   6.057 -1.8288 -0.7333  1.3222
 4440SOL    MW417494   1.624   2.692   6.117 -0.2498  0.0979  0.2001
 4441SOL     OW17495   1.883   3.153   5.385  0.3410 -0.0988  0.1330
 4441SOL    HW217496   1.928   3.236   5.371 -0.2476  0.2401  0.2422
 4441SOL    HW317497   1.904   3.129   5.476  2.5069 -1.2995 -0.6051
 4441SOL    MW417498   1.892   3.161   5.396 -0.4769 -0.1729  0.6949
 4442SOL     OW17499   4.863   0.312   0.916  0.3868  0.0193 -0.1654
 4442SOL    HW217500   4.954   0.326   0.945  0.1619 -0.2625  0.7169
 4442SOL    HW317501   4.812   0.320   0.996 -0.5942  2.1329 -0.9333
 4442SOL    MW417502   4.869   0.315   0.931 -0.0750 -0.3233 -0.1246
 4443SOL     OW17503   2.411   5.528   3.253 -0.2497 -0.0176  0.3772
 4443SOL    HW217504   2.479   5.530   3.320  0.5523 -1.1920 -0.3636
 4443SOL    HW317505   2.453   5.564   3.175 -1.0943  1.0959  0.4190
 4443SOL    MW417506   2.426   5.533   3.251 -0.1303  0.5714 -0.0473
 4444SOL     OW17507   4.198   3.848   1.374  0.6039  0.4249  0.6672
 4444SOL    HW217508   4.259   3.872   1.444  1.6464  2.7051 -0.9393
 4444SOL    HW317509   4.215   3.755   1.359  3.7054  0.9352  0.3410
 4444SOL    MW417510   4.208   3.838   1.382 -0.1247 -0.1774  0.5977
 4445SOL     OW17511   0.004   0.912   0.477 -0.3266  0.1635  0.5104
 4445SOL    HW217512  -0.069   0.865   0.517  1.0325 -0.0107  3.0049
 4445SOL    HW317513   0.038   0.852   0.410 -1.2392 -0.5894  0.7000
 4445SOL    MW417514  -0.001   0.898   0.474  0.0499  0.2248  0.6336
 4446SOL     OW17515   5.513   2.557   5.828 -0.1819  0.1297 -0.0926
 4446SOL    HW217516   5.537   2.585   5.740  0.0350 -1.1926 -0.4737
 4446SOL    HW317517   5.595   2.526   5.867 -0.4168 -0.0136  0.2945
 4446SOL    MW417518   5.527   2.557   5.822  0.0000 -0.1652 -0.6537
 4447SOL     OW17519   3.760   4.675   5.738 -0.0880 -0.1796  0.0984
 4447SOL    HW217520   3.710   4.609   5.786 -0.2350  0.3676  0.7063
 4447SOL    HW317521   3.843   4.682   5.786 -0.1701  0.2476  0.1852
 4447SOL    MW417522   3.764   4.667   5.751 -0.3148 -0.0116 -0.1956
 4448SOL     OW17523   6.014   2.140   0.131  0.2685  0.2891  0.0752
 4448SOL    HW217524   5.968   2.206   0.078  0.7629  1.1670  0.7140
 4448SOL    HW317525   5.990   2.056   0.092  1.0402  0.9339 -1.8636
 4448SOL    MW417526   6.004   2.138   0.119  0.2733 -0.1700 -0.0103
 4449SOL     OW17527   3.631   6.377   2.984 -0.2276  0.0283 -0.0145
 4449SOL    HW217528   3.635   6.282   2.984  1.4614  0.0399 -1.6556
 4449SOL    HW317529   3.539   6.398   2.971 -0.5606 -1.3714 -0.0339
 4449SOL    MW417530   3.620   6.367   2.983 -0.1422  0.1969 -0.1212
 4450SOL     OW17531   0.560   1.156   4.747  0.1178 -0.1717 -0.3249
 4450SOL    HW217532   0.598   1.070   4.728  0.7232 -0.3164  1.4209
 4450SOL    HW317533   0.472   1.136   4.779  0.2199 -0.1333 -0.0209
 4450SOL    MW417534   0.553   1.142   4.749  0.6184 -0.9434  0.3252
 4451SOL     OW17535   3.936   4.201   1.232  0.5698  0.4276 -0.2975
 4451SOL    HW217536   3.887   4.250   1.298 -1.0735  1.3744 -2.1063
 4451SOL    HW317537   3.935   4.111   1.263  0.2423  0.9069  1.1728
 4451SOL    MW417538   3.929   4.196   1.245  0.0952  0.1821  0.6740
 4452SOL     OW17539   2.704   2.001   1.825 -0.5935 -0.6612 -0.4933
 4452SOL    HW217540   2.796   1.988   1.805 -0.4973 -0.4651 -0.1698
 4452SOL    HW317541   2.658   1.976   1.744 -0.3328 -1.8662 -0.2885
 4452SOL    MW417542   2.710   1.996   1.812  0.0635 -0.0196 -0.2654
 4453SOL     OW17543   1.608   3.373   4.318  0.2734  0.0070 -0.7201
 4453SOL    HW217544   1.631   3.427   4.394 -2.5578 -0.2960  0.4647
 4453SOL    HW317545   1.649   3.288   4.337  1.3100  0.5135 -0.5820
 4453SOL    MW417546   1.617   3.369   4.331 -0.2524 -0.1455 -0.2444
 4454SOL     OW17547   5.729   0.349   1.308 -0.6372 -0.0105  0.5428
 4454SOL    HW217548   5.787   0.316   1.377 -0.5614  2.2590  1.6549
 4454SOL    HW317549   5.641   0.331   1.340 -0.5928 -1.1882  0.0383
 4454SOL    MW417550   5.725   0.342   1.322 -0.5630 -0.0708  0.2322
 4455SOL     OW17551   5.287   0.978   4.345 -0.3819  0.6402  0.1207
 4455SOL    HW217552   5.231   1.048   4.312  0.4896  1.0599 -0.5078
 4455SOL    HW317553   5.261   0.901   4.295 -0.2494  0.8873 -0.3393
 4455SOL    MW417554   5.276   0.977   4.334 -0.0619 -0.1712  0.0954
 4456SOL     OW17555   4.084   5.659   2.636 -0.5784  0.4081  0.6268
 4456SOL    HW217556   4.096   5.677   2.730 -1.7951  2.0920  0.5199
 4456SOL    HW317557   4.080   5.564   2.630  4.0564 -0.0744  1.6360
 4456SOL    MW417558   4.085   5.649   2.648  0.5280 -0.0113 -0.7149
 4457SOL     OW17559   0.051   5.267   3.901  0.1989  0.2160 -0.4137
 4457SOL    HW217560   0.144   5.280   3.917  0.3687  0.4877 -1.4915
 4457SOL    HW317561   0.032   5.180   3.937  0.6565  0.5441  0.6298
 4457SOL    MW417562   0.061   5.257   3.908  0.6608  0.0522 -0.0687
 4458SOL     OW17563   6.361   4.873   5.931  0.3979 -0.5259  0.4678
 4458SOL    HW217564   6.329   4.963   5.926  4.1251  1.0040  1.1994
 4458SOL    HW317565   6.341   4.835   5.845 -1.7205  0.7507  0.3327
 4458SOL    MW417566   6.354   4.879   5.919 -0.0085 -0.2580 -0.2184
 4459SOL     OW17567   3.929   5.997   3.418 -0.0621  0.0207 -0.2387
 4459SOL    HW217568   3.882   6.027   3.495 -1.0487 -0.7379 -0.5363
 4459SOL    HW317569   4.021   6.000   3.444 -0.2964  0.9833  0.5315
 4459SOL    MW417570   3.935   6.001   3.431 -0.1510 -0.3563 -0.4309
 4460SOL     OW17571   5.508   1.178   2.616 -0.4562 -0.9563  0.0954
 4460SOL    HW217572   5.443   1.129   2.666 -0.6677 -0.1315  0.6435
 4460SOL    HW317573   5.476   1.268   2.617 -0.4629 -0.9107 -1.5237
 4460SOL    MW417574   5.495   1.183   2.623  0.4512 -0.0080  0.2052
 4461SOL     OW17575   0.176   1.456   4.765  0.8345  0.3268 -0.1216
 4461SOL    HW217576   0.098   1.406   4.791  1.2147 -0.6947 -0.8786
 4461SOL    HW317577   0.240   1.389   4.741  1.2346  1.1758 -1.5384
 4461SOL    MW417578   0.174   1.440   4.765  0.3986 -0.3902 -0.4279
 4462SOL     OW17579   5.915   1.572   6.121 -0.4585  0.5135  0.1100
 4462SOL    HW217580   5.921   1.653   6.070 -0.1882  0.2673 -0.2547
 4462SOL    HW317581   5.824   1.542   6.108 -0.2622  0.1998 -0.6306
 4462SOL    MW417582   5.904   1.578   6.112 -0.2520 -0.4733 -0.4657
 4463SOL     OW17583   3.943   2.103   5.908 -0.6698 -0.4605 -0.4622
 4463SOL    HW217584   3.872   2.114   5.972 -0.7088  0.8900 -0.6989
 4463SOL    HW317585   3.908   2.141   5.828  0.6001  1.0256 -0.3675
 4463SOL    MW417586   3.929   2.109   5.906 -0.0006  0.3833  0.0144
 4464SOL     OW17587   0.784   3.350   3.594 -0.6669  0.1346  0.3659
 4464SOL    HW217588   0.853   3.284   3.596  0.7122  1.5274  1.5685
 4464SOL    HW317589   0.773   3.376   3.685 -3.2148 -0.4069  0.2824
 4464SOL    MW417590   0.792   3.345   3.606  0.4283  0.4933  0.2084
 4465SOL     OW17591   4.561   3.506   2.567  0.1153 -0.1743  0.1743
 4465SOL    HW217592   4.599   3.584   2.609  1.1554 -1.3118  1.4458
 4465SOL    HW317593   4.630   3.441   2.572 -0.3765 -0.9058 -1.7934
 4465SOL    MW417594   4.575   3.508   2.573 -0.1964 -0.2006  0.1189
 4466SOL     OW17595   0.918   6.002   3.801 -0.0602 -0.0755  0.6551
 4466SOL    HW217596   1.003   5.989   3.843 -0.7831 -2.4020  1.5633
 4466SOL    HW317597   0.877   5.915   3.802 -1.0637  0.1736 -2.9068
 4466SOL    MW417598   0.924   5.989   3.807 -0.3167  1.0021  0.0000
 4467SOL     OW17599   1.089   5.157   4.309  0.3888 -0.0145  0.4816
 4467SOL    HW217600   1.071   5.247   4.335  1.3613  0.1114  0.7827
 4467SOL    HW317601   1.025   5.138   4.241 -0.5500  0.5273  1.1807
 4467SOL    MW417602   1.078   5.166   4.304 -0.2614 -0.4703 -0.1492
 4468SOL     OW17603   4.937   2.718   1.325  0.6373 -0.0526 -0.0720
 4468SOL    HW217604   4.931   2.681   1.413  1.1695 -1.3054 -0.5469
 4468SOL    HW317605   4.861   2.775   1.318  0.7327  0.2949  1.2965
 4468SOL    MW417606   4.926   2.721   1.336  0.0119 -0.2400  0.2698
 4469SOL     OW17607   1.862   5.753   5.122 -0.1190 -0.3630  0.1441
 4469SOL    HW217608   1.788   5.730   5.179 -1.0631  1.9521 -0.0649
 4469SOL    HW317609   1.936   5.762   5.181 -0.3261 -1.1924  0.5522
 4469SOL    MW417610   1.862   5.751   5.137  0.1857  0.1478 -0.6939
 4470SOL     OW17611   5.825   1.652   4.274  0.1239  0.3528 -0.3634
 4470SOL    HW217612   5.826   1.706   4.353  1.6358 -0.4078  0.1790
 4470SOL    HW317613   5.908   1.670   4.231 -0.1696 -0.1345 -1.1690
 4470SOL    MW417614   5.836   1.661   4.279 -0.4911 -0.5673 -0.0356
 4471SOL     OW17615   4.216   5.947   1.830 -0.0254  0.1958 -0.0539
 4471SOL    HW217616   4.236   5.873   1.887 -0.2631 -0.3469 -0.6626
 4471SOL    HW317617   4.251   6.024   1.877  0.5910 -0.3449  0.3923
 4471SOL    MW417618   4.223   5.948   1.844  0.1694  0.7290  0.2553
 4472SOL     OW17619   2.758   4.100   6.344 -0.4250 -0.2451 -0.2033
 4472SOL    HW217620   2.846   4.075   6.318 -0.1764  0.4356 -0.0525
 4472SOL    HW317621   2.720   4.141   6.267  0.1675  1.4023  0.3466
 4472SOL    MW417622   2.765   4.102   6.331  0.0545  0.1907  0.0264
 4473SOL     OW17623   1.811   2.513   3.198 -0.3127 -0.2134 -0.2727
 4473SOL    HW217624   1.819   2.442   3.135 -0.7695  0.2357 -0.8558
 4473SOL    HW317625   1.811   2.593   3.145 -0.6334  0.1786  0.2979
 4473SOL    MW417626   1.812   2.515   3.183  0.0896 -0.3616 -0.6176
 4474SOL     OW17627   2.403   4.768   1.503  0.5008 -0.2309 -0.1725
 4474SOL    HW217628   2.429   4.821   1.578 -1.7808  1.7410 -0.6255
 4474SOL    HW317629   2.417   4.678   1.530  2.3162  0.5044  1.5438
 4474SOL    MW417630   2.408   4.763   1.516 -0.0235 -0.0056  0.4252
 4475SOL     OW17631   1.391   5.995   0.915 -0.2116 -0.3350  0.0336
 4475SOL    HW217632   1.406   5.999   0.821  0.0833 -0.8558  0.0581
 4475SOL    HW317633   1.448   5.925   0.946  1.5378  1.3980  0.9555
 4475SOL    MW417634   1.400   5.986   0.907  0.2895  0.1091 -0.2019
 4476SOL     OW17635   3.517   4.126   1.003 -0.0827 -0.0460 -0.3199
 4476SOL    HW217636   3.609   4.152   1.005 -0.6418  2.3446 -1.5353
 4476SOL    HW317637   3.517   4.040   0.961  1.5701 -0.1096 -0.2515
 4476SOL    MW417638   3.529   4.118   0.998 -0.1217  0.0157 -0.4428
 4477SOL     OW17639   1.035   1.564   5.998  0.0969 -0.2514  0.2928
 4477SOL    HW217640   0.984   1.494   6.039  0.5469 -0.1631  1.0199
 4477SOL    HW317641   1.033   1.636   6.060 -1.1900  0.7877 -0.8763
 4477SOL    MW417642   1.028   1.564   6.011  0.0534 -0.1332 -0.0452
 4478SOL     OW17643   3.972   3.426   0.072 -0.7669  0.1150 -0.5926
 4478SOL    HW217644   3.883   3.418   0.038 -0.7212 -0.6171 -0.5659
 4478SOL    HW317645   3.981   3.352   0.132 -0.1394  0.1756 -0.6044
 4478SOL    MW417646   3.961   3.415   0.075  0.0169  0.6682 -0.7520
 4479SOL     OW17647   2.194   5.120   5.365 -0.3879 -0.1835 -0.2593
 4479SOL    HW217648   2.142   5.078   5.434  1.2084 -1.2114  0.3808
 4479SOL    HW317649   2.247   5.184   5.412 -1.4768  1.3093 -0.9914
 4479SOL    MW417650   2.194   5.123   5.380  0.1360  0.0306 -0.5033
 4480SOL     OW17651   1.239   1.073   1.169 -0.1002  0.1913  0.1386
 4480SOL    HW217652   1.178   1.010   1.209 -0.2161  0.3542  0.2212
 4480SOL    HW317653   1.252   1.041   1.080  0.4986 -0.4199  0.4351
 4480SOL    MW417654   1.232   1.060   1.163  0.4967 -0.1858 -0.1186
 4481SOL     OW17655   6.000   0.278   4.745 -0.0299  0.1392  0.0990
 4481SOL    HW217656   5.959   0.240   4.668  1.0294  0.1311 -0.4728
 4481SOL    HW317657   6.031   0.364   4.717 -0.7603  0.6719  0.8719
 4481SOL    MW417658   5.999   0.284   4.731  0.0429  0.0487 -0.2415
 4482SOL     OW17659   0.242   3.855   0.879  0.3928  0.0290  0.5180
 4482SOL    HW217660   0.265   3.900   0.960  1.4870  0.2297  0.1178
 4482SOL    HW317661   0.159   3.811   0.899  0.3981  0.4643  1.5888
 4482SOL    MW417662   0.234   3.855   0.893  0.0936  0.3208 -0.4030
 4483SOL     OW17663   3.150   0.335   2.262  0.7368  0.2865 -1.0951
 4483SOL    HW217664   3.061   0.348   2.228  1.1608  1.8204 -1.7228
 4483SOL    HW317665   3.204   0.393   2.209  2.1779 -0.8579 -0.9290
 4483SOL    MW417666   3.145   0.345   2.251 -0.1690 -0.4917 -0.0965
 4484SOL     OW17667   4.645   5.880   2.999 -0.5298 -0.1925 -0.2260
 4484SOL    HW217668   4.588   5.803   2.999  1.8598 -2.1032  0.8269
 4484SOL    HW317669   4.696   5.872   3.079  0.7437  1.7908 -0.7661
 4484SOL    MW417670   4.644   5.869   3.009  0.4818  0.2592 -0.4513
 4485SOL     OW17671   1.085   5.770   2.808 -0.0937 -0.1280 -0.2982
 4485SOL    HW217672   1.162   5.730   2.848  0.3822  0.4853 -0.5856
 4485SOL    HW317673   1.121   5.834   2.747 -0.8218 -0.3696 -0.9976
 4485SOL    MW417674   1.100   5.773   2.805 -0.4098  0.7861 -0.2219
 4486SOL     OW17675   3.516   0.339   1.906  0.0366  0.2894  0.1329
 4486SOL    HW217676   3.603   0.351   1.867 -0.1660  0.3464 -0.3050
 4486SOL    HW317677   3.529   0.355   1.999  0.2256  1.6646 -0.1090
 4486SOL    MW417678   3.529   0.343   1.913 -0.2636 -0.4497  0.3870
 4487SOL     OW17679   3.628   6.044   1.668 -0.0426  0.3733 -0.7328
 4487SOL    HW217680   3.616   6.039   1.762  4.1147  2.4374  0.1389
 4487SOL    HW317681   3.683   5.969   1.646  0.0891  0.6146 -1.2637
 4487SOL    MW417682   3.634   6.034   1.677  0.3760 -0.2722  0.4759
 4488SOL     OW17683   4.647   1.357   1.138 -0.0325  0.1540  0.3772
 4488SOL    HW217684   4.587   1.297   1.093 -0.3857  0.2934  0.6581
 4488SOL    HW317685   4.734   1.335   1.102  0.0874 -1.6435  1.6290
 4488SOL    MW417686   4.651   1.346   1.127 -0.4854 -0.2350 -0.2059
 4489SOL     OW17687   0.796   1.518   5.726 -0.0802 -0.0157  0.3067
 4489SOL    HW217688   0.762   1.598   5.768  0.8832  0.8561 -0.5333
 4489SOL    HW317689   0.891   1.527   5.730  0.0345 -0.4648 -1.0250
 4489SOL    MW417690   0.804   1.530   5.732 -0.4794  0.2882  0.1638
 4490SOL     OW17691   5.754   1.278   2.460  0.2760  0.1364 -0.0084
 4490SOL    HW217692   5.684   1.218   2.487  1.0770 -0.6952  0.2677
 4490SOL    HW317693   5.775   1.326   2.540  1.8030 -1.4644  0.5999
 4490SOL    MW417694   5.747   1.277   2.475  0.3916 -0.1809 -0.2689
 4491SOL     OW17695   3.111   1.638   6.064 -0.0614 -0.6581 -0.4184
 4491SOL    HW217696   3.160   1.672   6.139  3.3826 -3.3301 -1.2139
 4491SOL    HW317697   3.053   1.572   6.102 -0.1496 -0.2942  0.1036
 4491SOL    MW417698   3.110   1.634   6.079 -0.0421  0.3747 -0.6811
 4492SOL     OW17699   2.975   2.768   4.619  0.0717 -0.8390 -0.1302
 4492SOL    HW217700   2.908   2.722   4.568  0.7143 -0.7198 -1.1144
 4492SOL    HW317701   3.003   2.704   4.685 -0.1644 -1.3104 -0.4773
 4492SOL    MW417702   2.970   2.753   4.621 -0.0412 -0.4726 -0.5388
 4493SOL     OW17703   6.181   5.242   5.024 -0.1653 -0.0572 -0.2027
 4493SOL    HW217704   6.250   5.218   5.087 -1.3300 -1.0378  0.7441
 4493SOL    HW317705   6.128   5.163   5.015 -0.1794  0.1424 -2.2684
 4493SOL    MW417706   6.183   5.229   5.031 -0.1011 -0.0330  0.5117
 4494SOL     OW17707   0.652   4.799   2.001 -0.2677  0.0738 -0.4960
 4494SOL    HW217708   0.679   4.708   2.009  0.3713  0.3243  0.3840
 4494SOL    HW317709   0.694   4.843   2.075 -0.0560  1.2026 -1.2634
 4494SOL    MW417710   0.661   4.793   2.012 -0.3086 -0.0431  0.3074
 4495SOL     OW17711   2.149   3.237   6.227  0.2114  0.0722  0.0641
 4495SOL    HW217712   2.242   3.248   6.244  0.1367 -0.8515  1.1849
 4495SOL    HW317713   2.118   3.178   6.296 -0.8321 -1.1459 -1.3714
 4495SOL    MW417714   2.157   3.231   6.239 -0.4715 -0.0580 -0.6427
 4496SOL     OW17715   6.049   0.365   3.110 -0.2031  0.1142 -0.4834
 4496SOL    HW217716   6.121   0.422   3.136 -1.6159  1.6690  0.2232
 4496SOL    HW317717   6.078   0.277   3.133 -0.1837  1.0638  4.0627
 4496SOL    MW417718   6.062   0.361   3.117 -0.2238  0.4453 -0.3307
 4497SOL     OW17719   4.075   2.511   1.063 -0.1228 -0.0781 -0.1328
 4497SOL    HW217720   4.124   2.445   1.015 -0.0498 -0.6148  0.6699
 4497SOL    HW317721   4.054   2.578   0.997  1.0285 -0.2014 -0.6485
 4497SOL    MW417722   4.078   2.511   1.048 -0.1965  0.8198 -0.1564
 4498SOL     OW17723   1.466   3.291   3.551 -0.2353  0.7033  0.0076
 4498SOL    HW217724   1.541   3.336   3.590  0.3073 -1.0198  1.0864
 4498SOL    HW317725   1.503   3.211   3.513 -1.4153  0.1626 -0.0568
 4498SOL    MW417726   1.481   3.286   3.551 -0.1073 -0.5255  0.3707
 4499SOL     OW17727   0.138   6.300   6.202  0.0015 -0.1710 -0.3143
 4499SOL    HW217728   0.074   6.364   6.234 -0.6185 -0.9155 -0.0430
 4499SOL    HW317729   0.182   6.345   6.130 -0.7117  0.4159 -0.3994
 4499SOL    MW417730   0.135   6.315   6.197  0.2574 -0.1434  0.0453
 4500SOL     OW17731   2.194   1.521   3.385 -0.4135  0.1667 -0.2618
 4500SOL    HW217732   2.286   1.532   3.363  0.0567  0.9381  1.7912
 4500SOL    HW317733   2.177   1.590   3.449 -2.1455 -0.5798  0.1404
 4500SOL    MW417734   2.204   1.531   3.391  0.1326 -0.3294 -0.3726
 4501SOL     OW17735   1.287   6.235   6.352  0.0247  0.2740  0.2060
 4501SOL    HW217736   1.249   6.220   6.266  0.7869 -2.5795  0.2733
 4501SOL    HW317737   1.365   6.288   6.334 -0.0728  0.0953 -0.7955
 4501SOL    MW417738   1.293   6.240   6.338  0.1258  0.3194  0.6758
 4502SOL     OW17739   0.303   4.211   1.839  0.6316  0.2822 -0.2698
 4502SOL    HW217740   0.339   4.178   1.756 -0.9993  1.3057 -1.4349
 4502SOL    HW317741   0.249   4.285   1.814 -0.5410  0.1368  1.6487
 4502SOL    MW417742   0.301   4.216   1.825 -0.1049 -0.6140 -0.5578
 4503SOL     OW17743   5.787   5.936   4.919 -0.2224  0.2219 -0.1858
 4503SOL    HW217744   5.723   5.894   4.977 -0.3058  0.9918  0.2835
 4503SOL    HW317745   5.806   6.020   4.960 -1.2687  1.3756 -1.9174
 4503SOL    MW417746   5.781   5.941   4.932  0.1147 -0.3210 -0.7203
 4504SOL     OW17747   3.739   2.878   3.834  0.0256 -0.5977 -0.1393
 4504SOL    HW217748   3.704   2.798   3.872 -0.1101 -0.6402 -0.3495
 4504SOL    HW317749   3.661   2.930   3.812  0.1230  0.4032  1.6942
 4504SOL    MW417750   3.724   2.874   3.836 -0.2227 -0.3201  0.2196
 4505SOL     OW17751   2.966   1.888   2.384 -0.3689 -0.1548  0.6851
 4505SOL    HW217752   3.019   1.810   2.371  0.7849  0.8204 -0.8982
 4505SOL    HW317753   3.006   1.954   2.327 -3.2677  0.6588 -0.5864
 4505SOL    MW417754   2.978   1.887   2.375 -0.1111 -0.1010  0.6557
 4506SOL     OW17755   2.289   3.036   0.041 -0.3663  0.3190 -0.3393
 4506SOL    HW217756   2.194   3.033   0.040 -0.3933  0.9388  0.0923
 4506SOL    HW317757   2.315   3.012  -0.048 -0.8682 -1.3283 -0.0856
 4506SOL    MW417758   2.280   3.032   0.029 -0.1840 -0.7005  0.1102
 4507SOL     OW17759   2.001   2.462   3.804 -0.1954  0.4576 -0.0781
 4507SOL    HW217760   2.027   2.379   3.845 -0.6047  1.0730  1.5296
 4507SOL    HW317761   2.084   2.506   3.786  0.0138 -0.1112 -0.5419
 4507SOL    MW417762   2.016   2.457   3.807  0.3835  0.0441  0.2794
 4508SOL     OW17763   1.227   2.733   0.538 -0.1251 -0.0489  0.2822
 4508SOL    HW217764   1.322   2.740   0.544 -0.1446  0.0194  0.5220
 4508SOL    HW317765   1.207   2.644   0.567 -0.3385  0.7290  2.7902
 4508SOL    MW417766   1.237   2.722   0.542 -0.4975 -0.6819  0.3521
 4509SOL     OW17767   2.532   2.864   2.615 -0.1156  0.2606 -0.3874
 4509SOL    HW217768   2.521   2.958   2.627 -0.1801  0.2291 -0.1917
 4509SOL    HW317769   2.475   2.842   2.542  2.6381  0.9911 -2.9289
 4509SOL    MW417770   2.523   2.874   2.607 -0.5770 -0.4362 -0.0040
 4510SOL     OW17771   1.407   5.036   1.048 -0.7722 -0.4874 -0.1444
 4510SOL    HW217772   1.386   5.080   0.965 -1.3197 -0.4462  0.0140
 4510SOL    HW317773   1.502   5.046   1.057 -0.8033  0.1088 -0.4301
 4510SOL    MW417774   1.416   5.043   1.038  0.2343  0.0248  0.1984
 4511SOL     OW17775   1.370   0.120   2.743  0.8491  0.2032  0.5606
 4511SOL    HW217776   1.403   0.202   2.706  0.5631  0.7924  1.5747
 4511SOL    HW317777   1.358   0.138   2.836 -0.9688 -0.4206  0.4932
 4511SOL    MW417778   1.372   0.133   2.750 -0.1797  0.0578 -0.1801
 4512SOL     OW17779   1.948   1.070   1.253 -0.4352  0.1409 -0.2647
 4512SOL    HW217780   1.853   1.072   1.261 -0.6053 -0.4528 -1.9073
 4512SOL    HW317781   1.971   0.977   1.254  0.1183  0.2766  0.0251
 4512SOL    MW417782   1.939   1.058   1.254  0.0833  0.4420  0.4738
 4513SOL     OW17783   2.803   3.591   3.175  0.2132 -0.3112 -0.1588
 4513SOL    HW217784   2.801   3.663   3.238 -0.0098  0.6388 -1.2087
 4513SOL    HW317785   2.715   3.591   3.137  0.1261 -1.3309  0.0282
 4513SOL    MW417786   2.791   3.601   3.178  0.1642 -0.7555 -0.3040
 4514SOL     OW17787   4.874   2.196   3.154  0.3375  0.1037 -0.0056
 4514SOL    HW217788   4.843   2.162   3.071  0.6637  0.5400 -0.3102
 4514SOL    HW317789   4.925   2.274   3.131  0.8769 -0.0751  0.5533
 4514SOL    MW417790   4.877   2.202   3.140  0.4430 -0.4289 -0.6845
 4515SOL     OW17791   1.564   0.685   1.268  0.3733 -0.1543  0.2155
 4515SOL    HW217792   1.588   0.649   1.182 -0.6016 -1.9406  0.6240
 4515SOL    HW317793   1.647   0.710   1.308  0.8240  1.0099 -1.3486
 4515SOL    MW417794   1.578   0.683   1.262  0.3520  0.5257 -0.0008
 4516SOL     OW17795   5.358   2.906   4.110 -0.2240 -0.5781  0.1577
 4516SOL    HW217796   5.302   2.833   4.139  0.6017 -1.3239 -0.0730
 4516SOL    HW317797   5.297   2.975   4.084 -1.0160 -0.9523  0.9790
 4516SOL    MW417798   5.343   2.905   4.110 -0.8034 -0.4949 -0.2787
 4517SOL     OW17799   0.026   6.347   2.948 -0.1253 -0.7020  0.0643
 4517SOL    HW217800  -0.040   6.404   2.988  1.0483  1.2155 -0.6063
 4517SOL    HW317801  -0.025   6.285   2.896 -1.4154  1.1760 -1.0389
 4517SOL    MW417802   0.011   6.347   2.947  0.9077  0.4967 -0.3825
 4518SOL     OW17803   5.138   0.763   4.467  0.4163  0.1335 -0.1004
 4518SOL    HW217804   5.185   0.680   4.468  1.3713  0.6397 -1.1571
 4518SOL    HW317805   5.198   0.825   4.508  1.1900  1.0089 -2.3875
 4518SOL    MW417806   5.152   0.760   4.472 -0.0837  0.1703 -0.8451
 4519SOL     OW17807   2.532   1.698   3.609 -0.4209 -0.4898 -0.0064
 4519SOL    HW217808   2.617   1.692   3.653  0.2306 -0.3051 -1.2105
 4519SOL    HW317809   2.501   1.607   3.604  0.6260 -0.8071 -1.2904
 4519SOL    MW417810   2.539   1.685   3.615  0.0852 -0.0966 -0.4957
 4520SOL     OW17811   3.290   5.573   4.100 -0.4814  0.0798 -0.5453
 4520SOL    HW217812   3.286   5.644   4.036  0.8877  0.7603  0.0570
 4520SOL    HW317813   3.321   5.616   4.180  2.2043 -1.4535 -0.6463
 4520SOL    MW417814   3.294   5.588   4.102  0.2096 -0.2256 -0.5847
 4521SOL     OW17815   0.825   1.898   3.409 -0.5017 -0.6479 -0.4183
 4521SOL    HW217816   0.764   1.964   3.376  0.7068  0.5914 -0.2059
 4521SOL    HW317817   0.863   1.860   3.329  0.3227  0.3664 -0.5196
 4521SOL    MW417818   0.822   1.901   3.394  0.2357  0.0724  0.3957
 4522SOL     OW17819   6.106   1.816   1.765 -0.3880 -0.1786 -0.2193
 4522SOL    HW217820   6.135   1.763   1.692  0.0246 -1.3595  0.7726
 4522SOL    HW317821   6.180   1.817   1.826 -1.5883 -1.4481  1.3789
 4522SOL    MW417822   6.119   1.809   1.764 -0.6851 -0.1561 -0.2505
 4523SOL     OW17823   3.864   6.098   1.062  0.1324 -0.0798 -0.0750
 4523SOL    HW217824   3.856   6.185   1.024  2.0641  0.1235 -0.1200
 4523SOL    HW317825   3.802   6.044   1.012  1.0361  0.6502 -2.0651
 4523SOL    MW417826   3.855   6.102   1.050  0.3639 -0.3917 -0.3521
 4524SOL     OW17827   2.058   5.343   3.153  0.1145  0.4712  0.1794
 4524SOL    HW217828   2.073   5.414   3.090 -1.4170 -0.3967 -1.2529
 4524SOL    HW317829   1.993   5.379   3.214 -1.1584  0.1521 -0.9298
 4524SOL    MW417830   2.051   5.357   3.153 -0.3642  0.2252 -0.0972
 4525SOL     OW17831   3.909   5.114   4.232 -0.1496 -0.5574  0.0407
 4525SOL    HW217832   3.987   5.156   4.195  1.1388 -2.8434 -0.0227
 4525SOL    HW317833   3.874   5.061   4.160 -0.3496 -1.4009  0.7405
 4525SOL    MW417834   3.915   5.113   4.217 -0.1772  0.6040  0.2018
 4526SOL     OW17835   4.674   2.153   2.615 -0.4624 -0.4409 -0.2756
 4526SOL    HW217836   4.697   2.060   2.621  1.0098 -0.1273 -0.5059
 4526SOL    HW317837   4.706   2.191   2.696  1.0299  0.2341 -1.1334
 4526SOL    MW417838   4.682   2.146   2.626  0.4576  0.4109 -0.8347
 4527SOL     OW17839   2.661   3.087   3.234 -0.1242  0.1437  0.2394
 4527SOL    HW217840   2.706   3.170   3.247  0.7557 -0.3430  0.3909
 4527SOL    HW317841   2.627   3.065   3.321  1.2725 -0.5600  0.6412
 4527SOL    MW417842   2.663   3.095   3.248  0.0876 -0.3766  0.0924
 4528SOL     OW17843   1.702   1.688   3.763  0.3957 -0.2808  0.1804
 4528SOL    HW217844   1.697   1.677   3.668 -0.9047 -0.1571  0.2176
 4528SOL    HW317845   1.702   1.783   3.776 -2.9699 -0.2033  0.3910
 4528SOL    MW417846   1.702   1.699   3.752 -0.3024  0.3891  0.4348
 4529SOL     OW17847   5.466   1.000   3.780 -0.2347 -0.3299  0.1696
 4529SOL    HW217848   5.555   0.970   3.798  0.1618  0.1560 -0.9070
 4529SOL    HW317849   5.426   0.929   3.730  0.4535  0.5507 -1.7074
 4529SOL    MW417850   5.472   0.986   3.776 -0.4193 -0.2700 -0.0149
 4530SOL     OW17851   5.180   1.498   3.299  0.6123 -0.6724 -0.3633
 4530SOL    HW217852   5.170   1.593   3.304  1.9028 -0.4969 -0.8690
 4530SOL    HW317853   5.166   1.478   3.206  4.2620 -0.4384 -1.0884
 4530SOL    MW417854   5.177   1.508   3.287  0.2329 -0.2721 -0.2718
 4531SOL     OW17855   3.668   1.519   3.842  0.5138  0.2543  0.0108
 4531SOL    HW217856   3.678   1.433   3.884 -1.5610  0.8611  1.9699
 4531SOL    HW317857   3.693   1.582   3.909 -1.7062  1.2368  0.0171
 4531SOL    MW417858   3.672   1.516   3.856 -0.5649  0.7648  0.5011
 4532SOL     OW17859   6.056   3.900   5.520  0.1201  0.0636 -0.3570
 4532SOL    HW217860   6.064   3.964   5.591 -1.1882  0.5371 -0.6146
 4532SOL    HW317861   6.089   3.946   5.443  2.7127 -0.8565  0.1032
 4532SOL    MW417862   6.062   3.915   5.519 -0.1355  0.5044  0.0683
 4533SOL     OW17863   1.012   1.144   2.160 -0.3900  0.0921  0.1076
 4533SOL    HW217864   1.077   1.104   2.217  0.6569  1.3872 -0.1102
 4533SOL    HW317865   0.966   1.071   2.120  0.5825 -0.8556  0.6732
 4533SOL    MW417866   1.014   1.129   2.162 -0.1301 -0.0918  0.0855
 4534SOL     OW17867   4.828   2.016   1.990 -0.8704 -0.3141  0.1469
 4534SOL    HW217868   4.785   1.971   1.918  0.0966  0.7870 -1.1894
 4534SOL    HW317869   4.762   2.076   2.025 -0.9804  0.0685 -0.6945
 4534SOL    MW417870   4.814   2.018   1.985  0.3124  0.2237  0.1311
 4535SOL     OW17871   2.401   5.965   4.402 -0.1052 -0.5803 -1.4662
 4535SOL    HW217872   2.315   5.947   4.363 -0.8463  2.1316 -1.2793
 4535SOL    HW317873   2.385   5.962   4.496  0.1405 -0.5478 -1.4239
 4535SOL    MW417874   2.387   5.962   4.409 -0.4624  0.3685  0.0595
 4536SOL     OW17875   3.835   2.866   5.547  0.7473 -0.7157  0.4898
 4536SOL    HW217876   3.898   2.913   5.602  1.5939 -1.2470 -0.0216
 4536SOL    HW317877   3.776   2.824   5.610  1.2661 -0.7184  0.9800
 4536SOL    MW417878   3.835   2.867   5.563 -1.0992  0.0878  0.5074
 4537SOL     OW17879   5.904   2.432   3.741  0.7104 -0.5121 -0.1970
 4537SOL    HW217880   5.988   2.393   3.715  1.6794  1.4266 -0.1715
 4537SOL    HW317881   5.897   2.414   3.835  1.5207  0.0022 -0.0251
 4537SOL    MW417882   5.914   2.425   3.750  0.6826  0.0812  0.1058
 4538SOL     OW17883   4.930   0.937   4.366 -0.0576  0.4593 -0.1529
 4538SOL    HW217884   4.972   1.000   4.308  0.2581  0.8341  0.4769
 4538SOL    HW317885   4.995   0.868   4.378  0.7257  1.4303  1.4690
 4538SOL    MW417886   4.944   0.936   4.360 -0.4805 -0.0468 -0.0662
 4539SOL     OW17887   3.901   0.086   0.026 -0.2138 -0.1067 -0.0101
 4539SOL    HW217888   3.811   0.120   0.022  0.0244  0.4607 -0.7068
 4539SOL    HW317889   3.909   0.049   0.114 -1.5058 -1.2124 -0.3174
 4539SOL    MW417890   3.890   0.085   0.037 -0.4695  1.0479  0.6934
 4540SOL     OW17891   6.062   0.493   6.388 -0.1175 -0.3711 -0.1484
 4540SOL    HW217892   6.139   0.538   6.354  1.2771 -1.5643  1.2394
 4540SOL    HW317893   6.009   0.473   6.311  1.1967  0.0766 -1.2047
 4540SOL    MW417894   6.065   0.496   6.373  0.4117 -0.1462 -0.2527
 4541SOL     OW17895   2.068   6.011   5.859 -0.4427 -0.2344  0.2406
 4541SOL    HW217896   2.035   5.990   5.772 -1.4769  0.0973  0.5390
 4541SOL    HW317897   2.163   6.010   5.850 -0.5167 -1.3593 -0.6145
 4541SOL    MW417898   2.076   6.008   5.847 -0.3212  0.3504 -0.0065
 4542SOL     OW17899   6.249   1.291   5.883 -0.1953  0.6082 -0.1370
 4542SOL    HW217900   6.244   1.197   5.864  1.6006  0.0581  1.7540
 4542SOL    HW317901   6.176   1.307   5.942  0.2787  0.0563  0.6292
 4542SOL    MW417902   6.239   1.281   5.888  0.2619  0.5964  0.6531
 4543SOL     OW17903   0.041   3.729   2.334  0.5955 -0.1148  0.0343
 4543SOL    HW217904  -0.010   3.649   2.324  0.1789  0.4118 -2.6243
 4543SOL    HW317905   0.081   3.745   2.249  2.7029  1.2144  1.1532
 4543SOL    MW417906   0.040   3.721   2.322 -0.6738 -0.2584  0.1238
 4544SOL     OW17907   3.465   4.649   3.687  0.2444  0.7505 -0.5876
 4544SOL    HW217908   3.457   4.555   3.701 -1.8251  0.9819  0.1299
 4544SOL    HW317909   3.437   4.688   3.770  1.8123  2.0151 -0.5935
 4544SOL    MW417910   3.460   4.642   3.700 -0.2809 -0.3253  0.4775
 4545SOL     OW17911   1.296   3.711   0.196 -0.1269 -0.0406  0.0948
 4545SOL    HW217912   1.255   3.794   0.169  2.2142  1.2112  0.1358
 4545SOL    HW317913   1.337   3.731   0.280  1.8418 -0.7586 -0.6583
 4545SOL    MW417914   1.296   3.725   0.204 -0.1837  0.3656  0.2712
 4546SOL     OW17915   2.210   3.667   2.816  0.2723 -0.1928 -0.0473
 4546SOL    HW217916   2.228   3.576   2.796  0.4969 -0.3985  1.0462
 4546SOL    HW317917   2.285   3.697   2.866 -1.1024 -0.2936  2.2316
 4546SOL    MW417918   2.222   3.659   2.820 -0.7469 -0.2205 -0.4352
 4547SOL     OW17919   3.957   0.409   6.325 -0.0305 -0.2127 -0.0073
 4547SOL    HW217920   3.921   0.358   6.252 -1.3012  0.2416  0.2840
 4547SOL    HW317921   4.050   0.416   6.306 -0.1865 -0.9142 -1.0925
 4547SOL    MW417922   3.964   0.403   6.313 -0.0549  0.6348  0.0119
 4548SOL     OW17923   0.084   2.826   3.879  0.4010 -0.0015  0.3734
 4548SOL    HW217924   0.013   2.860   3.826 -0.6508 -2.8666 -0.2197
 4548SOL    HW317925   0.156   2.813   3.818  0.4578  0.1651  0.4033
 4548SOL    MW417926   0.084   2.829   3.864  0.2053 -0.1005 -0.3519
 4549SOL     OW17927   1.125   4.765   0.101  0.1255  0.2529 -0.3506
 4549SOL    HW217928   1.098   4.673   0.099 -1.6184  0.7164 -0.4384
 4549SOL    HW317929   1.120   4.789   0.194 -2.5081  1.0166 -0.5919
 4549SOL    MW417930   1.121   4.756   0.113 -0.3808 -0.0010  0.1163
 4550SOL     OW17931   5.485   2.796   5.932  0.0385 -0.8099  0.2832
 4550SOL    HW217932   5.500   2.705   5.908 -1.4651 -1.7356  2.5485
 4550SOL    HW317933   5.405   2.820   5.884  1.5132  0.0754 -1.9176
 4550SOL    MW417934   5.476   2.787   5.922 -0.2992  0.2085  0.1908
 4551SOL     OW17935   0.733   3.614   4.712 -0.3640 -0.1241  0.2886
 4551SOL    HW217936   0.656   3.604   4.656  0.5080  4.1507 -2.1233
 4551SOL    HW317937   0.702   3.668   4.785 -0.5396 -2.1974  1.8329
 4551SOL    MW417938   0.719   3.620   4.714 -0.6898 -0.3085  0.2218
 4552SOL     OW17939   6.092   1.473   3.996 -0.0416 -0.5412  0.4731
 4552SOL    HW217940   6.084   1.558   4.038  2.0962 -0.5848  1.1030
 4552SOL    HW317941   6.127   1.492   3.909  2.0120 -0.7799  1.1747
 4552SOL    MW417942   6.096   1.486   3.991  0.3315  0.0485 -0.0630
 4553SOL     OW17943   4.145   1.153   3.577  0.6100  0.8706  0.2474
 4553SOL    HW217944   4.095   1.166   3.496  0.2563 -1.1021  0.1060
 4553SOL    HW317945   4.127   1.232   3.628 -0.3940  1.4707 -0.9627
 4553SOL    MW417946   4.136   1.165   3.573 -0.3220  0.6596  0.3142
 4554SOL     OW17947   1.727   6.099   5.893  0.4879  0.5733  0.0074
 4554SOL    HW217948   1.651   6.158   5.900  0.8843  1.0373  0.5101
 4554SOL    HW317949   1.752   6.104   5.801 -1.9395 -1.9610 -0.9376
 4554SOL    MW417950   1.720   6.108   5.882  0.7258 -0.2180  0.0057
 4555SOL     OW17951   3.127   1.886   1.318 -0.1276  0.4200 -0.8451
 4555SOL    HW217952   3.055   1.825   1.334 -2.0113  3.2997  3.5135
 4555SOL    HW317953   3.204   1.841   1.353 -1.4281  0.3012  2.1483
 4555SOL    MW417954   3.127   1.872   1.324 -0.1842 -0.6240  0.1329
 4556SOL     OW17955   0.122   3.558   4.193 -0.1927 -0.4101 -0.2128
 4556SOL    HW217956   0.196   3.499   4.182 -0.0313 -0.3123  0.3384
 4556SOL    HW317957   0.114   3.570   4.287  0.5197  1.3883 -0.3403
 4556SOL    MW417958   0.130   3.552   4.204 -0.2557 -0.1332  0.0466
 4557SOL     OW17959   4.672   3.886   1.981  0.5458 -0.3469  0.0721
 4557SOL    HW217960   4.660   3.877   2.076  2.3838 -0.1167  0.3764
 4557SOL    HW317961   4.678   3.796   1.949 -1.0564 -0.4478  0.0012
 4557SOL    MW417962   4.671   3.873   1.989 -0.1725  0.2503 -0.2236
 4558SOL     OW17963   1.861   4.391   5.224  0.6935  0.1539 -0.4860
 4558SOL    HW217964   1.803   4.458   5.187  0.8222  1.0759  0.8774
 4558SOL    HW317965   1.902   4.349   5.148 -0.4686  0.6524 -1.4121
 4558SOL    MW417966   1.859   4.395   5.209 -0.4934  0.4443 -1.0168
 4559SOL     OW17967   1.916   2.888   3.754 -0.2056  0.2393  0.2742
 4559SOL    HW217968   1.924   2.886   3.850 -2.2111  0.6222  0.5013
 4559SOL    HW317969   1.891   2.979   3.734 -1.2436 -0.1773 -0.4349
 4559SOL    MW417970   1.913   2.900   3.764  0.0303 -0.1028 -0.1302
 4560SOL     OW17971   0.051   3.147   3.502  0.6332 -0.2550 -0.6074
 4560SOL    HW217972   0.120   3.088   3.472  0.8305 -0.6526  0.6078
 4560SOL    HW317973  -0.030   3.107   3.468  0.9562  0.0731 -1.8071
 4560SOL    MW417974   0.049   3.134   3.493  0.0806  0.4531  0.5573
 4561SOL     OW17975   5.572   3.763   4.461  0.0958 -0.4898  0.5662
 4561SOL    HW217976   5.540   3.717   4.383 -0.1071  2.0741 -0.9793
 4561SOL    HW317977   5.645   3.817   4.429 -1.4011  2.3477  1.5795
 4561SOL    MW417978   5.578   3.764   4.446 -0.1849 -0.1304 -0.1307
 4562SOL     OW17979   3.042   4.778   5.175 -0.0522 -0.1139  0.2850
 4562SOL    HW217980   3.086   4.743   5.252 -0.2550 -0.9269  0.0446
 4562SOL    HW317981   3.057   4.872   5.179  1.9480 -0.3609  0.0915
 4562SOL    MW417982   3.050   4.786   5.185 -0.4449  0.2822 -0.1997
 4563SOL     OW17983   4.716   4.531   0.284  0.4225  0.1683 -0.1293
 4563SOL    HW217984   4.688   4.470   0.352  0.2322 -0.6580 -0.9264
 4563SOL    HW317985   4.669   4.503   0.205  0.7911  0.9733 -0.6559
 4563SOL    MW417986   4.706   4.519   0.282  0.1019 -0.2669 -0.5946
 4564SOL     OW17987   2.081   5.617   0.579 -0.0233 -0.2855 -0.0149
 4564SOL    HW217988   2.013   5.592   0.641  0.0534 -2.2267 -0.6180
 4564SOL    HW317989   2.163   5.588   0.620  0.0802 -1.0533 -0.7170
 4564SOL    MW417990   2.083   5.610   0.593  0.2072 -0.5908 -0.5528
 4565SOL     OW17991   6.410   0.538   2.950 -0.0116 -0.6916 -0.1036
 4565SOL    HW217992   6.505   0.535   2.958  0.0766  0.6757 -0.3667
 4565SOL    HW317993   6.379   0.544   3.040  0.2775  0.8858 -0.0804
 4565SOL    MW417994   6.419   0.538   2.963  0.3712 -0.2417 -0.0214
 4566SOL     OW17995   1.444   5.609   3.564 -0.1025  0.1652  0.1757
 4566SOL    HW217996   1.408   5.530   3.605 -0.3350 -0.1689 -0.6510
 4566SOL    HW317997   1.537   5.590   3.551 -0.2827 -0.2196 -0.5821
 4566SOL    MW417998   1.452   5.596   3.568  0.6760  0.1043  0.1000
 4567SOL     OW17999   0.660   2.907   0.521  0.0978 -0.2320 -0.1497
 4567SOL    HW218000   0.585   2.938   0.471 -0.9784 -2.6467 -0.2015
 4567SOL    HW318001   0.637   2.817   0.546  2.1397 -0.3787  1.5629
 4567SOL    MW418002   0.647   2.899   0.518  0.1362 -0.3555 -0.3813
 4568SOL     OW18003   5.432   4.409   0.516  0.3337  0.3332 -0.3239
 4568SOL    HW218004   5.377   4.330   0.516  0.0136  0.5349 -1.3609
 4568SOL    HW318005   5.404   4.457   0.594 -0.4233  0.0592 -0.4127
 4568SOL    MW418006   5.421   4.405   0.526 -0.7544 -0.1877 -0.1837
 4569SOL     OW18007   3.014   3.982   4.936 -0.0168 -0.0478  0.2001
 4569SOL    HW218008   2.939   3.979   4.995 -0.1452  0.9103  0.0923
 4569SOL    HW318009   2.976   3.986   4.849  0.1683 -0.2580  0.1088
 4569SOL    MW418010   2.999   3.982   4.933  0.1050 -0.7193 -0.4847
 4570SOL     OW18011   3.899   3.601   5.010 -0.3288 -0.0098 -1.1788
 4570SOL    HW218012   3.987   3.626   5.036 -0.5297 -0.4422 -0.0209
 4570SOL    HW318013   3.841   3.652   5.066 -0.7989 -0.3668 -1.3308
 4570SOL    MW418014   3.903   3.611   5.021  0.1013 -0.1297  0.6321
 4571SOL     OW18015   5.583   2.324   5.517  0.3868 -0.1100  0.5205
 4571SOL    HW218016   5.519   2.386   5.552  1.7513  2.6248 -1.4574
 4571SOL    HW318017   5.536   2.241   5.512 -2.2252  1.2174  1.3570
 4571SOL    MW418018   5.568   2.322   5.521  0.0070 -0.5576 -0.0719
 4572SOL     OW18019   4.338   3.756   6.066 -0.8945 -0.3474 -0.1852
 4572SOL    HW218020   4.416   3.747   6.011 -0.6384  0.1220  0.0841
 4572SOL    HW318021   4.336   3.677   6.118  1.1299  0.8726  1.9515
 4572SOL    MW418022   4.348   3.745   6.065  0.8182  0.6341  0.4655
 4573SOL     OW18023   0.252   6.387   1.676  0.3263 -0.6046  0.2167
 4573SOL    HW218024   0.203   6.346   1.747 -0.3780 -0.8104 -0.3785
 4573SOL    HW318025   0.344   6.368   1.697  0.1036 -1.0469  0.8299
 4573SOL    MW418026   0.258   6.379   1.688  0.0413 -0.0506  0.3891
 4574SOL     OW18027   2.843   5.625   1.001 -0.0110 -0.1418 -0.5294
 4574SOL    HW218028   2.891   5.693   0.955 -1.2435 -0.1550 -1.9103
 4574SOL    HW318029   2.887   5.617   1.085  1.8304  0.4445 -1.3887
 4574SOL    MW418030   2.855   5.633   1.006  0.5131 -0.0052 -0.6837
 4575SOL     OW18031   3.708   5.024   5.527 -0.1127  0.0803  0.1275
 4575SOL    HW218032   3.628   5.026   5.474  0.9000  1.8869 -1.4872
 4575SOL    HW318033   3.773   4.983   5.470  0.4213 -0.2941  0.9815
 4575SOL    MW418034   3.706   5.019   5.512 -0.8229 -0.2165 -0.2101
 4576SOL     OW18035   0.384   6.024   2.732 -0.2762  0.4628 -0.2235
 4576SOL    HW218036   0.408   5.932   2.721 -0.3362  0.5907 -1.6147
 4576SOL    HW318037   0.290   6.023   2.750  0.2260  0.0963  3.1223
 4576SOL    MW418038   0.375   6.012   2.733 -0.0010  0.7201 -0.3184
 4577SOL     OW18039   3.932   2.167   4.922 -0.3111 -0.3890  0.0215
 4577SOL    HW218040   4.020   2.154   4.887 -1.2099 -0.8596 -2.2668
 4577SOL    HW318041   3.877   2.178   4.844 -2.3806 -0.7858  1.3524
 4577SOL    MW418042   3.937   2.167   4.907 -0.4967  0.1982 -0.3329
 4578SOL     OW18043   1.415   3.009   3.080  0.2916 -0.0476 -0.3492
 4578SOL    HW218044   1.438   3.097   3.050 -1.6428  0.7495  0.3781
 4578SOL    HW318045   1.398   2.960   2.999  1.9226  0.0344 -0.7817
 4578SOL    MW418046   1.416   3.014   3.065 -0.5717  0.0339  0.3399
 4579SOL     OW18047   0.384   2.473   2.740  0.3570 -0.2548 -0.3607
 4579SOL    HW218048   0.331   2.400   2.707 -0.2130 -0.0073 -0.0069
 4579SOL    HW318049   0.465   2.468   2.690 -0.4708  0.0964 -1.8307
 4579SOL    MW418050   0.387   2.463   2.729  0.1139  0.1066 -0.1851
 4580SOL     OW18051   2.622   4.393  -0.014 -0.1082  0.0200  0.1439
 4580SOL    HW218052   2.542   4.341  -0.022 -1.8315  2.7254 -2.4000
 4580SOL    HW318053   2.672   4.372  -0.093  0.9124 -0.3403  0.8616
 4580SOL    MW418054   2.618   4.383  -0.026  0.5807  0.1099 -0.1783
 4581SOL     OW18055   0.801   3.196   2.468 -0.1874  0.4880  0.2113
 4581SOL    HW218056   0.738   3.199   2.539 -2.8757  1.7777 -2.0321
 4581SOL    HW318057   0.784   3.112   2.425 -0.1988  0.7297 -0.2589
 4581SOL    MW418058   0.791   3.185   2.471 -0.3280  0.5030 -0.1127
 4582SOL     OW18059   2.781   1.912   3.448  0.0703 -0.6601  0.0735
 4582SOL    HW218060   2.838   1.965   3.392  2.3397 -2.5925  0.4109
 4582SOL    HW318061   2.723   1.866   3.386  0.0833 -0.0536 -0.4052
 4582SOL    MW418062   2.781   1.913   3.432  0.1452  0.1974  0.0241
 4583SOL     OW18063   0.697   4.243   5.367  0.3411 -0.3455  0.0802
 4583SOL    HW218064   0.628   4.223   5.431 -0.1537 -2.1940 -0.9523
 4583SOL    HW318065   0.778   4.238   5.417  0.0073 -2.3085  0.5171
 4583SOL    MW418066   0.698   4.240   5.382  0.1464  0.0897  0.6881
 4584SOL     OW18067   6.049   1.142   3.502  0.4833 -0.2116  0.5850
 4584SOL    HW218068   5.958   1.123   3.477  0.7168  0.9024 -1.2686
 4584SOL    HW318069   6.091   1.056   3.509 -0.0152 -0.6518 -1.3785
 4584SOL    MW418070   6.042   1.128   3.500 -0.3596  0.2620  0.3909
 4585SOL     OW18071   3.974   3.489   6.052 -0.0253 -0.2777 -0.6395
 4585SOL    HW218072   4.044   3.509   5.991  0.0512  0.3159 -0.3655
 4585SOL    HW318073   4.019   3.474   6.136 -0.1431 -0.9085 -0.6786
 4585SOL    MW418074   3.989   3.489   6.055 -0.2678 -0.0573 -0.0732
 4586SOL     OW18075   1.835   5.987   1.332 -0.4060 -0.3952 -0.0504
 4586SOL    HW218076   1.925   5.985   1.362 -0.1740 -0.1706 -0.7094
 4586SOL    HW318077   1.784   5.948   1.404  0.2565 -0.8926  0.1550
 4586SOL    MW418078   1.840   5.982   1.346  0.7236  0.1700 -0.6171
 4587SOL     OW18079   4.125   5.129   0.950 -0.0957  0.3521 -0.0087
 4587SOL    HW218080   4.168   5.171   1.025 -0.4524 -0.7048  0.8106
 4587SOL    HW318081   4.069   5.062   0.989  0.7763 -1.1781 -1.2801
 4587SOL    MW418082   4.124   5.126   0.965 -0.2088 -0.4593  0.1916
 4588SOL     OW18083   3.976   0.682   1.539  0.3765  0.1048 -0.5372
 4588SOL    HW218084   3.930   0.645   1.614  0.4323 -1.2790 -1.1523
 4588SOL    HW318085   4.064   0.702   1.572  0.2927 -0.1579 -0.1493
 4588SOL    MW418086   3.982   0.680   1.553 -0.8135  0.0299 -0.4068
 4589SOL     OW18087   1.550   5.194   5.069  0.1765  0.0902  0.0537
 4589SOL    HW218088   1.515   5.219   4.984 -0.2261  0.6904  0.3856
 4589SOL    HW318089   1.513   5.259   5.130  0.2681 -0.4701  0.7162
 4589SOL    MW418090   1.541   5.206   5.066  0.0333  0.1612 -0.5121
 4590SOL     OW18091   1.114   3.319   5.293 -0.3614  0.0031 -0.0874
 4590SOL    HW218092   1.185   3.382   5.279 -0.0810 -0.5371 -1.2517
 4590SOL    HW318093   1.037   3.373   5.312 -0.0531  0.6868 -0.7346
 4590SOL    MW418094   1.113   3.334   5.294 -0.4965 -0.4056  0.1999
 4591SOL     OW18095   6.287   2.643   0.950  0.3173 -0.0859  0.1704
 4591SOL    HW218096   6.356   2.582   0.977  0.3874  0.3810  1.1091
 4591SOL    HW318097   6.243   2.599   0.877  1.5122 -0.4509 -0.3547
 4591SOL    MW418098   6.290   2.629   0.944 -0.4487  0.3176  0.5326
 4592SOL     OW18099   1.304   5.700   1.578 -0.9290 -0.3914 -0.1059
 4592SOL    HW218100   1.312   5.647   1.499 -0.7566 -0.8660  0.2251
 4592SOL    HW318101   1.392   5.703   1.614 -1.1470 -0.8374  0.4850
 4592SOL    MW418102   1.316   5.693   1.572  0.6342 -0.1071 -0.0410
 4593SOL     OW18103   4.177   0.362   5.528 -0.0777 -0.3731 -0.0226
 4593SOL    HW218104   4.160   0.269   5.543 -2.1043  0.0116  0.3291
 4593SOL    HW318105   4.226   0.365   5.446  0.7566 -1.7912  0.4014
 4593SOL    MW418106   4.181   0.350   5.519 -0.1165 -0.2586  0.2525
 4594SOL     OW18107   5.659   3.238   2.072  0.1407  0.1133 -0.4422
 4594SOL    HW218108   5.674   3.274   2.160 -0.2297  0.2207 -0.4225
 4594SOL    HW318109   5.719   3.164   2.066 -1.7027 -1.5728  0.8950
 4594SOL    MW418110   5.669   3.233   2.083 -0.6834 -0.1072  0.3480
 4595SOL     OW18111   1.091   4.721   1.691 -1.0070 -0.6116  0.5478
 4595SOL    HW218112   1.074   4.805   1.735 -1.1347 -0.8448  0.9480
 4595SOL    HW318113   1.122   4.664   1.761 -1.8289 -1.1750  0.4568
 4595SOL    MW418114   1.093   4.725   1.706  0.5884  0.0070  0.3021
 4596SOL     OW18115   1.191   3.553   3.581 -0.1557 -0.3037  0.4839
 4596SOL    HW218116   1.277   3.561   3.540 -1.3596 -0.0412 -2.1727
 4596SOL    HW318117   1.170   3.460   3.575  0.2140 -0.4961  1.8246
 4596SOL    MW418118   1.200   3.542   3.575 -0.9101  0.2668  0.2862
 4597SOL     OW18119   5.104   1.509   3.874 -0.0712  0.7529  0.1286
 4597SOL    HW218120   5.182   1.564   3.886  0.8565 -0.5397  0.1893
 4597SOL    HW318121   5.079   1.523   3.782  0.3178  1.0658  0.0664
 4597SOL    MW418122   5.111   1.518   3.863 -0.3792 -0.2214  0.3164
 4598SOL     OW18123   1.344   4.623   5.735  0.0823 -0.3083 -0.0052
 4598SOL    HW218124   1.371   4.619   5.643 -1.9676 -0.4431 -0.6529
 4598SOL    HW318125   1.340   4.717   5.754  0.8502 -0.2821  0.0842
 4598SOL    MW418126   1.347   4.635   5.725 -0.6542  0.1475 -0.0940
 4599SOL     OW18127   2.676   4.295   4.540 -0.2228  0.4996 -0.4134
 4599SOL    HW218128   2.704   4.271   4.452  1.0854  0.0151  0.1052
 4599SOL    HW318129   2.634   4.216   4.575 -0.2571  0.5197 -0.4085
 4599SOL    MW418130   2.674   4.281   4.533  0.1427  0.2543 -0.1233
 4600SOL     OW18131   1.452   2.082   4.357 -0.7789  0.0294  0.3876
 4600SOL    HW218132   1.376   2.049   4.405 -1.6959 -0.5531 -1.3525
 4600SOL    HW318133   1.420   2.160   4.312  0.7603  2.1079  2.6691
 4600SOL    MW418134   1.438   2.088   4.357  0.2189  0.0680  0.0208
 4601SOL     OW18135   2.480   6.286   4.672 -0.1418  0.4686  0.0673
 4601SOL    HW218136   2.514   6.221   4.611 -1.6458 -0.3304  0.0350
 4601SOL    HW318137   2.385   6.282   4.661 -0.3725  1.2445  1.4993
 4601SOL    MW418138   2.472   6.277   4.663 -0.0978 -0.1388 -0.3093
 4602SOL     OW18139   4.168   1.851   1.146 -0.3787 -0.6798 -0.0884
 4602SOL    HW218140   4.171   1.946   1.140 -0.8093 -0.6891 -0.4972
 4602SOL    HW318141   4.222   1.820   1.073 -0.9924 -0.7490 -0.5265
 4602SOL    MW418142   4.176   1.859   1.136  0.9389 -0.3667  0.1582
 4603SOL     OW18143   0.204   6.142   5.830  0.0006 -0.3613 -0.0433
 4603SOL    HW218144   0.268   6.185   5.773  0.9353 -0.6195  0.7845
 4603SOL    HW318145   0.154   6.215   5.868 -1.4631 -0.2352 -2.0901
 4603SOL    MW418146   0.206   6.158   5.828  0.2916 -0.2966 -0.3326
 4604SOL     OW18147   4.491   4.091   3.693 -0.3709  0.4997 -0.3979
 4604SOL    HW218148   4.402   4.059   3.706 -0.3597  0.4905 -0.3446
 4604SOL    HW318149   4.532   4.084   3.779  0.8349 -2.9354 -1.1346
 4604SOL    MW418150   4.485   4.086   3.706  0.2456 -0.1295 -0.7421
 4605SOL     OW18151   5.270   6.120   0.015 -0.1184 -0.4574 -0.3284
 4605SOL    HW218152   5.224   6.094   0.095  1.0138 -0.5639  0.3104
 4605SOL    HW318153   5.319   6.042  -0.011  2.3316  0.5736  0.9096
 4605SOL    MW418154   5.270   6.106   0.022  0.1281 -0.0950 -0.8156
 4606SOL     OW18155   5.692   1.793   1.807 -0.6288  0.9277 -0.0134
 4606SOL    HW218156   5.629   1.865   1.817  0.4991  2.4909 -3.0388
 4606SOL    HW318157   5.775   1.828   1.839 -0.4767  0.2001  0.4263
 4606SOL    MW418158   5.694   1.807   1.812  0.3766 -0.0244  0.8449
 4607SOL     OW18159   5.322   1.541   3.568 -0.0602 -0.1667  0.0872
 4607SOL    HW218160   5.266   1.504   3.500  1.4554 -1.2649 -0.6247
 4607SOL    HW318161   5.366   1.465   3.607  0.3203  0.5883  1.1816
 4607SOL    MW418162   5.321   1.526   3.564 -0.2675 -0.2278 -0.2112
 4608SOL     OW18163   6.028   5.577   0.273  0.1306  0.2970 -0.0596
 4608SOL    HW218164   6.109   5.571   0.221  0.1062  1.7851 -0.3037
 4608SOL    HW318165   5.960   5.598   0.208 -0.0434  1.3515  0.4496
 4608SOL    MW418166   6.030   5.579   0.257 -0.4266 -0.3120  0.3593
 4609SOL     OW18167   1.079   4.371   2.779 -0.1145 -0.0274  0.5849
 4609SOL    HW218168   1.150   4.372   2.843 -0.8996  3.1460  1.5601
 4609SOL    HW318169   1.123   4.370   2.694  1.1159  1.3258  1.1681
 4609SOL    MW418170   1.094   4.371   2.776 -0.3355 -0.1536 -0.3005
 4610SOL     OW18171   4.223   5.263   3.754 -0.0147 -0.1457  0.8231
 4610SOL    HW218172   4.150   5.215   3.793 -1.1148  1.1018  0.3615
 4610SOL    HW318173   4.187   5.350   3.733  1.3060  0.1587 -0.3683
 4610SOL    MW418174   4.208   5.268   3.756 -0.3973 -0.6140 -0.4942
 4611SOL     OW18175   2.369   1.647   1.380 -0.3278  0.3271 -0.4007
 4611SOL    HW218176   2.307   1.589   1.425 -1.4894  0.9646 -1.1248
 4611SOL    HW318177   2.402   1.706   1.448  0.5990 -0.9160  0.2755
 4611SOL    MW418178   2.365   1.647   1.395 -0.2647  0.7878  0.0068
 4612SOL     OW18179   4.120   1.468   0.932 -0.0392  0.5771 -0.3638
 4612SOL    HW218180   4.027   1.485   0.921 -0.7324 -2.2909  0.2966
 4612SOL    HW318181   4.128   1.435   1.022  1.1211 -1.7470 -1.2515
 4612SOL    MW418182   4.109   1.466   0.943 -0.0912 -0.6213 -0.5070
 4613SOL     OW18183   4.145   4.774   6.005 -0.7464  0.3939  0.6415
 4613SOL    HW218184   4.071   4.834   6.018 -0.1898  1.4716 -0.7610
 4613SOL    HW318185   4.182   4.762   6.092 -0.3437  2.8568  0.9013
 4613SOL    MW418186   4.140   4.780   6.018 -0.1007 -0.0021  0.1197
 4614SOL     OW18187   1.810   3.262   2.645  0.0069 -0.6714  0.5307
 4614SOL    HW218188   1.722   3.265   2.684  0.3736  0.7572  1.3258
 4614SOL    HW318189   1.831   3.169   2.640 -0.7367 -0.9743  2.2186
 4614SOL    MW418190   1.801   3.250   2.649 -0.0206 -0.8700 -0.1884
 4615SOL     OW18191   0.179   1.621   1.930 -0.2130 -0.1948  0.1277
 4615SOL    HW218192   0.211   1.536   1.959 -0.9033 -0.9533 -1.2671
 4615SOL    HW318193   0.220   1.684   1.990 -0.4144 -1.5592  1.7575
 4615SOL    MW418194   0.188   1.618   1.942 -0.1931  0.0367  0.1166
 4616SOL     OW18195   5.925   4.133   1.027 -0.0209  0.8267 -0.9006
 4616SOL    HW218196   6.004   4.185   1.012 -1.6827  3.4765 -1.1976
 4616SOL    HW318197   5.888   4.120   0.939  0.4597 -1.1282 -0.8512
 4616SOL    MW418198   5.930   4.138   1.013  0.1304 -0.3928 -0.2028
 4617SOL     OW18199   3.977   0.476   5.249 -0.1803 -0.1106 -0.2882
 4617SOL    HW218200   3.946   0.386   5.264  0.4488 -0.5715 -1.5819
 4617SOL    HW318201   4.072   0.468   5.250 -0.1118  0.3082 -1.5544
 4617SOL    MW418202   3.986   0.463   5.251 -0.1501  0.0745  0.6028
 4618SOL     OW18203   6.328   3.000   0.567  0.0024 -0.2996 -0.6830
 4618SOL    HW218204   6.389   2.986   0.640 -0.5425 -0.1166 -0.1801
 4618SOL    HW318205   6.375   2.971   0.489 -0.4247 -3.3276  0.0581
 4618SOL    MW418206   6.342   2.995   0.566  0.0019  0.1319  0.3173
 4619SOL     OW18207   2.530   5.724   1.909 -0.0850 -0.0407  0.4377
 4619SOL    HW218208   2.596   5.710   1.841 -0.1335  0.9787  0.1619
 4619SOL    HW318209   2.534   5.818   1.927 -1.8446  0.1455  0.0212
 4619SOL    MW418210   2.539   5.735   1.903 -0.7234  0.0017 -0.0158
 4620SOL     OW18211   2.460   6.146   3.599  0.0898 -0.4292 -0.2382
 4620SOL    HW218212   2.452   6.196   3.517  1.1879 -0.7813 -0.5707
 4620SOL    HW318213   2.379   6.165   3.646 -0.3872  0.0930 -1.2344
 4620SOL    MW418214   2.448   6.155   3.594  0.7555  0.0542 -0.0596
 4621SOL     OW18215   0.671   4.581   0.160  0.1500 -0.7964 -0.3818
 4621SOL    HW218216   0.721   4.565   0.080 -1.8005 -0.4461 -1.7230
 4621SOL    HW318217   0.727   4.639   0.211  0.8858  0.0638 -2.0754
 4621SOL    MW418218   0.685   4.586   0.156  0.0115 -0.2950 -0.0448
 4622SOL     OW18219   1.707   4.079   4.456  0.6827 -0.5237 -0.3569
 4622SOL    HW218220   1.743   4.048   4.539  1.6618  0.4906 -0.3791
 4622SOL    HW318221   1.783   4.103   4.404  0.0569 -0.6097 -1.3432
 4622SOL    MW418222   1.722   4.078   4.460  0.2065 -0.3535  0.6802
 4623SOL     OW18223   3.531   1.426   3.206  0.0683  0.0329  0.2807
 4623SOL    HW218224   3.548   1.504   3.259 -1.6112  0.3275  0.4350
 4623SOL    HW318225   3.518   1.460   3.118  0.0646 -0.1613  0.2062
 4623SOL    MW418226   3.532   1.441   3.202  0.3278  0.2734  0.3929
 4624SOL     OW18227   4.138   2.751   0.868  0.0274 -0.1618 -0.7052
 4624SOL    HW218228   4.225   2.786   0.889 -0.3383  0.7466 -0.6467
 4624SOL    HW318229   4.077   2.812   0.909 -0.6477 -1.3806  0.1838
 4624SOL    MW418230   4.142   2.764   0.876 -0.2003  0.7348 -0.5189
 4625SOL     OW18231   2.307   4.110   4.718  0.0054 -0.0275  0.3234
 4625SOL    HW218232   2.245   4.121   4.646  0.5114  0.6351 -0.0312
 4625SOL    HW318233   2.391   4.093   4.675  0.2875  0.2295  0.7604
 4625SOL    MW418234   2.310   4.109   4.703  0.7362  0.0323  0.5394
 4626SOL     OW18235   0.239   4.270   1.362 -0.5205 -0.6650  0.9486
 4626SOL    HW218236   0.243   4.359   1.327 -1.3252  0.0606  2.5700
 4626SOL    HW318237   0.164   4.271   1.422  0.2571 -2.0465  2.0132
 4626SOL    MW418238   0.230   4.282   1.366  0.1375  0.0031 -0.0131
 4627SOL     OW18239   1.518   4.183   4.653  0.2286  0.6162  0.2830
 4627SOL    HW218240   1.574   4.166   4.577 -0.1027 -1.7532  0.4946
 4627SOL    HW318241   1.441   4.227   4.617  0.3373  0.0329 -0.7003
 4627SOL    MW418242   1.515   4.186   4.638  0.1041  0.3305 -0.3220
 4628SOL     OW18243   4.749   4.738   5.354  0.2569 -0.7825  0.4072
 4628SOL    HW218244   4.768   4.785   5.436  0.6707 -1.2409  0.5784
 4628SOL    HW318245   4.835   4.706   5.325 -0.1435 -2.2433  0.7927
 4628SOL    MW418246   4.763   4.740   5.361  0.1492 -0.1811 -0.6719
 4629SOL     OW18247   2.042   5.928   5.591 -0.2403  0.1938 -0.5387
 4629SOL    HW218248   1.997   5.845   5.576 -0.5877  0.6960 -2.4350
 4629SOL    HW318249   2.080   5.952   5.507  0.6354  1.5314  0.1828
 4629SOL    MW418250   2.041   5.921   5.578  0.3513 -0.1410 -0.4388
 4630SOL     OW18251   4.330   4.960   2.343 -0.7971 -0.3929  0.0225
 4630SOL    HW218252   4.402   4.942   2.283 -1.4441 -0.1269 -0.8765
 4630SOL    HW318253   4.346   4.904   2.418  0.1993 -0.5267 -0.2735
 4630SOL    MW418254   4.341   4.950   2.345 -0.3735  0.7589 -0.4844
 4631SOL     OW18255   6.047   1.209   1.963  0.1568 -0.0108 -0.0485
 4631SOL    HW218256   6.044   1.301   1.938  0.2984 -0.2595 -1.0634
 4631SOL    HW318257   5.980   1.200   2.031 -1.7700  0.3348 -1.7954
 4631SOL    MW418258   6.038   1.220   1.968 -0.0022  0.2210 -0.6475
 4632SOL     OW18259   3.262   5.567   2.433  0.0168 -0.4900 -0.5174
 4632SOL    HW218260   3.266   5.659   2.407  1.2943  0.0663  1.4136
 4632SOL    HW318261   3.263   5.518   2.351 -1.8788  1.1939 -1.6585
 4632SOL    MW418262   3.262   5.573   2.419  0.1036  0.2672 -0.0597
 4633SOL     OW18263   6.359   5.175   0.426  0.1916 -0.4532 -0.1277
 4633SOL    HW218264   6.263   5.178   0.426  0.1340  2.9108  1.4887
 4633SOL    HW318265   6.382   5.146   0.338 -2.2644 -1.6778 -0.4630
 4633SOL    MW418266   6.349   5.172   0.414  0.8079 -0.3726 -0.0891
 4634SOL     OW18267   1.775   3.043   0.420  0.0514 -0.1204  0.1851
 4634SOL    HW218268   1.724   3.056   0.340 -0.1149 -0.7151  0.1901
 4634SOL    HW318269   1.807   2.953   0.414  0.9031  0.1661  0.2977
 4634SOL    MW418270   1.773   3.033   0.409  0.1111 -0.5000 -0.1085
 4635SOL     OW18271   6.138   5.511   1.636  0.0205 -0.7371  0.4612
 4635SOL    HW218272   6.213   5.458   1.664  0.6627  0.8296  1.8384
 4635SOL    HW318273   6.085   5.521   1.714  0.2150  1.0962  0.3962
 4635SOL    MW418274   6.141   5.505   1.650  0.6913 -0.7081  0.0774
 4636SOL     OW18275   2.981   4.470   0.846 -0.1411 -0.0567 -0.0953
 4636SOL    HW218276   2.924   4.496   0.919  1.0780  1.3113  0.4301
 4636SOL    HW318277   3.068   4.461   0.886  0.1803 -1.3003 -1.0221
 4636SOL    MW418278   2.985   4.472   0.861  0.0868 -0.6103  0.4249
 4637SOL     OW18279   2.445   4.030   6.017  0.1604  0.0346  0.1193
 4637SOL    HW218280   2.488   4.048   5.933  0.6518  1.6210  0.6568
 4637SOL    HW318281   2.358   4.069   6.008  0.2870  0.3889  0.4078
 4637SOL    MW418282   2.440   4.038   6.005  0.6321  0.5945  0.0027
 4638SOL     OW18283   5.564   1.997   5.742  0.8218 -0.3634 -0.0194
 4638SOL    HW218284   5.505   1.998   5.666  0.6485  0.8176  0.1110
 4638SOL    HW318285   5.521   1.938   5.805  1.2460 -1.8061 -1.0152
 4638SOL    MW418286   5.550   1.989   5.740  0.6848 -0.3406  0.3936
 4639SOL     OW18287   2.108   2.443   5.122  0.0171  0.2542 -0.1766
 4639SOL    HW218288   2.040   2.416   5.184  0.4281  0.1389  0.2337
 4639SOL    HW318289   2.154   2.514   5.167 -0.3899  0.9406 -0.8203
 4639SOL    MW418290   2.105   2.449   5.136 -0.0468 -0.2431  0.3199
 4640SOL     OW18291   2.723   2.269   5.741  0.4368 -0.1529 -0.1173
 4640SOL    HW218292   2.790   2.272   5.672 -0.0110 -1.1408 -0.6197
 4640SOL    HW318293   2.680   2.184   5.728  0.6268 -0.5498  1.6587
 4640SOL    MW418294   2.726   2.258   5.730  0.6530  0.2720  0.2324
 4641SOL     OW18295   5.718   6.011   2.280 -0.2583 -0.3251 -0.0358
 4641SOL    HW218296   5.705   6.078   2.213 -0.1572 -1.7638 -1.5492
 4641SOL    HW318297   5.669   5.936   2.249 -1.6394 -0.5364  2.3832
 4641SOL    MW418298   5.710   6.010   2.267  0.0255 -0.1744  0.1484
 4642SOL     OW18299   1.719   3.267   3.870 -0.5323  0.2374 -0.2648
 4642SOL    HW218300   1.735   3.320   3.948 -1.3052 -0.8640  0.6690
 4642SOL    HW318301   1.633   3.295   3.839 -1.0429 -0.5820  0.3602
 4642SOL    MW418302   1.710   3.278   3.876 -0.4225 -0.3281  0.1014
 4643SOL     OW18303   4.812   2.819   2.400 -0.0633 -0.2714 -0.2991
 4643SOL    HW218304   4.858   2.745   2.439  0.7444  0.8877  1.0584
 4643SOL    HW318305   4.776   2.785   2.318  2.4786 -1.4667 -1.0037
 4643SOL    MW418306   4.813   2.805   2.394 -0.1505  0.0552 -0.6016
 4644SOL     OW18307   0.568   0.714   3.104 -0.3693 -0.0984  0.5039
 4644SOL    HW218308   0.527   0.743   3.186  1.9419  0.9122  1.3972
 4644SOL    HW318309   0.590   0.622   3.119 -1.2952 -0.3462  0.4122
 4644SOL    MW418310   0.565   0.706   3.117  1.3056 -0.0504 -0.7523
 4645SOL     OW18311   2.000   2.431   6.185 -0.3107  0.3917 -0.0462
 4645SOL    HW218312   1.997   2.526   6.199  1.2113  0.6131 -1.0704
 4645SOL    HW318313   2.009   2.394   6.273  0.5590  1.2793  0.2492
 4645SOL    MW418314   2.001   2.439   6.199  0.0329  0.9518  0.3653
 4646SOL     OW18315   0.255   1.507   1.536  0.4102 -0.0668  0.0168
 4646SOL    HW218316   0.235   1.486   1.445  1.4600 -1.0141 -0.0230
 4646SOL    HW318317   0.313   1.583   1.530 -0.4426  0.5876 -0.0362
 4646SOL    MW418318   0.260   1.514   1.523 -0.3726 -0.5490 -0.0366
 4647SOL     OW18319   3.786   0.873   2.862  0.2329 -0.1785  0.2675
 4647SOL    HW218320   3.780   0.966   2.839  2.5481  0.0998  0.5913
 4647SOL    HW318321   3.758   0.869   2.953  0.4720  0.2782  0.3653
 4647SOL    MW418322   3.781   0.885   2.871 -0.6321 -0.6932 -0.6503
 4648SOL     OW18323   0.644   1.855   2.662 -0.1583  0.1795  0.5374
 4648SOL    HW218324   0.576   1.850   2.596  0.4508  3.7407 -0.6044
 4648SOL    HW318325   0.606   1.907   2.732  0.3959 -0.4646  1.3377
 4648SOL    MW418326   0.630   1.861   2.662  0.5169 -0.4670 -0.0244
 4649SOL     OW18327   3.535   4.997   2.651  0.1311  0.2336  0.1187
 4649SOL    HW218328   3.484   5.075   2.630 -0.0112  0.3771  0.9831
 4649SOL    HW318329   3.607   4.998   2.588 -0.1184  0.8165 -0.1619
 4649SOL    MW418330   3.538   5.007   2.640 -0.3006  0.2437  0.3975
 4650SOL     OW18331   1.547   2.340   5.646  0.1292  0.0849  0.0062
 4650SOL    HW218332   1.509   2.411   5.593  0.7491  1.2936  1.1391
 4650SOL    HW318333   1.625   2.313   5.598 -1.1288 -1.2051 -1.4264
 4650SOL    MW418334   1.552   2.346   5.633  0.2008 -0.3932  0.2405
 4651SOL     OW18335   2.849   2.254   6.396 -0.2250  0.9135  0.0363
 4651SOL    HW218336   2.838   2.195   6.472 -2.7076  0.2064 -0.7588
 4651SOL    HW318337   2.887   2.198   6.328 -1.9295  0.3112 -0.4950
 4651SOL    MW418338   2.852   2.239   6.397 -0.0987 -0.0033  0.0027
 4652SOL     OW18339   3.031   2.384   0.846  0.1869  0.2844  0.1191
 4652SOL    HW218340   3.002   2.429   0.766 -1.2771  0.9822  1.0184
 4652SOL    HW318341   3.016   2.292   0.828 -0.2820  0.4489 -0.3554
 4652SOL    MW418342   3.025   2.378   0.833  0.3806 -0.0331  0.5610
 4653SOL     OW18343   1.302   1.997   4.093  0.4877  0.3966 -0.4618
 4653SOL    HW218344   1.320   1.975   4.184  1.7241  0.4217 -0.6875
 4653SOL    HW318345   1.300   1.913   4.047  4.7176  0.4671 -1.2340
 4653SOL    MW418346   1.304   1.983   4.099  0.7807 -0.6950  0.4541
 4654SOL     OW18347   3.366   2.706   3.957  0.2019 -0.3182  0.2348
 4654SOL    HW218348   3.347   2.614   3.939 -0.4556 -0.5634  1.9429
 4654SOL    HW318349   3.448   2.704   4.007  1.3242  0.2266 -1.4988
 4654SOL    MW418350   3.375   2.693   3.961 -0.3399 -0.4997 -0.1507
 4655SOL     OW18351   2.388   1.988   5.773 -0.8620 -0.3966  0.0458
 4655SOL    HW218352   2.345   2.059   5.725 -2.2421  0.6894  2.6468
 4655SOL    HW318353   2.475   1.980   5.732 -1.3735  1.4695 -1.5539
 4655SOL    MW418354   2.394   1.997   5.761  0.3523 -0.0559 -0.3383
 4656SOL     OW18355   0.577   0.481   3.771  0.0889 -0.0317 -0.6639
 4656SOL    HW218356   0.624   0.534   3.835  3.7712 -2.3886 -1.1192
 4656SOL    HW318357   0.585   0.528   3.689 -0.1141  0.5147 -0.3786
 4656SOL    MW418358   0.584   0.494   3.769  0.5395  0.0451 -0.5733
 4657SOL     OW18359   4.280   5.800   2.889  0.6094 -0.4174  0.3395
 4657SOL    HW218360   4.224   5.739   2.937  3.3952 -2.7791  0.8906
 4657SOL    HW318361   4.317   5.857   2.957  0.6603 -0.4123  0.3076
 4657SOL    MW418362   4.277   5.800   2.905  0.3035 -0.2143 -0.5272
 4658SOL     OW18363   5.247   5.784   1.831 -0.3751 -0.6557  0.0126
 4658SOL    HW218364   5.327   5.830   1.856 -0.4501  0.8822 -2.2406
 4658SOL    HW318365   5.181   5.853   1.824 -0.5916 -1.0039 -3.0733
 4658SOL    MW418366   5.249   5.799   1.833 -0.2965  0.5248 -0.1073
 4659SOL     OW18367   2.041   2.122   1.857  0.3203  0.2878  0.1633
 4659SOL    HW218368   2.017   2.081   1.940 -1.4042  0.4066 -0.2433
 4659SOL    HW318369   1.994   2.206   1.856 -0.1561  0.0409 -1.1641
 4659SOL    MW418370   2.031   2.128   1.867 -0.1468 -0.5132  0.0603
 4660SOL     OW18371   5.280   5.429   5.582  0.6368  1.0100  0.6430
 4660SOL    HW218372   5.189   5.442   5.608 -0.2879 -0.5981 -1.4320
 4660SOL    HW318373   5.279   5.441   5.487  1.8505 -2.2035  0.0797
 4660SOL    MW418374   5.268   5.432   5.573 -0.0092 -0.5214 -0.2903
 4661SOL     OW18375   4.945   0.357   4.076 -0.5389 -0.1375 -0.1601
 4661SOL    HW218376   5.004   0.420   4.119  0.1927  1.1440 -2.7829
 4661SOL    HW318377   4.912   0.405   4.000 -1.7404 -2.2342 -1.0198
 4661SOL    MW418378   4.949   0.372   4.072  0.2357 -0.2266  0.2048
 4662SOL     OW18379   3.951   3.977   1.387  0.4752 -0.3255  0.1190
 4662SOL    HW218380   4.033   3.930   1.375  0.5210 -0.1815 -0.1274
 4662SOL    HW318381   3.883   3.913   1.368  0.4882 -0.9294  1.9156
 4662SOL    MW418382   3.953   3.963   1.383 -0.3490  0.1857 -0.6388
 4663SOL     OW18383   3.069   3.133   1.666  0.0134  0.3700 -0.4352
 4663SOL    HW218384   3.103   3.223   1.670  1.5019 -0.1735 -0.1356
 4663SOL    HW318385   3.122   3.085   1.729 -0.4361 -0.8280 -0.9439
 4663SOL    MW418386   3.080   3.139   1.675  0.2015  0.5466 -0.4008
 4664SOL     OW18387   5.422   2.272   6.104 -0.0886 -0.5732  0.5329
 4664SOL    HW218388   5.484   2.319   6.047  0.8484 -1.0052  1.1696
 4664SOL    HW318389   5.344   2.327   6.104  0.0562 -0.3249 -0.7886
 4664SOL    MW418390   5.420   2.285   6.096 -0.4088 -0.3683  0.5121
 4665SOL     OW18391   6.233   5.513   0.608  0.1842  0.5484  0.0062
 4665SOL    HW218392   6.292   5.475   0.543  1.2546 -1.1712  1.8722
 4665SOL    HW318393   6.194   5.589   0.564  1.7766  0.1878 -2.1812
 4665SOL    MW418394   6.236   5.518   0.594 -0.0287  0.4864  0.3167
 4666SOL     OW18395   0.245   0.904   3.552 -0.4778  0.3119 -0.1541
 4666SOL    HW218396   0.284   0.906   3.639 -1.7782 -0.2122  0.4714
 4666SOL    HW318397   0.162   0.950   3.562 -1.0021 -0.4408 -0.9286
 4666SOL    MW418398   0.239   0.911   3.565  0.3540 -0.4248 -0.0366
 4667SOL     OW18399   2.391   3.280   5.966 -0.1650 -0.0482  0.0743
 4667SOL    HW218400   2.427   3.300   6.052  0.4135  0.5920 -0.3072
 4667SOL    HW318401   2.352   3.361   5.936  0.2206 -0.0733 -0.5388
 4667SOL    MW418402   2.391   3.293   5.973  0.2383  0.8628  0.6924
 4668SOL     OW18403   4.474   4.565   4.116  0.2387 -0.1387  0.6958
 4668SOL    HW218404   4.519   4.628   4.059 -0.6605 -1.2348 -1.3156
 4668SOL    HW318405   4.544   4.515   4.157  0.9665  1.8853  2.1080
 4668SOL    MW418406   4.489   4.567   4.114  0.0106  0.2311  0.5330
 4669SOL     OW18407   0.067   1.824   2.373 -0.7213 -0.4098  0.1784
 4669SOL    HW218408   0.089   1.913   2.399  0.5139 -0.6785  0.1311
 4669SOL    HW318409   0.117   1.768   2.433  1.1616 -1.0369 -1.8434
 4669SOL    MW418410   0.076   1.828   2.384 -0.1239  0.0844 -0.5030
 4670SOL     OW18411   5.985   3.360   5.295  0.5900  0.0488  0.1037
 4670SOL    HW218412   5.965   3.296   5.363 -0.7829  0.3076 -0.0312
 4670SOL    HW318413   6.042   3.423   5.338  3.1156 -1.9260 -0.1218
 4670SOL    MW418414   5.990   3.360   5.310  0.2393  0.8842 -0.5348
 4671SOL     OW18415   4.005   2.782   2.556  0.1571 -0.2118  0.8248
 4671SOL    HW218416   4.025   2.871   2.526 -0.5655 -0.3192 -0.0590
 4671SOL    HW318417   4.019   2.727   2.479 -0.3037 -0.7250  1.0944
 4671SOL    MW418418   4.009   2.786   2.542 -1.0524  0.5255  0.5803
 4672SOL     OW18419   5.012   1.759   1.416  0.6455 -0.0627 -0.0754
 4672SOL    HW218420   4.995   1.665   1.413  1.3016 -0.1680 -1.1904
 4672SOL    HW318421   5.081   1.773   1.351  1.1485  1.0707  0.6684
 4672SOL    MW418422   5.019   1.749   1.407 -0.4840 -0.1651 -0.3744
 4673SOL     OW18423   0.198   1.667   3.952 -0.5839  0.0422 -0.1565
 4673SOL    HW218424   0.284   1.623   3.947 -0.6431 -0.0638 -0.2735
 4673SOL    HW318425   0.155   1.642   3.870 -0.9798 -0.4291  0.1879
 4673SOL    MW418426   0.204   1.658   3.940 -0.3827 -0.1601  0.2283
 4674SOL     OW18427   2.024   6.267   5.788 -0.4326  0.1955  0.2672
 4674SOL    HW218428   1.959   6.314   5.840 -0.5828  0.5726 -0.2441
 4674SOL    HW318429   2.038   6.184   5.834  0.0477  0.8567  1.3318
 4674SOL    MW418430   2.017   6.262   5.801  0.0626  0.2137  0.2554
 4675SOL     OW18431   5.340   0.836   2.499 -0.5082 -0.4632 -0.3063
 4675SOL    HW218432   5.431   0.829   2.526 -0.7490 -1.0010  0.4120
 4675SOL    HW318433   5.331   0.773   2.428 -0.2381 -0.1411 -0.6323
 4675SOL    MW418434   5.351   0.827   2.493 -0.4379 -0.0730 -0.8617
 4676SOL     OW18435   0.130   3.575   1.843  0.2196 -0.1866 -0.2917
 4676SOL    HW218436   0.215   3.616   1.863  1.4849 -2.5497 -0.5440
 4676SOL    HW318437   0.100   3.539   1.926 -1.4374  1.9871  0.1764
 4676SOL    MW418438   0.137   3.576   1.857 -0.5972 -0.0653 -0.2747
 4677SOL     OW18439   2.254   4.351   5.277 -0.2365  0.0941  0.7051
 4677SOL    HW218440   2.248   4.256   5.286 -1.3758  0.0882  0.0784
 4677SOL    HW318441   2.319   4.377   5.342  0.5246 -1.1667  0.4852
 4677SOL    MW418442   2.262   4.342   5.287 -0.1874  0.6148  0.7325
 4678SOL     OW18443   2.653   3.956   2.131  0.5499  0.0997  0.6446
 4678SOL    HW218444   2.668   4.042   2.169 -1.5482  1.4420 -1.3029
 4678SOL    HW318445   2.587   3.916   2.187 -1.0020  1.2273 -0.2970
 4678SOL    MW418446   2.646   3.962   2.143  0.1158  0.2284 -0.3477
 4679SOL     OW18447   3.378   3.450   1.883 -0.2436  0.4734 -0.0170
 4679SOL    HW218448   3.443   3.386   1.853  0.4455  0.5833  1.1777
 4679SOL    HW318449   3.299   3.430   1.832  0.8376  0.6429 -1.8521
 4679SOL    MW418450   3.376   3.439   1.872 -0.0719 -0.5609  0.2353
 4680SOL     OW18451   4.479   5.808   3.444 -0.5586 -0.2146  0.4463
 4680SOL    HW218452   4.525   5.880   3.485  0.4684  0.1822 -1.2953
 4680SOL    HW318453   4.387   5.826   3.459 -0.3227  1.5365 -0.0611
 4680SOL    MW418454   4.473   5.820   3.451 -0.1360 -0.4212 -0.5012
 4681SOL     OW18455   3.188   0.300   2.721  0.3396  0.4903  0.4511
 4681SOL    HW218456   3.269   0.305   2.772  1.3412 -2.0973 -0.7290
 4681SOL    HW318457   3.124   0.262   2.782 -0.1269  2.6528  1.4243
 4681SOL    MW418458   3.190   0.296   2.736 -0.0377  0.2372 -0.3955
 4682SOL     OW18459   3.243   1.164   4.268  0.2171 -0.2718  0.1526
 4682SOL    HW218460   3.148   1.148   4.274  0.1527 -0.3178 -0.8577
 4682SOL    HW318461   3.281   1.077   4.258  0.1840 -0.1294 -1.4751
 4682SOL    MW418462   3.235   1.150   4.268 -0.5192 -0.4999  0.2665
 4683SOL     OW18463   0.347   5.972   6.373  0.3383 -0.5039 -0.1718
 4683SOL    HW218464   0.345   5.975   6.469  0.6862 -0.0387 -0.1721
 4683SOL    HW318465   0.355   5.879   6.351  3.0886 -0.4486  0.3281
 4683SOL    MW418466   0.347   5.960   6.383 -0.0243 -0.0691 -0.0360
 4684SOL     OW18467   2.498   4.028   5.348 -0.6022  0.1165  0.5474
 4684SOL    HW218468   2.566   4.079   5.392 -0.5539 -0.2397  0.8955
 4684SOL    HW318469   2.544   3.951   5.313 -0.5805  0.5722 -0.4357
 4684SOL    MW418470   2.513   4.024   5.349  0.0615  0.0673  0.5676
 4685SOL     OW18471   2.175   6.399   5.178  0.0711  0.1563 -0.5583
 4685SOL    HW218472   2.128   6.364   5.254  0.5618 -0.6504 -0.6148
 4685SOL    HW318473   2.105   6.429   5.119 -0.3087  2.0505  0.7494
 4685SOL    MW418474   2.159   6.399   5.181 -0.0445 -0.7963 -0.0717
 4686SOL     OW18475   1.238   2.701   2.045 -0.1289 -0.3836 -0.2239
 4686SOL    HW218476   1.265   2.788   2.017 -1.1327 -0.0356 -0.1606
 4686SOL    HW318477   1.274   2.642   1.979  2.0229 -0.1303  0.6354
 4686SOL    MW418478   1.246   2.704   2.033 -0.5568  0.5449  0.7228
 4687SOL     OW18479   5.947   4.616   1.202  0.1240 -0.1217 -0.2121
 4687SOL    HW218480   5.990   4.668   1.134  0.3709 -0.6959 -0.5057
 4687SOL    HW318481   5.858   4.603   1.170 -0.0567  0.4599  0.0532
 4687SOL    MW418482   5.941   4.621   1.189 -0.4388  0.7861  0.1664
 4688SOL     OW18483   6.339   3.437   4.066 -0.0860 -0.0584 -0.1937
 4688SOL    HW218484   6.353   3.475   3.980  0.9169 -0.9878 -0.4575
 4688SOL    HW318485   6.411   3.470   4.120 -0.8530  0.7321  0.3806
 4688SOL    MW418486   6.350   3.446   4.062 -0.1896 -0.1739  0.7111
 4689SOL     OW18487   5.573   5.647   5.901  0.0411 -0.5637  0.2291
 4689SOL    HW218488   5.581   5.707   5.827  1.1752  0.1306  0.8906
 4689SOL    HW318489   5.625   5.687   5.971  0.4020 -2.0624  0.8548
 4689SOL    MW418490   5.581   5.660   5.901 -0.6446 -0.2569 -0.2522
 4690SOL     OW18491   4.205   6.416   1.055 -0.0524  0.3097 -0.1930
 4690SOL    HW218492   4.261   6.347   1.019 -0.6404  0.3078 -1.1065
 4690SOL    HW318493   4.239   6.429   1.144  0.6091 -0.5534 -0.3031
 4690SOL    MW418494   4.217   6.409   1.062  0.0247  0.1009 -0.6339
 4691SOL     OW18495   0.070   3.442   2.111 -0.4427 -0.0661 -0.4245
 4691SOL    HW218496   0.010   3.452   2.186  1.8200 -1.3056  1.6848
 4691SOL    HW318497   0.076   3.347   2.098  1.0178  0.0252 -0.5807
 4691SOL    MW418498   0.063   3.431   2.119 -0.0327  0.3195 -0.5489
 4692SOL     OW18499   4.094   4.104   1.592 -0.2104  0.6150 -0.1139
 4692SOL    HW218500   4.081   4.196   1.615  0.9801  0.5395  0.9624
 4692SOL    HW318501   4.026   4.085   1.527 -0.2448  2.3518 -0.6218
 4692SOL    MW418502   4.084   4.113   1.586 -0.1412  0.4271  0.2492
 4693SOL     OW18503   5.557   0.840   5.616  0.0011  0.1941  0.7453
 4693SOL    HW218504   5.533   0.924   5.655  0.0824  0.4613  0.2205
 4693SOL    HW318505   5.653   0.842   5.615  0.0290  1.4239 -2.0760
 4693SOL    MW418506   5.567   0.851   5.621  0.5935  0.4755  0.1692
 4694SOL     OW18507   5.109   6.273   5.769 -0.4093  0.2600  0.2636
 4694SOL    HW218508   5.137   6.320   5.690 -0.4443  0.9864  0.6773
 4694SOL    HW318509   5.017   6.250   5.752 -0.5078  0.6847  0.2181
 4694SOL    MW418510   5.101   6.276   5.756 -0.1490 -0.3630  0.1514
 4695SOL     OW18511   3.244   0.516   5.609  0.0515  0.6660  0.2223
 4695SOL    HW218512   3.317   0.463   5.641 -0.6159 -0.3643  0.0773
 4695SOL    HW318513   3.266   0.536   5.518  0.3786  0.7761  0.3249
 4695SOL    MW418514   3.256   0.512   5.601 -0.4421  0.1427  0.0581
 4696SOL     OW18515   5.522   0.401   6.219 -0.1926  0.0108  0.0329
 4696SOL    HW218516   5.451   0.366   6.165 -0.5287  0.8646 -0.0947
 4696SOL    HW318517   5.536   0.334   6.286 -1.3521 -0.0224  0.2604
 4696SOL    MW418518   5.514   0.388   6.221 -0.5935  0.3095  0.3245
 4697SOL     OW18519   0.727   1.067   5.771  0.2501  0.1932 -0.2017
 4697SOL    HW218520   0.753   1.001   5.835  0.0113  0.0139 -0.2885
 4697SOL    HW318521   0.636   1.045   5.750 -0.0206  0.8824  0.1926
 4697SOL    MW418522   0.718   1.056   5.777  0.3460  0.3724 -0.0357
 4698SOL     OW18523   0.348   0.892   2.221  0.2723  0.2344  0.1801
 4698SOL    HW218524   0.402   0.884   2.143 -0.8956  0.4175 -0.6769
 4698SOL    HW318525   0.407   0.928   2.288  1.1786  0.4753 -0.7313
 4698SOL    MW418526   0.363   0.896   2.220 -0.6804  0.8531  0.4698
 4699SOL     OW18527   3.780   3.098   2.686  0.1970 -0.2188  0.0974
 4699SOL    HW218528   3.794   3.119   2.594  1.4133  2.5005  0.8075
 4699SOL    HW318529   3.769   3.003   2.688 -0.4729 -0.2828 -2.8931
 4699SOL    MW418530   3.780   3.088   2.674  0.1525  0.0214  0.0825
 4700SOL     OW18531   3.927   2.748   3.136 -0.2276 -0.2798 -0.7078
 4700SOL    HW218532   3.981   2.798   3.197 -0.1109  1.0759 -1.8741
 4700SOL    HW318533   3.990   2.698   3.084 -0.3478 -1.8312  0.5305
 4700SOL    MW418534   3.943   2.748   3.137 -0.0509  0.5611 -0.2200
 4701SOL     OW18535   2.877   1.285   3.299  0.4566 -0.0674 -0.1799
 4701SOL    HW218536   2.964   1.258   3.327  1.7298  3.4183 -0.2620
 4701SOL    HW318537   2.884   1.292   3.203 -0.2694 -0.8493 -0.2946
 4701SOL    MW418538   2.889   1.283   3.290 -0.7782  0.1147 -0.3992
 4702SOL     OW18539   2.555   5.830   0.730  0.2301 -0.5243 -0.5691
 4702SOL    HW218540   2.623   5.831   0.662  0.1315  0.0123 -0.6596
 4702SOL    HW318541   2.480   5.875   0.690 -0.2262 -1.2135 -0.5153
 4702SOL    MW418542   2.554   5.836   0.716 -0.2132  0.2243 -0.1569
 4703SOL     OW18543   5.113   5.697   4.121  0.4729  0.5187 -0.4957
 4703SOL    HW218544   5.077   5.782   4.148 -1.5475 -0.3270 -0.3363
 4703SOL    HW318545   5.081   5.636   4.186  1.6624 -0.4330 -0.7752
 4703SOL    MW418546   5.104   5.701   4.133 -0.0404 -0.4291 -0.0708
 4704SOL     OW18547   3.647   2.887   6.142 -0.6117  0.6041  0.1158
 4704SOL    HW218548   3.599   2.882   6.059  0.2530 -0.8512 -0.3391
 4704SOL    HW318549   3.647   2.980   6.164 -0.4983  1.0805 -1.7329
 4704SOL    MW418550   3.640   2.899   6.134 -0.2713  0.1364 -0.1477
 4705SOL     OW18551   0.277   0.545   1.992 -0.3836 -0.2243  0.1525
 4705SOL    HW218552   0.337   0.593   1.934  0.7591 -0.0141  1.4670
 4705SOL    HW318553   0.195   0.593   1.986  0.2995  0.9997  0.2481
 4705SOL    MW418554   0.274   0.558   1.983 -0.3952  0.4778  1.0184
 4706SOL     OW18555   3.374   1.766   1.701  0.0314  0.2393 -0.0828
 4706SOL    HW218556   3.304   1.745   1.763  0.3728  1.4139  0.7293
 4706SOL    HW318557   3.430   1.688   1.701 -0.8574 -0.4122 -0.1683
 4706SOL    MW418558   3.372   1.753   1.710 -0.0051  0.4457  0.2234
 4707SOL     OW18559   5.719   0.277   5.391  0.1961  0.0851  0.2177
 4707SOL    HW218560   5.698   0.366   5.364  0.4421  0.2741  0.6345
 4707SOL    HW318561   5.758   0.287   5.478  0.9126 -0.3660 -0.0441
 4707SOL    MW418562   5.721   0.290   5.399 -0.1163  1.0749 -0.0352
 4708SOL     OW18563   0.241   0.875   2.572 -0.0296  0.3222 -0.4583
 4708SOL    HW218564   0.331   0.904   2.561  0.3807 -0.5908  0.3698
 4708SOL    HW318565   0.224   0.885   2.666 -0.3607 -0.7226 -0.3988
 4708SOL    MW418566   0.251   0.880   2.583  0.5363 -0.2863 -0.3169
 4709SOL     OW18567   1.579   1.370   5.338  0.3148  0.0309  0.5841
 4709SOL    HW218568   1.619   1.296   5.382 -0.8431 -0.0891  1.4646
 4709SOL    HW318569   1.567   1.436   5.407  1.2234  1.0198 -0.1561
 4709SOL    MW418570   1.583   1.369   5.353 -0.2678  0.2242  0.1189
 4710SOL     OW18571   0.566   5.723   0.793 -0.4751  0.5453  0.4520
 4710SOL    HW218572   0.496   5.777   0.828 -2.0839 -0.4464 -1.0255
 4710SOL    HW318573   0.640   5.782   0.782 -1.0925  1.6518  1.9877
 4710SOL    MW418574   0.567   5.738   0.796  1.0692 -0.2153  0.1615
 4711SOL     OW18575   2.745   5.395   4.067 -0.0234  0.7782  0.4938
 4711SOL    HW218576   2.792   5.377   4.149 -2.2628 -0.2591  1.6705
 4711SOL    HW318577   2.791   5.468   4.028  3.0310 -0.6613  1.0834
 4711SOL    MW418578   2.757   5.402   4.073  0.4889  0.4358 -0.3816
 4712SOL     OW18579   6.158   1.766   3.343 -0.2444  0.1204 -0.0885
 4712SOL    HW218580   6.191   1.828   3.408  2.0645  0.6451 -1.6384
 4712SOL    HW318581   6.217   1.690   3.350  0.9184  0.7108 -2.3257
 4712SOL    MW418582   6.170   1.764   3.352  0.0975 -0.3365 -0.2938
 4713SOL     OW18583   3.140   1.714   1.854  0.0990 -0.6223  0.0003
 4713SOL    HW218584   3.163   1.664   1.933  1.8845  0.7391  0.4108
 4713SOL    HW318585   3.117   1.647   1.790  0.7017 -1.8945  1.0512
 4713SOL    MW418586   3.140   1.699   1.856  0.3259 -0.6348  0.0870
 4714SOL     OW18587   1.222   6.291   3.372  0.2165 -0.3009  0.2396
 4714SOL    HW218588   1.290   6.228   3.349 -1.4109 -1.9783 -0.2806
 4714SOL    HW318589   1.202   6.336   3.290  0.1875 -0.3724  0.2062
 4714SOL    MW418590   1.228   6.288   3.358  0.2828 -0.4477 -0.2806
 4715SOL     OW18591   0.672   5.431   6.191 -0.5773 -0.1594 -0.3746
 4715SOL    HW218592   0.692   5.451   6.283  1.2427 -0.1851 -0.7394
 4715SOL    HW318593   0.754   5.398   6.155 -0.9936  0.7349 -2.2585
 4715SOL    MW418594   0.685   5.429   6.199 -0.1116  0.1414 -0.1197
 4716SOL     OW18595   5.256   0.821   4.105  0.2758 -0.1420  0.3931
 4716SOL    HW218596   5.166   0.813   4.071  0.5924 -1.7821 -0.1526
 4716SOL    HW318597   5.297   0.738   4.082  2.1194  0.8037  0.1237
 4716SOL    MW418598   5.249   0.809   4.097 -0.1777  0.2013 -0.1799
 4717SOL     OW18599   2.545   3.394   0.041  0.0407 -0.6180  0.0085
 4717SOL    HW218600   2.476   3.349   0.090 -0.9344  0.4304 -0.3442
 4717SOL    HW318601   2.547   3.482   0.078  1.9792 -0.9535  0.7588
 4717SOL    MW418602   2.536   3.400   0.052 -0.3641 -0.3683  0.6346
 4718SOL     OW18603   1.611   4.638   3.656 -0.1908  0.6463  0.4492
 4718SOL    HW218604   1.627   4.666   3.746 -0.8805 -0.8691  1.0854
 4718SOL    HW318605   1.681   4.576   3.637 -0.8145 -0.0791  0.4528
 4718SOL    MW418606   1.622   4.633   3.665  0.8220  0.2294  0.3655
 4719SOL     OW18607   3.718   1.005   3.505 -0.4463 -0.7496 -0.5187
 4719SOL    HW218608   3.782   0.973   3.442  0.0379  0.0921 -0.4715
 4719SOL    HW318609   3.749   0.972   3.589  1.1236  1.3600 -0.2115
 4719SOL    MW418610   3.730   0.996   3.508  0.1667  0.4870  0.1353
 4720SOL     OW18611   3.174   2.298   1.920  0.2082  0.0395 -0.1415
 4720SOL    HW218612   3.136   2.370   1.870  0.5317  1.2080  1.2443
 4720SOL    HW318613   3.099   2.250   1.954 -0.0713  1.1347  0.8772
 4720SOL    MW418614   3.159   2.301   1.918 -0.8957 -0.1235  0.2275
 4721SOL     OW18615   4.063   0.216   3.762 -0.0723 -0.0246 -0.3561
 4721SOL    HW218616   4.034   0.199   3.672 -0.8240  1.1039 -0.3510
 4721SOL    HW318617   3.982   0.233   3.810  0.4654  2.0508 -0.0734
 4721SOL    MW418618   4.048   0.216   3.757 -0.9705  0.1012  0.6258
 4722SOL     OW18619   5.414   2.652   1.051  0.1894  0.0697  0.1751
 4722SOL    HW218620   5.338   2.693   1.091  0.4556  1.1478 -0.3752
 4722SOL    HW318621   5.489   2.702   1.085  0.6210 -0.6262  0.2852
 4722SOL    MW418622   5.414   2.664   1.061 -0.6137  0.0459 -0.4302
 4723SOL     OW18623   4.691   2.293   6.004 -0.5830 -0.9068 -0.6518
 4723SOL    HW218624   4.673   2.325   5.916 -0.3260  0.5438 -0.2005
 4723SOL    HW318625   4.786   2.301   6.013 -0.7693  0.6305  0.3449
 4723SOL    MW418626   4.701   2.298   5.993 -0.9187 -0.2722 -0.1271
 4724SOL     OW18627   5.619   1.577   0.658 -0.3475 -0.5660  0.7517
 4724SOL    HW218628   5.553   1.640   0.630  1.1329 -0.0545 -1.9187
 4724SOL    HW318629   5.688   1.630   0.697 -0.4541 -0.8601  1.3512
 4724SOL    MW418630   5.619   1.592   0.660 -0.1000 -0.3421 -0.5160
 4725SOL     OW18631   4.140   1.519   0.677  0.3578 -0.4878  0.0615
 4725SOL    HW218632   4.160   1.521   0.771 -0.3827  1.1947  0.2219
 4725SOL    HW318633   4.225   1.506   0.634  0.7818 -0.6497  0.9322
 4725SOL    MW418634   4.154   1.517   0.684  0.1348  0.3420  0.0076
 4726SOL     OW18635   0.142   5.309   3.134  0.2601 -0.5541 -0.1538
 4726SOL    HW218636   0.071   5.338   3.191  0.5656 -0.0318 -0.0352
 4726SOL    HW318637   0.184   5.238   3.183  1.3449  0.7595  0.8865
 4726SOL    MW418638   0.138   5.303   3.148  0.4460 -0.0496 -0.4473
 4727SOL     OW18639   2.931   5.078   2.999 -0.1649  0.3895 -0.2892
 4727SOL    HW218640   2.964   5.055   3.086  1.3729 -1.7892 -1.3539
 4727SOL    HW318641   2.839   5.051   3.001 -0.0988  0.1789  0.5946
 4727SOL    MW418642   2.923   5.071   3.011 -0.2034 -0.0096  0.2778
 4728SOL     OW18643   5.246   5.394   3.326 -0.3439 -0.0548  0.1349
 4728SOL    HW218644   5.233   5.310   3.282  0.6507 -0.7998  1.1850
 4728SOL    HW318645   5.269   5.455   3.256 -0.9510 -0.6896 -0.6262
 4728SOL    MW418646   5.248   5.391   3.311  0.3124  0.7866  0.0951
 4729SOL     OW18647   0.442   2.684   1.616 -0.7113  0.5827 -0.3805
 4729SOL    HW218648   0.419   2.591   1.613  1.7525 -0.1442  1.0602
 4729SOL    HW318649   0.527   2.689   1.573 -0.0993  1.8935  0.8970
 4729SOL    MW418650   0.450   2.672   1.610  0.4713  0.2230 -0.0360
 4730SOL     OW18651   5.581   1.487   4.739  0.4345 -0.3377  0.2678
 4730SOL    HW218652   5.673   1.487   4.711 -0.0690  0.6548 -1.5671
 4730SOL    HW318653   5.564   1.397   4.765  1.3999 -1.0103 -1.3023
 4730SOL    MW418654   5.591   1.475   4.739  0.7028  0.0379 -0.0218
 4731SOL     OW18655   3.209   3.665   0.303  0.6571 -0.7938 -1.0646
 4731SOL    HW218656   3.207   3.760   0.316 -1.4001 -0.5271 -2.8562
 4731SOL    HW318657   3.212   3.629   0.391 -1.1396  0.9313 -0.2330
 4731SOL    MW418658   3.209   3.673   0.316  0.2451 -0.5021 -1.0432
 4732SOL     OW18659   4.432   2.520   5.852 -0.5796  0.1520 -0.2203
 4732SOL    HW218660   4.371   2.468   5.799 -0.5519  0.7090 -0.7989
 4732SOL    HW318661   4.416   2.610   5.826  0.0704  0.3534  0.0687
 4732SOL    MW418662   4.422   2.525   5.841 -0.5102  0.7582 -0.1302
 4733SOL     OW18663   0.451   3.021   5.054 -0.1875 -0.5095  0.0023
 4733SOL    HW218664   0.415   3.109   5.069 -0.9600 -0.9080  0.5554
 4733SOL    HW318665   0.490   2.997   5.138 -0.3120 -0.8431 -0.0328
 4733SOL    MW418666   0.451   3.030   5.067 -0.7797  0.0011 -0.1981
 4734SOL     OW18667   5.668   2.886   3.810  0.1145 -0.2252 -0.2340
 4734SOL    HW218668   5.719   2.807   3.797 -0.3527 -0.3168 -1.6658
 4734SOL    HW318669   5.577   2.856   3.812 -0.0086  0.1592  0.2570
 4734SOL    MW418670   5.662   2.872   3.808 -0.3466  0.2040  0.0506
 4735SOL     OW18671   1.804   6.034   2.699 -0.4781  0.3114 -0.3028
 4735SOL    HW218672   1.736   5.995   2.644 -0.4961  0.0964 -0.1313
 4735SOL    HW318673   1.756   6.086   2.763 -0.4892  0.0520 -0.0985
 4735SOL    MW418674   1.789   6.036   2.700  0.6515  0.3974  0.1800
 4736SOL     OW18675   1.100   6.345   0.091  0.1926  0.3741 -0.1639
 4736SOL    HW218676   1.101   6.434   0.056 -1.7660  0.3401 -0.4165
 4736SOL    HW318677   1.145   6.293   0.025 -1.8257  0.6168 -1.8014
 4736SOL    MW418678   1.106   6.350   0.078 -1.1109  0.3521 -0.1322
 4737SOL     OW18679   5.646   0.923   2.989 -0.4198 -0.0023 -0.3162
 4737SOL    HW218680   5.701   0.941   3.066  0.0863 -2.0518 -0.1486
 4737SOL    HW318681   5.650   1.004   2.938  1.3665  0.4952  0.5248
 4737SOL    MW418682   5.654   0.936   2.993  0.2963 -0.2695 -0.2925
 4738SOL     OW18683   2.163   5.364   4.570 -0.0228 -0.0179 -0.0817
 4738SOL    HW218684   2.166   5.348   4.476  0.4985  0.3136 -0.1261
 4738SOL    HW318685   2.090   5.424   4.583  0.4578  0.6337 -0.3824
 4738SOL    MW418686   2.154   5.370   4.560  0.5402  0.1949 -0.0001
 4739SOL     OW18687   4.450   4.356   2.889  0.1292 -0.0686  0.3977
 4739SOL    HW218688   4.508   4.312   2.828  0.1536 -1.1746  1.1811
 4739SOL    HW318689   4.399   4.417   2.835  1.6464  0.5624 -0.3709
 4739SOL    MW418690   4.451   4.359   2.874  0.5732  0.1853  0.3236
 4740SOL     OW18691   4.039   6.222   3.278  0.4171  0.8508 -0.2838
 4740SOL    HW218692   4.099   6.235   3.352  0.3174  1.0056 -0.2299
 4740SOL    HW318693   3.998   6.137   3.295 -0.4235  1.3887  0.4112
 4740SOL    MW418694   4.042   6.212   3.290 -0.1970  0.3738 -0.1955
 4741SOL     OW18695   6.186   3.664   1.581 -0.2615  0.9670 -0.3028
 4741SOL    HW218696   6.253   3.606   1.545  0.2315  2.0261 -1.1737
 4741SOL    HW318697   6.178   3.639   1.673 -1.0398 -1.3503 -0.9426
 4741SOL    MW418698   6.194   3.653   1.588  0.2869 -0.1196  0.4925
 4742SOL     OW18699   2.703   6.312   2.163  0.0475 -0.0433 -0.2527
 4742SOL    HW218700   2.694   6.217   2.155 -0.4694 -0.1308  1.1696
 4742SOL    HW318701   2.797   6.326   2.176  0.1123 -0.3625 -0.3677
 4742SOL    MW418702   2.714   6.301   2.163 -0.4188  0.0769 -0.0655
 4743SOL     OW18703   5.336   3.464   2.185 -0.6424  0.3144  0.0012
 4743SOL    HW218704   5.369   3.442   2.098 -0.2539  0.8873  0.0000
 4743SOL    HW318705   5.270   3.532   2.169  0.1176  1.1180  0.2299
 4743SOL    MW418706   5.331   3.470   2.172 -0.8622 -0.0974  0.6357
 4744SOL     OW18707   5.270   4.360   1.772  0.3271  0.0026  0.3232
 4744SOL    HW218708   5.176   4.379   1.767  0.5526  1.0229 -0.7292
 4744SOL    HW318709   5.283   4.289   1.709  0.2533 -0.1975  0.5316
 4744SOL    MW418710   5.259   4.353   1.763  0.1010  0.3857 -0.3612
 4745SOL     OW18711   2.149   3.728   2.415 -0.9549 -0.2849 -0.4947
 4745SOL    HW218712   2.159   3.746   2.509 -0.3512  0.4832 -0.6929
 4745SOL    HW318713   2.227   3.677   2.393 -1.2188 -0.6752 -0.5341
 4745SOL    MW418714   2.161   3.724   2.425 -0.4189  0.2019  0.1287
 4746SOL     OW18715   3.383   3.642   2.749  0.0034  0.4349 -0.0558
 4746SOL    HW218716   3.392   3.567   2.807 -0.9837  1.7434  1.9120
 4746SOL    HW318717   3.322   3.613   2.681 -2.2907  0.1116  1.9965
 4746SOL    MW418718   3.376   3.628   2.748 -0.0431 -0.1302  0.2241
 4747SOL     OW18719   3.980   1.964   4.612  0.1252  0.0079  0.4987
 4747SOL    HW218720   4.060   2.016   4.609 -0.9962  1.7764 -0.4573
 4747SOL    HW318721   3.980   1.925   4.699  2.1568 -0.3002  0.4107
 4747SOL    MW418722   3.991   1.965   4.623 -0.2354 -0.1666  0.1245
 4748SOL     OW18723   1.002   3.204   0.060 -0.0314  0.9560 -0.5103
 4748SOL    HW218724   0.968   3.143  -0.006 -1.9115  1.0319  0.3155
 4748SOL    HW318725   1.033   3.279   0.009  1.2756 -0.1784 -1.4641
 4748SOL    MW418726   1.002   3.206   0.045 -0.0599  0.3955 -0.1978
 4749SOL     OW18727   6.017   0.922   4.050  0.5029 -0.0882 -0.6935
 4749SOL    HW218728   6.098   0.935   4.100 -0.6488  0.4507  1.1693
 4749SOL    HW318729   5.972   1.006   4.056 -1.0350 -0.9184 -0.0408
 4749SOL    MW418730   6.022   0.935   4.058 -0.4931 -0.0065 -0.4917
 4750SOL     OW18731   2.723   4.133   2.658 -0.4655  0.1667  0.1356
 4750SOL    HW218732   2.664   4.208   2.658 -0.3080  0.3020  1.1755
 4750SOL    HW318733   2.693   4.079   2.731 -1.3271 -1.3932 -1.3116
 4750SOL    MW418734   2.711   4.136   2.668  0.8234  0.0717  0.1296
 4751SOL     OW18735   1.470   2.790   1.245 -0.1995 -0.5950 -0.2162
 4751SOL    HW218736   1.446   2.795   1.153 -1.3753 -0.6528  0.0734
 4751SOL    HW318737   1.439   2.872   1.283 -1.1422 -1.2377  0.4345
 4751SOL    MW418738   1.463   2.801   1.238  0.0536 -0.0656  0.3396
 4752SOL     OW18739   1.587   5.960   3.998  0.2229  0.0869 -0.3253
 4752SOL    HW218740   1.546   5.876   4.017  3.1564 -1.1972  0.8206
 4752SOL    HW318741   1.618   5.951   3.907 -0.0040  0.1662 -0.4104
 4752SOL    MW418742   1.586   5.948   3.988 -0.5197 -0.2272 -0.1167
 4753SOL     OW18743   0.945   2.504   3.946  0.0673  0.3944  0.1618
 4753SOL    HW218744   0.935   2.414   3.914  1.1949 -0.1968  1.3603
 4753SOL    HW318745   0.918   2.559   3.872  0.0790 -0.9167 -0.8587
 4753SOL    MW418746   0.940   2.499   3.932  0.2296  0.2068 -0.1286
 4754SOL     OW18747   2.971   0.890   4.384 -0.4911 -0.1839 -0.1402
 4754SOL    HW218748   2.962   0.844   4.300  0.1614 -2.1204  0.7657
 4754SOL    HW318749   2.916   0.840   4.444  0.8544 -0.2908  1.0651
 4754SOL    MW418750   2.963   0.877   4.381 -0.2046 -0.2621  0.0574
 4755SOL     OW18751   2.844   1.781   5.044 -0.5433  0.0326  0.7562
 4755SOL    HW218752   2.762   1.739   5.069 -0.5487 -0.6780 -0.3713
 4755SOL    HW318753   2.884   1.720   4.981  0.7817  0.4248  1.1803
 4755SOL    MW418754   2.839   1.767   5.039 -0.4058 -0.9584 -0.1868
 4756SOL     OW18755   3.344   1.141   6.322  0.0817  0.5851  0.5260
 4756SOL    HW218756   3.371   1.197   6.248 -1.6024 -0.0786 -0.6408
 4756SOL    HW318757   3.300   1.201   6.382 -3.2453  0.4304 -1.4971
 4756SOL    MW418758   3.342   1.157   6.320  0.2365  1.0177  0.0443
 4757SOL     OW18759   0.860   2.499   3.439 -0.2138 -0.5981  0.1491
 4757SOL    HW218760   0.800   2.425   3.444  0.4506 -1.2778 -1.4519
 4757SOL    HW318761   0.933   2.476   3.497 -0.1072 -1.1113 -0.1867
 4757SOL    MW418762   0.862   2.486   3.447  0.0429 -0.5155 -0.3038
 4758SOL     OW18763   4.339   0.088   5.422  0.4150  0.6134 -0.1189
 4758SOL    HW218764   4.378   0.148   5.485  0.7581  1.3614 -1.0269
 4758SOL    HW318765   4.410   0.067   5.361  0.7993 -2.0289  1.0659
 4758SOL    MW418766   4.353   0.093   5.422 -0.2926 -0.2801 -0.1778
 4759SOL     OW18767   3.657   2.625   4.676 -0.3675 -0.4663 -0.4406
 4759SOL    HW218768   3.608   2.655   4.600  1.3120  1.4691 -0.8374
 4759SOL    HW318769   3.747   2.652   4.659  0.3000 -1.2169  1.6150
 4759SOL    MW418770   3.662   2.633   4.664 -0.2122  0.3365 -0.0967
 4760SOL     OW18771   5.590   5.780   5.067 -0.3863 -0.1153 -0.4927
 4760SOL    HW218772   5.504   5.790   5.025 -0.5436 -1.6356 -0.5905
 4760SOL    HW318773   5.607   5.686   5.063  1.3868  0.1877 -0.6520
 4760SOL    MW418774   5.581   5.769   5.061  0.2956 -0.3356 -0.3013
 4761SOL     OW18775   3.634   0.236   2.471 -0.0716 -0.8994 -0.3745
 4761SOL    HW218776   3.670   0.204   2.554 -0.8774 -1.1619 -0.1098
 4761SOL    HW318777   3.661   0.171   2.406 -0.5420 -1.3965 -0.0805
 4761SOL    MW418778   3.642   0.224   2.474 -0.4690  0.3015 -0.2316
 4762SOL     OW18779   5.491   1.833   6.401 -0.0997  0.7209  0.0918
 4762SOL    HW218780   5.491   1.887   6.479 -0.4095  2.5740 -1.1340
 4762SOL    HW318781   5.548   1.879   6.339 -0.0340 -0.5806 -0.8667
 4762SOL    MW418782   5.499   1.846   6.403  0.5428 -0.2784 -0.3810
 4763SOL     OW18783   1.850   5.343   4.825  0.5091  0.3862 -0.6324
 4763SOL    HW218784   1.934   5.308   4.853  0.5918  1.6520  0.8477
 4763SOL    HW318785   1.786   5.277   4.851  0.9667 -0.2675 -1.1401
 4763SOL    MW418786   1.852   5.330   4.832 -0.0793  0.4398 -0.1584
 4764SOL     OW18787   5.374   1.778   2.458  0.5399 -0.0675  0.0728
 4764SOL    HW218788   5.434   1.833   2.509 -0.9884  1.1195  0.6723
 4764SOL    HW318789   5.366   1.825   2.374 -0.8988  0.7735  0.6467
 4764SOL    MW418790   5.381   1.792   2.454  0.5217  0.3504  0.2597
 4765SOL     OW18791   6.144   5.397   5.850  0.8484  1.0033 -0.3991
 4765SOL    HW218792   6.224   5.449   5.853  0.5030  1.5227 -0.0688
 4765SOL    HW318793   6.080   5.453   5.806  0.5104  0.8141 -0.1549
 4765SOL    MW418794   6.146   5.411   5.845 -0.1295  0.4140  0.0289
 4766SOL     OW18795   5.247   3.671   5.458 -0.1007 -0.6793  0.3777
 4766SOL    HW218796   5.216   3.593   5.413 -1.7113 -0.9189  1.7935
 4766SOL    HW318797   5.218   3.744   5.404  0.2966 -1.0220 -0.3035
 4766SOL    MW418798   5.239   3.670   5.445  0.1571 -0.1602 -0.0681
 4767SOL     OW18799   0.971   5.173   2.064 -0.5031  0.3177 -0.0527
 4767SOL    HW218800   0.890   5.223   2.052 -0.6226  0.0235 -0.4772
 4767SOL    HW318801   0.970   5.147   2.156  0.2318  2.2669  0.5813
 4767SOL    MW418802   0.960   5.176   2.075 -0.0989  0.4574  0.1764
 4768SOL     OW18803   2.187   6.054   4.062 -0.2796  0.0350  0.3231
 4768SOL    HW218804   2.253   6.007   4.011 -0.1703 -0.3847  0.8509
 4768SOL    HW318805   2.228   6.137   4.084  0.8914 -1.0470  2.4561
 4768SOL    MW418806   2.201   6.058   4.058 -0.0081  0.0841 -0.0824
 4769SOL     OW18807   3.487   3.910   2.576  0.2952 -0.0705  0.9991
 4769SOL    HW218808   3.503   3.875   2.488 -3.2898  0.7615 -0.1488
 4769SOL    HW318809   3.435   3.842   2.619 -3.9996  2.0664 -0.1631
 4769SOL    MW418810   3.482   3.896   2.570 -0.2131 -0.4115  0.5800
 4770SOL     OW18811   2.379   4.852   5.519 -0.7078 -0.0951 -0.1456
 4770SOL    HW218812   2.292   4.813   5.510 -1.3403  1.0875  0.6201
 4770SOL    HW318813   2.421   4.837   5.434 -1.1787 -1.7917 -0.1008
 4770SOL    MW418814   2.373   4.845   5.506 -0.0805 -0.6206 -0.0450
 4771SOL     OW18815   3.217   2.258   2.605  0.0823  0.1352 -0.3336
 4771SOL    HW218816   3.169   2.317   2.662  0.8791 -0.2330  0.7487
 4771SOL    HW318817   3.179   2.172   2.622  0.4004  0.0057 -0.2738
 4771SOL    MW418818   3.206   2.254   2.614  0.3938  0.1196  0.2513
 4772SOL     OW18819   1.380   3.052   1.294  0.5754 -0.4945 -0.1541
 4772SOL    HW218820   1.389   3.101   1.212  0.6254 -0.9896 -0.4469
 4772SOL    HW318821   1.286   3.040   1.304  0.3830  1.6264  1.0969
 4772SOL    MW418822   1.369   3.057   1.285  0.6297 -0.1917 -0.3580
 4773SOL     OW18823   2.922   3.248   1.939  0.8225  0.0972  0.1903
 4773SOL    HW218824   2.887   3.171   1.894  1.2095 -0.1327  0.2804
 4773SOL    HW318825   2.982   3.288   1.876  1.2171 -0.1167  0.4257
 4773SOL    MW418826   2.925   3.243   1.925 -0.5926  0.1307 -0.1358
 4774SOL     OW18827   5.869   5.836   0.185  0.5617 -0.2006 -0.2737
 4774SOL    HW218828   5.883   5.863   0.276 -0.1738  0.3698 -0.3164
 4774SOL    HW318829   5.779   5.862   0.166 -0.1774 -2.5937 -0.3608
 4774SOL    MW418830   5.859   5.843   0.194  0.5319  0.1149 -0.0099
 4775SOL     OW18831   1.173   1.959   4.404  0.0628 -0.1211 -0.2605
 4775SOL    HW218832   1.111   2.024   4.371 -0.7113  0.5036  2.1537
 4775SOL    HW318833   1.132   1.875   4.384  0.9727  0.0325 -3.2240
 4775SOL    MW418834   1.159   1.956   4.397 -0.3412  0.0530  0.0470
 4776SOL     OW18835   2.585   0.854   3.451  0.1341  0.3208 -0.4812
 4776SOL    HW218836   2.594   0.846   3.546  1.6473  0.0672 -0.6082
 4776SOL    HW318837   2.661   0.906   3.424  0.8480 -1.2462 -1.7271
 4776SOL    MW418838   2.596   0.860   3.460 -0.0886 -0.2886  0.5068
 4777SOL     OW18839   5.085   6.381   0.011 -0.8013  0.3896  0.1344
 4777SOL    HW218840   5.109   6.295   0.046 -2.3496 -0.2772 -0.3466
 4777SOL    HW318841   5.072   6.436   0.088 -0.4578  0.0017  0.4707
 4777SOL    MW418842   5.086   6.377   0.026  0.5968  0.4245  0.0850
 4778SOL     OW18843   6.408   0.285   4.232 -0.1875 -0.2661 -0.2327
 4778SOL    HW218844   6.445   0.256   4.148 -0.1953  0.3512 -0.4551
 4778SOL    HW318845   6.345   0.353   4.208  0.3080  0.4008  0.3188
 4778SOL    MW418846   6.405   0.290   4.218  0.2138 -0.7554  0.1100
 4779SOL     OW18847   2.562   5.703   2.203  0.1638  0.1505 -0.0970
 4779SOL    HW218848   2.536   5.709   2.111 -0.0446 -0.0286 -0.0500
 4779SOL    HW318849   2.508   5.769   2.248  0.2424  0.2154 -0.0979
 4779SOL    MW418850   2.551   5.713   2.197 -0.0583 -0.0432 -0.7909
 4780SOL     OW18851   5.740   5.840   0.859  0.1524 -0.4089  0.3337
 4780SOL    HW218852   5.742   5.865   0.951  2.3272  0.0260  0.2238
 4780SOL    HW318853   5.693   5.911   0.815  2.7171  1.5968  0.5906
 4780SOL    MW418854   5.734   5.853   0.865 -0.1170 -0.5073 -0.5597
 4781SOL     OW18855   0.236   6.068   3.905  0.0002  0.5022  0.0173
 4781SOL    HW218856   0.246   6.161   3.928  0.9444  0.2648  0.6493
 4781SOL    HW318857   0.322   6.043   3.872 -0.7329  0.2766 -1.8420
 4781SOL    MW418858   0.249   6.077   3.904 -0.1048  0.1245 -0.3195
 4782SOL     OW18859   2.463   5.099   0.645 -0.9716 -0.1450  0.5493
 4782SOL    HW218860   2.478   5.017   0.599  1.5280 -0.4766  1.8048
 4782SOL    HW318861   2.411   5.075   0.722 -2.9405  0.0261 -0.6359
 4782SOL    MW418862   2.458   5.085   0.649 -0.6500  0.2285 -0.4065
 4783SOL     OW18863   5.035   4.997   6.157 -0.0690 -0.8530  0.1784
 4783SOL    HW218864   5.014   4.904   6.168 -2.1653 -0.4852 -0.1558
 4783SOL    HW318865   5.032   5.011   6.062 -0.3659 -0.3272  0.2606
 4783SOL    MW418866   5.032   4.987   6.146  0.5607  0.9477 -0.2577
 4784SOL     OW18867   2.858   3.032   1.412  0.5785 -0.2788 -0.0111
 4784SOL    HW218868   2.952   3.049   1.405  0.6798 -0.8397 -0.0547
 4784SOL    HW318869   2.844   2.952   1.362  0.3735 -1.1430  1.3768
 4784SOL    MW418870   2.868   3.024   1.405 -0.1969 -0.4867  0.6332
 4785SOL     OW18871   2.609   4.301   5.195  0.0706 -0.3180 -0.6245
 4785SOL    HW218872   2.605   4.316   5.101 -0.3751  0.5717 -0.4711
 4785SOL    HW318873   2.699   4.272   5.211  0.2649 -0.0828 -1.2666
 4785SOL    MW418874   2.621   4.299   5.185 -0.2477  0.2920 -0.3955
 4786SOL     OW18875   5.575   5.681   1.441  0.4808 -0.9390 -0.1857
 4786SOL    HW218876   5.512   5.742   1.480  0.9006  0.6675 -1.9017
 4786SOL    HW318877   5.550   5.595   1.477 -2.9571 -0.4562 -1.0613
 4786SOL    MW418878   5.563   5.677   1.451 -0.2957 -0.4646  0.0015
 4787SOL     OW18879   4.969   0.740   4.032  0.1048  0.1681  0.0675
 4787SOL    HW218880   4.944   0.832   4.044  2.4686  1.2163 -1.9600
 4787SOL    HW318881   5.026   0.741   3.955  0.5434 -2.9739  0.2206
 4787SOL    MW418882   4.973   0.753   4.024  0.4365 -0.9965 -0.4143
 4788SOL     OW18883   0.122   2.145   3.634 -0.5997  1.0801 -0.1224
 4788SOL    HW218884   0.181   2.201   3.583 -0.4545 -1.0426 -2.5555
 4788SOL    HW318885   0.080   2.203   3.697  1.6581  3.2875 -0.5117
 4788SOL    MW418886   0.125   2.160   3.635  0.1431  0.1325 -0.3626
 4789SOL     OW18887   1.746   2.228   3.991 -0.2942  0.1436  0.6405
 4789SOL    HW218888   1.662   2.272   3.980 -0.0172  0.8983  1.3802
 4789SOL    HW318889   1.739   2.181   4.074 -0.9335 -2.0987 -0.6026
 4789SOL    MW418890   1.734   2.228   4.000 -0.1956 -0.6467  0.4660
 4790SOL     OW18891   0.884   0.580   2.280  0.4723  1.1294 -0.1284
 4790SOL    HW218892   0.885   0.489   2.251 -1.9822  1.1410 -0.4097
 4790SOL    HW318893   0.977   0.602   2.293  1.0685 -1.8248  1.3615
 4790SOL    MW418894   0.897   0.571   2.278 -0.5358  0.0968  0.5276
 4791SOL     OW18895   5.238   0.451   3.206  0.1734 -0.2678 -0.2225
 4791SOL    HW218896   5.198   0.415   3.128  0.5253  1.6408 -1.3514
 4791SOL    HW318897   5.329   0.467   3.182  0.3176  0.2532  0.6052
 4791SOL    MW418898   5.244   0.449   3.193 -0.3614 -0.6682 -0.2225
 4792SOL     OW18899   5.387   2.064   3.585 -0.1018  0.5959  0.4344
 4792SOL    HW218900   5.463   2.060   3.527  1.6991  1.4964  2.5761
 4792SOL    HW318901   5.355   2.154   3.577  1.4256  1.3629  2.2431
 4792SOL    MW418902   5.393   2.076   3.576  0.1087  0.0089 -0.2648
 4793SOL     OW18903   4.829   6.311   6.375  0.0606  0.6130 -0.0427
 4793SOL    HW218904   4.920   6.329   6.401 -0.2376  0.9590  0.7731
 4793SOL    HW318905   4.784   6.394   6.388 -0.0624  0.8794 -1.9110
 4793SOL    MW418906   4.835   6.325   6.380  0.1542 -0.1022 -0.1876
 4794SOL     OW18907   1.275   0.040   2.241  0.5190  0.3294 -0.3736
 4794SOL    HW218908   1.244   0.076   2.324  0.1543 -2.5793  0.8847
 4794SOL    HW318909   1.196   0.028   2.188 -0.1530 -2.8843  1.0992
 4794SOL    MW418910   1.260   0.043   2.245 -1.0432 -0.0747 -0.1729
 4795SOL     OW18911   2.190   0.744   4.895  0.3930  0.1112 -0.1579
 4795SOL    HW218912   2.196   0.840   4.890  0.6056  0.0705 -0.7965
 4795SOL    HW318913   2.140   0.719   4.818  0.6165 -0.3181 -0.1682
 4795SOL    MW418914   2.184   0.754   4.884  0.0365  0.0424 -0.5232
 4796SOL     OW18915   6.159   3.996   1.340  0.1077 -0.1227  0.3899
 4796SOL    HW218916   6.150   3.934   1.268 -2.1648 -0.0231  0.5209
 4796SOL    HW318917   6.090   4.060   1.325  1.0578  1.1871  1.4314
 4796SOL    MW418918   6.149   3.996   1.329  0.4210 -0.5369 -0.1051
 4797SOL     OW18919   4.912   2.314   0.973  0.7145 -0.3308 -0.0940
 4797SOL    HW218920   4.882   2.365   1.048  2.0601 -0.6129  0.6553
 4797SOL    HW318921   4.945   2.233   1.011  1.4893 -0.4444 -0.9776
 4797SOL    MW418922   4.912   2.310   0.988  0.1555  0.0530 -0.4573
 4798SOL     OW18923   6.013   5.813   0.762 -0.2714 -0.1558 -0.4485
 4798SOL    HW218924   6.015   5.719   0.782 -1.4321 -0.6191 -2.2224
 4798SOL    HW318925   5.926   5.841   0.790  0.3619  0.6084  0.8264
 4798SOL    MW418926   6.002   5.804   0.768 -0.1640  0.3439 -0.1073
 4799SOL     OW18927   3.985   3.927   4.609 -0.5669  0.0260 -0.3861
 4799SOL    HW218928   3.980   3.990   4.537 -1.1444  1.6568  0.9994
 4799SOL    HW318929   3.947   3.974   4.684 -0.1400 -1.6592  0.9438
 4799SOL    MW418930   3.979   3.942   4.609  0.0341  0.1828  0.2158
 4800SOL     OW18931   3.739   6.246   4.988  0.1031  0.1751  0.8182
 4800SOL    HW218932   3.761   6.160   5.024  0.2343 -0.6771 -1.1729
 4800SOL    HW318933   3.667   6.229   4.928  0.8624  1.2537 -0.4507
 4800SOL    MW418934   3.733   6.233   4.985  0.0701  0.5597  0.1876
 4801SOL     OW18935   0.743   2.909   2.365 -0.4562  0.2171  0.0951
 4801SOL    HW218936   0.687   2.903   2.443 -0.2163  1.5171  0.3930
 4801SOL    HW318937   0.817   2.852   2.385 -0.2020  0.8437  1.0058
 4801SOL    MW418938   0.745   2.900   2.378  0.1029 -0.4143 -0.0322
 4802SOL     OW18939   5.141   2.487   3.682 -0.0218  0.5867 -0.0089
 4802SOL    HW218940   5.081   2.561   3.670  1.0074  1.5720  0.7192
 4802SOL    HW318941   5.189   2.507   3.762  0.7119 -0.5839 -0.1242
 4802SOL    MW418942   5.140   2.499   3.691  0.4595  0.0430  0.0386
 4803SOL     OW18943   3.641   3.481   5.760 -0.5008  0.7096 -0.1694
 4803SOL    HW218944   3.731   3.459   5.781 -1.1984 -0.8246  1.4522
 4803SOL    HW318945   3.643   3.575   5.742  1.5105  0.5725 -0.8727
 4803SOL    MW418946   3.653   3.491   5.761 -0.3042 -0.3400  0.1326
 4804SOL     OW18947   4.827   5.462   5.464  0.3175 -0.1233  0.5771
 4804SOL    HW218948   4.769   5.508   5.524  0.6323  3.5416 -1.6035
 4804SOL    HW318949   4.775   5.389   5.432 -2.4233  1.7890  0.3086
 4804SOL    MW418950   4.813   5.459   5.467 -0.0074 -0.0911 -0.4288
 4805SOL     OW18951   5.962   4.334   2.307  0.3668 -0.0317 -0.4185
 4805SOL    HW218952   5.867   4.327   2.306  0.2771  0.7118  0.9148
 4805SOL    HW318953   5.986   4.333   2.400  1.6585 -0.0980 -0.7237
 4805SOL    MW418954   5.953   4.333   2.319 -0.2399 -0.7617  0.0512
 4806SOL     OW18955   2.412   4.854   2.594  0.7413  0.0160 -0.1117
 4806SOL    HW218956   2.351   4.920   2.627  3.2780  1.8847  1.2456
 4806SOL    HW318957   2.406   4.861   2.499 -0.8510  0.3875 -0.0122
 4806SOL    MW418958   2.404   4.863   2.586  0.1284  0.0665  0.1628
 4807SOL     OW18959   2.170   4.606   3.692  0.0460 -0.2983  0.0042
 4807SOL    HW218960   2.196   4.517   3.666  2.4675  0.4021 -0.1360
 4807SOL    HW318961   2.244   4.640   3.742 -0.7586  1.7186 -0.0805
 4807SOL    MW418962   2.183   4.598   3.695 -0.1581  0.2609  0.1919
 4808SOL     OW18963   1.096   2.928   5.759  0.2143  0.1225  0.3570
 4808SOL    HW218964   1.049   2.924   5.676  0.7954  2.0810 -0.1207
 4808SOL    HW318965   1.157   3.002   5.749  0.0610  0.6505  2.6334
 4808SOL    MW418966   1.098   2.938   5.747  0.3253 -0.1105 -0.6106
 4809SOL     OW18967   5.375   1.685   3.163  0.6965  0.6791 -0.3384
 4809SOL    HW218968   5.368   1.649   3.075 -1.1128 -2.6255  0.9970
 4809SOL    HW318969   5.291   1.729   3.177  1.3887  2.1193 -0.5756
 4809SOL    MW418970   5.363   1.686   3.153 -0.2582  0.6861  0.0862
 4810SOL     OW18971   5.131   2.669   0.419  0.1392  0.3982  0.5634
 4810SOL    HW218972   5.123   2.587   0.371  0.2805 -1.1048  2.9769
 4810SOL    HW318973   5.042   2.692   0.443  0.3454 -1.4549  3.5700
 4810SOL    MW418974   5.118   2.661   0.416 -0.2983 -0.1868 -0.4458
 4811SOL     OW18975   3.842   2.242   5.186  0.6914  0.6105  0.1709
 4811SOL    HW218976   3.863   2.214   5.097  0.3094 -1.9470  0.7976
 4811SOL    HW318977   3.909   2.199   5.240  0.4583  1.4989  1.1997
 4811SOL    MW418978   3.854   2.233   5.181 -0.3909 -0.3900  0.1064
 4812SOL     OW18979   4.898   3.489   5.655 -0.3028  0.0933  0.2750
 4812SOL    HW218980   4.898   3.434   5.577 -0.0850 -0.0753  0.3928
 4812SOL    HW318981   4.810   3.528   5.657 -0.1272  0.5206 -0.3478
 4812SOL    MW418982   4.886   3.487   5.645 -0.3126 -0.4673  0.2828
 4813SOL     OW18983   4.799   1.252   4.214  0.2853  0.0368 -0.0946
 4813SOL    HW218984   4.845   1.321   4.165  0.0090 -0.2092 -0.7141
 4813SOL    HW318985   4.863   1.181   4.221  1.8977  1.5777  3.6423
 4813SOL    MW418986   4.814   1.252   4.208 -0.5597 -0.2170 -0.3686
 4814SOL     OW18987   6.140   5.035   2.726  0.6067 -0.3333  0.4199
 4814SOL    HW218988   6.218   5.065   2.774  0.9687 -0.9154  0.2018
 4814SOL    HW318989   6.134   5.095   2.651 -0.6188  1.3123  1.7570
 4814SOL    MW418990   6.149   5.047   2.723 -0.1784  0.5373 -0.5829
 4815SOL     OW18991   5.802   3.108   0.326 -0.7018  0.4317  0.6453
 4815SOL    HW218992   5.860   3.163   0.379 -0.3234  0.2076  0.4692
 4815SOL    HW318993   5.728   3.089   0.383 -0.8599  1.1692  0.6889
 4815SOL    MW418994   5.800   3.113   0.341  0.3636 -0.1977  0.6588
 4816SOL     OW18995   2.585   5.010   1.272 -0.1139  0.2330 -0.0956
 4816SOL    HW218996   2.610   4.963   1.352 -0.4510  2.2470  1.2790
 4816SOL    HW318997   2.489   5.015   1.277 -0.2910 -1.0434 -1.5204
 4816SOL    MW418998   2.575   5.005   1.284  0.0359 -0.1472 -0.1107
 4817SOL     OW18999   6.343   5.491   3.749 -0.8004 -0.2918 -0.7236
 4817SOL    HW219000   6.253   5.469   3.772 -1.0947 -1.0703 -2.4374
 4817SOL    HW319001   6.394   5.413   3.772 -0.4178  0.3979  0.8773
 4817SOL    MW419002   6.338   5.478   3.755  0.2573  0.2190  0.1552
 4818SOL     OW19003   5.888   0.926   2.370 -0.2164  0.3305  0.0313
 4818SOL    HW219004   5.871   0.887   2.284  0.6662 -0.4629  0.1917
 4818SOL    HW319005   5.983   0.937   2.372 -0.1304 -0.4441  1.2149
 4818SOL    MW419006   5.898   0.922   2.359 -0.4952 -0.3718  0.1499
 4819SOL     OW19007   4.506   5.419   1.801 -0.1772 -0.2265  0.5725
 4819SOL    HW219008   4.582   5.397   1.747 -0.3588  3.3666 -1.4320
 4819SOL    HW319009   4.543   5.460   1.879 -0.0397 -2.8265  2.0086
 4819SOL    MW419010   4.521   5.421   1.804 -0.5007  0.2592 -0.2177
 4820SOL     OW19011   3.661   2.103   3.627  0.4213 -0.1940  0.4292
 4820SOL    HW219012   3.723   2.120   3.698  2.1364 -3.2591 -0.1368
 4820SOL    HW319013   3.608   2.030   3.659 -1.5339  0.9798  0.0381
 4820SOL    MW419014   3.662   2.095   3.641  0.0998 -0.4077 -1.4007
 4821SOL     OW19015   5.832   6.168   1.038  0.4905  0.2936  0.3081
 4821SOL    HW219016   5.846   6.178   0.944 -0.3906  0.5608  0.1888
 4821SOL    HW319017   5.865   6.250   1.076  1.5969 -0.1476  0.3351
 4821SOL    MW419018   5.838   6.180   1.031 -0.1036 -0.1943 -0.3155
 4822SOL     OW19019   0.509   1.098   3.088  0.7256  0.7137  0.3201
 4822SOL    HW219020   0.581   1.055   3.041  0.3915  0.5039 -0.0048
 4822SOL    HW319021   0.450   1.026   3.112 -0.0757  1.0295 -0.6407
 4822SOL    MW419022   0.511   1.083   3.085  0.7663 -0.0150 -0.0328
 4823SOL     OW19023   0.270   0.994   0.143  0.2077 -0.1903  0.1473
 4823SOL    HW219024   0.213   1.065   0.172  1.3383  1.0551 -0.5657
 4823SOL    HW319025   0.212   0.935   0.095 -0.8736 -0.0831  1.2677
 4823SOL    MW419026   0.255   0.996   0.141  0.2598  0.4370 -0.0716
 4824SOL     OW19027   0.290   5.384   1.980  0.9391  0.1863 -0.1279
 4824SOL    HW219028   0.353   5.342   1.922 -0.1811 -0.5257 -0.8636
 4824SOL    HW319029   0.236   5.312   2.013 -0.8125  0.9757 -1.1466
 4824SOL    MW419030   0.291   5.369   1.977 -0.7046 -0.1158  0.0491
 4825SOL     OW19031   1.038   1.524   1.753  0.5122  0.2668  0.3122
 4825SOL    HW219032   1.075   1.540   1.840  0.0509  1.9298  0.2280
 4825SOL    HW319033   1.113   1.510   1.696  0.8873  0.7341  0.6901
 4825SOL    MW419034   1.053   1.524   1.757 -0.0051  0.1738 -0.2161
 4826SOL     OW19035   0.004   4.000   1.993 -0.4938  0.2832 -0.1206
 4826SOL    HW219036  -0.054   4.020   1.920  0.9941  0.8788 -1.1952
 4826SOL    HW319037   0.008   4.080   2.044 -2.5837 -0.5306  1.4390
 4826SOL    MW419038  -0.003   4.013   1.990  0.6034  0.0623 -0.0184
 4827SOL     OW19039   4.366   2.024   4.198 -0.6116  0.0427 -0.0220
 4827SOL    HW219040   4.322   2.106   4.219 -0.4629 -0.1454  1.0355
 4827SOL    HW319041   4.339   1.963   4.267 -1.6399 -1.1575 -1.3873
 4827SOL    MW419042   4.356   2.027   4.210 -0.6468  0.5788  0.1983
 4828SOL     OW19043   3.734   3.534   3.369 -0.4166 -0.0899 -0.0541
 4828SOL    HW219044   3.709   3.447   3.339 -0.3863 -0.3191  0.5600
 4828SOL    HW319045   3.704   3.593   3.300  0.1819 -0.6415 -0.8049
 4828SOL    MW419046   3.727   3.530   3.356  0.0289 -0.4750 -0.7476
 4829SOL     OW19047   2.905   3.173   2.808 -0.3400 -0.4007  0.2242
 4829SOL    HW219048   2.884   3.096   2.754 -0.1506 -1.0590  1.0590
 4829SOL    HW319049   2.905   3.139   2.898 -6.3997  1.6260  1.5056
 4829SOL    MW419050   2.902   3.158   2.813 -0.4752  0.0316  0.4924
 4830SOL     OW19051   5.755   6.262   4.244  0.3574 -0.3450 -0.0874
 4830SOL    HW219052   5.736   6.181   4.291  0.3868 -0.7020 -0.6816
 4830SOL    HW319053   5.689   6.324   4.274 -1.7695 -1.5200 -2.0529
 4830SOL    MW419054   5.744   6.260   4.255 -0.2018 -0.2268 -0.6416
 4831SOL     OW19055   4.062   3.881   3.388  0.6140  0.0267 -0.2340
 4831SOL    HW219056   4.085   3.932   3.310 -0.9256 -2.6247 -2.6760
 4831SOL    HW319057   4.144   3.842   3.416  0.9793 -0.3752 -1.7360
 4831SOL    MW419058   4.075   3.882   3.381 -0.6864 -0.3102  0.2318
 4832SOL     OW19059   2.301   3.853   5.083  0.1286  0.7269  0.3670
 4832SOL    HW219060   2.282   3.859   4.989 -2.4235  1.8055  0.8694
 4832SOL    HW319061   2.349   3.934   5.103 -0.5296  1.1571  0.2248
 4832SOL    MW419062   2.305   3.864   5.073 -0.0892 -0.0527 -0.6039
 4833SOL     OW19063   5.175   5.203   3.748  0.2009  0.2266 -0.4404
 4833SOL    HW219064   5.168   5.122   3.697 -0.9770 -0.6867  1.0785
 4833SOL    HW319065   5.124   5.267   3.697 -1.6144 -0.8617 -0.0953
 4833SOL    MW419066   5.167   5.201   3.734  0.1061  0.0857  0.0054
 4834SOL     OW19067   3.690   0.395   4.637 -0.0472 -0.1901 -0.2144
 4834SOL    HW219068   3.677   0.319   4.694  1.8401 -1.2900 -1.1707
 4834SOL    HW319069   3.749   0.364   4.568  0.2105  1.9594 -1.0388
 4834SOL    MW419070   3.696   0.381   4.635  0.2336  0.2289 -0.3347
 4835SOL     OW19071   4.833   0.762   3.740  0.0178 -0.2306 -0.2346
 4835SOL    HW219072   4.916   0.797   3.774 -0.2067  0.6268 -0.5363
 4835SOL    HW319073   4.772   0.835   3.746 -1.2134 -1.3218  1.5788
 4835SOL    MW419074   4.836   0.776   3.745  0.1717 -0.2660 -0.1803
 4836SOL     OW19075   3.669   2.917   2.018  0.0279  0.5472  0.4158
 4836SOL    HW219076   3.738   2.930   1.953  0.4202  0.6378  0.8372
 4836SOL    HW319077   3.606   2.986   2.000  0.3821  0.8828  0.4431
 4836SOL    MW419078   3.670   2.928   2.007 -0.3283  0.4321 -0.2054
 4837SOL     OW19079   3.702   1.409   2.477  0.2597  0.1029 -0.5111
 4837SOL    HW219080   3.670   1.343   2.416  0.7144 -0.6328  0.0384
 4837SOL    HW319081   3.634   1.477   2.476  0.4856  0.3353 -2.1900
 4837SOL    MW419082   3.689   1.409   2.469 -0.2399 -0.1286 -0.4488
 4838SOL     OW19083   1.203   3.427   5.580 -0.0866 -0.2644  0.4803
 4838SOL    HW219084   1.115   3.430   5.543 -0.3709  0.6259  1.1980
 4838SOL    HW319085   1.243   3.510   5.556  0.2509 -0.2978  0.9043
 4838SOL    MW419086   1.197   3.438   5.572  0.1087 -0.0441  0.4924
 4839SOL     OW19087   2.023   2.642   0.118  0.2252  0.2617 -0.1722
 4839SOL    HW219088   2.002   2.699   0.044 -0.0693  0.5360  0.1195
 4839SOL    HW319089   2.042   2.557   0.078  0.4441  0.5044 -0.5912
 4839SOL    MW419090   2.022   2.638   0.103 -0.2082 -0.5724  0.1039
 4840SOL     OW19091   3.771   0.511   3.432 -0.3105  0.0234  0.1640
 4840SOL    HW219092   3.839   0.531   3.495 -0.2002  1.2229 -0.3002
 4840SOL    HW319093   3.723   0.594   3.421 -1.5415 -0.6609  0.1238
 4840SOL    MW419094   3.773   0.525   3.439  0.6092  0.2197 -0.6942
 4841SOL     OW19095   4.731   0.926   1.163 -0.5381 -0.0243  0.0740
 4841SOL    HW219096   4.813   0.968   1.136 -0.0940 -1.0066 -0.1669
 4841SOL    HW319097   4.758   0.838   1.189 -1.3731 -0.0046  1.0429
 4841SOL    MW419098   4.746   0.920   1.163  0.5761  0.1097  0.2309
 4842SOL     OW19099   4.207   0.160   0.829 -0.3665  0.3721  0.5476
 4842SOL    HW219100   4.147   0.225   0.864  1.2519  1.2670  1.8222
 4842SOL    HW319101   4.228   0.104   0.905 -0.5314 -0.6842 -0.1633
 4842SOL    MW419102   4.202   0.161   0.844 -0.3950 -0.0824 -0.1178
 4843SOL     OW19103   2.400   2.880   3.371  0.0126 -0.2373 -0.2656
 4843SOL    HW219104   2.391   2.822   3.446 -1.6180  0.0843 -0.1593
 4843SOL    HW319105   2.417   2.822   3.297 -0.5011 -0.7573  0.0159
 4843SOL    MW419106   2.401   2.865   3.371 -0.2324 -0.3657 -0.3196
 4844SOL     OW19107   2.250   4.411   3.306 -0.4021 -0.0852 -0.0686
 4844SOL    HW219108   2.288   4.347   3.246 -0.4370 -1.7976  1.6585
 4844SOL    HW319109   2.326   4.458   3.342  0.0109 -1.9661  1.6811
 4844SOL    MW419110   2.265   4.409   3.302  0.5260  0.2761  0.3376
 4845SOL     OW19111   3.219   5.421   5.272 -0.0277  0.5303  0.2761
 4845SOL    HW219112   3.145   5.432   5.212  0.4015  0.7633 -0.2307
 4845SOL    HW319113   3.282   5.488   5.243  0.4708  0.1813  0.5460
 4845SOL    MW419114   3.218   5.431   5.260  0.0745 -0.4272  0.1341
 4846SOL     OW19115   5.216   5.358   4.629 -0.2185 -0.3093 -0.5619
 4846SOL    HW219116   5.247   5.433   4.578  0.9052 -0.9821 -0.8955
 4846SOL    HW319117   5.251   5.282   4.583 -0.5506 -1.0012  0.3170
 4846SOL    MW419118   5.224   5.358   4.616  0.5632  0.3533 -0.0055
 4847SOL     OW19119   4.509   0.701   6.041  0.0515  0.0662 -0.2139
 4847SOL    HW219120   4.589   0.742   6.072  1.0007 -2.6014  1.1675
 4847SOL    HW319121   4.531   0.668   5.954  0.8494 -1.5183  0.5495
 4847SOL    MW419122   4.522   0.702   6.034 -0.2833  0.2329 -0.1714
 4848SOL     OW19123   6.240   3.099   5.176 -0.0692 -0.2515  0.0529
 4848SOL    HW219124   6.270   3.035   5.112 -0.3402  0.2442 -0.5891
 4848SOL    HW319125   6.230   3.180   5.126  1.9017  0.7564  1.1624
 4848SOL    MW419126   6.243   3.101   5.161 -0.0524  0.8796 -0.0566
 4849SOL     OW19127   4.906   4.952   3.973  0.1958  0.6120 -0.0612
 4849SOL    HW219128   4.996   4.959   3.941  0.7482 -1.8841  0.7546
 4849SOL    HW319129   4.915   4.925   4.064 -1.2730 -2.9270 -0.8115
 4849SOL    MW419130   4.919   4.950   3.980 -0.0604 -0.2007 -0.6350
 4850SOL     OW19131   6.163   4.127   4.244 -0.7422 -0.0362 -0.0388
 4850SOL    HW219132   6.202   4.202   4.289 -0.6348  0.4517 -0.9090
 4850SOL    HW319133   6.228   4.103   4.177 -0.4212 -1.4170  0.7181
 4850SOL    MW419134   6.177   4.134   4.241  0.3135 -0.3839 -0.0181
 4851SOL     OW19135   3.710   3.324   1.394  0.1621  0.7201 -0.0424
 4851SOL    HW219136   3.768   3.397   1.371 -0.3203  0.5816 -1.8628
 4851SOL    HW319137   3.720   3.262   1.322  2.3030 -2.1891  2.4647
 4851SOL    MW419138   3.719   3.325   1.381  0.7453 -0.2185  0.0547
 4852SOL     OW19139   1.205   2.844   6.034  0.5446  0.1925 -0.0880
 4852SOL    HW219140   1.195   2.917   5.973 -1.4062  0.3156  0.3057
 4852SOL    HW319141   1.227   2.886   6.117 -2.0042  0.5541  0.4934
 4852SOL    MW419142   1.206   2.859   6.037 -0.4348 -0.3895 -0.3505
 4853SOL     OW19143   0.837   5.727   2.211  0.4300  0.2052  0.1452
 4853SOL    HW219144   0.866   5.749   2.123  0.5882 -0.6418 -0.0235
 4853SOL    HW319145   0.754   5.682   2.198  0.0643  0.7593  0.4901
 4853SOL    MW419146   0.830   5.724   2.198  0.1755 -0.2612  0.5502
 4854SOL     OW19147   1.793   3.815   3.306 -0.4489 -0.1910  0.1583
 4854SOL    HW219148   1.707   3.856   3.299 -0.3021 -0.0866 -1.1834
 4854SOL    HW319149   1.794   3.749   3.236  1.3472  1.2741 -1.2913
 4854SOL    MW419150   1.782   3.812   3.296  0.2721  0.0787  0.2776
 4855SOL     OW19151   0.122   3.232   1.407  0.2992 -0.2496  0.1575
 4855SOL    HW219152   0.107   3.269   1.494 -0.0877 -0.9737  0.4100
 4855SOL    HW319153   0.051   3.268   1.353  1.1287  1.0050 -0.1237
 4855SOL    MW419154   0.110   3.241   1.411  0.0509 -0.1515 -0.2393
 4856SOL     OW19155   3.515   3.711   1.614  0.0178  0.0355 -0.1314
 4856SOL    HW219156   3.478   3.717   1.701 -1.8289 -1.3478 -0.7463
 4856SOL    HW319157   3.610   3.706   1.628  0.0340  3.1721  1.5396
 4856SOL    MW419158   3.523   3.711   1.627  0.3707 -0.7448 -0.2865
 4857SOL     OW19159   3.806   3.915   3.465 -0.3996  0.1418 -0.3644
 4857SOL    HW219160   3.812   3.951   3.554 -0.0760 -0.4797 -0.1343
 4857SOL    HW319161   3.897   3.913   3.434 -0.4717 -0.0002 -0.5673
 4857SOL    MW419162   3.819   3.920   3.472 -0.8687 -0.1213  0.2048
 4858SOL     OW19163   4.578   5.762   4.466  0.1904  0.1383 -0.1907
 4858SOL    HW219164   4.669   5.756   4.436  0.5909  1.6022  0.6102
 4858SOL    HW319165   4.568   5.687   4.525  0.3831 -0.9124 -1.4618
 4858SOL    MW419166   4.589   5.751   4.470  0.0763  0.8348  0.0987
 4859SOL     OW19167   5.206   6.372   1.425  0.1757  0.1518  0.3791
 4859SOL    HW219168   5.196   6.434   1.353 -1.7037 -0.5436 -0.0174
 4859SOL    HW319169   5.294   6.389   1.459  0.6668  1.2896 -1.3173
 4859SOL    MW419170   5.216   6.383   1.420 -0.6854 -0.2857  0.6424
 4860SOL     OW19171   3.830   5.869   2.120  0.1195 -0.5321  0.3324
 4860SOL    HW219172   3.846   5.775   2.108 -1.4538 -0.7495 -0.2557
 4860SOL    HW319173   3.842   5.883   2.214  0.4139 -1.3026  0.4187
 4860SOL    MW419174   3.834   5.859   2.131  0.3003  0.2444  0.0490
 4861SOL     OW19175   5.671   0.617   5.035 -0.4107 -0.1133  0.1358
 4861SOL    HW219176   5.749   0.638   5.085 -0.4256 -1.9607  1.0222
 4861SOL    HW319177   5.703   0.604   4.945 -0.3361  2.8604 -0.3849
 4861SOL    MW419178   5.685   0.618   5.029  0.1075 -0.0754 -0.2278
 4862SOL     OW19179   0.256   3.448   1.309 -0.4632 -0.2926 -0.3118
 4862SOL    HW219180   0.261   3.509   1.382  0.2512  0.5087 -1.0099
 4862SOL    HW319181   0.226   3.366   1.348 -0.5317  0.2443  0.7954
 4862SOL    MW419182   0.253   3.445   1.324 -0.4511  0.2768 -0.6352
 4863SOL     OW19183   1.459   0.082   5.440  0.2866 -0.1965  0.4750
 4863SOL    HW219184   1.453   0.101   5.534  0.5323 -1.9146  0.8832
 4863SOL    HW319185   1.396   0.011   5.426  0.7751 -0.4556 -0.5075
 4863SOL    MW419186   1.450   0.075   5.451 -0.2909 -0.1301  0.0993
 4864SOL     OW19187   2.223   0.617   2.409 -0.5677 -0.3548 -0.4641
 4864SOL    HW219188   2.302   0.626   2.356 -0.8883 -0.9441 -1.0588
 4864SOL    HW319189   2.254   0.622   2.499 -0.0872  1.2719 -0.6762
 4864SOL    MW419190   2.238   0.619   2.414 -0.2051 -0.0210  0.1113
 4865SOL     OW19191   4.228   3.701   3.242  0.2978 -0.0357  0.0790
 4865SOL    HW219192   4.247   3.775   3.184 -0.1899 -0.1646 -0.2466
 4865SOL    HW319193   4.133   3.687   3.233  0.6787 -2.0498 -1.4713
 4865SOL    MW419194   4.218   3.709   3.233  0.3025  0.4859 -0.5720
 4866SOL     OW19195   2.951   0.739   4.152  0.0010  0.1728 -0.0149
 4866SOL    HW219196   3.022   0.757   4.091 -0.0241  0.3740  0.0145
 4866SOL    HW319197   2.887   0.809   4.136  0.5249  0.9344  1.0686
 4866SOL    MW419198   2.952   0.751   4.142  0.3063 -0.1931  0.5279
 4867SOL     OW19199   3.362   0.216   5.530  0.0179  0.1961 -0.1721
 4867SOL    HW219200   3.294   0.202   5.596 -1.1924  0.0968 -1.4017
 4867SOL    HW319201   3.438   0.168   5.563 -0.6200 -0.0248  1.0328
 4867SOL    MW419202   3.363   0.208   5.543  0.0339  0.0884  0.3123
 4868SOL     OW19203   5.014   1.727   6.326 -0.4185 -0.1896  0.2034
 4868SOL    HW219204   4.976   1.771   6.401  1.4654 -0.0664  1.1479
 4868SOL    HW319205   4.953   1.743   6.254 -0.8280  2.1717  1.0109
 4868SOL    MW419206   5.001   1.735   6.326  0.4756  0.5033  0.5157
 4869SOL     OW19207   0.020   5.229   2.461 -0.2950  0.2535  0.4099
 4869SOL    HW219208   0.022   5.172   2.537 -0.8541 -0.1076  0.1639
 4869SOL    HW319209   0.110   5.257   2.448 -0.1775  0.2083  1.1213
 4869SOL    MW419210   0.032   5.225   2.469 -0.6440 -0.8814 -0.7240
 4870SOL     OW19211   4.728   2.852   3.577 -0.0306 -0.2827  0.0843
 4870SOL    HW219212   4.753   2.800   3.501  0.7149 -0.8206  0.6837
 4870SOL    HW319213   4.810   2.884   3.614 -0.5088  2.6613 -1.1294
 4870SOL    MW419214   4.742   2.849   3.572  0.9157  0.2641  0.5002
 4871SOL     OW19215   3.782   3.753   1.651 -0.0622 -0.0480  0.2813
 4871SOL    HW219216   3.772   3.846   1.630 -1.9447 -0.2148  0.2514
 4871SOL    HW319217   3.856   3.750   1.713 -1.7657  1.8737  2.5938
 4871SOL    MW419218   3.791   3.765   1.656  0.0923 -0.0570  0.3529
 4872SOL     OW19219   1.323   1.601   2.866  0.9033 -0.6834 -0.1039
 4872SOL    HW219220   1.342   1.650   2.946  2.6311 -0.1288 -0.8166
 4872SOL    HW319221   1.316   1.510   2.895 -1.4925 -0.2062  1.1021
 4872SOL    MW419222   1.324   1.595   2.880  0.5892 -0.1805 -0.2195
 4873SOL     OW19223   2.548   3.411   5.545 -0.2727  0.1545 -0.1570
 4873SOL    HW219224   2.541   3.456   5.460 -0.5461  0.2734 -0.0736
 4873SOL    HW319225   2.458   3.391   5.569 -0.0825 -1.4596 -0.7219
 4873SOL    MW419226   2.535   3.414   5.537  0.1310  0.0270 -0.2490
 4874SOL     OW19227   0.729   1.416   3.406  0.3865 -0.0728 -0.0269
 4874SOL    HW219228   0.668   1.482   3.437 -0.2574 -1.1881  1.1987
 4874SOL    HW319229   0.815   1.456   3.416 -0.0208  0.7618  0.2014
 4874SOL    MW419230   0.732   1.430   3.411  0.3094 -0.7773  1.0344
 4875SOL     OW19231   0.523   5.304   1.835 -0.2184 -0.2313 -0.3599
 4875SOL    HW219232   0.497   5.372   1.773  0.1628 -1.3937 -1.8642
 4875SOL    HW319233   0.481   5.225   1.801  1.4607 -1.2400 -0.1712
 4875SOL    MW419234   0.514   5.303   1.822 -0.2837  0.1011 -0.4763
 4876SOL     OW19235   4.706   0.796   6.254 -0.2747  0.3209  0.3981
 4876SOL    HW219236   4.742   0.881   6.231 -1.0884  0.6924  0.4841
 4876SOL    HW319237   4.771   0.733   6.223 -0.1930  0.9259 -0.6728
 4876SOL    MW419238   4.719   0.799   6.247  0.4538 -0.4164 -0.2457
 4877SOL     OW19239   3.417   5.341   4.462  0.3118  0.1877 -0.1919
 4877SOL    HW219240   3.334   5.383   4.439 -1.8732 -3.1996  0.7313
 4877SOL    HW319241   3.459   5.322   4.378  0.0269  1.6083 -0.6811
 4877SOL    MW419242   3.412   5.344   4.448 -0.1968 -0.1332 -0.0558
 4878SOL     OW19243   0.397   3.301   0.774 -0.3604  0.1360  0.5050
 4878SOL    HW219244   0.341   3.274   0.847 -2.7670  0.1721 -1.2226
 4878SOL    HW319245   0.412   3.221   0.724 -0.1767  0.4077  0.1178
 4878SOL    MW419246   0.391   3.287   0.777 -0.3123 -0.1760  0.1323
 4879SOL     OW19247   1.414   1.580   1.879  0.1310  0.1609  0.1702
 4879SOL    HW219248   1.367   1.625   1.809  0.2683  0.9941  0.5977
 4879SOL    HW319249   1.401   1.636   1.956 -0.2430 -0.8716  0.8830
 4879SOL    MW419250   1.406   1.594   1.880 -0.0408  0.1044 -0.2494
 4880SOL     OW19251   2.037   2.205   3.910  0.0897  0.0256  0.2588
 4880SOL    HW219252   1.944   2.204   3.932  0.1590 -1.4787  0.6044
 4880SOL    HW319253   2.081   2.193   3.994  0.6247  1.1166  0.1501
 4880SOL    MW419254   2.030   2.203   3.924  0.2160 -0.0114  0.7655
 4881SOL     OW19255   0.524   4.056   3.107 -0.4988  0.4501 -0.4272
 4881SOL    HW219256   0.542   4.019   3.193 -0.7681  1.1781 -0.0460
 4881SOL    HW319257   0.438   4.021   3.083  0.3578 -1.2338 -1.2498
 4881SOL    MW419258   0.515   4.046   3.115  0.1410  0.2721  0.4887
 4882SOL     OW19259   2.748   6.039   2.099 -0.7647 -0.4574  0.1151
 4882SOL    HW219260   2.820   6.066   2.042 -0.8688 -0.3763  0.0227
 4882SOL    HW319261   2.791   5.991   2.170 -0.5165  0.3741  0.5538
 4882SOL    MW419262   2.763   6.036   2.101  0.0235  0.0111  0.2833
 4883SOL     OW19263   5.551   4.811   1.697 -0.0341 -0.1267  0.0651
 4883SOL    HW219264   5.578   4.849   1.780  1.8320  5.0203 -2.5286
 4883SOL    HW319265   5.632   4.793   1.651 -0.9677  0.6415 -1.9871
 4883SOL    MW419266   5.565   4.813   1.702 -0.2369  0.2134  0.3849
 4884SOL     OW19267   4.524   4.070   5.438 -0.8044 -0.3043  0.2745
 4884SOL    HW219268   4.609   4.110   5.454  0.2020 -1.6004 -1.4283
 4884SOL    HW319269   4.462   4.142   5.441  0.6167  0.9868 -0.2440
 4884SOL    MW419270   4.527   4.085   5.440 -0.6087 -0.0783  0.4179
 4885SOL     OW19271   2.089   1.829   1.235  0.1111  0.0903 -0.2578
 4885SOL    HW219272   2.082   1.814   1.330  0.5213 -0.2148 -0.2758
 4885SOL    HW319273   2.144   1.907   1.227  2.3743 -1.4197 -0.3040
 4885SOL    MW419274   2.095   1.838   1.247  0.1436  0.1513  0.0157
 4886SOL     OW19275   5.116   2.673   2.355 -0.6151  0.2775  0.1910
 4886SOL    HW219276   5.192   2.700   2.303 -0.6577  1.5345  0.7441
 4886SOL    HW319277   5.081   2.597   2.308  0.3682  0.3074 -0.6419
 4886SOL    MW419278   5.121   2.667   2.342  0.2379 -0.1602  0.0572
 4887SOL     OW19279   2.418   1.654   2.581 -0.5400  1.0252  0.0210
 4887SOL    HW219280   2.504   1.636   2.619 -1.2888 -2.7122  0.2570
 4887SOL    HW319281   2.437   1.682   2.492  0.9505  0.1953  0.0440
 4887SOL    MW419282   2.432   1.656   2.574 -0.0348 -0.0910  0.3496
 4888SOL     OW19283   5.102   3.243   3.375  0.0287  0.1010  0.1746
 4888SOL    HW219284   5.027   3.248   3.315  1.4752  0.6330 -1.7013
 4888SOL    HW319285   5.131   3.153   3.368  0.2536  0.1869 -0.0049
 4888SOL    MW419286   5.096   3.232   3.366 -0.3605 -0.6746  0.5034
 4889SOL     OW19287   4.313   1.868   0.417 -0.7724 -0.5363  0.2224
 4889SOL    HW219288   4.311   1.947   0.363 -1.0754 -0.3007  0.5732
 4889SOL    HW319289   4.287   1.797   0.358 -1.0532 -0.2889  0.0480
 4889SOL    MW419290   4.310   1.869   0.402 -0.2209 -0.2412 -0.5960
 4890SOL     OW19291   3.930   4.047   5.106 -0.3831  0.2206 -0.1852
 4890SOL    HW219292   4.019   4.056   5.073 -1.3265  0.5700 -2.8604
 4890SOL    HW319293   3.905   4.136   5.132 -0.5946  0.5033 -1.3094
 4890SOL    MW419294   3.939   4.060   5.105 -0.1336 -0.1504 -0.2813
 4891SOL     OW19295   1.234   1.946   3.220  0.2296 -0.5604 -0.1624
 4891SOL    HW219296   1.294   1.881   3.186  0.3903 -1.4415  1.6571
 4891SOL    HW319297   1.250   2.024   3.168  0.5663 -1.7453 -1.8968
 4891SOL    MW419298   1.244   1.948   3.209  0.0911 -0.3115 -0.1046
 4892SOL     OW19299   4.377   4.478   2.397 -0.0564 -0.2158  0.1651
 4892SOL    HW219300   4.356   4.448   2.486 -1.1116 -0.9079 -0.2981
 4892SOL    HW319301   4.434   4.409   2.362 -0.0502 -0.1952  0.1348
 4892SOL    MW419302   4.382   4.465   2.404  0.3918  0.2245  0.4508
 4893SOL     OW19303   5.741   1.250   1.583  0.2513 -0.1676 -0.3870
 4893SOL    HW219304   5.813   1.306   1.608 -0.5990  0.7751 -0.0073
 4893SOL    HW319305   5.716   1.280   1.495  0.9518 -1.1606 -0.9555
 4893SOL    MW419306   5.747   1.261   1.574  0.2380  0.3710  0.0143
 4894SOL     OW19307   0.651   0.925   4.622 -0.5690  0.0428 -0.7620
 4894SOL    HW219308   0.722   0.863   4.640 -0.2928  0.9845  1.7911
 4894SOL    HW319309   0.593   0.878   4.561  0.7037 -1.8878 -0.5666
 4894SOL    MW419310   0.653   0.911   4.616 -0.6650 -0.6590 -0.7923
 4895SOL     OW19311   5.509   1.339   3.068 -0.0685  0.2236  0.0814
 4895SOL    HW219312   5.518   1.397   3.144  1.2296 -1.9400  1.6809
 4895SOL    HW319313   5.435   1.283   3.089 -0.4288  0.3482 -0.8129
 4895SOL    MW419314   5.501   1.339   3.081  0.0472  0.0519  0.1130
 4896SOL     OW19315   1.895   3.930   3.681  0.2751  0.1290  0.1912
 4896SOL    HW219316   1.925   3.973   3.600  0.5155  0.3824  0.4128
 4896SOL    HW319317   1.805   3.903   3.661  0.3069  0.2537 -0.1371
 4896SOL    MW419318   1.887   3.932   3.667  0.1105  0.3550 -0.0225
 4897SOL     OW19319   3.371   3.474   1.074  0.0151 -0.2125 -0.9273
 4897SOL    HW219320   3.294   3.522   1.044  0.8823  0.7586 -1.6692
 4897SOL    HW319321   3.409   3.529   1.143 -1.0850 -1.6828  0.9448
 4897SOL    MW419322   3.366   3.487   1.079  0.5836  0.0807  0.4489
 4898SOL     OW19323   2.625   2.754   5.044 -0.1810  0.3886  0.2069
 4898SOL    HW219324   2.588   2.743   4.956  1.2134 -0.2842 -0.3163
 4898SOL    HW319325   2.597   2.842   5.070 -0.9369  0.4544 -0.7419
 4898SOL    MW419326   2.616   2.764   5.036 -0.2974 -0.2884  0.0136
 4899SOL     OW19327   3.077   1.529   1.648  0.0543 -0.1852  0.5233
 4899SOL    HW219328   3.004   1.486   1.692 -0.6221  1.6946  1.3428
 4899SOL    HW319329   3.041   1.560   1.565  0.9503 -2.4398 -0.8097
 4899SOL    MW419330   3.063   1.527   1.643 -0.0207 -0.2886  0.5585
 4900SOL     OW19331   2.486   4.827   5.265  0.0109 -0.3678  0.1910
 4900SOL    HW219332   2.489   4.747   5.213 -0.2620 -0.1590 -0.1461
 4900SOL    HW319333   2.409   4.874   5.234  0.1904  0.0472  0.3592
 4900SOL    MW419334   2.477   4.822   5.254  0.1980 -0.0553 -0.9530
 4901SOL     OW19335   5.980   4.362   5.252 -0.4687 -0.0206  0.1783
 4901SOL    HW219336   5.924   4.339   5.326  0.5053  0.6833  1.1642
 4901SOL    HW319337   5.954   4.302   5.183 -0.3173 -1.7985  1.5918
 4901SOL    MW419338   5.969   4.351   5.253  0.0982 -0.3084 -0.0604
 4902SOL     OW19339   3.793   0.874   4.584  0.3114 -0.1835 -0.4797
 4902SOL    HW219340   3.775   0.831   4.500  1.8209 -1.1179 -0.3647
 4902SOL    HW319341   3.813   0.801   4.644  4.1548  0.5971 -0.5532
 4902SOL    MW419342   3.793   0.859   4.581  0.6319  0.3031 -0.1140
 4903SOL     OW19343   4.887   5.197   3.471  0.5079 -0.2172  0.4535
 4903SOL    HW219344   4.972   5.238   3.462  2.0845 -3.5679 -1.6128
 4903SOL    HW319345   4.835   5.231   3.398  1.0350 -0.2448  0.0646
 4903SOL    MW419346   4.891   5.207   3.460  0.0081 -0.1759  0.1928
 4904SOL     OW19347   5.430   6.407   4.766  0.1418  0.1828 -0.4070
 4904SOL    HW219348   5.486   6.483   4.782 -0.6308  0.6837 -0.0295
 4904SOL    HW319349   5.421   6.404   4.670  1.5491 -0.4598 -0.5415
 4904SOL    MW419350   5.436   6.417   4.755  0.0974 -0.5135  0.0342
 4905SOL     OW19351   5.978   2.256   0.393  0.4055  0.5583  0.3531
 4905SOL    HW219352   6.050   2.217   0.442  0.5928  2.5281  1.7661
 4905SOL    HW319353   5.980   2.212   0.308  2.2307 -0.5580  0.9149
 4905SOL    MW419354   5.988   2.245   0.388 -0.0313  0.0595 -0.3337
 4906SOL     OW19355   0.509   4.413   1.669  0.2139  0.5828  0.4235
 4906SOL    HW219356   0.519   4.330   1.622  0.0968  1.3321 -0.9881
 4906SOL    HW319357   0.590   4.422   1.719  1.1663  0.5982 -1.0595
 4906SOL    MW419358   0.521   4.403   1.669  0.3360  0.3831  0.0421
 4907SOL     OW19359   3.616   3.837   4.563  0.0077 -0.7533 -0.2857
 4907SOL    HW219360   3.644   3.830   4.655  1.1410  1.2581 -0.4195
 4907SOL    HW319361   3.698   3.843   4.514 -0.6046  0.2373 -1.2150
 4907SOL    MW419362   3.630   3.837   4.569 -0.5633  0.2067  0.1324
 4908SOL     OW19363   0.522   2.700   5.929  0.0076 -0.6190  1.0299
 4908SOL    HW219364   0.554   2.643   6.000  0.4118 -1.7769 -0.0387
 4908SOL    HW319365   0.598   2.712   5.873 -0.4372 -0.1127  0.5308
 4908SOL    MW419366   0.536   2.694   5.931  0.4574  0.0762  0.4675
 4909SOL     OW19367   1.244   1.227   1.984 -0.8594  0.4497  0.3035
 4909SOL    HW219368   1.178   1.222   1.915 -2.0513  0.3564  1.4097
 4909SOL    HW319369   1.196   1.211   2.065 -0.0710  3.3853  1.4910
 4909SOL    MW419370   1.229   1.224   1.986 -0.3265  0.1537  0.2144
 4910SOL     OW19371   1.405   1.330   2.878  0.1152 -0.1519 -0.2646
 4910SOL    HW219372   1.493   1.319   2.915  0.1825 -0.0049 -0.3833
 4910SOL    HW319373   1.347   1.289   2.943  0.2863 -0.4042 -0.2701
 4910SOL    MW419374   1.409   1.323   2.892  0.3052  0.5092 -0.2065
 4911SOL     OW19375   0.007   1.968   1.605 -0.2141  0.3720  0.0611
 4911SOL    HW219376   0.075   1.924   1.655 -1.5558 -2.3797 -0.3452
 4911SOL    HW319377  -0.037   2.025   1.668 -1.8206 -2.9352  2.1951
 4911SOL    MW419378   0.010   1.970   1.620  0.9261 -0.0047  0.9891
 4912SOL     OW19379   2.429   4.501   1.543  0.1261  0.3215 -0.0260
 4912SOL    HW219380   2.352   4.450   1.519  0.3081  0.0853 -0.1074
 4912SOL    HW319381   2.436   4.491   1.638 -0.0881  0.5516  0.0178
 4912SOL    MW419382   2.420   4.493   1.553  0.0253  0.3192 -0.1450
 4913SOL     OW19383   0.634   4.724   5.638  0.1588  0.5374  0.2134
 4913SOL    HW219384   0.595   4.707   5.553 -0.1011  0.1551  0.4074
 4913SOL    HW319385   0.561   4.717   5.700  0.3520  0.7700  0.4722
 4913SOL    MW419386   0.619   4.721   5.635 -0.3865 -0.1585  0.0352
 4914SOL     OW19387   3.410   3.470   3.176  0.1036 -0.1617 -0.0844
 4914SOL    HW219388   3.422   3.435   3.087 -2.3711 -0.5450 -0.3369
 4914SOL    HW319389   3.382   3.395   3.228  0.4356  0.2908  0.7664
 4914SOL    MW419390   3.408   3.455   3.171  0.3831 -0.4673 -0.4746
 4915SOL     OW19391   5.087   5.966   2.008  0.0501 -0.2230  0.1477
 4915SOL    HW219392   5.162   6.015   2.042  1.0623 -1.3625 -0.3939
 4915SOL    HW319393   5.016   6.030   2.006  1.2142  1.0967 -0.1039
 4915SOL    MW419394   5.087   5.981   2.012 -0.2924 -0.2994 -0.0450
 4916SOL     OW19395   4.909   1.044   0.332 -0.2606 -0.4915 -0.4546
 4916SOL    HW219396   5.002   1.020   0.329  0.4182  1.8071 -0.1535
 4916SOL    HW319397   4.871   1.003   0.254  0.8549 -1.9315 -0.2917
 4916SOL    MW419398   4.917   1.036   0.321  0.1304  0.6136  0.1521
 4917SOL     OW19399   3.370   3.875   0.117 -0.0501  0.2135  0.7027
 4917SOL    HW219400   3.283   3.901   0.086  0.7113  1.3070 -0.6474
 4917SOL    HW319401   3.430   3.935   0.071  1.6264 -2.1844 -0.4232
 4917SOL    MW419402   3.366   3.887   0.107  0.5787  0.3940  0.1070
 4918SOL     OW19403   0.670   1.144   0.632 -0.1326  0.1116  0.2166
 4918SOL    HW219404   0.748   1.164   0.684  0.0392 -2.3157  0.9951
 4918SOL    HW319405   0.704   1.125   0.544 -0.1110  1.2013 -0.0276
 4918SOL    MW419406   0.685   1.144   0.627 -0.1611 -0.4960 -0.4567
 4919SOL     OW19407   0.293   2.946   4.406 -0.8144  0.3561 -0.7674
 4919SOL    HW219408   0.387   2.939   4.394 -0.5050 -3.6369  1.8449
 4919SOL    HW319409   0.256   2.876   4.351 -1.9324  0.0991  0.2589
 4919SOL    MW419410   0.300   2.936   4.397  0.4974  0.6144  0.1258
 4920SOL     OW19411   5.987   2.286   2.295 -0.3981 -0.4158 -0.4364
 4920SOL    HW219412   6.055   2.275   2.229  0.6038 -1.4963  0.7195
 4920SOL    HW319413   5.948   2.371   2.275  1.2330  0.2108 -1.1806
 4920SOL    MW419414   5.991   2.295   2.284  0.6495 -0.2337  1.0898
 4921SOL     OW19415   3.011   2.659   3.922  0.1060  0.6135 -1.0599
 4921SOL    HW219416   3.097   2.616   3.926  0.9902  2.4100  1.6849
 4921SOL    HW319417   3.017   2.717   3.846  0.5515 -0.7066 -2.0754
 4921SOL    MW419418   3.023   2.661   3.913 -0.1447 -0.2708 -0.0095
 4922SOL     OW19419   2.016   4.933   5.838 -0.2132 -0.0301 -0.0453
 4922SOL    HW219420   2.010   4.838   5.834 -1.1820 -0.0697  1.4821
 4922SOL    HW319421   1.935   4.963   5.796  0.4555  0.1566 -1.2262
 4922SOL    MW419422   2.004   4.924   5.832  0.3902  0.3377  0.4783
 4923SOL     OW19423   5.899   4.239   4.005 -0.6291  0.3826  0.9422
 4923SOL    HW219424   5.978   4.292   4.016 -0.6645  0.1198  2.9500
 4923SOL    HW319425   5.880   4.207   4.094 -2.1708 -0.7339  0.2492
 4923SOL    MW419426   5.907   4.242   4.018  0.0144 -0.3338  0.0409
 4924SOL     OW19427   2.170   2.783   2.246  0.0412  0.4596  0.0748
 4924SOL    HW219428   2.139   2.696   2.222 -0.6554  0.7315 -0.0109
 4924SOL    HW319429   2.155   2.837   2.169  0.5415  0.6465  0.1019
 4924SOL    MW419430   2.164   2.778   2.233 -0.2120 -0.6284 -0.4725
 4925SOL     OW19431   3.286   4.112   4.041 -0.2069 -0.0562 -0.7771
 4925SOL    HW219432   3.326   4.065   4.115  1.0830  0.0868 -1.3551
 4925SOL    HW319433   3.193   4.117   4.063  0.3646  1.3873  1.6114
 4925SOL    MW419434   3.279   4.106   4.054  0.2742 -0.0567  0.4316
 4926SOL     OW19435   0.985   4.521   2.376  0.0491 -0.1628  0.4818
 4926SOL    HW219436   1.038   4.588   2.334  0.3223  0.0790  1.2161
 4926SOL    HW319437   1.047   4.452   2.400 -0.3085 -1.0181 -0.8684
 4926SOL    MW419438   1.000   4.520   2.373 -0.3618  0.4574  0.2995
 4927SOL     OW19439   4.756   0.163   3.085  0.0049 -0.0779  0.2452
 4927SOL    HW219440   4.670   0.135   3.052 -0.9015  2.1034  0.5187
 4927SOL    HW319441   4.801   0.198   3.008 -1.3250  3.1753  0.7895
 4927SOL    MW419442   4.750   0.164   3.070 -0.6709 -0.4314  0.2719
 4928SOL     OW19443   4.909   1.488   4.084  0.3722 -0.4039  0.5374
 4928SOL    HW219444   4.970   1.488   4.159  1.3682  2.4449 -0.1154
 4928SOL    HW319445   4.966   1.493   4.007 -0.6707 -1.2533 -0.3141
 4928SOL    MW419446   4.925   1.489   4.084 -0.1602  0.0772 -0.2446
 4929SOL     OW19447   2.906   4.016   4.170 -0.3963 -0.4191  0.0419
 4929SOL    HW219448   2.956   4.084   4.125 -0.2075  0.3463  1.3603
 4929SOL    HW319449   2.951   4.004   4.254 -2.6024  0.5653  1.4559
 4929SOL    MW419450   2.919   4.023   4.176  0.4350 -0.2094 -0.5387
 4930SOL     OW19451   0.987   0.578   0.585  0.3391 -0.3253  0.0089
 4930SOL    HW219452   1.025   0.498   0.620 -0.7392 -0.5346  0.7501
 4930SOL    HW319453   1.020   0.648   0.641 -0.4136 -0.5174  0.7114
 4930SOL    MW419454   0.997   0.577   0.597 -0.1468  0.2298 -0.3126
 4931SOL     OW19455   2.976   4.695   0.655  0.1529  0.3927 -0.3647
 4931SOL    HW219456   2.979   4.765   0.719  2.5274  0.9345 -0.9733
 4931SOL    HW319457   2.974   4.614   0.707  1.2751  0.8379  0.3968
 4931SOL    MW419458   2.976   4.693   0.670 -0.0406  0.1070  0.0261
 4932SOL     OW19459   3.132   0.154   5.708  0.4810 -0.2269  0.2683
 4932SOL    HW219460   3.036   0.160   5.707  0.5144  0.3045  0.1802
 4932SOL    HW319461   3.150   0.060   5.708 -0.0479 -0.3363  0.9395
 4932SOL    MW419462   3.121   0.143   5.708  0.4280 -0.2107  0.0553
 4933SOL     OW19463   3.764   4.943   2.479  0.2435 -0.2509 -0.1829
 4933SOL    HW219464   3.783   5.033   2.454  0.9289 -0.0606  0.9692
 4933SOL    HW319465   3.810   4.931   2.562  0.4342 -1.7651 -0.4816
 4933SOL    MW419466   3.773   4.953   2.487 -0.1850  0.1782 -0.0104
 4934SOL     OW19467   2.737   4.940   1.512  0.0517  0.3025 -0.3899
 4934SOL    HW219468   2.758   5.030   1.540  0.7935  0.2084 -0.6294
 4934SOL    HW319469   2.793   4.885   1.566  0.0152  0.0125 -0.6483
 4934SOL    MW419470   2.747   4.945   1.523  0.2145 -0.5169 -0.0306
 4935SOL     OW19471   0.171   3.232   5.566  0.3596  0.6181 -0.4083
 4935SOL    HW219472   0.133   3.200   5.648  0.4721  1.8603  0.1362
 4935SOL    HW319473   0.187   3.152   5.515  0.1536 -0.1585  0.7062
 4935SOL    MW419474   0.168   3.217   5.570  0.2252 -0.1367 -0.1593
 4936SOL     OW19475   3.416   5.496   5.870 -0.3334 -0.1487 -0.0250
 4936SOL    HW219476   3.399   5.516   5.962 -0.0787 -0.1077  0.0135
 4936SOL    HW319477   3.338   5.449   5.841 -2.0012  2.8262 -0.7348
 4936SOL    MW419478   3.403   5.492   5.878  0.0624  0.0789 -0.2479
 4937SOL     OW19479   4.901   5.773   0.423 -0.5866 -0.2250 -0.4194
 4937SOL    HW219480   4.989   5.736   0.428 -0.2582  0.5406 -0.4743
 4937SOL    HW319481   4.844   5.696   0.415  0.1044 -0.7046 -0.8506
 4937SOL    MW419482   4.905   5.758   0.423  0.2047  0.2524 -0.1233
 4938SOL     OW19483   3.654   2.472   0.599 -0.2082  0.2168  0.3757
 4938SOL    HW219484   3.588   2.449   0.664  0.2820 -1.4993  0.3176
 4938SOL    HW319485   3.733   2.426   0.627 -0.0247 -0.6838 -1.4704
 4938SOL    MW419486   3.655   2.463   0.611  1.0527 -0.2066  0.1496
 4939SOL     OW19487   2.056   4.061   1.367 -0.1639  0.8081 -0.1196
 4939SOL    HW219488   1.960   4.065   1.361 -0.2383 -1.2535 -1.6508
 4939SOL    HW319489   2.085   4.064   1.276  0.8676 -3.0311 -0.0763
 4939SOL    MW419490   2.047   4.062   1.354 -0.8114  0.0928  0.1898
 4940SOL     OW19491   2.869   1.544   4.093 -0.2751 -0.3799 -0.1187
 4940SOL    HW219492   2.896   1.509   4.008 -1.2523  0.7875 -0.9369
 4940SOL    HW319493   2.781   1.509   4.107  0.3238 -1.5422  1.0110
 4940SOL    MW419494   2.861   1.535   4.084 -0.6888 -0.0533  0.1407
 4941SOL     OW19495   3.300   3.263   4.947 -0.6990 -0.1949  0.1393
 4941SOL    HW219496   3.282   3.273   4.854 -0.4636  0.5178  0.1586
 4941SOL    HW319497   3.360   3.335   4.968 -1.1765 -0.0165  0.9556
 4941SOL    MW419498   3.305   3.274   4.938 -0.4856  0.7045 -0.1365
 4942SOL     OW19499   5.651   0.425   0.973 -0.1704 -0.0441 -0.0719
 4942SOL    HW219500   5.595   0.445   0.898  0.5919 -2.4009 -1.3600
 4942SOL    HW319501   5.740   0.431   0.938  0.1760 -1.7356  0.4528
 4942SOL    MW419502   5.655   0.429   0.958 -0.1653 -0.6250  0.4925
 4943SOL     OW19503   3.485   0.651   1.161 -0.2162 -0.1760 -0.0073
 4943SOL    HW219504   3.519   0.708   1.092 -0.4675 -0.0480 -0.0236
 4943SOL    HW319505   3.432   0.586   1.115 -0.6969  0.1365  0.0995
 4943SOL    MW419506   3.483   0.650   1.146 -0.0969  0.3761  0.5210
 4944SOL     OW19507   4.867   4.334   1.560 -0.2883 -0.1830  0.3712
 4944SOL    HW219508   4.788   4.332   1.506 -0.2292 -0.1731  0.2835
 4944SOL    HW319509   4.928   4.276   1.515 -0.3326 -0.3900  0.5752
 4944SOL    MW419510   4.865   4.326   1.547  0.8975 -0.8990 -0.0115
 4945SOL     OW19511   5.962   6.220   5.382 -0.3255 -0.0156 -0.3117
 4945SOL    HW219512   5.891   6.261   5.332 -0.8488  1.5834  1.6141
 4945SOL    HW319513   5.939   6.237   5.473  2.5322  0.5119  0.3782
 4945SOL    MW419514   5.949   6.228   5.387 -0.0119 -0.3016 -0.7379
 4946SOL     OW19515   5.313   5.873   5.115 -0.4167 -0.0070 -0.2666
 4946SOL    HW219516   5.242   5.934   5.095 -0.6487  0.2060  1.1278
 4946SOL    HW319517   5.273   5.806   5.170  0.5675  0.4370  1.0398
 4946SOL    MW419518   5.299   5.872   5.120 -0.3503  0.1582 -0.0615
 4947SOL     OW19519   4.544   0.232   2.400 -0.4294  0.4078  0.3808
 4947SOL    HW219520   4.515   0.193   2.318  2.9955 -1.4874 -0.1412
 4947SOL    HW319521   4.506   0.177   2.468  0.4339 -0.9289 -0.1774
 4947SOL    MW419522   4.536   0.220   2.398  0.0343  0.1208 -0.5997
 4948SOL     OW19523   3.351   3.797   4.111 -0.1892 -0.4128 -0.3535
 4948SOL    HW219524   3.355   3.702   4.111 -0.5793 -0.4300 -0.2197
 4948SOL    HW319525   3.340   3.821   4.203 -0.0900 -0.2364 -0.3862
 4948SOL    MW419526   3.350   3.788   4.123  0.4846 -0.4461 -0.1805
 4949SOL     OW19527   1.916   2.434   4.456 -0.0024 -0.8197  0.3221
 4949SOL    HW219528   1.832   2.427   4.500  0.4255 -1.7364  1.0353
 4949SOL    HW319529   1.937   2.527   4.457 -1.1583 -0.5476 -0.1668
 4949SOL    MW419530   1.908   2.445   4.462 -0.2206  0.0582 -0.0745
 4950SOL     OW19531   4.259   4.555   6.362  0.1505  0.1563 -0.2508
 4950SOL    HW219532   4.248   4.644   6.329  0.5606  0.3856  0.2185
 4950SOL    HW319533   4.171   4.527   6.386 -0.4797 -0.6835 -3.1567
 4950SOL    MW419534   4.246   4.563   6.361  0.4621  0.0631 -0.3339
 4951SOL     OW19535   1.892   3.126   4.881 -0.5305  0.3321 -0.1886
 4951SOL    HW219536   1.856   3.056   4.936 -1.0483  1.4623  0.9481
 4951SOL    HW319537   1.985   3.131   4.906 -0.2148 -0.6632 -1.0749
 4951SOL    MW419538   1.900   3.117   4.891  0.4144  0.4506 -0.6369
 4952SOL     OW19539   1.764   2.439   2.170  0.2056  0.7424 -0.0527
 4952SOL    HW219540   1.692   2.483   2.126  0.1525 -0.6591 -1.4843
 4952SOL    HW319541   1.830   2.427   2.102  1.5977  1.5511  1.1113
 4952SOL    MW419542   1.763   2.443   2.155 -0.4301  0.1832  0.2344
 4953SOL     OW19543   5.766   6.282   1.678  0.0771 -0.3076  0.4202
 4953SOL    HW219544   5.794   6.190   1.678 -0.7686 -0.6169  2.0331
 4953SOL    HW319545   5.746   6.300   1.770  0.0761  1.4609  0.1029
 4953SOL    MW419546   5.767   6.272   1.690  0.2247 -0.7086 -0.1962
 4954SOL     OW19547   5.993   5.689   6.111 -0.1521 -0.0433  0.1450
 4954SOL    HW219548   5.904   5.724   6.120 -0.1964 -0.2726  0.6566
 4954SOL    HW319549   6.017   5.707   6.020 -1.2175 -1.1554 -0.3833
 4954SOL    MW419550   5.984   5.696   6.101  0.4610 -0.5861  0.7966
 4955SOL     OW19551   5.514   1.153   0.049  0.4021 -0.2343 -0.4192
 4955SOL    HW219552   5.570   1.186  -0.021  1.5722  0.8185  0.9575
 4955SOL    HW319553   5.496   1.229   0.104 -0.8265 -0.9552  0.2306
 4955SOL    MW419554   5.519   1.167   0.047 -0.3686  0.4620 -0.0951
 4956SOL     OW19555   4.768   2.726   3.332 -0.4714  0.4441  0.1851
 4956SOL    HW219556   4.854   2.756   3.303 -0.0142 -0.4099  0.6067
 4956SOL    HW319557   4.706   2.777   3.279  0.2421  2.0388  0.8153
 4956SOL    MW419558   4.771   2.737   3.321  0.1952  0.1135 -0.1262
 4957SOL     OW19559   0.180   0.816   4.804  0.3399  0.0075  0.8169
 4957SOL    HW219560   0.129   0.822   4.885 -0.4077  0.2628  0.3461
 4957SOL    HW319561   0.205   0.724   4.797 -0.6970 -0.2776  0.6906
 4957SOL    MW419562   0.176   0.805   4.814 -0.0908  0.2738  0.7015
 4958SOL     OW19563   3.283   1.449   2.332 -0.5056  0.2026  0.0509
 4958SOL    HW219564   3.323   1.394   2.263  2.9076  0.5343  1.5366
 4958SOL    HW319565   3.282   1.393   2.409  0.1512  1.2242  0.8316
 4958SOL    MW419566   3.288   1.434   2.333 -0.1255 -0.2379 -0.7381
 4959SOL     OW19567   2.819   2.614   1.493  0.8655  0.2419 -0.0645
 4959SOL    HW219568   2.804   2.676   1.422  0.5640 -0.4776 -0.6426
 4959SOL    HW319569   2.823   2.668   1.572 -1.4627  0.8223 -0.2644
 4959SOL    MW419570   2.818   2.630   1.494 -0.3803 -0.1171 -0.1134
 4960SOL     OW19571   0.733   3.904   2.989 -0.1876  0.7770 -0.4095
 4960SOL    HW219572   0.658   3.960   3.008  2.7643  4.6687  1.2335
 4960SOL    HW319573   0.718   3.874   2.900 -3.4935  1.5889 -0.2753
 4960SOL    MW419574   0.721   3.908   2.980 -0.2215  0.3799 -0.1076
 4961SOL     OW19575   3.024   6.076   2.547  0.3763  0.2338  0.0947
 4961SOL    HW219576   3.078   6.038   2.616 -0.4742 -1.6948 -0.2174
 4961SOL    HW319577   3.084   6.128   2.494  1.6312 -0.7119  0.5593
 4961SOL    MW419578   3.039   6.078   2.549 -0.0329  0.6258  0.0213
 4962SOL     OW19579   5.149   3.811   4.454  0.0508 -0.3588  0.1097
 4962SOL    HW219580   5.074   3.765   4.490  0.3896 -0.9145  0.1225
 4962SOL    HW319581   5.224   3.779   4.505  0.4593 -0.7556 -0.7195
 4962SOL    MW419582   5.149   3.801   4.465  0.1298  0.3897  0.1563
 4963SOL     OW19583   4.017   0.468   4.724 -0.4523 -0.2396  0.0283
 4963SOL    HW219584   3.998   0.404   4.792 -0.0581 -0.4751 -0.0810
 4963SOL    HW319585   3.955   0.539   4.740 -0.7637 -0.5633  0.2646
 4963SOL    MW419586   4.006   0.469   4.735 -0.5629  0.7869  0.0570
 4964SOL     OW19587   2.320   5.173   1.119  0.0375 -0.5956  0.8579
 4964SOL    HW219588   2.391   5.236   1.108 -1.1990  0.9234  1.1187
 4964SOL    HW319589   2.332   5.109   1.049  0.9515  0.3203  0.1564
 4964SOL    MW419590   2.331   5.173   1.109 -0.1883 -0.6215 -0.9814
 4965SOL     OW19591   4.479   0.856   4.795 -0.0669 -0.5050 -0.1709
 4965SOL    HW219592   4.517   0.774   4.825 -0.3672 -0.2092  1.0766
 4965SOL    HW319593   4.387   0.850   4.821  0.3249  1.0380  1.7587
 4965SOL    MW419594   4.472   0.844   4.802 -0.4733  0.5527 -0.0442
 4966SOL     OW19595   2.203   6.279   4.583 -0.1983 -0.4022 -0.0762
 4966SOL    HW219596   2.171   6.326   4.660 -1.2398 -0.9238 -0.1792
 4966SOL    HW319597   2.237   6.347   4.525  2.0854 -0.1013  1.4897
 4966SOL    MW419598   2.203   6.294   4.586 -0.3674  0.4559  0.2981
 4967SOL     OW19599   0.995   3.932   2.395  0.1240  0.0105  0.1682
 4967SOL    HW219600   0.959   3.945   2.307  0.0700 -3.7680 -0.5376
 4967SOL    HW319601   1.080   3.975   2.394  0.0829  0.0988 -1.6957
 4967SOL    MW419602   1.001   3.940   2.384  0.1848  0.1606 -0.2607
 4968SOL     OW19603   4.119   1.389   4.501  0.0369 -0.3266  0.7546
 4968SOL    HW219604   4.031   1.377   4.465 -0.0195  2.0199 -0.0509
 4968SOL    HW319605   4.140   1.306   4.542 -2.8754 -0.7052  1.6483
 4968SOL    MW419606   4.110   1.377   4.501 -0.0172 -0.3160 -0.5811
 4969SOL     OW19607   5.267   2.941   1.867  0.3768 -0.4447  0.1449
 4969SOL    HW219608   5.248   3.017   1.812 -2.3318  0.3986  2.0582
 4969SOL    HW319609   5.309   2.978   1.945  0.3293 -1.0991  0.4849
 4969SOL    MW419610   5.270   2.956   1.870 -0.6158 -0.1336 -0.1427
 4970SOL     OW19611   4.640   1.643   2.089 -0.5839  0.0602 -0.5594
 4970SOL    HW219612   4.586   1.620   2.014 -0.4538 -2.3741 -0.0068
 4970SOL    HW319613   4.692   1.564   2.106  0.5025  1.0800  1.1375
 4970SOL    MW419614   4.640   1.630   2.082  0.0110  0.1061  0.1334
 4971SOL     OW19615   5.677   6.337   3.179  0.2623 -0.2907 -0.7626
 4971SOL    HW219616   5.696   6.282   3.255 -0.0480 -0.0826 -0.5278
 4971SOL    HW319617   5.626   6.410   3.215 -0.0862 -0.3099 -1.2042
 4971SOL    MW419618   5.673   6.340   3.194 -0.4030  0.0823 -0.6842
 4972SOL     OW19619   1.115   4.026   5.484  0.2473  0.2105 -0.3240
 4972SOL    HW219620   1.088   4.037   5.393  1.6702 -1.7419 -1.0440
 4972SOL    HW319621   1.060   3.955   5.517 -0.1119  0.7659  0.2858
 4972SOL    MW419622   1.104   4.018   5.476  0.2788 -0.1288  0.2688
 4973SOL     OW19623   0.021   2.910   0.321  0.1243  0.1853  0.4340
 4973SOL    HW219624   0.028   2.825   0.366  1.1444 -1.2846 -2.2462
 4973SOL    HW319625  -0.073   2.924   0.310 -0.1366  0.4272  2.5913
 4973SOL    MW419626   0.010   2.900   0.325  0.2345 -0.5051  0.2172
 4974SOL     OW19627   4.269   6.381   1.672  0.1544  0.8198 -0.4270
 4974SOL    HW219628   4.200   6.350   1.731  2.1501  0.3760  1.8422
 4974SOL    HW319629   4.257   6.476   1.669  0.1509  0.8853  0.9590
 4974SOL    MW419630   4.259   6.390   1.679 -0.0967 -0.6702 -0.2035
 4975SOL     OW19631   5.376   2.635   2.161 -0.2157 -0.0465 -0.1146
 4975SOL    HW219632   5.434   2.636   2.238  0.6698 -0.4929 -0.7493
 4975SOL    HW319633   5.372   2.543   2.136 -1.8715 -0.1270  0.3898
 4975SOL    MW419634   5.383   2.623   2.168 -0.4020 -0.0355  0.3022
 4976SOL     OW19635   4.022   0.492   2.945 -0.4481 -0.3998  0.7031
 4976SOL    HW219636   3.998   0.573   2.991  0.0401 -0.4367  1.0304
 4976SOL    HW319637   4.039   0.520   2.855 -1.3082 -0.3099  0.5683
 4976SOL    MW419638   4.021   0.507   2.939  0.3488  0.0228 -0.2880
 4977SOL     OW19639   4.137   1.633   1.755 -0.1280  0.5580 -0.6046
 4977SOL    HW219640   4.149   1.667   1.843 -0.6767  1.9233 -1.0373
 4977SOL    HW319641   4.071   1.564   1.764  1.0845 -0.5344  0.3000
 4977SOL    MW419642   4.130   1.628   1.767  0.4073 -0.1140  0.0081
 4978SOL     OW19643   5.841   1.474   4.654 -0.1357  0.3510 -0.3327
 4978SOL    HW219644   5.845   1.431   4.569 -1.0354 -0.2712 -0.0837
 4978SOL    HW319645   5.906   1.543   4.650  0.0050  0.1665 -1.4344
 4978SOL    MW419646   5.850   1.477   4.643  1.1570  0.0001 -0.7213
 4979SOL     OW19647   3.221   5.184   2.361  0.5658  0.1411  0.4499
 4979SOL    HW219648   3.199   5.129   2.286 -0.4846  0.1440  0.7368
 4979SOL    HW319649   3.144   5.179   2.418  1.7589 -0.7727  2.0825
 4979SOL    MW419650   3.208   5.176   2.359 -0.0517 -0.4845  0.7854
 4980SOL     OW19651   1.072   1.416   3.095 -0.0198  0.3010 -0.1825
 4980SOL    HW219652   0.998   1.444   3.042  0.4285  0.9483 -0.4869
 4980SOL    HW319653   1.113   1.497   3.124  0.4063 -0.0472  0.2158
 4980SOL    MW419654   1.068   1.430   3.092  0.4491  0.1393  1.0948
 4981SOL     OW19655   3.142   2.922   5.952  0.4713  0.1389 -0.0322
 4981SOL    HW219656   3.148   2.837   5.996 -3.6522 -0.4463 -0.2681
 4981SOL    HW319657   3.106   2.981   6.018 -0.3983  0.7002 -0.9912
 4981SOL    MW419658   3.138   2.919   5.967 -0.0189  0.2436 -0.4506
 4982SOL     OW19659   3.299   2.784   4.835  0.1985 -0.2159 -0.7813
 4982SOL    HW219660   3.369   2.834   4.876 -1.0951 -0.2318  1.6397
 4982SOL    HW319661   3.220   2.836   4.849 -1.1971 -2.7080  1.7648
 4982SOL    MW419662   3.298   2.797   4.842  0.5417  0.3052 -0.3680
 4983SOL     OW19663   5.164   3.444   4.341  0.1328 -0.3367  0.1884
 4983SOL    HW219664   5.090   3.483   4.389  0.0589 -2.0935  1.5887
 4983SOL    HW319665   5.237   3.502   4.360 -0.8168  1.3860 -1.1426
 4983SOL    MW419666   5.164   3.457   4.350  0.6695 -0.8476 -0.3155
 4984SOL     OW19667   4.142   3.103   4.623 -0.3587  0.3013  0.2670
 4984SOL    HW219668   4.070   3.088   4.684 -0.4565 -0.4910 -0.0391
 4984SOL    HW319669   4.216   3.125   4.680 -0.2437 -1.2075  0.7623
 4984SOL    MW419670   4.143   3.104   4.639  0.8931 -0.1343  0.0116
 4985SOL     OW19671   1.019   0.918   0.327 -0.0632  0.1093  0.1182
 4985SOL    HW219672   1.023   0.825   0.349 -0.0206 -0.0585 -0.5949
 4985SOL    HW319673   1.021   0.921   0.232 -2.3617  0.7145  0.0168
 4985SOL    MW419674   1.020   0.906   0.317  0.0721 -0.0025 -0.6273
 4986SOL     OW19675   2.001   5.133   2.969 -0.2195  0.3615 -0.7038
 4986SOL    HW219676   1.963   5.167   2.889  1.0867  1.3595 -0.9305
 4986SOL    HW319677   2.030   5.211   3.017  0.2237 -0.2860  0.1098
 4986SOL    MW419678   2.000   5.148   2.965 -0.4113 -0.3379 -0.0184
 4987SOL     OW19679   3.093   6.294   0.273 -0.5619  0.2713 -0.1689
 4987SOL    HW219680   3.028   6.303   0.203  0.9941 -0.7044 -1.8222
 4987SOL    HW319681   3.157   6.362   0.254  1.2065 -1.6086 -1.2897
 4987SOL    MW419682   3.093   6.305   0.261  0.3613  0.2800 -0.4405
 4988SOL     OW19683   2.662   4.271   4.909  0.4670 -0.0545 -0.0350
 4988SOL    HW219684   2.599   4.267   4.837 -0.0047 -0.7879  0.3998
 4988SOL    HW319685   2.691   4.362   4.911  0.1345  0.0789 -0.8486
 4988SOL    MW419686   2.657   4.282   4.900  0.2683 -0.6386  0.5178
 4989SOL     OW19687   4.449   0.489   0.949 -0.8713 -0.2872 -0.0769
 4989SOL    HW219688   4.516   0.524   0.890 -1.8103  0.3211 -0.8047
 4989SOL    HW319689   4.397   0.565   0.975 -0.6091 -0.5754  1.3979
 4989SOL    MW419690   4.451   0.504   0.945 -0.0301 -0.5821  0.0651
 4990SOL     OW19691   2.516   2.121   3.279 -0.1980 -0.4275 -0.2295
 4990SOL    HW219692   2.564   2.053   3.231  0.2079  0.5706 -1.2918
 4990SOL    HW319693   2.543   2.110   3.370 -1.4423 -2.7479 -0.0701
 4990SOL    MW419694   2.526   2.110   3.284  0.0546 -0.2978 -0.5432
 4991SOL     OW19695   3.269   2.996   1.063  0.5508  0.2489 -0.7251
 4991SOL    HW219696   3.213   2.928   1.025  0.2788 -0.1692  0.3909
 4991SOL    HW319697   3.355   2.956   1.070  0.1516 -0.3996  0.9458
 4991SOL    MW419698   3.273   2.982   1.059 -0.5652  0.1514  0.1116
 4992SOL     OW19699   0.089   0.398   2.251 -0.3463  0.3552 -0.8604
 4992SOL    HW219700   0.029   0.355   2.313  0.4407  0.8381  0.2690
 4992SOL    HW319701   0.176   0.381   2.287  0.0820  1.2228 -1.4723
 4992SOL    MW419702   0.092   0.390   2.264 -0.6235 -0.3395  0.9380
 4993SOL     OW19703   5.745   5.465   5.544  0.1965 -0.7721 -0.6131
 4993SOL    HW219704   5.731   5.487   5.452  0.4698  0.0428 -0.4653
 4993SOL    HW319705   5.658   5.439   5.575 -0.0599 -0.2716 -0.8979
 4993SOL    MW419706   5.731   5.465   5.536  0.1682 -0.0014  0.1631
 4994SOL     OW19707   0.067   4.495   3.258 -0.4640  0.0069 -0.0896
 4994SOL    HW219708   0.097   4.517   3.170 -1.6639 -0.5077 -0.6301
 4994SOL    HW319709   0.004   4.424   3.247 -0.2832 -0.4034  1.2270
 4994SOL    MW419710   0.063   4.489   3.245 -0.2828 -0.0131  0.0710
 4995SOL     OW19711   5.236   0.179   5.737 -0.4455 -0.5525 -0.0723
 4995SOL    HW219712   5.180   0.181   5.660  1.5797  1.2619 -1.6399
 4995SOL    HW319713   5.317   0.138   5.707 -0.4518 -2.0737  1.8025
 4995SOL    MW419714   5.239   0.174   5.723  0.0467  0.4115  0.1582
 4996SOL     OW19715   1.715   3.158   4.636 -0.1578 -0.4287  0.0885
 4996SOL    HW219716   1.723   3.080   4.690 -1.6993 -1.4189 -0.9936
 4996SOL    HW319717   1.716   3.124   4.546  0.4103  0.9425 -0.4422
 4996SOL    MW419718   1.716   3.143   4.631 -0.2978  0.1812 -0.4137
 4997SOL     OW19719   1.322   0.002   3.790  0.1145  0.3401  0.1931
 4997SOL    HW219720   1.291  -0.051   3.863  0.6960  3.2454  2.7900
 4997SOL    HW319721   1.242   0.045   3.757  0.0775  0.4375  0.4035
 4997SOL    MW419722   1.307   0.001   3.796  0.0486 -0.7922  0.1053
 4998SOL     OW19723   0.742   2.359   0.186  0.4667 -1.0327  0.2214
 4998SOL    HW219724   0.654   2.325   0.171 -0.4110  1.3792 -0.7056
 4998SOL    HW319725   0.728   2.443   0.230  2.4252 -1.4637  1.7862
 4998SOL    MW419726   0.729   2.366   0.189 -0.0318 -0.2282 -0.0443
 4999SOL     OW19727   2.130   5.436   3.639  0.4574 -0.4075  0.1737
 4999SOL    HW219728   2.133   5.372   3.568 -1.3622 -0.6729  0.2726
 4999SOL    HW319729   2.092   5.389   3.713  0.4632  0.3914  0.7004
 4999SOL    MW419730   2.125   5.421   3.639 -0.6082  0.5160 -0.0001
 5000SOL     OW19731   1.672   4.724   3.190  0.0135  0.0801  0.3759
 5000SOL    HW219732   1.639   4.792   3.132  0.4228 -0.8103 -0.9657
 5000SOL    HW319733   1.626   4.644   3.162  1.2269 -0.6311  0.3512
 5000SOL    MW419734   1.661   4.722   3.179 -0.8801 -0.1475  0.4650
 5001SOL     OW19735   6.087   4.319   5.774 -0.0736 -0.1496  0.9072
 5001SOL    HW219736   6.049   4.233   5.789 -0.2679 -0.1642  0.3408
 5001SOL    HW319737   6.041   4.377   5.834 -1.2994 -0.0876 -0.0601
 5001SOL    MW419738   6.076   4.315   5.784 -0.7435  0.3614  0.6804
 5002SOL     OW19739   5.168   1.102   0.092 -0.5437  0.1307 -0.9871
 5002SOL    HW219740   5.198   1.050   0.166 -0.6895  2.2545  0.6796
 5002SOL    HW319741   5.243   1.105   0.033  0.2419 -0.0865 -0.0356
 5002SOL    MW419742   5.182   1.096   0.094 -0.4128  0.0859  0.1683
 5003SOL     OW19743   3.573   5.594   0.375 -0.1722 -0.4923 -0.1892
 5003SOL    HW219744   3.643   5.533   0.399 -0.4328 -0.9423 -0.5396
 5003SOL    HW319745   3.527   5.549   0.303 -1.5084 -0.7091  0.7763
 5003SOL    MW419746   3.576   5.580   0.368 -0.3261  0.3987  0.4135
 5004SOL     OW19747   0.439   6.065   0.455  0.0692 -0.2641 -0.3041
 5004SOL    HW219748   0.417   6.049   0.547  0.2896 -0.8922 -0.3603
 5004SOL    HW319749   0.484   6.150   0.457 -0.6361  0.1103  0.0571
 5004SOL    MW419750   0.442   6.074   0.467  0.2918  0.5061  0.0843
 5005SOL     OW19751   0.712   3.296   1.248 -0.0365  0.0427  0.1999
 5005SOL    HW219752   0.675   3.228   1.304 -0.6120 -0.2509 -0.5131
 5005SOL    HW319753   0.791   3.325   1.294  1.4352 -2.5600 -0.4743
 5005SOL    MW419754   0.717   3.291   1.262  0.0241 -0.0985  0.4536
 5006SOL     OW19755   5.536   6.210   4.927 -0.3472 -0.3088  0.3648
 5006SOL    HW219756   5.506   6.275   4.863 -0.2754 -1.8071 -1.2578
 5006SOL    HW319757   5.629   6.232   4.940 -0.4286  0.1743  0.1727
 5006SOL    MW419758   5.544   6.222   4.920  0.3534  0.1927  0.6778
 5007SOL     OW19759   0.341   1.433   4.433 -0.2564 -0.1882 -0.2535
 5007SOL    HW219760   0.399   1.357   4.429 -1.1427 -0.9182  0.4221
 5007SOL    HW319761   0.319   1.451   4.341 -1.9208 -2.2650 -0.3553
 5007SOL    MW419762   0.345   1.425   4.420 -0.7928 -0.4735  0.1264
 5008SOL     OW19763   0.192   0.427   0.984 -0.3361  0.0192  0.0646
 5008SOL    HW219764   0.138   0.408   0.907  0.0188 -0.8615  0.0273
 5008SOL    HW319765   0.140   0.490   1.034 -1.1011 -0.3011 -0.3040
 5008SOL    MW419766   0.178   0.433   0.981  0.4989  0.2752 -0.0116
 5009SOL     OW19767   1.547   4.392   1.341 -0.8230 -0.4067  0.0135
 5009SOL    HW219768   1.518   4.464   1.284 -0.8906  0.0461  0.6107
 5009SOL    HW319769   1.643   4.396   1.337 -0.8089 -1.3234 -1.2347
 5009SOL    MW419770   1.556   4.402   1.333  0.3628  0.1653 -0.1314
 5010SOL     OW19771   2.246   2.311   6.101  0.2650 -0.5868 -0.1595
 5010SOL    HW219772   2.324   2.366   6.109 -0.6671  0.9625 -1.0958
 5010SOL    HW319773   2.174   2.366   6.134 -0.3500 -2.3115  1.5664
 5010SOL    MW419774   2.247   2.326   6.106  0.1079  0.8867 -0.1804
 5011SOL     OW19775   3.210   6.209   6.055  0.2810 -0.2539 -0.1139
 5011SOL    HW219776   3.169   6.201   6.141 -0.3072  0.9655 -0.2646
 5011SOL    HW319777   3.277   6.141   6.054  0.7565  0.1620  1.5642
 5011SOL    MW419778   3.213   6.199   6.066  0.1962  0.3044  0.6937
 5012SOL     OW19779   0.152   2.016   4.921 -0.6009  0.1029  0.6000
 5012SOL    HW219780   0.178   1.994   4.831  1.1506 -0.6721  1.2534
 5012SOL    HW319781   0.195   1.950   4.975  0.2394  1.8895  2.2047
 5012SOL    MW419782   0.161   2.004   4.916 -0.2572 -0.5857  0.4147
 5013SOL     OW19783   6.392   2.602   4.135 -0.9143 -0.0341 -0.0778
 5013SOL    HW219784   6.374   2.600   4.041 -0.2058  1.2212 -0.2586
 5013SOL    HW319785   6.476   2.648   4.142  0.3180 -2.2846  0.9883
 5013SOL    MW419786   6.401   2.608   4.124  0.1029  0.2312  0.0820
 5014SOL     OW19787   1.218   4.148   2.343 -0.1704 -0.3736  0.3866
 5014SOL    HW219788   1.302   4.103   2.340 -0.0053 -0.0917  0.6909
 5014SOL    HW319789   1.195   4.163   2.251  0.3829  0.0446  0.3119
 5014SOL    MW419790   1.226   4.144   2.331 -0.5021  0.0957  0.3920
 5015SOL     OW19791   1.885   4.161   2.527 -0.1419  0.1461  0.0519
 5015SOL    HW219792   1.820   4.232   2.525  0.5630  0.8385  0.7107
 5015SOL    HW319793   1.906   4.150   2.620  1.8627  1.0818 -0.2262
 5015SOL    MW419794   1.879   4.169   2.539  0.1770 -0.3148 -0.7758
 5016SOL     OW19795   6.372   6.394   4.274 -0.1108 -0.4944 -0.5155
 5016SOL    HW219796   6.351   6.476   4.321 -0.5539 -1.1991  0.5572
 5016SOL    HW319797   6.467   6.387   4.280 -0.1581 -0.5778  0.3203
 5016SOL    MW419798   6.382   6.404   4.281 -0.0497 -0.7427 -0.3570
 5017SOL     OW19799   2.953   6.203   2.002 -0.4171  0.0834  0.6380
 5017SOL    HW219800   3.015   6.152   1.949 -0.3837  0.5348  0.2333
 5017SOL    HW319801   2.999   6.216   2.085 -0.7454 -1.2137  1.0458
 5017SOL    MW419802   2.967   6.198   2.006  0.0632  0.5122  0.3549
 5018SOL     OW19803   2.157   5.487   4.109 -0.4765 -0.0982  0.1649
 5018SOL    HW219804   2.091   5.441   4.057  0.0060 -0.4138 -0.1799
 5018SOL    HW319805   2.181   5.425   4.178 -0.4682 -0.0192  0.2335
 5018SOL    MW419806   2.152   5.473   4.111 -0.5298 -0.0089  0.3382
 5019SOL     OW19807   2.203   0.942   2.352  0.3979 -0.1137 -0.0270
 5019SOL    HW219808   2.212   0.915   2.260  0.1624  1.6621 -0.5913
 5019SOL    HW319809   2.135   0.885   2.386  0.1292 -0.4604 -1.0875
 5019SOL    MW419810   2.195   0.931   2.344  0.1239 -0.2755 -0.4271
 5020SOL     OW19811   3.531   2.754   1.777 -0.4809 -0.2589  0.0223
 5020SOL    HW219812   3.531   2.815   1.702 -0.9477 -0.2851 -0.0013
 5020SOL    HW319813   3.573   2.803   1.847 -2.2114  0.6888  0.4650
 5020SOL    MW419814   3.536   2.769   1.776 -0.1807  0.3563 -0.1277
 5021SOL     OW19815   5.974   2.584   5.713 -0.5222  0.2301  0.2726
 5021SOL    HW219816   6.066   2.583   5.684 -0.4846 -0.6312  0.4135
 5021SOL    HW319817   5.935   2.506   5.674 -1.1149  0.4144  0.4892
 5021SOL    MW419818   5.981   2.574   5.704 -0.1971  0.0800  0.0933
 5022SOL     OW19819   1.232   2.989   0.906  0.3932  0.1030  0.3645
 5022SOL    HW219820   1.138   2.973   0.912  0.2776  1.0544  1.4575
 5022SOL    HW319821   1.245   3.029   0.820 -0.5092  1.8180  0.9959
 5022SOL    MW419822   1.221   2.992   0.895 -0.1777 -0.8759 -0.0467
 5023SOL     OW19823   2.779   2.082   0.564  0.1120  0.1758  0.1872
 5023SOL    HW219824   2.860   2.039   0.593  0.6808  0.8308 -0.3715
 5023SOL    HW319825   2.712   2.052   0.625  1.0966  0.8777  1.6711
 5023SOL    MW419826   2.781   2.072   0.575 -0.2884 -0.0187  0.3771
 5024SOL     OW19827   4.261   0.424   6.198 -0.4097 -0.0834 -0.3586
 5024SOL    HW219828   4.347   0.460   6.220  0.2641 -0.3588 -2.4090
 5024SOL    HW319829   4.262   0.335   6.234 -0.1489  0.1703  0.2797
 5024SOL    MW419830   4.272   0.417   6.206  0.5543 -0.5636  0.0213
 5025SOL     OW19831   2.706   6.239   5.931  0.4768  0.3806 -0.0523
 5025SOL    HW219832   2.681   6.147   5.923  0.6967  0.3491 -0.3986
 5025SOL    HW319833   2.700   6.257   6.025 -0.1377  0.1793 -0.0483
 5025SOL    MW419834   2.702   6.229   5.943 -0.5446 -0.1331  0.2056
 5026SOL     OW19835   1.195   3.270   3.505  0.1205 -0.1643 -0.4240
 5026SOL    HW219836   1.274   3.244   3.553 -0.1966 -0.2241  0.0685
 5026SOL    HW319837   1.227   3.291   3.417  0.4756 -1.5765 -0.6538
 5026SOL    MW419838   1.210   3.270   3.500  0.5267  0.5791  0.2301
 5027SOL     OW19839   0.696   3.191   2.755  0.0331  0.1448  0.1316
 5027SOL    HW219840   0.718   3.228   2.841 -0.1310 -0.5699  0.4970
 5027SOL    HW319841   0.601   3.182   2.757 -0.1705  1.8380 -0.8568
 5027SOL    MW419842   0.687   3.194   2.767 -0.4557 -0.3108 -0.4418
 5028SOL     OW19843   0.914   1.161   2.845  0.2591  0.0000  0.1402
 5028SOL    HW219844   0.898   1.253   2.867  0.1995 -0.1499  0.7585
 5028SOL    HW319845   0.980   1.164   2.776 -2.4920  0.6545 -2.6754
 5028SOL    MW419846   0.921   1.174   2.839 -0.4297 -0.1471 -0.0758
 5029SOL     OW19847   6.003   4.509   3.636 -0.0472  0.3084  0.3871
 5029SOL    HW219848   6.028   4.474   3.550 -0.0589  0.9595  0.1140
 5029SOL    HW319849   6.082   4.498   3.690 -0.1900 -0.5426  0.4393
 5029SOL    MW419850   6.017   4.503   3.632 -0.1986 -0.1045  0.3200
 5030SOL     OW19851   5.462   6.041   1.334  0.0586  0.1157  0.1618
 5030SOL    HW219852   5.375   6.077   1.322  0.1908  0.3327 -0.1443
 5030SOL    HW319853   5.489   6.012   1.247  0.3369  0.1516  0.2346
 5030SOL    MW419854   5.454   6.042   1.321 -0.1213 -0.1746 -0.3776
 5031SOL     OW19855   2.375   4.366   5.035  0.0844 -0.4148  0.1990
 5031SOL    HW219856   2.412   4.279   5.049  0.9818  0.1359  1.5069
 5031SOL    HW319857   2.330   4.387   5.117  0.1143  0.4579  0.0077
 5031SOL    MW419858   2.374   4.357   5.048  0.5902 -0.0933  0.4604
 5032SOL     OW19859   2.825   3.316   3.256  0.1814 -0.0106 -0.2908
 5032SOL    HW219860   2.889   3.299   3.187 -1.8403 -0.7660 -2.0860
 5032SOL    HW319861   2.791   3.403   3.236 -0.2899 -0.1561 -0.1430
 5032SOL    MW419862   2.829   3.325   3.245 -0.3291 -0.5095 -0.2784
 5033SOL     OW19863   6.342   0.496   4.825  0.2706 -0.2059  0.6188
 5033SOL    HW219864   6.433   0.485   4.853 -0.1194  1.1583  2.6196
 5033SOL    HW319865   6.293   0.433   4.879 -0.0698 -0.3068  0.1935
 5033SOL    MW419866   6.348   0.486   4.836 -0.1743 -0.2860  0.2630
 5034SOL     OW19867   4.674   5.091   5.931  0.3538  0.0651 -0.9440
 5034SOL    HW219868   4.680   5.093   5.835  1.3945  0.1187 -0.8904
 5034SOL    HW319869   4.583   5.066   5.949 -0.2429  1.3940 -1.9241
 5034SOL    MW419870   4.663   5.088   5.921 -0.1420  0.5874  0.5454
 5035SOL     OW19871   0.923   6.381   6.118 -0.6543  0.2365 -0.1158
 5035SOL    HW219872   0.861   6.357   6.049  0.6859  0.0914 -1.3384
 5035SOL    HW319873   0.962   6.464   6.087  0.1296  0.0480  0.3297
 5035SOL    MW419874   0.920   6.389   6.105 -0.4850  0.1360 -0.1922
 5036SOL     OW19875   5.446   4.936   4.661  0.6494  0.2199 -0.3938
 5036SOL    HW219876   5.474   5.028   4.666  0.4793  0.3115 -0.9551
 5036SOL    HW319877   5.355   4.937   4.690  0.1395  0.5036 -1.8683
 5036SOL    MW419878   5.437   4.948   4.665 -0.0892 -0.3064  0.7842
 5037SOL     OW19879   3.205   4.272   6.213  0.4380  0.6008  0.2884
 5037SOL    HW219880   3.153   4.323   6.151 -0.5748 -1.7483 -0.9378
 5037SOL    HW319881   3.150   4.267   6.291  0.3932  1.0740  0.2899
 5037SOL    MW419882   3.191   4.278   6.215  0.1257 -0.2853 -0.1649
 5038SOL     OW19883   0.192   3.249   0.267 -0.3473 -0.1066 -0.3751
 5038SOL    HW219884   0.146   3.279   0.345 -0.4788 -0.6051 -0.2562
 5038SOL    HW319885   0.216   3.158   0.287  1.3647  0.3650 -0.1275
 5038SOL    MW419886   0.189   3.241   0.280  1.0565 -0.6773  0.0800
 5039SOL     OW19887   6.396   4.437   2.838  0.1452 -0.2824 -0.0010
 5039SOL    HW219888   6.394   4.462   2.746  1.1056  0.3085  0.1249
 5039SOL    HW319889   6.416   4.343   2.837 -0.2133 -0.3558 -0.4035
 5039SOL    MW419890   6.399   4.428   2.826  0.0010  0.2476  0.2762
 5040SOL     OW19891   0.723   3.648   5.603 -0.2705  0.0313 -0.5323
 5040SOL    HW219892   0.710   3.684   5.515  1.0913 -0.6116 -1.0407
 5040SOL    HW319893   0.673   3.705   5.661 -1.1165  0.5281 -1.7094
 5040SOL    MW419894   0.715   3.660   5.599  0.5461 -0.0813  0.4194
 5041SOL     OW19895   0.167   6.121   0.855  0.0310 -0.9270 -0.2844
 5041SOL    HW219896   0.167   6.076   0.939  0.1380 -1.5936 -0.6338
 5041SOL    HW319897   0.113   6.199   0.869  1.4803 -0.0923  0.8835
 5041SOL    MW419898   0.160   6.125   0.868 -0.3889  0.2958 -0.2206
 5042SOL     OW19899   6.247   3.066   3.357  0.3299 -0.1208  0.6015
 5042SOL    HW219900   6.169   3.120   3.368 -0.3063 -1.1613  1.2705
 5042SOL    HW319901   6.232   3.018   3.275  0.2410 -0.3793  0.7707
 5042SOL    MW419902   6.235   3.067   3.348  0.3643 -0.0463 -0.9365
 5043SOL     OW19903   3.091   5.700   5.817  0.4188 -0.0840 -0.1228
 5043SOL    HW219904   3.042   5.755   5.877  1.1778 -0.9893  1.4079
 5043SOL    HW319905   3.183   5.720   5.836  0.6867 -1.1467 -0.2479
 5043SOL    MW419906   3.097   5.710   5.827 -0.6172 -0.1326 -0.5480
 5044SOL     OW19907   1.021   4.370   0.406  0.5154  0.1642 -0.1682
 5044SOL    HW219908   1.042   4.308   0.336 -0.9520 -0.0745 -0.4265
 5044SOL    HW319909   0.926   4.362   0.418  0.8454 -0.5525  2.5675
 5044SOL    MW419910   1.011   4.361   0.398  0.6197 -0.2045  0.1640
 5045SOL     OW19911   2.413   1.027   5.431 -0.6797 -0.3599 -0.0836
 5045SOL    HW219912   2.329   1.035   5.385 -0.7372 -1.1144 -0.1270
 5045SOL    HW319913   2.403   0.948   5.485  1.1275 -2.4908 -2.5759
 5045SOL    MW419914   2.400   1.017   5.432  0.7718  0.6638  0.0376
 5046SOL     OW19915   3.090   5.064   3.250 -0.1230 -0.0220 -0.0999
 5046SOL    HW219916   3.156   5.077   3.182  0.1064  0.8247  0.2811
 5046SOL    HW319917   3.064   5.152   3.276 -1.2648 -0.3406 -0.1015
 5046SOL    MW419918   3.095   5.077   3.244 -0.3597 -0.5181 -0.1029
 5047SOL     OW19919   4.274   3.279   0.390  0.7763  0.1918  0.1173
 5047SOL    HW219920   4.189   3.309   0.420  0.5447  0.6982 -1.0275
 5047SOL    HW319921   4.334   3.351   0.412  1.3840 -1.0017  2.9126
 5047SOL    MW419922   4.271   3.292   0.397 -0.3420  0.5320  0.4780
 5048SOL     OW19923   1.106   5.185   0.509  0.0775  0.3035 -0.0481
 5048SOL    HW219924   1.011   5.189   0.522 -0.0065 -1.2705  0.0082
 5048SOL    HW319925   1.141   5.251   0.568 -0.9601  0.6272  0.2248
 5048SOL    MW419926   1.098   5.194   0.519  0.8415  0.5621 -0.6683
 5049SOL     OW19927   0.572   2.988   4.399  0.2629  0.2792 -0.4519
 5049SOL    HW219928   0.570   3.048   4.473  0.3326 -0.1120 -0.1297
 5049SOL    HW319929   0.644   2.928   4.418 -0.7896 -0.8853  0.0097
 5049SOL    MW419930   0.581   2.988   4.411  0.2300 -0.0410 -0.1419
 5050SOL     OW19931   4.386   5.650   0.163 -0.0758  0.3183  0.5606
 5050SOL    HW219932   4.314   5.708   0.139  1.5087  1.7358 -1.0063
 5050SOL    HW319933   4.408   5.675   0.253 -1.0904  0.2641  0.8475
 5050SOL    MW419934   4.379   5.661   0.172  0.4991 -0.1197  0.0193
 5051SOL     OW19935   4.509   2.653   2.935  0.0473  0.4226  0.2061
 5051SOL    HW219936   4.475   2.643   2.846  0.8523  0.3051 -0.0973
 5051SOL    HW319937   4.538   2.566   2.960  1.3471  0.7530 -0.0628
 5051SOL    MW419938   4.509   2.640   2.926 -0.1370 -0.4557  0.6462
 5052SOL     OW19939   0.052   4.962   0.876 -0.4489  0.2943  0.5023
 5052SOL    HW219940   0.014   4.951   0.789 -0.7339 -0.1542  0.6783
 5052SOL    HW319941   0.127   5.021   0.862  0.2692 -0.7467 -0.2690
 5052SOL    MW419942   0.057   4.968   0.862 -0.1817  0.2195 -0.0607
 5053SOL     OW19943   1.803   4.680   5.506  0.5048  0.9016 -0.4318
 5053SOL    HW219944   1.790   4.595   5.549 -0.9758 -0.1027 -2.6433
 5053SOL    HW319945   1.846   4.658   5.423 -1.1617  2.0847 -1.6784
 5053SOL    MW419946   1.807   4.666   5.501 -0.0910  0.7116  0.1543
 5054SOL     OW19947   2.546   0.225   1.872  0.2930  0.2132 -0.0770
 5054SOL    HW219948   2.476   0.273   1.828  0.1320  0.9560  0.9643
 5054SOL    HW319949   2.522   0.133   1.861 -0.2987  0.4234 -0.6122
 5054SOL    MW419950   2.534   0.219   1.865  0.6312  0.2570 -0.3964
 5055SOL     OW19951   3.156   1.245   6.044 -0.0225 -0.0786 -0.2289
 5055SOL    HW219952   3.133   1.183   5.975  0.4072  0.5253 -0.9295
 5055SOL    HW319953   3.191   1.321   5.998 -0.9238  0.8676  0.5862
 5055SOL    MW419954   3.157   1.247   6.029 -0.8534 -0.8530  0.1705
 5056SOL     OW19955   2.634   5.228   1.501  0.2529 -0.1005  0.3237
 5056SOL    HW219956   2.656   5.310   1.546 -1.2523 -0.5549  1.9886
 5056SOL    HW319957   2.549   5.245   1.461  0.1374 -0.7078  0.3099
 5056SOL    MW419958   2.626   5.241   1.502 -0.4113  0.4720 -0.8863
 5057SOL     OW19959   3.123   3.078   1.396 -0.0959  0.2564 -0.0851
 5057SOL    HW219960   3.111   3.095   1.490 -0.1064  0.2077 -0.0777
 5057SOL    HW319961   3.137   3.165   1.358  0.8721  0.1985  0.1045
 5057SOL    MW419962   3.123   3.092   1.403  0.2797  0.5027 -0.9378
 5058SOL     OW19963   6.092   2.165   1.701 -0.7672  0.4108 -0.3889
 5058SOL    HW219964   6.182   2.194   1.714 -0.9830  0.4373  1.2514
 5058SOL    HW319965   6.100   2.079   1.662  0.0633 -0.4529  1.5375
 5058SOL    MW419966   6.105   2.158   1.698  0.0120 -0.5930 -0.2817
 5059SOL     OW19967   1.997   0.156   3.798  0.1493  0.6127 -0.8083
 5059SOL    HW219968   1.990   0.110   3.714  1.5489  0.2438 -0.7526
 5059SOL    HW319969   1.953   0.100   3.861 -0.1544  0.4716 -1.1452
 5059SOL    MW419970   1.991   0.143   3.795  0.1751 -0.4523  0.1816
 5060SOL     OW19971   0.319   1.211   2.765 -0.8218 -0.2802 -0.4328
 5060SOL    HW219972   0.306   1.251   2.851 -0.4921 -0.1925 -0.4206
 5060SOL    HW319973   0.398   1.159   2.775 -0.0346  0.7531 -1.0317
 5060SOL    MW419974   0.328   1.209   2.778 -0.9718 -0.3930 -0.2509
 5061SOL     OW19975   0.379   4.975   1.118 -0.5006  0.8040 -0.1483
 5061SOL    HW219976   0.297   4.929   1.137 -0.6549  0.7911 -0.8341
 5061SOL    HW319977   0.443   4.934   1.176 -1.2800  1.8225  1.4895
 5061SOL    MW419978   0.376   4.963   1.128 -0.1179 -0.0646 -0.4621
 5062SOL     OW19979   4.300   5.174   1.200  0.0962  0.0248  0.0281
 5062SOL    HW219980   4.283   5.268   1.202 -1.3177 -0.2083  0.0215
 5062SOL    HW319981   4.390   5.166   1.168  0.1672  1.3603 -0.1439
 5062SOL    MW419982   4.310   5.185   1.196 -0.4014 -0.0386  0.2175
 5063SOL     OW19983   1.841   0.720   4.381 -0.1934  0.3021 -0.2123
 5063SOL    HW219984   1.879   0.756   4.461 -1.5178  1.2266  0.0301
 5063SOL    HW319985   1.904   0.654   4.352  0.8159  0.6968  1.0067
 5063SOL    MW419986   1.854   0.716   4.388 -0.4344  0.1529  0.0925
 5064SOL     OW19987   0.658   4.857   1.741  0.8997 -0.3548 -0.4606
 5064SOL    HW219988   0.654   4.837   1.835 -1.2389 -1.7525 -0.7825
 5064SOL    HW319989   0.708   4.784   1.704 -1.4190 -1.8621 -0.8127
 5064SOL    MW419990   0.664   4.844   1.748 -0.4112 -0.7139  0.2759
 5065SOL     OW19991   5.851   5.934   3.684 -0.1345 -0.5223 -0.1210
 5065SOL    HW219992   5.934   5.967   3.718  1.2965 -1.5352 -2.3861
 5065SOL    HW319993   5.842   5.847   3.721 -1.6082  0.5016  2.1976
 5065SOL    MW419994   5.861   5.927   3.693 -0.7406  0.4456 -0.0412
 5066SOL     OW19995   4.863   4.273   3.146 -0.0268 -0.5183 -0.1110
 5066SOL    HW219996   4.894   4.357   3.179 -2.2121  0.4027 -0.2318
 5066SOL    HW319997   4.847   4.288   3.052 -1.5714 -0.6640  0.1028
 5066SOL    MW419998   4.865   4.286   3.138 -0.5285  0.0472  0.0989
 5067SOL     OW19999   5.381   5.758   4.175  0.3685 -0.0554 -0.2182
 5067SOL    HW220000   5.386   5.844   4.218  0.0423  0.0666 -0.4244
 5067SOL    HW320001   5.288   5.744   4.161  0.4284 -0.4125 -0.2545
 5067SOL    MW420002   5.369   5.768   4.179  0.3361  0.2284 -0.3465
 5068SOL     OW20003   5.347   4.415   3.786 -0.5230  0.1644 -0.3245
 5068SOL    HW220004   5.333   4.479   3.856  0.3210 -1.4550  1.3882
 5068SOL    HW320005   5.437   4.386   3.798 -0.8301 -1.2030 -1.1935
 5068SOL    MW420006   5.357   4.420   3.797 -0.2741 -0.0467 -0.4677
 5069SOL     OW20007   0.747   1.022   0.389 -0.2739  0.3299  0.0345
 5069SOL    HW220008   0.835   0.993   0.365  0.2055  2.3611 -0.9260
 5069SOL    HW320009   0.697   0.942   0.397  1.0766 -0.8100 -1.8811
 5069SOL    MW420010   0.752   1.008   0.387 -0.2255 -0.0099 -0.3023
 5070SOL     OW20011   0.098   1.201   0.207  0.8345 -0.2601  0.7371
 5070SOL    HW220012   0.026   1.184   0.146 -1.4369 -1.6936  3.5686
 5070SOL    HW320013   0.059   1.193   0.294  4.3198 -0.6123  2.4797
 5070SOL    MW420014   0.084   1.197   0.210 -0.0441  0.0861  0.7134
 5071SOL     OW20015   1.110   5.694   4.856  0.0037 -0.2212 -0.2034
 5071SOL    HW220016   1.081   5.695   4.765  1.7827 -1.0959 -0.8179
 5071SOL    HW320017   1.029   5.702   4.906 -0.8773  2.1202 -1.8255
 5071SOL    MW420018   1.095   5.695   4.851  0.3738 -0.4399 -0.0157
 5072SOL     OW20019   0.179   3.184   4.411 -0.0817  0.6756  0.0475
 5072SOL    HW220020   0.085   3.167   4.411  0.0893 -0.3109  0.8919
 5072SOL    HW320021   0.219   3.098   4.405  0.7789  0.9104  1.8314
 5072SOL    MW420022   0.172   3.170   4.410  0.0104 -0.4486 -0.2521
 5073SOL     OW20023   1.794   1.347   2.415 -0.0452  0.4022 -0.3466
 5073SOL    HW220024   1.762   1.419   2.360  0.0342  0.1325 -0.7533
 5073SOL    HW320025   1.854   1.299   2.358 -0.7447 -0.4846 -0.3604
 5073SOL    MW420026   1.798   1.350   2.400  0.5329  0.4337  0.1958
 5074SOL     OW20027   5.919   1.366   3.248  0.0304 -0.3821  0.6868
 5074SOL    HW220028   6.009   1.343   3.223 -0.1109  0.6147 -0.9112
 5074SOL    HW320029   5.881   1.283   3.276  0.9255 -1.1992 -0.3683
 5074SOL    MW420030   5.926   1.352   3.248  0.0090 -0.0649  0.0532
 5075SOL     OW20031   1.792   1.347   4.379  0.4064 -0.7062  0.2331
 5075SOL    HW220032   1.882   1.367   4.355  0.5537  0.3795  1.5870
 5075SOL    HW320033   1.781   1.255   4.358  2.1373 -1.1008  0.9253
 5075SOL    MW420034   1.802   1.338   4.373  0.5829 -0.0459  0.4628
 5076SOL     OW20035   4.902   2.318   3.667 -0.2195 -0.4142 -0.2869
 5076SOL    HW220036   4.987   2.361   3.672 -1.1830  1.4582  1.2059
 5076SOL    HW320037   4.920   2.226   3.690  1.2451  0.1635  1.0539
 5076SOL    MW420038   4.916   2.311   3.670  0.0270  0.2966  0.8644
 5077SOL     OW20039   4.622   1.607   0.037 -0.1880  0.1913 -0.4642
 5077SOL    HW220040   4.607   1.646   0.123 -0.1546 -0.7147 -0.0397
 5077SOL    HW320041   4.663   1.523   0.056 -0.4272 -0.1315 -1.3625
 5077SOL    MW420042   4.626   1.601   0.051 -0.4041 -0.3883  0.3285
 5078SOL     OW20043   6.206   4.248   5.413  0.0827  0.1021  0.1677
 5078SOL    HW220044   6.219   4.284   5.325 -0.1033 -1.6666 -0.6351
 5078SOL    HW320045   6.126   4.289   5.444 -2.0599 -2.0301 -2.1124
 5078SOL    MW420046   6.198   4.258   5.406 -0.1799  0.4598 -0.0597
 5079SOL     OW20047   5.165   1.023   1.993 -0.1157  0.0020  0.1476
 5079SOL    HW220048   5.223   1.021   1.917  0.3348  0.9191  0.4543
 5079SOL    HW320049   5.172   0.935   2.031 -0.0654 -0.3489 -0.6613
 5079SOL    MW420050   5.174   1.011   1.988  0.2803  0.3772  0.0690
 5080SOL     OW20051   4.925   5.107   2.310  0.7503  0.5657  0.2627
 5080SOL    HW220052   4.876   5.025   2.305 -0.3987  1.0758  2.1398
 5080SOL    HW320053   4.898   5.156   2.232  1.4375 -0.8084 -0.8672
 5080SOL    MW420054   4.915   5.103   2.299  0.8868  0.8423 -0.0154
 5081SOL     OW20055   4.719   6.317   6.090  0.2049 -0.2757 -0.2201
 5081SOL    HW220056   4.640   6.265   6.105  0.8188 -0.8823  0.9835
 5081SOL    HW320057   4.780   6.288   6.157  1.3040  0.5095 -0.8576
 5081SOL    MW420058   4.716   6.306   6.101 -0.7006  0.1657 -0.5580
 5082SOL     OW20059   1.758   1.928   5.642 -0.1746 -0.2528  0.3180
 5082SOL    HW220060   1.680   1.938   5.587  1.4393  2.6656 -1.7869
 5082SOL    HW320061   1.730   1.955   5.729 -1.8624 -0.8407 -0.0090
 5082SOL    MW420062   1.744   1.933   5.646 -0.0486 -0.2237  0.2511
 5083SOL     OW20063   4.798   1.977   1.267  0.2151 -0.7857  0.3959
 5083SOL    HW220064   4.804   1.973   1.363  0.5514  1.3368  0.5077
 5083SOL    HW320065   4.731   2.043   1.250 -0.6627 -1.9570 -0.8729
 5083SOL    MW420066   4.790   1.985   1.277  0.1322  0.2122  0.2705
 5084SOL     OW20067   0.559   1.899   6.148  1.1466 -0.1369 -0.2398
 5084SOL    HW220068   0.643   1.930   6.115  0.2068  0.7596 -1.9700
 5084SOL    HW320069   0.541   1.954   6.224  1.6168  0.4456 -0.5395
 5084SOL    MW420070   0.568   1.910   6.154 -0.0623  0.2802  0.0862
 5085SOL     OW20071   0.359   4.103   2.731 -0.3712  0.2307  0.3166
 5085SOL    HW220072   0.403   4.184   2.760  0.9579 -0.1164 -0.6040
 5085SOL    HW320073   0.287   4.091   2.792 -1.8346  3.1601 -0.6390
 5085SOL    MW420074   0.356   4.112   2.743 -0.2586  0.0040  0.3037
 5086SOL     OW20075   2.950   2.421   5.142 -0.3223 -0.5498 -0.1430
 5086SOL    HW220076   3.009   2.494   5.162 -1.9279  0.7342  0.1772
 5086SOL    HW320077   2.973   2.396   5.053  0.2379  0.3846 -0.2833
 5086SOL    MW420078   2.961   2.427   5.133  0.1685  0.6570 -0.2955
 5087SOL     OW20079   3.489   6.101   0.806 -0.1212  0.1605 -0.0750
 5087SOL    HW220080   3.494   6.078   0.713 -2.8325  0.6844 -0.4385
 5087SOL    HW320081   3.515   6.022   0.852 -0.0708 -0.5473 -1.2786
 5087SOL    MW420082   3.493   6.088   0.799 -0.7259 -0.0753  0.8099
 5088SOL     OW20083   5.974   0.851   6.380 -0.1765 -0.0743  0.4406
 5088SOL    HW220084   5.899   0.815   6.332  0.0737  0.8864 -0.7415
 5088SOL    HW320085   5.937   0.881   6.463 -0.9668 -0.2390  0.1617
 5088SOL    MW420086   5.959   0.850   6.384 -0.0753  0.4663  0.1775
 5089SOL     OW20087   6.067   2.321   5.270 -0.2799  0.5312  0.0921
 5089SOL    HW220088   6.055   2.261   5.343 -0.2889  0.9426  0.4363
 5089SOL    HW320089   6.009   2.395   5.291  1.0417  1.4704  0.5771
 5089SOL    MW420090   6.058   2.323   5.283  0.1857 -0.1124 -0.4554
 5090SOL     OW20091   4.398   3.737   2.165  0.4106 -0.0229 -0.2657
 5090SOL    HW220092   4.389   3.683   2.243 -0.7124  0.0684 -0.3273
 5090SOL    HW320093   4.392   3.827   2.198 -2.3867  0.0196 -0.6777
 5090SOL    MW420094   4.396   3.742   2.180  0.1787 -0.4136  0.2259
 5091SOL     OW20095   3.453   3.239   0.734  0.4868  0.0565  0.2369
 5091SOL    HW220096   3.532   3.221   0.684  0.8074  1.6811  0.0833
 5091SOL    HW320097   3.476   3.313   0.790 -1.2078  1.2874 -0.5928
 5091SOL    MW420098   3.466   3.247   0.735  0.0358 -0.5104 -0.6234
 5092SOL     OW20099   2.900   1.836   3.846 -0.3503  0.1143 -0.2526
 5092SOL    HW220100   2.948   1.821   3.927  1.5161 -0.0463 -1.3345
 5092SOL    HW320101   2.878   1.748   3.815  1.4467 -0.0035 -1.3191
 5092SOL    MW420102   2.903   1.822   3.853  0.3932  0.5051  0.1160
 5093SOL     OW20103   1.637   4.471  -0.011 -0.1298  0.5787 -0.1350
 5093SOL    HW220104   1.693   4.451   0.064  0.2041 -0.0014 -0.5293
 5093SOL    HW320105   1.669   4.414  -0.081 -1.8609 -0.5570 -0.0913
 5093SOL    MW420106   1.648   4.461  -0.011  0.3222  0.1932  0.4425
 5094SOL     OW20107   3.827   4.327   1.456 -0.0320 -0.2629  0.7059
 5094SOL    HW220108   3.786   4.413   1.453 -0.5289 -0.5034  0.4114
 5094SOL    HW320109   3.897   4.336   1.519  0.1446  0.4560  0.4189
 5094SOL    MW420110   3.830   4.339   1.464  0.6287 -0.4504  0.1086
 5095SOL     OW20111   1.661   5.907   2.175  0.1240  0.0461 -0.1001
 5095SOL    HW220112   1.736   5.947   2.219  0.3606 -0.0378 -0.4217
 5095SOL    HW320113   1.699   5.862   2.099 -0.1741 -0.5275  0.0830
 5095SOL    MW420114   1.676   5.906   2.171  0.0856 -0.1652 -0.2064
 5096SOL     OW20115   6.287   1.279   1.103  0.3687 -0.1564 -0.0189
 5096SOL    HW220116   6.364   1.237   1.063 -0.0519  1.2255 -2.4754
 5096SOL    HW320117   6.316   1.368   1.124 -0.1089 -0.1473  0.6483
 5096SOL    MW420118   6.301   1.285   1.101  0.4344  0.5009 -0.5380
 5097SOL     OW20119   5.762   5.007   3.857 -0.2177  0.7019  0.0745
 5097SOL    HW220120   5.782   5.083   3.803  0.7132  0.4123  0.0056
 5097SOL    HW320121   5.730   4.941   3.796 -2.7436  1.5786  0.3215
 5097SOL    MW420122   5.760   5.009   3.842 -0.5158 -0.1022  0.0783
 5098SOL     OW20123   0.560   5.942   3.585 -0.6478  0.5477 -0.0686
 5098SOL    HW220124   0.652   5.968   3.584 -0.5697  0.3530  0.8847
 5098SOL    HW320125   0.513   6.021   3.557 -0.1654  0.4649 -1.1590
 5098SOL    MW420126   0.566   5.956   3.581  0.5711 -0.3112 -0.3888
 5099SOL     OW20127   0.703   0.861   2.270 -0.1683 -0.1708  0.1941
 5099SOL    HW220128   0.649   0.924   2.317  1.5234  1.6832 -0.2210
 5099SOL    HW320129   0.661   0.853   2.184 -1.0066 -0.4774  0.6211
 5099SOL    MW420130   0.690   0.868   2.265 -0.5921  0.1616 -0.1877
 5100SOL     OW20131   5.147   1.736   0.484 -0.3176  0.5981  0.1337
 5100SOL    HW220132   5.132   1.687   0.403 -1.0388 -1.8719  1.6715
 5100SOL    HW320133   5.087   1.810   0.478  0.4688  1.1286 -2.0724
 5100SOL    MW420134   5.137   1.739   0.472  0.3684 -0.4336  0.0652
 5101SOL     OW20135   1.855   3.503   0.495 -0.2656  0.0387 -0.3367
 5101SOL    HW220136   1.849   3.522   0.588  0.8451 -1.2129  0.0284
 5101SOL    HW320137   1.787   3.557   0.454 -1.0476  0.2880  1.2353
 5101SOL    MW420138   1.845   3.513   0.502  0.0992 -0.2088 -0.6154
 5102SOL     OW20139   4.311   0.295   1.097  0.0362  0.0002  0.1148
 5102SOL    HW220140   4.369   0.361   1.059 -1.4644  0.6738 -1.1193
 5102SOL    HW320141   4.308   0.316   1.190  0.9242  0.6116  0.0126
 5102SOL    MW420142   4.318   0.307   1.104  0.4606  0.2384 -0.7170
 5103SOL     OW20143   4.605   1.042   4.947 -0.5548  0.3412  0.0804
 5103SOL    HW220144   4.582   0.975   4.881  0.3198  0.4058 -0.3059
 5103SOL    HW320145   4.524   1.055   4.996 -1.7711  1.5596 -2.0844
 5103SOL    MW420146   4.591   1.035   4.944  0.3189 -0.5798 -0.3230
 5104SOL     OW20147   2.757   3.183   0.025 -0.2052 -0.4167  0.1202
 5104SOL    HW220148   2.709   3.116   0.073 -0.0269 -0.6649 -0.0473
 5104SOL    HW320149   2.695   3.256   0.019 -0.8106 -0.9724 -0.6567
 5104SOL    MW420150   2.742   3.184   0.030  0.0131 -0.3208  0.0151
 5105SOL     OW20151   2.160   2.806   1.547 -0.5038 -0.1719 -0.0316
 5105SOL    HW220152   2.137   2.791   1.455  0.4093  1.5158 -0.5800
 5105SOL    HW320153   2.246   2.763   1.557  0.3683  1.3857 -0.5706
 5105SOL    MW420154   2.168   2.798   1.536  0.1883 -0.1961 -0.6351
 5106SOL     OW20155   1.052   3.256   4.638 -0.3052  0.2869  0.1662
 5106SOL    HW220156   1.086   3.198   4.571 -2.3968  0.9369 -1.5722
 5106SOL    HW320157   1.089   3.342   4.618 -0.5314  0.3839  0.1608
 5106SOL    MW420158   1.061   3.259   4.627 -0.1184  0.1646  0.2403
 5107SOL     OW20159   0.773   4.436   3.777  0.8263 -0.0047  0.5749
 5107SOL    HW220160   0.835   4.509   3.785 -0.1172  0.7947  0.8950
 5107SOL    HW320161   0.771   4.417   3.683  0.2228  1.1872  0.3214
 5107SOL    MW420162   0.781   4.443   3.765  0.2057  0.2512 -0.0153
 5108SOL     OW20163   3.920   3.180   2.142  0.2726 -0.0520  0.0569
 5108SOL    HW220164   3.956   3.125   2.073  1.2526  2.1418 -1.2848
 5108SOL    HW320165   3.969   3.262   2.136 -2.4693  1.7753  0.5630
 5108SOL    MW420166   3.931   3.183   2.132  0.1399 -0.6320 -1.2433
 5109SOL     OW20167   1.298   3.656   5.371 -0.6653 -0.1529  0.1413
 5109SOL    HW220168   1.342   3.573   5.354 -1.2504 -0.6785  1.0739
 5109SOL    HW320169   1.284   3.694   5.285  0.3193 -0.6455 -0.2509
 5109SOL    MW420170   1.302   3.650   5.358 -0.1396  0.1798 -0.1844
 5110SOL     OW20171   0.382   6.129   5.353  0.1608  0.0069 -0.0952
 5110SOL    HW220172   0.354   6.102   5.440 -0.4000  0.0565 -0.2549
 5110SOL    HW320173   0.300   6.153   5.308  0.5245  0.8775 -0.3229
 5110SOL    MW420174   0.367   6.129   5.358 -0.3060 -0.7204  0.0357
 5111SOL     OW20175   1.625   3.806   3.665  0.0552 -0.6231  0.1126
 5111SOL    HW220176   1.624   3.731   3.723 -1.6644 -1.5949 -1.0684
 5111SOL    HW320177   1.563   3.783   3.595 -1.7321  2.4821  0.4855
 5111SOL    MW420178   1.617   3.793   3.663 -0.0867 -0.4502 -0.1784
 5112SOL     OW20179   4.701   3.663   0.754  0.0266  0.2196 -0.6823
 5112SOL    HW220180   4.677   3.697   0.668  0.1953  0.4877 -0.6248
 5112SOL    HW320181   4.710   3.569   0.741  2.4583  0.4946 -1.5418
 5112SOL    MW420182   4.699   3.655   0.741 -0.5235 -0.4064  0.8063
 5113SOL     OW20183   3.789   0.519   5.863  0.6523  0.1194 -0.4797
 5113SOL    HW220184   3.763   0.565   5.943 -1.7466  0.8884 -1.6045
 5113SOL    HW320185   3.862   0.569   5.828  2.2470 -0.6676  1.5624
 5113SOL    MW420186   3.795   0.531   5.869 -0.4454 -0.7153  0.2337
 5114SOL     OW20187   0.723   4.140   5.821 -0.7186 -0.0025  0.5462
 5114SOL    HW220188   0.788   4.147   5.750 -1.0632  2.4701  0.3821
 5114SOL    HW320189   0.648   4.097   5.781  0.0456 -1.0232  0.1688
 5114SOL    MW420190   0.722   4.135   5.806  0.3274  0.1899 -0.0218
 5115SOL     OW20191   2.228   2.158   0.803 -0.0436 -0.0775 -0.0980
 5115SOL    HW220192   2.263   2.247   0.798  1.8384 -0.7548  0.2528
 5115SOL    HW320193   2.177   2.147   0.722  1.6063  0.5542 -1.2715
 5115SOL    MW420194   2.226   2.169   0.792  0.0907 -0.2725  0.1261
 5116SOL     OW20195   3.406   4.852   1.806  0.0214  0.1339  0.2280
 5116SOL    HW220196   3.483   4.857   1.750  0.4427  0.1785  0.8128
 5116SOL    HW320197   3.334   4.833   1.745  0.3005  1.1992 -0.4653
 5116SOL    MW420198   3.406   4.850   1.791  1.0650 -0.0704 -0.2347
 5117SOL     OW20199   2.101   0.640   5.138 -0.1815  0.0678  0.2031
 5117SOL    HW220200   2.137   0.674   5.057  0.8437 -0.5374  0.3819
 5117SOL    HW320201   2.007   0.629   5.121 -0.1999  1.1484 -0.4578
 5117SOL    MW420202   2.093   0.643   5.125 -0.6057 -0.7676  0.2984
 5118SOL     OW20203   5.682   3.896   6.131 -0.0893  0.2525 -0.3261
 5118SOL    HW220204   5.735   3.830   6.175 -0.3086 -0.0110 -0.4564
 5118SOL    HW320205   5.743   3.969   6.115  0.4026 -0.3030 -1.0452
 5118SOL    MW420206   5.697   3.897   6.134  0.2795  0.0262  0.2923
 5119SOL     OW20207   2.520   2.973   2.243  0.6686  0.2489  0.7451
 5119SOL    HW220208   2.579   3.040   2.209  2.1239 -1.2247  0.2280
 5119SOL    HW320209   2.579   2.904   2.274 -0.7669 -2.0852 -1.4190
 5119SOL    MW420210   2.536   2.973   2.243 -0.4743 -0.0836 -0.8719
 5120SOL     OW20211   2.529   4.678   3.136 -0.2823  0.3178  0.0005
 5120SOL    HW220212   2.588   4.732   3.187 -1.1848  1.0664  0.2716
 5120SOL    HW320213   2.585   4.609   3.099  0.5674  0.4139  1.0745
 5120SOL    MW420214   2.544   4.676   3.138  0.1222 -0.1003 -0.3632
 5121SOL     OW20215   0.566   1.204   1.855  0.0659 -0.0472 -0.4022
 5121SOL    HW220216   0.608   1.249   1.928 -0.9063  0.0803  0.0864
 5121SOL    HW320217   0.509   1.270   1.815 -1.3423 -0.8013  0.2955
 5121SOL    MW420218   0.564   1.218   1.859 -0.7285  0.3883 -0.1848
 5122SOL     OW20219   5.154   2.548   2.729  0.1298 -0.1291  0.4364
 5122SOL    HW220220   5.196   2.553   2.815 -0.9726 -0.0976  0.9910
 5122SOL    HW320221   5.220   2.580   2.668  0.1411  2.0702  1.5257
 5122SOL    MW420222   5.168   2.553   2.732  0.5034 -0.8023  0.5443
 5123SOL     OW20223   5.825   6.334   2.290  0.3301  0.0530  0.7417
 5123SOL    HW220224   5.872   6.415   2.269 -0.2738 -0.1415 -1.6843
 5123SOL    HW320225   5.872   6.297   2.364  2.5686  1.0403 -0.1160
 5123SOL    MW420226   5.837   6.340   2.297 -0.0727  0.1274  0.2014
 5124SOL     OW20227   3.066   0.632   3.313  0.2144 -0.1129 -0.3054
 5124SOL    HW220228   3.034   0.543   3.326 -1.5807  0.5108 -0.2892
 5124SOL    HW320229   3.140   0.640   3.373  0.3996 -1.5871 -0.3165
 5124SOL    MW420230   3.072   0.622   3.323  0.4429  0.1498 -0.2077
 5125SOL     OW20231   4.907   4.988   5.241  0.4573  0.0099 -0.1337
 5125SOL    HW220232   4.957   4.928   5.186  1.2697 -1.2668  1.9117
 5125SOL    HW320233   4.874   4.934   5.313  0.3893  1.8065  1.2537
 5125SOL    MW420234   4.909   4.973   5.243  0.1895 -0.0173  0.7476
 5126SOL     OW20235   1.352   4.293   5.114  0.2793 -0.5876  0.3814
 5126SOL    HW220236   1.367   4.242   5.194  0.0891 -1.1241  0.0767
 5126SOL    HW320237   1.389   4.240   5.044  1.7127  0.5243  0.2615
 5126SOL    MW420238   1.359   4.279   5.115  0.3302 -0.6629  0.1499
 5127SOL     OW20239   6.329   4.497   4.733 -0.7290  0.0851 -0.2573
 5127SOL    HW220240   6.417   4.513   4.699 -0.4418 -0.6228  0.1332
 5127SOL    HW320241   6.271   4.518   4.660 -0.0993 -1.9333 -1.4125
 5127SOL    MW420242   6.333   4.502   4.719  0.1767  0.1898 -0.3727
 5128SOL     OW20243   1.787   0.495   4.163 -0.3168  0.2488 -0.1892
 5128SOL    HW220244   1.747   0.529   4.243 -0.5158 -0.2503 -0.0714
 5128SOL    HW320245   1.881   0.491   4.184 -0.1705  1.5661 -0.5207
 5128SOL    MW420246   1.794   0.499   4.177  0.7279  0.6080 -0.0462
 5129SOL     OW20247   4.478   0.665   3.823  0.2188 -0.6246  0.0838
 5129SOL    HW220248   4.484   0.694   3.732  1.0232  0.1009  0.3527
 5129SOL    HW320249   4.425   0.585   3.820 -0.5090 -0.1245 -0.9077
 5129SOL    MW420250   4.472   0.658   3.811 -0.8234 -0.0172 -0.0524
 5130SOL     OW20251   4.939   1.780   2.918  0.1471 -0.1006  0.5048
 5130SOL    HW220252   5.021   1.793   2.966  1.1070  1.8207 -1.4809
 5130SOL    HW320253   4.892   1.862   2.930 -1.7248 -1.3017  1.9029
 5130SOL    MW420254   4.944   1.793   2.926  0.6965  0.0357  0.0692
 5131SOL     OW20255   3.801   0.949   3.761  0.2380 -0.5124 -0.0615
 5131SOL    HW220256   3.795   1.038   3.795  0.6828 -1.5941  3.2081
 5131SOL    HW320257   3.895   0.936   3.745  0.1918 -0.4233 -0.3942
 5131SOL    MW420258   3.813   0.959   3.764 -0.0740  0.5175 -0.1679
 5132SOL     OW20259   3.190   4.879   3.425  0.6714  0.5291  0.2632
 5132SOL    HW220260   3.245   4.828   3.366 -0.3099 -1.7759  1.2012
 5132SOL    HW320261   3.141   4.938   3.368 -0.5529 -1.8804 -1.3746
 5132SOL    MW420262   3.191   4.880   3.410  0.2742  0.1387 -0.6676
 5133SOL     OW20263   3.723   2.417   4.859 -0.5849 -0.7169  0.4682
 5133SOL    HW220264   3.640   2.369   4.869 -1.5128  0.8297  0.5999
 5133SOL    HW320265   3.702   2.486   4.795  0.5112 -0.0889  0.7792
 5133SOL    MW420266   3.709   2.420   4.852  0.0469 -0.3588 -0.0971
 5134SOL     OW20267   0.102   5.055   0.604  0.5287 -0.3544  0.5004
 5134SOL    HW220268   0.120   4.967   0.571  1.1507  0.5792 -1.8562
 5134SOL    HW320269   0.024   5.083   0.557  1.9900  1.3935 -1.0048
 5134SOL    MW420270   0.094   5.047   0.594  0.6355  0.3591  0.9818
 5135SOL     OW20271   0.790   6.000   4.595 -0.2919  0.3523  0.3164
 5135SOL    HW220272   0.733   5.923   4.587  2.6853 -1.8045 -2.8006
 5135SOL    HW320273   0.815   6.002   4.687  1.0667 -3.7798  0.2430
 5135SOL    MW420274   0.786   5.990   4.606 -0.0318 -0.0605  0.0094
 5136SOL     OW20275   4.548   3.960   3.240 -0.2944  0.6370  0.2391
 5136SOL    HW220276   4.592   4.034   3.281  0.7378 -0.1900  0.6777
 5136SOL    HW320277   4.511   3.910   3.314  0.4330 -0.1510  0.0875
 5136SOL    MW420278   4.549   3.963   3.256 -0.0830  0.3069 -0.2982
 5137SOL     OW20279   3.792   1.582   0.394  0.0988  0.3839 -0.2083
 5137SOL    HW220280   3.710   1.532   0.391  0.2524  0.1112  0.0600
 5137SOL    HW320281   3.831   1.570   0.308 -0.9194  1.8507 -0.9217
 5137SOL    MW420282   3.786   1.574   0.382  0.4284 -0.0549  0.1100
 5138SOL     OW20283   3.152   4.152   2.270 -0.2519  0.3393  0.0608
 5138SOL    HW220284   3.129   4.059   2.278 -0.3451  0.2825 -0.7781
 5138SOL    HW320285   3.218   4.166   2.338  0.7345 -0.6666 -0.6716
 5138SOL    MW420286   3.157   4.141   2.280  0.0889 -0.2140  0.6080
 5139SOL     OW20287   2.432   6.429   0.144 -0.0926  0.1885 -0.1834
 5139SOL    HW220288   2.507   6.488   0.143  0.3681 -0.3825  0.3838
 5139SOL    HW320289   2.415   6.413   0.237  0.0221 -0.8696 -0.3355
 5139SOL    MW420290   2.439   6.435   0.156 -0.4639 -0.8000  0.1341
 5140SOL     OW20291   3.551   4.010  -0.021 -0.1990  0.4222 -0.2422
 5140SOL    HW220292   3.519   4.099  -0.033 -1.9726 -0.2788 -1.1065
 5140SOL    HW320293   3.563   3.976  -0.110 -0.3550 -0.4734  0.0626
 5140SOL    MW420294   3.548   4.017  -0.035 -0.0771 -0.3978  0.5307
 5141SOL     OW20295   4.901   3.777   3.451 -1.2113 -0.2700  0.2666
 5141SOL    HW220296   4.937   3.857   3.413 -0.0300 -0.5625  0.6963
 5141SOL    HW320297   4.883   3.800   3.542 -1.0677 -0.4328  0.3371
 5141SOL    MW420298   4.904   3.790   3.458  0.2852 -0.1325 -0.1697
 5142SOL     OW20299   4.068   1.813   0.649 -0.3575 -0.0803 -0.4336
 5142SOL    HW220300   4.097   1.834   0.560 -0.4849 -0.9050 -0.6790
 5142SOL    HW320301   4.096   1.722   0.662  0.6444  0.3649  0.7788
 5142SOL    MW420302   4.076   1.803   0.639 -0.4564 -0.7669  0.2145
 5143SOL     OW20303   3.119   3.966   0.071 -0.2928  0.2169 -0.6321
 5143SOL    HW220304   3.107   4.004  -0.016 -3.5093  1.4797  0.2143
 5143SOL    HW320305   3.144   4.041   0.126  1.7221 -0.5674 -0.3703
 5143SOL    MW420306   3.121   3.981   0.067  0.2117  0.2427 -0.4584
 5144SOL     OW20307   2.793   3.529   0.693  0.2598 -0.9651 -0.5730
 5144SOL    HW220308   2.722   3.487   0.741  1.0645 -0.6456  0.9754
 5144SOL    HW320309   2.753   3.606   0.653 -0.1671 -0.4208  0.8247
 5144SOL    MW420310   2.778   3.534   0.694 -0.0757  0.4757  0.5161
 5145SOL     OW20311   1.168   6.157   1.767 -0.0718  0.4515  0.0895
 5145SOL    HW220312   1.205   6.185   1.683  0.7761  2.6619  1.1104
 5145SOL    HW320313   1.174   6.062   1.766  0.9775  0.4877 -1.8807
 5145SOL    MW420314   1.173   6.148   1.756  0.1624  0.6371  0.5816
 5146SOL     OW20315   0.314   2.879   2.640  0.1112 -0.5726  0.1541
 5146SOL    HW220316   0.235   2.901   2.590 -0.1074 -0.6095  0.4762
 5146SOL    HW320317   0.282   2.824   2.712  0.5657 -1.4215 -0.2733
 5146SOL    MW420318   0.299   2.875   2.643 -0.1534  0.0273  0.1096
 5147SOL     OW20319   0.856   4.944   5.404  0.0821 -0.3638 -0.8119
 5147SOL    HW220320   0.873   4.897   5.485 -1.0354  0.0470 -0.3156
 5147SOL    HW320321   0.938   4.989   5.384  0.4865 -0.7925 -0.1278
 5147SOL    MW420322   0.869   4.944   5.412  0.0326  0.0716 -0.4352
 5148SOL     OW20323   6.361   6.155   2.686  0.1693 -0.0376  0.8019
 5148SOL    HW220324   6.343   6.077   2.634 -0.4702 -0.6498  1.8871
 5148SOL    HW320325   6.393   6.220   2.623 -1.1935 -0.5184 -0.4563
 5148SOL    MW420326   6.363   6.153   2.671  0.5177  0.6776  0.5047
 5149SOL     OW20327   5.484   5.405   5.979  0.1364 -0.0497  0.0234
 5149SOL    HW220328   5.509   5.496   5.964 -0.1563  0.2715  1.3299
 5149SOL    HW320329   5.555   5.368   6.032 -0.1858 -0.2978  0.2916
 5149SOL    MW420330   5.496   5.412   5.984  0.3302  0.3625 -0.1367
 5150SOL     OW20331   2.611   0.973   3.708  0.1429  0.0547 -0.4643
 5150SOL    HW220332   2.691   0.937   3.746  0.7047  2.0061  0.3285
 5150SOL    HW320333   2.540   0.939   3.763  0.4205 -1.4046 -0.9629
 5150SOL    MW420334   2.612   0.964   3.721 -0.4558 -0.1066 -0.1230
 5151SOL     OW20335   0.187   0.145   4.896  0.2051  0.0547 -0.5071
 5151SOL    HW220336   0.098   0.118   4.875  0.7414 -0.1759 -2.7728
 5151SOL    HW320337   0.206   0.217   4.835  1.6772 -0.1273 -0.3136
 5151SOL    MW420338   0.178   0.151   4.885 -0.6018  0.4879 -0.1586
 5152SOL     OW20339   2.634   1.834   5.420 -0.0700  0.1635  0.1534
 5152SOL    HW220340   2.670   1.748   5.442 -0.0170  0.3587  0.8593
 5152SOL    HW320341   2.610   1.827   5.328  0.8848 -0.2848 -0.0772
 5152SOL    MW420342   2.636   1.822   5.411  0.4745 -0.1299  0.0177
 5153SOL     OW20343   1.023   0.995   4.025 -0.4121  0.4052 -0.3291
 5153SOL    HW220344   1.028   0.999   4.120 -2.6834 -0.8714 -0.0853
 5153SOL    HW320345   1.112   1.012   3.995  0.2630  1.2227  1.9915
 5153SOL    MW420346   1.035   0.998   4.033 -0.2097 -0.2871  0.0934
 5154SOL     OW20347   0.328   4.191   3.373  0.4740  0.7412 -0.3906
 5154SOL    HW220348   0.353   4.199   3.281  0.0983 -1.1065 -0.6951
 5154SOL    HW320349   0.300   4.279   3.398 -1.3465  0.8947 -2.6223
 5154SOL    MW420350   0.328   4.204   3.364 -0.3699 -0.4559 -0.7472
 5155SOL     OW20351   2.622   3.206   2.108 -0.8784 -0.5103  0.5349
 5155SOL    HW220352   2.717   3.207   2.116 -0.9114 -1.5926  1.2997
 5155SOL    HW320353   2.592   3.274   2.167 -0.5550  0.3760 -0.3034
 5155SOL    MW420354   2.630   3.215   2.117 -0.1308 -0.2430 -0.0089
 5156SOL     OW20355   5.963   6.020   6.194  0.8508  0.1029 -0.4916
 5156SOL    HW220356   6.018   5.973   6.258  1.3163  0.8504 -0.3335
 5156SOL    HW320357   6.009   6.008   6.111  1.2668  0.7285 -0.3593
 5156SOL    MW420358   5.976   6.012   6.192  0.5098  0.1632  0.2770
 5157SOL     OW20359   6.223   4.530   3.035 -0.0842  0.1782 -0.2092
 5157SOL    HW220360   6.278   4.503   2.962 -1.5912  0.4430 -1.4992
 5157SOL    HW320361   6.159   4.591   2.997 -0.1393  1.3268  1.5752
 5157SOL    MW420362   6.221   4.535   3.021 -0.4219  0.5301  0.1436
 5158SOL     OW20363   0.214   6.137   1.548  0.1680 -0.4190  0.1916
 5158SOL    HW220364   0.289   6.083   1.573 -0.2761 -0.9002  0.5024
 5158SOL    HW320365   0.239   6.226   1.575  0.0619 -0.7851  1.6021
 5158SOL    MW420366   0.227   6.142   1.555  0.2597  0.3431 -0.5166
 5159SOL     OW20367   4.880   4.934   5.520  0.7086 -0.2234 -0.3500
 5159SOL    HW220368   4.970   4.956   5.543  0.4883 -1.5998  2.2625
 5159SOL    HW320369   4.827   4.992   5.574  0.1116 -1.9672  1.0280
 5159SOL    MW420370   4.885   4.945   5.530 -0.5648 -0.5833  0.1244
 5160SOL     OW20371   1.154   5.646   0.700  0.5294 -0.2288  0.1781
 5160SOL    HW220372   1.231   5.620   0.751 -0.1571 -1.2996  0.7129
 5160SOL    HW320373   1.189   5.699   0.628  1.7080 -0.3035  0.6748
 5160SOL    MW420374   1.168   5.650   0.697 -0.3119  0.0954 -0.3233
 5161SOL     OW20375   4.711   1.492   1.467  0.8446  0.4865  0.8458
 5161SOL    HW220376   4.664   1.538   1.397 -0.5862  0.1874  1.5563
 5161SOL    HW320377   4.690   1.399   1.453  1.8393  0.2621  0.7606
 5161SOL    MW420378   4.702   1.486   1.456  0.3868  0.0492 -0.0785
 5162SOL     OW20379   4.625   1.373   6.139  0.2605 -0.2438 -0.5391
 5162SOL    HW220380   4.665   1.323   6.210  2.0313 -1.8570 -2.5001
 5162SOL    HW320381   4.571   1.308   6.092  0.4162  0.3531 -1.5777
 5162SOL    MW420382   4.623   1.358   6.142  0.4778  0.3352 -0.4420
 5163SOL     OW20383   0.377   6.297   2.116  0.3773  0.3790  0.1630
 5163SOL    HW220384   0.285   6.289   2.141  0.2883  0.4311 -0.1513
 5163SOL    HW320385   0.383   6.258   2.029  0.6780  0.2585  0.2335
 5163SOL    MW420386   0.366   6.291   2.108  0.0188  0.4105 -0.0736
 5164SOL     OW20387   1.005   1.614   0.388 -0.0800  0.4282 -0.1228
 5164SOL    HW220388   0.971   1.683   0.445  0.2294  0.4735  0.0105
 5164SOL    HW320389   0.965   1.632   0.303  2.1637  2.5337 -0.8738
 5164SOL    MW420390   0.995   1.626   0.384  0.3987 -0.0004 -0.4834
 5165SOL     OW20391   2.624   3.762   0.437  0.1211  0.1991 -0.9406
 5165SOL    HW220392   2.543   3.812   0.437  1.1110  1.9173 -0.4246
 5165SOL    HW320393   2.603   3.680   0.482 -1.6430 -0.0357 -2.0983
 5165SOL    MW420394   2.611   3.758   0.443  0.1355 -0.0919 -0.0509
 5166SOL     OW20395   3.816   3.706   2.789 -0.1871 -0.2097  0.0261
 5166SOL    HW220396   3.780   3.653   2.717 -0.0105 -0.2525 -0.0321
 5166SOL    HW320397   3.825   3.644   2.861  0.7218 -0.4439 -0.2674
 5166SOL    MW420398   3.812   3.691   2.789  0.0241 -0.0045  0.0079
 5167SOL     OW20399   5.345   5.508   4.836  0.1060  0.6366 -0.3394
 5167SOL    HW220400   5.374   5.585   4.788 -0.1465  0.9264 -0.0312
 5167SOL    HW320401   5.313   5.448   4.768  0.3015  0.8048 -0.5782
 5167SOL    MW420402   5.344   5.510   4.821  0.3399 -0.1020  0.6544
 5168SOL     OW20403   1.506   1.018   5.081  0.1885 -0.1528  0.1046
 5168SOL    HW220404   1.582   1.021   5.023  0.4897  0.4720  0.5150
 5168SOL    HW320405   1.443   0.963   5.035  0.7533 -0.3894 -0.4073
 5168SOL    MW420406   1.508   1.011   5.067 -0.3310 -0.1772 -0.1880
 5169SOL     OW20407   2.095   2.397   0.016  0.2762 -0.0063  0.1302
 5169SOL    HW220408   2.116   2.343   0.092 -1.3964 -0.9851 -0.0359
 5169SOL    HW320409   2.179   2.424  -0.019  1.1175 -0.9274  1.3616
 5169SOL    MW420410   2.109   2.393   0.021  0.1376 -0.1769 -0.5083
 5170SOL     OW20411   3.658   5.493   3.916 -0.5085 -0.0998  0.5496
 5170SOL    HW220412   3.689   5.504   4.006  1.9336  0.4980 -0.2649
 5170SOL    HW320413   3.576   5.542   3.911  0.2858  1.4645  1.9897
 5170SOL    MW420414   3.652   5.501   3.927 -0.2790  0.0100  0.1115
 5171SOL     OW20415   0.579   5.354   3.742 -0.2539  0.4632  0.5579
 5171SOL    HW220416   0.492   5.326   3.715 -0.1416  0.0375  0.6370
 5171SOL    HW320417   0.635   5.278   3.728 -0.1845  0.2275  1.9339
 5171SOL    MW420418   0.575   5.340   3.737  0.3000  0.1501 -0.2746
 5172SOL     OW20419   4.553   5.100   3.377 -0.3882  0.3633 -0.2827
 5172SOL    HW220420   4.547   5.175   3.318  0.2185 -0.8243 -1.8994
 5172SOL    HW320421   4.577   5.139   3.462 -1.8285  2.1621 -0.6169
 5172SOL    MW420422   4.555   5.115   3.381 -0.2645 -0.0463 -0.1951
 5173SOL     OW20423   0.397   1.107   5.406  0.1387 -0.3110  0.0280
 5173SOL    HW220424   0.371   1.196   5.382 -2.2481 -0.2737  2.3018
 5173SOL    HW320425   0.490   1.102   5.384  0.3185  2.6923 -0.2962
 5173SOL    MW420426   0.406   1.118   5.400  0.1640 -0.0838  0.1607
 5174SOL     OW20427   3.071   6.121   3.378  0.4862  0.7183 -0.2374
 5174SOL    HW220428   2.997   6.171   3.342  0.0424  0.6502  0.5431
 5174SOL    HW320429   3.135   6.118   3.307  0.3782  2.0852 -0.4345
 5174SOL    MW420430   3.069   6.128   3.364 -0.1123  0.7152 -0.4792
 5175SOL     OW20431   1.770   1.936   3.829 -0.6623  0.4202  0.1148
 5175SOL    HW220432   1.755   2.006   3.765 -1.6516  0.3300  0.2279
 5175SOL    HW320433   1.862   1.945   3.854 -0.1099  0.1692 -1.6762
 5175SOL    MW420434   1.780   1.946   3.824 -0.1684  0.3894 -0.5636
 5176SOL     OW20435   4.097   1.105   0.408 -0.3535 -0.5222 -0.3710
 5176SOL    HW220436   4.067   1.044   0.475  2.4328 -1.2998  0.2864
 5176SOL    HW320437   4.036   1.179   0.414 -0.9356 -1.1153  2.1754
 5176SOL    MW420438   4.085   1.107   0.418 -0.5586  0.6692  0.5965
 5177SOL     OW20439   2.945   1.677   1.108  0.0233  0.9692  0.4001
 5177SOL    HW220440   2.975   1.646   1.193  0.1653 -0.5260 -0.1679
 5177SOL    HW320441   2.886   1.609   1.076 -1.2305  2.2080 -0.0614
 5177SOL    MW420442   2.941   1.664   1.115  0.0823 -0.3715 -0.3384
 5178SOL     OW20443   5.382   3.172   3.604  0.4931 -0.3968 -0.4872
 5178SOL    HW220444   5.359   3.080   3.590  0.3667 -0.1110 -2.3616
 5178SOL    HW320445   5.451   3.169   3.671 -1.3039 -1.6371  1.4401
 5178SOL    MW420446   5.388   3.159   3.611 -0.4401 -0.6022  0.4418
 5179SOL     OW20447   2.174   3.054   0.528  0.0927  0.4584 -0.1527
 5179SOL    HW220448   2.184   2.980   0.468 -0.8687 -0.5274  0.8599
 5179SOL    HW320449   2.128   3.121   0.477  0.4854  0.1682 -0.9080
 5179SOL    MW420450   2.169   3.053   0.513  0.0178  0.1679 -0.0340
 5180SOL     OW20451   2.015   0.227   4.137 -0.2173  0.5193  0.9441
 5180SOL    HW220452   2.042   0.138   4.158  1.2404  1.0029  1.2499
 5180SOL    HW320453   1.923   0.232   4.164 -0.6215 -1.1717 -0.0035
 5180SOL    MW420454   2.006   0.216   4.143  0.0464 -0.1385 -0.1130
 5181SOL     OW20455   5.161   0.914   0.310  0.1005  0.1043  0.6891
 5181SOL    HW220456   5.107   0.842   0.277  0.1125  0.0399  0.8082
 5181SOL    HW320457   5.210   0.875   0.382  0.9825 -0.0746  0.0061
 5181SOL    MW420458   5.160   0.899   0.315  0.1285  0.5224 -0.3000
 5182SOL     OW20459   1.959   2.044   1.606 -0.3188 -0.7660 -0.0087
 5182SOL    HW220460   1.967   2.067   1.698 -1.8327 -1.1187  0.2458
 5182SOL    HW320461   1.969   2.127   1.559 -0.0258 -0.5140  0.4970
 5182SOL    MW420462   1.961   2.058   1.612 -0.5278 -0.8947  0.3233
 5183SOL     OW20463   1.174   1.066   0.531  0.1894 -0.5941  0.5640
 5183SOL    HW220464   1.241   0.998   0.534 -0.4959 -1.2680  1.3935
 5183SOL    HW320465   1.116   1.039   0.459  1.0548  0.2605 -0.4894
 5183SOL    MW420466   1.175   1.053   0.522 -0.1693  0.5927  0.6187
 5184SOL     OW20467   1.779   2.536   4.920 -0.1034  0.3522  0.6768
 5184SOL    HW220468   1.764   2.545   5.014 -2.1756  0.9019  0.3350
 5184SOL    HW320469   1.838   2.608   4.899 -1.9352  2.0477  1.1024
 5184SOL    MW420470   1.785   2.546   4.930 -0.3165 -0.4671 -0.1879
 5185SOL     OW20471   5.252   0.387   1.083 -0.3273  0.1318  0.7418
 5185SOL    HW220472   5.162   0.414   1.102 -1.3746 -3.0937  1.1023
 5185SOL    HW320473   5.262   0.304   1.130  1.8194 -1.1123 -1.6549
 5185SOL    MW420474   5.241   0.379   1.092  0.0227  0.8646  0.1724
 5186SOL     OW20475   4.787   1.473   3.015  0.1150 -0.3948  0.4704
 5186SOL    HW220476   4.712   1.523   2.985  0.6450  0.1116 -0.0391
 5186SOL    HW320477   4.788   1.395   2.959  2.2997  1.5019 -2.4214
 5186SOL    MW420478   4.778   1.469   3.004  0.1168  0.0456  0.2003
 5187SOL     OW20479   2.862   3.404   0.433 -0.3287 -0.7733  0.0034
 5187SOL    HW220480   2.836   3.429   0.522 -2.5434  0.3443 -0.8605
 5187SOL    HW320481   2.822   3.471   0.378  2.0511 -0.7196 -1.7755
 5187SOL    MW420482   2.853   3.416   0.438 -0.4946 -0.1728  0.0021
 5188SOL     OW20483   0.137   2.523   5.737  0.1110 -0.1970 -0.2783
 5188SOL    HW220484   0.187   2.458   5.687  0.6379 -1.0841  1.3214
 5188SOL    HW320485   0.197   2.551   5.806  0.1749  2.6247 -1.3469
 5188SOL    MW420486   0.151   2.518   5.739  0.5377 -0.0948 -0.6275
 5189SOL     OW20487   0.860   3.928   2.153  0.1564 -0.0637 -0.7413
 5189SOL    HW220488   0.895   3.844   2.122 -0.5119 -0.3281 -0.7979
 5189SOL    HW320489   0.774   3.905   2.191  0.2852  0.4837 -0.1021
 5189SOL    MW420490   0.853   3.914   2.154 -0.0792  0.3985  0.1201
 5190SOL     OW20491   6.271   3.218   2.872  0.6332  0.2798  0.2561
 5190SOL    HW220492   6.263   3.234   2.778  1.9991  0.6632  0.1871
 5190SOL    HW320493   6.275   3.305   2.911  0.2887  0.1192  0.6576
 5190SOL    MW420494   6.270   3.232   2.865 -0.2770  0.3248  0.2226
 5191SOL     OW20495   3.440   2.052   4.073 -0.0448 -0.4194  0.4300
 5191SOL    HW220496   3.478   1.964   4.068 -0.7741 -0.6858 -1.0321
 5191SOL    HW320497   3.512   2.110   4.049 -0.2310 -0.8373 -1.2438
 5191SOL    MW420498   3.455   2.048   4.069 -0.0645 -0.0661 -1.0084
 5192SOL     OW20499   3.912   0.015   4.912  0.0530 -0.6717 -0.5727
 5192SOL    HW220500   3.857  -0.057   4.946 -1.8984  1.3416  0.8484
 5192SOL    HW320501   3.862   0.050   4.838  0.0950  0.2781 -0.1689
 5192SOL    MW420502   3.898   0.010   4.907  0.3867  0.5746 -0.1289
 5193SOL     OW20503   2.778   0.983   5.092 -0.0132  0.0621  0.0971
 5193SOL    HW220504   2.760   0.975   4.999  2.1372 -1.5948 -0.2486
 5193SOL    HW320505   2.846   0.918   5.110 -0.4000  0.2705  2.8500
 5193SOL    MW420506   2.785   0.974   5.082 -0.6151 -0.4251 -0.1919
 5194SOL     OW20507   2.475   0.571   2.313  0.1402 -0.1914 -0.0277
 5194SOL    HW220508   2.485   0.524   2.230  1.2211  1.5846 -0.9781
 5194SOL    HW320509   2.510   0.511   2.379  1.0079 -0.9250 -1.1105
 5194SOL    MW420510   2.481   0.557   2.311  0.2596 -0.2798 -0.7310
 5195SOL     OW20511   0.154   4.037   2.898  0.4686  0.2323 -0.1547
 5195SOL    HW220512   0.066   4.044   2.861  0.0881 -1.7348  0.2710
 5195SOL    HW320513   0.183   3.949   2.873  1.9940  0.5493  0.4119
 5195SOL    MW420514   0.146   4.027   2.890  0.1264  0.1515  0.0922
 5196SOL     OW20515   2.375   0.358   2.717  0.5906  0.1371 -0.2275
 5196SOL    HW220516   2.407   0.284   2.768  0.4732  0.2551  0.0185
 5196SOL    HW320517   2.356   0.321   2.631  0.9818 -0.0195 -0.2486
 5196SOL    MW420518   2.377   0.343   2.712 -0.0863  0.2431  0.5660
 5197SOL     OW20519   2.084   4.858   2.802  0.0024  0.3405  0.1821
 5197SOL    HW220520   2.079   4.792   2.733  1.3871 -0.8614  1.1853
 5197SOL    HW320521   2.021   4.829   2.868 -2.5265  2.3291 -1.1262
 5197SOL    MW420522   2.075   4.846   2.801  0.0759 -0.4995  0.2331
 5198SOL     OW20523   4.949   1.386   3.420  0.1600  0.0920 -0.1370
 5198SOL    HW220524   4.877   1.358   3.363  1.2223 -1.3617 -0.8383
 5198SOL    HW320525   5.006   1.438   3.362  0.7306 -0.5444 -0.1626
 5198SOL    MW420526   4.947   1.390   3.405 -0.1299  0.9400  0.6672
 5199SOL     OW20527   0.618   5.452   0.679 -0.2162  0.2278 -0.9217
 5199SOL    HW220528   0.713   5.441   0.671 -0.2060 -0.4926 -0.0107
 5199SOL    HW320529   0.608   5.534   0.729 -0.1488  1.4588 -2.8415
 5199SOL    MW420530   0.629   5.462   0.685  0.4032 -0.0077 -0.3592
 5200SOL     OW20531   5.143   3.914   5.315 -0.1665 -0.2092 -0.2036
 5200SOL    HW220532   5.074   3.968   5.353  0.8476 -0.3017  1.9114
 5200SOL    HW320533   5.126   3.916   5.221 -2.9822 -0.1871  0.2203
 5200SOL    MW420534   5.132   3.921   5.307  0.2183  0.2069 -0.3589
 5201SOL     OW20535   4.814   2.705   5.708 -0.0678 -0.5442 -0.5990
 5201SOL    HW220536   4.786   2.616   5.688 -0.6532 -0.6001  0.4067
 5201SOL    HW320537   4.824   2.706   5.803  0.8486  0.2077 -0.6874
 5201SOL    MW420538   4.812   2.693   5.718  0.0139  0.7430  0.5098
 5202SOL     OW20539   4.602   1.016   0.058 -0.1854 -0.0217  0.4299
 5202SOL    HW220540   4.658   0.939   0.051 -0.1768 -0.0664  0.9286
 5202SOL    HW320541   4.545   0.997   0.133 -2.7383 -1.1753 -1.6552
 5202SOL    MW420542   4.601   1.003   0.067 -0.3561  0.1908  0.3286
 5203SOL     OW20543   3.772   3.304   1.045  0.2065 -0.2175 -0.1941
 5203SOL    HW220544   3.733   3.232   1.096  2.1662 -2.0189 -1.1170
 5203SOL    HW320545   3.696   3.352   1.011 -1.2158 -2.4637 -0.4006
 5203SOL    MW420546   3.757   3.301   1.048  0.0773  0.3218 -0.0406
 5204SOL     OW20547   2.944   3.007   3.045  0.0293  0.2583 -0.0110
 5204SOL    HW220548   3.012   2.941   3.054 -0.1916 -0.1415 -1.0466
 5204SOL    HW320549   2.885   2.993   3.119  2.1666  2.0050  2.1629
 5204SOL    MW420550   2.945   2.997   3.056 -0.3760  0.5310 -0.2394
 5205SOL     OW20551   2.953   0.391   5.610  0.5769 -0.0087  0.0642
 5205SOL    HW220552   2.915   0.403   5.696 -0.6353 -1.8048 -0.1867
 5205SOL    HW320553   3.046   0.410   5.622  0.2616  0.7483  1.5088
 5205SOL    MW420554   2.960   0.395   5.623  0.1838 -0.1010  0.4442
 5206SOL     OW20555   1.297   2.525   1.109  0.2744 -0.0516 -0.1623
 5206SOL    HW220556   1.215   2.514   1.061  1.2693 -1.7971 -1.5829
 5206SOL    HW320557   1.289   2.466   1.184 -0.5836  1.4088  0.9692
 5206SOL    MW420558   1.285   2.516   1.113  0.9484 -0.2410 -0.0518
 5207SOL     OW20559   0.858   5.088   4.157 -0.3445 -0.2769  0.2137
 5207SOL    HW220560   0.801   5.099   4.233 -0.3925  1.2360  0.0012
 5207SOL    HW320561   0.800   5.097   4.082  0.0522  0.6770  0.0006
 5207SOL    MW420562   0.843   5.091   4.158 -0.0407  0.1715 -0.0423
 5208SOL     OW20563   2.147   4.385   4.718  0.2144 -0.1024  0.3530
 5208SOL    HW220564   2.241   4.368   4.724  0.1430 -0.2829  0.9942
 5208SOL    HW320565   2.125   4.428   4.800  0.0345  1.4121 -0.4620
 5208SOL    MW420566   2.157   4.388   4.729 -0.3010 -0.0718  0.6535
 5209SOL     OW20567   0.495   5.475   3.978 -0.2679 -0.3348 -0.1932
 5209SOL    HW220568   0.428   5.533   3.941  0.3084 -0.4446 -1.4734
 5209SOL    HW320569   0.534   5.433   3.902  0.4760 -1.1359  0.6162
 5209SOL    MW420570   0.492   5.477   3.963  0.3606 -0.1783 -0.8106
 5210SOL     OW20571   2.883   1.375   1.769  0.4401 -0.1909 -0.4088
 5210SOL    HW220572   2.789   1.358   1.768  0.3030 -0.0708  2.5015
 5210SOL    HW320573   2.923   1.288   1.760  0.0463 -0.3562 -0.5690
 5210SOL    MW420574   2.876   1.361   1.767 -0.5607  0.1941 -0.5595
 5211SOL     OW20575   3.340   2.141   5.824 -0.1204  0.5062 -0.2339
 5211SOL    HW220576   3.410   2.084   5.854  1.1692  1.6811 -0.8877
 5211SOL    HW320577   3.292   2.088   5.760 -0.2620 -0.5380  0.7189
 5211SOL    MW420578   3.343   2.127   5.819  0.4315  0.5524 -0.1812
 5212SOL     OW20579   2.970   5.668   1.239 -0.2022  0.0365  0.1774
 5212SOL    HW220580   2.880   5.677   1.268 -0.8501 -0.5121 -1.5117
 5212SOL    HW320581   2.997   5.757   1.217 -1.1042 -0.0385 -1.3604
 5212SOL    MW420582   2.962   5.681   1.240  0.0424  0.0555  0.0400
 5213SOL     OW20583   4.150   5.829   0.377 -0.2280  0.7277 -0.2065
 5213SOL    HW220584   4.082   5.798   0.318 -0.2901  1.0725 -0.3212
 5213SOL    HW320585   4.204   5.887   0.323  0.6074 -0.1266 -0.3140
 5213SOL    MW420586   4.148   5.833   0.362 -0.1224  0.1438  0.3941
 5214SOL     OW20587   4.763   1.898   2.654 -0.2625  0.5312 -0.5136
 5214SOL    HW220588   4.858   1.906   2.664 -0.4976  1.2567  1.7839
 5214SOL    HW320589   4.747   1.803   2.653  0.5335  0.3832 -2.0643
 5214SOL    MW420590   4.773   1.886   2.655 -0.0579 -0.2941  0.6084
 5215SOL     OW20591   4.847   3.034   1.731 -0.1966  0.3399 -0.0980
 5215SOL    HW220592   4.755   3.005   1.727 -0.2992  0.6919 -0.3116
 5215SOL    HW320593   4.857   3.069   1.820 -0.2833  0.3491 -0.0916
 5215SOL    MW420594   4.836   3.035   1.742  0.0381  0.0614  0.0065
 5216SOL     OW20595   6.194   1.405   0.071  0.3423 -0.1183 -0.2148
 5216SOL    HW220596   6.171   1.403   0.164  0.7835 -0.0307 -0.1022
 5216SOL    HW320597   6.206   1.313   0.046 -0.2653 -0.1786 -0.3144
 5216SOL    MW420598   6.193   1.393   0.080  0.1210  0.5469  0.0103
 5217SOL     OW20599   2.150   3.236   5.171 -0.1303  0.1218  0.3062
 5217SOL    HW220600   2.213   3.226   5.242  1.4110  0.3102 -0.9911
 5217SOL    HW320601   2.157   3.327   5.145  1.3671 -0.5512 -1.8727
 5217SOL    MW420602   2.159   3.246   5.177  0.2269 -0.4084  0.6036
 5218SOL     OW20603   3.368   2.374   5.180 -0.1642 -0.0210 -0.3825
 5218SOL    HW220604   3.347   2.374   5.273 -0.0724  1.7891 -0.3369
 5218SOL    HW320605   3.299   2.321   5.140 -0.1693 -0.8734  0.6993
 5218SOL    MW420606   3.356   2.367   5.187 -0.2032 -0.1527  0.0595
 5219SOL     OW20607   1.436   1.068   5.508  0.0337  0.1899  0.1517
 5219SOL    HW220608   1.523   1.092   5.476  0.5486  1.2417  2.1922
 5219SOL    HW320609   1.378   1.136   5.474  0.3207  0.5021  0.2908
 5219SOL    MW420610   1.440   1.080   5.499  0.1496 -0.4326 -0.0072
 5220SOL     OW20611   3.422   2.839   5.227  0.5734  0.1122 -0.5583
 5220SOL    HW220612   3.358   2.875   5.166 -0.0032  0.6562  0.3514
 5220SOL    HW320613   3.456   2.761   5.182  1.2725  1.3100 -2.2321
 5220SOL    MW420614   3.418   2.833   5.213  0.1806  0.2931  0.5944
 5221SOL     OW20615   5.804   0.114   4.581  0.0329 -0.6265  0.1120
 5221SOL    HW220616   5.719   0.116   4.626  0.3911 -0.1972  0.7888
 5221SOL    HW320617   5.823   0.021   4.569 -0.6077 -0.7240 -0.1970
 5221SOL    MW420618   5.795   0.102   4.586  0.6041  0.3871 -0.1269
 5222SOL     OW20619   4.917   2.765   1.763  0.3765 -0.1973 -0.0673
 5222SOL    HW220620   4.906   2.857   1.738  2.0225 -0.1099 -0.5783
 5222SOL    HW320621   4.971   2.768   1.842 -0.1411 -0.7047  0.3130
 5222SOL    MW420622   4.923   2.777   1.770 -0.7364  0.2540 -0.3327
 5223SOL     OW20623   4.918   6.429   5.188 -0.1626  0.1488 -0.0585
 5223SOL    HW220624   4.835   6.475   5.175 -1.0849 -1.2388  0.6306
 5223SOL    HW320625   4.909   6.387   5.274  1.3804  0.2140  0.1555
 5223SOL    MW420626   4.906   6.429   5.198 -0.2080 -0.4190  0.1785
 5224SOL     OW20627   2.016   1.343   4.932 -0.0205  0.1577  0.4959
 5224SOL    HW220628   2.051   1.372   4.848 -0.1469 -0.8967  0.0654
 5224SOL    HW320629   1.935   1.297   4.910 -0.0452 -0.1442  1.1845
 5224SOL    MW420630   2.010   1.341   4.918 -0.3488 -0.2653 -0.4792
 5225SOL     OW20631   0.199   2.182   0.932  0.6526 -0.3378  0.2277
 5225SOL    HW220632   0.152   2.239   0.870  0.7935  0.8456  1.1675
 5225SOL    HW320633   0.291   2.202   0.917  0.6723  0.2356  1.0582
 5225SOL    MW420634   0.205   2.193   0.922  0.3540 -0.2547 -0.5300
 5226SOL     OW20635   1.738   6.125   5.300  0.2185  0.6064 -0.1918
 5226SOL    HW220636   1.668   6.062   5.316  0.4180 -0.3381 -2.6131
 5226SOL    HW320637   1.702   6.209   5.329 -0.9035 -0.2375  0.9871
 5226SOL    MW420638   1.724   6.128   5.306  0.6628  0.3000  0.2140
 5227SOL     OW20639   4.457   5.419   2.248  0.3955  0.1275 -0.0720
 5227SOL    HW220640   4.365   5.443   2.236 -0.0398 -1.8331 -0.9141
 5227SOL    HW320641   4.491   5.486   2.309 -1.0377  2.0477 -1.2665
 5227SOL    MW420642   4.449   5.431   2.255  0.2813 -0.3401  0.2548
 5228SOL     OW20643   0.192   5.333   5.576 -0.1770 -0.3237  0.3199
 5228SOL    HW220644   0.144   5.279   5.638 -1.3450  0.3752  0.0624
 5228SOL    HW320645   0.186   5.287   5.493  0.5345 -0.7663  0.5065
 5228SOL    MW420646   0.185   5.320   5.573  0.3402 -0.0686  0.0681
 5229SOL     OW20647   5.492   4.294   4.763 -0.4656  0.0693  0.2245
 5229SOL    HW220648   5.573   4.343   4.756 -0.6176  0.2860 -0.0427
 5229SOL    HW320649   5.505   4.235   4.838  1.0320 -1.9545 -1.5314
 5229SOL    MW420650   5.504   4.292   4.772 -0.2275 -0.2166 -0.3210
 5230SOL     OW20651   4.023   4.259   4.505 -0.4736 -0.0774  0.0623
 5230SOL    HW220652   4.012   4.350   4.533 -1.8983 -0.4395  0.7897
 5230SOL    HW320653   3.976   4.255   4.421 -0.1199 -0.0665 -0.1368
 5230SOL    MW420654   4.015   4.270   4.498 -0.0361 -0.1344 -0.0533
 5231SOL     OW20655   3.576   0.268   5.910 -0.1730  0.5523 -0.6467
 5231SOL    HW220656   3.656   0.295   5.954 -1.5888  1.4249  1.5379
 5231SOL    HW320657   3.519   0.345   5.916 -1.3664 -0.2193 -1.7060
 5231SOL    MW420658   3.579   0.282   5.916 -0.2719 -0.3073 -0.0871
 5232SOL     OW20659   6.036   3.479   4.453  0.5675 -0.1189 -0.5511
 5232SOL    HW220660   5.962   3.420   4.439  0.0353  0.4677 -0.2536
 5232SOL    HW320661   6.026   3.509   4.543  1.9145 -1.0435 -0.0625
 5232SOL    MW420662   6.025   3.475   4.463 -0.7810  0.2614 -0.3001
 5233SOL     OW20663   1.879   2.890   1.904  0.1022  0.3515  0.0988
 5233SOL    HW220664   1.803   2.947   1.895  0.3583  0.9692  1.4854
 5233SOL    HW320665   1.861   2.815   1.847 -0.8023  1.2326 -0.8106
 5233SOL    MW420666   1.867   2.888   1.896 -0.3298  0.2083 -0.3003
 5234SOL     OW20667   1.796   5.975   4.171  0.3973 -0.6005  0.0202
 5234SOL    HW220668   1.860   5.907   4.156  0.0609 -0.8183 -0.4379
 5234SOL    HW320669   1.745   5.980   4.090  1.0671  0.8930 -0.3428
 5234SOL    MW420670   1.798   5.967   4.159  0.0412  0.0373 -0.4835
 5235SOL     OW20671   5.973   4.710   0.263  0.2885 -0.4249  0.1836
 5235SOL    HW220672   5.913   4.669   0.326  0.8555  0.4613  1.3533
 5235SOL    HW320673   5.915   4.752   0.199 -0.4867  1.8845  2.2349
 5235SOL    MW420674   5.957   4.710   0.263 -0.3119 -0.8827  0.3974
 5236SOL     OW20675   5.616   6.095   2.526  0.2317  0.1721  0.1918
 5236SOL    HW220676   5.539   6.152   2.519  0.5511  0.4927 -1.0690
 5236SOL    HW320677   5.638   6.075   2.435  0.8225 -1.0300  0.5905
 5236SOL    MW420678   5.609   6.100   2.513  0.0600  0.2827 -0.1886
 5237SOL     OW20679   3.075   5.349   1.488  0.3594 -0.2985 -0.5903
 5237SOL    HW220680   3.060   5.298   1.409  1.4802  0.0086 -1.0128
 5237SOL    HW320681   3.149   5.306   1.531  0.6046  0.3107 -0.3926
 5237SOL    MW420682   3.083   5.337   1.483  0.4613 -0.1694  0.8221
 5238SOL     OW20683   0.365   5.483   2.217 -0.3077 -0.0995  0.2884
 5238SOL    HW220684   0.356   5.445   2.129 -1.5841 -0.5863  0.6087
 5238SOL    HW320685   0.297   5.550   2.221 -0.0081  0.1825  0.7857
 5238SOL    MW420686   0.355   5.487   2.206 -0.3322  1.0198  0.4479
 5239SOL     OW20687   0.676   0.211   3.104  0.1469 -0.3028  0.3090
 5239SOL    HW220688   0.693   0.136   3.162  0.2204 -1.0222 -0.6168
 5239SOL    HW320689   0.650   0.171   3.021 -1.0405  0.7297  0.1643
 5239SOL    MW420690   0.675   0.196   3.101  0.0213  0.0079 -0.1865
 5240SOL     OW20691   0.542   6.284   4.588  0.0562 -0.9542 -0.3155
 5240SOL    HW220692   0.593   6.301   4.509 -0.2057 -1.2990 -0.5616
 5240SOL    HW320693   0.490   6.364   4.600 -0.2498 -1.0861 -0.7598
 5240SOL    MW420694   0.542   6.297   4.579 -0.6394 -0.0734  0.2556
 5241SOL     OW20695   5.083   4.146   0.173  0.0183  0.1577 -0.4062
 5241SOL    HW220696   5.062   4.101   0.091  1.3316  0.8296 -1.1396
 5241SOL    HW320697   5.108   4.234   0.146  2.7755 -0.2656  0.4147
 5241SOL    MW420698   5.084   4.152   0.158 -0.1943  0.6514  0.4165
 5242SOL     OW20699   6.253   0.574   3.227  0.1306  0.1319  0.3262
 5242SOL    HW220700   6.178   0.617   3.269  1.4295  1.2300  1.6391
 5242SOL    HW320701   6.296   0.527   3.298  0.5200 -0.7557 -0.4794
 5242SOL    MW420702   6.248   0.573   3.242 -0.1240  0.8918  0.1316
 5243SOL     OW20703   3.444   5.694   6.355 -0.4223 -0.2964  0.1162
 5243SOL    HW220704   3.371   5.713   6.414  0.6504 -0.5771  1.5961
 5243SOL    HW320705   3.507   5.646   6.409  0.6405 -0.5254 -1.2554
 5243SOL    MW420706   3.443   5.690   6.370  0.1406  0.1228 -0.0207
 5244SOL     OW20707   4.751   5.111   2.034  0.4401  0.6738  0.3681
 5244SOL    HW220708   4.759   5.205   2.050 -1.0331  1.1773 -1.5437
 5244SOL    HW320709   4.685   5.082   2.096 -0.6292  1.3545 -0.4087
 5244SOL    MW420710   4.743   5.119   2.044 -0.7344 -0.3601 -0.7054
 5245SOL     OW20711   4.520   4.149   1.223  0.3965  0.1583  0.2583
 5245SOL    HW220712   4.530   4.175   1.131 -1.0917  3.0843  0.7980
 5245SOL    HW320713   4.435   4.105   1.225 -1.1313  2.8821  0.6074
 5245SOL    MW420714   4.510   4.147   1.211 -0.1821 -0.3968 -0.0950
 5246SOL     OW20715   3.941   1.244   2.691  0.4069  0.1045 -0.3505
 5246SOL    HW220716   3.862   1.212   2.733  1.2972  0.0925  1.4251
 5246SOL    HW320717   3.950   1.334   2.722  0.8246  0.2717 -0.9332
 5246SOL    MW420718   3.932   1.252   2.701 -0.4843 -0.3224  0.0913
 5247SOL     OW20719   3.224   1.152   2.834 -0.5534 -0.0870  0.3325
 5247SOL    HW220720   3.260   1.175   2.920 -0.4758 -0.0859  0.3001
 5247SOL    HW320721   3.256   1.063   2.818  1.0985  0.6288 -0.5751
 5247SOL    MW420722   3.233   1.143   2.843  0.1700 -0.0562 -1.0067
 5248SOL     OW20723   4.595   0.430   5.472  0.0726 -0.2060  0.2054
 5248SOL    HW220724   4.533   0.499   5.496  0.5535  0.2504  0.1609
 5248SOL    HW320725   4.679   0.460   5.508  0.9220  0.6861 -2.3600
 5248SOL    MW420726   4.598   0.443   5.480 -0.0302 -0.3158  0.0257
 5249SOL     OW20727   2.597   1.123   0.629  0.0865 -0.1566  0.2505
 5249SOL    HW220728   2.562   1.177   0.700 -0.6981 -0.7376  0.3239
 5249SOL    HW320729   2.543   1.044   0.630 -0.6547  0.2570 -1.6610
 5249SOL    MW420730   2.585   1.119   0.638  0.5295  0.1136  0.8460
 5250SOL     OW20731   3.661   0.571   0.003  0.1312  0.4141 -0.4379
 5250SOL    HW220732   3.722   0.612  -0.059 -0.1293  0.6357 -0.5471
 5250SOL    HW320733   3.609   0.643   0.037  0.3147  0.3035  0.0925
 5250SOL    MW420734   3.662   0.586  -0.001  0.1281  0.0064  0.1487
 5251SOL     OW20735   5.289   1.403   1.472 -0.2406 -0.1353 -0.0207
 5251SOL    HW220736   5.366   1.455   1.449 -0.2688 -0.5188 -1.0238
 5251SOL    HW320737   5.236   1.462   1.526  0.6957  0.1679  0.6076
 5251SOL    MW420738   5.292   1.418   1.476 -0.0919  0.6552  0.1150
 5252SOL     OW20739   2.264   2.555   3.230 -0.0891 -0.5821  0.0244
 5252SOL    HW220740   2.299   2.625   3.175 -1.7960 -0.0631 -0.4849
 5252SOL    HW320741   2.263   2.478   3.173 -1.1785 -0.2179 -0.4885
 5252SOL    MW420742   2.268   2.554   3.215  0.5492 -0.4283 -0.0456
 5253SOL     OW20743   3.752   3.157   5.778 -0.8347 -0.2784  0.1652
 5253SOL    HW220744   3.785   3.166   5.868 -1.8581 -2.1411  0.7852
 5253SOL    HW320745   3.780   3.237   5.734  2.0683 -0.4959  1.3879
 5253SOL    MW420746   3.760   3.168   5.784  0.1626 -0.1378 -0.0029
 5254SOL     OW20747   6.123   6.200   0.901 -0.2702 -0.4605 -0.1012
 5254SOL    HW220748   6.094   6.168   0.986 -0.4428  0.7497  0.3152
 5254SOL    HW320749   6.043   6.205   0.849 -0.2807 -0.4875 -0.0870
 5254SOL    MW420750   6.108   6.197   0.905 -0.2697 -0.3008 -0.4857
 5255SOL     OW20751   6.124   1.878   2.765  0.2919  0.1165 -0.2067
 5255SOL    HW220752   6.215   1.880   2.738  0.2427  0.6638 -0.3491
 5255SOL    HW320753   6.106   1.786   2.786  1.3111  0.2273  1.3159
 5255SOL    MW420754   6.133   1.866   2.764 -0.4661  0.2873  0.1982
 5256SOL     OW20755   3.517   5.823   5.340  0.0700 -0.2439  0.4915
 5256SOL    HW220756   3.526   5.918   5.329  0.8075  0.0583  3.1098
 5256SOL    HW320757   3.436   5.813   5.391  0.4622 -0.9449  0.9882
 5256SOL    MW420758   3.507   5.834   5.345 -0.4981 -0.1507 -0.4712
 5257SOL     OW20759   4.980   5.772   4.928  0.3287  0.0381  0.2771
 5257SOL    HW220760   4.888   5.746   4.926  0.4116 -0.2409 -0.7471
 5257SOL    HW320761   5.027   5.691   4.948  0.4161 -0.0452 -0.2553
 5257SOL    MW420762   4.974   5.758   4.930  0.6138  0.7622 -0.4902
 5258SOL     OW20763   4.530   5.964   4.164 -0.2238  0.2293 -0.8944
 5258SOL    HW220764   4.526   5.872   4.189  1.4707  0.2876 -0.3158
 5258SOL    HW320765   4.623   5.987   4.169 -0.4842  1.6948 -2.0598
 5258SOL    MW420766   4.541   5.955   4.168  0.1167  0.0537  0.2062
 5259SOL     OW20767   2.915   5.744   2.724 -0.5661 -0.1962 -0.0058
 5259SOL    HW220768   2.929   5.837   2.745  1.0276 -0.0154 -1.6336
 5259SOL    HW320769   2.849   5.745   2.655  0.4891 -0.1341 -1.0418
 5259SOL    MW420770   2.908   5.757   2.718  0.3595 -0.3364 -0.1399
 5260SOL     OW20771   0.119   1.169   0.498 -0.1663 -0.2520 -0.2276
 5260SOL    HW220772   0.212   1.169   0.521 -0.0116  1.7953 -0.6164
 5260SOL    HW320773   0.093   1.077   0.499  1.2944 -0.7321  2.1225
 5260SOL    MW420774   0.128   1.157   0.501 -0.0899 -0.1530  0.1693
 5261SOL     OW20775   4.183   2.991   2.884 -0.0745  0.0614 -0.0657
 5261SOL    HW220776   4.164   2.901   2.858 -0.1027  0.1844 -0.4789
 5261SOL    HW320777   4.222   2.983   2.971  1.2058 -0.4528 -0.6723
 5261SOL    MW420778   4.185   2.978   2.892  0.0867  0.8064 -0.6292
 5262SOL     OW20779   2.090   1.827   4.041 -0.2857  0.0629  0.3411
 5262SOL    HW220780   2.069   1.773   3.965 -1.3789 -1.0497  1.3797
 5262SOL    HW320781   2.027   1.799   4.108  0.4662  1.1955  1.5690
 5262SOL    MW420782   2.079   1.816   4.040 -0.3940 -0.2763 -0.2280
 5263SOL     OW20783   3.189   5.101   4.613 -0.1363  0.3091 -0.3913
 5263SOL    HW220784   3.277   5.065   4.602  0.1010  0.7129  0.1108
 5263SOL    HW320785   3.163   5.129   4.525 -0.6865 -1.8293 -0.9795
 5263SOL    MW420786   3.197   5.100   4.600 -0.0995 -0.3312  1.2508
 5264SOL     OW20787   4.601   4.515   5.341  0.0334  0.8686 -0.0050
 5264SOL    HW220788   4.670   4.582   5.348  0.9126 -0.0420  0.3584
 5264SOL    HW320789   4.582   4.510   5.248  2.2524 -0.5731 -0.4510
 5264SOL    MW420790   4.608   4.523   5.330  0.4683  0.2517 -0.0062
 5265SOL     OW20791   4.856   6.132   3.725 -0.9149  0.0001  0.3454
 5265SOL    HW220792   4.862   6.092   3.812 -1.9159 -1.8625 -0.3812
 5265SOL    HW320793   4.894   6.219   3.736  0.8212 -0.9063  2.1786
 5265SOL    MW420794   4.862   6.138   3.738  0.5191 -0.0781 -0.1039
 5266SOL     OW20795   0.729   5.490   4.990  0.0885  0.3832 -0.2368
 5266SOL    HW220796   0.740   5.444   5.074 -0.0562 -0.9690 -0.9310
 5266SOL    HW320797   0.638   5.522   4.992  0.2739  0.8953  0.3661
 5266SOL    MW420798   0.718   5.488   5.002 -0.4654 -0.1077 -0.1733
 5267SOL     OW20799   1.058   5.839   0.863  0.4972 -0.3763 -0.3540
 5267SOL    HW220800   1.068   5.787   0.783 -0.7629 -0.2893 -0.5978
 5267SOL    HW320801   1.078   5.778   0.934 -0.0571 -0.9439 -0.6719
 5267SOL    MW420802   1.062   5.824   0.862 -0.1928 -0.0535 -0.0118
 5268SOL     OW20803   1.840   0.699   3.445  0.0114 -0.3685  0.8922
 5268SOL    HW220804   1.894   0.666   3.373 -0.8019 -2.2473  1.0875
 5268SOL    HW320805   1.764   0.739   3.401  0.4936  0.3317  0.6780
 5268SOL    MW420806   1.837   0.700   3.430 -0.2845 -0.2284 -0.1801
 5269SOL     OW20807   0.099   4.435   4.357 -0.0891 -0.0604  0.6974
 5269SOL    HW220808   0.049   4.470   4.284 -0.3106 -0.7850  0.4951
 5269SOL    HW320809   0.159   4.372   4.317 -0.6737 -0.9571  1.2098
 5269SOL    MW420810   0.100   4.431   4.342  0.5015 -0.4142  0.2050
 5270SOL     OW20811   6.237   0.206   3.401 -0.6055  0.4145 -0.4586
 5270SOL    HW220812   6.244   0.155   3.482 -0.9437 -1.4432 -1.5155
 5270SOL    HW320813   6.143   0.204   3.380 -0.6201  1.4991 -0.5243
 5270SOL    MW420814   6.225   0.199   3.409 -0.3663  0.6654  0.6194
 5271SOL     OW20815   3.184   4.012   2.803 -0.1688  0.1367  0.0528
 5271SOL    HW220816   3.252   4.055   2.856  1.1856 -1.0424 -0.6572
 5271SOL    HW320817   3.114   4.077   2.797  1.0833  1.5878  0.4386
 5271SOL    MW420818   3.184   4.026   2.809  0.3576  0.3573 -0.6923
 5272SOL     OW20819   2.300   6.293   5.812  0.0840  0.1879  0.7694
 5272SOL    HW220820   2.289   6.348   5.889 -0.4452  0.3152  0.6022
 5272SOL    HW320821   2.215   6.293   5.769  0.2832 -0.1535  0.3619
 5272SOL    MW420822   2.287   6.300   5.816  0.6951  0.1703 -0.0915
 5273SOL     OW20823   0.012   1.801   6.210 -0.2736  0.1351 -0.3123
 5273SOL    HW220824  -0.075   1.828   6.181 -0.3318  1.0628  0.6960
 5273SOL    HW320825  -0.003   1.750   6.290  0.0601 -0.3538 -0.5523
 5273SOL    MW420826  -0.001   1.798   6.217  0.3063  0.4113  0.6911
 5274SOL     OW20827   3.862   3.284   1.710  0.0237  0.2215 -0.3923
 5274SOL    HW220828   3.768   3.289   1.691  0.3012 -0.0535 -1.9071
 5274SOL    HW320829   3.905   3.303   1.627  1.3012 -1.1810 -0.0936
 5274SOL    MW420830   3.855   3.287   1.697 -0.1562  0.3591 -0.5213
 5275SOL     OW20831   6.124   3.956   4.456  0.1979 -0.5992  0.0474
 5275SOL    HW220832   6.099   3.880   4.403  1.2074 -0.9937  0.1153
 5275SOL    HW320833   6.155   4.021   4.393 -1.1595 -0.0166 -0.0586
 5275SOL    MW420834   6.125   3.954   4.441  0.4996  0.0132  0.3221
 5276SOL     OW20835   1.979   6.344   0.033 -0.1312  0.2447 -0.1200
 5276SOL    HW220836   1.952   6.326  -0.057  1.1929  0.4947 -0.5872
 5276SOL    HW320837   2.070   6.373   0.026  0.4272 -0.9659  1.4170
 5276SOL    MW420838   1.988   6.346   0.020  0.0185  0.0758  0.0705
 5277SOL     OW20839   4.142   4.868   1.949 -0.0173 -0.2189  0.0307
 5277SOL    HW220840   4.065   4.888   1.896  1.2184 -0.3355 -1.8751
 5277SOL    HW320841   4.111   4.875   2.040 -2.4927 -1.2129 -0.6648
 5277SOL    MW420842   4.128   4.872   1.954  0.5622  0.0875  0.2525
 5278SOL     OW20843   1.555   5.255   0.462  0.1619  0.4408 -0.3765
 5278SOL    HW220844   1.651   5.260   0.467  0.1746 -0.3519  0.4827
 5278SOL    HW320845   1.532   5.310   0.387  1.4456 -0.9292 -1.8570
 5278SOL    MW420846   1.565   5.263   0.453  0.1651  0.3808  0.1549
 5279SOL     OW20847   0.919   4.801   5.049  0.3874 -0.3804 -0.2682
 5279SOL    HW220848   0.884   4.835   4.967  1.3439 -0.3245 -0.6703
 5279SOL    HW320849   0.982   4.867   5.077  1.2627 -1.1642 -0.3454
 5279SOL    MW420850   0.923   4.814   5.042  0.3464  0.3805  0.5957
 5280SOL     OW20851   3.787   4.300   1.812 -0.5424  0.0153 -0.2193
 5280SOL    HW220852   3.817   4.389   1.826 -1.1826  0.2869 -0.5719
 5280SOL    HW320853   3.734   4.280   1.890  0.0780 -0.2754  0.1429
 5280SOL    MW420854   3.784   4.309   1.824 -0.1383 -0.4802 -0.1586
 5281SOL     OW20855   1.724   5.601   3.632  0.0676  0.2915 -0.2322
 5281SOL    HW220856   1.725   5.506   3.646 -2.1876  0.2008 -0.3758
 5281SOL    HW320857   1.812   5.621   3.600  0.9569 -1.5607  0.8907
 5281SOL    MW420858   1.736   5.591   3.630 -0.1669 -0.6270  0.2001
 5282SOL     OW20859   2.522   4.741   0.176  0.3210  0.2535  0.1646
 5282SOL    HW220860   2.475   4.742   0.259  1.4426 -0.9611  0.8409
 5282SOL    HW320861   2.455   4.766   0.111 -0.4489  1.7337  1.4388
 5282SOL    MW420862   2.507   4.745   0.178  0.2077 -0.1884 -0.1175
 5283SOL     OW20863   0.874   2.577   1.367  0.3697  0.3446 -0.4591
 5283SOL    HW220864   0.924   2.647   1.326  0.9272  0.8642  1.0341
 5283SOL    HW320865   0.911   2.568   1.455 -1.4242  0.0042  0.3289
 5283SOL    MW420866   0.885   2.585   1.374 -0.6625  0.6992 -0.8773
 5284SOL     OW20867   3.579   4.123   1.709  0.0855 -0.1732  0.4732
 5284SOL    HW220868   3.649   4.177   1.746 -0.5855 -0.3083  2.0166
 5284SOL    HW320869   3.532   4.182   1.649  2.3395 -0.4787 -1.7548
 5284SOL    MW420870   3.582   4.138   1.706 -0.5773  0.4794 -0.0912
 5285SOL     OW20871   2.518   0.295   0.540 -0.1193  0.1592  0.3600
 5285SOL    HW220872   2.562   0.271   0.458  0.0269  1.3495  0.0797
 5285SOL    HW320873   2.567   0.248   0.607  0.0325 -0.4819 -0.1793
 5285SOL    MW420874   2.530   0.285   0.538 -0.0323 -0.3548 -0.1626
 5286SOL     OW20875   3.428   0.582   1.767 -0.1842  0.0778  0.5308
 5286SOL    HW220876   3.439   0.553   1.677  1.7101  0.4194  0.6002
 5286SOL    HW320877   3.430   0.502   1.819  0.9215  0.0132  0.4127
 5286SOL    MW420878   3.430   0.568   1.762 -1.1285 -0.5984 -0.2737
 5287SOL     OW20879   6.347   5.577   5.839 -0.0786 -0.2522 -0.2388
 5287SOL    HW220880   6.323   5.668   5.857 -0.2010 -0.2677 -0.3198
 5287SOL    HW320881   6.426   5.583   5.785 -0.1383 -0.1922 -0.3194
 5287SOL    MW420882   6.354   5.590   5.834 -0.6734  0.4263  0.2161
 5288SOL     OW20883   4.084   1.309   2.457 -0.5902  0.4221 -0.6725
 5288SOL    HW220884   4.050   1.273   2.539 -0.0883 -0.4182 -0.8226
 5288SOL    HW320885   4.041   1.259   2.388  1.0056 -0.7615 -0.8659
 5288SOL    MW420886   4.074   1.298   2.458 -0.0088  0.0103  0.6800
 5289SOL     OW20887   6.138   1.397   0.334  0.1135 -0.9107  0.2562
 5289SOL    HW220888   6.155   1.306   0.359 -0.9779 -1.3473 -0.5338
 5289SOL    HW320889   6.071   1.426   0.396  0.7612 -0.4796  0.7826
 5289SOL    MW420890   6.132   1.389   0.346  0.2546 -0.2899  0.5692
 5290SOL     OW20891   5.228   1.196   5.669 -0.2745 -0.3144 -0.3221
 5290SOL    HW220892   5.133   1.206   5.670 -0.3228 -0.2162  2.2124
 5290SOL    HW320893   5.262   1.285   5.671 -0.1165 -0.3460 -1.4045
 5290SOL    MW420894   5.220   1.209   5.670 -0.8200  0.2837  0.1603
 5291SOL     OW20895   1.343   3.455   0.104 -0.4116 -0.1592  0.1517
 5291SOL    HW220896   1.327   3.544   0.134 -2.0093  1.1282 -3.8772
 5291SOL    HW320897   1.287   3.400   0.159 -0.9916  1.5554  1.3447
 5291SOL    MW420898   1.334   3.460   0.116  0.0837 -0.2558 -0.2350
 5292SOL     OW20899   0.778   5.448   0.030 -0.0765  0.2863  0.0248
 5292SOL    HW220900   0.777   5.354   0.012  2.5911  0.3088 -0.5945
 5292SOL    HW320901   0.756   5.455   0.123 -1.7092 -0.7984 -0.2368
 5292SOL    MW420902   0.775   5.436   0.040 -1.2168  0.4607 -0.3390
 5293SOL     OW20903   5.731   4.388   4.404  0.1937 -0.4716 -0.3632
 5293SOL    HW220904   5.725   4.308   4.352  0.8418 -1.3708  0.8789
 5293SOL    HW320905   5.643   4.401   4.439 -0.4263  0.5339 -2.1779
 5293SOL    MW420906   5.719   4.379   4.402 -0.3756 -0.3717  0.3448
 5294SOL     OW20907   6.343   5.319   0.039  0.1720 -0.0281  0.3567
 5294SOL    HW220908   6.382   5.293  -0.045 -0.8062  0.5521 -0.3038
 5294SOL    HW320909   6.373   5.409   0.052 -0.7599  0.3624 -0.0718
 5294SOL    MW420910   6.352   5.328   0.030  0.0516  0.2333  0.3828
 5295SOL     OW20911   0.500   2.905   2.056 -0.2826  0.5897  0.6432
 5295SOL    HW220912   0.529   2.861   1.977 -0.8124  2.7055 -0.8321
 5295SOL    HW320913   0.513   2.842   2.126  0.7447 -1.1512 -1.0467
 5295SOL    MW420914   0.506   2.891   2.055 -0.1344  0.3564 -0.4436
 5296SOL     OW20915   1.797   1.987   0.955  0.1706 -0.4870  0.1053
 5296SOL    HW220916   1.774   1.935   1.032  0.8839 -0.5518  0.2792
 5296SOL    HW320917   1.827   2.070   0.990  1.4964 -0.8879 -0.0387
 5296SOL    MW420918   1.798   1.991   0.970 -0.3687 -0.1958 -0.3192
 5297SOL     OW20919   3.220   4.200   0.245  0.6786  0.2152  0.3200
 5297SOL    HW220920   3.176   4.259   0.306  1.2878 -0.2148  1.2015
 5297SOL    HW320921   3.308   4.235   0.237  0.1184  1.3156 -1.7680
 5297SOL    MW420922   3.226   4.212   0.252  0.5996  0.4129  0.1355
 5298SOL     OW20923   5.443   1.946   1.756  0.3306  0.6452  0.4445
 5298SOL    HW220924   5.393   1.884   1.703 -0.5134  0.8462  0.9918
 5298SOL    HW320925   5.387   1.965   1.831  2.6581 -1.9574  3.0951
 5298SOL    MW420926   5.429   1.941   1.759 -0.0795  0.0665  0.5715
 5299SOL     OW20927   2.426   6.187   0.983 -0.2214  0.3727 -0.2753
 5299SOL    HW220928   2.457   6.103   1.017  0.6700  1.0001  0.5087
 5299SOL    HW320929   2.500   6.223   0.935 -1.4268 -0.4622 -2.9605
 5299SOL    MW420930   2.440   6.180   0.981 -0.3230  0.8393 -0.4255
 5300SOL     OW20931   1.421   5.257   4.128  0.6046 -0.1303 -0.0836
 5300SOL    HW220932   1.479   5.299   4.065 -0.5373  2.2398  0.3176
 5300SOL    HW320933   1.333   5.269   4.091  0.2349 -2.7042 -0.1753
 5300SOL    MW420934   1.417   5.264   4.115 -0.2348 -1.2975  0.3127
 5301SOL     OW20935   0.470   4.148   5.496 -0.7189  0.3880 -0.2088
 5301SOL    HW220936   0.379   4.170   5.515 -1.1439 -0.4481 -1.1412
 5301SOL    HW320937   0.464   4.067   5.445  0.6109 -0.2567  0.6185
 5301SOL    MW420938   0.457   4.141   5.492 -0.3342  1.1092 -0.2684
 5302SOL     OW20939   3.415   3.856   3.263 -0.1904 -0.0923 -0.2757
 5302SOL    HW220940   3.478   3.799   3.220 -0.0181 -0.4236  0.4018
 5302SOL    HW320941   3.342   3.863   3.201  0.9407  1.1580 -1.5282
 5302SOL    MW420942   3.414   3.849   3.249 -0.3979  0.1231 -0.1651
 5303SOL     OW20943   4.867   0.037   4.459 -0.2623  0.4945  0.7165
 5303SOL    HW220944   4.962   0.050   4.460  0.2951 -2.4183 -1.0051
 5303SOL    HW320945   4.855  -0.052   4.491 -2.0770 -0.3383 -1.9136
 5303SOL    MW420946   4.878   0.027   4.463 -0.4627  0.1187  0.1555
 5304SOL     OW20947   3.352   5.693   4.350  0.8779  0.5230 -0.0762
 5304SOL    HW220948   3.303   5.630   4.402  1.3489  1.5357  1.6566
 5304SOL    HW320949   3.295   5.770   4.345  0.2728  0.0046 -2.2447
 5304SOL    MW420950   3.338   5.694   4.356  0.9382  0.6260  0.5653
 5305SOL     OW20951   0.229   5.502   5.936  0.3113  0.0454 -0.2034
 5305SOL    HW220952   0.165   5.436   5.960  0.1881 -0.3467 -1.5482
 5305SOL    HW320953   0.179   5.584   5.934  0.4579  0.2255  1.4277
 5305SOL    MW420954   0.214   5.504   5.939 -0.0158 -0.4015 -0.1239
 5306SOL     OW20955   2.539   4.004   1.368 -0.3747  0.1176  0.2728
 5306SOL    HW220956   2.584   3.920   1.362 -1.4111 -0.5776  1.7188
 5306SOL    HW320957   2.539   4.025   1.461 -0.2503  1.6748 -0.0472
 5306SOL    MW420958   2.545   3.996   1.380 -0.2321 -0.7041  0.2733
 5307SOL     OW20959   0.260   6.410   5.997 -0.1581 -0.3753 -0.2963
 5307SOL    HW220960   0.336   6.355   5.976 -0.0746 -0.6279  0.6376
 5307SOL    HW320961   0.299   6.494   6.022 -0.2659 -0.0178 -1.2916
 5307SOL    MW420962   0.275   6.414   5.997  0.2076  0.3309  0.2910
 5308SOL     OW20963   1.880   4.567   4.090 -0.2061 -0.1250 -0.9343
 5308SOL    HW220964   1.888   4.625   4.165  1.9295  0.3523 -1.4577
 5308SOL    HW320965   1.828   4.493   4.122 -0.3197  0.6011  0.6467
 5308SOL    MW420966   1.874   4.564   4.104 -0.5741 -0.1265 -0.5983
 5309SOL     OW20967   0.122   6.289   4.533 -0.0873 -0.1597  0.8743
 5309SOL    HW220968   0.058   6.217   4.531  1.6065 -1.7415 -0.8238
 5309SOL    HW320969   0.198   6.252   4.579  1.8516 -0.5435 -2.2925
 5309SOL    MW420970   0.124   6.274   4.539  0.6968 -0.3259 -0.5771
 5310SOL     OW20971   5.700   4.631   2.670 -0.2976  0.3236  0.1860
 5310SOL    HW220972   5.654   4.551   2.645 -2.4307  1.1658  1.2054
 5310SOL    HW320973   5.715   4.622   2.764  1.5778  0.1243 -0.1005
 5310SOL    MW420974   5.696   4.620   2.679 -0.0650  0.2627  0.1682
 5311SOL     OW20975   2.336   4.798   6.394 -0.1139 -0.3457  0.3958
 5311SOL    HW220976   2.396   4.867   6.365 -1.0090  0.5492  0.6329
 5311SOL    HW320977   2.249   4.836   6.385 -0.6146 -1.3901  0.6954
 5311SOL    MW420978   2.333   4.812   6.389  0.2698  0.4534  0.2229
 5312SOL     OW20979   1.990   2.036   6.133 -0.4138  0.0041 -0.2865
 5312SOL    HW220980   2.079   2.025   6.167 -0.9720 -1.5875  0.8208
 5312SOL    HW320981   1.944   2.084   6.203 -0.8624 -0.8196  0.0059
 5312SOL    MW420982   1.996   2.041   6.147  0.2744 -0.5685 -0.1236
 5313SOL     OW20983   4.186   2.021   0.805 -0.1915  0.1694  0.0070
 5313SOL    HW220984   4.129   1.970   0.749 -1.4277 -0.1867  1.5298
 5313SOL    HW320985   4.275   2.002   0.774 -0.8202 -0.1456 -1.6655
 5313SOL    MW420986   4.190   2.012   0.793  0.1323  0.3618 -0.5218
 5314SOL     OW20987   5.144   6.201   1.622 -0.5974 -0.2817 -0.5000
 5314SOL    HW220988   5.053   6.175   1.604 -1.8448  2.9569  0.4470
 5314SOL    HW320989   5.165   6.263   1.552 -0.4232  1.5873  1.1108
 5314SOL    MW420990   5.135   6.206   1.610 -0.7647 -0.0017 -0.0912
 5315SOL     OW20991   0.900   2.155   3.203 -0.4564 -0.0572  0.3453
 5315SOL    HW220992   0.889   2.150   3.108 -0.0047  2.9910  0.0403
 5315SOL    HW320993   0.992   2.180   3.215 -0.4845 -0.4831  1.6229
 5315SOL    MW420994   0.911   2.157   3.192 -0.0642  0.4008  0.2155
 5316SOL     OW20995   1.208   2.574   3.823 -0.4397  0.1776 -0.3362
 5316SOL    HW220996   1.139   2.523   3.865  0.7942 -1.1444  0.1768
 5316SOL    HW320997   1.248   2.624   3.895 -0.0696 -0.0144 -0.4061
 5316SOL    MW420998   1.204   2.574   3.838  0.3000  0.2291 -0.0757
 5317SOL     OW20999   1.510   4.948   2.782  0.2240 -0.1159  0.1905
 5317SOL    HW221000   1.595   4.912   2.756 -0.1013  0.3815 -1.7153
 5317SOL    HW321001   1.446   4.882   2.756 -0.1109  0.3667 -0.2459
 5317SOL    MW421002   1.513   4.935   2.775  0.1033  0.3178  0.2867
 5318SOL     OW21003   3.614   0.728   3.364 -0.1570  0.1538 -0.4061
 5318SOL    HW221004   3.636   0.754   3.275  0.3267 -0.1475 -0.3821
 5318SOL    HW321005   3.576   0.806   3.404 -2.0188 -0.1911 -1.3950
 5318SOL    MW421006   3.612   0.742   3.357  0.0987 -0.6337  0.5723
 5319SOL     OW21007   1.412   5.735   3.930  0.2631  0.0040 -0.2913
 5319SOL    HW221008   1.388   5.653   3.887 -0.9000 -0.0097  0.3577
 5319SOL    HW321009   1.390   5.721   4.022  1.4081  0.5380  0.0819
 5319SOL    MW421010   1.406   5.722   3.937  0.4930 -0.6956 -0.5266
 5320SOL     OW21011   3.738   3.089   3.421  0.2126  0.2687 -1.0382
 5320SOL    HW221012   3.813   3.139   3.454  1.1568 -0.3540 -2.1451
 5320SOL    HW321013   3.740   3.007   3.471  0.2360  0.2730 -1.0319
 5320SOL    MW421014   3.748   3.085   3.432 -0.1104 -0.3719 -0.5513
 5321SOL     OW21015   1.827   4.525   4.590  0.0139  0.2358 -0.0526
 5321SOL    HW221016   1.761   4.535   4.522  1.2655  0.6080 -1.2673
 5321SOL    HW321017   1.904   4.490   4.544  0.4700 -0.8274  1.4267
 5321SOL    MW421018   1.829   4.521   4.575 -0.3530 -0.4794 -0.0940
 5322SOL     OW21019   2.789   0.527   3.454 -0.3459 -0.2545  0.1614
 5322SOL    HW221020   2.824   0.442   3.479 -1.2723 -0.5451  0.5114
 5322SOL    HW321021   2.748   0.513   3.368 -0.3293 -0.1199  0.1300
 5322SOL    MW421022   2.788   0.514   3.446  0.4248  0.4070 -0.3918
 5323SOL     OW21023   1.481   2.873   5.527 -0.2769 -0.3970  0.0155
 5323SOL    HW221024   1.495   2.804   5.461 -0.5887  0.1120 -0.5874
 5323SOL    HW321025   1.507   2.954   5.483 -2.3830  0.2151 -0.1732
 5323SOL    MW421026   1.486   2.874   5.512 -0.6632 -0.0443 -0.2740
 5324SOL     OW21027   3.908   4.990   3.177  0.3058 -0.2169  0.2064
 5324SOL    HW221028   3.822   4.949   3.168  0.2249  0.0298 -0.1849
 5324SOL    HW321029   3.958   4.958   3.102  0.3895  0.0306  0.1535
 5324SOL    MW421030   3.903   4.981   3.166  0.2836 -0.5199  0.2897
 5325SOL     OW21031   3.524   2.180   0.007 -0.1727  0.1556  0.1475
 5325SOL    HW221032   3.617   2.183   0.030  0.0395  0.6721 -0.7529
 5325SOL    HW321033   3.515   2.102  -0.047 -0.5143 -0.5835  1.2268
 5325SOL    MW421034   3.535   2.170   0.003  0.0262  0.0512  0.1110
 5326SOL     OW21035   6.287   5.897   1.131 -0.3913  0.1875  0.4163
 5326SOL    HW221036   6.374   5.936   1.127 -1.0210  1.9594  2.3399
 5326SOL    HW321037   6.258   5.893   1.040  0.2424  3.1009 -0.0018
 5326SOL    MW421038   6.295   5.901   1.118 -0.2716 -0.3922  0.1682
 5327SOL     OW21039   6.339   5.920   2.532  0.0464  0.2601  0.4905
 5327SOL    HW221040   6.387   5.934   2.450 -0.2700  0.2333  0.3027
 5327SOL    HW321041   6.249   5.944   2.512  0.3019  2.1386  1.3372
 5327SOL    MW421042   6.334   5.925   2.519  0.9099 -0.8206 -0.1062
 5328SOL     OW21043   1.091   0.895   1.319 -0.0072  0.8624 -0.0748
 5328SOL    HW221044   1.135   0.818   1.282 -2.5217 -0.2853 -0.9155
 5328SOL    HW321045   1.074   0.872   1.410  0.8204  1.2003  0.1774
 5328SOL    MW421046   1.094   0.882   1.326 -0.3692  0.0971  0.2284
 5329SOL     OW21047   2.811   5.350   3.346  0.4099  0.3780 -0.1829
 5329SOL    HW221048   2.809   5.271   3.400 -0.5630  0.3771 -0.2146
 5329SOL    HW321049   2.904   5.374   3.342  0.4535  0.8511  2.1892
 5329SOL    MW421050   2.823   5.343   3.352  0.1033  0.3205 -0.1348
 5330SOL     OW21051   3.652   1.370   4.997 -0.3177 -0.2309 -0.1294
 5330SOL    HW221052   3.696   1.446   4.958  1.0679 -0.0988  1.5670
 5330SOL    HW321053   3.641   1.309   4.924  1.2292  0.4147 -0.9583
 5330SOL    MW421054   3.656   1.372   4.983  0.0038  0.3605  0.8875
 5331SOL     OW21055   2.506   2.218   2.393 -0.0407  0.4564  0.1925
 5331SOL    HW221056   2.427   2.198   2.443 -0.6791  0.0576 -0.9431
 5331SOL    HW321057   2.559   2.139   2.399 -1.4589 -0.7811 -2.2157
 5331SOL    MW421058   2.503   2.205   2.400  0.2087 -0.3725  0.0509
 5332SOL     OW21059   3.689   0.330   3.797  0.3069 -0.3060 -0.5527
 5332SOL    HW221060   3.642   0.409   3.823  0.3700 -0.4348 -0.0145
 5332SOL    HW321061   3.670   0.319   3.704 -0.8474 -0.4371 -0.3158
 5332SOL    MW421062   3.680   0.339   3.788 -0.8561  0.0786  0.1582
 5333SOL     OW21063   2.973   3.992   3.888  0.7045  0.5568  0.0162
 5333SOL    HW221064   2.912   3.929   3.926  2.0330 -0.4823  0.5273
 5333SOL    HW321065   2.945   4.002   3.797 -2.0132  2.4232  0.9232
 5333SOL    MW421066   2.961   3.985   3.881  0.1340  0.0977 -0.0040
 5334SOL     OW21067   3.801   4.690   2.909  0.5655  0.5118 -0.6041
 5334SOL    HW221068   3.833   4.660   2.824 -0.1280  1.2745 -1.1393
 5334SOL    HW321069   3.753   4.770   2.890  0.5220  0.7659  0.5292
 5334SOL    MW421070   3.799   4.696   2.895 -0.1942  0.3735  0.0869
 5335SOL     OW21071   3.815   1.578   6.194 -0.8753 -0.4830  0.3214
 5335SOL    HW221072   3.764   1.535   6.263  0.3849 -1.9986  0.3630
 5335SOL    HW321073   3.885   1.516   6.173  0.8329  1.4042  0.1008
 5335SOL    MW421074   3.818   1.564   6.200  0.2227  0.1583 -0.1543
 5336SOL     OW21075   3.560   2.247   2.233 -0.2915 -0.1403  0.1016
 5336SOL    HW221076   3.626   2.300   2.278  0.1747  0.9043 -1.6786
 5336SOL    HW321077   3.597   2.235   2.145 -2.2970  0.1335 -0.8176
 5336SOL    MW421078   3.574   2.252   2.227  0.4048 -0.0266  0.1976
 5337SOL     OW21079   0.355   2.865   5.539  0.3766  0.0797 -0.7955
 5337SOL    HW221080   0.353   2.931   5.470  2.2632  0.5650 -0.4357
 5337SOL    HW321081   0.264   2.834   5.544 -0.3857  1.9773 -1.5877
 5337SOL    MW421082   0.342   2.870   5.530  0.0343 -0.4482  0.2190
 5338SOL     OW21083   2.115   2.803   1.010  0.0619 -0.6701 -0.2491
 5338SOL    HW221084   2.177   2.741   0.971 -0.4878 -1.2785 -0.1650
 5338SOL    HW321085   2.088   2.859   0.937  0.3961 -0.6626 -0.3709
 5338SOL    MW421086   2.120   2.802   0.995 -0.1884 -0.4489  0.5134
 5339SOL     OW21087   0.962   5.178   2.350  0.0950  0.3735 -0.0251
 5339SOL    HW221088   0.932   5.093   2.381 -2.6411  1.1549 -0.1965
 5339SOL    HW321089   0.985   5.227   2.429 -0.2091  0.1022  0.2322
 5339SOL    MW421090   0.961   5.174   2.364 -0.2850 -0.2501 -0.2452
 5340SOL     OW21091   1.876   2.844   5.561  0.3592 -0.2972 -0.3128
 5340SOL    HW221092   1.872   2.889   5.645  1.1962  0.3502 -0.6016
 5340SOL    HW321093   1.817   2.769   5.570 -0.4322  0.4120  0.4539
 5340SOL    MW421094   1.868   2.840   5.573  0.5982  0.0333  0.0015
 5341SOL     OW21095   0.968   1.599   3.429  0.2499 -0.0427  0.1442
 5341SOL    HW221096   1.033   1.605   3.358 -0.6573  0.5977 -0.6687
 5341SOL    HW321097   1.001   1.531   3.487  0.4787 -1.3675 -1.4782
 5341SOL    MW421098   0.981   1.591   3.427 -0.1031 -0.0704 -0.6933
 5342SOL     OW21099   1.960   2.756   4.887 -0.0321  0.1169 -0.1771
 5342SOL    HW221100   1.950   2.792   4.799  0.1437 -0.2923 -0.3671
 5342SOL    HW321101   1.998   2.828   4.938  0.4993  0.1418 -0.5975
 5342SOL    MW421102   1.964   2.770   4.882  0.1516 -0.2146 -0.0740
 5343SOL     OW21103   0.295   3.111   3.837 -0.4003 -0.5545 -0.2288
 5343SOL    HW221104   0.225   3.125   3.900 -0.0895 -0.2844  0.0614
 5343SOL    HW321105   0.375   3.113   3.889 -0.2676 -2.6833 -0.2781
 5343SOL    MW421106   0.296   3.113   3.852  0.3569  0.4400  0.2925
 5344SOL     OW21107   0.917   4.666   3.743 -0.7346  0.6031 -0.1023
 5344SOL    HW221108   0.948   4.626   3.662 -0.6626  1.9687 -0.7650
 5344SOL    HW321109   0.987   4.650   3.806 -0.3284  0.4563 -0.5857
 5344SOL    MW421110   0.930   4.659   3.741  0.4772  0.0025  0.6769
 5345SOL     OW21111   0.759   3.568   5.016  0.0791 -0.6279 -0.1322
 5345SOL    HW221112   0.670   3.603   5.017 -0.1667 -1.2374  1.0633
 5345SOL    HW321113   0.811   3.631   5.066  0.3033 -0.3323 -0.7291
 5345SOL    MW421114   0.754   3.581   5.023  0.1214 -0.2758 -0.2582
 5346SOL     OW21115   4.368   6.053   5.052 -0.4398 -0.6059 -0.7728
 5346SOL    HW221116   4.320   6.135   5.039  1.8605  0.8370 -0.6150
 5346SOL    HW321117   4.386   6.021   4.964  0.4447  0.1886 -0.8941
 5346SOL    MW421118   4.364   6.060   5.039 -0.3148 -0.4191 -0.1552
 5347SOL     OW21119   1.882   2.882   0.000 -0.5532  0.0812 -0.2590
 5347SOL    HW221120   1.787   2.871   0.005 -0.4531 -0.0851  2.0145
 5347SOL    HW321121   1.907   2.836  -0.080 -2.2820 -0.6493 -0.4143
 5347SOL    MW421122   1.873   2.874  -0.010  0.3388  0.2808  0.2392
 5348SOL     OW21123   4.011   2.988   0.973 -0.1889 -0.4410  0.2139
 5348SOL    HW221124   3.927   3.004   0.930 -0.0664 -2.2138 -0.7936
 5348SOL    HW321125   3.987   2.949   1.057 -0.4195 -2.4832 -0.7437
 5348SOL    MW421126   3.997   2.985   0.978 -0.1176 -0.1598 -0.6771
 5349SOL     OW21127   0.587   4.241   6.204  0.0784 -0.2994 -0.0904
 5349SOL    HW221128   0.594   4.232   6.299  0.5317 -1.4162 -0.2171
 5349SOL    HW321129   0.676   4.262   6.175  0.3020 -1.6265 -0.4211
 5349SOL    MW421130   0.599   4.242   6.212  0.3607  0.3520  0.2172
 5350SOL     OW21131   6.211   3.559   3.580  0.2739  0.3174  0.1524
 5350SOL    HW221132   6.172   3.644   3.558 -0.8010 -0.0168  0.6794
 5350SOL    HW321133   6.299   3.562   3.542  0.0640  1.4608 -0.2832
 5350SOL    MW421134   6.217   3.570   3.572  0.2000  0.3599 -0.5300
 5351SOL     OW21135   5.557   5.178   4.098  0.2701  0.0365  0.3138
 5351SOL    HW221136   5.511   5.192   4.015  0.8836 -1.5803 -0.3485
 5351SOL    HW321137   5.633   5.236   4.093  0.8674 -0.7952 -0.7533
 5351SOL    MW421138   5.561   5.188   4.086  0.0528 -0.0080  0.2346
 5352SOL     OW21139   0.671   2.453   5.704  0.4532  0.0677  0.0978
 5352SOL    HW221140   0.669   2.547   5.685  1.1753  0.3207  1.1726
 5352SOL    HW321141   0.612   2.414   5.640 -0.0000  1.2808 -0.2452
 5352SOL    MW421142   0.663   2.461   5.693 -0.2781 -0.0720  0.3460
 5353SOL     OW21143   2.736   3.320   4.231  0.1929 -0.1066  0.8501
 5353SOL    HW221144   2.797   3.263   4.277  1.3125 -1.2063 -1.8151
 5353SOL    HW321145   2.650   3.280   4.245  0.9696 -2.7731 -1.1655
 5353SOL    MW421146   2.732   3.307   4.239  0.3045  0.7589  0.1822
 5354SOL     OW21147   4.092   0.699   0.584  0.0683  0.3455  0.1144
 5354SOL    HW221148   4.053   0.679   0.498 -0.4700 -0.1775  0.4716
 5354SOL    HW321149   4.107   0.793   0.582 -0.3560  0.4090 -0.3935
 5354SOL    MW421150   4.089   0.709   0.572 -0.3968 -0.0011 -0.1792
 5355SOL     OW21151   1.825   1.730   5.289 -0.3613  0.2582  0.2969
 5355SOL    HW221152   1.741   1.702   5.252  0.7969 -2.0780 -0.8082
 5355SOL    HW321153   1.819   1.710   5.382 -1.1519  0.5077  0.3065
 5355SOL    MW421154   1.814   1.724   5.296 -0.7228 -0.3857 -0.2459
 5356SOL     OW21155   0.979   3.113   3.545 -0.3443  0.2537 -0.3885
 5356SOL    HW221156   1.050   3.177   3.550 -1.9525  2.0810  0.6082
 5356SOL    HW321157   0.999   3.049   3.614  0.6688  0.3279 -0.5978
 5356SOL    MW421158   0.991   3.113   3.555  0.0836 -0.0089 -0.8980
 5357SOL     OW21159   2.397   1.744   4.042 -0.0661 -0.1772 -0.0740
 5357SOL    HW221160   2.319   1.782   4.082 -0.0972 -1.0469  0.7470
 5357SOL    HW321161   2.468   1.803   4.067 -0.2519 -0.1441  0.3946
 5357SOL    MW421162   2.396   1.757   4.050  0.2849 -0.2207  0.2616
 5358SOL     OW21163   6.386   1.923   2.706 -0.0236 -0.0372 -0.3688
 5358SOL    HW221164   6.388   1.999   2.764  0.5571  0.2191 -0.7188
 5358SOL    HW321165   6.473   1.883   2.714 -0.1672 -0.3940 -0.5463
 5358SOL    MW421166   6.398   1.928   2.715 -0.8988 -0.3065  0.1960
 5359SOL     OW21167   1.845   3.692   2.461 -0.7251 -0.1673 -0.3149
 5359SOL    HW221168   1.935   3.723   2.449 -1.6665  3.1055 -0.1419
 5359SOL    HW321169   1.847   3.641   2.542  0.9329  0.0864 -0.1648
 5359SOL    MW421170   1.857   3.690   2.470  0.1300 -0.7235  0.2864
 5360SOL     OW21171   3.515   5.161   5.155 -0.1990  0.3136 -0.3491
 5360SOL    HW221172   3.601   5.119   5.156  1.5064  3.3831  2.1049
 5360SOL    HW321173   3.470   5.126   5.231 -0.9547 -0.8334 -1.2862
 5360SOL    MW421174   3.520   5.151   5.165  0.1471 -0.3494 -0.8361
 5361SOL     OW21175   4.769   0.970   2.977 -0.7981 -0.4326 -0.2062
 5361SOL    HW221176   4.688   0.922   2.994  0.2002 -2.3197 -0.5077
 5361SOL    HW321177   4.809   0.981   3.064  0.0843 -2.2911 -0.3295
 5361SOL    MW421178   4.763   0.965   2.991  0.6328 -0.0561  0.2560
 5362SOL     OW21179   1.827   2.900   2.194 -0.0502  0.4660 -0.3877
 5362SOL    HW221180   1.737   2.934   2.190 -0.1750  0.0358 -1.9772
 5362SOL    HW321181   1.847   2.875   2.103  2.0898  1.5910 -0.2899
 5362SOL    MW421182   1.818   2.901   2.181  0.3167  0.3481  0.4302
 5363SOL     OW21183   3.798   2.569   3.299 -0.6867 -0.0395 -0.1023
 5363SOL    HW221184   3.851   2.617   3.236 -1.4706  0.9930  0.0050
 5363SOL    HW321185   3.848   2.489   3.317 -0.9987 -1.0002 -2.9843
 5363SOL    MW421186   3.811   2.564   3.293  0.0490  0.0949  0.3464
 5364SOL     OW21187   4.086   3.048   1.941 -0.2232  0.3902 -0.3093
 5364SOL    HW221188   4.156   3.103   1.907 -0.6331  0.2685 -1.4071
 5364SOL    HW321189   4.123   3.006   2.018 -0.3066  3.2164  1.4328
 5364SOL    MW421190   4.100   3.050   1.946  0.0697  0.3001  0.2564
 5365SOL     OW21191   2.648   3.061   4.941 -0.0826 -0.6897  0.6456
 5365SOL    HW221192   2.588   3.125   4.903 -0.8278 -1.3462  0.6856
 5365SOL    HW321193   2.712   3.043   4.873 -0.2565 -0.3858  0.4043
 5365SOL    MW421194   2.649   3.067   4.927 -0.6096  0.2406 -0.1492
 5366SOL     OW21195   1.906   4.778   2.999 -0.2992  0.3182  0.2619
 5366SOL    HW221196   1.906   4.829   3.080 -0.9770  0.0777  0.4228
 5366SOL    HW321197   1.951   4.697   3.023  2.8151  1.6551 -0.5681
 5366SOL    MW421198   1.912   4.774   3.013  0.0058 -0.8516 -0.0711
 5367SOL     OW21199   0.571   2.943   3.213 -0.6295 -0.4132 -0.2532
 5367SOL    HW221200   0.546   3.009   3.277 -1.2374 -0.8988  0.0179
 5367SOL    HW321201   0.542   2.978   3.129  1.1115  0.7125 -0.4275
 5367SOL    MW421202   0.564   2.956   3.210 -0.6911 -0.3090  0.0621
 5368SOL     OW21203   1.011   1.152   1.485  0.2619 -0.1271  0.8475
 5368SOL    HW221204   1.032   1.067   1.446 -0.3721  0.8933 -1.9396
 5368SOL    HW321205   1.063   1.215   1.435 -0.6119  1.3050  1.6722
 5368SOL    MW421206   1.021   1.149   1.474 -0.4446  0.2327 -0.2232
 5369SOL     OW21207   5.386   2.808   3.850 -0.0977  0.6949  0.4319
 5369SOL    HW221208   5.344   2.725   3.871  2.2589 -0.4366  1.0358
 5369SOL    HW321209   5.400   2.850   3.935  0.8331  0.5862  0.3431
 5369SOL    MW421210   5.383   2.802   3.864  0.2916  0.3357  0.4604
 5370SOL     OW21211   4.730   2.972   6.147 -0.4660 -0.0271 -0.5903
 5370SOL    HW221212   4.809   2.972   6.202 -1.2440  0.4537  0.5798
 5370SOL    HW321213   4.729   2.885   6.106  0.8038  0.0601 -0.8338
 5370SOL    MW421214   4.740   2.960   6.149  0.1165 -0.4525  0.3739
 5371SOL     OW21215   0.137   5.864   5.553  0.4231 -0.0131 -0.9264
 5371SOL    HW221216   0.111   5.777   5.585 -1.7733  0.3253 -1.6373
 5371SOL    HW321217   0.231   5.869   5.573  0.1696 -1.6756  1.0999
 5371SOL    MW421218   0.146   5.853   5.560 -0.4150 -0.0614 -0.0982
 5372SOL     OW21219   1.199   5.927   3.839  0.7145 -0.3486  0.5680
 5372SOL    HW221220   1.198   5.904   3.746 -1.2021  0.7920  0.2423
 5372SOL    HW321221   1.267   5.872   3.877  0.9037 -1.5118 -1.3393
 5372SOL    MW421222   1.208   5.917   3.832 -0.9514 -0.2634  0.1151
 5373SOL     OW21223   0.870   0.745   4.620 -0.2843  0.2079  0.0017
 5373SOL    HW221224   0.920   0.772   4.697 -0.1813 -0.5602  0.2142
 5373SOL    HW321225   0.935   0.728   4.553 -0.3427  0.3995 -0.1039
 5373SOL    MW421226   0.885   0.747   4.621 -0.0998 -0.4479  0.1937
 5374SOL     OW21227   1.542   5.716   0.420 -0.4632 -0.0802  0.5625
 5374SOL    HW221228   1.527   5.638   0.366 -0.7896  1.0856 -1.1284
 5374SOL    HW321229   1.555   5.786   0.357 -0.4105  1.2950  2.0382
 5374SOL    MW421230   1.541   5.715   0.405  0.0629 -0.1205  0.5931
 5375SOL     OW21231   1.467   0.787   2.581  0.0352 -0.0744  0.3645
 5375SOL    HW221232   1.407   0.802   2.654 -0.1298 -0.9750  0.4264
 5375SOL    HW321233   1.460   0.693   2.563  1.5034 -0.2176  0.4290
 5375SOL    MW421234   1.458   0.777   2.588 -0.2541  0.1677  0.0572
 5376SOL     OW21235   0.076   2.313   3.876  0.2271  0.1244  0.2606
 5376SOL    HW221236  -0.013   2.300   3.908  0.4686 -1.5139  0.3556
 5376SOL    HW321237   0.079   2.405   3.851 -1.8638 -0.0725 -0.9308
 5376SOL    MW421238   0.065   2.324   3.877  0.7083 -0.6273  0.7658
 5377SOL     OW21239   0.570   3.633   3.542 -0.3006  0.3604 -0.1232
 5377SOL    HW221240   0.580   3.538   3.545 -1.4233  0.2582  1.4401
 5377SOL    HW321241   0.623   3.665   3.616 -0.1936  0.9388 -0.4408
 5377SOL    MW421242   0.579   3.625   3.552 -0.8322  0.2713  0.5678
 5378SOL     OW21243   3.418   5.216   0.830 -0.2654  0.5939 -0.1913
 5378SOL    HW221244   3.430   5.240   0.739 -1.8819  1.3659 -0.2385
 5378SOL    HW321245   3.333   5.254   0.854 -0.3867 -0.5190  1.3085
 5378SOL    MW421246   3.408   5.224   0.821 -0.6710  0.3221 -0.1901
 5379SOL     OW21247   4.974   5.900   4.674 -0.5297  0.0002 -0.4939
 5379SOL    HW221248   4.980   5.868   4.764  0.4757  0.0338 -0.5349
 5379SOL    HW321249   4.999   5.824   4.621  1.9548  0.7875 -0.5918
 5379SOL    MW421250   4.978   5.885   4.679 -0.0467  0.1103 -0.1520
 5380SOL     OW21251   5.227   0.245   0.344 -0.2947 -0.0087 -0.5927
 5380SOL    HW221252   5.160   0.194   0.300 -0.9774  0.2614  0.1212
 5380SOL    HW321253   5.203   0.243   0.436  0.4935  0.3672 -0.3691
 5380SOL    MW421254   5.215   0.238   0.350 -0.3145  0.1276  0.3966
 5381SOL     OW21255   6.422   5.436   4.797  0.1728 -0.4985  0.2032
 5381SOL    HW221256   6.449   5.487   4.721 -0.0602 -1.0097 -0.2275
 5381SOL    HW321257   6.334   5.467   4.817  0.3658 -0.1182  0.4888
 5381SOL    MW421258   6.414   5.446   4.790 -0.3483 -0.2706 -0.6410
 5382SOL     OW21259   5.558   2.069   3.359  0.0014 -0.4132  0.5156
 5382SOL    HW221260   5.620   1.996   3.353 -0.0506 -0.5737  1.7080
 5382SOL    HW321261   5.611   2.147   3.341 -0.3829 -0.8353 -3.1692
 5382SOL    MW421262   5.573   2.070   3.356  0.0644 -0.1768 -0.0017
 5383SOL     OW21263   6.081   6.247   1.655 -0.2135 -0.6396 -0.3047
 5383SOL    HW221264   6.159   6.280   1.610 -0.6142 -0.5625 -0.9424
 5383SOL    HW321265   6.032   6.325   1.679 -0.2083 -0.6969 -0.1050
 5383SOL    MW421266   6.085   6.262   1.652  0.7700 -0.3802  0.6834
 5384SOL     OW21267   4.835   6.309   5.422 -0.2242 -0.7959 -0.0442
 5384SOL    HW221268   4.741   6.317   5.406 -0.2502  2.2198  0.9060
 5384SOL    HW321269   4.850   6.360   5.502  2.2823 -0.7622 -0.4402
 5384SOL    MW421270   4.825   6.317   5.430 -0.2009  0.2659 -0.1297
 5385SOL     OW21271   6.059   3.094   0.504 -0.0217 -0.6270 -0.2661
 5385SOL    HW221272   6.143   3.067   0.543 -0.3341 -2.1457 -0.5747
 5385SOL    HW321273   5.993   3.045   0.553 -0.7857  0.7827  0.1712
 5385SOL    MW421274   6.062   3.084   0.516  0.0670 -0.0027  0.6167
 5386SOL     OW21275   6.405   5.454   0.413 -0.1463  0.2204  0.0953
 5386SOL    HW221276   6.352   5.487   0.341  1.0587 -1.7451 -1.8151
 5386SOL    HW321277   6.394   5.359   0.409 -0.3769  0.0419  2.8315
 5386SOL    MW421278   6.396   5.446   0.403 -0.0814  0.4235 -0.3918
 5387SOL     OW21279   4.992   2.353   2.612 -0.3344  0.5271 -0.9315
 5387SOL    HW221280   5.064   2.410   2.638 -0.7439  1.9419 -2.6301
 5387SOL    HW321281   4.920   2.414   2.594 -2.5921 -0.8924  2.2963
 5387SOL    MW421282   4.992   2.369   2.613 -0.4526  0.3593 -0.3806
 5388SOL     OW21283   5.568   1.507   5.185 -0.0554 -0.3094  0.5972
 5388SOL    HW221284   5.606   1.427   5.148 -1.2095  0.0006 -1.3649
 5388SOL    HW321285   5.481   1.481   5.215 -0.9557  0.3975 -1.2092
 5388SOL    MW421286   5.562   1.493   5.184  0.0436 -0.1040 -0.3211
 5389SOL     OW21287   5.445   5.845   3.833  0.5907  0.1739 -0.0700
 5389SOL    HW221288   5.408   5.839   3.921 -0.3107 -0.3120 -0.4658
 5389SOL    HW321289   5.503   5.921   3.837 -0.8279  1.2775  0.4538
 5389SOL    MW421290   5.447   5.854   3.845 -0.2771 -0.3529 -0.2386
 5390SOL     OW21291   6.175   1.102   1.373 -0.4180 -0.1256 -0.2888
 5390SOL    HW221292   6.198   1.075   1.284 -2.3447  1.2864 -1.3027
 5390SOL    HW321293   6.093   1.150   1.362  1.2604  3.5875  1.6872
 5390SOL    MW421294   6.167   1.104   1.360  0.0114 -0.5624 -0.4362
 5391SOL     OW21295   1.355   5.574   1.340 -0.0630  0.4611 -0.0919
 5391SOL    HW221296   1.400   5.652   1.308 -1.2453  0.4075 -2.0215
 5391SOL    HW321297   1.293   5.551   1.271 -1.2362 -0.9754  1.3404
 5391SOL    MW421298   1.353   5.581   1.327 -0.5077 -0.1594 -0.0630
 5392SOL     OW21299   0.261   3.838   4.286  0.2658 -0.2339  0.0686
 5392SOL    HW221300   0.210   3.757   4.286  0.8981 -0.6587 -1.2371
 5392SOL    HW321301   0.204   3.901   4.329 -1.1526 -0.8265 -0.8311
 5392SOL    MW421302   0.247   3.835   4.292 -0.1337 -0.5332  0.3066
 5393SOL     OW21303   0.638   6.095   1.329 -0.2264  0.0135  0.7116
 5393SOL    HW221304   0.716   6.091   1.273  0.2965  1.0367  1.3453
 5393SOL    HW321305   0.629   6.006   1.363  1.8926  0.3081  2.2388
 5393SOL    MW421306   0.647   6.082   1.326 -0.3115  0.4601  0.3447
 5394SOL     OW21307   1.879   4.002   3.094  0.6210  0.0609 -0.1181
 5394SOL    HW221308   1.833   3.954   3.163 -2.6327 -0.1972 -2.2393
 5394SOL    HW321309   1.919   4.076   3.139 -0.4363 -0.6652  2.1768
 5394SOL    MW421310   1.878   4.005   3.109 -0.0870  0.3514 -0.1230
 5395SOL     OW21311   5.205   1.760   4.540  0.0076  0.3023 -0.2242
 5395SOL    HW221312   5.224   1.694   4.473 -1.6006  0.0047 -0.4508
 5395SOL    HW321313   5.232   1.720   4.622 -1.1528 -0.7769 -0.3277
 5395SOL    MW421314   5.211   1.746   4.542 -0.2851 -0.0004  0.0235
 5396SOL     OW21315   1.484   6.166   3.261 -0.0574  0.2120  0.3312
 5396SOL    HW221316   1.552   6.205   3.316  0.5893  0.0846 -0.3572
 5396SOL    HW321317   1.501   6.072   3.266 -0.8537  0.0982  1.0085
 5396SOL    MW421318   1.496   6.158   3.269 -0.3588 -0.3349 -0.3235
 5397SOL     OW21319   5.227   2.413   4.360  0.1309  0.2599  0.0326
 5397SOL    HW221320   5.299   2.472   4.382  0.4464  0.5725 -1.6899
 5397SOL    HW321321   5.165   2.423   4.432  1.1149  1.1360  0.7937
 5397SOL    MW421322   5.228   2.422   4.372 -0.5724  0.2919  0.0946
 5398SOL     OW21323   4.464   5.553   5.377  0.3390 -0.2186 -0.0799
 5398SOL    HW221324   4.430   5.465   5.388 -0.3849 -0.1694 -1.6749
 5398SOL    HW321325   4.403   5.609   5.425 -0.4994 -0.3742 -0.9425
 5398SOL    MW421326   4.451   5.549   5.385 -0.6133  0.1788 -0.0395
 5399SOL     OW21327   2.181   5.432   2.329  0.6424 -0.8654  0.0282
 5399SOL    HW221328   2.248   5.439   2.397 -0.9617 -0.2857  1.5997
 5399SOL    HW321329   2.167   5.522   2.300 -1.7361 -0.4773  2.0695
 5399SOL    MW421330   2.188   5.445   2.334  0.2371 -0.5458  0.3260
 5400SOL     OW21331   4.474   0.107   2.141  0.2170 -0.1149  0.4817
 5400SOL    HW221332   4.521   0.180   2.099  1.7813 -1.5164 -0.3072
 5400SOL    HW321333   4.384   0.115   2.110  0.5893  0.9068 -0.3704
 5400SOL    MW421334   4.468   0.118   2.132 -0.4798 -0.2747  1.0725
 5401SOL     OW21335   1.496   0.808   5.287  0.3160 -0.4309 -0.5270
 5401SOL    HW221336   1.536   0.768   5.210 -0.6641  1.5293 -2.1815
 5401SOL    HW321337   1.477   0.898   5.259 -0.7232  0.1385  1.7973
 5401SOL    MW421338   1.498   0.815   5.273 -0.2098  0.9786 -0.1007
 5402SOL     OW21339   3.238   2.014   3.540  0.5621 -0.0919  0.1336
 5402SOL    HW221340   3.171   2.080   3.528  0.0065 -0.7576 -0.5304
 5402SOL    HW321341   3.252   2.010   3.635  0.1599  0.5212  0.2239
 5402SOL    MW421342   3.231   2.022   3.551  0.5611  0.3180 -0.0685
 5403SOL     OW21343   2.145   3.676   4.552  0.0554  0.1768 -0.1715
 5403SOL    HW221344   2.061   3.710   4.582 -0.8753 -1.2803 -1.0214
 5403SOL    HW321345   2.167   3.730   4.476 -1.0240 -0.5677 -1.0423
 5403SOL    MW421346   2.137   3.688   4.546 -0.8173  0.1803 -0.0525
 5404SOL     OW21347   2.543   1.890   5.159 -0.0563 -0.0111 -0.1596
 5404SOL    HW221348   2.494   1.934   5.089 -1.0074 -0.4590  0.2023
 5404SOL    HW321349   2.515   1.798   5.154  0.3554 -0.1722  0.3965
 5404SOL    MW421350   2.532   1.884   5.149  0.0533 -0.4342  0.1881
 5405SOL     OW21351   6.334   2.448   2.152 -0.0330  0.3916  0.2154
 5405SOL    HW221352   6.419   2.404   2.157 -0.9156 -1.3398  0.5857
 5405SOL    HW321353   6.273   2.388   2.194 -1.4478  1.6320  0.0207
 5405SOL    MW421354   6.337   2.434   2.158  0.6392 -0.1507  0.1549
 5406SOL     OW21355   4.140   0.177   0.412 -0.4678 -0.2843 -0.0046
 5406SOL    HW221356   4.124   0.250   0.472  0.8804  0.0164  0.0246
 5406SOL    HW321357   4.181   0.217   0.335  1.5969 -1.1183  0.5827
 5406SOL    MW421358   4.143   0.192   0.410 -0.7550 -0.1969  0.0554
 5407SOL     OW21359   0.562   0.471   5.154  0.2774  0.0153 -0.2361
 5407SOL    HW221360   0.500   0.524   5.205  0.0046 -0.6283  0.1224
 5407SOL    HW321361   0.518   0.458   5.070  0.0798 -0.1278 -0.1142
 5407SOL    MW421362   0.548   0.476   5.150  0.3860  0.8588 -0.4667
 5408SOL     OW21363   2.155   4.862   0.671 -0.7938 -0.0443 -0.1989
 5408SOL    HW221364   2.075   4.888   0.625 -1.1839 -0.1839  0.3723
 5408SOL    HW321365   2.149   4.766   0.676  0.1891 -0.2005 -1.5123
 5408SOL    MW421366   2.143   4.853   0.666 -0.0763 -0.4376  0.0843
 5409SOL     OW21367   5.884   4.955   0.087  0.2558 -0.0210 -0.1840
 5409SOL    HW221368   5.909   4.973  -0.004  0.9233  0.1673  0.0359
 5409SOL    HW321369   5.789   4.943   0.083  0.4664 -1.6868 -1.1649
 5409SOL    MW421370   5.875   4.956   0.075 -0.0201 -0.3290  0.0422
 5410SOL     OW21371   2.451   2.840   5.742  0.3493 -0.0687  0.1916
 5410SOL    HW221372   2.479   2.920   5.697  0.4858  1.6735  3.1398
 5410SOL    HW321373   2.530   2.808   5.786  0.5924 -2.6065 -1.8040
 5410SOL    MW421374   2.466   2.846   5.742 -0.4890 -0.6906  0.3358
 5411SOL     OW21375   5.718   5.446   0.564 -0.1557  0.4673  0.0056
 5411SOL    HW221376   5.679   5.416   0.647  0.8837  0.5086  0.5316
 5411SOL    HW321377   5.812   5.440   0.579  0.0501  1.1120 -0.9535
 5411SOL    MW421378   5.725   5.442   0.577  0.5248  0.0349  0.2598
 5412SOL     OW21379   4.416   2.180   2.705 -0.3406 -0.3191 -0.2182
 5412SOL    HW221380   4.410   2.195   2.800  0.2354  0.3489 -0.2808
 5412SOL    HW321381   4.510   2.164   2.690 -0.4469 -0.5391 -0.6647
 5412SOL    MW421382   4.428   2.180   2.716  0.2761 -0.1956  0.6059
 5413SOL     OW21383   4.380   2.602   5.493  0.0615 -0.0253 -0.4000
 5413SOL    HW221384   4.311   2.605   5.427  0.3146 -1.6190 -0.7818
 5413SOL    HW321385   4.461   2.587   5.444  0.7521  2.0643  0.0215
 5413SOL    MW421386   4.382   2.600   5.478  0.0985 -0.0254  0.4231
 5414SOL     OW21387   5.267   0.504   4.521  0.2118  0.0066  0.1338
 5414SOL    HW221388   5.296   0.464   4.603  0.4473  0.0033  0.0508
 5414SOL    HW321389   5.253   0.430   4.462 -0.0394  0.0037  0.1960
 5414SOL    MW421390   5.269   0.489   4.524  0.3060 -0.5249 -0.3871
 5415SOL     OW21391   1.739   2.616   0.178 -0.2324  0.0269 -0.2383
 5415SOL    HW221392   1.774   2.536   0.216 -2.3028 -0.4371  0.8795
 5415SOL    HW321393   1.813   2.656   0.133  1.3007 -1.5785  0.7204
 5415SOL    MW421394   1.753   2.611   0.177 -0.4469  0.4403 -0.2478
 5416SOL     OW21395   0.871   2.688   4.990  0.0411 -0.4210  0.2442
 5416SOL    HW221396   0.898   2.765   5.040 -1.6473  0.5951 -0.3129
 5416SOL    HW321397   0.861   2.720   4.900 -0.8900 -1.2167  0.0458
 5416SOL    MW421398   0.873   2.702   4.985 -0.1667  0.1293 -0.1635
 5417SOL     OW21399   1.320   0.937   1.985 -0.4478 -0.0875 -0.0652
 5417SOL    HW221400   1.363   0.913   1.903 -1.2674 -1.1936 -0.1997
 5417SOL    HW321401   1.293   1.028   1.972 -2.8566 -0.9779 -2.0970
 5417SOL    MW421402   1.322   0.946   1.973 -0.8046  0.7015 -0.1292
 5418SOL     OW21403   2.198   4.161   0.633  0.4073  0.3301 -0.4924
 5418SOL    HW221404   2.199   4.222   0.707 -0.5520 -1.1514  0.7801
 5418SOL    HW321405   2.275   4.185   0.582  1.1582  1.3296  1.0361
 5418SOL    MW421406   2.209   4.172   0.636 -0.5094  0.1311  0.0097
 5419SOL     OW21407   3.354   4.096   2.033  0.6286  0.1763  0.4181
 5419SOL    HW221408   3.440   4.062   2.010  0.9098 -0.8924  2.7767
 5419SOL    HW321409   3.370   4.180   2.075  0.3198  0.9355 -0.9218
 5419SOL    MW421410   3.367   4.102   2.035  0.1383 -0.3052  0.0121
 5420SOL     OW21411   2.281   2.136   5.523  0.1509 -0.2681 -0.0732
 5420SOL    HW221412   2.320   2.169   5.442 -1.5460  1.0690 -0.4156
 5420SOL    HW321413   2.187   2.131   5.504 -0.1110 -1.3692  1.3483
 5420SOL    MW421414   2.273   2.140   5.510  0.3695  0.6406  0.2383
 5421SOL     OW21415   2.884   5.871   3.392 -0.1426  0.2566  0.1020
 5421SOL    HW221416   2.965   5.922   3.385 -0.4787  0.5907 -2.5542
 5421SOL    HW321417   2.814   5.936   3.388 -0.5822 -0.1482  0.8607
 5421SOL    MW421418   2.886   5.886   3.391 -0.9777  0.4325 -0.6044
 5422SOL     OW21419   4.916   3.055   6.332 -0.1728  0.4437 -0.1118
 5422SOL    HW221420   4.891   3.056   6.424 -0.1966 -2.3263  0.0058
 5422SOL    HW321421   5.007   3.026   6.332 -0.9069 -2.2313 -0.9342
 5422SOL    MW421422   4.925   3.051   6.344 -0.9727  0.2584  0.1893
 5423SOL     OW21423   4.440   2.225   4.656 -0.6097 -0.4453  0.1516
 5423SOL    HW221424   4.481   2.174   4.726 -0.1825 -0.3519 -0.0296
 5423SOL    HW321425   4.353   2.186   4.645 -0.4919 -0.7744  0.3905
 5423SOL    MW421426   4.434   2.213   4.664  0.4912 -0.3507  0.3387
 5424SOL     OW21427   0.592   4.958   6.120 -0.6595  0.0492 -0.0014
 5424SOL    HW221428   0.538   5.004   6.056 -0.3519 -0.7580 -0.8795
 5424SOL    HW321429   0.548   4.972   6.204 -1.3250  0.7583 -0.4542
 5424SOL    MW421430   0.579   4.966   6.122 -0.0113  0.0223  0.2342
 5425SOL     OW21431   1.374   4.942   3.960 -0.0153 -0.7412  0.4402
 5425SOL    HW221432   1.346   4.918   4.049  0.8110 -2.2814  0.3165
 5425SOL    HW321433   1.303   4.998   3.927 -0.2486  0.0189  2.1135
 5425SOL    MW421434   1.361   4.946   3.968 -0.0857  0.3592  0.5011
 5426SOL     OW21435   3.880   3.488   1.892  0.1197 -0.1201  0.0551
 5426SOL    HW221436   3.864   3.429   1.818  0.1671  0.4567 -0.4277
 5426SOL    HW321437   3.802   3.480   1.946 -0.6019  0.5558 -0.8345
 5426SOL    MW421438   3.867   3.480   1.889 -0.1084 -0.6786 -0.0075
 5427SOL     OW21439   1.203   0.474   5.370  0.5822  0.3739 -0.2366
 5427SOL    HW221440   1.273   0.422   5.329  0.8403 -0.6910  1.4635
 5427SOL    HW321441   1.248   0.553   5.401  0.6235  0.6048 -0.8574
 5427SOL    MW421442   1.219   0.478   5.368  0.1177  0.2071  0.0216
 5428SOL     OW21443   4.778   1.490   2.343  0.0084 -0.4495  0.6495
 5428SOL    HW221444   4.691   1.454   2.357 -0.7272  0.8184 -0.3726
 5428SOL    HW321445   4.807   1.453   2.259 -0.7072  1.1397 -0.3522
 5428SOL    MW421446   4.770   1.481   2.334  0.5700  0.2413  0.1225
 5429SOL     OW21447   5.848   1.153   4.022 -0.7024 -0.2423 -0.1727
 5429SOL    HW221448   5.811   1.108   3.947  0.2406  0.6910 -1.2468
 5429SOL    HW321449   5.818   1.103   4.098  0.3258 -2.6870 -1.2702
 5429SOL    MW421450   5.839   1.141   4.023  0.0918 -0.1796 -0.3737
 5430SOL     OW21451   0.107   2.333   4.214 -0.0023  0.1770 -0.0563
 5430SOL    HW221452   0.153   2.365   4.292 -0.6142 -0.3880  0.5579
 5430SOL    HW321453   0.049   2.405   4.190 -0.6034 -0.0454  0.6796
 5430SOL    MW421454   0.105   2.347   4.221 -0.0837  0.0731 -0.4717
 5431SOL     OW21455   0.071   5.109   5.749  0.0462 -0.1035  0.5488
 5431SOL    HW221456   0.044   5.140   5.835  0.4597 -0.3734  0.7821
 5431SOL    HW321457   0.149   5.056   5.766 -0.3805 -0.9015  0.1162
 5431SOL    MW421458   0.078   5.106   5.762  1.0774  0.4501 -0.4548
 5432SOL     OW21459   3.770   2.517   5.254 -0.1307 -0.5409  0.3226
 5432SOL    HW221460   3.808   2.434   5.224 -0.6316 -1.1666  1.3669
 5432SOL    HW321461   3.842   2.560   5.301 -0.1451 -0.8357  0.6199
 5432SOL    MW421462   3.785   2.512   5.256  0.4713  0.5681 -0.3342
 5433SOL     OW21463   1.729   0.247   2.891 -0.0345 -0.3442 -0.2120
 5433SOL    HW221464   1.742   0.281   2.802 -2.9394  0.5015 -0.3983
 5433SOL    HW321465   1.774   0.163   2.891  0.8065  0.0546 -2.1949
 5433SOL    MW421466   1.737   0.241   2.879  0.4969  0.6188  0.3111
 5434SOL     OW21467   2.194   5.497   1.318  0.4086 -0.1344  0.0728
 5434SOL    HW221468   2.251   5.532   1.249  2.2828  0.8803  2.0133
 5434SOL    HW321469   2.174   5.573   1.373 -1.2790 -0.8640  0.5067
 5434SOL    MW421470   2.199   5.512   1.316  0.1071 -0.3574 -0.5469
 5435SOL     OW21471   6.189   3.423   0.421  0.2069  0.8412 -0.1405
 5435SOL    HW221472   6.251   3.353   0.441  0.3853  1.4203  1.4824
 5435SOL    HW321473   6.103   3.380   0.420  0.2510  0.6642  1.4373
 5435SOL    MW421474   6.186   3.408   0.424 -0.2418  0.1833 -0.4158
 5436SOL     OW21475   5.588   2.788   0.425 -0.0030  0.5651 -0.3002
 5436SOL    HW221476   5.649   2.788   0.351 -1.4268 -2.9970 -1.6845
 5436SOL    HW321477   5.503   2.807   0.386 -0.8456 -1.8101  0.2146
 5436SOL    MW421478   5.585   2.791   0.410  0.4789 -0.4064  0.3225
 5437SOL     OW21479   4.805   0.556   5.899 -0.1536 -0.1429  0.2933
 5437SOL    HW221480   4.765   0.488   5.845 -2.4315  0.2592  1.3900
 5437SOL    HW321481   4.755   0.636   5.879  2.5470  1.3646 -1.0895
 5437SOL    MW421482   4.793   0.558   5.889 -0.4214 -0.0437 -0.4156
 5438SOL     OW21483   5.020   1.202   4.964  0.4674 -0.6236  0.1427
 5438SOL    HW221484   4.942   1.203   4.909  0.3487  1.9699  0.2304
 5438SOL    HW321485   5.032   1.110   4.987 -0.6704 -1.5199 -2.4745
 5438SOL    MW421486   5.012   1.190   4.960  0.5158 -0.5133 -0.0252
 5439SOL     OW21487   5.751   4.460   4.767 -0.3179 -0.0942 -0.0259
 5439SOL    HW221488   5.733   4.472   4.860 -1.8531  0.1612 -0.3393
 5439SOL    HW321489   5.776   4.547   4.736 -0.3867 -0.0561  0.0258
 5439SOL    MW421490   5.752   4.473   4.775 -0.0467  0.2025  0.0012
 5440SOL     OW21491   2.846   4.488   3.502 -0.0300 -0.1474  0.2681
 5440SOL    HW221492   2.857   4.563   3.444 -1.8165 -0.2575 -0.2659
 5440SOL    HW321493   2.794   4.522   3.575 -0.2703 -0.7007  0.3574
 5440SOL    MW421494   2.841   4.502   3.504 -0.3523  0.3563  0.3932
 5441SOL     OW21495   2.256   0.817   1.125 -0.0455  0.2172 -0.0001
 5441SOL    HW221496   2.178   0.804   1.178 -0.0867 -1.1888 -0.3604
 5441SOL    HW321497   2.312   0.742   1.145  0.3818  0.1996 -1.1484
 5441SOL    MW421498   2.253   0.806   1.134 -0.9315  0.0784  0.1513
 5442SOL     OW21499   5.917   4.280   1.651 -0.2057  0.7154 -0.2814
 5442SOL    HW221500   5.905   4.348   1.718  0.3584  0.7848 -0.2422
 5442SOL    HW321501   5.924   4.199   1.701  3.2291  1.0708  0.0498
 5442SOL    MW421502   5.916   4.278   1.666 -0.4566 -0.3950 -0.0612
 5443SOL     OW21503   2.752   2.360   3.679  0.1889 -0.4637  0.3450
 5443SOL    HW221504   2.759   2.332   3.770  1.2310 -1.3308  0.0185
 5443SOL    HW321505   2.833   2.407   3.661 -0.0961 -0.1219 -0.0766
 5443SOL    MW421506   2.764   2.362   3.688  0.0950  0.1768 -0.6856
 5444SOL     OW21507   4.258   2.334   0.882 -0.1594 -0.6317 -0.4457
 5444SOL    HW221508   4.337   2.286   0.908  0.2697  0.6022  0.6145
 5444SOL    HW321509   4.290   2.417   0.847 -0.9174 -0.8823 -1.7690
 5444SOL    MW421510   4.273   2.338   0.881  0.3318 -1.1349 -0.0812
 5445SOL     OW21511   5.426   0.122   5.127  0.3618 -0.6215 -0.4848
 5445SOL    HW221512   5.344   0.089   5.089 -0.4468  0.2333  0.4344
 5445SOL    HW321513   5.417   0.106   5.221  1.0322 -0.0681 -0.3141
 5445SOL    MW421514   5.414   0.116   5.134  0.4441  0.3814  0.8119
 5446SOL     OW21515   2.841   5.472   6.019 -0.1263 -0.3638  0.5328
 5446SOL    HW221516   2.865   5.479   5.927 -0.3450  0.2669  0.5192
 5446SOL    HW321517   2.842   5.378   6.037  0.3912 -0.4638  0.0171
 5446SOL    MW421518   2.844   5.461   6.009 -0.3283 -0.3524 -0.4018
 5447SOL     OW21519   1.269   0.104   4.744  0.4067  0.1524  0.3319
 5447SOL    HW221520   1.183   0.082   4.710  0.1321  1.6844 -0.0204
 5447SOL    HW321521   1.286   0.038   4.811  1.0116 -3.0992 -2.6770
 5447SOL    MW421522   1.260   0.092   4.748 -0.7012  0.5728  0.1858
 5448SOL     OW21523   4.053   6.153   2.559  0.5508  0.1916  0.0506
 5448SOL    HW221524   4.094   6.148   2.645  1.3839 -4.4965 -0.3460
 5448SOL    HW321525   4.012   6.068   2.546 -0.5711  1.0770 -3.7487
 5448SOL    MW421526   4.053   6.141   2.568 -0.2867 -0.4129  0.1696
 5449SOL     OW21527   2.113   3.809   6.307  0.4501 -0.6408  0.2094
 5449SOL    HW221528   2.184   3.868   6.332 -1.1721  1.6592 -0.2482
 5449SOL    HW321529   2.116   3.739   6.372  2.2364  0.1247  1.0215
 5449SOL    MW421530   2.123   3.807   6.319 -0.2997 -0.9941  0.8646
 5450SOL     OW21531   4.902   3.964   4.011 -0.4821 -0.3464 -0.3926
 5450SOL    HW221532   4.969   3.906   4.046 -2.2434 -0.9485  2.2269
 5450SOL    HW321533   4.825   3.909   4.000 -1.1292  0.7164 -1.5557
 5450SOL    MW421534   4.901   3.949   4.014  0.1674 -0.4603  0.6831
 5451SOL     OW21535   5.249   2.509   3.012  0.1467 -0.0990  0.6614
 5451SOL    HW221536   5.312   2.581   3.017 -0.1901  0.2043  0.5738
 5451SOL    HW321537   5.301   2.434   2.983  0.3515  0.2989 -0.0275
 5451SOL    MW421538   5.264   2.509   3.009  0.3733  0.0234  0.1828
 5452SOL     OW21539   0.763   4.992   0.924 -0.1350  0.3782  0.2892
 5452SOL    HW221540   0.687   5.044   0.899  0.1174  1.7958  2.2492
 5452SOL    HW321541   0.727   4.905   0.942 -1.4826  1.2211  1.9793
 5452SOL    MW421542   0.748   4.988   0.923 -0.4418  0.0929 -0.1674
 5453SOL     OW21543   5.258   2.780   4.508  0.2678 -0.1051  0.7884
 5453SOL    HW221544   5.223   2.818   4.427 -0.3509 -0.0919  1.0535
 5453SOL    HW321545   5.333   2.728   4.480  0.8751  0.9685  0.3656
 5453SOL    MW421546   5.263   2.778   4.494 -0.3037 -0.3546 -0.0395
 5454SOL     OW21547   3.509   3.527   5.314  0.3343 -0.3219 -0.0571
 5454SOL    HW221548   3.585   3.561   5.266  0.3974 -3.0584 -2.1282
 5454SOL    HW321549   3.547   3.466   5.377 -0.0829 -0.4280  0.0899
 5454SOL    MW421550   3.524   3.524   5.316  0.2225 -0.0794 -0.0662
 5455SOL     OW21551   5.518   4.119   0.066 -0.3444 -0.3819  0.1387
 5455SOL    HW221552   5.612   4.130   0.078 -0.2911 -1.7259  1.2381
 5455SOL    HW321553   5.489   4.201   0.028  1.3036 -0.0156 -0.4096
 5455SOL    MW421554   5.527   4.131   0.063  0.3224 -0.1724 -0.9068
 5456SOL     OW21555   3.808   2.475   2.239 -0.3318 -0.3922 -0.4876
 5456SOL    HW221556   3.765   2.560   2.228 -0.1027 -0.2665 -0.4158
 5456SOL    HW321557   3.794   2.452   2.331 -0.4241 -0.4494 -0.5156
 5456SOL    MW421558   3.800   2.483   2.250  0.2363 -0.0256 -0.7440
 5457SOL     OW21559   0.299   3.358   6.374  0.1249 -0.0600  0.2400
 5457SOL    HW221560   0.267   3.288   6.317 -0.7713  0.0665  0.5761
 5457SOL    HW321561   0.380   3.387   6.332  0.5472 -1.3223  0.1196
 5457SOL    MW421562   0.305   3.352   6.361  0.1287 -0.3028 -0.2222
 5458SOL     OW21563   0.079   1.457   2.870  0.2157 -0.2139  0.2084
 5458SOL    HW221564   0.128   1.394   2.922  0.7572  1.1433  1.4375
 5458SOL    HW321565   0.081   1.422   2.781 -0.8875 -2.6945  1.0635
 5458SOL    MW421566   0.086   1.444   2.865 -0.3694  0.1197 -0.1602
 5459SOL     OW21567   5.785   0.709   3.329  0.6774  0.6287  0.4500
 5459SOL    HW221568   5.779   0.621   3.293  1.9583  1.2067 -1.3365
 5459SOL    HW321569   5.695   0.732   3.353  0.0092 -0.4347 -0.9022
 5459SOL    MW421570   5.772   0.701   3.328  0.0315  0.2510  0.4304
 5460SOL     OW21571   2.323   4.033   2.309 -0.0254 -0.0931 -0.5818
 5460SOL    HW221572   2.229   4.020   2.294 -0.7231  0.2383  2.6405
 5460SOL    HW321573   2.333   4.128   2.315  0.2542 -0.1660  0.2493
 5460SOL    MW421574   2.312   4.044   2.308  0.1649  0.3079  0.4063
 5461SOL     OW21575   0.263   5.083   3.238  0.5621  0.0256 -0.4423
 5461SOL    HW221576   0.296   5.055   3.153 -0.7980 -0.3417 -0.8789
 5461SOL    HW321577   0.208   5.010   3.267 -0.1292  0.7388  0.0896
 5461SOL    MW421578   0.260   5.070   3.231  0.3176  0.6610 -0.0716
 5462SOL     OW21579   5.810   3.446   1.649 -0.0653  0.5347 -0.3083
 5462SOL    HW221580   5.828   3.540   1.642  0.9585  0.2464 -1.9393
 5462SOL    HW321581   5.896   3.406   1.660 -0.2514 -0.3933 -1.9989
 5462SOL    MW421582   5.824   3.453   1.650  0.4677  0.0776  0.8956
 5463SOL     OW21583   1.633   5.331   3.683 -0.8553 -0.0167 -0.1053
 5463SOL    HW221584   1.631   5.357   3.775 -0.6636 -0.5406  0.0514
 5463SOL    HW321585   1.590   5.245   3.682 -1.1109  0.1141 -0.5481
 5463SOL    MW421586   1.627   5.323   3.695 -0.4040  0.2923 -0.1504
 5464SOL     OW21587   5.355   5.084   0.189 -0.0016  0.6614  0.5368
 5464SOL    HW221588   5.282   5.075   0.127  0.0679  2.1957  0.1826
 5464SOL    HW321589   5.395   5.168   0.167  3.7122 -1.3096 -1.1992
 5464SOL    MW421590   5.351   5.094   0.178  0.3042 -0.0986  0.9684
 5465SOL     OW21591   6.436   0.950   1.842 -0.0252  0.2883 -0.3583
 5465SOL    HW221592   6.471   1.033   1.875 -2.0531  0.4233  1.6328
 5465SOL    HW321593   6.346   0.969   1.818 -0.1756 -1.1032 -1.0070
 5465SOL    MW421594   6.429   0.964   1.843  0.3026 -0.2023  0.1119
 5466SOL     OW21595   0.692   2.404   5.299  0.0195  0.0132  0.0117
 5466SOL    HW221596   0.670   2.341   5.230  1.6417 -0.7849  0.1762
 5466SOL    HW321597   0.754   2.357   5.355 -0.7314  0.8876  1.6280
 5466SOL    MW421598   0.697   2.389   5.297  0.0092 -0.3266 -0.6863
 5467SOL     OW21599   6.391   4.163   3.979 -0.0774  0.0848  0.2400
 5467SOL    HW221600   6.449   4.230   4.014 -0.1265 -0.1598  0.7870
 5467SOL    HW321601   6.428   4.080   4.008  0.1564 -0.1514 -0.6898
 5467SOL    MW421602   6.403   4.161   3.987 -0.2438  0.1963  0.0166
 5468SOL     OW21603   0.753   0.399   1.207  0.2004 -0.1759 -0.0904
 5468SOL    HW221604   0.673   0.373   1.252 -0.1652  1.3437  0.1779
 5468SOL    HW321605   0.822   0.348   1.250 -0.6391 -1.7916 -0.5920
 5468SOL    MW421606   0.752   0.389   1.219  0.0966 -0.0490  0.1806
 5469SOL     OW21607   3.311   1.362   3.571  0.1337  0.0889  0.1737
 5469SOL    HW221608   3.290   1.353   3.664  1.3158 -0.8739  0.3663
 5469SOL    HW321609   3.386   1.305   3.558 -0.6856 -0.6363 -1.6150
 5469SOL    MW421610   3.318   1.353   3.582 -0.3239  0.1314 -0.7881
 5470SOL     OW21611   0.119   6.271   1.896  0.5046  0.4680  0.6034
 5470SOL    HW221612   0.103   6.294   1.987 -0.4729  0.8591  0.3498
 5470SOL    HW321613   0.033   6.247   1.861  1.0406 -0.7911  0.0733
 5470SOL    MW421614   0.105   6.271   1.903  0.2401  0.1261  0.2591
 5471SOL     OW21615   4.793   0.517   5.091 -0.0681  0.3100 -0.0945
 5471SOL    HW221616   4.719   0.464   5.120  0.6310  0.2548  1.6887
 5471SOL    HW321617   4.809   0.578   5.163  1.4885  0.4668 -0.5430
 5471SOL    MW421618   4.785   0.518   5.104 -0.1675  0.0975  0.3599
 5472SOL     OW21619   4.689   1.000   2.304  1.0935 -0.1161  0.0319
 5472SOL    HW221620   4.750   1.027   2.372  2.1205  0.8772 -1.2200
 5472SOL    HW321621   4.744   0.980   2.229 -0.0019 -1.1993 -0.5189
 5472SOL    MW421622   4.704   1.001   2.303  0.2917 -0.0251 -0.1859
 5473SOL     OW21623   1.926   2.410   1.945 -0.7245 -0.2525 -0.6985
 5473SOL    HW221624   2.008   2.458   1.934  0.2968 -1.9089 -0.6156
 5473SOL    HW321625   1.871   2.437   1.872 -0.3703  1.3651 -0.3931
 5473SOL    MW421626   1.929   2.420   1.934 -0.2304  0.1316  0.7964
 5474SOL     OW21627   0.339   2.313   4.064  0.1234 -0.6499  0.0866
 5474SOL    HW221628   0.402   2.263   4.115  0.3142  0.1209  0.6249
 5474SOL    HW321629   0.256   2.302   4.110 -0.0118 -1.1560 -0.2721
 5474SOL    MW421630   0.336   2.305   4.077  0.0144  0.1995 -0.1234
 5475SOL     OW21631   2.296   2.047   3.094  0.3771  0.0760  0.5404
 5475SOL    HW221632   2.339   1.965   3.069 -1.1915 -0.0303 -2.1134
 5475SOL    HW321633   2.356   2.086   3.158  1.3439 -2.9161  1.6643
 5475SOL    MW421634   2.310   2.041   3.099 -0.0933 -0.2354  0.0561
 5476SOL     OW21635   1.285   3.995   5.988 -0.4248 -0.0232 -0.0865
 5476SOL    HW221636   1.378   3.984   6.008 -0.6359  0.7370  1.4408
 5476SOL    HW321637   1.285   4.036   5.901  0.7366  1.2479  0.4597
 5476SOL    MW421638   1.298   3.999   5.979 -0.1564 -0.0177  0.1188
 5477SOL     OW21639   2.665   1.388   4.147 -0.2825  0.2841 -0.2617
 5477SOL    HW221640   2.596   1.415   4.087  0.2518  2.2483 -0.0740
 5477SOL    HW321641   2.641   1.429   4.230  0.1390 -0.5695  0.2921
 5477SOL    MW421642   2.653   1.397   4.150 -0.5387 -0.0582  0.3195
 5478SOL     OW21643   0.058   0.564   2.674  0.5822  0.2566  0.2000
 5478SOL    HW221644  -0.007   0.494   2.680  0.3673  0.5861  4.4103
 5478SOL    HW321645   0.025   0.621   2.604 -1.6713 -1.4742 -0.2581
 5478SOL    MW421646   0.045   0.563   2.665 -0.3888  1.0981  0.7854
 5479SOL     OW21647   3.955   2.328   2.449  0.1123 -0.3717  0.0198
 5479SOL    HW221648   3.969   2.351   2.540 -0.1885 -0.5038  0.1016
 5479SOL    HW321649   3.995   2.399   2.399  1.0188 -0.7179  0.2387
 5479SOL    MW421650   3.962   2.340   2.454 -0.0227 -0.3400  0.1767
 5480SOL     OW21651   5.450   5.248   3.859  0.1873  0.4650  0.2041
 5480SOL    HW221652   5.360   5.240   3.829  0.3409  0.9115 -0.3914
 5480SOL    HW321653   5.455   5.334   3.901  0.0152 -0.0866  1.4155
 5480SOL    MW421654   5.439   5.258   3.861 -0.0295 -0.6617  0.5000
 5481SOL     OW21655   2.364   4.885   0.430 -0.3383  0.0171 -0.0482
 5481SOL    HW221656   2.392   4.851   0.514  0.8151  1.3275  0.1450
 5481SOL    HW321657   2.279   4.925   0.447 -0.4521 -0.3779  0.3164
 5481SOL    MW421658   2.356   4.886   0.443 -0.4836  0.3732  0.1429
 5482SOL     OW21659   3.980   2.737   0.151  0.2091 -0.1361 -0.1255
 5482SOL    HW221660   3.959   2.743   0.058 -0.4033 -1.3856 -0.0870
 5482SOL    HW321661   4.002   2.645   0.165  0.6527  0.1100  0.9001
 5482SOL    MW421662   3.980   2.726   0.141  0.4616  0.2729  0.9326
 5483SOL     OW21663   2.389   0.431   3.313  0.1006  0.1603  0.2594
 5483SOL    HW221664   2.381   0.493   3.385 -1.8479 -0.8719  1.0224
 5483SOL    HW321665   2.324   0.460   3.249  0.8335  0.2516 -0.4628
 5483SOL    MW421666   2.379   0.443   3.314  0.2121  0.1621  0.0964
 5484SOL     OW21667   1.764   5.541   0.143 -0.4298  0.1851 -0.2388
 5484SOL    HW221668   1.793   5.596   0.070 -0.7579  0.4319 -0.1873
 5484SOL    HW321669   1.838   5.542   0.204 -0.8127  1.4496  0.2463
 5484SOL    MW421670   1.778   5.549   0.142  0.0568  0.8594 -0.3045
 5485SOL     OW21671   0.907   4.126   0.273  0.5190  0.0598 -0.1058
 5485SOL    HW221672   0.879   4.210   0.238 -0.3995  0.0113  0.4823
 5485SOL    HW321673   0.901   4.066   0.199  0.7091  0.4085 -0.4085
 5485SOL    MW421674   0.903   4.129   0.259  0.1492 -0.0681  0.6663
 5486SOL     OW21675   4.254   6.310   0.206  0.1406 -0.4915 -0.0940
 5486SOL    HW221676   4.175   6.300   0.258 -0.3206  0.1242 -0.6505
 5486SOL    HW321677   4.223   6.312   0.115  0.6805  0.6178 -0.2769
 5486SOL    MW421678   4.239   6.309   0.201 -0.0555 -0.2681  0.3437
 5487SOL     OW21679   2.138   4.116   1.089 -0.0696 -0.6587  0.5490
 5487SOL    HW221680   2.094   4.066   1.020 -1.0733  0.8765  0.0219
 5487SOL    HW321681   2.078   4.188   1.109  1.5578  0.6920  0.8413
 5487SOL    MW421682   2.124   4.119   1.082 -0.4517  0.2314 -0.4197
 5488SOL     OW21683   2.009   0.126   0.477  0.7479  0.2326  0.0911
 5488SOL    HW221684   2.003   0.126   0.381 -1.9220  1.6396  0.1701
 5488SOL    HW321685   2.015   0.219   0.501 -1.3223  0.0868  1.3538
 5488SOL    MW421686   2.009   0.139   0.467  0.0245 -0.3021  0.0079
 5489SOL     OW21687   4.092   2.657   0.607 -0.4211  0.3916  0.0273
 5489SOL    HW221688   4.086   2.741   0.562 -2.4547  0.6915  0.7379
 5489SOL    HW321689   4.084   2.678   0.700 -0.9457 -0.5656  0.2206
 5489SOL    MW421690   4.090   2.671   0.614  0.5897  0.6821 -0.0144
 5490SOL     OW21691   4.552   2.070   4.840 -0.2070  0.7402 -0.2536
 5490SOL    HW221692   4.630   2.101   4.885 -0.8694  1.7894  0.2220
 5490SOL    HW321693   4.584   2.026   4.762  0.8927  0.2885  0.4376
 5490SOL    MW421694   4.566   2.068   4.836 -0.0267 -0.2486  0.3412
 5491SOL     OW21695   6.311   6.137   2.312 -0.2329 -0.3569 -0.4606
 5491SOL    HW221696   6.223   6.174   2.317  0.3453  1.0621 -0.2936
 5491SOL    HW321697   6.319   6.105   2.223 -0.0045  1.9840 -1.3468
 5491SOL    MW421698   6.300   6.138   2.301 -0.2653  0.2039 -0.0966
 5492SOL     OW21699   0.723   2.185   2.569 -0.2880  0.5566 -0.3110
 5492SOL    HW221700   0.737   2.174   2.663  0.0571  2.7875 -0.0484
 5492SOL    HW321701   0.792   2.133   2.528  0.2650  0.4705  0.6961
 5492SOL    MW421702   0.734   2.176   2.576 -0.1555  0.0351 -0.0503
 5493SOL     OW21703   0.546   5.162   0.823 -0.3601 -0.0330  0.3176
 5493SOL    HW221704   0.451   5.168   0.836 -0.5328 -1.2449 -0.1905
 5493SOL    HW321705   0.570   5.243   0.779 -1.5838 -0.7060 -1.7534
 5493SOL    MW421706   0.536   5.173   0.819 -0.1323 -0.1518  0.5310
 5494SOL     OW21707   1.463   2.316   2.701 -0.1131  0.2495 -0.6963
 5494SOL    HW221708   1.509   2.376   2.642  0.2491  0.7362  0.0608
 5494SOL    HW321709   1.371   2.337   2.691 -0.0142  0.6717 -0.7178
 5494SOL    MW421710   1.457   2.327   2.692 -0.2830 -0.7314 -0.3790
 5495SOL     OW21711   6.200   2.486   1.888 -0.1159 -0.1989  0.3484
 5495SOL    HW221712   6.124   2.542   1.900  0.5523  1.0821 -1.0824
 5495SOL    HW321713   6.234   2.472   1.976 -0.8897  0.7880  0.8210
 5495SOL    MW421714   6.195   2.491   1.901 -0.5453  0.1620  0.6095
 5496SOL     OW21715   6.285   3.759   0.610 -0.6321  0.5328 -0.1276
 5496SOL    HW221716   6.364   3.724   0.569 -0.2483 -0.9593  1.7325
 5496SOL    HW321717   6.214   3.709   0.571 -0.3813 -0.0953  0.2090
 5496SOL    MW421718   6.286   3.748   0.599 -0.0171 -0.0725 -0.5569
 5497SOL     OW21719   5.028   4.057   2.114 -0.6520 -0.1625  0.5163
 5497SOL    HW221720   4.933   4.051   2.119 -0.6908 -0.2338 -0.2020
 5497SOL    HW321721   5.046   4.077   2.023  0.0270 -0.2013  0.6371
 5497SOL    MW421722   5.018   4.059   2.103  0.4984 -0.0247 -0.5965
 5498SOL     OW21723   4.134   2.118   3.393  0.3842 -0.7570  0.0991
 5498SOL    HW221724   4.206   2.176   3.367  0.9149 -1.1203  0.7226
 5498SOL    HW321725   4.055   2.163   3.364  0.7296  0.7081  1.3397
 5498SOL    MW421726   4.133   2.132   3.386  0.3408  0.2846 -0.2432
 5499SOL     OW21727   1.871   3.612   1.561  0.2357  1.1973  0.9206
 5499SOL    HW221728   1.816   3.682   1.525 -1.6043 -1.4274 -1.8809
 5499SOL    HW321729   1.809   3.542   1.581  2.0627  0.0570  2.9464
 5499SOL    MW421730   1.855   3.612   1.559 -0.0862 -0.2217 -0.2506
 5500SOL     OW21731   4.689   1.463   5.518 -0.5748 -0.0373  0.0118
 5500SOL    HW221732   4.654   1.391   5.572 -2.4220  1.7383  1.3280
 5500SOL    HW321733   4.615   1.488   5.462  0.7862 -0.6643 -2.1823
 5500SOL    MW421734   4.674   1.457   5.518  0.1596 -0.7601  0.0847
 5501SOL     OW21735   1.154   4.455   3.318 -0.0914  0.1335  0.0664
 5501SOL    HW221736   1.226   4.462   3.381  0.0138 -1.9144  0.2416
 5501SOL    HW321737   1.077   4.485   3.367  0.3941  1.0484  0.3043
 5501SOL    MW421738   1.153   4.460   3.333 -0.1774 -0.0070  0.2497
 5502SOL     OW21739   5.199   4.948   3.321 -0.0483 -0.3258 -0.4166
 5502SOL    HW221740   5.192   5.014   3.390 -2.7868 -0.2555 -0.6363
 5502SOL    HW321741   5.144   4.876   3.351 -1.0604 -0.4312 -2.3492
 5502SOL    MW421742   5.191   4.948   3.334 -0.2397 -0.6446 -0.4196
 5503SOL     OW21743   5.442   4.682   3.086  0.0419 -0.3380  0.6538
 5503SOL    HW221744   5.414   4.694   3.177  0.9111  1.3879  0.7356
 5503SOL    HW321745   5.457   4.588   3.078 -0.6329 -0.6079  2.1143
 5503SOL    MW421746   5.440   4.671   3.097  0.4221 -0.1850  0.0454
 5504SOL     OW21747   3.847   5.065   1.271 -0.5622  0.3057 -0.9040
 5504SOL    HW221748   3.893   5.148   1.286  1.9971 -0.6886 -2.5104
 5504SOL    HW321749   3.756   5.090   1.258 -0.3049  2.5886  0.9763
 5504SOL    MW421750   3.841   5.079   1.272 -0.2584 -0.5528  0.0152
 5505SOL     OW21751   4.539   2.720   4.895  0.2341  0.2621  0.4415
 5505SOL    HW221752   4.560   2.657   4.826 -1.5650  0.9949 -0.8486
 5505SOL    HW321753   4.555   2.673   4.977  1.5658 -0.9232 -0.4690
 5505SOL    MW421754   4.544   2.705   4.897 -0.0652  0.0546  0.1303
 5506SOL     OW21755   0.810   0.546   6.242 -0.5163  0.4538  0.2596
 5506SOL    HW221756   0.822   0.585   6.156 -2.4337 -0.1727 -0.3421
 5506SOL    HW321757   0.889   0.571   6.291  0.6570  0.7555 -1.6699
 5506SOL    MW421758   0.822   0.554   6.237  0.1489 -0.1017  0.2050
 5507SOL     OW21759   0.218   4.216   4.713 -0.3674  0.0631  0.0431
 5507SOL    HW221760   0.216   4.310   4.696 -1.9088  0.0574 -0.0074
 5507SOL    HW321761   0.125   4.192   4.722  0.0579 -1.0029  2.4847
 5507SOL    MW421762   0.205   4.225   4.712  0.5613  0.3414  0.1402
 5508SOL     OW21763   4.250   3.448   4.532 -0.0207 -0.2889  0.4682
 5508SOL    HW221764   4.321   3.428   4.470  0.6052 -0.4043  1.2107
 5508SOL    HW321765   4.235   3.542   4.522  0.3338 -0.2388  0.4082
 5508SOL    MW421766   4.257   3.458   4.522 -0.1666  0.1490  0.0185
 5509SOL     OW21767   5.942   5.138   3.034 -0.6615  0.2247 -0.0982
 5509SOL    HW221768   5.941   5.229   3.003  0.5299  0.2381 -0.1208
 5509SOL    HW321769   6.033   5.121   3.057 -0.9106 -0.9090  0.1049
 5509SOL    MW421770   5.954   5.148   3.033  0.3243 -0.4742 -0.2485
 5510SOL     OW21771   4.876   0.878   2.101 -0.0491 -0.4851 -0.2321
 5510SOL    HW221772   4.798   0.824   2.086 -0.7774  1.0331 -2.5267
 5510SOL    HW321773   4.896   0.914   2.015  1.3018  1.6710  0.9084
 5510SOL    MW421774   4.868   0.876   2.088 -0.1245  0.3226  0.2461
 5511SOL     OW21775   5.831   2.133   5.429 -0.3188  0.2816  0.2369
 5511SOL    HW221776   5.827   2.142   5.333  2.2126 -0.7275 -0.0371
 5511SOL    HW321777   5.832   2.222   5.461 -0.9912  0.6435 -0.6923
 5511SOL    MW421778   5.830   2.146   5.420 -0.4079  0.3479 -0.2956
 5512SOL     OW21779   5.512   1.389   0.245 -0.0589 -0.1857  0.1589
 5512SOL    HW221780   5.591   1.414   0.293 -1.0395  0.8508  1.2879
 5512SOL    HW321781   5.498   1.459   0.182 -0.5492  0.0723  0.5491
 5512SOL    MW421782   5.521   1.401   0.243 -0.7992  0.1335 -0.1405
 5513SOL     OW21783   5.720   3.033   4.641 -0.5240  0.4883  0.2809
 5513SOL    HW221784   5.739   3.050   4.733  1.3574 -1.3085  0.2986
 5513SOL    HW321785   5.796   3.067   4.594 -0.8736  0.2416 -0.4856
 5513SOL    MW421786   5.732   3.040   4.647  0.2472 -0.4149  0.5103
 5514SOL     OW21787   1.708   4.184   5.315 -0.2046  0.0947 -0.2227
 5514SOL    HW221788   1.715   4.127   5.238 -2.8561  2.3544 -2.3643
 5514SOL    HW321789   1.755   4.264   5.289 -0.9822  0.8264  0.5723
 5514SOL    MW421790   1.715   4.187   5.301  0.4786  0.1913  0.1529
 5515SOL     OW21791   1.130   1.274   5.003  0.5615 -0.0668 -0.4328
 5515SOL    HW221792   1.220   1.251   5.026  0.1175  0.2965  1.9525
 5515SOL    HW321793   1.081   1.192   5.013  0.6731 -0.3758 -2.1991
 5515SOL    MW421794   1.135   1.260   5.008 -0.0938  0.4065  0.3489
 5516SOL     OW21795   4.500   0.886   1.030  0.7540 -0.0055 -0.2426
 5516SOL    HW221796   4.467   0.959   0.977  2.4299 -0.0823 -1.4756
 5516SOL    HW321797   4.582   0.918   1.066  0.5661 -0.6453  0.7862
 5516SOL    MW421798   4.506   0.900   1.028 -0.1108  0.4360 -0.3676
 5517SOL     OW21799   6.229   1.118   2.924 -0.3792 -0.0440 -0.2918
 5517SOL    HW221800   6.213   1.210   2.902  0.7832  0.0987 -0.6116
 5517SOL    HW321801   6.249   1.076   2.841  1.3900 -0.0733  0.1069
 5517SOL    MW421802   6.230   1.125   2.910  0.0999 -0.2891  0.8450
 5518SOL     OW21803   5.522   2.241   0.709 -0.3476  0.5260 -0.2996
 5518SOL    HW221804   5.429   2.224   0.722 -0.4010  0.2694 -1.0183
 5518SOL    HW321805   5.547   2.296   0.784 -0.9888  0.2970  0.0860
 5518SOL    MW421806   5.513   2.246   0.721  0.1614  0.2876 -0.1939
 5519SOL     OW21807   0.757   5.333   5.228  0.1461 -0.3301 -0.4975
 5519SOL    HW221808   0.670   5.340   5.268  0.3445  3.9120 -0.3351
 5519SOL    HW321809   0.747   5.265   5.161 -2.8950 -0.9464  0.4084
 5519SOL    MW421810   0.744   5.325   5.224  0.4120 -0.3569  0.3088
 5520SOL     OW21811   2.789   2.976   4.715  0.2432 -0.0851  0.4051
 5520SOL    HW221812   2.862   2.919   4.689  0.4932 -0.2240  1.3694
 5520SOL    HW321813   2.804   3.057   4.667  0.9257 -0.1856  0.4345
 5520SOL    MW421814   2.801   2.979   4.705  0.1198 -0.3314  0.2521
 5521SOL     OW21815   1.555   3.935   3.288  0.6748 -0.1775 -0.0205
 5521SOL    HW221816   1.520   3.912   3.202 -0.8283 -1.1807  0.8096
 5521SOL    HW321817   1.559   4.030   3.288  0.6182 -0.1663 -1.1690
 5521SOL    MW421818   1.551   3.944   3.277 -0.9139 -0.6990  0.1054
 5522SOL     OW21819   6.208   0.012   2.197  0.2920  0.5550 -0.1555
 5522SOL    HW221820   6.223   0.102   2.227 -1.1578  0.8550 -0.2504
 5522SOL    HW321821   6.198  -0.039   2.277 -1.2024  0.9244 -0.0765
 5522SOL    MW421822   6.208   0.017   2.212 -0.5428 -0.1935  0.3478
 5523SOL     OW21823   4.391   2.114   3.619  0.2905 -0.5912 -0.0646
 5523SOL    HW221824   4.368   2.178   3.686 -0.5178  0.2755 -1.1271
 5523SOL    HW321825   4.450   2.161   3.560 -0.7753 -0.5798 -1.1870
 5523SOL    MW421826   4.395   2.128   3.620  0.0251  0.9479 -0.3646
 5524SOL     OW21827   5.936   3.489   1.111 -0.2270 -0.2298  0.6440
 5524SOL    HW221828   6.009   3.524   1.162 -0.1350  0.1642  0.2458
 5524SOL    HW321829   5.976   3.463   1.028 -0.4271 -0.6062  0.6639
 5524SOL    MW421830   5.951   3.490   1.107 -0.6881 -0.0868  0.2282
 5525SOL     OW21831   2.268   4.143   0.190  0.2241 -0.3827 -0.2076
 5525SOL    HW221832   2.269   4.060   0.143 -1.1861 -0.3925 -0.2601
 5525SOL    HW321833   2.197   4.135   0.253  0.5308  0.5260  0.2863
 5525SOL    MW421834   2.259   4.131   0.193  0.3933 -0.0259  0.2066
 5526SOL     OW21835   4.800   1.768   1.804 -0.1226 -0.0738 -0.2508
 5526SOL    HW221836   4.879   1.718   1.784  1.3144  1.9227  0.0996
 5526SOL    HW321837   4.728   1.706   1.792  1.5327 -2.1522  0.0896
 5526SOL    MW421838   4.801   1.753   1.799  0.2016  0.1531 -0.5598
 5527SOL     OW21839   3.048   3.350   5.771  0.7950  0.1968  0.1242
 5527SOL    HW221840   3.065   3.379   5.861  1.2850  0.7196 -0.1291
 5527SOL    HW321841   3.029   3.257   5.779 -0.6909  0.5501  0.9434
 5527SOL    MW421842   3.048   3.342   5.784  0.1147 -0.1590  0.4390
 5528SOL     OW21843   1.289   2.331   1.312 -0.1007 -0.7719  0.1293
 5528SOL    HW221844   1.270   2.318   1.405 -2.0950 -0.8490 -0.2436
 5528SOL    HW321845   1.378   2.299   1.301  0.0774 -1.0193  1.9548
 5528SOL    MW421846   1.298   2.325   1.323 -0.2095  0.0577  0.1263
 5529SOL     OW21847   0.052   4.743   0.071  0.4946  0.4352 -0.0019
 5529SOL    HW221848   0.009   4.715   0.152  0.7608  1.2350  0.4287
 5529SOL    HW321849   0.022   4.680   0.005  1.4588 -1.1480  1.0039
 5529SOL    MW421850   0.042   4.731   0.073  0.2953  0.2026 -0.6710
 5530SOL     OW21851   4.251   1.234   0.852  0.2627  0.0889  0.1317
 5530SOL    HW221852   4.211   1.319   0.869  2.0249  1.0159 -0.2016
 5530SOL    HW321853   4.242   1.221   0.758  0.7240  0.2920  0.0584
 5530SOL    MW421854   4.244   1.243   0.842 -0.5602  0.4157  0.5234
 5531SOL     OW21855   5.261   0.239   0.046  0.5566 -0.5834 -0.3254
 5531SOL    HW221856   5.313   0.170   0.004  1.1007 -0.4981  0.2075
 5531SOL    HW321857   5.201   0.268  -0.023 -0.2369 -2.1306 -0.3533
 5531SOL    MW421858   5.260   0.233   0.031 -0.1213  0.0060  0.1538
 5532SOL     OW21859   0.206   1.759   5.015  0.1542 -0.3487 -0.1810
 5532SOL    HW221860   0.144   1.732   4.947 -1.2858  1.9052  0.1357
 5532SOL    HW321861   0.292   1.754   4.972 -0.5133 -0.8421 -1.5316
 5532SOL    MW421862   0.209   1.754   5.000 -0.3235  0.0018 -0.2964
 5533SOL     OW21863   3.003   4.171   1.454 -0.2376  0.0115  0.3543
 5533SOL    HW221864   2.929   4.166   1.515  0.7935  2.5774  1.9475
 5533SOL    HW321865   2.985   4.248   1.401  0.6442 -0.1112 -0.1298
 5533SOL    MW421866   2.991   4.180   1.455  0.1316  0.6984  0.3098
 5534SOL     OW21867   3.392   5.349   2.013 -0.3326 -0.0729  0.2953
 5534SOL    HW221868   3.407   5.256   1.997 -1.4385 -0.7753  2.8248
 5534SOL    HW321869   3.350   5.381   1.933  1.4085 -1.3358 -1.2095
 5534SOL    MW421870   3.388   5.341   2.000  0.3802 -0.1759 -0.4028
 5535SOL     OW21871   2.747   2.829   2.304  0.0732  0.8109 -0.1920
 5535SOL    HW221872   2.797   2.887   2.361 -1.3269  0.8177  1.0891
 5535SOL    HW321873   2.734   2.749   2.355  1.7109 -0.6017 -1.8178
 5535SOL    MW421874   2.752   2.826   2.318  0.0811 -0.3521  0.0591
 5536SOL     OW21875   3.333   5.692   1.199 -0.0308 -0.4944  0.4860
 5536SOL    HW221876   3.411   5.707   1.254  0.3935  0.2828 -0.3000
 5536SOL    HW321877   3.291   5.615   1.238  2.2924 -2.3005 -0.3355
 5536SOL    MW421878   3.338   5.684   1.212  0.6371 -0.6570 -0.0485
 5537SOL     OW21879   3.756   6.246   3.951  0.1577  0.0535  0.0655
 5537SOL    HW221880   3.739   6.326   3.999 -0.1442  0.5793 -0.8888
 5537SOL    HW321881   3.799   6.275   3.870  1.1048 -0.8463  0.2220
 5537SOL    MW421882   3.760   6.260   3.947  0.1604 -0.1479  0.2313
 5538SOL     OW21883   0.837   5.154   1.135 -0.2754  0.1358 -0.0481
 5538SOL    HW221884   0.787   5.236   1.124 -1.2365 -0.6234 -1.8919
 5538SOL    HW321885   0.824   5.108   1.052  2.0295 -0.9474  0.1204
 5538SOL    MW421886   0.828   5.159   1.122  0.0556  0.3146  0.3834
 5539SOL     OW21887   3.929   1.174   2.238  0.0857 -0.4896  0.0548
 5539SOL    HW221888   3.919   1.079   2.233  1.1571 -0.6175  0.1668
 5539SOL    HW321889   3.871   1.208   2.170  1.4021 -1.3461 -1.5731
 5539SOL    MW421890   3.920   1.166   2.229  0.0812  0.5200  0.7677
 5540SOL     OW21891   1.531   2.390   5.151 -0.5175 -0.6310  0.0195
 5540SOL    HW221892   1.535   2.313   5.208  1.2290 -1.1324 -0.6686
 5540SOL    HW321893   1.607   2.442   5.176  0.2817 -0.8462 -1.7236
 5540SOL    MW421894   1.542   2.387   5.162 -0.4828 -0.8755 -0.3327
 5541SOL     OW21895   2.829   5.756   5.158  0.0813  0.3781  0.2301
 5541SOL    HW221896   2.873   5.824   5.107 -0.3030  0.7679  0.4144
 5541SOL    HW321897   2.755   5.801   5.199 -0.8438 -0.4052 -0.5483
 5541SOL    MW421898   2.825   5.771   5.157  0.1722 -0.3912 -0.0265
 5542SOL     OW21899   6.006   0.075   1.749  0.2740  0.3062 -0.1147
 5542SOL    HW221900   6.088   0.118   1.776  1.0839 -1.4791  0.4280
 5542SOL    HW321901   5.967   0.046   1.831 -0.4371  0.3207 -0.4485
 5542SOL    MW421902   6.012   0.077   1.763 -0.0406 -0.4921 -0.2392
 5543SOL     OW21903   0.350   4.862   1.747 -0.0220  0.2389  0.4299
 5543SOL    HW221904   0.308   4.776   1.755 -0.0895  0.4053  2.2495
 5543SOL    HW321905   0.444   4.843   1.744 -0.0962  0.0074 -1.2641
 5543SOL    MW421906   0.357   4.848   1.748 -0.6518  0.1047 -0.5368
 5544SOL     OW21907   1.881   3.583   0.763  0.1132  0.2416  0.0917
 5544SOL    HW221908   1.803   3.552   0.809 -0.8899  1.3640 -0.7970
 5544SOL    HW321909   1.931   3.629   0.831 -1.3202  1.8238  0.1522
 5544SOL    MW421910   1.877   3.585   0.778  0.0072  0.4464  0.0699
 5545SOL     OW21911   3.049   2.584   4.805  0.1392 -0.1471 -0.1082
 5545SOL    HW221912   3.022   2.492   4.811 -0.8471  0.2179  1.9660
 5545SOL    HW321913   3.144   2.580   4.794  0.0239 -1.4162 -0.8366
 5545SOL    MW421914   3.058   2.571   4.804 -0.6430 -0.2764 -0.7710
 5546SOL     OW21915   4.517   3.628   1.568 -1.3002  0.9560  0.3719
 5546SOL    HW221916   4.551   3.542   1.546 -4.0615 -0.3148  0.7805
 5546SOL    HW321917   4.568   3.654   1.645  0.1526  0.1436 -0.2560
 5546SOL    MW421918   4.528   3.620   1.575 -1.0700 -0.2238 -0.3293
 5547SOL     OW21919   3.021   2.516   3.125 -0.1561 -0.0953 -0.3932
 5547SOL    HW221920   2.965   2.532   3.201  1.9944  0.0977  1.2456
 5547SOL    HW321921   3.110   2.524   3.159  0.9050  1.0397 -3.1724
 5547SOL    MW421922   3.026   2.519   3.140  0.3629 -0.3169 -0.3674
 5548SOL     OW21923   2.484   0.605   2.852 -0.0085 -0.6406  0.0457
 5548SOL    HW221924   2.414   0.626   2.913 -1.2835 -0.8035 -1.3035
 5548SOL    HW321925   2.459   0.520   2.815  2.1298 -1.9005  1.2234
 5548SOL    MW421926   2.472   0.596   2.855 -0.1668  0.7794 -0.7226
 5549SOL     OW21927   1.625   3.410   1.384  0.3818  0.1409  0.1088
 5549SOL    HW221928   1.534   3.434   1.401  0.4555  0.9077 -0.5514
 5549SOL    HW321929   1.622   3.359   1.303  0.3313 -1.4361  1.0530
 5549SOL    MW421930   1.613   3.406   1.375  0.1576  0.3568 -0.1384
 5550SOL     OW21931   3.478   2.672   2.363  0.2123 -0.2158 -0.2157
 5550SOL    HW221932   3.556   2.685   2.309 -0.4166  1.4521 -0.7740
 5550SOL    HW321933   3.449   2.583   2.342  1.5672 -0.5995 -0.5064
 5550SOL    MW421934   3.484   2.662   2.353  0.2223 -0.6901  0.3829
 5551SOL     OW21935   1.775   2.101   2.556  0.6407  0.0708 -0.3966
 5551SOL    HW221936   1.712   2.070   2.620  1.5657  1.2920  1.1756
 5551SOL    HW321937   1.753   2.053   2.476 -2.0722  0.2275  0.1379
 5551SOL    MW421938   1.764   2.091   2.554  0.0016 -0.0526 -0.1372
 5552SOL     OW21939   3.935   4.598   5.962 -0.0009  0.6396  0.0683
 5552SOL    HW221940   3.992   4.523   5.945 -0.0486  0.0030  2.3003
 5552SOL    HW321941   3.995   4.671   5.977  0.1566  0.4799  0.2259
 5552SOL    MW421942   3.950   4.597   5.962  0.6885  0.3562  0.6841
 5553SOL     OW21943   0.347   4.634   4.880  0.0785 -0.1106  0.0937
 5553SOL    HW221944   0.391   4.683   4.950  0.7297 -0.8923  0.2490
 5553SOL    HW321945   0.303   4.563   4.925  0.5445 -0.6475 -0.2852
 5553SOL    MW421946   0.347   4.631   4.895  0.2492  0.5161 -0.3152
 5554SOL     OW21947   2.146   5.714   6.402  0.1562  0.4061  0.6719
 5554SOL    HW221948   2.199   5.686   6.477 -0.2061 -1.2415  0.3522
 5554SOL    HW321949   2.120   5.632   6.359 -1.9935  1.1806  0.3710
 5554SOL    MW421950   2.150   5.699   6.406 -0.3285  0.4911 -0.1271
 5555SOL     OW21951   4.258   4.487   5.692  0.1719 -0.4083 -0.1631
 5555SOL    HW221952   4.286   4.425   5.625  0.1022 -0.1705 -0.4121
 5555SOL    HW321953   4.198   4.437   5.747 -0.1563 -0.4603 -0.5667
 5555SOL    MW421954   4.254   4.472   5.691  0.0102 -0.3331  0.2387
 5556SOL     OW21955   1.972   1.068   4.737  0.2446  0.0141 -0.3732
 5556SOL    HW221956   1.933   0.992   4.694 -1.7250 -0.2951  1.7806
 5556SOL    HW321957   1.946   1.142   4.682 -2.1787 -0.3691  0.1594
 5556SOL    MW421958   1.964   1.068   4.724 -0.0917 -0.6478  0.2305
 5557SOL     OW21959   1.550   2.291   2.265  0.0874 -0.0521 -0.3036
 5557SOL    HW221960   1.623   2.340   2.225  1.9322 -2.5564 -0.2715
 5557SOL    HW321961   1.525   2.343   2.341 -1.6244  3.4291 -2.9788
 5557SOL    MW421962   1.556   2.304   2.270  0.5439  0.2057  0.0464
 5558SOL     OW21963   4.417   1.045   1.992 -0.2732  0.3146  0.0243
 5558SOL    HW221964   4.361   1.121   1.974 -0.7418 -0.2447 -1.0061
 5558SOL    HW321965   4.382   0.976   1.934  0.9047 -0.3136  0.0399
 5558SOL    MW421966   4.405   1.046   1.982  0.0621 -0.1219 -0.3994
 5559SOL     OW21967   0.090   0.856   4.182 -0.2630 -0.6042 -0.0626
 5559SOL    HW221968   0.146   0.929   4.155 -1.1721  0.7298  1.4569
 5559SOL    HW321969   0.127   0.780   4.138 -0.1685  0.9760 -2.9430
 5559SOL    MW421970   0.102   0.856   4.173 -0.6630 -0.5630  0.1554
 5560SOL     OW21971   0.760   5.787   5.916  0.7257 -0.3754 -0.0460
 5560SOL    HW221972   0.789   5.854   5.977 -0.2696 -0.9666  1.1093
 5560SOL    HW321973   0.813   5.802   5.837  1.4116  0.9454  0.6350
 5560SOL    MW421974   0.771   5.798   5.913  0.2529 -0.4384 -0.2334
 5561SOL     OW21975   5.695   6.401   1.946  0.3682  0.5007 -0.2770
 5561SOL    HW221976   5.612   6.415   1.902  0.0412 -1.0852 -0.2127
 5561SOL    HW321977   5.739   6.486   1.942 -1.4594  1.5101  0.1573
 5561SOL    MW421978   5.690   6.414   1.940 -0.3566  0.2122 -0.2329
 5562SOL     OW21979   5.086   0.246   4.480 -0.2122  0.3620  0.1213
 5562SOL    HW221980   5.017   0.296   4.436 -0.5961  0.6723  1.0342
 5562SOL    HW321981   5.075   0.268   4.573  0.3015 -0.5897  0.4196
 5562SOL    MW421982   5.075   0.255   4.486 -0.7000 -0.0330  0.9259
 5563SOL     OW21983   2.145   5.909   2.964 -0.5456 -0.2923  0.3038
 5563SOL    HW221984   2.097   5.844   2.912  0.1110 -0.4568 -0.0940
 5563SOL    HW321985   2.184   5.968   2.900  0.2912 -0.5153  0.5919
 5563SOL    MW421986   2.144   5.908   2.949 -0.0831 -0.0936  0.1175
 5564SOL     OW21987   1.659   4.330   2.594 -0.2740  0.1368 -0.1983
 5564SOL    HW221988   1.595   4.312   2.525 -0.5707 -0.7701  0.2954
 5564SOL    HW321989   1.629   4.412   2.633 -1.3507 -0.4494  0.2508
 5564SOL    MW421990   1.647   4.338   2.590  0.8424  0.0005 -0.1671
 5565SOL     OW21991   5.424   5.156   1.076 -0.0868 -0.2943 -0.0808
 5565SOL    HW221992   5.515   5.170   1.101  0.4655 -1.7568 -1.1522
 5565SOL    HW321993   5.407   5.064   1.096 -1.0486 -0.2670 -0.6913
 5565SOL    MW421994   5.433   5.146   1.082 -0.2688  0.1579 -0.3637
 5566SOL     OW21995   1.489   5.386   1.162  0.2747  0.2489  0.2947
 5566SOL    HW221996   1.490   5.445   1.238 -0.6588 -0.8505  1.1957
 5566SOL    HW321997   1.418   5.419   1.107 -0.1052  0.1076  0.6925
 5566SOL    MW421998   1.480   5.398   1.165  0.1282  0.0036  0.4952
 5567SOL     OW21999   1.151   4.169   2.068  0.3257 -0.5404 -0.0046
 5567SOL    HW222000   1.110   4.144   1.985 -0.1331  0.3540 -0.0627
 5567SOL    HW322001   1.228   4.220   2.042 -0.5791  0.9333  0.0949
 5567SOL    MW422002   1.156   4.173   2.053 -0.5648  0.0508  0.5305
 5568SOL     OW22003   5.532   4.766   4.865  0.3063  0.1690  0.3095
 5568SOL    HW222004   5.612   4.742   4.819 -0.2260 -1.2513  0.0768
 5568SOL    HW322005   5.482   4.817   4.802  0.4091 -0.1493 -0.0290
 5568SOL    MW422006   5.536   4.770   4.851 -0.1085 -0.3139  0.1365
 5569SOL     OW22007   6.017   3.170   3.093 -0.0380  0.2284  0.2175
 5569SOL    HW222008   5.986   3.255   3.062 -0.7395 -0.6470 -1.6075
 5569SOL    HW322009   6.097   3.154   3.043  0.6450  0.2389  1.2768
 5569SOL    MW422010   6.024   3.179   3.083  0.5908 -0.3824  0.3807
 5570SOL     OW22011   1.663   1.307   2.973  0.1865  0.6436 -0.0748
 5570SOL    HW222012   1.710   1.366   2.915  1.3415  1.4622  1.5984
 5570SOL    HW322013   1.700   1.324   3.060  1.1841 -3.0983  0.4248
 5570SOL    MW422014   1.674   1.317   2.977 -0.5533 -0.0051 -0.2228
 5571SOL     OW22015   5.542   5.759   3.181  0.2826 -0.0296 -0.0800
 5571SOL    HW222016   5.547   5.664   3.186 -1.9129 -0.1467  0.6816
 5571SOL    HW322017   5.513   5.787   3.268  1.6106  1.4339 -0.0495
 5571SOL    MW422018   5.539   5.750   3.193  0.4646 -0.0455  0.4689
 5572SOL     OW22019   0.686   5.001   0.296 -0.2139  1.0023  0.0501
 5572SOL    HW222020   0.608   4.956   0.265  0.6461 -0.1912 -0.4549
 5572SOL    HW322021   0.708   5.061   0.224  1.2731 -1.1401 -1.4186
 5572SOL    MW422022   0.679   5.003   0.282  0.8667 -0.0230 -0.0780
 5573SOL     OW22023   5.079   4.749   5.745 -0.0977 -0.1730 -0.4317
 5573SOL    HW222024   5.022   4.691   5.695 -0.2635 -0.4311  0.0465
 5573SOL    HW322025   5.023   4.822   5.771 -0.2181 -0.4236  0.0330
 5573SOL    MW422026   5.064   4.751   5.742 -0.3627  0.4124  0.6372
 5574SOL     OW22027   4.885   3.091   2.010  0.7102 -0.4349  0.3977
 5574SOL    HW222028   4.797   3.113   2.042  0.4830  0.1746 -0.6096
 5574SOL    HW322029   4.931   3.059   2.088  0.1688  0.9578  1.3392
 5574SOL    MW422030   4.879   3.089   2.025  0.0698  0.1069 -0.1848
 5575SOL     OW22031   4.830   0.663   2.651 -0.0626 -0.4268 -0.0458
 5575SOL    HW222032   4.893   0.735   2.652  0.9176 -1.2449  1.8212
 5575SOL    HW322033   4.746   0.705   2.667  0.1228  0.5432 -1.4200
 5575SOL    MW422034   4.827   0.678   2.653 -0.2792 -0.0444 -0.3038
 5576SOL     OW22035   6.215   4.075   0.238  0.2826  0.2339 -0.3565
 5576SOL    HW222036   6.184   3.988   0.262 -2.5252  1.3699  0.6478
 5576SOL    HW322037   6.221   4.073   0.142 -0.6580 -0.8292 -0.4113
 5576SOL    MW422038   6.212   4.064   0.229 -0.0963  0.4400  0.4578
 5577SOL     OW22039   3.634   1.408   6.325  0.0597  0.1195  0.2268
 5577SOL    HW222040   3.624   1.337   6.388  0.1337 -1.6368 -1.5983
 5577SOL    HW322041   3.573   1.385   6.254 -1.1644  2.8199  0.3055
 5577SOL    MW422042   3.624   1.395   6.324 -0.0352 -0.2640 -0.1655
 5578SOL     OW22043   4.158   0.984   6.341 -0.1458 -0.5160  0.0754
 5578SOL    HW222044   4.094   1.055   6.339 -1.9660 -2.0477  1.0291
 5578SOL    HW322045   4.165   0.960   6.433  2.1109 -0.1791  0.0400
 5578SOL    MW422046   4.150   0.990   6.353  0.7949  0.3663  0.4555
 5579SOL     OW22047   5.195   5.563   2.861  0.2274 -0.0573 -0.2703
 5579SOL    HW222048   5.128   5.596   2.801  0.0389 -0.7741 -0.4703
 5579SOL    HW322049   5.278   5.594   2.824  0.1257 -0.6147 -0.9914
 5579SOL    MW422050   5.197   5.571   2.848 -0.1534 -0.0813  0.0640
 5580SOL     OW22051   5.826   0.593   5.698 -0.1274  0.1274 -0.2996
 5580SOL    HW222052   5.876   0.565   5.775 -0.5220 -1.4248 -0.5901
 5580SOL    HW322053   5.755   0.529   5.690 -1.0183  1.1573 -1.0594
 5580SOL    MW422054   5.823   0.581   5.707  0.1860  0.6194  0.0167
 5581SOL     OW22055   3.003   1.356   2.062 -0.2796  0.3839 -0.4240
 5581SOL    HW222056   2.916   1.330   2.091 -0.5849  2.1545  0.4276
 5581SOL    HW322057   3.053   1.275   2.059 -0.8842 -0.2807  2.9991
 5581SOL    MW422058   2.998   1.342   2.066 -0.4448 -0.3083  0.4887
 5582SOL     OW22059   5.638   4.380   0.324 -0.4494  0.4670  0.5531
 5582SOL    HW222060   5.579   4.399   0.397  0.2314 -1.0549  1.5448
 5582SOL    HW322061   5.684   4.300   0.350 -0.9020 -0.6992 -1.9931
 5582SOL    MW422062   5.637   4.372   0.337 -0.1098 -0.2411 -0.1538
 5583SOL     OW22063   2.037   4.996   1.129  0.4646  0.7363  0.4953
 5583SOL    HW222064   2.047   5.067   1.066  0.8223  1.6327  1.5302
 5583SOL    HW322065   2.069   4.918   1.082  1.0779  1.4382 -0.3013
 5583SOL    MW422066   2.043   4.995   1.114  0.1910  0.3722 -0.5825
 5584SOL     OW22067   5.892   2.997   2.489 -0.1847 -0.3744  1.1681
 5584SOL    HW222068   5.963   2.983   2.552 -0.2829 -0.1074  1.3367
 5584SOL    HW322069   5.938   3.022   2.408  0.0534 -2.4225  0.6148
 5584SOL    MW422070   5.908   2.999   2.487 -0.3318 -0.5868 -0.0742
 5585SOL     OW22071   5.987   0.279   3.967  0.0839  0.1405 -0.1969
 5585SOL    HW222072   6.069   0.297   3.922 -0.6708  0.2042 -1.5733
 5585SOL    HW322073   5.967   0.360   4.014  2.0621 -0.6576  2.2750
 5585SOL    MW422074   5.995   0.292   3.968 -0.3289 -0.2978 -0.7355
 5586SOL     OW22075   4.759   4.989   1.742  0.3282  0.1549  0.1805
 5586SOL    HW222076   4.768   4.894   1.744  1.0228  0.2315  0.6919
 5586SOL    HW322077   4.678   5.007   1.790  0.3044 -0.1621  0.2577
 5586SOL    MW422078   4.750   4.979   1.748 -0.4141 -0.5576  0.1930
 5587SOL     OW22079   6.163   4.923   2.344 -0.3115  0.0476  0.1466
 5587SOL    HW222080   6.129   4.996   2.396  1.1612  1.2336 -0.4933
 5587SOL    HW322081   6.232   4.961   2.290  1.0994 -1.9684  0.3983
 5587SOL    MW422082   6.168   4.938   2.344  0.5772  0.1370  0.0236
 5588SOL     OW22083   1.693   3.409   3.643 -0.1164  0.2811 -0.3843
 5588SOL    HW222084   1.762   3.388   3.706 -0.5025  2.0916  0.7207
 5588SOL    HW322085   1.734   3.472   3.584 -1.1360  2.4904  1.1332
 5588SOL    MW422086   1.708   3.415   3.643 -0.2928  1.1791  0.1140
 5589SOL     OW22087   5.228   4.799   1.326  0.0850  0.3187  0.0827
 5589SOL    HW222088   5.234   4.710   1.361  0.8759 -0.2398 -1.3889
 5589SOL    HW322089   5.155   4.839   1.374  0.4378 -0.7348  1.5640
 5589SOL    MW422090   5.219   4.793   1.337 -0.1987  0.0374  0.6649
 5590SOL     OW22091   3.425   4.250   1.526  0.0208 -0.0103  0.8639
 5590SOL    HW222092   3.461   4.257   1.438 -0.2507  0.5682  0.7921
 5590SOL    HW322093   3.346   4.198   1.516  0.0857 -0.0967  0.7970
 5590SOL    MW422094   3.419   4.244   1.513 -0.7951  0.0559  0.3064
 5591SOL     OW22095   5.962   0.355   4.437 -0.7528  0.6204 -0.1767
 5591SOL    HW222096   6.017   0.384   4.511 -0.5792 -0.9254  0.3465
 5591SOL    HW322097   5.875   0.343   4.476 -0.5722 -0.5669 -0.1190
 5591SOL    MW422098   5.958   0.357   4.452 -0.5048 -0.2258 -0.6018
 5592SOL     OW22099   0.848   2.858   4.759 -0.7787 -0.7032  1.0004
 5592SOL    HW222100   0.784   2.928   4.777  0.0018  0.3416 -0.1491
 5592SOL    HW322101   0.932   2.897   4.783 -0.2933 -1.1026 -0.0120
 5592SOL    MW422102   0.851   2.872   4.765  0.1448 -0.2566  0.3649
 5593SOL     OW22103   1.411   5.387   5.556  0.3165  0.2893 -0.0131
 5593SOL    HW222104   1.481   5.443   5.589 -1.2133  1.3801  1.6403
 5593SOL    HW322105   1.342   5.449   5.530  0.1715 -0.7163 -2.2156
 5593SOL    MW422106   1.411   5.403   5.557 -0.0477  0.5703 -0.2376
 5594SOL     OW22107   6.144   6.233   0.002 -0.0771 -0.2724  0.0166
 5594SOL    HW222108   6.122   6.324  -0.017 -1.7076 -0.7317 -0.4473
 5594SOL    HW322109   6.193   6.204  -0.075 -2.2832 -0.6528 -1.3366
 5594SOL    MW422110   6.147   6.241  -0.011 -0.2826 -0.3975 -0.1268
 5595SOL     OW22111   2.649   3.029   1.016 -0.3022 -0.7557  0.1228
 5595SOL    HW222112   2.743   3.036   1.037  0.2248 -0.5839 -2.0324
 5595SOL    HW322113   2.614   3.117   1.033  0.1805 -0.5096 -0.1306
 5595SOL    MW422114   2.657   3.042   1.021  0.1078 -0.0898 -0.0772
 5596SOL     OW22115   6.077   1.988   5.121  0.4180  0.1475  0.0439
 5596SOL    HW222116   5.993   2.026   5.145  1.4074  2.0091  0.7105
 5596SOL    HW322117   6.055   1.900   5.089 -1.6483  0.1831  1.2084
 5596SOL    MW422118   6.063   1.981   5.120  0.2831  0.3316  0.0255
 5597SOL     OW22119   1.742   2.191   1.461  0.0216 -0.0427 -0.0543
 5597SOL    HW222120   1.797   2.130   1.412 -0.2402 -1.0172  0.8078
 5597SOL    HW322121   1.693   2.239   1.394  2.1097  1.0664 -0.8475
 5597SOL    MW422122   1.743   2.189   1.446 -0.6322 -0.0155 -0.8142
 5598SOL     OW22123   3.620   4.926   0.712 -0.0385 -0.3471  0.2544
 5598SOL    HW222124   3.628   4.834   0.689  0.8620  0.1229 -1.5106
 5598SOL    HW322125   3.711   4.958   0.715 -0.2467  0.2215  2.1401
 5598SOL    MW422126   3.633   4.918   0.709 -0.2290 -0.0303  0.8058
 5599SOL     OW22127   2.460   2.492   6.096  0.0809  0.1210 -0.3222
 5599SOL    HW222128   2.462   2.477   6.002  1.5191 -0.8903 -0.1659
 5599SOL    HW322129   2.521   2.564   6.110  1.0511 -0.7304 -0.0380
 5599SOL    MW422130   2.469   2.499   6.086 -0.1134  0.2122  0.4844
 5600SOL     OW22131   2.843   4.395   5.500  0.4372  0.4667  0.1683
 5600SOL    HW222132   2.784   4.440   5.439 -0.9808  1.8527  2.4405
 5600SOL    HW322133   2.820   4.303   5.492 -1.9525  0.9409  0.8009
 5600SOL    MW422134   2.833   4.389   5.491 -0.0616 -0.4679 -0.0316
 5601SOL     OW22135   3.694   4.612   1.790 -0.0918  0.2118 -0.0503
 5601SOL    HW222136   3.737   4.697   1.790 -1.0465  0.7725  2.3317
 5601SOL    HW322137   3.675   4.594   1.698  1.2493  1.9562 -0.7198
 5601SOL    MW422138   3.697   4.621   1.778 -0.1625 -0.0506 -0.0124
 5602SOL     OW22139   2.364   3.622   2.013  0.1190  0.1663 -0.7015
 5602SOL    HW222140   2.344   3.530   2.031 -1.5196  0.3423 -1.4908
 5602SOL    HW322141   2.287   3.670   2.043  0.1740  1.0988 -1.9563
 5602SOL    MW422142   2.352   3.616   2.019 -0.1865  0.2905  0.0036
 5603SOL     OW22143   6.326   1.172   5.087  0.5270 -0.0373  0.2397
 5603SOL    HW222144   6.406   1.128   5.113  0.8222  0.2082 -0.2514
 5603SOL    HW322145   6.289   1.117   5.018 -0.7040 -1.1513  1.7183
 5603SOL    MW422146   6.331   1.159   5.081 -0.1517 -0.7013 -0.1285
 5604SOL     OW22147   0.424   5.463   2.829 -0.2196 -0.4811 -0.7403
 5604SOL    HW222148   0.376   5.508   2.899 -1.8698 -1.0563 -1.4578
 5604SOL    HW322149   0.404   5.371   2.841 -1.2574 -0.5210 -2.4556
 5604SOL    MW422150   0.415   5.457   2.839  0.0459 -0.5888 -0.0631
 5605SOL     OW22151   6.096   4.403   1.314 -0.0991  0.2145 -0.5228
 5605SOL    HW222152   6.075   4.483   1.265 -0.3162  0.6937  0.3352
 5605SOL    HW322153   6.182   4.378   1.281 -1.7206 -1.6034 -3.8413
 5605SOL    MW422154   6.105   4.410   1.303 -0.4012 -0.5201  0.1672
 5606SOL     OW22155   2.708   1.683   1.493 -0.1284  0.4239  0.3151
 5606SOL    HW222156   2.648   1.644   1.430  0.8121 -1.0609  0.2735
 5606SOL    HW322157   2.699   1.630   1.572  2.6304 -1.3349 -0.3810
 5606SOL    MW422158   2.699   1.671   1.495 -0.5647 -0.4321  0.4223
 5607SOL     OW22159   5.634   1.186   0.559  0.3160  0.0816  0.0214
 5607SOL    HW222160   5.593   1.202   0.644  0.1786  0.4508 -0.1130
 5607SOL    HW322161   5.572   1.128   0.514  1.3339 -1.7877  0.9231
 5607SOL    MW422162   5.620   1.180   0.564 -0.4600  0.5250 -0.1990
 5608SOL     OW22163   1.016   0.981   4.306  0.2417 -0.0482 -0.3666
 5608SOL    HW222164   0.945   1.020   4.356  0.5345  1.1125 -0.8091
 5608SOL    HW322165   1.025   0.893   4.341 -0.3731  0.3209  0.7704
 5608SOL    MW422166   1.008   0.975   4.317 -0.5656 -0.5929  0.1166
 5609SOL     OW22167   1.238   5.336   0.673  0.1752  0.3813  0.0010
 5609SOL    HW222168   1.291   5.302   0.745 -0.6679 -0.2252  0.3514
 5609SOL    HW322169   1.301   5.362   0.606  0.8852 -2.8276 -0.7361
 5609SOL    MW422170   1.253   5.335   0.674 -0.0714  0.7872 -0.1213
 5610SOL     OW22171   4.714   4.128   2.384  0.1238  0.3081  0.4949
 5610SOL    HW222172   4.759   4.065   2.441 -0.5822  1.3794  2.3117
 5610SOL    HW322173   4.785   4.181   2.346  0.6404 -0.8089 -0.1548
 5610SOL    MW422174   4.729   4.127   2.387 -0.2637  0.3515 -0.2210
 5611SOL     OW22175   2.122   0.418   2.845 -0.6517 -0.0481  0.3560
 5611SOL    HW222176   2.053   0.439   2.782  0.4095  0.4319 -0.6714
 5611SOL    HW322177   2.202   0.409   2.793 -0.0405 -1.2918  1.4391
 5611SOL    MW422178   2.123   0.420   2.830 -0.6144  0.7451  0.3825
 5612SOL     OW22179   3.630   4.658   0.653  0.0624 -0.0455 -0.3842
 5612SOL    HW222180   3.638   4.583   0.711  0.5873 -1.1351 -1.8320
 5612SOL    HW322181   3.536   4.678   0.653  0.2219  1.1037  2.1618
 5612SOL    MW422182   3.619   4.651   0.661  0.0844  0.5105  0.3201
 5613SOL     OW22183   1.279   4.173   6.203 -0.4342 -0.1176  0.1234
 5613SOL    HW222184   1.287   4.095   6.147  2.7461  0.0422  0.1903
 5613SOL    HW322185   1.229   4.235   6.150 -1.0651 -1.3946 -0.8452
 5613SOL    MW422186   1.274   4.171   6.189  0.4597 -0.3013 -0.3239
 5614SOL     OW22187   5.713   3.829   4.088  0.5292 -0.0265 -0.2823
 5614SOL    HW222188   5.700   3.738   4.061  0.0285 -0.5835  1.6971
 5614SOL    HW322189   5.776   3.863   4.024  0.1771 -1.5170 -1.5131
 5614SOL    MW422190   5.720   3.821   4.076 -0.4068 -0.2140  0.1345
 5615SOL     OW22191   4.276   2.464   2.071 -0.0673 -0.3485 -0.4306
 5615SOL    HW222192   4.258   2.446   2.163  0.6064  1.3755  0.0725
 5615SOL    HW322193   4.257   2.557   2.061  1.1912 -0.1989 -1.7042
 5615SOL    MW422194   4.271   2.474   2.082  0.5885  0.3985 -0.8461
 5616SOL     OW22195   4.165   5.345   5.949 -0.3520  0.4026  0.1399
 5616SOL    HW222196   4.214   5.316   5.872  0.6364 -1.3808  1.3632
 5616SOL    HW322197   4.221   5.410   5.990 -0.4833  0.7172 -0.1763
 5616SOL    MW422198   4.179   5.350   5.944  0.9542 -0.5385 -0.7816
 5617SOL     OW22199   5.837   1.370   4.385 -0.2872 -0.0300  0.1314
 5617SOL    HW222200   5.819   1.451   4.338  1.3261  0.1384 -0.2726
 5617SOL    HW322201   5.932   1.371   4.398 -0.3529 -1.4261  0.9196
 5617SOL    MW422202   5.848   1.381   4.381 -0.2398 -0.1217  0.1321
 5618SOL     OW22203   3.985   2.605   5.428 -0.4936 -0.0134  0.1034
 5618SOL    HW222204   3.963   2.673   5.493 -3.4415  0.3892 -1.1244
 5618SOL    HW322205   4.053   2.645   5.375 -1.6032  1.7516 -0.1040
 5618SOL    MW422206   3.991   2.619   5.430 -0.1989 -0.1711 -0.0095
 5619SOL     OW22207   4.233   6.206   3.058 -0.3794 -0.2766  0.1546
 5619SOL    HW222208   4.156   6.205   3.114  1.1743  1.2558  2.5409
 5619SOL    HW322209   4.290   6.138   3.093  0.8502  1.0689  0.8906
 5619SOL    MW422210   4.230   6.197   3.070 -0.2214 -0.1486 -0.3628
 5620SOL     OW22211   3.730   2.646   1.251  0.1601  0.2476 -0.3775
 5620SOL    HW222212   3.662   2.622   1.188  2.1580 -0.7649 -2.2531
 5620SOL    HW322213   3.776   2.564   1.269  1.2872  1.0163  0.3763
 5620SOL    MW422214   3.727   2.632   1.245 -0.0963 -0.2508 -0.1293
 5621SOL     OW22215   0.030   5.389   1.390 -0.2387 -0.4766 -0.1920
 5621SOL    HW222216  -0.013   5.382   1.475 -1.9196 -0.6002 -1.0131
 5621SOL    HW322217  -0.031   5.349   1.329  1.2198 -0.9880 -1.3927
 5621SOL    MW422218   0.017   5.383   1.393 -0.0275 -0.0156 -0.1053
 5622SOL     OW22219   2.936   3.007   1.093 -0.1479  0.3008 -0.1316
 5622SOL    HW222220   2.998   2.944   1.129  0.0918  0.3724 -0.4180
 5622SOL    HW322221   2.972   3.092   1.117  0.5928  0.3839 -1.4598
 5622SOL    MW422222   2.949   3.010   1.101 -0.1019 -0.3606 -0.0314
 5623SOL     OW22223   1.328   4.608   3.532  0.5009 -0.1969  0.3456
 5623SOL    HW222224   1.349   4.684   3.479  0.1751 -0.2548  0.1267
 5623SOL    HW322225   1.413   4.573   3.559  0.6326  0.7113  1.1278
 5623SOL    MW422226   1.342   4.613   3.528 -0.5813 -0.5291 -0.3026
 5624SOL     OW22227   0.548   4.999   6.397  0.3991 -0.7471 -0.3813
 5624SOL    HW222228   0.517   4.950   6.474 -1.2304  1.1502  0.2867
 5624SOL    HW322229   0.474   5.056   6.375  1.8189  0.6518 -1.7276
 5624SOL    MW422230   0.534   5.000   6.404  0.3929  0.1218  0.2069
 5625SOL     OW22231   1.585   1.040   4.747 -0.0851  0.0796  0.0970
 5625SOL    HW222232   1.528   1.117   4.753 -0.0026  0.1273  0.2765
 5625SOL    HW322233   1.647   1.050   4.819 -0.4371 -0.4499  0.4839
 5625SOL    MW422234   1.585   1.051   4.757 -0.0390 -0.4439 -0.1654
 5626SOL     OW22235   4.023   3.373   0.454  0.1891 -0.1226 -0.4625
 5626SOL    HW222236   3.951   3.331   0.407 -0.7978 -0.0373  0.9398
 5626SOL    HW322237   3.993   3.462   0.469  1.0064  0.2043 -0.7278
 5626SOL    MW422238   4.010   3.379   0.450  0.1322  0.2782  0.0181
 5627SOL     OW22239   0.938   4.951   2.546  0.0539 -0.3792  0.1072
 5627SOL    HW222240   0.845   4.941   2.568  0.3626  1.0311  2.3193
 5627SOL    HW322241   0.978   4.989   2.624  2.2598  0.3242 -1.2565
 5627SOL    MW422242   0.931   4.955   2.559  0.4638  0.0132  0.5197
 5628SOL     OW22243   0.907   1.244   4.638 -0.2370  0.4708  0.2386
 5628SOL    HW222244   0.861   1.297   4.703 -0.2122 -0.6226  1.1641
 5628SOL    HW322245   0.976   1.199   4.687 -0.7666 -1.0493 -0.3536
 5628SOL    MW422246   0.910   1.245   4.653  0.9933  0.4659  0.0932
 5629SOL     OW22247   2.198   2.799   5.838  0.3921 -0.3732  0.2399
 5629SOL    HW222248   2.182   2.886   5.875 -0.5566 -0.0562 -0.8481
 5629SOL    HW322249   2.291   2.800   5.814  0.5610  0.0832  0.8791
 5629SOL    MW422250   2.208   2.811   5.839  0.3125 -0.3378  0.0918
 5630SOL     OW22251   1.335   2.963   2.410 -0.4307  0.7745  0.6785
 5630SOL    HW222252   1.408   2.967   2.472 -0.2001  0.5474  0.4253
 5630SOL    HW322253   1.306   3.054   2.401 -0.4378  0.8140  1.0849
 5630SOL    MW422254   1.341   2.975   2.417 -0.3402  0.6488 -0.5551
 5631SOL     OW22255   0.400   0.061   5.030  0.3383  0.0146  0.2158
 5631SOL    HW222256   0.326   0.115   5.006  0.1804  0.0924  0.8520
 5631SOL    HW322257   0.477   0.112   5.004  0.1679 -0.1767 -0.6660
 5631SOL    MW422258   0.401   0.075   5.024 -0.4202  0.4467  0.2755
 5632SOL     OW22259   1.674   0.789   3.917 -0.2964 -0.6331  0.2944
 5632SOL    HW222260   1.736   0.777   3.989 -0.6618  0.5994  0.8514
 5632SOL    HW322261   1.702   0.870   3.874 -1.0864 -0.4375  0.1263
 5632SOL    MW422262   1.686   0.798   3.921 -0.3452 -0.0117 -0.1109
 5633SOL     OW22263   5.322   6.267   2.770  0.1316 -0.0104  0.2322
 5633SOL    HW222264   5.325   6.174   2.748 -3.1867 -1.2188  3.8109
 5633SOL    HW322265   5.403   6.283   2.817  1.2188 -0.7701 -1.3121
 5633SOL    MW422266   5.333   6.257   2.773  0.3998 -0.4241 -0.1464
 5634SOL     OW22267   2.858   3.683   4.671  0.4686  0.3445  0.0762
 5634SOL    HW222268   2.816   3.650   4.591  0.2884  1.4053 -0.2807
 5634SOL    HW322269   2.913   3.611   4.700 -0.3957 -0.5068 -0.3280
 5634SOL    MW422270   2.860   3.669   4.664  0.0204  0.0252  0.1682
 5635SOL     OW22271   2.865   1.785   5.681 -0.6490  0.2583 -0.2373
 5635SOL    HW222272   2.829   1.704   5.644  0.1937 -1.0535  1.6483
 5635SOL    HW322273   2.946   1.800   5.632  0.3748 -1.3662  0.8423
 5635SOL    MW422274   2.871   1.776   5.669 -0.3106 -0.3094  0.2525
 5636SOL     OW22275   3.559   0.391   0.793 -0.0714  0.0069 -0.1349
 5636SOL    HW222276   3.506   0.396   0.873 -0.7254  0.6427 -0.5901
 5636SOL    HW322277   3.647   0.370   0.823 -0.3479  0.0652  0.7363
 5636SOL    MW422278   3.564   0.388   0.807  0.1149  0.3987  0.2668
 5637SOL     OW22279   5.475   6.413   3.993 -0.7158  0.2413 -0.7528
 5637SOL    HW222280   5.562   6.434   3.959 -0.6408 -0.2927 -0.9005
 5637SOL    HW322281   5.415   6.443   3.926 -0.6407  0.5151 -0.6985
 5637SOL    MW422282   5.478   6.419   3.980 -0.8112 -0.1917  0.0420
 5638SOL     OW22283   1.952   0.466   5.768  0.2320  0.4959 -0.8456
 5638SOL    HW222284   2.039   0.440   5.800 -0.4000  1.4307  1.8659
 5638SOL    HW322285   1.970   0.540   5.710  1.2758  0.5163 -0.5213
 5638SOL    MW422286   1.966   0.472   5.764  0.0455 -0.1113 -0.0002
 5639SOL     OW22287   4.553   6.359   5.324 -0.2486  0.4798 -0.4164
 5639SOL    HW222288   4.586   6.384   5.238 -1.0527 -0.7261 -1.1082
 5639SOL    HW322289   4.518   6.271   5.311 -3.7784  1.6154  0.1720
 5639SOL    MW422290   4.552   6.351   5.311  0.5146 -0.0151  0.3667
 5640SOL     OW22291   4.956   4.615   3.117 -0.0188 -0.2323  0.3291
 5640SOL    HW222292   4.965   4.604   3.022 -0.8035 -1.9730  0.4271
 5640SOL    HW322293   4.862   4.609   3.134  0.1798 -0.9057  1.3082
 5640SOL    MW422294   4.945   4.613   3.107 -0.2180 -0.3730 -0.4520
 5641SOL     OW22295   3.913   5.188   5.861  0.6863 -0.4841  0.5876
 5641SOL    HW222296   3.954   5.253   5.918  0.9830  0.5258 -0.7269
 5641SOL    HW322297   3.819   5.199   5.874  0.6047  1.8342 -1.2345
 5641SOL    MW422298   3.906   5.198   5.870  0.3008 -0.0123 -0.3458
 5642SOL     OW22299   2.243   0.074   3.922  0.0465  0.0636  0.1669
 5642SOL    HW222300   2.167   0.120   3.886  0.2608 -0.2811 -0.7582
 5642SOL    HW322301   2.304   0.143   3.948  0.2207  0.3234 -0.8963
 5642SOL    MW422302   2.241   0.089   3.921 -0.3632 -0.3614 -0.2409
 5643SOL     OW22303   4.937   2.708   3.904  0.6221  0.0783  0.3310
 5643SOL    HW222304   4.849   2.746   3.908  0.0354 -1.3006  1.2198
 5643SOL    HW322305   4.963   2.717   3.812 -1.4564 -1.6189 -0.5111
 5643SOL    MW422306   4.929   2.714   3.893 -0.4880 -0.1643 -0.0156
 5644SOL     OW22307   0.107   0.855   5.972 -0.4666  0.5091 -0.5045
 5644SOL    HW222308   0.157   0.927   5.934 -0.8413  1.0428  0.0066
 5644SOL    HW322309   0.154   0.832   6.052 -0.0399 -0.1897 -0.9381
 5644SOL    MW422310   0.120   0.861   5.978  0.3656 -0.5911 -0.5197
 5645SOL     OW22311   1.459   3.854   4.554 -0.4401 -0.1662  0.1284
 5645SOL    HW222312   1.550   3.880   4.543 -0.9726  1.1108 -1.9600
 5645SOL    HW322313   1.447   3.782   4.492 -0.6941 -0.8051  0.9024
 5645SOL    MW422314   1.470   3.848   4.544  0.1757  0.0685  0.5783
 5646SOL     OW22315   6.148   2.073   2.536  0.5622 -0.2780  0.1591
 5646SOL    HW222316   6.128   2.013   2.464  2.4334 -0.6297 -0.1020
 5646SOL    HW322317   6.158   2.016   2.613  0.3914 -0.0875  0.3248
 5646SOL    MW422318   6.146   2.057   2.537  0.1728  0.0214  0.7873
 5647SOL     OW22319   2.387   4.193   4.434 -0.1776 -0.1628  0.6189
 5647SOL    HW222320   2.460   4.135   4.412 -1.3730 -1.5109 -0.0182
 5647SOL    HW322321   2.428   4.275   4.460  1.5491 -0.8550  0.2350
 5647SOL    MW422322   2.402   4.196   4.435 -0.1861 -0.2791 -0.2413
 5648SOL     OW22323   0.224   1.323   2.096  0.0813 -0.6520  0.3335
 5648SOL    HW222324   0.203   1.368   2.179  0.4854  0.1822 -0.0006
 5648SOL    HW322325   0.309   1.282   2.113 -0.7909 -2.2979  1.0107
 5648SOL    MW422326   0.233   1.324   2.109  0.1505  0.4444 -0.1225
 5649SOL     OW22327   5.316   1.597   4.764  0.2461  0.4854 -0.2755
 5649SOL    HW222328   5.254   1.537   4.805 -0.4836  1.7729  0.5739
 5649SOL    HW322329   5.401   1.553   4.771 -0.2568 -0.3925  0.4196
 5649SOL    MW422330   5.319   1.583   4.771 -0.6780 -0.3129 -0.1058
 5650SOL     OW22331   2.081   1.798   0.687 -0.0033  0.1010  0.2648
 5650SOL    HW222332   2.173   1.793   0.663 -0.1652  1.2302 -0.6431
 5650SOL    HW322333   2.081   1.825   0.778  0.5577 -0.3760  0.4136
 5650SOL    MW422334   2.093   1.801   0.696  0.2337  0.5679  0.3053
 5651SOL     OW22335   3.730   0.749   5.272  0.1846  0.0540  0.0965
 5651SOL    HW222336   3.676   0.712   5.342 -0.9262  1.3442 -0.0291
 5651SOL    HW322337   3.690   0.834   5.253  1.2354  0.2949 -1.2286
 5651SOL    MW422338   3.718   0.755   5.279 -0.2275  0.1431 -0.7172
 5652SOL     OW22339   2.570   6.183   4.019  0.0336 -0.2033  0.4285
 5652SOL    HW222340   2.596   6.269   3.988 -0.1039  0.0191  0.9104
 5652SOL    HW322341   2.607   6.122   3.956  0.6363  0.1750  0.4075
 5652SOL    MW422342   2.578   6.186   4.007  0.2221  0.1644  0.1465
 5653SOL     OW22343   2.066   6.101   0.999  0.7707  0.1125 -0.5421
 5653SOL    HW222344   2.069   6.197   0.998 -1.3668  0.3062 -3.4166
 5653SOL    HW322345   2.127   6.074   0.931  0.8591 -0.5495 -0.2139
 5653SOL    MW422346   2.075   6.110   0.990 -0.0717 -0.2550 -0.6411
 5654SOL     OW22347   5.000   0.867   3.314 -0.0867 -0.2680 -0.4608
 5654SOL    HW222348   5.076   0.812   3.294 -0.1301  0.0391 -1.5319
 5654SOL    HW322349   5.037   0.943   3.358  0.0171 -0.9448  0.6688
 5654SOL    MW422350   5.015   0.869   3.317  0.5029 -0.1495  0.3083
 5655SOL     OW22351   1.560   0.278   6.360 -0.4661  0.5822 -0.2987
 5655SOL    HW222352   1.586   0.186   6.366  1.1043  0.9494 -0.8549
 5655SOL    HW322353   1.545   0.292   6.266 -0.0126  1.0535 -0.3055
 5655SOL    MW422354   1.561   0.267   6.348 -0.5338 -0.1727  0.2459
 5656SOL     OW22355   5.229   3.983   2.765  0.5052 -0.0186  0.3845
 5656SOL    HW222356   5.214   4.000   2.672  0.3840 -1.8253  0.0359
 5656SOL    HW322357   5.206   3.890   2.776  1.8575 -0.2133  1.9200
 5656SOL    MW422358   5.224   3.973   2.754  0.0725  0.6515  0.3057
 5657SOL     OW22359   2.936   2.850   0.854 -0.0437 -0.3464  0.3319
 5657SOL    HW222360   2.939   2.933   0.902 -0.3881  0.9340 -1.7237
 5657SOL    HW322361   2.926   2.876   0.762  0.3934 -2.6674 -0.4398
 5657SOL    MW422362   2.935   2.865   0.848 -0.2282 -0.1342 -0.7152
 5658SOL     OW22363   4.588   1.008   2.672  0.0465  0.2048 -0.1714
 5658SOL    HW222364   4.535   1.011   2.593  1.7278 -2.3521 -1.5372
 5658SOL    HW322365   4.673   1.044   2.646 -0.1918  2.0098  1.3207
 5658SOL    MW422366   4.592   1.013   2.658 -0.0513  0.3758 -0.1503
 5659SOL     OW22367   0.421   2.132   5.855  0.0147  0.1004  0.6754
 5659SOL    HW222368   0.430   2.200   5.923 -0.3780 -0.2826  1.1205
 5659SOL    HW322369   0.388   2.055   5.903  2.1613 -0.9874  0.5260
 5659SOL    MW422370   0.418   2.131   5.871 -0.3270 -0.1488  0.1949
 5660SOL     OW22371   4.817   2.596   2.880 -0.6064 -0.0441 -0.5270
 5660SOL    HW222372   4.730   2.596   2.919 -0.4722  0.9503 -0.2061
 5660SOL    HW322373   4.837   2.689   2.865 -0.3882 -0.3471 -2.3689
 5660SOL    MW422374   4.808   2.608   2.883 -0.4550  0.3412  0.0180
 5661SOL     OW22375   1.268   4.175   4.252  0.0758 -0.0391 -0.3674
 5661SOL    HW222376   1.310   4.239   4.309 -0.9296 -0.6364  1.0921
 5661SOL    HW322377   1.338   4.147   4.192  1.9213 -1.2722  2.1906
 5661SOL    MW422378   1.283   4.180   4.251  0.1716  0.1257  0.2307
 5662SOL     OW22379   3.457   4.254   5.642  0.0250 -0.2878 -0.7337
 5662SOL    HW222380   3.417   4.206   5.570 -1.1625 -1.5008  0.6772
 5662SOL    HW322381   3.387   4.265   5.707  1.5388 -1.1227  1.1490
 5662SOL    MW422382   3.443   4.249   5.641  0.6168  0.0860  0.6863
 5663SOL     OW22383   1.718   4.040   1.622  0.1818  0.0321  0.5190
 5663SOL    HW222384   1.783   3.970   1.623 -1.2482 -1.3502  0.4277
 5663SOL    HW322385   1.728   4.081   1.536 -0.5616 -1.6567 -0.4212
 5663SOL    MW422386   1.728   4.036   1.611 -0.0657 -0.4734  0.3192
 5664SOL     OW22387   2.538   5.693   0.468 -0.5574 -0.0830 -0.5080
 5664SOL    HW222388   2.623   5.731   0.491  0.1493 -2.0621  0.3130
 5664SOL    HW322389   2.532   5.702   0.373 -0.5232  2.1755 -0.3591
 5664SOL    MW422390   2.548   5.699   0.459 -0.0859 -0.3520  0.3625
 5665SOL     OW22391   3.443   3.321   4.408 -0.1022  0.4860 -0.4905
 5665SOL    HW222392   3.416   3.247   4.354 -0.3266 -0.5736  1.0098
 5665SOL    HW322393   3.449   3.285   4.497 -0.3272  2.2975  0.3013
 5665SOL    MW422394   3.440   3.307   4.413 -0.1497  0.1643  0.0655
 5666SOL     OW22395   3.022   3.751   3.712  0.2671 -0.2962  0.5862
 5666SOL    HW222396   2.993   3.661   3.694 -2.3433  0.7502 -0.9535
 5666SOL    HW322397   3.059   3.781   3.629 -1.3942  0.8935  0.2369
 5666SOL    MW422398   3.023   3.743   3.698 -0.3462 -0.5676 -0.2983
 5667SOL     OW22399   4.520   3.395   5.150  0.0283  0.4400  0.0173
 5667SOL    HW222400   4.497   3.449   5.074 -1.1689 -0.2465 -0.1311
 5667SOL    HW322401   4.543   3.310   5.113 -0.2315  0.2013  0.4045
 5667SOL    MW422402   4.520   3.391   5.135  0.4302 -0.1348  0.0375
 5668SOL     OW22403   0.186   2.658   3.114  0.0683  0.4588 -0.1409
 5668SOL    HW222404   0.159   2.745   3.145  0.4397  0.4091  0.3399
 5668SOL    HW322405   0.280   2.655   3.132  0.0934  0.0283 -0.3401
 5668SOL    MW422406   0.195   2.669   3.120 -0.3011 -0.0962 -0.0853
 5669SOL     OW22407   3.439   1.309   0.538 -0.1393  0.1544  0.3600
 5669SOL    HW222408   3.494   1.323   0.461  0.8400  0.3107  1.0842
 5669SOL    HW322409   3.499   1.311   0.612 -1.0272 -0.3256  1.1134
 5669SOL    MW422410   3.454   1.311   0.538  0.9986 -0.0519  0.0369
 5670SOL     OW22411   4.866   3.891   3.691  0.5316  0.6291  0.8387
 5670SOL    HW222412   4.799   3.876   3.757 -0.4477 -0.8733 -0.4264
 5670SOL    HW322413   4.840   3.972   3.648 -1.7613 -0.9316 -0.9956
 5670SOL    MW422414   4.854   3.900   3.694  0.3085 -0.0354 -0.1992
 5671SOL     OW22415   1.463   1.379   4.500  0.0602 -0.3654  0.1088
 5671SOL    HW222416   1.432   1.460   4.458  0.9654 -0.1135 -0.0997
 5671SOL    HW322417   1.557   1.392   4.510  0.3287 -1.6680 -0.5208
 5671SOL    MW422418   1.472   1.392   4.496 -0.2247 -0.4457 -0.1575
 5672SOL     OW22419   4.447   4.556   2.066  0.3472  0.0121  0.3542
 5672SOL    HW222420   4.530   4.509   2.076  0.9909  0.7702 -1.0784
 5672SOL    HW322421   4.410   4.559   2.154  1.8460 -0.3540  1.0215
 5672SOL    MW422422   4.453   4.551   2.079  0.4094  0.2023 -0.1231
 5673SOL     OW22423   6.057   5.661   4.555 -0.2198 -0.7141  0.1675
 5673SOL    HW222424   6.124   5.729   4.548  0.5886 -1.5773 -0.8984
 5673SOL    HW322425   6.051   5.642   4.648  1.0191 -0.6068  0.2819
 5673SOL    MW422426   6.065   5.668   4.566 -0.3123  0.2523  0.2134
 5674SOL     OW22427   2.785   4.625   2.922 -0.1400 -0.0296  0.0272
 5674SOL    HW222428   2.871   4.657   2.949  0.3916 -1.3869  0.0043
 5674SOL    HW322429   2.785   4.634   2.827 -0.8486  1.8972  0.1584
 5674SOL    MW422430   2.796   4.630   2.913 -0.8224  0.4489  0.2391
 5675SOL     OW22431   4.035   6.148   5.220  0.3714  0.1360  0.2445
 5675SOL    HW222432   4.093   6.187   5.154  0.4050 -0.2186  0.0590
 5675SOL    HW322433   4.069   6.180   5.304  3.1406 -2.8261  0.4628
 5675SOL    MW422434   4.047   6.157   5.222 -0.2226  0.3255  0.5095
 5676SOL     OW22435   3.539   4.825   3.487  0.2233 -0.6829  0.3094
 5676SOL    HW222436   3.511   4.909   3.525  0.3457 -0.4778 -0.0463
 5676SOL    HW322437   3.495   4.759   3.540 -0.3355 -0.3782  0.2361
 5676SOL    MW422438   3.529   4.827   3.499  0.0719  0.2768  0.5658
 5677SOL     OW22439   2.219   3.447   3.683  0.0238  0.3879  0.2302
 5677SOL    HW222440   2.300   3.475   3.726  2.2763 -0.7509 -2.9469
 5677SOL    HW322441   2.206   3.357   3.714 -0.1153  0.6123  0.8383
 5677SOL    MW422442   2.228   3.439   3.693 -0.0978 -0.0458 -0.1978
 5678SOL     OW22443   2.077   1.384   5.327  0.2370 -0.2840 -0.1604
 5678SOL    HW222444   2.031   1.300   5.319 -0.2976 -0.3109  2.2765
 5678SOL    HW322445   2.051   1.433   5.250 -0.6395 -1.8144 -0.8870
 5678SOL    MW422446   2.068   1.379   5.316  0.5197  0.4526 -0.0905
 5679SOL     OW22447   3.643   1.138   1.596 -0.7687 -0.4999 -0.2629
 5679SOL    HW222448   3.563   1.091   1.573  0.1602 -2.0115 -0.5182
 5679SOL    HW322449   3.708   1.107   1.533  0.3588 -0.3177  0.7833
 5679SOL    MW422450   3.641   1.128   1.584  0.3939  0.6170 -0.0875
 5680SOL     OW22451   1.529   1.150   0.554  0.9102 -0.4008 -0.0505
 5680SOL    HW222452   1.497   1.061   0.567 -0.2879 -0.3424 -2.0869
 5680SOL    HW322453   1.495   1.175   0.467  1.4073  1.9440  0.3577
 5680SOL    MW422454   1.520   1.142   0.544 -0.0881 -0.8083 -0.0745
 5681SOL     OW22455   2.480   5.195   3.479  0.2665 -0.4507  0.5538
 5681SOL    HW222456   2.397   5.241   3.466  0.5634 -0.2415 -0.6935
 5681SOL    HW322457   2.530   5.252   3.537 -0.1034 -0.1333  0.5632
 5681SOL    MW422458   2.476   5.209   3.485 -0.0372  0.1610 -0.0208
 5682SOL     OW22459   3.129   0.185   6.016  0.5815 -0.4256 -0.0243
 5682SOL    HW222460   3.041   0.148   6.023  0.8374 -0.9952  0.2634
 5682SOL    HW322461   3.155   0.167   5.926 -0.0789  0.8717 -0.4973
 5682SOL    MW422462   3.121   0.177   6.005  0.3873 -0.4573  0.0982
 5683SOL     OW22463   2.868   1.072   0.544 -0.1169  0.1590 -0.0495
 5683SOL    HW222464   2.775   1.091   0.559  0.0395  0.5672  0.4514
 5683SOL    HW322465   2.873   0.977   0.534 -0.5894  0.1396 -0.0912
 5683SOL    MW422466   2.857   1.062   0.544 -0.0933  0.4146  0.2882
 5684SOL     OW22467   2.460   5.738   5.502 -0.0197  0.1171  0.0175
 5684SOL    HW222468   2.395   5.697   5.445  0.8107 -0.7271 -0.3540
 5684SOL    HW322469   2.416   5.745   5.587 -1.6199  2.2830 -0.9028
 5684SOL    MW422470   2.446   5.733   5.506 -0.1934  0.1465 -0.1727
 5685SOL     OW22471   2.026   4.038   4.023 -0.0564  0.2416 -0.3683
 5685SOL    HW222472   1.957   4.078   3.969  2.2205  1.6456 -2.4648
 5685SOL    HW322473   2.062   3.969   3.967  2.3328  1.6952 -0.7651
 5685SOL    MW422474   2.022   4.034   4.008  0.6850  0.1086  0.5338
 5686SOL     OW22475   3.734   4.616   4.545 -0.5832 -0.1193 -0.2224
 5686SOL    HW222476   3.751   4.692   4.488 -1.3298  0.2672  0.0551
 5686SOL    HW322477   3.689   4.653   4.620  1.8466 -0.3586  1.4602
 5686SOL    MW422478   3.731   4.631   4.547  0.4229 -0.2682 -0.6928
 5687SOL     OW22479   4.733   2.640   4.307  0.6888 -0.6375 -0.5365
 5687SOL    HW222480   4.659   2.596   4.265 -1.1751  0.1005  1.7474
 5687SOL    HW322481   4.791   2.662   4.235 -2.8912  1.8018 -3.0339
 5687SOL    MW422482   4.731   2.637   4.292 -0.2841  0.0726 -0.1383
 5688SOL     OW22483   3.911   1.522   1.908  0.5049 -0.1018  0.0594
 5688SOL    HW222484   3.877   1.453   1.851 -0.5821  0.2838  0.2227
 5688SOL    HW322485   3.877   1.499   1.995 -1.0363  1.3562 -0.1070
 5688SOL    MW422486   3.902   1.510   1.912  0.3963  0.1264  0.1999
 5689SOL     OW22487   2.308   0.662   0.440  0.4928  0.1569 -0.3375
 5689SOL    HW222488   2.250   0.723   0.485  1.0934  1.5892 -1.4206
 5689SOL    HW322489   2.378   0.717   0.405  2.0143 -1.3916  0.1345
 5689SOL    MW422490   2.310   0.677   0.441 -0.1281 -0.2750 -0.1130
 5690SOL     OW22491   2.311   1.752   5.648  0.0368 -0.0344 -0.1291
 5690SOL    HW222492   2.279   1.787   5.564  0.9467  0.1415 -0.4145
 5690SOL    HW322493   2.337   1.830   5.697 -0.3130 -0.1524  0.2458
 5690SOL    MW422494   2.310   1.767   5.643  0.1810 -0.3787 -0.0011
 5691SOL     OW22495   6.316   1.862   0.914  0.1242  0.1548 -0.0533
 5691SOL    HW222496   6.338   1.931   0.851  0.7908 -0.0715 -0.0755
 5691SOL    HW322497   6.369   1.881   0.991 -0.7296  0.4622  0.4759
 5691SOL    MW422498   6.326   1.874   0.916  0.0842  0.4525  0.5492
 5692SOL     OW22499   5.195   2.924   3.680 -0.0865 -0.3085  0.4901
 5692SOL    HW222500   5.177   2.992   3.744  0.2191 -0.1123  0.3668
 5692SOL    HW322501   5.270   2.876   3.715  1.1585  0.8382 -0.5098
 5692SOL    MW422502   5.202   2.927   3.693  0.2320 -0.2411  0.3753
 5693SOL     OW22503   0.885   6.119   5.128 -0.1535  0.0481  0.3718
 5693SOL    HW222504   0.903   6.091   5.217 -1.2087  0.7386  0.8254
 5693SOL    HW322505   0.823   6.191   5.137  0.0599  0.4265 -0.9034
 5693SOL    MW422506   0.879   6.125   5.141  0.3344  0.7982  0.2139
 5694SOL     OW22507   6.261   0.965   4.174 -0.6479  0.7942 -0.2565
 5694SOL    HW222508   6.339   0.912   4.161 -0.8977  0.3856 -0.0998
 5694SOL    HW322509   6.288   1.034   4.235 -0.9050 -0.4849  1.3763
 5694SOL    MW422510   6.275   0.967   4.181 -0.2303 -0.3134  0.3953
 5695SOL     OW22511   3.022   4.683   1.413  0.0683 -0.7135  1.0849
 5695SOL    HW222512   3.092   4.639   1.364  0.7732  0.7380  0.7429
 5695SOL    HW322513   2.969   4.611   1.448  2.5609 -1.9546  2.6345
 5695SOL    MW422514   3.025   4.667   1.411  0.2618  0.7378 -0.1859
 5696SOL     OW22515   1.401   3.580   4.720 -0.7248 -0.4467  0.3178
 5696SOL    HW222516   1.400   3.507   4.658 -1.3512  0.9075 -1.3268
 5696SOL    HW322517   1.314   3.620   4.711  0.5201  2.2088 -0.9429
 5696SOL    MW422518   1.389   3.575   4.711 -0.0327 -1.0925 -0.2335
 5697SOL     OW22519   4.676   2.885   3.905 -0.6149  0.2678  0.0510
 5697SOL    HW222520   4.597   2.830   3.898 -1.0778  0.8940  0.2534
 5697SOL    HW322521   4.679   2.910   3.997 -0.3392  0.4803 -0.0171
 5697SOL    MW422522   4.666   2.881   3.916  0.1544  0.0592  0.6063
 5698SOL     OW22523   5.697   0.225   2.994 -0.4184 -0.1354  0.3263
 5698SOL    HW222524   5.638   0.214   2.919 -1.0169 -2.2055  1.0130
 5698SOL    HW322525   5.641   0.212   3.071  0.3484  1.0805  1.1223
 5698SOL    MW422526   5.682   0.222   2.994 -0.2352 -0.1154 -0.1214
 5699SOL     OW22527   6.352   1.851   4.171  0.2511 -0.6231  0.8174
 5699SOL    HW222528   6.398   1.768   4.159  1.5971 -0.0494  1.7583
 5699SOL    HW322529   6.422   1.916   4.181 -0.7719  0.6246  0.1703
 5699SOL    MW422530   6.367   1.849   4.170 -0.1786  0.3469 -0.4992
 5700SOL     OW22531   0.836   3.330   4.816 -0.3321 -0.0967  0.1084
 5700SOL    HW222532   0.817   3.413   4.772  0.3190  0.6086  1.1162
 5700SOL    HW322533   0.897   3.286   4.757 -0.4043  0.3014 -0.2727
 5700SOL    MW422534   0.842   3.336   4.802 -0.0565 -0.1320  0.3412
 5701SOL     OW22535   3.561   6.111   3.022 -0.1247  0.1343 -0.6704
 5701SOL    HW222536   3.605   6.038   3.066 -0.4970  0.6779  0.6623
 5701SOL    HW322537   3.471   6.108   3.055  0.3325  2.3783  1.0499
 5701SOL    MW422538   3.555   6.101   3.032 -0.3202  0.1978  0.7076
 5702SOL     OW22539   5.765   1.817   2.490 -0.0708 -0.0060 -0.2471
 5702SOL    HW222540   5.799   1.897   2.449  2.8117  0.1693  2.0614
 5702SOL    HW322541   5.843   1.776   2.528 -1.9080 -2.3118  1.2786
 5702SOL    MW422542   5.780   1.822   2.490  0.1247 -0.3842  0.2548
 5703SOL     OW22543   6.062   6.069   0.601  0.0739 -0.1739 -0.1882
 5703SOL    HW222544   6.150   6.099   0.622 -0.6350  0.2841  2.4961
 5703SOL    HW322545   6.058   5.980   0.636 -0.6559 -0.0219  0.1309
 5703SOL    MW422546   6.073   6.061   0.608 -0.1457 -0.0362 -0.2089
 5704SOL     OW22547   5.057   5.350   2.474  0.0176  0.2792  0.2695
 5704SOL    HW222548   4.974   5.304   2.458 -0.0428  0.5632 -0.2895
 5704SOL    HW322549   5.110   5.289   2.524 -0.7146  0.2818  1.0727
 5704SOL    MW422550   5.053   5.336   2.478  0.6323  0.6554 -0.3745
 5705SOL     OW22551   5.539   1.476   3.289 -0.0258 -0.0934 -0.3720
 5705SOL    HW222552   5.605   1.542   3.270 -0.1899  0.0477 -0.4537
 5705SOL    HW322553   5.458   1.526   3.301 -0.0149 -0.2170  0.2490
 5705SOL    MW422554   5.537   1.491   3.289 -0.2352  0.0038 -0.2809
 5706SOL     OW22555   6.409   6.247   5.981 -0.0095 -0.3912  0.5837
 5706SOL    HW222556   6.348   6.320   5.991 -1.3777 -1.4195  0.1661
 5706SOL    HW322557   6.480   6.265   6.042  0.8024  2.3477 -0.9827
 5706SOL    MW422558   6.410   6.259   5.990  0.0570  0.5684  0.0203
 5707SOL     OW22559   3.628   1.195   2.311  0.0059 -0.4411 -0.2461
 5707SOL    HW222560   3.717   1.161   2.322 -0.1633 -1.5969 -2.1690
 5707SOL    HW322561   3.619   1.211   2.217 -1.9488 -0.7027 -0.1458
 5707SOL    MW422562   3.639   1.193   2.300  0.0119  0.4954 -0.1842
 5708SOL     OW22563   1.959   1.567   0.947  0.5979 -0.0629 -0.1223
 5708SOL    HW222564   1.967   1.555   1.042 -0.2157 -1.8089 -0.2249
 5708SOL    HW322565   1.965   1.662   0.934 -2.4930  0.5935  2.0313
 5708SOL    MW422566   1.961   1.578   0.958 -0.4826  0.0842 -0.2979
 5709SOL     OW22567   4.269   3.976   3.778  0.3383  0.3429 -0.1529
 5709SOL    HW222568   4.307   3.905   3.829 -0.7463 -0.6465 -0.6784
 5709SOL    HW322569   4.212   4.022   3.840 -0.7387 -0.6693 -0.3591
 5709SOL    MW422570   4.267   3.973   3.793 -0.0711 -0.1699 -0.0204
 5710SOL     OW22571   2.852   0.591   5.234 -0.0831  0.4444  0.0879
 5710SOL    HW222572   2.924   0.644   5.268 -0.6229  1.6674 -0.6166
 5710SOL    HW322573   2.874   0.502   5.260  1.4004  0.8613  0.3581
 5710SOL    MW422574   2.864   0.586   5.242  0.0663  0.1465 -0.3498
 5711SOL     OW22575   2.435   0.165   3.282 -0.3041  0.0337  0.1672
 5711SOL    HW222576   2.428   0.142   3.189 -0.4269  2.4402 -0.4869
 5711SOL    HW322577   2.418   0.259   3.284  2.2041  0.5301  2.3313
 5711SOL    MW422578   2.432   0.174   3.270  0.6724 -0.0316 -0.6171
 5712SOL     OW22579   0.473   2.134   4.495  0.5580 -0.0285 -0.1424
 5712SOL    HW222580   0.416   2.196   4.541  0.3458 -0.6560  0.4561
 5712SOL    HW322581   0.415   2.062   4.470  1.1658 -0.9051  0.9124
 5712SOL    MW422582   0.458   2.133   4.498  0.2587 -0.0773 -0.4049
 5713SOL     OW22583   0.225   3.680   0.671  0.3446 -0.4156  0.1069
 5713SOL    HW222584   0.306   3.701   0.624  0.4821  0.4821  0.7125
 5713SOL    HW322585   0.211   3.755   0.728 -1.7182  0.1345 -1.0394
 5713SOL    MW422586   0.234   3.693   0.672  0.4210  0.0590 -0.3542
 5714SOL     OW22587   5.600   1.706   3.548  0.1688 -0.4923  0.3579
 5714SOL    HW222588   5.609   1.726   3.641  1.0537  0.8491  0.0170
 5714SOL    HW322589   5.526   1.645   3.543 -0.1555 -0.2536  1.8925
 5714SOL    MW422590   5.591   1.701   3.560  0.1280  0.4433  0.0338
 5715SOL     OW22591   4.544   2.188   1.814 -0.1177  0.0570  0.2135
 5715SOL    HW222592   4.479   2.118   1.803  0.4238 -0.1664 -2.1594
 5715SOL    HW322593   4.515   2.257   1.754  1.0479  0.5473  0.1866
 5715SOL    MW422594   4.532   2.188   1.805 -0.1504 -0.2501  0.4674
 5716SOL     OW22595   3.867   4.062   4.813 -0.0588 -0.4925  0.3854
 5716SOL    HW222596   3.866   4.082   4.907  1.8203 -1.1013  0.5669
 5716SOL    HW322597   3.836   4.142   4.772  1.8640  0.8696  1.4079
 5716SOL    MW422598   3.863   4.075   4.820  0.1963  0.3098 -0.2347
 5717SOL     OW22599   1.762   4.265   6.209  0.5118 -0.3744 -0.5141
 5717SOL    HW222600   1.845   4.216   6.210  0.0879 -1.1172 -0.7248
 5717SOL    HW322601   1.696   4.201   6.235  0.0324  0.2828 -0.0940
 5717SOL    MW422602   1.764   4.250   6.212  0.5695  0.3837 -0.2476
 5718SOL     OW22603   5.531   0.836   6.373  0.3352 -0.4797  0.1224
 5718SOL    HW222604   5.567   0.759   6.416  1.5747 -0.6346 -1.1069
 5718SOL    HW322605   5.527   0.812   6.281 -0.3083  0.5471 -0.1312
 5718SOL    MW422606   5.535   0.823   6.367  0.2619  0.3511 -0.0485
 5719SOL     OW22607   0.563   2.361   2.177  0.4119  0.0665  0.2966
 5719SOL    HW222608   0.632   2.373   2.112  1.3118 -1.5743  0.8802
 5719SOL    HW322609   0.597   2.401   2.257  0.0991  0.4574  0.2349
 5719SOL    MW422610   0.576   2.368   2.179  0.6495  0.3892  0.1684
 5720SOL     OW22611   3.564   1.730   1.237  0.4077 -0.1454 -0.1001
 5720SOL    HW222612   3.574   1.635   1.229  1.9197  0.0734 -1.1844
 5720SOL    HW322613   3.537   1.758   1.149 -1.2495  0.3180  0.5244
 5720SOL    MW422614   3.562   1.721   1.224  0.4695 -0.1257 -0.4079
 5721SOL     OW22615   1.692   3.539   4.549  0.5104 -0.1965  0.2412
 5721SOL    HW222616   1.637   3.555   4.626 -1.6717 -0.8740 -1.0833
 5721SOL    HW322617   1.731   3.625   4.530  0.2916  0.2034  1.4824
 5721SOL    MW422618   1.690   3.553   4.557  0.3177 -0.3939  0.1233
 5722SOL     OW22619   2.273   4.325   3.716  0.2062 -0.5820 -0.3329
 5722SOL    HW222620   2.218   4.269   3.662 -1.4591 -0.8612  1.5396
 5722SOL    HW322621   2.266   4.289   3.804 -0.0780  1.8954  0.7616
 5722SOL    MW422622   2.265   4.313   3.721 -0.2987  0.5340 -0.1048
 5723SOL     OW22623   6.033   5.370   2.305  0.1490  0.3448  0.2785
 5723SOL    HW222624   6.117   5.395   2.343 -0.6025  0.8734  1.6683
 5723SOL    HW322625   5.974   5.443   2.327 -0.9577 -0.5492  0.3634
 5723SOL    MW422626   6.036   5.383   2.313 -0.6069  0.1952  0.3689
 5724SOL     OW22627   5.317   3.940   1.468  0.1229  0.0686 -0.6028
 5724SOL    HW222628   5.266   3.970   1.393 -0.7963 -1.2216 -0.5235
 5724SOL    HW322629   5.408   3.939   1.437  0.0997  2.0594 -0.8526
 5724SOL    MW422630   5.322   3.944   1.454 -0.4447  0.8146  0.1663
 5725SOL     OW22631   2.972   3.935   2.030 -0.3071 -0.4560  0.0360
 5725SOL    HW222632   2.888   3.905   2.067  0.0678  0.0966  1.3793
 5725SOL    HW322633   2.985   3.878   1.954 -0.6236 -2.3415  1.3068
 5725SOL    MW422634   2.962   3.923   2.025  0.1054 -0.0448 -0.3458
 5726SOL     OW22635   0.988   5.623   2.577 -0.2606  0.1561  0.3468
 5726SOL    HW222636   0.999   5.671   2.495  0.6104 -2.0878 -0.9356
 5726SOL    HW322637   1.046   5.668   2.638  0.5026  0.7701 -0.7902
 5726SOL    MW422638   0.997   5.635   2.574  0.0123  0.3337  0.1851
 5727SOL     OW22639   6.084   4.157   2.103  0.1030 -0.0341  0.1258
 5727SOL    HW222640   6.038   4.211   2.167  1.3897  0.1962  0.8984
 5727SOL    HW322641   6.131   4.092   2.155  0.2302 -0.5911 -0.6664
 5727SOL    MW422642   6.084   4.156   2.118 -0.5800  0.8102  0.2373
 5728SOL     OW22643   2.598   2.620   3.129  0.4954 -0.0409  0.1193
 5728SOL    HW222644   2.593   2.532   3.091  0.3117 -0.3841  0.9157
 5728SOL    HW322645   2.568   2.678   3.059 -0.8959 -0.7600  0.0690
 5728SOL    MW422646   2.593   2.616   3.115 -0.1847 -0.7184  0.1402
 5729SOL     OW22647   1.246   0.405   5.823  0.0349 -0.0746 -0.2106
 5729SOL    HW222648   1.324   0.350   5.812 -1.0154 -1.6530 -0.1895
 5729SOL    HW322649   1.253   0.438   5.913 -0.2942 -1.9175  0.5581
 5729SOL    MW422650   1.257   0.402   5.834 -0.1506  0.3262  0.0329
 5730SOL     OW22651   5.032   5.599   2.617  0.0471  0.4564 -0.1034
 5730SOL    HW222652   5.030   5.523   2.558  0.5481  1.7275 -1.8309
 5730SOL    HW322653   4.944   5.635   2.613  0.1830  0.7613 -0.3713
 5730SOL    MW422654   5.020   5.593   2.609  0.5846 -0.5032 -0.5431
 5731SOL     OW22655   5.262   4.300   5.264 -0.2321 -0.1306 -0.2813
 5731SOL    HW222656   5.316   4.357   5.209  0.7445 -0.5847  0.1885
 5731SOL    HW322657   5.242   4.353   5.341  1.0704 -0.5634  0.3720
 5731SOL    MW422658   5.266   4.314   5.266  0.2235 -0.2521  0.3338
 5732SOL     OW22659   1.956   4.323   5.847  0.4810 -0.3916  0.3417
 5732SOL    HW222660   1.968   4.260   5.919  1.1586  1.1879  1.6949
 5732SOL    HW322661   1.913   4.398   5.889  1.2245  0.7158 -0.8164
 5732SOL    MW422662   1.952   4.325   5.862 -0.0459  0.3957  0.4182
 5733SOL     OW22663   4.504   0.085   2.999  0.0616  0.5972 -0.4974
 5733SOL    HW222664   4.476   0.024   2.931 -2.1110  1.2634 -0.2575
 5733SOL    HW322665   4.439   0.077   3.068  0.9547  1.5985  0.5148
 5733SOL    MW422666   4.492   0.076   2.999  0.0076  0.0058  0.4861
 5734SOL     OW22667   3.292   6.290   1.528  0.0615 -0.0103  0.0273
 5734SOL    HW222668   3.337   6.272   1.445 -1.4459 -0.8515 -0.6329
 5734SOL    HW322669   3.315   6.381   1.548  1.0569 -0.0359 -0.9138
 5734SOL    MW422670   3.301   6.300   1.519  0.3052 -0.1266  0.2304
 5735SOL     OW22671   3.720   5.145   3.516  0.5909 -0.3943  0.6583
 5735SOL    HW222672   3.673   5.125   3.435  1.4593 -0.8520  0.2484
 5735SOL    HW322673   3.699   5.072   3.574 -0.8372  0.4317  1.2284
 5735SOL    MW422674   3.711   5.133   3.513 -0.1936 -0.1349 -0.2846
 5736SOL     OW22675   0.317   4.590   0.697  0.0337  0.6085  0.0510
 5736SOL    HW222676   0.356   4.643   0.766  0.9942 -0.3078  0.2434
 5736SOL    HW322677   0.234   4.559   0.735  0.2857  0.5706  0.5792
 5736SOL    MW422678   0.311   4.593   0.711 -0.0230  0.1187 -0.3065
 5737SOL     OW22679   1.630   1.617   4.934 -0.0577 -0.0778  0.6809
 5737SOL    HW222680   1.603   1.618   5.026  1.0722  0.5067  1.0254
 5737SOL    HW322681   1.710   1.669   4.932  1.0823 -1.7699 -0.2932
 5737SOL    MW422682   1.637   1.624   4.946  0.1308 -0.0887  0.7593
 5738SOL     OW22683   4.450   2.446   6.345  0.4951 -0.5763 -0.1409
 5738SOL    HW222684   4.487   2.477   6.262 -2.6204  1.9462 -0.7925
 5738SOL    HW322685   4.522   2.452   6.407  1.8465  1.8174 -1.7702
 5738SOL    MW422686   4.464   2.451   6.342 -0.3239  0.4862 -0.5201
 5739SOL     OW22687   4.821   5.047   3.173  0.1109  0.4576 -0.4860
 5739SOL    HW222688   4.895   5.106   3.192 -1.7202  2.9863 -0.7291
 5739SOL    HW322689   4.795   5.013   3.259  1.6631 -0.6964 -0.4258
 5739SOL    MW422690   4.828   5.050   3.187 -0.0262 -0.0756  0.2286
 5740SOL     OW22691   2.004   3.737   0.993  0.0668 -0.0273  1.0243
 5740SOL    HW222692   1.955   3.740   1.075  0.0807 -1.5038  1.1121
 5740SOL    HW322693   2.091   3.705   1.019 -0.3691 -1.9426  0.2803
 5740SOL    MW422694   2.009   3.733   1.007  0.6006 -0.4823 -0.9712
 5741SOL     OW22695   5.095   4.492   0.533 -0.0730 -0.0751  0.5989
 5741SOL    HW222696   5.065   4.512   0.445  2.4328 -1.1863 -0.5896
 5741SOL    HW322697   5.112   4.577   0.573  0.5353  0.4058 -0.6592
 5741SOL    MW422698   5.093   4.506   0.527 -0.5341  0.3268 -0.5712
 5742SOL     OW22699   5.308   3.726   3.461 -0.0219  0.0174  0.0229
 5742SOL    HW222700   5.227   3.691   3.424 -0.2801  0.0558  0.5399
 5742SOL    HW322701   5.284   3.813   3.493  0.3112  0.1721 -0.1469
 5742SOL    MW422702   5.294   3.733   3.461 -0.1312  0.6115 -0.0627
 5743SOL     OW22703   1.865   0.675   1.700  0.0435  0.0116 -0.2682
 5743SOL    HW222704   1.838   0.712   1.784  0.2833 -0.7367  0.1524
 5743SOL    HW322705   1.823   0.589   1.697  1.9321 -0.9909  0.1966
 5743SOL    MW422706   1.856   0.668   1.711 -1.2004 -0.4434  0.2102
 5744SOL     OW22707   1.538   5.926   0.221  0.3549 -0.6061 -0.0027
 5744SOL    HW222708   1.465   5.985   0.206 -0.4042 -0.9952  1.8608
 5744SOL    HW322709   1.517   5.848   0.170 -0.6906 -0.8016  0.6887
 5744SOL    MW422710   1.526   5.923   0.213  0.0146  0.0391 -0.1361
 5745SOL     OW22711   3.452   6.161   1.949  1.5837 -0.0593 -0.1755
 5745SOL    HW222712   3.524   6.100   1.965  1.2944  0.1377  2.2319
 5745SOL    HW322713   3.481   6.243   1.989  0.5669  0.4098 -0.3721
 5745SOL    MW422714   3.465   6.163   1.957  0.0135 -0.5637  0.3094
 5746SOL     OW22715   4.766   5.706   1.645 -0.1466 -0.2029  0.0234
 5746SOL    HW222716   4.845   5.759   1.639 -1.3915  1.7378 -0.1592
 5746SOL    HW322717   4.786   5.639   1.711  0.4796  2.4033  2.6486
 5746SOL    MW422718   4.779   5.704   1.653 -0.5018  0.6309 -0.1173
 5747SOL     OW22719   2.734   5.255   1.211 -0.0722  0.1714 -0.2015
 5747SOL    HW222720   2.704   5.166   1.230  0.2401  0.4082  1.6206
 5747SOL    HW322721   2.719   5.303   1.293  1.4490  1.3272 -0.5595
 5747SOL    MW422722   2.728   5.250   1.224 -0.2427  0.1090  0.4823
 5748SOL     OW22723   5.143   3.467   5.278  0.0843  0.2327  0.7323
 5748SOL    HW222724   5.160   3.392   5.221  0.5545  0.3453  0.7210
 5748SOL    HW322725   5.050   3.460   5.299 -0.3960  0.8955 -1.0338
 5748SOL    MW422726   5.133   3.456   5.273  0.2737  0.5225 -0.1287
 5749SOL     OW22727   1.700   1.537   0.755 -0.2108  0.2619 -0.2962
 5749SOL    HW222728   1.769   1.572   0.700 -0.4465 -2.1148 -2.2956
 5749SOL    HW322729   1.619   1.573   0.719 -0.3670 -1.3127 -1.6378
 5749SOL    MW422730   1.698   1.546   0.743  0.3289 -0.2985 -0.3466
 5750SOL     OW22731   1.650   1.641   3.210 -0.5004 -0.3018 -0.4524
 5750SOL    HW222732   1.671   1.551   3.186  2.8778 -0.0965  1.1234
 5750SOL    HW322733   1.719   1.694   3.171 -0.6862  1.2081  1.1043
 5750SOL    MW422734   1.662   1.636   3.202 -0.3792  0.0517  0.0403
 5751SOL     OW22735   5.534   6.307   0.800 -0.0744 -0.0165  0.2509
 5751SOL    HW222736   5.584   6.380   0.762 -1.4743  0.9049  0.0939
 5751SOL    HW322737   5.443   6.326   0.776 -0.3543 -2.5623 -0.9798
 5751SOL    MW422738   5.528   6.319   0.792  0.1620 -0.5838  0.6259
 5752SOL     OW22739   5.661   1.614   4.026 -0.2393  0.0169 -0.6665
 5752SOL    HW222740   5.683   1.648   4.112 -2.6209  0.2192 -0.0693
 5752SOL    HW322741   5.735   1.558   4.002 -0.2144 -1.3299  2.2159
 5752SOL    MW422742   5.674   1.611   4.034  0.1953 -0.6657 -0.4101
 5753SOL     OW22743   4.841   5.473   4.676 -0.0980 -0.0900  0.6575
 5753SOL    HW222744   4.833   5.505   4.765  2.0323 -0.7933  1.1604
 5753SOL    HW322745   4.900   5.535   4.633 -1.1211  0.2616 -0.2958
 5753SOL    MW422746   4.848   5.485   4.682  0.0771  0.3091  1.1222
 5754SOL     OW22747   5.020   2.907   6.015  0.4685  0.1290 -0.0361
 5754SOL    HW222748   4.979   2.980   5.968  1.3535  1.0191  0.5362
 5754SOL    HW322749   5.099   2.945   6.054  0.2930 -0.8478  1.3161
 5754SOL    MW422750   5.025   2.922   6.014 -0.6162 -0.6370 -0.1895
 5755SOL     OW22751   6.135   1.161   5.603 -0.2051  0.6630  0.4241
 5755SOL    HW222752   6.119   1.254   5.587 -0.6843  0.7228  1.2292
 5755SOL    HW322753   6.163   1.127   5.517  0.0153  1.5451  0.1316
 5755SOL    MW422754   6.137   1.168   5.589  0.2649  0.0426 -0.0791
 5756SOL     OW22755   2.483   0.754   4.949 -0.0702 -0.2022  0.0118
 5756SOL    HW222756   2.495   0.845   4.976  1.5774  0.1377 -1.6233
 5756SOL    HW322757   2.394   0.751   4.912  0.3353  1.1375 -1.1822
 5756SOL    MW422758   2.473   0.765   4.947 -0.4811  0.1389 -0.4946
 5757SOL     OW22759   1.285   3.230   1.696  0.2566  0.0207 -0.2411
 5757SOL    HW222760   1.345   3.159   1.673 -0.9600 -1.2588  0.3579
 5757SOL    HW322761   1.201   3.204   1.656  0.2236  2.1486 -1.7640
 5757SOL    MW422762   1.282   3.217   1.687  0.3134 -0.1381  0.0279
 5758SOL     OW22763   0.002   3.026   2.941  0.1000  0.3547  0.5135
 5758SOL    HW222764   0.082   3.068   2.908 -0.0902  1.6236  1.5976
 5758SOL    HW322765  -0.067   3.091   2.927 -0.3988  0.0043  1.2785
 5758SOL    MW422766   0.004   3.040   2.934  0.2681  0.5922  0.1210
 5759SOL     OW22767   5.734   2.477   3.504  0.3262  0.2090 -0.3458
 5759SOL    HW222768   5.746   2.561   3.459 -0.7528  1.6246  1.8294
 5759SOL    HW322769   5.795   2.481   3.578 -0.2933 -0.5779  0.2232
 5759SOL    MW422770   5.744   2.489   3.508  0.3335  0.4560  0.6941
 5760SOL     OW22771   6.141   2.958   6.199  0.0934 -0.1757  0.1815
 5760SOL    HW222772   6.154   2.962   6.104 -1.5279 -1.5463 -0.1577
 5760SOL    HW322773   6.120   3.047   6.224 -1.1148 -0.0811 -1.0541
 5760SOL    MW422774   6.140   2.970   6.190 -0.6833  0.1553 -0.4445
 5761SOL     OW22775   0.058   0.943   5.276 -0.4237  0.5541  0.1215
 5761SOL    HW222776   0.153   0.945   5.263 -0.2164 -1.1073  1.1503
 5761SOL    HW322777   0.039   1.026   5.320  0.5888  0.7737  0.1741
 5761SOL    MW422778   0.068   0.954   5.280  0.3748  0.2783 -0.2319
 5762SOL     OW22779   1.780   3.873   6.175  0.1103 -0.2626  0.2555
 5762SOL    HW222780   1.796   3.806   6.109  1.9653 -1.2754  1.6313
 5762SOL    HW322781   1.839   3.944   6.151  0.1688 -0.2794  0.3499
 5762SOL    MW422782   1.790   3.874   6.163  0.5275  0.4434 -0.2327
 5763SOL     OW22783   3.898   0.036   0.330 -0.3411  0.3063 -0.6849
 5763SOL    HW222784   3.969   0.100   0.340 -1.1457  0.9125  1.9769
 5763SOL    HW322785   3.936  -0.047   0.357  0.0798  0.0785 -1.9360
 5763SOL    MW422786   3.912   0.034   0.335 -0.0113 -0.5073  0.3689
 5764SOL     OW22787   6.139   2.823   3.803 -0.3637  0.2906  0.4667
 5764SOL    HW222788   6.129   2.900   3.859 -0.1548  0.0036  0.8979
 5764SOL    HW322789   6.187   2.760   3.856 -0.8135 -0.2648  0.2259
 5764SOL    MW422790   6.144   2.825   3.817 -0.7714  0.3094 -0.2399
 5765SOL     OW22791   6.267   1.715   0.565  0.4663 -0.1821  0.4346
 5765SOL    HW222792   6.251   1.638   0.619 -0.6203  0.6225  1.3261
 5765SOL    HW322793   6.301   1.681   0.482 -2.7720 -1.8832 -0.3420
 5765SOL    MW422794   6.270   1.701   0.561 -0.0270  0.1153 -0.1787
 5766SOL     OW22795   4.306   5.441   4.758 -0.2532  0.3001  0.5670
 5766SOL    HW222796   4.375   5.488   4.713 -0.4791  0.3183  0.2365
 5766SOL    HW322797   4.340   5.352   4.769 -0.2474  0.2612  0.2432
 5766SOL    MW422798   4.319   5.435   4.754  0.1425  0.0053 -0.3464
 5767SOL     OW22799   4.774   4.143   3.615 -1.2466 -0.3199  0.0364
 5767SOL    HW222800   4.729   4.156   3.532 -1.2086 -1.1306 -0.1175
 5767SOL    HW322801   4.707   4.162   3.682 -1.9192 -1.7242 -0.1885
 5767SOL    MW422802   4.759   4.147   3.613  0.5662 -0.1198 -0.4366
 5768SOL     OW22803   2.368   4.682   3.851  0.0815 -0.8786 -0.4118
 5768SOL    HW222804   2.324   4.671   3.935  0.3226 -1.4823 -0.3553
 5768SOL    HW322805   2.437   4.616   3.852  0.5113 -0.4415 -0.8073
 5768SOL    MW422806   2.371   4.672   3.862  0.1072 -0.0327 -0.4903
 5769SOL     OW22807   3.005   3.198   5.026  0.0119 -0.7215  0.1225
 5769SOL    HW222808   2.989   3.284   4.987 -1.7604 -0.3433  1.5202
 5769SOL    HW322809   2.922   3.176   5.070  0.7387 -2.7084  0.6166
 5769SOL    MW422810   2.992   3.206   5.027  0.1495  0.1630 -0.1815
 5770SOL     OW22811   3.845   1.372   4.678  0.9059  0.6773  0.4101
 5770SOL    HW222812   3.776   1.309   4.700  2.0073 -0.2006  1.4653
 5770SOL    HW322813   3.818   1.452   4.722 -0.8781  1.2323 -1.5273
 5770SOL    MW422814   3.832   1.374   4.687 -0.3214  0.2905 -0.4743
 5771SOL     OW22815   4.999   4.511   0.264  0.0019  0.0091  0.0663
 5771SOL    HW222816   4.903   4.513   0.259  0.0008  0.7131  0.1433
 5771SOL    HW322817   5.026   4.595   0.227  0.6501 -0.6387 -0.9507
 5771SOL    MW422818   4.989   4.523   0.259 -0.0183  0.2947  0.4465
 5772SOL     OW22819   2.377   1.871   6.020 -0.4356  0.4146  0.2341
 5772SOL    HW222820   2.464   1.897   6.050 -0.7950  0.6221  1.1521
 5772SOL    HW322821   2.376   1.890   5.927  0.2038  1.2330  0.3889
 5772SOL    MW422822   2.388   1.877   6.012  0.4797  0.1563  0.0748
 5773SOL     OW22823   3.742   2.837   0.248  0.1088 -0.1654  0.9366
 5773SOL    HW222824   3.716   2.769   0.310 -0.9258 -0.3628  0.3125
 5773SOL    HW322825   3.827   2.806   0.214  0.2291 -0.5275  1.5509
 5773SOL    MW422826   3.750   2.824   0.251  0.0402 -0.3386  0.8631
 5774SOL     OW22827   0.681   0.992   6.263  0.4604 -0.1986  0.3601
 5774SOL    HW222828   0.737   1.065   6.289  1.0004 -0.5119  0.1012
 5774SOL    HW322829   0.642   0.962   6.345 -0.0045  0.5723  0.4236
 5774SOL    MW422830   0.683   0.998   6.278 -0.5264  0.1317  0.1391
 5775SOL     OW22831   4.332   3.150   4.804  0.4239  0.3576  0.1202
 5775SOL    HW222832   4.413   3.105   4.777  0.6622  1.4693 -1.0971
 5775SOL    HW322833   4.315   3.117   4.892  2.7584  0.8410  0.8065
 5775SOL    MW422834   4.341   3.140   4.812  0.1726  0.1179 -0.6058
 5776SOL     OW22835   6.375   0.498   5.452  0.2363  1.1941  0.4462
 5776SOL    HW222836   6.397   0.467   5.364 -1.5671 -0.6085  0.5641
 5776SOL    HW322837   6.385   0.593   5.447  3.2550  0.9439 -0.7484
 5776SOL    MW422838   6.379   0.506   5.440 -1.0086 -0.1962 -0.4113
 5777SOL     OW22839   1.898   3.677   5.440  0.2916  0.0430 -0.4943
 5777SOL    HW222840   1.828   3.625   5.402 -0.0340  0.0598  0.0700
 5777SOL    HW322841   1.942   3.717   5.365 -0.4299  0.2012 -0.8406
 5777SOL    MW422842   1.895   3.675   5.425 -0.8132  0.4924  0.4896
 5778SOL     OW22843   0.455   1.757   3.277  0.3630  0.2063  0.3175
 5778SOL    HW222844   0.491   1.753   3.366 -0.2351  1.9366  0.6849
 5778SOL    HW322845   0.360   1.759   3.290  0.1543 -1.9638 -0.5172
 5778SOL    MW422846   0.447   1.757   3.291  0.2405  0.1008 -0.2815
 5779SOL     OW22847   5.016   2.447   5.525 -0.4613 -0.3856 -0.2225
 5779SOL    HW222848   4.984   2.520   5.472 -1.5793 -1.0925 -0.5599
 5779SOL    HW322849   5.109   2.466   5.538 -0.6885  1.0117 -0.4261
 5779SOL    MW422850   5.024   2.460   5.519 -0.1600  0.0816  0.4307
 5780SOL     OW22851   3.987   4.303   0.833 -0.0950  0.0924 -0.1679
 5780SOL    HW222852   3.900   4.272   0.858 -0.1629  1.7604  2.0155
 5780SOL    HW322853   4.042   4.225   0.835 -1.4623 -0.9531 -1.4023
 5780SOL    MW422854   3.983   4.289   0.837  0.0764 -0.0702  0.2498
 5781SOL     OW22855   4.746   1.375   2.058 -0.9718  0.6755 -0.2396
 5781SOL    HW222856   4.678   1.333   2.110 -0.6712 -1.2487 -1.3062
 5781SOL    HW322857   4.825   1.325   2.077 -0.1393  1.9918 -0.0979
 5781SOL    MW422858   4.748   1.363   2.067  0.3776  0.0846 -0.1281
 5782SOL     OW22859   5.441   2.730   3.020  0.0555  0.1799  0.0007
 5782SOL    HW222860   5.510   2.669   3.044  0.7876  0.8900 -0.2781
 5782SOL    HW322861   5.479   2.783   2.950 -1.6498 -1.1482 -2.0930
 5782SOL    MW422862   5.455   2.729   3.014 -0.2586 -0.3110  0.1005
 5783SOL     OW22863   1.271   5.464   3.937 -0.3263  0.2755 -0.4486
 5783SOL    HW222864   1.195   5.408   3.950 -0.3029  0.5859  1.1799
 5783SOL    HW322865   1.306   5.437   3.852 -2.2198  0.1094 -1.2206
 5783SOL    MW422866   1.265   5.453   3.927 -0.3594  0.3310 -0.4824
 5784SOL     OW22867   5.007   5.446   5.685 -0.1106 -0.0831  0.3435
 5784SOL    HW222868   4.979   5.374   5.742 -0.9545 -0.2310 -0.2457
 5784SOL    HW322869   4.945   5.445   5.612  1.3841 -0.3673 -0.9697
 5784SOL    MW422870   4.995   5.436   5.683  0.0653  0.4612 -0.6241
 5785SOL     OW22871   4.936   1.393   1.098 -0.2022 -0.6006  1.0139
 5785SOL    HW222872   4.926   1.473   1.048  1.8673  0.5789  2.3282
 5785SOL    HW322873   4.936   1.323   1.032  0.4526  0.7048 -0.4337
 5785SOL    MW422874   4.935   1.394   1.083  0.0372  0.2847  0.7437
 5786SOL     OW22875   6.330   2.317   0.895 -0.5051 -0.0069  0.0305
 5786SOL    HW222876   6.312   2.274   0.979  0.8269 -0.5743  0.0457
 5786SOL    HW322877   6.244   2.332   0.857 -1.0822 -0.7683  0.9907
 5786SOL    MW422878   6.316   2.313   0.901  0.3107 -0.0030  0.1201
 5787SOL     OW22879   4.973   3.120   1.107  0.1489  0.1076 -0.1057
 5787SOL    HW222880   4.990   3.040   1.157  0.3131  0.5391  0.5576
 5787SOL    HW322881   5.059   3.163   1.101  0.0185  0.3573 -0.2234
 5787SOL    MW422882   4.987   3.115   1.113  0.1911 -0.3376 -0.3568
 5788SOL     OW22883   0.434   0.194   6.048  0.1580 -0.0555  0.4435
 5788SOL    HW222884   0.477   0.198   6.133  0.9112 -0.6972  0.0982
 5788SOL    HW322885   0.479   0.124   6.001 -1.7672 -1.2944  0.3424
 5788SOL    MW422886   0.445   0.186   6.053  0.2606 -0.3597 -0.2264
 5789SOL     OW22887   1.874   5.033   0.622  0.5633 -0.2517 -0.2829
 5789SOL    HW222888   1.806   5.010   0.558 -0.2463  0.8038  0.1625
 5789SOL    HW322889   1.849   4.986   0.702 -2.9630  4.2614  1.6697
 5789SOL    MW422890   1.862   5.024   0.624  0.7997  0.2902  0.0939
 5790SOL     OW22891   3.780   1.329   1.182  0.0435 -0.0021 -0.1357
 5790SOL    HW222892   3.718   1.368   1.243  0.9458 -0.4288  1.0922
 5790SOL    HW322893   3.861   1.321   1.231  1.2638  1.0453 -1.8743
 5790SOL    MW422894   3.782   1.333   1.196 -0.1388 -0.2063  0.1304
 5791SOL     OW22895   4.766   1.999   2.928 -0.8440 -0.0622 -0.4709
 5791SOL    HW222896   4.734   1.948   2.854 -1.0748  0.5997 -0.8287
 5791SOL    HW322897   4.785   2.086   2.892 -1.3642  0.3960  0.3320
 5791SOL    MW422898   4.765   2.004   2.913 -0.3121 -0.6412 -0.4830
 5792SOL     OW22899   0.970   5.838   3.368 -0.5588 -0.9699 -0.5664
 5792SOL    HW222900   1.057   5.874   3.351 -1.0334 -0.4072 -1.8998
 5792SOL    HW322901   0.986   5.746   3.390  0.5412 -0.3820  1.4165
 5792SOL    MW422902   0.984   5.831   3.369  0.4808 -0.0491  0.2847
 5793SOL     OW22903   0.705   3.198   0.022 -0.3467  0.1195  0.5438
 5793SOL    HW222904   0.638   3.224   0.086 -0.5705 -0.3434  0.5031
 5793SOL    HW322905   0.785   3.190   0.074  0.2921  3.1007  0.1990
 5793SOL    MW422906   0.707   3.201   0.037 -0.2451  0.3530 -0.1964
 5794SOL     OW22907   3.558   2.527   2.011 -0.3310  0.4094 -0.0995
 5794SOL    HW222908   3.547   2.500   1.920 -0.6608 -1.4222  0.4429
 5794SOL    HW322909   3.470   2.542   2.043 -0.2983  0.0098  0.1940
 5794SOL    MW422910   3.545   2.525   2.003 -0.1753 -0.4741 -0.2650
 5795SOL     OW22911   1.424   1.056   5.785  0.0269  0.1030  0.3515
 5795SOL    HW222912   1.337   1.080   5.816 -0.3137 -2.9145  2.1021
 5795SOL    HW322913   1.417   1.063   5.689 -1.8389  0.8029  0.4894
 5795SOL    MW422914   1.411   1.060   5.776 -0.4004  0.2141 -0.2955
 5796SOL     OW22915   6.098   3.186   4.663 -0.2441 -0.5752  0.6362
 5796SOL    HW222916   6.188   3.211   4.685 -0.5972  2.6183 -0.8225
 5796SOL    HW322917   6.050   3.194   4.745  0.1274  1.9304  0.7046
 5796SOL    MW422918   6.103   3.191   4.677 -0.5185 -0.6426 -0.1342
 5797SOL     OW22919   4.098   0.132   5.686  0.2643 -0.1771 -0.1731
 5797SOL    HW222920   4.077   0.057   5.630  0.9874  1.0181 -2.1026
 5797SOL    HW322921   4.013   0.168   5.710 -0.0972  1.0698 -3.0156
 5797SOL    MW422922   4.084   0.127   5.682  0.0049 -0.4910  0.3820
 5798SOL     OW22923   6.388   4.358   1.245  0.6559  0.6018  0.3361
 5798SOL    HW222924   6.402   4.415   1.170  1.8107 -0.3325 -0.1945
 5798SOL    HW322925   6.447   4.391   1.312  0.8006  0.4762  0.2726
 5798SOL    MW422926   6.398   4.370   1.244  0.1566  0.3188  0.1689
 5799SOL     OW22927   1.776   0.920   5.202  0.0077 -0.8592  0.0750
 5799SOL    HW222928   1.822   0.840   5.229  0.9198 -0.2868  0.2473
 5799SOL    HW322929   1.699   0.923   5.259  1.0708 -0.5119  1.5502
 5799SOL    MW422930   1.772   0.910   5.213  0.4821 -0.4562  0.0425
 5800SOL     OW22931   3.917   5.329   6.329  0.6531  0.4440  0.1326
 5800SOL    HW222932   3.871   5.246   6.316 -1.5094  1.7386 -1.0912
 5800SOL    HW322933   3.968   5.340   6.249  1.7190 -0.1341  0.7147
 5800SOL    MW422934   3.917   5.320   6.317 -0.2494  0.1251 -0.0222
 5801SOL     OW22935   5.856   6.227   2.558 -0.5375 -0.1820 -1.3250
 5801SOL    HW222936   5.880   6.232   2.650 -2.3666  2.8771 -0.8559
 5801SOL    HW322937   5.790   6.159   2.554 -0.7241 -0.0828 -0.2775
 5801SOL    MW422938   5.850   6.219   2.570  0.0099  0.5420  0.3466
 5802SOL     OW22939   3.399   0.638   0.207 -0.3379 -0.6275  0.8164
 5802SOL    HW222940   3.333   0.705   0.221  0.0517  0.2219 -1.0971
 5802SOL    HW322941   3.352   0.565   0.168 -0.0340  0.5857 -2.1238
 5802SOL    MW422942   3.384   0.637   0.204  0.0800  0.3193  0.4590
 5803SOL     OW22943   2.099   5.019   2.276 -0.6932  0.4588  0.0049
 5803SOL    HW222944   2.058   5.095   2.319 -0.8630 -0.5029  1.6426
 5803SOL    HW322945   2.108   5.045   2.185 -3.9167  1.1440 -0.2220
 5803SOL    MW422946   2.095   5.033   2.270  0.4075  0.2166 -0.3828
 5804SOL     OW22947   2.965   2.338   2.433  0.6624 -1.0831 -0.2740
 5804SOL    HW222948   3.035   2.283   2.398  1.0351 -0.4231 -0.5916
 5804SOL    HW322949   3.007   2.391   2.500  0.3626 -1.0218 -0.1335
 5804SOL    MW422950   2.979   2.338   2.437 -0.3379 -0.5894  0.3085
 5805SOL     OW22951   2.183   5.336   2.653 -0.4272 -0.1469 -0.8447
 5805SOL    HW222952   2.262   5.390   2.659 -1.4420  1.2873  0.7275
 5805SOL    HW322953   2.112   5.396   2.676 -1.6068 -2.1574  1.1376
 5805SOL    MW422954   2.184   5.351   2.657 -0.2270  0.0362  0.1971
 5806SOL     OW22955   0.247   1.065   5.849  0.2243  0.0755  0.3008
 5806SOL    HW222956   0.184   1.096   5.784  0.7834 -0.9832 -0.7972
 5806SOL    HW322957   0.229   1.116   5.927 -1.9916 -0.2045  0.0189
 5806SOL    MW422958   0.237   1.076   5.851 -0.1974  0.0070 -0.0127
 5807SOL     OW22959   0.109   0.102   5.706  0.2096 -0.1954 -0.5677
 5807SOL    HW222960   0.124   0.176   5.647  0.2621 -0.0335 -0.3524
 5807SOL    HW322961   0.035   0.055   5.667 -1.0860  1.0362  0.2990
 5807SOL    MW422962   0.101   0.106   5.693  0.6843 -0.2031  0.1275
 5808SOL     OW22963   1.484   5.070   6.131  0.2619 -0.1513 -0.1230
 5808SOL    HW222964   1.427   4.993   6.127  0.5495 -0.4219  0.9296
 5808SOL    HW322965   1.454   5.125   6.058 -1.0518 -0.4922  0.1354
 5808SOL    MW422966   1.473   5.067   6.121  0.1808 -0.0255  0.2610
 5809SOL     OW22967   0.285   0.030   1.016 -0.0965 -0.5518 -0.0342
 5809SOL    HW222968   0.325   0.115   1.034 -1.6652  0.5078 -1.2693
 5809SOL    HW322969   0.344  -0.033   1.057 -0.0682  1.2310  2.9978
 5809SOL    MW422970   0.298   0.033   1.024  0.0222 -0.2353  0.1092
 5810SOL     OW22971   0.692   0.517   0.719  0.1876  0.4391  0.0747
 5810SOL    HW222972   0.652   0.475   0.644  1.6408  0.1016 -0.5371
 5810SOL    HW322973   0.677   0.611   0.706  0.2129  0.3605 -0.5090
 5810SOL    MW422974   0.685   0.524   0.708 -0.5338  0.0444  0.2572
 5811SOL     OW22975   1.538   2.434   1.544  0.1889  0.1495 -0.7627
 5811SOL    HW222976   1.567   2.524   1.530  1.4503 -0.1603 -0.3045
 5811SOL    HW322977   1.537   2.395   1.457  2.4841 -0.1769 -0.7213
 5811SOL    MW422978   1.542   2.441   1.531 -0.1449 -0.8543  0.2947
 5812SOL     OW22979   3.618   2.158   0.332 -0.1939 -0.1812  0.1957
 5812SOL    HW222980   3.684   2.140   0.265 -0.5838 -1.2616  0.0878
 5812SOL    HW322981   3.664   2.143   0.415 -0.3393 -1.1186  0.1188
 5812SOL    MW422982   3.633   2.154   0.334 -0.1664 -0.0471 -0.3154
 5813SOL     OW22983   4.956   5.803   5.251  0.0843 -0.7326 -0.0061
 5813SOL    HW222984   4.917   5.717   5.235  0.7046 -0.9424 -0.4287
 5813SOL    HW322985   4.893   5.866   5.215 -0.3577 -1.0016  0.2808
 5813SOL    MW422986   4.942   5.800   5.244  0.0682  0.2795 -0.7031
 5814SOL     OW22987   5.248   4.249   3.999  0.3493 -0.2034 -0.2329
 5814SOL    HW222988   5.223   4.171   3.949  0.1562 -0.5091  0.3380
 5814SOL    HW322989   5.257   4.317   3.932 -1.5078 -0.1985 -0.5194
 5814SOL    MW422990   5.246   4.247   3.983  0.5804  0.1042 -0.3381
 5815SOL     OW22991   3.306   5.139   5.656  0.5864  0.0681  0.3604
 5815SOL    HW222992   3.283   5.207   5.719 -2.7857 -0.1083 -0.5031
 5815SOL    HW322993   3.253   5.159   5.578  0.7442 -2.5833 -0.5345
 5815SOL    MW422994   3.296   5.151   5.654  0.2540 -0.1450  0.2650
 5816SOL     OW22995   1.092   1.108   6.298  0.0261  0.2637 -0.0790
 5816SOL    HW222996   1.181   1.074   6.311  0.1130  0.4138 -0.2625
 5816SOL    HW322997   1.078   1.103   6.203  0.3115  1.3694 -0.1968
 5816SOL    MW422998   1.102   1.103   6.287  0.2399  0.4315 -0.1313
 5817SOL     OW22999   5.484   1.114   4.739  0.0254 -0.4539  0.1043
 5817SOL    HW223000   5.404   1.094   4.689  0.1338  0.3388 -0.4066
 5817SOL    HW323001   5.546   1.145   4.673  0.2119  0.5116  0.7115
 5817SOL    MW423002   5.482   1.115   4.723 -0.9273 -0.4775 -0.3676
 5818SOL     OW23003   1.082   3.625   1.324 -0.8075  0.0346 -0.4759
 5818SOL    HW223004   1.103   3.674   1.244 -0.7917 -0.0565 -0.5274
 5818SOL    HW323005   1.055   3.693   1.387 -1.7107  0.0202 -0.8428
 5818SOL    MW423006   1.082   3.641   1.322 -0.2660 -0.7359 -0.6273
 5819SOL     OW23007   3.202   3.490   6.278  0.6907  0.0195 -0.3396
 5819SOL    HW223008   3.198   3.421   6.344 -2.8479  0.5513  0.2196
 5819SOL    HW323009   3.263   3.555   6.314 -0.5385 -0.0622  2.1388
 5819SOL    MW423010   3.210   3.490   6.292  0.2533 -0.7156 -0.2001
 5820SOL     OW23011   4.905   4.570   5.632  0.2082 -0.1398 -0.0426
 5820SOL    HW223012   4.819   4.612   5.634  0.0015 -0.4904 -1.2255
 5820SOL    HW323013   4.901   4.506   5.703 -0.2047  0.4038  0.4384
 5820SOL    MW423014   4.893   4.567   5.642  0.0144 -0.1042  0.5441
 5821SOL     OW23015   0.134   5.781   0.112  0.0208  0.8558 -0.5466
 5821SOL    HW223016   0.191   5.828   0.174 -1.8789  0.6854  1.4463
 5821SOL    HW323017   0.096   5.850   0.058 -2.2430  1.7656  1.9356
 5821SOL    MW423018   0.137   5.796   0.113 -0.1199  0.9024  0.3170
 5822SOL     OW23019   2.197   5.101   4.193  0.1500 -0.5745 -0.1248
 5822SOL    HW223020   2.223   5.093   4.102  0.0857  0.6990 -0.2799
 5822SOL    HW323021   2.261   5.050   4.242  0.7757 -0.4513 -0.8016
 5822SOL    MW423022   2.209   5.094   4.188 -0.0025  0.4142 -0.0505
 5823SOL     OW23023   1.907   2.056   2.131 -0.2338 -0.5219  0.1202
 5823SOL    HW223024   1.840   2.096   2.075 -1.1028  0.5590  1.8432
 5823SOL    HW323025   1.952   2.131   2.171  2.0572 -1.2234 -0.9874
 5823SOL    MW423026   1.904   2.071   2.129 -0.2978 -0.6424  0.0118
 5824SOL     OW23027   3.337   5.596   3.350  0.5886  0.2631  0.2462
 5824SOL    HW223028   3.288   5.660   3.298  0.3899 -0.7059 -0.7710
 5824SOL    HW323029   3.275   5.566   3.416  0.8292  1.4610  1.0602
 5824SOL    MW423030   3.323   5.601   3.352 -0.7368  0.8036 -0.5738
 5825SOL     OW23031   6.009   2.892   1.742 -0.3522 -0.2096 -0.1686
 5825SOL    HW223032   6.031   2.862   1.654 -0.0169 -1.4307  0.3002
 5825SOL    HW323033   5.924   2.935   1.733 -0.7505 -1.1168 -0.9494
 5825SOL    MW423034   6.001   2.893   1.729 -0.0959 -0.7818  0.2832
 5826SOL     OW23035   4.705   6.164   3.232 -0.1728  0.4405  0.2569
 5826SOL    HW223036   4.618   6.169   3.273  0.4189  0.8201  1.5119
 5826SOL    HW323037   4.765   6.200   3.298  1.2773 -2.0437  0.4234
 5826SOL    MW423038   4.701   6.169   3.246 -0.1015 -0.8964 -0.1647
 5827SOL     OW23039   4.333   1.755   5.210  0.4506  0.2729 -0.2434
 5827SOL    HW223040   4.350   1.824   5.275 -0.8773  0.0764  0.3340
 5827SOL    HW323041   4.367   1.792   5.128  0.2640  1.4019  0.1594
 5827SOL    MW423042   4.340   1.769   5.207  0.2902  0.1133  0.7519
 5828SOL     OW23043   1.284   2.165   3.064 -0.0186 -0.1830  0.3304
 5828SOL    HW223044   1.272   2.259   3.073  0.7190  0.0432 -0.8856
 5828SOL    HW323045   1.216   2.138   3.002  0.7954 -0.1647 -0.5916
 5828SOL    MW423046   1.273   2.174   3.057  0.3436  0.4079  0.0090
 5829SOL     OW23047   5.634   5.864   2.710 -0.3125 -0.3095  0.3372
 5829SOL    HW223048   5.610   5.927   2.642  1.7129  0.4506  0.2556
 5829SOL    HW323049   5.688   5.915   2.771 -0.2946 -1.5023  1.3368
 5829SOL    MW423050   5.638   5.879   2.709 -0.4728  0.9037 -0.4671
 5830SOL     OW23051   6.375   4.189   2.386 -0.0683  0.2303 -0.1935
 5830SOL    HW223052   6.423   4.188   2.303 -1.0284  1.3012 -0.7854
 5830SOL    HW323053   6.406   4.111   2.432  3.2079  1.5295  0.0508
 5830SOL    MW423054   6.385   4.178   2.381  0.6595 -0.2331 -0.2802
 5831SOL     OW23055   6.093   6.191   0.359 -0.0006  0.3103  0.1221
 5831SOL    HW223056   6.111   6.122   0.295 -1.3834 -0.0469  0.0962
 5831SOL    HW323057   6.078   6.145   0.441 -2.7382  0.3682 -0.2596
 5831SOL    MW423058   6.094   6.176   0.361  0.0542 -0.0902  0.0693
 5832SOL     OW23059   5.175   1.487   1.228 -0.3568  0.0724  0.0665
 5832SOL    HW223060   5.088   1.467   1.193 -0.5398  0.6910  0.1519
 5832SOL    HW323061   5.178   1.440   1.312  0.4033 -2.0996 -1.0940
 5832SOL    MW423062   5.164   1.478   1.235 -0.6639 -0.4116  0.0029
 5833SOL     OW23063   0.224   4.275   0.436  0.1116  0.0713  0.4279
 5833SOL    HW223064   0.277   4.215   0.489 -0.1621 -0.6842 -0.1326
 5833SOL    HW323065   0.147   4.223   0.411 -0.2040  0.7094  0.0684
 5833SOL    MW423066   0.221   4.260   0.440  0.2464 -0.1398 -0.1583
 5834SOL     OW23067   3.277   1.217   5.071  0.2788  0.0128  0.7391
 5834SOL    HW223068   3.182   1.202   5.075  0.2257 -0.2202 -0.6859
 5834SOL    HW323069   3.314   1.147   5.125 -0.3182 -0.8966  0.0248
 5834SOL    MW423070   3.269   1.206   5.078 -0.2434  0.5550  0.4145
 5835SOL     OW23071   5.544   6.295   2.240 -0.3055 -0.3646  0.0577
 5835SOL    HW223072   5.521   6.315   2.330  0.3187  1.3105 -0.1122
 5835SOL    HW323073   5.640   6.293   2.239 -0.2637  0.7850 -0.7594
 5835SOL    MW423074   5.554   6.298   2.252 -0.7177 -0.0984  0.3209
 5836SOL     OW23075   5.123   0.186   5.302  0.1440 -0.3103 -0.3292
 5836SOL    HW223076   5.067   0.206   5.377  0.5415  0.3694 -0.2053
 5836SOL    HW323077   5.073   0.122   5.251 -0.1688 -0.7157  0.4674
 5836SOL    MW423078   5.109   0.180   5.305  0.2053  0.1234  0.5618
 5837SOL     OW23079   2.012   1.925   5.266  0.2453  0.0501  0.1107
 5837SOL    HW223080   1.952   1.851   5.254 -1.9267  1.6273  0.6007
 5837SOL    HW323081   2.052   1.937   5.180  0.6064 -1.6508  0.0161
 5837SOL    MW423082   2.009   1.917   5.253  0.2446 -0.0821  0.2041
 5838SOL     OW23083   2.789   6.221   0.067  0.3251 -0.6850 -0.1216
 5838SOL    HW223084   2.773   6.246   0.158  0.8435  1.5311 -0.5829
 5838SOL    HW323085   2.702   6.223   0.026  0.2990 -0.0292 -0.0427
 5838SOL    MW423086   2.775   6.224   0.074  0.1014 -0.2152  0.0708
 5839SOL     OW23087   5.234   6.255   0.358  0.1179 -0.0586  0.1443
 5839SOL    HW223088   5.159   6.302   0.395 -0.1650 -1.4347  1.4074
 5839SOL    HW323089   5.303   6.321   0.351 -1.1348  1.1928 -0.8787
 5839SOL    MW423090   5.233   6.270   0.362 -0.1724  0.3675 -0.3658
 5840SOL     OW23091   6.294   2.149   2.850  0.2375 -0.2782  0.4428
 5840SOL    HW223092   6.252   2.116   2.929 -3.1710  1.0474 -0.6056
 5840SOL    HW323093   6.370   2.198   2.882 -1.0599  0.2887  2.9157
 5840SOL    MW423094   6.298   2.151   2.865  0.3511  0.1143 -0.2085
 5841SOL     OW23095   1.898   2.824   6.048  0.1984 -0.5180 -0.6350
 5841SOL    HW223096   1.936   2.759   5.988 -1.0366  0.1203 -2.1599
 5841SOL    HW323097   1.804   2.805   6.047  0.0981 -0.2135  0.8048
 5841SOL    MW423098   1.891   2.813   6.040  0.0583 -0.0928 -0.1727
 5842SOL     OW23099   4.556   4.241   0.968 -0.1572  0.1270 -0.3132
 5842SOL    HW223100   4.601   4.325   0.976  2.0124 -0.9727 -0.3654
 5842SOL    HW323101   4.604   4.194   0.900 -1.0185 -1.3618  0.0537
 5842SOL    MW423102   4.568   4.246   0.960  0.5744 -0.5337  0.0111
 5843SOL     OW23103   3.342   1.837   2.958 -0.3679  0.6951 -0.1793
 5843SOL    HW223104   3.276   1.817   2.892 -1.0241  1.0544  0.3564
 5843SOL    HW323105   3.293   1.845   3.040  0.5450 -0.6594  0.5381
 5843SOL    MW423106   3.327   1.835   2.960 -0.4384 -0.2625  0.1822
 5844SOL     OW23107   4.201   6.063   6.085  0.0045  0.0845  0.3904
 5844SOL    HW223108   4.192   6.022   5.999 -1.2063 -1.7704  1.3486
 5844SOL    HW323109   4.144   6.139   6.081 -0.7628 -0.4950 -0.1745
 5844SOL    MW423110   4.193   6.067   6.073  0.3413 -0.0783  0.0505
 5845SOL     OW23111   1.760   4.470   0.702 -0.3427  0.6556  0.5609
 5845SOL    HW223112   1.678   4.452   0.655 -0.7039  0.0255  1.4087
 5845SOL    HW323113   1.809   4.388   0.693 -0.5072  0.4517  1.4512
 5845SOL    MW423114   1.755   4.457   0.694 -0.7640  0.3375 -0.1622
 5846SOL     OW23115   0.235   1.380   0.896 -0.2360 -0.2918  0.6983
 5846SOL    HW223116   0.323   1.342   0.890 -0.5327 -1.0726  1.1470
 5846SOL    HW323117   0.219   1.416   0.809 -0.1591 -1.7118  0.0641
 5846SOL    MW423118   0.245   1.379   0.883  0.1146 -0.5704 -0.3967
 5847SOL     OW23119   1.559   6.159   4.623 -0.2048  0.2414  0.1472
 5847SOL    HW223120   1.533   6.164   4.714 -0.0513  2.0564  0.1152
 5847SOL    HW323121   1.480   6.180   4.573  0.2282  1.3965 -0.0690
 5847SOL    MW423122   1.545   6.162   4.628  0.1656  0.2268  0.6841
 5848SOL     OW23123   1.292   4.335   2.958 -0.2036  0.7858  0.1677
 5848SOL    HW223124   1.294   4.410   3.017 -0.8343 -0.9440  2.5039
 5848SOL    HW323125   1.228   4.275   2.996  0.2646 -0.9726 -1.6163
 5848SOL    MW423126   1.284   4.337   2.971 -0.4434  0.0374 -0.1635
 5849SOL     OW23127   3.653   1.050   1.874  0.3890  0.6756  0.5931
 5849SOL    HW223128   3.670   1.079   1.785  0.0853 -0.6900  0.0613
 5849SOL    HW323129   3.593   0.976   1.864 -2.5614  2.6510  2.1390
 5849SOL    MW423130   3.647   1.044   1.861 -0.3130 -0.2441  0.1988
 5850SOL     OW23131   1.980   2.708   4.428  0.9265 -0.2675  0.4631
 5850SOL    HW223132   2.071   2.737   4.417  0.5015  0.4523 -1.6410
 5850SOL    HW323133   1.933   2.749   4.355 -0.4060 -3.5254 -0.6831
 5850SOL    MW423134   1.986   2.717   4.417  0.0636 -0.0926  0.1648
 5851SOL     OW23135   3.573   3.818   2.925 -0.4909 -0.1652  0.1540
 5851SOL    HW223136   3.609   3.888   2.871 -1.5200 -0.8741 -1.5354
 5851SOL    HW323137   3.517   3.768   2.865 -2.5223 -0.3910  2.1092
 5851SOL    MW423138   3.570   3.821   2.910 -0.1879  0.3709  0.3368
 5852SOL     OW23139   1.246   0.094   1.222  0.8280  0.6796  0.6564
 5852SOL    HW223140   1.192   0.168   1.193  0.6701  0.3413  0.0592
 5852SOL    HW323141   1.186   0.020   1.222  1.5455  0.0386 -1.2201
 5852SOL    MW423142   1.231   0.094   1.218 -0.1638 -0.6770 -0.7781
 5853SOL     OW23143   4.388   1.453   0.563  0.1713 -0.9170 -0.0185
 5853SOL    HW223144   4.353   1.367   0.541 -0.8723  0.0327 -2.3691
 5853SOL    HW323145   4.410   1.493   0.479  0.6541  1.1221  0.9924
 5853SOL    MW423146   4.387   1.447   0.549  0.2726 -0.1397 -0.3637
 5854SOL     OW23147   4.145   4.796   4.723  0.8464  0.1069 -0.4582
 5854SOL    HW223148   4.147   4.886   4.755  3.3878  0.4680 -1.4350
 5854SOL    HW323149   4.073   4.794   4.660 -0.4986  0.8718  0.9545
 5854SOL    MW423150   4.135   4.807   4.719  0.4238 -0.2947  0.0355
 5855SOL     OW23151   1.406   6.204   5.637  0.5468  0.6851  0.3033
 5855SOL    HW223152   1.379   6.209   5.545  0.2612  0.9260  0.3999
 5855SOL    HW323153   1.452   6.121   5.644  3.2390  1.9604 -0.7692
 5855SOL    MW423154   1.409   6.194   5.626  1.0380  0.3369 -0.4528
 5856SOL     OW23155   1.599   5.492   0.659  0.3469 -0.0695 -0.0278
 5856SOL    HW223156   1.597   5.507   0.564  0.4939 -0.0411 -0.0267
 5856SOL    HW323157   1.626   5.400   0.667  2.1317  0.4289  0.0235
 5856SOL    MW423158   1.602   5.482   0.647  0.8303 -0.5263  0.3931
 5857SOL     OW23159   2.591   2.646   3.932  0.0861  0.9129  0.1966
 5857SOL    HW223160   2.610   2.631   3.839  2.1161 -2.0321  0.9263
 5857SOL    HW323161   2.521   2.585   3.952  0.4552  0.6935  0.8358
 5857SOL    MW423162   2.584   2.636   3.922  0.0913  0.6128 -0.0270
 5858SOL     OW23163   4.812   2.386   1.467  0.1447  0.6531 -0.2845
 5858SOL    HW223164   4.875   2.327   1.508 -0.2104 -0.8777 -1.8582
 5858SOL    HW323165   4.770   2.430   1.541  2.1606  0.7995  0.8281
 5858SOL    MW423166   4.815   2.384   1.483  0.3868  0.1994 -0.1583
 5859SOL     OW23167   0.221   1.820   2.111 -0.2397  0.1037  0.4208
 5859SOL    HW223168   0.290   1.882   2.131  0.1874 -0.0917 -0.3869
 5859SOL    HW323169   0.170   1.814   2.191  1.0011 -0.1676  1.2175
 5859SOL    MW423170   0.223   1.827   2.124  0.2088 -0.6810  0.0163
 5860SOL     OW23171   2.098   3.777   1.399  0.1498 -0.7532 -0.5083
 5860SOL    HW223172   2.089   3.873   1.395 -0.0030 -0.6217  1.6404
 5860SOL    HW323173   2.164   3.757   1.333 -0.3705  0.7327 -1.5463
 5860SOL    MW423174   2.106   3.787   1.390 -0.9687 -0.1114  0.3119
 5861SOL     OW23175   1.165   3.288   1.098  0.2218 -0.5331  0.3059
 5861SOL    HW223176   1.231   3.349   1.130 -1.4104  0.3935  2.0944
 5861SOL    HW323177   1.165   3.301   1.003  2.1042 -0.0803  0.3325
 5861SOL    MW423178   1.173   3.298   1.090  0.0490  0.0272 -0.4886
 5862SOL     OW23179   5.513   0.203   1.092 -0.2973  0.0069 -0.3497
 5862SOL    HW223180   5.463   0.225   1.170 -0.7786  1.9363 -1.1492
 5862SOL    HW323181   5.569   0.278   1.076  0.3136 -0.6439 -1.4672
 5862SOL    MW423182   5.514   0.216   1.100  0.0651 -0.2478 -0.5088
 5863SOL     OW23183   4.379   5.372   0.705  0.2876 -0.1216 -0.4040
 5863SOL    HW223184   4.323   5.423   0.647 -0.4120 -0.9136 -0.4364
 5863SOL    HW323185   4.347   5.392   0.793 -0.3890 -0.9620 -0.4506
 5863SOL    MW423186   4.367   5.382   0.709 -0.1642 -0.6506  0.2930
 5864SOL     OW23187   5.323   4.648   3.632  0.3353 -0.2717  0.7779
 5864SOL    HW223188   5.357   4.578   3.688  0.0378 -0.6247  0.5236
 5864SOL    HW323189   5.244   4.679   3.678 -1.7047 -2.6140 -0.8447
 5864SOL    MW423190   5.317   4.643   3.646  0.0830  0.1973 -0.1208
 5865SOL     OW23191   6.299   3.017   4.901  0.3760 -0.7298  0.0849
 5865SOL    HW223192   6.316   2.923   4.890  2.3081 -0.4877  0.6490
 5865SOL    HW323193   6.352   3.059   4.833  2.0366  0.0663  1.7533
 5865SOL    MW423194   6.308   3.010   4.890  0.0777  0.2703  0.1392
 5866SOL     OW23195   4.680   5.203   0.156 -0.2269 -0.0216  0.1362
 5866SOL    HW223196   4.630   5.220   0.077 -0.1494  0.2791  0.1525
 5866SOL    HW323197   4.770   5.225   0.134 -0.1352 -0.3339  0.1813
 5866SOL    MW423198   4.685   5.208   0.143 -0.3857  0.2250  0.5563
 5867SOL     OW23199   3.507   6.128   3.979  0.6705  0.2798  0.0249
 5867SOL    HW223200   3.583   6.186   3.987  0.5516  0.4469 -0.0313
 5867SOL    HW323201   3.457   6.145   4.059  1.3117 -0.7482  0.6647
 5867SOL    MW423202   3.510   6.138   3.991 -0.0749  0.2751  0.1929
 5868SOL     OW23203   2.742   2.666   5.544  0.9969  0.3945  0.3046
 5868SOL    HW223204   2.813   2.602   5.539  1.0342  0.5224 -0.9551
 5868SOL    HW323205   2.734   2.685   5.638  1.4992 -0.8683  0.6245
 5868SOL    MW423206   2.750   2.660   5.556  0.0272 -0.1696  0.2228
 5869SOL     OW23207   4.980   3.821   0.260 -0.6223  0.8278  0.0997
 5869SOL    HW223208   4.961   3.808   0.353 -2.3531  1.7788 -0.0852
 5869SOL    HW323209   4.909   3.776   0.214 -0.6620  1.6910 -0.7182
 5869SOL    MW423210   4.968   3.814   0.266 -0.1580 -0.1618 -0.6539
 5870SOL     OW23211   1.123   1.331   1.312 -0.2437 -0.7407  0.1396
 5870SOL    HW223212   1.181   1.293   1.247  1.2555  0.8277  0.5114
 5870SOL    HW323213   1.041   1.347   1.265  0.3185 -1.0224 -0.9573
 5870SOL    MW423214   1.120   1.328   1.297 -0.4282  0.0308 -0.6472
 5871SOL     OW23215   4.472   0.065   1.444  0.1101 -0.4548 -0.0693
 5871SOL    HW223216   4.455   0.113   1.525 -1.6061  0.5557 -0.9902
 5871SOL    HW323217   4.527   0.124   1.393 -0.2719 -0.3463 -0.3550
 5871SOL    MW423218   4.477   0.079   1.448  0.3686  0.0383 -0.0297
 5872SOL     OW23219   1.063   2.549   2.736 -0.0102 -0.5672  0.4650
 5872SOL    HW223220   1.074   2.476   2.674  0.4955 -0.8405  0.8720
 5872SOL    HW323221   1.122   2.528   2.808 -0.9666 -0.5043  1.2761
 5872SOL    MW423222   1.072   2.537   2.737 -0.8928  0.4276  0.2683
 5873SOL     OW23223   5.465   1.882   4.441 -0.0821  0.4426  0.9317
 5873SOL    HW223224   5.371   1.866   4.450 -0.4999  2.6232  0.8524
 5873SOL    HW323225   5.492   1.823   4.370 -1.0728 -1.1757  1.8283
 5873SOL    MW423226   5.457   1.872   4.432 -0.2483  0.1146  0.1046
 5874SOL     OW23227   1.699   3.242   3.018 -0.2212  0.2299 -0.3832
 5874SOL    HW223228   1.686   3.302   3.092 -2.3052 -0.2188 -0.3264
 5874SOL    HW323229   1.661   3.287   2.943 -0.3028 -0.3177 -0.6799
 5874SOL    MW423230   1.692   3.256   3.018  0.3059 -0.0647  0.0035
 5875SOL     OW23231   3.042   1.602   2.382 -0.0343  0.1829  0.3246
 5875SOL    HW223232   2.993   1.563   2.454 -0.5552  1.2101  0.5315
 5875SOL    HW323233   3.129   1.561   2.388 -0.7784 -1.5586  0.0230
 5875SOL    MW423234   3.047   1.591   2.392 -0.0256 -0.2031  0.1637
 5876SOL     OW23235   6.016   1.449   2.316 -0.0193 -0.0849 -0.3012
 5876SOL    HW223236   6.022   1.507   2.392  0.6782 -0.9996  0.3638
 5876SOL    HW323237   6.030   1.362   2.351 -0.4024 -0.6052 -1.3841
 5876SOL    MW423238   6.019   1.445   2.330  0.5792  0.0247  0.4657
 5877SOL     OW23239   5.486   5.149   2.019  0.3345 -0.1199 -0.3601
 5877SOL    HW223240   5.563   5.143   2.076  1.0922 -0.0360 -1.3389
 5877SOL    HW323241   5.447   5.233   2.039 -1.3909 -1.4664  2.4367
 5877SOL    MW423242   5.491   5.159   2.029  0.1023  0.0202 -0.2327
 5878SOL     OW23243   4.133   5.112   1.581 -0.1510  0.5856 -0.0747
 5878SOL    HW223244   4.225   5.124   1.556 -0.4904  0.1900 -1.6181
 5878SOL    HW323245   4.089   5.192   1.551 -0.6901 -0.1904 -1.4059
 5878SOL    MW423246   4.140   5.124   1.574  0.1347 -0.2736  0.3859
 5879SOL     OW23247   1.471   3.656   5.978  0.3030  0.1499  0.0917
 5879SOL    HW223248   1.385   3.660   6.020 -0.6774 -1.9972 -1.5259
 5879SOL    HW323249   1.533   3.645   6.051 -1.1029 -1.1717  1.1609
 5879SOL    MW423250   1.468   3.655   5.993 -0.2925  0.6195 -0.3842
 5880SOL     OW23251   2.075   1.094   0.291  0.0838 -0.0956 -0.6323
 5880SOL    HW223252   2.010   1.106   0.221 -0.0357 -1.3253 -0.7564
 5880SOL    HW323253   2.027   1.109   0.372 -0.5612 -1.6200 -0.6887
 5880SOL    MW423254   2.060   1.097   0.292  0.6802 -0.1994  0.4587
 5881SOL     OW23255   6.216   0.012   2.715  0.8894 -0.7357 -0.2499
 5881SOL    HW223256   6.144   0.068   2.687  0.3533 -1.9192 -1.3413
 5881SOL    HW323257   6.235   0.039   2.805 -1.1184 -0.6158  0.1713
 5881SOL    MW423258   6.209   0.023   2.723  0.1195 -0.1139 -0.4564
 5882SOL     OW23259   2.125   5.321   6.092  0.2683  0.3312  0.7739
 5882SOL    HW223260   2.183   5.249   6.114  0.1265 -0.4871 -1.2848
 5882SOL    HW323261   2.178   5.379   6.038 -0.4233  0.2532 -0.0148
 5882SOL    MW423262   2.139   5.319   6.088 -0.2118 -0.0289  1.0256
 5883SOL     OW23263   4.713   1.975   2.341  0.1178 -0.5234 -0.4463
 5883SOL    HW223264   4.769   1.912   2.294  1.0486  0.6908 -1.0179
 5883SOL    HW323265   4.774   2.039   2.377 -0.8729  0.7824 -0.9963
 5883SOL    MW423266   4.729   1.975   2.339  0.0665 -0.1324  0.3975
 5884SOL     OW23267   4.360   2.539   5.215  0.5418  0.5757 -0.1643
 5884SOL    HW223268   4.448   2.536   5.180  0.1327 -0.7336 -1.1273
 5884SOL    HW323269   4.314   2.467   5.173 -0.4874  0.0752  1.7046
 5884SOL    MW423270   4.365   2.529   5.205 -0.0249  0.1043 -0.1340
 5885SOL     OW23271   2.848   6.019   6.233  0.2299  0.4624 -0.1588
 5885SOL    HW223272   2.867   5.967   6.155  1.8049 -1.5209  1.4409
 5885SOL    HW323273   2.933   6.052   6.261  0.2844 -1.5229  2.4235
 5885SOL    MW423274   2.862   6.017   6.227  0.0978 -0.0384 -0.0288
 5886SOL     OW23275   4.341   3.101   2.659 -0.5606 -0.1705  0.2530
 5886SOL    HW223276   4.287   3.056   2.724 -2.9891  1.0391 -0.8101
 5886SOL    HW323277   4.374   3.030   2.604 -0.7460 -0.9787  1.1401
 5886SOL    MW423278   4.339   3.086   2.660 -0.2450  0.1413 -0.2501
 5887SOL     OW23279   1.083   0.880   5.248 -0.9602 -0.6564  0.2259
 5887SOL    HW223280   1.004   0.847   5.291 -0.7513  0.4308  1.5053
 5887SOL    HW323281   1.139   0.802   5.238 -1.4232 -1.1030  1.0359
 5887SOL    MW423282   1.080   0.865   5.252  0.2661 -0.2462  0.8135
 5888SOL     OW23283   5.945   2.758   6.145  0.3894  0.3092 -0.1416
 5888SOL    HW223284   6.004   2.824   6.181  2.3716 -1.2266 -0.3769
 5888SOL    HW323285   5.880   2.744   6.213  1.1562  0.9981  0.7613
 5888SOL    MW423286   5.944   2.765   6.158  0.3599 -0.3069  0.4376
 5889SOL     OW23287   3.051   4.255   4.052  0.0379  0.2799 -0.0838
 5889SOL    HW223288   3.034   4.260   3.958  0.2010 -0.7174 -0.1764
 5889SOL    HW323289   3.101   4.334   4.072 -1.1159  1.1702 -0.5821
 5889SOL    MW423290   3.055   4.266   4.042 -0.5047  0.0963 -0.1460
 5890SOL     OW23291   2.119   1.370   2.130 -0.0899  0.6473  0.0422
 5890SOL    HW223292   2.031   1.332   2.142  0.9572 -1.6378  1.2866
 5890SOL    HW323293   2.150   1.385   2.220  0.6320  1.8493 -0.3951
 5890SOL    MW423294   2.111   1.367   2.144  0.4443 -0.2642 -0.1927
 5891SOL     OW23295   5.701   5.529   1.759  0.2858  0.2238 -0.1773
 5891SOL    HW223296   5.702   5.470   1.683  0.7673  1.6369 -1.3196
 5891SOL    HW323297   5.788   5.518   1.799 -0.4136 -1.4802  0.9966
 5891SOL    MW423298   5.713   5.520   1.754 -0.3996 -0.1978 -0.3906
 5892SOL     OW23299   2.145   1.872   1.523 -0.0600  0.3782 -0.4614
 5892SOL    HW223300   2.142   1.813   1.598 -1.5380 -0.9372 -1.4956
 5892SOL    HW323301   2.081   1.940   1.543  2.4116  2.4170  1.2342
 5892SOL    MW423302   2.136   1.873   1.536 -0.6481 -0.4745  0.3757
 5893SOL     OW23303   0.882   1.799   0.571  0.3502  0.3174 -0.1359
 5893SOL    HW223304   0.796   1.829   0.600 -1.7811 -2.0907 -3.3204
 5893SOL    HW323305   0.907   1.733   0.634 -1.0868 -0.3039 -0.1732
 5893SOL    MW423306   0.874   1.794   0.583 -0.3655  0.6728  0.2749
 5894SOL     OW23307   2.660   0.419   3.227  0.0478  0.0732  0.3249
 5894SOL    HW223308   2.571   0.384   3.225  0.3778 -0.8171  0.8113
 5894SOL    HW323309   2.705   0.373   3.156  0.5754 -0.7551  1.1837
 5894SOL    MW423310   2.654   0.408   3.217  0.3124  0.1887 -0.0975
 5895SOL     OW23311   4.848   0.299   0.114 -0.0229  0.4857 -0.8773
 5895SOL    HW223312   4.817   0.247   0.039 -1.4395 -0.5351  0.3437
 5895SOL    HW323313   4.863   0.386   0.079  0.2436 -0.1942 -2.5363
 5895SOL    MW423314   4.846   0.303   0.100  0.0915  0.7355  0.0201
 5896SOL     OW23315   2.977   4.724   4.128 -0.5332 -0.0181 -0.2114
 5896SOL    HW223316   2.946   4.785   4.195 -1.1831  0.3302 -0.8200
 5896SOL    HW323317   2.919   4.648   4.136 -1.5971  0.6489 -1.3758
 5896SOL    MW423318   2.966   4.722   4.138 -0.0189 -0.0357 -0.0337
 5897SOL     OW23319   3.947   2.382   4.581  0.2087  0.0165 -0.1486
 5897SOL    HW223320   3.979   2.433   4.656  0.4597  0.5874 -0.6362
 5897SOL    HW323321   3.951   2.443   4.507  0.1333 -0.5957 -0.6649
 5897SOL    MW423322   3.952   2.397   4.581  0.2357  0.0617  0.2660
 5898SOL     OW23323   0.198   3.229   2.359 -0.8488  0.1142 -0.5156
 5898SOL    HW223324   0.174   3.137   2.354  0.8500 -0.3583 -0.5207
 5898SOL    HW323325   0.139   3.266   2.425 -1.3550 -1.0166 -0.3137
 5898SOL    MW423326   0.187   3.222   2.367  0.0338 -0.0592  0.5427
 5899SOL     OW23327   3.881   1.426   0.748 -0.5374 -0.2308 -0.0740
 5899SOL    HW223328   3.851   1.517   0.746 -0.3852 -0.1875 -0.6084
 5899SOL    HW323329   3.974   1.431   0.729 -0.3563 -0.4344  0.7432
 5899SOL    MW423330   3.889   1.439   0.745 -0.3167  0.2970 -0.6190
 5900SOL     OW23331   0.093   5.945   3.699  0.1493 -0.6324 -0.2987
 5900SOL    HW223332   0.138   5.994   3.768  0.8300 -1.8216  0.1227
 5900SOL    HW323333   0.028   5.892   3.746  1.5735 -2.5339 -0.3541
 5900SOL    MW423334   0.090   5.945   3.715 -0.1592 -0.2980  0.1125
 5901SOL     OW23335   4.892   1.010   4.017  0.6008  0.7818 -0.0904
 5901SOL    HW223336   4.908   1.093   3.971 -0.7406  1.8954  1.3204
 5901SOL    HW323337   4.797   1.001   4.016  0.5733  0.5097  1.8391
 5901SOL    MW423338   4.882   1.020   4.011  0.0078  0.0451  0.1629
 5902SOL     OW23339   6.246   3.383   1.720 -0.4762 -0.2654 -0.5002
 5902SOL    HW223340   6.312   3.314   1.730 -1.2867 -0.8419  1.3967
 5902SOL    HW323341   6.236   3.418   1.809  0.4937  2.9141 -1.5136
 5902SOL    MW423342   6.254   3.378   1.733 -1.0182 -0.0709 -0.1404
 5903SOL     OW23343   3.887   0.578   2.217  0.7818 -0.6162  0.7050
 5903SOL    HW223344   3.823   0.624   2.272 -0.1624 -0.9462 -0.1040
 5903SOL    HW323345   3.971   0.590   2.264 -0.2972 -2.9154  3.5560
 5903SOL    MW423346   3.890   0.586   2.231  0.1290  0.4462  0.3418
 5904SOL     OW23347   3.720   3.807   1.307  0.1665  0.4980 -0.1369
 5904SOL    HW223348   3.691   3.716   1.298 -0.0979  0.6014 -0.3388
 5904SOL    HW323349   3.648   3.852   1.351 -0.9357  1.2256 -2.5322
 5904SOL    MW423350   3.707   3.801   1.312 -0.8457 -0.3575 -0.2188
 5905SOL     OW23351   4.002   4.162   2.881 -0.2266  0.0709  0.2831
 5905SOL    HW223352   3.931   4.105   2.910 -1.0572  1.0434  0.2159
 5905SOL    HW323353   4.027   4.211   2.959  0.0987  0.0148  0.2142
 5905SOL    MW423354   3.996   4.161   2.895  0.4858  1.0341  0.2101
 5906SOL     OW23355   6.163   2.397   2.806  0.5869 -0.1237 -0.5570
 5906SOL    HW223356   6.201   2.310   2.820  0.1562 -0.2032  0.1683
 5906SOL    HW323357   6.178   2.415   2.713 -0.7730 -1.6768 -1.1262
 5906SOL    MW423358   6.170   2.388   2.795  0.6501  0.2984  0.1026
 5907SOL     OW23359   1.127   6.316   4.357 -0.0485 -0.2381  0.2221
 5907SOL    HW223360   1.041   6.274   4.358  0.0442 -0.4380  1.7122
 5907SOL    HW323361   1.136   6.348   4.267 -1.4292 -0.7087 -0.1208
 5907SOL    MW423362   1.117   6.315   4.345 -0.0514 -0.5943 -0.3174
 5908SOL     OW23363   3.306   0.183   4.192 -0.5066  0.2238  0.3432
 5908SOL    HW223364   3.340   0.115   4.250  1.1650 -1.1093 -1.9768
 5908SOL    HW323365   3.375   0.249   4.190 -0.5401  0.2531 -0.0715
 5908SOL    MW423366   3.320   0.183   4.199 -0.2884  0.2112  0.0075
 5909SOL     OW23367   1.928   5.027   3.724  0.1209 -0.0632 -0.4127
 5909SOL    HW223368   1.988   4.970   3.677  2.3555  0.1644  1.9778
 5909SOL    HW323369   1.926   5.107   3.673 -0.2514 -0.9812 -1.9038
 5909SOL    MW423370   1.935   5.030   3.711 -0.2673  0.3589 -0.0920
 5910SOL     OW23371   2.001   4.700   5.667  0.6219  0.1330 -0.2064
 5910SOL    HW223372   2.024   4.611   5.694 -1.3688  0.4218  2.9486
 5910SOL    HW323373   1.924   4.689   5.612  2.6676 -0.2217 -3.2360
 5910SOL    MW423374   1.994   4.687   5.664  0.4501 -0.1715 -0.0910
 5911SOL     OW23375   3.548   6.349   2.621 -0.3485  0.4790 -0.3839
 5911SOL    HW223376   3.617   6.283   2.611  0.4557  1.3128 -0.4513
 5911SOL    HW323377   3.592   6.425   2.659 -1.1044  1.2413 -0.9866
 5911SOL    MW423378   3.563   6.350   2.625 -0.0367  0.0882 -0.0033
 5912SOL     OW23379   1.555   3.204   2.731 -0.4140  1.3216 -0.1600
 5912SOL    HW223380   1.523   3.255   2.656  0.7871  1.5635 -0.5241
 5912SOL    HW323381   1.493   3.224   2.801 -1.1671  1.6241 -0.8882
 5912SOL    MW423382   1.542   3.213   2.730  0.4097 -0.7950  0.6098
 5913SOL     OW23383   0.258   0.281   4.654 -0.4070 -0.4194  0.3306
 5913SOL    HW223384   0.227   0.335   4.581  0.5934 -0.3340 -0.0458
 5913SOL    HW323385   0.295   0.204   4.612 -0.8026 -0.8732  0.8103
 5913SOL    MW423386   0.258   0.278   4.639 -0.4589 -0.3285 -0.3559
 5914SOL     OW23387   5.870   5.770   2.599  0.2708 -0.4571  0.0504
 5914SOL    HW223388   5.790   5.820   2.616  0.6788 -0.4359  2.1322
 5914SOL    HW323389   5.881   5.715   2.677  1.1439 -2.0481 -1.1391
 5914SOL    MW423390   5.861   5.769   2.612 -0.0445  0.1443 -0.3863
 5915SOL     OW23391   0.735   5.154   0.071 -0.0012  0.1373 -0.3546
 5915SOL    HW223392   0.821   5.117   0.053  0.6362  1.3216  0.1456
 5915SOL    HW323393   0.674   5.099   0.021  1.1920  0.2468 -2.0248
 5915SOL    MW423394   0.738   5.142   0.062 -0.5329 -0.4059  0.2838
 5916SOL     OW23395   3.382   5.213   0.027 -0.0875 -0.2832  0.2437
 5916SOL    HW223396   3.288   5.213   0.011  0.0806 -0.6439 -0.8500
 5916SOL    HW323397   3.398   5.135   0.079 -0.0576 -1.8526 -1.9793
 5916SOL    MW423398   3.372   5.203   0.032  0.3390 -0.1076 -0.1183
 5917SOL     OW23399   6.433   0.595   1.142  0.1145 -0.0477 -0.2312
 5917SOL    HW223400   6.487   0.622   1.216 -0.7162 -0.9717  0.7434
 5917SOL    HW323401   6.353   0.561   1.183  0.3336 -2.1758 -1.4865
 5917SOL    MW423402   6.429   0.594   1.158  0.1196 -0.1734 -0.4064
 5918SOL     OW23403   2.917   0.756   3.566 -0.6560 -0.3861 -0.5069
 5918SOL    HW223404   2.876   0.682   3.523  1.2920 -2.0513  0.3427
 5918SOL    HW323405   2.855   0.781   3.635 -0.1689 -3.1808  1.1143
 5918SOL    MW423406   2.903   0.750   3.570 -0.4164  0.2363 -0.7414
 5919SOL     OW23407   1.876   6.362   3.974 -0.0860  0.2265  0.0261
 5919SOL    HW223408   1.918   6.289   3.929  1.8120  1.0994  0.2967
 5919SOL    HW323409   1.859   6.329   4.062 -0.6026 -0.3541 -0.2837
 5919SOL    MW423410   1.879   6.348   3.979 -0.1978  0.6561 -0.1462
 5920SOL     OW23411   1.950   0.173   3.306  0.9237 -0.1532 -0.3921
 5920SOL    HW223412   1.902   0.255   3.321  2.7858  0.8491  0.4673
 5920SOL    HW323413   1.991   0.184   3.221  3.5692  1.1600  0.9392
 5920SOL    MW423414   1.949   0.185   3.297  0.8660 -0.1219 -0.3441
 5921SOL     OW23415   4.248   5.294   4.423 -0.2621 -0.1041  0.4830
 5921SOL    HW223416   4.244   5.207   4.465 -0.1100 -0.7580 -0.8155
 5921SOL    HW323417   4.191   5.349   4.477 -0.4724 -1.0396  1.2475
 5921SOL    MW423418   4.240   5.290   4.436  0.3242  0.8327  0.1719
 5922SOL     OW23419   3.113   0.951   4.796  0.2421  0.3821 -0.0196
 5922SOL    HW223420   3.156   0.867   4.812 -0.3023  0.3444  1.4519
 5922SOL    HW323421   3.167   1.014   4.843 -1.0825  0.3658  1.6476
 5922SOL    MW423422   3.126   0.948   4.805  0.3922  0.6038  0.1449
 5923SOL     OW23423   6.431   1.875   1.924  0.0552 -0.0052 -0.2118
 5923SOL    HW223424   6.409   1.811   1.992 -0.4839  1.5813  1.1560
 5923SOL    HW323425   6.521   1.853   1.899  0.4353 -0.3455  1.3528
 5923SOL    MW423426   6.440   1.863   1.929  0.0781 -0.1879 -0.3635
 5924SOL     OW23427   4.872   1.951   1.575  0.4992 -0.0016  0.4623
 5924SOL    HW223428   4.837   1.900   1.648 -0.2024 -1.8778 -1.0782
 5924SOL    HW323429   4.919   1.887   1.521 -1.1524  0.7242 -2.0159
 5924SOL    MW423430   4.873   1.935   1.577 -0.0813  0.5319  0.7960
 5925SOL     OW23431   5.410   0.405   5.513  0.1927 -0.2733 -0.5836
 5925SOL    HW223432   5.392   0.318   5.477  0.0772 -0.3039 -0.4504
 5925SOL    HW323433   5.441   0.456   5.438 -1.2422  0.0295 -0.9998
 5925SOL    MW423434   5.412   0.401   5.498 -0.2940 -0.7204 -0.6081
 5926SOL     OW23435   4.924   2.659   5.371  0.3654 -0.0574  0.0215
 5926SOL    HW223436   4.952   2.663   5.280  1.3880  1.0456  0.3567
 5926SOL    HW323437   4.896   2.748   5.392 -0.8780 -0.5373  0.4922
 5926SOL    MW423438   4.924   2.671   5.362 -0.3155  0.3219 -0.3962
 5927SOL     OW23439   3.321   1.474   0.247  0.9215  0.2817  0.7898
 5927SOL    HW223440   3.315   1.542   0.314  0.3361  0.1368  0.8881
 5927SOL    HW323441   3.362   1.518   0.172 -0.9693  1.2325  0.2436
 5927SOL    MW423442   3.325   1.489   0.246 -0.0924  0.2732 -0.2550
 5928SOL     OW23443   0.297   6.225   2.550 -0.2557  0.3669  0.1753
 5928SOL    HW223444   0.322   6.160   2.616 -0.4705  0.7072  0.5906
 5928SOL    HW323445   0.355   6.207   2.476 -0.7526 -0.7406  0.0200
 5928SOL    MW423446   0.308   6.214   2.549  0.6306 -0.6358 -0.0560
 5929SOL     OW23447   1.265   3.102   5.885  0.5392  0.2680 -0.1100
 5929SOL    HW223448   1.215   3.144   5.955  2.2457  0.4696  1.0578
 5929SOL    HW323449   1.293   3.174   5.829  0.7833  0.3432  0.1035
 5929SOL    MW423450   1.262   3.117   5.887 -0.4541 -0.1642  0.3039
 5930SOL     OW23451   3.981   2.713   2.118  0.4078 -0.3411  0.8577
 5930SOL    HW223452   3.890   2.739   2.132 -0.1865 -1.9098  0.2226
 5930SOL    HW323453   3.975   2.641   2.055  1.8694 -2.1750  2.6741
 5930SOL    MW423454   3.968   2.707   2.111  0.7717 -0.4967 -0.6125
 5931SOL     OW23455   1.489   4.790   0.374  0.4682 -0.2536 -0.2676
 5931SOL    HW223456   1.496   4.884   0.392  0.6419 -0.1738 -0.7420
 5931SOL    HW323457   1.466   4.785   0.281 -0.8487 -0.6417  0.0497
 5931SOL    MW423458   1.487   4.802   0.364 -0.2037  0.5236  0.2955
 5932SOL     OW23459   5.287   5.188   1.464  0.3040  0.4439  0.2369
 5932SOL    HW223460   5.332   5.242   1.399 -1.1156  2.5778  0.9274
 5932SOL    HW323461   5.356   5.134   1.502  1.4340  0.2278 -1.9357
 5932SOL    MW423462   5.302   5.188   1.460  0.0843  0.7250  0.0480
 5933SOL     OW23463   3.858   1.875   2.512  0.5542 -0.3857 -0.1352
 5933SOL    HW223464   3.914   1.936   2.463 -0.3369 -1.8928 -3.3076
 5933SOL    HW323465   3.918   1.809   2.546  0.9677 -1.3704 -2.5544
 5933SOL    MW423466   3.873   1.875   2.510  0.1930 -0.5344 -0.0602
 5934SOL     OW23467   6.415   0.052   6.303 -0.6713 -0.3322 -0.0785
 5934SOL    HW223468   6.402   0.040   6.397  0.2945 -1.5335 -0.0635
 5934SOL    HW323469   6.329   0.075   6.269 -1.0059  0.2440  1.1186
 5934SOL    MW423470   6.402   0.053   6.311 -0.3853 -0.0336  0.1957
 5935SOL     OW23471   5.378   2.672   0.156 -0.3258 -1.0290 -0.2908
 5935SOL    HW223472   5.358   2.643   0.068 -0.6574  0.4439 -0.7202
 5935SOL    HW323473   5.348   2.600   0.213 -0.8631 -1.6285 -1.3118
 5935SOL    MW423474   5.372   2.659   0.152  0.0809  0.0020  0.4008
 5936SOL     OW23475   0.824   5.667   0.494  0.2793 -0.0170  0.5087
 5936SOL    HW223476   0.780   5.752   0.485  0.6298  0.1061 -0.1471
 5936SOL    HW323477   0.840   5.657   0.588 -2.5711 -0.8073  0.9924
 5936SOL    MW423478   0.821   5.677   0.505 -0.0656  0.3124  0.3520
 5937SOL     OW23479   1.458   0.807   1.766 -0.1816 -0.2395 -0.3809
 5937SOL    HW223480   1.405   0.816   1.687 -1.0860  0.4170  0.2730
 5937SOL    HW323481   1.467   0.713   1.778 -2.1952 -0.4335  0.0814
 5937SOL    MW423482   1.452   0.796   1.757 -0.4268 -0.0731  0.4556
 5938SOL     OW23483   4.911   4.400   4.254  0.0222  0.2314 -0.1483
 5938SOL    HW223484   4.950   4.315   4.234  1.1259  0.9037 -1.0293
 5938SOL    HW323485   4.954   4.429   4.334 -0.5716 -0.1622  0.3175
 5938SOL    MW423486   4.922   4.393   4.262 -0.2715 -0.4225  0.0984
 5939SOL     OW23487   6.412   5.565   0.815 -0.0632 -0.2716 -0.2528
 5939SOL    HW223488   6.373   5.533   0.734 -0.8123  0.2969 -0.1241
 5939SOL    HW323489   6.496   5.602   0.787 -0.9924  1.3686 -1.0475
 5939SOL    MW423490   6.418   5.565   0.800 -0.1027  0.2156 -0.1595
 5940SOL     OW23491   4.651   0.139   5.991 -0.5622  0.2280 -0.1046
 5940SOL    HW223492   4.699   0.062   6.021  0.9371  0.5691 -1.4803
 5940SOL    HW323493   4.691   0.212   6.039 -1.1822  0.3107  0.3118
 5940SOL    MW423494   4.663   0.139   6.002  0.1466  0.1935  0.2148
 5941SOL     OW23495   1.632   5.047   2.525  0.9102 -0.3622 -0.1556
 5941SOL    HW223496   1.547   5.059   2.568  0.1540 -1.5979 -1.2232
 5941SOL    HW323497   1.627   5.102   2.447  0.5736 -1.4031 -0.8828
 5941SOL    MW423498   1.620   5.056   2.521 -0.1739 -0.8926 -0.6808
 5942SOL     OW23499   1.771   4.941   5.715  0.5427  0.3395  0.0611
 5942SOL    HW223500   1.731   4.874   5.771  1.9537 -0.4338  0.2099
 5942SOL    HW323501   1.737   4.922   5.627 -0.2221  0.3729  0.3427
 5942SOL    MW423502   1.761   4.930   5.711  0.0019  0.0459 -0.2561
 5943SOL     OW23503   1.795   5.693   6.083  0.2161  0.3908  0.0555
 5943SOL    HW223504   1.811   5.733   6.169  1.5971 -0.2610  0.1133
 5943SOL    HW323505   1.821   5.602   6.094  0.2839  0.2764 -1.0248
 5943SOL    MW423506   1.800   5.687   6.096 -0.0165  0.9881 -0.0424
 5944SOL     OW23507   3.587   5.609   4.823 -0.3119 -0.5106  0.0546
 5944SOL    HW223508   3.619   5.665   4.752  0.9354 -2.1842 -0.7736
 5944SOL    HW323509   3.634   5.639   4.901 -0.7998  0.5714 -0.0580
 5944SOL    MW423510   3.598   5.620   4.824 -1.2659 -0.4426 -0.0740
 5945SOL     OW23511   0.129   0.680   1.381  0.9006  0.0397 -0.5645
 5945SOL    HW223512   0.087   0.666   1.466  0.1596  0.0531 -0.9195
 5945SOL    HW323513   0.213   0.636   1.388  1.7578  1.7671  0.8904
 5945SOL    MW423514   0.134   0.673   1.393 -0.3140 -0.0313  0.1892
 5946SOL     OW23515   2.232   2.998   5.394  0.0813  0.6915  0.2430
 5946SOL    HW223516   2.262   2.917   5.436 -0.0243  0.9778  0.8923
 5946SOL    HW323517   2.165   3.031   5.454  0.2568  1.3523  0.0733
 5946SOL    MW423518   2.227   2.991   5.407 -0.1510 -0.1747  0.0996
 5947SOL     OW23519   0.716   2.507   4.488 -0.6747 -0.5741  0.3700
 5947SOL    HW223520   0.781   2.451   4.445 -1.4594 -0.6324 -0.7773
 5947SOL    HW323521   0.692   2.460   4.567  2.0314  0.3085  1.8391
 5947SOL    MW423522   0.721   2.494   4.493  0.5715 -0.4782  0.0666
 5948SOL     OW23523   5.018   0.641   1.362 -0.0803  0.3602 -0.0985
 5948SOL    HW223524   5.062   0.698   1.299 -0.5336  0.2082 -0.5549
 5948SOL    HW323525   5.020   0.690   1.444 -1.3745  1.4766 -0.7125
 5948SOL    MW423526   5.024   0.655   1.365 -0.0642  0.2383 -0.4435
 5949SOL     OW23527   5.972   5.758   5.850 -0.0058 -0.4297  0.1343
 5949SOL    HW223528   5.925   5.682   5.816 -0.4058  0.0827 -0.4755
 5949SOL    HW323529   5.981   5.817   5.775  0.9323 -0.1752  0.4235
 5949SOL    MW423530   5.967   5.756   5.836 -0.0927  0.0782 -0.0989
 5950SOL     OW23531   5.071   3.573   3.415 -1.0003  1.0517 -0.1071
 5950SOL    HW223532   5.023   3.653   3.435  0.6675  1.4575  2.7287
 5950SOL    HW323533   5.020   3.503   3.455 -1.3524  0.9148 -0.7656
 5950SOL    MW423534   5.058   3.574   3.423  0.1411  0.1188  0.1585
 5951SOL     OW23535   1.365   6.050   0.611  0.3326 -0.2092  0.1659
 5951SOL    HW223536   1.444   6.082   0.568 -0.7847 -0.9220 -2.6457
 5951SOL    HW323537   1.310   6.128   0.621  0.4402 -0.0984 -0.0885
 5951SOL    MW423538   1.368   6.064   0.607 -0.0412 -0.4054  0.5192
 5952SOL     OW23539   3.152   4.447   3.489  0.3115  0.2016 -0.3654
 5952SOL    HW223540   3.181   4.356   3.482  1.0215  0.3245  0.7563
 5952SOL    HW323541   3.064   4.441   3.526  1.0850  0.0063  1.5591
 5952SOL    MW423542   3.144   4.434   3.493 -0.3280 -0.2426 -0.6759
 5953SOL     OW23543   2.364   0.576   0.022  0.7980  0.3033 -0.6842
 5953SOL    HW223544   2.286   0.605  -0.025 -0.1503 -0.0624  0.5958
 5953SOL    HW323545   2.409   0.657   0.046 -0.1981  0.6356  0.1748
 5953SOL    MW423546   2.360   0.590   0.019  0.4741  0.2429  0.7609
 5954SOL     OW23547   0.686   6.015   5.535  0.2094  1.0475  0.1627
 5954SOL    HW223548   0.725   5.943   5.584  0.4024 -0.2449 -1.7994
 5954SOL    HW323549   0.591   6.004   5.546  0.2586  1.0427  0.5933
 5954SOL    MW423550   0.678   6.004   5.543  0.0346  0.2562  0.0274
 5955SOL     OW23551   4.984   4.137   4.204 -0.3869  0.1087  0.6208
 5955SOL    HW223552   5.072   4.109   4.230 -1.0312 -1.5116  1.1660
 5955SOL    HW323553   4.970   4.096   4.119 -0.6687  0.2583  0.5924
 5955SOL    MW423554   4.994   4.128   4.196  0.2473  0.3968 -0.7994
 5956SOL     OW23555   0.914   3.021   0.355  0.1137 -0.8242  0.1002
 5956SOL    HW223556   0.886   3.004   0.265  1.4188 -2.7480 -0.0087
 5956SOL    HW323557   0.843   2.985   0.409  1.0189 -3.2847 -0.1919
 5956SOL    MW423558   0.901   3.014   0.350  0.0431 -0.1476 -0.4085
 5957SOL     OW23559   3.959   5.312   1.284 -0.5090 -0.7762 -0.1199
 5957SOL    HW223560   4.052   5.330   1.297 -0.8153  0.3454  0.6712
 5957SOL    HW323561   3.943   5.335   1.192  0.2765 -2.4024 -0.7053
 5957SOL    MW423562   3.969   5.317   1.274  0.3720  0.4120  0.2434
 5958SOL     OW23563   5.758   1.064   0.819 -0.2672 -0.4314 -0.4552
 5958SOL    HW223564   5.837   1.112   0.795 -0.7843  0.8939  0.4108
 5958SOL    HW323565   5.705   1.065   0.740 -0.4140  0.7446 -0.3574
 5958SOL    MW423566   5.762   1.071   0.805  0.1003  0.4234 -0.0970
 5959SOL     OW23567   2.821   3.836   3.340  0.0082 -0.1879 -0.0131
 5959SOL    HW223568   2.878   3.778   3.390 -0.7866 -0.1032  1.0284
 5959SOL    HW323569   2.827   3.920   3.385  0.5907  0.3590 -1.0844
 5959SOL    MW423570   2.829   3.839   3.353  0.1178  0.8447  0.2691
 5960SOL     OW23571   5.536   3.204   1.732  0.3261  0.3801 -0.1210
 5960SOL    HW223572   5.613   3.147   1.740  0.1402  0.0997 -0.2867
 5960SOL    HW323573   5.534   3.254   1.813  1.7228  1.7167 -0.8525
 5960SOL    MW423574   5.546   3.203   1.744  0.0443  0.5391 -0.1077
 5961SOL     OW23575   2.086   0.437   3.544 -0.2835  0.2353 -0.2212
 5961SOL    HW223576   2.129   0.523   3.547 -0.8439  0.5118  0.0181
 5961SOL    HW323577   1.998   0.453   3.578  0.1498 -0.7693  1.4608
 5961SOL    MW423578   2.080   0.450   3.549  0.1291  0.0201 -0.7467
 5962SOL     OW23579   5.279   3.360   1.352 -0.0782 -0.0365 -0.3074
 5962SOL    HW223580   5.302   3.450   1.327  1.5523 -0.7866 -1.7501
 5962SOL    HW323581   5.354   3.330   1.404  0.3569 -1.1789 -1.5390
 5962SOL    MW423582   5.292   3.368   1.355 -0.3642  0.1594 -0.2697
 5963SOL     OW23583   1.164   0.020   3.150  0.2081  0.7836  0.2288
 5963SOL    HW223584   1.119   0.102   3.135  0.0499  0.9534  1.5189
 5963SOL    HW323585   1.116  -0.044   3.097 -0.5040  1.2699  0.2728
 5963SOL    MW423586   1.152   0.022   3.141 -0.4772 -1.0051 -0.0573
 5964SOL     OW23587   2.871   1.440   5.723 -0.4045 -0.1874 -0.3482
 5964SOL    HW223588   2.797   1.387   5.693  0.6832 -1.7052 -0.4018
 5964SOL    HW323589   2.836   1.490   5.797 -2.9063  2.9334 -3.2781
 5964SOL    MW423590   2.856   1.440   5.729 -0.0796 -0.0126 -0.3108
 5965SOL     OW23591   3.947   0.138   1.515  0.2988  0.2501  0.7913
 5965SOL    HW223592   3.991   0.195   1.452  2.0971 -0.9129  0.9240
 5965SOL    HW323593   4.011   0.128   1.586 -0.5597 -0.7717  1.4406
 5965SOL    MW423594   3.961   0.144   1.516  0.0948  0.2938 -0.5061
 5966SOL     OW23595   5.264   4.889   0.385 -0.0020  0.0542  0.8938
 5966SOL    HW223596   5.257   4.800   0.354  1.9233 -0.4781  1.7796
 5966SOL    HW323597   5.315   4.935   0.318  2.4225 -0.5906  2.1574
 5966SOL    MW423598   5.270   4.884   0.372 -0.2738  0.1448 -0.2634
 5967SOL     OW23599   5.473   1.069   5.747 -0.2492  0.5218  0.1979
 5967SOL    HW223600   5.389   1.100   5.715 -0.2368 -0.2261 -0.6171
 5967SOL    HW323601   5.537   1.126   5.704 -0.2824  0.1707 -0.3311
 5967SOL    MW423602   5.471   1.081   5.737 -0.2955 -0.8177 -0.5242
 5968SOL     OW23603   1.572   5.716   4.748  0.3345 -0.5631 -0.4330
 5968SOL    HW223604   1.647   5.681   4.795  1.8360 -0.6134 -2.6911
 5968SOL    HW323605   1.607   5.792   4.701 -1.8835  1.5793  1.1555
 5968SOL    MW423606   1.587   5.722   4.748  0.2044 -0.5457 -0.2038
 5969SOL     OW23607   0.078   5.867   0.442 -0.1103 -0.7929 -0.7531
 5969SOL    HW223608  -0.009   5.868   0.402 -0.3404 -1.5828 -0.3027
 5969SOL    HW323609   0.063   5.886   0.534  0.1590 -1.1656 -0.6276
 5969SOL    MW423610   0.064   5.869   0.449  0.3934  0.2129 -0.3433
 5970SOL     OW23611   1.356   1.570   6.376 -0.1914  0.1141 -0.0642
 5970SOL    HW223612   1.322   1.565   6.465 -1.5594  0.4507 -0.5461
 5970SOL    HW323613   1.294   1.520   6.324 -0.3204  1.2878 -1.0755
 5970SOL    MW423614   1.343   1.563   6.381  0.2461  0.2240 -0.8469
 5971SOL     OW23615   3.304   0.025   5.334 -0.1610 -0.3566  0.0243
 5971SOL    HW223616   3.323   0.098   5.394  0.3358  0.2257 -0.8312
 5971SOL    HW323617   3.209   0.014   5.340 -0.2055  0.1726  0.3738
 5971SOL    MW423618   3.294   0.033   5.343 -0.0611 -0.7781 -0.1822
 5972SOL     OW23619   4.142   1.966   5.107  0.4511 -0.4720 -0.5475
 5972SOL    HW223620   4.193   1.885   5.113  3.7927  1.4808 -0.3442
 5972SOL    HW323621   4.199   2.027   5.061 -1.4614  2.1545  0.3310
 5972SOL    MW423622   4.156   1.964   5.101  0.7136 -0.3273 -0.1446
 5973SOL     OW23623   5.194   5.003   4.043  0.3630 -0.3378 -0.1199
 5973SOL    HW223624   5.174   5.096   4.037 -0.2130 -0.4336  0.2317
 5973SOL    HW323625   5.264   4.989   3.980 -1.1394 -0.1161 -1.9088
 5973SOL    MW423626   5.201   5.013   4.034  0.3456  0.4737 -0.5546
 5974SOL     OW23627   5.276   5.685   2.513 -0.5879 -0.1697  0.6135
 5974SOL    HW223628   5.191   5.670   2.554 -1.5118  1.8020 -0.4378
 5974SOL    HW323629   5.265   5.767   2.464  1.5068 -0.5749 -0.6665
 5974SOL    MW423630   5.264   5.694   2.512 -0.1577  0.0140 -0.4751
 5975SOL     OW23631   5.550   4.746   4.025  0.2228  0.1685 -0.0420
 5975SOL    HW223632   5.571   4.816   4.087  0.8794  0.3372 -0.4432
 5975SOL    HW323633   5.524   4.792   3.945 -0.3185 -0.0474  0.0051
 5975SOL    MW423634   5.550   4.762   4.022 -0.3614 -0.7554  0.3028
 5976SOL     OW23635   5.718   1.214   5.740 -0.1229 -0.6109  0.4840
 5976SOL    HW223636   5.788   1.149   5.745  0.6948  0.2213  0.0352
 5976SOL    HW323637   5.761   1.293   5.709 -0.7801  0.6272  2.5390
 5976SOL    MW423638   5.733   1.216   5.737  0.5625 -0.1361  0.2349
 5977SOL     OW23639   4.807   5.226   2.587 -0.2857 -0.4407  0.1146
 5977SOL    HW223640   4.826   5.138   2.618 -0.9767 -0.4772  0.4319
 5977SOL    HW323641   4.798   5.216   2.492  0.5289 -0.5506  0.0413
 5977SOL    MW423642   4.808   5.213   2.579 -0.1256 -0.1014 -0.1927
 5978SOL     OW23643   2.989   3.673   4.059  0.4249 -0.5266 -0.2119
 5978SOL    HW223644   2.937   3.597   4.031  0.7905 -0.9895  0.3491
 5978SOL    HW323645   2.990   3.667   4.154 -1.7408  1.6484  0.0460
 5978SOL    MW423646   2.982   3.662   4.068 -1.0265 -0.5458  0.7987
 5979SOL     OW23647   0.533   0.995   2.448 -0.6215  0.3370 -0.2568
 5979SOL    HW223648   0.544   0.952   2.533  0.4249  0.3478 -0.3706
 5979SOL    HW323649   0.511   1.085   2.470 -3.9077 -0.4127 -0.0100
 5979SOL    MW423650   0.532   1.001   2.462  0.3649  0.3461 -0.0296
 5980SOL     OW23651   1.816   1.821   1.874  0.2093  0.4609 -0.2222
 5980SOL    HW223652   1.802   1.739   1.921 -2.0576  1.4037  0.9310
 5980SOL    HW323653   1.761   1.814   1.796  0.1395  0.8098 -0.2059
 5980SOL    MW423654   1.807   1.809   1.870 -0.2588 -0.9295 -0.4146
 5981SOL     OW23655   5.389   3.065   5.791  0.7472  0.0997  0.0951
 5981SOL    HW223656   5.374   3.147   5.745  1.4284  0.0101 -0.2955
 5981SOL    HW323657   5.347   3.077   5.876  0.2233  0.5812 -0.2310
 5981SOL    MW423658   5.382   3.078   5.796 -0.4684  0.7911  0.4829
 5982SOL     OW23659   2.273   5.069   5.843  0.4292  0.1843  0.4636
 5982SOL    HW223660   2.337   5.001   5.820 -0.1857 -0.7885  1.4866
 5982SOL    HW323661   2.192   5.020   5.859 -0.5003  1.3515 -0.4459
 5982SOL    MW423662   2.270   5.053   5.842 -0.2997 -0.0542 -0.2253
 5983SOL     OW23663   1.465   0.409   1.287 -0.0315  0.0398  0.0405
 5983SOL    HW223664   1.490   0.498   1.315 -0.0758 -0.4934  1.9316
 5983SOL    HW323665   1.548   0.366   1.267 -0.0095  0.4906 -0.8814
 5983SOL    MW423666   1.479   0.415   1.288 -0.0715 -0.0649 -0.3175
 5984SOL     OW23667   5.015   1.243   1.666  0.2522 -0.6222 -0.1702
 5984SOL    HW223668   4.988   1.157   1.699 -0.2239 -1.3192 -2.2288
 5984SOL    HW323669   4.959   1.305   1.714 -1.8610 -1.7256 -1.0638
 5984SOL    MW423670   5.004   1.240   1.677  0.2023 -0.0419 -0.5272
 5985SOL     OW23671   5.073   3.969   3.278  0.1106 -0.0841 -0.9140
 5985SOL    HW223672   5.118   3.914   3.215  0.4867 -1.8278  0.7756
 5985SOL    HW323673   5.140   3.992   3.343 -0.6525  0.1064 -0.1595
 5985SOL    MW423674   5.088   3.965   3.279 -0.7923  0.1614 -0.4253
 5986SOL     OW23675   0.574   5.460   5.849 -0.0977  0.1031 -0.2004
 5986SOL    HW223676   0.532   5.401   5.786  2.2847 -1.9973  0.0270
 5986SOL    HW323677   0.518   5.537   5.850 -1.6352 -0.8277 -2.9528
 5986SOL    MW423678   0.561   5.462   5.840  0.5431  0.2614 -0.1978
 5987SOL     OW23679   0.866   0.246   3.902  0.0100 -0.1115  0.5417
 5987SOL    HW223680   0.799   0.180   3.919  0.0949 -0.6842 -1.1697
 5987SOL    HW323681   0.946   0.210   3.942  0.3421 -1.6800 -1.4132
 5987SOL    MW423682   0.868   0.233   3.910 -0.2292  0.3415  0.1959
 5988SOL     OW23683   3.584   5.199   2.343 -0.2824 -0.3770  0.4768
 5988SOL    HW223684   3.665   5.231   2.304 -0.7344 -0.2161 -0.3467
 5988SOL    HW323685   3.540   5.278   2.374 -0.1279 -0.4664  0.9422
 5988SOL    MW423686   3.589   5.214   2.342  0.2861  0.6560 -0.1800
 5989SOL     OW23687   2.946   6.189   5.634  0.0847  0.1174 -0.2937
 5989SOL    HW223688   3.031   6.181   5.591  0.1110  0.8415 -0.3937
 5989SOL    HW323689   2.965   6.176   5.727  0.6847  2.3924 -0.0444
 5989SOL    MW423690   2.959   6.186   5.641 -0.1412 -0.1254 -0.2697
 5990SOL     OW23691   5.274   5.588   2.208 -0.4315  0.3271  0.4519
 5990SOL    HW223692   5.198   5.622   2.160 -0.3861  0.7809  0.6970
 5990SOL    HW323693   5.247   5.589   2.300 -0.8125 -1.3043  0.3822
 5990SOL    MW423694   5.260   5.593   2.214 -0.0334  0.5772  0.1588
 5991SOL     OW23695   4.884   4.382   0.717  0.0711  0.7104 -0.4729
 5991SOL    HW223696   4.953   4.422   0.664  1.2631 -0.3325  0.2672
 5991SOL    HW323697   4.831   4.333   0.654 -0.0966  1.6195 -1.0604
 5991SOL    MW423698   4.886   4.381   0.701 -0.7649 -0.0242 -0.6682
 5992SOL     OW23699   2.449   1.055   4.627  0.4694  0.2452 -0.6527
 5992SOL    HW223700   2.395   1.040   4.704  0.6145  0.6082 -0.4764
 5992SOL    HW323701   2.454   0.970   4.583 -0.2774  0.2143 -0.6929
 5992SOL    MW423702   2.443   1.042   4.631  0.1504 -0.2962 -0.1994
 5993SOL     OW23703   0.839   5.056   1.411  0.5565  0.0847  0.3455
 5993SOL    HW223704   0.829   5.051   1.316  2.1600 -0.1155  0.1589
 5993SOL    HW323705   0.752   5.036   1.445 -0.2308  0.8797 -1.0820
 5993SOL    MW423706   0.827   5.053   1.403 -0.1480  0.1329  0.0119
 5994SOL     OW23707   2.110   2.499   1.240 -0.2402  0.1863 -0.0630
 5994SOL    HW223708   2.181   2.562   1.252  0.2550 -0.0757 -1.3977
 5994SOL    HW323709   2.076   2.482   1.328 -1.1376  3.1522  0.2497
 5994SOL    MW423710   2.115   2.505   1.253 -0.7661  0.1220  0.1016
 5995SOL     OW23711   5.027   2.943   4.666  0.3213 -0.0787 -0.0099
 5995SOL    HW223712   5.104   2.984   4.626  1.0546 -1.7157 -0.3653
 5995SOL    HW323713   5.060   2.900   4.745 -0.5392  0.5045  0.6890
 5995SOL    MW423714   5.041   2.943   4.671  0.0352  1.2626  0.2691
 5996SOL     OW23715   4.132   6.159   3.943 -0.3950  0.5202  0.1221
 5996SOL    HW223716   4.115   6.252   3.960  0.5581  0.5263  1.1220
 5996SOL    HW323717   4.149   6.155   3.849 -1.0381  1.2514 -0.0403
 5996SOL    MW423718   4.132   6.171   3.933 -0.0561 -0.2527 -0.1818
 5997SOL     OW23719   3.729   2.464   6.309 -0.5507 -0.1861 -0.0976
 5997SOL    HW223720   3.685   2.475   6.393 -0.8395  0.1643 -0.2946
 5997SOL    HW323721   3.659   2.445   6.247 -0.3286 -0.5319 -0.2470
 5997SOL    MW423722   3.714   2.463   6.312  0.0099  0.1951  0.0993
 5998SOL     OW23723   1.126   6.201   3.732 -0.5937 -0.3147  0.0774
 5998SOL    HW223724   1.195   6.149   3.691  0.0346 -0.1728  0.9219
 5998SOL    HW323725   1.082   6.244   3.659  1.4298  1.0942 -0.4198
 5998SOL    MW423726   1.129   6.200   3.717  0.7312  0.5479  0.0923
 5999SOL     OW23727   4.346   3.551   2.382 -0.4859 -0.1989 -0.6979
 5999SOL    HW223728   4.282   3.594   2.440 -0.1084 -1.8110  0.9848
 5999SOL    HW323729   4.427   3.551   2.432  0.5045  0.5093 -2.2361
 5999SOL    MW423730   4.348   3.557   2.396  0.2787  0.1881  0.2174
 6000SOL     OW23731   1.607   5.594   1.945  0.1008  0.0862  0.0841
 6000SOL    HW223732   1.532   5.633   1.992 -0.1147 -1.1504  0.8070
 6000SOL    HW323733   1.680   5.653   1.964 -0.6799  1.3145 -0.6342
 6000SOL    MW423734   1.607   5.607   1.954 -0.7208  0.1614 -0.2561
 6001SOL     OW23735   2.623   0.699   3.216  0.6671  0.3336 -0.2195
 6001SOL    HW223736   2.569   0.718   3.293  0.6416  1.7938 -0.5695
 6001SOL    HW323737   2.622   0.603   3.209 -0.6457  0.2589  0.6575
 6001SOL    MW423738   2.616   0.689   3.225  0.0616  0.2046 -0.1568
 6002SOL     OW23739   6.278   5.955   1.424  0.4892  0.3588 -0.0206
 6002SOL    HW223740   6.297   5.914   1.340  0.5568  0.9700 -0.3113
 6002SOL    HW323741   6.267   6.048   1.404  0.1784  0.4655  0.5968
 6002SOL    MW423742   6.279   5.962   1.411  0.1356 -0.0334 -0.6121
 6003SOL     OW23743   1.950   3.882   1.640  0.1078 -0.2432 -0.3860
 6003SOL    HW223744   1.917   3.800   1.675  1.7774 -0.0801  1.8046
 6003SOL    HW323745   2.024   3.856   1.584 -0.4870 -0.3164 -1.1474
 6003SOL    MW423746   1.956   3.868   1.637  0.2365 -0.8067  0.0109
 6004SOL     OW23747   6.160   3.330   3.707  0.6009  0.2657 -0.2137
 6004SOL    HW223748   6.183   3.416   3.672 -1.2145  0.2403 -1.5630
 6004SOL    HW323749   6.245   3.290   3.728  1.5637  1.7301 -1.1220
 6004SOL    MW423750   6.174   3.336   3.705  0.1029 -0.2245 -0.8674
 6005SOL     OW23751   2.211   5.338   2.021 -0.0958  0.1188 -0.5743
 6005SOL    HW223752   2.206   5.380   2.107  2.9165  0.4962 -0.4887
 6005SOL    HW323753   2.199   5.410   1.959  0.1524  0.2646 -0.4550
 6005SOL    MW423754   2.209   5.353   2.024 -0.5718 -0.2190  0.3951
 6006SOL     OW23755   3.374   4.700   2.046  0.3900  0.0237 -0.4845
 6006SOL    HW223756   3.400   4.766   1.982 -1.6369 -0.7430 -2.2120
 6006SOL    HW323757   3.436   4.628   2.033  2.6044  1.4317  1.4031
 6006SOL    MW423758   3.386   4.699   2.036  0.7454 -0.1946  0.3929
 6007SOL     OW23759   6.145   4.199   2.775 -0.5501  0.2780 -0.5629
 6007SOL    HW223760   6.240   4.205   2.761 -0.5506  1.6258 -0.0500
 6007SOL    HW323761   6.110   4.280   2.739 -1.2754  0.7357  1.0730
 6007SOL    MW423762   6.153   4.210   2.768  0.1441 -0.0546  0.6060
 6008SOL     OW23763   5.225   0.478   4.964 -0.4640 -0.2300 -0.3783
 6008SOL    HW223764   5.133   0.453   4.963 -1.0475  1.1656  3.3203
 6008SOL    HW323765   5.266   0.420   5.028  1.0283 -0.0910 -1.1421
 6008SOL    MW423766   5.219   0.467   4.972  0.6915 -0.2871  0.6544
 6009SOL     OW23767   5.393   5.187   3.133 -0.3574 -0.3541  0.0669
 6009SOL    HW223768   5.394   5.261   3.072 -0.5730 -0.2424  0.1980
 6009SOL    HW323769   5.380   5.110   3.078  0.0086 -0.3109 -0.0850
 6009SOL    MW423770   5.391   5.187   3.118  0.3807 -0.3982 -0.0873
 6010SOL     OW23771   1.072   3.167   1.538 -0.0456  0.9762  0.2732
 6010SOL    HW223772   1.044   3.236   1.478  0.7870  0.8711 -0.2456
 6010SOL    HW323773   1.060   3.086   1.489 -0.9697  0.7370  0.8631
 6010SOL    MW423774   1.067   3.165   1.524 -0.3996 -0.2729 -0.4390
 6011SOL     OW23775   4.632   4.576   3.728  0.1614 -0.0449 -0.2603
 6011SOL    HW223776   4.604   4.551   3.640 -0.8155 -0.1092  0.0662
 6011SOL    HW323777   4.722   4.543   3.734  0.4700  0.5147 -1.4567
 6011SOL    MW423778   4.640   4.568   3.717  0.2247 -0.1188  0.2045
 6012SOL     OW23779   1.549   3.964   5.999  0.0480  0.0887 -0.2314
 6012SOL    HW223780   1.566   3.898   5.932  0.2699  0.3894 -0.4784
 6012SOL    HW323781   1.558   3.918   6.082 -1.6215 -0.6359 -0.4124
 6012SOL    MW423782   1.553   3.950   6.001 -0.6681 -0.2787 -0.3224
 6013SOL     OW23783   4.868   2.765   0.479 -0.6098 -0.1301 -0.2884
 6013SOL    HW223784   4.861   2.839   0.539  1.8243  0.1446 -0.2307
 6013SOL    HW323785   4.827   2.692   0.527 -1.4240  0.7530  0.4077
 6013SOL    MW423786   4.861   2.765   0.494 -0.2745  0.0941 -0.0708
 6014SOL     OW23787   5.682   3.101   6.174  0.0109 -0.4673 -0.2100
 6014SOL    HW223788   5.731   3.184   6.173 -0.9871  0.1614  0.5208
 6014SOL    HW323789   5.691   3.070   6.264 -0.1798 -0.8090 -0.3088
 6014SOL    MW423790   5.690   3.108   6.186 -0.0389  0.1900  0.6864
 6015SOL     OW23791   5.512   5.322   5.705 -0.3101 -0.4377  0.0563
 6015SOL    HW223792   5.438   5.356   5.654 -0.2032 -1.1639 -0.6036
 6015SOL    HW323793   5.511   5.374   5.785 -2.3905 -1.3098  0.6796
 6015SOL    MW423794   5.502   5.333   5.708 -0.1490  0.0491 -0.3541
 6016SOL     OW23795   2.470   3.684   0.103  0.0353  0.4334  0.7510
 6016SOL    HW223796   2.522   3.749   0.054  0.2721 -0.1696  0.1859
 6016SOL    HW323797   2.453   3.726   0.187  1.3672  0.6980  0.9212
 6016SOL    MW423798   2.475   3.698   0.108 -0.1850 -0.3482 -0.0653
 6017SOL     OW23799   6.193   2.661   2.280  0.4958 -0.3415 -0.1950
 6017SOL    HW223800   6.174   2.734   2.220 -0.2138  0.2657  0.7602
 6017SOL    HW323801   6.244   2.600   2.226 -1.7915 -0.7619 -2.0262
 6017SOL    MW423802   6.197   2.663   2.265 -0.8291 -0.0893  0.1947
 6018SOL     OW23803   0.834   4.933   4.810 -0.1483 -0.1847 -0.6674
 6018SOL    HW223804   0.767   5.002   4.806  1.3905  1.3806 -0.5698
 6018SOL    HW323805   0.804   4.867   4.747 -2.1428  0.1042 -0.0901
 6018SOL    MW423806   0.821   4.933   4.801 -0.2997 -0.0463 -0.2737
 6019SOL     OW23807   1.004   4.563   1.083 -0.2411  0.6189 -0.1756
 6019SOL    HW223808   0.990   4.627   1.153 -0.8709 -0.0600  0.3325
 6019SOL    HW323809   0.926   4.508   1.085  0.6563 -0.6982 -0.0330
 6019SOL    MW423810   0.992   4.565   1.093 -0.8225  0.3902 -0.5450
 6020SOL     OW23811   0.758   1.421   4.818 -0.1720 -0.2968 -0.1526
 6020SOL    HW223812   0.775   1.482   4.889  0.1705 -0.4082 -0.1375
 6020SOL    HW323813   0.678   1.375   4.844  0.6541 -1.2513  0.7870
 6020SOL    MW423814   0.750   1.423   4.831 -0.7284 -0.6552 -0.1662
 6021SOL     OW23815   4.651   3.370   1.450 -0.3368  0.1073  0.4120
 6021SOL    HW223816   4.684   3.368   1.361  0.5195  1.9222  0.6399
 6021SOL    HW323817   4.698   3.300   1.495 -0.7983 -0.8407 -0.5466
 6021SOL    MW423818   4.661   3.361   1.444  0.3216  0.2105 -0.3696
 6022SOL     OW23819   1.522   1.575   4.137 -0.1077  0.3424  0.3407
 6022SOL    HW223820   1.533   1.669   4.118 -0.3190  0.2520 -0.2647
 6022SOL    HW323821   1.456   1.572   4.206 -0.1835  0.6379  0.2835
 6022SOL    MW423822   1.515   1.587   4.143  0.0056 -0.0222 -0.6703
 6023SOL     OW23823   3.591   4.190   4.990  0.2778 -0.5659 -0.1445
 6023SOL    HW223824   3.676   4.234   4.985 -0.5532  1.1503 -0.0085
 6023SOL    HW323825   3.603   4.122   5.057  0.5789  2.1426  2.8247
 6023SOL    MW423826   3.604   4.187   4.998  0.0070 -0.4335  0.3065
 6024SOL     OW23827   3.507   5.287   6.215  0.1135 -0.5104 -0.3770
 6024SOL    HW223828   3.457   5.265   6.294  0.3174  0.7297  0.1245
 6024SOL    HW323829   3.537   5.203   6.181  1.4379 -1.0135  1.8180
 6024SOL    MW423830   3.504   5.273   6.221 -0.5590 -0.3266  0.1091
 6025SOL     OW23831   4.931   4.960   2.667  0.1289 -0.3948  0.4383
 6025SOL    HW223832   5.008   5.012   2.645 -0.1381 -0.4660 -0.6811
 6025SOL    HW323833   4.941   4.943   2.761  0.9312  0.4820  0.5318
 6025SOL    MW423834   4.943   4.964   2.677 -0.0141 -0.0314 -0.1717
 6026SOL     OW23835   6.279   4.509   0.939  0.0227 -0.0450 -0.3690
 6026SOL    HW223836   6.294   4.591   0.986 -2.6350 -0.5764  1.6594
 6026SOL    HW323837   6.266   4.535   0.848 -0.8904  1.8278  0.2538
 6026SOL    MW423838   6.279   4.523   0.933 -0.0463  0.1696  0.2596
 6027SOL     OW23839   6.073   5.156   1.870  0.5150  0.4729 -0.0932
 6027SOL    HW223840   6.144   5.188   1.925  1.1093 -2.1154  0.7983
 6027SOL    HW323841   5.993   5.189   1.911  1.0710  0.7838  0.7504
 6027SOL    MW423842   6.072   5.165   1.883 -0.0260  0.3240 -0.4219
 6028SOL     OW23843   4.062   2.955   0.575  0.4775 -0.0976 -0.2721
 6028SOL    HW223844   3.966   2.961   0.571  0.5180 -0.2232 -2.0143
 6028SOL    HW323845   4.092   2.988   0.490  1.9393 -0.8618 -0.0817
 6028SOL    MW423846   4.053   2.960   0.563  0.4727 -0.3008  0.3072
 6029SOL     OW23847   1.233   3.873   1.697  0.1687  0.2067  1.3097
 6029SOL    HW223848   1.190   3.926   1.763  1.5079  1.2045  1.4303
 6029SOL    HW323849   1.257   3.792   1.742 -2.0266 -0.6253  1.0851
 6029SOL    MW423850   1.231   3.870   1.711  0.5986  0.4556  0.0872
 6030SOL     OW23851   2.220   3.884   0.146 -0.3178 -0.5572  0.1457
 6030SOL    HW223852   2.184   3.803   0.110 -2.7957  0.5143  0.0176
 6030SOL    HW323853   2.253   3.859   0.233  0.2037 -1.9276 -0.4102
 6030SOL    MW423854   2.220   3.870   0.153  0.2943  0.4626 -0.0669
 6031SOL     OW23855   3.645   1.270   5.470  0.7400  0.2537 -0.0441
 6031SOL    HW223856   3.589   1.241   5.542  0.7044  1.3614  0.3924
 6031SOL    HW323857   3.730   1.228   5.488  0.4690 -0.2290  0.1182
 6031SOL    MW423858   3.649   1.261   5.482 -0.3784 -0.2830  0.0395
 6032SOL     OW23859   5.019   0.122   1.955  0.6289  0.5765  0.1483
 6032SOL    HW223860   4.925   0.109   1.945  0.3155  1.8961  1.1472
 6032SOL    HW323861   5.057   0.035   1.939 -0.8618 -0.3011  1.1466
 6032SOL    MW423862   5.011   0.109   1.952 -0.5639 -0.3729  0.6042
 6033SOL     OW23863   2.123   1.238   1.395 -0.2378  0.3577  0.9464
 6033SOL    HW223864   2.061   1.206   1.329 -0.4633  0.1747  1.2442
 6033SOL    HW323865   2.080   1.223   1.479  0.0695  0.5399  1.1426
 6033SOL    MW423866   2.109   1.232   1.397  0.2765 -0.2104  0.4010
 6034SOL     OW23867   1.199   4.386   6.027  0.0009  0.8251 -0.6853
 6034SOL    HW223868   1.152   4.452   6.077 -1.7674 -0.1175 -1.0008
 6034SOL    HW323869   1.160   4.390   5.940  0.5510  0.0324 -0.9780
 6034SOL    MW423870   1.188   4.395   6.022  0.2175 -0.1583  0.0699
 6035SOL     OW23871   4.277   4.928   3.435 -0.3673  0.1059 -0.5944
 6035SOL    HW223872   4.365   4.902   3.407  0.9532 -1.1104  3.9603
 6035SOL    HW323873   4.284   5.023   3.447  0.6944 -0.1134  0.7127
 6035SOL    MW423874   4.289   4.937   3.433 -0.4322  0.0917 -0.0835
 6036SOL     OW23875   4.204   0.348   2.301  0.2601  0.2017 -0.8777
 6036SOL    HW223876   4.250   0.348   2.216  1.8859  1.2480 -0.0439
 6036SOL    HW323877   4.115   0.322   2.279  0.5149  0.8759 -2.9835
 6036SOL    MW423878   4.198   0.344   2.287 -0.6262 -0.1370 -0.5514
 6037SOL     OW23879   3.965   5.363   1.633  0.4594 -0.4719 -0.3866
 6037SOL    HW223880   3.945   5.428   1.565  0.5236 -0.7935 -0.7148
 6037SOL    HW323881   3.880   5.328   1.659  0.4787 -0.7724 -0.7235
 6037SOL    MW423882   3.951   5.367   1.627 -0.4226  0.1787  0.3542
 6038SOL     OW23883   1.018   5.359   2.560  0.0500 -0.1514  0.3557
 6038SOL    HW223884   0.933   5.330   2.592 -1.4585  0.2597 -2.9109
 6038SOL    HW323885   1.015   5.454   2.568  1.0404 -0.2006  1.9154
 6038SOL    MW423886   1.007   5.368   2.565  0.0267  0.3220  0.0099
 6039SOL     OW23887   5.163   2.009   3.461 -0.2551 -1.0953  0.1687
 6039SOL    HW223888   5.092   2.046   3.515 -0.1230  0.0965 -0.4504
 6039SOL    HW323889   5.241   2.019   3.515 -0.3048 -0.9151  0.2103
 6039SOL    MW423890   5.164   2.015   3.475  0.6997  0.8395  0.0801
 6040SOL     OW23891   5.540   1.369   5.901 -0.4464  0.1465 -0.2756
 6040SOL    HW223892   5.589   1.315   5.839  2.7102  1.8915  0.4727
 6040SOL    HW323893   5.487   1.426   5.846  0.4436  0.0353 -1.2821
 6040SOL    MW423894   5.540   1.369   5.885 -0.1293  0.0037  0.3720
 6041SOL     OW23895   1.556   5.892   3.682  0.0439  0.2006  0.4687
 6041SOL    HW223896   1.549   5.797   3.673  0.4987  0.1199  0.9493
 6041SOL    HW323897   1.650   5.908   3.695  0.0325  0.7593 -0.1135
 6041SOL    MW423898   1.568   5.882   3.683  0.5693  0.7786  0.8047
 6042SOL     OW23899   0.349   3.674   1.465 -0.2292 -0.0985 -0.1640
 6042SOL    HW223900   0.369   3.718   1.383  2.6115 -0.9941 -0.0797
 6042SOL    HW323901   0.412   3.710   1.528 -1.8560  0.0455  1.4567
 6042SOL    MW423902   0.360   3.684   1.463 -0.5649 -0.7795 -0.5017
 6043SOL     OW23903   5.693   1.159   4.548  0.6026 -0.8548  0.5601
 6043SOL    HW223904   5.772   1.111   4.574  1.0450 -0.5783 -0.2472
 6043SOL    HW323905   5.726   1.233   4.497 -0.2514 -1.5813 -1.1034
 6043SOL    MW423906   5.708   1.163   4.545 -0.4260  0.0876 -0.1267
 6044SOL     OW23907   4.112   2.734   6.192  0.5331 -0.0328 -0.6650
 6044SOL    HW223908   4.182   2.733   6.257 -0.6325  0.7582  0.6492
 6044SOL    HW323909   4.034   2.757   6.241 -0.3111  1.0614 -2.4326
 6044SOL    MW423910   4.111   2.737   6.207  0.2917  0.3364 -0.5921
 6045SOL     OW23911   3.837   0.958   5.984 -0.1337 -0.3746  0.4045
 6045SOL    HW223912   3.911   0.905   6.014  2.3144  2.6297  0.1239
 6045SOL    HW323913   3.776   0.957   6.057  0.5902 -2.1248  1.0514
 6045SOL    MW423914   3.839   0.951   5.997 -0.0700  0.0912 -0.1437
 6046SOL     OW23915   5.588   2.041   1.329 -0.2946  0.2714 -0.4957
 6046SOL    HW223916   5.539   1.960   1.318 -0.6556  0.5657 -1.1114
 6046SOL    HW323917   5.663   2.017   1.384 -1.2481 -0.1295  0.6643
 6046SOL    MW423918   5.591   2.027   1.335  0.0310  0.7712 -0.4866
 6047SOL     OW23919   4.205   3.695   0.443 -0.0165  0.4030  0.2614
 6047SOL    HW223920   4.279   3.653   0.487 -0.4714  0.5679  1.2179
 6047SOL    HW323921   4.129   3.672   0.496 -0.4440  1.4753  0.1563
 6047SOL    MW423922   4.204   3.687   0.456  0.2209 -0.2399 -0.1785
 6048SOL     OW23923   0.388   0.551   1.343 -0.0519  0.1071  0.2239
 6048SOL    HW223924   0.437   0.625   1.308 -0.3616  1.6282  2.7646
 6048SOL    HW323925   0.454   0.499   1.390 -0.1137 -0.3643 -0.2020
 6048SOL    MW423926   0.403   0.554   1.345  0.4807  0.2558 -0.1352
 6049SOL     OW23927   4.463   4.994   4.273  0.0166  0.1366  0.4249
 6049SOL    HW223928   4.413   5.031   4.200 -0.9037  2.5566  2.1321
 6049SOL    HW323929   4.412   4.918   4.300 -1.4958  1.1687  0.6064
 6049SOL    MW423930   4.449   4.989   4.267 -0.6156 -0.1101 -0.1798
 6050SOL     OW23931   3.376   3.671   6.367  0.4936  0.1575 -0.1808
 6050SOL    HW223932   3.371   3.749   6.422 -2.1027  0.1397 -0.3105
 6050SOL    HW323933   3.385   3.705   6.278 -0.8492  0.3373 -0.2590
 6050SOL    MW423934   3.377   3.686   6.363 -0.0696 -0.1167 -0.3611
 6051SOL     OW23935   4.041   5.291   2.061  0.0913 -0.6379  0.0252
 6051SOL    HW223936   4.070   5.233   1.990  0.2050 -0.5060 -0.0369
 6051SOL    HW323937   4.047   5.379   2.023  1.8851 -0.3991  0.7567
 6051SOL    MW423938   4.046   5.295   2.046 -0.1080  0.1990 -0.1762
 6052SOL     OW23939   2.898   0.439   4.887 -0.4081 -0.1680 -0.4935
 6052SOL    HW223940   2.875   0.523   4.925  0.9055  0.4586 -1.0088
 6052SOL    HW323941   2.860   0.374   4.946  0.4173  0.7678  1.1159
 6052SOL    MW423942   2.890   0.442   4.900  0.0386  0.0090  0.1392
 6053SOL     OW23943   1.311   5.358   6.325  0.0934 -0.5343  0.0297
 6053SOL    HW223944   1.280   5.395   6.407  0.6834 -0.0697  0.0522
 6053SOL    HW323945   1.341   5.434   6.274 -1.1024 -0.7109 -0.9932
 6053SOL    MW423946   1.311   5.373   6.329 -0.1153  0.3074 -0.7977
 6054SOL     OW23947   3.123   5.663   5.421 -0.0750 -0.1874  0.2781
 6054SOL    HW223948   3.145   5.573   5.397 -1.0386 -0.5268  0.5871
 6054SOL    HW323949   3.030   5.658   5.444 -0.1237  0.8856  0.3241
 6054SOL    MW423950   3.113   5.650   5.421 -0.1201 -0.2304  0.0778
 6055SOL     OW23951   3.778   4.223   0.140  0.1514 -0.6359  0.1485
 6055SOL    HW223952   3.784   4.128   0.145 -1.8807 -0.7575  2.0804
 6055SOL    HW323953   3.789   4.253   0.230 -0.9334  0.8081 -0.1580
 6055SOL    MW423954   3.780   4.215   0.152  0.3433 -0.1903 -0.9930
 6056SOL     OW23955   5.968   4.645   5.246  0.0760 -0.0081  0.0402
 6056SOL    HW223956   5.897   4.656   5.310  1.3769  1.8777  1.2703
 6056SOL    HW323957   5.967   4.552   5.225 -0.8566 -0.5881  2.3283
 6056SOL    MW423958   5.959   4.634   5.252 -0.2463  0.0971 -0.3367
 6057SOL     OW23959   4.461   4.069   0.180 -0.0576  0.0431 -0.2706
 6057SOL    HW223960   4.379   4.108   0.149  1.6553  3.0176 -1.5191
 6057SOL    HW323961   4.494   4.131   0.246  0.3870 -2.0188  1.5891
 6057SOL    MW423962   4.455   4.083   0.185 -0.3603  0.7264  0.2440
 6058SOL     OW23963   5.731   1.929   0.227  0.3240  0.3458  0.2227
 6058SOL    HW223964   5.746   1.917   0.321 -1.2942 -1.8763  0.2870
 6058SOL    HW323965   5.818   1.930   0.188  0.9595 -0.6137  1.5610
 6058SOL    MW423966   5.744   1.928   0.234  0.0366 -0.0572 -0.4168
 6059SOL     OW23967   5.876   1.548   3.586 -0.5134 -0.0462  0.0105
 6059SOL    HW223968   5.821   1.617   3.550 -1.0233 -0.4978 -0.0817
 6059SOL    HW323969   5.816   1.477   3.607  0.2367 -1.3682 -1.9942
 6059SOL    MW423970   5.861   1.548   3.584  0.0008  0.3816 -0.5078
 6060SOL     OW23971   5.257   0.932   4.642 -0.9189 -0.1755 -0.1613
 6060SOL    HW223972   5.280   0.903   4.730  1.7172  1.7606 -0.0847
 6060SOL    HW323973   5.172   0.973   4.651  0.6865  3.0350  2.3493
 6060SOL    MW423974   5.249   0.933   4.655 -0.0275 -0.5010 -0.3991
 6061SOL     OW23975   1.729   4.649   1.546  0.0224  0.2073  0.3366
 6061SOL    HW223976   1.653   4.641   1.604 -0.7792 -0.0680 -0.7076
 6061SOL    HW323977   1.798   4.600   1.590 -0.8635 -0.8668  0.5772
 6061SOL    MW423978   1.728   4.642   1.560  0.0881 -0.1014  0.2511
 6062SOL     OW23979   0.891   3.864   4.860  0.0910  0.1553  0.0468
 6062SOL    HW223980   0.871   3.838   4.770 -0.4303  0.6638  0.0051
 6062SOL    HW323981   0.806   3.888   4.897  0.5532  2.2343 -0.0841
 6062SOL    MW423982   0.877   3.864   4.853 -0.3354 -0.0034 -0.6444
 6063SOL     OW23983   5.251   1.871   6.262  0.1329 -0.0887  0.2474
 6063SOL    HW223984   5.329   1.826   6.295  0.9103 -0.0946 -1.5070
 6063SOL    HW323985   5.178   1.815   6.288  0.6896 -0.1209  1.8536
 6063SOL    MW423986   5.252   1.858   6.270 -0.3690  0.0287 -0.5631
 6064SOL     OW23987   0.258   4.212   3.108 -0.3158 -0.2185  0.4649
 6064SOL    HW223988   0.216   4.171   3.032 -0.1862 -2.0486  1.3408
 6064SOL    HW323989   0.268   4.304   3.082 -2.0603 -0.3603 -0.9536
 6064SOL    MW423990   0.254   4.219   3.094 -0.0980  0.1236  0.1798
 6065SOL     OW23991   1.688   4.952   5.212  0.3062  0.4818 -0.5340
 6065SOL    HW223992   1.610   4.904   5.239  1.0417 -0.2579  0.3139
 6065SOL    HW323993   1.653   5.034   5.175 -0.9167 -0.3553 -1.3135
 6065SOL    MW423994   1.673   4.957   5.211 -0.1308  0.1071  0.1143
 6066SOL     OW23995   5.829   3.888   4.343 -0.0630 -0.7840  0.8017
 6066SOL    HW223996   5.889   3.823   4.381  0.9731 -0.6484 -0.5179
 6066SOL    HW323997   5.803   3.850   4.259  1.0469  0.7161 -0.2882
 6066SOL    MW423998   5.834   3.874   4.337  0.0561  0.8333  0.1495
 6067SOL     OW23999   0.469   3.228   2.420  0.1995 -0.4287 -0.3986
 6067SOL    HW224000   0.515   3.203   2.340 -0.4475 -1.2527 -0.5369
 6067SOL    HW324001   0.376   3.213   2.399 -0.1988  1.6330 -0.2988
 6067SOL    MW424002   0.463   3.223   2.406 -0.0220 -0.2319  0.5355
 6068SOL     OW24003   1.747   4.775   2.490  0.4090 -0.1685 -0.0633
 6068SOL    HW224004   1.797   4.783   2.408  0.7185 -0.9790  0.0386
 6068SOL    HW324005   1.718   4.864   2.509  1.5928  0.2788 -0.2749
 6068SOL    MW424006   1.750   4.788   2.481 -0.1561  0.3231 -0.5596
 6069SOL     OW24007   6.190   1.487   0.727  0.0658 -0.1409 -0.3062
 6069SOL    HW224008   6.103   1.448   0.727 -0.1385  0.2613 -1.8991
 6069SOL    HW324009   6.246   1.419   0.690  0.0591  0.3317 -1.2063
 6069SOL    MW424010   6.186   1.473   0.722 -0.0562 -0.0478  0.5398
 6070SOL     OW24011   0.183   0.205   2.715  0.6255 -0.0509 -0.5649
 6070SOL    HW224012   0.249   0.261   2.757 -0.8670  0.0664  1.8123
 6070SOL    HW324013   0.202   0.117   2.748  1.4627 -0.5940 -2.3698
 6070SOL    MW424014   0.194   0.201   2.725  0.3389 -0.8025  0.6111
 6071SOL     OW24015   4.505   6.129   6.107 -0.0651 -0.6697 -0.5474
 6071SOL    HW224016   4.418   6.148   6.070 -0.0488  0.1016 -0.2092
 6071SOL    HW324017   4.544   6.067   6.045 -0.9856 -1.2900 -0.5247
 6071SOL    MW424018   4.499   6.123   6.094 -0.8370  1.1953  0.3817
 6072SOL     OW24019   2.769   0.037   3.279  0.2658 -0.0213 -1.0397
 6072SOL    HW224020   2.823   0.005   3.350 -1.0641  1.0263  0.5145
 6072SOL    HW324021   2.744   0.125   3.305 -2.2250 -0.4721 -1.6215
 6072SOL    MW424022   2.773   0.044   3.292  0.4393 -0.3993 -0.1409
 6073SOL     OW24023   3.152   2.825   2.592 -0.3623  0.3775 -0.2702
 6073SOL    HW224024   3.232   2.872   2.615 -1.2833  1.8405  0.0580
 6073SOL    HW324025   3.105   2.884   2.534 -0.6489 -0.9848 -1.4868
 6073SOL    MW424026   3.156   2.839   2.587 -0.6586  0.0779  0.1848
 6074SOL     OW24027   1.905   4.615   3.337  0.0197  0.3186 -0.3072
 6074SOL    HW224028   1.965   4.627   3.263 -0.1503 -0.1789 -0.5274
 6074SOL    HW324029   1.818   4.620   3.298 -0.1004  1.3648  0.0599
 6074SOL    MW424030   1.902   4.617   3.322  0.4377 -0.4399  0.5088
 6075SOL     OW24031   4.158   2.709   2.767 -0.0840 -0.7262 -0.1401
 6075SOL    HW224032   4.245   2.703   2.729  0.5939  0.6250  1.1077
 6075SOL    HW324033   4.100   2.725   2.692  0.8031 -1.1072 -0.9176
 6075SOL    MW424034   4.162   2.710   2.752 -0.3194 -0.1140  0.2806
 6076SOL     OW24035   3.142   0.898   0.566 -0.3683 -0.2316 -0.1515
 6076SOL    HW224036   3.049   0.875   0.576 -0.4093 -0.5495 -1.1675
 6076SOL    HW324037   3.148   0.987   0.600 -1.1648 -0.0038 -0.5667
 6076SOL    MW424038   3.130   0.906   0.572 -0.6282  0.0024 -0.0492
 6077SOL     OW24039   1.539   2.250  -0.023  0.2845 -0.1915  0.4132
 6077SOL    HW224040   1.482   2.217   0.047 -0.7159  0.9970  0.1902
 6077SOL    HW324041   1.497   2.220  -0.104  0.1784  0.3658  0.2613
 6077SOL    MW424042   1.526   2.242  -0.024 -0.3391  0.0267  0.7551
 6078SOL     OW24043   2.593   4.585   0.886  0.2935  0.6403 -0.0601
 6078SOL    HW224044   2.582   4.507   0.832  1.8192  1.0600 -1.0456
 6078SOL    HW324045   2.561   4.657   0.831  0.2950  0.8844  0.2541
 6078SOL    MW424046   2.587   4.584   0.871  0.3253  0.3694  0.0743
 6079SOL     OW24047   3.616   2.041   1.252 -0.7427 -0.2610  0.0493
 6079SOL    HW224048   3.636   1.948   1.265 -0.2801 -0.4922 -1.9470
 6079SOL    HW324049   3.601   2.075   1.340 -0.8540 -2.2051  0.8368
 6079SOL    MW424050   3.616   2.033   1.266  0.1616 -0.0974 -0.5031
 6080SOL     OW24051   5.812   5.454   4.294  0.0756  0.4004 -0.3014
 6080SOL    HW224052   5.755   5.427   4.366  0.3335  0.1331 -0.1968
 6080SOL    HW324053   5.901   5.445   4.328  0.1722  2.6812  0.1981
 6080SOL    MW424054   5.816   5.449   4.308 -0.4660  0.3805  0.1632
 6081SOL     OW24055   0.305   3.182   3.023 -0.0123  0.1602 -0.1831
 6081SOL    HW224056   0.272   3.174   3.113  0.7112  0.8925  0.1588
 6081SOL    HW324057   0.334   3.093   3.001  1.5614  0.3343  1.0168
 6081SOL    MW424058   0.304   3.169   3.032 -0.0574  0.2041  1.0884
 6082SOL     OW24059   5.954   0.132   5.338  0.3009  0.1543  0.0086
 6082SOL    HW224060   5.972   0.073   5.411  1.2763  1.2912  0.7153
 6082SOL    HW324061   5.860   0.149   5.344  0.3022 -0.0637  0.7829
 6082SOL    MW424062   5.944   0.127   5.349  0.3982  0.0435 -0.1789
 6083SOL     OW24063   0.780   4.800   6.012 -0.3794 -0.0332  0.8393
 6083SOL    HW224064   0.722   4.724   6.018 -1.9982  0.8614 -1.6842
 6083SOL    HW324065   0.726   4.874   6.039 -0.1099  0.6692 -0.4319
 6083SOL    MW424066   0.765   4.800   6.016 -0.5908 -0.2081 -0.2428
 6084SOL     OW24067   3.516   6.081   0.523 -0.2604  0.2233  0.5206
 6084SOL    HW224068   3.432   6.083   0.477 -0.1513 -0.1513  0.3034
 6084SOL    HW324069   3.570   6.145   0.477 -0.5393  0.7429  0.8926
 6084SOL    MW424070   3.512   6.090   0.511  0.4367  0.6570 -0.7244
 6085SOL     OW24071   4.682   3.439   0.447  0.3776 -0.1559  0.1097
 6085SOL    HW224072   4.667   3.349   0.417 -0.3163  0.5178 -1.6867
 6085SOL    HW324073   4.735   3.429   0.526 -0.2118 -2.1668  0.3097
 6085SOL    MW424074   4.687   3.426   0.453  0.6528 -0.4643 -0.2698
 6086SOL     OW24075   0.704   5.078   3.916 -0.0577 -0.5080  0.1421
 6086SOL    HW224076   0.699   4.989   3.880 -0.8876 -0.4008 -0.0075
 6086SOL    HW324077   0.709   5.135   3.839  0.7810 -0.4261  0.2390
 6086SOL    MW424078   0.704   5.074   3.901  0.4480  0.5200  0.1499
 6087SOL     OW24079   3.349   4.876   5.769 -0.1564  0.3146 -0.0979
 6087SOL    HW224080   3.329   4.958   5.724  0.3242 -1.0700 -3.1207
 6087SOL    HW324081   3.442   4.882   5.791 -0.1627  0.6264 -0.1582
 6087SOL    MW424082   3.359   4.887   5.766  0.0935 -0.1695  0.0869
 6088SOL     OW24083   5.080   3.631   1.162 -0.4008 -0.5066  0.1965
 6088SOL    HW224084   5.011   3.632   1.228  0.6021 -1.4027  1.2942
 6088SOL    HW324085   5.033   3.638   1.079 -1.7630 -0.4223  0.9444
 6088SOL    MW424086   5.065   3.632   1.159  0.0457  0.6477  0.3704
 6089SOL     OW24087   5.137   5.262   2.910 -0.4853 -0.1512 -0.0121
 6089SOL    HW224088   5.051   5.299   2.891 -0.4015 -0.3732 -0.8680
 6089SOL    HW324089   5.199   5.332   2.888 -0.4591  0.2863  1.3248
 6089SOL    MW424090   5.134   5.277   2.905 -0.4711 -0.1006 -0.6193
 6090SOL     OW24091   4.865   2.966   5.584  0.1592  0.5090 -0.2358
 6090SOL    HW224092   4.948   3.000   5.617 -0.3676  2.5376 -0.8518
 6090SOL    HW324093   4.855   2.881   5.628  1.3162  1.3503  1.8201
 6090SOL    MW424094   4.874   2.959   5.594  0.3641 -0.6771  0.1577
 6091SOL     OW24095   3.492   0.383   6.311 -0.8208 -0.0113 -0.0936
 6091SOL    HW224096   3.550   0.455   6.338 -1.9255  0.4702  1.1816
 6091SOL    HW324097   3.425   0.381   6.380 -0.1357 -3.1279  0.6296
 6091SOL    MW424098   3.491   0.393   6.324 -0.3055  0.4282 -0.3641
 6092SOL     OW24099   3.025   0.503   2.673  0.1923  0.4997  0.0077
 6092SOL    HW224100   3.057   0.536   2.589  0.0848 -1.6652 -0.9372
 6092SOL    HW324101   3.088   0.437   2.699 -0.8654 -0.3141  0.5993
 6092SOL    MW424102   3.037   0.499   2.665  0.5428  0.9510  0.7197
 6093SOL     OW24103   3.053   0.819   5.792 -0.0634  0.2029 -0.1619
 6093SOL    HW224104   2.989   0.793   5.858 -0.8554 -1.2759 -1.4566
 6093SOL    HW324105   3.010   0.800   5.708  1.2997  1.0844 -1.0955
 6093SOL    MW424106   3.039   0.813   5.790  0.6931  0.4008  0.2376
 6094SOL     OW24107   5.378   4.946   3.809  0.3272 -0.1784  0.0988
 6094SOL    HW224108   5.464   4.916   3.779  0.9746  1.9569 -0.3117
 6094SOL    HW324109   5.376   5.039   3.787 -0.7848  0.6074  3.1284
 6094SOL    MW424110   5.389   4.954   3.802 -0.0039  0.1453 -0.3954
 6095SOL     OW24111   4.437   5.953   3.904  0.5721 -0.2997 -0.3952
 6095SOL    HW224112   4.511   5.895   3.883  1.0562  0.3765 -0.5862
 6095SOL    HW324113   4.448   5.974   3.996  1.8051  1.4376 -0.8986
 6095SOL    MW424114   4.448   5.948   3.913 -0.2451  0.3976 -0.7299
 6096SOL     OW24115   5.973   5.410   6.104  0.0923  0.1803 -0.5575
 6096SOL    HW224116   6.036   5.373   6.041 -0.9755 -1.5145 -0.6923
 6096SOL    HW324117   5.980   5.505   6.091  0.8549 -0.0586 -2.2987
 6096SOL    MW424118   5.983   5.418   6.094  0.2615  0.2287  0.0996
 6097SOL     OW24119   5.399   2.400   0.321  0.0505 -0.0015 -0.5873
 6097SOL    HW224120   5.349   2.322   0.344 -1.0554  0.3991 -1.5134
 6097SOL    HW324121   5.437   2.430   0.403 -0.6736 -0.7126  0.0224
 6097SOL    MW424122   5.398   2.394   0.335 -0.1058  0.4232 -0.4823
 6098SOL     OW24123   5.567   3.468   5.666  0.2919 -0.2560 -0.3526
 6098SOL    HW224124   5.541   3.528   5.597  0.2804  0.4650  0.2633
 6098SOL    HW324125   5.494   3.406   5.673 -0.1568  0.2610 -0.3258
 6098SOL    MW424126   5.554   3.468   5.658  0.0787 -0.1571  0.1105
 6099SOL     OW24127   1.574   1.577   5.531  0.0954  0.6090 -0.5716
 6099SOL    HW224128   1.514   1.649   5.549 -2.3344 -1.7328  1.5206
 6099SOL    HW324129   1.661   1.613   5.549 -0.9955  3.0869  0.0571
 6099SOL    MW424130   1.578   1.591   5.536 -0.2382  0.2846 -0.3465
 6100SOL     OW24131   4.398   4.924   5.118  0.5026 -0.2977  0.2419
 6100SOL    HW224132   4.397   4.926   5.214  0.9306 -1.3698  0.2762
 6100SOL    HW324133   4.321   4.873   5.094  0.7729 -0.6103  0.0344
 6100SOL    MW424134   4.388   4.918   5.128 -0.1045  0.1760  0.3048
 6101SOL     OW24135   4.545   1.277   2.250 -0.4191  0.0937 -0.5579
 6101SOL    HW224136   4.552   1.187   2.279  0.7799 -0.3126 -1.9696
 6101SOL    HW324137   4.454   1.286   2.221 -1.2508  0.1238  1.8650
 6101SOL    MW424138   4.534   1.267   2.250 -0.3965 -0.3293  0.0986
 6102SOL     OW24139   1.033   0.731   5.841  0.4859 -0.1092  0.9604
 6102SOL    HW224140   1.090   0.765   5.772 -0.3859 -0.2955  0.1271
 6102SOL    HW324141   1.092   0.714   5.914  1.4141  0.2189  0.3124
 6102SOL    MW424142   1.048   0.733   5.841 -0.7254 -0.1458 -0.2930
 6103SOL     OW24143   2.138   1.398   0.627  0.3907  0.3100 -0.1753
 6103SOL    HW224144   2.133   1.302   0.621 -0.4970  0.3634 -0.3745
 6103SOL    HW324145   2.080   1.421   0.699  0.6180  0.7048 -0.1156
 6103SOL    MW424146   2.130   1.388   0.635 -0.3386  0.2772 -0.2988
 6104SOL     OW24147   3.865   4.738   6.365 -0.1745 -0.3341 -0.1412
 6104SOL    HW224148   3.907   4.653   6.375 -0.6900 -0.8604 -2.0334
 6104SOL    HW324149   3.790   4.721   6.309 -1.8684  0.9235  1.6209
 6104SOL    MW424150   3.861   4.725   6.359 -0.5501 -0.1255  0.3028
 6105SOL     OW24151   1.371   2.689   2.700  0.0152 -0.5810  0.3357
 6105SOL    HW224152   1.357   2.772   2.746  0.2700 -0.9038  1.0008
 6105SOL    HW324153   1.464   2.670   2.712  0.8056  0.7296 -2.6937
 6105SOL    MW424154   1.381   2.697   2.708 -0.0993  0.0814  0.2177
 6106SOL     OW24155   0.677   1.651   6.182  0.7222  0.0206  0.9145
 6106SOL    HW224156   0.633   1.733   6.203 -0.2619 -0.3932  0.5294
 6106SOL    HW324157   0.623   1.584   6.224 -1.2595 -0.8525 -2.6043
 6106SOL    MW424158   0.664   1.653   6.190 -0.3750  0.0165  0.3417
 6107SOL     OW24159   6.300   2.165   0.182  0.1363  0.1003  0.0812
 6107SOL    HW224160   6.206   2.151   0.179  0.1811 -0.1247 -0.3354
 6107SOL    HW324161   6.338   2.078   0.193  0.2494  0.3153  1.6076
 6107SOL    MW424162   6.293   2.152   0.183  0.6120  0.2193  0.1396
 6108SOL     OW24163   1.543   0.722   2.111  0.3388  0.2907 -0.3209
 6108SOL    HW224164   1.495   0.773   2.176 -1.0328 -0.8635 -0.3733
 6108SOL    HW324165   1.621   0.774   2.093 -1.0344  2.4378 -0.4779
 6108SOL    MW424166   1.547   0.736   2.117  0.0996 -0.1160  0.4684
 6109SOL     OW24167   5.963   3.789   2.882 -0.4953 -0.2327  0.2127
 6109SOL    HW224168   5.908   3.742   2.944 -0.3848 -2.1625 -1.0486
 6109SOL    HW324169   5.901   3.834   2.823 -0.7164 -1.2914 -0.3846
 6109SOL    MW424170   5.948   3.789   2.882 -0.2554  0.0757  0.0462
 6110SOL     OW24171   0.388   1.805   0.018 -0.2498 -0.0428  0.0092
 6110SOL    HW224172   0.482   1.804   0.034 -0.4658 -0.2800  1.3540
 6110SOL    HW324173   0.348   1.814   0.105 -1.5025 -1.4023 -0.3843
 6110SOL    MW424174   0.395   1.806   0.032 -0.2403  0.2005 -0.1195
 6111SOL     OW24175   3.590   1.677   5.154 -0.3921 -0.2411  0.1373
 6111SOL    HW224176   3.632   1.638   5.231 -1.8573 -1.3376  0.4268
 6111SOL    HW324177   3.540   1.605   5.116 -2.3456  1.1059  0.0746
 6111SOL    MW424178   3.589   1.662   5.159 -0.0821  0.4330 -0.4637
 6112SOL     OW24179   2.194   6.338   2.257 -0.3632 -0.4286  0.1100
 6112SOL    HW224180   2.284   6.313   2.279 -0.8183 -1.5399  0.8113
 6112SOL    HW324181   2.153   6.256   2.230 -1.9551 -0.5126  2.5585
 6112SOL    MW424182   2.201   6.324   2.256 -0.2312 -0.2420 -0.3132
 6113SOL     OW24183   6.147   5.096   1.436 -0.2029  0.0250  0.1827
 6113SOL    HW224184   6.151   5.121   1.344 -1.0897 -1.3512 -0.2562
 6113SOL    HW324185   6.112   5.173   1.481  0.9822  0.9884 -0.4884
 6113SOL    MW424186   6.143   5.109   1.430 -0.3782 -0.0952 -0.1658
 6114SOL     OW24187   3.354   3.833   1.015  0.2959  0.3526 -0.5019
 6114SOL    HW224188   3.347   3.860   1.107  0.5486 -0.4029 -0.2539
 6114SOL    HW324189   3.281   3.878   0.972 -0.6677 -0.3526  0.3365
 6114SOL    MW424190   3.343   3.843   1.022  0.2340 -0.3119 -0.4822
 6115SOL     OW24191   5.312   6.363   1.101  0.5811 -0.3148 -0.3656
 6115SOL    HW224192   5.287   6.272   1.118 -0.4561 -0.0638 -0.4980
 6115SOL    HW324193   5.407   6.364   1.111  0.6441 -1.4938 -0.7174
 6115SOL    MW424194   5.321   6.351   1.105  0.2558 -0.2406  0.2959
 6116SOL     OW24195   2.115   1.944   2.808  0.3449  0.3997 -0.1152
 6116SOL    HW224196   2.207   1.924   2.793 -0.1314 -0.8806 -1.5734
 6116SOL    HW324197   2.080   1.967   2.722 -0.5147  1.8008  0.5614
 6116SOL    MW424198   2.122   1.944   2.795 -0.0318  0.3719 -0.0608
 6117SOL     OW24199   0.414   6.183   3.525  0.0062  0.9679  0.0202
 6117SOL    HW224200   0.504   6.212   3.514  0.3968  0.0820  0.7422
 6117SOL    HW324201   0.395   6.131   3.447  1.6423 -2.5240  1.7299
 6117SOL    MW424202   0.423   6.180   3.514 -0.1517 -0.2754 -0.2137
 6118SOL     OW24203   0.297   2.117   5.241  0.8800  0.0324 -0.5496
 6118SOL    HW224204   0.292   2.054   5.313 -1.5206  2.3264  1.5469
 6118SOL    HW324205   0.374   2.170   5.261  1.9515 -1.1556 -1.4079
 6118SOL    MW424206   0.307   2.116   5.253  0.0133 -0.0439  0.2621
 6119SOL     OW24207   2.652   5.130   5.838  0.0157  0.9093  0.2083
 6119SOL    HW224208   2.638   5.132   5.744  1.8785  2.5941 -0.0764
 6119SOL    HW324209   2.606   5.207   5.871 -0.5155  0.4017  0.6808
 6119SOL    MW424210   2.644   5.140   5.830  0.2320  0.7796 -0.0275
 6120SOL     OW24211   1.193   4.371   2.512 -0.3423 -0.1524 -0.0111
 6120SOL    HW224212   1.262   4.428   2.476 -0.2178  0.3087  0.9392
 6120SOL    HW324213   1.208   4.286   2.470 -0.7560  0.5856 -1.7438
 6120SOL    MW424214   1.204   4.367   2.501  0.3806 -0.4260 -0.1965
 6121SOL     OW24215   4.300   5.747   5.506 -0.0683  0.4885 -0.2066
 6121SOL    HW224216   4.228   5.750   5.444  0.9639 -0.1979 -1.4769
 6121SOL    HW324217   4.265   5.697   5.580  0.0450 -2.8098 -2.1856
 6121SOL    MW424218   4.286   5.741   5.508  0.1652  0.7337 -0.2497
 6122SOL     OW24219   2.849   1.633   1.886  0.8011  0.1763  0.6215
 6122SOL    HW224220   2.933   1.677   1.901  1.2360  0.1274 -1.3622
 6122SOL    HW324221   2.873   1.545   1.858 -0.0348 -0.8876  2.9661
 6122SOL    MW424222   2.863   1.627   1.884 -0.4303  0.2428  0.0872
 6123SOL     OW24223   0.275   0.117  -0.017  0.5891  0.3931 -0.1495
 6123SOL    HW224224   0.218   0.189   0.010  0.8575  1.3749 -2.0259
 6123SOL    HW324225   0.217   0.041  -0.022  0.2466  0.4868  1.5888
 6123SOL    MW424226   0.260   0.116  -0.014  0.1998 -0.2338  0.0410
 6124SOL     OW24227   1.467   5.005   0.571 -0.1037 -0.0875 -0.0584
 6124SOL    HW224228   1.482   5.095   0.540  0.8793 -0.9648 -2.3913
 6124SOL    HW324229   1.375   4.988   0.552 -0.1355  0.2150 -0.1805
 6124SOL    MW424230   1.457   5.015   0.564 -0.0895 -0.3508  0.1178
 6125SOL     OW24231   0.595   3.665   2.484 -0.6957  0.4537  0.1209
 6125SOL    HW224232   0.647   3.605   2.537  0.4100 -0.4686 -1.9024
 6125SOL    HW324233   0.530   3.609   2.442 -0.6885  0.9326 -0.5426
 6125SOL    MW424234   0.593   3.650   2.485  0.0233  0.4382 -0.0952
 6126SOL     OW24235   3.229   4.813   2.295  0.5694  0.2072 -0.1382
 6126SOL    HW224236   3.237   4.847   2.384  0.2671 -0.0354 -0.0173
 6126SOL    HW324237   3.316   4.823   2.258  0.6655  0.4326  0.1419
 6126SOL    MW424238   3.242   4.819   2.302 -0.6647  0.1374 -0.3542
 6127SOL     OW24239   5.748   0.923   2.109 -0.5812 -0.0386 -0.0885
 6127SOL    HW224240   5.652   0.921   2.107 -0.5920  0.6038 -0.6046
 6127SOL    HW324241   5.774   0.919   2.017 -0.0575 -1.8384  0.1088
 6127SOL    MW424242   5.738   0.923   2.097  0.2573 -0.3690  0.1719
 6128SOL     OW24243   0.259   5.770   4.681 -0.6076 -0.5527 -0.2023
 6128SOL    HW224244   0.347   5.756   4.716 -1.0915 -1.9297  0.5443
 6128SOL    HW324245   0.209   5.804   4.755 -1.0458 -1.1503 -0.2168
 6128SOL    MW424246   0.264   5.773   4.696  0.3392  0.5798 -0.0987
 6129SOL     OW24247   1.599   0.569   6.400  0.2992  0.2078 -0.1859
 6129SOL    HW224248   1.571   0.478   6.401 -1.2944  0.6203  1.7813
 6129SOL    HW324249   1.689   0.568   6.430  0.6023 -0.7721 -1.0963
 6129SOL    MW424250   1.607   0.557   6.404 -0.2835 -0.2742 -0.6036
 6130SOL     OW24251   4.955   1.193   1.384  0.1317  0.3340 -0.1827
 6130SOL    HW224252   4.983   1.281   1.406 -1.2724  0.6354  0.4836
 6130SOL    HW324253   4.860   1.193   1.399  0.0426 -1.1638 -0.5718
 6130SOL    MW424254   4.946   1.204   1.389 -0.0450 -0.0743 -0.0864
 6131SOL     OW24255   4.206   3.007   2.219 -0.7542 -0.2345  0.4579
 6131SOL    HW224256   4.297   2.988   2.196 -1.1115 -1.5810  0.0334
 6131SOL    HW324257   4.208   3.096   2.253  0.8877 -0.5799  1.3949
 6131SOL    MW424258   4.218   3.016   2.220 -0.2026 -0.1799 -0.0744
 6132SOL     OW24259   5.763   1.901   5.566  0.0359  0.2017  0.2410
 6132SOL    HW224260   5.783   1.984   5.522  1.0556  0.2691  0.8068
 6132SOL    HW324261   5.685   1.920   5.619 -0.9647  0.2281 -1.1745
 6132SOL    MW424262   5.755   1.915   5.567  0.4861  0.1821 -0.1652
 6133SOL     OW24263   1.481   2.102   1.791  0.1780 -0.5596 -0.0594
 6133SOL    HW224264   1.481   2.059   1.705 -2.1847 -0.8440  0.0205
 6133SOL    HW324265   1.428   2.045   1.846 -0.8893  1.1533  0.7623
 6133SOL    MW424266   1.474   2.089   1.787 -0.2405 -0.7647  0.0328
 6134SOL     OW24267   6.342   2.617   3.845  0.3580  0.5589 -0.5433
 6134SOL    HW224268   6.336   2.573   3.760 -0.4823 -2.9256  1.1272
 6134SOL    HW324269   6.408   2.685   3.832  0.2548  0.1791 -3.9571
 6134SOL    MW424270   6.350   2.620   3.832  0.5562 -0.3025 -0.0857
 6135SOL     OW24271   1.413   3.991   3.730  0.1878 -0.8497  0.2433
 6135SOL    HW224272   1.335   3.966   3.680  0.9526 -0.6723 -1.0821
 6135SOL    HW324273   1.470   3.914   3.724  1.8284  0.4517 -2.3684
 6135SOL    MW424274   1.410   3.977   3.723 -0.2963  0.2696 -0.1121
 6136SOL     OW24275   4.944   0.625   0.921 -0.0371 -0.0179 -0.7400
 6136SOL    HW224276   4.953   0.627   0.826  2.4407 -0.8513 -0.6137
 6136SOL    HW324277   5.012   0.684   0.952 -1.3111  0.8222  0.5226
 6136SOL    MW424278   4.954   0.633   0.912 -0.2712 -0.4037 -0.6239
 6137SOL     OW24279   1.494   5.091   4.503 -0.0639 -0.1919 -0.2336
 6137SOL    HW224280   1.426   5.087   4.436  0.6797  1.0843 -1.1012
 6137SOL    HW324281   1.554   5.020   4.481 -0.3557 -0.4145 -0.3115
 6137SOL    MW424282   1.493   5.081   4.492 -0.4491 -0.4082 -0.7350
 6138SOL     OW24283   0.123   5.164   2.045  0.2973  0.1144 -0.2573
 6138SOL    HW224284   0.178   5.103   2.094 -0.1538 -0.2938 -0.2413
 6138SOL    HW324285   0.123   5.130   1.956  0.0450  0.0855 -0.2478
 6138SOL    MW424286   0.130   5.152   2.040 -1.0145 -0.4182  0.5263
 6139SOL     OW24287   1.416   1.224   0.785 -0.1894  0.0821 -0.0937
 6139SOL    HW224288   1.455   1.217   0.697  0.8576  0.5468  0.3178
 6139SOL    HW324289   1.327   1.254   0.769  0.6276  2.3304 -0.9438
 6139SOL    MW424290   1.410   1.227   0.771  0.1714  0.0733  0.3171
 6140SOL     OW24291   6.191   0.072   4.863 -0.3780  0.2453 -0.2005
 6140SOL    HW224292   6.142   0.134   4.808  1.2475  0.8372 -1.0447
 6140SOL    HW324293   6.275   0.062   4.818  1.8586  2.3225  3.1015
 6140SOL    MW424294   6.195   0.079   4.850  0.4096 -0.3307  0.1518
 6141SOL     OW24295   0.275   3.491   5.676  0.0397  0.1969  0.4475
 6141SOL    HW224296   0.231   3.408   5.655  0.4369 -0.3038  1.5168
 6141SOL    HW324297   0.353   3.492   5.621  0.2805 -0.3788  0.7658
 6141SOL    MW424298   0.279   3.480   5.666 -0.3501 -0.5775 -0.2048
 6142SOL     OW24299   1.347   0.473   6.115  0.9075  0.2230  0.6570
 6142SOL    HW224300   1.361   0.551   6.169 -0.0791 -0.2691  1.6799
 6142SOL    HW324301   1.432   0.429   6.113  1.1224  0.6014  1.2624
 6142SOL    MW424302   1.360   0.477   6.122 -0.3225 -0.7376 -0.3357
 6143SOL     OW24303   5.742   2.711   2.036 -0.4514  0.4411 -0.0815
 6143SOL    HW224304   5.675   2.669   1.982  1.1812 -0.1102 -1.7861
 6143SOL    HW324305   5.777   2.640   2.090  0.3200  0.1935 -0.8787
 6143SOL    MW424306   5.738   2.696   2.036  0.4687 -0.3591  0.2753
 6144SOL     OW24307   1.728   2.588   5.855  0.1328  0.1631 -0.0914
 6144SOL    HW224308   1.823   2.591   5.852  0.1203  0.0608 -1.3114
 6144SOL    HW324309   1.701   2.671   5.816 -0.2811  0.2259  0.3222
 6144SOL    MW424310   1.737   2.599   5.849  0.1491 -0.1616  0.9323
 6145SOL     OW24311   3.077   2.949   4.894 -0.2771  0.3281  0.0640
 6145SOL    HW224312   3.013   2.891   4.936 -1.7226  1.5609 -0.3484
 6145SOL    HW324313   3.066   3.033   4.938  0.8986  0.6269 -0.1897
 6145SOL    MW424314   3.067   2.953   4.905  0.6833  0.4399  0.1655
 6146SOL     OW24315   5.409   4.040   5.282 -0.9619  0.6347  0.1747
 6146SOL    HW224316   5.382   4.121   5.239 -0.2785  0.1883 -1.1723
 6146SOL    HW324317   5.328   3.990   5.292 -1.1709  0.8334 -0.4575
 6146SOL    MW424318   5.395   4.044   5.277 -0.3487 -0.2731 -1.1756
 6147SOL     OW24319   5.507   0.908   5.202  0.3640  0.2014  0.1515
 6147SOL    HW224320   5.515   0.928   5.109 -1.2154  1.5124  0.2568
 6147SOL    HW324321   5.597   0.894   5.231  0.8547 -0.5410 -1.6187
 6147SOL    MW424322   5.520   0.909   5.194 -0.3817  0.1711  0.3165
 6148SOL     OW24323   0.796   5.169   3.656 -0.3512  0.4124 -0.1200
 6148SOL    HW224324   0.766   5.172   3.565 -0.1586 -1.0457 -0.2494
 6148SOL    HW324325   0.857   5.096   3.659 -1.7275 -0.7608  1.5818
 6148SOL    MW424326   0.800   5.160   3.645  0.3974  0.2196 -0.2195
 6149SOL     OW24327   1.381   3.599   1.493  0.1061 -0.3557  0.6669
 6149SOL    HW224328   1.303   3.561   1.534  0.0168 -0.3846  0.4685
 6149SOL    HW324329   1.375   3.693   1.512 -1.3011  0.0691 -1.4761
 6149SOL    MW424330   1.370   3.606   1.501  0.1982  0.3346  0.1007
 6150SOL     OW24331   2.616   2.887   3.013 -0.0780  0.4433  0.1597
 6150SOL    HW224332   2.687   2.843   2.967 -1.4013 -2.3769  0.6218
 6150SOL    HW324333   2.652   2.908   3.099 -0.0548 -1.9452  0.7888
 6150SOL    MW424334   2.630   2.884   3.018  0.0835 -0.3020  0.1667
 6151SOL     OW24335   4.393   3.027   0.372 -0.4611  0.2419 -0.0375
 6151SOL    HW224336   4.382   2.987   0.458  1.0456  0.3475  0.2297
 6151SOL    HW324337   4.365   3.118   0.384 -1.8947 -0.1600 -0.1216
 6151SOL    MW424338   4.388   3.034   0.385  1.2771  0.1494  0.2104
 6152SOL     OW24339   6.050   2.293   6.145  0.2012  0.6126  0.0420
 6152SOL    HW224340   5.969   2.245   6.162  0.8715 -1.0345 -1.1331
 6152SOL    HW324341   6.027   2.355   6.075 -0.0345  0.1440 -0.2973
 6152SOL    MW424342   6.036   2.295   6.138  0.4636 -0.4548 -0.0722
 6153SOL     OW24343   2.610   1.999   6.114 -0.2205 -0.0954 -0.1652
 6153SOL    HW224344   2.587   2.071   6.171 -0.6047 -1.3421  1.3112
 6153SOL    HW324345   2.679   1.952   6.161 -0.7821 -1.3449 -0.5497
 6153SOL    MW424346   2.616   2.002   6.128  0.1485 -0.5991  0.9457
 6154SOL     OW24347   0.711   6.198   3.796  0.2536 -0.5510 -0.1397
 6154SOL    HW224348   0.649   6.193   3.869  0.4991 -0.6575  0.0621
 6154SOL    HW324349   0.781   6.138   3.820  0.7157 -0.0080 -0.0974
 6154SOL    MW424350   0.712   6.190   3.809 -0.1276  0.1223  0.1704
 6155SOL     OW24351   1.190   5.153   1.725 -0.2586  0.5626  0.4592
 6155SOL    HW224352   1.151   5.106   1.799 -0.3314 -2.2539 -1.2267
 6155SOL    HW324353   1.268   5.102   1.703  1.0444  2.6490 -0.0501
 6155SOL    MW424354   1.195   5.140   1.732  0.0583 -0.2637 -0.2555
 6156SOL     OW24355   2.845   5.218   6.090  0.2435  0.2721 -0.0752
 6156SOL    HW224356   2.811   5.176   6.011 -0.0049 -1.2955  0.8303
 6156SOL    HW324357   2.774   5.210   6.154  0.9035  0.4067  0.6846
 6156SOL    MW424358   2.831   5.211   6.088 -0.3960 -0.5565 -0.6203
 6157SOL     OW24359   5.478   0.880   1.575 -0.2008  0.0721  0.0227
 6157SOL    HW224360   5.456   0.955   1.520 -1.2054 -0.5134 -0.3775
 6157SOL    HW324361   5.562   0.905   1.616 -0.2064  1.1413 -0.5830
 6157SOL    MW424362   5.486   0.893   1.573 -0.2723  0.2164 -0.8273
 6158SOL     OW24363   4.954   3.657   2.950 -0.2964  0.2341  0.0330
 6158SOL    HW224364   5.013   3.608   3.008 -0.3026  0.4360  0.2127
 6158SOL    HW324365   4.901   3.710   3.009 -0.1793  0.5789 -0.1661
 6158SOL    MW424366   4.955   3.657   2.965 -0.3517  0.0266  0.7126
 6159SOL     OW24367   0.533   3.786   0.987 -0.0987 -0.2738  0.3440
 6159SOL    HW224368   0.620   3.753   1.007  0.0417  0.1755  0.4962
 6159SOL    HW324369   0.499   3.727   0.920  1.3849  1.0839 -1.7305
 6159SOL    MW424370   0.540   3.774   0.981  0.3417  0.0450  0.0439
 6160SOL     OW24371   1.984   5.483   6.281  0.0172  0.7093 -0.1400
 6160SOL    HW224372   2.046   5.427   6.233  0.5395  2.7984 -2.0998
 6160SOL    HW324373   1.922   5.422   6.320  0.6094 -1.2531 -2.0288
 6160SOL    MW424374   1.984   5.467   6.280 -0.1639 -0.5872 -0.2276
 6161SOL     OW24375   6.342   4.469   2.522 -0.6601 -0.3851  0.5240
 6161SOL    HW224376   6.342   4.543   2.461  0.3292  0.0755  1.0544
 6161SOL    HW324377   6.354   4.392   2.467  0.7287  0.0613  0.1453
 6161SOL    MW424378   6.344   4.469   2.507  0.5110  0.3866  0.1068
 6162SOL     OW24379   4.455   5.125   1.806  0.2194 -0.2992  0.4126
 6162SOL    HW224380   4.491   5.211   1.829  1.4942 -0.6854 -0.0060
 6162SOL    HW324381   4.365   5.127   1.837 -0.3443  1.8277 -1.1076
 6162SOL    MW424382   4.448   5.137   1.813  0.2562  0.1361  0.1676
 6163SOL     OW24383   3.339   0.104   1.631 -0.2894  0.0030 -0.6128
 6163SOL    HW224384   3.278   0.065   1.694 -0.0566  0.0911 -0.3308
 6163SOL    HW324385   3.426   0.091   1.671 -0.3031  2.3278  0.3400
 6163SOL    MW424386   3.343   0.097   1.645  0.0433  0.4719 -0.4029
 6164SOL     OW24387   5.141   3.703   2.101 -0.1711 -0.7747  0.2692
 6164SOL    HW224388   5.132   3.721   2.008 -0.6414 -0.5382  0.3552
 6164SOL    HW324389   5.051   3.705   2.135 -0.0498 -1.3201  0.6442
 6164SOL    MW424390   5.128   3.706   2.093  0.1689 -0.7334 -0.1800
 6165SOL     OW24391   5.649   1.170   2.849  0.8684  0.3087 -0.1704
 6165SOL    HW224392   5.613   1.241   2.904 -1.3480 -0.3538 -0.6574
 6165SOL    HW324393   5.606   1.181   2.765  0.8915 -1.2859 -0.4207
 6165SOL    MW424394   5.638   1.181   2.845  0.1473  0.6476  0.1432
 6166SOL     OW24395   6.330   0.074   5.986 -0.9921  0.3129  0.3895
 6166SOL    HW224396   6.328   0.079   5.891  0.2911 -0.0056  0.3280
 6166SOL    HW324397   6.404   0.129   6.012 -1.2922  0.3532  1.2107
 6166SOL    MW424398   6.339   0.082   5.977  0.3595 -0.5305 -0.3937
 6167SOL     OW24399   1.147   3.896   4.975 -0.2878 -0.7563  0.1380
 6167SOL    HW224400   1.083   3.848   4.921  0.5603 -1.4636 -0.2798
 6167SOL    HW324401   1.223   3.906   4.917 -0.0302  0.1118  0.6105
 6167SOL    MW424402   1.149   3.891   4.960  0.4493  0.3359 -0.3507
 6168SOL     OW24403   0.152   1.173   4.393 -0.0472 -0.5366 -0.4073
 6168SOL    HW224404   0.199   1.253   4.417 -0.9680 -0.0987 -0.0166
 6168SOL    HW324405   0.154   1.120   4.472 -0.1816 -0.5312 -0.4004
 6168SOL    MW424406   0.159   1.176   4.407 -0.0839  0.0248  0.9976
 6169SOL     OW24407   1.161   4.336   1.216 -0.7533 -0.0981  0.0554
 6169SOL    HW224408   1.126   4.403   1.157 -0.5793  0.4595  0.5729
 6169SOL    HW324409   1.139   4.368   1.304  0.3965 -0.0949  0.3596
 6169SOL    MW424410   1.154   4.349   1.220  0.6212  0.6837 -0.0085
 6170SOL     OW24411   1.851   2.237   1.047  0.0436 -0.6450  0.2054
 6170SOL    HW224412   1.906   2.312   1.025  0.5721 -1.3525 -0.9741
 6170SOL    HW324413   1.893   2.197   1.124  1.9997 -1.9352 -1.4352
 6170SOL    MW424414   1.864   2.241   1.055  0.2593  0.1536  0.6187
 6171SOL     OW24415   5.964   2.955   0.931 -0.1164 -0.2464 -0.6560
 6171SOL    HW224416   6.030   3.017   0.959 -0.1738 -0.5806  0.2698
 6171SOL    HW324417   5.981   2.941   0.838  1.2948 -0.5456 -0.3757
 6171SOL    MW424418   5.975   2.961   0.923 -0.0189  0.1447  0.2613
 6172SOL     OW24419   3.763   0.055   2.316  0.2197 -0.3702 -0.4569
 6172SOL    HW224420   3.810   0.044   2.398  0.0880  0.2281 -0.2985
 6172SOL    HW324421   3.723  -0.030   2.299 -1.6619  0.1037  1.2636
 6172SOL    MW424422   3.764   0.042   2.324  0.6626 -0.4760 -0.0048
 6173SOL     OW24423   1.256   0.210   0.456  0.0691  0.1768 -0.2862
 6173SOL    HW224424   1.284   0.209   0.364  0.4066 -1.1053 -0.1915
 6173SOL    HW324425   1.180   0.152   0.458 -0.5677  0.9949  0.0861
 6173SOL    MW424426   1.250   0.202   0.444 -0.1113 -0.0173  0.0553
 6174SOL     OW24427   1.458   3.135   5.415 -0.2669 -0.6701 -0.8871
 6174SOL    HW224428   1.382   3.130   5.474  1.8096 -1.9571  1.9025
 6174SOL    HW324429   1.518   3.196   5.459  1.7063 -2.2850 -1.2195
 6174SOL    MW424430   1.456   3.143   5.429  0.0398 -0.0147  0.6376
 6175SOL     OW24431   3.011   5.457   3.945  0.3239  0.3706 -0.0728
 6175SOL    HW224432   3.003   5.545   3.907 -1.7578  0.1490 -0.2849
 6175SOL    HW324433   2.944   5.406   3.900  0.6906 -1.0090  0.9047
 6175SOL    MW424434   3.001   5.462   3.934 -0.2250  0.3040 -0.0830
 6176SOL     OW24435   5.235   1.519   5.652  0.2548  0.2821  0.7652
 6176SOL    HW224436   5.274   1.549   5.734  0.6479 -0.1964  0.7568
 6176SOL    HW324437   5.145   1.495   5.675  0.6301 -0.7026  1.2465
 6176SOL    MW424438   5.228   1.520   5.665  0.4115 -0.2281  0.6247
 6177SOL     OW24439   4.072   4.345   3.059 -0.6624 -0.1793 -0.8739
 6177SOL    HW224440   4.145   4.407   3.058 -1.0785  0.5260 -4.7756
 6177SOL    HW324441   4.096   4.280   3.124  2.6979  0.8577 -0.8991
 6177SOL    MW424442   4.085   4.345   3.067  0.3927 -0.5324 -0.2030
 6178SOL     OW24443   4.917   1.580   0.881 -0.2386 -0.4092 -0.3828
 6178SOL    HW224444   4.836   1.543   0.846 -1.3160  1.2362  0.2125
 6178SOL    HW324445   4.979   1.577   0.808 -1.7161  0.8445 -1.7552
 6178SOL    MW424446   4.915   1.575   0.867 -0.4150  0.3519 -0.5464
 6179SOL     OW24447   4.455   4.951   5.701  0.1408  0.0068  0.3957
 6179SOL    HW224448   4.447   4.861   5.733  0.5581 -0.4218 -0.6418
 6179SOL    HW324449   4.412   4.950   5.616  2.8710 -0.0549 -1.1159
 6179SOL    MW424450   4.449   4.939   5.694  0.1969 -0.1152 -0.5453
 6180SOL     OW24451   3.016   0.417   0.684 -0.8576  0.3875 -0.2482
 6180SOL    HW224452   3.075   0.479   0.641  0.9881 -1.1518 -0.1085
 6180SOL    HW324453   2.954   0.471   0.733 -0.3857  2.1031 -1.4520
 6180SOL    MW424454   3.016   0.432   0.685  0.1504  0.1923 -0.0041
 6181SOL     OW24455   5.181   2.234   3.952  0.0032 -0.1950  0.0749
 6181SOL    HW224456   5.256   2.215   4.007 -0.2054  0.0643  0.4571
 6181SOL    HW324457   5.152   2.148   3.920  0.7466 -0.2547 -0.4716
 6181SOL    MW424458   5.187   2.220   3.955 -0.6184  0.0905 -0.1231
 6182SOL     OW24459   0.400   0.386   5.434  0.2571  0.4429  0.2248
 6182SOL    HW224460   0.419   0.297   5.403 -0.6215  0.9568 -1.9668
 6182SOL    HW324461   0.485   0.421   5.461  0.4882 -1.3440  2.0632
 6182SOL    MW424462   0.413   0.379   5.434  0.2612 -0.0423 -0.1809
 6183SOL     OW24463   0.424   3.717   0.484 -0.1074  0.8094 -0.5450
 6183SOL    HW224464   0.403   3.643   0.426  0.6782  0.2169 -0.0988
 6183SOL    HW324465   0.514   3.700   0.513 -0.4798  1.0744  0.8532
 6183SOL    MW424466   0.433   3.705   0.480  0.2067  0.1136  0.1842
 6184SOL     OW24467   0.806   1.219   6.346 -0.3576  0.5742 -0.2506
 6184SOL    HW224468   0.870   1.247   6.411 -1.1822 -0.3366  0.9796
 6184SOL    HW324469   0.747   1.294   6.336  0.0715  0.9013 -0.3529
 6184SOL    MW424470   0.807   1.233   6.353 -0.2048  0.0224 -0.4554
 6185SOL     OW24471   2.066   2.174   0.568 -0.5568 -0.5795  0.2790
 6185SOL    HW224472   1.989   2.118   0.571 -1.4575  0.4988 -1.5449
 6185SOL    HW324473   2.043   2.251   0.620 -1.5243  0.6335 -1.8324
 6185SOL    MW424474   2.053   2.177   0.576 -0.3473 -0.2506  0.1447
 6186SOL     OW24475   2.342   1.880   0.828  0.5289 -0.6258  0.1358
 6186SOL    HW224476   2.299   1.966   0.825  0.5041 -0.6666 -1.2172
 6186SOL    HW324477   2.359   1.865   0.921  1.1492  1.1475  0.3389
 6186SOL    MW424478   2.338   1.889   0.840  0.0155 -0.3790  0.2238
 6187SOL     OW24479   2.517   3.185   1.851 -0.0719  0.2179  0.1342
 6187SOL    HW224480   2.554   3.185   1.940 -1.6063 -0.3653  0.7971
 6187SOL    HW324481   2.574   3.245   1.802  0.1369  1.4530  1.8013
 6187SOL    MW424482   2.529   3.193   1.856  0.2514 -0.1382  0.4244
 6188SOL     OW24483   2.285   2.794   5.087 -0.0572 -0.5330 -0.1464
 6188SOL    HW224484   2.345   2.782   5.013 -1.3031 -1.7639 -1.0117
 6188SOL    HW324485   2.283   2.709   5.131 -0.7000 -0.3364  0.2165
 6188SOL    MW424486   2.292   2.781   5.083  0.5944  0.0858 -0.2089
 6189SOL     OW24487   2.505   0.134   4.263  0.1441 -0.2238  0.3582
 6189SOL    HW224488   2.493   0.062   4.202  0.4000 -0.0721  0.1259
 6189SOL    HW324489   2.598   0.133   4.284  0.5914  1.3102 -1.2782
 6189SOL    MW424490   2.515   0.125   4.258 -0.1660  0.2130 -0.1322
 6190SOL     OW24491   1.314   0.187   1.884  0.1413  0.0077  0.2175
 6190SOL    HW224492   1.347   0.227   1.803  0.7563 -0.0831  0.4239
 6190SOL    HW324493   1.243   0.130   1.854 -0.9008  1.3955 -0.0653
 6190SOL    MW424494   1.309   0.185   1.869  0.6009  0.1870  0.0979
 6191SOL     OW24495   5.810   0.882   1.148  0.3199  0.8091  0.2260
 6191SOL    HW224496   5.833   0.870   1.240  0.5565 -0.4898  0.0221
 6191SOL    HW324497   5.746   0.813   1.130  2.1819 -0.6421 -1.2128
 6191SOL    MW424498   5.805   0.871   1.157 -0.4535  0.6245 -0.3892
 6192SOL     OW24499   3.065   4.551   1.779 -0.0393 -0.5347  0.1332
 6192SOL    HW224500   3.123   4.479   1.804 -0.7315 -0.5353  1.8973
 6192SOL    HW324501   3.050   4.599   1.860 -0.4782  0.9757 -0.7924
 6192SOL    MW424502   3.071   4.548   1.793 -0.3921  0.0040  0.5397
 6193SOL     OW24503   4.208   5.474   5.015  0.2504 -0.6055 -0.1827
 6193SOL    HW224504   4.122   5.515   5.003 -0.5585 -1.3651  2.3691
 6193SOL    HW324505   4.240   5.458   4.926 -0.8455  2.4785 -1.2716
 6193SOL    MW424506   4.201   5.478   5.002 -0.8823 -0.8913 -0.4421
 6194SOL     OW24507   2.729   3.736   4.192 -0.0295  0.9440 -0.1864
 6194SOL    HW224508   2.804   3.760   4.138 -0.5846 -0.2151 -1.5127
 6194SOL    HW324509   2.659   3.718   4.130 -1.2274  1.3353  0.9995
 6194SOL    MW424510   2.730   3.737   4.177 -0.5221 -0.4479 -0.1667
 6195SOL     OW24511   3.692   0.725   4.387  0.1183 -0.0025 -0.0196
 6195SOL    HW224512   3.618   0.665   4.398 -0.0089  0.1265 -0.1635
 6195SOL    HW324513   3.755   0.677   4.334 -0.3497  0.3050 -0.8598
 6195SOL    MW424514   3.690   0.711   4.382 -0.6271 -0.0057  0.3391
 6196SOL     OW24515   2.751   0.550   2.860  0.3128  0.2360 -0.0847
 6196SOL    HW224516   2.753   0.454   2.855  0.8255  0.3060 -1.4987
 6196SOL    HW324517   2.660   0.573   2.841 -0.0538  0.0044  1.2724
 6196SOL    MW424518   2.739   0.540   2.857 -0.2265 -0.1731  0.0429
 6197SOL     OW24519   1.879   6.274   1.241  0.2815  0.4991 -0.5880
 6197SOL    HW224520   1.869   6.188   1.280  0.5655  0.0026 -1.5884
 6197SOL    HW324521   1.822   6.331   1.293  0.4330 -0.1917  0.3542
 6197SOL    MW424522   1.870   6.270   1.253 -1.1351  0.0370  0.6538
 6198SOL     OW24523   3.590   1.217   0.071  0.3171  0.2745 -0.4598
 6198SOL    HW224524   3.631   1.151   0.126 -0.4002  1.0078  1.0192
 6198SOL    HW324525   3.523   1.168   0.022 -1.3663  0.1001  1.8511
 6198SOL    MW424526   3.586   1.202   0.071 -0.4519  0.1080 -0.4855
 6199SOL     OW24527   0.761   1.814   3.119 -0.6220 -0.4695  0.1137
 6199SOL    HW224528   0.712   1.734   3.100 -1.1676  0.2626 -1.8063
 6199SOL    HW324529   0.694   1.881   3.135 -0.2731  0.3007 -1.4759
 6199SOL    MW424530   0.746   1.813   3.119  0.3055  0.0956  0.4115
 6200SOL     OW24531   0.072   1.722   3.015  0.0949  0.2855 -0.1500
 6200SOL    HW224532   0.115   1.674   3.086 -1.9579 -1.5529 -0.0487
 6200SOL    HW324533   0.007   1.661   2.981 -0.7058  2.0404 -1.9482
 6200SOL    MW424534   0.069   1.708   3.020 -0.6243  0.0751 -0.0486
 6201SOL     OW24535   5.415   4.015   2.105 -0.2189  0.2902  0.1818
 6201SOL    HW224536   5.384   4.105   2.100  0.6094  0.5075 -1.9023
 6201SOL    HW324537   5.353   3.972   2.164 -1.6017  1.8243 -0.0810
 6201SOL    MW424538   5.403   4.021   2.112  0.0917 -0.5477 -0.3872
 6202SOL     OW24539   3.862   6.065   0.503  0.2791 -0.0780  0.2655
 6202SOL    HW224540   3.904   5.979   0.510  4.0991  1.5198 -0.2855
 6202SOL    HW324541   3.829   6.083   0.591  1.3688 -1.2341  0.9427
 6202SOL    MW424542   3.864   6.056   0.516 -0.3791  0.0508 -0.2012
 6203SOL     OW24543   0.033   3.170   2.036  0.8870  0.3478 -0.8212
 6203SOL    HW224544   0.105   3.107   2.049  0.4032 -0.7799 -3.0156
 6203SOL    HW324545  -0.046   3.116   2.034  0.1619  1.3536 -0.3033
 6203SOL    MW424546   0.032   3.154   2.037 -0.6792  0.0434  0.4987
 6204SOL     OW24547   0.969   2.022   0.088  0.2163  0.2242  0.3099
 6204SOL    HW224548   1.029   1.967   0.138  0.6825  0.2432 -0.2127
 6204SOL    HW324549   1.007   2.110   0.095  0.3935  0.1937 -0.2319
 6204SOL    MW424550   0.982   2.027   0.095 -0.2255 -0.4018  0.5939
 6205SOL     OW24551   5.923   0.794   0.908 -0.6143 -0.4760 -0.1750
 6205SOL    HW224552   5.898   0.818   0.997  1.6452 -0.2452  0.4531
 6205SOL    HW324553   5.966   0.872   0.874 -1.4276 -0.5694 -1.4997
 6205SOL    MW424554   5.925   0.808   0.915 -0.6741  0.2785  0.1625
 6206SOL     OW24555   5.697   4.437   0.025 -0.2363 -0.6429 -0.1233
 6206SOL    HW224556   5.703   4.438   0.120 -2.1183 -0.4856  0.0269
 6206SOL    HW324557   5.741   4.518  -0.002 -0.0750 -0.4687  0.6242
 6206SOL    MW424558   5.704   4.448   0.034 -0.6004 -0.3220 -0.3318
 6207SOL     OW24559   2.799   1.139   5.966 -0.1906 -0.0528 -0.0655
 6207SOL    HW224560   2.781   1.114   6.056  0.6188 -0.6595 -0.0593
 6207SOL    HW324561   2.716   1.126   5.920 -1.0072  1.5672  0.8395
 6207SOL    MW424562   2.786   1.134   5.972  0.0573  0.5573 -0.3267
 6208SOL     OW24563   1.532   4.608   1.752 -0.1752  0.0870 -0.3281
 6208SOL    HW224564   1.552   4.541   1.818 -0.0646  0.2287 -0.2186
 6208SOL    HW324565   1.496   4.558   1.678 -1.0879 -0.0017  0.1521
 6208SOL    MW424566   1.530   4.593   1.751  0.2241  0.1221  0.1441
 6209SOL     OW24567   5.165   0.519   5.606 -0.0960  0.0631  0.0055
 6209SOL    HW224568   5.227   0.447   5.597  0.3611  0.6193 -1.5624
 6209SOL    HW324569   5.217   0.598   5.595 -0.9379  0.5772 -0.4126
 6209SOL    MW424570   5.180   0.520   5.604 -0.1988  0.4101  0.3971
 6210SOL     OW24571   1.803   0.169   1.481 -0.4613 -0.0866  0.5175
 6210SOL    HW224572   1.785   0.212   1.565  1.7659  0.5171  0.7594
 6210SOL    HW324573   1.859   0.095   1.503 -0.6564 -0.5033 -0.3448
 6210SOL    MW424574   1.808   0.165   1.495 -0.4864  0.2479  0.4062
 6211SOL     OW24575   3.519   2.227   1.044 -0.0441 -0.1657  0.1061
 6211SOL    HW224576   3.556   2.150   1.088  1.1246 -0.5496 -1.4777
 6211SOL    HW324577   3.479   2.277   1.115  0.4671 -1.4911  1.3940
 6211SOL    MW424578   3.519   2.223   1.059  0.2222 -0.1369  0.2475
 6212SOL     OW24579   4.979   6.022   1.150  0.3751  0.1390  0.6036
 6212SOL    HW224580   4.938   5.942   1.183 -3.4077  0.7096 -2.0118
 6212SOL    HW324581   4.984   6.009   1.055  1.1866  2.3546  0.2791
 6212SOL    MW424582   4.974   6.010   1.142  0.5864 -0.1183  0.1887
 6213SOL     OW24583   6.103   4.332   0.632 -0.0369 -0.1790  0.0816
 6213SOL    HW224584   6.166   4.399   0.657  0.6196 -1.1258  1.0510
 6213SOL    HW324585   6.148   4.249   0.650 -1.6327 -0.8817  1.0308
 6213SOL    MW424586   6.117   4.330   0.638  0.4133 -0.0435 -0.0016
 6214SOL     OW24587   5.847   6.021   1.649  0.1178  0.0181  0.1259
 6214SOL    HW224588   5.869   6.052   1.561 -1.6200 -0.8247 -0.6449
 6214SOL    HW324589   5.828   5.928   1.638 -0.9461  0.0767  1.2454
 6214SOL    MW424590   5.848   6.013   1.636 -0.2525 -0.0184 -0.2775
 6215SOL     OW24591   4.891   5.470   3.871 -0.6967 -0.1471 -0.4709
 6215SOL    HW224592   4.865   5.396   3.925 -0.1727  0.3055  0.4348
 6215SOL    HW324593   4.846   5.457   3.787 -0.3741 -1.6350 -0.4356
 6215SOL    MW424594   4.882   5.459   3.867 -0.1675  0.1776  0.1323
 6216SOL     OW24595   2.278   4.691   4.403 -0.3154  0.4082  0.0254
 6216SOL    HW224596   2.350   4.634   4.431 -1.2577 -0.3340  0.9621
 6216SOL    HW324597   2.322   4.771   4.372  0.8557  0.9080  2.6977
 6216SOL    MW424598   2.294   4.694   4.403 -0.4081  0.1632  0.5295
 6217SOL     OW24599   4.807   3.935   2.560  0.8600 -0.4055 -0.0492
 6217SOL    HW224600   4.843   3.999   2.621  1.4183 -1.7769  1.1115
 6217SOL    HW324601   4.883   3.892   2.522  0.6027 -2.9444  2.0170
 6217SOL    MW424602   4.822   3.938   2.563 -0.4198  0.0677 -0.5211
 6218SOL     OW24603   2.034   0.953   1.866 -0.5253  0.2470 -0.6405
 6218SOL    HW224604   2.104   0.952   1.932 -0.4081  0.7059 -0.7599
 6218SOL    HW324605   1.956   0.926   1.915 -0.2226 -0.5212 -0.5618
 6218SOL    MW424606   2.033   0.949   1.881 -0.9310 -0.0950  0.2418
 6219SOL     OW24607   0.628   4.620   3.942 -0.9323 -0.2288 -0.5163
 6219SOL    HW224608   0.631   4.576   4.027 -0.1278  0.0089 -0.4160
 6219SOL    HW324609   0.657   4.554   3.880 -1.8282 -0.5027 -0.6587
 6219SOL    MW424610   0.632   4.606   3.945  0.1419 -0.4795 -0.4855
 6220SOL     OW24611   4.554   3.328   4.111 -0.6665  0.1066 -0.1493
 6220SOL    HW224612   4.477   3.299   4.061  0.2627  0.5618 -1.9236
 6220SOL    HW324613   4.613   3.364   4.045  0.8320  0.3091  1.2475
 6220SOL    MW424614   4.552   3.329   4.096 -0.0968 -0.1013  0.3000
 6221SOL     OW24615   1.155   3.965   0.108 -0.2604  0.0330  0.2279
 6221SOL    HW224616   1.170   4.060   0.109  0.1486  0.0016  2.6288
 6221SOL    HW324617   1.065   3.955   0.138 -0.8793 -0.3142 -1.6331
 6221SOL    MW424618   1.145   3.976   0.112  0.0235  0.7455 -0.2767
 6222SOL     OW24619   3.783   1.039   4.959 -0.0354  0.0365  0.6160
 6222SOL    HW224620   3.820   1.092   5.029 -1.1920 -0.3865  1.5860
 6222SOL    HW324621   3.846   1.046   4.887  1.2964  0.2975  1.7664
 6222SOL    MW424622   3.796   1.047   4.959  0.0555 -0.4801 -0.6951
 6223SOL     OW24623   3.616   0.126   5.655 -0.5499  0.1049  0.2087
 6223SOL    HW224624   3.580   0.115   5.743 -0.3439  1.9854  0.5764
 6223SOL    HW324625   3.697   0.176   5.668 -0.7495  0.8133 -1.0602
 6223SOL    MW424626   3.622   0.131   5.668  0.6391  0.4220  0.2865
 6224SOL     OW24627   6.195   0.661   5.065  0.4470 -0.2693 -0.3052
 6224SOL    HW224628   6.287   0.669   5.038  0.1470 -1.3986 -1.8482
 6224SOL    HW324629   6.194   0.588   5.126  0.4596 -0.9110 -1.0536
 6224SOL    MW424630   6.207   0.652   5.069 -0.6061  0.1972  0.3854
 6225SOL     OW24631   2.255   6.270   6.159  0.5179 -0.0151 -0.0010
 6225SOL    HW224632   2.317   6.201   6.138 -1.7767 -2.6717  1.3577
 6225SOL    HW324633   2.273   6.293   6.250 -1.4019 -1.9974  0.9579
 6225SOL    MW424634   2.265   6.264   6.168 -0.0493  0.2445  0.0714
 6226SOL     OW24635   6.196   0.829   0.614 -0.4459  0.0924  0.2572
 6226SOL    HW224636   6.177   0.747   0.659 -0.2614  0.6324  1.3456
 6226SOL    HW324637   6.124   0.840   0.553  0.3160 -1.6548 -1.0524
 6226SOL    MW424638   6.184   0.820   0.612  0.1048  0.4679  0.5380
 6227SOL     OW24639   0.970   4.830   0.771 -0.4551  0.5729 -0.4818
 6227SOL    HW224640   1.018   4.801   0.848  0.2079  1.9201 -0.3612
 6227SOL    HW324641   0.904   4.890   0.804 -0.3980  0.8834 -0.9113
 6227SOL    MW424642   0.968   4.834   0.785  0.4418  0.9291  0.0372
 6228SOL     OW24643   0.780   3.829   6.304 -0.2406  0.3834 -0.5856
 6228SOL    HW224644   0.754   3.878   6.226  1.4428  0.9285 -0.8416
 6228SOL    HW324645   0.816   3.747   6.270 -0.4887  0.1558 -0.3072
 6228SOL    MW424646   0.781   3.825   6.289 -0.0781  0.1491 -0.2579
 6229SOL     OW24647   3.581   5.855   6.189 -0.3600 -0.3970  0.3949
 6229SOL    HW224648   3.505   5.818   6.233 -2.6224  1.4921 -1.5943
 6229SOL    HW324649   3.544   5.913   6.122  2.8275  2.3053  0.6848
 6229SOL    MW424650   3.566   5.858   6.186  0.3871  0.0772 -0.3604
 6230SOL     OW24651   1.591   4.899   5.509 -0.3663  0.4181  0.2124
 6230SOL    HW224652   1.665   4.932   5.458 -1.7108  0.5039 -1.7884
 6230SOL    HW324653   1.589   4.805   5.491 -1.6006  0.6410 -1.0013
 6230SOL    MW424654   1.601   4.891   5.500  0.1086  0.2454  0.1095
 6231SOL     OW24655   3.773   1.946   0.715 -0.0347  0.6595 -0.5584
 6231SOL    HW224656   3.779   1.954   0.810  1.2753 -1.6201 -0.3559
 6231SOL    HW324657   3.835   2.011   0.681 -1.3057  2.2449  0.0385
 6231SOL    MW424658   3.782   1.955   0.723 -0.3770 -0.1552  0.7012
 6232SOL     OW24659   3.542   1.880   3.752 -0.4901 -0.7501 -0.2838
 6232SOL    HW224660   3.515   1.813   3.689 -1.7059 -0.0420 -0.5605
 6232SOL    HW324661   3.464   1.894   3.806 -0.3367  0.5787 -0.3659
 6232SOL    MW424662   3.528   1.873   3.751  0.0294  0.8028 -0.7999
 6233SOL     OW24663   3.381   1.430   5.698  0.3408  0.9035  0.2473
 6233SOL    HW224664   3.416   1.510   5.660 -2.0367  2.3669  0.9429
 6233SOL    HW324665   3.290   1.426   5.667 -0.0980 -0.6470  1.5477
 6233SOL    MW424666   3.373   1.440   5.689 -0.7988  0.2286  0.1621
 6234SOL     OW24667   1.066   2.033   4.763  0.2085  0.2284  0.0605
 6234SOL    HW224668   1.062   2.059   4.855 -0.0645 -1.4359  0.5585
 6234SOL    HW324669   1.160   2.035   4.742  0.2803  0.5283  0.3969
 6234SOL    MW424670   1.078   2.036   4.772  0.0453  0.2204 -0.7218
 6235SOL     OW24671   2.161   2.167   0.185 -0.7665 -0.5169 -0.9181
 6235SOL    HW224672   2.172   2.221   0.263 -1.4587  0.8196 -1.7117
 6235SOL    HW324673   2.067   2.147   0.182 -0.8255 -0.1907 -1.6259
 6235SOL    MW424674   2.150   2.171   0.195  0.2417  0.0640  0.3402
 6236SOL     OW24675   4.454   2.709   1.204 -0.3740  0.6195  0.1094
 6236SOL    HW224676   4.493   2.628   1.170  0.9490  1.7837 -1.3076
 6236SOL    HW324677   4.366   2.683   1.233  0.5780 -1.6423  1.2770
 6236SOL    MW424678   4.448   2.695   1.204 -0.6708 -0.3905 -0.5437
 6237SOL     OW24679   3.007   3.102   5.649 -0.4085 -0.2896  0.3762
 6237SOL    HW224680   3.079   3.054   5.608  1.4175  0.7738  2.1539
 6237SOL    HW324681   2.951   3.034   5.687 -1.4716 -1.2369 -2.6093
 6237SOL    MW424682   3.009   3.087   5.649  0.3243  0.5175  0.0945
 6238SOL     OW24683   0.520   2.364   4.843 -0.0789 -0.1059 -0.4584
 6238SOL    HW224684   0.438   2.328   4.878 -0.9863  0.4092 -1.9686
 6238SOL    HW324685   0.499   2.455   4.822  1.6333  0.8251  1.5097
 6238SOL    MW424686   0.506   2.371   4.845  0.5213  0.4213 -0.0508
 6239SOL     OW24687   4.168   5.867   4.110 -0.1373  0.7482 -0.1146
 6239SOL    HW224688   4.116   5.888   4.033  0.0435  0.2374 -0.3793
 6239SOL    HW324689   4.209   5.949   4.135  0.5711  0.7264 -1.1417
 6239SOL    MW424690   4.167   5.880   4.103  0.6029 -0.1993 -0.1156
 6240SOL     OW24691   2.555   0.076   5.056 -0.0341 -0.1271  0.5822
 6240SOL    HW224692   2.506   0.145   5.011  1.6176  0.8222  0.1063
 6240SOL    HW324693   2.560   0.005   4.992  0.1572  0.2186  0.2071
 6240SOL    MW424694   2.550   0.076   5.041  0.2596 -0.8404 -0.6372
 6241SOL     OW24695   0.429   5.607   5.455 -0.1617  0.3387 -0.2025
 6241SOL    HW224696   0.363   5.624   5.388  0.2580 -0.3706 -0.8050
 6241SOL    HW324697   0.415   5.516   5.482 -0.5467  0.7129  0.9341
 6241SOL    MW424698   0.418   5.597   5.450 -0.2480 -0.0366  0.3359
 6242SOL     OW24699   4.989   4.999   4.362  0.7241 -0.2363  0.1376
 6242SOL    HW224700   5.030   4.923   4.320 -0.5510 -0.8572 -0.0259
 6242SOL    HW324701   4.909   5.013   4.313  1.4902  1.9838 -0.5828
 6242SOL    MW424702   4.984   4.991   4.350 -0.3873  0.1454  0.4864
 6243SOL     OW24703   3.841   2.265   5.716  0.5553 -0.2857  0.0544
 6243SOL    HW224704   3.808   2.353   5.736 -1.1214 -0.7780 -0.3679
 6243SOL    HW324705   3.921   2.281   5.667  0.1993  1.0237 -0.1534
 6243SOL    MW424706   3.847   2.279   5.712 -0.5827  0.0975  0.7314
 6244SOL     OW24707   2.383   3.441   3.913 -0.2037  0.5633  0.1675
 6244SOL    HW224708   2.350   3.416   3.999  0.3535 -1.7873 -0.2391
 6244SOL    HW324709   2.447   3.373   3.891 -0.6937  0.8233 -2.3185
 6244SOL    MW424710   2.387   3.429   3.921 -0.3566  0.3304  0.0528
 6245SOL     OW24711   4.026   5.868   3.849  0.4459 -0.4032 -0.0349
 6245SOL    HW224712   4.015   5.781   3.888 -1.0505 -0.5330 -0.6658
 6245SOL    HW324713   3.936   5.901   3.840  0.9306  0.7398 -0.8576
 6245SOL    MW424714   4.012   5.861   3.853  0.5755 -0.6153 -0.3384
 6246SOL     OW24715   1.091   4.513   4.642 -0.3606 -0.2388 -0.9358
 6246SOL    HW224716   1.068   4.570   4.714  1.7141 -0.4767 -0.0031
 6246SOL    HW324717   1.118   4.431   4.683  2.4698  0.1495 -1.7509
 6246SOL    MW424718   1.092   4.509   4.657 -0.3565  0.4844  0.3841
 6247SOL     OW24719   2.749   4.883   0.522 -0.1581 -0.0564  0.4357
 6247SOL    HW224720   2.780   4.973   0.528  0.2678 -0.0115 -1.5585
 6247SOL    HW324721   2.791   4.838   0.595  0.3392  1.1650  0.9265
 6247SOL    MW424722   2.759   4.889   0.532 -0.4008  0.4504  0.1697
 6248SOL     OW24723   2.289   6.383   2.973  0.2705  0.8401 -0.2318
 6248SOL    HW224724   2.308   6.360   2.882  1.2694  0.5387  0.0410
 6248SOL    HW324725   2.324   6.311   3.024  1.0568  1.6932  0.4793
 6248SOL    MW424726   2.296   6.371   2.968 -0.1506  0.5799  0.2671
 6249SOL     OW24727   0.364   6.170   3.051  0.0460  0.7118  0.0286
 6249SOL    HW224728   0.448   6.147   3.009 -0.2833  0.6038 -0.5928
 6249SOL    HW324729   0.298   6.138   2.989 -0.4524  0.9325  0.4446
 6249SOL    MW424730   0.367   6.162   3.037  0.1292  0.3339 -0.2656
 6250SOL     OW24731   1.438   0.828   3.761 -0.8442  0.1806 -0.8888
 6250SOL    HW224732   1.408   0.836   3.852  1.8575 -1.6896  0.3056
 6250SOL    HW324733   1.503   0.897   3.752 -1.3673  0.5947 -1.5622
 6250SOL    MW424734   1.443   0.838   3.772  0.5316 -0.3637 -0.4969
 6251SOL     OW24735   0.659   3.983   6.080 -0.4284 -0.6355  0.0741
 6251SOL    HW224736   0.644   4.062   6.131 -2.0286 -2.6036  2.9431
 6251SOL    HW324737   0.704   4.013   6.002 -2.2636  3.2873  0.2800
 6251SOL    MW424738   0.663   3.997   6.076 -0.2155 -0.2604 -0.6870
 6252SOL     OW24739   4.562   3.688   2.953 -0.0478 -0.2294 -0.5725
 6252SOL    HW224740   4.587   3.601   2.920  0.0983  0.3725 -2.1127
 6252SOL    HW324741   4.467   3.691   2.945 -0.4203 -1.2747  2.1984
 6252SOL    MW424742   4.553   3.677   2.948 -0.1885  0.2028 -0.1418
 6253SOL     OW24743   3.462   4.851   3.196 -0.0179 -0.2885  0.0647
 6253SOL    HW224744   3.499   4.785   3.254  1.2635  1.0782  0.8659
 6253SOL    HW324745   3.512   4.930   3.215 -0.2317  0.4551 -2.2103
 6253SOL    MW424746   3.473   4.853   3.206 -0.0834  0.4823 -0.4159
 6254SOL     OW24747   5.081   1.752   3.407 -0.0154 -0.3564 -0.3769
 6254SOL    HW224748   5.023   1.715   3.473  2.3008 -0.9713  1.4559
 6254SOL    HW324749   5.115   1.832   3.447  0.7389 -0.2376 -1.2009
 6254SOL    MW424750   5.078   1.758   3.421 -0.4346  0.0843  0.0343
 6255SOL     OW24751   3.694   4.605   1.519  0.6093 -0.0402  0.1697
 6255SOL    HW224752   3.624   4.607   1.453  1.9850  2.0176 -1.3366
 6255SOL    HW324753   3.775   4.611   1.469  1.8589 -1.0266  1.9477
 6255SOL    MW424754   3.695   4.606   1.504  0.0707 -0.5910  0.0930
 6256SOL     OW24755   4.036   2.593   1.528  0.1866 -0.3003  0.9254
 6256SOL    HW224756   3.984   2.665   1.563  2.2549  0.7318  2.0063
 6256SOL    HW324757   4.083   2.558   1.604 -1.0804 -3.1692  0.5505
 6256SOL    MW424758   4.035   2.598   1.543 -0.0920  0.5640  0.0862
 6257SOL     OW24759   2.815   1.615   2.197  0.7026 -0.2188  0.1875
 6257SOL    HW224760   2.904   1.620   2.233  0.5570  0.2578  0.4811
 6257SOL    HW324761   2.828   1.590   2.105  1.1770  0.4606  0.0603
 6257SOL    MW424762   2.829   1.612   2.189 -0.0052 -0.2232 -0.2144
 6258SOL     OW24763   1.527   5.923   5.300 -0.5363 -0.2298  0.2472
 6258SOL    HW224764   1.467   5.944   5.228 -1.8864  2.0911  1.9250
 6258SOL    HW324765   1.507   5.832   5.321 -0.7802 -0.6604 -1.6646
 6258SOL    MW424766   1.516   5.914   5.293  0.1209  0.7630 -0.0153
 6259SOL     OW24767   0.944   3.739   4.067 -0.1823 -0.0257 -0.3909
 6259SOL    HW224768   1.001   3.804   4.108  0.9192 -1.3542  0.3004
 6259SOL    HW324769   0.994   3.710   3.991 -1.1607  0.7105 -1.3313
 6259SOL    MW424770   0.958   3.744   4.063  0.2755 -0.7177 -0.2242
 6260SOL     OW24771   6.169   3.810   2.675  0.0074 -0.1539  0.7171
 6260SOL    HW224772   6.148   3.886   2.621  1.1267 -0.8948 -0.8498
 6260SOL    HW324773   6.100   3.808   2.741 -1.6263  0.6511 -0.8494
 6260SOL    MW424774   6.157   3.820   2.676 -0.3046 -0.2519 -0.0975
 6261SOL     OW24775   4.937   2.137   5.770 -0.4281  0.1017  0.8619
 6261SOL    HW224776   4.905   2.157   5.682  0.7160  2.6934  0.9208
 6261SOL    HW324777   5.032   2.126   5.759 -0.4417 -0.8142  1.5896
 6261SOL    MW424778   4.945   2.138   5.757  0.0633  0.3054  0.0410
 6262SOL     OW24779   2.289   2.356   3.046  0.7447  0.9282 -0.1905
 6262SOL    HW224780   2.271   2.265   3.068  0.7585  0.6404 -1.3205
 6262SOL    HW324781   2.225   2.378   2.978  2.3197  0.9748 -1.7287
 6262SOL    MW424782   2.278   2.347   3.040 -0.4224 -0.0301 -0.2773
 6263SOL     OW24783   2.869   5.388   5.508 -0.1301  0.2997 -0.3543
 6263SOL    HW224784   2.792   5.433   5.542 -0.0071 -0.0120  0.3741
 6263SOL    HW324785   2.867   5.404   5.414 -2.8932 -2.3576 -0.9297
 6263SOL    MW424786   2.859   5.396   5.500 -0.1165  0.3221 -0.3951
 6264SOL     OW24787   6.257   4.685   4.352  0.1824 -0.1034  0.3938
 6264SOL    HW224788   6.343   4.688   4.394 -0.4634 -0.4934  1.7695
 6264SOL    HW324789   6.269   4.622   4.280  1.1559  0.2011  0.2641
 6264SOL    MW424790   6.270   4.677   4.348 -0.3115  0.8182 -0.8508
 6265SOL     OW24791   0.104   5.970   4.144  0.3045 -0.5608 -0.0462
 6265SOL    HW224792   0.163   5.996   4.074  0.9562 -1.6853  0.0604
 6265SOL    HW324793   0.076   5.881   4.120  1.1418 -1.2764  1.4715
 6265SOL    MW424794   0.108   5.961   4.132 -0.3852 -0.5212 -0.0770
 6266SOL     OW24795   5.839   3.462   0.174 -0.6772  0.2977  0.0990
 6266SOL    HW224796   5.775   3.484   0.106 -1.0673 -0.4587  0.1975
 6266SOL    HW324797   5.903   3.406   0.130 -0.3738  0.6227  0.1246
 6266SOL    MW424798   5.839   3.457   0.159 -0.6629 -0.5895  0.1664
 6267SOL     OW24799   4.236   0.161   6.328  0.2538  0.3235  0.1409
 6267SOL    HW224800   4.158   0.109   6.347  0.2754  0.8604  1.8368
 6267SOL    HW324801   4.304   0.097   6.307 -0.2954 -0.2077 -0.0361
 6267SOL    MW424802   4.235   0.146   6.327  0.0431  0.2550  0.2470
 6268SOL     OW24803   3.587   5.122   1.535  0.2762  0.0028  0.6278
 6268SOL    HW224804   3.628   5.188   1.590  1.9471  1.0805 -1.7212
 6268SOL    HW324805   3.499   5.111   1.570  0.2564  2.8063  1.6413
 6268SOL    MW424806   3.581   5.129   1.547  0.0659  0.1925  0.0725
 6269SOL     OW24807   0.803   1.129   3.446  0.1577 -0.4252 -0.2790
 6269SOL    HW224808   0.771   1.218   3.429 -0.6392 -0.4800  0.7834
 6269SOL    HW324809   0.846   1.136   3.532 -0.5078 -1.2001  0.1223
 6269SOL    MW424810   0.805   1.142   3.455  0.3080 -0.2503  0.6705
 6270SOL     OW24811   3.681   3.450   0.535 -0.1685  0.5613 -0.0787
 6270SOL    HW224812   3.675   3.368   0.583  0.8407  1.3338  1.4743
 6270SOL    HW324813   3.613   3.506   0.574 -0.7390  0.5436 -1.0090
 6270SOL    MW424814   3.671   3.447   0.547  0.0663  0.6667  0.7765
 6271SOL     OW24815   0.869   3.542   2.611 -0.1656 -0.0492 -0.5219
 6271SOL    HW224816   0.949   3.588   2.584  0.6803 -2.0864 -1.7002
 6271SOL    HW324817   0.894   3.497   2.692  0.3899 -1.8341 -1.6343
 6271SOL    MW424818   0.883   3.542   2.619  0.5420 -0.2843 -0.2765
 6272SOL     OW24819   3.594   3.042   3.207  0.0475  0.2993  0.5491
 6272SOL    HW224820   3.652   3.005   3.141  0.8749  2.5605 -0.0882
 6272SOL    HW324821   3.652   3.060   3.281 -0.3402  0.3281  0.8476
 6272SOL    MW424822   3.609   3.039   3.208  0.4138 -0.4457 -0.2470
 6273SOL     OW24823   4.362   0.153   6.043  0.0055 -0.7820 -0.3122
 6273SOL    HW224824   4.307   0.093   6.093 -1.0427  1.3941  1.3081
 6273SOL    HW324825   4.451   0.119   6.055 -0.7659 -3.7149 -2.0410
 6273SOL    MW424826   4.366   0.141   6.051 -0.3311 -0.0413 -0.5542
 6274SOL     OW24827   5.014   4.227   5.002 -0.7955  0.7473  0.7534
 6274SOL    HW224828   4.952   4.205   4.932 -0.4460  2.0318 -0.0001
 6274SOL    HW324829   5.040   4.317   4.983  1.6929  0.1097  0.7267
 6274SOL    MW424830   5.009   4.236   4.990  0.1220 -0.6654  0.4764
 6275SOL     OW24831   0.096   5.855   4.898 -0.1096 -0.3730 -0.1700
 6275SOL    HW224832   0.157   5.918   4.937 -2.0967  1.4369  0.1781
 6275SOL    HW324833   0.010   5.883   4.928 -1.0226 -4.3674  1.4831
 6275SOL    MW424834   0.093   5.867   4.907  0.3083  0.7404  0.1599
 6276SOL     OW24835   1.725   4.596   5.091  0.0644  0.3499  0.0993
 6276SOL    HW224836   1.669   4.538   5.039  0.7531  0.8085 -1.1919
 6276SOL    HW324837   1.757   4.661   5.029 -0.1794  1.7640  1.3926
 6276SOL    MW424838   1.722   4.597   5.076  0.2696 -0.2513 -0.0962
 6277SOL     OW24839   2.697   1.280   5.575 -0.4637  0.0242 -0.8123
 6277SOL    HW224840   2.730   1.194   5.551 -0.3889  0.1872 -1.3199
 6277SOL    HW324841   2.613   1.263   5.618  0.5777 -0.4297  1.1052
 6277SOL    MW424842   2.690   1.266   5.577  0.0572  0.3266 -0.1503
 6278SOL     OW24843   1.111   4.771   0.384 -0.4442 -0.2213 -0.2340
 6278SOL    HW224844   1.148   4.684   0.394 -1.8989 -0.7809  0.7077
 6278SOL    HW324845   1.159   4.825   0.447 -0.3887 -0.6389  0.0837
 6278SOL    MW424846   1.122   4.767   0.394 -0.2263  0.2048 -0.3223
 6279SOL     OW24847   5.951   0.027   5.611  0.0614 -0.8250 -0.4462
 6279SOL    HW224848   5.926   0.119   5.603  1.4656 -0.5731 -2.7391
 6279SOL    HW324849   6.041   0.029   5.644  0.1263 -1.3617 -0.5764
 6279SOL    MW424850   5.959   0.039   5.614 -0.0677 -0.0649  0.1511
 6280SOL     OW24851   6.185   5.121   5.882 -0.5415 -0.0929  0.1566
 6280SOL    HW224852   6.102   5.079   5.862  0.0203 -0.3175 -1.9675
 6280SOL    HW324853   6.172   5.213   5.857 -0.4505  0.1061  0.8069
 6280SOL    MW424854   6.173   5.128   5.876 -0.0277  0.4435  0.1053
 6281SOL     OW24855   4.724   2.637   1.623  0.5723  0.3227 -0.2652
 6281SOL    HW224856   4.788   2.694   1.666  0.7925  0.5483 -0.8707
 6281SOL    HW324857   4.662   2.697   1.582  0.4075  0.1169 -0.3176
 6281SOL    MW424858   4.724   2.652   1.623 -0.0715  0.1619 -0.7522
 6282SOL     OW24859   0.210   2.463   6.256 -0.1103 -0.1505  0.2957
 6282SOL    HW224860   0.261   2.543   6.247 -1.0067  0.2075 -2.5991
 6282SOL    HW324861   0.123   2.492   6.283  0.2225 -0.4304  1.7411
 6282SOL    MW424862   0.205   2.477   6.259 -0.1351  0.0395  0.1546
 6283SOL     OW24863   3.358   1.096   4.837  0.1919  0.5809  0.1458
 6283SOL    HW224864   3.349   1.137   4.923 -0.5297  2.2704 -0.6952
 6283SOL    HW324865   3.342   1.167   4.775  1.0549 -0.5295 -1.3957
 6283SOL    MW424866   3.354   1.111   4.841 -0.2228  0.0630 -0.1497
 6284SOL     OW24867   4.747   4.746   2.876  0.3394 -0.4439 -0.1993
 6284SOL    HW224868   4.801   4.820   2.902 -0.6139  1.2023 -2.5952
 6284SOL    HW324869   4.809   4.672   2.872  2.2700  1.1511 -1.9470
 6284SOL    MW424870   4.763   4.746   2.879 -0.1362  0.4236  0.7321
 6285SOL     OW24871   5.291   4.838   2.296 -0.0506 -0.0020  0.1690
 6285SOL    HW224872   5.213   4.810   2.248  2.0313 -0.9703 -2.8944
 6285SOL    HW324873   5.284   4.934   2.299 -1.9833 -0.1124  1.2812
 6285SOL    MW424874   5.280   4.847   2.290  0.0713  0.4052 -0.0165
 6286SOL     OW24875   1.431   4.767   0.934 -0.1774  0.1157 -0.4271
 6286SOL    HW224876   1.417   4.856   0.965  0.6207  1.0637 -2.5735
 6286SOL    HW324877   1.456   4.717   1.012  2.3273  2.4571  0.4060
 6286SOL    MW424878   1.432   4.772   0.948  0.3807 -0.1682 -0.7560
 6287SOL     OW24879   4.137   2.283   1.678 -0.0657  0.4367 -0.4317
 6287SOL    HW224880   4.042   2.292   1.674 -0.0948 -0.3110 -1.7005
 6287SOL    HW324881   4.158   2.212   1.617  1.4676  1.7254 -1.4976
 6287SOL    MW424882   4.127   2.275   1.670 -0.1485 -0.0531  0.0150
 6288SOL     OW24883   6.202   2.940   3.101  0.0110 -0.2868  0.3453
 6288SOL    HW224884   6.290   2.945   3.061  0.0804  2.1715  0.6921
 6288SOL    HW324885   6.191   2.847   3.122  1.4309 -1.1046 -2.1171
 6288SOL    MW424886   6.212   2.928   3.098 -0.3955  0.6605 -0.2877
 6289SOL     OW24887   2.413   4.568   0.559  0.1699  0.0914 -0.2863
 6289SOL    HW224888   2.372   4.549   0.475  1.9612  0.0599 -1.2008
 6289SOL    HW324889   2.341   4.568   0.622 -1.3799  1.2910 -1.9850
 6289SOL    MW424890   2.398   4.565   0.557  0.1140 -0.1729 -0.0662
 6290SOL     OW24891   0.945   0.614   1.855 -0.1717  0.0969 -0.3272
 6290SOL    HW224892   0.995   0.537   1.827 -0.7714  0.1729 -1.6571
 6290SOL    HW324893   1.012   0.676   1.886  0.2902 -1.1212  1.2506
 6290SOL    MW424894   0.961   0.612   1.856 -0.0990  0.3791 -0.6669
 6291SOL     OW24895   1.190   1.121   5.329 -0.0949 -0.4087  0.1538
 6291SOL    HW224896   1.158   1.038   5.295 -0.3358 -0.6957  1.0658
 6291SOL    HW324897   1.112   1.178   5.331  0.1853  0.0343 -1.0259
 6291SOL    MW424898   1.175   1.118   5.325  0.2987 -0.8259 -0.0955
 6292SOL     OW24899   4.622   5.210   3.757  0.4559  0.1671  0.1480
 6292SOL    HW224900   4.580   5.289   3.723 -0.1265 -0.6448 -1.0993
 6292SOL    HW324901   4.660   5.237   3.841 -0.6062  1.5056  0.2347
 6292SOL    MW424902   4.621   5.224   3.764 -0.3856 -0.2738  0.3028
 6293SOL     OW24903   5.889   3.928   2.041  0.1638 -0.3604  0.4533
 6293SOL    HW224904   5.857   4.007   2.085  0.5075 -0.9942  1.8959
 6293SOL    HW324905   5.963   3.900   2.094  0.6711 -1.0920 -0.6251
 6293SOL    MW424906   5.894   3.935   2.054  0.5427  0.3267  0.0096
 6294SOL     OW24907   4.366   3.530   4.936  0.1077 -0.1121 -0.0401
 6294SOL    HW224908   4.304   3.485   4.879  0.2470 -0.7531  0.3062
 6294SOL    HW324909   4.434   3.561   4.877 -0.8337  1.1406 -0.5165
 6294SOL    MW424910   4.367   3.528   4.921 -0.2226 -0.2408 -0.1080
 6295SOL     OW24911   0.826   2.411   0.630 -0.1143  0.2471  0.2668
 6295SOL    HW224912   0.744   2.375   0.663 -0.2973  0.6837  0.3056
 6295SOL    HW324913   0.826   2.388   0.537 -0.6483  0.8864  0.0961
 6295SOL    MW424914   0.815   2.403   0.622 -0.5550 -0.0369  0.4515
 6296SOL     OW24915   3.205   1.302   0.064  0.3768 -0.6555 -0.0063
 6296SOL    HW224916   3.175   1.240   0.130 -0.0088 -1.1459 -0.6312
 6296SOL    HW324917   3.231   1.380   0.114  1.2062 -1.4380  0.8163
 6296SOL    MW424918   3.204   1.304   0.079  0.4731 -0.2027  0.6502
 6297SOL     OW24919   0.366   6.394   3.760 -0.2796  0.3715 -0.3196
 6297SOL    HW224920   0.419   6.361   3.833  0.4046  1.0154 -0.5164
 6297SOL    HW324921   0.376   6.329   3.691 -0.5284  0.0077 -0.0123
 6297SOL    MW424922   0.374   6.381   3.761 -0.8775 -0.1818  0.3297
 6298SOL     OW24923   1.246   0.544   1.830 -0.6112  0.2009 -0.1473
 6298SOL    HW224924   1.341   0.538   1.845 -0.5153  2.8294  0.7785
 6298SOL    HW324925   1.238   0.601   1.754 -1.4852 -0.5305 -0.6275
 6298SOL    MW424926   1.258   0.551   1.822 -0.0081  0.4411 -0.0894
 6299SOL     OW24927   5.991   1.182  -0.023  0.2152 -0.2286 -0.4791
 6299SOL    HW224928   5.936   1.254   0.007 -1.1995 -1.2919 -0.4392
 6299SOL    HW324929   5.954   1.104   0.019  1.9038 -0.9674 -0.2482
 6299SOL    MW424930   5.979   1.181  -0.013  0.5736 -0.0707  0.0839
 6300SOL     OW24931   5.742   0.951   3.849  0.2997  0.3543 -0.0601
 6300SOL    HW224932   5.757   0.867   3.892  0.3390  0.1848 -0.4019
 6300SOL    HW324933   5.756   0.934   3.756 -0.6732  0.4988 -0.2465
 6300SOL    MW424934   5.746   0.938   3.842 -0.2155  0.2390 -0.2327
 6301SOL     OW24935   5.308   2.635   5.112 -0.3143 -0.1650 -0.2672
 6301SOL    HW224936   5.358   2.603   5.037  0.6723 -0.3892  0.4689
 6301SOL    HW324937   5.352   2.716   5.138 -0.2171 -0.4621  0.5066
 6301SOL    MW424938   5.320   2.642   5.105 -0.5156 -0.3348 -0.2676
 6302SOL     OW24939   4.509   4.781   6.354  0.0626 -0.1459  0.3576
 6302SOL    HW224940   4.513   4.686   6.356  0.3676 -0.1300  0.7860
 6302SOL    HW324941   4.481   4.806   6.442 -0.7476  0.1347  0.0253
 6302SOL    MW424942   4.506   4.772   6.366 -0.0946  0.2790  0.6195
 6303SOL     OW24943   5.519   3.543   6.222  0.2952  0.0333 -0.7678
 6303SOL    HW224944   5.500   3.456   6.258 -0.4782  0.7520  0.6718
 6303SOL    HW324945   5.486   3.539   6.132 -3.1964 -0.1141  0.3313
 6303SOL    MW424946   5.512   3.531   6.215 -0.3760 -0.5254  0.0652
 6304SOL     OW24947   6.237   5.761   1.691  0.6775 -0.2509 -0.1373
 6304SOL    HW224948   6.223   5.672   1.659  1.1251 -1.0032  1.6038
 6304SOL    HW324949   6.214   5.817   1.617  0.4728 -1.8039 -1.3154
 6304SOL    MW424950   6.232   5.757   1.677 -0.5010  0.4273  0.5828
 6305SOL     OW24951   3.812   0.332   0.907 -0.5086  0.1963  0.1901
 6305SOL    HW224952   3.798   0.240   0.931  1.8876  0.1905  1.9059
 6305SOL    HW324953   3.904   0.348   0.927  0.4297  1.7886 -4.2998
 6305SOL    MW424954   3.822   0.322   0.913 -0.2595  0.3578 -0.0188
 6306SOL     OW24955   0.055   1.507   1.065  0.4117  0.7361  0.2977
 6306SOL    HW224956  -0.027   1.528   1.021 -0.2529 -1.3137  0.4280
 6306SOL    HW324957   0.098   1.444   1.006  1.2922  0.8361  0.8178
 6306SOL    MW424958   0.050   1.501   1.051 -0.2175  0.3624  1.0118
 6307SOL     OW24959   6.405   3.410   5.743 -0.1834  0.2135 -0.0792
 6307SOL    HW224960   6.408   3.428   5.837  1.1123  0.7752 -0.2088
 6307SOL    HW324961   6.415   3.495   5.702 -1.2984  0.0382 -0.7401
 6307SOL    MW424962   6.407   3.423   5.750  0.3615  0.2072  0.4021
 6308SOL     OW24963   3.281   4.716   4.741 -0.6866 -0.3363  0.2023
 6308SOL    HW224964   3.217   4.707   4.811  0.2627 -1.8568  0.9338
 6308SOL    HW324965   3.234   4.693   4.661 -2.2174  2.9408  0.0081
 6308SOL    MW424966   3.267   4.712   4.739  0.3071 -0.3192 -0.1096
 6309SOL     OW24967   1.894   5.461   4.588  0.3470  0.2161 -0.0780
 6309SOL    HW224968   1.856   5.426   4.669 -0.5071 -2.8944 -1.6850
 6309SOL    HW324969   1.819   5.471   4.529  1.1161  1.2035 -0.9159
 6309SOL    MW424970   1.879   5.458   4.591  0.0584 -0.0759  0.0283
 6310SOL     OW24971   4.996   5.239   4.742 -0.4364  0.0167 -0.4201
 6310SOL    HW224972   4.927   5.299   4.716 -0.2620  1.6421  2.4634
 6310SOL    HW324973   5.075   5.272   4.699 -0.1342  2.6663  1.8811
 6310SOL    MW424974   4.997   5.251   4.733 -0.1613  0.0458 -0.7128
 6311SOL     OW24975   3.195   3.597   0.590 -0.1149 -0.0482 -0.5323
 6311SOL    HW224976   3.153   3.511   0.595  0.7989 -0.4767  2.8648
 6311SOL    HW324977   3.129   3.657   0.626  0.5220  0.0164  0.5640
 6311SOL    MW424978   3.180   3.594   0.596  0.0009 -0.0215  0.2012
 6312SOL     OW24979   0.028   3.453   4.799 -0.1659  0.0223 -0.0311
 6312SOL    HW224980   0.008   3.374   4.749 -1.7910  0.1642  0.3486
 6312SOL    HW324981  -0.027   3.521   4.759 -0.5654  0.4170  1.1535
 6312SOL    MW424982   0.018   3.452   4.787 -0.5157 -0.2186  0.9695
 6313SOL     OW24983   3.862   4.507   3.142 -0.3041  0.6876 -0.0249
 6313SOL    HW224984   3.929   4.447   3.110 -2.3100 -1.5895 -0.2829
 6313SOL    HW324985   3.839   4.560   3.065 -0.5887 -0.3296 -0.6648
 6313SOL    MW424986   3.868   4.506   3.127 -0.1612 -0.2828 -0.4459
 6314SOL     OW24987   4.554   0.653   5.762  0.6485 -0.4192  0.1964
 6314SOL    HW224988   4.479   0.593   5.758 -0.0573  0.4857 -0.7045
 6314SOL    HW324989   4.588   0.655   5.673  1.8475 -0.9179  0.6246
 6314SOL    MW424990   4.549   0.646   5.750  0.0703 -0.2788 -0.2417
 6315SOL     OW24991   6.031   3.215   3.478 -0.4460  0.7695 -0.1573
 6315SOL    HW224992   6.066   3.289   3.428  2.2883  0.0669  0.5804
 6315SOL    HW324993   6.029   3.245   3.568 -0.1212  0.2114  0.0375
 6315SOL    MW424994   6.035   3.229   3.483  0.0093 -0.9117  0.2182
 6316SOL     OW24995   0.049   1.195   5.391 -0.1387  0.3523 -0.0111
 6316SOL    HW224996   0.044   1.190   5.487 -1.2351  0.1162 -0.0675
 6316SOL    HW324997  -0.027   1.247   5.365 -0.2710 -0.2136 -0.7971
 6316SOL    MW424998   0.038   1.201   5.400  0.9476  0.3331  0.0185
 6317SOL     OW24999   4.899   4.514   3.771  0.4422 -0.3384 -0.3160
 6317SOL    HW225000   4.910   4.423   3.798  1.7255 -0.3019 -0.6579
 6317SOL    HW325001   4.939   4.518   3.684  0.9218  0.6673 -0.0667
 6317SOL    MW425002   4.906   4.503   3.763  0.0455 -0.4975 -0.4190
 6318SOL     OW25003   2.162   4.201   3.489  0.1001 -0.5756  0.4276
 6318SOL    HW225004   2.225   4.138   3.455 -0.0330 -0.4362 -0.0894
 6318SOL    HW325005   2.167   4.275   3.429 -0.6028 -0.5919  0.3382
 6318SOL    MW425006   2.171   4.202   3.477 -0.0532 -0.6813 -0.4451
 6319SOL     OW25007   1.410   1.628   1.211  0.0346  0.4957 -0.5117
 6319SOL    HW225008   1.327   1.585   1.190  0.5069 -0.0005 -1.4288
 6319SOL    HW325009   1.475   1.578   1.162  0.8079  1.2198 -0.2298
 6319SOL    MW425010   1.408   1.615   1.202  0.0841  0.5090  0.1071
 6320SOL     OW25011   3.271   3.751   3.474 -0.0602 -0.1903 -0.5801
 6320SOL    HW225012   3.294   3.780   3.386 -2.2352  0.0984 -1.1225
 6320SOL    HW325013   3.337   3.685   3.496  0.3817 -0.4515 -2.5222
 6320SOL    MW425014   3.283   3.746   3.465  0.7671  0.4498  0.4711
 6321SOL     OW25015   3.258   4.329   0.598 -0.3875  0.1491  0.7277
 6321SOL    HW225016   3.314   4.380   0.539 -1.7426  0.3265 -0.4629
 6321SOL    HW325017   3.291   4.348   0.686  0.9367  0.8130  0.0993
 6321SOL    MW425018   3.269   4.338   0.602  0.2744 -0.5166  0.1114
 6322SOL     OW25019   5.550   1.529   1.415 -0.0311 -0.0252  0.1228
 6322SOL    HW225020   5.603   1.470   1.362  0.5366  0.0643  0.5809
 6322SOL    HW325021   5.613   1.572   1.473 -0.3167  1.6058 -0.7251
 6322SOL    MW425022   5.565   1.527   1.416  0.7601  0.4252  0.7588
 6323SOL     OW25023   4.069   6.267   4.797 -0.3216  0.4139  0.2724
 6323SOL    HW225024   4.161   6.293   4.788 -0.4258  0.1898 -2.1344
 6323SOL    HW325025   4.023   6.348   4.819  0.1672  1.0492 -0.9502
 6323SOL    MW425026   4.075   6.281   4.798 -0.2704  0.4353  0.1271
 6324SOL     OW25027   3.268   2.566   3.270  0.0172 -0.2678  0.2358
 6324SOL    HW225028   3.339   2.629   3.276  0.0117 -0.2582  0.1985
 6324SOL    HW325029   3.229   2.565   3.358 -1.0462  1.0268 -0.1749
 6324SOL    MW425030   3.272   2.574   3.283  0.1197  0.0252  0.0908
 6325SOL     OW25031   3.157   5.032   4.110  0.0618  0.3439 -0.0924
 6325SOL    HW225032   3.066   5.048   4.088  0.0760  2.4565  1.1771
 6325SOL    HW325033   3.206   5.097   4.060  0.7187  0.4242  0.6378
 6325SOL    MW425034   3.152   5.042   4.101 -0.5531 -0.9297  0.4392
 6326SOL     OW25035   4.431   5.895   4.825 -0.6548  0.0316 -0.5913
 6326SOL    HW225036   4.378   5.875   4.748  0.6078 -2.1881 -0.9529
 6326SOL    HW325037   4.408   5.827   4.888 -0.0456  0.5241  0.1833
 6326SOL    MW425038   4.421   5.884   4.823 -1.0718  0.2683 -0.2714
 6327SOL     OW25039   3.904   0.925   3.314 -0.2449 -0.3304 -0.2928
 6327SOL    HW225040   3.906   1.018   3.292 -1.7834 -0.0574  0.6155
 6327SOL    HW325041   3.990   0.908   3.353  0.2303  0.5756 -0.9180
 6327SOL    MW425042   3.916   0.935   3.316 -0.3787 -0.0919  0.3037
 6328SOL     OW25043   4.269   0.483   5.302  0.5168 -0.3113  0.2341
 6328SOL    HW225044   4.296   0.494   5.211 -1.0438  2.5826  0.0201
 6328SOL    HW325045   4.328   0.540   5.351  1.1372 -1.6115  1.0595
 6328SOL    MW425046   4.281   0.492   5.296  0.1179 -0.4153  0.1544
 6329SOL     OW25047   4.500   0.978   3.236  0.0612 -0.3283  0.3175
 6329SOL    HW225048   4.472   1.024   3.315 -0.4975  0.0905 -0.1151
 6329SOL    HW325049   4.552   0.904   3.269 -0.6447 -0.5000  1.1028
 6329SOL    MW425050   4.503   0.974   3.251 -0.2147  0.3473  0.3868
 6330SOL     OW25051   4.877   5.283   4.426 -0.2411 -0.2445  0.3035
 6330SOL    HW225052   4.894   5.190   4.440  0.6121 -0.0499  0.5513
 6330SOL    HW325053   4.879   5.322   4.513  2.5066  0.5162 -0.0230
 6330SOL    MW425054   4.879   5.276   4.439  0.2682  0.3186  0.3012
 6331SOL     OW25055   4.123   5.061   4.798  0.3457  0.1331  0.7004
 6331SOL    HW225056   4.157   5.078   4.886 -0.2948 -1.2371  1.2402
 6331SOL    HW325057   4.045   5.116   4.791  1.0016  1.0867  0.5394
 6331SOL    MW425058   4.117   5.071   4.809 -0.5206 -0.3352  0.2887
 6332SOL     OW25059   0.988   1.941   3.952 -0.0861  0.0443 -0.0828
 6332SOL    HW225060   1.071   1.901   3.978  0.4607  0.9283 -0.4459
 6332SOL    HW325061   0.922   1.890   4.000  0.6747 -0.4759  0.4503
 6332SOL    MW425062   0.990   1.929   3.962 -0.2113  0.4351 -0.4322
 6333SOL     OW25063   5.227   5.705   5.320 -0.7513 -0.5413  0.4039
 6333SOL    HW225064   5.225   5.609   5.317 -0.2620 -0.5165 -1.2796
 6333SOL    HW325065   5.139   5.732   5.294 -1.1398 -0.5124  1.6585
 6333SOL    MW425066   5.215   5.696   5.316 -0.1551  0.3141 -0.2882
 6334SOL     OW25067   2.437   3.372   3.312  0.2659 -0.4402 -0.6401
 6334SOL    HW225068   2.496   3.383   3.238  0.9623 -2.7025 -0.4779
 6334SOL    HW325069   2.388   3.292   3.294 -1.2931  0.2493  0.2362
 6334SOL    MW425070   2.438   3.363   3.300  0.0031 -0.2762 -0.2695
 6335SOL     OW25071   5.636   3.866   0.332 -0.1855 -0.6572 -0.0421
 6335SOL    HW225072   5.704   3.799   0.346 -1.2176 -1.6945  0.1311
 6335SOL    HW325073   5.564   3.839   0.389 -0.7331  0.4650 -0.1842
 6335SOL    MW425074   5.636   3.854   0.341  0.5990 -0.3653  0.0311
 6336SOL     OW25075   2.705   2.120   5.124  0.7278 -0.2578 -0.3536
 6336SOL    HW225076   2.758   2.098   5.047  1.5087 -0.1187  0.1333
 6336SOL    HW325077   2.658   2.039   5.145  1.0043 -0.4797 -0.5917
 6336SOL    MW425078   2.706   2.106   5.117 -0.5002 -0.0764  0.2943
 6337SOL     OW25079   0.006   2.692   6.060  0.6544  0.4962  0.2268
 6337SOL    HW225080   0.096   2.669   6.036  0.7296  1.6391 -0.6413
 6337SOL    HW325081   0.014   2.773   6.111  0.2544 -0.4364  1.8710
 6337SOL    MW425082   0.019   2.699   6.064  0.6399 -0.0499  0.2152
 6338SOL     OW25083   0.503   4.582   1.443  0.1931  0.3079 -0.4288
 6338SOL    HW225084   0.592   4.572   1.409  0.1520  0.8192 -0.6988
 6338SOL    HW325085   0.498   4.522   1.517  0.9047  0.6111 -0.1344
 6338SOL    MW425086   0.514   4.573   1.448  0.0497  0.3912 -0.1976
 6339SOL     OW25087   2.209   3.930   3.123 -0.0971  0.5706 -0.1226
 6339SOL    HW225088   2.118   3.929   3.093  0.2090 -2.2145 -1.2668
 6339SOL    HW325089   2.203   3.919   3.218 -0.9497  0.2494 -0.2062
 6339SOL    MW425090   2.196   3.928   3.131 -0.2641  0.3090 -0.7189
 6340SOL     OW25091   5.105   3.859   5.633  1.3529 -0.2229  0.0812
 6340SOL    HW225092   5.177   3.922   5.619  1.9980 -0.7492  0.9249
 6340SOL    HW325093   5.136   3.778   5.593  1.0922 -0.3683  0.1721
 6340SOL    MW425094   5.119   3.857   5.626 -0.0574  0.2706 -0.3564
 6341SOL     OW25095   3.137   1.681   3.881  0.3692 -0.1299  0.1146
 6341SOL    HW225096   3.131   1.742   3.807 -0.7341  0.4037  0.6332
 6341SOL    HW325097   3.206   1.718   3.937 -1.2182  1.4425  1.1172
 6341SOL    MW425098   3.145   1.694   3.879 -0.1250  0.7473 -0.2703
 6342SOL     OW25099   6.204   3.862   3.939 -0.0996  0.1484 -0.2808
 6342SOL    HW225100   6.236   3.836   4.026 -1.0248  0.5683  0.1943
 6342SOL    HW325101   6.283   3.889   3.892  0.3819  0.1762  0.5220
 6342SOL    MW425102   6.219   3.862   3.944  0.1490 -1.1013  0.1927
 6343SOL     OW25103   1.335   0.894   4.022 -0.2519 -0.0176  0.0287
 6343SOL    HW225104   1.411   0.951   4.037  1.8296 -2.6515  0.2928
 6343SOL    HW325105   1.332   0.837   4.099 -0.7590 -1.7702 -1.2224
 6343SOL    MW425106   1.345   0.894   4.034  0.0108  0.1441  0.2474
 6344SOL     OW25107   3.345   0.613   5.368  0.0551  0.8523  0.4516
 6344SOL    HW225108   3.376   0.533   5.327 -1.0038  0.9412 -0.5690
 6344SOL    HW325109   3.414   0.637   5.429  0.4101 -0.8137  0.7549
 6344SOL    MW425110   3.358   0.605   5.371 -0.3296  0.9264 -0.0201
 6345SOL     OW25111   3.473   4.077   3.845 -0.4981  0.3788  0.4580
 6345SOL    HW225112   3.419   4.074   3.924 -1.0187  0.4235  0.1110
 6345SOL    HW325113   3.563   4.080   3.878 -0.7531  2.2341  1.0887
 6345SOL    MW425114   3.478   4.077   3.860  0.2244  0.4583  0.0281
 6346SOL     OW25115   4.154   2.851   4.970 -0.0909 -0.9528  0.5242
 6346SOL    HW225116   4.069   2.811   4.950 -1.0023  1.9911 -2.4693
 6346SOL    HW325117   4.211   2.826   4.898  1.1654 -1.6277  1.7043
 6346SOL    MW425118   4.150   2.843   4.958 -0.3573  0.7209 -0.2570
 6347SOL     OW25119   1.739   5.720   3.869  0.1686  0.2784  0.0113
 6347SOL    HW225120   1.719   5.679   3.785  1.3477  1.6720 -1.0117
 6347SOL    HW325121   1.811   5.780   3.849 -0.6109  1.8505  1.6732
 6347SOL    MW425122   1.746   5.723   3.855 -0.5741  0.2745 -0.1788
 6348SOL     OW25123   4.210   3.493   5.897 -0.3327  0.1599  0.4527
 6348SOL    HW225124   4.294   3.513   5.938 -0.4253 -0.0042  0.7247
 6348SOL    HW325125   4.215   3.400   5.874 -1.1536 -0.3715  2.2158
 6348SOL    MW425126   4.221   3.483   5.900 -0.3151 -0.7582 -0.2334
 6349SOL     OW25127   2.597   1.834   2.085  0.4335  0.1779 -0.2813
 6349SOL    HW225128   2.613   1.862   1.995 -1.2666 -0.8076 -0.9406
 6349SOL    HW325129   2.616   1.740   2.084  2.1583  0.4633  0.8855
 6349SOL    MW425130   2.602   1.825   2.073 -0.0070 -0.3538 -0.2131
 6350SOL     OW25131   5.716   5.740   6.108 -0.3098 -0.1646 -0.3801
 6350SOL    HW225132   5.685   5.722   6.197  1.5079 -0.9531  0.1535
 6350SOL    HW325133   5.724   5.835   6.104 -1.1628 -0.0664  0.0166
 6350SOL    MW425134   5.713   5.750   6.119  0.5376  0.2316 -0.5745
 6351SOL     OW25135   2.022   1.127   0.977 -0.2645  0.5374  0.0197
 6351SOL    HW225136   1.976   1.131   1.061 -0.3618  0.2756 -0.0193
 6351SOL    HW325137   2.113   1.114   1.001 -0.6249 -2.5788  0.0777
 6351SOL    MW425138   2.028   1.126   0.991  0.1657 -0.3140 -0.5078
 6352SOL     OW25139   2.029   4.251   1.773 -0.2911  0.0378  0.6069
 6352SOL    HW225140   1.991   4.334   1.747  0.3938 -0.0749 -0.8714
 6352SOL    HW325141   2.106   4.275   1.825 -0.4964  0.2975  0.7969
 6352SOL    MW425142   2.034   4.265   1.777  0.2655  0.5454  0.7567
 6353SOL     OW25143   0.910   0.640   3.094  0.6300  0.0121  0.7452
 6353SOL    HW225144   0.836   0.592   3.132 -0.6377  1.1705 -0.1369
 6353SOL    HW325145   0.933   0.592   3.015 -0.0641  0.3556  0.3241
 6353SOL    MW425146   0.903   0.628   3.089 -0.4482 -0.3297  0.4532
 6354SOL     OW25147   2.583   1.725   4.621 -0.4264 -0.1726 -0.1441
 6354SOL    HW225148   2.613   1.681   4.542 -0.1108 -0.1577 -0.0365
 6354SOL    HW325149   2.649   1.793   4.636  0.0088 -0.7482  0.6312
 6354SOL    MW425150   2.596   1.729   4.613 -0.6686 -0.5856 -0.6339
 6355SOL     OW25151   0.618   5.699   6.134  0.0121 -0.2363 -0.3827
 6355SOL    HW225152   0.651   5.613   6.160 -0.8353 -0.0214  1.5452
 6355SOL    HW325153   0.658   5.715   6.049 -0.0277 -2.6576 -0.9348
 6355SOL    MW425154   0.628   5.690   6.126  0.0715 -0.0762 -0.5900
 6356SOL     OW25155   3.264   3.660   1.337  0.2768 -0.6116 -0.3494
 6356SOL    HW225156   3.287   3.745   1.300  2.0273 -1.4508 -1.3578
 6356SOL    HW325157   3.190   3.630   1.285  1.2247 -0.7425 -1.6962
 6356SOL    MW425158   3.257   3.667   1.325 -0.1733 -0.6380 -0.9232
 6357SOL     OW25159   3.789   1.139   0.277 -0.7446 -0.3047 -0.3364
 6357SOL    HW225160   3.807   1.170   0.366 -0.3037  0.1932 -0.5925
 6357SOL    HW325161   3.829   1.205   0.220 -1.7845 -0.1542 -0.9178
 6357SOL    MW425162   3.797   1.152   0.281 -0.3651  0.3616 -0.0776
 6358SOL     OW25163   4.060   4.662   3.291  0.5440  0.3109  0.3820
 6358SOL    HW225164   4.042   4.753   3.269  0.0037  0.2241  0.4540
 6358SOL    HW325165   3.985   4.613   3.257  1.3569 -0.2548 -0.6484
 6358SOL    MW425166   4.048   4.668   3.284  0.7349  0.3191  0.1324
 6359SOL     OW25167   1.331   5.049   4.288  0.4885  0.4817  0.7471
 6359SOL    HW225168   1.389   5.109   4.242  1.9338  0.5025  2.5028
 6359SOL    HW325169   1.248   5.095   4.294  0.5871  0.9123 -0.8312
 6359SOL    MW425170   1.328   5.063   4.283 -0.4004  0.3419  0.3728
 6360SOL     OW25171   1.147   5.909   5.234 -0.2155  0.2552 -0.2009
 6360SOL    HW225172   1.203   5.833   5.223  3.0093  2.4836 -0.7658
 6360SOL    HW325173   1.105   5.896   5.319 -0.1038 -2.2750 -0.4709
 6360SOL    MW425174   1.149   5.898   5.244 -0.1524 -0.7268 -0.0296
 6361SOL     OW25175   5.937   1.026   5.739  0.2039 -0.3016 -0.0296
 6361SOL    HW225176   5.969   0.977   5.815  1.8829  0.8856  0.0842
 6361SOL    HW325177   6.002   1.095   5.726 -0.5601  0.1105 -1.9765
 6361SOL    MW425178   5.950   1.029   5.748 -0.2195 -0.0511  0.6359
 6362SOL     OW25179   0.897   6.191   6.349 -0.1513  0.8179 -0.7051
 6362SOL    HW225180   0.876   6.264   6.290 -1.7503 -0.7050 -2.1373
 6362SOL    HW325181   0.969   6.144   6.305 -1.6195 -0.5569 -1.7389
 6362SOL    MW425182   0.904   6.194   6.335 -0.6014 -0.6486  0.5851
 6363SOL     OW25183   2.417   2.233   4.037  0.3052  0.6502 -0.0846
 6363SOL    HW225184   2.399   2.327   4.027  1.0785  0.6416 -1.9818
 6363SOL    HW325185   2.400   2.196   3.951  0.0177 -0.9855  0.6361
 6363SOL    MW425186   2.412   2.241   4.025 -0.0133  0.3421 -0.1380
 6364SOL     OW25187   1.422   5.203   2.233 -0.3530 -0.2265 -0.5176
 6364SOL    HW225188   1.403   5.218   2.326  0.6302 -1.8876  0.0031
 6364SOL    HW325189   1.516   5.219   2.225 -0.7637  1.8748 -1.7000
 6364SOL    MW425190   1.432   5.207   2.244 -0.1210 -0.5824  1.0521
 6365SOL     OW25191   4.315   1.388   5.849 -0.1926  0.0731  0.0468
 6365SOL    HW225192   4.361   1.472   5.854 -0.1363  0.1359 -1.1999
 6365SOL    HW325193   4.312   1.368   5.755 -1.2581 -0.7367  0.2400
 6365SOL    MW425194   4.321   1.396   5.837 -0.2247 -0.9103  0.4820
 6366SOL     OW25195   6.097   1.447   5.179  0.1058 -0.5606 -0.1042
 6366SOL    HW225196   6.185   1.479   5.202 -0.3680  0.2798  0.5956
 6366SOL    HW325197   6.080   1.484   5.092 -0.0911  0.4180  0.3380
 6366SOL    MW425198   6.107   1.456   5.171  0.4666  0.1413  0.0271
 6367SOL     OW25199   3.588   1.413   0.329  0.1827  0.1352  0.0938
 6367SOL    HW225200   3.619   1.350   0.264 -2.9640 -1.8586  0.2956
 6367SOL    HW325201   3.502   1.440   0.297 -1.0120 -0.1088  2.8240
 6367SOL    MW425202   3.581   1.408   0.317 -0.2996  0.0376 -1.1117
 6368SOL     OW25203   2.813   5.474   5.263  0.4975  0.0910 -0.0809
 6368SOL    HW225204   2.824   5.567   5.243  0.6258  0.4266  1.3976
 6368SOL    HW325205   2.718   5.462   5.273  0.4307 -0.0836 -0.8396
 6368SOL    MW425206   2.802   5.485   5.262 -0.0978  0.0929  0.0593
 6369SOL     OW25207   6.255   4.903   0.253 -0.1185 -0.1863  0.6662
 6369SOL    HW225208   6.224   4.920   0.342 -1.1664 -1.8729  0.6835
 6369SOL    HW325209   6.328   4.964   0.241 -0.5884  0.7792  2.3014
 6369SOL    MW425210   6.261   4.913   0.264 -0.2246  0.4853  0.3291
 6370SOL     OW25211   0.136   4.888   2.408  0.0297  0.3407 -0.3187
 6370SOL    HW225212   0.133   4.954   2.339 -1.7483  0.5696 -0.0648
 6370SOL    HW325213   0.210   4.914   2.463  0.5063  1.0379 -1.2626
 6370SOL    MW425214   0.145   4.900   2.406 -0.2698 -0.6748  0.0385
 6371SOL     OW25215   3.090   2.126   4.228  0.2911 -0.5332 -0.0878
 6371SOL    HW225216   3.164   2.080   4.266  0.0556 -0.0281  1.0112
 6371SOL    HW325217   3.023   2.059   4.216 -0.1364 -0.4681  1.7166
 6371SOL    MW425218   3.091   2.111   4.231  0.0603 -0.3429 -0.0750
 6372SOL     OW25219   5.212   1.568   2.376  0.8534  0.6452 -0.1980
 6372SOL    HW225220   5.131   1.578   2.427  1.2263  0.8198  0.3602
 6372SOL    HW325221   5.271   1.634   2.411  1.3882  0.2326 -0.3168
 6372SOL    MW425222   5.209   1.578   2.388 -0.7914 -0.5249  0.3081
 6373SOL     OW25223   2.031   6.175   0.636  0.1244  0.0194 -0.3419
 6373SOL    HW225224   2.115   6.187   0.682 -0.0752  2.6577 -0.4916
 6373SOL    HW325225   1.977   6.249   0.665 -1.7328 -0.9483 -1.1720
 6373SOL    MW425226   2.035   6.186   0.646  0.3483 -0.8321  0.2543
 6374SOL     OW25227   6.259   1.279   2.626 -0.0283 -0.4047  0.1541
 6374SOL    HW225228   6.339   1.226   2.629 -0.5008 -1.1155  0.6332
 6374SOL    HW325229   6.207   1.239   2.557 -0.9293 -1.3995  1.3608
 6374SOL    MW425230   6.263   1.267   2.617  0.1982 -0.4447  0.0357
 6375SOL     OW25231   1.464   5.837   2.932 -0.0586 -0.4633 -0.5011
 6375SOL    HW225232   1.500   5.912   2.980 -0.3573  0.8048 -2.1902
 6375SOL    HW325233   1.387   5.812   2.982  0.4539 -0.1309  0.4918
 6375SOL    MW425234   1.459   5.844   2.945 -0.1157 -0.2089 -0.2664
 6376SOL     OW25235   6.214   5.005   3.033 -0.7532 -0.1870 -0.1153
 6376SOL    HW225236   6.262   4.950   3.094 -1.0431 -0.1173  0.1766
 6376SOL    HW325237   6.157   4.944   2.986  0.6302 -0.4892 -1.4704
 6376SOL    MW425238   6.213   4.989   3.035  0.5327 -0.3640 -0.3327
 6377SOL     OW25239   5.912   5.034   2.184  0.0143  0.6556 -0.1955
 6377SOL    HW225240   5.950   4.947   2.201  1.0041  0.9649 -0.7152
 6377SOL    HW325241   5.942   5.088   2.258 -0.5387  0.5759  0.0892
 6377SOL    MW425242   5.921   5.030   2.196 -0.6267  0.0429  0.5591
 6378SOL     OW25243   1.021   4.982   4.523 -0.1228 -0.3003  0.1833
 6378SOL    HW225244   0.986   4.905   4.479  1.2571 -0.5188 -0.6017
 6378SOL    HW325245   1.037   5.045   4.453 -1.5830  0.8852  0.8561
 6378SOL    MW425246   1.019   4.981   4.508  0.4950  0.3458  0.3418
 6379SOL     OW25247   0.139   4.875   4.270  0.2118 -0.2564 -0.0367
 6379SOL    HW225248   0.075   4.911   4.209  0.6618 -1.1379 -1.0598
 6379SOL    HW325249   0.089   4.856   4.349  0.0092  2.9350  0.7572
 6379SOL    MW425250   0.124   4.877   4.273  0.4235 -0.1532 -0.4070
 6380SOL     OW25251   4.983   5.358   1.869 -0.0286 -0.0370  0.2888
 6380SOL    HW225252   5.003   5.272   1.831  3.1345  0.7048 -0.0517
 6380SOL    HW325253   5.014   5.352   1.960  1.7738  1.1615 -0.1957
 6380SOL    MW425254   4.990   5.346   1.876 -0.4157  0.3097 -0.2588
 6381SOL     OW25255   5.895   3.376   0.475  0.1699  0.2785  0.3844
 6381SOL    HW225256   5.831   3.403   0.409  0.2370 -1.4940 -0.4574
 6381SOL    HW325257   5.850   3.385   0.558 -0.5018  0.8967 -0.0354
 6381SOL    MW425258   5.881   3.381   0.477  0.1687 -0.4865 -0.1036
 6382SOL     OW25259   4.806   4.305   4.609  0.2753  0.1900 -0.1443
 6382SOL    HW225260   4.766   4.288   4.694 -0.1166 -0.3952 -0.4430
 6382SOL    HW325261   4.900   4.298   4.626  0.2486  1.0562  0.4432
 6382SOL    MW425262   4.813   4.302   4.622 -0.2489 -0.3477 -0.1925
 6383SOL     OW25263   2.178   2.119   4.125  0.1518 -0.0061 -0.4454
 6383SOL    HW225264   2.258   2.159   4.091 -0.2221  0.8415 -0.3686
 6383SOL    HW325265   2.155   2.052   4.061  0.4118  0.3831 -0.9588
 6383SOL    MW425266   2.185   2.116   4.112  0.0616 -0.7744  0.0930
 6384SOL     OW25267   0.265   1.781   0.261  0.0835  0.4581  0.1765
 6384SOL    HW225268   0.251   1.708   0.321  0.4877 -0.9258 -1.3555
 6384SOL    HW325269   0.301   1.850   0.317  1.1534 -1.0185  1.4072
 6384SOL    MW425270   0.268   1.781   0.277  0.0722  0.0273  0.1527
 6385SOL     OW25271   5.198   2.973   6.333 -0.1901  0.0747  0.3115
 6385SOL    HW225272   5.285   2.933   6.328 -0.6673 -1.7707  3.6845
 6385SOL    HW325273   5.206   3.036   6.405 -1.6205 -0.0451  0.5917
 6385SOL    MW425274   5.211   2.976   6.342  0.0006  0.9477 -0.7460
 6386SOL     OW25275   3.814   2.560   1.911 -0.1088  0.1125  0.5029
 6386SOL    HW225276   3.725   2.565   1.946 -0.0699  0.9422  0.5113
 6386SOL    HW325277   3.814   2.623   1.838 -0.1659 -1.5155 -0.9551
 6386SOL    MW425278   3.802   2.569   1.906 -0.0072  0.0068 -0.5309
 6387SOL     OW25279   1.912   2.378   5.313 -0.0482 -0.4464 -0.4154
 6387SOL    HW225280   1.935   2.371   5.406  0.4884  0.7320 -0.4384
 6387SOL    HW325281   1.877   2.292   5.290 -0.7496 -0.5788  1.0279
 6387SOL    MW425282   1.910   2.366   5.323  0.4417 -0.2472 -0.2072
 6388SOL     OW25283   3.639   3.517   4.665 -0.4547 -0.6133 -0.3515
 6388SOL    HW225284   3.629   3.534   4.759  3.4957 -0.2987  0.1770
 6388SOL    HW325285   3.611   3.598   4.623  0.4509  0.3374  0.8111
 6388SOL    MW425286   3.634   3.530   4.672 -0.0497  0.6415  0.1591
 6389SOL     OW25287   6.040   2.443   1.017 -0.0548  0.3962  0.2489
 6389SOL    HW225288   6.067   2.404   0.934  0.8021  1.9103 -0.2430
 6389SOL    HW325289   5.964   2.497   0.994 -0.7695 -0.3736  0.7655
 6389SOL    MW425290   6.033   2.445   1.003 -0.2044 -0.4002 -0.8683
 6390SOL     OW25291   2.380   0.881   1.575 -0.2407  0.8661 -0.0376
 6390SOL    HW225292   2.290   0.848   1.579  0.0874  0.0132  0.7513
 6390SOL    HW325293   2.384   0.932   1.494 -1.1447  0.0305 -0.6260
 6390SOL    MW425294   2.369   0.883   1.565 -0.2053  0.0252 -0.6271
 6391SOL     OW25295   2.377   2.007   4.917 -0.4792  0.1661  0.2662
 6391SOL    HW225296   2.316   2.081   4.915 -0.5423  0.1033 -0.9235
 6391SOL    HW325297   2.430   2.017   4.838  0.7297 -0.0626  1.0249
 6391SOL    MW425298   2.376   2.018   4.907  0.1807  0.4627 -0.0762
 6392SOL     OW25299   0.185   3.324   5.180  0.3350  0.8056 -0.1384
 6392SOL    HW225300   0.163   3.231   5.183 -0.5307  1.0274  1.2033
 6392SOL    HW325301   0.271   3.326   5.138 -0.3621 -0.4294 -1.7495
 6392SOL    MW425302   0.194   3.312   5.175  0.5923 -0.2678 -0.5116
 6393SOL     OW25303   1.519   0.537   1.868 -0.2072 -0.5585 -0.1051
 6393SOL    HW225304   1.599   0.522   1.818 -0.8249 -0.1381 -1.2783
 6393SOL    HW325305   1.547   0.585   1.945  0.6050  0.2083 -0.8484
 6393SOL    MW425306   1.533   0.542   1.871  0.0007  0.3132 -0.1744
 6394SOL     OW25307   6.246   1.938   3.523 -0.0903  0.6922  0.0496
 6394SOL    HW225308   6.339   1.924   3.539 -0.0609 -0.0084 -0.6534
 6394SOL    HW325309   6.241   2.021   3.476  0.3131  0.0518 -1.1427
 6394SOL    MW425310   6.258   1.947   3.519  0.0416  0.1308 -0.5148
 6395SOL     OW25311   4.140   4.678   0.462 -0.4384  0.0434  0.0360
 6395SOL    HW225312   4.224   4.634   0.446  0.1574  1.4105 -0.7806
 6395SOL    HW325313   4.088   4.614   0.510  1.3560 -0.5660  1.2636
 6395SOL    MW425314   4.145   4.664   0.466 -0.3244  0.1494  0.0601
 6396SOL     OW25315   4.187   0.057   4.353 -0.0801 -0.2204  0.1073
 6396SOL    HW225316   4.122  -0.001   4.392 -1.5945  1.3771  0.0674
 6396SOL    HW325317   4.226   0.005   4.282 -1.8857 -0.9608 -0.3890
 6396SOL    MW425318   4.184   0.043   4.349  0.8204 -0.4151  0.5835
 6397SOL     OW25319   2.317   4.475   0.293  0.3344  0.1173 -0.2909
 6397SOL    HW225320   2.297   4.499   0.203 -1.7681  0.0998  0.1380
 6397SOL    HW325321   2.350   4.385   0.286  0.4591  0.2115 -1.0608
 6397SOL    MW425322   2.319   4.466   0.280 -0.9522  0.2740 -0.4225
 6398SOL     OW25323   4.467   0.989   0.299  0.2436  0.1828  0.1986
 6398SOL    HW225324   4.476   0.973   0.393  0.4125 -1.2232 -0.0297
 6398SOL    HW325325   4.377   0.965   0.279  0.5975 -0.8418 -0.2202
 6398SOL    MW425326   4.456   0.984   0.309  0.1411 -0.0588 -0.6080
 6399SOL     OW25327   2.612   1.211   3.583  0.5270  0.1414  0.3529
 6399SOL    HW225328   2.617   1.124   3.622 -1.2029  0.2286  0.8607
 6399SOL    HW325329   2.554   1.200   3.507 -0.7746  1.0600  1.1672
 6399SOL    MW425330   2.605   1.198   3.578  0.1400 -0.1594  0.0511
 6400SOL     OW25331   2.102   5.132   1.571  0.0419 -0.2388 -0.0468
 6400SOL    HW225332   2.171   5.142   1.505 -0.1561 -2.4487 -0.6373
 6400SOL    HW325333   2.065   5.046   1.555 -0.4067 -0.6258  2.6009
 6400SOL    MW425334   2.106   5.122   1.560  0.2217  0.0750 -0.0026
 6401SOL     OW25335   4.599   2.184   4.398  0.2916 -0.2621  0.6795
 6401SOL    HW225336   4.555   2.191   4.483  2.0033 -3.1869  1.9312
 6401SOL    HW325337   4.584   2.094   4.371 -0.1017  0.5689 -2.1396
 6401SOL    MW425338   4.591   2.173   4.406  0.6528 -0.0345  0.1812
 6402SOL     OW25339   0.842   5.684   1.441  0.7794  0.1664 -0.4843
 6402SOL    HW225340   0.911   5.740   1.477  1.7290  0.0425 -2.0016
 6402SOL    HW325341   0.889   5.607   1.408 -0.1947 -0.3010 -0.8215
 6402SOL    MW425342   0.857   5.681   1.441  0.2698  0.5535  0.0361
 6403SOL     OW25343   1.138   0.438   2.526  0.0082  0.4893 -0.2374
 6403SOL    HW225344   1.156   0.501   2.456 -0.1714  0.8920  0.0704
 6403SOL    HW325345   1.078   0.484   2.585 -0.4451 -0.1167 -0.2096
 6403SOL    MW425346   1.132   0.452   2.525  0.3330  0.2270 -0.6410
 6404SOL     OW25347   1.044   1.698   4.352  0.0356  0.0858  0.3357
 6404SOL    HW225348   1.041   1.701   4.447  1.8338 -1.0283  0.4775
 6404SOL    HW325349   1.037   1.605   4.330  3.7581 -0.1989 -0.3026
 6404SOL    MW425350   1.043   1.686   4.362  0.3195 -0.6336  0.0070
 6405SOL     OW25351   3.553   3.782   0.346  0.1522  0.1299  0.4624
 6405SOL    HW225352   3.530   3.717   0.412 -1.1543 -1.5536 -1.5194
 6405SOL    HW325353   3.473   3.792   0.293  1.7215 -0.2592 -2.1724
 6405SOL    MW425354   3.539   3.775   0.347 -0.2241 -0.0289  0.1193
 6406SOL     OW25355   5.412   6.301   2.499  0.1433  0.0835  0.2350
 6406SOL    HW225356   5.378   6.335   2.582  0.4198  0.2119  0.3004
 6406SOL    HW325357   5.335   6.271   2.452  0.0050 -0.2159  0.6413
 6406SOL    MW425358   5.398   6.302   2.504 -0.0489 -0.1929 -0.4938
 6407SOL     OW25359   1.963   3.280   1.686  0.1769 -0.0486  0.1662
 6407SOL    HW225360   1.992   3.338   1.616 -0.8034 -1.6145 -1.6338
 6407SOL    HW325361   2.000   3.194   1.664 -0.1951 -0.5984  1.5550
 6407SOL    MW425362   1.972   3.276   1.674 -0.3688  0.2451 -0.4802
 6408SOL     OW25363   0.880   1.766   4.141  0.1162  0.2314 -0.5524
 6408SOL    HW225364   0.937   1.741   4.214  1.3876 -0.7076 -1.8254
 6408SOL    HW325365   0.813   1.698   4.139  0.3630 -0.0159 -0.5488
 6408SOL    MW425366   0.879   1.754   4.151 -0.3949  0.8151  0.3272
 6409SOL     OW25367   5.150   1.402   1.917 -0.4456  0.0378 -0.5634
 6409SOL    HW225368   5.152   1.331   1.852 -0.4557  1.7225 -2.5062
 6409SOL    HW325369   5.219   1.379   1.979  1.3149 -0.4221 -2.5565
 6409SOL    MW425370   5.159   1.389   1.916  0.0943 -0.0713  0.1523
 6410SOL     OW25371   2.185   3.059   4.649 -0.0373  0.0678  0.1136
 6410SOL    HW225372   2.199   3.092   4.738  3.0742  1.1814 -0.6461
 6410SOL    HW325373   2.261   3.090   4.600 -1.3869 -0.9254 -2.8536
 6410SOL    MW425374   2.197   3.068   4.654  0.2744  0.4083  0.4428
 6411SOL     OW25375   4.058   3.980   0.273  0.5431  0.0863  0.7006
 6411SOL    HW225376   4.139   3.939   0.305 -0.3510 -0.8607  1.8489
 6411SOL    HW325377   4.013   3.911   0.224 -0.2277  0.1562  1.2864
 6411SOL    MW425378   4.063   3.966   0.271  0.2393  0.3035 -0.1948
 6412SOL     OW25379   6.253   5.919   0.864  0.2970 -0.2996 -0.3482
 6412SOL    HW225380   6.176   5.875   0.829 -1.0730  1.1692  0.7118
 6412SOL    HW325381   6.226   6.009   0.877  1.0847 -0.4335  3.2563
 6412SOL    MW425382   6.239   5.925   0.861 -0.0207 -0.2549  0.0631
 6413SOL     OW25383   1.716   2.438   6.105 -0.3529 -0.2078  0.0895
 6413SOL    HW225384   1.737   2.465   6.015  0.3877 -0.2905  0.2277
 6413SOL    HW325385   1.801   2.433   6.149 -0.7897  0.8626  1.1001
 6413SOL    MW425386   1.730   2.441   6.099  0.1983  0.4580  0.4514
 6414SOL     OW25387   5.545   5.114   4.959 -0.2131 -0.1646 -0.4768
 6414SOL    HW225388   5.480   5.047   4.981 -1.4643  1.6292  1.8171
 6414SOL    HW325389   5.629   5.069   4.964 -0.7991 -1.1748  3.3968
 6414SOL    MW425390   5.547   5.100   4.962  0.3065  0.0406  0.1626
 6415SOL     OW25391   2.882   2.960   2.500 -0.3522 -0.0662 -0.4190
 6415SOL    HW225392   2.873   2.904   2.578 -0.7090 -0.2070 -0.5568
 6415SOL    HW325393   2.836   3.040   2.523 -0.6095 -0.1769 -0.5512
 6415SOL    MW425394   2.875   2.963   2.514  0.1605  0.2551  0.1954
 6416SOL     OW25395   1.917   3.706   1.977 -0.3015 -0.1758  0.2281
 6416SOL    HW225396   1.821   3.711   1.975 -0.4511 -2.3074 -0.7455
 6416SOL    HW325397   1.936   3.612   1.981  1.7290  0.0113 -2.3219
 6416SOL    MW425398   1.907   3.694   1.977  0.4526 -0.0324  0.0689
 6417SOL     OW25399   3.297   1.747   0.398  0.5537 -0.0218 -0.5604
 6417SOL    HW225400   3.336   1.828   0.365  1.2870 -0.0010  0.3045
 6417SOL    HW325401   3.352   1.723   0.473 -0.8959 -0.1824  0.4974
 6417SOL    MW425402   3.309   1.755   0.404 -0.3306 -0.0963  0.4530
 6418SOL     OW25403   1.810   5.311  -0.024  0.0027  0.1180  0.5329
 6418SOL    HW225404   1.754   5.233  -0.019 -0.1770  0.1456 -0.7094
 6418SOL    HW325405   1.760   5.379   0.020 -1.2216  0.2743 -0.9972
 6418SOL    MW425406   1.796   5.310  -0.018 -0.3937  0.0298 -0.4146
 6419SOL     OW25407   0.915   4.478   5.596 -0.9055  0.2909 -0.3381
 6419SOL    HW225408   0.923   4.573   5.592 -1.6222  0.3534 -0.3775
 6419SOL    HW325409   0.945   4.447   5.511 -0.8719  0.4990 -0.4011
 6419SOL    MW425410   0.920   4.486   5.584 -0.6074  0.5262  0.0705
 6420SOL     OW25411   1.040   1.900   5.917  0.2735  0.4004  0.5839
 6420SOL    HW225412   1.120   1.951   5.926  0.1744  0.6877 -0.1421
 6420SOL    HW325413   1.041   1.869   5.827  0.2109 -0.6835  0.9375
 6420SOL    MW425414   1.051   1.903   5.907 -0.2832  0.0444  0.6858
 6421SOL     OW25415   5.493   3.758   3.257 -0.6258 -0.1111 -0.9651
 6421SOL    HW225416   5.422   3.737   3.318  0.3331 -0.5824  0.0321
 6421SOL    HW325417   5.539   3.675   3.245  0.2929  0.3708 -0.8665
 6421SOL    MW425418   5.490   3.744   3.264  0.0569  0.5098  0.1730
 6422SOL     OW25419   0.247   0.613   3.529  0.0519 -0.0517 -0.0561
 6422SOL    HW225420   0.226   0.707   3.526  0.8788  0.2163  1.3236
 6422SOL    HW325421   0.269   0.590   3.439 -1.2361  0.8118 -0.6259
 6422SOL    MW425422   0.247   0.622   3.517 -0.0243 -0.2327  0.4902
 6423SOL     OW25423   0.459   4.346   2.821 -0.2470  0.1586 -0.0212
 6423SOL    HW225424   0.515   4.332   2.897  0.4606  0.3177 -0.5128
 6423SOL    HW325425   0.396   4.412   2.850 -0.1919 -0.0263  0.5346
 6423SOL    MW425426   0.458   4.353   2.835 -0.2262  0.2263 -0.0214
 6424SOL     OW25427   5.492   3.409   4.119  0.1985  0.0054 -0.4781
 6424SOL    HW225428   5.560   3.455   4.071 -0.1474 -0.4035 -1.3695
 6424SOL    HW325429   5.423   3.394   4.055 -0.8814  0.6913  0.4867
 6424SOL    MW425430   5.492   3.413   4.104  0.3302 -0.0191 -0.0484
 6425SOL     OW25431   1.826   1.386   1.676 -0.0913 -0.6806  0.3184
 6425SOL    HW225432   1.808   1.309   1.621  1.0072 -0.6635 -0.0973
 6425SOL    HW325433   1.879   1.443   1.620 -0.5358  0.1929  0.7763
 6425SOL    MW425434   1.830   1.383   1.661  0.4067 -0.4291 -0.6783
 6426SOL     OW25435   2.531   4.016   1.668  0.2680  0.7485 -0.4114
 6426SOL    HW225436   2.570   3.955   1.732  0.7100  0.1702 -1.2092
 6426SOL    HW325437   2.462   4.060   1.716  0.3071  0.0111  0.3501
 6426SOL    MW425438   2.527   4.013   1.683  0.6082  0.1251 -0.3612
 6427SOL     OW25439   4.035   3.248   1.056 -0.9337  0.3210  0.3879
 6427SOL    HW225440   4.044   3.157   1.027 -0.6579  0.4790 -0.0388
 6427SOL    HW325441   3.941   3.266   1.051 -0.7710  0.8218 -1.9579
 6427SOL    MW425442   4.024   3.238   1.052  0.2180 -0.1225 -0.1831
 6428SOL     OW25443   1.640   3.115   1.910  0.2221  1.4028 -0.1854
 6428SOL    HW225444   1.639   3.199   1.956  1.2129  0.7500  1.1024
 6428SOL    HW325445   1.585   3.129   1.832  0.7874  3.3868 -0.2850
 6428SOL    MW425446   1.633   3.128   1.905  0.5422  0.6759  0.1746
 6429SOL     OW25447   3.019   2.721   4.284 -0.6274 -0.5462  0.2782
 6429SOL    HW225448   3.039   2.759   4.369 -1.9596 -0.0659  0.4035
 6429SOL    HW325449   2.961   2.785   4.242 -1.3051 -1.5263 -0.3198
 6429SOL    MW425450   3.014   2.734   4.290 -0.0492  0.3393 -0.4849
 6430SOL     OW25451   0.064   1.697   4.793 -0.6108  0.1954  0.2394
 6430SOL    HW225452   0.082   1.766   4.730 -0.8595 -0.5527 -0.6697
 6430SOL    HW325453   0.123   1.625   4.769  0.4285  0.4567  1.8425
 6430SOL    MW425454   0.074   1.696   4.782  0.1832 -0.0896 -0.2464
 6431SOL     OW25455   2.611   1.990   0.761  0.2971 -0.6863 -0.4457
 6431SOL    HW225456   2.520   1.974   0.737  0.0763  0.0820 -0.1246
 6431SOL    HW325457   2.645   1.903   0.782 -0.5133 -0.9136 -0.0412
 6431SOL    MW425458   2.604   1.976   0.761 -0.4276  0.0399 -0.0351
 6432SOL     OW25459   3.214   5.438   1.760 -0.6075 -0.3012  0.2898
 6432SOL    HW225460   3.277   5.503   1.729 -1.6989  0.2967 -0.7386
 6432SOL    HW325461   3.242   5.356   1.719  0.2308 -0.3127  0.8562
 6432SOL    MW425462   3.226   5.436   1.751 -0.2151 -0.0786  0.1130
 6433SOL     OW25463   2.393   4.558   5.732 -0.3250 -0.2975  0.3686
 6433SOL    HW225464   2.310   4.545   5.776  0.6429 -1.0649  2.0495
 6433SOL    HW325465   2.405   4.653   5.731 -1.8974 -0.0499 -1.3082
 6433SOL    MW425466   2.384   4.568   5.738  0.3758 -0.9435  0.3209
 6434SOL     OW25467   0.056   2.058   1.344  0.7272 -0.0274  1.0550
 6434SOL    HW225468   0.051   2.019   1.431 -0.2687  1.5140  1.7454
 6434SOL    HW325469   0.036   2.150   1.358 -0.2171  0.1283 -0.9054
 6434SOL    MW425470   0.052   2.065   1.357  0.1069  0.7242 -0.0378
 6435SOL     OW25471   3.431   4.944   4.609  0.1842  0.0459 -0.0601
 6435SOL    HW225472   3.488   4.982   4.675 -1.0089  0.9776  0.4600
 6435SOL    HW325473   3.389   4.870   4.653  1.5818 -1.1894 -0.7026
 6435SOL    MW425474   3.433   4.939   4.624 -0.2253 -0.0584 -0.3356
 6436SOL     OW25475   4.182   6.394   6.092  0.1006 -0.0479 -0.7670
 6436SOL    HW225476   4.099   6.438   6.111 -0.2757 -0.9493 -0.2733
 6436SOL    HW325477   4.197   6.338   6.169  0.2810 -1.1980 -1.6211
 6436SOL    MW425478   4.173   6.393   6.105  0.2963 -0.1356 -0.1791
 6437SOL     OW25479   0.152   5.773   3.485 -0.2603 -0.0593  0.0755
 6437SOL    HW225480   0.167   5.847   3.544  1.7096  0.4964 -1.0017
 6437SOL    HW325481   0.067   5.739   3.510 -1.4224  2.7779  0.4047
 6437SOL    MW425482   0.143   5.779   3.496 -0.0184 -0.0710 -0.9175
 6438SOL     OW25483   3.435   3.725   4.939 -0.1176 -0.2191 -0.6101
 6438SOL    HW225484   3.514   3.776   4.924  1.1697 -1.9542 -0.0656
 6438SOL    HW325485   3.387   3.773   5.006  1.1072  0.2280 -0.0281
 6438SOL    MW425486   3.439   3.738   4.946 -0.0821  0.2734  0.3863
 6439SOL     OW25487   5.555   6.374   2.899 -0.0017  0.3709  0.0651
 6439SOL    HW225488   5.603   6.338   2.973 -0.5422 -1.4286 -0.4166
 6439SOL    HW325489   5.485   6.426   2.939 -0.1713 -0.4219  0.8189
 6439SOL    MW425490   5.552   6.376   2.914 -0.6106  0.6766  0.1555
 6440SOL     OW25491   0.973   6.246   3.988 -0.6518  0.2080 -0.4334
 6440SOL    HW225492   0.937   6.170   4.034  0.8737  0.2947  0.9896
 6440SOL    HW325493   1.011   6.209   3.908  1.9636 -0.9859  1.2088
 6440SOL    MW425494   0.973   6.231   3.984 -0.2292  0.4626 -0.2521
 6441SOL     OW25495   1.144   3.599   0.973 -0.2051 -0.2694  0.5556
 6441SOL    HW225496   1.054   3.601   1.007 -0.3799 -0.5014  0.1198
 6441SOL    HW325497   1.164   3.690   0.951 -0.5171 -0.2850  0.1926
 6441SOL    MW425498   1.135   3.611   0.975  0.3108  0.3034 -0.1138
 6442SOL     OW25499   4.426   2.994   5.940 -0.1857 -0.4451  0.0006
 6442SOL    HW225500   4.333   2.971   5.944 -0.1599 -0.5267  0.1187
 6442SOL    HW325501   4.467   2.917   5.901 -0.0161 -0.8380  0.9238
 6442SOL    MW425502   4.419   2.981   5.935  0.0964  0.0106  0.5273
 6443SOL     OW25503   5.807   3.308   4.402 -0.0446 -0.3550  0.1833
 6443SOL    HW225504   5.818   3.296   4.308 -1.3080  0.8257 -0.1426
 6443SOL    HW325505   5.728   3.258   4.423 -0.4526  0.3529  0.3754
 6443SOL    MW425506   5.798   3.300   4.393 -0.2007  0.3089  0.5199
 6444SOL     OW25507   1.368   5.626   6.223  0.1361 -0.5861  0.4620
 6444SOL    HW225508   1.352   5.719   6.207  0.6242 -0.7554 -1.1580
 6444SOL    HW325509   1.398   5.592   6.139 -1.4621 -2.5240  0.6036
 6444SOL    MW425510   1.370   5.634   6.210  0.1766 -0.0849 -0.1030
 6445SOL     OW25511   2.563   0.010   5.806 -0.1114 -0.0655  0.2917
 6445SOL    HW225512   2.482  -0.040   5.795 -0.3143  0.2027  0.5529
 6445SOL    HW325513   2.624  -0.052   5.845  0.1031 -0.5411 -0.7698
 6445SOL    MW425514   2.560  -0.005   5.809 -0.0068 -0.0547 -0.3201
 6446SOL     OW25515   2.341   5.639   2.819 -0.4622  0.1363 -0.5672
 6446SOL    HW225516   2.386   5.555   2.812 -1.5078 -0.4106 -1.0774
 6446SOL    HW325517   2.362   5.670   2.907 -1.1170 -1.3155  0.1385
 6446SOL    MW425518   2.349   5.632   2.830  0.3640 -0.3132  0.0641
 6447SOL     OW25519   2.789   4.897   6.153 -0.3414 -0.0267 -0.1442
 6447SOL    HW225520   2.846   4.890   6.229 -0.2592 -1.9005 -0.3486
 6447SOL    HW325521   2.704   4.922   6.189  0.1866  1.2052  0.3173
 6447SOL    MW425522   2.785   4.900   6.167  0.4105  0.0138 -0.2581
 6448SOL     OW25523   2.322   1.706   0.424  0.3481  0.1124 -0.6581
 6448SOL    HW225524   2.246   1.758   0.398  0.1295  0.5493  0.7871
 6448SOL    HW325525   2.300   1.617   0.395 -0.8515  0.1776 -0.0162
 6448SOL    MW425526   2.309   1.701   0.416 -0.5101  0.4224 -1.0544
 6449SOL     OW25527   2.947   4.858   1.734 -0.2437 -0.5729 -0.0868
 6449SOL    HW225528   3.036   4.845   1.702 -0.5556  0.3937 -1.4400
 6449SOL    HW325529   2.952   4.843   1.828  1.2520 -0.9692 -0.2177
 6449SOL    MW425530   2.959   4.854   1.742 -0.4134  0.3608  0.3607
 6450SOL     OW25531   3.212   4.471   3.809  0.2613  0.1543 -0.1934
 6450SOL    HW225532   3.292   4.420   3.822  1.2273  1.7482  0.3602
 6450SOL    HW325533   3.213   4.494   3.716  0.9327  0.9243 -0.0042
 6450SOL    MW425534   3.222   4.467   3.798  0.4663 -0.0982 -1.1043
 6451SOL     OW25535   0.453   4.985   4.525  0.1757 -0.0144 -0.3185
 6451SOL    HW225536   0.409   5.069   4.537  1.7578  0.7469  0.3901
 6451SOL    HW325537   0.423   4.932   4.599  1.3657  0.9394  0.9041
 6451SOL    MW425538   0.443   4.989   4.537  0.3561 -0.1771 -0.1852
 6452SOL     OW25539   3.848   2.970   1.814 -0.1548  0.0988 -0.6733
 6452SOL    HW225540   3.813   3.057   1.795 -2.0991  0.1027  2.2234
 6452SOL    HW325541   3.939   2.987   1.842 -0.9097  1.4695  1.1961
 6452SOL    MW425542   3.856   2.984   1.815  0.1031 -0.6704 -0.7121
 6453SOL     OW25543   5.158   6.241   2.400  0.0621 -0.1532 -0.8565
 6453SOL    HW225544   5.100   6.314   2.420 -0.4715 -0.9496  0.6411
 6453SOL    HW325545   5.164   6.241   2.304 -1.7363  0.4679 -1.0116
 6453SOL    MW425546   5.151   6.250   2.390  0.7101  0.2074  0.2932
 6454SOL     OW25547   5.744   6.026   2.920 -0.3681  0.1002  0.2101
 6454SOL    HW225548   5.799   6.095   2.883 -1.0066  1.5493  1.8224
 6454SOL    HW325549   5.785   6.005   3.003  1.2440 -3.3477 -1.3015
 6454SOL    MW425550   5.757   6.033   2.926 -0.0134 -0.1974 -0.0076
 6455SOL     OW25551   0.816   6.353   4.823 -0.5143 -0.9781  0.0984
 6455SOL    HW225552   0.744   6.321   4.769  0.3417 -1.7085 -0.6511
 6455SOL    HW325553   0.891   6.357   4.764  0.7608 -2.9695  1.4519
 6455SOL    MW425554   0.816   6.349   4.808 -0.0032 -0.0601  0.5575
 6456SOL     OW25555   1.779   3.123   4.357  0.6423 -0.8807  0.2782
 6456SOL    HW225556   1.870   3.127   4.386  0.3479  0.3003  1.0913
 6456SOL    HW325557   1.777   3.050   4.295  3.1137  1.5675 -3.0515
 6456SOL    MW425558   1.790   3.114   4.352  0.0469  0.1150  0.2789
 6457SOL     OW25559   1.615   1.151   2.545  0.3331 -0.4755  0.3458
 6457SOL    HW225560   1.673   1.205   2.492 -0.5436  0.2231  0.0765
 6457SOL    HW325561   1.625   1.063   2.508  0.7182 -0.2392 -0.1314
 6457SOL    MW425562   1.624   1.146   2.533 -0.0511  0.0965  0.1898
 6458SOL     OW25563   6.144   4.441   1.580  0.0209 -0.6033  0.6544
 6458SOL    HW225564   6.082   4.373   1.607  0.3435 -1.9589 -1.7309
 6458SOL    HW325565   6.131   4.449   1.486 -0.8356  3.6020  0.9723
 6458SOL    MW425566   6.134   4.433   1.571  0.0751  0.8208 -0.3995
 6459SOL     OW25567   4.959   3.965   2.956  0.6752  0.7027 -0.1296
 6459SOL    HW225568   4.984   4.017   3.032  0.6998  0.5261 -0.0177
 6459SOL    HW325569   4.873   3.929   2.978  0.3282  1.2827 -0.5009
 6459SOL    MW425570   4.951   3.967   2.969  0.0235 -0.2443  0.0744
 6460SOL     OW25571   3.571   1.435   2.003  0.0488  0.9105  0.2646
 6460SOL    HW225572   3.555   1.523   2.037 -3.8225  0.9605 -1.2229
 6460SOL    HW325573   3.542   1.439   1.912 -0.0121 -1.8380  0.0971
 6460SOL    MW425574   3.565   1.447   1.996  0.1349 -0.3426  0.3244
 6461SOL     OW25575   1.521   1.069   0.143 -0.0661 -0.1148  0.4439
 6461SOL    HW225576   1.552   1.122   0.069 -1.2015 -1.0516 -0.7396
 6461SOL    HW325577   1.470   1.131   0.196 -0.1732  0.3283 -0.1562
 6461SOL    MW425578   1.518   1.084   0.140 -0.0726  0.4122 -0.2149
 6462SOL     OW25579   1.483   4.502   0.561  0.1800 -0.0207 -0.3109
 6462SOL    HW225580   1.521   4.587   0.584  0.1384 -0.0510 -0.1267
 6462SOL    HW325581   1.411   4.522   0.502 -0.0123  0.0909 -0.0369
 6462SOL    MW425582   1.479   4.516   0.556 -0.5081  0.4800 -0.2136
 6463SOL     OW25583   2.376   2.939   6.229  0.2798  0.1661 -0.1054
 6463SOL    HW225584   2.345   2.997   6.160 -0.0559 -0.1477 -0.2227
 6463SOL    HW325585   2.471   2.938   6.219  0.3394  1.1363  0.2540
 6463SOL    MW425586   2.384   2.946   6.218  0.6078  0.3483  0.6412
 6464SOL     OW25587   3.688   4.927   2.854  0.1691 -0.1922 -0.2375
 6464SOL    HW225588   3.627   4.933   2.781  1.0790 -3.2876 -1.4249
 6464SOL    HW325589   3.768   4.969   2.822 -0.0941  0.3592 -0.1791
 6464SOL    MW425590   3.691   4.933   2.840  0.3387  0.3177 -0.5952
 6465SOL     OW25591   3.562   1.726   5.854  0.4040 -0.6513 -0.1945
 6465SOL    HW225592   3.610   1.648   5.881  0.0334 -1.5775 -2.0680
 6465SOL    HW325593   3.470   1.706   5.873  0.4208 -0.1157  0.5219
 6465SOL    MW425594   3.556   1.713   5.860 -0.6362 -0.1277  0.0764
 6466SOL     OW25595   3.194   4.483   2.769 -0.1818  0.7361  0.2786
 6466SOL    HW225596   3.248   4.408   2.745  0.7642  0.5044  2.7604
 6466SOL    HW325597   3.116   4.475   2.715  0.5037 -1.2441 -0.5142
 6466SOL    MW425598   3.191   4.472   2.759  0.2388 -0.1060  0.2760
 6467SOL     OW25599   0.674   4.681   0.551 -0.0160  0.1264 -0.1757
 6467SOL    HW225600   0.731   4.693   0.474 -1.2452 -0.2564 -1.1772
 6467SOL    HW325601   0.589   4.660   0.514 -0.5715 -0.3400  1.3260
 6467SOL    MW425602   0.670   4.680   0.536 -0.0805  0.1140 -0.3326
 6468SOL     OW25603   5.474   5.898   2.965  0.0721  0.1010 -0.6131
 6468SOL    HW225604   5.497   5.852   3.046 -0.6932  0.0389 -0.4257
 6468SOL    HW325605   5.557   5.934   2.934  0.2146  1.0520  0.7716
 6468SOL    MW425606   5.488   5.896   2.971  0.5407 -0.4988  0.0588
 6469SOL     OW25607   1.534   5.182   6.371  0.3622  0.0360  0.5043
 6469SOL    HW225608   1.536   5.129   6.292  3.3553 -1.5718  1.4675
 6469SOL    HW325609   1.457   5.238   6.361 -1.1488 -2.2320 -2.0684
 6469SOL    MW425610   1.524   5.183   6.359  0.8470  0.6105  0.0002
 6470SOL     OW25611   1.681   6.378   1.391 -0.2555 -0.7212  0.3611
 6470SOL    HW225612   1.586   6.393   1.389 -0.1820 -0.0818 -2.2843
 6470SOL    HW325613   1.718   6.464   1.411 -0.2155 -0.5516 -0.4013
 6470SOL    MW425614   1.673   6.392   1.393  0.0942 -0.1761  0.2788
 6471SOL     OW25615   4.785   4.498   6.278  0.2098  0.3031 -0.9636
 6471SOL    HW225616   4.862   4.446   6.302 -0.4316 -0.3691 -0.2988
 6471SOL    HW325617   4.821   4.581   6.246  1.1958  0.2131 -0.1392
 6471SOL    MW425618   4.800   4.502   6.277 -0.1597 -0.0620 -0.8259
 6472SOL     OW25619   4.614   1.961   5.772  0.0094  0.2635 -0.6018
 6472SOL    HW225620   4.653   2.003   5.850  0.2581  1.7444 -1.4805
 6472SOL    HW325621   4.615   1.868   5.793  0.1360  0.6085  1.1454
 6472SOL    MW425622   4.619   1.954   5.785  0.1804  0.1569  0.1028
 6473SOL     OW25623   5.158   1.572   0.736 -0.0797 -0.8492 -0.2634
 6473SOL    HW225624   5.155   1.626   0.658 -0.6507  1.2239  1.1296
 6473SOL    HW325625   5.217   1.618   0.795 -0.9671 -1.4787  1.1720
 6473SOL    MW425626   5.166   1.585   0.734 -0.1504 -0.0723  0.1190
 6474SOL     OW25627   4.564   4.522   0.039 -0.6645 -0.3723 -0.3815
 6474SOL    HW225628   4.633   4.519  -0.028 -0.8052 -2.1842 -0.4774
 6474SOL    HW325629   4.488   4.482  -0.002 -1.9622  1.9388 -0.4011
 6474SOL    MW425630   4.563   4.516   0.025 -0.1148 -0.3331  0.4987
 6475SOL     OW25631   0.138   1.920   4.649 -0.4520  0.5175  0.4968
 6475SOL    HW225632   0.081   1.972   4.593  0.6746  1.4923  0.2244
 6475SOL    HW325633   0.224   1.924   4.608 -0.0396 -0.4413  1.2094
 6475SOL    MW425634   0.142   1.927   4.636 -0.3286 -0.3797 -0.5173
 6476SOL     OW25635   1.972   5.639   3.528 -0.2042 -0.1717  0.4527
 6476SOL    HW225636   2.023   5.567   3.564  1.3276  1.1698  1.0892
 6476SOL    HW325637   2.026   5.717   3.543 -1.2100  0.9529 -1.3602
 6476SOL    MW425638   1.986   5.640   3.534  0.4667  0.5891  0.2259
 6477SOL     OW25639   3.244   2.548   3.561 -0.4151  0.2873  0.3020
 6477SOL    HW225640   3.174   2.536   3.626  0.2399 -0.4244  0.8938
 6477SOL    HW325641   3.323   2.517   3.605  0.6408  2.8408  0.3268
 6477SOL    MW425642   3.245   2.542   3.576 -0.0389 -0.7173 -0.5162
 6478SOL     OW25643   4.065   6.260   0.418 -0.2644 -0.1184 -0.9905
 6478SOL    HW225644   4.130   6.283   0.485 -0.4053 -0.5216 -0.7078
 6478SOL    HW325645   4.014   6.190   0.459  1.3339 -2.3160 -2.4935
 6478SOL    MW425646   4.067   6.253   0.433 -0.3056 -0.1672  0.5551
 6479SOL     OW25647   1.165   0.919   0.090  0.0539 -0.5548  0.1549
 6479SOL    HW225648   1.189   0.842   0.141  0.6900 -0.7776 -0.4662
 6479SOL    HW325649   1.244   0.942   0.041  0.3850  1.4561  1.4993
 6479SOL    MW425650   1.178   0.912   0.091 -0.3807 -0.5286 -0.2427
 6480SOL     OW25651   3.113   2.127   0.440 -0.1437 -0.2253  0.3387
 6480SOL    HW225652   3.050   2.101   0.372  0.6974 -1.0388 -0.1588
 6480SOL    HW325653   3.136   2.217   0.417 -0.3946 -0.2518 -0.0388
 6480SOL    MW425654   3.107   2.135   0.428 -0.3135  0.0858  0.0349
 6481SOL     OW25655   2.174   1.224   3.380 -0.1818 -0.1471  0.3898
 6481SOL    HW225656   2.174   1.191   3.470 -0.6770  1.6364  1.0980
 6481SOL    HW325657   2.150   1.316   3.389  0.1045  0.1545 -1.5550
 6481SOL    MW425658   2.171   1.232   3.393 -0.6032 -0.0761  0.4043
 6482SOL     OW25659   3.302   0.056   3.928  0.6136 -0.6940 -0.1038
 6482SOL    HW225660   3.288   0.108   4.008  0.5052 -2.1724  0.8658
 6482SOL    HW325661   3.395   0.035   3.930  0.7873 -0.0424 -0.8248
 6482SOL    MW425662   3.313   0.060   3.939  0.2420  0.2276  0.6315
 6483SOL     OW25663   0.236   2.289   2.581  0.1208 -0.2757 -0.1691
 6483SOL    HW225664   0.177   2.281   2.656  0.7803 -0.9667  0.2820
 6483SOL    HW325665   0.291   2.211   2.584  0.5166 -0.0494 -1.0639
 6483SOL    MW425666   0.235   2.278   2.591 -0.3722 -0.3773  0.3308
 6484SOL     OW25667   6.306   0.722   2.474  0.3593  0.0733 -0.3710
 6484SOL    HW225668   6.211   0.712   2.481  0.0186  2.0883 -1.3817
 6484SOL    HW325669   6.327   0.690   2.386 -0.0419  3.1408 -1.7141
 6484SOL    MW425670   6.296   0.717   2.463  0.0697  0.1590  0.6331
 6485SOL     OW25671   0.287   4.250   4.245 -0.1076  0.3938  0.1189
 6485SOL    HW225672   0.240   4.178   4.203  0.2628  0.3524 -0.2202
 6485SOL    HW325673   0.367   4.211   4.280 -0.0870  0.5652  0.2707
 6485SOL    MW425674   0.291   4.235   4.244  0.2059 -0.5829  0.9967
 6486SOL     OW25675   0.196   0.566   5.122  0.2308  0.1468 -0.3722
 6486SOL    HW225676   0.205   0.528   5.035  1.6255 -1.8260  0.5714
 6486SOL    HW325677   0.135   0.508   5.167  0.6248  0.3392  0.4197
 6486SOL    MW425678   0.189   0.554   5.116 -0.5087  0.2784  0.1585
 6487SOL     OW25679   0.394   3.500   2.420 -0.9463  0.1237 -0.0765
 6487SOL    HW225680   0.421   3.408   2.431 -0.7852  0.1645 -0.1293
 6487SOL    HW325681   0.329   3.514   2.489 -0.2074  0.2777  0.5989
 6487SOL    MW425682   0.389   3.489   2.430 -0.1293  0.0667 -0.2150
 6488SOL     OW25683   6.210   2.482   1.259 -0.4455  0.2563 -0.6965
 6488SOL    HW225684   6.158   2.450   1.332  1.1774  0.7395  0.7287
 6488SOL    HW325685   6.152   2.474   1.183 -1.9118 -0.9701  0.4940
 6488SOL    MW425686   6.196   2.477   1.258  0.2080  0.2602 -0.0451
 6489SOL     OW25687   0.516   1.547   0.319  0.5781 -0.3273  0.2785
 6489SOL    HW225688   0.466   1.474   0.282  0.7387  0.7850 -2.3734
 6489SOL    HW325689   0.596   1.506   0.352  0.3221 -1.4405 -0.4142
 6489SOL    MW425690   0.520   1.532   0.319 -0.1137 -0.1328 -0.9875
 6490SOL     OW25691   4.273   3.264   0.117 -0.2732 -0.4188 -0.2810
 6490SOL    HW225692   4.255   3.266   0.211  1.2163  1.1004  0.0199
 6490SOL    HW325693   4.236   3.181   0.087 -1.9504 -0.3339  1.3879
 6490SOL    MW425694   4.266   3.254   0.126 -0.2658 -0.0237  0.2208
 6491SOL     OW25695   3.564   3.158   0.480  0.6020  0.8390 -0.2141
 6491SOL    HW225696   3.645   3.109   0.473  0.2324  0.2793 -0.6678
 6491SOL    HW325697   3.495   3.091   0.478  0.1810  0.9989  3.1424
 6491SOL    MW425698   3.565   3.143   0.479 -0.6019 -0.4974 -0.8564
 6492SOL     OW25699   6.245   3.478   2.955  0.0964 -0.0630 -0.0960
 6492SOL    HW225700   6.151   3.469   2.973 -0.3839  2.4017 -1.1046
 6492SOL    HW325701   6.272   3.554   3.006  2.0113 -1.6620  1.4891
 6492SOL    MW425702   6.236   3.487   2.964 -0.2860 -0.0647  0.1877
 6493SOL     OW25703   0.363   4.597   3.745 -0.0043 -0.2032 -0.1809
 6493SOL    HW225704   0.392   4.597   3.836  0.7227 -1.2659 -0.3869
 6493SOL    HW325705   0.331   4.686   3.729 -0.0516  0.0141  1.0786
 6493SOL    MW425706   0.363   4.609   3.755 -0.2727  0.3563 -0.2531
 6494SOL     OW25707   0.529   0.201   1.282  0.0867  0.4728  0.0929
 6494SOL    HW225708   0.527   0.156   1.366 -0.6242  0.2537 -0.0341
 6494SOL    HW325709   0.438   0.227   1.266  0.1963  0.4398 -0.6425
 6494SOL    MW425710   0.517   0.199   1.291 -0.4947 -0.3179  0.3302
 6495SOL     OW25711   4.528   4.183   5.019  0.0812 -0.6591 -0.4991
 6495SOL    HW225712   4.521   4.102   5.070 -0.6654  0.2681  0.9277
 6495SOL    HW325713   4.455   4.179   4.957 -1.3520 -0.0633  1.0963
 6495SOL    MW425714   4.518   4.172   5.017 -0.3487 -0.0987 -0.2065
 6496SOL     OW25715   5.710   3.657   2.493 -0.3249  0.0846 -0.0433
 6496SOL    HW225716   5.722   3.579   2.548 -1.7445  0.2662  0.5695
 6496SOL    HW325717   5.619   3.652   2.464 -0.3111  1.2881 -0.3525
 6496SOL    MW425718   5.699   3.646   2.497 -0.0658 -0.3764  0.1786
 6497SOL     OW25719   4.341   0.749   0.676 -0.0608  0.1765 -0.1105
 6497SOL    HW225720   4.290   0.785   0.749 -1.9800  0.2174 -1.3896
 6497SOL    HW325721   4.281   0.689   0.633  2.3864 -3.2309  0.7963
 6497SOL    MW425722   4.326   0.746   0.680 -0.4321  0.2367 -0.1752
 6498SOL     OW25723   2.409   3.357   6.224  0.0490 -0.3572  0.0110
 6498SOL    HW225724   2.474   3.356   6.294 -0.1468  0.1175  0.2055
 6498SOL    HW325725   2.375   3.447   6.224 -0.6463 -0.6140 -0.0478
 6498SOL    MW425726   2.413   3.369   6.234 -1.2337  0.4895  0.2179
 6499SOL     OW25727   4.143   1.722   1.999  0.7755  0.1929  0.1683
 6499SOL    HW225728   4.128   1.684   2.086 -2.2291  1.0141  0.1174
 6499SOL    HW325729   4.146   1.816   2.014  1.7728  0.2817 -0.4836
 6499SOL    MW425730   4.141   1.729   2.012  0.5734 -0.6940 -0.4621
 6500SOL     OW25731   3.693   4.660   6.137 -0.9209 -0.4096 -0.0141
 6500SOL    HW225732   3.645   4.577   6.140 -0.7379 -0.5431 -0.6871
 6500SOL    HW325733   3.760   4.647   6.069 -0.6522  0.1592  0.1376
 6500SOL    MW425734   3.695   4.647   6.128 -0.0515 -0.4333  0.0437
 6501SOL     OW25735   2.303   2.962   4.104 -0.2614 -0.2496 -0.1383
 6501SOL    HW225736   2.257   2.879   4.109 -0.0156 -0.3012  2.0478
 6501SOL    HW325737   2.236   3.025   4.076 -1.1642 -0.6999  0.9481
 6501SOL    MW425738   2.288   2.960   4.101  0.2197  0.0248 -0.0581
 6502SOL     OW25739   2.475   1.018   5.066  0.1107  0.2526 -0.2376
 6502SOL    HW225740   2.393   1.050   5.028 -0.7756 -2.3544 -0.7352
 6502SOL    HW325741   2.543   1.070   5.024 -1.2530  2.6570  0.3728
 6502SOL    MW425742   2.473   1.029   5.056 -0.3256 -0.3539 -0.1539
 6503SOL     OW25743   3.544   6.004   2.447  0.1059 -0.1291 -0.0562
 6503SOL    HW225744   3.456   5.967   2.448 -0.2018  0.5947  0.4569
 6503SOL    HW325745   3.534   6.088   2.400  0.2909  0.4867  0.9867
 6503SOL    MW425746   3.531   6.010   2.441 -0.1050 -0.3999 -0.3613
 6504SOL     OW25747   3.900   4.990   0.694 -0.1306 -0.2921 -0.0470
 6504SOL    HW225748   3.906   5.083   0.716 -0.1845 -0.5320  0.9958
 6504SOL    HW325749   3.892   4.989   0.598  0.3829  0.7482 -0.1104
 6504SOL    MW425750   3.900   5.002   0.684  0.1424 -0.0622 -0.1228
 6505SOL     OW25751   1.244   4.338   4.033 -0.2265 -0.2193  0.3218
 6505SOL    HW225752   1.228   4.297   4.118 -0.6904  0.2760  0.4755
 6505SOL    HW325753   1.176   4.405   4.025 -1.0850 -1.1977 -1.0675
 6505SOL    MW425754   1.233   4.341   4.043  0.3571 -0.1057  0.1059
 6506SOL     OW25755   5.271   6.280   5.265  0.3242  0.5099 -0.3306
 6506SOL    HW225756   5.277   6.325   5.181 -2.0745 -1.8200 -1.9101
 6506SOL    HW325757   5.343   6.216   5.264 -1.0403 -1.0781 -1.7305
 6506SOL    MW425758   5.282   6.278   5.254  0.2628  0.2771 -0.2630
 6507SOL     OW25759   0.023   3.876   3.787 -0.2855  0.0838 -0.4467
 6507SOL    HW225760   0.102   3.862   3.838 -2.3557  1.3779  3.5333
 6507SOL    HW325761   0.053   3.919   3.707  3.0825 -0.5634  0.3145
 6507SOL    MW425762   0.037   3.880   3.783  0.0187  0.1859 -0.7936
 6508SOL     OW25763   4.754   4.207   0.523 -0.0333 -0.6796  0.0235
 6508SOL    HW225764   4.688   4.217   0.454 -0.3411 -1.8874  0.1166
 6508SOL    HW325765   4.710   4.154   0.590  1.4808 -2.8769 -0.5854
 6508SOL    MW425766   4.739   4.201   0.523  0.6946  0.0740  0.2106
 6509SOL     OW25767   0.676   0.596   2.455 -0.1039 -0.9060 -0.0902
 6509SOL    HW225768   0.757   0.609   2.406  0.2142  0.2574  0.7037
 6509SOL    HW325769   0.606   0.617   2.393  0.2399 -0.8391 -0.4570
 6509SOL    MW425770   0.677   0.601   2.440 -0.5824  0.7990  0.6468
 6510SOL     OW25771   4.697   1.188   3.625 -0.4227  0.0228 -0.2333
 6510SOL    HW225772   4.780   1.190   3.673 -0.7400 -0.8288  0.3824
 6510SOL    HW325773   4.686   1.277   3.593  1.3008 -0.1101 -1.3271
 6510SOL    MW425774   4.706   1.200   3.627 -0.1324 -0.4307 -0.3707
 6511SOL     OW25775   3.664   4.480   0.850 -0.1460  0.2881 -0.4264
 6511SOL    HW225776   3.676   4.474   0.944 -0.3448  0.1805 -0.4057
 6511SOL    HW325777   3.587   4.424   0.832 -0.4120  0.6982 -0.5861
 6511SOL    MW425778   3.655   4.472   0.860  0.1499 -0.9585  0.3381
 6512SOL     OW25779   2.701   0.822   1.948 -0.1143 -0.4294  0.9162
 6512SOL    HW225780   2.653   0.776   1.880 -2.3715 -0.0269  2.1160
 6512SOL    HW325781   2.687   0.770   2.027 -1.3290  1.3536  1.9517
 6512SOL    MW425782   2.693   0.809   1.950  0.0506  0.5421  0.3713
 6513SOL     OW25783   3.357   5.207   2.597 -0.2336  0.4875  0.0024
 6513SOL    HW225784   3.413   5.283   2.586  0.2625  0.2935  1.1191
 6513SOL    HW325785   3.323   5.189   2.509 -2.1747  3.3366  0.0498
 6513SOL    MW425786   3.360   5.214   2.584 -0.2049  0.3439  0.0970
 6514SOL     OW25787   4.915   1.516   4.801  0.2894  0.4117  0.3747
 6514SOL    HW225788   4.893   1.609   4.805 -2.7318 -0.0503 -1.7318
 6514SOL    HW325789   4.921   1.497   4.708 -1.9068 -1.9760  0.6122
 6514SOL    MW425790   4.913   1.526   4.789 -0.5660 -0.2061  0.6377
 6515SOL     OW25791   4.790   6.060   4.221  0.3692 -0.4314 -0.3832
 6515SOL    HW225792   4.769   6.038   4.312 -0.4127  1.6832  0.0093
 6515SOL    HW325793   4.832   6.146   4.226  0.7321 -0.4811 -2.0000
 6515SOL    MW425794   4.793   6.068   4.234  0.2503  0.0531  0.0056
 6516SOL     OW25795   4.054   4.921   4.416  0.1928  0.0570 -0.6622
 6516SOL    HW225796   4.037   5.000   4.364 -1.0184 -0.3891 -0.9763
 6516SOL    HW325797   4.149   4.921   4.428  0.2296  1.5364 -0.6853
 6516SOL    MW425798   4.065   4.932   4.411 -0.9566  0.6354 -0.4059
 6517SOL     OW25799   2.153   5.687   2.162  0.8731  0.2131 -0.0996
 6517SOL    HW225800   2.189   5.720   2.080 -2.5210 -1.9312 -2.7238
 6517SOL    HW325801   2.086   5.624   2.135 -1.3363  0.3034  4.3355
 6517SOL    MW425802   2.149   5.683   2.148 -0.8969 -0.1105  0.1896
 6518SOL     OW25803   4.778   1.267   3.217 -0.8680 -0.4691  0.0881
 6518SOL    HW225804   4.703   1.219   3.184 -0.4503 -1.3565  0.4103
 6518SOL    HW325805   4.792   1.337   3.153 -0.6874 -1.5528 -1.0892
 6518SOL    MW425806   4.770   1.270   3.204  0.0794 -0.2955  0.3378
 6519SOL     OW25807   1.846   5.487   5.353 -0.5826 -0.0641  0.7827
 6519SOL    HW225808   1.930   5.469   5.312 -0.1521  0.8267  1.2381
 6519SOL    HW325809   1.831   5.415   5.414 -0.7260 -0.8439 -0.1568
 6519SOL    MW425810   1.855   5.475   5.356  0.3183  0.3069  0.4984
 6520SOL     OW25811   1.780   5.662   3.107  0.0648  0.1753 -0.1947
 6520SOL    HW225812   1.793   5.605   3.183  1.0656  0.7889  0.1157
 6520SOL    HW325813   1.698   5.631   3.068 -0.3761 -0.2720  1.0230
 6520SOL    MW425814   1.770   5.650   3.112  0.9679 -0.2393  0.0396
 6521SOL     OW25815   4.829   1.285   0.446  0.5481  0.5999 -0.0299
 6521SOL    HW225816   4.846   1.196   0.418 -0.3220  0.2894  0.3866
 6521SOL    HW325817   4.896   1.338   0.402  1.2439 -0.2871 -0.0516
 6521SOL    MW425818   4.840   1.280   0.437  0.0005  0.0207 -0.6453
 6522SOL     OW25819   5.836   5.726   3.156 -0.0513 -0.0344 -0.5150
 6522SOL    HW225820   5.853   5.671   3.232 -0.3715 -0.8592 -1.0273
 6522SOL    HW325821   5.756   5.774   3.179  0.6344  0.8021  0.2308
 6522SOL    MW425822   5.827   5.725   3.169  0.4774  0.0860  0.2448
 6523SOL     OW25823   4.170   0.083   5.200 -0.0841 -0.1102  0.0914
 6523SOL    HW225824   4.216   0.069   5.282 -0.2109  0.0782  0.1928
 6523SOL    HW325825   4.230   0.136   5.147  0.6764 -1.5054 -0.5342
 6523SOL    MW425826   4.184   0.088   5.204  0.1583 -0.1842 -0.1432
 6524SOL     OW25827   4.325   2.365   5.638  0.6340 -0.0896 -0.5793
 6524SOL    HW225828   4.369   2.444   5.607  0.0300  0.7006  0.5021
 6524SOL    HW325829   4.394   2.298   5.637  1.6443  0.8971  0.1993
 6524SOL    MW425830   4.340   2.366   5.634  0.2428  0.5095  0.4712
 6525SOL     OW25831   4.110   1.204   2.000 -0.3666  0.0724 -0.5299
 6525SOL    HW225832   4.026   1.233   2.033 -0.3125  0.0068 -0.3338
 6525SOL    HW325833   4.095   1.114   1.971  0.3033 -1.0119  2.1733
 6525SOL    MW425834   4.097   1.196   2.001 -0.3827 -0.1943 -0.5468
 6526SOL     OW25835   2.785   1.821   5.952  0.7015  0.5964 -0.0298
 6526SOL    HW225836   2.777   1.815   5.856 -1.4152  1.4123  0.0419
 6526SOL    HW325837   2.716   1.882   5.978 -0.0917 -1.1129  2.1934
 6526SOL    MW425838   2.775   1.828   5.942 -0.0499 -0.4447 -0.7829
 6527SOL     OW25839   1.584   3.889   5.729 -0.3625  0.0079  0.0338
 6527SOL    HW225840   1.631   3.972   5.733 -3.7111  2.0718  0.6968
 6527SOL    HW325841   1.530   3.896   5.651  0.0669 -2.0988 -0.5118
 6527SOL    MW425842   1.583   3.901   5.719  0.2203 -0.2113  0.0449
 6528SOL     OW25843   5.020   2.194   1.556  0.2012  0.0721 -0.3491
 6528SOL    HW225844   5.061   2.227   1.636 -0.1580  2.2528 -1.0115
 6528SOL    HW325845   4.955   2.131   1.586  2.5545 -1.9960  0.8432
 6528SOL    MW425846   5.017   2.190   1.570  0.2099 -0.3321  0.2130
 6529SOL     OW25847   6.300   0.247   2.375 -0.2293 -0.1619 -0.4849
 6529SOL    HW225848   6.252   0.322   2.409 -0.2182  0.0529 -0.9344
 6529SOL    HW325849   6.347   0.212   2.450 -0.1135  0.3764 -0.3064
 6529SOL    MW425850   6.300   0.252   2.389 -0.5200  0.7894 -0.1212
 6530SOL     OW25851   1.656   1.676   0.111 -0.0975 -0.2787 -0.3132
 6530SOL    HW225852   1.716   1.669   0.185  0.5764 -0.2984 -0.8473
 6530SOL    HW325853   1.700   1.736   0.050 -1.9197  2.0572  0.5081
 6530SOL    MW425854   1.670   1.683   0.113 -0.1086  0.6074  0.3689
 6531SOL     OW25855   4.640   5.615   3.273 -0.3467 -0.2944 -0.0831
 6531SOL    HW225856   4.602   5.689   3.321 -1.0216  0.1386 -1.2269
 6531SOL    HW325857   4.734   5.635   3.269 -0.1839 -0.6352  1.5208
 6531SOL    MW425858   4.647   5.627   3.279 -0.5206  0.5028 -0.6998
 6532SOL     OW25859   6.371   0.993   2.465 -0.8826 -0.1245 -0.3046
 6532SOL    HW225860   6.438   1.019   2.401 -1.1860 -1.5240 -1.2658
 6532SOL    HW325861   6.365   0.898   2.454 -1.7883 -0.2353  1.0047
 6532SOL    MW425862   6.379   0.984   2.455  0.5106  0.5007  0.7525
 6533SOL     OW25863   4.747   6.316   1.679  0.5706  0.4445  0.4808
 6533SOL    HW225864   4.804   6.241   1.661  3.4470  2.3040  1.1180
 6533SOL    HW325865   4.754   6.371   1.601 -2.1343 -0.1549 -0.3140
 6533SOL    MW425866   4.755   6.313   1.666  0.0120  0.0175 -0.3309
 6534SOL     OW25867   5.658   1.176   5.356 -0.2553  0.6815 -0.1975
 6534SOL    HW225868   5.743   1.219   5.343  0.5753 -0.7536  0.3194
 6534SOL    HW325869   5.680   1.087   5.382 -1.9388  0.1816 -0.4000
 6534SOL    MW425870   5.672   1.170   5.358 -0.0878 -0.2858  0.9240
 6535SOL     OW25871   0.874   5.103   6.198 -0.1598  0.4818  0.1110
 6535SOL    HW225872   0.894   5.189   6.161 -0.6149  0.5604  0.0444
 6535SOL    HW325873   0.779   5.101   6.205 -0.1893 -0.2207 -0.3875
 6535SOL    MW425874   0.864   5.114   6.194 -1.1853  0.2615  0.0109
 6536SOL     OW25875   3.403   2.388   5.730  0.5096 -0.0621  0.1467
 6536SOL    HW225876   3.389   2.397   5.636 -1.7756  1.2897  0.5535
 6536SOL    HW325877   3.375   2.299   5.750 -0.1709  0.0544 -0.2672
 6536SOL    MW425878   3.398   2.377   5.720  0.6617  0.5992  0.0211
 6537SOL     OW25879   4.552   3.094   4.481 -0.0911 -1.0327 -0.1601
 6537SOL    HW225880   4.624   3.032   4.487 -0.7427 -1.7046  1.1116
 6537SOL    HW325881   4.579   3.167   4.538  0.0553 -0.7725 -0.5542
 6537SOL    MW425882   4.565   3.096   4.489  0.1844  0.4549  0.6938
 6538SOL     OW25883   3.602   2.577   0.333  0.5781  0.5990 -0.0029
 6538SOL    HW225884   3.527   2.634   0.352 -0.9682 -1.6158  0.9420
 6538SOL    HW325885   3.632   2.548   0.419 -1.0017 -2.7686 -0.4357
 6538SOL    MW425886   3.596   2.581   0.347 -0.0174 -0.2417  0.4907
 6539SOL     OW25887   1.731   5.109   3.365 -0.2591 -0.0075 -0.0227
 6539SOL    HW225888   1.705   5.041   3.427 -0.2373 -0.1158 -0.1338
 6539SOL    HW325889   1.779   5.063   3.296 -0.8211  0.0197 -0.4448
 6539SOL    MW425890   1.734   5.094   3.364 -0.3974 -0.4729  0.0761
 6540SOL     OW25891   3.548   0.434   2.185 -0.7619  0.0553 -0.5860
 6540SOL    HW225892   3.542   0.398   2.273  0.2778  1.6327  0.1654
 6540SOL    HW325893   3.458   0.458   2.163 -0.9564  0.0879  0.2287
 6540SOL    MW425894   3.535   0.432   2.194  0.0323  0.0041  0.3324
 6541SOL     OW25895   0.542   4.037   4.626  0.2110 -0.1906 -0.0160
 6541SOL    HW225896   0.519   3.951   4.590  1.0702 -0.4874  0.1174
 6541SOL    HW325897   0.637   4.042   4.616  0.2560  0.4376  0.6513
 6541SOL    MW425898   0.552   4.026   4.620 -0.4411  0.5670 -0.3571
 6542SOL     OW25899   4.997   2.187   4.286  0.3712 -0.8745 -0.3644
 6542SOL    HW225900   5.008   2.276   4.253 -0.6977 -0.7191 -0.3324
 6542SOL    HW325901   5.066   2.136   4.243  0.9450 -0.0455 -0.4331
 6542SOL    MW425902   5.008   2.192   4.276  0.2378  0.4455 -0.0428
 6543SOL     OW25903   5.539   2.300   4.737  0.1258 -1.0317  0.6624
 6543SOL    HW225904   5.490   2.218   4.743 -1.6050 -0.1203 -0.3613
 6543SOL    HW325905   5.479   2.366   4.771 -0.5476  0.5513 -3.1333
 6543SOL    MW425906   5.525   2.298   4.742  0.4303  0.2716  0.2539
 6544SOL     OW25907   1.094   3.636   5.790  0.4282  0.4961  0.4438
 6544SOL    HW225908   1.185   3.630   5.761  0.3137 -0.4520  0.2426
 6544SOL    HW325909   1.058   3.711   5.742  1.0682  0.7978  0.4317
 6544SOL    MW425910   1.101   3.645   5.780  0.0042  0.3417  0.3832
 6545SOL     OW25911   4.823   2.557   2.567  0.3508 -0.2886  0.7714
 6545SOL    HW225912   4.811   2.569   2.661  0.9275 -4.5284  1.5626
 6545SOL    HW325913   4.735   2.556   2.531 -0.0094 -0.9897  1.6569
 6545SOL    MW425914   4.810   2.559   2.575  0.0907  0.1037  0.3817
 6546SOL     OW25915   4.112   4.632   1.802  0.3983 -0.2259 -0.1545
 6546SOL    HW225916   4.067   4.669   1.726 -1.0890 -1.6257 -0.0177
 6546SOL    HW325917   4.137   4.708   1.855  2.5713  0.8889 -2.5599
 6546SOL    MW425918   4.109   4.647   1.799  0.0922 -0.2406 -0.2176
 6547SOL     OW25919   2.670   2.665   6.097 -0.2825  0.2049  0.0280
 6547SOL    HW225920   2.737   2.614   6.143 -1.5090 -1.2376  0.2941
 6547SOL    HW325921   2.661   2.746   6.149 -0.2788 -0.5465  1.2388
 6547SOL    MW425922   2.677   2.669   6.110  0.4092  0.2084  0.6311
 6548SOL     OW25923   3.673   2.364   3.168 -0.1085 -0.6471  0.5131
 6548SOL    HW225924   3.724   2.440   3.198  0.9076 -1.9329  2.1954
 6548SOL    HW325925   3.723   2.331   3.093 -0.4689  0.2286 -0.1298
 6548SOL    MW425926   3.687   2.370   3.162  0.1186 -0.2878  0.1036
 6549SOL     OW25927   5.340   0.861   4.894  0.1743 -0.1721  0.6419
 6549SOL    HW225928   5.408   0.799   4.867  0.3273  0.0736  0.4588
 6549SOL    HW325929   5.310   0.829   4.979  0.2726 -0.4813  0.5593
 6549SOL    MW425930   5.345   0.849   4.902 -0.2916  0.1442 -0.2314
 6550SOL     OW25931   2.660   5.421   0.551  0.5869 -0.0662  0.1325
 6550SOL    HW225932   2.626   5.391   0.636  0.2729 -2.2075 -0.6851
 6550SOL    HW325933   2.589   5.474   0.514  0.4747  0.3504  0.9247
 6550SOL    MW425934   2.646   5.424   0.557 -0.4076 -0.4935 -1.0227
 6551SOL     OW25935   1.563   3.523   1.896  0.3537 -0.0038  0.3448
 6551SOL    HW225936   1.630   3.484   1.841 -0.2276 -0.2572 -0.1896
 6551SOL    HW325937   1.568   3.474   1.978  1.2619  0.4158  0.5489
 6551SOL    MW425938   1.573   3.512   1.900 -0.4412 -0.0605  0.3384
 6552SOL     OW25939   3.041   6.422   3.232  0.2207 -0.4725  0.1319
 6552SOL    HW225940   3.104   6.482   3.191 -0.9282  0.7609  0.1141
 6552SOL    HW325941   2.957   6.467   3.226 -0.7650 -2.2507 -0.1880
 6552SOL    MW425942   3.038   6.436   3.226  0.3181  0.3928  0.0876
 6553SOL     OW25943   4.645   1.122   1.819  0.4093  0.2790  0.4344
 6553SOL    HW225944   4.595   1.081   1.890  1.1453 -0.3842  0.5859
 6553SOL    HW325945   4.725   1.070   1.813  0.7497  0.8674 -0.3020
 6553SOL    MW425946   4.649   1.110   1.828  0.3195 -0.3970 -0.3261
 6554SOL     OW25947   4.722   0.754   5.558 -0.3232 -0.3403  0.0284
 6554SOL    HW225948   4.812   0.746   5.589 -0.1114  0.8104 -0.2391
 6554SOL    HW325949   4.717   0.842   5.520 -2.2036  0.5880  2.1678
 6554SOL    MW425950   4.733   0.765   5.557 -0.0149 -0.0845  0.1020
 6555SOL     OW25951   1.175   3.482   6.009 -0.7518 -0.0729  0.1950
 6555SOL    HW225952   1.131   3.522   5.934 -1.3163  0.2875  0.7064
 6555SOL    HW325953   1.249   3.434   5.971  0.2692  1.8672 -0.4179
 6555SOL    MW425954   1.179   3.481   5.994  0.4252  0.0603  0.1684
 6556SOL     OW25955   0.443   3.121   2.655 -0.1684  0.1743 -0.3889
 6556SOL    HW225956   0.396   3.039   2.639  1.9008 -0.9777 -0.8747
 6556SOL    HW325957   0.461   3.155   2.568  2.1917 -0.8254 -0.3633
 6556SOL    MW425958   0.439   3.114   2.642 -0.2035  0.3761  0.1033
 6557SOL     OW25959   3.528   2.598   5.114 -0.0340  0.9010 -0.2750
 6557SOL    HW225960   3.462   2.529   5.122  0.0158  0.7851 -0.8479
 6557SOL    HW325961   3.602   2.568   5.167 -0.7350  1.4040  1.0533
 6557SOL    MW425962   3.529   2.585   5.122 -0.3954  0.5408  0.2354
 6558SOL     OW25963   1.281   0.195   6.163 -0.1375  0.0122 -0.0997
 6558SOL    HW225964   1.274   0.288   6.140  0.6483 -0.2722 -1.6448
 6558SOL    HW325965   1.225   0.185   6.240 -0.9964  1.5796 -0.4708
 6558SOL    MW425966   1.272   0.206   6.170 -0.2279  0.6837  0.3525
 6559SOL     OW25967   6.211   0.283   1.725 -0.1017 -0.5392 -0.2628
 6559SOL    HW225968   6.289   0.274   1.671  1.1351 -3.7987  1.7486
 6559SOL    HW325969   6.226   0.360   1.778  1.2614 -0.5319 -0.6359
 6559SOL    MW425970   6.223   0.292   1.725  0.0495 -0.3221 -0.0117
 6560SOL     OW25971   4.062   1.650   3.981 -0.0958  0.1135  0.4978
 6560SOL    HW225972   3.967   1.638   3.979 -0.4390  1.7155 -3.5580
 6560SOL    HW325973   4.078   1.715   4.049 -1.5481 -1.6631  2.6680
 6560SOL    MW425974   4.052   1.657   3.989  0.2055  0.3939  0.6369
 6561SOL     OW25975   6.329   5.790   4.525  0.0704  0.4741  0.2652
 6561SOL    HW225976   6.400   5.735   4.559 -0.5174  0.0260  0.7992
 6561SOL    HW325977   6.318   5.763   4.434  0.1226  0.0571  0.3813
 6561SOL    MW425978   6.337   5.780   4.518  0.1768  0.0640 -0.2289
 6562SOL     OW25979   1.895   1.151   4.169 -0.3010  0.2619  0.0865
 6562SOL    HW225980   1.978   1.136   4.124 -0.3717  0.6097 -0.1696
 6562SOL    HW325981   1.846   1.070   4.158  0.1343 -0.0626  0.5212
 6562SOL    MW425982   1.899   1.139   4.161  0.0012  0.4166  0.0843
 6563SOL     OW25983   1.297   1.654   5.620  0.4963 -0.0141 -0.3488
 6563SOL    HW225984   1.226   1.600   5.656  0.0769  0.6372 -0.1786
 6563SOL    HW325985   1.347   1.683   5.696  0.8986 -0.4045 -0.4636
 6563SOL    MW425986   1.294   1.651   5.635 -0.1183 -0.1959 -0.0195
 6564SOL     OW25987   2.518   0.278   4.528  0.0680 -0.5539 -0.1558
 6564SOL    HW225988   2.435   0.242   4.557  0.1884 -2.8419 -2.3080
 6564SOL    HW325989   2.497   0.326   4.447  0.6377  0.1440  0.0979
 6564SOL    MW425990   2.505   0.280   4.521 -0.3981 -0.3134 -0.1477
 6565SOL     OW25991   1.827   0.680   1.410  0.1792  0.0005  0.0358
 6565SOL    HW225992   1.812   0.587   1.397  0.3215  0.1307 -1.1764
 6565SOL    HW325993   1.817   0.693   1.504 -0.8706 -1.0428  0.0904
 6565SOL    MW425994   1.824   0.670   1.420 -0.1638 -0.4299 -0.1413
 6566SOL     OW25995   5.244   6.223   2.131 -0.2603  0.0414  0.5821
 6566SOL    HW225996   5.328   6.267   2.145  0.2343 -0.5706 -0.3738
 6566SOL    HW325997   5.216   6.252   2.044  0.6882 -2.4447 -0.6345
 6566SOL    MW425998   5.251   6.233   2.121 -0.1712  0.1844  0.8108
 6567SOL     OW25999   3.730   5.460   3.411  0.0049  0.2782  0.1979
 6567SOL    HW226000   3.808   5.408   3.428 -0.4215  0.1029  1.7296
 6567SOL    HW326001   3.665   5.428   3.473 -0.7871  1.5102  0.0462
 6567SOL    MW426002   3.731   5.449   3.421  0.0162  0.3335  0.2288
 6568SOL     OW26003   0.482   2.462   3.675 -0.4940  0.0080  0.1325
 6568SOL    HW226004   0.401   2.414   3.658 -0.5818 -1.5959  4.1368
 6568SOL    HW326005   0.547   2.394   3.692  1.1094  1.2990 -0.5700
 6568SOL    MW426006   0.480   2.446   3.675 -0.4335  0.0358 -0.0064
 6569SOL     OW26007   0.234   2.939   3.425 -0.6611  0.0301  0.7468
 6569SOL    HW226008   0.320   2.979   3.413 -0.3292 -0.4657  1.4377
 6569SOL    HW326009   0.213   2.901   3.340 -0.2239  0.2117  0.5568
 6569SOL    MW426010   0.242   2.939   3.412  0.0882 -0.3024  0.0805
 6570SOL     OW26011   1.690   3.051   6.207 -0.3889 -0.5089  0.4303
 6570SOL    HW226012   1.656   3.034   6.295 -0.2942  0.8398  0.7603
 6570SOL    HW326013   1.616   3.034   6.149 -0.5219 -1.1859  0.7929
 6570SOL    MW426014   1.675   3.047   6.211  0.1872  0.4136  0.4812
 6571SOL     OW26015   6.169   4.312   1.897  0.2172  0.0722 -0.0811
 6571SOL    HW226016   6.220   4.265   1.830  1.1556 -0.5583  1.0342
 6571SOL    HW326017   6.145   4.244   1.960 -3.0407  0.1138 -1.1115
 6571SOL    MW426018   6.173   4.296   1.897 -0.3652  0.3570  0.2558
 6572SOL     OW26019   2.134   0.977   5.334  0.4947 -0.5065  0.1063
 6572SOL    HW226020   2.161   0.892   5.369 -2.9475 -0.9320  2.2555
 6572SOL    HW326021   2.098   1.023   5.410 -2.1912  0.9023 -1.8643
 6572SOL    MW426022   2.133   0.972   5.349  0.0667 -0.0042 -0.4075
 6573SOL     OW26023   4.684   2.006   6.051  0.0011 -0.2853 -1.0996
 6573SOL    HW226024   4.709   2.095   6.026  0.4714 -0.0673  0.1086
 6573SOL    HW326025   4.607   2.017   6.106  0.6013 -0.5458 -0.1908
 6573SOL    MW426026   4.677   2.019   6.055 -1.2627 -0.0820  0.6649
 6574SOL     OW26027   5.396   3.253   0.576  0.1802 -0.2724 -0.8735
 6574SOL    HW226028   5.306   3.245   0.545 -0.2312  0.0687  0.1924
 6574SOL    HW326029   5.417   3.346   0.563  0.0585 -0.1603 -0.2835
 6574SOL    MW426030   5.387   3.264   0.570  0.1056  0.4156  0.5210
 6575SOL     OW26031   0.743   0.667   1.195 -0.4851 -0.4488 -0.0928
 6575SOL    HW226032   0.740   0.572   1.199  1.1851 -0.5010  1.2605
 6575SOL    HW326033   0.823   0.687   1.146 -0.6850  0.2522 -0.1458
 6575SOL    MW426034   0.754   0.657   1.189 -0.0278 -0.0660 -0.1217
 6576SOL     OW26035   3.383   0.949   4.325  0.1836 -0.3929  0.2552
 6576SOL    HW226036   3.332   0.881   4.369  0.3462  0.5162  1.9104
 6576SOL    HW326037   3.437   0.986   4.393  0.3954  1.1431 -0.7079
 6576SOL    MW426038   3.383   0.945   4.340 -0.7862 -0.3953 -0.5911
 6577SOL     OW26039   3.006   3.659   1.150  0.2203  0.6698 -0.1538
 6577SOL    HW226040   3.034   3.624   1.066  1.7777  0.6702  0.3430
 6577SOL    HW326041   2.911   3.648   1.150  0.2366  0.3524 -1.7579
 6577SOL    MW426042   2.997   3.653   1.139  0.8179  0.0591 -0.1840
 6578SOL     OW26043   4.230   0.174   2.747  0.1349 -0.1973 -0.1216
 6578SOL    HW226044   4.223   0.250   2.689  2.4988  0.8353  0.7864
 6578SOL    HW326045   4.314   0.135   2.724  0.1173 -1.0250  1.1370
 6578SOL    MW426046   4.241   0.179   2.736 -0.1258 -0.3671 -0.0890
 6579SOL     OW26047   1.651   2.417   3.752  0.2846  0.0563 -0.5891
 6579SOL    HW226048   1.565   2.402   3.793  0.1293  2.0018 -0.1310
 6579SOL    HW326049   1.702   2.339   3.777 -1.3784 -1.2609 -1.0745
 6579SOL    MW426050   1.646   2.405   3.761 -0.0377 -0.2610 -0.4407
 6580SOL     OW26051   3.396   6.404   0.070  0.3068 -0.0487 -0.3160
 6580SOL    HW226052   3.469   6.466   0.084  1.0431 -1.2284  1.4609
 6580SOL    HW326053   3.363   6.426  -0.016  1.8610  1.4855 -0.5937
 6580SOL    MW426054   3.401   6.415   0.061  0.5940  0.2162 -0.6377
 6581SOL     OW26055   4.849   1.997   4.720 -0.1426  0.4857 -0.4260
 6581SOL    HW226056   4.929   2.029   4.763  0.1840  0.8191 -1.2652
 6581SOL    HW326057   4.823   2.068   4.662 -1.7065  0.8376  0.6481
 6581SOL    MW426058   4.856   2.010   4.718 -0.1063 -0.3806  0.0694
 6582SOL     OW26059   0.933   0.499   5.100  0.3666  0.2915 -0.0985
 6582SOL    HW226060   0.868   0.430   5.097 -0.2695  0.7038  2.0666
 6582SOL    HW326061   1.004   0.468   5.044 -0.7258 -1.2010 -0.7181
 6582SOL    MW426062   0.934   0.486   5.092 -0.3318  0.1513 -0.3696
 6583SOL     OW26063   0.746   4.043   4.261 -0.1646  0.1271 -0.1547
 6583SOL    HW226064   0.664   4.086   4.287  1.0184  1.8252  1.0107
 6583SOL    HW326065   0.814   4.107   4.282  1.4674 -1.1377 -1.3049
 6583SOL    MW426066   0.744   4.057   4.267  0.2639 -0.2904  0.3293
 6584SOL     OW26067   5.965   4.905   4.616 -0.1111  0.1667 -0.1167
 6584SOL    HW226068   5.961   4.864   4.530  0.7045 -0.4052  0.1066
 6584SOL    HW326069   6.057   4.896   4.643 -0.3213  0.4834  0.7356
 6584SOL    MW426070   5.977   4.898   4.608 -0.0795 -0.0976 -0.0081
 6585SOL     OW26071   3.564   4.062   0.396 -0.3620 -0.5033  0.6449
 6585SOL    HW226072   3.571   3.971   0.366 -1.4483  0.2744 -2.3282
 6585SOL    HW326073   3.651   4.082   0.430  0.2026 -2.3339  0.4261
 6585SOL    MW426074   3.576   4.052   0.397  0.5223  0.2511  0.0036
 6586SOL     OW26075   0.075   1.200   1.915 -0.3063  0.1004 -0.1758
 6586SOL    HW226076   0.134   1.235   1.981  0.1332  0.4563 -0.7415
 6586SOL    HW326077   0.068   1.271   1.850  0.9016 -0.9739 -1.5367
 6586SOL    MW426078   0.082   1.214   1.915  0.2452  0.1622 -0.0052
 6587SOL     OW26079   4.759   0.380   0.664  0.1892 -0.2206  0.0420
 6587SOL    HW226080   4.808   0.306   0.629 -1.2532 -1.4582  0.5500
 6587SOL    HW326081   4.777   0.378   0.758  0.9505  0.7243 -0.0646
 6587SOL    MW426082   4.768   0.370   0.672 -0.0402 -0.2323 -0.4580
 6588SOL     OW26083   2.906   3.821   5.924  0.2265  0.0084  0.2213
 6588SOL    HW226084   2.985   3.868   5.952  0.8768 -0.6503 -0.4734
 6588SOL    HW326085   2.908   3.824   5.829 -2.1667  2.5521  0.1122
 6588SOL    MW426086   2.917   3.828   5.915 -0.1597 -0.0067 -0.2269
 6589SOL     OW26087   2.783   2.459   4.295 -0.3697  0.4080 -0.2803
 6589SOL    HW226088   2.785   2.464   4.199  0.0633 -1.8342 -0.4374
 6589SOL    HW326089   2.695   2.426   4.315 -0.0627 -0.2341  0.0122
 6589SOL    MW426090   2.771   2.455   4.285  0.4548  0.5641  0.0129
 6590SOL     OW26091   0.379   0.454   5.919  0.6757  0.8730 -0.3622
 6590SOL    HW226092   0.392   0.363   5.946 -0.0881  0.0495 -2.5082
 6590SOL    HW326093   0.301   0.451   5.863  0.4600  2.9161 -0.2439
 6590SOL    MW426094   0.370   0.441   5.915 -0.0600  1.1896 -0.4178
 6591SOL     OW26095   5.427   2.977   1.209  0.2715 -0.2820  0.2020
 6591SOL    HW226096   5.448   3.042   1.276  2.0314  0.3659 -0.9090
 6591SOL    HW326097   5.485   2.904   1.227  0.2950 -0.3722 -0.2398
 6591SOL    MW426098   5.437   2.976   1.220 -0.2687 -0.0791  0.0780
 6592SOL     OW26099   3.776   6.132   3.603 -0.4540 -0.2792 -0.3671
 6592SOL    HW226100   3.766   6.074   3.679 -0.9185  0.3604  0.0755
 6592SOL    HW326101   3.792   6.218   3.641 -0.0501 -0.0660 -1.0113
 6592SOL    MW426102   3.776   6.136   3.618 -0.7388 -0.6729 -0.5085
 6593SOL     OW26103   3.924   3.532   3.980  0.1676 -0.0332 -0.4559
 6593SOL    HW226104   3.893   3.487   4.058  0.4806  1.4552  0.5725
 6593SOL    HW326105   3.909   3.470   3.909  1.6531 -2.1968  0.9939
 6593SOL    MW426106   3.918   3.518   3.981  0.4294 -0.6282  0.6492
 6594SOL     OW26107   6.382   0.083   5.314  0.3717 -0.6205 -0.5449
 6594SOL    HW226108   6.363   0.024   5.241  2.8530 -2.0575 -0.1172
 6594SOL    HW326109   6.459   0.046   5.356 -1.2880 -0.2309  3.2494
 6594SOL    MW426110   6.389   0.071   5.310 -0.1835 -0.5519 -0.1939
 6595SOL     OW26111   5.735   1.666   1.565 -0.3124 -0.0651  0.7682
 6595SOL    HW226112   5.783   1.726   1.508  0.0055 -1.7266 -0.8241
 6595SOL    HW326113   5.712   1.718   1.642 -1.0412  2.4132 -1.0059
 6595SOL    MW426114   5.738   1.681   1.567  0.7488 -0.0363 -0.2632
 6596SOL     OW26115   0.974   1.715   3.675 -0.4056  0.2838  0.0510
 6596SOL    HW226116   1.039   1.785   3.670 -0.9914  0.8525  0.1973
 6596SOL    HW326117   0.966   1.683   3.585  1.3222 -0.9819  0.2966
 6596SOL    MW426118   0.981   1.720   3.663 -0.4584 -0.4536  0.4608
 6597SOL     OW26119   1.852   2.185   5.930 -0.5232  0.4404  0.1125
 6597SOL    HW226120   1.909   2.161   6.003 -0.1191 -3.0276 -1.1621
 6597SOL    HW326121   1.763   2.167   5.963 -0.3896 -0.4587  0.0072
 6597SOL    MW426122   1.848   2.179   5.944  0.1821  0.4862  0.0959
 6598SOL     OW26123   1.061   1.669   4.622  0.4420  0.0984  0.6205
 6598SOL    HW226124   1.000   1.734   4.657 -0.1423 -0.0507 -0.0845
 6598SOL    HW326125   1.076   1.608   4.694 -1.1414 -0.4938  0.4957
 6598SOL    MW426126   1.055   1.669   4.636  0.4152  0.0408  0.1913
 6599SOL     OW26127   0.273   5.960   4.379 -0.6048 -0.3014 -0.3980
 6599SOL    HW226128   0.343   6.007   4.335 -0.9413 -0.1535 -0.7798
 6599SOL    HW326129   0.198   5.966   4.319 -0.5315 -1.6863 -0.6527
 6599SOL    MW426130   0.272   5.967   4.366 -0.0969  0.3707  0.2132
 6600SOL     OW26131   1.499   0.046   4.061 -0.1729 -0.2385  0.1167
 6600SOL    HW226132   1.562   0.112   4.030 -0.8576  1.5415  2.2270
 6600SOL    HW326133   1.417   0.068   4.015 -0.0522 -0.5480 -0.2525
 6600SOL    MW426134   1.496   0.058   4.051  0.2460 -0.1985  0.6296
 6601SOL     OW26135   5.101   3.012   4.211 -0.4285 -0.2254  0.1215
 6601SOL    HW226136   5.038   3.035   4.279 -1.1242 -1.9379  0.0930
 6601SOL    HW326137   5.069   3.058   4.133 -2.2495 -1.8356 -0.1384
 6601SOL    MW426138   5.089   3.021   4.209  0.5460  0.2433  0.6910
 6602SOL     OW26139   4.432   2.605   2.683  0.0685  0.0103  0.2293
 6602SOL    HW226140   4.406   2.530   2.629  1.9759  0.5019 -1.5191
 6602SOL    HW326141   4.514   2.635   2.644  0.2317  1.9876  1.9167
 6602SOL    MW426142   4.440   2.599   2.671  0.1159 -0.2859  0.6191
 6603SOL     OW26143   0.282   2.625   0.549 -0.4327  0.2844 -0.0691
 6603SOL    HW226144   0.291   2.530   0.551  0.0047  0.3159 -0.4384
 6603SOL    HW326145   0.231   2.646   0.627  0.5330 -0.1406  0.6854
 6603SOL    MW426146   0.276   2.615   0.559 -0.1283  0.5432 -0.7469
 6604SOL     OW26147   5.057   3.810   1.785 -0.5104  0.1065 -0.2186
 6604SOL    HW226148   5.145   3.776   1.801 -0.4160  0.3442 -0.2305
 6604SOL    HW326149   4.998   3.741   1.815 -0.3238  0.1374  0.2255
 6604SOL    MW426150   5.061   3.797   1.791 -0.3522  0.2443  0.6337
 6605SOL     OW26151   0.657   1.582   2.795  0.6311  0.3599 -0.4365
 6605SOL    HW226152   0.618   1.576   2.883  1.7686 -0.6090  0.0324
 6605SOL    HW326153   0.645   1.673   2.770 -0.0840  0.5585  0.5547
 6605SOL    MW426154   0.650   1.593   2.803  0.2072  0.1363 -0.6640
 6606SOL     OW26155   2.560   2.779   1.755  0.1718 -0.0057 -0.2854
 6606SOL    HW226156   2.619   2.711   1.786 -2.9042 -3.1633 -0.6929
 6606SOL    HW326157   2.551   2.839   1.829  3.1170  0.1813  0.0412
 6606SOL    MW426158   2.566   2.778   1.769 -0.3344 -0.0660 -0.1650
 6607SOL     OW26159   5.874   6.402   1.159  0.2832  0.0977  0.2471
 6607SOL    HW226160   5.877   6.393   1.255  0.7835  0.0045  0.2240
 6607SOL    HW326161   5.781   6.416   1.140  0.3450  1.5577  0.8820
 6607SOL    MW426162   5.862   6.403   1.169  0.2263 -0.1495  0.5516
 6608SOL     OW26163   1.145   4.490   0.040 -0.0997 -0.8439 -0.0298
 6608SOL    HW226164   1.170   4.537  -0.039 -1.2353 -0.0706  0.0343
 6608SOL    HW326165   1.062   4.447   0.017 -1.3688  0.7930  1.1918
 6608SOL    MW426166   1.137   4.490   0.027  0.3126 -0.3782  0.1366
 6609SOL     OW26167   5.283   6.366   5.541 -0.3423 -0.1643 -0.3742
 6609SOL    HW226168   5.358   6.319   5.578  0.3804  0.3507 -1.1453
 6609SOL    HW326169   5.266   6.323   5.457 -1.4503 -0.8071  0.1656
 6609SOL    MW426170   5.291   6.354   5.535  0.3052 -0.7856 -1.0189
 6610SOL     OW26171   0.623   5.091   5.492 -0.7844  0.5543  0.1434
 6610SOL    HW226172   0.575   5.071   5.412 -2.2224  0.0886  1.0626
 6610SOL    HW326173   0.714   5.074   5.472 -0.8226  2.5233 -2.0385
 6610SOL    MW426174   0.628   5.086   5.479  0.0172 -0.7415  0.4227
 6611SOL     OW26175   2.825   2.002   2.778  0.0221 -0.3671 -0.1610
 6611SOL    HW226176   2.752   2.048   2.739 -0.0753 -1.4924 -1.3875
 6611SOL    HW326177   2.897   2.014   2.717  0.0491 -1.6237 -0.4102
 6611SOL    MW426178   2.825   2.009   2.765  0.2246  0.0095  0.1635
 6612SOL     OW26179   5.815   1.616   3.179 -0.1407 -0.1803  0.6368
 6612SOL    HW226180   5.839   1.530   3.213 -0.3044  0.0666  1.4128
 6612SOL    HW326181   5.899   1.660   3.164  0.0315 -1.2313 -1.8957
 6612SOL    MW426182   5.829   1.611   3.182 -0.9151  0.1640  0.2820
 6613SOL     OW26183   4.027   3.334   0.788 -0.1420  0.2882  0.2789
 6613SOL    HW226184   4.104   3.309   0.737 -0.1548  1.3334 -0.2645
 6613SOL    HW326185   4.051   3.312   0.879 -0.5329 -2.6156 -0.1986
 6613SOL    MW426186   4.041   3.328   0.793  0.2570 -0.1863  0.1066
 6614SOL     OW26187   5.131   1.146   2.622  0.0410 -0.1875 -0.3375
 6614SOL    HW226188   5.171   1.130   2.536 -1.6672 -1.2515 -0.9908
 6614SOL    HW326189   5.156   1.235   2.644  1.4656 -0.2928 -1.4029
 6614SOL    MW426190   5.139   1.155   2.613  0.2183  0.5262  0.2153
 6615SOL     OW26191   0.023   1.614   4.467  0.5435 -0.0210 -0.0649
 6615SOL    HW226192   0.033   1.551   4.538 -0.8342 -1.5017 -1.0929
 6615SOL    HW326193  -0.054   1.665   4.491  1.0408  0.5969  0.2587
 6615SOL    MW426194   0.014   1.612   4.480 -0.2007 -0.3445  0.2828
 6616SOL     OW26195   1.734   5.388   2.633  0.2423 -0.3452  0.0282
 6616SOL    HW226196   1.676   5.325   2.676  0.1228 -0.6996 -0.6312
 6616SOL    HW326197   1.680   5.427   2.564 -0.0843  1.4658  1.2667
 6616SOL    MW426198   1.719   5.385   2.629  0.4830 -0.7226 -0.4475
 6617SOL     OW26199   6.337   3.456   4.436  0.1946  0.0040  0.3680
 6617SOL    HW226200   6.241   3.451   4.438 -0.0362  2.8615 -0.2069
 6617SOL    HW326201   6.365   3.390   4.500 -2.1285 -0.9031  0.5651
 6617SOL    MW426202   6.328   3.446   4.445 -0.1680  0.3621  0.0475
 6618SOL     OW26203   5.524   2.110   3.098  0.2347 -0.1958  0.0849
 6618SOL    HW226204   5.614   2.115   3.066  0.4364  0.2642  0.6915
 6618SOL    HW326205   5.533   2.094   3.192 -0.2297  2.4838  0.6672
 6618SOL    MW426206   5.537   2.109   3.106 -0.7736 -0.4351 -0.6347
 6619SOL     OW26207   5.602   5.167   4.684 -0.2844  0.1037  0.2834
 6619SOL    HW226208   5.570   5.178   4.773 -0.8889 -1.6810  0.3241
 6619SOL    HW326209   5.696   5.151   4.693  0.0476  1.9196  0.4158
 6619SOL    MW426210   5.610   5.166   4.697  0.0383 -0.0651 -0.5934
 6620SOL     OW26211   5.819   3.057   2.873 -0.8487  0.3221 -0.0869
 6620SOL    HW226212   5.783   3.093   2.955 -0.3962  2.7391 -0.8615
 6620SOL    HW326213   5.907   3.029   2.896  0.4150  3.6795 -0.2064
 6620SOL    MW426214   5.826   3.058   2.887 -0.4725  0.1140 -0.2851
 6621SOL     OW26215   4.908   4.938   5.889 -0.2722 -0.4185  0.0014
 6621SOL    HW226216   4.833   4.993   5.913 -0.5661 -1.2200  0.9698
 6621SOL    HW326217   4.874   4.849   5.894  0.6824 -0.7733  0.1925
 6621SOL    MW426218   4.893   4.934   5.893 -0.1524 -0.1258 -0.1453
 6622SOL     OW26219   2.685   0.658   3.902 -0.2886 -0.2667 -0.0424
 6622SOL    HW226220   2.649   0.644   3.814 -3.0624 -0.0555  0.9364
 6622SOL    HW326221   2.619   0.713   3.946  1.3709  0.2559  1.9509
 6622SOL    MW426222   2.671   0.664   3.896 -0.5790  0.3775  0.2898
 6623SOL     OW26223   2.150   3.773   2.140 -0.0894  0.0573  0.2310
 6623SOL    HW226224   2.063   3.758   2.103 -0.1330  0.0550  0.3340
 6623SOL    HW326225   2.139   3.761   2.234  0.0245  0.0471  0.2441
 6623SOL    MW426226   2.137   3.769   2.147  0.4193 -0.0366 -0.3963
 6624SOL     OW26227   4.812   4.118   6.306 -0.7138  0.2026 -0.5098
 6624SOL    HW226228   4.830   4.053   6.237  0.6549 -0.7397  0.6848
 6624SOL    HW326229   4.728   4.090   6.344 -0.9536  0.1206 -1.0857
 6624SOL    MW426230   4.803   4.106   6.302 -0.1575  0.1040  0.3517
 6625SOL     OW26231   1.964   5.502   2.699  0.4644 -0.1468  0.5177
 6625SOL    HW226232   1.879   5.467   2.672  1.4984 -2.6449  0.2405
 6625SOL    HW326233   1.983   5.572   2.637 -1.2771  0.3460  0.4919
 6625SOL    MW426234   1.955   5.506   2.688 -0.4757  0.0109  0.5999
 6626SOL     OW26235   1.333   3.235   4.897  0.8511  0.8045 -0.4188
 6626SOL    HW226236   1.353   3.314   4.946  1.9162  0.4710 -0.2988
 6626SOL    HW326237   1.396   3.170   4.928  1.4808  0.5417 -2.1161
 6626SOL    MW426238   1.344   3.237   4.907  0.0355  0.8586  0.1650
 6627SOL     OW26239   5.598   0.200   4.768  0.4362 -0.0001 -0.1911
 6627SOL    HW226240   5.643   0.207   4.852  1.5801  2.8798 -0.8942
 6627SOL    HW326241   5.539   0.275   4.767  0.4903  0.0552 -1.9501
 6627SOL    MW426242   5.596   0.211   4.779 -0.1803  0.1408  0.2529
 6628SOL     OW26243   0.963   0.113   5.879  0.0536  0.4484  0.5868
 6628SOL    HW226244   0.936   0.134   5.789  0.9416  0.3488  0.2879
 6628SOL    HW326245   0.918   0.178   5.933 -2.0211 -0.6423  0.2918
 6628SOL    MW426246   0.953   0.125   5.874  0.0623 -0.0134  0.1178
 6629SOL     OW26247   3.081   4.649   4.923  0.5943  0.0469 -0.3066
 6629SOL    HW226248   3.063   4.558   4.947  0.4578  0.4108  1.0776
 6629SOL    HW326249   3.061   4.699   5.003  1.4785  1.1933 -0.7773
 6629SOL    MW426250   3.076   4.644   4.937 -0.5431 -0.5250  0.1391
 6630SOL     OW26251   1.479   0.265   1.647 -0.2167  0.0272 -0.1035
 6630SOL    HW226252   1.492   0.355   1.616  1.0353 -0.4697 -1.1406
 6630SOL    HW326253   1.566   0.236   1.674 -0.2888 -1.3486 -1.1960
 6630SOL    MW426254   1.492   0.273   1.646 -0.2726 -0.2089 -0.1016
 6631SOL     OW26255   6.252   1.591   0.994  0.0888 -0.0383 -0.2805
 6631SOL    HW226256   6.255   1.545   0.910  2.6353 -0.9725  0.2365
 6631SOL    HW326257   6.251   1.684   0.970  1.5371 -0.2748 -1.3848
 6631SOL    MW426258   6.253   1.597   0.980  0.2840  0.1902  0.7448
 6632SOL     OW26259   4.035   5.664   6.030 -0.5204  0.1564  0.3854
 6632SOL    HW226260   4.072   5.593   6.082 -1.4084 -0.0222  0.8029
 6632SOL    HW326261   3.949   5.680   6.070 -0.6373  0.9571 -0.1704
 6632SOL    MW426262   4.028   5.657   6.042  0.2310  0.2373 -0.1073
 6633SOL     OW26263   3.033   0.324   3.362 -0.1731  0.1776 -0.3655
 6633SOL    HW226264   2.983   0.269   3.422  0.0521  0.9823  0.5993
 6633SOL    HW326265   3.125   0.302   3.380 -0.0144  1.6466  0.8815
 6633SOL    MW426266   3.039   0.314   3.373 -0.3563  0.0664  1.2120
 6634SOL     OW26267   2.525   3.100   5.641 -0.2065  0.0115 -0.4543
 6634SOL    HW226268   2.543   3.101   5.547 -0.2216 -0.4532 -0.4646
 6634SOL    HW326269   2.582   3.168   5.677 -1.2962  1.2483 -0.9846
 6634SOL    MW426270   2.535   3.109   5.634 -0.0056 -0.0960 -0.0385
 6635SOL     OW26271   0.611   2.687   5.079  0.1530 -0.0660 -0.1147
 6635SOL    HW226272   0.625   2.659   5.170  0.1057 -0.2114 -0.1518
 6635SOL    HW326273   0.697   2.680   5.038  0.1220 -0.2552 -0.1501
 6635SOL    MW426274   0.624   2.682   5.086 -0.5860  0.1508 -0.3120
 6636SOL     OW26275   4.570   0.530   1.400 -0.0955  0.3068  0.0197
 6636SOL    HW226276   4.523   0.456   1.437  0.4411 -0.0880 -0.0837
 6636SOL    HW326277   4.620   0.566   1.474 -0.5318  0.7058  0.1223
 6636SOL    MW426278   4.571   0.525   1.415  0.1928  0.4477  0.3133
 6637SOL     OW26279   3.250   4.884   6.101  0.6259  0.3271  0.2232
 6637SOL    HW226280   3.345   4.873   6.109  1.0306  1.9058 -1.5696
 6637SOL    HW326281   3.224   4.822   6.034  0.4908  0.2765  0.3232
 6637SOL    MW426282   3.259   4.875   6.093  0.3865  0.0624 -0.3156
 6638SOL     OW26283   4.743   1.679   4.460 -0.4608  0.1437  0.1409
 6638SOL    HW226284   4.689   1.719   4.392 -1.9165  0.4786  1.4394
 6638SOL    HW326285   4.815   1.741   4.473 -1.0065  0.8228 -0.0353
 6638SOL    MW426286   4.746   1.692   4.452  0.2597 -0.5200  0.1913
 6639SOL     OW26287   4.642   5.272   5.352 -0.3398 -0.1151  0.5608
 6639SOL    HW226288   4.652   5.205   5.283 -0.1557 -1.3466  1.7443
 6639SOL    HW326289   4.548   5.278   5.365 -0.4853  1.3063 -0.8893
 6639SOL    MW426290   4.631   5.264   5.344  0.5118 -0.2301  0.1683
 6640SOL     OW26291   3.868   4.562   1.293  0.3632  0.2632  0.2206
 6640SOL    HW226292   3.961   4.544   1.307  0.6610  1.0280 -0.7703
 6640SOL    HW326293   3.864   4.610   1.211 -0.9735 -0.3301 -0.0895
 6640SOL    MW426294   3.880   4.566   1.284 -0.4951 -0.7137  0.2997
 6641SOL     OW26295   5.796   6.166   3.363 -0.3135 -0.0037  0.0164
 6641SOL    HW226296   5.838   6.126   3.287 -0.7700 -0.5584  0.0521
 6641SOL    HW326297   5.710   6.123   3.369  0.2406 -0.9915  1.6750
 6641SOL    MW426298   5.790   6.155   3.354  0.0346 -0.2247  0.4271
 6642SOL     OW26299   3.032   0.114   2.889  0.2624 -0.1501  0.2649
 6642SOL    HW226300   3.050   0.184   2.952 -1.2826 -1.8684  2.8161
 6642SOL    HW326301   2.948   0.077   2.917 -0.4610 -1.1463 -2.7887
 6642SOL    MW426302   3.023   0.118   2.901  0.2424 -0.1735  0.3378
 6643SOL     OW26303   1.941   6.406   5.571  0.0213  0.1335 -0.2838
 6643SOL    HW226304   1.984   6.362   5.646 -0.7871  1.2891  0.8933
 6643SOL    HW326305   1.917   6.492   5.604  1.7475  1.6197 -2.5988
 6643SOL    MW426306   1.944   6.411   5.586 -0.0995  0.3303  0.0719
 6644SOL     OW26307   2.385   5.149   2.401 -0.3008  0.1051 -0.5730
 6644SOL    HW226308   2.474   5.127   2.426 -0.8430 -1.3237  0.2484
 6644SOL    HW326309   2.333   5.132   2.480 -1.0368  3.0867 -0.3046
 6644SOL    MW426310   2.390   5.144   2.415  0.3690  0.0879 -0.1428
 6645SOL     OW26311   1.841   2.350   2.471  0.0137 -0.2427  0.1185
 6645SOL    HW226312   1.787   2.272   2.483  1.5883 -1.3883  0.1149
 6645SOL    HW326313   1.850   2.357   2.376 -0.6495  0.3372  0.0928
 6645SOL    MW426314   1.835   2.340   2.460 -0.0731 -0.2338  0.2573
 6646SOL     OW26315   4.857   0.461   5.544  0.0777 -0.3936 -0.8217
 6646SOL    HW226316   4.875   0.500   5.630  0.4209 -1.1379 -0.5424
 6646SOL    HW326317   4.864   0.534   5.483  0.5475  0.0184 -0.2977
 6646SOL    MW426318   4.861   0.476   5.548 -0.3521  0.3223 -0.8140
 6647SOL     OW26319   4.547   5.995   1.950 -0.1969  0.9532 -0.3970
 6647SOL    HW226320   4.624   5.984   1.895  1.0719  0.6283  1.3471
 6647SOL    HW326321   4.516   6.084   1.931  0.5518  1.0492 -1.1914
 6647SOL    MW426322   4.553   6.006   1.940  0.0431  0.8795 -0.4121
 6648SOL     OW26323   6.350   1.617   0.289 -0.0001 -0.2243  0.2774
 6648SOL    HW226324   6.293   1.540   0.292 -0.3614  0.0102 -0.3702
 6648SOL    HW326325   6.436   1.585   0.316 -0.1414 -0.8555 -0.0125
 6648SOL    MW426326   6.353   1.603   0.293  0.3661  0.2795 -0.0381
 6649SOL     OW26327   3.095   6.140   6.299 -0.1094 -0.0856 -0.3603
 6649SOL    HW226328   3.073   6.202   6.369  1.2754  0.0375 -0.0189
 6649SOL    HW326329   3.132   6.065   6.345  0.0301 -0.3578 -0.9151
 6649SOL    MW426330   3.097   6.138   6.314 -0.1109  0.0293 -0.2575
 6650SOL     OW26331   0.509   0.153   2.377 -0.3395  0.1782  0.1203
 6650SOL    HW226332   0.564   0.211   2.430 -0.6826 -1.1818  2.0849
 6650SOL    HW326333   0.566   0.127   2.304  1.5596 -0.8648  1.8657
 6650SOL    MW426334   0.524   0.157   2.375 -0.2999 -0.7411 -0.3538
 6651SOL     OW26335   0.164   4.833   1.194 -0.2810  0.4281 -0.6530
 6651SOL    HW226336   0.163   4.823   1.289  0.7540 -2.3759 -0.8396
 6651SOL    HW326337   0.072   4.830   1.168 -0.6015 -4.2808  0.0012
 6651SOL    MW426338   0.152   4.831   1.203  0.0201 -0.2805  0.2208
 6652SOL     OW26339   4.277   1.512   2.482 -0.0948  0.0795 -0.8921
 6652SOL    HW226340   4.230   1.429   2.488 -0.4342  0.3268  0.0645
 6652SOL    HW326341   4.240   1.555   2.405 -0.2779 -0.4271 -1.0956
 6652SOL    MW426342   4.266   1.506   2.473  0.1812  0.0284 -0.1701
 6653SOL     OW26343   3.283   0.261   3.751 -0.1989  0.9117 -0.0964
 6653SOL    HW226344   3.287   0.206   3.829 -0.5567  1.7731  0.5555
 6653SOL    HW326345   3.270   0.350   3.786 -0.2331  1.3234 -1.1328
 6653SOL    MW426346   3.281   0.266   3.766  0.1494  0.6530  0.0242
 6654SOL     OW26347   1.153   5.115   3.049 -0.6797 -0.4594  0.6365
 6654SOL    HW226348   1.166   5.027   3.084  2.2861 -0.6114 -0.5367
 6654SOL    HW326349   1.165   5.106   2.954 -2.9654  0.8404  0.1408
 6654SOL    MW426350   1.156   5.102   3.041 -0.0038 -0.3123 -0.1262
 6655SOL     OW26351   4.446   0.063   2.609 -0.0265  0.3701 -0.8535
 6655SOL    HW226352   4.402  -0.021   2.592 -0.1865  0.6634 -1.9887
 6655SOL    HW326353   4.523   0.040   2.660  0.2832 -0.5532 -1.7083
 6655SOL    MW426354   4.450   0.049   2.613 -0.6458 -0.3128  0.2558
 6656SOL     OW26355   6.124   1.472   1.883  0.1503 -0.0108 -0.4979
 6656SOL    HW226356   6.071   1.525   1.941  0.7528  1.3738 -1.1610
 6656SOL    HW326357   6.078   1.474   1.799  0.4107 -0.1484 -0.6468
 6656SOL    MW426358   6.111   1.479   1.879  0.1217 -0.1785  0.7711
 6657SOL     OW26359   5.502   4.091   4.150 -0.2342 -0.3147 -0.3407
 6657SOL    HW226360   5.455   4.009   4.136 -1.6763  0.4348 -0.1013
 6657SOL    HW326361   5.469   4.148   4.081  0.2806  0.2574 -0.1170
 6657SOL    MW426362   5.492   4.088   4.139  0.2909  0.4896  0.1309
 6658SOL     OW26363   3.303   2.649   2.830  0.0762 -0.3565 -0.5698
 6658SOL    HW226364   3.248   2.571   2.822 -0.6755  0.2291 -1.2930
 6658SOL    HW326365   3.269   2.694   2.908 -0.9735  0.3587 -1.4034
 6658SOL    MW426366   3.291   2.645   2.840 -0.1326 -0.2213 -0.2854
 6659SOL     OW26367   5.547   5.296   0.128  0.3377 -0.0431  0.1376
 6659SOL    HW226368   5.597   5.346   0.063  1.0978  1.3241  1.7026
 6659SOL    HW326369   5.609   5.281   0.199 -1.3123  1.3278  1.9672
 6659SOL    MW426370   5.562   5.300   0.129 -0.7482  0.6210 -0.8195
 6660SOL     OW26371   4.533   1.225   3.079 -0.1449 -0.2097 -0.7597
 6660SOL    HW226372   4.461   1.287   3.092 -0.8803 -1.1317 -0.2758
 6660SOL    HW326373   4.502   1.144   3.120  1.4385 -0.4449  0.0208
 6660SOL    MW426374   4.519   1.223   3.086 -0.2812  0.1771  0.5882
 6661SOL     OW26375   4.206   5.529   2.226  0.0783  0.0060  0.3360
 6661SOL    HW226376   4.214   5.596   2.294 -0.2384 -0.4222  0.7983
 6661SOL    HW326377   4.170   5.453   2.271 -0.2743 -0.2364 -0.3396
 6661SOL    MW426378   4.202   5.528   2.241  0.2917  0.3795  0.2473
 6662SOL     OW26379   1.457   3.856   6.297 -0.5722  0.0887 -0.2738
 6662SOL    HW226380   1.366   3.827   6.295 -0.1303 -1.3770 -0.3438
 6662SOL    HW326381   1.508   3.776   6.282  0.7274  0.8817 -0.2383
 6662SOL    MW426382   1.452   3.841   6.295  0.4646 -0.6459  0.2398
 6663SOL     OW26383   3.218   1.679   4.222 -0.4481  0.0109  0.4860
 6663SOL    HW226384   3.268   1.710   4.298  1.0329 -0.4163 -0.2800
 6663SOL    HW326385   3.148   1.743   4.212  2.2013  2.9503 -0.7648
 6663SOL    MW426386   3.216   1.692   4.231 -0.1413 -0.4029  0.2075
 6664SOL     OW26387   3.473   4.967   0.934 -0.4393  0.2201  0.4224
 6664SOL    HW226388   3.439   5.049   0.900 -1.6154 -0.6925 -0.7118
 6664SOL    HW326389   3.527   4.932   0.864 -0.0379 -0.0222  0.8482
 6664SOL    MW426390   3.475   4.973   0.921  0.1866 -0.0902  0.1573
 6665SOL     OW26391   0.100   3.636   4.467 -0.5551  0.2646 -0.4014
 6665SOL    HW226392   0.079   3.671   4.554  2.4210 -1.3910  1.1717
 6665SOL    HW326393   0.023   3.585   4.442 -2.1573  2.1428  0.3936
 6665SOL    MW426394   0.087   3.634   4.475 -0.1292  0.3006  0.0226
 6666SOL     OW26395   0.567   3.780   5.788 -0.0124  0.1470 -0.0580
 6666SOL    HW226396   0.621   3.807   5.863  0.2140 -0.8304  0.1351
 6666SOL    HW326397   0.514   3.858   5.769  0.9745  0.9114  0.1726
 6666SOL    MW426398   0.567   3.794   5.795 -0.2157  0.4017  0.2391
 6667SOL     OW26399   1.898   0.007   0.703  0.8923  0.2351 -0.2317
 6667SOL    HW226400   1.918   0.048   0.618 -0.9054  0.1653 -0.7367
 6667SOL    HW326401   1.802  -0.004   0.702  0.8678 -0.0535  1.6852
 6667SOL    MW426402   1.888   0.011   0.691  0.7662  0.3678  0.6175
 6668SOL     OW26403   0.460   5.437   1.033 -0.0724  0.3317  0.3073
 6668SOL    HW226404   0.434   5.359   1.082 -0.7650  0.1706 -0.2862
 6668SOL    HW326405   0.548   5.417   1.001 -0.6750 -0.7042 -0.7877
 6668SOL    MW426406   0.468   5.424   1.035  0.1794 -0.2517  0.7451
 6669SOL     OW26407   4.541   6.108   2.650  0.4601 -0.0607 -0.4049
 6669SOL    HW226408   4.490   6.173   2.699 -0.4763 -0.1674 -1.1956
 6669SOL    HW326409   4.575   6.157   2.575  1.0091 -0.1372 -0.2042
 6669SOL    MW426410   4.538   6.123   2.647 -0.0155 -0.0691 -0.7758
 6670SOL     OW26411   1.766   4.211   2.837  0.3005  0.5099  0.2706
 6670SOL    HW226412   1.734   4.125   2.864 -0.1699  0.5836 -0.0395
 6670SOL    HW326413   1.712   4.234   2.762  0.9596  0.7279 -0.1423
 6670SOL    MW426414   1.755   4.202   2.831 -0.7731  0.0935 -0.0245
 6671SOL     OW26415   0.700   1.546   4.043 -0.4083 -0.6124 -0.5154
 6671SOL    HW226416   0.622   1.543   3.987  0.6271  0.3007 -2.0772
 6671SOL    HW326417   0.762   1.487   4.001  0.5745  0.4808 -0.6656
 6671SOL    MW426418   0.698   1.538   4.030 -0.5775  0.1612  0.0508
 6672SOL     OW26419   0.672   5.117   4.396  0.3396  0.0215  0.1123
 6672SOL    HW226420   0.733   5.148   4.462  0.1071  1.1838 -0.1927
 6672SOL    HW326421   0.608   5.064   4.444  0.7900 -0.0424  0.6394
 6672SOL    MW426422   0.671   5.114   4.411 -0.3247  0.2005  0.7657
 6673SOL     OW26423   2.621   2.335   3.103  0.0917  0.2188 -0.6405
 6673SOL    HW226424   2.568   2.280   3.161  1.4750  1.4898  2.0172
 6673SOL    HW326425   2.594   2.311   3.015 -3.1287 -0.8861  0.5257
 6673SOL    MW426426   2.611   2.325   3.099 -0.6497  0.0682  0.3578
 6674SOL     OW26427   2.521   4.283   3.591 -0.4621  0.1630  0.0176
 6674SOL    HW226428   2.505   4.333   3.512  0.1351  1.1807  0.5185
 6674SOL    HW326429   2.436   4.278   3.635 -0.4588  1.0844  0.1470
 6674SOL    MW426430   2.508   4.289   3.587  0.0643  0.2949  0.1661
 6675SOL     OW26431   1.778   3.411   4.092  0.1509 -0.4597  0.3095
 6675SOL    HW226432   1.708   3.400   4.156  0.2246  0.0090  0.4728
 6675SOL    HW326433   1.756   3.492   4.046 -0.6985 -1.5262 -1.2712
 6675SOL    MW426434   1.766   3.421   4.094  0.5834 -0.3590 -0.2592
 6676SOL     OW26435   0.294   1.552   3.556  0.0469 -0.1677  0.2913
 6676SOL    HW226436   0.350   1.627   3.573 -1.0232  0.6825  0.1847
 6676SOL    HW326437   0.214   1.570   3.605 -0.4329 -0.9762 -0.1726
 6676SOL    MW426438   0.291   1.564   3.565 -0.0400  0.3242  0.5277
 6677SOL     OW26439   4.799   4.748   1.021  0.7131  0.2295  0.4987
 6677SOL    HW226440   4.718   4.784   0.984  0.9775  1.1676  0.8069
 6677SOL    HW326441   4.799   4.657   0.993 -0.3066  0.2908  0.2403
 6677SOL    MW426442   4.788   4.741   1.012 -0.2561 -0.4147 -0.5619
 6678SOL     OW26443   5.133   2.773   5.800 -0.5694 -0.3112  0.5808
 6678SOL    HW226444   5.111   2.819   5.881  0.5711 -1.3824  1.5458
 6678SOL    HW326445   5.079   2.694   5.802  0.8613 -1.3110  1.3178
 6678SOL    MW426446   5.123   2.769   5.811 -0.0438 -0.0525  0.1577
 6679SOL     OW26447   3.322   5.928   0.171  0.1261  0.5914 -0.2528
 6679SOL    HW226448   3.411   5.955   0.149  0.5740  0.6940  1.5007
 6679SOL    HW326449   3.277   5.921   0.087  2.1600 -0.7792 -1.3163
 6679SOL    MW426450   3.328   5.930   0.157 -0.5329  0.0784  0.9419
 6680SOL     OW26451   4.242   2.531   3.891  0.0970  0.3003 -0.5311
 6680SOL    HW226452   4.256   2.436   3.896 -0.3465  0.2556 -0.0709
 6680SOL    HW326453   4.189   2.543   3.812  0.2933  0.1846 -0.6823
 6680SOL    MW426454   4.237   2.520   3.881 -0.4000  0.0037 -0.4375
 6681SOL     OW26455   4.547   2.556   4.665 -0.4185 -0.2374 -0.3266
 6681SOL    HW226456   4.477   2.490   4.657 -0.7557  0.2724 -1.9173
 6681SOL    HW326457   4.628   2.505   4.669 -0.7492 -0.7805 -0.4712
 6681SOL    MW426458   4.548   2.541   4.665 -0.1669  0.3818  0.0488
 6682SOL     OW26459   5.520   5.984   1.069  0.1631 -0.5963 -0.4027
 6682SOL    HW226460   5.473   5.988   0.986  1.5960  0.6250 -1.2143
 6682SOL    HW326461   5.518   5.892   1.095  2.0863 -1.5628 -3.2536
 6682SOL    MW426462   5.513   5.973   1.062  0.5073  0.4229 -0.2883
 6683SOL     OW26463   0.190   1.098   1.398  0.3994 -0.0512  0.3013
 6683SOL    HW226464   0.280   1.121   1.418 -0.4170  0.6508  3.9187
 6683SOL    HW326465   0.166   1.035   1.466 -2.1974  0.7293  0.2077
 6683SOL    MW426466   0.198   1.093   1.409 -0.2387 -0.3942  0.0614
 6684SOL     OW26467   2.184   1.372   3.718 -0.1685 -0.7752 -0.2380
 6684SOL    HW226468   2.194   1.340   3.808 -1.1589 -1.4438 -0.3480
 6684SOL    HW326469   2.094   1.402   3.713  0.7941  2.4672 -0.0584
 6684SOL    MW426470   2.174   1.371   3.729  0.1450  0.0921 -0.7651
 6685SOL     OW26471   0.366   1.528   5.544  0.1547 -0.2754 -0.3768
 6685SOL    HW226472   0.378   1.623   5.540 -0.0689 -0.2388 -0.2056
 6685SOL    HW326473   0.284   1.516   5.593 -0.1816 -0.5343 -0.9900
 6685SOL    MW426474   0.357   1.539   5.550  0.2860 -0.0171 -0.0342
 6686SOL     OW26475   3.868   2.145   1.237 -0.2241  0.1670 -0.0451
 6686SOL    HW226476   3.847   2.238   1.228 -1.1436 -0.2067 -2.7214
 6686SOL    HW326477   3.784   2.101   1.229  0.4700 -0.9786 -1.5773
 6686SOL    MW426478   3.854   2.152   1.234 -0.1566  0.6540 -0.2428
 6687SOL     OW26479   0.146   1.077   2.278 -0.4987  0.3634 -1.0120
 6687SOL    HW226480   0.184   1.144   2.222  0.7473 -1.0275 -1.9126
 6687SOL    HW326481   0.199   0.999   2.262 -1.5006 -0.6838  0.4591
 6687SOL    MW426482   0.158   1.075   2.269  0.4891  0.1859 -0.1821
 6688SOL     OW26483   2.180   2.680   4.699 -0.0234 -0.0418 -0.0795
 6688SOL    HW226484   2.181   2.595   4.656 -2.7806 -0.4353  0.3960
 6688SOL    HW326485   2.132   2.665   4.781 -0.4644  1.9308  0.0927
 6688SOL    MW426486   2.174   2.667   4.704 -0.2230  0.1812  0.2465
 6689SOL     OW26487   1.478   2.527   0.007  0.0595  0.2316  0.1001
 6689SOL    HW226488   1.512   2.439  -0.003 -0.1043  0.0084  1.3607
 6689SOL    HW326489   1.553   2.579   0.035  0.4325  0.7707 -1.7563
 6689SOL    MW426490   1.492   2.523   0.009 -0.1570  0.5196  0.4115
 6690SOL     OW26491   6.242   3.449   2.649  0.3768 -0.1253 -0.1921
 6690SOL    HW226492   6.155   3.408   2.646  1.3880 -2.6227  1.1279
 6690SOL    HW326493   6.242   3.497   2.731  0.4909 -0.8301  0.2332
 6690SOL    MW426494   6.230   3.450   2.659  0.0372 -0.1791 -0.1045
 6691SOL     OW26495   0.203   0.495   4.835 -0.5820 -0.2689  0.0518
 6691SOL    HW226496   0.187   0.433   4.764 -1.0169  0.9944 -0.9860
 6691SOL    HW326497   0.297   0.490   4.850 -0.6200 -1.2524  0.0707
 6691SOL    MW426498   0.213   0.486   4.828  0.5783 -0.8794 -0.5849
 6692SOL     OW26499   0.996   0.250   3.137  0.0634 -0.4682  0.3299
 6692SOL    HW226500   1.027   0.237   3.226 -0.5327 -0.8392  0.4838
 6692SOL    HW326501   0.904   0.224   3.139 -0.1180  0.1014 -0.2507
 6692SOL    MW426502   0.988   0.245   3.149  0.2306  0.3858  0.1192
 6693SOL     OW26503   5.459   1.204   4.152 -0.4740  0.4547  0.6334
 6693SOL    HW226504   5.517   1.135   4.185  0.1808  1.6426  2.0873
 6693SOL    HW326505   5.402   1.159   4.090  1.8234 -0.8341 -0.7038
 6693SOL    MW426506   5.459   1.189   4.149  0.0373 -0.3173 -0.1733
 6694SOL     OW26507   2.432   0.634   5.188 -0.3830 -0.6750  0.2692
 6694SOL    HW226508   2.340   0.661   5.189 -0.3076 -0.2914 -1.1810
 6694SOL    HW326509   2.462   0.654   5.100  1.7168  1.3056  1.3308
 6694SOL    MW426510   2.424   0.640   5.177 -0.1908  0.3297  0.1677
 6695SOL     OW26511   6.160   0.645   0.325  0.2428  1.1256  0.1742
 6695SOL    HW226512   6.192   0.615   0.410  1.4419  2.6384  0.3106
 6695SOL    HW326513   6.222   0.610   0.262 -0.6775 -0.0422 -0.1189
 6695SOL    MW426514   6.172   0.637   0.328  0.3829 -0.1066  0.1977
 6696SOL     OW26515   6.260   4.761   4.020  0.7408  0.3876 -0.1618
 6696SOL    HW226516   6.313   4.795   3.947  0.2893 -1.5892 -1.4770
 6696SOL    HW326517   6.172   4.752   3.984  0.1310  0.9119  1.1489
 6696SOL    MW426518   6.256   4.764   4.005 -0.4930  0.0119  0.2098
 6697SOL     OW26519   1.917   0.709   3.714 -0.5741 -0.4106 -0.4335
 6697SOL    HW226520   1.886   0.712   3.624 -0.1122  0.4426 -0.5838
 6697SOL    HW326521   1.923   0.801   3.741 -0.8907 -0.6553  0.5363
 6697SOL    MW426522   1.914   0.722   3.706 -0.3536  0.6668 -0.3857
 6698SOL     OW26523   0.127   1.626   5.778 -0.6264 -0.4003 -0.7926
 6698SOL    HW226524   0.174   1.641   5.860 -0.9555 -0.3997 -0.6052
 6698SOL    HW326525   0.092   1.712   5.754 -2.2537 -0.7839  0.1235
 6698SOL    MW426526   0.129   1.639   5.785 -0.5059 -0.1806 -0.1293
 6699SOL     OW26527   6.047   0.088   4.361 -0.1017 -0.2686 -0.4275
 6699SOL    HW226528   5.996   0.018   4.402  0.6197 -0.0706  0.8821
 6699SOL    HW326529   5.989   0.165   4.363 -0.4492 -0.5212 -0.7334
 6699SOL    MW426530   6.033   0.089   4.367  0.2835  0.4695  0.0247
 6700SOL     OW26531   2.322   2.813   3.126  0.2017  0.4489 -0.2126
 6700SOL    HW226532   2.235   2.853   3.134 -1.2320 -2.4132  0.1009
 6700SOL    HW326533   2.327   2.785   3.035 -1.4191 -3.5780  0.7173
 6700SOL    MW426534   2.311   2.814   3.115  0.0260 -0.0785  0.0672
 6701SOL     OW26535   2.706   6.209   1.745  0.2611 -0.2643  0.1666
 6701SOL    HW226536   2.633   6.147   1.747 -0.2931  0.3757  0.0880
 6701SOL    HW326537   2.704   6.246   1.656  1.7630 -1.4962 -0.4333
 6701SOL    MW426538   2.696   6.206   1.733  0.4334 -0.5873 -0.8271
 6702SOL     OW26539   5.482   4.769   6.379 -0.0506  0.3686 -0.5991
 6702SOL    HW226540   5.466   4.835   6.311  0.1155  0.1792 -0.8265
 6702SOL    HW326541   5.543   4.811   6.440  0.1129  0.4017 -0.7843
 6702SOL    MW426542   5.488   4.783   6.378  0.3711  0.0442 -0.1168
 6703SOL     OW26543   2.481   6.035   1.731  0.2050 -0.9827 -0.4893
 6703SOL    HW226544   2.435   6.097   1.675  0.2334  0.0737  0.6055
 6703SOL    HW326545   2.425   6.027   1.809  0.3470 -2.1139 -0.4912
 6703SOL    MW426546   2.467   6.042   1.734  0.7914  0.1646  0.0891
 6704SOL     OW26547   5.097   0.494   2.096 -0.1356  0.4086  0.1860
 6704SOL    HW226548   5.134   0.582   2.088  1.3179 -0.0132  1.7797
 6704SOL    HW326549   5.172   0.438   2.113 -1.0647 -1.1412 -0.6104
 6704SOL    MW426550   5.112   0.498   2.097  0.4202  0.2508  0.6687
 6705SOL     OW26551   3.742   0.116   2.696  0.6078 -0.2653  0.3486
 6705SOL    HW226552   3.807   0.070   2.641  0.5487  1.4495 -1.2529
 6705SOL    HW326553   3.794   0.153   2.768  1.5877  1.5020 -1.1737
 6705SOL    MW426554   3.758   0.114   2.698  0.6288 -0.0146  0.2630
 6706SOL     OW26555   2.025   2.076   5.500  0.9466  0.4195 -0.3921
 6706SOL    HW226556   1.980   2.028   5.571 -1.1350  2.0306 -0.5225
 6706SOL    HW326557   2.022   2.015   5.426  1.8516 -0.7293  0.4730
 6706SOL    MW426558   2.018   2.061   5.500 -0.5627  0.3934  0.2544
 6707SOL     OW26559   1.401   4.478   1.553  0.3964  0.3214 -0.0949
 6707SOL    HW226560   1.340   4.538   1.509  1.5527  1.8327  0.2703
 6707SOL    HW326561   1.476   4.473   1.494  1.2255  0.9886  0.8681
 6707SOL    MW426562   1.403   4.485   1.540 -0.6111  0.1504  0.3722
 6708SOL     OW26563   2.198   1.463   4.737 -0.0731 -0.4354 -0.3856
 6708SOL    HW226564   2.182   1.554   4.711  2.4577  0.3124  0.4525
 6708SOL    HW326565   2.222   1.419   4.656  0.1059 -0.0182 -0.5610
 6708SOL    MW426566   2.199   1.469   4.723  0.0531  0.1209  0.1960
 6709SOL     OW26567   3.009   3.714   0.124  0.1086 -0.4662  0.3835
 6709SOL    HW226568   3.075   3.683   0.187 -0.7752  1.0113  2.1221
 6709SOL    HW326569   3.028   3.807   0.113 -1.2188 -0.1802  0.3482
 6709SOL    MW426570   3.020   3.722   0.131 -0.1646  0.0916  0.4407
 6710SOL     OW26571   4.046   4.375   1.622 -0.4562 -0.0361  0.0913
 6710SOL    HW226572   4.092   4.425   1.690 -0.7972  1.7141 -0.9180
 6710SOL    HW326573   4.096   4.392   1.542  1.2995 -3.8601  0.1490
 6710SOL    MW426574   4.059   4.384   1.620 -0.3052  0.5289  0.1068
 6711SOL     OW26575   4.344   0.486   1.665  0.0544  0.2907  0.6759
 6711SOL    HW226576   4.263   0.493   1.715  0.0944 -2.1193  1.1721
 6711SOL    HW326577   4.396   0.561   1.694 -1.0724  0.5880  2.0593
 6711SOL    MW426578   4.340   0.497   1.675  0.2980  0.1428  0.1975
 6712SOL     OW26579   6.143   6.176   5.769 -0.3055  0.3627  0.0003
 6712SOL    HW226580   6.098   6.112   5.714 -1.4837  1.2124 -0.0667
 6712SOL    HW326581   6.233   6.175   5.739 -0.5749 -0.3925 -0.8111
 6712SOL    MW426582   6.149   6.168   5.758  0.7057 -0.0836 -0.1250
 6713SOL     OW26583   6.077   3.640   3.826  0.0399  0.1386 -0.0539
 6713SOL    HW226584   6.141   3.707   3.851  2.2965 -1.9946  0.2317
 6713SOL    HW326585   6.119   3.591   3.757 -1.2529 -1.4375  0.2194
 6713SOL    MW426586   6.091   3.643   3.820  0.3876 -0.4585  0.0228
 6714SOL     OW26587   6.355   3.700   3.131 -0.0582  0.1504  0.0171
 6714SOL    HW226588   6.344   3.616   3.176 -3.1638  0.4371 -0.0213
 6714SOL    HW326589   6.342   3.766   3.199  0.8339  0.6313 -0.2560
 6714SOL    MW426590   6.352   3.698   3.146  0.5028 -0.3381 -0.0167
 6715SOL     OW26591   6.105   3.385   3.272  0.4348  0.0020 -0.7651
 6715SOL    HW226592   6.075   3.307   3.225 -0.0746 -0.1493 -0.2052
 6715SOL    HW326593   6.037   3.450   3.255 -0.5113 -0.5017  0.9419
 6715SOL    MW426594   6.092   3.383   3.263 -0.2651  0.2790 -0.2494
 6716SOL     OW26595   3.003   0.894   3.257  0.4239  0.7204  0.4922
 6716SOL    HW226596   3.031   0.807   3.287 -0.5159 -0.8551 -2.7052
 6716SOL    HW326597   3.085   0.940   3.239  0.9393  0.2595  1.5874
 6716SOL    MW426598   3.018   0.888   3.258  0.2721 -0.5650 -0.3649
 6717SOL     OW26599   3.948   0.668   3.174 -0.3979  0.1384  0.0576
 6717SOL    HW226600   3.859   0.641   3.152 -0.6512  1.4534 -0.6286
 6717SOL    HW326601   3.936   0.750   3.223  0.4184  0.1451  0.2573
 6717SOL    MW426602   3.935   0.675   3.178  0.3219  0.3603  0.2009
 6718SOL     OW26603   0.468   4.129   3.876 -0.9746 -0.3788  0.3907
 6718SOL    HW226604   0.439   4.064   3.939  2.0685 -1.2081  1.0690
 6718SOL    HW326605   0.507   4.078   3.805  1.0162  0.6357  0.6942
 6718SOL    MW426606   0.469   4.114   3.875  0.1339 -0.2823  0.1359
 6719SOL     OW26607   1.263   2.472   0.659 -0.1430 -0.3349  0.1622
 6719SOL    HW226608   1.318   2.475   0.737 -1.5309 -1.3356  1.2441
 6719SOL    HW326609   1.314   2.423   0.594  1.3903  1.2774  0.1082
 6719SOL    MW426610   1.277   2.466   0.660  0.1338  0.1081 -0.1833
 6720SOL     OW26611   5.280   3.941   6.009  0.2501 -0.3383  0.3668
 6720SOL    HW226612   5.237   3.863   6.045  0.7870 -0.5097  0.6517
 6720SOL    HW326613   5.309   3.989   6.087 -1.4398  0.9549  0.2607
 6720SOL    MW426614   5.278   3.937   6.024  0.1361  0.3452 -0.1772
 6721SOL     OW26615   2.802   6.237   2.560 -0.2295  0.2473 -0.4502
 6721SOL    HW226616   2.858   6.160   2.550 -0.3498  0.2311 -1.0551
 6721SOL    HW326617   2.863   6.311   2.558 -0.0222  0.1360  1.0304
 6721SOL    MW426618   2.818   6.237   2.558 -0.3636 -0.2197  0.1762
 6722SOL     OW26619   4.250   6.083   5.640  0.4532 -0.0196 -0.0901
 6722SOL    HW226620   4.337   6.048   5.617  0.3801  0.3050 -0.8845
 6722SOL    HW326621   4.205   6.092   5.556 -0.7708 -1.2433  0.3949
 6722SOL    MW426622   4.256   6.079   5.626  0.0719 -0.4931 -0.1395
 6723SOL     OW26623   4.376   6.422   0.444 -0.6093 -0.0278  0.0211
 6723SOL    HW226624   4.328   6.397   0.365 -1.1766 -1.2451  0.7155
 6723SOL    HW326625   4.308   6.437   0.510 -0.1169  0.3228  0.4619
 6723SOL    MW426626   4.361   6.420   0.443 -0.1072 -0.1729  0.0697
 6724SOL     OW26627   2.009   6.108   1.691  0.0714 -0.2683  0.2615
 6724SOL    HW226628   1.980   6.019   1.710  0.4282  0.0915  2.7884
 6724SOL    HW326629   1.929   6.161   1.695 -0.4474 -0.5659 -2.8799
 6724SOL    MW426630   1.994   6.103   1.694 -0.1079  0.4301  0.0554
 6725SOL     OW26631   2.717   0.371   0.929  0.1206  0.3183 -0.2146
 6725SOL    HW226632   2.685   0.402   1.014 -2.5456  0.3299 -1.1409
 6725SOL    HW326633   2.756   0.448   0.888 -0.2708  0.7721  0.2639
 6725SOL    MW426634   2.718   0.385   0.935  0.3085  0.4829 -0.4071
 6726SOL     OW26635   3.217   1.407   3.834  0.7477  0.2641  0.3650
 6726SOL    HW226636   3.275   1.391   3.909  0.5150  0.0680  0.5065
 6726SOL    HW326637   3.191   1.498   3.842 -1.5553 -0.4619  2.1683
 6726SOL    MW426638   3.221   1.417   3.845  0.2210  0.0107  0.2501
 6727SOL     OW26639   1.792   4.305   4.766 -0.2700  0.1057  0.2956
 6727SOL    HW226640   1.706   4.324   4.803 -0.2084  1.7180 -0.3174
 6727SOL    HW326641   1.807   4.374   4.702  0.1112 -1.9497 -1.9997
 6727SOL    MW426642   1.783   4.316   4.763  0.3064 -0.5558  0.6397
 6728SOL     OW26643   2.590   1.191   3.015  0.5085 -0.1273  0.0220
 6728SOL    HW226644   2.659   1.131   3.045  0.1600 -1.3789 -1.5481
 6728SOL    HW326645   2.638   1.260   2.969  0.7863 -0.3929 -0.0946
 6728SOL    MW426646   2.606   1.192   3.013 -0.5643 -0.1113 -0.1200
 6729SOL     OW26647   5.302   0.759   5.536 -0.3881  0.0046 -0.2133
 6729SOL    HW226648   5.267   0.843   5.506 -1.3805 -0.1425  0.4927
 6729SOL    HW326649   5.397   0.772   5.537 -0.4602  0.7514 -1.1692
 6729SOL    MW426650   5.310   0.772   5.532 -0.2181  0.0005 -0.4639
 6730SOL     OW26651   1.806   4.108   5.994  0.1071 -0.1571  0.6260
 6730SOL    HW226652   1.728   4.052   5.995 -0.8945  1.2031  1.0738
 6730SOL    HW326653   1.783   4.182   6.050  0.9808  1.2368 -0.7967
 6730SOL    MW426654   1.792   4.110   6.001 -0.2637 -0.2874 -0.1727
 6731SOL     OW26655   5.916   6.235   2.813 -0.4421  0.1207 -0.3253
 6731SOL    HW226656   6.002   6.198   2.832 -0.4102 -0.2426 -1.1363
 6731SOL    HW326657   5.912   6.315   2.867  0.6396  0.4634 -0.7162
 6731SOL    MW426658   5.927   6.241   2.823 -0.2273 -0.0929 -0.9006
 6732SOL     OW26659   3.570   1.521   4.177  0.1478  0.4610 -0.3601
 6732SOL    HW226660   3.611   1.435   4.165  0.7398  0.9469 -2.0941
 6732SOL    HW326661   3.547   1.523   4.270  0.9879 -1.1851 -0.0675
 6732SOL    MW426662   3.573   1.510   4.188 -0.8793  0.3680  0.0203
 6733SOL     OW26663   1.310   2.916   3.556 -0.1945 -0.8494 -0.1164
 6733SOL    HW226664   1.272   2.927   3.469 -0.4796  0.4814  0.1598
 6733SOL    HW326665   1.318   2.821   3.566 -2.1235 -1.1314 -0.7473
 6733SOL    MW426666   1.306   2.905   3.546  0.1098  0.4619  0.2052
 6734SOL     OW26667   4.345   4.205   5.885  0.1465  0.1734  0.0428
 6734SOL    HW226668   4.382   4.170   5.966  0.7970  0.2560 -0.2145
 6734SOL    HW326669   4.341   4.130   5.825  0.6453  0.3329 -0.1925
 6734SOL    MW426670   4.349   4.191   5.888 -0.2131 -0.5026  0.5991
 6735SOL     OW26671   1.401   5.674   5.336 -0.0408  0.0820 -0.0736
 6735SOL    HW226672   1.330   5.636   5.285 -0.2577 -0.3719  0.5551
 6735SOL    HW326673   1.481   5.648   5.289 -0.2123 -0.7150  0.0646
 6735SOL    MW426674   1.403   5.666   5.323 -0.0729 -0.2767 -0.7472
 6736SOL     OW26675   3.554   3.737   0.825  0.3066 -0.5483  0.0466
 6736SOL    HW226676   3.555   3.814   0.768  2.9914 -0.1870  0.4100
 6736SOL    HW326677   3.477   3.749   0.880 -0.4821  0.8169 -1.2656
 6736SOL    MW426678   3.544   3.749   0.825 -0.3353 -0.3029 -0.3618
 6737SOL     OW26679   2.756   6.334   0.337  0.1768  0.2926 -0.2820
 6737SOL    HW226680   2.826   6.303   0.395  0.5038  0.8578 -0.3554
 6737SOL    HW326681   2.726   6.415   0.378  0.6434  0.8799 -1.0599
 6737SOL    MW426682   2.762   6.341   0.350  0.5926  0.3945 -0.0186
 6738SOL     OW26683   5.458   4.276   2.812  0.2438 -0.2358 -0.5037
 6738SOL    HW226684   5.490   4.329   2.885 -0.1809 -0.1165 -0.4039
 6738SOL    HW326685   5.363   4.284   2.816  0.1334 -1.4500 -0.1585
 6738SOL    MW426686   5.450   4.284   2.822 -0.2049 -0.8409 -0.5666
 6739SOL     OW26687   1.018   3.837   1.490 -0.4706 -0.4629 -0.0544
 6739SOL    HW226688   0.947   3.867   1.547  0.6859 -1.9504  2.3482
 6739SOL    HW326689   1.098   3.861   1.537  0.5490 -2.0286 -0.9025
 6739SOL    MW426690   1.019   3.844   1.504 -0.2029 -0.0356 -0.4229
 6740SOL     OW26691   1.161   5.870   1.756  0.4356  0.2416 -0.2881
 6740SOL    HW226692   1.209   5.808   1.701  0.1758 -1.4064  1.2472
 6740SOL    HW326693   1.108   5.815   1.813 -1.4117  1.9581 -0.2516
 6740SOL    MW426694   1.160   5.854   1.757  0.0287 -0.1590  0.3175
 6741SOL     OW26695   5.500   3.311   0.277  0.1230 -0.1848 -0.0663
 6741SOL    HW226696   5.538   3.359   0.350  0.9608 -1.9143  0.6898
 6741SOL    HW326697   5.435   3.371   0.241  1.2983  1.6083  0.6295
 6741SOL    MW426698   5.497   3.325   0.282  0.1881 -0.3609  0.2738
 6742SOL     OW26699   0.036   6.359   2.152  0.4938  0.0269 -0.3061
 6742SOL    HW226700  -0.053   6.393   2.162 -1.4912 -4.0143 -1.8894
 6742SOL    HW326701   0.054   6.316   2.236  0.5725  0.0887 -0.2919
 6742SOL    MW426702   0.026   6.358   2.165  0.2706  0.2502 -0.1439
 6743SOL     OW26703   2.129   3.626   3.965 -0.5783  0.0813  0.6367
 6743SOL    HW226704   2.206   3.577   3.936 -1.0032 -1.2302  1.6370
 6743SOL    HW326705   2.058   3.594   3.909 -0.2091  2.2204 -1.1681
 6743SOL    MW426706   2.130   3.615   3.954 -0.3571 -0.0909 -0.2221
 6744SOL     OW26707   0.733   3.744   3.735 -0.4286  0.0912 -0.0617
 6744SOL    HW226708   0.820   3.779   3.753 -0.1640  0.0434 -1.1969
 6744SOL    HW326709   0.682   3.768   3.812  0.4515  0.5768  0.3897
 6744SOL    MW426710   0.738   3.752   3.747  0.4423 -0.4307  0.2544
 6745SOL     OW26711   3.614   5.638   2.308 -0.1013 -0.1287  0.0751
 6745SOL    HW226712   3.526   5.666   2.332 -0.2493 -1.5130  1.3101
 6745SOL    HW326713   3.601   5.586   2.228 -0.5633 -1.1825  0.8184
 6745SOL    MW426714   3.601   5.635   2.300 -0.1091  0.6215  0.3286
 6746SOL     OW26715   3.008   1.162   5.080  0.3504 -0.5196  0.2160
 6746SOL    HW226716   2.991   1.254   5.099  1.0727 -0.8705  3.0485
 6746SOL    HW326717   2.924   1.118   5.092  0.0397 -0.3031 -0.9890
 6746SOL    MW426718   2.995   1.168   5.084  0.2251 -0.2468 -0.2700
 6747SOL     OW26719   2.105   5.001   0.404  0.5607  0.1363 -0.0454
 6747SOL    HW226720   2.036   5.038   0.460  1.3024  0.5938  0.5789
 6747SOL    HW326721   2.057   4.948   0.340 -0.3467  0.0906  0.6413
 6747SOL    MW426722   2.090   4.999   0.403  0.9193  0.1688  0.2635
 6748SOL     OW26723   5.855   3.789   3.727  0.5477  0.3844 -0.6091
 6748SOL    HW226724   5.863   3.870   3.778 -1.0698 -0.9201  1.9287
 6748SOL    HW326725   5.929   3.735   3.755  2.2125  1.2506 -3.0435
 6748SOL    MW426726   5.866   3.792   3.738  0.0288 -0.4200  0.0903
 6749SOL     OW26727   0.787   6.320   2.290 -0.1959 -0.4141  0.0014
 6749SOL    HW226728   0.818   6.230   2.279  2.3682  0.3894 -0.1047
 6749SOL    HW326729   0.712   6.327   2.231  0.7973 -1.9362 -1.5690
 6749SOL    MW426730   0.781   6.309   2.281 -0.0909 -0.4748 -0.7471
 6750SOL     OW26731   1.931   4.993   3.207  0.3684 -0.7786  0.4914
 6750SOL    HW226732   2.011   5.013   3.256  0.6773 -0.9741  0.0710
 6750SOL    HW326733   1.944   5.037   3.123 -0.9377  1.0930  1.2137
 6750SOL    MW426734   1.944   5.002   3.202 -0.2972  0.3751 -0.0826
 6751SOL     OW26735   1.484   3.992   2.004 -0.4133 -0.2715  0.0285
 6751SOL    HW226736   1.560   3.934   2.006 -0.8948 -0.9457 -0.6378
 6751SOL    HW326737   1.482   4.027   1.915  0.3851  1.5025  0.6578
 6751SOL    MW426738   1.494   3.989   1.992 -0.2154 -0.0691 -0.1578
 6752SOL     OW26739   0.412   1.013   6.250  0.2427  0.5412  0.3794
 6752SOL    HW226740   0.420   1.060   6.333 -1.2757 -0.7662  1.3092
 6752SOL    HW326741   0.502   1.006   6.218  0.7272  2.1060  1.2899
 6752SOL    MW426742   0.425   1.019   6.257 -0.5950 -0.3381 -0.4523
 6753SOL     OW26743   4.050   2.344   6.035  0.7816  0.0873  0.0300
 6753SOL    HW226744   4.044   2.428   5.989  0.2941  0.1314  0.1734
 6753SOL    HW326745   4.003   2.283   5.979 -2.3250  0.6963  1.7806
 6753SOL    MW426746   4.043   2.347   6.022  0.2346 -0.0482 -0.4384
 6754SOL     OW26747   0.176   2.749   4.249 -0.1761 -0.1024 -0.2565
 6754SOL    HW226748   0.246   2.729   4.187 -0.5521  1.7204 -1.3375
 6754SOL    HW326749   0.170   2.671   4.304  2.3301 -0.5400 -0.4603
 6754SOL    MW426750   0.185   2.736   4.248  0.2879 -0.4014  0.0217
 6755SOL     OW26751   1.816   5.734   0.476 -0.0930 -0.1121 -0.1943
 6755SOL    HW226752   1.842   5.786   0.552 -0.9042  1.3105 -0.8660
 6755SOL    HW326753   1.725   5.710   0.494 -0.1347 -0.1908 -0.5075
 6755SOL    MW426754   1.807   5.738   0.489  0.2269 -0.3184 -0.3051
 6756SOL     OW26755   5.559   0.544   5.303  0.5418  0.2268 -0.4958
 6756SOL    HW226756   5.573   0.629   5.344  0.2465  0.0591 -0.0427
 6756SOL    HW326757   5.587   0.556   5.212  0.5690  0.7851 -0.4142
 6756SOL    MW426758   5.564   0.557   5.296 -0.2257 -0.0577  0.2223
 6757SOL     OW26759   6.174   6.170   3.189  0.3183  0.0465  0.2531
 6757SOL    HW226760   6.172   6.169   3.093 -1.1405 -0.3551  0.2587
 6757SOL    HW326761   6.256   6.126   3.212  1.0847  0.8813 -0.8018
 6757SOL    MW426762   6.185   6.164   3.180 -0.2490  0.2015  0.1139
 6758SOL     OW26763   2.156   1.042   4.351 -0.0784  0.8835  0.3972
 6758SOL    HW226764   2.070   1.008   4.325 -0.6858  1.4767  1.5785
 6758SOL    HW326765   2.185   0.982   4.420  0.7564  0.3136 -0.4318
 6758SOL    MW426766   2.148   1.029   4.357 -0.1949 -0.6837  0.3160
 6759SOL     OW26767   2.356   5.136   6.099  0.1624  0.3002 -1.0556
 6759SOL    HW226768   2.332   5.141   6.007 -2.7378 -1.4813 -0.5298
 6759SOL    HW326769   2.382   5.045   6.112  0.6527  0.5588 -0.1505
 6759SOL    MW426770   2.356   5.125   6.089 -0.2765 -0.3751 -0.1689
 6760SOL     OW26771   5.037   0.393   5.906 -0.3857  0.4125 -0.1357
 6760SOL    HW226772   4.968   0.458   5.892 -1.3821 -0.2601  1.3808
 6760SOL    HW326773   4.998   0.310   5.878  0.1225  0.1480 -0.0729
 6760SOL    MW426774   5.023   0.390   5.900 -0.3503  0.1594  0.4813
 6761SOL     OW26775   4.079   2.501   0.166 -0.3191  0.7028 -0.0926
 6761SOL    HW226776   4.132   2.539   0.096  0.8251  0.3549  0.5654
 6761SOL    HW326777   4.119   2.533   0.247 -0.0670 -0.9285  0.4584
 6761SOL    MW426778   4.091   2.510   0.167  0.0387  0.0242 -0.0233
 6762SOL     OW26779   4.686   5.244   3.038  0.0707 -0.1336  0.2420
 6762SOL    HW226780   4.734   5.171   3.077  0.2031 -0.0236  0.2843
 6762SOL    HW326781   4.609   5.203   2.998 -0.7013 -0.1295  1.6406
 6762SOL    MW426782   4.682   5.229   3.038  0.3120 -0.3987  0.4774
 6763SOL     OW26783   6.230   6.207   5.320  0.5338 -0.3668 -0.0079
 6763SOL    HW226784   6.238   6.274   5.252  0.6115  0.7596  1.0727
 6763SOL    HW326785   6.136   6.203   5.338  0.4352 -1.1486 -0.6208
 6763SOL    MW426786   6.219   6.216   5.313 -0.2008  0.2302 -0.1447
 6764SOL     OW26787   3.090   2.971   4.460 -0.0337  0.5310 -0.3122
 6764SOL    HW226788   3.053   2.903   4.516  1.2950 -0.3015 -0.3854
 6764SOL    HW326789   3.184   2.954   4.461  0.1789  1.4716 -1.5288
 6764SOL    MW426790   3.098   2.960   4.468 -0.0127  0.1952 -0.2449
 6765SOL     OW26791   5.038   3.678   4.818  0.4893 -0.1206  0.1589
 6765SOL    HW226792   4.967   3.621   4.847  0.1321 -0.0583 -0.5676
 6765SOL    HW326793   5.116   3.623   4.824  0.1990 -0.5851 -0.1896
 6765SOL    MW426794   5.039   3.663   4.823  0.2058 -0.4920 -0.3943
 6766SOL     OW26795   3.794   5.668   4.491  0.1844 -0.2872 -0.1391
 6766SOL    HW226796   3.845   5.731   4.440  0.4573 -0.1402  0.3130
 6766SOL    HW326797   3.782   5.594   4.432 -1.5026  0.7968 -1.2513
 6766SOL    MW426798   3.799   5.666   4.477  0.2982 -0.2358  0.2227
 6767SOL     OW26799   5.545   3.229   4.884  0.6117  0.1402  0.2102
 6767SOL    HW226800   5.526   3.278   4.805  1.9056  0.0708 -0.1687
 6767SOL    HW326801   5.573   3.295   4.947  0.5252  0.0898  0.3017
 6767SOL    MW426802   5.546   3.244   4.882  0.0131  0.2383 -0.0142
 6768SOL     OW26803   2.450   4.772   2.314  0.0653  0.1966  0.0979
 6768SOL    HW226804   2.467   4.837   2.245 -0.9276  0.2787 -0.0835
 6768SOL    HW326805   2.461   4.687   2.271 -1.7229  0.2312 -0.5112
 6768SOL    MW426806   2.453   4.769   2.299 -0.1250 -0.4664  0.6633
 6769SOL     OW26807   5.615   1.930   4.899  0.0823 -0.1706  0.5221
 6769SOL    HW226808   5.664   1.868   4.953  0.7362  0.6145  0.8390
 6769SOL    HW326809   5.592   1.879   4.821  2.5321 -0.2400 -0.2453
 6769SOL    MW426810   5.619   1.915   4.895  0.2618 -0.1967  0.2645
 6770SOL     OW26811   2.328   0.304  -0.006 -0.7910 -0.1621  0.2066
 6770SOL    HW226812   2.306   0.315  -0.098  0.3990  0.8037  0.0179
 6770SOL    HW326813   2.365   0.388   0.021 -1.7866 -0.1799  1.7746
 6770SOL    MW426814   2.330   0.316  -0.014 -0.0025 -0.0386 -0.3707
 6771SOL     OW26815   0.482   1.262   0.877 -0.2876  0.5111  0.0865
 6771SOL    HW226816   0.503   1.264   0.970  1.9973  0.3072 -0.3655
 6771SOL    HW326817   0.496   1.171   0.850 -0.6062  0.6345 -0.5342
 6771SOL    MW426818   0.486   1.250   0.885 -0.1153  0.0745  0.0605
 6772SOL     OW26819   4.393   0.829   4.388 -0.1089 -0.2079  0.2771
 6772SOL    HW226820   4.466   0.816   4.327  0.7742 -0.5090  1.3468
 6772SOL    HW326821   4.315   0.830   4.333  0.7899  1.4228 -1.0551
 6772SOL    MW426822   4.393   0.827   4.373  0.0162 -0.6445 -0.2356
 6773SOL     OW26823   1.775   1.391   3.203  0.5166  0.2396  0.2016
 6773SOL    HW226824   1.763   1.413   3.296 -0.3619  2.5022 -0.3702
 6773SOL    HW326825   1.865   1.419   3.183  0.4376  0.4832  0.1869
 6773SOL    MW426826   1.785   1.398   3.213  0.0478 -0.3982  0.3736
 6774SOL     OW26827   6.099   0.775   3.839 -0.3667 -0.2941 -0.1008
 6774SOL    HW226828   6.085   0.832   3.915  2.2446  1.1458 -0.5705
 6774SOL    HW326829   6.189   0.743   3.850 -0.3895 -1.0874 -1.9213
 6774SOL    MW426830   6.109   0.779   3.850  0.1976  0.6483 -0.2364
 6775SOL     OW26831   3.751   4.656   2.078  0.1344  0.2873  0.1824
 6775SOL    HW226832   3.700   4.671   2.157 -1.5930 -2.4521 -0.2836
 6775SOL    HW326833   3.749   4.740   2.032 -1.9142  0.9578  1.3783
 6775SOL    MW426834   3.744   4.669   2.082  0.5642  1.0052  0.3107
 6776SOL     OW26835   4.349   4.227   4.808 -0.1880  0.2311  0.4034
 6776SOL    HW226836   4.381   4.296   4.750  0.4929  0.1220  0.6478
 6776SOL    HW326837   4.340   4.151   4.751  0.0443  0.2460  0.3455
 6776SOL    MW426838   4.352   4.226   4.793  0.3427  0.1846 -0.2184
 6777SOL     OW26839   4.711   5.965   5.877 -0.2201  0.4025  0.0091
 6777SOL    HW226840   4.683   6.053   5.854 -0.8660 -0.2115 -1.7241
 6777SOL    HW326841   4.797   5.955   5.836 -0.4232  0.0339 -0.3410
 6777SOL    MW426842   4.719   5.975   5.868 -0.2219 -0.7531 -0.2912
 6778SOL     OW26843   5.514   4.901   0.610 -0.2028  0.0891 -0.0248
 6778SOL    HW226844   5.500   4.875   0.701 -0.0204 -1.8742 -0.5186
 6778SOL    HW326845   5.428   4.932   0.581 -1.2473 -2.7107 -0.2015
 6778SOL    MW426846   5.501   4.902   0.618 -0.3405  0.3909  0.2816
 6779SOL     OW26847   3.776   2.826   2.737 -0.0193  0.3111 -0.0114
 6779SOL    HW226848   3.851   2.799   2.684  0.3349 -1.5030  1.3096
 6779SOL    HW326849   3.704   2.772   2.704  0.0174 -0.2366  0.7789
 6779SOL    MW426850   3.777   2.815   2.726  0.6249  0.4469  0.3973
 6780SOL     OW26851   5.016   0.092   0.252 -0.0750 -0.1192  0.0313
 6780SOL    HW226852   4.963   0.057   0.323  1.0532 -1.5001  0.2549
 6780SOL    HW326853   4.963   0.162   0.213 -0.6881  0.7237  2.2554
 6780SOL    MW426854   5.002   0.097   0.256  0.3757  0.2950 -0.0822
 6781SOL     OW26855   4.540   5.516   4.616 -0.1690  0.1297 -0.1112
 6781SOL    HW226856   4.550   5.444   4.555 -0.1889  0.1091 -0.0897
 6781SOL    HW326857   4.621   5.516   4.668 -0.2458  0.0101  0.0091
 6781SOL    MW426858   4.552   5.507   4.615  0.0155 -0.2050  0.2564
 6782SOL     OW26859   0.699   2.391   5.983 -0.3577  0.3595 -0.2210
 6782SOL    HW226860   0.793   2.375   5.978 -0.6577 -1.4643 -0.7219
 6782SOL    HW326861   0.674   2.415   5.894 -0.5845 -0.5992 -0.4244
 6782SOL    MW426862   0.708   2.392   5.971  0.4206  0.4180  0.5047
 6783SOL     OW26863   0.827   1.644   1.460 -0.3967 -1.0340  0.1671
 6783SOL    HW226864   0.808   1.705   1.531 -0.1915 -0.4154 -0.2961
 6783SOL    HW326865   0.775   1.566   1.480 -1.2103 -0.4435  0.4053
 6783SOL    MW426866   0.818   1.642   1.472 -0.3527 -0.2689 -0.1752
 6784SOL     OW26867   5.431   5.507   3.948 -0.4788 -0.2388  0.1038
 6784SOL    HW226868   5.342   5.539   3.933 -0.3774  0.0804  0.1653
 6784SOL    HW326869   5.486   5.586   3.944 -0.1284 -0.5078 -0.4712
 6784SOL    MW426870   5.426   5.522   3.946  0.2419  0.2098  0.2288
 6785SOL     OW26871   0.325   5.338   0.595  0.0940 -0.2791 -0.4591
 6785SOL    HW226872   0.420   5.321   0.592 -0.1395 -1.9718  0.5902
 6785SOL    HW326873   0.306   5.348   0.688 -0.3749  2.7939 -0.7747
 6785SOL    MW426874   0.335   5.337   0.607 -0.0586  0.7775  0.6729
 6786SOL     OW26875   1.386   6.176   1.974  0.3594 -0.2986  0.5730
 6786SOL    HW226876   1.426   6.262   1.963  0.9180 -0.2354  2.7745
 6786SOL    HW326877   1.306   6.180   1.922  1.2173  0.9349 -0.7167
 6786SOL    MW426878   1.381   6.188   1.965 -0.2373  0.1601  0.6911
 6787SOL     OW26879   1.866   1.310   4.658 -0.1170  0.2878 -0.3142
 6787SOL    HW226880   1.778   1.317   4.696  0.3403  2.0877  0.5381
 6787SOL    HW326881   1.851   1.307   4.564 -1.1087 -0.2410 -0.1588
 6787SOL    MW426882   1.853   1.310   4.651  0.0837  0.0263 -0.1932
 6788SOL     OW26883   5.638   3.378   2.553 -0.3826  0.0936 -0.3896
 6788SOL    HW226884   5.651   3.284   2.567  2.1511  0.2476 -1.1257
 6788SOL    HW326885   5.548   3.386   2.524 -0.9809 -1.9846  0.7080
 6788SOL    MW426886   5.628   3.367   2.551  0.3421 -0.0286  0.0762
 6789SOL     OW26887   4.715   3.549   3.714  0.1779 -0.0417 -0.4353
 6789SOL    HW226888   4.750   3.628   3.757 -1.6534  0.1966  0.7329
 6789SOL    HW326889   4.669   3.583   3.637 -1.0460  0.1498  0.3397
 6789SOL    MW426890   4.713   3.564   3.709 -0.0154  0.3255 -0.1447
 6790SOL     OW26891   2.795   3.575   2.181 -0.3605 -0.3798  0.0730
 6790SOL    HW226892   2.784   3.641   2.249 -1.2808  0.2547 -0.6587
 6790SOL    HW326893   2.887   3.581   2.155 -0.1301 -0.2784  0.8922
 6790SOL    MW426894   2.806   3.584   2.187 -0.4533 -0.4098  0.5029
 6791SOL     OW26895   0.729   3.707   1.301 -0.0577  0.0404 -1.1522
 6791SOL    HW226896   0.773   3.792   1.301 -1.5220  0.8404 -0.1196
 6791SOL    HW326897   0.637   3.728   1.284 -0.4943 -1.3122 -0.5691
 6791SOL    MW426898   0.723   3.721   1.299 -0.1979 -0.3560 -0.2196
 6792SOL     OW26899   0.709   4.971   3.480 -0.4131 -0.1652 -0.6901
 6792SOL    HW226900   0.690   4.957   3.573  0.0623  2.8456 -0.0567
 6792SOL    HW326901   0.629   5.009   3.444  0.0672  0.5536 -1.0303
 6792SOL    MW426902   0.696   4.974   3.487  0.7741 -0.0564 -0.0719
 6793SOL     OW26903   1.893   5.256   3.556  0.0549 -0.3545 -0.0300
 6793SOL    HW226904   1.841   5.212   3.489  0.1280 -1.0700  0.3831
 6793SOL    HW326905   1.828   5.294   3.616 -0.0687  1.5873 -1.2781
 6793SOL    MW426906   1.877   5.255   3.555  0.4786 -0.9141 -0.2492
 6794SOL     OW26907   4.109   1.610   6.361  0.0603  0.5001  0.3118
 6794SOL    HW226908   4.048   1.593   6.289 -1.4289  0.8515  1.4474
 6794SOL    HW326909   4.181   1.548   6.346  1.3295  2.5060 -3.1270
 6794SOL    MW426910   4.111   1.599   6.349  0.2396 -0.2227 -0.0125
 6795SOL     OW26911   6.368   3.471   3.291 -0.0686  0.6655  0.6130
 6795SOL    HW226912   6.278   3.440   3.290  0.2754 -0.3578  0.3400
 6795SOL    HW326913   6.396   3.461   3.382  0.0101  0.2681  0.5448
 6795SOL    MW426914   6.360   3.466   3.303  0.4166 -0.1834 -0.3696
 6796SOL     OW26915   0.364   0.908   5.223 -0.1948 -0.5710  0.5127
 6796SOL    HW226916   0.384   0.978   5.285  0.9565 -0.5839  0.1741
 6796SOL    HW326917   0.390   0.827   5.269  1.6394 -0.5092 -0.3257
 6796SOL    MW426918   0.370   0.906   5.238 -0.3622 -0.4489  0.3823
 6797SOL     OW26919   1.626   4.511   4.383 -0.6498  0.7885  0.2397
 6797SOL    HW226920   1.604   4.579   4.321  0.3964 -0.7886 -1.9942
 6797SOL    HW326921   1.673   4.445   4.332 -2.0178 -1.8778  2.1215
 6797SOL    MW426922   1.630   4.511   4.368 -0.1343  0.2972 -0.2709
 6798SOL     OW26923   4.328   1.988   5.805  0.4682 -0.4585  0.5715
 6798SOL    HW226924   4.423   1.990   5.813  0.5025 -0.6284  0.2252
 6798SOL    HW326925   4.298   2.062   5.857  0.9299  1.0634 -1.2327
 6798SOL    MW426926   4.336   1.998   5.813 -0.0114 -0.2750 -0.2731
 6799SOL     OW26927   5.879   3.323   2.727 -0.5464  0.4297 -0.0148
 6799SOL    HW226928   5.877   3.232   2.754  0.6484  0.3936  0.0015
 6799SOL    HW326929   5.787   3.351   2.730 -1.0928 -1.0859 -1.1244
 6799SOL    MW426930   5.866   3.315   2.731  0.4012  0.4758 -0.2190
 6800SOL     OW26931   2.536   1.318   4.587  0.2986 -0.0794 -0.3592
 6800SOL    HW226932   2.518   1.228   4.616  0.6068 -0.2038 -0.5480
 6800SOL    HW326933   2.576   1.360   4.663  1.5239 -0.5376 -0.7330
 6800SOL    MW426934   2.539   1.311   4.601 -0.2226  0.0046 -0.2402
 6801SOL     OW26935   5.888   0.780   4.340  0.2447  0.2235 -0.5181
 6801SOL    HW226936   5.796   0.787   4.364  0.4094  2.3108 -0.2432
 6801SOL    HW326937   5.902   0.688   4.319 -0.9031 -1.0555  3.4977
 6801SOL    MW426938   5.878   0.769   4.341  0.0042  0.2241  0.4214
 6802SOL     OW26939   2.189   5.716   3.235  0.1902  0.2596 -0.0573
 6802SOL    HW226940   2.112   5.675   3.196  0.4994 -0.5003  0.1183
 6802SOL    HW326941   2.254   5.646   3.239  2.5563  1.8167 -4.4770
 6802SOL    MW426942   2.188   5.702   3.230  0.1221 -0.4522  0.3595
 6803SOL     OW26943   1.182   1.318   0.622  0.0613 -0.8925 -0.4281
 6803SOL    HW226944   1.234   1.379   0.570 -0.7569 -0.3496 -0.6238
 6803SOL    HW326945   1.183   1.237   0.572 -0.2769 -0.5320 -1.0237
 6803SOL    MW426946   1.189   1.315   0.609  0.1154  0.2027 -0.2595
 6804SOL     OW26947   2.228   6.087   1.884  0.5066  0.2155 -0.3671
 6804SOL    HW226948   2.271   6.164   1.920 -2.0174  2.0517 -0.9935
 6804SOL    HW326949   2.155   6.122   1.832 -0.3649 -2.5756 -1.2274
 6804SOL    MW426950   2.224   6.101   1.882 -0.2711 -0.1407 -0.1495
 6805SOL     OW26951   0.697   4.869   3.738  0.6241  0.2698  0.1398
 6805SOL    HW226952   0.779   4.821   3.750  0.5731  0.0545 -0.3500
 6805SOL    HW326953   0.631   4.801   3.727  0.4207  0.4451  0.2791
 6805SOL    MW426954   0.699   4.854   3.738 -0.5824 -0.1558  0.0900
 6806SOL     OW26955   2.651   0.074   2.731 -0.2445 -0.8502 -0.0290
 6806SOL    HW226956   2.723   0.134   2.709  0.2246 -1.7209 -0.9496
 6806SOL    HW326957   2.614   0.050   2.646 -0.8406 -1.3711  0.3732
 6806SOL    MW426958   2.656   0.079   2.717  0.3947  0.4436  0.1477
 6807SOL     OW26959   0.847   4.212   6.060 -0.3601  0.5916  0.7766
 6807SOL    HW226960   0.896   4.293   6.075  0.1668  0.3325  0.4661
 6807SOL    HW326961   0.819   4.217   5.969  0.2707  0.1131  0.5468
 6807SOL    MW426962   0.850   4.223   6.050  0.0365 -0.5293 -0.4683
 6808SOL     OW26963   0.764   2.787   4.487  0.5689 -0.1800  0.3248
 6808SOL    HW226964   0.784   2.799   4.580  0.9843  2.6609 -0.0185
 6808SOL    HW326965   0.714   2.706   4.483  0.0965 -0.1189  3.0980
 6808SOL    MW426966   0.760   2.778   4.499  0.5273 -0.0335  0.3752
 6809SOL     OW26967   3.782   1.987   0.990  0.3749  0.2214 -0.2906
 6809SOL    HW226968   3.696   1.946   0.983  0.2820  0.5890 -1.6958
 6809SOL    HW326969   3.829   1.935   1.055 -0.4870 -0.7364 -0.4140
 6809SOL    MW426970   3.777   1.975   0.997 -0.3005 -0.5651 -0.1543
 6810SOL     OW26971   0.252   2.889   1.590 -0.0773 -0.0005 -0.0687
 6810SOL    HW226972   0.313   2.816   1.601 -1.4187 -0.9955  1.1797
 6810SOL    HW326973   0.279   2.953   1.655  0.0840 -0.1435  0.0062
 6810SOL    MW426974   0.263   2.888   1.600  0.2810  0.6017  0.3264
 6811SOL     OW26975   3.672   0.237   5.026 -0.6255 -0.4483 -0.0667
 6811SOL    HW226976   3.641   0.147   5.014  0.9385 -0.7405 -2.7101
 6811SOL    HW326977   3.724   0.234   5.105  0.8100 -2.3591 -1.0066
 6811SOL    MW426978   3.674   0.225   5.035 -0.2311 -0.3946 -0.0404
 6812SOL     OW26979   2.121   5.270   4.992  0.5400  0.4021  0.4411
 6812SOL    HW226980   2.207   5.230   5.009  0.8458  0.5856 -0.5804
 6812SOL    HW326981   2.091   5.300   5.077  0.3309 -1.9241  1.2424
 6812SOL    MW426982   2.129   5.269   5.005 -0.6161 -0.5014 -0.2424
 6813SOL     OW26983   2.341   1.941   4.285  0.3223  0.2865  0.4059
 6813SOL    HW226984   2.290   1.895   4.353  0.4253  0.1784  0.4110
 6813SOL    HW326985   2.283   2.011   4.255  0.3620  0.4819  0.7715
 6813SOL    MW426986   2.327   1.944   4.290 -0.0306  0.8309  0.2773
 6814SOL     OW26987   5.097   3.077   1.423  0.5271 -0.3987  0.0147
 6814SOL    HW226988   5.133   3.141   1.362  0.5472 -0.1433  0.2957
 6814SOL    HW326989   5.168   3.059   1.484  0.0169  0.5035  0.8901
 6814SOL    MW426990   5.111   3.083   1.423 -0.0895  0.1042 -0.7415
 6815SOL     OW26991   4.615   1.676   5.800  0.2891 -0.7960  0.6946
 6815SOL    HW226992   4.545   1.673   5.736  1.1361 -0.5642 -0.2635
 6815SOL    HW326993   4.571   1.665   5.884 -1.0307  0.6404  0.2302
 6815SOL    MW426994   4.600   1.674   5.803 -0.8493  0.3168 -0.3236
 6816SOL     OW26995   4.868   1.844   5.131  0.4638  0.1964  0.4816
 6816SOL    HW226996   4.825   1.801   5.058  1.8277 -2.7005  1.2226
 6816SOL    HW326997   4.797   1.868   5.191 -0.4568  0.3582 -0.6415
 6816SOL    MW426998   4.853   1.841   5.129  0.7998  0.6285 -0.2819
 6817SOL     OW26999   5.699   1.551   1.986 -0.2515 -0.4464  0.0005
 6817SOL    HW227000   5.674   1.635   1.947 -1.5027 -1.1192 -0.7259
 6817SOL    HW327001   5.662   1.554   2.075  1.2156  0.4361  0.6314
 6817SOL    MW427002   5.691   1.562   1.993 -0.2256 -0.0842 -0.7037
 6818SOL     OW27003   6.267   5.687   3.073  0.6013  0.0158 -0.6606
 6818SOL    HW227004   6.219   5.766   3.047  1.6888  1.1945  0.7157
 6818SOL    HW327005   6.224   5.659   3.154 -0.3934 -1.4261 -1.6343
 6818SOL    MW427006   6.255   5.694   3.080 -0.0451  0.4532 -0.4682
 6819SOL     OW27007   3.336   3.610   5.620 -0.3125 -0.3050 -0.3378
 6819SOL    HW227008   3.288   3.575   5.546 -0.7981  0.1036 -0.2159
 6819SOL    HW327009   3.362   3.533   5.671  1.2334 -0.7067 -1.6426
 6819SOL    MW427010   3.333   3.595   5.617 -0.4092 -0.0055  0.6581
 6820SOL     OW27011   3.004   5.588   4.221 -0.3357  0.3002 -0.0689
 6820SOL    HW227012   3.042   5.675   4.235  1.2271 -0.4364  0.5350
 6820SOL    HW327013   3.030   5.564   4.133  0.9138 -0.3229  0.4460
 6820SOL    MW427014   3.012   5.596   4.211  0.6900 -0.4880  0.2694
 6821SOL     OW27015   4.489   2.504   1.891 -0.2401 -0.3189  0.2932
 6821SOL    HW227016   4.421   2.476   1.953 -2.2316 -0.3547 -1.7891
 6821SOL    HW327017   4.463   2.467   1.807 -0.0081  3.1133 -1.5022
 6821SOL    MW427018   4.477   2.496   1.888 -0.1942  0.4305  0.3257
 6822SOL     OW27019   5.416   1.917   2.921 -0.0981 -0.0885 -0.2833
 6822SOL    HW227020   5.438   1.986   2.984 -2.3076 -0.8207  1.4040
 6822SOL    HW327021   5.365   1.962   2.854 -0.2404  0.1842  0.0061
 6822SOL    MW427022   5.413   1.932   2.920  0.2664  0.0140 -0.2950
 6823SOL     OW27023   4.452   4.461   5.946 -0.6766  0.1661  0.5859
 6823SOL    HW227024   4.517   4.419   6.003 -0.1855 -0.2296 -0.2406
 6823SOL    HW327025   4.403   4.387   5.908 -0.5638  0.3879 -0.0001
 6823SOL    MW427026   4.454   4.446   5.948 -0.3414 -0.3274 -0.2756
 6824SOL     OW27027   5.508   5.742   5.359 -0.3581 -0.3077  0.0723
 6824SOL    HW227028   5.533   5.780   5.275  0.4611 -1.4022 -0.2109
 6824SOL    HW327029   5.414   5.729   5.352 -0.5329  0.9602 -0.0954
 6824SOL    MW427030   5.499   5.745   5.347  0.3570  0.4383  0.3896
 6825SOL     OW27031   6.144   1.952   2.258  0.1743 -0.3376  0.1634
 6825SOL    HW227032   6.206   1.888   2.222 -0.4759 -1.0069  0.2095
 6825SOL    HW327033   6.071   1.950   2.196  1.1729  2.2118 -1.2513
 6825SOL    MW427034   6.143   1.943   2.245 -0.7081  0.6342  0.3745
 6826SOL     OW27035   5.047   0.211   4.755 -0.5441  0.7319  0.0377
 6826SOL    HW227036   5.012   0.289   4.797 -1.9487 -0.0705  0.4365
 6826SOL    HW327037   5.012   0.138   4.807  1.4852 -0.1477  0.2433
 6826SOL    MW427038   5.038   0.212   4.767 -0.1103 -0.5906 -0.3305
 6827SOL     OW27039   4.191   5.125   1.881  0.0873  0.1672 -0.3877
 6827SOL    HW227040   4.152   5.136   1.795 -2.7498  0.6169  0.8582
 6827SOL    HW327041   4.168   5.035   1.907  0.9917  0.0049 -0.1125
 6827SOL    MW427042   4.183   5.114   1.873  0.2282  0.6798  0.5123
 6828SOL     OW27043   6.367   4.911   1.695  0.0304 -0.2141  0.3989
 6828SOL    HW227044   6.286   4.865   1.674 -0.1826 -0.3865  1.5232
 6828SOL    HW327045   6.392   4.878   1.781 -0.5433  2.2763  1.6350
 6828SOL    MW427046   6.360   4.901   1.704  0.0326  0.0035  0.4787
 6829SOL     OW27047   1.012   2.237   1.909  0.5749 -0.2862 -0.2666
 6829SOL    HW227048   1.022   2.159   1.855  0.2788 -0.5900  0.1093
 6829SOL    HW327049   1.094   2.286   1.897  1.4478 -1.4426  0.7213
 6829SOL    MW427050   1.024   2.233   1.901  0.3102  0.2203  0.5751
 6830SOL     OW27051   4.058   4.521   3.733 -0.0773 -0.4605 -0.1218
 6830SOL    HW227052   4.004   4.540   3.657 -0.1987 -1.3050 -0.2646
 6830SOL    HW327053   4.148   4.531   3.701 -0.1138  1.7715  0.3382
 6830SOL    MW427054   4.063   4.525   3.719  0.3894 -0.0463 -0.0344
 6831SOL     OW27055   0.374   4.132   1.578 -0.4891 -0.2790 -0.5865
 6831SOL    HW227056   0.367   4.187   1.500 -1.3857  0.2951 -0.1187
 6831SOL    HW327057   0.285   4.101   1.593 -0.6782  0.9494  1.1335
 6831SOL    MW427058   0.361   4.135   1.570  0.0582  0.1673  0.2852
 6832SOL     OW27059   3.484   1.458   4.431 -0.3343  0.2434 -0.2631
 6832SOL    HW227060   3.452   1.384   4.483  1.6519  0.7351  1.7920
 6832SOL    HW327061   3.432   1.533   4.463 -0.6955  0.1584 -0.6435
 6832SOL    MW427062   3.473   1.458   4.442 -0.5657 -0.1415  0.0968
 6833SOL     OW27063   3.595   4.311   3.498  0.3157 -0.0638 -0.1688
 6833SOL    HW227064   3.575   4.387   3.443  3.0786  1.8134  1.1885
 6833SOL    HW327065   3.690   4.301   3.491  0.4084 -1.4715  2.0680
 6833SOL    MW427066   3.605   4.320   3.490 -0.0202 -0.6710  0.0038
 6834SOL     OW27067   6.256   2.594   5.736 -0.3538  0.2493 -0.2043
 6834SOL    HW227068   6.254   2.688   5.719  4.3769  0.5539 -0.1800
 6834SOL    HW327069   6.300   2.586   5.820  0.1209 -2.0147 -0.6116
 6834SOL    MW427070   6.261   2.605   5.745 -0.4030 -0.3618 -0.1249
 6835SOL     OW27071   0.679   1.057   5.359  0.0363  0.0967 -0.2397
 6835SOL    HW227072   0.716   1.134   5.316 -0.1752 -0.1172 -0.8213
 6835SOL    HW327073   0.687   0.988   5.293 -0.2899 -0.2425  0.0731
 6835SOL    MW427074   0.685   1.058   5.344  0.2762  0.5345 -0.2799
 6836SOL     OW27075   1.554   5.793   1.295 -0.1407 -0.5106  0.6471
 6836SOL    HW227076   1.609   5.789   1.373 -2.1040 -0.7814  2.1005
 6836SOL    HW327077   1.504   5.874   1.303  0.1067 -0.1928 -0.6944
 6836SOL    MW427078   1.554   5.803   1.306 -0.0422  0.2009  0.0048
 6837SOL     OW27079   1.746   3.307  -0.005 -0.0131  0.0967  0.1427
 6837SOL    HW227080   1.655   3.303  -0.034 -0.5810  0.7489  1.7076
 6837SOL    HW327081   1.795   3.329  -0.084 -1.4186  1.3853 -0.4367
 6837SOL    MW427082   1.740   3.310  -0.020  0.4051  0.1029  0.3214
 6838SOL     OW27083   4.290   3.639   2.840 -0.8057 -0.0979  0.3460
 6838SOL    HW227084   4.287   3.577   2.767  1.2056 -0.6143  0.6313
 6838SOL    HW327085   4.298   3.725   2.798  1.1230 -0.4463 -0.1328
 6838SOL    MW427086   4.291   3.642   2.824  0.3230  0.5398 -0.3731
 6839SOL     OW27087   0.550   5.899   5.216 -0.7728 -0.6160  0.0300
 6839SOL    HW227088   0.551   5.972   5.278 -0.7315  0.3873 -1.1013
 6839SOL    HW327089   0.461   5.902   5.179 -0.7177 -1.0398 -0.1324
 6839SOL    MW427090   0.538   5.909   5.219  0.4101  0.2135  0.1860
 6840SOL     OW27091   3.736   1.287   4.158 -0.1774  0.2024  0.0726
 6840SOL    HW227092   3.764   1.197   4.170 -0.0379  0.3066  0.5542
 6840SOL    HW327093   3.745   1.327   4.245 -2.4016  0.0831  0.4270
 6840SOL    MW427094   3.740   1.281   4.171 -0.1575  0.2534  0.2351
 6841SOL     OW27095   3.850   1.914   5.355  0.2100 -0.1872 -0.3117
 6841SOL    HW227096   3.889   1.853   5.293  1.1591  2.8586 -3.0263
 6841SOL    HW327097   3.920   1.935   5.416 -0.1415 -1.7272  0.6759
 6841SOL    MW427098   3.864   1.909   5.355 -0.1696 -0.1232 -0.2260
 6842SOL     OW27099   1.163   5.678   3.632  0.1607  0.3338  0.2275
 6842SOL    HW227100   1.255   5.671   3.606  0.3552 -1.1951  1.1738
 6842SOL    HW327101   1.114   5.655   3.553  0.6458 -0.4966  0.1560
 6842SOL    MW427102   1.169   5.674   3.618  0.7612  0.6932  0.1333
 6843SOL     OW27103   0.543   0.219   0.215 -0.4821  0.1243  0.2191
 6843SOL    HW227104   0.470   0.232   0.276  0.2569  1.9320  0.7847
 6843SOL    HW327105   0.504   0.168   0.143 -1.4930 -1.6027  1.8923
 6843SOL    MW427106   0.528   0.214   0.213  0.2553  0.3660  0.2810
 6844SOL     OW27107   5.357   5.260   2.475 -0.2599 -0.5565 -0.1282
 6844SOL    HW227108   5.286   5.314   2.440  0.1311 -0.9162 -1.5319
 6844SOL    HW327109   5.437   5.299   2.440  0.1224 -1.1374  0.0842
 6844SOL    MW427110   5.358   5.272   2.466 -0.0199  0.3460  0.5665
 6845SOL     OW27111   2.674   5.694   4.039  0.3133  0.1720  0.1015
 6845SOL    HW227112   2.590   5.655   4.063  1.2554 -1.1901  1.3050
 6845SOL    HW327113   2.674   5.779   4.081 -0.8675  0.6289 -0.7584
 6845SOL    MW427114   2.663   5.700   4.047 -0.3721  0.2605  1.0501
 6846SOL     OW27115   1.696   1.141   5.447  0.5086 -0.0946 -0.1177
 6846SOL    HW227116   1.729   1.144   5.537  3.7781  0.2352 -1.1718
 6846SOL    HW327117   1.773   1.115   5.395 -1.3556 -0.6490 -2.7849
 6846SOL    MW427118   1.711   1.138   5.452 -0.4791  0.5729 -0.5923
 6847SOL     OW27119   5.886   3.729   0.100 -0.4350 -0.6060 -0.5327
 6847SOL    HW227120   5.826   3.727   0.025 -0.4555 -1.3746 -0.5031
 6847SOL    HW327121   5.888   3.639   0.131  0.4158 -0.4982 -0.2666
 6847SOL    MW427122   5.878   3.717   0.094 -0.1566  0.1682  0.0356
 6848SOL     OW27123   0.909   6.033   4.157 -0.2053 -0.0016 -0.3892
 6848SOL    HW227124   0.905   6.093   4.232 -3.1738 -0.1261 -0.3474
 6848SOL    HW327125   0.929   5.948   4.195 -0.4214  0.1612  0.0897
 6848SOL    MW427126   0.911   6.030   4.172  0.1166  0.3268 -0.1562
 6849SOL     OW27127   5.112   1.627   2.754 -0.1951  0.8080  0.4477
 6849SOL    HW227128   5.053   1.689   2.796 -0.5240  1.0140 -0.2970
 6849SOL    HW327129   5.196   1.639   2.799 -0.8077  0.2082  1.8045
 6849SOL    MW427130   5.116   1.637   2.766 -0.2448  0.0327  0.2497
 6850SOL     OW27131   2.735   4.123   1.176  0.0523  0.3745 -0.0648
 6850SOL    HW227132   2.686   4.109   1.257  0.4501  0.8030  0.2546
 6850SOL    HW327133   2.668   4.145   1.111 -0.1732  1.0044  0.3782
 6850SOL    MW427134   2.720   4.124   1.178 -0.1451  0.4578 -0.1584
 6851SOL     OW27135   4.190   4.172   0.096 -0.4120 -0.2261  0.2591
 6851SOL    HW227136   4.174   4.081   0.122 -0.1383  0.1859  1.9772
 6851SOL    HW327137   4.144   4.225   0.161 -0.0577  0.8738 -0.3540
 6851SOL    MW427138   4.182   4.167   0.108 -0.4327 -0.2476 -0.0599
 6852SOL     OW27139   0.684   0.050   1.914  0.1307  0.1142 -0.3409
 6852SOL    HW227140   0.712   0.096   1.994 -0.5202 -0.2378  0.0924
 6852SOL    HW327141   0.701  -0.043   1.933 -0.0369  0.0291 -0.6086
 6852SOL    MW427142   0.690   0.044   1.927 -0.9193 -0.1418  0.1235
 6853SOL     OW27143   1.118   1.936   5.282  0.3744 -0.3036 -0.1321
 6853SOL    HW227144   1.133   1.845   5.256 -0.1386 -0.0440 -1.4187
 6853SOL    HW327145   1.180   1.987   5.229  0.0572  0.1630 -0.0626
 6853SOL    MW427146   1.128   1.931   5.272  0.6323  0.2319  0.1243
 6854SOL     OW27147   0.814   2.450   6.367  0.2511  0.1841 -0.1405
 6854SOL    HW227148   0.766   2.420   6.444 -0.2161  0.6216 -0.2519
 6854SOL    HW327149   0.749   2.499   6.316  0.7398  0.5359 -0.4401
 6854SOL    MW427150   0.799   2.453   6.370  0.4698  0.0750  0.1588
 6855SOL     OW27151   1.034   5.593   5.820  0.4836 -0.7286  0.1158
 6855SOL    HW227152   0.944   5.567   5.800 -0.2719  1.0031  0.9862
 6855SOL    HW327153   1.050   5.560   5.909  0.4126 -0.3846  0.2598
 6855SOL    MW427154   1.024   5.586   5.829  0.1310 -0.1725 -0.1508
 6856SOL     OW27155   1.149   2.216   3.745 -0.0939 -0.0356 -0.4787
 6856SOL    HW227156   1.233   2.175   3.724 -0.6676 -1.0420 -0.8672
 6856SOL    HW327157   1.152   2.230   3.840  0.7484  0.4983 -0.5757
 6856SOL    MW427158   1.160   2.212   3.755 -0.0590 -0.4772 -0.1577
 6857SOL     OW27159   4.056   5.511   1.862 -0.3833 -0.3491 -0.9386
 6857SOL    HW227160   4.133   5.556   1.829  0.4083 -0.4434  0.6776
 6857SOL    HW327161   4.020   5.466   1.786  1.5163 -0.8243 -1.6076
 6857SOL    MW427162   4.061   5.511   1.848  0.2269 -0.3036  0.3288
 6858SOL     OW27163   2.492   3.538   1.532  0.1067 -0.1560  0.2079
 6858SOL    HW227164   2.424   3.583   1.581  1.7063 -0.4650  2.9106
 6858SOL    HW327165   2.446   3.494   1.461 -2.1302  1.6116  0.4631
 6858SOL    MW427166   2.477   3.538   1.529 -0.4160 -0.4443  0.1109
 6859SOL     OW27167   1.912   4.197   2.077 -0.4739 -0.0520  0.2577
 6859SOL    HW227168   1.988   4.256   2.083 -0.7719  0.2657  1.1346
 6859SOL    HW327169   1.945   4.120   2.031  0.5457 -0.1514  1.1082
 6859SOL    MW427170   1.927   4.195   2.072  0.6462  0.1883  0.4616
 6860SOL     OW27171   0.567   1.607   3.065  0.1819  0.3322  0.4214
 6860SOL    HW227172   0.522   1.653   3.135  0.4748  0.4853  0.5084
 6860SOL    HW327173   0.593   1.524   3.104 -1.0465 -0.2706  0.0433
 6860SOL    MW427174   0.564   1.602   3.079  0.2542  0.0649  0.4197
 6861SOL     OW27175   1.857   1.759   2.154  0.1202  0.6162  0.4776
 6861SOL    HW227176   1.877   1.835   2.100  1.0029  1.2985  1.7044
 6861SOL    HW327177   1.943   1.719   2.171 -0.1592  0.2992  1.1920
 6861SOL    MW427178   1.871   1.763   2.149  0.3436  0.8044  0.6280
 6862SOL     OW27179   5.411   1.370   2.403 -0.2650 -0.5785 -0.3868
 6862SOL    HW227180   5.353   1.442   2.380 -0.2738 -0.6264 -0.5127
 6862SOL    HW327181   5.499   1.401   2.380 -0.4541 -1.4036 -2.4434
 6862SOL    MW427182   5.415   1.383   2.397 -0.4598 -0.1897  0.6865
 6863SOL     OW27183   6.114   0.443   5.280 -0.5184 -0.0451  0.2131
 6863SOL    HW227184   6.076   0.357   5.295 -0.6561  0.2318  1.5453
 6863SOL    HW327185   6.110   0.487   5.365  1.9389  0.3242  0.2174
 6863SOL    MW427186   6.109   0.438   5.293  0.3181 -0.5717  0.0589
 6864SOL     OW27187   1.514   0.681   0.392  0.0155 -0.0416  0.2360
 6864SOL    HW227188   1.504   0.589   0.369  1.5806 -0.0868 -0.4070
 6864SOL    HW327189   1.475   0.729   0.319  0.9437 -0.2042 -0.3793
 6864SOL    MW427190   1.508   0.676   0.379  0.1057  0.3403  1.1522
 6865SOL     OW27191   6.019   0.677   2.917 -0.0517 -0.2253 -0.0560
 6865SOL    HW227192   5.932   0.642   2.931  0.3804 -0.6006  2.0147
 6865SOL    HW327193   6.059   0.619   2.852 -0.9818 -0.6662 -0.2421
 6865SOL    MW427194   6.013   0.665   2.910  0.5344 -0.2959 -0.2273
 6866SOL     OW27195   3.222   3.081   1.904  0.1193  0.5230  0.3891
 6866SOL    HW227196   3.246   2.991   1.885  2.6802  1.1424  0.3828
 6866SOL    HW327197   3.159   3.074   1.977 -0.5095 -1.2589 -0.2614
 6866SOL    MW427198   3.217   3.068   1.911  0.0493  0.7983  0.7591
 6867SOL     OW27199   0.201   3.179   0.933  0.1295 -0.0806  0.6705
 6867SOL    HW227200   0.181   3.256   0.986 -0.7028 -0.3774  0.8023
 6867SOL    HW327201   0.276   3.138   0.977 -0.4640 -0.2500  1.5630
 6867SOL    MW427202   0.208   3.183   0.946  0.0982 -1.0597  0.1366
 6868SOL     OW27203   2.541   5.947   1.113 -0.5339 -0.3800  0.2610
 6868SOL    HW227204   2.548   5.872   1.054  1.7309 -0.2311  0.2378
 6868SOL    HW327205   2.483   5.918   1.183  1.4837 -2.8132  1.1041
 6868SOL    MW427206   2.535   5.934   1.115  0.5712  0.1759 -0.3269
 6869SOL     OW27207   2.728   0.275   3.000 -0.0101  0.3031 -0.3688
 6869SOL    HW227208   2.634   0.264   2.983  0.3463 -0.4923 -1.9672
 6869SOL    HW327209   2.763   0.186   3.000  0.8231  0.6209 -0.2376
 6869SOL    MW427210   2.720   0.262   2.998 -0.2024 -0.1930 -0.3510
 6870SOL     OW27211   3.322   1.847   2.118 -0.1109  0.1502 -0.0414
 6870SOL    HW227212   3.312   1.930   2.073 -2.6866 -0.1098 -0.0818
 6870SOL    HW327213   3.239   1.801   2.104  0.3107 -1.4148  2.0091
 6870SOL    MW427214   3.310   1.852   2.110 -0.6399  0.2476  0.1892
 6871SOL     OW27215   5.870   2.675   4.321  0.2672  0.5554  0.6388
 6871SOL    HW227216   5.813   2.714   4.387  0.7249  0.8190  0.8797
 6871SOL    HW327217   5.819   2.680   4.240 -1.0637 -1.3909  1.2467
 6871SOL    MW427218   5.855   2.681   4.319  0.4840 -0.7533 -0.6509
 6872SOL     OW27219   0.074   5.039   2.687  0.1822 -0.3857 -0.1860
 6872SOL    HW227220   0.160   5.001   2.672  1.0239  1.1725  0.5142
 6872SOL    HW327221   0.080   5.080   2.773 -1.1814 -0.0209 -0.2348
 6872SOL    MW427222   0.086   5.039   2.696 -0.0516 -0.2860 -0.3995
 6873SOL     OW27223   4.765   0.217   2.790  0.1916 -0.1490 -0.7154
 6873SOL    HW227224   4.673   0.243   2.796  0.5915  1.9176 -2.3259
 6873SOL    HW327225   4.812   0.299   2.774  2.4237 -1.0562  0.6955
 6873SOL    MW427226   4.759   0.232   2.789  0.2575  0.0621 -0.5341
 6874SOL     OW27227   6.159   2.076   4.178 -0.2580 -0.2789  0.3109
 6874SOL    HW227228   6.140   2.131   4.255  2.9980  0.1369  0.9674
 6874SOL    HW327229   6.209   2.003   4.213  0.1944 -0.7603 -1.2814
 6874SOL    MW427230   6.163   2.074   4.193  0.0163 -0.3312  0.0232
 6875SOL     OW27231   5.257   5.255   0.898  0.0503  0.7768  0.4618
 6875SOL    HW227232   5.171   5.215   0.914 -0.0935  0.3709 -1.1793
 6875SOL    HW327233   5.312   5.222   0.969 -1.1594  1.1448  1.6214
 6875SOL    MW427234   5.253   5.245   0.910  0.6812 -0.4447 -0.4112
 6876SOL     OW27235   0.991   2.149   4.314 -0.6109  0.9616 -0.3699
 6876SOL    HW227236   0.983   2.228   4.368 -1.4659 -0.6759  2.1030
 6876SOL    HW327237   0.903   2.111   4.316  0.4207 -1.6346  1.2533
 6876SOL    MW427238   0.978   2.154   4.322  0.4926 -0.5048  0.3302
 6877SOL     OW27239   6.298   1.496   5.398  0.1890  0.3828  0.1800
 6877SOL    HW227240   6.214   1.480   5.439 -0.5705  3.8999  0.2518
 6877SOL    HW327241   6.307   1.591   5.395  3.1322  0.1995 -1.9415
 6877SOL    MW427242   6.288   1.506   5.403  0.0512  0.7667 -0.0403
 6878SOL     OW27243   4.411   1.690   1.927 -0.2326 -0.3305 -0.4797
 6878SOL    HW227244   4.447   1.778   1.916  1.0130 -0.4132  2.2908
 6878SOL    HW327245   4.326   1.704   1.971  0.7157 -0.5070  1.5132
 6878SOL    MW427246   4.404   1.704   1.931  0.0165  0.1008  0.3640
 6879SOL     OW27247   1.151   0.797   0.697 -0.0098  0.0303  0.2507
 6879SOL    HW227248   1.132   0.864   0.762  0.7114 -0.7995  1.3655
 6879SOL    HW327249   1.234   0.824   0.658 -0.2336  0.3103 -0.0384
 6879SOL    MW427250   1.160   0.809   0.700 -0.4451  0.2376 -0.0477
 6880SOL     OW27251   3.347   3.703   6.101  0.0913  0.4809  0.2697
 6880SOL    HW227252   3.312   3.639   6.039  0.2228 -0.7636  1.4347
 6880SOL    HW327253   3.423   3.740   6.056 -0.4860  0.4631 -0.7618
 6880SOL    MW427254   3.352   3.699   6.087  0.1227  0.4354 -0.0747
 6881SOL     OW27255   5.159   0.284   0.603  0.5965 -0.7640 -0.4994
 6881SOL    HW227256   5.211   0.270   0.682 -0.8691  0.7802  0.8325
 6881SOL    HW327257   5.073   0.246   0.625  0.2265 -0.4683 -1.4129
 6881SOL    MW427258   5.154   0.277   0.617  0.4874 -0.0440 -0.5525
 6882SOL     OW27259   5.024   4.166   5.360 -0.6655 -0.0635  0.0163
 6882SOL    HW227260   4.963   4.236   5.384  0.3802  0.2464  2.0816
 6882SOL    HW327261   5.086   4.207   5.300 -0.2693  0.7336  0.9355
 6882SOL    MW427262   5.024   4.181   5.356  0.3599 -0.4804  0.1043
 6883SOL     OW27263   4.855   0.513   1.855 -0.1375  0.0343  0.5195
 6883SOL    HW227264   4.801   0.545   1.927  0.8010  0.3369  1.1024
 6883SOL    HW327265   4.941   0.498   1.895  0.2400 -0.3314 -0.4176
 6883SOL    MW427266   4.859   0.515   1.870  0.0965 -0.3361  0.1705
 6884SOL     OW27267   4.512   1.590   4.997  0.2098  0.1853 -0.1932
 6884SOL    HW227268   4.446   1.528   4.967 -0.2675 -0.5515  2.1718
 6884SOL    HW327269   4.579   1.536   5.039  0.2785  1.1562  1.0177
 6884SOL    MW427270   4.512   1.575   4.999 -0.0971  0.2925  0.4373
 6885SOL     OW27271   4.592   5.747   5.232 -0.0103 -0.2948  0.0506
 6885SOL    HW227272   4.536   5.686   5.280 -2.5426  1.5125 -0.4444
 6885SOL    HW327273   4.566   5.736   5.141  2.2622 -1.1503 -0.5764
 6885SOL    MW427274   4.581   5.737   5.226 -0.8688  0.3746 -0.0948
 6886SOL     OW27275   1.527   2.123   5.349  0.0203 -0.8194  0.4009
 6886SOL    HW227276   1.453   2.113   5.290 -0.5377 -1.3146  1.1731
 6886SOL    HW327277   1.539   2.037   5.388  0.9684 -0.7340  0.3380
 6886SOL    MW427278   1.519   2.111   5.346 -0.3104  0.1854  0.3443
 6887SOL     OW27279   4.043   0.665   1.064 -0.2318  0.1893  0.2535
 6887SOL    HW227280   3.983   0.678   0.990  1.4232  0.7686 -1.0395
 6887SOL    HW327281   4.006   0.719   1.135 -1.3034  0.4225 -0.4644
 6887SOL    MW427282   4.030   0.674   1.064  0.2732 -0.1196  0.2682
 6888SOL     OW27283   6.399   3.785   0.863  0.1244 -0.3288  0.3553
 6888SOL    HW227284   6.361   3.793   0.775 -0.6018  0.3238  0.7125
 6888SOL    HW327285   6.411   3.691   0.875 -2.3260 -0.6963  0.5661
 6888SOL    MW427286   6.395   3.774   0.853  0.3793 -0.0256 -0.4218
 6889SOL     OW27287   3.020   6.365   0.005 -0.3644 -0.3553  0.7764
 6889SOL    HW227288   2.932   6.328  -0.001 -0.1309 -0.9194  0.7691
 6889SOL    HW327289   3.009   6.457  -0.016 -1.0834 -0.2539  1.5743
 6889SOL    MW427290   3.007   6.372   0.001  0.3742 -0.0438 -0.1296
 6890SOL     OW27291   4.249   3.771   5.561  0.6509 -0.2784 -0.3405
 6890SOL    HW227292   4.290   3.684   5.563 -0.1938 -0.6775  0.0377
 6890SOL    HW327293   4.259   3.800   5.470  0.3508 -1.0700 -0.6394
 6890SOL    MW427294   4.256   3.763   5.549 -0.1756  0.4413 -0.1486
 6891SOL     OW27295   5.325   3.645   1.315 -0.3296  0.1264  0.4150
 6891SOL    HW227296   5.379   3.662   1.238 -0.9431 -2.3940 -0.6741
 6891SOL    HW327297   5.236   3.635   1.281 -1.3270  2.5402  1.9777
 6891SOL    MW427298   5.320   3.646   1.300 -0.7270 -0.1872  0.3285
 6892SOL     OW27299   3.748   0.008   5.411 -0.4932 -0.0460  0.4629
 6892SOL    HW227300   3.671  -0.001   5.355 -0.5950 -0.5879  0.6797
 6892SOL    HW327301   3.714   0.037   5.495 -0.3066  1.0721  0.1660
 6892SOL    MW427302   3.734   0.010   5.415 -0.4276  0.0384 -0.3183
 6893SOL     OW27303   1.210   2.726   2.461 -0.5792 -0.0445  0.1397
 6893SOL    HW227304   1.241   2.807   2.420 -2.6180  0.1379 -1.1321
 6893SOL    HW327305   1.251   2.728   2.548  3.0856  0.0268 -1.3777
 6893SOL    MW427306   1.220   2.737   2.467  0.2774 -0.1873  0.0006
 6894SOL     OW27307   4.137   2.053   2.722  0.3706 -0.1724  0.1947
 6894SOL    HW227308   4.097   2.067   2.636  0.3108 -0.2399  0.2118
 6894SOL    HW327309   4.226   2.088   2.713 -0.6515  3.0145  1.1008
 6894SOL    MW427310   4.143   2.059   2.709 -0.1608  0.0841 -0.1152
 6895SOL     OW27311   1.666   4.737  -0.019 -0.1698 -0.0682  0.2901
 6895SOL    HW227312   1.575   4.753   0.006  0.4170  2.4665  1.0685
 6895SOL    HW327313   1.675   4.641  -0.019 -2.5198 -0.3416  1.2969
 6895SOL    MW427314   1.655   4.726  -0.016  0.0867 -0.0403  0.7871
 6896SOL     OW27315   4.914   0.539   4.474 -0.5555 -0.2311  0.5228
 6896SOL    HW227316   5.006   0.554   4.451 -0.0209 -1.9868  1.3796
 6896SOL    HW327317   4.870   0.528   4.390  0.2244 -0.4518  0.1319
 6896SOL    MW427318   4.920   0.540   4.460 -0.0179 -0.1888  0.0569
 6897SOL     OW27319   4.844   1.280   5.376  0.6568 -0.4909 -0.3363
 6897SOL    HW227320   4.864   1.310   5.287  1.8845  2.0226  0.6798
 6897SOL    HW327321   4.775   1.340   5.407  2.1785  0.5154  1.2986
 6897SOL    MW427322   4.837   1.292   5.369  0.4760 -0.3257  0.0449
 6898SOL     OW27323   1.255   0.997   0.899 -0.7917  0.2593  0.0773
 6898SOL    HW227324   1.320   0.939   0.940  0.5985  2.1807  0.7845
 6898SOL    HW327325   1.307   1.056   0.844 -2.4768 -1.3630 -3.5983
 6898SOL    MW427326   1.271   0.997   0.897  0.5945  0.0103  0.2210
 6899SOL     OW27327   0.818   4.825   2.862  0.6402 -0.4798  0.4395
 6899SOL    HW227328   0.814   4.919   2.878 -0.2975  0.3220 -3.4049
 6899SOL    HW327329   0.740   4.790   2.905 -0.4939  1.0023 -0.3188
 6899SOL    MW427330   0.807   4.832   2.870  0.5025 -0.2781 -0.7723
 6900SOL     OW27331   6.198   3.217   4.201  0.3455  0.1505 -0.2198
 6900SOL    HW227332   6.180   3.145   4.140 -0.9694  1.3897 -1.3493
 6900SOL    HW327333   6.259   3.274   4.154  0.3261  0.4629  0.1283
 6900SOL    MW427334   6.204   3.215   4.187  0.3788 -0.0318 -0.0915
 6901SOL     OW27335   4.103   4.029   4.184 -0.2372 -0.4387  0.6603
 6901SOL    HW227336   4.103   4.064   4.095 -1.5191  2.2548  1.6133
 6901SOL    HW327337   4.143   3.942   4.175 -0.5210 -0.3810 -2.5432
 6901SOL    MW427338   4.108   4.022   4.171  0.2960  0.3661  0.2787
 6902SOL     OW27339   5.283   0.258   6.079 -0.4829 -0.6659 -0.0542
 6902SOL    HW227340   5.216   0.189   6.082 -1.8324  0.6038  0.2897
 6902SOL    HW327341   5.246   0.325   6.022  0.8581 -0.2684 -0.4825
 6902SOL    MW427342   5.269   0.258   6.072 -0.6225  0.3500  0.9521
 6903SOL     OW27343   3.191   4.448   3.042  0.6745 -0.4759  0.3165
 6903SOL    HW227344   3.169   4.479   2.954 -0.3120  0.6820  0.9287
 6903SOL    HW327345   3.217   4.357   3.030 -1.1032 -0.8824 -0.9846
 6903SOL    MW427346   3.191   4.440   3.029  0.0110 -0.3901 -0.3442
 6904SOL     OW27347   2.121   3.897   6.028  0.1002  0.2133  0.7940
 6904SOL    HW227348   2.084   3.886   6.116  1.3556  1.5903  1.5516
 6904SOL    HW327349   2.142   3.991   6.022  0.2479  0.1105 -0.8954
 6904SOL    MW427350   2.119   3.908   6.039 -0.2857  0.5311  0.2091
 6905SOL     OW27351   1.609   4.437   1.957 -0.6745  0.0821  0.8376
 6905SOL    HW227352   1.648   4.443   2.045  1.1101 -1.3120  0.1950
 6905SOL    HW327353   1.646   4.357   1.920 -0.5244  1.2144 -1.5992
 6905SOL    MW427354   1.619   4.427   1.964 -0.4271  0.0973  0.1900
 6906SOL     OW27355   0.427   2.852   0.862 -0.1553  0.4964 -1.0189
 6906SOL    HW227356   0.501   2.911   0.848 -2.5995  3.8923 -0.9928
 6906SOL    HW327357   0.388   2.881   0.944 -1.9620 -0.6767 -1.4031
 6906SOL    MW427358   0.432   2.863   0.871 -0.5075 -0.5727 -0.0093
 6907SOL     OW27359   4.992   2.721   3.628 -0.1075  0.0704  0.0000
 6907SOL    HW227360   5.006   2.683   3.542  0.8808 -0.9783  0.6007
 6907SOL    HW327361   5.057   2.790   3.635 -0.2207  0.1889 -0.1104
 6907SOL    MW427362   5.002   2.725   3.618 -0.0217 -0.0146  0.6157
 6908SOL     OW27363   6.293   1.654   5.086 -0.5766  0.9588  0.0555
 6908SOL    HW227364   6.349   1.578   5.074 -2.1639 -0.1037 -0.9138
 6908SOL    HW327365   6.331   1.700   5.161  1.0727 -0.1498 -0.0501
 6908SOL    MW427366   6.306   1.650   5.094  0.1394  0.0814 -0.3432
 6909SOL     OW27367   0.649   3.862   3.997 -0.4499  0.5162 -0.0098
 6909SOL    HW227368   0.701   3.808   4.056 -0.5681  1.8328  1.3358
 6909SOL    HW327369   0.696   3.946   3.993 -1.7829  1.2954  0.2322
 6909SOL    MW427370   0.662   3.866   4.004 -0.4790  0.1931 -0.3126
 6910SOL     OW27371   5.388   1.395   1.061 -0.0510  0.4035 -0.1697
 6910SOL    HW227372   5.464   1.452   1.074  0.2104  0.0192  0.0075
 6910SOL    HW327373   5.320   1.434   1.115 -0.1078  0.9787 -0.6360
 6910SOL    MW427374   5.389   1.408   1.070  0.7809  0.1426  0.0068
 6911SOL     OW27375   4.647   3.934   4.761 -0.1549  0.1665 -0.2439
 6911SOL    HW227376   4.641   3.897   4.849 -1.4510 -0.1473 -0.4307
 6911SOL    HW327377   4.564   3.909   4.720  0.5638  0.0210 -1.6612
 6911SOL    MW427378   4.635   3.925   4.767 -1.1062  0.6652 -0.1596
 6912SOL     OW27379   1.744   1.382   5.123  0.1965  0.0912 -0.2274
 6912SOL    HW227380   1.699   1.394   5.040 -1.8238 -2.8240  0.3188
 6912SOL    HW327381   1.675   1.384   5.189  1.7687  2.6503  1.5373
 6912SOL    MW427382   1.729   1.384   5.121  0.2037  0.4222  0.1541
 6913SOL     OW27383   4.641   6.152   1.078  0.0479  0.8136 -0.9891
 6913SOL    HW227384   4.657   6.060   1.096  2.6000  1.3113 -0.3491
 6913SOL    HW327385   4.606   6.187   1.160  2.0573  0.9970 -0.1497
 6913SOL    MW427386   4.638   6.145   1.091 -0.4248  0.0493 -0.3717
 6914SOL     OW27387   1.038   4.150   1.559  0.0545  0.1308  0.2420
 6914SOL    HW227388   1.127   4.156   1.525  0.2342 -0.8838  0.5143
 6914SOL    HW327389   0.985   4.129   1.482  0.2435 -0.5978  0.3041
 6914SOL    MW427390   1.043   4.148   1.544 -0.3290  0.5238 -0.3140
 6915SOL     OW27391   4.332   5.082   0.190  0.0327  0.0539  0.2124
 6915SOL    HW227392   4.242   5.078   0.223 -0.7300  1.4425 -1.5778
 6915SOL    HW327393   4.325   5.122   0.104  2.2426 -1.0839 -0.5725
 6915SOL    MW427394   4.319   5.087   0.183 -0.1687  0.0611  0.1304
 6916SOL     OW27395   2.255   0.008   6.380  0.3423 -0.0556  0.2052
 6916SOL    HW227396   2.310   0.037   6.453  0.7551  0.0072 -0.1276
 6916SOL    HW327397   2.234   0.088   6.333 -1.2126  0.1132  1.1217
 6916SOL    MW427398   2.259   0.022   6.384  0.0674 -0.6882 -0.7892
 6917SOL     OW27399   1.117   0.151  -0.008  0.1375  0.3953  0.0961
 6917SOL    HW227400   1.030   0.187   0.011  0.9506  3.4055 -1.2026
 6917SOL    HW327401   1.177   0.206   0.043  1.4672  0.7621 -1.7514
 6917SOL    MW427402   1.114   0.163   0.001  0.1212  0.2043 -0.5482
 6918SOL     OW27403   1.085   3.572   3.888  0.2118 -0.0792  0.3334
 6918SOL    HW227404   1.077   3.653   3.838  0.8291  0.3102  0.8436
 6918SOL    HW327405   1.011   3.519   3.859  1.3414 -0.4623 -2.0491
 6918SOL    MW427406   1.074   3.576   3.878  0.4471  0.1916  0.1168
 6919SOL     OW27407   1.705   3.843   4.091 -0.2904 -0.5196  0.0349
 6919SOL    HW227408   1.685   3.936   4.079 -0.5850 -0.5557  0.2381
 6919SOL    HW327409   1.793   3.842   4.129 -0.0519 -0.3442 -0.4949
 6919SOL    MW427410   1.714   3.855   4.094 -0.4985  0.5605  0.0528
 6920SOL     OW27411   1.314   3.766   4.059  0.1309  0.5792 -0.3261
 6920SOL    HW227412   1.387   3.730   4.109  1.7168  0.6206 -2.4809
 6920SOL    HW327413   1.237   3.721   4.094  1.0534  0.9073  2.3800
 6920SOL    MW427414   1.314   3.755   4.070  0.6942 -0.1616  0.2480
 6921SOL     OW27415   4.558   5.571   0.999  0.0340  0.2003  0.3518
 6921SOL    HW227416   4.470   5.540   0.978  0.0997  0.8838 -0.9664
 6921SOL    HW327417   4.603   5.492   1.031 -0.6213 -0.4709 -0.3273
 6921SOL    MW427418   4.552   5.556   1.001  0.2999 -0.1350 -0.0463
 6922SOL     OW27419   3.446   6.014   1.446  0.0184  0.0643  0.5095
 6922SOL    HW227420   3.385   5.947   1.475  1.1662 -1.6444 -0.8664
 6922SOL    HW327421   3.491   6.042   1.526  0.3363 -1.6414  0.9482
 6922SOL    MW427422   3.444   6.009   1.460 -0.1396  0.3943  0.6218
 6923SOL     OW27423   3.592   0.318   1.398  0.7931  0.8812  0.3275
 6923SOL    HW227424   3.518   0.284   1.348  1.0535 -1.1455  1.2166
 6923SOL    HW327425   3.650   0.356   1.331 -0.3772  1.2136 -0.5252
 6923SOL    MW427426   3.590   0.318   1.382 -0.1121 -0.0469 -0.0003
 6924SOL     OW27427   5.634   3.487   3.548 -0.8847 -0.4388  0.1101
 6924SOL    HW227428   5.675   3.441   3.621 -0.5940 -2.3131 -1.1588
 6924SOL    HW327429   5.540   3.479   3.565 -0.8114 -0.4285  0.5293
 6924SOL    MW427430   5.627   3.479   3.560  0.3460 -0.0870 -0.0251
 6925SOL     OW27431   4.337   5.381   5.685 -0.1833  0.4230  0.5491
 6925SOL    HW227432   4.432   5.375   5.692 -0.3652 -2.7314  1.5586
 6925SOL    HW327433   4.315   5.465   5.727  2.0045  0.4650  1.7263
 6925SOL    MW427434   4.347   5.392   5.692 -0.2737 -0.6295 -0.0958
 6926SOL     OW27435   5.256   5.265   6.275 -0.4136  0.0444 -0.0816
 6926SOL    HW227436   5.224   5.289   6.188 -0.2442 -0.0068 -0.1599
 6926SOL    HW327437   5.285   5.348   6.314 -1.2908  0.1951  0.2671
 6926SOL    MW427438   5.256   5.279   6.269  0.0986 -0.1791 -0.2587
 6927SOL     OW27439   2.360   6.429   0.837  0.5846  0.1624 -0.1582
 6927SOL    HW227440   2.368   6.512   0.790  0.9045  1.1470  1.5524
 6927SOL    HW327441   2.432   6.429   0.899  0.5867 -1.4262 -0.1139
 6927SOL    MW427442   2.370   6.440   0.839 -0.0182 -0.1290 -0.6350
 6928SOL     OW27443   3.035   2.128   2.928  0.2631  0.3631 -0.4165
 6928SOL    HW227444   2.958   2.088   2.888  1.2473 -1.9026 -0.1982
 6928SOL    HW327445   3.001   2.174   3.004 -0.7992 -1.5175  0.3126
 6928SOL    MW427446   3.020   2.129   2.933 -0.7300  0.6569 -0.3346
 6929SOL     OW27447   5.519   5.772   5.636 -0.0443 -0.0960 -0.0698
 6929SOL    HW227448   5.524   5.740   5.546 -0.7350 -1.7536  0.4470
 6929SOL    HW327449   5.480   5.859   5.629  0.9565  0.2708 -1.4517
 6929SOL    MW427450   5.515   5.780   5.623  0.4330 -0.4548 -0.4165
 6930SOL     OW27451   2.679   3.062   3.827  0.3026 -0.1552  0.0740
 6930SOL    HW227452   2.676   3.005   3.904  1.2880  0.4993  0.6194
 6930SOL    HW327453   2.648   3.147   3.859  0.2654 -0.0021 -0.3659
 6930SOL    MW427454   2.675   3.066   3.842 -0.7172  0.5151  0.2941
 6931SOL     OW27455   5.007   4.100   0.445 -0.5680 -0.5891  0.2962
 6931SOL    HW227456   5.018   4.117   0.351 -0.2866  0.1150  0.4480
 6931SOL    HW327457   4.924   4.142   0.467 -0.2438 -0.0597  0.5214
 6931SOL    MW427458   4.997   4.108   0.435  0.2171 -0.0290 -0.6026
 6932SOL     OW27459   4.483   1.044   4.557 -0.3089  0.4090 -0.1486
 6932SOL    HW227460   4.469   0.971   4.497  0.8511 -0.1652  0.2426
 6932SOL    HW327461   4.479   1.004   4.644  2.3092  0.3542  0.0467
 6932SOL    MW427462   4.481   1.029   4.561  0.6688 -0.1254  0.0947
 6933SOL     OW27463   3.917   1.309   0.476 -0.3625 -0.3587 -0.0680
 6933SOL    HW227464   3.913   1.323   0.571  0.4422 -1.2159  0.1119
 6933SOL    HW327465   3.917   1.397   0.439 -0.4293 -0.0076  0.7458
 6933SOL    MW427466   3.917   1.322   0.484 -0.0647  0.7063  0.1568
 6934SOL     OW27467   0.312   1.438   4.145  0.0042 -0.3718 -0.5398
 6934SOL    HW227468   0.244   1.403   4.088 -0.2127  0.3892 -0.7633
 6934SOL    HW327469   0.383   1.374   4.140 -0.6429 -1.1037 -0.4001
 6934SOL    MW427470   0.313   1.425   4.137 -0.6040 -0.0283 -0.2270
 6935SOL     OW27471   2.330   2.673   1.269 -0.1499 -0.2653  0.6398
 6935SOL    HW227472   2.364   2.667   1.358  1.8478 -0.7292 -0.1048
 6935SOL    HW327473   2.407   2.685   1.214 -1.3185 -0.1337 -1.0646
 6935SOL    MW427474   2.344   2.674   1.274  0.0398 -0.1217  0.2206
 6936SOL     OW27475   2.576   4.482   3.784 -0.5515 -0.5609  0.1004
 6936SOL    HW227476   2.564   4.426   3.707 -1.0432  1.4539 -1.3678
 6936SOL    HW327477   2.636   4.433   3.840  1.8446 -1.1088 -2.6625
 6936SOL    MW427478   2.582   4.468   3.781  0.2747  0.0880  0.0391
 6937SOL     OW27479   3.602   3.995   1.961  0.4901  0.2335  0.1556
 6937SOL    HW227480   3.637   4.065   2.016  0.2611  0.0636  0.5196
 6937SOL    HW327481   3.591   4.036   1.875  3.0074 -0.0974 -0.3985
 6937SOL    MW427482   3.605   4.010   1.957  0.5882 -0.4022 -0.2283
 6938SOL     OW27483   2.932   6.356   4.274  0.5881 -0.1184  0.1312
 6938SOL    HW227484   2.876   6.416   4.323  1.3582  1.1350 -0.4821
 6938SOL    HW327485   2.876   6.281   4.256 -0.2754  0.2155  1.2812
 6938SOL    MW427486   2.917   6.354   4.278 -0.1315 -0.3519 -0.2125
 6939SOL     OW27487   5.395   1.061   2.338 -0.1244  0.2829  0.1951
 6939SOL    HW227488   5.404   1.137   2.395 -2.0551  0.3130  0.5556
 6939SOL    HW327489   5.369   0.990   2.397  2.3530 -0.8999 -0.0209
 6939SOL    MW427490   5.392   1.062   2.353  0.1745 -0.2698  0.0930
 6940SOL     OW27491   0.022   1.896   5.634 -0.0668  0.5286  0.2445
 6940SOL    HW227492  -0.037   1.875   5.563  0.0221 -3.2044  1.0896
 6940SOL    HW327493   0.000   1.987   5.657 -3.3789  0.2928 -1.3723
 6940SOL    MW427494   0.011   1.905   5.628  0.0501 -0.3480 -0.6087
 6941SOL     OW27495   5.083   3.479   3.143 -0.1851 -0.3531 -0.4050
 6941SOL    HW227496   5.072   3.528   3.225  0.0049  0.4264 -0.8283
 6941SOL    HW327497   5.166   3.433   3.153  1.0771  1.6584 -1.0761
 6941SOL    MW427498   5.092   3.480   3.155 -0.4852 -0.1827  0.1861
 6942SOL     OW27499   4.494   6.304   4.368 -0.6464  0.2109 -0.1822
 6942SOL    HW227500   4.425   6.266   4.422 -0.0962 -1.4139 -0.5865
 6942SOL    HW327501   4.453   6.319   4.283 -0.7260  0.0052 -0.1800
 6942SOL    MW427502   4.480   6.301   4.364  0.1998 -0.3228  0.5947
 6943SOL     OW27503   0.154   2.531   2.448  0.4492  0.2906 -0.0696
 6943SOL    HW227504   0.218   2.462   2.467  2.4705  1.8111 -0.9254
 6943SOL    HW327505   0.108   2.545   2.531  0.9771 -1.0844  0.4851
 6943SOL    MW427506   0.156   2.524   2.461 -0.0345  0.6179 -0.1528
 6944SOL     OW27507   1.281   5.301   2.479 -0.1407  0.1384 -0.0315
 6944SOL    HW227508   1.192   5.332   2.495  0.0796  0.9454 -0.3627
 6944SOL    HW327509   1.335   5.379   2.483  0.5710 -0.3536  0.2239
 6944SOL    MW427510   1.276   5.315   2.482  0.2282 -0.4293 -0.3948
 6945SOL     OW27511   3.384   4.325   0.856 -0.5109 -0.2261  0.4769
 6945SOL    HW227512   3.340   4.371   0.928 -2.1551  0.2371 -0.7687
 6945SOL    HW327513   3.426   4.250   0.898 -1.9536 -0.3170  1.8587
 6945SOL    MW427514   3.383   4.321   0.871  0.6624  0.0308  0.2190
 6946SOL     OW27515   1.758   2.575   5.197  0.2500  0.3224 -0.8562
 6946SOL    HW227516   1.806   2.657   5.206  0.2372  0.1743  0.9599
 6946SOL    HW327517   1.803   2.514   5.256 -1.2976 -0.2128 -0.1696
 6946SOL    MW427518   1.770   2.577   5.206  0.0690  0.3059  0.4795
 6947SOL     OW27519   3.443   0.547   0.488 -0.1054 -0.1266  0.4462
 6947SOL    HW227520   3.439   0.547   0.392 -1.5687 -0.7152  0.4843
 6947SOL    HW327521   3.483   0.463   0.510  0.6547  0.1998  0.3624
 6947SOL    MW427522   3.448   0.536   0.478  0.1028 -0.0924  0.1512
 6948SOL     OW27523   5.530   0.479   0.295 -0.1648 -0.3876  0.3080
 6948SOL    HW227524   5.556   0.421   0.366  0.4468  0.3896  0.7341
 6948SOL    HW327525   5.435   0.482   0.299 -0.2584 -1.8842 -0.1516
 6948SOL    MW427526   5.521   0.471   0.305  0.1780  0.4734 -0.2949
 6949SOL     OW27527   3.374   4.200   4.782  0.0604 -0.0288  0.2567
 6949SOL    HW227528   3.364   4.291   4.755 -0.3301 -0.2563 -0.3791
 6949SOL    HW327529   3.455   4.199   4.834  0.0499  0.6805  0.2912
 6949SOL    MW427530   3.383   4.212   4.786 -0.0245  0.0402  0.2327
 6950SOL     OW27531   2.300   4.801   1.012 -0.8816 -0.7577 -1.0074
 6950SOL    HW227532   2.303   4.840   1.099 -0.1233 -1.4525 -0.7070
 6950SOL    HW327533   2.305   4.875   0.952  5.7849 -0.3102 -0.6201
 6950SOL    MW427534   2.301   4.816   1.016  0.3934 -0.4589 -0.1868
 6951SOL     OW27535   5.687   4.158   4.575  0.3318 -0.1256  0.2651
 6951SOL    HW227536   5.603   4.148   4.531  0.2742 -0.1151  0.3702
 6951SOL    HW327537   5.726   4.236   4.536 -0.1997  0.5244  0.9844
 6951SOL    MW427538   5.681   4.167   4.564  0.0309  0.4160  0.3667
 6952SOL     OW27539   1.375   6.142   3.966 -0.5588 -0.0323 -0.1647
 6952SOL    HW227540   1.440   6.072   3.977 -0.9938 -0.0614  3.2206
 6952SOL    HW327541   1.304   6.100   3.918  0.5048 -0.9523 -1.0151
 6952SOL    MW427542   1.375   6.127   3.961  0.3281 -0.5013 -0.0740
 6953SOL     OW27543   6.059   6.276   4.808  0.4590  0.0904 -0.2848
 6953SOL    HW227544   6.124   6.207   4.797 -0.5341 -0.5139 -3.6095
 6953SOL    HW327545   6.109   6.357   4.808  1.5652 -0.4811  2.7640
 6953SOL    MW427546   6.074   6.278   4.806 -0.8015  0.5221  0.7843
 6954SOL     OW27547   3.842   0.424   2.476 -0.0669 -0.4433  0.0281
 6954SOL    HW227548   3.881   0.416   2.389 -0.0211 -1.0806  0.1006
 6954SOL    HW327549   3.762   0.371   2.471  0.1136 -0.7647  0.4719
 6954SOL    MW427550   3.837   0.416   2.464  0.0964  0.1246 -0.0717
 6955SOL     OW27551   3.175   1.797   0.967 -0.2087 -0.1149  0.1822
 6955SOL    HW227552   3.197   1.890   0.962 -0.0003 -0.0749  1.4976
 6955SOL    HW327553   3.101   1.793   1.028  0.2286 -0.8664  0.6803
 6955SOL    MW427554   3.168   1.809   0.974  0.0839  0.0775 -0.2200
 6956SOL     OW27555   4.870   3.662   2.156  0.4242 -0.2095  0.0227
 6956SOL    HW227556   4.805   3.724   2.189  0.8059  0.9822 -1.3522
 6956SOL    HW327557   4.834   3.576   2.178 -0.2873  0.4635  1.6753
 6956SOL    MW427558   4.857   3.659   2.163  0.3142  0.2593  0.3180
 6957SOL     OW27559   1.254   4.114   5.708  0.1310 -0.2422 -0.2052
 6957SOL    HW227560   1.201   4.090   5.632  1.6516  0.1706 -1.4543
 6957SOL    HW327561   1.215   4.196   5.739 -0.4117 -0.3342 -0.6242
 6957SOL    MW427562   1.242   4.122   5.702 -0.4862  0.0058  0.7219
 6958SOL     OW27563   3.186   0.103   2.096 -0.2220  0.1837  0.2016
 6958SOL    HW227564   3.163   0.084   2.005  1.1347  1.6599 -0.5019
 6958SOL    HW327565   3.172   0.198   2.105  1.0709  0.3265  1.0795
 6958SOL    MW427566   3.181   0.113   2.085 -0.2155  0.2710  0.1098
 6959SOL     OW27567   1.649   1.190   0.938 -0.2823  0.7079 -0.1555
 6959SOL    HW227568   1.711   1.255   0.904 -0.8051  1.3723  0.1483
 6959SOL    HW327569   1.564   1.217   0.903 -0.3325 -0.5583 -1.0875
 6959SOL    MW427570   1.646   1.202   0.929  0.0857 -0.5766  0.1825
 6960SOL     OW27571   4.359   5.932   1.188 -0.5944  0.9042 -0.6008
 6960SOL    HW227572   4.440   5.892   1.156  0.2713  2.8001 -0.8777
 6960SOL    HW327573   4.295   5.915   1.119 -0.9920 -2.1191  0.3688
 6960SOL    MW427574   4.361   5.924   1.175 -0.0591 -0.6894 -0.7015
 6961SOL     OW27575   4.296   4.128   4.499  0.8372 -0.0938  0.1511
 6961SOL    HW227576   4.365   4.190   4.474  0.2027  0.5302 -0.0863
 6961SOL    HW327577   4.214   4.176   4.484  0.3213 -1.0665 -0.2511
 6961SOL    MW427578   4.294   4.143   4.494  0.3694  0.1151  0.5579
 6962SOL     OW27579   5.635   4.127   1.776 -0.4449 -0.0675  0.8260
 6962SOL    HW227580   5.635   4.176   1.693 -0.9159 -1.7404 -0.2004
 6962SOL    HW327581   5.727   4.112   1.795 -0.3418  0.1554  0.5171
 6962SOL    MW427582   5.647   4.132   1.767 -0.1656 -0.3274 -0.3631
 6963SOL     OW27583   5.850   1.183   2.179 -0.5914  0.4025 -0.0121
 6963SOL    HW227584   5.812   1.099   2.151  1.5432 -0.5227 -0.3667
 6963SOL    HW327585   5.821   1.193   2.269  1.0542 -2.0337  0.9041
 6963SOL    MW427586   5.841   1.173   2.187  0.0552 -0.2593  0.0691
 6964SOL     OW27587   2.631   4.949   3.870 -0.5008  0.5096 -0.0351
 6964SOL    HW227588   2.619   4.910   3.956 -0.6890  2.7911  1.0439
 6964SOL    HW327589   2.553   4.922   3.820 -0.4163 -0.7835  0.5023
 6964SOL    MW427590   2.619   4.941   3.875  0.0589  0.2655 -0.1680
 6965SOL     OW27591   3.223   6.150   2.348  0.3625  0.0771 -0.1963
 6965SOL    HW227592   3.285   6.220   2.369 -0.2777  0.8184 -0.7045
 6965SOL    HW327593   3.263   6.104   2.274  0.9638 -0.3534  0.3787
 6965SOL    MW427594   3.236   6.153   2.341  0.5064 -0.0137  0.1972
 6966SOL     OW27595   1.105   5.419   0.085  0.1688  0.0158  0.0044
 6966SOL    HW227596   1.065   5.469   0.013  1.8124  0.7804 -0.4276
 6966SOL    HW327597   1.055   5.444   0.162  0.4786  1.8163 -0.3290
 6966SOL    MW427598   1.093   5.429   0.086 -0.3414 -0.0909  0.1129
 6967SOL     OW27599   5.963   5.785   2.013 -0.2792 -0.3571  0.5081
 6967SOL    HW227600   6.058   5.773   2.005 -0.0784  0.1245  1.8176
 6967SOL    HW327601   5.947   5.870   1.973 -0.4220 -1.1196 -1.1352
 6967SOL    MW427602   5.974   5.795   2.007 -0.2064  0.5212 -0.0128
 6968SOL     OW27603   5.628   4.431   1.877 -0.2534  0.5940 -0.2985
 6968SOL    HW227604   5.722   4.429   1.860 -0.2315 -1.4866 -0.1907
 6968SOL    HW327605   5.606   4.341   1.902 -1.6529  1.7138  3.1352
 6968SOL    MW427606   5.637   4.419   1.878  0.2942  0.0547 -0.5768
 6969SOL     OW27607   5.678   1.463   6.106 -1.0914  0.3384  0.3225
 6969SOL    HW227608   5.633   1.504   6.181 -2.6502 -0.2578 -0.2360
 6969SOL    HW327609   5.608   1.448   6.042  0.3712  1.8403 -1.7464
 6969SOL    MW427610   5.663   1.466   6.108  0.2598  0.7256  0.1421
 6970SOL     OW27611   3.875   2.888   1.212  0.6445 -0.0572  0.2633
 6970SOL    HW227612   3.811   2.816   1.213 -0.0409  0.5313  1.6290
 6970SOL    HW327613   3.951   2.852   1.260  1.5858 -0.9095 -1.7335
 6970SOL    MW427614   3.877   2.874   1.218  0.2434  0.8160  0.5277
 6971SOL     OW27615   2.750   2.214   2.107  0.9141 -0.0065  0.1242
 6971SOL    HW227616   2.796   2.292   2.141 -0.8902  0.7339  0.9928
 6971SOL    HW327617   2.657   2.235   2.117  0.3402 -1.2200 -2.0996
 6971SOL    MW427618   2.744   2.227   2.113 -0.0969  0.0911  0.8055
 6972SOL     OW27619   2.038   5.750   5.942  0.2665 -0.3720  0.3081
 6972SOL    HW227620   1.955   5.743   5.988  1.0237  1.3721  2.0734
 6972SOL    HW327621   2.045   5.843   5.918  0.2868 -1.0513 -2.7172
 6972SOL    MW427622   2.028   5.761   5.945 -0.1132 -0.5361 -0.0610
 6973SOL     OW27623   4.638   5.555   5.998  0.4885  0.5434 -0.1831
 6973SOL    HW227624   4.545   5.545   6.017  0.2099 -1.0115 -2.0715
 6973SOL    HW327625   4.661   5.640   6.036 -1.5179  0.6784  0.8809
 6973SOL    MW427626   4.629   5.565   6.006  0.1754 -0.2095  0.7019
 6974SOL     OW27627   4.987   4.810   5.028  0.2916 -0.1917 -0.6843
 6974SOL    HW227628   5.049   4.782   4.961 -0.8708 -1.1000 -1.4138
 6974SOL    HW327629   4.928   4.870   4.983 -0.1851 -0.4006 -0.3461
 6974SOL    MW427630   4.988   4.814   5.013 -0.1491  0.0899  0.0022
 6975SOL     OW27631   2.861   2.924   5.868 -0.3257  0.3933 -0.3091
 6975SOL    HW227632   2.826   2.836   5.875 -1.8644  1.0692  1.5616
 6975SOL    HW327633   2.955   2.914   5.883 -0.0473 -1.1454 -2.5906
 6975SOL    MW427634   2.869   2.911   5.871  0.0829 -0.3053 -0.5018
 6976SOL     OW27635   1.534   5.768   1.731 -0.1168  0.3414 -0.1678
 6976SOL    HW227636   1.555   5.709   1.804 -1.7044 -0.1061 -0.0298
 6976SOL    HW327637   1.540   5.856   1.768 -0.1694  0.1471  0.3095
 6976SOL    MW427638   1.537   5.772   1.745  0.5878  0.0626 -0.0930
 6977SOL     OW27639   1.614   1.949   3.443 -0.4016  0.8668  0.1996
 6977SOL    HW227640   1.653   1.967   3.357  0.2110  1.5798  0.6161
 6977SOL    HW327641   1.644   1.861   3.465 -0.6354  0.6443 -0.3561
 6977SOL    MW427642   1.623   1.940   3.434 -0.1750  0.5926  0.1963
 6978SOL     OW27643   0.144   3.402   0.676 -0.3563  0.6346  0.3196
 6978SOL    HW227644   0.221   3.349   0.698 -0.5011  0.6982  0.9981
 6978SOL    HW327645   0.180   3.487   0.651 -0.2130  0.7384  0.8623
 6978SOL    MW427646   0.159   3.406   0.676  0.2949 -0.0803  0.5992
 6979SOL     OW27647   1.696   1.689   2.648 -0.2897 -0.1845  0.2897
 6979SOL    HW227648   1.669   1.773   2.611 -0.8446 -0.5303 -0.0907
 6979SOL    HW327649   1.772   1.663   2.596  1.1082  1.0024  1.6452
 6979SOL    MW427650   1.703   1.697   2.636 -0.1287  0.1362  0.0935
 6980SOL     OW27651   5.054   5.831   3.077 -0.0636 -0.0855 -0.4535
 6980SOL    HW227652   5.122   5.799   3.136  1.2586 -0.1659 -1.9464
 6980SOL    HW327653   5.018   5.752   3.037  0.0317  0.0337 -0.7808
 6980SOL    MW427654   5.058   5.817   3.080  0.2522  0.0942 -0.2181
 6981SOL     OW27655   2.785   5.348   2.710 -0.0242 -0.4816  0.1398
 6981SOL    HW227656   2.800   5.386   2.796 -1.7413  2.8738 -0.8469
 6981SOL    HW327657   2.856   5.383   2.656 -0.2938 -0.6015 -0.2973
 6981SOL    MW427658   2.797   5.358   2.714  0.0568 -0.1535 -0.3108
 6982SOL     OW27659   1.706   3.807   1.426  0.1234 -0.3091  0.1442
 6982SOL    HW227660   1.617   3.833   1.450  0.2000  0.5791 -0.4902
 6982SOL    HW327661   1.746   3.887   1.394  1.0882 -0.7546  0.2099
 6982SOL    MW427662   1.699   3.821   1.425 -0.0976 -1.0185  0.0319
 6983SOL     OW27663   0.588   0.024   5.635 -0.3236  0.5495  1.2855
 6983SOL    HW227664   0.670  -0.023   5.650  0.0807  1.1526  1.0361
 6983SOL    HW327665   0.611   0.116   5.648 -1.0245  0.7052  1.4711
 6983SOL    MW427666   0.602   0.030   5.639 -0.2312 -0.4450  0.0167
 6984SOL     OW27667   2.756   4.563   2.134  0.3424  0.1886 -0.4982
 6984SOL    HW227668   2.744   4.635   2.072 -0.7373  0.7623  0.3381
 6984SOL    HW327669   2.755   4.484   2.080  2.5538  0.8234 -1.5423
 6984SOL    MW427670   2.754   4.562   2.119  0.1834  0.4617  0.2487
 6985SOL     OW27671   5.673   6.434   5.402  0.5048  0.0286  0.7167
 6985SOL    HW227672   5.634   6.521   5.392  0.5660 -0.0612 -0.4059
 6985SOL    HW327673   5.598   6.375   5.411  0.2382 -0.2494 -2.2344
 6985SOL    MW427674   5.658   6.438   5.402 -0.2339  0.4340  0.2992
 6986SOL     OW27675   1.296   1.987   2.542 -0.7064 -0.4523  0.1402
 6986SOL    HW227676   1.299   1.891   2.548  0.1211 -0.3581  1.8220
 6986SOL    HW327677   1.366   2.017   2.600 -0.8361  1.1805 -0.4983
 6986SOL    MW427678   1.305   1.978   2.550 -0.3806  0.1743 -0.3946
 6987SOL     OW27679   6.130   5.515   3.255  0.3792  0.4524 -0.2258
 6987SOL    HW227680   6.068   5.497   3.326  1.4917 -2.2073  0.1856
 6987SOL    HW327681   6.096   5.466   3.180  1.8075 -0.8866 -0.0509
 6987SOL    MW427682   6.117   5.506   3.254  0.9880  0.8205 -0.1039
 6988SOL     OW27683   1.932   0.823   2.137 -0.1228  0.2749 -0.1734
 6988SOL    HW227684   1.942   0.740   2.185 -0.1735 -1.0105 -2.2742
 6988SOL    HW327685   2.019   0.862   2.138 -0.6808  1.8458  3.4670
 6988SOL    MW427686   1.945   0.817   2.144 -0.4699  0.2486 -0.5895
 6989SOL     OW27687   2.315   1.844   2.068  0.0180 -0.7395  0.1386
 6989SOL    HW227688   2.409   1.832   2.078  0.4071  1.2313 -0.7215
 6989SOL    HW327689   2.306   1.914   2.004 -2.0807 -2.5801 -1.7829
 6989SOL    MW427690   2.326   1.852   2.061 -0.2257 -0.3922 -0.2647
 6990SOL     OW27691   2.004   2.608   5.879  0.1585 -0.0526  0.2106
 6990SOL    HW227692   2.077   2.665   5.856 -0.1677 -0.1551 -1.1871
 6990SOL    HW327693   2.017   2.530   5.826 -1.5936  0.4279 -1.0303
 6990SOL    MW427694   2.015   2.605   5.869 -0.0760  0.8265 -0.7887
 6991SOL     OW27695   4.326   3.988   2.247  0.2302  0.1322  0.9013
 6991SOL    HW227696   4.231   3.986   2.232  0.4942 -4.7173 -2.2400
 6991SOL    HW327697   4.362   4.026   2.167  0.9995  0.5380  1.4310
 6991SOL    MW427698   4.318   3.993   2.235  0.0172 -0.6484  0.7693
 6992SOL     OW27699   1.483   1.326   1.522 -0.0161 -0.2332  0.0319
 6992SOL    HW227700   1.517   1.308   1.610 -1.2080  1.4742  0.9139
 6992SOL    HW327701   1.388   1.333   1.534 -0.3098 -0.8640 -1.5898
 6992SOL    MW427702   1.475   1.325   1.535  0.1907 -0.1696  0.1883
 6993SOL     OW27703   4.944   3.328   4.935  0.1843  0.0159  0.1634
 6993SOL    HW227704   4.886   3.253   4.935  0.4363 -0.1914  0.7690
 6993SOL    HW327705   5.017   3.303   4.879 -0.4831  0.4323 -0.9277
 6993SOL    MW427706   4.946   3.315   4.928 -0.5417  0.5646 -0.3391
 6994SOL     OW27707   6.381   3.916   4.532 -0.5008 -0.2329 -0.0222
 6994SOL    HW227708   6.393   3.836   4.584 -0.6446  0.1933  0.6755
 6994SOL    HW327709   6.287   3.919   4.514 -0.6059  0.1704  0.5893
 6994SOL    MW427710   6.370   3.906   4.536 -0.1413 -0.9054 -0.1021
 6995SOL     OW27711   3.313   5.842   5.550 -0.3585 -0.3270 -0.0636
 6995SOL    HW227712   3.241   5.793   5.511 -0.4524  0.1134 -0.4653
 6995SOL    HW327713   3.286   5.934   5.543 -0.1003 -0.2013  0.4882
 6995SOL    MW427714   3.300   5.848   5.544 -0.1941 -0.6593 -0.1207
 6996SOL     OW27715   1.493   5.210   4.788  0.0894 -0.3009  0.4048
 6996SOL    HW227716   1.516   5.166   4.705  0.8908  1.5930 -0.4305
 6996SOL    HW327717   1.469   5.299   4.762  1.8505  0.8202  2.3299
 6996SOL    MW427718   1.493   5.216   4.773 -0.6578  0.4261 -0.7743
 6997SOL     OW27719   3.121   3.544   0.937  0.6425 -0.0632  0.1844
 6997SOL    HW227720   3.072   3.473   0.896  0.0243 -1.1990  2.6806
 6997SOL    HW327721   3.142   3.604   0.865 -0.4250 -1.8318 -1.7025
 6997SOL    MW427722   3.117   3.542   0.922  0.1858  0.2146 -0.5500
 6998SOL     OW27723   1.031   4.229   3.538 -0.1446  0.3199  0.1265
 6998SOL    HW227724   1.113   4.193   3.505 -1.2939 -0.9092 -1.5957
 6998SOL    HW327725   1.056   4.282   3.613  1.9351 -2.2846  1.4420
 6998SOL    MW427726   1.045   4.231   3.543 -0.2692 -0.6376 -0.4433
 6999SOL     OW27727   3.538   5.192   4.241 -0.3332  0.0097 -0.1073
 6999SOL    HW227728   3.589   5.169   4.163 -0.4870 -0.5343 -0.0487
 6999SOL    HW327729   3.452   5.215   4.206  0.2325  2.0332 -0.3268
 6999SOL    MW427730   3.533   5.192   4.226 -0.2522 -0.2227 -0.6100
 7000SOL     OW27731   4.286   1.202   0.582  0.0192 -0.4174  0.6963
 7000SOL    HW227732   4.350   1.131   0.585  0.2885 -0.1754  0.7221
 7000SOL    HW327733   4.210   1.164   0.537  0.6058 -0.3579 -0.3744
 7000SOL    MW427734   4.285   1.188   0.577 -0.0042  0.1304  0.0762
 7001SOL     OW27735   1.152   3.806   0.793 -0.0338  0.5666  0.1164
 7001SOL    HW227736   1.155   3.746   0.719 -1.3889  0.8713 -0.1996
 7001SOL    HW327737   1.060   3.833   0.799  0.0431  0.5724  1.8769
 7001SOL    MW427738   1.140   3.802   0.784 -0.3964  0.0403  0.5485
 7002SOL     OW27739   3.016   0.102   4.914 -0.2910  0.0611  0.8487
 7002SOL    HW227740   3.098   0.148   4.933 -0.0670  0.3607 -0.7677
 7002SOL    HW327741   2.982   0.144   4.835 -0.3907 -2.1647 -0.3549
 7002SOL    MW427742   3.022   0.114   4.906 -0.0896 -0.5387 -0.4499
 7003SOL     OW27743   4.290   5.854   4.584  0.3236 -0.7078 -0.3445
 7003SOL    HW227744   4.222   5.819   4.642  0.0446  2.1048  1.2048
 7003SOL    HW327745   4.286   5.798   4.506 -1.4147 -2.7287  1.0652
 7003SOL    MW427746   4.280   5.842   4.582  0.3023  0.3300 -0.1930
 7004SOL     OW27747   5.512   3.178   1.419 -0.4820  0.5837 -0.6138
 7004SOL    HW227748   5.483   3.178   1.511 -0.4292  0.7778 -0.5959
 7004SOL    HW327749   5.565   3.257   1.411 -0.6530  0.6755 -0.8637
 7004SOL    MW427750   5.515   3.189   1.430  0.8551 -0.0011  0.1504
 7005SOL     OW27751   3.967   0.826   2.654  0.5721  0.3729  0.3648
 7005SOL    HW227752   3.992   0.734   2.661 -0.0756  0.1512 -0.0604
 7005SOL    HW327753   3.906   0.839   2.727 -1.0005 -0.1330 -0.8023
 7005SOL    MW427754   3.962   0.815   2.665 -0.3434 -0.2459  0.0565
 7006SOL     OW27755   1.320   5.047   2.585 -0.1255 -0.1879 -0.1705
 7006SOL    HW227756   1.289   5.116   2.527  0.2057 -0.4437 -0.6599
 7006SOL    HW327757   1.282   4.967   2.549 -0.7537 -0.2333  0.5666
 7006SOL    MW427758   1.311   5.045   2.573 -0.7272 -0.1396  0.3280
 7007SOL     OW27759   1.636   1.865   6.312 -0.6597  0.1487 -0.8494
 7007SOL    HW227760   1.667   1.779   6.285 -0.6554 -0.0619 -0.1901
 7007SOL    HW327761   1.706   1.899   6.367 -1.0120  0.2354 -0.4525
 7007SOL    MW427762   1.650   1.858   6.315 -0.6602  0.1375 -0.0422
 7008SOL     OW27763   0.217   2.512   4.388 -0.3383 -0.5996  0.4659
 7008SOL    HW227764   0.205   2.462   4.469 -0.3703 -1.1023  0.1597
 7008SOL    HW327765   0.311   2.505   4.370 -0.7551 -3.3503 -1.2950
 7008SOL    MW427766   0.228   2.504   4.396 -0.2142  0.0731 -0.2792
 7009SOL     OW27767   1.478   1.486   3.454  0.4183  0.5453 -0.2608
 7009SOL    HW227768   1.467   1.419   3.387  3.6212  0.1242 -0.5122
 7009SOL    HW327769   1.426   1.454   3.528 -1.0657 -0.3057 -1.6101
 7009SOL    MW427770   1.469   1.473   3.455 -0.5676 -0.0660 -0.3503
 7010SOL     OW27771   1.247   1.202   3.064 -0.6923  0.2785  0.0063
 7010SOL    HW227772   1.184   1.268   3.091 -0.9422  1.0309 -2.2541
 7010SOL    HW327773   1.194   1.125   3.041 -0.5251 -0.1407  0.9560
 7010SOL    MW427774   1.232   1.200   3.065  0.5002 -0.4835 -0.5798
 7011SOL     OW27775   2.069   4.643   1.316 -0.0796 -0.0014  0.4336
 7011SOL    HW227776   2.109   4.633   1.230  0.4802  1.6422  0.4587
 7011SOL    HW327777   2.102   4.570   1.367  0.9042 -0.0731 -0.2821
 7011SOL    MW427778   2.079   4.632   1.311 -0.6187  0.2211 -0.5784
 7012SOL     OW27779   1.562   4.758   0.684 -0.1240  0.0220 -0.4747
 7012SOL    HW227780   1.539   4.838   0.638  0.4607  0.3812 -0.1618
 7012SOL    HW327781   1.514   4.763   0.766 -2.0978 -1.1812 -1.4937
 7012SOL    MW427782   1.553   4.769   0.689  1.0095  0.4658 -0.0773
 7013SOL     OW27783   2.824   0.212   1.957 -0.2031 -0.5851 -0.3467
 7013SOL    HW227784   2.748   0.249   1.911 -0.2730 -0.1732  0.1025
 7013SOL    HW327785   2.845   0.133   1.907  0.1530  0.2156 -1.5228
 7013SOL    MW427786   2.816   0.207   1.944 -0.1378  0.1181  0.1845
 7014SOL     OW27787   4.050   1.365   5.904 -0.0289 -0.0837  0.0904
 7014SOL    HW227788   4.013   1.438   5.853  2.2353  1.3977  0.4255
 7014SOL    HW327789   4.144   1.372   5.890  0.2612 -3.1008  0.0313
 7014SOL    MW427790   4.057   1.376   5.895 -0.5650  0.0539  0.3623
 7015SOL     OW27791   6.010   1.730   5.002  0.1795 -0.2874 -0.2087
 7015SOL    HW227792   6.001   1.741   4.908 -1.2465 -2.1670 -0.3490
 7015SOL    HW327793   6.103   1.711   5.015  0.2464 -0.7978 -1.3348
 7015SOL    MW427794   6.021   1.729   4.992 -0.1041 -0.2879 -0.1776
 7016SOL     OW27795   4.984   1.007   4.633  0.9203 -0.4182 -0.3037
 7016SOL    HW227796   4.956   0.998   4.542  1.7878  2.6770 -0.9983
 7016SOL    HW327797   4.922   1.069   4.671  1.8736  0.0516  0.5327
 7016SOL    MW427798   4.972   1.014   4.626  0.6023  0.4949 -0.1751
 7017SOL     OW27799   1.543   2.043   2.706  0.2196 -0.3258 -0.0749
 7017SOL    HW227800   1.523   2.013   2.795 -0.5952  0.6244  0.0808
 7017SOL    HW327801   1.536   2.138   2.710  0.7850 -0.2275 -1.0193
 7017SOL    MW427802   1.539   2.051   2.718 -0.0424  0.0105  0.1269
 7018SOL     OW27803   3.486   4.947   2.225  0.2760 -0.3872 -0.3454
 7018SOL    HW227804   3.531   5.019   2.269 -0.4530  0.0553 -0.3087
 7018SOL    HW327805   3.538   4.870   2.247  0.2029 -0.1087  0.9215
 7018SOL    MW427806   3.499   4.946   2.234  0.6670  0.0498  0.1359
 7019SOL     OW27807   3.773   4.521   3.905 -0.3896 -0.3612 -0.5253
 7019SOL    HW227808   3.825   4.548   3.981 -2.0219  0.4798  0.3370
 7019SOL    HW327809   3.814   4.440   3.877  1.1035  0.0172  0.3943
 7019SOL    MW427810   3.786   4.514   3.912  0.0574  0.3125 -0.7481
 7020SOL     OW27811   2.750   5.887   1.314 -0.0567 -0.0364  0.4847
 7020SOL    HW227812   2.778   5.961   1.367  0.1483  0.1866  0.0716
 7020SOL    HW327813   2.696   5.927   1.245 -1.8691 -0.5000  1.5677
 7020SOL    MW427814   2.747   5.902   1.312 -0.1452  0.3273 -0.9726
 7021SOL     OW27815   6.240   1.714   1.560 -0.2101  0.5393  0.6903
 7021SOL    HW227816   6.298   1.675   1.625  0.2240 -0.3296 -0.1919
 7021SOL    HW327817   6.203   1.639   1.513 -2.3760  1.0295  1.4790
 7021SOL    MW427818   6.243   1.699   1.563  0.2587  0.0259 -0.2749
 7022SOL     OW27819   2.315   2.040   0.516 -0.1598 -0.3194 -0.6593
 7022SOL    HW227820   2.356   2.061   0.432 -1.5457  0.6217 -1.1356
 7022SOL    HW327821   2.230   2.085   0.513 -0.1000 -0.0118  1.3838
 7022SOL    MW427822   2.309   2.049   0.504  0.1238 -0.1329 -0.0174
 7023SOL     OW27823   1.599   2.588   0.739 -0.1120 -0.5264  0.2415
 7023SOL    HW227824   1.639   2.536   0.669  1.5970  1.5194 -0.4367
 7023SOL    HW327825   1.669   2.598   0.804  0.0120  1.6457 -0.1317
 7023SOL    MW427826   1.614   2.582   0.738 -0.1746  0.1121  0.0382
 7024SOL     OW27827   1.726   1.829   1.219  0.2791 -0.1069  0.0980
 7024SOL    HW227828   1.760   1.830   1.309  1.3832 -0.2026 -0.3084
 7024SOL    HW327829   1.635   1.860   1.228  1.3954  3.3936  0.8183
 7024SOL    MW427830   1.718   1.833   1.232  0.0374  0.2669  0.1301
 7025SOL     OW27831   2.945   2.459   5.534  0.6934  0.4885  0.0532
 7025SOL    HW227832   2.959   2.366   5.554 -1.7858  0.4004  1.7187
 7025SOL    HW327833   3.000   2.475   5.457 -0.4505 -2.9105 -1.6589
 7025SOL    MW427834   2.954   2.449   5.526 -0.7677  0.1209  0.6578
 7026SOL     OW27835   5.262   2.565   3.928  0.4031  0.1988  0.0966
 7026SOL    HW227836   5.338   2.516   3.958  0.2835 -0.7771 -1.0908
 7026SOL    HW327837   5.205   2.572   4.005  0.5125 -1.3938  0.3607
 7026SOL    MW427838   5.264   2.559   3.942  0.2691  0.1269  0.6081
 7027SOL     OW27839   4.424   2.888   2.466  0.1048  0.1898 -0.7562
 7027SOL    HW227840   4.481   2.864   2.539 -0.0376  1.7593 -0.0754
 7027SOL    HW327841   4.484   2.895   2.391  0.1741 -1.9118 -0.9434
 7027SOL    MW427842   4.439   2.886   2.466 -0.2520 -0.1414 -0.0025
 7028SOL     OW27843   6.312   6.325   4.003 -0.3096 -0.2271  0.0526
 7028SOL    HW227844   6.285   6.384   3.934  1.9406 -0.2355 -0.8989
 7028SOL    HW327845   6.325   6.381   4.080 -0.9770  0.0565 -0.0352
 7028SOL    MW427846   6.310   6.340   4.004  0.3008 -0.0210 -0.3778
 7029SOL     OW27847   3.742   1.970   3.929  0.2696 -0.4811 -0.0664
 7029SOL    HW227848   3.695   1.922   3.862  2.0359 -2.2018 -0.1741
 7029SOL    HW327849   3.813   2.014   3.882  0.5346 -0.3482  0.4487
 7029SOL    MW427850   3.745   1.969   3.914 -0.5283 -0.6862 -0.4010
 7030SOL     OW27851   4.726   0.701   1.545  0.5975 -0.2046  0.0689
 7030SOL    HW227852   4.686   0.778   1.503 -0.2616 -0.6117  0.1156
 7030SOL    HW327853   4.797   0.738   1.599  0.0122  0.5991  0.3216
 7030SOL    MW427854   4.730   0.716   1.547  0.1363  0.0292  0.5839
 7031SOL     OW27855   6.039   0.599   0.621 -0.0086 -0.3392  0.6759
 7031SOL    HW227856   5.999   0.595   0.708 -1.6183 -1.6118 -0.0678
 7031SOL    HW327857   5.968   0.574   0.561  1.0459  0.5574 -1.0181
 7031SOL    MW427858   6.024   0.595   0.624 -0.7058  0.3459  0.4024
 7032SOL     OW27859   4.726   3.073   4.172  0.2329 -0.2011  0.1998
 7032SOL    HW227860   4.670   2.999   4.197  0.8583 -0.8472 -0.2579
 7032SOL    HW327861   4.667   3.148   4.171 -0.3396 -0.6157  1.0523
 7032SOL    MW427862   4.711   3.073   4.175  0.4106  0.6055 -0.3930
 7033SOL     OW27863   2.218   3.368   2.820 -0.4026 -0.0600  0.3364
 7033SOL    HW227864   2.314   3.373   2.820 -0.3256 -0.0664 -2.2323
 7033SOL    HW327865   2.198   3.277   2.841  0.1332 -0.0238  1.0273
 7033SOL    MW427866   2.228   3.357   2.822 -0.1599 -0.1031 -0.1361
 7034SOL     OW27867   4.874   6.285   3.438  0.3260 -0.8554  0.4554
 7034SOL    HW227868   4.903   6.376   3.442  0.6851 -0.6997 -2.9368
 7034SOL    HW327869   4.943   6.236   3.484  0.9310  0.4147  0.9473
 7034SOL    MW427870   4.887   6.291   3.445 -0.3779 -0.0518 -0.4595
 7035SOL     OW27871   4.450   5.322   0.292  0.1709  0.1302 -0.1972
 7035SOL    HW227872   4.529   5.361   0.255 -0.3541  0.0040 -1.5076
 7035SOL    HW327873   4.437   5.242   0.240 -0.6552  0.0037  0.1939
 7035SOL    MW427874   4.459   5.316   0.280 -0.0306  0.2495 -0.3416
 7036SOL     OW27875   1.299   1.985   1.981  0.2704 -0.0865  0.0333
 7036SOL    HW227876   1.260   2.014   2.063  0.6039  0.4330  0.0071
 7036SOL    HW327877   1.226   1.986   1.919  0.4105  1.3317 -0.1285
 7036SOL    MW427878   1.284   1.989   1.984 -0.0800 -0.1668 -0.0351
 7037SOL     OW27879   4.935   3.649   1.396  0.2408 -0.6892  0.5972
 7037SOL    HW227880   4.951   3.604   1.479 -0.4444  1.2648  1.8606
 7037SOL    HW327881   4.839   3.658   1.392  0.3538  0.4680  0.2859
 7037SOL    MW427882   4.924   3.644   1.406 -0.1243 -0.3958  0.5242
 7038SOL     OW27883   5.788   3.010   2.017  0.1571 -0.9224  0.2392
 7038SOL    HW227884   5.753   2.921   2.009  1.4306 -1.3383 -1.4809
 7038SOL    HW327885   5.863   3.001   2.076  0.4753 -1.0919 -0.1757
 7038SOL    MW427886   5.794   2.997   2.024  0.6904 -0.7491 -0.2209
 7039SOL     OW27887   3.515   4.941   4.328  0.0048  0.5267 -0.3450
 7039SOL    HW227888   3.505   5.036   4.314 -2.1626  0.1891 -1.4709
 7039SOL    HW327889   3.494   4.929   4.421 -1.4493  0.9972 -0.5808
 7039SOL    MW427890   3.511   4.952   4.338 -0.4090 -0.2192  0.1172
 7040SOL     OW27891   4.263   1.173   4.624  0.7546 -0.1539  0.1228
 7040SOL    HW227892   4.291   1.209   4.708  1.4005  0.3895 -0.3092
 7040SOL    HW327893   4.345   1.151   4.579  0.4784  0.7308 -0.8593
 7040SOL    MW427894   4.278   1.175   4.629 -0.6439  0.0206  0.2145
 7041SOL     OW27895   1.333   2.063   6.201 -0.2847  0.1036 -0.4402
 7041SOL    HW227896   1.321   2.158   6.210  1.1809  0.2901 -0.0763
 7041SOL    HW327897   1.255   2.025   6.241 -1.2820  1.1518 -1.3248
 7041SOL    MW427898   1.321   2.071   6.208  0.4000 -0.5253 -0.0981
 7042SOL     OW27899   2.244   5.109   4.636 -0.0984  0.1811 -0.5133
 7042SOL    HW227900   2.230   5.203   4.631  0.3227  0.1748 -3.5674
 7042SOL    HW327901   2.337   5.097   4.616  0.1241 -0.8691  0.9297
 7042SOL    MW427902   2.254   5.120   4.633 -0.5315  0.6551  0.4045
 7043SOL     OW27903   4.402   4.814   0.167 -0.6055 -0.0000  0.2324
 7043SOL    HW227904   4.405   4.902   0.205  0.2400  0.2370 -0.3510
 7043SOL    HW327905   4.448   4.759   0.230 -0.1519  0.1904  0.0737
 7043SOL    MW427906   4.408   4.819   0.180  0.3458  0.0286  0.1761
 7044SOL     OW27907   5.242   4.594   3.982  0.4919  0.2668 -0.0333
 7044SOL    HW227908   5.307   4.598   4.052  0.6749 -0.1269 -0.1801
 7044SOL    HW327909   5.159   4.580   4.028  0.9741 -3.4041 -0.0126
 7044SOL    MW427910   5.239   4.593   3.997  0.0124  0.1540  0.1519
 7045SOL     OW27911   0.254   2.271   4.933 -0.1600 -0.0219  0.0580
 7045SOL    HW227912   0.196   2.195   4.943  0.8671 -0.8135  0.1443
 7045SOL    HW327913   0.228   2.330   5.004  0.4187 -1.2421  1.3449
 7045SOL    MW427914   0.243   2.269   4.944 -0.7174  0.3111 -0.4972
 7046SOL     OW27915   0.800   3.904   1.643  0.3662  0.1565 -0.1032
 7046SOL    HW227916   0.708   3.891   1.621  0.4799  0.4761 -0.7961
 7046SOL    HW327917   0.810   3.862   1.729 -0.7777  1.4219  0.6988
 7046SOL    MW427918   0.789   3.897   1.652 -0.4588  0.5502 -0.1136
 7047SOL     OW27919   4.410   1.842   2.728  0.3091  0.0999  0.1787
 7047SOL    HW227920   4.460   1.760   2.735 -0.1315 -0.0575  1.8112
 7047SOL    HW327921   4.415   1.865   2.635 -1.3089 -2.8877 -0.7709
 7047SOL    MW427922   4.418   1.834   2.717  0.7891 -0.0525 -0.3349
 7048SOL     OW27923   3.978   4.483   2.031  0.3856  0.0697  0.6125
 7048SOL    HW227924   4.025   4.538   1.969  0.5478 -0.3351  0.3719
 7048SOL    HW327925   3.895   4.529   2.046 -0.8261 -1.0577 -1.9364
 7048SOL    MW427926   3.973   4.496   2.025 -0.0380  0.2987  0.0594
 7049SOL     OW27927   1.295   5.908   6.262  0.2704  0.3147 -1.0419
 7049SOL    HW227928   1.384   5.923   6.228  0.4839 -0.5062 -0.8775
 7049SOL    HW327929   1.241   5.897   6.183  0.5653 -0.4968 -1.1451
 7049SOL    MW427930   1.300   5.909   6.247  0.1094 -0.3484 -0.2701
 7050SOL     OW27931   4.336   3.494   6.182  0.5876 -0.8930 -0.0305
 7050SOL    HW227932   4.258   3.457   6.223  0.2634 -0.3185 -0.1237
 7050SOL    HW327933   4.396   3.510   6.256  0.0251  0.0935  0.2310
 7050SOL    MW427934   4.334   3.491   6.198 -0.1758 -0.3483  0.4400
 7051SOL     OW27935   0.471   1.472   6.028  0.4391  0.0946 -0.0228
 7051SOL    HW227936   0.509   1.398   5.981  1.1926  0.2104  0.3829
 7051SOL    HW327937   0.517   1.549   5.994 -0.8519  0.4711 -0.9708
 7051SOL    MW427938   0.483   1.472   6.017 -0.1492 -0.0836 -0.4351
 7052SOL     OW27939   4.725   5.831   5.492 -0.2671 -0.1169  0.5956
 7052SOL    HW227940   4.653   5.878   5.533 -0.9470  0.5457 -1.2461
 7052SOL    HW327941   4.689   5.798   5.410  1.6445  0.7308 -0.6651
 7052SOL    MW427942   4.711   5.833   5.486  0.3042 -0.8760 -0.2603
 7053SOL     OW27943   4.382   5.954   3.127  0.1939 -0.7003 -0.1440
 7053SOL    HW227944   4.360   5.927   3.216  1.6310  1.2187  0.8758
 7053SOL    HW327945   4.477   5.950   3.123  0.1467 -0.8380 -1.6479
 7053SOL    MW427946   4.391   5.950   3.138  0.4696  0.5610  0.2439
 7054SOL     OW27947   3.648   0.644   0.738  0.8993  0.2886 -0.3059
 7054SOL    HW227948   3.581   0.694   0.691  1.4664  1.4117  0.0424
 7054SOL    HW327949   3.611   0.557   0.747 -0.6353  0.9508  0.1135
 7054SOL    MW427950   3.635   0.639   0.733  0.8391  0.3710 -0.3887
 7055SOL     OW27951   2.809   5.787   0.522  0.0389 -0.4611  0.1714
 7055SOL    HW227952   2.852   5.759   0.603  0.5872  2.4212  0.9897
 7055SOL    HW327953   2.872   5.846   0.480 -1.1554 -0.0747 -1.1913
 7055SOL    MW427954   2.823   5.791   0.527  0.1811 -0.1259 -0.5888
 7056SOL     OW27955   6.083   5.894   2.974  0.0864 -0.1789  0.4850
 7056SOL    HW227956   6.041   5.933   3.051 -2.4192  0.7072 -1.2116
 7056SOL    HW327957   6.024   5.825   2.946  1.7918 -1.6224  0.2480
 7056SOL    MW427958   6.070   5.890   2.981  0.4626  0.4121  0.0581
 7057SOL     OW27959   2.735   0.188   0.049  0.2945  0.6401  0.3129
 7057SOL    HW227960   2.816   0.149   0.016 -0.0232  0.3346 -0.1153
 7057SOL    HW327961   2.697   0.231  -0.027 -0.4996 -0.1614  0.2394
 7057SOL    MW427962   2.741   0.188   0.035 -0.4718  0.0575  0.2239
 7058SOL     OW27963   3.452   4.287   6.368  0.4389 -0.4942  0.2760
 7058SOL    HW227964   3.382   4.287   6.303 -1.2944  3.1710  1.8138
 7058SOL    HW327965   3.526   4.326   6.323 -0.0514 -0.0377 -0.1566
 7058SOL    MW427966   3.452   4.292   6.354 -0.3683 -0.1019  0.0326
 7059SOL     OW27967   0.871   3.224   5.541  0.2551 -0.4973 -0.2571
 7059SOL    HW227968   0.915   3.280   5.605  2.0300 -1.8939 -0.1765
 7059SOL    HW327969   0.844   3.147   5.591  0.1142 -0.8503 -0.8627
 7059SOL    MW427970   0.873   3.221   5.556  0.0668  0.0171  0.0241
 7060SOL     OW27971   4.471   6.203   3.755  0.3328 -0.2696  0.0858
 7060SOL    HW227972   4.462   6.138   3.824 -1.4109  0.3779  0.4987
 7060SOL    HW327973   4.386   6.247   3.751  1.0657  1.1367 -1.0366
 7060SOL    MW427974   4.459   6.200   3.764  0.5929 -0.3684  0.5019
 7061SOL     OW27975   0.601   3.848   4.833  0.2564  0.1010  0.1665
 7061SOL    HW227976   0.516   3.819   4.867 -0.3939  1.1633 -0.5231
 7061SOL    HW327977   0.580   3.919   4.773  1.5100 -0.7464 -1.3257
 7061SOL    MW427978   0.587   3.853   4.830  0.3451  0.2965 -0.0935
 7062SOL     OW27979   2.640   3.001   0.202 -0.7366  0.3532 -0.0114
 7062SOL    HW227980   2.575   3.044   0.258  0.9519  2.8939  0.1776
 7062SOL    HW327981   2.714   2.984   0.261 -0.8409 -1.6829 -0.4095
 7062SOL    MW427982   2.642   3.005   0.217  0.2497  0.1392  0.0709
 7063SOL     OW27983   1.740   5.592   4.937 -0.0169 -0.3609  0.1784
 7063SOL    HW227984   1.816   5.644   4.964  1.6372 -1.7693 -1.4743
 7063SOL    HW327985   1.777   5.509   4.909 -2.4194 -1.8212  1.0986
 7063SOL    MW427986   1.755   5.588   4.937  0.1499 -0.0646  0.4095
 7064SOL     OW27987   1.670   2.727   3.780  0.0821 -0.7686 -0.1240
 7064SOL    HW227988   1.678   2.639   3.745 -1.5341 -0.3968 -1.6294
 7064SOL    HW327989   1.748   2.773   3.749  1.0773 -1.7239  0.9242
 7064SOL    MW427990   1.681   2.722   3.771  0.3024 -0.2491 -0.1544
 7065SOL     OW27991   4.927   1.942   0.604  0.7641 -0.1991  0.6847
 7065SOL    HW227992   4.891   1.910   0.687 -2.4964  2.0415  0.3209
 7065SOL    HW327993   4.998   2.001   0.631  0.5389 -0.4069  1.8003
 7065SOL    MW427994   4.932   1.946   0.619  0.6343 -0.2500 -0.5037
 7066SOL     OW27995   1.183   0.940   3.294 -0.0863  0.0648  0.4295
 7066SOL    HW227996   1.211   0.881   3.364  0.8754 -0.2535 -0.2117
 7066SOL    HW327997   1.151   1.018   3.341  1.3323  0.2065  1.2170
 7066SOL    MW427998   1.182   0.943   3.310 -0.7995  0.5243 -0.0974
 7067SOL     OW27999   4.098   1.901   6.054 -0.3227 -0.1544 -0.2485
 7067SOL    HW228000   4.060   1.910   6.142 -0.6396 -1.4642 -0.2350
 7067SOL    HW328001   4.038   1.950   5.997  0.3047  1.3661  0.3468
 7067SOL    MW428002   4.085   1.909   6.058  1.0644  0.3355  0.0634
 7068SOL     OW28003   4.398   5.180   1.540  0.2718 -0.5980  0.2549
 7068SOL    HW228004   4.437   5.164   1.626  2.7109 -1.6565 -0.9557
 7068SOL    HW328005   4.464   5.229   1.493 -0.4568 -1.1868 -1.4531
 7068SOL    MW428006   4.411   5.184   1.545  0.1589 -0.0402  0.1558
 7069SOL     OW28007   0.098   3.259   3.244  0.1471  0.2814  0.6488
 7069SOL    HW228008   0.033   3.328   3.254  1.0791  1.2646  0.1672
 7069SOL    HW328009   0.088   3.205   3.322 -1.3218  0.3331  0.5117
 7069SOL    MW428010   0.088   3.261   3.256 -0.2305 -0.0012 -0.1959
 7070SOL     OW28011   4.648   1.604   2.637  0.3807  0.1638 -0.0167
 7070SOL    HW228012   4.573   1.560   2.676  0.0267  0.0054 -0.8507
 7070SOL    HW328013   4.619   1.628   2.549  1.7105 -1.0513 -0.8309
 7070SOL    MW428014   4.634   1.601   2.631 -0.0410 -0.3866 -0.0847
 7071SOL     OW28015   1.249   1.907   5.518  0.5156 -0.0046 -0.3268
 7071SOL    HW228016   1.186   1.916   5.446 -0.1794 -1.3120  0.0715
 7071SOL    HW328017   1.238   1.816   5.548  0.4877  0.6105  1.7015
 7071SOL    MW428018   1.239   1.896   5.512  0.3313  0.0108  0.3915
 7072SOL     OW28019   0.474   5.583   0.454  0.2624 -0.5208  0.3939
 7072SOL    HW228020   0.386   5.583   0.417  0.9573 -2.4689 -1.5107
 7072SOL    HW328021   0.462   5.555   0.545 -1.1145 -0.2847  0.3078
 7072SOL    MW428022   0.461   5.579   0.461 -0.0763 -0.4341 -0.6508
 7073SOL     OW28023   5.825   2.786   5.547 -0.6803 -0.1786  0.1805
 7073SOL    HW228024   5.742   2.743   5.527 -0.3255 -0.7901  0.0144
 7073SOL    HW328025   5.855   2.745   5.628 -1.2074  1.0054  1.0044
 7073SOL    MW428026   5.818   2.775   5.555 -0.5813 -0.0473  0.1008
 7074SOL     OW28027   5.527   6.214   5.439 -0.1014 -0.0842 -0.4852
 7074SOL    HW228028   5.503   6.139   5.493  1.5673  0.2498  0.7872
 7074SOL    HW328029   5.531   6.179   5.350  1.1141 -1.6253  0.1367
 7074SOL    MW428030   5.524   6.200   5.435  0.4217 -0.4577  0.1488
 7075SOL     OW28031   3.501   3.259   3.988 -0.1073 -0.0883 -0.2045
 7075SOL    HW228032   3.528   3.324   3.924  0.6195  0.5532  0.7254
 7075SOL    HW328033   3.417   3.292   4.022  0.0504  0.1473 -0.0402
 7075SOL    MW428034   3.493   3.272   3.984  0.3672  0.0683 -0.5524
 7076SOL     OW28035   0.948   4.044   1.306 -0.0485  0.5172  0.0963
 7076SOL    HW228036   0.884   4.011   1.244  0.0714 -0.2930  0.3796
 7076SOL    HW328037   0.971   3.967   1.359  2.6239  0.2469 -1.2645
 7076SOL    MW428038   0.943   4.029   1.305  0.2939  0.2532 -0.0173
 7077SOL     OW28039   5.830   1.046   4.273  0.3177  0.2063  0.4251
 7077SOL    HW228040   5.883   0.970   4.298  0.2581  0.2645  0.7252
 7077SOL    HW328041   5.859   1.116   4.331 -0.1307  0.2244  0.6348
 7077SOL    MW428042   5.841   1.045   4.284 -0.2956  0.2224 -0.5058
 7078SOL     OW28043   0.234   5.562   3.010 -0.1605 -0.3914  0.1045
 7078SOL    HW228044   0.266   5.621   3.078  1.3766  0.1893 -1.0709
 7078SOL    HW328045   0.208   5.483   3.057  2.1402 -0.5414  1.2626
 7078SOL    MW428046   0.234   5.560   3.025  0.3464  0.2262  0.2700
 7079SOL     OW28047   5.946   1.137   0.559  0.1005 -0.0640 -0.4399
 7079SOL    HW228048   6.010   1.113   0.492 -1.5365 -1.5993 -1.5407
 7079SOL    HW328049   5.864   1.146   0.511 -1.1017 -1.0242  1.3328
 7079SOL    MW428050   5.944   1.135   0.543  0.2251 -0.4932  0.3270
 7080SOL     OW28051   6.368   0.634   2.233  0.0374  0.3489  0.2146
 7080SOL    HW228052   6.431   0.568   2.261 -1.0904 -0.0965  1.8406
 7080SOL    HW328053   6.422   0.708   2.204  1.3017 -0.1403  1.2281
 7080SOL    MW428054   6.384   0.635   2.233 -0.6796 -0.2320  0.2018
 7081SOL     OW28055   1.175   4.765   5.422 -0.1361  0.1414  0.2483
 7081SOL    HW228056   1.087   4.783   5.455  0.2642 -2.0787  2.9306
 7081SOL    HW328057   1.225   4.843   5.445 -1.3112  1.3590 -1.1488
 7081SOL    MW428058   1.170   4.777   5.430  0.9300 -0.0225  0.0144
 7082SOL     OW28059   1.227   3.135   5.584 -0.1730 -0.1022  0.4286
 7082SOL    HW228060   1.156   3.110   5.525 -0.3344 -0.9252  0.9548
 7082SOL    HW328061   1.216   3.230   5.595 -1.6226 -0.2993  1.0269
 7082SOL    MW428062   1.216   3.144   5.578 -0.5340  0.2724 -0.4030
 7083SOL     OW28063   3.868   5.743   0.451 -0.0377 -0.7326  0.5710
 7083SOL    HW228064   3.960   5.729   0.475  0.7533  2.2622 -0.2217
 7083SOL    HW328065   3.864   5.725   0.357  1.3782  4.5775 -0.8507
 7083SOL    MW428066   3.880   5.739   0.442 -0.1203  0.3164 -0.2687
 7084SOL     OW28067   5.084   5.719   0.045 -0.6657 -0.2959  0.2783
 7084SOL    HW228068   5.000   5.683   0.076 -1.4590  0.0995 -1.2840
 7084SOL    HW328069   5.060   5.774  -0.030  1.1052 -1.1581 -1.0037
 7084SOL    MW428070   5.069   5.722   0.039  0.5645 -0.2736  0.1686
 7085SOL     OW28071   0.968   3.081   3.261 -0.0061  0.1552 -0.3975
 7085SOL    HW228072   0.992   3.094   3.353  0.9658 -0.3398 -0.5752
 7085SOL    HW328073   0.893   3.021   3.264  0.8015 -0.8490  0.0212
 7085SOL    MW428074   0.961   3.075   3.274 -0.1968  0.1103 -0.1771
 7086SOL     OW28075   5.858   4.757   1.992  0.4089  0.0084  0.3938
 7086SOL    HW228076   5.779   4.782   1.944  1.3980 -0.3167 -1.5176
 7086SOL    HW328077   5.920   4.829   1.976  1.3537 -0.9338 -0.3425
 7086SOL    MW428078   5.856   4.770   1.984  0.2498 -0.0957  0.0782
 7087SOL     OW28079   1.825   0.546   0.605  0.2149 -0.2075  0.2256
 7087SOL    HW228080   1.806   0.601   0.529 -0.7895  0.5729  1.0149
 7087SOL    HW328081   1.756   0.479   0.603  0.8200 -0.8303 -0.1422
 7087SOL    MW428082   1.813   0.545   0.594 -0.5112  0.5082 -0.0578
 7088SOL     OW28083   4.326   6.273   2.466  0.0247  0.1360  0.0033
 7088SOL    HW228084   4.359   6.240   2.383 -3.0431  2.1742 -2.2260
 7088SOL    HW328085   4.244   6.226   2.481 -0.6636  1.4629  0.5948
 7088SOL    MW428086   4.320   6.263   2.457 -0.5054  0.1858 -0.5384
 7089SOL     OW28087   1.862   6.299   0.293  0.1893 -1.2700 -0.3305
 7089SOL    HW228088   1.903   6.298   0.206 -0.5173 -1.2963 -0.6697
 7089SOL    HW328089   1.932   6.272   0.352  1.1212  0.2108 -0.6862
 7089SOL    MW428090   1.877   6.295   0.289  0.1463  1.1673 -0.4457
 7090SOL     OW28091   3.613   3.663   3.163  0.2148 -0.2903 -0.1784
 7090SOL    HW228092   3.530   3.616   3.176 -0.2454  0.9008  1.4877
 7090SOL    HW328093   3.607   3.697   3.074 -1.0722 -0.2818 -0.1112
 7090SOL    MW428094   3.601   3.661   3.153 -0.5275 -0.2993 -0.0779
 7091SOL     OW28095   5.085   4.737   1.066  0.2278  0.5045  0.0553
 7091SOL    HW228096   5.002   4.779   1.048 -0.1901  0.2779  1.3545
 7091SOL    HW328097   5.119   4.782   1.143  0.1836 -0.9283  0.9450
 7091SOL    MW428098   5.079   4.748   1.074 -0.2878 -0.4853 -0.2669
 7092SOL     OW28099   5.983   5.426   3.500 -0.1268  0.2055  0.2089
 7092SOL    HW228100   6.060   5.390   3.545  1.3962  0.4144 -2.0501
 7092SOL    HW328101   5.937   5.349   3.467 -0.7056  0.1041  1.1861
 7092SOL    MW428102   5.987   5.411   3.502  0.7745 -0.7839  0.2311
 7093SOL     OW28103   2.346   1.321   2.016  0.1177 -0.3442 -0.1320
 7093SOL    HW228104   2.389   1.394   2.061  1.0072 -1.6540  1.2409
 7093SOL    HW328105   2.258   1.318   2.055  0.9453 -1.5950  1.7966
 7093SOL    MW428106   2.340   1.330   2.027 -0.1055  0.0435 -0.3573
 7094SOL     OW28107   4.585   3.982   4.171 -0.1491 -0.3307  0.3295
 7094SOL    HW228108   4.670   4.000   4.211  0.4877 -0.3011 -0.9760
 7094SOL    HW328109   4.587   4.031   4.088 -0.1953 -2.7416 -1.1797
 7094SOL    MW428110   4.597   3.991   4.165 -0.2522 -0.0477 -0.2204
 7095SOL     OW28111   4.429   1.869   4.974  0.1875 -0.4169 -0.3343
 7095SOL    HW228112   4.473   1.784   4.966 -0.4569 -0.9795  1.4713
 7095SOL    HW328113   4.496   1.933   4.951  0.5267 -1.4063 -2.2797
 7095SOL    MW428114   4.444   1.866   4.970  0.0075 -0.0993 -0.0579
 7096SOL     OW28115   2.122   4.376   2.542 -0.6744  0.5280 -0.3359
 7096SOL    HW228116   2.178   4.433   2.595  0.5222  0.3765 -1.4015
 7096SOL    HW328117   2.155   4.288   2.558 -0.9469  0.3820 -0.5712
 7096SOL    MW428118   2.134   4.372   2.551  0.4290 -0.3482 -0.3694
 7097SOL     OW28119   2.994   1.949   0.650 -0.0037  0.4424 -0.0616
 7097SOL    HW228120   3.063   1.979   0.590  1.5590 -1.7461  0.5255
 7097SOL    HW328121   3.006   1.854   0.655 -2.7149  0.0526  0.5602
 7097SOL    MW428122   3.005   1.940   0.642  0.4956 -0.0190 -0.1143
 7098SOL     OW28123   3.297   5.995   2.110  0.3610  0.5532  0.3566
 7098SOL    HW228124   3.233   5.950   2.056  1.2792  0.0676 -0.3403
 7098SOL    HW328125   3.338   6.059   2.052  0.7892  0.5805  0.6775
 7098SOL    MW428126   3.294   5.998   2.096  0.0616 -0.0658 -0.4450
 7099SOL     OW28127   4.615   4.725   0.674 -0.3169  0.0716 -0.4232
 7099SOL    HW228128   4.710   4.730   0.678 -0.3833  0.6682  2.1391
 7099SOL    HW328129   4.595   4.723   0.580  2.1913 -0.1130 -1.0259
 7099SOL    MW428130   4.625   4.726   0.662  0.0179 -0.0575 -0.2094
 7100SOL     OW28131   6.146   1.588   4.659  0.3463  0.3651  0.0555
 7100SOL    HW228132   6.159   1.672   4.615  0.1478  0.2025 -0.3181
 7100SOL    HW328133   6.133   1.526   4.587  1.6538 -0.1959  0.2747
 7100SOL    MW428134   6.146   1.591   4.643 -0.1210 -0.3743 -0.4387
 7101SOL     OW28135   0.953   2.308   4.739  0.8493  0.9777  0.1244
 7101SOL    HW228136   0.985   2.218   4.741  2.4943  1.5278  0.8615
 7101SOL    HW328137   0.863   2.302   4.710  0.1436 -1.1532  2.4257
 7101SOL    MW428138   0.945   2.296   4.736 -0.2018 -0.0393  0.0482
 7102SOL     OW28139   1.467   3.199   6.400 -0.7777  0.4332 -0.6635
 7102SOL    HW228140   1.396   3.204   6.464  0.5070 -0.6101  0.9385
 7102SOL    HW328141   1.439   3.256   6.329 -2.2083  1.7860  0.8912
 7102SOL    MW428142   1.454   3.207   6.399  0.1761  0.0759  0.4846
 7103SOL     OW28143   2.273   3.698   5.588  0.3467  0.4358  0.1756
 7103SOL    HW228144   2.218   3.717   5.664 -0.3417 -2.0396  0.3706
 7103SOL    HW328145   2.272   3.780   5.537  0.1470  1.8799  2.3657
 7103SOL    MW428146   2.265   3.712   5.591 -0.0955  0.4002  0.7914
 7104SOL     OW28147   5.002   2.390   0.559 -0.5523  0.2522  0.0066
 7104SOL    HW228148   5.056   2.363   0.484 -0.6254  1.1428 -0.3759
 7104SOL    HW328149   5.058   2.374   0.635 -0.0296  0.4390 -0.3284
 7104SOL    MW428150   5.017   2.384   0.559 -0.0450 -0.0634  0.0459
 7105SOL     OW28151   1.371   1.701   4.777 -0.0386 -0.5308  0.0698
 7105SOL    HW228152   1.391   1.741   4.692  0.0691  0.1957  0.4229
 7105SOL    HW328153   1.457   1.683   4.815  0.0282  1.7542  1.2021
 7105SOL    MW428154   1.385   1.704   4.771  0.0494 -0.9093  0.0432
 7106SOL     OW28155   1.757   5.103   1.245 -0.4722  0.4604 -0.1705
 7106SOL    HW228156   1.848   5.134   1.237 -0.2269 -0.1572  0.2159
 7106SOL    HW328157   1.764   5.017   1.285 -1.2368  0.4068 -0.1387
 7106SOL    MW428158   1.770   5.096   1.249  0.4590  0.0848 -0.1625
 7107SOL     OW28159   2.823   6.430   0.761 -0.0913 -0.1658  0.1234
 7107SOL    HW228160   2.857   6.367   0.697  0.4220  0.7066 -0.4906
 7107SOL    HW328161   2.887   6.430   0.831 -1.0932 -1.7745  1.1033
 7107SOL    MW428162   2.836   6.422   0.762 -0.5613  0.5723 -0.1305
 7108SOL     OW28163   2.934   1.600   4.843 -0.0830  0.1438  0.3940
 7108SOL    HW228164   2.937   1.653   4.763  1.0983 -1.8034 -0.9571
 7108SOL    HW328165   2.864   1.536   4.826  0.1404 -0.2506  0.9395
 7108SOL    MW428166   2.925   1.598   4.830 -0.0412 -0.4017  0.3566
 7109SOL     OW28167   2.342   3.265   0.219  0.3100  0.6402  0.0796
 7109SOL    HW228168   2.353   3.192   0.158  2.7606  2.0873 -1.3492
 7109SOL    HW328169   2.380   3.233   0.301  0.9853  0.1591 -0.4079
 7109SOL    MW428170   2.348   3.251   0.221 -0.1266 -0.6625  0.3194
 7110SOL     OW28171   3.294   3.563   4.432 -0.1385 -0.2822 -0.0758
 7110SOL    HW228172   3.325   3.654   4.430  1.3002 -0.7638 -0.6858
 7110SOL    HW328173   3.374   3.511   4.435 -0.9710 -1.5138  2.3336
 7110SOL    MW428174   3.309   3.568   4.432 -0.1502  0.0426  0.1567
 7111SOL     OW28175   4.078   2.585   2.365  0.3222 -0.2647 -0.0390
 7111SOL    HW228176   4.028   2.599   2.284  1.2700 -2.2967 -1.0532
 7111SOL    HW328177   4.168   2.610   2.343  1.0605 -2.9392 -0.4248
 7111SOL    MW428178   4.083   2.590   2.351  0.0250  0.8173 -0.2959
 7112SOL     OW28179   1.999   3.374   1.091  0.6808 -0.3395  0.2833
 7112SOL    HW228180   2.084   3.411   1.067 -0.2394 -0.0054 -3.0379
 7112SOL    HW328181   1.952   3.446   1.132  1.8344 -0.4275  1.8393
 7112SOL    MW428182   2.004   3.388   1.093 -0.2367  0.3176 -0.2057
 7113SOL     OW28183   2.934   2.322   5.922  0.0676 -0.6686 -0.0666
 7113SOL    HW228184   2.858   2.327   5.864 -0.6354 -1.4363  0.7627
 7113SOL    HW328185   3.000   2.378   5.880 -0.5180 -0.9634 -1.4411
 7113SOL    MW428186   2.933   2.330   5.909 -0.2458 -0.7655  0.4634
 7114SOL     OW28187   4.750   5.390   1.680  0.4716 -0.0156  0.2441
 7114SOL    HW228188   4.798   5.377   1.761  1.0164  0.4541  0.0021
 7114SOL    HW328189   4.818   5.402   1.613  0.0347 -0.3939 -0.2818
 7114SOL    MW428190   4.765   5.390   1.682  0.5905 -0.1968 -0.1525
 7115SOL     OW28191   3.171   5.479   3.549 -0.6852 -0.7293 -0.1180
 7115SOL    HW228192   3.190   5.438   3.633  1.2560 -1.2933 -0.7808
 7115SOL    HW328193   3.095   5.534   3.566  0.3408  0.1014  2.3104
 7115SOL    MW428194   3.164   5.481   3.562  0.3048  0.4967 -0.6894
 7116SOL     OW28195   6.161   3.340   5.080  0.5455  0.1730 -0.6671
 7116SOL    HW228196   6.241   3.390   5.097  1.7390 -2.1062  1.1398
 7116SOL    HW328197   6.108   3.353   5.159  0.8706 -1.2862 -0.1759
 7116SOL    MW428198   6.165   3.348   5.093  0.0169  0.2491  0.2238
 7117SOL     OW28199   2.910   3.967   4.689 -0.3593  0.4719 -0.6436
 7117SOL    HW228200   2.964   3.984   4.613 -0.5748 -1.0478 -1.1854
 7117SOL    HW328201   2.892   3.873   4.685 -1.3360  0.5661  0.6446
 7117SOL    MW428202   2.915   3.956   4.679  0.5117  0.0407  0.1134
 7118SOL     OW28203   3.032   5.969   4.094 -0.1148  0.2030  0.2294
 7118SOL    HW228204   3.031   6.055   4.054  0.4825  0.2035  0.2056
 7118SOL    HW328205   3.103   5.923   4.051 -1.3378 -0.8096 -0.7908
 7118SOL    MW428206   3.041   5.974   4.083  0.0862 -0.0227  0.4469
 7119SOL     OW28207   1.415   2.881   4.577  0.1461 -0.4111 -0.3455
 7119SOL    HW228208   1.358   2.949   4.541  0.4979  0.2871  0.3770
 7119SOL    HW328209   1.360   2.802   4.579 -0.1623 -0.2460 -1.5002
 7119SOL    MW428210   1.400   2.879   4.573  0.1871  0.4839 -0.6563
 7120SOL     OW28211   5.779   3.783   5.812  0.0185  0.6359  0.3045
 7120SOL    HW228212   5.717   3.710   5.815  0.0739  0.5143 -0.8774
 7120SOL    HW328213   5.796   3.795   5.718  3.4368 -0.7649  0.6218
 7120SOL    MW428214   5.773   3.775   5.800  0.7883 -0.0949  0.3575
 7121SOL     OW28215   1.435   5.038   1.628 -0.3050  0.5352  0.4717
 7121SOL    HW228216   1.419   5.013   1.537  0.3693 -1.1331  0.7820
 7121SOL    HW328217   1.511   5.096   1.624 -0.3852  0.6106 -0.0430
 7121SOL    MW428218   1.443   5.042   1.615 -0.1875 -0.0735  0.6323
 7122SOL     OW28219   0.682   5.923   0.516 -0.6101  0.7157  0.3785
 7122SOL    HW228220   0.594   5.956   0.502  0.2202  3.0986  0.2809
 7122SOL    HW328221   0.701   5.941   0.608  0.4453  2.1610 -0.0724
 7122SOL    MW428222   0.673   5.930   0.526 -0.3263  0.6538 -0.5115
 7123SOL     OW28223   1.322   1.425   5.218 -0.0185  0.1876  0.0387
 7123SOL    HW228224   1.244   1.417   5.274  0.4274 -0.4644  0.5758
 7123SOL    HW328225   1.396   1.419   5.278  0.4654 -0.0742 -0.5709
 7123SOL    MW428226   1.321   1.423   5.233  0.1564 -0.2216 -0.2210
 7124SOL     OW28227   3.911   3.956   6.040  0.3890 -0.5601  0.3348
 7124SOL    HW228228   3.979   3.915   5.986 -1.1202 -4.0210  0.8250
 7124SOL    HW328229   3.889   4.036   5.993  3.3167 -0.3483 -0.9133
 7124SOL    MW428230   3.917   3.961   6.027 -0.2376  0.2592 -0.3936
 7125SOL     OW28231   3.101   5.175   3.594  0.0855  0.1823 -0.6259
 7125SOL    HW228232   3.150   5.220   3.662 -1.1052  2.5586 -1.2172
 7125SOL    HW328233   3.087   5.087   3.628  0.5880  0.9108  1.6378
 7125SOL    MW428234   3.105   5.170   3.607 -0.4249 -0.2339 -0.0604
 7126SOL     OW28235   5.920   0.133   2.188 -0.5506 -0.1719  0.0665
 7126SOL    HW228236   6.014   0.127   2.171 -0.5738 -2.1764  0.4174
 7126SOL    HW328237   5.914   0.169   2.276 -0.1999  1.5372 -0.5610
 7126SOL    MW428238   5.932   0.137   2.197 -0.0621  0.6197  0.4868
 7127SOL     OW28239   1.692   5.489   4.391 -0.2576 -0.2720  0.0905
 7127SOL    HW228240   1.738   5.524   4.315  0.1496 -1.7955 -0.4080
 7127SOL    HW328241   1.704   5.394   4.385 -0.8159 -0.4832  1.6776
 7127SOL    MW428242   1.699   5.481   4.381  0.1632  0.0722 -0.4893
 7128SOL     OW28243   6.256   5.349   0.926 -0.2001  0.0263  0.0171
 7128SOL    HW228244   6.334   5.396   0.897 -0.7740  0.6885 -0.5064
 7128SOL    HW328245   6.183   5.399   0.890 -0.8775 -0.4914  0.6201
 7128SOL    MW428246   6.257   5.362   0.918  0.2352 -0.2277  0.1853
 7129SOL     OW28247   2.103   5.826   5.259 -0.0911  0.3631 -0.2355
 7129SOL    HW228248   2.147   5.833   5.174  1.3382  0.6620  0.4915
 7129SOL    HW328249   2.139   5.899   5.310  0.1258 -0.6304  1.0671
 7129SOL    MW428250   2.114   5.837   5.255  0.4359 -0.0030  0.1356
 7130SOL     OW28251   2.755   2.269   2.625 -0.1958  0.1089 -0.6938
 7130SOL    HW228252   2.829   2.260   2.565  2.0506  1.7776  1.6405
 7130SOL    HW328253   2.713   2.351   2.600 -0.0362  0.1722 -0.7524
 7130SOL    MW428254   2.759   2.278   2.614  0.4886 -0.5469  0.4873
 7131SOL     OW28255   1.941   1.871   4.468 -0.7579 -0.1503 -0.2710
 7131SOL    HW228256   1.888   1.868   4.547 -1.9110 -0.7970 -1.0342
 7131SOL    HW328257   1.989   1.788   4.468 -2.9577 -1.5279 -1.6539
 7131SOL    MW428258   1.941   1.860   4.478  0.4953 -0.6031 -0.0262
 7132SOL     OW28259   0.780   2.383   1.964  0.3257  0.0960  0.6923
 7132SOL    HW228260   0.850   2.326   1.932 -0.1199 -0.9853  1.5605
 7132SOL    HW328261   0.812   2.472   1.950  1.3013 -0.3759 -0.1418
 7132SOL    MW428262   0.794   2.387   1.958  0.3381 -0.6317 -0.0079
 7133SOL     OW28263   0.254   3.763   3.893 -0.5888 -0.0256 -0.0860
 7133SOL    HW228264   0.316   3.804   3.954 -0.1111 -0.7574 -0.0668
 7133SOL    HW328265   0.301   3.758   3.810 -0.2536 -1.4510  0.1666
 7133SOL    MW428266   0.268   3.768   3.890  0.1174  0.2823 -0.3613
 7134SOL     OW28267   3.649   2.242   4.019  0.1356  0.1919  0.3812
 7134SOL    HW228268   3.691   2.156   4.008 -0.1296  0.1635 -0.5071
 7134SOL    HW328269   3.697   2.283   4.090  1.9778  0.3322 -0.8592
 7134SOL    MW428270   3.661   2.236   4.027 -0.7488 -0.3871  0.6303
 7135SOL     OW28271   6.145   1.130   5.321  0.1676 -0.1038 -0.3110
 7135SOL    HW228272   6.183   1.175   5.245  1.0603 -1.5933 -0.8079
 7135SOL    HW328273   6.095   1.058   5.283 -0.5280 -0.0537  0.4806
 7135SOL    MW428274   6.144   1.126   5.306 -0.4674  1.1610  0.0963
 7136SOL     OW28275   5.117   3.811   4.068 -0.4349 -0.5128 -0.6508
 7136SOL    HW228276   5.195   3.830   4.120 -0.4603  0.3059 -0.9030
 7136SOL    HW328277   5.125   3.719   4.046 -0.0014 -0.6656  0.1012
 7136SOL    MW428278   5.128   3.802   4.072  1.0845 -0.3005  0.6874
 7137SOL     OW28279   1.615   3.088   2.276 -0.0051 -0.0077  0.0818
 7137SOL    HW228280   1.593   3.036   2.354  1.0722  0.3317  0.6336
 7137SOL    HW328281   1.547   3.067   2.213 -0.0369 -1.4834  0.5763
 7137SOL    MW428282   1.603   3.079   2.278 -0.2869 -0.3239  0.2359
 7138SOL     OW28283   5.747   4.124   0.383  0.1601  0.6454  0.0772
 7138SOL    HW228284   5.788   4.164   0.307  0.9688  1.3719  0.8656
 7138SOL    HW328285   5.688   4.058   0.347  1.8515 -0.2940 -1.1419
 7138SOL    MW428286   5.745   4.121   0.368 -0.3570 -0.2563 -0.0129
 7139SOL     OW28287   4.916   5.533   3.265 -0.2362 -0.0483  0.6671
 7139SOL    HW228288   4.898   5.444   3.294  0.4196 -0.3293  0.2548
 7139SOL    HW328289   5.009   5.546   3.287 -0.5779  0.8867  1.6131
 7139SOL    MW428290   4.926   5.523   3.272 -0.0183 -0.7846  0.2764
 7140SOL     OW28291   1.834   4.201   3.844 -0.3139 -0.2696 -0.3374
 7140SOL    HW228292   1.861   4.292   3.836  0.3253 -0.4183  0.0298
 7140SOL    HW328293   1.848   4.164   3.757 -1.4737  0.2035 -0.7460
 7140SOL    MW428294   1.840   4.208   3.832 -0.0319  0.5703  0.2909
 7141SOL     OW28295   0.748   4.249   1.328 -0.2338 -0.1505 -0.0373
 7141SOL    HW228296   0.738   4.240   1.422  0.6839  2.0492  0.3354
 7141SOL    HW328297   0.820   4.190   1.305  0.4754  0.3282  0.8943
 7141SOL    MW428298   0.756   4.240   1.337  0.0154 -1.0230 -0.3452
 7142SOL     OW28299   5.777   1.129   3.400  0.4863  0.0116  0.7673
 7142SOL    HW228300   5.683   1.145   3.396  0.4713 -0.1661 -2.3637
 7142SOL    HW328301   5.789   1.044   3.357  1.9781 -0.8298  2.6836
 7142SOL    MW428302   5.766   1.120   3.394  0.2616  0.0299  0.3070
 7143SOL     OW28303   5.441   3.589   1.043 -0.0290  0.3366  0.3862
 7143SOL    HW228304   5.381   3.635   0.984 -0.9306 -0.4209  0.6746
 7143SOL    HW328305   5.482   3.522   0.989  0.0888  0.4552  0.3295
 7143SOL    MW428306   5.438   3.586   1.028  0.5613  0.0437  0.1482
 7144SOL     OW28307   4.730   4.822   4.444 -0.5090 -0.7932 -0.0172
 7144SOL    HW228308   4.708   4.735   4.476 -1.2642 -0.7793 -0.4992
 7144SOL    HW328309   4.778   4.807   4.363  2.9229 -0.9079  1.8268
 7144SOL    MW428310   4.734   4.809   4.438  0.2349  0.1270  0.5028
 7145SOL     OW28311   3.552   6.130   0.091  0.4457 -0.1697 -0.5517
 7145SOL    HW228312   3.607   6.107   0.017 -0.3609  1.2028 -1.6227
 7145SOL    HW328313   3.534   6.223   0.080 -0.8274 -0.2370  0.6127
 7145SOL    MW428314   3.557   6.139   0.080 -0.1508  0.4915  0.3452
 7146SOL     OW28315   5.155   6.283   3.092 -0.6089 -0.7699 -0.2244
 7146SOL    HW228316   5.098   6.348   3.053  1.7484  0.7900 -1.2586
 7146SOL    HW328317   5.157   6.306   3.185  0.8380  1.2587 -0.6893
 7146SOL    MW428318   5.147   6.294   3.099 -0.0156 -0.4167 -0.5450
 7147SOL     OW28319   3.358   4.716   0.648  0.0243 -0.3890 -0.3856
 7147SOL    HW228320   3.333   4.798   0.607  3.5202  0.5000 -1.1146
 7147SOL    HW328321   3.354   4.651   0.578  1.5091  0.1603 -1.0200
 7147SOL    MW428322   3.354   4.718   0.634 -0.5216  0.1939  0.0270
 7148SOL     OW28323   3.155   3.004   0.645 -0.0119 -0.3620  0.1282
 7148SOL    HW228324   3.169   3.052   0.726 -1.2093 -0.9874  0.7416
 7148SOL    HW328325   3.122   3.069   0.583 -0.6495 -0.1781  0.6489
 7148SOL    MW428326   3.152   3.019   0.647 -0.4499  0.6793  0.0869
 7149SOL     OW28327   0.004   0.587   1.634  0.1422 -0.4715 -0.1662
 7149SOL    HW228328  -0.083   0.622   1.615 -0.7095 -0.9750  2.4336
 7149SOL    HW328329   0.000   0.496   1.606  0.1871 -0.2265 -0.9842
 7149SOL    MW428330  -0.008   0.580   1.628  0.1840 -0.2089 -1.0202
 7150SOL     OW28331   5.939   3.086   4.481  0.1329 -0.0991  0.7289
 7150SOL    HW228332   5.896   3.159   4.438  0.1113 -0.7495 -0.3748
 7150SOL    HW328333   6.000   3.128   4.542  0.2702  0.8410 -0.0253
 7150SOL    MW428334   5.941   3.101   4.484  0.4817  0.5184  0.1980
 7151SOL     OW28335   4.422   1.429   4.194  0.1636 -0.3407  0.0174
 7151SOL    HW228336   4.469   1.385   4.265 -0.4765 -1.2204 -0.0802
 7151SOL    HW328337   4.491   1.459   4.135  0.6207 -2.8982 -0.8699
 7151SOL    MW428338   4.438   1.427   4.196  0.0608  0.0094  0.5708
 7152SOL     OW28339   4.733   5.634   5.676 -0.2449  0.1248  0.4870
 7152SOL    HW228340   4.782   5.676   5.747 -0.1771  2.0355 -0.6386
 7152SOL    HW328341   4.727   5.700   5.608 -1.3263 -1.2728 -0.8498
 7152SOL    MW428342   4.738   5.648   5.677  0.2165  0.7725  0.2104
 7153SOL     OW28343   3.805   3.709   4.361  0.1207  0.0061 -0.2344
 7153SOL    HW228344   3.766   3.622   4.355  0.8732 -0.3814  0.3850
 7153SOL    HW328345   3.899   3.694   4.369  0.1338  0.7890  1.5995
 7153SOL    MW428346   3.812   3.696   4.361  0.2298  0.3106 -0.2170
 7154SOL     OW28347   3.238   4.039   1.536 -0.1850 -0.2264 -0.4034
 7154SOL    HW228348   3.154   4.055   1.493 -0.4136 -0.0353  0.1074
 7154SOL    HW328349   3.224   4.067   1.627  0.7421  0.7887 -0.5532
 7154SOL    MW428350   3.225   4.045   1.543  0.1234  0.5774 -0.3199
 7155SOL     OW28351   1.252   4.355   5.421 -0.2054 -0.4523  0.3037
 7155SOL    HW228352   1.308   4.278   5.431 -1.8530 -1.4757  2.4637
 7155SOL    HW328353   1.307   4.428   5.448  0.8601 -1.0744 -0.1144
 7155SOL    MW428354   1.267   4.354   5.426  0.5866  0.3035 -0.1650
 7156SOL     OW28355   5.616   4.894   1.951 -0.8603 -0.9114 -0.2599
 7156SOL    HW228356   5.593   4.987   1.958  3.0428  0.1524  0.8213
 7156SOL    HW328357   5.581   4.854   2.031 -1.0442  0.0118  0.1336
 7156SOL    MW428358   5.608   4.901   1.962 -0.8537 -0.3008 -0.2283
 7157SOL     OW28359   0.821   5.156   1.712 -0.2932 -0.4927  0.1684
 7157SOL    HW228360   0.726   5.152   1.721 -0.3884 -0.9387 -0.9267
 7157SOL    HW328361   0.852   5.068   1.733 -0.0160 -0.1070  1.4729
 7157SOL    MW428362   0.813   5.144   1.716 -0.1829 -0.2793 -0.1817
 7158SOL     OW28363   1.035   1.224   1.779 -0.2446 -0.5245 -0.0078
 7158SOL    HW228364   1.008   1.316   1.781  0.4580 -0.3172  0.4619
 7158SOL    HW328365   1.016   1.195   1.690 -1.9582 -0.3906  0.2837
 7158SOL    MW428366   1.029   1.232   1.768 -0.0536 -0.3987 -0.3656
 7159SOL     OW28367   6.332   3.446   0.007  0.1278  0.0087 -0.5146
 7159SOL    HW228368   6.421   3.466   0.036 -0.6141 -0.4224  2.4975
 7159SOL    HW328369   6.287   3.530   0.008  0.0336 -0.0434 -0.0569
 7159SOL    MW428370   6.338   3.460   0.011 -0.1609 -0.0061 -0.1916
 7160SOL     OW28371   4.988   4.631   5.247 -0.0008 -0.1610 -0.1709
 7160SOL    HW228372   5.005   4.674   5.164 -1.5591 -0.9057 -0.9126
 7160SOL    HW328373   5.005   4.538   5.230 -0.3893 -0.3278  0.3210
 7160SOL    MW428374   4.992   4.624   5.234  0.1502 -0.2482  0.4237
 7161SOL     OW28375   5.717   2.740   0.700 -0.1765  0.1843 -0.0616
 7161SOL    HW228376   5.634   2.778   0.728 -0.5192 -0.1324 -0.6226
 7161SOL    HW328377   5.694   2.684   0.625  0.3212 -1.0324  0.6625
 7161SOL    MW428378   5.703   2.738   0.693  0.3776  0.1090 -0.1277
 7162SOL     OW28379   2.457   0.326   4.940  0.1166 -0.0924  0.0126
 7162SOL    HW228380   2.389   0.348   5.003  0.1135  0.8197 -0.2937
 7162SOL    HW328381   2.410   0.284   4.867  0.2195 -1.9616  0.9561
 7162SOL    MW428382   2.442   0.323   4.938  0.1135 -0.5941 -0.6177
 7163SOL     OW28383   3.313   2.186   1.648  0.4746  0.5300 -0.0616
 7163SOL    HW228384   3.376   2.119   1.674 -0.3534 -0.4131 -0.3863
 7163SOL    HW328385   3.296   2.236   1.727 -2.7986 -2.9211  1.7424
 7163SOL    MW428386   3.319   2.184   1.662 -0.2247 -0.1580 -0.5554
 7164SOL     OW28387   5.027   4.502   4.918 -0.4673 -0.1602 -0.1957
 7164SOL    HW228388   4.942   4.544   4.908 -0.3781  0.3391  1.0068
 7164SOL    HW328389   5.087   4.573   4.942 -0.0500 -0.7606  0.5702
 7164SOL    MW428390   5.024   4.517   4.920 -0.2172  0.2128  0.2480
 7165SOL     OW28391   2.191   6.046   5.384  0.0935  0.1692  0.1157
 7165SOL    HW228392   2.249   6.089   5.321  1.3127 -0.2130  0.9604
 7165SOL    HW328393   2.126   6.113   5.405 -0.5527  0.2057 -1.7737
 7165SOL    MW428394   2.190   6.061   5.378 -0.3865  0.0603  1.2887
 7166SOL     OW28395   3.639   4.870   1.640 -0.2997 -0.0477  0.0868
 7166SOL    HW228396   3.669   4.954   1.605 -1.7859  0.9345  1.0548
 7166SOL    HW328397   3.693   4.805   1.595  2.1219  1.4871  0.5689
 7166SOL    MW428398   3.650   4.872   1.629 -0.2450 -0.3477  0.5705
 7167SOL     OW28399   0.474   0.455   4.898  0.2180 -0.5599  0.0015
 7167SOL    HW228400   0.508   0.367   4.883 -1.4915 -1.0568 -1.2535
 7167SOL    HW328401   0.549   0.513   4.881  1.3959 -1.7487  0.9653
 7167SOL    MW428402   0.488   0.451   4.894  0.4673  0.1392 -0.5676
 7168SOL     OW28403   6.422   5.115   5.477  0.8112  0.1708 -0.3005
 7168SOL    HW228404   6.413   5.025   5.445  2.1263  1.0186 -3.3326
 7168SOL    HW328405   6.455   5.105   5.566 -0.5355 -2.3257  0.0238
 7168SOL    MW428406   6.425   5.102   5.485  0.1657 -0.4443 -0.4338
 7169SOL     OW28407   4.638   6.176   2.962  0.2088  0.2161  0.2049
 7169SOL    HW228408   4.659   6.216   3.047 -0.7686 -1.4656  1.3038
 7169SOL    HW328409   4.630   6.082   2.981 -1.2325 -0.0614 -1.4980
 7169SOL    MW428410   4.639   6.169   2.976 -0.0184 -0.1574 -0.5639
 7170SOL     OW28411   0.225   1.716   4.274 -0.1390 -0.1671  0.1150
 7170SOL    HW228412   0.250   1.631   4.238  2.6104  0.8815 -0.7007
 7170SOL    HW328413   0.152   1.696   4.333 -0.2511 -2.9231 -0.8024
 7170SOL    MW428414   0.219   1.702   4.277 -0.4717  0.2986  0.2666
 7171SOL     OW28415   0.335   5.684   3.856 -0.5693 -0.2640  0.3423
 7171SOL    HW228416   0.351   5.631   3.778 -2.4448 -0.1900 -0.1448
 7171SOL    HW328417   0.376   5.769   3.836  0.4589 -0.7839  0.1754
 7171SOL    MW428418   0.343   5.688   3.843 -0.1847  0.3387  0.3366
 7172SOL     OW28419   1.013   1.813   3.000  0.0361  0.3631 -0.3177
 7172SOL    HW228420   1.021   1.738   2.940  0.0376 -0.6748  0.9430
 7172SOL    HW328421   0.928   1.800   3.043  0.3543  0.7016  0.4248
 7172SOL    MW428422   1.002   1.801   2.998 -0.2744 -0.6354 -0.2720
 7173SOL     OW28423   0.010   3.831   6.194  0.1086  0.5233 -0.1690
 7173SOL    HW228424  -0.073   3.868   6.165 -1.4369  0.3556  3.4749
 7173SOL    HW328425   0.068   3.906   6.205  0.5714  0.6347 -2.7989
 7173SOL    MW428426   0.007   3.845   6.192 -0.5968  0.4926  0.7580
 7174SOL     OW28427   1.468   2.308   3.954  0.0041  0.6318 -0.1765
 7174SOL    HW228428   1.398   2.373   3.962 -0.3006  0.1755  1.0703
 7174SOL    HW328429   1.422   2.224   3.948  0.4180  0.2512  1.4547
 7174SOL    MW428430   1.452   2.305   3.954 -0.5425 -0.6657 -0.0930
 7175SOL     OW28431   0.959   5.717   3.838  0.5747 -0.6258  0.3637
 7175SOL    HW228432   1.041   5.714   3.789  0.9921  1.5027  0.8578
 7175SOL    HW328433   0.978   5.675   3.921  1.1789 -0.1152  0.4855
 7175SOL    MW428434   0.972   5.711   3.842  0.0356  0.2019 -0.4884
 7176SOL     OW28435   2.311   3.125   3.230 -0.0080 -0.0611 -0.2880
 7176SOL    HW228436   2.348   3.049   3.275 -0.9633  0.4072  1.3630
 7176SOL    HW328437   2.217   3.119   3.245 -0.3041  0.4407 -1.7708
 7176SOL    MW428438   2.304   3.115   3.238 -0.0889 -0.0917  0.3224
 7177SOL     OW28439   6.137   0.973   0.845 -0.6488 -0.3451  0.7392
 7177SOL    HW228440   6.213   0.953   0.901 -0.9764  1.0456  1.7194
 7177SOL    HW328441   6.171   0.966   0.756  0.9200  1.2508  1.1682
 7177SOL    MW428442   6.152   0.969   0.841  0.0337  0.1231  0.3728
 7178SOL     OW28443   1.339   2.918   2.831  0.4081 -0.4947 -0.2680
 7178SOL    HW228444   1.253   2.955   2.814  1.1144  0.9583 -0.7990
 7178SOL    HW328445   1.400   2.975   2.784  1.6536 -1.6052 -0.0737
 7178SOL    MW428446   1.336   2.930   2.822  0.3047 -0.0510  0.2122
 7179SOL     OW28447   1.396   1.121   2.694 -0.3168  0.1280 -0.4301
 7179SOL    HW228448   1.416   1.198   2.747  1.8676  0.3160 -1.4568
 7179SOL    HW328449   1.457   1.125   2.620  0.5988 -3.1237  0.0098
 7179SOL    MW428450   1.406   1.132   2.691  0.4130 -0.7556 -0.1337
 7180SOL     OW28451   6.182   5.518   4.938 -0.0641  0.4589 -0.0984
 7180SOL    HW228452   6.092   5.530   4.906 -0.6418 -1.5528  0.6374
 7180SOL    HW328453   6.185   5.427   4.967  1.7600  0.9424  1.3790
 7180SOL    MW428454   6.170   5.508   4.937  0.6363 -0.2621  0.2186
 7181SOL     OW28455   3.096   0.225   0.200  0.2329 -0.0601  0.2388
 7181SOL    HW228456   3.040   0.235   0.123 -0.3804  0.1556  0.7011
 7181SOL    HW328457   3.036   0.233   0.274  1.1308  2.1195  0.8206
 7181SOL    MW428458   3.081   0.227   0.200 -0.0491 -0.2823 -0.6788
 7182SOL     OW28459   1.313   2.115   5.171 -0.0698 -0.3467 -0.2606
 7182SOL    HW228460   1.373   2.100   5.098 -0.7081  0.7474 -1.0376
 7182SOL    HW328461   1.236   2.155   5.131 -1.0386 -1.0756  0.8155
 7182SOL    MW428462   1.311   2.118   5.156  0.6271 -0.3344  0.0063
 7183SOL     OW28463   1.089   3.569   2.292 -0.1793  0.2986 -0.2065
 7183SOL    HW228464   1.017   3.506   2.294 -1.0068  1.1550 -1.3003
 7183SOL    HW328465   1.063   3.632   2.224  1.2854  1.0111 -0.1358
 7183SOL    MW428466   1.076   3.569   2.283 -0.5564  0.2487  0.1088
 7184SOL     OW28467   2.376   1.199   0.802 -0.1908 -0.2515 -0.1106
 7184SOL    HW228468   2.377   1.183   0.896  0.7172  1.0357  0.1184
 7184SOL    HW328469   2.303   1.146   0.770 -1.0782 -0.0374  1.4406
 7184SOL    MW428470   2.367   1.190   0.810  0.2073 -0.2261  0.1308
 7185SOL     OW28471   3.305   0.508   2.121 -0.3396  0.6090 -0.1970
 7185SOL    HW228472   3.257   0.479   2.043 -0.9836  0.9787  0.0570
 7185SOL    HW328473   3.315   0.602   2.109  0.9931  0.4291 -0.6059
 7185SOL    MW428474   3.300   0.517   2.109 -0.2723  0.1821 -0.1288
 7186SOL     OW28475   6.330   6.007   2.062  0.7680  0.2156 -0.3743
 7186SOL    HW228476   6.292   5.929   2.022  0.6383  0.6348 -1.0813
 7186SOL    HW328477   6.299   6.079   2.008 -1.7859  1.1413  2.1126
 7186SOL    MW428478   6.321   6.006   2.050  0.4421 -0.1535 -0.0666
 7187SOL     OW28479   4.056   0.890   3.681  0.6734 -0.2822  0.4411
 7187SOL    HW228480   4.119   0.876   3.751  0.2014  1.5662  1.2887
 7187SOL    HW328481   4.098   0.951   3.621  1.5499 -2.7208 -1.6367
 7187SOL    MW428482   4.070   0.896   3.682  0.1912 -0.3551  0.1539
 7188SOL     OW28483   0.784   0.885   1.831  0.2044 -0.8244  0.0911
 7188SOL    HW228484   0.732   0.806   1.848 -1.4904  0.1139 -0.4599
 7188SOL    HW328485   0.727   0.957   1.859  0.6164  0.3414 -1.8934
 7188SOL    MW428486   0.769   0.884   1.837 -0.2264 -0.0175 -0.4391
 7189SOL     OW28487   1.359   1.677   0.858  0.4415  0.1804 -0.1686
 7189SOL    HW228488   1.392   1.757   0.900  0.8293 -0.2923  0.4500
 7189SOL    HW328489   1.345   1.616   0.930  0.6018 -0.4728 -0.6798
 7189SOL    MW428490   1.362   1.680   0.873 -0.0554  0.2231  0.3571
 7190SOL     OW28491   5.805   5.750   1.599 -0.1464  0.1196  0.3608
 7190SOL    HW228492   5.744   5.731   1.527  1.6365 -2.3496 -0.6045
 7190SOL    HW328493   5.789   5.682   1.664  1.6946 -0.7487 -0.0318
 7190SOL    MW428494   5.795   5.739   1.598 -0.2090 -0.1353  0.4125
 7191SOL     OW28495   1.276   4.890   1.290 -0.3385  0.3179 -0.1234
 7191SOL    HW228496   1.336   4.947   1.241  1.5266 -0.0394  1.5662
 7191SOL    HW328497   1.219   4.951   1.338  0.9789  0.8236  0.8901
 7191SOL    MW428498   1.277   4.906   1.290 -0.7263 -0.8902  0.0283
 7192SOL     OW28499   6.040   4.308   3.043 -0.0291 -0.1399  0.4223
 7192SOL    HW228500   6.100   4.380   3.061  0.0564 -0.2755  0.6966
 7192SOL    HW328501   6.094   4.244   2.996 -0.7272  1.0207 -2.1174
 7192SOL    MW428502   6.055   4.309   3.039  0.1662 -0.7145 -0.5298
 7193SOL     OW28503   5.953   3.823   4.839 -0.1394  0.9233 -0.0206
 7193SOL    HW228504   5.934   3.903   4.790 -1.6824  0.8347  0.3796
 7193SOL    HW328505   5.938   3.752   4.776 -1.5045  0.8398  0.3714
 7193SOL    MW428506   5.949   3.824   4.824 -0.1846 -0.6309  0.0051
 7194SOL     OW28507   3.549   0.472   5.683 -0.4514  0.1218 -0.4715
 7194SOL    HW228508   3.556   0.377   5.673 -1.0422 -0.1297  1.0960
 7194SOL    HW328509   3.623   0.495   5.739  1.2553  1.0345 -2.9415
 7194SOL    MW428510   3.560   0.463   5.689 -0.1879  0.8064 -0.1012
 7195SOL     OW28511   5.368   3.638   3.019 -0.0326  0.1455  0.5431
 7195SOL    HW228512   5.394   3.554   3.057  1.7182  0.3267 -0.1565
 7195SOL    HW328513   5.404   3.636   2.930 -2.2187  0.5882 -0.4103
 7195SOL    MW428514   5.376   3.626   3.012 -0.1360 -0.1725 -0.4375
 7196SOL     OW28515   5.503   3.761   5.969 -0.7724 -0.1215  0.2839
 7196SOL    HW228516   5.570   3.805   6.022 -2.1526  0.0616  1.9682
 7196SOL    HW328517   5.427   3.820   5.972 -1.5222 -1.0173 -0.3179
 7196SOL    MW428518   5.502   3.775   5.976  0.1955 -0.9827  0.2142
 7197SOL     OW28519   2.838   2.716   3.510  0.2134 -0.1658  0.3369
 7197SOL    HW228520   2.913   2.758   3.551 -0.1482  2.2046 -1.2145
 7197SOL    HW328521   2.764   2.740   3.565  0.0639  0.9533 -0.3304
 7197SOL    MW428522   2.838   2.724   3.522 -0.3549 -0.0276  0.3104
 7198SOL     OW28523   0.835   0.311   6.018  0.2993  0.0991  0.0277
 7198SOL    HW228524   0.837   0.369   6.094 -1.2112 -0.0083  0.1912
 7198SOL    HW328525   0.774   0.353   5.957  2.0000  0.5344 -1.4562
 7198SOL    MW428526   0.827   0.324   6.020  0.4184  0.1434 -0.4435
 7199SOL     OW28527   1.853   5.950   0.627 -0.2493  0.1976  0.4613
 7199SOL    HW228528   1.818   5.921   0.711 -0.2554 -0.6129  0.1819
 7199SOL    HW328529   1.920   6.015   0.650 -2.5304  2.5463  1.0031
 7199SOL    MW428530   1.857   5.955   0.641  0.3163  0.1588 -0.1151
 7200SOL     OW28531   4.263   4.586   3.041 -0.2807  0.4358 -0.6644
 7200SOL    HW228532   4.202   4.647   3.081  0.9478  0.6214  1.0500
 7200SOL    HW328533   4.348   4.629   3.047  0.6083 -1.3133  0.4812
 7200SOL    MW428534   4.266   4.599   3.047  0.3650  0.1517  0.1607
 7201SOL     OW28535   2.094   3.756   5.789  0.0375 -0.4788 -0.3610
 7201SOL    HW228536   2.111   3.812   5.865  1.6596  2.4267 -2.6423
 7201SOL    HW328537   2.005   3.778   5.763  0.9488  1.9013 -1.7501
 7201SOL    MW428538   2.085   3.767   5.796  0.1540 -0.0694 -0.2083
 7202SOL     OW28539   5.613   2.624   5.277  0.6557 -0.1668 -1.0323
 7202SOL    HW228540   5.611   2.690   5.208 -0.3737 -1.1433 -1.9833
 7202SOL    HW328541   5.597   2.541   5.231 -0.5147 -0.7892  0.4202
 7202SOL    MW428542   5.611   2.622   5.262  0.1916  0.4282  0.0739
 7203SOL     OW28543   4.557   5.544   6.404  0.2593  0.0193 -0.8014
 7203SOL    HW228544   4.506   5.577   6.478  1.6369 -0.4690  0.4351
 7203SOL    HW328545   4.529   5.597   6.330 -0.2244  1.4556  0.3501
 7203SOL    MW428546   4.547   5.556   6.404 -0.2939 -0.2562 -0.1234
 7204SOL     OW28547   0.813   2.834   0.168  0.2744  0.1638  0.1064
 7204SOL    HW228548   0.730   2.855   0.212  0.6787  0.7532  0.6107
 7204SOL    HW328549   0.867   2.794   0.236  0.7252  0.6166  0.0198
 7204SOL    MW428550   0.809   2.832   0.182  0.1946 -0.2608 -0.6068
 7205SOL     OW28551   0.334   6.080   1.936  0.0304 -0.1103  0.0949
 7205SOL    HW228552   0.292   6.007   1.982  0.2446 -1.0014 -1.0807
 7205SOL    HW328553   0.263   6.121   1.887  0.1179 -0.2425 -0.1443
 7205SOL    MW428554   0.319   6.076   1.935 -0.1155 -0.3882 -0.0121
 7206SOL     OW28555   0.698   1.730   3.770 -0.1398 -0.0884  0.1810
 7206SOL    HW228556   0.674   1.818   3.799 -1.6096 -0.3636 -0.0978
 7206SOL    HW328557   0.791   1.736   3.747  0.2072  0.9559  1.7480
 7206SOL    MW428558   0.707   1.743   3.771 -0.1386  0.0007 -0.2226
 7207SOL     OW28559   3.039   6.421   1.473 -0.1181 -0.5622 -0.5665
 7207SOL    HW228560   2.955   6.376   1.481  0.2929 -1.0890  1.1502
 7207SOL    HW328561   3.105   6.351   1.476  0.4531 -0.0082  0.2509
 7207SOL    MW428562   3.037   6.406   1.474  0.3580  0.3890  0.0294
 7208SOL     OW28563   5.216   0.233   2.817  0.8500 -0.0799  0.1228
 7208SOL    HW228564   5.174   0.155   2.780  1.8819 -0.2321 -0.7819
 7208SOL    HW328565   5.211   0.298   2.747  2.8003 -0.3578 -0.3294
 7208SOL    MW428566   5.210   0.231   2.803 -0.2553  0.9641 -0.2618
 7209SOL     OW28567   2.400   0.952   4.264 -0.1661  0.1267 -0.7819
 7209SOL    HW228568   2.318   0.999   4.283 -0.2946 -0.3784 -0.0297
 7209SOL    HW328569   2.465   1.021   4.258 -0.1178  0.3859  1.5930
 7209SOL    MW428570   2.397   0.967   4.266 -0.1860 -0.1363 -0.5002
 7210SOL     OW28571   2.800   4.519   1.448 -0.1293  0.3109  0.4879
 7210SOL    HW228572   2.783   4.515   1.542 -0.3630  3.9533  0.7198
 7210SOL    HW328573   2.757   4.441   1.413  0.4861 -1.4964  3.4169
 7210SOL    MW428574   2.792   4.508   1.456  1.0793  0.4865 -0.0378
 7211SOL     OW28575   2.712   6.171   1.140  0.4998 -0.4670 -0.5286
 7211SOL    HW228576   2.649   6.104   1.114 -0.0848 -0.1858  0.1433
 7211SOL    HW328577   2.678   6.206   1.222  2.0836 -1.0315  0.4025
 7211SOL    MW428578   2.699   6.167   1.147  0.2271 -0.3076 -0.0306
 7212SOL     OW28579   3.197   0.351   1.603 -0.3945 -0.1212 -0.2796
 7212SOL    HW228580   3.245   0.270   1.584 -1.7247 -0.9405 -0.2978
 7212SOL    HW328581   3.222   0.411   1.533  0.7331 -0.4538 -0.1773
 7212SOL    MW428582   3.206   0.348   1.591  0.2469 -0.1796  0.2407
 7213SOL     OW28583   2.374   3.756   6.039 -0.4554  0.3297  0.0949
 7213SOL    HW228584   2.446   3.818   6.027 -0.1946 -0.2336 -1.4753
 7213SOL    HW328585   2.295   3.808   6.028 -0.2405  0.4191 -1.1386
 7213SOL    MW428586   2.373   3.771   6.036 -0.3045  0.4293  0.5653
 7214SOL     OW28587   2.026   1.130   2.448  0.1757 -0.3086  0.3293
 7214SOL    HW228588   2.101   1.088   2.406 -0.1631 -0.5450 -0.0466
 7214SOL    HW328589   2.048   1.131   2.541  0.7763 -0.1037  0.1915
 7214SOL    MW428590   2.039   1.125   2.455  0.2187  0.0784 -0.0509
 7215SOL     OW28591   1.669   3.411   3.254 -0.4566 -0.3947 -0.1405
 7215SOL    HW228592   1.587   3.437   3.296 -0.2277  0.6934 -0.3372
 7215SOL    HW328593   1.721   3.374   3.325 -0.8329 -0.4024  0.1369
 7215SOL    MW428594   1.665   3.410   3.269  0.5142 -0.3192 -0.1213
 7216SOL     OW28595   2.938   5.672   3.573 -0.1107  0.2883  0.0993
 7216SOL    HW228596   2.852   5.651   3.609  0.7625  0.7269  2.6622
 7216SOL    HW328597   2.923   5.745   3.513 -1.6246 -0.2513 -0.2125
 7216SOL    MW428598   2.925   5.679   3.570 -0.2514  0.5889  0.4685
 7217SOL     OW28599   4.228   6.136   0.751  0.1750  0.1031  0.0491
 7217SOL    HW228600   4.189   6.217   0.718 -0.3876 -0.8103 -1.6795
 7217SOL    HW328601   4.298   6.165   0.810 -1.4771  1.7948  1.2827
 7217SOL    MW428602   4.232   6.151   0.754 -0.0014 -0.1806  0.2165
 7218SOL     OW28603   5.672   3.162   3.091 -0.0462  0.4998 -0.4113
 7218SOL    HW228604   5.588   3.120   3.111  1.7121 -1.7907  3.7861
 7218SOL    HW328605   5.705   3.190   3.177  3.2941  1.6362 -1.8980
 7218SOL    MW428606   5.665   3.160   3.105  0.6527  0.2377 -0.3069
 7219SOL     OW28607   6.190   3.024   5.916 -0.4756 -0.5054  0.4947
 7219SOL    HW228608   6.178   3.090   5.847 -0.5837 -0.8905  0.1412
 7219SOL    HW328609   6.106   2.979   5.921 -0.7939  0.1821  1.5815
 7219SOL    MW428610   6.177   3.027   5.907  0.6569 -1.1277  0.1930
 7220SOL     OW28611   2.085   0.833   2.593  0.5844  0.2173 -0.1973
 7220SOL    HW228612   2.026   0.778   2.645 -0.0798 -0.7751 -1.9130
 7220SOL    HW328613   2.160   0.776   2.575  0.3547  0.1978 -1.1344
 7220SOL    MW428614   2.087   0.818   2.597  0.0629  0.3698 -0.0731
 7221SOL     OW28615   1.347   2.624   3.143 -0.0324 -0.2466 -0.2066
 7221SOL    HW228616   1.437   2.600   3.166 -0.3273 -1.6400 -0.4178
 7221SOL    HW328617   1.293   2.564   3.193 -0.8710  0.8410  0.2157
 7221SOL    MW428618   1.352   2.613   3.152  0.0340  0.4942  0.5894
 7222SOL     OW28619   4.677   0.065   4.856 -0.3147  0.1739  0.2444
 7222SOL    HW228620   4.767   0.039   4.834 -1.2190 -1.7470 -1.6714
 7222SOL    HW328621   4.658   0.138   4.797  0.0540  0.7154  0.7956
 7222SOL    MW428622   4.686   0.071   4.845  0.6465 -0.2566  0.0905
 7223SOL     OW28623   3.760   5.050   0.125 -0.5415 -0.2972 -0.3354
 7223SOL    HW228624   3.779   5.051   0.031  1.8411  0.6869  0.0904
 7223SOL    HW328625   3.711   5.130   0.140  0.8582  0.6109 -0.4556
 7223SOL    MW428626   3.756   5.060   0.114  0.1273 -0.0848  0.2444
 7224SOL     OW28627   0.257   0.429   2.580  0.5155  0.4547  0.0280
 7224SOL    HW228628   0.232   0.337   2.583 -1.0307  0.8690  1.6363
 7224SOL    HW328629   0.197   0.472   2.640 -0.1867  2.8610 -2.2150
 7224SOL    MW428630   0.246   0.423   2.588 -0.0176  0.4399  0.2412
 7225SOL     OW28631   3.072   3.005   2.135  0.2364 -0.3668  0.6161
 7225SOL    HW228632   3.015   2.936   2.101  0.4565 -1.0916  1.6673
 7225SOL    HW328633   3.150   2.959   2.165 -0.1101  0.1577  2.4580
 7225SOL    MW428634   3.075   2.990   2.135  0.0461  0.2483 -0.4731
 7226SOL     OW28635   1.393   0.308   5.287  0.5128  0.3196 -0.3243
 7226SOL    HW228636   1.409   0.235   5.346 -1.3630 -1.0348 -1.3703
 7226SOL    HW328637   1.425   0.277   5.202  2.2869  1.8587 -0.2783
 7226SOL    MW428638   1.399   0.294   5.283  0.6601  0.0920  0.6564
 7227SOL     OW28639   3.863   6.102   4.350 -0.0151 -0.1900 -0.2844
 7227SOL    HW228640   3.888   6.009   4.355 -1.8873 -0.7072  0.1989
 7227SOL    HW328641   3.895   6.130   4.265  0.6759 -1.2613 -0.4042
 7227SOL    MW428642   3.871   6.093   4.339  0.2149  0.0390 -0.0719
 7228SOL     OW28643   5.227   2.980   0.713 -0.1738 -0.2553 -0.1007
 7228SOL    HW228644   5.135   2.992   0.735  0.1897 -0.4337  1.5897
 7228SOL    HW328645   5.272   3.054   0.755  0.7791 -1.6931  1.5120
 7228SOL    MW428646   5.221   2.992   0.721  0.0876  0.1440 -0.0923
 7229SOL     OW28647   5.004   1.239   2.105  0.0925 -0.0496 -0.1068
 7229SOL    HW228648   5.051   1.164   2.068  0.6274  0.8537 -1.3102
 7229SOL    HW328649   5.057   1.315   2.082 -0.4344  0.7209  1.1050
 7229SOL    MW428650   5.017   1.239   2.097 -0.1127 -0.3536  0.4780
 7230SOL     OW28651   1.447   4.120   5.378  0.3080 -0.3982 -0.2205
 7230SOL    HW228652   1.444   4.041   5.432 -1.6488 -0.7192 -0.7400
 7230SOL    HW328653   1.541   4.140   5.370  0.6903 -0.2306  3.3464
 7230SOL    MW428654   1.459   4.112   5.384  0.0939 -0.1829  0.4346
 7231SOL     OW28655   3.355   2.792   3.498  0.6894  0.2321  1.0510
 7231SOL    HW228656   3.328   2.708   3.534  1.9190  0.7240  3.2661
 7231SOL    HW328657   3.421   2.769   3.432  0.3620 -0.5488  0.9810
 7231SOL    MW428658   3.360   2.777   3.494  0.2681 -0.0935  0.6533
 7232SOL     OW28659   3.181   0.549   2.445 -0.0933 -0.4657  0.1380
 7232SOL    HW228660   3.272   0.571   2.466 -0.6798  2.8776 -0.2849
 7232SOL    HW328661   3.186   0.462   2.406  2.7171 -1.0242  1.4881
 7232SOL    MW428662   3.194   0.541   2.443  0.3730 -0.5036  0.1996
 7233SOL     OW28663   5.870   6.201   0.757 -0.2844 -0.3566 -0.0959
 7233SOL    HW228664   5.781   6.173   0.737 -1.3749  2.7964 -0.3365
 7233SOL    HW328665   5.924   6.162   0.690 -1.2792 -3.1056  0.5916
 7233SOL    MW428666   5.865   6.192   0.746 -0.1971  0.1607 -0.4389
 7234SOL     OW28667   3.739   5.415   0.509 -0.8091  0.2288  0.5045
 7234SOL    HW228668   3.700   5.372   0.586  0.0218 -0.1873  0.7109
 7234SOL    HW328669   3.824   5.447   0.541 -0.6975  0.5409 -0.1014
 7234SOL    MW428670   3.745   5.414   0.524  0.0802 -0.7968  0.0137
 7235SOL     OW28671   0.819   3.310   1.803 -0.0943 -0.1015  0.1600
 7235SOL    HW228672   0.822   3.372   1.731  0.9006 -0.0798  0.2047
 7235SOL    HW328673   0.769   3.355   1.871  1.9015  1.3298  0.7804
 7235SOL    MW428674   0.812   3.324   1.803 -0.1768 -0.0704 -0.4836
 7236SOL     OW28675   0.116   0.368   0.366  0.2582  0.1863  0.1328
 7236SOL    HW228676   0.092   0.363   0.274  1.0582  1.4605 -0.1768
 7236SOL    HW328677   0.057   0.307   0.410  0.1207 -0.7267 -1.2627
 7236SOL    MW428678   0.105   0.360   0.360 -0.0439  0.7282 -0.6283
 7237SOL     OW28679   3.842   3.502   2.981  0.6006  0.4321 -0.8095
 7237SOL    HW228680   3.891   3.455   2.914  0.3686 -2.3190  0.7923
 7237SOL    HW328681   3.781   3.437   3.017 -0.4567  2.2464  0.9260
 7237SOL    MW428682   3.840   3.488   2.977 -0.0135 -0.0448  0.0218
 7238SOL     OW28683   2.707   1.364   5.053 -0.1234 -0.2234  0.2630
 7238SOL    HW228684   2.673   1.309   5.123  2.9726 -0.8795  1.4112
 7238SOL    HW328685   2.688   1.315   4.973 -3.5109  0.4284  0.5220
 7238SOL    MW428686   2.700   1.350   5.052 -0.4453  0.0836 -0.1893
 7239SOL     OW28687   4.271   5.163   5.029  0.4505  0.0374  0.0379
 7239SOL    HW228688   4.324   5.241   5.048  0.4780  0.2344 -0.8019
 7239SOL    HW328689   4.328   5.089   5.050  1.1522  0.2486 -1.0983
 7239SOL    MW428690   4.285   5.164   5.035  0.0770 -0.0863 -0.3351
 7240SOL     OW28691   2.940   3.436   4.864  0.5455  0.1088  0.4672
 7240SOL    HW228692   3.027   3.468   4.839  0.7010 -0.7936 -0.2314
 7240SOL    HW328693   2.915   3.489   4.939  0.9166  1.6291 -0.4493
 7240SOL    MW428694   2.948   3.447   4.870 -0.1085  0.4856  0.5299
 7241SOL     OW28695   3.415   2.760   0.725 -0.4894 -0.4395 -0.2066
 7241SOL    HW228696   3.401   2.820   0.651  0.1966  0.3768  0.3041
 7241SOL    HW328697   3.340   2.775   0.782  0.2519  0.8345  0.4891
 7241SOL    MW428698   3.403   2.770   0.723 -0.7197  0.1547  0.5301
 7242SOL     OW28699   3.282   2.809   1.887 -0.1660 -0.1637 -0.1954
 7242SOL    HW228700   3.357   2.763   1.849  1.1136  1.8643 -0.3137
 7242SOL    HW328701   3.264   2.761   1.968  1.0531 -0.9202 -0.3373
 7242SOL    MW428702   3.290   2.796   1.893 -0.3162  0.5528 -0.7402
 7243SOL     OW28703   2.529   6.163   0.393 -0.0507  0.0189 -0.4671
 7243SOL    HW228704   2.610   6.192   0.352  0.4995  0.1493  0.6553
 7243SOL    HW328705   2.514   6.228   0.462 -1.2847  0.1706 -0.8620
 7243SOL    MW428706   2.538   6.176   0.397  0.0233  0.1208 -0.0778
 7244SOL     OW28707   2.122   1.534   1.238 -0.4504  0.2906 -0.6348
 7244SOL    HW228708   2.061   1.499   1.303 -0.8411 -1.5549 -1.8954
 7244SOL    HW328709   2.126   1.627   1.257 -1.0568 -0.0672  1.5887
 7244SOL    MW428710   2.114   1.541   1.249 -0.0282  0.3492  0.6493
 7245SOL     OW28711   5.346   0.360   2.162 -0.7386 -0.0756 -0.3010
 7245SOL    HW228712   5.374   0.400   2.080 -0.0861 -1.7288 -0.9366
 7245SOL    HW328713   5.386   0.273   2.161 -2.4284 -0.9192  0.8076
 7245SOL    MW428714   5.355   0.354   2.151  0.0283  0.4894  0.4536
 7246SOL     OW28715   2.434   3.633   4.692  0.2885  0.6211 -0.6056
 7246SOL    HW228716   2.358   3.689   4.710 -2.0111 -2.6040  0.7076
 7246SOL    HW328717   2.478   3.624   4.776 -0.4289 -0.8765 -0.3587
 7246SOL    MW428718   2.430   3.639   4.706  0.0361 -0.2701 -0.2733
 7247SOL     OW28719   6.018   3.218   1.617  0.1912 -0.3341  0.3750
 7247SOL    HW228720   6.099   3.257   1.649 -0.0376  1.0397 -0.6598
 7247SOL    HW328721   6.042   3.175   1.535 -0.0377 -0.3533  0.3169
 7247SOL    MW428722   6.032   3.217   1.611  0.1077 -0.1940 -0.4419
 7248SOL     OW28723   4.629   5.773   3.828 -0.3207  0.0113 -0.1198
 7248SOL    HW228724   4.556   5.724   3.790  1.1345 -0.1135 -3.0684
 7248SOL    HW328725   4.657   5.721   3.903 -1.3090 -1.5754 -0.8032
 7248SOL    MW428726   4.623   5.759   3.833  0.7358  0.1276 -0.1395
 7249SOL     OW28727   1.566   4.593   2.681 -0.1699  0.0419 -0.0161
 7249SOL    HW228728   1.602   4.611   2.768 -0.6659  2.1153 -0.2041
 7249SOL    HW328729   1.622   4.641   2.621 -0.5464 -0.4135 -0.7493
 7249SOL    MW428730   1.578   4.601   2.685 -0.4384 -0.1436  0.3255
 7250SOL     OW28731   2.876   1.534   4.548  0.3196 -0.4377 -0.6204
 7250SOL    HW228732   2.949   1.516   4.490  0.0166 -2.4132 -0.4705
 7250SOL    HW328733   2.865   1.453   4.599 -1.4501  0.0822 -0.0809
 7250SOL    MW428734   2.884   1.521   4.547  0.0092  0.2158  0.2354
 7251SOL     OW28735   6.134   4.871   1.919 -0.4039  0.7666 -0.4909
 7251SOL    HW228736   6.145   4.815   1.842  1.7204  1.6441 -0.8827
 7251SOL    HW328737   6.121   4.959   1.883  0.1737  1.1179  0.1500
 7251SOL    MW428738   6.134   4.875   1.904  0.0710 -0.2436 -0.0626
 7252SOL     OW28739   3.462   1.611   3.631  0.7567  0.2762  0.1677
 7252SOL    HW228740   3.412   1.537   3.596  0.8610  0.9266 -1.3918
 7252SOL    HW328741   3.516   1.571   3.700  0.5886 -1.0597 -0.4270
 7252SOL    MW428742   3.462   1.596   3.636 -0.4114 -0.2024 -0.3472
 7253SOL     OW28743   2.572   5.259   4.292  0.0368  0.0563 -0.1034
 7253SOL    HW228744   2.591   5.352   4.301  1.1431 -0.0649 -0.9211
 7253SOL    HW328745   2.539   5.249   4.202 -1.9588 -0.0707  0.6072
 7253SOL    MW428746   2.570   5.270   4.281 -0.3692 -0.7263  0.6469
 7254SOL     OW28747   6.154   6.147   4.357 -0.4656  0.4629  1.1647
 7254SOL    HW228748   6.069   6.174   4.392  0.2371  3.0713  1.0972
 7254SOL    HW328749   6.191   6.227   4.320  1.4583 -0.8882 -0.0353
 7254SOL    MW428750   6.148   6.161   4.357 -0.0192 -0.0200 -0.3636
 7255SOL     OW28751   0.196   1.840   2.804  0.3655  0.2423  0.6915
 7255SOL    HW228752   0.164   1.795   2.883  1.3594  0.9497  1.5294
 7255SOL    HW328753   0.244   1.915   2.838  2.3878 -0.4469 -0.5229
 7255SOL    MW428754   0.198   1.844   2.819  0.3242 -0.4855  0.1886
 7256SOL     OW28755   0.159   3.780   2.804 -0.4653  0.4205 -0.1167
 7256SOL    HW228756   0.073   3.821   2.795 -0.4045  0.1986 -2.0964
 7256SOL    HW328757   0.176   3.740   2.719  1.6489  0.5334  0.1921
 7256SOL    MW428758   0.150   3.780   2.792 -0.0666  0.0086 -0.6403
 7257SOL     OW28759   4.521   3.955   5.194  0.3708  0.0371  0.0727
 7257SOL    HW228760   4.593   3.908   5.151  1.5715  1.8176  0.0563
 7257SOL    HW328761   4.559   3.988   5.275 -1.1728 -1.1182  1.3257
 7257SOL    MW428762   4.535   3.953   5.199  0.2709  0.1630 -0.7674
 7258SOL     OW28763   6.248   5.782   5.331 -0.6219  0.2177 -0.0716
 7258SOL    HW228764   6.171   5.840   5.341 -1.5041 -0.5521 -1.9170
 7258SOL    HW328765   6.246   5.756   5.239  0.3927 -1.8754  0.4468
 7258SOL    MW428766   6.237   5.786   5.320  0.1674  0.5860 -0.2713
 7259SOL     OW28767   2.682   1.953   2.354 -0.0664  0.1292 -0.1108
 7259SOL    HW228768   2.676   1.936   2.261 -0.5534  0.7762 -0.2026
 7259SOL    HW328769   2.773   1.933   2.376  0.6562  2.0252 -1.1557
 7259SOL    MW428770   2.693   1.948   2.345  0.3781  0.0952 -0.0665
 7260SOL     OW28771   5.389   1.063   1.120  0.4745  0.2630 -0.3792
 7260SOL    HW228772   5.337   1.123   1.067  0.2869  0.4724  0.0367
 7260SOL    HW328773   5.479   1.095   1.111  0.4647  0.1993 -0.7023
 7260SOL    MW428774   5.394   1.075   1.112  0.6472 -0.2014  0.0401
 7261SOL     OW28775   2.546   3.765   2.617 -0.0765 -0.2815  0.5892
 7261SOL    HW228776   2.606   3.798   2.551  0.0594 -0.9817  0.3542
 7261SOL    HW328777   2.501   3.691   2.575  1.4860 -2.0775  1.8923
 7261SOL    MW428778   2.548   3.760   2.603 -0.2047 -0.3441  0.5580
 7262SOL     OW28779   2.655   5.371   3.644 -0.0835  0.2256 -0.2487
 7262SOL    HW228780   2.675   5.429   3.571  0.0270 -0.9814 -1.2005
 7262SOL    HW328781   2.598   5.423   3.701 -1.5479  0.6599 -2.0198
 7262SOL    MW428782   2.650   5.386   3.642 -0.0967 -0.0732 -0.9201
 7263SOL     OW28783   4.764   4.177   4.866 -0.2160 -0.7223  0.5894
 7263SOL    HW228784   4.693   4.202   4.926 -1.5681  0.7327 -1.4735
 7263SOL    HW328785   4.729   4.103   4.816 -0.7988  0.6863 -1.1874
 7263SOL    MW428786   4.750   4.171   4.867 -0.5187  0.1677  0.4571
 7264SOL     OW28787   5.898   2.720   3.723  0.3014  0.0522  0.1191
 7264SOL    HW228788   5.903   2.627   3.746 -1.9536 -0.0739  0.3125
 7264SOL    HW328789   5.986   2.754   3.742  0.6978 -1.6670  1.6785
 7264SOL    MW428790   5.911   2.712   3.729  0.0917 -0.6033 -0.3917
 7265SOL     OW28791   3.893   5.990   4.776 -0.1024 -0.5718  0.6332
 7265SOL    HW228792   3.943   6.066   4.806 -0.1423  0.9034 -2.6762
 7265SOL    HW328793   3.802   6.011   4.797  0.1675 -1.4649  3.0283
 7265SOL    MW428794   3.887   6.002   4.783 -0.5002 -0.1245  0.1544
 7266SOL     OW28795   5.986   6.314   1.991 -0.6281 -0.2258  0.3649
 7266SOL    HW228796   5.929   6.336   2.065 -1.2251 -1.9821  0.4741
 7266SOL    HW328797   6.075   6.313   2.029 -0.8515 -0.4308  0.8979
 7266SOL    MW428798   5.990   6.317   2.006 -0.1645 -0.2592 -0.7735
 7267SOL     OW28799   1.984   0.873   0.871 -0.2053 -0.1951  0.5886
 7267SOL    HW228800   1.986   0.961   0.908 -3.1479  0.8304 -1.3537
 7267SOL    HW328801   2.036   0.820   0.932  1.7184  2.8162  1.8092
 7267SOL    MW428802   1.991   0.877   0.884  0.1745 -0.1173  0.1676
 7268SOL     OW28803   4.361   2.306   3.317  0.9628  0.3705 -0.9861
 7268SOL    HW228804   4.303   2.319   3.242 -1.0288  0.1967  0.4443
 7268SOL    HW328805   4.419   2.235   3.289 -0.1853 -0.1715 -2.1323
 7268SOL    MW428806   4.361   2.298   3.303 -0.2484  0.1817 -0.6677
 7269SOL     OW28807   4.178   2.164   4.564 -0.6347  0.2370  0.1927
 7269SOL    HW228808   4.130   2.240   4.595 -1.6011  0.0100 -0.7032
 7269SOL    HW328809   4.176   2.171   4.468 -0.4954 -0.7554  0.1011
 7269SOL    MW428810   4.172   2.175   4.555 -0.7224 -0.6428  0.0129
 7270SOL     OW28811   1.725   5.208   4.392 -0.1978 -0.1388  0.1908
 7270SOL    HW228812   1.767   5.189   4.476  0.9004  0.0152 -0.3094
 7270SOL    HW328813   1.641   5.162   4.396 -0.6708  0.7844  1.8261
 7270SOL    MW428814   1.719   5.199   4.404 -0.1698 -0.7311  0.0943
 7271SOL     OW28815   4.817   5.054   4.847 -0.4385  0.0376  0.1990
 7271SOL    HW228816   4.823   4.993   4.774  0.8492 -1.4818  1.5024
 7271SOL    HW328817   4.880   5.124   4.825 -1.6718  0.7684 -1.1364
 7271SOL    MW428818   4.826   5.055   4.835  0.1707  0.0505  0.2386
 7272SOL     OW28819   6.167   2.505   0.482  0.3673  0.3540  0.1464
 7272SOL    HW228820   6.108   2.460   0.420  2.7051 -0.2685 -1.7826
 7272SOL    HW328821   6.137   2.596   0.481  0.1311  0.3072 -1.7334
 7272SOL    MW428822   6.155   2.511   0.473 -0.9106  0.0841 -0.2204
 7273SOL     OW28823   5.552   3.600   2.805  0.3862  0.6054 -0.0419
 7273SOL    HW228824   5.494   3.614   2.730 -0.8311 -0.8918  0.5674
 7273SOL    HW328825   5.569   3.506   2.805  1.7276  0.8179  0.6115
 7273SOL    MW428826   5.547   3.589   2.795  0.6136  0.5399 -0.0829
 7274SOL     OW28827   1.685   0.208   2.444  0.4404 -0.3485 -0.3562
 7274SOL    HW228828   1.740   0.132   2.461  1.4086  0.2262 -0.8190
 7274SOL    HW328829   1.648   0.192   2.357 -0.8475 -1.1438  0.3168
 7274SOL    MW428830   1.688   0.196   2.434 -0.0220 -0.5021  0.1203
 7275SOL     OW28831   4.100   5.458   4.567 -0.7906 -0.0226  0.3645
 7275SOL    HW228832   4.164   5.450   4.637  1.1060 -0.0883 -1.2935
 7275SOL    HW328833   4.016   5.447   4.610  0.2137  1.1878  2.8202
 7275SOL    MW428834   4.097   5.455   4.582  0.4990 -0.0079 -0.7189
 7276SOL     OW28835   3.609   0.296   3.537  0.1340  0.5709  0.2530
 7276SOL    HW228836   3.673   0.366   3.523  0.7382 -0.4039 -2.7112
 7276SOL    HW328837   3.536   0.319   3.480 -0.4320 -0.3104  0.6093
 7276SOL    MW428838   3.608   0.308   3.527  0.0442 -0.1335 -0.2120
 7277SOL     OW28839   2.962   3.273   1.166  0.1027  0.6301  0.3307
 7277SOL    HW228840   2.966   3.315   1.252  1.0271  0.1330  0.5410
 7277SOL    HW328841   3.021   3.324   1.111  1.7238 -0.7070  0.7488
 7277SOL    MW428842   2.970   3.285   1.170  0.1073  0.9264 -0.0223
 7278SOL     OW28843   0.743   3.951   1.144  0.4487 -0.6453  0.6891
 7278SOL    HW228844   0.653   3.983   1.141  0.7969  0.4518  1.6020
 7278SOL    HW328845   0.780   3.975   1.059  0.0780 -0.5142  0.5618
 7278SOL    MW428846   0.736   3.958   1.132 -1.0562 -0.6328  0.0573
 7279SOL     OW28847   0.388   0.338   2.821 -0.0653  0.0481  0.1783
 7279SOL    HW228848   0.465   0.281   2.816  0.7663  1.1461  0.1934
 7279SOL    HW328849   0.396   0.396   2.746 -1.6661 -0.7377 -0.6521
 7279SOL    MW428850   0.399   0.338   2.811 -0.0568 -0.0102 -0.1937
 7280SOL     OW28851   1.409   0.863   2.303  0.1085 -0.4111 -0.5628
 7280SOL    HW228852   1.345   0.935   2.306 -1.1286 -1.4032 -2.0503
 7280SOL    HW328853   1.417   0.835   2.395 -0.3884  0.7408 -0.1422
 7280SOL    MW428854   1.402   0.869   2.316 -0.0986  0.3610 -0.2276
 7281SOL     OW28855   5.662   2.472   3.002 -0.1043 -0.0908  0.1809
 7281SOL    HW228856   5.748   2.430   3.013 -0.5464 -1.0211  0.2141
 7281SOL    HW328857   5.615   2.450   3.082 -0.6864 -0.3706 -0.2319
 7281SOL    MW428858   5.667   2.463   3.014  0.1941  0.1288  0.0129
 7282SOL     OW28859   2.337   5.802   3.642  0.2352  0.3577 -0.7154
 7282SOL    HW228860   2.347   5.852   3.722 -0.5038  0.7223 -0.8393
 7282SOL    HW328861   2.377   5.717   3.661  0.9957  0.7970 -0.3193
 7282SOL    MW428862   2.344   5.797   3.655  0.0011 -0.4580  0.8356
 7283SOL     OW28863   5.677   1.500   1.053 -0.0610  0.2960  0.5018
 7283SOL    HW228864   5.713   1.454   1.129  1.4993  1.1647  0.3244
 7283SOL    HW328865   5.688   1.438   0.981 -0.7555 -0.1970  0.8049
 7283SOL    MW428866   5.683   1.485   1.054 -0.2053 -0.2323  0.3061
 7284SOL     OW28867   3.027   1.782   4.618 -0.0991  0.4154  0.1750
 7284SOL    HW228868   3.074   1.857   4.656 -0.2027 -1.2454  4.0732
 7284SOL    HW328869   2.943   1.819   4.590  0.9769  2.2463 -0.8842
 7284SOL    MW428870   3.022   1.797   4.619 -0.4146 -0.7172  0.2665
 7285SOL     OW28871   4.652   1.858   5.331  0.3640  0.6878  0.6704
 7285SOL    HW228872   4.565   1.821   5.343  0.2286  0.0376 -1.8852
 7285SOL    HW328873   4.700   1.831   5.410 -1.4266  0.2117  1.6571
 7285SOL    MW428874   4.647   1.849   5.343 -0.5446  0.4905  0.3089
 7286SOL     OW28875   4.844   3.186   3.263  0.2329 -0.0860 -0.6651
 7286SOL    HW228876   4.824   3.273   3.229 -1.5843 -1.1145 -2.4542
 7286SOL    HW328877   4.778   3.171   3.330  0.8642  0.0814  0.0088
 7286SOL    MW428878   4.833   3.195   3.267 -0.2140 -0.1857 -0.3167
 7287SOL     OW28879   0.581   4.740   3.001  0.7251  0.2446 -0.4797
 7287SOL    HW228880   0.519   4.731   2.928 -0.1663  0.4592  0.2244
 7287SOL    HW328881   0.568   4.830   3.032  1.2507  0.2257 -0.1971
 7287SOL    MW428882   0.571   4.751   2.996 -0.0252 -0.1100 -0.3489
 7288SOL     OW28883   2.180   5.738   1.481 -0.6147 -0.0621  0.1212
 7288SOL    HW228884   2.257   5.743   1.538 -1.4730 -1.1001  1.4231
 7288SOL    HW328885   2.175   5.824   1.439  1.0178  0.1515  0.3078
 7288SOL    MW428886   2.190   5.750   1.483 -0.6813 -0.0190 -0.4551
 7289SOL     OW28887   1.603   5.046   3.853 -0.1478  0.8089 -0.2706
 7289SOL    HW228888   1.526   5.009   3.897 -0.2823  0.3909 -0.8427
 7289SOL    HW328889   1.642   4.972   3.807  1.2227  0.7912  0.8866
 7289SOL    MW428890   1.598   5.032   3.853  0.3005 -0.1188 -0.1422
 7290SOL     OW28891   5.598   3.632   4.936 -0.2473 -0.1113  0.2545
 7290SOL    HW228892   5.673   3.669   4.983 -1.0565  0.1472  1.4011
 7290SOL    HW328893   5.581   3.549   4.980  0.2998 -0.9083 -0.9977
 7290SOL    MW428894   5.606   3.626   4.948  0.3141  0.0514 -0.3734
 7291SOL     OW28895   1.544   5.529   3.037  0.0328 -0.0525  0.2293
 7291SOL    HW228896   1.504   5.520   3.123  0.8745 -0.3837  0.5955
 7291SOL    HW328897   1.593   5.448   3.024  2.3655  1.1598  0.7438
 7291SOL    MW428898   1.545   5.517   3.046 -0.0465  0.3486  0.4677
 7292SOL     OW28899   1.630   6.324   2.734 -0.3625  0.0680  0.6304
 7292SOL    HW228900   1.544   6.362   2.716  0.4512  2.4238  1.3997
 7292SOL    HW328901   1.679   6.338   2.653 -0.2603  0.0048  0.6820
 7292SOL    MW428902   1.625   6.331   2.721  0.3678 -0.3496 -0.6225
 7293SOL     OW28903   4.426   2.732   3.948 -0.1716 -0.3599 -0.5119
 7293SOL    HW228904   4.430   2.765   4.038 -0.0457 -1.8043  0.0308
 7293SOL    HW328905   4.365   2.659   3.952  0.3141 -0.8318 -1.4758
 7293SOL    MW428906   4.419   2.727   3.960 -0.1498  0.4701 -0.7185
 7294SOL     OW28907   3.840   1.972   2.066 -0.1072 -0.4614 -0.1226
 7294SOL    HW228908   3.933   1.987   2.052 -0.1670 -0.7173 -0.8448
 7294SOL    HW328909   3.799   2.055   2.039 -0.1323 -0.5586 -0.3888
 7294SOL    MW428910   3.847   1.985   2.061 -0.1047 -0.0507  0.0210
 7295SOL     OW28911   1.902   3.144   5.700 -0.2660  0.1913 -0.0363
 7295SOL    HW228912   1.910   3.129   5.794 -1.1761 -0.4309 -0.0519
 7295SOL    HW328913   1.811   3.170   5.687  0.2525  1.8873 -0.5451
 7295SOL    MW428914   1.891   3.146   5.710 -0.8014 -0.2243 -0.2955
 7296SOL     OW28915   3.364   2.680   5.454 -0.4013  0.3161 -0.3403
 7296SOL    HW228916   3.354   2.739   5.380  0.4596  1.4569  0.4244
 7296SOL    HW328917   3.313   2.721   5.524 -0.3013 -0.1749  0.0240
 7296SOL    MW428918   3.356   2.693   5.453 -0.8007  0.5929  0.0030
 7297SOL     OW28919   4.477   0.681  -0.026 -0.2728 -0.1453 -0.4114
 7297SOL    HW228920   4.514   0.672   0.062 -1.6846  1.7465  0.4446
 7297SOL    HW328921   4.535   0.743  -0.071 -0.6478  0.4285 -0.1171
 7297SOL    MW428922   4.489   0.688  -0.021 -0.3222 -0.2208  0.3598
 7298SOL     OW28923   4.815   3.066   0.167 -0.1637  0.6223  0.0372
 7298SOL    HW228924   4.872   3.028   0.234  0.6772  0.2299 -0.8733
 7298SOL    HW328925   4.769   3.137   0.212  0.5631  0.5254  0.9638
 7298SOL    MW428926   4.816   3.070   0.182 -0.4171 -0.3305 -0.2725
 7299SOL     OW28927   0.254   3.603   5.186 -0.4336 -0.1352 -0.0123
 7299SOL    HW228928   0.175   3.656   5.190 -1.2923 -1.4648  2.8762
 7299SOL    HW328929   0.225   3.514   5.203  1.3495 -1.2028 -1.9363
 7299SOL    MW428930   0.240   3.598   5.188 -0.0326 -0.4068  0.1307
 7300SOL     OW28931   5.297   2.916   0.454 -0.3255 -0.0521 -0.5592
 7300SOL    HW228932   5.237   2.850   0.420  2.8701 -2.8440 -1.3315
 7300SOL    HW328933   5.275   2.924   0.546 -1.4456 -1.5130 -0.6682
 7300SOL    MW428934   5.286   2.908   0.461 -0.2882 -0.2835 -0.0718
 7301SOL     OW28935   0.227   4.415   4.991  0.1807  0.0812  0.7918
 7301SOL    HW228936   0.243   4.362   5.069  0.6871  1.6616  1.8113
 7301SOL    HW328937   0.147   4.379   4.954  0.3446 -1.1982  1.5942
 7301SOL    MW428938   0.219   4.403   4.997  0.2374  0.5302 -0.3766
 7302SOL     OW28939   4.148   1.604   3.005  0.0851  0.3198  0.5405
 7302SOL    HW228940   4.072   1.618   3.062  0.7081  0.4019  1.3765
 7302SOL    HW328941   4.196   1.687   3.009  0.3156  0.2084  0.1596
 7302SOL    MW428942   4.144   1.617   3.013  0.2086  0.4474 -0.2382
 7303SOL     OW28943   1.070   0.447   5.615  0.1116 -0.3139 -0.4499
 7303SOL    HW228944   1.135   0.435   5.684 -0.3862 -1.5428 -0.1631
 7303SOL    HW328945   1.121   0.442   5.534  0.2593 -2.4683 -0.2731
 7303SOL    MW428946   1.086   0.445   5.614  0.1330 -0.2784  0.1416
 7304SOL     OW28947   4.338   0.179   4.972  0.5130  0.3473 -0.2132
 7304SOL    HW228948   4.392   0.243   4.926  1.7553 -0.8761 -0.5289
 7304SOL    HW328949   4.320   0.112   4.907 -0.8642  0.3974  0.0850
 7304SOL    MW428950   4.343   0.179   4.957 -0.2256  0.5890  0.2063
 7305SOL     OW28951   0.870   5.668   2.940 -0.2888 -0.7910  0.1472
 7305SOL    HW228952   0.868   5.734   3.010  0.6606 -1.0308  0.4206
 7305SOL    HW328953   0.933   5.702   2.877 -0.2721 -1.1347 -0.0249
 7305SOL    MW428954   0.878   5.681   2.941 -0.4930 -0.0424  0.0558
 7306SOL     OW28955   4.443   2.689   4.414 -0.1896 -0.0645  0.5050
 7306SOL    HW228956   4.499   2.653   4.483  1.1278  0.4039 -0.2663
 7306SOL    HW328957   4.415   2.774   4.448 -1.4945 -0.8120  1.4074
 7306SOL    MW428958   4.447   2.695   4.428  1.0495 -0.1611 -0.2282
 7307SOL     OW28959   3.295   0.566   3.520 -0.2932  0.4377 -0.3284
 7307SOL    HW228960   3.315   0.542   3.429 -0.3037  2.3141 -0.8646
 7307SOL    HW328961   3.370   0.618   3.548 -1.0253  1.2385  0.1741
 7307SOL    MW428962   3.307   0.570   3.511  0.6613 -0.2020  0.9438
 7308SOL     OW28963   6.165   0.264   0.113 -0.2613  0.4046 -0.2506
 7308SOL    HW228964   6.127   0.341   0.072  1.4364  0.7066 -1.3385
 7308SOL    HW328965   6.145   0.192   0.053 -0.3994  0.2968 -0.0768
 7308SOL    MW428966   6.157   0.265   0.100  1.1948 -0.6726  0.3233
 7309SOL     OW28967   5.212   5.119   4.470  1.2183 -0.4032 -0.9300
 7309SOL    HW228968   5.255   5.039   4.502 -1.8815 -0.8736  2.7709
 7309SOL    HW328969   5.130   5.087   4.431  0.6847  0.8459 -0.8664
 7309SOL    MW428970   5.207   5.104   4.469 -0.2809 -0.8021 -0.1146
 7310SOL     OW28971   0.810   6.014   1.854  0.2353  0.0622  0.1220
 7310SOL    HW228972   0.847   5.927   1.873  0.8028  0.4506  0.8176
 7310SOL    HW328973   0.718   5.996   1.835  0.8828 -1.0191 -2.4003
 7310SOL    MW428974   0.803   6.000   1.854  0.1267 -0.4244 -0.6530
 7311SOL     OW28975   3.375   1.114   0.803  0.2710  0.3070  0.2233
 7311SOL    HW228976   3.394   1.053   0.874 -1.4990  0.4824  0.9043
 7311SOL    HW328977   3.390   1.200   0.841  1.3250  0.3464 -0.2710
 7311SOL    MW428978   3.379   1.117   0.817  0.1906  0.3326 -0.0979
 7312SOL     OW28979   0.078   3.817   1.293 -0.0725  0.1893  0.3629
 7312SOL    HW228980   0.065   3.912   1.294 -2.5654 -0.0607 -0.3925
 7312SOL    HW328981   0.089   3.793   1.385  0.4030  1.1708  0.5779
 7312SOL    MW428982   0.078   3.826   1.305  0.0467  0.3588 -0.6345
 7313SOL     OW28983   5.750   2.707   6.386 -0.2072 -0.3012  0.3293
 7313SOL    HW228984   5.824   2.672   6.435 -0.0670 -0.6740 -0.1402
 7313SOL    HW328985   5.700   2.630   6.359  0.5621 -0.2404 -1.4389
 7313SOL    MW428986   5.754   2.693   6.389  0.2657  0.4630 -0.3499
 7314SOL     OW28987   2.789   3.579   0.246 -0.0405  0.0486 -0.9173
 7314SOL    HW228988   2.708   3.628   0.232  0.1270 -0.2258 -3.2015
 7314SOL    HW328989   2.858   3.639   0.217  0.6050  0.1752  0.7489
 7314SOL    MW428990   2.788   3.594   0.241  0.4346 -0.0422  0.1723
 7315SOL     OW28991   2.538   4.163   0.978  0.6162  0.4778 -0.4031
 7315SOL    HW228992   2.540   4.069   0.963 -2.0529 -0.0740  1.7667
 7315SOL    HW328993   2.543   4.202   0.891  0.8233 -1.7052 -1.4203
 7315SOL    MW428994   2.539   4.156   0.965 -0.3128 -0.1429 -0.0049
 7316SOL     OW28995   5.784   5.185   5.320  0.0940 -0.0096  0.0610
 7316SOL    HW228996   5.827   5.219   5.398 -1.3293 -0.6141  1.1339
 7316SOL    HW328997   5.836   5.220   5.247  1.1888  0.9125  1.2485
 7316SOL    MW428998   5.797   5.194   5.321  0.3496  0.2135 -0.4360
 7317SOL     OW28999   0.477   2.332   0.083  0.6570 -0.2202  0.6272
 7317SOL    HW229000   0.458   2.425   0.088  1.2636  0.2820 -3.2079
 7317SOL    HW329001   0.433   2.303   0.003  2.4724 -2.6540  0.3969
 7317SOL    MW429002   0.469   2.340   0.073  0.0377 -0.4034  0.5764
 7318SOL     OW29003   3.016   2.569   2.599 -0.3112  0.2191 -0.1761
 7318SOL    HW229004   2.931   2.612   2.588 -0.3387  0.6309  1.3984
 7318SOL    HW329005   3.080   2.640   2.594 -0.0882 -0.0231 -0.8638
 7318SOL    MW429006   3.013   2.584   2.597 -0.1370 -0.3303 -0.6245
 7319SOL     OW29007   2.518   6.219   6.378 -0.3922  0.0848  0.0550
 7319SOL    HW229008   2.480   6.289   6.431  1.2952 -1.3189  3.4869
 7319SOL    HW329009   2.467   6.142   6.401 -0.2948 -0.3941 -1.2884
 7319SOL    MW429010   2.506   6.218   6.388 -0.2478  0.3749 -0.3353
 7320SOL     OW29011   1.133   3.190   3.046 -0.3751  0.7669  0.0877
 7320SOL    HW229012   1.065   3.156   3.106  0.3505  0.2284  0.6272
 7320SOL    HW329013   1.111   3.152   2.961 -1.2308  1.2741  0.0712
 7320SOL    MW429014   1.121   3.180   3.043 -0.3304  0.2145  0.1708
 7321SOL     OW29015   5.630   3.285   0.026  0.1634  0.0567 -0.3748
 7321SOL    HW229016   5.611   3.291   0.119 -2.1723  0.4635 -0.8125
 7321SOL    HW329017   5.695   3.215   0.018 -1.0651 -1.3533  1.3735
 7321SOL    MW429018   5.636   3.277   0.037 -0.4726 -0.2154 -0.2746
 7322SOL     OW29019   2.653   1.912   3.951  0.0759 -0.6232  0.3441
 7322SOL    HW229020   2.737   1.871   3.933  1.3121  1.2871  1.5086
 7322SOL    HW329021   2.623   1.944   3.866  1.8712  1.0533  0.2832
 7322SOL    MW429022   2.660   1.911   3.938 -0.0854  0.2009 -0.0338
 7323SOL     OW29023   6.229   0.683   1.974  0.1544 -0.0526 -0.2858
 7323SOL    HW229024   6.286   0.693   2.050  0.2080  0.0995 -0.3461
 7323SOL    HW329025   6.234   0.768   1.929 -0.6298  0.1965  0.0705
 7323SOL    MW429026   6.237   0.696   1.978 -0.1805  0.0464  1.2027
 7324SOL     OW29027   2.243   3.692   1.616 -0.5005  0.1591 -0.2611
 7324SOL    HW229028   2.273   3.770   1.661 -2.3342  0.9790 -0.3881
 7324SOL    HW329029   2.210   3.723   1.532  0.8733 -1.0771 -1.3209
 7324SOL    MW429030   2.243   3.706   1.611  0.4147  0.2505  0.1690
 7325SOL     OW29031   1.786   3.211   3.414  0.3270  0.5104 -0.5069
 7325SOL    HW229032   1.725   3.143   3.443 -1.0517  1.4910 -1.0209
 7325SOL    HW329033   1.848   3.165   3.356  0.6536 -0.6692  0.7432
 7325SOL    MW429034   1.786   3.196   3.410 -0.3386  0.4346 -0.0638
 7326SOL     OW29035   4.926   1.562   5.188 -0.4730  0.0818  0.1194
 7326SOL    HW229036   4.893   1.651   5.174 -1.4965 -0.6590 -2.8792
 7326SOL    HW329037   5.019   1.567   5.164 -0.1841  0.5795  1.2693
 7326SOL    MW429038   4.934   1.574   5.183 -0.3337 -0.3853 -0.8179
 7327SOL     OW29039   6.087   4.746   2.934  0.3943 -0.4334  0.3380
 7327SOL    HW229040   6.087   4.761   2.839  1.1150  3.9785  0.8012
 7327SOL    HW329041   5.994   4.750   2.958  0.1419 -2.2775 -0.1569
 7327SOL    MW429042   6.074   4.749   2.925 -0.2510 -0.0411 -0.5187
 7328SOL     OW29043   4.346   6.107   1.406  0.8023 -0.3463  0.3672
 7328SOL    HW229044   4.274   6.169   1.397  0.0904 -1.1015  0.6907
 7328SOL    HW329045   4.336   6.047   1.332  1.5993  0.0196 -0.0562
 7328SOL    MW429046   4.335   6.107   1.395 -0.3211  0.4995  0.7044
 7329SOL     OW29047   6.323   5.181   4.321 -0.2277  0.3585  0.0114
 7329SOL    HW229048   6.363   5.266   4.339  1.7030 -0.7187  1.1855
 7329SOL    HW329049   6.266   5.165   4.397  0.9128 -0.1971  0.7870
 7329SOL    MW429050   6.321   5.190   4.334 -0.0331  0.1086 -0.0160
 7330SOL     OW29051   0.995   1.653   6.269  0.2143  0.0913 -0.0651
 7330SOL    HW229052   0.902   1.668   6.250 -0.3986 -1.5149  1.3952
 7330SOL    HW329053   1.031   1.740   6.287 -1.0008  0.7282 -0.6106
 7330SOL    MW429054   0.988   1.666   6.269 -0.3781  0.5452  0.1413
 7331SOL     OW29055   5.966   6.347   5.912  0.4805  0.1572  0.3717
 7331SOL    HW229056   6.035   6.309   5.857  1.4729  1.0911  0.9220
 7331SOL    HW329057   5.993   6.326   6.002  0.1803  0.7299  0.6008
 7331SOL    MW429058   5.979   6.339   5.917 -0.6935  0.0194 -0.2439
 7332SOL     OW29059   5.082   2.860   2.986  0.0826 -0.4696  0.2272
 7332SOL    HW229060   5.168   2.828   2.957  0.1856 -0.4780  0.5333
 7332SOL    HW329061   5.019   2.800   2.946  0.0953  0.5491 -1.4285
 7332SOL    MW429062   5.085   2.848   2.977 -0.8798  0.5863  0.2210
 7333SOL     OW29063   2.276   4.568   2.926 -0.2816 -0.4376  0.0653
 7333SOL    HW229064   2.330   4.502   2.970 -0.2182 -0.0435  0.5808
 7333SOL    HW329065   2.313   4.575   2.839  2.1086  1.6197  1.1353
 7333SOL    MW429066   2.288   4.560   2.921 -0.6104 -0.2646  0.0747
 7334SOL     OW29067   5.046   5.177   5.798  0.7416  0.4876  0.5656
 7334SOL    HW229068   4.991   5.106   5.831 -0.5497  1.3413  0.3122
 7334SOL    HW329069   5.121   5.180   5.858  0.6564 -0.8744  0.7582
 7334SOL    MW429070   5.049   5.168   5.810 -0.3735 -0.1924  0.2980
 7335SOL     OW29071   3.961   3.626   3.578  0.2776  0.5407 -0.1028
 7335SOL    HW229072   3.972   3.679   3.499  1.2238 -0.8879 -0.9919
 7335SOL    HW329073   3.869   3.599   3.576 -0.2300  2.1504  0.4051
 7335SOL    MW429074   3.950   3.629   3.567 -0.0856  0.4757 -0.0786
 7336SOL     OW29075   6.126   1.412   4.896  0.5338 -0.6391 -0.2693
 7336SOL    HW229076   6.137   1.478   4.827  2.1347 -1.2822 -0.6929
 7336SOL    HW329077   6.215   1.377   4.909  0.0763 -1.2606  1.3947
 7336SOL    MW429078   6.139   1.416   4.888 -0.0211 -0.0933  0.7982
 7337SOL     OW29079   4.817   0.172   2.382 -0.3732  0.0657  0.6944
 7337SOL    HW229080   4.728   0.207   2.378 -0.4233  0.0860  1.7075
 7337SOL    HW329081   4.840   0.153   2.291 -2.1810 -1.7998  0.5403
 7337SOL    MW429082   4.808   0.174   2.370 -0.6157  0.1963  0.7496
 7338SOL     OW29083   4.490   4.838   2.995  0.2123  0.0515  0.6999
 7338SOL    HW229084   4.577   4.810   2.967  1.1000  1.4678  1.9108
 7338SOL    HW329085   4.468   4.911   2.937  0.1859  0.2053  0.9011
 7338SOL    MW429086   4.498   4.844   2.984  0.2282 -0.0905  0.5502
 7339SOL     OW29087   1.183   3.642   5.088  0.0374 -0.4775  0.4575
 7339SOL    HW229088   1.137   3.575   5.037 -2.3156  2.1345 -1.1503
 7339SOL    HW329089   1.191   3.716   5.028  3.1535  0.5249  1.9273
 7339SOL    MW429090   1.178   3.643   5.073  0.3748 -0.3994  0.3682
 7340SOL     OW29091   3.049   6.034   4.552  0.0314 -0.0510  0.1132
 7340SOL    HW229092   3.114   6.035   4.622  1.7964 -1.0409 -1.4592
 7340SOL    HW329093   2.966   6.017   4.598  0.5809  2.3824  2.3057
 7340SOL    MW429094   3.046   6.032   4.568 -0.4067  0.4271  0.7979
 7341SOL     OW29095   5.731   0.405   3.501  0.7299  0.3836 -0.4985
 7341SOL    HW229096   5.649   0.438   3.464  0.6110  0.2489 -0.3581
 7341SOL    HW329097   5.745   0.456   3.580 -0.8643 -1.6652  1.2214
 7341SOL    MW429098   5.722   0.416   3.506 -1.0136  0.1219  0.2549
 7342SOL     OW29099   2.331   2.308   1.169 -0.1148 -0.2832 -0.2478
 7342SOL    HW229100   2.418   2.318   1.209 -0.2739 -0.5607  0.1838
 7342SOL    HW329101   2.281   2.383   1.201 -0.6428 -1.1911  1.1892
 7342SOL    MW429102   2.336   2.319   1.179  0.0034 -0.0726  0.1764
 7343SOL     OW29103   4.635   2.318   0.531  0.6468  0.2305  0.3616
 7343SOL    HW229104   4.543   2.329   0.554  0.9437  0.7417  1.3798
 7343SOL    HW329105   4.671   2.263   0.601  0.8534 -0.9957 -0.6849
 7343SOL    MW429106   4.628   2.312   0.544  0.3955 -0.1835  0.0221
 7344SOL     OW29107   0.960   4.606   3.460 -0.2114  0.1041  0.1062
 7344SOL    HW229108   0.882   4.635   3.412 -0.3760  0.3974  0.5364
 7344SOL    HW329109   1.031   4.659   3.426 -0.3465  0.3821  0.2559
 7344SOL    MW429110   0.959   4.617   3.449  0.1710  0.4219  0.2248
 7345SOL     OW29111   3.895   2.419   1.262  0.2629  0.3328 -0.1411
 7345SOL    HW229112   3.959   2.428   1.191  1.3297  1.4196  0.9221
 7345SOL    HW329113   3.945   2.436   1.342 -1.3736  1.3555  0.7168
 7345SOL    MW429114   3.910   2.422   1.263 -0.5717  1.0622  1.2261
 7346SOL     OW29115   5.925   4.618   2.520 -0.1084  0.1982  0.2737
 7346SOL    HW229116   5.909   4.631   2.427 -1.1488 -0.3247  0.3610
 7346SOL    HW329117   5.837   4.616   2.559  0.3100  0.3666  1.2551
 7346SOL    MW429118   5.911   4.620   2.513 -0.6444  0.5068  0.5259
 7347SOL     OW29119   1.549   1.054   2.104 -0.0175 -0.9268  0.3404
 7347SOL    HW229120   1.478   1.011   2.056  1.9096 -1.8079 -1.9143
 7347SOL    HW329121   1.534   1.030   2.195 -3.1877 -0.1746  0.1277
 7347SOL    MW429122   1.538   1.045   2.109 -0.6553  0.1330 -0.3350
 7348SOL     OW29123   4.659   3.639   3.450 -0.4509  0.2587  0.1339
 7348SOL    HW229124   4.740   3.690   3.457  1.0047 -1.1856 -3.4734
 7348SOL    HW329125   4.590   3.704   3.439  0.9570  1.5730 -1.5423
 7348SOL    MW429126   4.661   3.654   3.449  0.5072  0.6497 -0.0982
 7349SOL     OW29127   1.946   3.101   5.965  0.0710 -0.0905 -0.5664
 7349SOL    HW229128   1.909   3.164   6.027  1.3630 -0.5947  0.7824
 7349SOL    HW329129   1.924   3.015   6.002  3.2892 -0.4444  0.8777
 7349SOL    MW429130   1.938   3.098   5.978 -0.4827  0.0313  0.3171
 7350SOL     OW29131   2.126   5.065   3.378 -1.2400  0.1237  0.3617
 7350SOL    HW229132   2.141   4.996   3.443 -0.6798 -0.4879 -0.3970
 7350SOL    HW329133   2.198   5.055   3.315 -0.6872  1.9007  0.6414
 7350SOL    MW429134   2.137   5.055   3.379 -0.6240  0.0893  0.2799
 7351SOL     OW29135   4.310   2.031   2.303  0.3260 -0.0251  0.1580
 7351SOL    HW229136   4.357   1.980   2.369 -2.3809 -2.5087  0.3818
 7351SOL    HW329137   4.329   2.122   2.325  1.6970 -0.8182  2.6546
 7351SOL    MW429138   4.319   2.036   2.315 -0.2692 -0.3969 -0.4722
 7352SOL     OW29139   2.883   5.928   2.329 -0.1234  1.0057 -0.0497
 7352SOL    HW229140   2.937   5.978   2.391  0.4618 -1.7623  1.8691
 7352SOL    HW329141   2.838   5.863   2.384 -0.9266 -0.4758 -2.3405
 7352SOL    MW429142   2.884   5.926   2.345  0.3521 -0.3896  0.4786
 7353SOL     OW29143   3.474   1.334   6.143 -0.1156  0.1382  0.5270
 7353SOL    HW229144   3.541   1.297   6.086 -0.2543 -0.3792  0.6920
 7353SOL    HW329145   3.419   1.387   6.085  0.2797  0.3510  0.3453
 7353SOL    MW429146   3.475   1.336   6.128  0.2017 -0.1489  0.5322
 7354SOL     OW29147   0.476   3.391   1.685  0.0759 -0.0272  0.5204
 7354SOL    HW229148   0.548   3.436   1.641  0.8387 -0.3710  1.3935
 7354SOL    HW329149   0.465   3.310   1.636  0.7135 -0.2641  0.7645
 7354SOL    MW429150   0.484   3.386   1.673  0.3529  0.5418  0.1316
 7355SOL     OW29151   1.953   4.500   3.821  0.0498  0.4107 -0.1113
 7355SOL    HW229152   1.930   4.533   3.908 -3.3510  1.4348 -1.2638
 7355SOL    HW329153   2.030   4.551   3.796  2.1235 -0.9966  2.8041
 7355SOL    MW429154   1.960   4.511   3.829  0.7314  0.0692  0.3794
 7356SOL     OW29155   3.621   3.502   4.303 -0.2558 -0.2905 -0.2170
 7356SOL    HW229156   3.686   3.450   4.256  2.0927  0.2530  2.1762
 7356SOL    HW329157   3.571   3.438   4.354 -0.0843 -0.5300 -0.3492
 7356SOL    MW429158   3.623   3.487   4.304 -0.4294  0.6705 -0.0213
 7357SOL     OW29159   3.623   3.365   5.507  0.1104  0.1207 -0.1899
 7357SOL    HW229160   3.625   3.383   5.601 -1.1397  0.6246 -0.2522
 7357SOL    HW329161   3.544   3.312   5.494  0.0144  0.4520 -1.0225
 7357SOL    MW429162   3.613   3.360   5.518  0.3031 -0.0815 -0.0538
 7358SOL     OW29163   4.605   3.117   5.566 -0.1961  0.0786  0.2920
 7358SOL    HW229164   4.643   3.135   5.479  0.3904  1.5924  0.8149
 7358SOL    HW329165   4.679   3.086   5.618 -0.5087 -0.6479  0.3100
 7358SOL    MW429166   4.620   3.115   5.561 -0.6968 -0.5580  0.0189
 7359SOL     OW29167   5.658   3.106   2.607  0.6281 -0.0017 -0.1280
 7359SOL    HW229168   5.654   3.076   2.698  0.1376 -2.4319 -0.8949
 7359SOL    HW329169   5.739   3.069   2.573 -0.0723 -0.6114 -1.1679
 7359SOL    MW429170   5.668   3.097   2.614  0.0936 -0.1596 -0.2406
 7360SOL     OW29171   5.038   5.102   1.768  0.5660  0.1514 -0.2773
 7360SOL    HW229172   4.952   5.064   1.747  0.5488  0.2422 -0.3716
 7360SOL    HW329173   5.084   5.105   1.684  0.5754  0.3187 -0.2652
 7360SOL    MW429174   5.032   5.097   1.754 -0.1723  0.2109 -0.4411
 7361SOL     OW29175   1.463   4.938   2.097  0.2146 -0.0950  0.0555
 7361SOL    HW229176   1.428   4.922   2.010 -0.9935  1.2363  0.2658
 7361SOL    HW329177   1.412   5.011   2.131  1.1060 -0.1502  1.6301
 7361SOL    MW429178   1.452   4.945   2.090  0.2342 -0.4974 -0.2476
 7362SOL     OW29179   5.933   5.172   0.989  0.2950  0.2270  0.2827
 7362SOL    HW229180   5.869   5.240   0.969 -0.5857 -0.4144  0.8962
 7362SOL    HW329181   5.939   5.121   0.908  1.6676  1.5517 -0.5146
 7362SOL    MW429182   5.926   5.174   0.976 -0.5191 -0.3840 -0.0126
 7363SOL     OW29183   3.247   4.975   1.367 -0.0856  0.2282 -0.0409
 7363SOL    HW229184   3.315   4.926   1.319 -0.0250 -0.2939  0.5610
 7363SOL    HW329185   3.172   4.974   1.308  0.0162 -0.3304 -0.1725
 7363SOL    MW429186   3.246   4.968   1.353 -0.2276  0.6363  0.5478
 7364SOL     OW29187   4.567   3.833   0.932 -0.1990 -0.4485 -0.0955
 7364SOL    HW229188   4.594   3.744   0.909  0.4711  0.1273 -1.7275
 7364SOL    HW329189   4.635   3.863   0.993 -1.4428 -1.6519  2.0100
 7364SOL    MW429190   4.580   3.825   0.937  0.3145 -0.5453  0.0103
 7365SOL     OW29191   0.051   6.166   4.944  0.4948  0.2728  0.1907
 7365SOL    HW229192   0.129   6.159   4.889  0.5298  1.4810  0.0599
 7365SOL    HW329193  -0.022   6.147   4.884  0.7021 -1.9640  0.5535
 7365SOL    MW429194   0.051   6.162   4.929 -0.0611  0.3563  0.5644
 7366SOL     OW29195   1.225   4.121   3.388  0.1479 -0.4147  0.4596
 7366SOL    HW229196   1.291   4.188   3.405 -1.3592  1.2828 -0.0884
 7366SOL    HW329197   1.208   4.126   3.294 -0.8335 -0.7389  0.6014
 7366SOL    MW429198   1.231   4.130   3.378  1.0089 -1.0008 -0.1240
 7367SOL     OW29199   1.594   2.845   6.401  0.1169 -0.2692 -0.2831
 7367SOL    HW229200   1.582   2.785   6.328 -0.5301  1.0824 -1.3381
 7367SOL    HW329201   1.541   2.809   6.472 -3.3543  0.9094 -2.0468
 7367SOL    MW429202   1.586   2.832   6.400 -0.0248  0.3447  0.0534
 7368SOL     OW29203   6.411   2.664   1.807  0.0647 -0.9678  0.1319
 7368SOL    HW229204   6.448   2.612   1.736 -0.6980  0.3754 -1.3071
 7368SOL    HW329205   6.325   2.624   1.823 -0.5312 -0.1720 -0.9872
 7368SOL    MW429206   6.404   2.652   1.800 -0.0825  0.0813 -0.1555
 7369SOL     OW29207   0.480   2.134   1.521  0.3221  0.0635 -0.6859
 7369SOL    HW229208   0.561   2.158   1.476  1.2302 -0.1296  0.7633
 7369SOL    HW329209   0.498   2.048   1.559 -1.1915 -0.7717 -1.7690
 7369SOL    MW429210   0.493   2.126   1.520 -0.3201  0.0384 -0.4290
 7370SOL     OW29211   0.489   5.921   3.848 -0.4247 -0.7879 -0.1369
 7370SOL    HW229212   0.543   5.953   3.921  0.2129 -2.1362  0.0139
 7370SOL    HW329213   0.531   5.956   3.770 -0.6277 -0.0151  0.0938
 7370SOL    MW429214   0.501   5.930   3.847  0.4315 -0.1522 -0.4389
 7371SOL     OW29215   1.352   5.672   2.616 -0.0727 -0.3510  0.0116
 7371SOL    HW229216   1.370   5.665   2.709  0.7070  0.0553 -0.1002
 7371SOL    HW329217   1.328   5.764   2.603  2.6893  0.3955 -0.6202
 7371SOL    MW429218   1.352   5.683   2.626  0.3361 -0.6078  0.0549
 7372SOL     OW29219   5.652   4.205   6.045  0.4000  0.3990  0.0826
 7372SOL    HW229220   5.669   4.166   5.959 -1.3522  1.0630 -0.5968
 7372SOL    HW329221   5.596   4.141   6.090  1.0022  0.2266  0.6179
 7372SOL    MW429222   5.647   4.191   6.040 -0.1231  0.5310 -0.8497
 7373SOL     OW29223   0.664   4.911   2.604 -0.2533 -0.0195  0.2028
 7373SOL    HW229224   0.646   4.841   2.543  1.1865  0.7286 -1.1584
 7373SOL    HW329225   0.674   4.868   2.689 -2.0201 -1.0974 -0.0985
 7373SOL    MW429226   0.663   4.896   2.607 -0.0739  0.3153 -0.4170
 7374SOL     OW29227   6.377   5.543   2.085  0.5565  0.5317 -0.0358
 7374SOL    HW229228   6.430   5.576   2.158  1.4460 -0.8110 -0.0311
 7374SOL    HW329229   6.435   5.549   2.009  0.2507  0.2622 -0.2926
 7374SOL    MW429230   6.392   5.548   2.084  0.6765 -0.1294 -0.2074
 7375SOL     OW29231   0.897   1.641   5.471 -0.4324 -0.1545 -0.4895
 7375SOL    HW229232   0.913   1.713   5.532 -0.0929 -0.8600  0.2835
 7375SOL    HW329233   0.822   1.595   5.508 -0.8360 -0.0206 -1.1421
 7375SOL    MW429234   0.890   1.644   5.484  0.3632  0.4442 -0.0061
 7376SOL     OW29235   4.241   0.326   2.984  0.1637 -0.0445  1.0645
 7376SOL    HW229236   4.264   0.280   2.903 -1.8098  0.3704  0.2273
 7376SOL    HW329237   4.160   0.372   2.964  0.7053  1.7475  2.6710
 7376SOL    MW429238   4.234   0.326   2.971 -0.1716 -0.0245 -0.3732
 7377SOL     OW29239   0.502   2.686   5.355 -0.4382 -0.8921  0.5501
 7377SOL    HW229240   0.476   2.739   5.431  1.8564  1.7029 -0.2767
 7377SOL    HW329241   0.454   2.725   5.282 -0.1613 -1.2174  0.1948
 7377SOL    MW429242   0.492   2.698   5.355  0.2000  0.3438 -0.0038
 7378SOL     OW29243   0.612   5.774   4.577 -0.4173  0.2197 -0.2315
 7378SOL    HW229244   0.539   5.757   4.518  0.7255  1.1286 -2.0207
 7378SOL    HW329245   0.571   5.797   4.660 -2.1347 -0.1040 -0.9478
 7378SOL    MW429246   0.597   5.775   4.580  0.2572 -0.2145  1.1788
 7379SOL     OW29247   3.752   5.702   5.087  0.4066 -0.4109  0.0400
 7379SOL    HW229248   3.681   5.767   5.087  1.9563  1.3650 -0.0237
 7379SOL    HW329249   3.727   5.639   5.156 -1.6147 -0.3267 -0.5598
 7379SOL    MW429250   3.739   5.702   5.096 -0.2068  0.3692 -0.4299
 7380SOL     OW29251   3.018   4.488   2.518  0.1286  0.3447  0.1015
 7380SOL    HW229252   3.108   4.510   2.493 -0.1064  1.3445  0.0973
 7380SOL    HW329253   2.993   4.417   2.459  1.3544 -0.8646  0.9562
 7380SOL    MW429254   3.027   4.481   2.507 -0.2930 -0.4730  0.2655
 7381SOL     OW29255   0.450   2.622   4.843 -0.1322  0.4196  0.3041
 7381SOL    HW229256   0.467   2.712   4.814  2.1504 -0.1478 -0.2805
 7381SOL    HW329257   0.488   2.617   4.931  1.4590 -0.4563 -0.3991
 7381SOL    MW429258   0.457   2.633   4.851  0.2114  0.5031  0.1154
 7382SOL     OW29259   2.001   2.140   3.315  0.1099  0.2545 -0.6645
 7382SOL    HW229260   1.932   2.194   3.353  0.1031 -0.2860  0.1041
 7382SOL    HW329261   2.074   2.148   3.376  0.4243  0.1164 -1.0162
 7382SOL    MW429262   2.002   2.148   3.328  0.2964  0.0507 -0.3756
 7383SOL     OW29263   2.676   2.683   5.822 -0.7217  0.3570 -0.0136
 7383SOL    HW229264   2.679   2.696   5.917  0.5007 -1.8987  0.3189
 7383SOL    HW329265   2.619   2.606   5.811 -0.3398  0.2144 -1.0508
 7383SOL    MW429266   2.669   2.675   5.833 -0.6267 -0.5612  0.1551
 7384SOL     OW29267   0.821   2.073   1.666  0.3346 -0.3572 -0.2677
 7384SOL    HW229268   0.790   2.163   1.655  1.7742  0.5747  2.4980
 7384SOL    HW329269   0.861   2.052   1.582 -0.4201  1.3960 -1.1289
 7384SOL    MW429270   0.822   2.082   1.653 -0.2952  0.5085  0.4836
 7385SOL     OW29271   4.540   3.084   3.063  0.1365 -0.1440  0.4103
 7385SOL    HW229272   4.450   3.051   3.063 -0.2516  0.8749  0.2916
 7385SOL    HW329273   4.535   3.168   3.110  1.3542 -0.8878  1.9590
 7385SOL    MW429274   4.528   3.091   3.069 -0.1248 -0.1643 -0.0532
 7386SOL     OW29275   1.482   3.398   0.692 -0.3822  0.2799  0.1479
 7386SOL    HW229276   1.472   3.331   0.624 -0.2622  0.6326 -0.2227
 7386SOL    HW329277   1.401   3.393   0.743 -0.5215  0.0841 -0.0897
 7386SOL    MW429278   1.470   3.389   0.689 -0.6164 -0.3408  0.5276
 7387SOL     OW29279   0.476   1.498   5.148 -0.1278 -0.4245  0.1526
 7387SOL    HW229280   0.421   1.443   5.204 -1.4438  0.2525 -0.4267
 7387SOL    HW329281   0.475   1.584   5.191  1.2459 -0.6249  0.6188
 7387SOL    MW429282   0.468   1.502   5.161  0.1450  0.0089  0.9196
 7388SOL     OW29283   3.166   5.636   1.451 -0.4564  0.0879  0.5130
 7388SOL    HW229284   3.136   5.555   1.492 -1.0846  0.2022  0.2848
 7388SOL    HW329285   3.111   5.646   1.374  0.0454  0.4047  0.1859
 7388SOL    MW429286   3.155   5.626   1.446 -0.1186  0.7109 -0.3761
 7389SOL     OW29287   5.020   0.906   5.010 -0.2868 -0.1339  0.2822
 7389SOL    HW229288   5.088   0.891   5.076 -0.1269 -1.9270 -0.2331
 7389SOL    HW329289   5.006   0.819   4.971 -0.0803  0.9382 -2.3511
 7389SOL    MW429290   5.027   0.892   5.014  0.4524  0.1473  0.2689
 7390SOL     OW29291   1.027   4.964   1.870 -0.2008  0.0766  0.1620
 7390SOL    HW229292   1.052   4.907   1.943 -0.0059  0.6608  0.5559
 7390SOL    HW329293   0.978   5.035   1.911  0.8305  0.9809 -0.1425
 7390SOL    MW429294   1.023   4.966   1.885  0.0039  0.1585 -0.1677
 7391SOL     OW29295   4.379   5.687   5.011 -0.3364  0.2890 -0.2416
 7391SOL    HW229296   4.290   5.720   5.024 -0.1482  0.4778  0.6392
 7391SOL    HW329297   4.369   5.592   5.014 -0.3624  0.3093  1.0849
 7391SOL    MW429298   4.366   5.679   5.013  0.3104 -0.9338 -0.2474
 7392SOL     OW29299   1.684   0.922   1.643 -0.0056 -0.2343  0.0607
 7392SOL    HW229300   1.613   0.890   1.698 -0.4238  0.3161 -0.1473
 7392SOL    HW329301   1.764   0.900   1.691 -0.2872 -1.3434  0.0405
 7392SOL    MW429302   1.685   0.915   1.656 -0.4408 -0.1161  0.5681
 7393SOL     OW29303   0.761   4.562   1.359 -0.3080  0.4375  0.1505
 7393SOL    HW229304   0.794   4.483   1.400  0.3560  0.0158 -1.1598
 7393SOL    HW329305   0.812   4.571   1.279 -2.3251  0.6009 -1.1746
 7393SOL    MW429306   0.772   4.553   1.354 -0.4058 -0.4277 -0.3847
 7394SOL     OW29307   5.980   3.608   4.087 -0.1328 -0.2340  0.8921
 7394SOL    HW229308   6.016   3.621   3.999  0.5385 -1.4695  0.9638
 7394SOL    HW329309   6.016   3.524   4.115 -0.7437 -0.0896  2.1545
 7394SOL    MW429310   5.990   3.599   4.079  0.3357 -0.1565 -0.1787
 7395SOL     OW29311   5.783   6.223   5.610  0.2594  0.0733 -0.0125
 7395SOL    HW229312   5.820   6.312   5.606 -2.3451  1.2585  0.1600
 7395SOL    HW329313   5.709   6.225   5.549  0.1367 -2.0002  0.0061
 7395SOL    MW429314   5.778   6.235   5.601  0.2380  0.5117 -0.1420
 7396SOL     OW29315   2.088   6.029   2.546  0.0256  0.1942 -0.0086
 7396SOL    HW229316   2.091   5.979   2.464 -1.2718  1.0878 -0.6335
 7396SOL    HW329317   2.013   5.993   2.594  1.0100 -0.5968  1.0060
 7396SOL    MW429318   2.079   6.017   2.542 -0.4459  0.2337 -0.3360
 7397SOL     OW29319   0.498   4.127   4.343 -0.0291  0.1672  0.0955
 7397SOL    HW229320   0.540   4.197   4.392  1.5700  0.6530 -1.8230
 7397SOL    HW329321   0.461   4.070   4.410  0.5224  1.6750  1.7804
 7397SOL    MW429322   0.499   4.129   4.358  0.2117  0.1500 -0.2778
 7398SOL     OW29323   3.078   5.952   5.299 -0.2817 -0.4251 -0.1185
 7398SOL    HW229324   3.077   5.857   5.296  0.8788 -0.4270 -1.2179
 7398SOL    HW329325   3.133   5.978   5.225 -1.1413  1.1261 -0.2640
 7398SOL    MW429326   3.085   5.943   5.289 -0.6368 -0.0694 -0.7999
 7399SOL     OW29327   0.101   4.494   0.840 -0.0926  0.2081 -0.6067
 7399SOL    HW229328   0.116   4.402   0.818 -0.1552 -0.1560  0.8159
 7399SOL    HW329329   0.010   4.498   0.869  0.7078  0.0658  2.2658
 7399SOL    MW429330   0.091   4.482   0.841  0.4410 -0.7634 -0.2499
 7400SOL     OW29331   3.838   2.623   0.864 -0.2662  0.0050  0.3324
 7400SOL    HW229332   3.797   2.569   0.931 -1.3787  0.5851  0.1374
 7400SOL    HW329333   3.870   2.560   0.799  3.1368 -0.8034  2.5167
 7400SOL    MW429334   3.837   2.607   0.864 -0.1288 -0.7369  0.7112
 7401SOL     OW29335   2.261   2.606   5.302  0.2369 -0.3454  0.2414
 7401SOL    HW229336   2.340   2.583   5.350 -0.3453 -0.7271  1.0558
 7401SOL    HW329337   2.209   2.657   5.365 -0.0243  0.1833 -0.3864
 7401SOL    MW429338   2.264   2.610   5.317 -0.1012 -0.1435 -0.4133
 7402SOL     OW29339   3.082   4.514   5.748 -0.3863  0.6594 -0.3596
 7402SOL    HW229340   2.988   4.527   5.734 -0.3341 -1.4552 -4.0474
 7402SOL    HW329341   3.116   4.493   5.661  3.5540  1.3218  0.8355
 7402SOL    MW429342   3.074   4.513   5.734 -0.3825 -0.5546 -0.1396
 7403SOL     OW29343   2.123   0.308   2.288  0.4088 -0.3879 -0.0489
 7403SOL    HW229344   2.061   0.381   2.296  0.0171 -0.7362  0.1132
 7403SOL    HW329345   2.153   0.312   2.198  0.3602 -0.0496 -0.0541
 7403SOL    MW429346   2.119   0.318   2.277 -0.5027  0.4310 -0.2983
 7404SOL     OW29347   6.306   4.638   6.108 -0.2594  0.0484  0.3120
 7404SOL    HW229348   6.223   4.597   6.084  1.3232 -3.0636 -0.4874
 7404SOL    HW329349   6.326   4.697   6.035 -1.3911  0.2664  0.1631
 7404SOL    MW429350   6.298   4.640   6.095 -0.9270  0.1333  0.1371
 7405SOL     OW29351   5.517   2.631   2.386  0.3449 -0.0829 -0.0543
 7405SOL    HW229352   5.472   2.648   2.469  2.4311 -0.5610  1.2568
 7405SOL    HW329353   5.542   2.539   2.391 -2.2506 -1.0625 -2.7017
 7405SOL    MW429354   5.514   2.621   2.398 -0.2261 -0.5353  0.5153
 7406SOL     OW29355   2.687   4.934   4.978 -0.1806 -0.3296 -0.3473
 7406SOL    HW229356   2.719   5.024   4.967 -1.8540  0.1136 -2.0577
 7406SOL    HW329357   2.730   4.884   4.909  0.9130 -0.9283  0.7337
 7406SOL    MW429358   2.697   4.940   4.968 -0.1058 -0.1244  0.3740
 7407SOL     OW29359   4.063   6.322   1.868  0.0765  0.1160  0.3890
 7407SOL    HW229360   3.990   6.263   1.853  0.7359 -0.5744 -0.2215
 7407SOL    HW329361   4.055   6.348   1.960 -0.1411 -1.0552  0.7130
 7407SOL    MW429362   4.053   6.318   1.878 -0.0180 -0.2992 -0.4086
 7408SOL     OW29363   3.315   2.016   0.582  0.1013  0.3529 -0.3816
 7408SOL    HW229364   3.384   1.974   0.531 -2.4151 -3.9096 -0.6991
 7408SOL    HW329365   3.270   2.073   0.519  2.9411  3.1044 -0.1987
 7408SOL    MW429366   3.318   2.018   0.567  0.4483  0.7738  0.5605
 7409SOL     OW29367   2.445   5.742   6.165  0.0857 -0.4286 -0.1964
 7409SOL    HW229368   2.432   5.672   6.228  0.3141 -1.7244 -1.5265
 7409SOL    HW329369   2.524   5.717   6.117  0.4193  0.9754 -0.4159
 7409SOL    MW429370   2.453   5.729   6.167 -0.5214  0.2575  0.4613
 7410SOL     OW29371   0.085   4.505   3.541  0.1908  0.6026  0.3789
 7410SOL    HW229372   0.178   4.481   3.540 -0.0327 -0.2831  0.0318
 7410SOL    HW329373   0.058   4.500   3.449 -0.0435  1.5048  0.3933
 7410SOL    MW429374   0.094   4.501   3.529  0.1290  0.2703  0.1745
 7411SOL     OW29375   3.744   6.109   5.369  0.0500 -0.3961 -0.2065
 7411SOL    HW229376   3.748   6.204   5.353  0.2167 -0.2457  0.6589
 7411SOL    HW329377   3.719   6.072   5.285  0.3302  0.3907 -0.6548
 7411SOL    MW429378   3.741   6.117   5.356  0.1890  0.1966 -0.0587
 7412SOL     OW29379   5.992   0.595   4.898 -0.2286  0.2052  0.9766
 7412SOL    HW229380   5.984   0.504   4.925  1.5289 -0.7318 -1.3792
 7412SOL    HW329381   6.062   0.630   4.954  1.4666 -0.9261 -0.3322
 7412SOL    MW429382   6.001   0.588   4.909 -0.1495 -0.4046  0.3466
 7413SOL     OW29383   4.757   4.835   2.372  0.3396  0.3176 -0.3402
 7413SOL    HW229384   4.834   4.839   2.430  0.0454  0.1757  0.0620
 7413SOL    HW329385   4.757   4.745   2.339  2.0223  1.0805 -2.6526
 7413SOL    MW429386   4.767   4.823   2.376 -0.2790 -0.1578 -0.8266
 7414SOL     OW29387   0.939   3.317   0.369 -0.0454  0.0574 -0.0828
 7414SOL    HW229388   0.850   3.328   0.402 -0.8490  1.2243 -2.3819
 7414SOL    HW329389   0.941   3.226   0.338 -0.3555 -0.0588  0.2300
 7414SOL    MW429390   0.927   3.306   0.369 -0.0267 -0.7420 -0.2028
 7415SOL     OW29391   1.151   2.837   0.075 -0.0721  0.6455 -0.1737
 7415SOL    HW229392   1.078   2.855   0.135  0.2220  0.1910  0.3302
 7415SOL    HW329393   1.112   2.787   0.004 -0.3276  0.7435 -0.1037
 7415SOL    MW429394   1.136   2.833   0.074 -0.3937 -0.1640 -0.5802
 7416SOL     OW29395   0.934   5.407   4.792  0.0658 -0.1916 -0.2663
 7416SOL    HW229396   0.889   5.440   4.870  1.1975 -0.3051  0.4544
 7416SOL    HW329397   1.025   5.399   4.819  0.5034 -0.1032 -1.6533
 7416SOL    MW429398   0.940   5.411   4.806  0.2273 -0.1446 -0.8615
 7417SOL     OW29399   1.694   1.080   4.470  0.0831 -0.1479  0.1263
 7417SOL    HW229400   1.631   1.045   4.407 -0.0476  0.0639  0.1406
 7417SOL    HW329401   1.656   1.061   4.556 -0.0508  0.1476  0.1323
 7417SOL    MW429402   1.681   1.073   4.473 -0.0371  0.3117 -0.1970
 7418SOL     OW29403   4.504   5.432   3.610  0.4206  0.1602  0.0561
 7418SOL    HW229404   4.473   5.504   3.664 -1.4757 -0.8258  0.3281
 7418SOL    HW329405   4.447   5.433   3.533  2.0342  0.5218 -1.2065
 7418SOL    MW429406   4.493   5.441   3.607  0.3700 -0.4638  0.0305
 7419SOL     OW29407   0.181   3.024   5.378 -0.2257  0.3149 -0.6839
 7419SOL    HW229408   0.085   3.032   5.380 -0.6141 -2.8752  2.0736
 7419SOL    HW329409   0.197   2.950   5.319  0.5914  0.9013 -1.2128
 7419SOL    MW429410   0.170   3.015   5.370 -0.3120  0.5814 -0.2842
 7420SOL     OW29411   2.954   0.225   0.432 -0.1497 -0.0557 -0.1019
 7420SOL    HW229412   3.007   0.154   0.470 -0.4459 -0.4210 -0.3660
 7420SOL    HW329413   2.944   0.288   0.503  1.3426  0.4229 -0.2735
 7420SOL    MW429414   2.960   0.224   0.446  0.0407 -0.2453  0.0371
 7421SOL     OW29415   2.792   2.606   0.493  0.4924 -0.3240  0.2888
 7421SOL    HW229416   2.794   2.515   0.523 -0.6009 -0.2810  0.5527
 7421SOL    HW329417   2.733   2.605   0.418  0.6946  0.1230  0.1214
 7421SOL    MW429418   2.784   2.594   0.487  0.5337  0.2830 -0.6064
 7422SOL     OW29419   2.664   3.819   6.107  0.1594 -0.5289  0.5206
 7422SOL    HW229420   2.672   3.730   6.140 -0.1011 -1.8711 -2.7089
 7422SOL    HW329421   2.747   3.835   6.061 -0.2763  0.4069  0.0269
 7422SOL    MW429422   2.676   3.810   6.105 -0.7570 -0.4933 -0.0777
 7423SOL     OW29423   1.799   4.480   0.219 -0.0249  0.2122  0.1950
 7423SOL    HW229424   1.840   4.404   0.260 -0.6356  0.4329  1.2510
 7423SOL    HW329425   1.768   4.533   0.292 -3.7510 -0.7836 -0.4386
 7423SOL    MW429426   1.800   4.477   0.234 -0.5132 -0.0149 -0.0989
 7424SOL     OW29427   0.331   4.263   5.218  0.4129 -0.4684  0.2901
 7424SOL    HW229428   0.252   4.244   5.267  0.7240 -1.5508  0.3952
 7424SOL    HW329429   0.371   4.177   5.203  2.7330  0.1817  2.1754
 7424SOL    MW429430   0.326   4.249   5.222  0.2056 -0.1906 -0.0453
 7425SOL     OW29431   4.872   0.396   1.473  0.2194  0.1591  0.6060
 7425SOL    HW229432   4.948   0.340   1.486  0.1937 -1.1303 -3.5146
 7425SOL    HW329433   4.909   0.483   1.455  0.6995 -0.2692 -0.5154
 7425SOL    MW429434   4.887   0.400   1.473  0.1168 -0.0007 -0.4026
 7426SOL     OW29435   6.015   5.924   5.338 -0.0526  0.0909  0.2123
 7426SOL    HW229436   6.008   6.018   5.318 -0.1966 -0.0623 -0.4939
 7426SOL    HW329437   5.983   5.881   5.259  1.8907 -0.5783 -0.2663
 7426SOL    MW429438   6.010   5.931   5.325 -0.2052 -0.0404 -0.1629
 7427SOL     OW29439   2.576   4.054   4.635 -0.3057  0.3015 -0.0500
 7427SOL    HW229440   2.609   3.988   4.574  2.1855  1.7933 -0.4691
 7427SOL    HW329441   2.584   4.013   4.721 -0.2181 -0.4719 -0.4172
 7427SOL    MW429442   2.582   4.040   4.639 -0.3672 -0.5499  0.3156
 7428SOL     OW29443   2.536   4.678   4.757 -0.3505  0.0379 -0.7625
 7428SOL    HW229444   2.480   4.753   4.775 -0.8505  0.0991 -2.4494
 7428SOL    HW329445   2.570   4.693   4.669 -0.0604 -1.4511 -0.9391
 7428SOL    MW429446   2.533   4.690   4.748  0.5492  0.3140  0.1216
 7429SOL     OW29447   2.117   1.126   0.658 -0.2331 -0.2935  0.1530
 7429SOL    HW229448   2.027   1.148   0.682  0.4658  1.6623  1.1851
 7429SOL    HW329449   2.124   1.032   0.674 -2.2876 -0.6453 -0.6963
 7429SOL    MW429450   2.106   1.117   0.663 -0.8698  0.0925  0.0378
 7430SOL     OW29451   2.743   0.893   2.797 -0.2831  0.2975  0.1365
 7430SOL    HW229452   2.660   0.926   2.761 -0.2542 -0.0699 -0.2719
 7430SOL    HW329453   2.731   0.897   2.892  0.4123  3.3261  0.2246
 7430SOL    MW429454   2.730   0.898   2.805  0.6575  0.3029 -0.3163
 7431SOL     OW29455   2.433   4.432   5.488  0.1206 -0.3812  0.0928
 7431SOL    HW229456   2.485   4.489   5.432 -3.0667  0.3961 -2.3746
 7431SOL    HW329457   2.403   4.488   5.560  2.8490 -0.9539  1.8032
 7431SOL    MW429458   2.436   4.447   5.490 -0.8236  0.0837 -0.5347
 7432SOL     OW29459   6.273   3.813   2.085 -0.2098  0.3055 -0.4257
 7432SOL    HW229460   6.323   3.877   2.035  0.5846  0.0963  0.0750
 7432SOL    HW329461   6.238   3.862   2.159  0.7783  0.0890  0.2070
 7432SOL    MW429462   6.275   3.828   2.088 -0.3662 -0.0512  0.2311
 7433SOL     OW29463   2.636   5.568   3.436 -1.0074 -0.1212 -0.1946
 7433SOL    HW229464   2.638   5.660   3.408  0.8468 -0.0606 -0.0069
 7433SOL    HW329465   2.689   5.522   3.371 -0.3058 -0.7167  0.7748
 7433SOL    MW429466   2.644   5.574   3.424 -0.1875 -0.2960  0.2324
 7434SOL     OW29467   0.676   1.969   0.717  0.0860 -0.4646  0.6960
 7434SOL    HW229468   0.650   2.022   0.641 -0.8583 -1.9211 -0.0576
 7434SOL    HW329469   0.744   2.020   0.760 -0.2442  0.9896 -0.4173
 7434SOL    MW429470   0.682   1.982   0.712  0.5659 -0.3591 -0.1874
 7435SOL     OW29471   0.798   2.562   2.816  0.2372  0.2467  0.0174
 7435SOL    HW229472   0.892   2.548   2.807  0.3771  1.1564 -0.0998
 7435SOL    HW329473   0.762   2.538   2.731  0.5341  1.0859 -0.3575
 7435SOL    MW429474   0.806   2.557   2.804  0.2588  0.7146  0.0241
 7436SOL     OW29475   1.853   6.238   3.412  0.2401 -0.4622  0.4447
 7436SOL    HW229476   1.903   6.257   3.333  1.0978 -2.9735  0.2906
 7436SOL    HW329477   1.890   6.297   3.478 -0.4135  1.5909 -0.9379
 7436SOL    MW429478   1.865   6.248   3.410 -0.6926  1.0594  0.2068
 7437SOL     OW29479   2.596   2.037   2.593 -0.0232  0.2769  0.2749
 7437SOL    HW229480   2.638   1.989   2.521  1.8543 -1.1753  2.2201
 7437SOL    HW329481   2.624   2.127   2.582 -2.1864  0.7622 -2.4412
 7437SOL    MW429482   2.605   2.042   2.582  0.5286 -0.2866 -0.3151
 7438SOL     OW29483   0.520   4.579   3.207 -0.0508  0.1091  0.5427
 7438SOL    HW229484   0.502   4.490   3.176 -3.0938  1.2259 -1.3054
 7438SOL    HW329485   0.565   4.621   3.133  1.1342  0.2616  1.3088
 7438SOL    MW429486   0.524   4.573   3.193  0.1199 -0.7350  0.6550
 7439SOL     OW29487   1.194   2.240   4.021 -0.2244  0.7176 -0.1357
 7439SOL    HW229488   1.099   2.238   4.028 -0.4277 -0.3600 -2.2064
 7439SOL    HW329489   1.221   2.149   4.034  0.3950  0.8286 -0.5943
 7439SOL    MW429490   1.185   2.228   4.023 -0.4564  0.1621 -0.1753
 7440SOL     OW29491   3.952   3.390   2.758  0.2961 -0.4788 -0.6823
 7440SOL    HW229492   4.044   3.408   2.775 -0.2536  1.3934  0.5827
 7440SOL    HW329493   3.939   3.300   2.789  1.6727 -0.7737 -0.9002
 7440SOL    MW429494   3.963   3.380   2.764 -0.3172 -0.6993 -0.4381
 7441SOL     OW29495   4.191   4.774   5.033  0.2679 -0.2169 -0.0362
 7441SOL    HW229496   4.100   4.802   5.022 -0.6057 -1.3919  3.1078
 7441SOL    HW329497   4.212   4.728   4.952 -1.8735  0.2352 -0.9095
 7441SOL    MW429498   4.181   4.772   5.021  0.2181 -0.1391  0.4897
 7442SOL     OW29499   5.412   4.940   2.674 -0.2360 -0.2543 -0.1972
 7442SOL    HW229500   5.427   4.994   2.751  1.2992 -0.1466 -0.5381
 7442SOL    HW329501   5.400   4.851   2.709  1.4687 -0.3819  0.1414
 7442SOL    MW429502   5.412   4.935   2.688 -0.5420  0.5108  0.1047
 7443SOL     OW29503   4.733   0.552   2.386 -0.0350 -0.3239 -0.0363
 7443SOL    HW229504   4.795   0.580   2.454 -0.6682 -0.8174  0.7452
 7443SOL    HW329505   4.664   0.505   2.433 -1.3083  0.6927 -0.8201
 7443SOL    MW429506   4.732   0.550   2.401 -0.4267 -0.5139 -0.0336
 7444SOL     OW29507   5.444   4.596   2.032  0.0717  0.1622  0.3481
 7444SOL    HW229508   5.504   4.546   1.976  0.5132  2.3380 -1.2689
 7444SOL    HW329509   5.500   4.658   2.078 -0.5623 -0.1479  1.5774
 7444SOL    MW429510   5.459   4.598   2.031  0.0270 -0.0709 -0.5941
 7445SOL     OW29511   5.063   0.665   3.599  0.3950  0.1479  0.2282
 7445SOL    HW229512   5.037   0.669   3.507 -0.0552  1.2301  0.3935
 7445SOL    HW329513   4.983   0.687   3.647  0.8256  0.3507  0.8567
 7445SOL    MW429514   5.049   0.668   3.593  0.1970  0.2705 -0.2953
 7446SOL     OW29515   1.270   4.865   3.110  0.1201 -0.4428 -0.6811
 7446SOL    HW229516   1.361   4.892   3.115  0.1175 -0.6986  1.1647
 7446SOL    HW329517   1.274   4.771   3.096  0.1610 -0.6919  0.9170
 7446SOL    MW429518   1.282   4.856   3.109 -0.1887  0.0745 -0.1385
 7447SOL     OW29519   4.321   1.045   2.521 -0.1800  0.3406  0.2872
 7447SOL    HW229520   4.251   1.085   2.571  0.2135  1.3395  0.0745
 7447SOL    HW329521   4.278   1.009   2.443 -0.7320 -0.8727  1.1141
 7447SOL    MW429522   4.306   1.045   2.517 -0.1855 -0.6094  0.1896
 7448SOL     OW29523   4.670   1.224   1.412 -0.0370  0.1268  0.5097
 7448SOL    HW229524   4.629   1.241   1.327 -1.4948  1.6531  1.4486
 7448SOL    HW329525   4.597   1.200   1.469  1.0208 -1.7755  1.1690
 7448SOL    MW429526   4.655   1.223   1.408 -0.2505 -0.6694  0.4734
 7449SOL     OW29527   1.910   5.689   2.425  0.1973  0.6015 -0.4022
 7449SOL    HW229528   1.983   5.729   2.379  0.0860 -0.3465 -1.4435
 7449SOL    HW329529   1.852   5.762   2.447  1.2710  1.3170  0.1151
 7449SOL    MW429530   1.912   5.704   2.422 -0.7062  0.4272  0.3736
 7450SOL     OW29531   0.533   4.736   5.059  0.2830  0.1928  0.0461
 7450SOL    HW229532   0.551   4.670   5.126  0.5750  0.8049  0.5865
 7450SOL    HW329533   0.593   4.714   4.987  2.5444  1.5390  1.3798
 7450SOL    MW429534   0.543   4.725   5.058  0.2961  0.4782 -0.5800
 7451SOL     OW29535   4.568   3.598   4.729 -0.3920 -0.4410  0.4236
 7451SOL    HW229536   4.574   3.516   4.681 -1.4932  0.1903 -0.8596
 7451SOL    HW329537   4.530   3.660   4.667  0.4251  1.0647  1.3402
 7451SOL    MW429538   4.564   3.595   4.714  0.1768  0.6033  0.1531
 7452SOL     OW29539   1.359   2.248   3.465  0.2448 -0.5293 -0.2691
 7452SOL    HW229540   1.287   2.197   3.426 -1.4977 -0.3594  2.4792
 7452SOL    HW329541   1.372   2.209   3.551  0.0238  2.4932  1.2588
 7452SOL    MW429542   1.351   2.236   3.471  1.2534 -0.3320 -0.5253
 7453SOL     OW29543   2.572   2.754   1.116  0.3547 -0.6998 -0.0226
 7453SOL    HW229544   2.618   2.707   1.047 -0.3298 -0.4967 -0.6312
 7453SOL    HW329545   2.590   2.846   1.098 -0.9275 -0.5736 -0.7509
 7453SOL    MW429546   2.580   2.760   1.105 -0.0240 -0.1983  0.2137
 7454SOL     OW29547   4.952   2.185   5.457 -0.0575 -0.0869  0.1357
 7454SOL    HW229548   4.983   2.270   5.489  1.2322 -0.5096  0.0403
 7454SOL    HW329549   5.030   2.140   5.425 -0.5644 -1.6376  0.9274
 7454SOL    MW429550   4.966   2.190   5.457  0.0456  0.1401  0.0133
 7455SOL     OW29551   2.869   5.377   0.850  0.2588  0.3540  0.1193
 7455SOL    HW229552   2.817   5.308   0.891  1.2130 -0.5331 -0.1245
 7455SOL    HW329553   2.855   5.454   0.905 -2.1057  0.4361 -0.5089
 7455SOL    MW429554   2.861   5.378   0.863 -0.0104 -0.0404  0.1641
 7456SOL     OW29555   1.781   4.842   1.325  0.3363 -0.2351  0.0874
 7456SOL    HW229556   1.751   4.816   1.412  2.5224 -0.3579  0.8716
 7456SOL    HW329557   1.778   4.761   1.274 -0.9176 -0.1719  0.0299
 7456SOL    MW429558   1.777   4.828   1.330 -0.4070  0.8699  0.5785
 7457SOL     OW29559   1.153   3.874   2.746 -0.3206 -0.4554 -0.7053
 7457SOL    HW229560   1.135   3.808   2.680 -0.1666  0.5279 -1.7524
 7457SOL    HW329561   1.086   3.941   2.732  1.1992  0.9466 -1.5158
 7457SOL    MW429562   1.142   3.874   2.736 -0.2130 -0.0520 -0.9206
 7458SOL     OW29563   4.739   5.618   0.787 -0.1931 -0.4048 -0.3948
 7458SOL    HW229564   4.795   5.540   0.794 -0.5652 -0.6095  0.5568
 7458SOL    HW329565   4.670   5.603   0.852 -0.3576  0.6517 -0.3159
 7458SOL    MW429566   4.737   5.606   0.797  0.3121  0.6443  0.5028
 7459SOL     OW29567   3.044   5.108   0.697 -0.1219  0.3622 -0.4888
 7459SOL    HW229568   3.108   5.085   0.628 -0.4436 -0.9755 -0.3582
 7459SOL    HW329569   3.092   5.168   0.754  2.1463 -2.8164  1.2964
 7459SOL    MW429570   3.059   5.113   0.695 -0.2750 -0.2555  0.7153
 7460SOL     OW29571   1.997   0.122   2.663  0.1683  0.5790  0.6639
 7460SOL    HW229572   1.981   0.093   2.752 -1.0072  0.8165  0.5461
 7460SOL    HW329573   1.971   0.048   2.608  1.0511  0.3706  0.5221
 7460SOL    MW429574   1.991   0.109   2.667 -0.0458  0.4377 -0.7492
 7461SOL     OW29575   4.677   4.613   3.201  0.1964 -0.3259  0.0088
 7461SOL    HW229576   4.667   4.583   3.291 -0.6912 -1.0840 -0.3160
 7461SOL    HW329577   4.626   4.694   3.197  0.9239  0.1562  0.3874
 7461SOL    MW429578   4.669   4.619   3.212  0.3699  0.8844 -0.4353
 7462SOL     OW29579   6.363   1.460   2.283 -0.1266  0.4017 -0.3301
 7462SOL    HW229580   6.319   1.514   2.349 -0.9294  0.0797 -0.5919
 7462SOL    HW329581   6.318   1.376   2.287  0.8802 -0.1510 -0.1821
 7462SOL    MW429582   6.351   1.456   2.293  0.3117 -0.5025 -0.0790
 7463SOL     OW29583   2.219   4.109   2.581  0.2451  0.6976 -0.0550
 7463SOL    HW229584   2.229   4.054   2.503  1.2301 -1.8294  1.7077
 7463SOL    HW329585   2.143   4.071   2.627 -0.3601  2.1840  0.2139
 7463SOL    MW429586   2.210   4.097   2.577 -0.1674  0.2453 -0.2029
 7464SOL     OW29587   3.537   0.991   4.540 -0.5257 -0.1768 -0.0994
 7464SOL    HW229588   3.612   0.935   4.519  0.2811  1.0449 -0.5990
 7464SOL    HW329589   3.531   0.988   4.636  1.3853  1.1901  0.1150
 7464SOL    MW429590   3.546   0.983   4.550 -0.2640 -0.1405  0.4427
 7465SOL     OW29591   4.448   0.778   2.131  0.1055 -0.1749  0.0657
 7465SOL    HW229592   4.462   0.778   2.226 -0.7703 -0.7515  0.2059
 7465SOL    HW329593   4.431   0.870   2.110 -1.7269 -0.2994  0.8131
 7465SOL    MW429594   4.447   0.790   2.141  0.3170  0.1139 -0.0254
 7466SOL     OW29595   3.299   3.891   3.739 -0.0878 -0.1109  0.5954
 7466SOL    HW229596   3.327   3.849   3.658 -1.3808 -1.4260  0.7821
 7466SOL    HW329597   3.369   3.953   3.761  0.0513  0.6726 -1.7947
 7466SOL    MW429598   3.312   3.894   3.731  0.6899 -0.2103 -0.1474
 7467SOL     OW29599   4.804   5.944   1.835  0.3807 -0.2038 -0.3307
 7467SOL    HW229600   4.789   5.956   1.742  0.6925  2.8817 -0.0968
 7467SOL    HW329601   4.788   5.851   1.851 -1.0034 -0.5499 -3.1864
 7467SOL    MW429602   4.800   5.934   1.825 -0.0152  0.4696  0.1724
 7468SOL     OW29603   5.749   6.166   5.872 -0.1077  0.4175  0.2359
 7468SOL    HW229604   5.773   6.165   5.779  2.7750 -1.7258  0.8656
 7468SOL    HW329605   5.808   6.230   5.911 -0.8058  0.7676  0.7346
 7468SOL    MW429606   5.760   6.174   5.865 -0.9427 -0.1097 -0.3574
 7469SOL     OW29607   3.805   1.675   0.683  0.2563  0.1288  0.7782
 7469SOL    HW229608   3.806   1.771   0.687 -0.4089  0.2035 -0.4374
 7469SOL    HW329609   3.828   1.655   0.592  0.3604 -0.8657  1.0188
 7469SOL    MW429610   3.808   1.685   0.672  0.1099 -0.4524  0.0273
 7470SOL     OW29611   3.854   3.562   0.817 -0.2616 -0.6897 -0.3186
 7470SOL    HW229612   3.898   3.639   0.781 -0.7578 -0.0180  0.4685
 7470SOL    HW329613   3.921   3.494   0.817  2.2015  1.2531  4.4618
 7470SOL    MW429614   3.868   3.563   0.813 -0.0695  0.1613  0.0249
 7471SOL     OW29615   2.256   3.886   0.624 -0.4182  0.5606 -0.4327
 7471SOL    HW229616   2.205   3.964   0.643  0.0915  0.1786  3.4587
 7471SOL    HW329617   2.244   3.830   0.701  2.1727 -1.5458 -1.3778
 7471SOL    MW429618   2.248   3.889   0.637 -0.1525 -0.0782 -0.6913
 7472SOL     OW29619   3.094   4.238   1.047 -0.1697 -0.8047 -0.2750
 7472SOL    HW229620   3.030   4.276   1.107 -0.3487 -1.8763  0.2195
 7472SOL    HW329621   3.162   4.305   1.040 -0.3075 -0.5244  0.8610
 7472SOL    MW429622   3.095   4.252   1.054 -0.7283 -0.0224 -0.6171
 7473SOL     OW29623   0.813   5.155   5.040 -0.6047 -0.5515  0.0760
 7473SOL    HW229624   0.761   5.086   5.083 -1.7141 -0.4069 -0.9762
 7473SOL    HW329625   0.904   5.127   5.051 -1.0020 -1.8420  0.2576
 7473SOL    MW429626   0.818   5.142   5.047  0.3406 -0.0066 -0.0458
 7474SOL     OW29627   5.590   2.232   0.203  0.1219 -0.2653  0.1907
 7474SOL    HW229628   5.539   2.311   0.224 -1.5461 -1.0628 -0.6571
 7474SOL    HW329629   5.609   2.193   0.288  0.8467  0.9544  0.6129
 7474SOL    MW429630   5.586   2.237   0.217  0.7160  0.1646 -0.0557
 7475SOL     OW29631   1.429   3.682   0.610  0.0606 -0.0358 -0.4300
 7475SOL    HW229632   1.452   3.609   0.667 -2.8273 -0.3732  0.4342
 7475SOL    HW329633   1.427   3.758   0.669 -1.3631 -0.1088 -0.3412
 7475SOL    MW429634   1.432   3.683   0.626  0.4051 -0.1552 -0.5877
 7476SOL     OW29635   6.076   0.879   3.566 -0.3739 -0.4620  0.3335
 7476SOL    HW229636   6.081   0.849   3.657 -0.9771 -1.5080  0.0473
 7476SOL    HW329637   6.082   0.798   3.515  1.2582  0.2177 -0.6198
 7476SOL    MW429638   6.078   0.864   3.571 -0.2643 -0.4285 -0.8451
 7477SOL     OW29639   2.813   2.255   3.943 -0.6102  0.2808 -0.4628
 7477SOL    HW229640   2.787   2.198   4.016  0.0790  0.4300 -0.0907
 7477SOL    HW329641   2.793   2.343   3.975  0.3658  0.4002 -0.1562
 7477SOL    MW429642   2.807   2.259   3.957  0.2734 -0.1005  0.1430
 7478SOL     OW29643   5.903   5.698   3.810 -0.2510 -0.4473  0.0589
 7478SOL    HW229644   5.941   5.732   3.890  1.0647  0.7796 -1.0325
 7478SOL    HW329645   5.946   5.614   3.796  0.9117  0.1831 -0.3019
 7478SOL    MW429646   5.914   5.692   3.819 -0.5394  0.5190 -0.0208
 7479SOL     OW29647   3.025   1.718   0.411 -0.4054 -0.4241 -0.0744
 7479SOL    HW229648   3.020   1.641   0.354  1.2922 -0.5642 -0.0856
 7479SOL    HW329649   3.119   1.731   0.425 -0.7388 -0.4372  2.7375
 7479SOL    MW429650   3.037   1.710   0.405  0.2250  0.0539 -0.7638
 7480SOL     OW29651   0.896   0.657   5.583  0.1286 -0.0199 -0.3742
 7480SOL    HW229652   0.902   0.692   5.673 -1.4521 -1.2092  0.2339
 7480SOL    HW329653   0.958   0.584   5.582  0.4958  0.2857 -0.4144
 7480SOL    MW429654   0.905   0.652   5.595  0.1554  0.5159 -0.5892
 7481SOL     OW29655   5.321   1.670   1.927 -0.2124 -0.7824  0.4346
 7481SOL    HW229656   5.277   1.668   2.012  0.8020 -0.8140  0.9810
 7481SOL    HW329657   5.335   1.577   1.906  0.1689 -0.7615  0.5833
 7481SOL    MW429658   5.317   1.657   1.936 -0.4995 -0.0931 -0.0522
 7482SOL     OW29659   2.898   1.120   3.942  0.0997 -0.2453  0.0322
 7482SOL    HW229660   2.850   1.047   3.981  0.6968 -0.5356  0.2375
 7482SOL    HW329661   2.927   1.087   3.857  0.6263 -0.3548  0.2515
 7482SOL    MW429662   2.895   1.106   3.936  0.9085  0.2720  0.7266
 7483SOL     OW29663   0.414   0.272   1.687  0.4439  0.2780  0.1233
 7483SOL    HW229664   0.444   0.273   1.778  0.4788  0.3143  0.1116
 7483SOL    HW329665   0.463   0.200   1.647 -0.1162 -0.2201  0.3150
 7483SOL    MW429666   0.425   0.263   1.694 -0.1254  0.0655  0.1775
 7484SOL     OW29667   3.977   0.470   1.317 -0.3931  0.3145  0.2744
 7484SOL    HW229668   3.964   0.534   1.387 -1.0556  1.0604 -0.5104
 7484SOL    HW329669   3.923   0.502   1.245 -1.0660 -1.3620  0.0033
 7484SOL    MW429670   3.969   0.483   1.317 -0.0185 -0.7824 -0.5406
 7485SOL     OW29671   5.999   6.370   3.412 -0.1804 -0.4203  0.2584
 7485SOL    HW229672   5.938   6.303   3.382  0.5794 -0.4859 -1.2777
 7485SOL    HW329673   6.068   6.321   3.456 -1.0614 -0.3665  1.7679
 7485SOL    MW429674   6.000   6.355   3.414 -0.0962  0.1923 -0.0750
 7486SOL     OW29675   3.561   2.980   1.582 -0.5870 -0.2463 -0.3992
 7486SOL    HW229676   3.517   2.986   1.497 -0.9672 -1.2512 -0.2841
 7486SOL    HW329677   3.654   2.977   1.560 -0.6776 -0.3962 -0.7779
 7486SOL    MW429678   3.568   2.981   1.568 -0.2315 -0.5371  0.2837
 7487SOL     OW29679   3.883   0.293   0.617  0.4586  0.5873  0.7120
 7487SOL    HW229680   3.842   0.255   0.695 -0.8140 -0.1673 -0.2904
 7487SOL    HW329681   3.974   0.306   0.643  0.8037 -2.3851  1.4517
 7487SOL    MW429682   3.890   0.290   0.631 -0.3267  0.2559 -0.4386
 7488SOL     OW29683   2.308   0.295   6.144  0.3959  0.1306  0.2239
 7488SOL    HW229684   2.368   0.341   6.085  1.3969 -0.9915  0.3215
 7488SOL    HW329685   2.228   0.348   6.143  1.4664  1.8553  0.3206
 7488SOL    MW429686   2.306   0.308   6.136  0.8706  0.4938  0.0213
 7489SOL     OW29687   2.784   1.049   5.448 -0.0021 -0.0147 -1.0014
 7489SOL    HW229688   2.857   1.111   5.441 -0.3570  0.4083 -0.9917
 7489SOL    HW329689   2.821   0.975   5.496  0.1592  0.6255 -0.0929
 7489SOL    MW429690   2.799   1.048   5.454  0.1084 -0.0027 -0.2928
 7490SOL     OW29691   1.961   0.876   2.935 -0.3320 -0.4328 -0.0783
 7490SOL    HW229692   2.029   0.920   2.885 -1.8290 -0.2262 -2.0539
 7490SOL    HW329693   1.989   0.884   3.027  1.6064  0.7557 -0.7235
 7490SOL    MW429694   1.973   0.883   2.941 -0.0866 -0.1578 -0.1219
 7491SOL     OW29695   5.291   0.139   1.670 -0.2303  0.0482  0.1565
 7491SOL    HW229696   5.238   0.160   1.592 -0.4265 -1.0113 -0.0049
 7491SOL    HW329697   5.246   0.184   1.741 -1.4616 -0.9452  0.0433
 7491SOL    MW429698   5.278   0.148   1.669 -0.2502 -0.0349  0.0828
 7492SOL     OW29699   3.644   1.832   4.919  0.1956  1.1103 -0.1408
 7492SOL    HW229700   3.631   1.924   4.896 -2.3748  0.8039 -0.1794
 7492SOL    HW329701   3.618   1.827   5.012  1.7614  0.6638  0.3043
 7492SOL    MW429702   3.639   1.843   4.929  0.2377 -0.3825 -0.3184
 7493SOL     OW29703   0.228   5.654   5.268 -0.0159  0.1236 -0.3633
 7493SOL    HW229704   0.203   5.746   5.273  0.5410  0.2663 -0.1482
 7493SOL    HW329705   0.210   5.629   5.178 -0.6299  0.3052 -0.3008
 7493SOL    MW429706   0.222   5.663   5.257  0.0940 -0.4110  0.1792
 7494SOL     OW29707   3.709   3.832   4.856 -0.1391 -0.2644 -0.2902
 7494SOL    HW229708   3.772   3.903   4.870  1.1070 -1.7909  2.8248
 7494SOL    HW329709   3.763   3.753   4.851 -1.6888 -1.4326  0.6601
 7494SOL    MW429710   3.725   3.831   4.857  0.5500 -0.3143  0.6163
 7495SOL     OW29711   2.597   4.044   5.785 -0.5052  0.4007  0.3357
 7495SOL    HW229712   2.690   4.037   5.763 -0.6550  0.0192 -0.1961
 7495SOL    HW329713   2.561   3.959   5.759 -0.4470 -0.6578  3.2728
 7495SOL    MW429714   2.605   4.032   5.779 -0.5739  0.3501  0.2123
 7496SOL     OW29715   6.416   2.525   2.984  0.1478  0.6728  0.5628
 7496SOL    HW229716   6.328   2.558   2.999 -0.5123 -0.5845 -0.3870
 7496SOL    HW329717   6.459   2.533   3.069 -1.0950  0.6746  1.2140
 7496SOL    MW429718   6.410   2.531   2.997  0.0945 -0.3069  0.2755
 7497SOL     OW29719   3.853   3.378   3.773  0.6077  0.1460  0.1951
 7497SOL    HW229720   3.884   3.371   3.682  0.7056  0.3869  0.2089
 7497SOL    HW329721   3.893   3.304   3.818  0.5712  0.0342  0.0445
 7497SOL    MW429722   3.862   3.367   3.767 -0.1081 -0.3070 -0.4367
 7498SOL     OW29723   1.902   0.308   4.664  0.0589  0.3729  0.2849
 7498SOL    HW229724   1.975   0.310   4.602  1.3758 -2.0774  1.6324
 7498SOL    HW329725   1.827   0.337   4.612  1.4035  0.0812 -1.9823
 7498SOL    MW429726   1.902   0.312   4.649 -0.1197  0.2020  0.1408
 7499SOL     OW29727   4.221   4.566   3.497 -0.0061  0.4140  0.6383
 7499SOL    HW229728   4.174   4.586   3.416  0.0532 -0.1675  0.4562
 7499SOL    HW329729   4.251   4.651   3.530  2.6117  0.4557 -1.5260
 7499SOL    MW429730   4.219   4.580   3.491  0.4649  0.4163  0.3951
 7500SOL     OW29731   1.959   0.053   4.503 -0.4962 -0.1940  0.2236
 7500SOL    HW229732   1.903  -0.019   4.532 -1.1302  0.3506  0.3826
 7500SOL    HW329733   1.914   0.090   4.428 -1.4008  1.4984  1.5374
 7500SOL    MW429734   1.946   0.048   4.497 -0.2188 -1.0354 -0.4257
 7501SOL     OW29735   5.526   2.209   1.711 -0.7155  0.0695 -0.2730
 7501SOL    HW229736   5.502   2.199   1.619  1.5106 -0.2950 -0.8933
 7501SOL    HW329737   5.539   2.120   1.743  1.2321  0.2377 -0.4642
 7501SOL    MW429738   5.525   2.196   1.703  0.2671 -0.2165  0.6888
 7502SOL     OW29739   0.954   1.375   2.647  0.0957 -0.2434 -0.1199
 7502SOL    HW229740   0.988   1.438   2.585  2.8535  0.1297  1.6044
 7502SOL    HW329741   1.003   1.294   2.629 -0.1196 -0.5513  0.6182
 7502SOL    MW429742   0.965   1.372   2.637  0.4789 -0.2821 -0.1938
 7503SOL     OW29743   0.977   5.573   3.465 -0.4998 -0.0232 -1.0174
 7503SOL    HW229744   0.927   5.549   3.387  0.4404 -0.6035 -1.4616
 7503SOL    HW329745   0.915   5.562   3.537 -1.2287  0.0145 -1.6237
 7503SOL    MW429746   0.962   5.568   3.464  0.2392  0.1469  0.1561
 7504SOL     OW29747   5.309   5.635   1.174 -0.2027  0.0742 -0.0200
 7504SOL    HW229748   5.398   5.670   1.183  0.4358 -1.4509 -0.0063
 7504SOL    HW329749   5.288   5.646   1.081  0.4286 -0.4766 -0.2400
 7504SOL    MW429750   5.318   5.641   1.163 -0.0697  0.1157 -0.8519
 7505SOL     OW29751   5.590   0.500   2.732  0.4582  0.2087  0.2755
 7505SOL    HW229752   5.652   0.550   2.785  1.0669  1.2122 -1.3221
 7505SOL    HW329753   5.588   0.414   2.774  0.5722  1.0583  2.1617
 7505SOL    MW429754   5.598   0.495   2.745  0.3108  0.3247 -0.3655
 7506SOL     OW29755   4.368   5.399   3.091 -0.0953  0.2500 -0.1302
 7506SOL    HW229756   4.278   5.416   3.065 -0.0925  0.2473 -0.1410
 7506SOL    HW329757   4.417   5.474   3.057 -0.3078  0.9876  1.1313
 7506SOL    MW429758   4.363   5.411   3.083 -0.0016 -0.1130  0.4312
 7507SOL     OW29759   0.454   5.115   3.456 -0.6923 -0.0315 -0.1095
 7507SOL    HW229760   0.413   5.191   3.499 -2.0498 -0.7701 -0.0435
 7507SOL    HW329761   0.409   5.108   3.372 -1.0567 -1.1339  0.1571
 7507SOL    MW429762   0.442   5.124   3.451 -0.0392 -0.5902 -0.1625
 7508SOL     OW29763   5.614   5.347   2.427 -0.0500  0.4151  0.2044
 7508SOL    HW229764   5.635   5.269   2.375 -0.8026  1.3940 -1.6551
 7508SOL    HW329765   5.687   5.407   2.412 -0.5184  0.9035 -0.1835
 7508SOL    MW429766   5.626   5.345   2.418  0.1694  0.7034 -0.0294
 7509SOL     OW29767   2.900   2.223   1.391  0.7827 -0.2676 -0.1351
 7509SOL    HW229768   2.875   2.180   1.309 -0.0964 -0.9442  0.4771
 7509SOL    HW329769   2.956   2.160   1.435  1.5184  0.2272 -0.3531
 7509SOL    MW429770   2.904   2.209   1.386 -0.2525  0.3751 -0.3769
 7510SOL     OW29771   5.345   4.561   3.338  0.0596 -0.0354 -0.2117
 7510SOL    HW229772   5.260   4.519   3.323 -0.7167  1.4319 -0.1290
 7510SOL    HW329773   5.328   4.627   3.405  0.5196  2.3752 -2.3188
 7510SOL    MW429774   5.331   4.564   3.345 -0.5274  0.3808  0.4992
 7511SOL     OW29775   5.494   3.386   4.670  0.6290 -0.5627  0.0966
 7511SOL    HW229776   5.556   3.458   4.665  1.0186 -0.8190  0.9927
 7511SOL    HW329777   5.509   3.336   4.590  2.2771 -1.1478  0.7115
 7511SOL    MW429778   5.504   3.389   4.659  0.1004 -0.4310  0.3196
 7512SOL     OW29779   2.839   5.520   0.260 -0.3090  0.6647  0.1640
 7512SOL    HW229780   2.904   5.553   0.323  0.0134  0.1325  0.1213
 7512SOL    HW329781   2.820   5.431   0.291 -0.4231  0.5347 -0.2796
 7512SOL    MW429782   2.845   5.513   0.273 -0.2523  0.5600  0.0657
 7513SOL     OW29783   1.891   4.767   2.256  0.2574  0.4979  0.3458
 7513SOL    HW229784   1.836   4.793   2.182 -0.1703 -0.0360  0.4740
 7513SOL    HW329785   1.963   4.831   2.256  2.1248 -1.3819 -2.5741
 7513SOL    MW429786   1.893   4.779   2.247  0.1689 -0.2083  0.6247
 7514SOL     OW29787   2.668   6.135   0.787  0.4447 -0.1579 -0.4388
 7514SOL    HW229788   2.758   6.148   0.817  0.8640 -0.2653 -1.6196
 7514SOL    HW329789   2.655   6.041   0.790  0.4975 -0.1713 -0.6114
 7514SOL    MW429790   2.678   6.125   0.791 -0.0727 -0.1624 -0.4184
 7515SOL     OW29791   3.451   0.335   3.156  0.0628  0.0171 -0.5813
 7515SOL    HW229792   3.435   0.424   3.189 -1.1308 -0.2765 -0.3368
 7515SOL    HW329793   3.543   0.319   3.176 -0.1852  0.4842  1.1568
 7515SOL    MW429794   3.461   0.345   3.163 -0.3396  0.2137  0.0006
 7516SOL     OW29795   3.401   1.045   0.387  0.2637 -0.3642  0.0994
 7516SOL    HW229796   3.469   1.037   0.321 -0.6449 -0.2643 -0.8697
 7516SOL    HW329797   3.431   1.116   0.444  0.3373  0.6199 -1.1202
 7516SOL    MW429798   3.414   1.053   0.386  0.2352  0.2930 -0.7020
 7517SOL     OW29799   2.986   5.800   4.742  0.4384 -0.1670  0.7152
 7517SOL    HW229800   2.975   5.714   4.781  1.1288 -1.5901 -1.9592
 7517SOL    HW329801   2.914   5.808   4.679  1.3390  0.4409 -0.2791
 7517SOL    MW429802   2.975   5.790   4.739  0.2306 -0.0325 -0.1166
 7518SOL     OW29803   5.714   1.326   1.321  0.0693 -0.5010  0.8592
 7518SOL    HW229804   5.658   1.263   1.276  0.3542  0.6314 -1.2168
 7518SOL    HW329805   5.803   1.300   1.297  0.2465 -0.1432  1.1290
 7518SOL    MW429806   5.719   1.314   1.312 -0.6722  0.5866  0.4468
 7519SOL     OW29807   2.157   5.849   4.979 -0.0459  0.1471  0.0854
 7519SOL    HW229808   2.196   5.925   4.935  0.8053  0.0633  0.6564
 7519SOL    HW329809   2.167   5.777   4.917  0.6183  0.1562  0.1693
 7519SOL    MW429810   2.164   5.850   4.965 -0.2730  0.1538  0.2515
 7520SOL     OW29811   0.598   0.794   2.642 -0.1790 -0.4573 -0.6278
 7520SOL    HW229812   0.675   0.788   2.699 -1.2616 -1.9680  0.7884
 7520SOL    HW329813   0.613   0.727   2.575  0.4363  0.3368 -1.3048
 7520SOL    MW429814   0.610   0.784   2.641  0.3547 -0.5903  0.3096
 7521SOL     OW29815   3.755   4.174   0.581 -0.2541  0.4166 -0.3099
 7521SOL    HW229816   3.838   4.131   0.601 -0.0233  1.1989  0.4884
 7521SOL    HW329817   3.778   4.247   0.523 -0.4779  0.2438 -0.6244
 7521SOL    MW429818   3.769   4.178   0.576  0.5821 -0.1742 -0.5176
 7522SOL     OW29819   4.550   1.612   0.356  0.2213  0.0232 -0.4310
 7522SOL    HW229820   4.593   1.695   0.333  1.0218 -0.2465  0.0330
 7522SOL    HW329821   4.599   1.546   0.308 -0.5154 -0.1846 -0.9209
 7522SOL    MW429822   4.562   1.614   0.347  0.4773 -0.0077  0.0672
 7523SOL     OW29823   0.782   1.264   4.238  0.5176 -0.0071 -0.0352
 7523SOL    HW229824   0.798   1.191   4.297 -0.5151  1.0792  1.6654
 7523SOL    HW329825   0.842   1.333   4.267  1.3046 -0.0450 -1.4557
 7523SOL    MW429826   0.792   1.264   4.249 -0.2357  0.1704  0.1379
 7524SOL     OW29827   5.908   2.950   3.238 -0.4705 -0.3637  0.2474
 7524SOL    HW229828   5.951   3.010   3.176  0.4708 -0.6194  0.6471
 7524SOL    HW329829   5.856   2.892   3.182 -0.4752  0.0818 -0.2235
 7524SOL    MW429830   5.907   2.951   3.222  0.2963  0.6217 -0.0433
 7525SOL     OW29831   0.518   1.631   1.928 -0.5883 -0.3427 -0.5395
 7525SOL    HW229832   0.565   1.554   1.962 -0.4692  1.2445  3.4254
 7525SOL    HW329833   0.586   1.697   1.915 -1.0374  0.1206 -0.5632
 7525SOL    MW429834   0.533   1.629   1.931  0.4224 -0.4894 -0.1260
 7526SOL     OW29835   0.884   4.635   5.280  0.4731 -0.1508 -0.1950
 7526SOL    HW229836   0.815   4.670   5.336  1.3546  0.3608  0.5979
 7526SOL    HW329837   0.884   4.691   5.203 -0.8200 -0.9253 -0.8003
 7526SOL    MW429838   0.875   4.647   5.277  0.2846 -0.3672  0.6386
 7527SOL     OW29839   2.572   4.378   0.715 -0.1387 -0.3010 -0.1611
 7527SOL    HW229840   2.549   4.428   0.636  0.4702  1.0928  0.5122
 7527SOL    HW329841   2.654   4.335   0.692 -0.7903 -1.2510 -0.8297
 7527SOL    MW429842   2.580   4.379   0.701 -0.1228  0.3613  0.3684
 7528SOL     OW29843   5.565   3.632   5.459 -0.3254 -0.0985  0.1063
 7528SOL    HW229844   5.630   3.572   5.423  1.0905  0.8034  1.0384
 7528SOL    HW329845   5.617   3.697   5.506 -1.9231  0.6708  0.8679
 7528SOL    MW429846   5.580   3.633   5.461 -0.2117  0.1483  0.4530
 7529SOL     OW29847   3.882   5.803   6.384  0.3492  0.5891  0.2142
 7529SOL    HW229848   3.966   5.795   6.339 -0.1857 -1.6732 -0.4873
 7529SOL    HW329849   3.895   5.755   6.466 -0.4182 -0.2129 -0.1333
 7529SOL    MW429850   3.895   5.796   6.389 -0.4182  0.1430 -0.0695
 7530SOL     OW29851   4.780   3.265   2.581  0.1926  0.6864 -0.6948
 7530SOL    HW229852   4.743   3.208   2.650  1.6584 -1.9471 -1.9350
 7530SOL    HW329853   4.858   3.303   2.621  0.5109 -0.0731 -0.5806
 7530SOL    MW429854   4.785   3.262   2.596  0.4416  0.0915 -0.5856
 7531SOL     OW29855   4.055   5.133   0.255 -0.0223  0.2350 -0.0762
 7531SOL    HW229856   3.982   5.161   0.200 -0.0830  0.6849  0.2273
 7531SOL    HW329857   4.047   5.038   0.259 -1.8572  0.3742  1.6449
 7531SOL    MW429858   4.044   5.124   0.248  0.2439  0.4209  0.1887
 7532SOL     OW29859   2.631   5.529   2.390 -0.3482  0.5293 -0.6081
 7532SOL    HW229860   2.695   5.462   2.368  0.3576  1.0976 -0.3467
 7532SOL    HW329861   2.609   5.569   2.306  0.1835  0.7986 -0.6258
 7532SOL    MW429862   2.637   5.526   2.376 -0.0721 -0.4111  0.2042
 7533SOL     OW29863   4.368   3.750   0.152  0.1300 -0.2072 -0.5512
 7533SOL    HW229864   4.288   3.698   0.148  0.7089 -1.1563 -0.1520
 7533SOL    HW329865   4.366   3.804   0.072 -0.9087 -0.1969 -0.5281
 7533SOL    MW429866   4.357   3.750   0.141 -0.1978  0.8256 -0.7505
 7534SOL     OW29867   1.401   2.411   5.878  0.0150  0.8105 -0.3178
 7534SOL    HW229868   1.413   2.506   5.888  0.4388  0.7930 -0.6028
 7534SOL    HW329869   1.467   2.386   5.813  0.8201  0.1086  0.7345
 7534SOL    MW429870   1.412   2.420   5.870 -0.3944 -0.3443 -0.1389
 7535SOL     OW29871   2.131   2.124   4.790  0.2553  0.0907 -0.2276
 7535SOL    HW229872   2.183   2.134   4.710  0.5438 -0.8185 -0.1695
 7535SOL    HW329873   2.090   2.209   4.803  1.1607  0.6105 -0.6778
 7535SOL    MW429874   2.132   2.136   4.781 -0.1943 -0.0479  1.1612
 7536SOL     OW29875   2.374   2.773   2.850 -0.0942 -0.2370  0.1643
 7536SOL    HW229876   2.285   2.805   2.836 -0.2787 -0.7246  0.1996
 7536SOL    HW329877   2.428   2.823   2.788  0.0723  2.1464  2.1162
 7536SOL    MW429878   2.370   2.784   2.840 -0.8741 -0.3307 -0.2160
 7537SOL     OW29879   0.099   3.738   1.597  0.2511 -0.1133  0.2510
 7537SOL    HW229880   0.176   3.690   1.567  1.0879  0.4582  1.4039
 7537SOL    HW329881   0.069   3.689   1.674 -1.7099 -1.4220 -1.2763
 7537SOL    MW429882   0.105   3.725   1.603  0.2541 -0.4879  0.2471
 7538SOL     OW29883   5.410   2.259   1.145 -0.0979  0.2937 -0.7495
 7538SOL    HW229884   5.423   2.296   1.232 -0.5157  0.9035 -0.9393
 7538SOL    HW329885   5.358   2.179   1.160  2.2138 -1.1877 -0.1679
 7538SOL    MW429886   5.405   2.253   1.158 -0.2923  0.0353  0.3453
 7539SOL     OW29887   0.728   5.720   2.595 -0.2946 -0.4809 -0.0359
 7539SOL    HW229888   0.675   5.669   2.533 -0.9111 -2.0706  1.7003
 7539SOL    HW329889   0.810   5.671   2.602 -0.4174 -0.5819  0.7530
 7539SOL    MW429890   0.732   5.707   2.588 -0.1590  0.0189  0.2311
 7540SOL     OW29891   4.206   0.968   0.182 -0.1410  0.0776 -0.6412
 7540SOL    HW229892   4.203   0.882   0.223  0.7205  0.1925 -0.3052
 7540SOL    HW329893   4.148   1.022   0.236 -0.5554 -0.2471 -0.7566
 7540SOL    MW429894   4.198   0.964   0.195 -0.0167  0.3991 -0.1155
 7541SOL     OW29895   2.737   4.569   0.189 -0.3958 -0.4770 -0.1116
 7541SOL    HW229896   2.703   4.504   0.128  0.5255 -0.9237 -0.1553
 7541SOL    HW329897   2.665   4.632   0.198 -0.5436 -0.3840 -1.6660
 7541SOL    MW429898   2.723   4.569   0.182 -0.6847  0.5914 -0.2235
 7542SOL     OW29899   3.093   2.484   4.372  0.4383 -0.1166  0.0148
 7542SOL    HW229900   3.019   2.436   4.409  0.4713 -0.1464  0.0419
 7542SOL    HW329901   3.053   2.555   4.322  0.3967  1.0746  1.6170
 7542SOL    MW429902   3.078   2.487   4.371  0.0224 -0.8653 -0.8671
 7543SOL     OW29903   6.055   2.733   5.137  0.4265 -0.1271 -0.5183
 7543SOL    HW229904   6.139   2.703   5.100  0.0304 -0.4426 -1.1762
 7543SOL    HW329905   6.005   2.762   5.061  0.4302  1.3289 -0.0060
 7543SOL    MW429906   6.060   2.733   5.122  0.2515  0.3986 -0.1671
 7544SOL     OW29907   0.865   4.329   4.529  0.1159  0.4532 -0.1084
 7544SOL    HW229908   0.917   4.409   4.536  1.0603 -0.0211 -1.4127
 7544SOL    HW329909   0.897   4.286   4.450  0.0108 -1.4902  0.8580
 7544SOL    MW429910   0.876   4.334   4.520 -0.2213  0.5089 -0.3696
 7545SOL     OW29911   0.354   3.008   5.783  0.0095  0.6414 -0.1600
 7545SOL    HW229912   0.445   3.006   5.814 -0.2798 -1.4521  0.7013
 7545SOL    HW329913   0.355   2.957   5.702 -0.6222 -0.5867  0.5873
 7545SOL    MW429914   0.366   3.001   5.776  0.0862 -0.2911  0.1569
 7546SOL     OW29915   3.489   0.108   0.683 -0.2760  0.0988 -0.0348
 7546SOL    HW229916   3.522   0.079   0.597  1.4408 -0.5470  0.7996
 7546SOL    HW329917   3.536   0.189   0.700  0.1606 -0.3128  0.7437
 7546SOL    MW429918   3.499   0.115   0.674  0.0877  0.2287 -0.0373
 7547SOL     OW29919   6.382   6.062   4.522 -0.3907 -0.0981 -0.5943
 7547SOL    HW229920   6.360   5.969   4.534  0.3450 -0.1788  0.1699
 7547SOL    HW329921   6.312   6.095   4.466 -0.9266 -1.0007 -0.4855
 7547SOL    MW429922   6.370   6.054   4.516 -0.3071 -0.0604  0.5431
 7548SOL     OW29923   3.867   5.468   4.697  0.2424  0.0077  0.5562
 7548SOL    HW229924   3.880   5.507   4.783 -0.7957  1.7159 -0.0027
 7548SOL    HW329925   3.853   5.543   4.639 -0.9003 -1.1620 -0.7657
 7548SOL    MW429926   3.867   5.483   4.701  0.9490  0.4688  0.2763
 7549SOL     OW29927   1.686   2.972   3.146 -0.3843  0.1477  0.4776
 7549SOL    HW229928   1.592   2.966   3.161 -0.6323  0.4448 -0.8780
 7549SOL    HW329929   1.700   3.058   3.106  0.3981 -0.0943  0.1998
 7549SOL    MW429930   1.676   2.982   3.143  0.0977 -0.3675  0.5180
 7550SOL     OW29931   1.083   5.242   1.006 -0.2358  0.0151 -0.0482
 7550SOL    HW229932   1.153   5.209   1.063 -0.0717  1.0066  0.3603
 7550SOL    HW329933   1.003   5.227   1.056 -0.3247 -1.0684 -0.4913
 7550SOL    MW429934   1.082   5.236   1.020 -0.1960  0.3501 -0.3018
 7551SOL     OW29935   0.857   4.359   3.317 -0.2448 -0.4383  0.1109
 7551SOL    HW229936   0.865   4.301   3.241  2.5052 -1.5674  1.1282
 7551SOL    HW329937   0.916   4.321   3.383  3.1201  4.2708  0.3586
 7551SOL    MW429938   0.866   4.346   3.316  0.4012 -0.0279  0.3416
 7552SOL     OW29939   1.565   2.282   3.248 -0.3462 -0.2713  0.0637
 7552SOL    HW229940   1.476   2.265   3.279  0.5650 -2.3706  1.9168
 7552SOL    HW329941   1.555   2.311   3.158 -2.8558 -1.6044 -0.1712
 7552SOL    MW429942   1.552   2.283   3.240 -0.0948 -0.1654  0.0776
 7553SOL     OW29943   1.060   2.083   2.623 -0.2739 -0.4107  0.0173
 7553SOL    HW229944   1.152   2.066   2.606 -0.1083  0.8284 -0.4424
 7553SOL    HW329945   1.020   1.997   2.631  1.1300 -0.9640  1.4328
 7553SOL    MW429946   1.067   2.070   2.622  0.4680  0.0696  0.4992
 7554SOL     OW29947   0.716   4.607   4.889  0.1620  0.7439 -0.1040
 7554SOL    HW229948   0.679   4.525   4.855  0.1944  0.4037  0.6596
 7554SOL    HW329949   0.768   4.642   4.817 -0.7687  0.6769 -0.8263
 7554SOL    MW429950   0.718   4.601   4.875 -0.3747 -0.2209  0.0392
 7555SOL     OW29951   3.764   1.251   2.039  0.1306 -0.9063  0.3027
 7555SOL    HW229952   3.703   1.324   2.056  0.5849 -0.0457 -1.5071
 7555SOL    HW329953   3.716   1.194   1.979  0.4793 -1.1539  0.2606
 7555SOL    MW429954   3.749   1.253   2.034  0.5163 -0.1112 -0.7609
 7556SOL     OW29955   3.226   4.254   5.788  0.0005 -0.0490  0.2383
 7556SOL    HW229956   3.251   4.248   5.881  0.4198 -0.6557  0.0905
 7556SOL    HW329957   3.185   4.340   5.780 -1.9254 -0.7843  1.4337
 7556SOL    MW429958   3.224   4.265   5.799 -0.5719 -0.2433  0.3127
 7557SOL     OW29959   0.524   2.841   0.199 -0.1399  0.5143  0.1121
 7557SOL    HW229960   0.467   2.765   0.185  0.7048  0.0443 -0.9503
 7557SOL    HW329961   0.513   2.893   0.120  2.8170 -0.8914 -1.3843
 7557SOL    MW429962   0.515   2.838   0.187 -0.3478  0.3583 -0.2544
 7558SOL     OW29963   3.950   2.006   4.316  0.0717 -0.0334 -0.3369
 7558SOL    HW229964   3.988   1.989   4.402 -2.2860 -1.3880  0.5143
 7558SOL    HW329965   3.922   2.098   4.320  1.6689  0.4982 -0.4168
 7558SOL    MW429966   3.951   2.016   4.328  0.3172 -0.5454  0.4221
 7559SOL     OW29967   1.382   0.806   1.497 -0.2346  0.0310  0.0488
 7559SOL    HW229968   1.391   0.893   1.458 -0.2115 -0.2266 -0.5193
 7559SOL    HW329969   1.457   0.757   1.465  0.4660  0.1740  1.3972
 7559SOL    MW429970   1.393   0.811   1.488  0.4618  1.0230  0.7377
 7560SOL     OW29971   1.410   2.082   0.603 -0.7210  0.2844  0.5891
 7560SOL    HW229972   1.345   2.030   0.557 -0.1336 -1.8583  2.0347
 7560SOL    HW329973   1.397   2.171   0.570 -1.0540 -0.8909 -2.7972
 7560SOL    MW429974   1.400   2.087   0.593 -0.0206  0.4368  0.0351
 7561SOL     OW29975   1.717   2.901   0.988  0.0034 -0.5344 -0.2119
 7561SOL    HW229976   1.743   2.934   0.903 -0.5480  0.2201 -0.0980
 7561SOL    HW329977   1.775   2.945   1.050  1.3665 -2.1340 -0.2694
 7561SOL    MW429978   1.728   2.911   0.985  0.1161  0.1148  0.0605
 7562SOL     OW29979   3.965   4.561   2.703  0.1046  0.5618  0.3881
 7562SOL    HW229980   3.943   4.472   2.676  1.8850  0.5387 -1.1714
 7562SOL    HW329981   3.987   4.606   2.622  0.0571  2.1877  1.2463
 7562SOL    MW429982   3.965   4.555   2.689  0.3561 -0.1012 -0.1045
 7563SOL     OW29983   5.432   2.157   5.059  0.0706 -0.0565  0.2552
 7563SOL    HW229984   5.423   2.068   5.094  0.9843 -0.1807  0.1961
 7563SOL    HW329985   5.415   2.148   4.965 -4.4586  0.5914  0.7459
 7563SOL    MW429986   5.428   2.144   5.052  0.0022  0.0449  0.4563
 7564SOL     OW29987   1.059   1.605   2.796  0.0218 -0.3032 -0.1100
 7564SOL    HW229988   1.047   1.511   2.781  1.6426 -1.2744  3.6195
 7564SOL    HW329989   1.154   1.616   2.803 -0.2299  1.1366  1.8095
 7564SOL    MW429990   1.070   1.594   2.795 -0.1690  0.2044 -0.1940
 7565SOL     OW29991   4.585   4.030   6.037  0.1237 -0.1427 -0.4379
 7565SOL    HW229992   4.545   3.961   5.984 -0.2385 -0.4299  0.1955
 7565SOL    HW329993   4.548   4.017   6.124 -0.4264  1.2398 -0.4452
 7565SOL    MW429994   4.575   4.019   6.041 -0.0490  0.2383  0.2243
 7566SOL     OW29995   0.297   2.340   4.622 -0.5018 -0.0310  0.5616
 7566SOL    HW229996   0.264   2.322   4.710 -0.3258  1.4064  0.9530
 7566SOL    HW329997   0.375   2.393   4.636 -0.5059  0.2743 -0.4562
 7566SOL    MW429998   0.303   2.345   4.636 -0.1564 -0.0179 -0.1943
 7567SOL     OW29999   1.080   3.434   4.917  0.0617 -0.3130 -0.1571
 7567SOL    HW230000   0.993   3.396   4.906  0.0569 -0.8069  1.4414
 7567SOL    HW330001   1.139   3.359   4.923  0.7125  0.0131 -1.8041
 7567SOL    MW430002   1.077   3.419   4.916  0.3393  0.1868 -0.7530
 7568SOL     OW30003   3.987   3.769   1.849  0.1680  0.2508 -0.3821
 7568SOL    HW230004   4.045   3.755   1.925 -0.2997 -1.2933 -0.2837
 7568SOL    HW330005   3.987   3.864   1.837  0.7118  0.4879  1.1935
 7568SOL    MW430006   3.995   3.779   1.858 -0.5345  0.7304 -0.0926
 7569SOL     OW30007   2.220   0.176   2.502  0.0349 -0.3027 -0.1024
 7569SOL    HW230008   2.189   0.233   2.431 -0.1069 -1.9866 -1.4616
 7569SOL    HW330009   2.146   0.168   2.561  0.1014  1.0030  0.1759
 7569SOL    MW430010   2.206   0.182   2.500  0.3202  0.2642 -0.6751
 7570SOL     OW30011   4.195   0.064   2.370 -0.2509  0.1159 -0.1483
 7570SOL    HW230012   4.248   0.143   2.355 -0.1625  0.0614 -0.1198
 7570SOL    HW330013   4.253   0.004   2.417  0.7637 -1.2287 -2.9338
 7570SOL    MW430014   4.210   0.067   2.374  0.5027  0.5249 -0.0552
 7571SOL     OW30015   1.435   3.854   4.829 -0.7087 -0.0229 -0.0851
 7571SOL    HW230016   1.444   3.846   4.734 -1.0433 -0.9217 -0.0505
 7571SOL    HW330017   1.441   3.948   4.845 -1.6752  0.2477 -1.1120
 7571SOL    MW430018   1.437   3.866   4.818 -0.3275 -0.0912  0.2343
 7572SOL     OW30019   5.727   4.578   5.431 -0.1452 -0.3953 -0.0030
 7572SOL    HW230020   5.705   4.593   5.523 -0.6929 -0.1581 -0.1739
 7572SOL    HW330021   5.650   4.607   5.382  0.0435 -0.7538 -0.5237
 7572SOL    MW430022   5.714   4.584   5.437 -0.1165  0.4887  0.1895
 7573SOL     OW30023   3.706   0.442   1.171 -0.5280  0.0438  0.0851
 7573SOL    HW230024   3.633   0.504   1.164 -0.1176  0.4268 -1.0760
 7573SOL    HW330025   3.721   0.413   1.081  0.2740 -0.5911  0.4133
 7573SOL    MW430026   3.699   0.447   1.158  0.5658  0.0137 -0.1391
 7574SOL     OW30027   5.993   4.589   5.563 -0.2953  0.1728 -0.0839
 7574SOL    HW230028   5.929   4.540   5.510  1.3706 -0.5322 -1.5204
 7574SOL    HW330029   5.972   4.681   5.546 -2.9162  0.0785  1.9860
 7574SOL    MW430030   5.981   4.595   5.554 -0.1904 -0.0278 -0.2851
 7575SOL     OW30031   2.849   2.112   1.149 -0.1375  0.7610  0.5915
 7575SOL    HW230032   2.764   2.130   1.108 -0.5886 -1.3606  0.4645
 7575SOL    HW330033   2.910   2.104   1.075 -0.4596 -0.6282  0.4413
 7575SOL    MW430034   2.846   2.113   1.133 -0.4498  0.2918 -0.2278
 7576SOL     OW30035   4.969   1.040   6.228  0.1095 -0.1271 -0.4890
 7576SOL    HW230036   4.948   1.007   6.316 -1.8987 -3.1633 -1.9161
 7576SOL    HW330037   4.903   1.107   6.211  0.0643 -0.0296  0.0505
 7576SOL    MW430038   4.957   1.044   6.238 -0.0704  0.1050 -0.6336
 7577SOL     OW30039   1.070   3.473   1.940 -0.1853 -0.1436  0.5030
 7577SOL    HW230040   0.993   3.459   1.884  1.0951  0.4335 -1.5038
 7577SOL    HW330041   1.062   3.406   2.008 -3.0699  0.6476  1.1168
 7577SOL    MW430042   1.059   3.463   1.942  0.0173 -0.0231 -0.8076
 7578SOL     OW30043   1.569   1.353   2.090  0.6969  0.0845  0.1733
 7578SOL    HW230044   1.545   1.261   2.091  3.3281 -0.6881 -0.3584
 7578SOL    HW330045   1.565   1.378   1.998  1.5851  0.0074  0.1041
 7578SOL    MW430046   1.565   1.345   2.078 -0.1173 -0.2537 -0.6839
 7579SOL     OW30047   3.831   6.419   3.369 -0.7596  0.3689  0.1464
 7579SOL    HW230048   3.822   6.462   3.284  1.4033 -1.6077 -1.1883
 7579SOL    HW330049   3.900   6.354   3.357 -1.3641 -1.0037  3.0406
 7579SOL    MW430050   3.839   6.417   3.356 -0.0571  0.1602  0.4560
 7580SOL     OW30051   1.703   4.765   3.911 -0.3071  0.3459 -0.1821
 7580SOL    HW230052   1.730   4.707   3.982  0.0826  0.5094 -0.1999
 7580SOL    HW330053   1.779   4.819   3.892 -0.0370 -0.4339 -1.4589
 7580SOL    MW430054   1.716   4.764   3.918  0.5959 -0.3206 -0.1211
 7581SOL     OW30055   4.192   4.454   1.382 -0.1267 -0.2519  0.0175
 7581SOL    HW230056   4.199   4.369   1.339  0.9773  0.2841 -0.9044
 7581SOL    HW330057   4.282   4.485   1.389 -0.5773  1.2580 -0.5174
 7581SOL    MW430058   4.205   4.447   1.377 -0.2811  0.1446  0.2854
 7582SOL     OW30059   4.072   3.254   5.088 -0.6519 -0.1208  0.1927
 7582SOL    HW230060   4.015   3.288   5.020  1.2950  0.8063 -1.0789
 7582SOL    HW330061   4.099   3.331   5.138 -0.6589 -0.5697  0.9159
 7582SOL    MW430062   4.068   3.268   5.086  0.0393 -0.4374  0.1952
 7583SOL     OW30063   2.041   4.192   2.822  0.0880  0.1210 -0.1444
 7583SOL    HW230064   1.952   4.171   2.851  0.3812 -1.7882 -0.4991
 7583SOL    HW330065   2.037   4.285   2.800 -1.3611  0.4855  1.4430
 7583SOL    MW430066   2.029   4.201   2.823 -0.5702  0.5950  0.4608
 7584SOL     OW30067   1.806   5.004   0.044  0.1487 -0.0977 -0.4123
 7584SOL    HW230068   1.777   4.922   0.005 -0.6335 -0.4741  0.8809
 7584SOL    HW330069   1.788   4.994   0.138  2.4687  0.5427  0.1688
 7584SOL    MW430070   1.799   4.992   0.051  0.7411 -0.1761 -0.4911
 7585SOL     OW30071   0.767   4.328   0.509  0.0304  0.3885 -0.3117
 7585SOL    HW230072   0.699   4.354   0.571  0.2909  0.9153 -0.2377
 7585SOL    HW330073   0.839   4.297   0.564  0.1127  0.4863 -0.3641
 7585SOL    MW430074   0.768   4.327   0.525 -0.4921  0.2329 -0.1038
 7586SOL     OW30075   3.838   1.223   5.166  0.4862  0.6975  0.1394
 7586SOL    HW230076   3.777   1.292   5.140 -0.2122  1.2255  2.8133
 7586SOL    HW330077   3.921   1.270   5.182 -0.1403  1.1387  2.5258
 7586SOL    MW430078   3.841   1.239   5.165  0.2346  0.3936  0.0767
 7587SOL     OW30079   0.456   1.560   3.879 -0.1341  0.1491 -0.1258
 7587SOL    HW230080   0.488   1.489   3.822 -0.2728  0.5986 -0.7775
 7587SOL    HW330081   0.468   1.639   3.826 -1.2175  0.4574  0.0803
 7587SOL    MW430082   0.462   1.561   3.864 -0.2742 -0.6278 -0.4248
 7588SOL     OW30083   0.485   5.369   4.722 -0.1876 -0.0901 -0.0148
 7588SOL    HW230084   0.507   5.381   4.630  3.2184 -0.0485  0.6967
 7588SOL    HW330085   0.533   5.290   4.749 -2.5013 -1.1392  1.3619
 7588SOL    MW430086   0.494   5.360   4.714  0.1514 -1.0245  0.1826
 7589SOL     OW30087   5.197   2.362   0.819  0.2862  0.3557  0.1842
 7589SOL    HW230088   5.157   2.400   0.897  1.2287 -1.1403  1.4583
 7589SOL    HW330089   5.254   2.430   0.785  0.2569  0.8407  1.0996
 7589SOL    MW430090   5.199   2.376   0.825  0.2107 -0.2397  0.7310
 7590SOL     OW30091   4.543   5.309   4.429 -0.0671 -0.2462  0.0407
 7590SOL    HW230092   4.448   5.322   4.421 -0.0063 -0.0269 -0.3683
 7590SOL    HW330093   4.552   5.224   4.472 -0.4453 -0.5122 -0.3941
 7590SOL    MW430094   4.532   5.300   4.434 -0.3860  0.1589  0.5025
 7591SOL     OW30095   1.758   1.082   1.890 -0.0985 -0.1577  0.3175
 7591SOL    HW230096   1.716   1.115   1.810 -0.3218  0.4914  0.6938
 7591SOL    HW330097   1.693   1.096   1.959  0.4776  0.2404  0.7922
 7591SOL    MW430098   1.744   1.088   1.889  0.6294  0.0275  0.1950
 7592SOL     OW30099   1.614   0.546   2.715  0.0853  0.1991  0.2931
 7592SOL    HW230100   1.706   0.568   2.730 -0.0225  0.7855  0.1290
 7592SOL    HW330101   1.567   0.587   2.788  0.0893 -1.2764  1.1524
 7592SOL    MW430102   1.620   0.554   2.726  0.4688 -0.1119  0.4224
 7593SOL     OW30103   2.581   2.458   2.502 -0.4565 -0.9087  0.1132
 7593SOL    HW230104   2.558   2.378   2.453 -1.0392 -0.3677 -0.5156
 7593SOL    HW330105   2.523   2.456   2.578  0.2317 -1.5930  0.6339
 7593SOL    MW430106   2.570   2.447   2.505 -0.7997  0.0129  0.1141
 7594SOL     OW30107   0.215   5.181   1.447 -0.4206 -0.0372  0.6167
 7594SOL    HW230108   0.160   5.254   1.419  0.7849 -0.1564 -2.5504
 7594SOL    HW330109   0.154   5.109   1.459 -1.4346  1.0004  2.0130
 7594SOL    MW430110   0.200   5.181   1.445 -0.1298  0.0251 -0.2617
 7595SOL     OW30111   0.016   4.777   2.661  0.3251  0.2223  0.1467
 7595SOL    HW230112  -0.071   4.741   2.680  0.4470 -1.5434 -2.1116
 7595SOL    HW330113  -0.002   4.864   2.624 -0.7094 -0.7442 -1.8193
 7595SOL    MW430114   0.002   4.784   2.658  0.1626 -0.6321  0.1485
 7596SOL     OW30115   5.908   6.411   1.446 -0.3219 -0.4524 -0.2091
 7596SOL    HW230116   5.935   6.501   1.465 -0.3984 -0.6136  0.6850
 7596SOL    HW330117   5.845   6.390   1.515 -0.6750 -1.0245 -0.7019
 7596SOL    MW430118   5.903   6.420   1.457  0.1553 -0.2801  0.7148
 7597SOL     OW30119   3.657   0.581   4.059 -0.3833  0.6181  0.4825
 7597SOL    HW230120   3.674   0.630   3.978  0.4592 -1.0663 -0.4340
 7597SOL    HW330121   3.743   0.571   4.099 -0.3743 -0.8547  0.1607
 7597SOL    MW430122   3.671   0.586   4.053  0.0110  0.4234 -0.0303
 7598SOL     OW30123   4.497   1.873  -0.018 -0.5065 -0.1298 -0.7286
 7598SOL    HW230124   4.542   1.793  -0.045 -1.3277 -0.3447 -1.5280
 7598SOL    HW330125   4.467   1.912  -0.100  0.1716  1.1841 -0.3761
 7598SOL    MW430126   4.499   1.867  -0.033  0.0600 -0.0579 -0.5201
 7599SOL     OW30127   0.609   5.092   2.278 -1.0556 -0.5286 -0.0606
 7599SOL    HW230128   0.675   5.022   2.275 -1.5574 -1.0945  1.5572
 7599SOL    HW330129   0.659   5.171   2.300 -0.8697 -0.9290  1.0099
 7599SOL    MW430130   0.625   5.094   2.280 -0.0667 -0.1683 -0.0294
 7600SOL     OW30131   5.016   5.834   1.638 -0.4482 -0.5929 -0.1949
 7600SOL    HW230132   5.088   5.801   1.585  1.3537  0.8707  1.1801
 7600SOL    HW330133   5.025   5.787   1.721 -0.7927 -0.0957  0.1292
 7600SOL    MW430134   5.027   5.824   1.642 -0.2321  0.9053  0.1288
 7601SOL     OW30135   5.372   1.646   2.863 -0.3640  0.0250 -0.3975
 7601SOL    HW230136   5.403   1.737   2.870 -2.2716  0.8050 -1.4236
 7601SOL    HW330137   5.448   1.598   2.830  1.1816  0.8889  1.6850
 7601SOL    MW430138   5.386   1.652   2.859 -0.3072  0.2761 -0.2534
 7602SOL     OW30139   3.608   5.841   4.608  0.0309  0.4322  0.0831
 7602SOL    HW230140   3.552   5.891   4.549 -0.9551 -0.4770  0.2193
 7602SOL    HW330141   3.665   5.791   4.550  1.4327  2.1100 -0.0534
 7602SOL    MW430142   3.608   5.841   4.593  0.0634  0.5070  0.0233
 7603SOL     OW30143   3.399   2.937   0.513 -0.1442 -0.2508 -0.1645
 7603SOL    HW230144   3.313   2.970   0.538 -0.0401 -0.9516  1.2257
 7603SOL    HW330145   3.380   2.865   0.452 -0.7386 -2.1326  2.0962
 7603SOL    MW430146   3.385   2.932   0.508 -0.3120 -0.0153 -0.0401
 7604SOL     OW30147   3.054   6.326   2.224 -0.2592  0.2122 -0.0274
 7604SOL    HW230148   3.109   6.397   2.192 -0.8529 -0.2825 -2.3217
 7604SOL    HW330149   3.115   6.263   2.262  0.5623  0.5710 -0.7237
 7604SOL    MW430150   3.069   6.327   2.225  0.9335  0.0986 -0.1356
 7605SOL     OW30151   2.011   2.032   3.671 -0.3900  0.0433  0.2626
 7605SOL    HW230152   2.012   2.089   3.748  1.6921 -2.4613  2.2604
 7605SOL    HW330153   2.091   2.055   3.623 -0.8512  0.4926 -0.3045
 7605SOL    MW430154   2.022   2.043   3.675  0.1365  0.2646  0.2292
 7606SOL     OW30155   5.757   3.667   6.275 -0.0167 -0.0464 -0.4261
 7606SOL    HW230156   5.810   3.587   6.274  0.9204  0.2724  3.7922
 7606SOL    HW330157   5.666   3.635   6.274  0.2478 -0.8737 -2.3451
 7606SOL    MW430158   5.752   3.652   6.275  0.4598  0.6212  0.1580
 7607SOL     OW30159   1.432   3.483   3.352 -0.5778 -0.0188  0.3504
 7607SOL    HW230160   1.358   3.453   3.299  0.0836 -0.3438 -0.4133
 7607SOL    HW330161   1.445   3.414   3.416  0.2288 -0.8609 -0.6941
 7607SOL    MW430162   1.424   3.470   3.354 -1.0471 -0.0951 -0.0523
 7608SOL     OW30163   2.203   3.383   2.051  0.2853 -0.2599 -0.1664
 7608SOL    HW230164   2.214   3.347   2.139  1.1661  0.8736  0.2083
 7608SOL    HW330165   2.252   3.323   1.994  2.3602  0.6683  0.5447
 7608SOL    MW430166   2.211   3.370   2.055  0.0051 -0.3007 -0.5697
 7609SOL     OW30167   4.557   0.309   4.225  0.2262 -0.6393  0.1643
 7609SOL    HW230168   4.553   0.251   4.301 -0.5056 -0.2986  0.3897
 7609SOL    HW330169   4.639   0.357   4.236 -0.0343 -0.3584  0.9149
 7609SOL    MW430170   4.568   0.308   4.236 -0.3338  0.2957  0.1317
 7610SOL     OW30171   4.238   4.812   3.691  0.2782 -0.2018  0.0939
 7610SOL    HW230172   4.144   4.829   3.695 -0.4771 -3.6403  0.0120
 7610SOL    HW330173   4.267   4.857   3.611 -1.5558 -0.1676 -0.6024
 7610SOL    MW430174   4.229   4.820   3.681 -0.4870 -0.4793 -0.2333
 7611SOL     OW30175   6.413   0.044   0.133 -0.6336 -0.1612 -0.1844
 7611SOL    HW230176   6.485   0.014   0.189  0.3116  0.5393 -0.9896
 7611SOL    HW330177   6.336   0.042   0.190  0.1544 -0.2167  0.9143
 7611SOL    MW430178   6.413   0.040   0.148 -0.2474 -0.0088  0.1608
 7612SOL     OW30179   6.022   2.875   5.368 -0.2205  0.3943 -0.0182
 7612SOL    HW230180   6.033   2.839   5.280 -1.7122  1.4527 -0.6600
 7612SOL    HW330181   5.964   2.813   5.412  1.2101 -0.6092  0.5707
 7612SOL    MW430182   6.016   2.862   5.362  0.1047  0.6770  0.4874
 7613SOL     OW30183   6.346   1.514   6.211  0.2288  0.5249  0.1413
 7613SOL    HW230184   6.348   1.419   6.198 -0.7043  0.3525  1.1455
 7613SOL    HW330185   6.321   1.549   6.125  0.9640 -0.0906 -0.3446
 7613SOL    MW430186   6.343   1.506   6.198  0.2414  0.4774  0.1517
 7614SOL     OW30187   2.343   2.276   5.278  0.8610 -0.0350  0.6407
 7614SOL    HW230188   2.414   2.272   5.213  0.0147 -0.2676 -0.3045
 7614SOL    HW330189   2.268   2.309   5.228 -0.0654 -1.1418  1.2759
 7614SOL    MW430190   2.342   2.280   5.263 -0.0062  0.2224  0.0978
 7615SOL     OW30191   3.383   0.368   5.236  0.1482 -0.1073 -0.2476
 7615SOL    HW230192   3.365   0.313   5.311 -1.4780 -1.2153 -1.3816
 7615SOL    HW330193   3.359   0.314   5.160  1.1686  1.1695 -1.5370
 7615SOL    MW430194   3.378   0.354   5.236  0.3125 -0.2997 -0.0193
 7616SOL     OW30195   1.245   5.921   2.627 -0.0099  0.2547 -0.3309
 7616SOL    HW230196   1.306   5.994   2.642 -1.9581  1.4822  2.4625
 7616SOL    HW330197   1.173   5.960   2.578  0.2749 -0.5828 -1.4492
 7616SOL    MW430198   1.244   5.936   2.623 -0.3011  0.2651  0.6005
 7617SOL     OW30199   6.095   4.027   5.266 -0.2454  0.1988 -0.4795
 7617SOL    HW230200   6.125   4.115   5.288 -0.9089  0.9555 -2.3401
 7617SOL    HW330201   6.000   4.037   5.257 -0.4605 -0.9787  0.3842
 7617SOL    MW430202   6.086   4.040   5.267  0.3809 -0.3403  0.1607
 7618SOL     OW30203   2.073   1.782   1.783  0.1741 -0.0900  0.3997
 7618SOL    HW230204   1.991   1.816   1.818  1.0681  1.2507  1.2771
 7618SOL    HW330205   2.075   1.690   1.813  0.0053  0.4797  2.3293
 7618SOL    MW430206   2.063   1.774   1.792 -0.5994 -0.0706 -0.1543
 7619SOL     OW30207   0.338   0.202   0.398  0.0603 -0.2024 -0.1470
 7619SOL    HW230208   0.265   0.264   0.399 -0.0546 -0.2071 -2.4386
 7619SOL    HW330209   0.305   0.128   0.348  1.4572 -0.4444 -0.7600
 7619SOL    MW430210   0.324   0.200   0.391  0.1181 -0.0558  0.4855
 7620SOL     OW30211   2.134   2.913   2.016  0.2996 -0.9175 -0.1589
 7620SOL    HW230212   2.133   3.005   1.989  1.0501 -1.2203 -1.3156
 7620SOL    HW330213   2.067   2.871   1.962 -1.1448 -0.7973  1.4652
 7620SOL    MW430214   2.125   2.919   2.005  0.2327 -0.4495  0.0628
 7621SOL     OW30215   3.241   0.178   6.330  0.3132  0.5854 -0.1736
 7621SOL    HW230216   3.244   0.248   6.265  1.1898 -0.5574 -1.4379
 7621SOL    HW330217   3.290   0.213   6.405 -0.8579  1.9953 -0.0267
 7621SOL    MW430218   3.248   0.192   6.331  0.6016 -0.2325  0.1984
 7622SOL     OW30219   2.482   5.015   6.345  0.6847 -0.0525  0.1773
 7622SOL    HW230220   2.559   5.072   6.340  0.9788 -0.5269 -1.3683
 7622SOL    HW330221   2.422   5.061   6.403  1.6428  0.9343  0.4223
 7622SOL    MW430222   2.484   5.028   6.352 -0.8067  0.3176 -0.5083
 7623SOL     OW30223   3.528   1.025   3.028  0.3825 -0.1290 -0.0210
 7623SOL    HW230224   3.571   1.067   2.953  0.6220  0.0396  0.2104
 7623SOL    HW330225   3.540   1.086   3.100 -1.2149  0.4438 -0.2000
 7623SOL    MW430226   3.535   1.038   3.028 -0.0971 -0.2740 -0.2110
 7624SOL     OW30227   4.832   2.867   2.831  0.6487 -0.3362 -0.0808
 7624SOL    HW230228   4.898   2.929   2.800  2.4460 -1.7383  0.8222
 7624SOL    HW330229   4.805   2.902   2.916 -0.0485  0.4011 -0.5853
 7624SOL    MW430230   4.837   2.880   2.838  0.0226 -0.1631 -0.0028
 7625SOL     OW30231   0.539   4.427   2.489 -0.5355  0.1138 -1.1926
 7625SOL    HW230232   0.559   4.431   2.583 -1.0930  1.5660 -1.1103
 7625SOL    HW330233   0.618   4.391   2.450  0.5047  1.4046 -0.3726
 7625SOL    MW430234   0.552   4.423   2.496 -0.5363 -0.0326 -0.2066
 7626SOL     OW30235   0.287   5.975   5.067  0.2727 -0.1727 -0.2678
 7626SOL    HW230236   0.247   6.006   5.148 -1.0028  0.3693 -1.0769
 7626SOL    HW330237   0.334   6.051   5.033  1.9221 -0.7509  0.5785
 7626SOL    MW430238   0.288   5.989   5.073  0.1524  0.6215 -0.7977
 7627SOL     OW30239   1.799   0.959   0.563  0.2663  0.2445  0.2838
 7627SOL    HW230240   1.814   1.054   0.558  1.0578  0.2306  1.8959
 7627SOL    HW330241   1.752   0.947   0.645  0.9938 -0.8523  0.5508
 7627SOL    MW430242   1.795   0.970   0.573  0.0564  0.5443 -0.0155
 7628SOL     OW30243   4.999   0.808   2.373  0.0776 -0.6351 -0.5680
 7628SOL    HW230244   4.923   0.794   2.315 -2.5235 -0.1012  2.4110
 7628SOL    HW330245   5.025   0.898   2.355 -0.0582 -0.7711 -1.5316
 7628SOL    MW430246   4.992   0.818   2.363  0.3769 -0.5889 -0.6003
 7629SOL     OW30247   3.248   5.828   3.994 -0.2356  0.7267 -0.1867
 7629SOL    HW230248   3.223   5.791   3.909 -1.0385  0.3034  0.2288
 7629SOL    HW330249   3.343   5.838   3.988 -0.3937  1.6736 -1.5169
 7629SOL    MW430250   3.257   5.825   3.982  0.2660 -0.3956  0.4114
 7630SOL     OW30251   3.271   1.713   6.291  0.3203 -0.2135  0.2370
 7630SOL    HW230252   3.309   1.801   6.295  0.9220 -0.4755  0.3696
 7630SOL    HW330253   3.335   1.657   6.335 -0.1064 -0.7026  0.2435
 7630SOL    MW430254   3.285   1.717   6.297  0.5165 -0.1267  0.0068
 7631SOL     OW30255   5.740   4.988   2.907  0.5192 -0.7669  0.0364
 7631SOL    HW230256   5.785   4.987   2.823  0.2397 -0.2696 -0.1213
 7631SOL    HW330257   5.799   5.035   2.966 -0.2335  0.8193 -0.4306
 7631SOL    MW430258   5.754   4.994   2.904 -0.3729 -0.1667  0.2010
 7632SOL     OW30259   4.750   6.410   2.690 -0.2853  0.0497  0.6638
 7632SOL    HW230260   4.809   6.359   2.745 -0.9370 -0.0243  1.2995
 7632SOL    HW330261   4.762   6.501   2.719  1.8350  0.5318 -1.3161
 7632SOL    MW430262   4.759   6.416   2.701 -0.3198  0.2698 -0.1311
 7633SOL     OW30263   2.525   6.325   0.615 -0.0912 -0.1102 -0.1723
 7633SOL    HW230264   2.567   6.247   0.653  0.9927  0.7296  0.4005
 7633SOL    HW330265   2.509   6.382   0.690 -0.3559  0.4679 -0.6653
 7633SOL    MW430266   2.528   6.322   0.630  0.5625 -0.0499  0.7954
 7634SOL     OW30267   0.036   5.944   0.697  0.0598  0.1875  0.3403
 7634SOL    HW230268   0.079   6.009   0.752 -0.9390  1.2387 -0.0760
 7634SOL    HW330269  -0.045   5.922   0.744  0.8822 -1.5997  1.0154
 7634SOL    MW430270   0.031   5.949   0.710 -0.3677  0.3095 -0.3396
 7635SOL     OW30271   0.451   1.325   1.151  0.4763  0.0991 -0.3160
 7635SOL    HW230272   0.359   1.342   1.172  0.6644 -0.0011  0.6216
 7635SOL    HW330273   0.498   1.401   1.186  0.6871  0.4552 -1.3537
 7635SOL    MW430274   0.445   1.338   1.159 -0.0195 -0.1153 -0.3231
 7636SOL     OW30275   0.557   5.690   0.212 -0.0292 -0.6430 -0.5332
 7636SOL    HW230276   0.550   5.663   0.303  1.5500  1.8255  0.4264
 7636SOL    HW330277   0.650   5.712   0.201 -0.5987  1.2905 -2.0366
 7636SOL    MW430278   0.569   5.689   0.222 -0.5845  0.1205 -0.7063
 7637SOL     OW30279   1.676   0.241   3.977 -0.0477 -0.8184 -0.0315
 7637SOL    HW230280   1.670   0.336   3.977 -2.1489 -0.8951  0.6970
 7637SOL    HW330281   1.684   0.217   3.885  0.3455  0.0378 -0.2323
 7637SOL    MW430282   1.677   0.250   3.965 -0.3270 -1.2597  0.6426
 7638SOL     OW30283   0.890   3.606   6.180  1.0521 -0.2764 -0.5556
 7638SOL    HW230284   0.946   3.578   6.108  0.4455 -0.8107 -0.8254
 7638SOL    HW330285   0.848   3.525   6.211  1.4569 -0.0900  0.5323
 7638SOL    MW430286   0.892   3.591   6.175 -0.1798 -0.2171 -0.4058
 7639SOL     OW30287   5.102   2.743   2.003  0.9558  0.1109  0.4958
 7639SOL    HW230288   5.132   2.652   1.996  0.2388 -0.0976 -0.0547
 7639SOL    HW330289   5.165   2.793   1.952  1.7808  0.0256  1.4229
 7639SOL    MW430290   5.114   2.737   1.995  0.3276 -0.0067  0.4579
 7640SOL     OW30291   1.946   3.243   0.814  0.5672 -0.4249 -0.2530
 7640SOL    HW230292   1.972   3.191   0.891 -2.5353 -2.9178 -0.6571
 7640SOL    HW330293   1.881   3.304   0.847  0.4504 -0.3464 -0.6228
 7640SOL    MW430294   1.941   3.244   0.829 -0.3577 -0.3917 -0.0348
 7641SOL     OW30295   1.484   0.232   3.025  0.4246 -0.1429 -0.0629
 7641SOL    HW230296   1.505   0.231   3.119  1.2827 -1.2889 -0.2411
 7641SOL    HW330297   1.568   0.226   2.981 -0.0066 -0.2187 -0.9076
 7641SOL    MW430298   1.498   0.231   3.032 -0.4300  0.1003  0.3627
 7642SOL     OW30299   5.667   5.363   2.116  0.1713 -0.0986  0.2380
 7642SOL    HW230300   5.575   5.383   2.097  0.2317  0.9020  0.9641
 7642SOL    HW330301   5.712   5.447   2.110  1.5361 -0.9209 -2.5984
 7642SOL    MW430302   5.661   5.376   2.113 -0.0651  0.8991 -0.6917
 7643SOL     OW30303   0.588   2.013   2.916 -0.1213 -0.1370 -0.4058
 7643SOL    HW230304   0.584   1.987   3.008  1.6237 -0.4440 -0.3754
 7643SOL    HW330305   0.656   2.081   2.914  1.4095 -1.6258 -1.7607
 7643SOL    MW430306   0.597   2.019   2.928  0.4787  0.9612 -0.4450
 7644SOL     OW30307   3.379   0.041   5.967 -0.5186 -0.2229  0.0875
 7644SOL    HW230308   3.422   0.127   5.957 -1.4657  0.1433 -1.1836
 7644SOL    HW330309   3.312   0.055   6.033  0.0587 -0.2921  0.6972
 7644SOL    MW430310   3.376   0.054   5.974  0.1493  0.7483  0.1169
 7645SOL     OW30311   4.233   0.710   3.129  0.5083 -0.0994  0.5581
 7645SOL    HW230312   4.150   0.673   3.100  0.1286  0.7289  0.5696
 7645SOL    HW330313   4.260   0.768   3.058  0.5183  0.4857  1.0304
 7645SOL    MW430314   4.226   0.713   3.116  1.0620 -0.3988  0.0609
 7646SOL     OW30315   2.827   6.151   5.244 -0.5104 -0.3126  0.3201
 7646SOL    HW230316   2.902   6.210   5.255 -1.9589  1.6854 -0.0077
 7646SOL    HW330317   2.862   6.064   5.266  1.8605  0.5430  0.2497
 7646SOL    MW430318   2.842   6.147   5.248 -0.5569  0.4420  0.3752
 7647SOL     OW30319   6.002   5.690   1.112  0.0106 -0.0164  0.5472
 7647SOL    HW230320   6.034   5.678   1.202 -1.0385 -1.1763  0.7821
 7647SOL    HW330321   5.973   5.782   1.110  1.4397  0.4684  0.9223
 7647SOL    MW430322   6.002   5.701   1.124  0.1277  0.0063 -0.4039
 7648SOL     OW30323   2.662   3.291   1.089 -0.3613 -0.6173 -0.2093
 7648SOL    HW230324   2.755   3.279   1.109 -0.0821  0.5354 -0.7705
 7648SOL    HW330325   2.618   3.283   1.174  0.2195 -1.3014  0.0439
 7648SOL    MW430326   2.669   3.288   1.103 -0.6225  0.0628  0.0432
 7649SOL     OW30327   4.935   2.693   6.327  0.0209  0.7077 -0.0260
 7649SOL    HW230328   4.900   2.604   6.337 -0.8753  1.0665  0.0600
 7649SOL    HW330329   4.995   2.703   6.401  1.4085 -0.4074 -0.9533
 7649SOL    MW430330   4.939   2.682   6.338 -0.8260 -0.2535 -0.1244
 7650SOL     OW30331   2.785   5.894   4.214  0.2486  0.6218 -0.3687
 7650SOL    HW230332   2.865   5.898   4.162  0.8421 -2.8336  0.0260
 7650SOL    HW330333   2.813   5.859   4.298 -1.6879 -1.3711 -0.4522
 7650SOL    MW430334   2.799   5.890   4.218  0.1401  0.2542 -0.0207
 7651SOL     OW30335   0.936   1.351   0.118 -0.4845  0.1832 -0.6637
 7651SOL    HW230336   1.013   1.312   0.158 -0.1233  1.2756 -0.2690
 7651SOL    HW330337   0.862   1.308   0.161 -0.1948 -2.8362 -2.9055
 7651SOL    MW430338   0.936   1.340   0.129 -0.0327 -0.0577 -0.1289
 7652SOL     OW30339   3.234   4.293   5.222  0.2611 -0.3793  0.0031
 7652SOL    HW230340   3.212   4.231   5.152  0.3711  0.9303 -1.2557
 7652SOL    HW330341   3.325   4.316   5.205  0.2460  0.0502  0.4946
 7652SOL    MW430342   3.243   4.288   5.210  0.0078 -0.3866  0.5764
 7653SOL     OW30343   2.694   3.098   3.527  0.5302  0.4166 -0.1889
 7653SOL    HW230344   2.681   3.067   3.617 -1.5016 -1.3121 -0.9952
 7653SOL    HW330345   2.785   3.077   3.508  0.8091  0.1834  1.2395
 7653SOL    MW430346   2.704   3.091   3.537  0.2838 -0.1652 -0.3055
 7654SOL     OW30347   2.783   6.433   2.987  0.1467 -0.2123 -0.1619
 7654SOL    HW230348   2.729   6.369   2.940 -1.3043 -0.2312  1.4119
 7654SOL    HW330349   2.773   6.409   3.079 -0.2926  2.1528  0.4764
 7654SOL    MW430350   2.775   6.421   2.993 -0.0965  0.1744  0.1511
 7655SOL     OW30351   3.812   5.022   0.399 -0.5981 -0.8255  0.3421
 7655SOL    HW230352   3.813   5.053   0.309  0.0857  0.2813  0.7197
 7655SOL    HW330353   3.726   5.047   0.433 -0.8946 -1.3302 -0.0102
 7655SOL    MW430354   3.801   5.029   0.391  0.0332 -0.1247 -0.3338
 7656SOL     OW30355   5.544   2.492   0.554 -0.3244  0.2607 -0.2263
 7656SOL    HW230356   5.462   2.535   0.576  0.7308  1.9461  0.5899
 7656SOL    HW330357   5.533   2.402   0.584 -1.7777  0.5016  0.0424
 7656SOL    MW430358   5.532   2.486   0.561 -0.2286  0.5387  0.5608
 7657SOL     OW30359   5.569   6.200   3.643  0.0999  0.2655  0.2991
 7657SOL    HW230360   5.568   6.150   3.562 -0.8537  0.9977 -0.1718
 7657SOL    HW330361   5.601   6.139   3.709 -1.5363 -1.1683 -0.1428
 7657SOL    MW430362   5.573   6.185   3.641  0.3212 -0.1417 -0.2652
 7658SOL     OW30363   3.052   0.124   4.104  0.5466 -0.7702 -0.6484
 7658SOL    HW230364   3.136   0.161   4.130 -1.4344  2.1941  2.4127
 7658SOL    HW330365   3.037   0.051   4.165 -0.5414  1.0360  1.3943
 7658SOL    MW430366   3.061   0.119   4.116 -0.3761 -0.0667 -0.0211
 7659SOL     OW30367   4.528   4.830   3.258  0.0089  0.3990 -0.8410
 7659SOL    HW230368   4.556   4.917   3.287  0.5757  0.3589 -1.2370
 7659SOL    HW330369   4.514   4.839   3.164 -0.1663  0.1226 -0.8430
 7659SOL    MW430370   4.530   4.842   3.249  0.2519  0.1918  0.3876
 7660SOL     OW30371   2.373   0.130   5.307 -0.7182 -0.1008  0.4157
 7660SOL    HW230372   2.429   0.111   5.231 -1.2574  0.2393 -0.0789
 7660SOL    HW330373   2.294   0.077   5.293 -0.3285 -0.9480  1.3532
 7660SOL    MW430374   2.370   0.121   5.295  0.2986  0.0144 -0.2176
 7661SOL     OW30375   4.323   4.522   4.931  0.3251 -0.3691 -0.9199
 7661SOL    HW230376   4.355   4.499   4.844  1.1320  1.6867 -1.2176
 7661SOL    HW330377   4.401   4.519   4.987 -0.0484 -0.9109 -0.4115
 7661SOL    MW430378   4.338   4.518   4.927  0.3576 -0.8832  0.4248
 7662SOL     OW30379   0.810   3.988   5.194 -0.0750 -0.5854  0.1676
 7662SOL    HW230380   0.865   4.048   5.245 -0.9242 -0.1240  0.5591
 7662SOL    HW330381   0.773   4.043   5.125  0.6988 -1.1051 -0.6916
 7662SOL    MW430382   0.812   4.003   5.192 -0.9622  0.4073  0.6300
 7663SOL     OW30383   4.321   3.944   0.383 -0.0796  0.0542  0.3434
 7663SOL    HW230384   4.286   3.856   0.400  0.1317 -0.1316 -0.1612
 7663SOL    HW330385   4.366   3.936   0.298 -1.0237  0.9124 -0.2646
 7663SOL    MW430386   4.322   3.931   0.374  0.3326  0.5242  0.9861
 7664SOL     OW30387   2.748   5.097   3.473 -0.1878  0.1060  0.4929
 7664SOL    HW230388   2.655   5.113   3.460 -0.5217 -0.2521  2.1319
 7664SOL    HW330389   2.752   5.031   3.543  1.2855 -0.2642  0.1108
 7664SOL    MW430390   2.737   5.090   3.481 -0.0589  0.0475  0.0877
 7665SOL     OW30391   0.294   4.650   3.364 -0.2869 -0.0945  0.3043
 7665SOL    HW230392   0.213   4.605   3.338 -0.1803 -0.8976  1.2986
 7665SOL    HW330393   0.347   4.651   3.284 -0.3978 -1.5597  0.1731
 7665SOL    MW430394   0.290   4.644   3.350 -0.1877 -0.2181 -0.0702
 7666SOL     OW30395   4.366   1.668   1.335  0.2350 -0.4414 -0.0874
 7666SOL    HW230396   4.447   1.627   1.307 -0.4438 -2.4014  0.6559
 7666SOL    HW330397   4.318   1.684   1.253  0.4073 -1.3811 -0.3781
 7666SOL    MW430398   4.370   1.665   1.320  0.6416  0.0629 -0.2233
 7667SOL     OW30399   2.987   4.861   5.558  0.1245 -0.7168  0.7886
 7667SOL    HW230400   3.014   4.867   5.649 -0.8794  0.5321  1.0341
 7667SOL    HW330401   2.977   4.952   5.530  1.1965 -1.0489 -0.8273
 7667SOL    MW430402   2.989   4.874   5.566 -0.4924 -0.6064  0.5700
 7668SOL     OW30403   3.270   5.789   3.698  0.0448  0.2855 -0.3213
 7668SOL    HW230404   3.320   5.794   3.617 -1.2286 -0.8747 -1.2198
 7668SOL    HW330405   3.212   5.866   3.695 -1.6525 -0.9669 -1.7136
 7668SOL    MW430406   3.269   5.800   3.687  0.0517 -0.3133 -0.2422
 7669SOL     OW30407   1.422   3.642   2.629 -0.0294  0.0283 -0.0372
 7669SOL    HW230408   1.444   3.563   2.581 -2.4239 -1.3369  0.8998
 7669SOL    HW330409   1.386   3.701   2.563 -0.6707 -0.7228 -0.3766
 7669SOL    MW430410   1.420   3.639   2.614  0.2693 -0.2751 -0.0143
 7670SOL     OW30411   3.085   2.062   1.542  0.1855  0.1775  0.1517
 7670SOL    HW230412   3.172   2.096   1.561  0.6411 -0.0525 -1.3685
 7670SOL    HW330413   3.100   1.999   1.471 -0.8446 -1.9526  1.7425
 7670SOL    MW430414   3.099   2.058   1.535  0.1205 -0.0658 -0.0565
 7671SOL     OW30415   1.217   5.456   5.182  0.3625 -0.7605  0.0862
 7671SOL    HW230416   1.201   5.431   5.091 -0.7008  1.1310 -0.2950
 7671SOL    HW330417   1.293   5.404   5.208  1.3919 -0.5597 -2.2369
 7671SOL    MW430418   1.225   5.446   5.173 -0.0411  0.3148  0.4368
 7672SOL     OW30419   1.329   6.058   3.592  0.4206  0.1618 -0.1794
 7672SOL    HW230420   1.409   6.009   3.608 -0.3230 -0.4773  1.8931
 7672SOL    HW330421   1.358   6.146   3.570  1.7439 -0.7584 -2.5443
 7672SOL    MW430422   1.343   6.063   3.591  0.3957 -0.0241 -0.0277
 7673SOL     OW30423   4.623   1.483   4.016  0.2122 -0.4031  0.1953
 7673SOL    HW230424   4.705   1.481   4.065  0.6861  0.3238 -0.5266
 7673SOL    HW330425   4.650   1.510   3.927 -0.6557 -1.3168 -0.3608
 7673SOL    MW430426   4.638   1.486   4.011 -0.3090 -0.0639  0.6868
 7674SOL     OW30427   2.291   5.342   4.309 -0.3581  0.2862 -0.1198
 7674SOL    HW230428   2.370   5.332   4.362 -2.0876 -1.0834  2.4850
 7674SOL    HW330429   2.283   5.259   4.262 -0.6584  0.0782  0.2892
 7674SOL    MW430430   2.300   5.329   4.310 -0.0242  0.4016  0.4444
 7675SOL     OW30431   3.197   2.099   4.558 -0.1170  0.4033 -0.0241
 7675SOL    HW230432   3.280   2.132   4.593  0.6718 -0.7737 -0.6797
 7675SOL    HW330433   3.223   2.047   4.482 -1.6420  1.6566 -1.4786
 7675SOL    MW430434   3.211   2.096   4.552 -0.1660 -0.2367 -0.1911
 7676SOL     OW30435   3.310   0.789   5.706  0.1215 -0.1946  0.9987
 7676SOL    HW230436   3.299   0.705   5.663  0.9644  0.3048 -0.2570
 7676SOL    HW330437   3.224   0.808   5.745 -0.0254 -1.6829  1.4428
 7676SOL    MW430438   3.297   0.781   5.705  0.3544  0.0963 -0.1892
 7677SOL     OW30439   0.732   6.273   1.536  0.4660  0.0642  0.5567
 7677SOL    HW230440   0.789   6.312   1.469  0.0686  1.6694  1.0951
 7677SOL    HW330441   0.693   6.197   1.493  1.2617  0.2628 -0.5717
 7677SOL    MW430442   0.734   6.268   1.522  0.0187  0.0095  0.3207
 7678SOL     OW30443   5.957   5.828   4.047 -0.0119  0.0388  0.3177
 7678SOL    HW230444   5.883   5.886   4.034  0.2118  0.3423  0.3736
 7678SOL    HW330445   6.026   5.885   4.082 -0.2295 -0.5219  1.7313
 7678SOL    MW430446   5.957   5.844   4.050 -0.3118 -0.2911  0.1925
 7679SOL     OW30447   5.696   5.471   6.399  0.3005  0.4077  0.5034
 7679SOL    HW230448   5.663   5.556   6.429  0.7289  1.6068 -2.1351
 7679SOL    HW330449   5.790   5.486   6.385  0.3283 -0.3984 -0.2294
 7679SOL    MW430450   5.704   5.484   6.401 -0.1908  0.1338 -0.0828
 7680SOL     OW30451   1.927   1.123   3.360  0.4985 -0.6626  0.1370
 7680SOL    HW230452   1.874   1.198   3.386  1.6340 -0.4362  1.9795
 7680SOL    HW330453   2.018   1.154   3.370  0.9808 -2.0982  0.3817
 7680SOL    MW430454   1.932   1.137   3.365 -0.8465 -0.0716 -0.1252
 7681SOL     OW30455   0.707   2.588   0.320  0.1417 -0.4768 -0.5260
 7681SOL    HW230456   0.674   2.634   0.243  1.1792  1.7105  0.2486
 7681SOL    HW330457   0.646   2.613   0.390  0.7709 -0.1805 -0.0735
 7681SOL    MW430458   0.694   2.598   0.319  0.0075 -0.0954  0.3801
 7682SOL     OW30459   1.730   2.021   3.215  0.1770 -0.4925 -0.0851
 7682SOL    HW230460   1.800   2.042   3.153  0.4367  1.0823  0.6705
 7682SOL    HW330461   1.713   2.104   3.260 -1.1679 -1.1975  0.7676
 7682SOL    MW430462   1.737   2.035   3.213  0.3787  0.1364  0.4181
 7683SOL     OW30463   5.986   6.297   6.186  0.4152 -0.0268 -0.3114
 7683SOL    HW230464   5.989   6.209   6.225  0.4957 -0.5244 -1.4013
 7683SOL    HW330465   5.895   6.308   6.159  0.5627 -0.0760 -0.8390
 7683SOL    MW430466   5.974   6.287   6.188 -0.3479  0.4537 -0.5539
 7684SOL     OW30467   2.461   0.811   3.981  0.0616 -0.0730 -0.3452
 7684SOL    HW230468   2.378   0.813   3.933 -1.1902  0.0189  1.7109
 7684SOL    HW330469   2.445   0.865   4.059  2.0056 -0.2001  0.1914
 7684SOL    MW430470   2.448   0.818   3.985  0.2698  0.5437 -0.4321
 7685SOL     OW30471   3.653   0.666   6.056  0.2775  0.7215 -0.4822
 7685SOL    HW230472   3.592   0.599   6.023  1.4519 -0.4917 -0.2752
 7685SOL    HW330473   3.641   0.740   5.998 -3.0971  1.4596  0.9100
 7685SOL    MW430474   3.643   0.667   6.044 -0.0840  0.5479  0.2885
 7686SOL     OW30475   0.251   5.269   0.321  0.4941 -0.0685 -0.4237
 7686SOL    HW230476   0.340   5.285   0.288  1.2362  0.2204  1.5845
 7686SOL    HW330477   0.252   5.303   0.410 -2.4511  2.3583 -1.1600
 7686SOL    MW430478   0.263   5.275   0.328 -0.0357  0.2096  0.5578
 7687SOL     OW30479   4.623   3.760   6.313 -0.1631  0.5841 -0.1344
 7687SOL    HW230480   4.674   3.753   6.394 -1.6079  0.0350  0.7651
 7687SOL    HW330481   4.612   3.669   6.284  0.4523  0.7811 -1.0553
 7687SOL    MW430482   4.629   3.747   6.320  0.0649 -0.4778  0.5194
 7688SOL     OW30483   0.562   6.031   1.042 -0.1332 -1.1516 -0.4381
 7688SOL    HW230484   0.621   6.021   1.116  0.6096 -2.7533 -1.1971
 7688SOL    HW330485   0.538   6.124   1.042  0.7992 -0.8871  1.0637
 7688SOL    MW430486   0.566   6.042   1.052  0.2535  0.5576 -0.1405
 7689SOL     OW30487   5.176   2.342   4.898 -0.3090 -0.0156  0.1724
 7689SOL    HW230488   5.267   2.371   4.895 -0.5268  0.6048 -0.9953
 7689SOL    HW330489   5.137   2.376   4.817 -1.1967 -1.5321 -0.0791
 7689SOL    MW430490   5.183   2.350   4.887 -0.6482  0.3233 -0.0677
 7690SOL     OW30491   4.230   2.173   4.881  0.5523 -1.2298  0.2514
 7690SOL    HW230492   4.240   2.244   4.945 -0.2813  0.4589 -1.3791
 7690SOL    HW330493   4.319   2.146   4.861  0.8645 -1.0386  1.2985
 7690SOL    MW430494   4.243   2.179   4.887  0.1195  0.0360 -0.0793
 7691SOL     OW30495   0.552   4.445   4.194  0.4767 -0.1445  0.0597
 7691SOL    HW230496   0.459   4.422   4.193  0.6467 -0.8603 -0.7260
 7691SOL    HW330497   0.594   4.373   4.147  1.4468  0.0952  0.5500
 7691SOL    MW430498   0.545   4.432   4.187 -0.7470  0.1130 -0.0693
 7692SOL     OW30499   4.896   6.229   2.879  0.1297  0.2150  0.0443
 7692SOL    HW230500   4.948   6.170   2.933 -0.4028 -1.3254 -1.0741
 7692SOL    HW330501   4.805   6.204   2.896 -0.1410  1.1406  0.0239
 7692SOL    MW430502   4.891   6.218   2.888 -0.5208 -0.4297 -0.6969
 7693SOL     OW30503   1.019   2.994   5.452 -0.2975 -0.4662  0.5210
 7693SOL    HW230504   0.957   3.067   5.449  1.1565  0.7943 -0.1932
 7693SOL    HW330505   0.989   2.934   5.383 -1.1592 -0.2709  0.7132
 7693SOL    MW430506   1.007   2.996   5.443 -0.1148 -0.7268  0.3899
 7694SOL     OW30507   5.852   3.410   5.590  0.0899  0.7077 -0.3349
 7694SOL    HW230508   5.767   3.410   5.634  1.0082 -0.6147  1.5687
 7694SOL    HW330509   5.912   3.450   5.652  1.1730  0.0982 -0.9535
 7694SOL    MW430510   5.849   3.415   5.604 -0.2375 -0.2270 -0.1177
 7695SOL     OW30511   2.243   2.147   2.055 -0.5364 -0.0697 -0.4159
 7695SOL    HW230512   2.330   2.186   2.058 -1.1751  1.4124  0.3542
 7695SOL    HW330513   2.210   2.169   1.967 -1.4379  2.5842  0.4674
 7695SOL    MW430514   2.250   2.155   2.044  0.4328  0.6404 -0.6787
 7696SOL     OW30515   3.908   6.182   5.708  0.1943  0.2058 -0.2527
 7696SOL    HW230516   3.812   6.188   5.707  0.1307 -0.1048  1.5970
 7696SOL    HW330517   3.927   6.095   5.673 -0.1723  0.3602 -0.8543
 7696SOL    MW430518   3.898   6.172   5.703 -0.4947 -0.1572  0.5057
 7697SOL     OW30519   4.033   1.140   1.059  0.7180 -0.0719  0.5865
 7697SOL    HW230520   4.088   1.172   0.988  0.5404 -1.0779 -0.0144
 7697SOL    HW330521   3.976   1.075   1.019 -1.0633  1.0523  1.1444
 7697SOL    MW430522   4.033   1.136   1.044 -0.4501 -0.2862  0.8436
 7698SOL     OW30523   0.421   2.936   2.950  0.3384 -0.3376 -0.1058
 7698SOL    HW230524   0.369   2.863   2.916 -0.8157  1.2163 -1.8300
 7698SOL    HW330525   0.508   2.922   2.912 -0.2046 -0.1611 -1.4641
 7698SOL    MW430526   0.426   2.924   2.941 -0.3343 -0.8286 -0.4229
 7699SOL     OW30527   5.564   5.475   3.142 -0.1884  0.7373 -0.2388
 7699SOL    HW230528   5.654   5.449   3.122 -0.1315 -0.6140  1.5134
 7699SOL    HW330529   5.546   5.435   3.228 -2.6517  0.4514 -0.8111
 7699SOL    MW430530   5.573   5.466   3.151  0.0984 -0.4019 -0.8140
 7700SOL     OW30531   2.099   0.818   0.597 -0.5700  0.1030  0.7354
 7700SOL    HW230532   2.039   0.827   0.523  0.0945  0.1928  0.1964
 7700SOL    HW330533   2.042   0.806   0.673 -1.2726  0.4269  0.2698
 7700SOL    MW430534   2.083   0.818   0.598 -0.3311 -0.4540 -0.5042
 7701SOL     OW30535   4.995   0.104   5.882  0.2645 -0.1191  0.0425
 7701SOL    HW230536   4.996   0.071   5.972  1.0710  0.3478  0.2099
 7701SOL    HW330537   5.086   0.100   5.854 -0.0665 -0.8911 -0.9983
 7701SOL    MW430538   5.007   0.099   5.890  0.3236 -0.1020  0.3550
 7702SOL     OW30539   1.276   5.920   3.359  0.4607  0.6179  0.7310
 7702SOL    HW230540   1.368   5.904   3.340  0.5947  2.1628 -0.0905
 7702SOL    HW330541   1.277   5.978   3.436  0.2003  0.9243  0.5069
 7702SOL    MW430542   1.288   5.926   3.367  0.1904 -0.3540  0.1749
 7703SOL     OW30543   4.317   0.928   5.923 -0.0092 -0.2590 -0.6979
 7703SOL    HW230544   4.232   0.935   5.967 -0.0076 -0.5071 -0.6569
 7703SOL    HW330545   4.361   0.856   5.967 -0.6124 -1.5493 -2.1151
 7703SOL    MW430546   4.311   0.920   5.935 -0.1801 -0.1157  0.3032
 7704SOL     OW30547   0.528   2.624   2.921  0.2906  0.3589  0.2791
 7704SOL    HW230548   0.477   2.589   2.848  0.8488 -0.1283  0.1108
 7704SOL    HW330549   0.608   2.659   2.881  0.6113  0.0689  0.6470
 7704SOL    MW430550   0.532   2.624   2.906  0.1687  0.2017 -0.2275
 7705SOL     OW30551   0.433   4.631   4.505 -0.6321  0.7013  0.8170
 7705SOL    HW230552   0.410   4.688   4.431 -0.7984 -0.4525 -0.0561
 7705SOL    HW330553   0.475   4.556   4.464  0.4874  0.6421  2.0293
 7705SOL    MW430554   0.435   4.629   4.490  0.3011 -0.1384  0.0663
 7706SOL     OW30555   5.102   4.241   4.562 -0.0447 -0.0571  0.0089
 7706SOL    HW230556   5.170   4.307   4.574  1.2538 -1.4622  0.8591
 7706SOL    HW330557   5.138   4.181   4.496 -0.0800 -1.2496  1.0359
 7706SOL    MW430558   5.116   4.242   4.555 -0.0061 -0.1795 -0.5819
 7707SOL     OW30559   3.147   0.435   1.904  0.1454  0.2186 -0.5609
 7707SOL    HW230560   3.058   0.456   1.877  0.0610 -1.7578 -2.0250
 7707SOL    HW330561   3.183   0.383   1.832  1.4491 -1.5864  1.2700
 7707SOL    MW430562   3.140   0.431   1.891  0.0452  0.0070 -0.3669
 7708SOL     OW30563   3.893   5.914   2.618 -0.5705  0.9190  0.3314
 7708SOL    HW230564   3.926   5.838   2.664 -1.0872  1.3321  1.4227
 7708SOL    HW330565   3.862   5.880   2.534  1.9880  0.4305 -0.4882
 7708SOL    MW430566   3.893   5.900   2.613 -0.0866 -0.7045 -0.7012
 7709SOL     OW30567   3.092   1.657   3.170  0.5472  0.1858 -0.2543
 7709SOL    HW230568   3.125   1.603   3.097  1.1899 -0.2988  0.3806
 7709SOL    HW330569   3.143   1.628   3.246 -0.0221  0.7812  0.3650
 7709SOL    MW430570   3.103   1.646   3.170 -0.0095 -0.8443 -0.5559
 7710SOL     OW30571   0.030   0.156   0.510  0.0777  0.6760 -0.9437
 7710SOL    HW230572  -0.062   0.134   0.528  0.2595 -1.0163 -1.8405
 7710SOL    HW330573   0.079   0.119   0.583  0.3661 -1.9923 -2.3653
 7710SOL    MW430574   0.024   0.148   0.522  0.4558  0.7583 -0.3687
 7711SOL     OW30575   5.183   4.560   2.641  0.1429  0.0008  0.1136
 7711SOL    HW230576   5.136   4.495   2.590 -2.5100  2.0726 -0.3283
 7711SOL    HW330577   5.264   4.576   2.593 -1.2557  0.2772 -2.3004
 7711SOL    MW430578   5.187   4.554   2.628  0.6521  1.0924  0.1170
 7712SOL     OW30579   2.630   0.182   2.175  0.0865 -0.0571  0.0192
 7712SOL    HW230580   2.676   0.163   2.094  0.6327 -2.6852  0.8511
 7712SOL    HW330581   2.545   0.140   2.165  0.0646 -0.1932  0.7039
 7712SOL    MW430582   2.625   0.174   2.163 -0.2405 -0.3663  0.3204
 7713SOL     OW30583   0.402   0.876   0.374 -0.2112  0.2236  0.6454
 7713SOL    HW230584   0.406   0.951   0.434 -1.4109 -0.2166  1.3124
 7713SOL    HW330585   0.350   0.909   0.300 -1.4696 -0.1687  1.3219
 7713SOL    MW430586   0.396   0.890   0.372 -0.1926  0.7693 -0.0885
 7714SOL     OW30587   4.039   2.538   2.975  0.9307  0.3328 -0.0381
 7714SOL    HW230588   3.944   2.547   2.967  0.7588 -0.8579  0.4432
 7714SOL    HW330589   4.075   2.594   2.906 -0.1613 -0.3089 -1.1518
 7714SOL    MW430590   4.032   2.546   2.965  0.1872 -0.5262 -0.1771
 7715SOL     OW30591   4.270   5.709   2.424  0.4105 -0.4622 -0.1915
 7715SOL    HW230592   4.307   5.797   2.429  1.0181 -0.5465 -2.4097
 7715SOL    HW330593   4.210   5.704   2.499  0.5016  1.7556  0.0819
 7715SOL    MW430594   4.267   5.720   2.435  0.1755  0.1712  0.1167
 7716SOL     OW30595   3.609   3.602   2.207 -0.1900  0.0080  0.1463
 7716SOL    HW230596   3.655   3.649   2.137 -1.9584 -0.2820 -1.3095
 7716SOL    HW330597   3.616   3.510   2.181 -0.0614 -0.1970  0.8857
 7716SOL    MW430598   3.616   3.596   2.194  0.1967  0.1377  0.1009
 7717SOL     OW30599   1.787   2.654   1.789  0.8423 -0.7531  0.1941
 7717SOL    HW230600   1.872   2.629   1.752  0.4363 -0.8940 -0.6642
 7717SOL    HW330601   1.728   2.658   1.714 -0.3735 -2.4864  0.9723
 7717SOL    MW430602   1.791   2.651   1.774  0.3762 -0.2359  0.3952
 7718SOL     OW30603   2.391   4.079   1.978  0.0277  0.0812 -0.0793
 7718SOL    HW230604   2.487   4.070   1.978  0.5811  3.5353 -2.8530
 7718SOL    HW330605   2.361   4.018   1.910  0.4510  0.0796 -0.2695
 7718SOL    MW430606   2.400   4.070   1.969 -0.3275  0.3673 -0.1483
 7719SOL     OW30607   3.333   6.410   1.084 -0.1294  0.8173 -0.5952
 7719SOL    HW230608   3.259   6.356   1.112  0.1251 -0.3285 -1.9999
 7719SOL    HW330609   3.309   6.440   0.996  0.9240  0.6667 -0.9569
 7719SOL    MW430610   3.320   6.407   1.076 -0.5113 -0.1821 -0.1295
 7720SOL     OW30611   0.370   5.912   0.216  0.0850  0.3272 -0.0001
 7720SOL    HW230612   0.376   5.976   0.287  0.3718  0.8193 -0.4617
 7720SOL    HW330613   0.442   5.851   0.232  1.8135  1.9071 -1.2839
 7720SOL    MW430614   0.381   5.912   0.227 -0.1689 -0.3154  0.3434
 7721SOL     OW30615   4.937   4.902   2.103  0.1334  0.3034 -0.2810
 7721SOL    HW230616   5.020   4.901   2.056 -0.3659  0.5602 -1.2132
 7721SOL    HW330617   4.881   4.960   2.051 -0.9477 -0.6856 -0.2841
 7721SOL    MW430618   4.940   4.909   2.090 -0.4283  0.1120  0.0519
 7722SOL     OW30619   0.904   0.882   3.651 -0.2870  0.2111  0.1896
 7722SOL    HW230620   0.900   0.847   3.562 -3.4013 -1.7661  0.9227
 7722SOL    HW330621   0.983   0.843   3.688  0.5520  0.3013 -1.4112
 7722SOL    MW430622   0.914   0.872   3.644  0.0529 -0.5479 -0.2552
 7723SOL     OW30623   2.760   5.988   5.552 -0.1582 -0.0249 -0.3437
 7723SOL    HW230624   2.804   5.904   5.564 -1.1771 -0.3436  1.6538
 7723SOL    HW330625   2.827   6.054   5.568  0.6182 -0.4165 -1.8128
 7723SOL    MW430626   2.774   5.986   5.556  0.0109 -0.0353  0.5019
 7724SOL     OW30627   5.207   3.909   2.269 -0.6309  0.4530  0.5901
 7724SOL    HW230628   5.144   3.962   2.219  0.3243  0.3193 -0.8182
 7724SOL    HW330629   5.203   3.823   2.228 -0.0699  0.2430  0.9661
 7724SOL    MW430630   5.198   3.905   2.257  0.1431 -0.2387 -0.2076
 7725SOL     OW30631   5.825   3.757   1.577 -0.1386  0.1631  0.0548
 7725SOL    HW230632   5.752   3.817   1.565  1.0747  2.0251  1.3015
 7725SOL    HW330633   5.841   3.720   1.490 -1.8431  0.5354 -0.4534
 7725SOL    MW430634   5.818   3.760   1.564 -0.5257 -0.1046  0.0348
 7726SOL     OW30635   4.858   2.226   4.527 -0.1179  0.4812  0.5064
 7726SOL    HW230636   4.769   2.214   4.495 -0.2204  2.3433 -0.0215
 7726SOL    HW330637   4.913   2.210   4.450 -0.0476  0.1472  0.6253
 7726SOL    MW430638   4.853   2.222   4.513  0.5306 -0.2542  0.1247
 7727SOL     OW30639   5.470   0.521   3.117 -0.0648  0.1949 -0.5247
 7727SOL    HW230640   5.410   0.534   3.044 -0.5591 -0.3606 -0.2192
 7727SOL    HW330641   5.528   0.450   3.089 -0.1108  0.1340 -0.4657
 7727SOL    MW430642   5.470   0.513   3.104  0.1790 -0.3163  0.8365
 7728SOL     OW30643   0.683   4.975   5.186 -0.4062 -0.4536  0.0227
 7728SOL    HW230644   0.755   4.959   5.247  0.4224  1.0314 -0.5022
 7728SOL    HW330645   0.652   4.888   5.161  0.9308 -1.1173  0.5840
 7728SOL    MW430646   0.688   4.961   5.191 -0.8516 -0.5297  0.2518
 7729SOL     OW30647   5.811   3.995   5.262  0.1602 -0.7608 -0.4484
 7729SOL    HW230648   5.771   4.028   5.342  2.8606  0.0749  0.6769
 7729SOL    HW330649   5.800   4.067   5.199 -0.8757 -0.9233 -0.4681
 7729SOL    MW430650   5.805   4.009   5.264  0.2068 -0.1114 -0.0306
 7730SOL     OW30651   5.108   2.004   5.154  0.7777  0.1438 -0.9094
 7730SOL    HW230652   5.072   2.091   5.137 -1.4459 -0.6694 -0.6126
 7730SOL    HW330653   5.033   1.945   5.150  2.1167 -1.6988 -0.4108
 7730SOL    MW430654   5.094   2.008   5.151  0.3478  0.3646  0.4035
 7731SOL     OW30655   3.713   4.741   3.742  0.1308 -0.8082 -0.1485
 7731SOL    HW230656   3.638   4.704   3.697  1.3998 -0.4492 -2.7428
 7731SOL    HW330657   3.714   4.699   3.828 -3.3621 -0.3274  0.2562
 7731SOL    MW430658   3.703   4.731   3.747 -0.1066 -0.4404 -0.1627
 7732SOL     OW30659   0.597   0.884   0.056 -0.7230  0.1787  0.0595
 7732SOL    HW230660   0.563   0.798   0.032 -1.5250  0.6205 -0.4358
 7732SOL    HW330661   0.520   0.936   0.077 -0.3641  1.1294 -0.8320
 7732SOL    MW430662   0.583   0.880   0.055 -0.2790 -0.5906  0.7233
 7733SOL     OW30663   0.961   2.319   6.009  0.5438  0.2780 -0.5531
 7733SOL    HW230664   1.017   2.294   5.935 -0.3685  1.2570 -1.6037
 7733SOL    HW330665   0.994   2.404   6.038 -0.8502  1.2565 -1.7081
 7733SOL    MW430666   0.973   2.327   6.003  0.5108 -0.3895  0.7382
 7734SOL     OW30667   3.324   3.336   0.388 -0.2378  0.1000  0.2689
 7734SOL    HW230668   3.341   3.388   0.310  2.4492 -0.5451  0.3533
 7734SOL    HW330669   3.402   3.346   0.442 -0.8644 -1.6906  1.6330
 7734SOL    MW430670   3.336   3.344   0.385 -0.4686  0.3233 -0.3182
 7735SOL     OW30671   5.407   3.136   0.901  0.4698  0.0267  0.6119
 7735SOL    HW230672   5.457   3.096   0.973  0.7555  0.8862  0.8946
 7735SOL    HW330673   5.473   3.180   0.848  0.1285  0.2766  0.3955
 7735SOL    MW430674   5.423   3.136   0.904  0.1326  0.1105  0.4228
 7736SOL     OW30675   6.097   5.156   4.098 -0.1037 -0.5833  0.3098
 7736SOL    HW230676   6.096   5.245   4.062 -0.6677 -0.4227  0.7067
 7736SOL    HW330677   6.144   5.165   4.181  1.1350 -0.9407 -0.3244
 7736SOL    MW430678   6.103   5.169   4.104  0.2318 -0.1397  0.3832
 7737SOL     OW30679   5.464   5.755   4.701 -0.1608  0.0721 -0.2318
 7737SOL    HW230680   5.556   5.777   4.712 -0.0542 -0.4665 -0.0338
 7737SOL    HW330681   5.417   5.819   4.755  0.3166 -2.0797  2.9954
 7737SOL    MW430682   5.470   5.766   4.710 -0.5389  0.0322 -0.1988
 7738SOL     OW30683   3.492   5.798   3.550 -0.1647  0.9818  0.7780
 7738SOL    HW230684   3.476   5.767   3.461  2.5422  1.7919 -0.1001
 7738SOL    HW330685   3.513   5.891   3.540  0.6024  0.9931  2.2056
 7738SOL    MW430686   3.493   5.806   3.537 -0.1778 -0.1523 -0.0120
 7739SOL     OW30687   2.225   5.046   2.676  0.1574  0.0463 -0.1136
 7739SOL    HW230688   2.183   5.131   2.658  1.3925  0.4929 -1.0672
 7739SOL    HW330689   2.157   4.994   2.718 -0.9774  1.1433 -0.5204
 7739SOL    MW430690   2.211   5.050   2.679 -0.2948  0.1804 -0.4677
 7740SOL     OW30691   3.736   0.843   5.690  0.9780  0.2615 -0.0639
 7740SOL    HW230692   3.791   0.776   5.731 -0.3890 -1.3646 -0.7453
 7740SOL    HW330693   3.669   0.862   5.755  0.9420  0.4138 -0.1457
 7740SOL    MW430694   3.735   0.836   5.704  0.0599  0.1358 -0.6071
 7741SOL     OW30695   1.403   4.581   5.466  0.0782  0.2541  0.7412
 7741SOL    HW230696   1.446   4.615   5.388 -1.4949 -0.9328 -0.7195
 7741SOL    HW330697   1.314   4.616   5.461 -0.2230 -0.3522  1.6637
 7741SOL    MW430698   1.397   4.590   5.455 -0.5443  0.6670  0.3565
 7742SOL     OW30699   4.932   0.345   3.620  0.3894 -0.1637  0.0858
 7742SOL    HW230700   4.887   0.329   3.703  1.3134 -1.6380  0.3405
 7742SOL    HW330701   4.941   0.257   3.581 -1.6779  0.6184 -2.4804
 7742SOL    MW430702   4.927   0.331   3.625  0.4561  0.1418  0.0298
 7743SOL     OW30703   1.615   3.705   2.856 -0.2435  0.4061 -0.4322
 7743SOL    HW230704   1.556   3.767   2.898 -1.0571 -0.9072  0.4404
 7743SOL    HW330705   1.563   3.665   2.787 -0.1606 -0.2660 -0.1085
 7743SOL    MW430706   1.601   3.708   2.853 -0.2530  0.1763 -0.3641
 7744SOL     OW30707   0.773   2.407   3.042 -0.0313  0.3119 -0.2704
 7744SOL    HW230708   0.847   2.422   3.101 -0.6794  0.1142  0.6266
 7744SOL    HW330709   0.780   2.476   2.977  0.3936  0.8957  0.3753
 7744SOL    MW430710   0.783   2.418   3.041  0.0414  0.0914 -0.0613
 7745SOL     OW30711   4.295   5.610   1.773 -0.3243  0.5914 -0.5615
 7745SOL    HW230712   4.309   5.639   1.863  0.4928  0.0239 -0.4902
 7745SOL    HW330713   4.343   5.528   1.767  0.5983  1.1949 -1.8370
 7745SOL    MW430714   4.303   5.603   1.784  0.7478  0.6042  0.5387
 7746SOL     OW30715   2.694   1.232   0.942  0.4811  0.0315  0.0874
 7746SOL    HW230716   2.769   1.187   0.904  2.6724  2.2104  1.5650
 7746SOL    HW330717   2.672   1.181   1.020 -0.3920 -1.2612 -0.9653
 7746SOL    MW430718   2.701   1.220   0.948 -0.4693 -0.0566  0.6787
 7747SOL     OW30719   3.610   4.045   5.439  0.4357 -0.6014 -0.5841
 7747SOL    HW230720   3.519   4.073   5.442  0.8868  1.0029 -1.3222
 7747SOL    HW330721   3.609   3.958   5.480 -1.3035 -0.3301  0.0365
 7747SOL    MW430722   3.598   4.037   5.445  0.0968  0.2635  0.2238
 7748SOL     OW30723   6.295   1.187   2.093  0.4113 -0.3844 -0.2683
 7748SOL    HW230724   6.370   1.195   2.034  1.1962  1.9039  0.9212
 7748SOL    HW330725   6.219   1.205   2.039  1.1516  2.2880 -0.5568
 7748SOL    MW430726   6.295   1.190   2.078  0.5100 -0.2014 -0.2643
 7749SOL     OW30727   3.602   5.995   4.826 -0.3804  0.1748  0.1668
 7749SOL    HW230728   3.575   5.939   4.899  1.0618 -0.7939  0.0065
 7749SOL    HW330729   3.610   5.935   4.752  0.5734  0.6942 -0.1675
 7749SOL    MW430730   3.600   5.979   4.826 -0.0849  0.2245 -0.2203
 7750SOL     OW30731   2.940   4.189   1.918 -0.0043  0.0486  0.6839
 7750SOL    HW230732   2.993   4.237   1.981  1.2479 -0.4678  0.0599
 7750SOL    HW330733   2.948   4.097   1.944 -0.9672 -0.0124  0.8341
 7750SOL    MW430734   2.948   4.183   1.930 -0.1932  0.2772  0.0973
 7751SOL     OW30735   0.401   2.610   0.108 -0.0259  0.7831 -0.6315
 7751SOL    HW230736   0.382   2.644   0.021 -1.5598  1.2405 -0.1454
 7751SOL    HW330737   0.318   2.615   0.155  0.6750  0.1756  0.7401
 7751SOL    MW430738   0.388   2.615   0.103  0.7093  0.1139  0.2126
 7752SOL     OW30739   5.256   0.764   5.131 -0.2909 -0.2296  0.5231
 7752SOL    HW230740   5.325   0.793   5.190 -0.1134  1.0135 -0.2640
 7752SOL    HW330741   5.257   0.668   5.137  0.1820 -0.1563  1.9845
 7752SOL    MW430742   5.265   0.755   5.139  0.5438  0.0359  0.0566
 7753SOL     OW30743   3.587   5.061   4.803 -0.6702  0.3728  0.4424
 7753SOL    HW230744   3.565   5.041   4.894  1.6825  0.9012  1.1792
 7753SOL    HW330745   3.573   5.155   4.795 -0.5768  0.3757  0.3249
 7753SOL    MW430746   3.582   5.071   4.814  0.1013  0.2240  0.6407
 7754SOL     OW30747   4.709   3.809   5.014  0.8131 -0.0248 -0.5365
 7754SOL    HW230748   4.750   3.727   4.984  0.9355 -0.2697  0.2657
 7754SOL    HW330749   4.778   3.854   5.061  0.5893  0.2875 -0.5079
 7754SOL    MW430750   4.724   3.804   5.016  0.1741  0.2868 -0.4780
 7755SOL     OW30751   6.041   0.877   0.404  0.0462 -0.6365 -0.6329
 7755SOL    HW230752   6.078   0.793   0.377 -0.3295 -0.8784 -0.4109
 7755SOL    HW330753   5.959   0.854   0.447 -0.3552 -0.1131 -1.0961
 7755SOL    MW430754   6.035   0.863   0.406  0.3300 -0.1362 -0.4068
 7756SOL     OW30755   0.862   4.171   3.064  0.0464 -0.1135  0.3359
 7756SOL    HW230756   0.871   4.076   3.073  0.5143 -0.1362 -0.3063
 7756SOL    HW330757   0.890   4.189   2.975  0.6156  0.7134  0.6688
 7756SOL    MW430758   0.867   4.161   3.054 -0.8053 -0.6240  0.1850
 7757SOL     OW30759   2.095   4.552   5.217  0.5698 -0.0598  0.3814
 7757SOL    HW230760   2.005   4.520   5.208  0.8805 -0.6201 -0.8233
 7757SOL    HW330761   2.148   4.472   5.224  1.0126  0.2625  0.7602
 7757SOL    MW430762   2.090   4.537   5.217  0.5137  0.5204  0.3794
 7758SOL     OW30763   5.888   5.018   0.735 -0.4266 -0.5318 -0.4928
 7758SOL    HW230764   5.880   4.922   0.734 -0.3454 -0.5512 -1.9213
 7758SOL    HW330765   5.816   5.048   0.679  0.0777  0.1840 -0.7662
 7758SOL    MW430766   5.877   5.009   0.727  0.7024 -0.1157 -0.5710
 7759SOL     OW30767   3.722   0.671   3.810  0.2549 -0.6480  0.2891
 7759SOL    HW230768   3.745   0.763   3.800  0.3032 -0.3290  2.7645
 7759SOL    HW330769   3.795   0.623   3.771  0.8500  0.3475  0.1580
 7759SOL    MW430770   3.734   0.677   3.803  0.1388 -0.3722  0.3620
 7760SOL     OW30771   6.402   2.777   4.803 -0.2200  0.5263  0.7741
 7760SOL    HW230772   6.468   2.837   4.767 -0.4671  1.3890  1.7074
 7760SOL    HW330773   6.448   2.725   4.867  0.0384 -0.4501 -0.1761
 7760SOL    MW430774   6.416   2.778   4.807 -0.2766 -0.1875  0.3840
 7761SOL     OW30775   1.189   2.028   2.268 -0.1717 -0.1348 -0.0333
 7761SOL    HW230776   1.134   1.949   2.271 -0.4482  0.0815  0.6279
 7761SOL    HW330777   1.232   2.031   2.353 -1.5099  1.3677  0.6368
 7761SOL    MW430778   1.187   2.018   2.279  0.1524 -0.3117  0.0252
 7762SOL     OW30779   3.419   1.670   5.570  0.3932  0.1704  0.3017
 7762SOL    HW230780   3.385   1.723   5.498  1.3603 -0.7484 -0.8773
 7762SOL    HW330781   3.503   1.710   5.592  0.4223  0.0342  0.4425
 7762SOL    MW430782   3.425   1.682   5.564  0.2848 -0.2723  0.2105
 7763SOL     OW30783   5.555   0.934   4.439  0.1001 -0.3462  0.2981
 7763SOL    HW230784   5.462   0.953   4.425 -0.3293 -0.6133  2.3807
 7763SOL    HW330785   5.592   1.017   4.468  0.1031 -0.6553  1.1985
 7763SOL    MW430786   5.548   0.948   4.441 -0.2105 -0.5225 -0.0717
 7764SOL     OW30787   5.774   0.605   2.334 -0.3673 -1.0577  0.3838
 7764SOL    HW230788   5.805   0.580   2.247 -0.0069 -1.0518  0.5063
 7764SOL    HW330789   5.851   0.643   2.376 -1.2108  1.5789 -0.2684
 7764SOL    MW430790   5.788   0.606   2.328  0.2616  0.2468  0.2010
 7765SOL     OW30791   5.892   1.949   1.888  0.4109  0.8980 -0.3286
 7765SOL    HW230792   5.904   2.043   1.873  1.8153  0.3363 -3.5115
 7765SOL    HW330793   5.972   1.909   1.854 -0.7318 -1.5636 -0.3260
 7765SOL    MW430794   5.905   1.956   1.882 -0.8566  0.2416  0.3090
 7766SOL     OW30795   3.775   6.275   2.048 -0.0617  0.4434  0.4303
 7766SOL    HW230796   3.771   6.196   1.994  1.0121 -0.9240  2.2503
 7766SOL    HW330797   3.842   6.257   2.113 -0.8634  2.2598  1.8706
 7766SOL    MW430798   3.783   6.262   2.049  0.5819  0.0579 -0.2323
 7767SOL     OW30799   4.803   2.347   5.180 -0.3856 -0.1749 -0.1010
 7767SOL    HW230800   4.898   2.340   5.193 -0.0372  4.0503  1.1792
 7767SOL    HW330801   4.766   2.292   5.250  0.9234 -3.2246 -1.6115
 7767SOL    MW430802   4.811   2.339   5.191 -0.2384  0.2648 -0.5682
 7768SOL     OW30803   2.215   0.471   4.714  0.3687 -0.2398  0.5940
 7768SOL    HW230804   2.138   0.528   4.705  0.0731 -0.3530  2.1707
 7768SOL    HW330805   2.290   0.530   4.710  0.1825 -0.0488 -0.2752
 7768SOL    MW430806   2.214   0.486   4.712 -0.6327  0.1122 -0.2187
 7769SOL     OW30807   1.366   5.013   5.215 -0.3279  0.2490  0.4543
 7769SOL    HW230808   1.420   5.080   5.172  1.1394 -1.0278  0.2476
 7769SOL    HW330809   1.335   4.958   5.142 -0.0351 -0.3509  0.7781
 7769SOL    MW430810   1.369   5.015   5.199 -0.0626  0.2057 -0.2655
 7770SOL     OW30811   0.825   3.345   5.974  0.2587  0.1947  0.4640
 7770SOL    HW230812   0.732   3.369   5.981  0.0519 -0.2406 -0.6038
 7770SOL    HW330813   0.855   3.387   5.894  0.7501 -0.3723  0.3431
 7770SOL    MW430814   0.816   3.354   5.965  0.3874  1.0962 -0.6892
 7771SOL     OW30815   0.644   0.562   4.578 -0.5476 -0.1046 -0.1415
 7771SOL    HW230816   0.734   0.594   4.578 -0.6260  0.2502  1.7932
 7771SOL    HW330817   0.608   0.591   4.494  0.9890  0.1420 -0.7564
 7771SOL    MW430818   0.651   0.570   4.567 -0.2365 -0.6500 -0.1682
 7772SOL     OW30819   4.175   4.650   3.936  0.1481 -0.4109  0.2656
 7772SOL    HW230820   4.119   4.610   3.869 -0.0159 -1.7914  1.1782
 7772SOL    HW330821   4.243   4.696   3.886  0.2957 -1.7752 -0.8771
 7772SOL    MW430822   4.177   4.650   3.920  0.0018 -0.0343 -0.3795
 7773SOL     OW30823   5.129   1.846   3.099  0.2632 -0.1284  0.5231
 7773SOL    HW230824   5.084   1.856   3.183  0.3426 -0.5928  0.6233
 7773SOL    HW330825   5.193   1.917   3.098  0.2399 -0.0999  0.8419
 7773SOL    MW430826   5.132   1.857   3.110 -0.2546 -0.3196  0.0369
 7774SOL     OW30827   0.454   4.246   2.293 -0.1063  0.1216  0.6797
 7774SOL    HW230828   0.403   4.178   2.338 -0.4646 -0.1815 -0.1753
 7774SOL    HW330829   0.472   4.311   2.361 -1.7050  0.2743  0.9872
 7774SOL    MW430830   0.450   4.245   2.308 -0.3157 -0.4136  0.5282
 7775SOL     OW30831   1.996   5.245   2.412 -0.1467 -1.1820 -0.2655
 7775SOL    HW230832   2.059   5.312   2.386 -0.9730 -0.0171  0.6549
 7775SOL    HW330833   1.914   5.292   2.422 -0.3001 -1.8931  2.4707
 7775SOL    MW430834   1.994   5.260   2.410  0.1195 -0.1441  0.3518
 7776SOL     OW30835   0.720   4.172   1.630  0.1378 -0.1095 -0.6663
 7776SOL    HW230836   0.742   4.235   1.699  1.8916 -0.3294 -0.9750
 7776SOL    HW330837   0.765   4.092   1.656  1.4884  0.0284 -2.4209
 7776SOL    MW430838   0.729   4.170   1.643  0.3173 -0.3805  0.5348
 7777SOL     OW30839   5.564   1.562   5.641  0.7457  0.0824 -0.1213
 7777SOL    HW230840   5.504   1.631   5.613  0.2450  0.4502  1.7455
 7777SOL    HW330841   5.538   1.486   5.589  0.1347  0.8200 -0.9308
 7777SOL    MW430842   5.553   1.561   5.630 -0.4188  0.4621  0.7285
 7778SOL     OW30843   3.774   4.750   0.395 -0.3915  0.1848  0.0691
 7778SOL    HW230844   3.777   4.844   0.410 -1.3414  0.0955  0.9619
 7778SOL    HW330845   3.748   4.713   0.480  1.1265 -0.9850  0.0751
 7778SOL    MW430846   3.771   4.757   0.408  0.9703 -0.5953  0.2790
 7779SOL     OW30847   5.670   0.673   0.146  0.2008 -0.3237 -0.0077
 7779SOL    HW230848   5.605   0.607   0.173 -0.4618 -0.8307 -2.6243
 7779SOL    HW330849   5.754   0.630   0.161 -0.2083 -1.4837 -0.8823
 7779SOL    MW430850   5.673   0.658   0.152 -1.0636  0.2171 -0.1525
 7780SOL     OW30851   2.698   4.312   1.985  0.6748 -0.1360 -0.6566
 7780SOL    HW230852   2.682   4.278   2.073 -0.4386  0.7009 -0.5183
 7780SOL    HW330853   2.775   4.264   1.954 -0.9971 -3.0910 -0.6347
 7780SOL    MW430854   2.706   4.302   1.992  0.2848 -0.3016  0.2798
 7781SOL     OW30855   5.162   5.130   2.642 -0.7876 -0.3046  0.3993
 7781SOL    HW230856   5.171   5.142   2.737  0.0153  0.6505  0.2123
 7781SOL    HW330857   5.243   5.087   2.616 -0.6764  0.1276  0.0314
 7781SOL    MW430858   5.174   5.126   2.651  0.3498  0.3328 -0.2295
 7782SOL     OW30859   2.188   5.528   1.821  0.4916  0.3987  0.6922
 7782SOL    HW230860   2.124   5.513   1.751 -1.0649 -1.6354  2.3795
 7782SOL    HW330861   2.205   5.622   1.819 -2.2544  0.9673 -0.1496
 7782SOL    MW430862   2.182   5.538   1.812  0.1952  0.4740  0.7341
 7783SOL     OW30863   4.601   0.075   5.587  0.0373 -0.1903 -0.2883
 7783SOL    HW230864   4.580   0.017   5.513  1.6712  0.1602 -1.0815
 7783SOL    HW330865   4.540   0.049   5.656 -0.1953 -1.9113 -1.0803
 7783SOL    MW430866   4.590   0.064   5.586  0.0941 -0.2647 -0.1930
 7784SOL     OW30867   6.186   0.750   4.746  0.5475 -0.5032  0.1001
 7784SOL    HW230868   6.110   0.691   4.746 -0.0512  0.2353 -1.1626
 7784SOL    HW330869   6.261   0.693   4.764 -0.0714 -1.5796 -0.6224
 7784SOL    MW430870   6.186   0.735   4.749 -0.2724 -0.6291 -0.0161
 7785SOL     OW30871   5.615   5.420   3.680  0.2235 -0.4392  0.3468
 7785SOL    HW230872   5.599   5.416   3.586 -0.4388  1.0816  0.3716
 7785SOL    HW330873   5.539   5.376   3.719 -1.2697  1.8757  0.2511
 7785SOL    MW430874   5.603   5.413   3.673 -0.5927  0.0374 -0.2113
 7786SOL     OW30875   0.784   4.182   4.966  0.3503  0.0619  0.4279
 7786SOL    HW230876   0.808   4.272   4.988 -1.2449  0.7146 -0.3176
 7786SOL    HW330877   0.701   4.191   4.920  0.3497 -1.7787  0.0158
 7786SOL    MW430878   0.777   4.195   4.963  0.1917 -0.3965 -0.1342
 7787SOL     OW30879   1.308   6.226   1.045 -0.2096  0.2751 -0.0497
 7787SOL    HW230880   1.307   6.149   0.989  1.4621  0.4622 -0.3736
 7787SOL    HW330881   1.336   6.298   0.988  0.6815  0.6321  0.7992
 7787SOL    MW430882   1.311   6.225   1.030  0.0712 -0.2307  0.5208
 7788SOL     OW30883   1.856   5.671   5.555  0.7482 -0.1550  0.1854
 7788SOL    HW230884   1.923   5.622   5.604 -2.0186 -2.0981  2.3015
 7788SOL    HW330885   1.842   5.620   5.476  1.1702 -0.1506  0.1013
 7788SOL    MW430886   1.863   5.658   5.551 -0.0379  0.1963 -0.4392
 7789SOL     OW30887   4.202   0.950   2.292 -0.4394 -0.3796 -0.1555
 7789SOL    HW230888   4.129   0.893   2.267 -1.0738 -0.2679  1.3321
 7789SOL    HW330889   4.209   1.013   2.221  0.1456 -2.1490 -1.7456
 7789SOL    MW430890   4.193   0.951   2.279  0.0285  0.5198 -0.0767
 7790SOL     OW30891   5.757   4.159   4.257 -0.0942  0.2636  0.1963
 7790SOL    HW230892   5.796   4.082   4.296  0.6499  0.9566  0.8593
 7790SOL    HW330893   5.678   4.127   4.213  0.1895 -0.8525  0.4761
 7790SOL    MW430894   5.752   4.145   4.256 -0.5678  0.1009 -0.7198
 7791SOL     OW30895   2.877   5.497   6.304  0.1137 -0.0863  0.2576
 7791SOL    HW230896   2.808   5.562   6.317  0.3393  0.3257 -0.5538
 7791SOL    HW330897   2.882   5.486   6.209  1.2721  0.0062  0.2898
 7791SOL    MW430898   2.869   5.504   6.293 -0.1926  0.2893  0.2716
 7792SOL     OW30899   3.902   1.624   4.297  0.0134 -0.3590 -0.0134
 7792SOL    HW230900   3.997   1.607   4.297 -0.1889 -1.7123 -1.6641
 7792SOL    HW330901   3.865   1.554   4.351  0.0702  1.4977  2.6327
 7792SOL    MW430902   3.910   1.612   4.304  0.7575 -0.6844 -0.4516
 7793SOL     OW30903   1.692   5.226   2.284  0.6397  0.3251  0.4202
 7793SOL    HW230904   1.730   5.313   2.291 -0.0817  0.7269 -0.4012
 7793SOL    HW330905   1.749   5.179   2.223 -0.0139  0.8448 -0.6148
 7793SOL    MW430906   1.704   5.231   2.277 -0.0452 -1.0758 -0.4074
 7794SOL     OW30907   5.454   5.905   0.585 -0.5544 -0.1589  0.3228
 7794SOL    HW230908   5.454   5.960   0.506 -1.5213  1.0275  1.1063
 7794SOL    HW330909   5.499   5.825   0.559 -0.2325  0.4955 -1.2304
 7794SOL    MW430910   5.460   5.902   0.571  0.2476 -0.2949  0.5396
 7795SOL     OW30911   5.200   5.681   6.139  0.1954 -0.0520  0.0481
 7795SOL    HW230912   5.161   5.610   6.088  0.0123  0.2117 -0.1849
 7795SOL    HW330913   5.125   5.733   6.168  0.3083 -0.1335  0.4891
 7795SOL    MW430914   5.185   5.679   6.136 -0.1414 -0.5426  0.1846
 7796SOL     OW30915   4.374   1.139   6.363 -0.3647 -0.4896 -0.2632
 7796SOL    HW230916   4.440   1.075   6.390  1.1496  0.2613 -1.9601
 7796SOL    HW330917   4.292   1.089   6.360  0.3491 -1.7736  0.6352
 7796SOL    MW430918   4.372   1.124   6.366 -0.6020  0.3921 -0.3122
 7797SOL     OW30919   4.827   5.008   3.710 -0.3592 -0.3653 -0.5850
 7797SOL    HW230920   4.839   4.988   3.803 -1.1528 -1.4535 -0.6940
 7797SOL    HW330921   4.781   5.091   3.709 -0.7942 -0.5893  0.0200
 7797SOL    MW430922   4.822   5.016   3.722 -0.0186  0.0731 -0.0762
 7798SOL     OW30923   3.993   2.979   5.752 -0.5146  0.1623  0.0822
 7798SOL    HW230924   3.917   3.037   5.749  0.3360  1.3307 -0.0413
 7798SOL    HW330925   4.045   3.006   5.676  1.3408  1.3159  1.6683
 7798SOL    MW430926   3.990   2.990   5.741  0.3195 -0.2743 -0.0467
 7799SOL     OW30927   1.946   1.293   2.704  0.5165  0.3260 -0.6980
 7799SOL    HW230928   1.903   1.209   2.722  2.6328 -0.4211  1.3160
 7799SOL    HW330929   1.879   1.359   2.725 -0.3248 -0.8229  0.3523
 7799SOL    MW430930   1.931   1.291   2.709  0.0252  0.1942  0.2501
 7800SOL     OW30931   0.947   1.428   5.173  0.1130  0.3103 -0.7035
 7800SOL    HW230932   1.001   1.435   5.252 -0.4030 -1.0811 -0.1948
 7800SOL    HW330933   1.009   1.410   5.103  0.5823  1.6015 -0.6444
 7800SOL    MW430934   0.962   1.426   5.174 -0.7025  0.2625  0.1854
 7801SOL     OW30935   4.299   4.750   2.583 -0.3000 -0.5154 -0.1528
 7801SOL    HW230936   4.392   4.731   2.572 -0.3460 -0.1251 -1.3205
 7801SOL    HW330937   4.294   4.801   2.663  0.8697  1.8882 -1.5105
 7801SOL    MW430938   4.311   4.754   2.592  0.0891  0.0468  0.0643
 7802SOL     OW30939   4.624   1.558   1.729  0.1001 -0.3333  0.0491
 7802SOL    HW230940   4.551   1.502   1.756 -0.4639  0.1044 -0.5434
 7802SOL    HW330941   4.632   1.544   1.635  1.8971 -1.6601  0.3359
 7802SOL    MW430942   4.616   1.548   1.720  0.0262  0.4561  0.3718
 7803SOL     OW30943   4.343   3.515   5.545 -0.2981  0.4380  0.0241
 7803SOL    HW230944   4.263   3.463   5.537 -0.5388  0.4218  2.0597
 7803SOL    HW330945   4.406   3.455   5.585 -1.0610  2.0242  4.0434
 7803SOL    MW430946   4.341   3.500   5.549  0.0394  0.3155 -0.0844
 7804SOL     OW30947   2.873   4.982  -0.014 -0.2617 -0.0823 -0.2473
 7804SOL    HW230948   2.957   4.943   0.011  0.1638  1.2789  0.5704
 7804SOL    HW330949   2.812   4.952   0.053  0.1782  0.9828  0.6847
 7804SOL    MW430950   2.876   4.973  -0.002 -0.5899 -0.5984 -0.1600
 7805SOL     OW30951   5.271   5.624   3.158 -0.3341 -0.2664  0.0929
 7805SOL    HW230952   5.355   5.669   3.155  0.4980 -1.7975 -2.4138
 7805SOL    HW330953   5.252   5.602   3.067 -3.2119 -0.4777  0.6245
 7805SOL    MW430954   5.279   5.627   3.146  0.6246 -0.3723 -0.3564
 7806SOL     OW30955   1.757   0.750   6.048 -0.5786  0.3833 -0.5723
 7806SOL    HW230956   1.815   0.811   6.003  0.4886 -0.1853 -0.0357
 7806SOL    HW330957   1.752   0.784   6.138  2.6139 -1.8717  0.6687
 7806SOL    MW430958   1.764   0.762   6.054 -0.1775 -0.0421  0.0695
 7807SOL     OW30959   4.041   4.804   3.020 -0.3509  0.8800  0.1160
 7807SOL    HW230960   3.959   4.770   2.984  0.4641 -1.3571  0.1977
 7807SOL    HW330961   4.093   4.828   2.944 -0.8349  1.7142  0.0427
 7807SOL    MW430962   4.037   4.803   3.005 -0.5863 -0.5346 -0.0815
 7808SOL     OW30963   2.894   5.121   1.791 -0.9855 -0.3016  0.3345
 7808SOL    HW230964   2.891   5.031   1.759 -2.3102 -0.1687  0.0234
 7808SOL    HW330965   2.854   5.117   1.878  1.4095 -0.4378  1.4975
 7808SOL    MW430966   2.888   5.108   1.799  0.0225 -0.1033  0.2056
 7809SOL     OW30967   4.119   3.643   0.156 -0.4936 -0.6000 -0.3498
 7809SOL    HW230968   4.132   3.630   0.250  2.6361 -2.9118 -0.9486
 7809SOL    HW330969   4.054   3.578   0.131 -0.4696 -0.7802  0.0548
 7809SOL    MW430970   4.112   3.633   0.165  0.3208 -0.0781  0.4974
 7810SOL     OW30971   6.126   5.731   0.469 -0.0389  0.4184 -0.0386
 7810SOL    HW230972   6.050   5.783   0.496  0.1515  1.7199 -1.7906
 7810SOL    HW330973   6.091   5.672   0.402  0.4618  0.9843 -0.8120
 7810SOL    MW430974   6.111   5.730   0.464 -0.0205  0.5805  0.0824
 7811SOL     OW30975   4.730   4.611   4.868  0.0925 -0.4781  0.4897
 7811SOL    HW230976   4.722   4.681   4.933 -2.2234 -0.5559  0.3748
 7811SOL    HW330977   4.752   4.657   4.787 -0.0582 -0.0332  0.6945
 7811SOL    MW430978   4.732   4.626   4.866  0.4188  0.0335  0.0777
 7812SOL     OW30979   6.345   3.047   5.417 -1.0360 -0.4812 -0.6281
 7812SOL    HW230980   6.323   2.956   5.436 -1.2191  0.0987  2.4519
 7812SOL    HW330981   6.305   3.064   5.332 -0.3616 -3.4457 -1.6349
 7812SOL    MW430982   6.337   3.037   5.409  0.6828 -0.8238 -0.3334
 7813SOL     OW30983   1.538   1.793   2.392 -0.1733  0.6735  0.1454
 7813SOL    HW230984   1.570   1.710   2.357 -0.1838 -1.1000  3.8181
 7813SOL    HW330985   1.599   1.858   2.358  1.3450 -1.2027 -0.9290
 7813SOL    MW430986   1.550   1.791   2.383 -0.4548 -0.6482  0.0346
 7814SOL     OW30987   4.817   5.817   3.591  0.2856  0.0775  0.0902
 7814SOL    HW230988   4.799   5.791   3.501 -1.2404  0.1694  0.3459
 7814SOL    HW330989   4.737   5.797   3.639  0.5432  1.3692  1.1362
 7814SOL    MW430990   4.804   5.811   3.585  0.5596  0.7246 -0.3236
 7815SOL     OW30991   2.441   1.185   5.647  0.3019  0.0181  0.0581
 7815SOL    HW230992   2.374   1.253   5.648  0.4696  0.1811  0.3083
 7815SOL    HW330993   2.414   1.125   5.577 -1.0856 -0.9051  1.3208
 7815SOL    MW430994   2.428   1.186   5.638 -0.1026  0.1433 -0.1056
 7816SOL     OW30995   0.837   5.431   1.669 -0.2927 -0.4176  0.3150
 7816SOL    HW230996   0.823   5.345   1.708 -0.1724  0.5809  2.7249
 7816SOL    HW330997   0.931   5.438   1.658 -0.2961 -0.5475  0.1980
 7816SOL    MW430998   0.847   5.421   1.673  0.4212  0.2047 -0.3573
 7817SOL     OW30999   5.708   6.415  -0.004 -0.5520  0.1608 -0.2226
 7817SOL    HW231000   5.623   6.379   0.021 -0.7002 -0.2830 -1.3033
 7817SOL    HW331001   5.769   6.343   0.009 -0.6376 -0.0859 -1.1436
 7817SOL    MW431002   5.704   6.401   0.001 -0.7763 -0.7080 -0.8884
 7818SOL     OW31003   6.156   0.487   4.614  0.2567 -0.2122  0.0655
 7818SOL    HW231004   6.199   0.528   4.540 -0.4558 -0.4361 -0.4824
 7818SOL    HW331005   6.226   0.470   4.676  0.7896  0.4063 -0.3526
 7818SOL    MW431006   6.171   0.490   4.613 -1.1669 -0.4911 -0.5818
 7819SOL     OW31007   3.525   6.012   1.175  0.4828 -0.1705 -0.0256
 7819SOL    HW231008   3.556   6.101   1.164  0.5136 -0.1184  0.4556
 7819SOL    HW331009   3.490   6.009   1.264 -2.0433  0.1310 -0.9189
 7819SOL    MW431010   3.524   6.023   1.185 -0.2473  0.0778  0.4408
 7820SOL     OW31011   0.146   3.940   4.768  0.2073  0.3724 -0.6811
 7820SOL    HW231012   0.226   3.947   4.715 -0.2364  1.7407 -1.2164
 7820SOL    HW331013   0.161   3.999   4.842 -0.2716  0.5984 -0.7578
 7820SOL    MW431014   0.159   3.949   4.771  0.0892  0.4904 -0.6769
 7821SOL     OW31015   2.440   4.632   5.088  0.1070  0.4616 -0.0563
 7821SOL    HW231016   2.363   4.670   5.047  0.3625  1.0677  0.0163
 7821SOL    HW331017   2.433   4.538   5.070 -0.3320  0.5882 -0.5617
 7821SOL    MW431018   2.429   4.624   5.080  0.1171 -0.3491 -0.1038
 7822SOL     OW31019   1.561   4.933   3.071  0.6817  0.3179  0.0972
 7822SOL    HW231020   1.538   4.942   2.978 -0.9388  0.4164  0.4794
 7822SOL    HW331021   1.551   5.022   3.106  1.1864  0.2604  0.3929
 7822SOL    MW431022   1.557   4.946   3.063 -0.2741 -0.7249  0.2661
 7823SOL     OW31023   4.549   3.152   3.761  0.0831 -0.3940 -0.4987
 7823SOL    HW231024   4.485   3.116   3.699  0.4220 -1.5026 -0.2272
 7823SOL    HW331025   4.590   3.075   3.800  2.9648  0.2295 -2.0650
 7823SOL    MW431026   4.546   3.137   3.758  0.2983  0.0469  0.3129
 7824SOL     OW31027   1.150   4.132   1.014  0.5681 -0.0270 -0.3012
 7824SOL    HW231028   1.073   4.154   0.961  0.8654  0.2755 -0.6118
 7824SOL    HW331029   1.163   4.209   1.069  0.4856 -0.1900 -0.0518
 7824SOL    MW431030   1.142   4.145   1.014  0.5150  0.2788 -0.1840
 7825SOL     OW31031   0.583   4.724   2.432  0.1217 -0.0707  0.0251
 7825SOL    HW231032   0.496   4.723   2.392 -0.2108 -0.8069  0.7414
 7825SOL    HW331033   0.600   4.633   2.454  1.4141 -0.0510 -0.8055
 7825SOL    MW431034   0.574   4.712   2.429  0.1799 -0.3692  0.3033
 7826SOL     OW31035   2.655   3.340   1.661 -0.1604  0.0996 -0.1232
 7826SOL    HW231036   2.734   3.389   1.683  0.8290 -1.3394 -0.3215
 7826SOL    HW331037   2.586   3.406   1.657  0.5437  1.0797  2.4179
 7826SOL    MW431038   2.656   3.355   1.663  0.1528 -0.0471 -0.3466
 7827SOL     OW31039   1.398   1.221   3.295  0.2053 -0.0813  0.4885
 7827SOL    HW231040   1.428   1.142   3.341  0.4133 -1.1328 -1.3560
 7827SOL    HW331041   1.365   1.189   3.212  0.9595  1.8520 -0.6189
 7827SOL    MW431042   1.398   1.207   3.290  0.0355  0.7094 -0.4631
 7828SOL     OW31043   5.970   4.921   6.259  0.0940 -0.1917 -0.0955
 7828SOL    HW231044   6.040   4.983   6.240 -0.6357  1.5596  2.3826
 7828SOL    HW331045   5.893   4.958   6.215  0.0051 -0.2557  0.0049
 7828SOL    MW431046   5.969   4.934   6.251 -0.1244 -0.2174  0.0093
 7829SOL     OW31047   2.928   0.497   3.905  0.1774  0.1049 -0.1807
 7829SOL    HW231048   2.856   0.560   3.901 -0.1244 -0.0456  1.9282
 7829SOL    HW331049   2.977   0.512   3.824 -2.5208 -0.2146 -1.9976
 7829SOL    MW431050   2.925   0.508   3.894 -0.3047 -0.3227  0.0247
 7830SOL     OW31051   3.760   0.075   4.655  0.4886  0.2951  0.1063
 7830SOL    HW231052   3.796   0.134   4.589 -0.5559  0.9907  0.1258
 7830SOL    HW331053   3.665   0.090   4.651  0.1617 -1.5735 -0.0649
 7830SOL    MW431054   3.752   0.085   4.645 -0.0254  0.2586 -0.5856
 7831SOL     OW31055   4.555   4.031   6.336 -0.4152  0.0030 -0.0861
 7831SOL    HW231056   4.514   4.048   6.422  0.0030 -1.5084  0.4494
 7831SOL    HW331057   4.527   3.942   6.314 -1.0620  0.6155 -1.8646
 7831SOL    MW431058   4.546   4.022   6.345  0.3841  0.3468 -0.1511
 7832SOL     OW31059   3.953   3.168   0.217  0.2064 -0.0431 -0.4769
 7832SOL    HW231060   3.884   3.138   0.159 -0.5468  1.3598 -0.3611
 7832SOL    HW331061   4.007   3.091   0.233 -1.5223 -1.2655 -0.2916
 7832SOL    MW431062   3.951   3.154   0.212  0.4678  0.5511 -0.0016
 7833SOL     OW31063   0.602   4.046   3.641  0.1080  0.0259  0.1729
 7833SOL    HW231064   0.648   4.125   3.615  0.6435  0.0199  1.0693
 7833SOL    HW331065   0.670   3.989   3.679 -0.1827 -1.0459 -0.8412
 7833SOL    MW431066   0.617   4.049   3.643  0.0211 -0.6970 -0.2019
 7834SOL     OW31067   4.387   0.321   0.716  0.0291  0.5263 -0.2854
 7834SOL    HW231068   4.331   0.257   0.760 -2.5686  2.3096 -0.7796
 7834SOL    HW331069   4.407   0.386   0.783  0.7540  0.3816 -0.3542
 7834SOL    MW431070   4.382   0.321   0.730 -0.5735  0.0618 -0.4260
 7835SOL     OW31071   3.848   4.903   4.697 -0.0362 -0.3865  0.1905
 7835SOL    HW231072   3.816   4.989   4.724 -1.2740 -0.9429  0.5729
 7835SOL    HW331073   3.822   4.895   4.605  0.6788 -0.0854 -0.0413
 7835SOL    MW431074   3.840   4.913   4.688  0.0744 -0.8179  0.4299
 7836SOL     OW31075   0.884   6.417   1.345  0.0424  0.0652  0.0347
 7836SOL    HW231076   0.971   6.379   1.335  0.4546  0.3462  2.0560
 7836SOL    HW331077   0.900   6.509   1.366 -0.6827 -0.0278  1.0990
 7836SOL    MW431078   0.898   6.424   1.347  0.4490 -0.4432 -0.1470
 7837SOL     OW31079   4.684   0.228   1.354  0.0247  0.4126 -0.7548
 7837SOL    HW231080   4.672   0.275   1.271  0.9468  0.7722 -0.7031
 7837SOL    HW331081   4.736   0.288   1.408 -0.2640  0.0333 -0.0419
 7837SOL    MW431082   4.690   0.243   1.350  0.5167  0.1830 -0.0565
 7838SOL     OW31083   5.395   2.636   2.636 -0.9295 -0.3252  0.0836
 7838SOL    HW231084   5.470   2.580   2.654 -0.1356  0.6116 -0.2099
 7838SOL    HW331085   5.411   2.715   2.688 -1.4936  0.0621 -0.3213
 7838SOL    MW431086   5.407   2.639   2.645 -0.1601 -0.1226  0.0152
 7839SOL     OW31087   3.843   2.736   6.301  0.7759 -0.6648 -0.1501
 7839SOL    HW231088   3.782   2.790   6.251  0.8752  0.3888  0.8285
 7839SOL    HW331089   3.808   2.647   6.293 -1.9175  0.0833  1.6889
 7839SOL    MW431090   3.830   2.731   6.294 -0.4800  0.2604 -0.0994
 7840SOL     OW31091   5.624   2.480   6.274 -0.3066 -0.0452  0.5208
 7840SOL    HW231092   5.646   2.479   6.181  0.0692 -2.0067  0.5939
 7840SOL    HW331093   5.528   2.478   6.276 -0.3315  0.6177  0.1905
 7840SOL    MW431094   5.614   2.479   6.262 -0.0084  0.3300 -0.6200
 7841SOL     OW31095   0.657   2.267   1.340  0.2195 -0.3296 -0.3469
 7841SOL    HW231096   0.740   2.268   1.293 -0.2816 -1.5966 -1.3073
 7841SOL    HW331097   0.590   2.269   1.272 -0.5274 -2.0069  0.2808
 7841SOL    MW431098   0.659   2.268   1.325 -0.2031  0.0271 -0.7272
 7842SOL     OW31099   5.486   4.542   4.484 -0.0597  0.5401 -0.2053
 7842SOL    HW231100   5.413   4.518   4.541  0.2480  0.1041  0.0054
 7842SOL    HW331101   5.484   4.638   4.484 -0.8558  0.5372 -0.4970
 7842SOL    MW431102   5.476   4.552   4.491 -0.2079 -0.1183  0.0235
 7843SOL     OW31103   2.647   2.489   0.724  0.4283  0.9367 -0.0470
 7843SOL    HW231104   2.573   2.449   0.768  0.1327  1.1162 -0.3803
 7843SOL    HW331105   2.608   2.552   0.663  0.7583 -0.3925 -1.6884
 7843SOL    MW431106   2.632   2.492   0.722 -0.0344  0.2138  0.7350
 7844SOL     OW31107   4.958   5.390   1.144 -0.2354  0.1345  0.3915
 7844SOL    HW231108   4.992   5.325   1.205 -0.6290 -0.6345 -0.1946
 7844SOL    HW331109   4.989   5.474   1.179  0.7012 -0.3963  0.8773
 7844SOL    MW431110   4.967   5.393   1.157  0.1398 -0.4606  0.3976
 7845SOL     OW31111   4.379   1.975   1.798  0.2196 -0.4116 -0.0122
 7845SOL    HW231112   4.314   1.961   1.868  0.1266 -1.7733 -0.3333
 7845SOL    HW331113   4.327   1.975   1.718  0.4639 -0.0285 -0.1729
 7845SOL    MW431114   4.363   1.973   1.797 -0.1003  0.2972  0.2861
 7846SOL     OW31115   3.645   5.254   5.714  0.2881 -0.4027 -0.0048
 7846SOL    HW231116   3.553   5.271   5.696  0.9277  0.5886 -2.6909
 7846SOL    HW331117   3.682   5.227   5.630  2.0687 -2.8040  1.4202
 7846SOL    MW431118   3.638   5.252   5.701 -0.1168  0.7400  0.2283
 7847SOL     OW31119   5.854   4.315   6.206  0.1763  0.1341 -0.1669
 7847SOL    HW231120   5.785   4.298   6.143  0.7102 -1.5270 -0.3400
 7847SOL    HW331121   5.811   4.362   6.278 -0.7749  0.5097 -0.9699
 7847SOL    MW431122   5.840   4.319   6.207  0.9270 -0.2881  0.0598
 7848SOL     OW31123   2.901   2.347   0.562 -0.0538  0.5187 -0.0596
 7848SOL    HW231124   2.889   2.253   0.579  0.8033  0.6291  1.3484
 7848SOL    HW331125   2.988   2.353   0.524  0.4191  0.8334  1.0210
 7848SOL    MW431126   2.911   2.335   0.559  0.3559  0.1262 -0.2678
 7849SOL     OW31127   3.210   3.054   5.438  0.2238  0.3921  0.5426
 7849SOL    HW231128   3.200   3.137   5.391  0.3562  0.6025  0.8873
 7849SOL    HW331129   3.182   2.987   5.375 -0.6018  0.7539  0.5216
 7849SOL    MW431130   3.205   3.056   5.423  0.6135  0.6001 -0.5051
 7850SOL     OW31131   1.082   0.973   2.983 -0.0068  0.0898 -0.7832
 7850SOL    HW231132   1.016   1.038   2.959  0.1332 -0.2306 -2.1144
 7850SOL    HW331133   1.059   0.948   3.072 -1.0761  0.7305 -0.8580
 7850SOL    MW431134   1.070   0.978   2.992 -0.5624 -0.0459 -0.2498
 7851SOL     OW31135   2.247   0.380   5.830 -0.2334 -0.0765 -0.0851
 7851SOL    HW231136   2.323   0.405   5.883  1.0235  0.7666 -2.1757
 7851SOL    HW331137   2.263   0.289   5.807 -0.8358 -0.4781  1.0118
 7851SOL    MW431138   2.259   0.371   5.834  0.3707 -0.2352  0.4724
 7852SOL     OW31139   0.744   3.571   4.113  0.6552 -0.3553 -0.2562
 7852SOL    HW231140   0.705   3.602   4.194 -1.3320  1.8149 -1.8914
 7852SOL    HW331141   0.820   3.628   4.100 -1.0882  1.8607 -1.5809
 7852SOL    MW431142   0.749   3.583   4.122 -0.0871  0.4984  0.3447
 7853SOL     OW31143   4.389   2.932   5.541 -0.0351  0.1535  0.2336
 7853SOL    HW231144   4.471   2.973   5.570  0.5792  0.7757 -2.1556
 7853SOL    HW331145   4.405   2.909   5.449 -2.6775  0.6687 -0.4326
 7853SOL    MW431146   4.402   2.935   5.533 -0.2194  0.0014  0.0860
 7854SOL     OW31147   0.360   0.597   0.355  0.0326 -0.0712 -0.4135
 7854SOL    HW231148   0.345   0.688   0.380 -0.6066  0.0368 -1.1804
 7854SOL    HW331149   0.276   0.567   0.321  0.2539 -0.9356 -0.2255
 7854SOL    MW431150   0.347   0.605   0.354  0.2556 -0.0625  0.2913
 7855SOL     OW31151   4.489   2.921   2.152  0.1334  0.2896  0.3899
 7855SOL    HW231152   4.508   2.871   2.072  1.7910 -0.3107  1.1176
 7855SOL    HW331153   4.529   3.006   2.137 -1.6828  1.0829 -0.3666
 7855SOL    MW431154   4.497   2.926   2.139  0.0876  0.2583 -0.2413
 7856SOL     OW31155   3.107   5.162   4.351 -0.2819 -0.2747 -0.5655
 7856SOL    HW231156   3.020   5.186   4.319 -1.4270 -2.2506  0.8308
 7856SOL    HW331157   3.137   5.094   4.291 -1.7201 -2.7894  1.3518
 7856SOL    MW431158   3.100   5.156   4.339  0.1588 -0.6673 -0.3391
 7857SOL     OW31159   4.662   3.589   5.719 -0.5253 -0.5934  0.3010
 7857SOL    HW231160   4.639   3.634   5.638  1.2145  0.0903  0.1384
 7857SOL    HW331161   4.601   3.515   5.724 -2.4010  0.8607 -0.2238
 7857SOL    MW431162   4.651   3.585   5.709 -0.0042  0.1518  0.2053
 7858SOL     OW31163   6.141   1.470   1.466  0.3212 -0.4892  0.5410
 7858SOL    HW231164   6.107   1.489   1.378 -0.3515  3.0459  1.3991
 7858SOL    HW331165   6.215   1.411   1.451 -2.2869 -3.4565 -1.9423
 7858SOL    MW431166   6.147   1.465   1.452 -0.1126  0.2748 -0.2544
 7859SOL     OW31167   3.753   2.363   1.001 -0.2748 -0.0717  0.1803
 7859SOL    HW231168   3.675   2.316   1.028  0.4224 -0.9589  0.6807
 7859SOL    HW331169   3.820   2.296   0.991 -0.5565  0.0083 -4.3481
 7859SOL    MW431170   3.751   2.348   1.003 -0.0536 -0.1130  0.5342
 7860SOL     OW31171   4.450   0.243   1.663  0.2208 -0.1942 -0.6673
 7860SOL    HW231172   4.542   0.259   1.684  0.3055  1.5236 -2.1084
 7860SOL    HW331173   4.411   0.331   1.660 -1.3518 -0.8608 -0.5870
 7860SOL    MW431174   4.457   0.257   1.665 -0.0222 -0.2000  0.0983
 7861SOL     OW31175   2.964   0.951   0.174 -0.0710 -0.3690  0.2512
 7861SOL    HW231176   3.014   0.899   0.237  0.3994 -0.3678 -0.1206
 7861SOL    HW331177   3.017   0.951   0.094 -0.3437  0.1900  0.0616
 7861SOL    MW431178   2.977   0.944   0.172 -0.3914  0.5507  0.2619
 7862SOL     OW31179   3.251   5.893   4.967 -0.3757  0.0042  0.2536
 7862SOL    HW231180   3.244   5.959   4.898 -4.2849  1.0382  1.3947
 7862SOL    HW331181   3.196   5.821   4.936 -0.9611 -0.1398  1.5926
 7862SOL    MW431182   3.243   5.892   4.953 -0.2039 -0.0418 -0.1933
 7863SOL     OW31183   5.864   2.793   4.906 -0.4880 -0.0057 -0.4275
 7863SOL    HW231184   5.928   2.822   4.841 -1.0533  0.7474 -0.6629
 7863SOL    HW331185   5.794   2.755   4.854 -0.5758 -0.1336 -0.2140
 7863SOL    MW431186   5.863   2.792   4.890 -0.0175  0.0199  0.0603
 7864SOL     OW31187   2.154   3.665   3.467  0.3737 -0.0558 -0.0118
 7864SOL    HW231188   2.223   3.674   3.533  2.0741  3.4445 -1.9288
 7864SOL    HW331189   2.199   3.627   3.391 -0.2625  0.5351 -0.7038
 7864SOL    MW431190   2.169   3.661   3.466  0.3593  0.8822  0.5452
 7865SOL     OW31191   5.586   4.477   3.453  0.1824 -0.0897  0.1102
 7865SOL    HW231192   5.515   4.514   3.401  1.2835 -0.5883 -1.8671
 7865SOL    HW331193   5.564   4.384   3.462 -1.1357  0.3828  2.5899
 7865SOL    MW431194   5.574   4.470   3.447 -0.2324 -0.0524  0.3208
 7866SOL     OW31195   0.911   0.982   5.580 -0.4893 -0.3300 -0.0045
 7866SOL    HW231196   0.863   1.022   5.653 -2.9425 -1.7837 -0.6907
 7866SOL    HW331197   0.874   1.024   5.502 -1.0119 -1.7797 -0.5755
 7866SOL    MW431198   0.900   0.993   5.580 -0.2367 -0.0022 -0.0371
 7867SOL     OW31199   5.399   3.137   5.340  0.8007 -0.1279  0.1158
 7867SOL    HW231200   5.317   3.172   5.374  0.8858 -2.0603  2.5331
 7867SOL    HW331201   5.467   3.193   5.378  0.7379  1.2203 -1.5699
 7867SOL    MW431202   5.397   3.149   5.349  0.6434  0.2794  0.0438
 7868SOL     OW31203   1.507   1.991   5.780 -0.4931 -0.2838 -0.0830
 7868SOL    HW231204   1.539   2.026   5.863  0.7311 -0.6099 -0.3859
 7868SOL    HW331205   1.426   2.037   5.763 -0.7292 -0.1748  1.2697
 7868SOL    MW431206   1.501   2.001   5.788 -0.2135 -0.1666 -0.1612
 7869SOL     OW31207   5.108   5.264   4.011  0.0871  0.4107  0.1277
 7869SOL    HW231208   5.153   5.335   4.057 -0.0211  0.6023 -0.0625
 7869SOL    HW331209   5.140   5.270   3.921  0.0104  0.2736  0.0916
 7869SOL    MW431210   5.118   5.274   4.005  0.1555  0.0201 -0.1065
 7870SOL     OW31211   6.429   3.733   5.739  0.0191  0.3061  0.3134
 7870SOL    HW231212   6.436   3.686   5.822 -0.0487  0.7437  0.5719
 7870SOL    HW331213   6.339   3.716   5.709  0.5605 -1.2552 -0.5354
 7870SOL    MW431214   6.418   3.725   5.746  0.1723  0.3636  0.1069
 7871SOL     OW31215   3.782   2.962   3.014 -0.3650  0.2766 -0.2301
 7871SOL    HW231216   3.832   2.886   3.044 -0.6956 -0.4672 -1.4484
 7871SOL    HW331217   3.764   2.943   2.922  0.8356  2.5405 -1.0131
 7871SOL    MW431218   3.786   2.949   3.006 -0.3141 -0.2580  0.0378
 7872SOL     OW31219   4.250   1.392   1.183 -0.3083  0.0806  0.2653
 7872SOL    HW231220   4.322   1.420   1.126 -0.9164  0.1059 -0.5162
 7872SOL    HW331221   4.284   1.315   1.228  0.0878 -0.1359 -0.3781
 7872SOL    MW431222   4.264   1.385   1.181 -0.1992 -0.0302  0.5422
 7873SOL     OW31223   5.308   4.315   1.384  0.8131  0.0738 -0.4358
 7873SOL    HW231224   5.353   4.284   1.306 -0.1874 -0.3581 -0.8645
 7873SOL    HW331225   5.268   4.398   1.358  2.9123  1.4601  0.5096
 7873SOL    MW431226   5.308   4.322   1.371 -0.2282  0.2444  0.6976
 7874SOL     OW31227   2.984   1.681   0.798 -0.2386  0.2860 -0.3962
 7874SOL    HW231228   3.049   1.702   0.865  2.1861  2.1672 -3.1158
 7874SOL    HW331229   3.006   1.592   0.771 -2.1947 -1.1204  2.1098
 7874SOL    MW431230   2.995   1.672   0.804  0.2464 -0.4305 -0.4267
 7875SOL     OW31231   4.136   4.166   3.559 -0.1428  0.3392  0.4283
 7875SOL    HW231232   4.113   4.086   3.606 -0.7555  0.1332 -0.2170
 7875SOL    HW331233   4.211   4.201   3.608 -0.9394  0.2843  1.7277
 7875SOL    MW431234   4.143   4.160   3.572  0.1558  0.2126 -0.4790
 7876SOL     OW31235   3.538   1.839   0.976 -0.2908 -0.0362 -0.2513
 7876SOL    HW231236   3.548   1.758   0.926  0.6337 -0.5940  0.8033
 7876SOL    HW331237   3.461   1.881   0.938 -1.6808 -2.1132  0.1104
 7876SOL    MW431238   3.529   1.834   0.964 -0.2414 -0.0974  0.2841
 7877SOL     OW31239   2.072   4.539   0.458 -0.1158 -0.0505  0.2802
 7877SOL    HW231240   2.153   4.515   0.412  0.2757  0.9654  0.4173
 7877SOL    HW331241   2.045   4.621   0.417 -2.1739 -1.3415 -1.1163
 7877SOL    MW431242   2.079   4.547   0.447 -0.5350 -0.2440 -0.1946
 7878SOL     OW31243   6.206   0.011   0.321  0.4063  0.7667  0.1826
 7878SOL    HW231244   6.161  -0.074   0.319 -0.1639  1.0669  0.1659
 7878SOL    HW331245   6.138   0.074   0.346  0.8749  1.1901  0.4143
 7878SOL    MW431246   6.191   0.008   0.324 -0.4539 -0.5576 -0.0598
 7879SOL     OW31247   1.656   6.331   3.081 -0.3383 -0.2228 -0.3710
 7879SOL    HW231248   1.649   6.348   3.175  0.3782  0.2702 -0.4023
 7879SOL    HW331249   1.567   6.344   3.048 -0.3146  0.9872  0.0138
 7879SOL    MW431250   1.643   6.335   3.089  0.0758 -0.1312  0.0010
 7880SOL     OW31251   0.898   0.922   3.247 -0.4110 -0.6306  0.7343
 7880SOL    HW231252   0.843   0.987   3.291 -0.2731 -0.8485  1.2226
 7880SOL    HW331253   0.983   0.929   3.290  0.2226  0.3101 -0.5809
 7880SOL    MW431254   0.902   0.931   3.258 -0.2735  0.1864 -0.2238
 7881SOL     OW31255   0.806   6.025   3.552  0.1363 -0.2616 -0.3869
 7881SOL    HW231256   0.857   5.963   3.500 -0.5787 -1.0076 -0.2183
 7881SOL    HW331257   0.852   6.031   3.636 -0.1610 -1.0953 -0.1574
 7881SOL    MW431258   0.819   6.018   3.556 -0.3073 -0.0171 -0.2032
 7882SOL     OW31259   3.564   3.448   0.889  0.6547 -0.2935  0.5190
 7882SOL    HW231260   3.496   3.480   0.949 -2.1303 -1.2918 -1.8486
 7882SOL    HW331261   3.591   3.526   0.840  1.0196  0.0603  1.2692
 7882SOL    MW431262   3.558   3.463   0.890 -0.2136 -0.0124 -0.2809
 7883SOL     OW31263   1.281   1.728   1.446  0.4662  0.2121  0.0551
 7883SOL    HW231264   1.205   1.753   1.393  0.6331 -0.9678 -0.7941
 7883SOL    HW331265   1.346   1.700   1.382  0.7494 -1.0643  0.8555
 7883SOL    MW431266   1.279   1.728   1.430 -0.2091  0.1509 -0.1595
 7884SOL     OW31267   1.000   2.785   3.131  0.1563  0.1977  0.7543
 7884SOL    HW231268   1.078   2.826   3.168  1.0438  0.0503 -0.8721
 7884SOL    HW331269   0.929   2.811   3.190  0.7142  3.7186  0.1162
 7884SOL    MW431270   1.001   2.794   3.144 -0.2153 -0.2198 -0.3196
 7885SOL     OW31271   1.668   3.108   5.224 -0.0263  0.1174  0.5111
 7885SOL    HW231272   1.751   3.119   5.271 -0.0544  3.1213  0.0585
 7885SOL    HW331273   1.606   3.082   5.292  0.9100 -0.4608  1.1768
 7885SOL    MW431274   1.671   3.106   5.239  0.6932  0.5378 -0.1806
 7886SOL     OW31275   5.978   3.971  -0.021  0.1803 -0.3999  0.2241
 7886SOL    HW231276   5.981   3.888   0.026  1.6387 -1.3905 -1.4670
 7886SOL    HW331277   6.070   3.992  -0.038 -0.0431  2.4281  1.9499
 7886SOL    MW431278   5.990   3.963  -0.017 -0.0886 -0.9796 -0.1987
 7887SOL     OW31279   6.263   0.517   6.141 -0.2430 -0.7242  0.3400
 7887SOL    HW231280   6.263   0.443   6.080  0.3489 -0.1655 -0.3480
 7887SOL    HW331281   6.338   0.500   6.199 -0.3657 -0.8769  0.4569
 7887SOL    MW431282   6.273   0.505   6.141 -0.7034  0.3183  0.0072
 7888SOL     OW31283   6.082   4.459   6.102 -0.4198 -0.4930  0.2580
 7888SOL    HW231284   5.991   4.434   6.118 -0.6947  1.1116  1.4457
 7888SOL    HW331285   6.118   4.479   6.188  0.8435 -0.3916 -0.2597
 7888SOL    MW431286   6.075   4.459   6.115  0.0211 -0.1936  0.3162
 7889SOL     OW31287   4.173   4.928   0.607 -0.1151  0.4299  0.0692
 7889SOL    HW231288   4.095   4.949   0.658 -0.5151 -2.3539  0.8080
 7889SOL    HW331289   4.150   4.847   0.561  1.1909  1.3713 -2.4163
 7889SOL    MW431290   4.160   4.920   0.608  0.4463  0.0981  0.3490
 7890SOL     OW31291   0.675   4.732   0.928  0.0037 -0.2941  0.6949
 7890SOL    HW231292   0.584   4.763   0.929  0.0387 -0.1928  1.4602
 7890SOL    HW331293   0.676   4.658   0.990  0.0652 -1.4285 -0.6222
 7890SOL    MW431294   0.663   4.726   0.937  0.0062 -0.3006 -0.4526
 7891SOL     OW31295   4.425   6.147   2.230 -0.0052 -0.4278  0.2591
 7891SOL    HW231296   4.506   6.194   2.209 -0.3449  1.1772  2.2951
 7891SOL    HW331297   4.371   6.156   2.151  0.2049  2.1372  0.3208
 7891SOL    MW431298   4.428   6.154   2.217 -0.2423  0.5604  0.1712
 7892SOL     OW31299   5.886   1.731   1.101  0.5652  0.1268  0.3021
 7892SOL    HW231300   5.793   1.718   1.082 -0.2208  2.9378  1.6253
 7892SOL    HW331301   5.912   1.802   1.043  2.0479 -0.9077 -0.3470
 7892SOL    MW431302   5.877   1.739   1.091  0.6591  0.4754  0.0459
 7893SOL     OW31303   1.288   5.492   1.017  1.0481  0.2797  0.3775
 7893SOL    HW231304   1.229   5.442   0.961  2.1203 -1.7018  0.8941
 7893SOL    HW331305   1.346   5.538   0.956  1.5862 -1.0887 -0.1953
 7893SOL    MW431306   1.288   5.492   1.002  0.4533  0.0103 -0.4193
 7894SOL     OW31307   2.148   3.857   3.828 -0.1572  0.3825  0.3445
 7894SOL    HW231308   2.070   3.871   3.776  1.7413  1.9793 -2.3159
 7894SOL    HW331309   2.140   3.767   3.860 -2.4590  0.0848 -0.9011
 7894SOL    MW431310   2.137   3.847   3.825  0.2562 -0.0925 -0.5171
 7895SOL     OW31311   3.957   2.175   0.865 -0.4969 -0.3790 -0.3180
 7895SOL    HW231312   4.038   2.129   0.847 -1.0775 -1.2588 -0.7678
 7895SOL    HW331313   3.899   2.108   0.902 -0.5240  0.5676  1.4790
 7895SOL    MW431314   3.960   2.160   0.868  0.5848  0.3006 -0.0566
 7896SOL     OW31315   6.321   3.359   6.178  0.1740 -1.0902 -0.3717
 7896SOL    HW231316   6.352   3.369   6.268  0.3598 -0.3932 -0.5043
 7896SOL    HW331317   6.357   3.275   6.150  0.1545 -1.2917  0.1876
 7896SOL    MW431318   6.330   3.349   6.186 -0.3999 -0.8454 -0.1103
 7897SOL     OW31319   1.808   3.693   5.720 -0.1324  0.2987  0.2245
 7897SOL    HW231320   1.845   3.662   5.637  0.2486  0.2757  0.4043
 7897SOL    HW331321   1.744   3.759   5.694 -0.0284  0.2772 -0.0889
 7897SOL    MW431322   1.804   3.698   5.705  0.6900  0.0385  0.1798
 7898SOL     OW31323   4.016   1.073   5.823  0.2350 -0.4215  0.0392
 7898SOL    HW231324   4.048   1.154   5.863 -1.6889  0.6345 -0.4452
 7898SOL    HW331325   3.946   1.043   5.882  1.0090 -1.8424  0.2908
 7898SOL    MW431326   4.011   1.080   5.836 -0.3883 -0.4980 -0.2872
 7899SOL     OW31327   2.449   4.408   4.769 -0.1427  0.3462  0.5708
 7899SOL    HW231328   2.422   4.384   4.858 -0.9821  1.7497  0.7284
 7899SOL    HW331329   2.456   4.503   4.771 -0.7293  0.4472 -1.0083
 7899SOL    MW431330   2.446   4.417   4.781 -0.1648  0.5177 -0.1410
 7900SOL     OW31331   4.579   2.613   3.695  0.3845  0.2006 -0.1700
 7900SOL    HW231332   4.527   2.648   3.767 -1.2520  0.4044 -1.3863
 7900SOL    HW331333   4.642   2.682   3.674 -1.9319  2.0121 -1.6682
 7900SOL    MW431334   4.580   2.627   3.701  0.1449 -0.6639  0.9729
 7901SOL     OW31335   5.336   3.596   5.112  0.1968 -0.7523 -0.0857
 7901SOL    HW231336   5.393   3.655   5.162 -0.6755  0.7653 -0.7963
 7901SOL    HW331337   5.268   3.570   5.174  0.9838 -1.5970  0.4317
 7901SOL    MW431338   5.335   3.601   5.126  0.4979 -0.4251 -0.2817
 7902SOL     OW31339   1.542   5.895   3.361 -0.6604  0.3432  0.1031
 7902SOL    HW231340   1.624   5.885   3.312 -1.2088 -0.0824 -0.7569
 7902SOL    HW331341   1.569   5.904   3.452  0.3497  0.3434 -0.1859
 7902SOL    MW431342   1.556   5.895   3.366 -0.4106  0.0083  0.4860
 7903SOL     OW31343   1.541   4.300   2.349  0.9496 -0.0215  0.2411
 7903SOL    HW231344   1.615   4.307   2.289 -0.8686 -1.0195 -2.3182
 7903SOL    HW331345   1.492   4.224   2.317 -1.0909  0.4800  1.9478
 7903SOL    MW431346   1.545   4.291   2.337 -0.1188  0.4174  0.0015
 7904SOL     OW31347   4.508   2.773   3.190  0.3237  0.0200  0.2142
 7904SOL    HW231348   4.494   2.695   3.243  1.3370  0.0234  0.5170
 7904SOL    HW331349   4.522   2.740   3.101  3.1470 -0.4111  0.7133
 7904SOL    MW431350   4.508   2.758   3.185 -0.2184  0.0490  0.0002
 7905SOL     OW31351   4.669   2.511   5.480 -0.0127  0.1945  0.0829
 7905SOL    HW231352   4.713   2.575   5.424 -1.6216  0.4614 -0.9289
 7905SOL    HW331353   4.662   2.433   5.426 -1.3217  0.3624 -0.0281
 7905SOL    MW431354   4.674   2.510   5.466  0.3157 -0.7275 -0.6056
 7906SOL     OW31355   0.072   6.399   1.176  0.2697  0.2108 -0.1616
 7906SOL    HW231356   0.063   6.478   1.230  0.9502  0.4999 -0.4560
 7906SOL    HW331357   0.144   6.420   1.116  3.0574 -1.9441  2.1459
 7906SOL    MW431358   0.080   6.412   1.175  0.0407 -0.0104  0.2431
 7907SOL     OW31359   5.092   1.148   4.250  0.5782 -0.4045 -0.1190
 7907SOL    HW231360   5.074   1.144   4.156 -1.9369 -1.1894  0.3117
 7907SOL    HW331361   5.098   1.241   4.269  0.3183 -0.2100 -0.9308
 7907SOL    MW431362   5.090   1.159   4.240  0.2483 -0.2453 -0.1784
 7908SOL     OW31363   0.408   2.198   6.281 -0.0440 -0.1216 -0.4587
 7908SOL    HW231364   0.478   2.158   6.333  0.3800  0.7028 -0.3642
 7908SOL    HW331365   0.341   2.131   6.274  1.9081 -2.0076 -2.9654
 7908SOL    MW431366   0.409   2.184   6.287 -0.2795  0.2746 -0.3466
 7909SOL     OW31367   3.488   4.226   3.209 -0.1208 -0.0514  0.3286
 7909SOL    HW231368   3.513   4.317   3.229 -0.3578 -0.3069  1.9807
 7909SOL    HW331369   3.571   4.178   3.211  0.0299  0.1484 -0.7470
 7909SOL    MW431370   3.502   4.232   3.212  0.0112  0.3859  0.1468
 7910SOL     OW31371   0.545   5.699   3.501  0.2775  0.3143  0.0837
 7910SOL    HW231372   0.537   5.786   3.539  0.8990  0.9002 -1.0875
 7910SOL    HW331373   0.624   5.663   3.540  1.5019  1.3193 -1.3792
 7910SOL    MW431374   0.554   5.705   3.511  0.2080  0.2858 -0.5016
 7911SOL     OW31375   0.645   1.525   4.590 -0.0476 -0.1836  0.1348
 7911SOL    HW231376   0.701   1.502   4.665  2.2334  0.4926 -1.2816
 7911SOL    HW331377   0.635   1.443   4.542 -0.9026 -0.4572  0.7533
 7911SOL    MW431378   0.651   1.511   4.594 -0.1239 -0.0179  0.1499
 7912SOL     OW31379   2.258   2.488   4.394  0.6523  0.1229  0.0707
 7912SOL    HW231380   2.195   2.444   4.337  0.8633 -0.5898  0.3787
 7912SOL    HW331381   2.237   2.458   4.482  1.1408  0.2155  0.2238
 7912SOL    MW431382   2.247   2.478   4.398  0.1974  0.1475 -0.0417
 7913SOL     OW31383   2.069   1.677   5.710 -0.3963  0.0273 -0.4063
 7913SOL    HW231384   2.052   1.742   5.779 -0.7635 -0.3120 -0.1737
 7913SOL    HW331385   2.161   1.690   5.688 -0.2110  0.0018  0.3066
 7913SOL    MW431386   2.079   1.687   5.716 -0.0431 -0.7999  0.3900
 7914SOL     OW31387   1.635   3.752   2.031 -0.0126  0.2363  0.2299
 7914SOL    HW231388   1.580   3.695   1.978  0.0289  0.1860  0.2406
 7914SOL    HW331389   1.631   3.714   2.119 -1.6715  1.4248  0.7270
 7914SOL    MW431390   1.627   3.740   2.036 -0.0838  0.1926 -0.6292
 7915SOL     OW31391   5.539   6.090   3.377 -0.4319  0.2212  0.3925
 7915SOL    HW231392   5.497   6.004   3.380 -1.2952  0.6456  1.1250
 7915SOL    HW331393   5.502   6.132   3.299  1.6740 -0.8514 -1.3077
 7915SOL    MW431394   5.529   6.084   3.367 -0.1062  0.0604 -0.4844
 7916SOL     OW31395   4.904   3.895   6.139  0.0720 -0.0525  0.2755
 7916SOL    HW231396   4.912   3.915   6.046  1.1154 -0.1969  0.3145
 7916SOL    HW331397   4.878   3.803   6.141 -2.1514  0.5354  0.1233
 7916SOL    MW431398   4.902   3.885   6.127  0.5574 -0.3742 -0.1243
 7917SOL     OW31399   5.973   2.525   5.982  0.0279  0.0706 -0.2822
 7917SOL    HW231400   5.963   2.600   6.040 -4.7565  0.7320 -1.5541
 7917SOL    HW331401   5.986   2.563   5.895 -1.1323 -0.5510 -0.7503
 7917SOL    MW431402   5.974   2.540   5.978  0.1453 -0.1547  0.0457
 7918SOL     OW31403   6.193   3.689   2.429  0.2066  0.6736 -0.3188
 7918SOL    HW231404   6.191   3.709   2.523 -1.1091  0.8929 -0.3854
 7918SOL    HW331405   6.247   3.758   2.391  1.1457  0.3192  0.3249
 7918SOL    MW431406   6.200   3.700   2.437 -0.5512 -0.5031 -0.1856
 7919SOL     OW31407   4.133   5.383   5.285  0.9001 -0.5514  0.3488
 7919SOL    HW231408   4.096   5.302   5.250 -1.5987  0.9596 -0.7546
 7919SOL    HW331409   4.152   5.436   5.207  1.7215  0.2718  1.0867
 7919SOL    MW431410   4.131   5.379   5.270 -0.4064  0.0387 -0.0003
 7920SOL     OW31411   1.076   2.276   0.689 -0.6533  0.8685  0.0820
 7920SOL    HW231412   0.999   2.318   0.653  0.1138  0.8752 -1.6860
 7920SOL    HW331413   1.144   2.343   0.688 -0.7125  1.0130  2.0945
 7920SOL    MW431414   1.075   2.290   0.684 -0.1843 -0.1311  0.7255
 7921SOL     OW31415   1.380   0.818   4.745 -0.0685 -0.6378 -0.3519
 7921SOL    HW231416   1.439   0.893   4.737 -1.5332  0.4513 -1.8983
 7921SOL    HW331417   1.330   0.836   4.824 -1.0941  0.6163 -1.2289
 7921SOL    MW431418   1.381   0.830   4.754  0.3181 -0.0254 -0.5900
 7922SOL     OW31419   3.184   3.759   2.974 -0.0238  0.1240 -0.5597
 7922SOL    HW231420   3.140   3.805   3.046  1.0017  1.4078 -0.7184
 7922SOL    HW331421   3.188   3.823   2.903  1.1004 -0.3287 -0.9270
 7922SOL    MW431422   3.179   3.773   2.974  0.0969  0.0438  0.2280
 7923SOL     OW31423   0.436   5.504   1.687 -0.2049  0.6499  0.5352
 7923SOL    HW231424   0.468   5.458   1.609 -1.8377 -1.4278  1.0187
 7923SOL    HW331425   0.504   5.570   1.704  0.9899  0.1177 -1.6778
 7923SOL    MW431426   0.449   5.507   1.679 -0.3353 -0.0469 -0.2679
 7924SOL     OW31427   1.011   3.587   0.029 -0.4057  0.8718 -0.0691
 7924SOL    HW231428   0.921   3.558   0.010  0.4615 -2.0338 -0.2373
 7924SOL    HW331429   1.028   3.655  -0.036 -2.0113  0.4559 -0.9802
 7924SOL    MW431430   1.001   3.592   0.018  0.0357 -0.4266  0.0294
 7925SOL     OW31431   2.285   2.607   0.798 -0.0797  0.1362  0.5932
 7925SOL    HW231432   2.336   2.544   0.849  1.0256 -0.1777 -0.8508
 7925SOL    HW331433   2.351   2.658   0.751 -1.0543  0.7438 -0.1457
 7925SOL    MW431434   2.301   2.606   0.799  0.2503 -0.1453  0.7231
 7926SOL     OW31435   3.448   0.817   0.600  0.2439 -0.2962 -0.1878
 7926SOL    HW231436   3.445   0.746   0.536  2.1971  0.5391 -1.2984
 7926SOL    HW331437   3.375   0.875   0.576 -0.1986 -0.9535 -0.4473
 7926SOL    MW431438   3.438   0.815   0.588 -0.0754  0.6096 -0.4452
 7927SOL     OW31439   3.984   3.165   3.887 -0.1561  0.1808  0.0091
 7927SOL    HW231440   4.040   3.202   3.955  0.5079 -1.8900  0.6629
 7927SOL    HW331441   4.041   3.156   3.811 -0.4520  0.9015 -0.3137
 7927SOL    MW431442   3.999   3.169   3.886 -0.2939 -0.4579 -0.0233
 7928SOL     OW31443   5.130   2.378   0.003  0.0035 -0.3679  0.1878
 7928SOL    HW231444   5.154   2.289  -0.025 -1.0835 -0.5566 -0.1862
 7928SOL    HW331445   5.044   2.393  -0.036  0.8400  1.4628 -1.0687
 7928SOL    MW431446   5.122   2.368  -0.006  0.1384 -0.6760 -0.2570
 7929SOL     OW31447   2.617   1.599   1.008 -0.0106 -0.5652 -0.1208
 7929SOL    HW231448   2.559   1.671   1.033  0.6012 -0.1997  0.2576
 7929SOL    HW331449   2.634   1.552   1.089 -0.8856 -1.5110 -0.4620
 7929SOL    MW431450   2.612   1.602   1.022 -0.3877 -0.0137  0.1288
 7930SOL     OW31451   5.073   5.648   3.555  0.1972 -0.2627  0.4284
 7930SOL    HW231452   5.115   5.705   3.621 -1.2664  0.1933  1.0158
 7930SOL    HW331453   4.979   5.666   3.565 -0.1111 -0.7408 -1.2967
 7930SOL    MW431454   5.066   5.658   3.565 -0.7291  0.1920  0.1594
 7931SOL     OW31455   4.285   2.887   3.770 -0.0735  0.3004  0.5305
 7931SOL    HW231456   4.273   2.855   3.681  1.4906  0.9741  0.0326
 7931SOL    HW331457   4.336   2.819   3.814 -0.9310 -0.0770  0.9446
 7931SOL    MW431458   4.290   2.874   3.764 -0.2606 -0.0089 -0.1161
 7932SOL     OW31459   2.622   3.382   2.335 -0.0154 -0.3501  0.4024
 7932SOL    HW231460   2.694   3.435   2.301  0.6716 -1.3447  0.2519
 7932SOL    HW331461   2.665   3.306   2.375 -0.9709 -0.9852  0.2616
 7932SOL    MW431462   2.637   3.379   2.336  0.2585 -0.1835  0.0777
 7933SOL     OW31463   0.995   1.438   4.290 -0.6250  0.3656  0.0707
 7933SOL    HW231464   1.054   1.426   4.365 -1.1528 -0.6263  0.3433
 7933SOL    HW331465   1.053   1.434   4.214 -0.0969  1.2714  0.4120
 7933SOL    MW431466   1.011   1.436   4.290 -0.3496 -0.0498 -0.7929
 7934SOL     OW31467   4.197   4.289   5.220  0.2071 -0.6320 -0.5971
 7934SOL    HW231468   4.213   4.378   5.187  1.1953 -0.7111 -0.3610
 7934SOL    HW331469   4.129   4.300   5.286 -0.4254 -0.2005 -1.3059
 7934SOL    MW431470   4.190   4.302   5.224  0.7003  0.3123 -0.5188
 7935SOL     OW31471   3.715   2.761   2.252  0.1544 -0.3039  0.2989
 7935SOL    HW231472   3.730   2.823   2.323  0.9756 -0.1197 -0.0307
 7935SOL    HW331473   3.686   2.816   2.178  2.5276 -0.0677 -0.5226
 7935SOL    MW431474   3.713   2.777   2.251  0.4250  0.0342 -0.0409
 7936SOL     OW31475   4.728   0.994   5.392 -0.2681  0.0481  0.5724
 7936SOL    HW231476   4.735   1.088   5.374 -1.8112 -0.0232 -0.6605
 7936SOL    HW331477   4.727   0.954   5.305  0.8374 -1.1688  1.0966
 7936SOL    MW431478   4.729   1.001   5.378  0.0493 -0.4071 -0.2912
 7937SOL     OW31479   5.831   4.371   1.407  0.6962 -0.6846  0.4180
 7937SOL    HW231480   5.916   4.392   1.366  0.9632 -0.8280  0.8875
 7937SOL    HW331481   5.853   4.350   1.497  0.2348 -1.3709  0.3756
 7937SOL    MW431482   5.845   4.371   1.413 -0.6752 -0.3747  0.1341
 7938SOL     OW31483   0.869   1.338   6.104  0.0502 -0.4272  0.0150
 7938SOL    HW231484   0.857   1.308   6.194 -1.0180 -2.2081 -0.6743
 7938SOL    HW331485   0.783   1.328   6.063 -0.4629  3.6933 -0.3395
 7938SOL    MW431486   0.856   1.333   6.110 -0.0657  0.2895  0.2877
 7939SOL     OW31487   2.899   4.103   6.019 -0.0347 -0.2904 -0.0646
 7939SOL    HW231488   2.959   4.176   6.004 -0.1531 -0.0286  0.7033
 7939SOL    HW331489   2.816   4.145   6.044 -0.4315 -0.6590 -0.7298
 7939SOL    MW431490   2.896   4.118   6.020 -0.7761 -0.1542  0.5027
 7940SOL     OW31491   1.137   0.087   1.597  0.2269 -0.6485 -0.1099
 7940SOL    HW231492   1.097   0.005   1.627  0.2822 -1.0667 -1.1521
 7940SOL    HW331493   1.198   0.060   1.529 -0.0255  0.3010 -0.7195
 7940SOL    MW431494   1.140   0.073   1.592  0.4687 -0.3850 -0.0224
 7941SOL     OW31495   5.404   4.663   2.508  0.3903 -0.5523 -0.2705
 7941SOL    HW231496   5.354   4.728   2.457  0.8826  0.0767  0.0310
 7941SOL    HW331497   5.479   4.712   2.542 -0.2286 -0.7880  1.5605
 7941SOL    MW431498   5.407   4.678   2.506 -0.0844 -0.0674 -0.0046
 7942SOL     OW31499   1.774   5.112   2.034 -0.8975 -0.3081 -0.2272
 7942SOL    HW231500   1.867   5.128   2.017 -1.2348  0.3957 -1.5128
 7942SOL    HW331501   1.758   5.024   2.000 -0.6633 -0.5040  0.1673
 7942SOL    MW431502   1.784   5.102   2.027  0.2134  0.5777  0.2445
 7943SOL     OW31503   0.128   2.640   1.094 -0.0324  0.3843  0.0879
 7943SOL    HW231504   0.147   2.547   1.103 -1.3439  0.2363  1.6125
 7943SOL    HW331505   0.102   2.669   1.181 -1.3240  1.7834 -0.7001
 7943SOL    MW431506   0.127   2.631   1.107  0.2432 -0.1609  0.0062
 7944SOL     OW31507   3.851   3.346   4.173  0.3134 -0.1992 -0.3879
 7944SOL    HW231508   3.932   3.312   4.212  2.0970  0.3591 -3.3347
 7944SOL    HW331509   3.806   3.268   4.142 -1.5796 -0.7524  3.2272
 7944SOL    MW431510   3.856   3.331   4.174 -0.2034  0.2726  1.2093
 7945SOL     OW31511   3.517   2.614   1.066 -0.2424  0.1705  0.2191
 7945SOL    HW231512   3.439   2.577   1.108 -0.5672  0.2382 -0.3004
 7945SOL    HW331513   3.525   2.565   0.984  0.8153 -0.4658  0.6867
 7945SOL    MW431514   3.507   2.603   1.060 -0.4442  0.2466  0.9870
 7946SOL     OW31515   0.313   2.481   5.351 -0.2507  0.4779 -0.7374
 7946SOL    HW231516   0.387   2.542   5.343  0.0771  0.0905 -0.7316
 7946SOL    HW331517   0.347   2.409   5.405 -0.4805  0.0660 -1.1304
 7946SOL    MW431518   0.328   2.479   5.357 -0.0622  0.4091  0.3469
 7947SOL     OW31519   0.018   3.186   1.700  0.0487  0.5667  0.2741
 7947SOL    HW231520   0.107   3.176   1.732  0.5002  0.7456 -0.8594
 7947SOL    HW331521  -0.006   3.099   1.667 -0.3702  0.4058  0.9882
 7947SOL    MW431522   0.026   3.173   1.700 -0.4778  0.1471 -0.3316
 7948SOL     OW31523   4.164   1.888   0.051 -0.0372 -0.4543  0.2636
 7948SOL    HW231524   4.257   1.910   0.040  0.1729 -1.1478  0.6011
 7948SOL    HW331525   4.162   1.793   0.054 -0.7795 -0.4502  0.1676
 7948SOL    MW431526   4.176   1.879   0.050 -0.1118  0.4505  0.5052
 7949SOL     OW31527   2.677   3.308   5.819  0.5657  0.5033 -0.1309
 7949SOL    HW231528   2.590   3.308   5.857  1.1046 -1.3281  1.2514
 7949SOL    HW331529   2.726   3.244   5.871  2.4096  0.6393 -1.5895
 7949SOL    MW431530   2.672   3.300   5.831  0.5665 -0.6395  0.1095
 7950SOL     OW31531   2.189   0.517   3.094 -0.2005  0.7898  0.0710
 7950SOL    HW231532   2.165   0.488   3.006  1.0209  0.4945 -0.1874
 7950SOL    HW331533   2.217   0.608   3.083  0.8674  0.4652 -0.0384
 7950SOL    MW431534   2.190   0.525   3.081 -0.9532 -0.6396 -0.8345
 7951SOL     OW31535   4.675   2.129   3.361 -0.5971  0.1831 -0.4169
 7951SOL    HW231536   4.662   2.192   3.433  0.8377 -1.9063  1.8215
 7951SOL    HW331537   4.734   2.174   3.301  0.1911  1.1170  0.9803
 7951SOL    MW431538   4.681   2.144   3.363  0.6086  0.2439  0.3040
 7952SOL     OW31539   4.838   4.387   5.426  0.6956  0.0341  0.0618
 7952SOL    HW231540   4.866   4.452   5.490 -0.5300  1.8838 -1.1760
 7952SOL    HW331541   4.747   4.411   5.405 -0.0700 -2.5283  0.0721
 7952SOL    MW431542   4.830   4.399   5.431 -0.4445  0.8241  0.4533
 7953SOL     OW31543   5.753   2.056   4.297  0.4044  0.2464 -0.3590
 7953SOL    HW231544   5.751   1.994   4.370  1.1985  0.7401  0.0922
 7953SOL    HW331545   5.706   2.132   4.330  1.4262  0.7668 -0.0764
 7953SOL    MW431546   5.747   2.058   4.311  0.4403  0.2075  0.0366
 7954SOL     OW31547   1.149   3.495   4.490  0.3859 -0.2391  0.4243
 7954SOL    HW231548   1.065   3.541   4.486  0.3859 -0.2982 -2.0039
 7954SOL    HW331549   1.209   3.550   4.440  1.0426 -1.6004 -0.3582
 7954SOL    MW431550   1.146   3.508   4.483 -0.0293 -0.6498 -0.3461
 7955SOL     OW31551   0.526   3.187   1.482  0.3856  0.4917  0.2174
 7955SOL    HW231552   0.468   3.122   1.442 -0.2498 -0.7265  2.8729
 7955SOL    HW331553   0.584   3.136   1.537  1.6729  2.0132  0.3466
 7955SOL    MW431554   0.526   3.172   1.484  0.1289  0.1007 -0.1988
 7956SOL     OW31555   5.448   4.049   5.687 -0.4090 -0.1872  0.2069
 7956SOL    HW231556   5.446   3.954   5.672  0.1229 -0.0327 -0.9930
 7956SOL    HW331557   5.358   4.078   5.672 -0.8800 -0.6564  1.8962
 7956SOL    MW431558   5.436   4.040   5.683 -0.2776 -0.0096  0.6939
 7957SOL     OW31559   3.582   5.426   0.939 -0.0191 -0.4789  0.3154
 7957SOL    HW231560   3.553   5.403   1.027  0.0434  0.7739  0.6712
 7957SOL    HW331561   3.543   5.358   0.883 -0.6986 -0.8435  1.2033
 7957SOL    MW431562   3.573   5.414   0.943  0.3775 -0.1174  0.2413
 7958SOL     OW31563   4.978   0.089   3.541  0.2787 -0.1237  0.2387
 7958SOL    HW231564   4.973   0.056   3.631  0.2733 -2.3220 -0.4945
 7958SOL    HW331565   5.071   0.097   3.523  0.3430 -1.2256 -0.0272
 7958SOL    MW431566   4.989   0.086   3.551  0.3328 -0.2111 -0.0003
 7959SOL     OW31567   3.004   2.630   1.173 -0.4008  0.6466 -0.0402
 7959SOL    HW231568   3.077   2.613   1.232 -0.8019 -1.1572 -0.0043
 7959SOL    HW331569   2.972   2.543   1.149 -2.9302  1.3869  0.4296
 7959SOL    MW431570   3.010   2.617   1.177  0.2016 -0.3450  0.8775
 7960SOL     OW31571   4.241   5.520   0.518 -0.4176 -0.4654 -0.1615
 7960SOL    HW231572   4.244   5.486   0.429 -2.0160 -1.0200 -0.0196
 7960SOL    HW331573   4.149   5.542   0.533 -0.2468 -0.7567  1.4850
 7960SOL    MW431574   4.230   5.518   0.508 -0.0902 -0.0813 -0.0792
 7961SOL     OW31575   4.214   2.790   5.707 -0.5053  0.1612  0.5797
 7961SOL    HW231576   4.262   2.835   5.637 -1.9536  1.1580  0.1604
 7961SOL    HW331577   4.153   2.856   5.739  0.2251 -0.2214  2.9401
 7961SOL    MW431578   4.212   2.805   5.702  0.0861  0.2277 -0.3091
 7962SOL     OW31579   4.190   5.749   3.573  0.0371  0.0588  0.1362
 7962SOL    HW231580   4.119   5.701   3.616 -0.1705 -0.2812 -0.5544
 7962SOL    HW331581   4.201   5.828   3.625  1.3521 -1.3432  2.1586
 7962SOL    MW431582   4.182   5.753   3.585  0.1352 -0.0955 -0.2255
 7963SOL     OW31583   5.287   3.742   6.304 -0.2753  0.0304  0.5774
 7963SOL    HW231584   5.367   3.792   6.314 -0.5416  0.1787  2.2604
 7963SOL    HW331585   5.221   3.793   6.351 -1.1151 -0.6223  0.1276
 7963SOL    MW431586   5.289   3.755   6.312  0.4123 -0.0098  0.3884
 7964SOL     OW31587   1.808   6.250   4.570 -0.1819  0.0710 -0.1159
 7964SOL    HW231588   1.834   6.194   4.497 -1.2795 -3.5908  2.0657
 7964SOL    HW331589   1.721   6.219   4.595 -0.4344  2.1236  1.9160
 7964SOL    MW431590   1.800   6.239   4.563  0.2286 -0.2301 -0.2706
 7965SOL     OW31591   2.911   2.139   0.225  0.0975 -0.2620 -0.9439
 7965SOL    HW231592   2.831   2.160   0.273  0.2809  0.8906 -1.1134
 7965SOL    HW331593   2.907   2.044   0.212  0.0608 -0.6556  1.3951
 7965SOL    MW431594   2.900   2.129   0.230  0.0561 -0.5994 -0.3841
 7966SOL     OW31595   6.436   2.884   2.684  0.1090 -0.0265 -0.1955
 7966SOL    HW231596   6.367   2.938   2.647  0.4098  1.4835  1.3269
 7966SOL    HW331597   6.454   2.923   2.770  1.9892 -1.1299 -0.0234
 7966SOL    MW431598   6.429   2.896   2.691 -0.1694  0.1309 -0.1607
 7967SOL     OW31599   3.276   3.282   2.520  0.0366 -0.3525  0.4295
 7967SOL    HW231600   3.200   3.316   2.471  0.1696 -0.7011 -0.0251
 7967SOL    HW331601   3.244   3.274   2.610 -0.3251 -0.0495  0.3323
 7967SOL    MW431602   3.261   3.285   2.526  0.0754 -0.1229 -0.0505
 7968SOL     OW31603   6.062   3.850   3.140 -0.8334 -0.1635 -0.2986
 7968SOL    HW231604   5.990   3.904   3.110  0.1255  0.9781 -0.6198
 7968SOL    HW331605   6.083   3.794   3.064 -0.9014  0.0335 -0.4640
 7968SOL    MW431606   6.056   3.850   3.126 -0.1363 -0.5138  0.0894
 7969SOL     OW31607   5.360   1.949   0.741 -0.3627 -0.6700  0.0773
 7969SOL    HW231608   5.355   1.881   0.808 -0.7160 -1.1775 -0.4500
 7969SOL    HW331609   5.414   1.910   0.672  0.2888 -0.0224  0.2108
 7969SOL    MW431610   5.366   1.935   0.741 -0.2055  0.1147  0.3629
 7970SOL     OW31611   4.481   1.233   2.807 -0.1220 -0.8577  1.1807
 7970SOL    HW231612   4.513   1.237   2.897 -2.0256 -1.3009  1.9290
 7970SOL    HW331613   4.531   1.162   2.767  1.2539 -0.1795  1.6525
 7970SOL    MW431614   4.492   1.224   2.814  0.4845  0.0138 -0.0049
 7971SOL     OW31615   0.461   5.555   4.945 -0.5144  0.2105  0.5403
 7971SOL    HW231616   0.369   5.566   4.971 -0.9909 -1.0707 -0.5037
 7971SOL    HW331617   0.457   5.518   4.857  1.0002 -0.5567  0.7622
 7971SOL    MW431618   0.448   5.552   4.937 -0.3403 -0.1046  0.2944
 7972SOL     OW31619   0.237   1.993   6.339 -0.1870  0.4310  0.7425
 7972SOL    HW231620   0.305   1.930   6.363  0.0326  0.7577  0.9859
 7972SOL    HW331621   0.184   1.947   6.274  0.7351  0.4590 -0.0553
 7972SOL    MW431622   0.239   1.979   6.334  0.1354  0.6364  0.3823
 7973SOL     OW31623   6.252   1.427   4.229  0.3512  0.1472  0.3363
 7973SOL    HW231624   6.308   1.500   4.202  1.2682 -1.1530 -1.5423
 7973SOL    HW331625   6.175   1.434   4.172 -0.9698  1.2758  2.1478
 7973SOL    MW431626   6.249   1.438   4.218 -0.4886  0.1719  0.2999
 7974SOL     OW31627   5.942   2.226   1.922  0.0605  0.2441 -0.4568
 7974SOL    HW231628   5.985   2.230   1.837  1.5796  0.3258  0.2741
 7974SOL    HW331629   6.012   2.201   1.983 -0.8425  0.8009  0.8568
 7974SOL    MW431630   5.957   2.223   1.919  0.0049 -0.8314  0.2176
 7975SOL     OW31631   5.602   4.539   5.702 -0.2276 -0.0095 -0.2838
 7975SOL    HW231632   5.563   4.454   5.718 -0.5757  0.0747 -0.6691
 7975SOL    HW331633   5.688   4.535   5.745  0.1525 -0.8837 -1.0979
 7975SOL    MW431634   5.608   4.527   5.710 -0.0059 -0.2259 -0.6594
 7976SOL     OW31635   5.934   3.454   6.253  0.4154  0.0000  0.9949
 7976SOL    HW231636   5.893   3.420   6.174  0.8974 -0.7491  1.0588
 7976SOL    HW331637   6.007   3.508   6.222  0.5804 -0.2617  0.9241
 7976SOL    MW431638   5.938   3.457   6.239  0.0799 -0.2229  0.2727
 7977SOL     OW31639   1.666   1.256   6.388 -0.0861 -0.0077 -0.0134
 7977SOL    HW231640   1.644   1.311   6.464  0.3913 -1.9709  1.6401
 7977SOL    HW331641   1.762   1.256   6.386 -0.0935  0.1410 -0.7489
 7977SOL    MW431642   1.676   1.264   6.398  0.3589 -0.0483 -0.1450
 7978SOL     OW31643   0.732   2.327   1.606 -0.4303 -0.0082 -0.2296
 7978SOL    HW231644   0.668   2.361   1.668  0.6779 -0.0252  0.9808
 7978SOL    HW331645   0.692   2.340   1.520 -0.9059  2.5060  0.2921
 7978SOL    MW431646   0.718   2.333   1.603 -0.4519 -0.2078  0.2365
 7979SOL     OW31647   3.671   3.420   0.246  0.4994 -0.4462  0.3538
 7979SOL    HW231648   3.729   3.495   0.229  1.1869 -0.7151  1.4244
 7979SOL    HW331649   3.661   3.419   0.341 -2.5962  0.5580  0.1474
 7979SOL    MW431650   3.677   3.430   0.256 -0.4892 -0.9909  0.9653
 7980SOL     OW31651   1.113   3.051   2.805  0.3907 -0.1161  0.6078
 7980SOL    HW231652   1.077   3.106   2.736  0.7612 -1.5890 -0.8313
 7980SOL    HW331653   1.044   2.988   2.824  0.5680 -0.1753  1.0747
 7980SOL    MW431654   1.099   3.050   2.798 -0.5690  0.8499 -0.2846
 7981SOL     OW31655   0.540   3.148   3.958  0.0944 -0.1006 -0.3773
 7981SOL    HW231656   0.578   3.148   3.871  0.9192  1.9932 -0.0771
 7981SOL    HW331657   0.587   3.079   4.005  1.2628  0.2878 -0.9446
 7981SOL    MW431658   0.551   3.139   3.953 -0.9736  0.4666  0.3373
 7982SOL     OW31659   3.285   1.882   5.409  0.9399  0.3026 -0.2795
 7982SOL    HW231660   3.249   1.925   5.331 -3.1459  1.0741  1.7949
 7982SOL    HW331661   3.342   1.948   5.449  1.6284  0.5428 -1.5988
 7982SOL    MW431662   3.288   1.896   5.404  0.3716 -0.1474  0.0188
 7983SOL     OW31663   3.142   1.160   3.748  0.5101 -1.2228 -0.0998
 7983SOL    HW231664   3.179   1.244   3.774  0.8600 -1.1587 -0.7736
 7983SOL    HW331665   3.068   1.183   3.691  1.0476 -1.3628 -0.8759
 7983SOL    MW431666   3.137   1.174   3.744  0.2105 -0.4258  0.1297
 7984SOL     OW31667   2.606   5.238   5.102  0.2262 -0.1491 -0.1622
 7984SOL    HW231668   2.666   5.268   5.034 -0.8750  3.0129  0.1094
 7984SOL    HW331669   2.590   5.315   5.157 -2.8003 -1.2467  0.7467
 7984SOL    MW431670   2.612   5.252   5.100 -0.2961  0.1451 -0.3176
 7985SOL     OW31671   5.924   4.535   4.277 -0.0775 -0.1462  0.1841
 7985SOL    HW231672   5.928   4.605   4.342 -1.8520  1.0193 -0.8909
 7985SOL    HW331673   5.864   4.471   4.315 -1.2816  0.6343 -0.3391
 7985SOL    MW431674   5.917   4.535   4.291 -0.1015  0.0519  0.4349
 7986SOL     OW31675   3.636   4.388   6.168 -0.1618  0.2124 -0.4350
 7986SOL    HW231676   3.630   4.352   6.079  0.1435  0.5929 -0.6151
 7986SOL    HW331677   3.724   4.366   6.197 -0.5613 -0.6921  0.1274
 7986SOL    MW431678   3.646   4.380   6.160 -0.2793 -0.8233 -0.1290
 7987SOL     OW31679   0.507   4.139   1.271  0.1818  0.0006 -0.7035
 7987SOL    HW231680   0.590   4.182   1.292  0.4060 -0.7010 -0.0833
 7987SOL    HW331681   0.443   4.210   1.268  1.0508  0.7596 -2.7179
 7987SOL    MW431682   0.510   4.154   1.273  0.1279  0.2045  0.2254
 7988SOL     OW31683   0.248   0.807   6.221 -0.2598  0.4286  0.2843
 7988SOL    HW231684   0.283   0.719   6.229 -0.4296  0.1030 -1.9705
 7988SOL    HW331685   0.325   0.864   6.229  0.1263 -0.0290 -0.1361
 7988SOL    MW431686   0.263   0.803   6.224 -0.2257 -0.0822  0.4355
 7989SOL     OW31687   3.847   2.790   4.997 -0.1487  0.2770 -0.1872
 7989SOL    HW231688   3.762   2.815   4.960 -1.1995 -0.4613  1.5637
 7989SOL    HW331689   3.832   2.786   5.092  2.0671  0.8762  0.2490
 7989SOL    MW431690   3.834   2.793   5.005 -0.2061  0.2864  0.6730
 7990SOL     OW31691   0.822   5.426   5.673  0.1347 -0.1673 -0.0867
 7990SOL    HW231692   0.794   5.471   5.594  2.9851  4.2020  1.0178
 7990SOL    HW331693   0.746   5.431   5.732 -0.3106  1.4673 -0.7465
 7990SOL    MW431694   0.808   5.433   5.671  0.3335  0.1811 -0.2881
 7991SOL     OW31695   3.410   0.989   1.594  0.7968  0.7784 -0.1779
 7991SOL    HW231696   3.395   0.941   1.512 -2.3077  0.1944  0.6169
 7991SOL    HW331697   3.459   0.928   1.649  1.2184  0.4480 -0.8972
 7991SOL    MW431698   3.414   0.975   1.590  0.4907 -0.6018  0.0289
 7992SOL     OW31699   4.197   4.393   1.031  0.0944 -0.2642 -0.0558
 7992SOL    HW231700   4.109   4.383   0.993  0.4489 -0.3341 -0.8691
 7992SOL    HW331701   4.199   4.484   1.062 -1.2497 -1.0081  2.5544
 7992SOL    MW431702   4.185   4.404   1.030 -0.0248  0.2688  0.0410
 7993SOL     OW31703   0.074   3.145   6.081  0.2069 -0.0853 -0.7008
 7993SOL    HW231704   0.057   3.137   5.987 -1.1656 -0.3999 -0.4471
 7993SOL    HW331705   0.039   3.065   6.119  2.3282 -0.7744 -0.0895
 7993SOL    MW431706   0.067   3.134   6.074 -0.0748  0.1454 -0.1278
 7994SOL     OW31707   0.813   2.855   3.312 -0.2418 -0.5156  0.5555
 7994SOL    HW231708   0.727   2.872   3.273 -0.4749 -2.8938 -0.1766
 7994SOL    HW331709   0.797   2.853   3.406 -0.4605  1.4342  0.6003
 7994SOL    MW431710   0.800   2.857   3.319  0.0206 -0.7798  0.5888
 7995SOL     OW31711   1.273   5.319   2.786 -0.3546  0.5357  0.1455
 7995SOL    HW231712   1.239   5.280   2.705 -0.5933  0.1612  0.4235
 7995SOL    HW331713   1.197   5.363   2.824 -0.4474 -0.0062  0.5920
 7995SOL    MW431714   1.258   5.320   2.780 -0.1595  0.4192 -0.0867
 7996SOL     OW31715   0.353   5.859   0.940  0.2508 -0.1769  0.0935
 7996SOL    HW231716   0.401   5.938   0.964 -2.0942  1.0380  1.1798
 7996SOL    HW331717   0.354   5.804   1.018 -0.4046  0.0419  0.2674
 7996SOL    MW431718   0.359   5.862   0.953  0.0850  1.0025 -0.3010
 7997SOL     OW31719   2.808   4.517   4.670  0.6009  0.0453 -0.4694
 7997SOL    HW231720   2.799   4.508   4.765  0.6220 -0.3449 -0.5052
 7997SOL    HW331721   2.778   4.433   4.634  3.6967 -1.1097 -0.6333
 7997SOL    MW431722   2.803   4.505   4.678 -0.1125 -0.2982  0.4247
 7998SOL     OW31723   1.675   1.275   4.081 -0.6775  0.4112  0.1564
 7998SOL    HW231724   1.764   1.264   4.114  1.0325  1.1002 -3.6598
 7998SOL    HW331725   1.653   1.366   4.102  0.3606  0.8476 -0.5566
 7998SOL    MW431726   1.684   1.286   4.088  0.7431 -0.0386 -0.5928
 7999SOL     OW31727   4.134   4.836   0.200  0.0522  0.3376 -0.7012
 7999SOL    HW231728   4.225   4.815   0.177  0.6815  0.2642  1.5302
 7999SOL    HW331729   4.125   4.804   0.290 -2.4418 -0.3130 -1.1065
 7999SOL    MW431730   4.145   4.829   0.209  0.1741 -0.1205  0.0616
 8000SOL     OW31731   1.729   2.088   4.248  0.3214  0.6396 -0.3915
 8000SOL    HW231732   1.793   2.129   4.307  0.1485  1.0493 -0.4834
 8000SOL    HW331733   1.645   2.098   4.293  0.5294 -1.6449  0.6673
 8000SOL    MW431734   1.727   2.095   4.262  0.7045 -0.2215 -0.1563
 8001SOL     OW31735   1.150   2.313   5.789  0.5164 -0.0811 -0.1460
 8001SOL    HW231736   1.180   2.273   5.708 -1.3129  0.5066 -1.1594
 8001SOL    HW331737   1.228   2.356   5.825  1.5770 -1.1662 -1.0614
 8001SOL    MW431738   1.164   2.313   5.783 -0.5516  0.2708  0.4459
 8002SOL     OW31739   3.991   2.178   4.056  0.3777 -0.5215  0.0543
 8002SOL    HW231740   4.000   2.187   3.962 -0.1530 -0.3726  0.0145
 8002SOL    HW331741   4.008   2.085   4.073  0.6036 -0.5224 -0.1682
 8002SOL    MW431742   3.995   2.167   4.046  0.0370 -0.2638  0.3658
 8003SOL     OW31743   3.393   4.617   6.119 -0.3149  0.1960 -0.1102
 8003SOL    HW231744   3.427   4.635   6.206 -1.8910  0.3249  0.4946
 8003SOL    HW331745   3.300   4.635   6.124 -0.5459 -0.3513 -1.6698
 8003SOL    MW431746   3.386   4.621   6.131 -0.3792 -0.2930 -0.0845
 8004SOL     OW31747   2.588   3.382   0.842 -0.2150 -0.7350 -0.2259
 8004SOL    HW231748   2.534   3.309   0.811 -2.3143  0.3437  0.6631
 8004SOL    HW331749   2.611   3.359   0.932  0.1542 -0.8453 -0.3481
 8004SOL    MW431750   2.584   3.370   0.850 -0.3935 -0.7073  0.4150
 8005SOL     OW31751   2.100   1.008   4.017 -0.3958  0.6632  0.5496
 8005SOL    HW231752   2.132   0.930   4.062  0.0899  0.3510 -0.3036
 8005SOL    HW331753   2.165   1.075   4.037 -0.1919  0.5314  0.3306
 8005SOL    MW431754   2.113   1.006   4.026  0.2181  0.1773  0.0632
 8006SOL     OW31755   3.557   4.855   1.170 -0.0880  0.1872  0.1822
 8006SOL    HW231756   3.517   4.873   1.085  1.1849  0.2019 -0.4347
 8006SOL    HW331757   3.566   4.941   1.210 -0.1134  0.2452  0.0653
 8006SOL    MW431758   3.553   4.868   1.164 -0.2365 -0.4585  0.1972
 8007SOL     OW31759   2.805   5.065   4.616  0.5625 -0.1339 -0.7259
 8007SOL    HW231760   2.845   4.979   4.623  2.1256  0.4126 -2.2235
 8007SOL    HW331761   2.866   5.116   4.562  0.1042  2.1662  0.7529
 8007SOL    MW431762   2.818   5.061   4.610  0.0859 -0.0296  0.0510
 8008SOL     OW31763   4.698   2.062   0.077  0.2597 -0.3540  0.0853
 8008SOL    HW231764   4.735   1.990   0.128  0.8846 -0.1379 -0.0572
 8008SOL    HW331765   4.618   2.025   0.038  0.0542 -0.6714  0.7985
 8008SOL    MW431766   4.692   2.048   0.078  0.2003  0.0516 -0.1607
 8009SOL     OW31767   3.351   3.484   0.142 -0.5401  0.0053  0.1786
 8009SOL    HW231768   3.380   3.530   0.063  1.1856  1.8994  1.7928
 8009SOL    HW331769   3.304   3.550   0.193 -0.2171 -0.6984  1.4458
 8009SOL    MW431770   3.349   3.498   0.138  0.0060 -0.1595  0.1733
 8010SOL     OW31771   2.210   4.217   3.051 -0.0978 -0.0298  0.0853
 8010SOL    HW231772   2.143   4.213   2.983 -0.8320  1.1138  0.7092
 8010SOL    HW331773   2.221   4.126   3.080 -4.9459  0.0233  3.2701
 8010SOL    MW431774   2.203   4.204   3.046 -0.2768  0.4632  0.4544
 8011SOL     OW31775   1.593   1.504   1.022  0.4878 -0.2253 -0.1331
 8011SOL    HW231776   1.664   1.507   1.086 -0.3190 -1.7844  0.8865
 8011SOL    HW331777   1.636   1.525   0.938  1.8311  0.3755  0.6748
 8011SOL    MW431778   1.608   1.507   1.019  0.2455 -0.2355  0.5107
 8012SOL     OW31779   0.028   2.263   0.518 -0.1595 -0.2142 -0.0937
 8012SOL    HW231780   0.047   2.310   0.437  0.0317  0.7892  0.5075
 8012SOL    HW331781  -0.059   2.227   0.506  0.1371 -0.6362 -0.9963
 8012SOL    MW431782   0.019   2.264   0.506 -0.4628  0.3723  0.4803
 8013SOL     OW31783   2.615   2.541   2.240  0.0198  0.6915  0.1602
 8013SOL    HW231784   2.580   2.506   2.321 -1.0273 -0.8843 -0.9041
 8013SOL    HW331785   2.539   2.580   2.196  0.6146  1.7345  0.0395
 8013SOL    MW431786   2.600   2.541   2.245 -0.4566  0.2928 -0.4145
 8014SOL     OW31787   2.572   1.810   0.051  0.3562 -0.4947  0.3157
 8014SOL    HW231788   2.521   1.732   0.031  0.0822 -0.9272  2.4006
 8014SOL    HW331789   2.567   1.817   0.147 -0.1045  2.4004  0.1685
 8014SOL    MW431790   2.564   1.801   0.061 -0.0141  0.7873 -0.1600
 8015SOL     OW31791   4.072   0.040   2.958 -0.0028 -0.1536  0.0079
 8015SOL    HW231792   4.032  -0.042   2.931 -1.9001  0.9670 -0.7940
 8015SOL    HW331793   4.084   0.089   2.876 -3.3648  2.2311  0.7544
 8015SOL    MW431794   4.068   0.036   2.943  0.1165  0.3064  0.6243
 8016SOL     OW31795   2.243   6.298   3.734  0.0688 -0.4996 -0.3741
 8016SOL    HW231796   2.226   6.371   3.793 -0.0381 -1.0089  0.2390
 8016SOL    HW331797   2.228   6.334   3.647 -0.1771  0.1553 -0.0724
 8016SOL    MW431798   2.239   6.312   3.730 -0.1356 -0.2992  0.5825
 8017SOL     OW31799   2.403   2.994   3.825 -0.1523 -0.1878  0.1737
 8017SOL    HW231800   2.493   3.025   3.831 -0.6997  1.2232  2.4073
 8017SOL    HW331801   2.377   2.978   3.915 -2.2533 -0.1927 -0.3706
 8017SOL    MW431802   2.411   2.996   3.837 -0.3754  0.1214 -0.4353
 8018SOL     OW31803   4.374   4.527   0.456 -0.2713 -0.3975 -0.1297
 8018SOL    HW231804   4.435   4.597   0.431  0.9611 -1.5671 -0.5253
 8018SOL    HW331805   4.370   4.532   0.551  2.0383 -1.5315  0.0859
 8018SOL    MW431806   4.381   4.537   0.465 -0.3562 -0.1039 -0.5270
 8019SOL     OW31807   1.694   1.583   4.472 -0.1628 -0.1937  0.1942
 8019SOL    HW231808   1.725   1.507   4.423  0.6232  1.4207 -1.9472
 8019SOL    HW331809   1.759   1.595   4.542  1.1340 -0.0228 -1.0060
 8019SOL    MW431810   1.706   1.575   4.475 -0.6611 -0.2005  0.0145
 8020SOL     OW31811   1.445   3.749   3.459  0.2183 -0.3311 -0.2604
 8020SOL    HW231812   1.443   3.668   3.409  2.2737 -0.8470  0.4421
 8020SOL    HW331813   1.477   3.815   3.397 -2.7009  0.3616 -1.2428
 8020SOL    MW431814   1.449   3.747   3.445 -0.2142 -0.1412 -0.5121
 8021SOL     OW31815   0.032   4.624   0.303  0.0195 -0.1754  0.0164
 8021SOL    HW231816   0.095   4.670   0.358  1.0993 -1.8957  0.2788
 8021SOL    HW331817   0.085   4.568   0.248 -1.2529 -1.1501 -0.2557
 8021SOL    MW431818   0.047   4.623   0.303  0.6923 -0.3847 -0.2163
 8022SOL     OW31819   2.048   0.389   6.188 -0.4054  0.4642 -0.0267
 8022SOL    HW231820   1.981   0.426   6.131 -1.5585 -0.2340  0.8227
 8022SOL    HW331821   1.998   0.342   6.256  0.9626 -1.5396 -0.3328
 8022SOL    MW431822   2.032   0.388   6.190  0.2429 -0.1395 -0.4258
 8023SOL     OW31823   2.767   4.293   3.306 -0.5053 -0.6874 -0.1999
 8023SOL    HW231824   2.814   4.216   3.339  0.8498 -0.0299 -0.4972
 8023SOL    HW331825   2.779   4.359   3.375  1.8936  0.5285 -1.6341
 8023SOL    MW431826   2.775   4.292   3.319  0.2402  0.2378  0.1735
 8024SOL     OW31827   5.222   3.102   6.051 -0.1111 -0.3507 -0.2413
 8024SOL    HW231828   5.192   3.191   6.034 -1.7040 -0.6618  0.7295
 8024SOL    HW331829   5.208   3.089   6.145 -1.6469 -2.2129 -0.6710
 8024SOL    MW431830   5.216   3.112   6.061 -0.2436  0.7728  0.3553
 8025SOL     OW31831   2.265   3.381   4.144  0.1380  0.3492  0.0821
 8025SOL    HW231832   2.174   3.383   4.173  0.6569  0.0663  1.8905
 8025SOL    HW331833   2.314   3.419   4.218  1.6503 -1.2346 -0.0566
 8025SOL    MW431834   2.260   3.387   4.158 -0.3878 -0.3040 -0.8309
 8026SOL     OW31835   4.301   1.417   6.371  0.3619 -0.0650  0.5828
 8026SOL    HW231836   4.334   1.332   6.343 -2.1384 -0.6782 -0.8060
 8026SOL    HW331837   4.371   1.454   6.424  2.0607 -2.3953  0.1012
 8026SOL    MW431838   4.314   1.411   6.374  0.1947 -0.1050 -0.5948
 8027SOL     OW31839   3.279   1.316   2.556  0.0421 -0.0976  0.2853
 8027SOL    HW231840   3.307   1.364   2.634 -1.4183  0.9279  0.1953
 8027SOL    HW331841   3.198   1.272   2.583  0.5954 -1.3976 -0.0687
 8027SOL    MW431842   3.272   1.316   2.570  0.0093  0.1075  0.3166
 8028SOL     OW31843   5.458   3.645   1.574 -0.2660  0.7459 -0.2834
 8028SOL    HW231844   5.393   3.659   1.505 -0.0001  0.3012 -0.6289
 8028SOL    HW331845   5.504   3.729   1.582 -1.5086  1.3805  0.6347
 8028SOL    MW431846   5.455   3.658   1.566 -0.1159 -0.0104  0.4632
 8029SOL     OW31847   4.090   0.743   4.334 -0.4603 -0.4004  0.7051
 8029SOL    HW231848   4.032   0.667   4.341 -1.2345  0.1663  0.6533
 8029SOL    HW331849   4.050   0.796   4.265  1.3679 -1.0570 -0.9448
 8029SOL    MW431850   4.077   0.740   4.325  0.4944 -0.0333 -0.4999
 8030SOL     OW31851   1.457   4.427   0.854 -0.2475  0.5069  0.4771
 8030SOL    HW231852   1.373   4.460   0.886 -0.1534  0.6847  0.5436
 8030SOL    HW331853   1.455   4.445   0.760 -0.9673 -0.9717  0.1766
 8030SOL    MW431854   1.446   4.434   0.846  0.5134  0.5182 -0.4349
 8031SOL     OW31855   2.944   3.348   6.161 -0.5983  0.0798 -0.1502
 8031SOL    HW231856   2.890   3.398   6.100 -1.9529 -1.9702 -0.7079
 8031SOL    HW331857   2.929   3.390   6.246 -1.6125  0.6769 -0.6139
 8031SOL    MW431858   2.935   3.360   6.165 -0.2626 -0.4310  0.3126
 8032SOL     OW31859   5.621   3.441   1.423  0.1756  0.3327 -0.0862
 8032SOL    HW231860   5.685   3.406   1.485 -0.5041  0.7040  0.8377
 8032SOL    HW331861   5.561   3.493   1.476 -0.3219  0.8092 -1.0795
 8032SOL    MW431862   5.622   3.444   1.438  0.8631  0.0980  0.2903
 8033SOL     OW31863   3.787   0.700   0.468  0.0181 -0.4684  0.2460
 8033SOL    HW231864   3.737   0.761   0.523  0.2778 -0.2705  0.2639
 8033SOL    HW331865   3.751   0.614   0.489 -1.8292 -0.1567 -1.3279
 8033SOL    MW431866   3.775   0.696   0.478  0.3313  0.1069  0.4955
 8034SOL     OW31867   0.520   3.603   5.254 -0.2023 -0.4867  0.2374
 8034SOL    HW231868   0.430   3.616   5.226 -1.1307 -2.1167  2.2526
 8034SOL    HW331869   0.514   3.560   5.339  2.4913 -0.8449  0.3570
 8034SOL    MW431870   0.508   3.599   5.261  0.2361  0.4970  0.2246
 8035SOL     OW31871   2.800   2.410   2.854 -0.9069 -0.3454 -0.0913
 8035SOL    HW231872   2.836   2.363   2.930 -0.5208 -1.9216 -1.2064
 8035SOL    HW331873   2.800   2.345   2.784 -0.8260  1.2127 -1.5809
 8035SOL    MW431874   2.805   2.395   2.855 -0.5665  0.0953 -0.4207
 8036SOL     OW31875   2.921   3.169   4.398  0.0453 -0.6300  0.8043
 8036SOL    HW231876   2.889   3.192   4.485 -1.4103 -1.2566  0.4746
 8036SOL    HW331877   2.996   3.112   4.413 -0.0919 -0.5933  1.6402
 8036SOL    MW431878   2.926   3.165   4.411 -0.2637  0.4176 -0.5988
 8037SOL     OW31879   5.062   3.558   2.462 -0.2834  0.4969 -0.1987
 8037SOL    HW231880   5.059   3.520   2.550 -4.1762  2.5050  0.7616
 8037SOL    HW331881   5.036   3.486   2.404  0.4487 -0.3461  0.4852
 8037SOL    MW431882   5.058   3.544   2.466  0.0951 -0.1164  0.0587
 8038SOL     OW31883   2.236   1.212   5.999 -0.5710 -0.2118  0.2370
 8038SOL    HW231884   2.200   1.261   6.073 -1.0547  0.6034 -0.5165
 8038SOL    HW331885   2.277   1.135   6.039 -1.8043 -0.3773  1.2571
 8038SOL    MW431886   2.236   1.208   6.014 -0.5847  0.6759 -0.3643
 8039SOL     OW31887   2.115   1.682   2.183  0.0416  0.6954 -0.1698
 8039SOL    HW231888   2.168   1.732   2.121 -0.1229  0.2043 -0.7248
 8039SOL    HW331889   2.172   1.609   2.209  0.1008  0.8879  0.2401
 8039SOL    MW431890   2.129   1.679   2.178  0.0018 -0.6590  0.0968
 8040SOL     OW31891   4.670   3.562   5.301  0.2879 -0.2591 -0.5113
 8040SOL    HW231892   4.599   3.528   5.247 -0.4632  0.0382  0.2590
 8040SOL    HW331893   4.626   3.619   5.365  1.2210 -0.0645 -0.0259
 8040SOL    MW431894   4.655   3.565   5.302  0.1730 -0.3062  0.1907
 8041SOL     OW31895   1.724   3.976   1.119  0.0823 -0.5591 -0.0809
 8041SOL    HW231896   1.710   3.906   1.055  2.4489 -1.5250  0.3389
 8041SOL    HW331897   1.760   4.048   1.067 -0.6453 -0.2992 -0.2362
 8041SOL    MW431898   1.727   3.976   1.104 -0.0963  0.2494 -0.0395
 8042SOL     OW31899   2.835   5.360   1.656 -0.1070  0.0780 -0.6322
 8042SOL    HW231900   2.860   5.282   1.705  0.0112  0.6666  0.2756
 8042SOL    HW331901   2.899   5.366   1.586  0.8439  0.2104  0.2182
 8042SOL    MW431902   2.847   5.351   1.654 -0.5337 -0.6940 -0.1064
 8043SOL     OW31903   5.407   3.788   5.657  0.2469 -0.6582  0.1117
 8043SOL    HW231904   5.390   3.728   5.585  2.1768 -2.1483  0.8109
 8043SOL    HW331905   5.390   3.735   5.736  0.7986  0.0856  0.7408
 8043SOL    MW431906   5.402   3.773   5.658 -0.5427  0.4303 -0.2712
 8044SOL     OW31907   1.949   4.500   1.685 -0.0995  0.1060  0.4636
 8044SOL    HW231908   2.034   4.541   1.671  0.3343 -0.9599 -0.1822
 8044SOL    HW331909   1.924   4.525   1.774  2.0662 -1.5382  1.6177
 8044SOL    MW431910   1.957   4.509   1.695  0.4784  0.2372 -0.4485
 8045SOL     OW31911   6.238   2.273   3.966 -0.2190  0.3053  0.4368
 8045SOL    HW231912   6.182   2.347   3.989 -2.0999 -1.2535  1.1316
 8045SOL    HW331913   6.219   2.207   4.033  1.3142 -0.8595 -0.2246
 8045SOL    MW431914   6.228   2.274   3.978 -0.5312 -0.8780  0.1841
 8046SOL     OW31915   3.899   6.356   3.736 -0.3070 -0.1403  0.5084
 8046SOL    HW231916   3.904   6.443   3.776 -0.5116  0.5173 -0.8045
 8046SOL    HW331917   3.990   6.328   3.726 -0.1418  0.7417 -0.6880
 8046SOL    MW431918   3.911   6.364   3.740  0.2785 -0.2030 -0.5969
 8047SOL     OW31919   5.149   3.682   6.073 -0.0717 -0.4050 -0.1366
 8047SOL    HW231920   5.060   3.653   6.091  0.1260 -3.3793 -3.0493
 8047SOL    HW331921   5.192   3.684   6.159 -2.1178 -1.8863  1.0032
 8047SOL    MW431922   5.143   3.679   6.087 -0.0083 -0.1694 -0.1558
 8048SOL     OW31923   5.886   0.922   1.858 -0.0749 -0.1928 -1.1349
 8048SOL    HW231924   5.890   0.830   1.831 -0.2936  0.3231 -3.1113
 8048SOL    HW331925   5.977   0.952   1.855  0.3067 -0.8340  1.6115
 8048SOL    MW431926   5.899   0.914   1.854  0.8452 -0.8907 -0.2356
 8049SOL     OW31927   1.213   3.760   2.994  0.0460  0.1256 -0.3556
 8049SOL    HW231928   1.140   3.758   3.055 -0.8527  1.4972 -1.3135
 8049SOL    HW331929   1.178   3.806   2.917  1.8442  0.6039 -0.9315
 8049SOL    MW431930   1.199   3.766   2.992 -0.5171 -0.1793  0.2631
 8050SOL     OW31931   3.880   4.337   0.393  0.5599 -0.2583 -0.2096
 8050SOL    HW231932   3.881   4.390   0.473 -0.1072 -0.3159 -0.1535
 8050SOL    HW331933   3.969   4.304   0.385  0.4401 -0.9418  0.9820
 8050SOL    MW431934   3.892   4.340   0.403 -0.1070  0.1030 -0.2250
 8051SOL     OW31935   5.664   4.129   4.914  0.2428 -0.5405  0.7527
 8051SOL    HW231936   5.626   4.041   4.917 -0.0741 -0.4137  0.3918
 8051SOL    HW331937   5.660   4.154   4.822  1.2448 -0.5455  0.6914
 8051SOL    MW431938   5.659   4.120   4.903 -0.2354  0.0863 -0.2455
 8052SOL     OW31939   3.199   0.597   0.595  0.7300  0.2878 -0.6183
 8052SOL    HW231940   3.289   0.567   0.581  1.8741  2.5377  1.2250
 8052SOL    HW331941   3.206   0.692   0.601 -1.4609  0.4095  1.5027
 8052SOL    MW431942   3.212   0.606   0.594 -0.7991 -0.0366 -0.3816
 8053SOL     OW31943   1.231   2.470   4.774  0.0561  0.4015 -0.7192
 8053SOL    HW231944   1.163   2.410   4.805 -0.1346  0.8160 -0.3215
 8053SOL    HW331945   1.273   2.502   4.854  2.7816 -2.1162 -0.9607
 8053SOL    MW431946   1.228   2.466   4.789 -0.1509 -0.5431  0.0760
 8054SOL     OW31947   1.506   2.808   0.578  0.0739 -0.3483  0.3454
 8054SOL    HW231948   1.574   2.816   0.511  0.2764 -0.9709  0.4676
 8054SOL    HW331949   1.544   2.748   0.643 -0.2920 -0.0956  0.7980
 8054SOL    MW431950   1.520   2.801   0.578  0.2627 -0.3667 -0.2710
 8055SOL     OW31951   4.223   0.872   5.374  0.2960 -0.0504  0.7068
 8055SOL    HW231952   4.157   0.886   5.442 -0.3063  1.3410 -0.1336
 8055SOL    HW331953   4.299   0.923   5.403 -0.3080  1.3766 -0.1070
 8055SOL    MW431954   4.224   0.881   5.387  0.5998  0.0793  0.7532
 8056SOL     OW31955   5.637   2.645   4.754 -0.3926 -0.0884 -0.0471
 8056SOL    HW231956   5.595   2.713   4.702 -0.5589  0.4927  0.8249
 8056SOL    HW331957   5.704   2.609   4.696 -0.4516  0.6598 -0.5970
 8056SOL    MW431958   5.640   2.649   4.740  0.1279 -0.4358 -0.1158
 8057SOL     OW31959   6.166   0.584   1.217  0.7551  0.6189  0.3336
 8057SOL    HW231960   6.105   0.510   1.220  0.9278  0.5018  1.4199
 8057SOL    HW331961   6.167   0.618   1.307  1.3333  1.4051  0.0433
 8057SOL    MW431962   6.158   0.579   1.230  0.3671  0.3059  0.3715
 8058SOL     OW31963   4.295   2.210  -0.012  0.5784 -0.2762  0.3727
 8058SOL    HW231964   4.305   2.150  -0.086  0.3067 -1.1331  1.0156
 8058SOL    HW331965   4.340   2.290  -0.039  1.1297 -0.8451 -0.4142
 8058SOL    MW431966   4.302   2.213  -0.025  0.6271 -0.1437 -0.4076
 8059SOL     OW31967   3.466   5.682   0.950 -0.0281  0.1581  0.5704
 8059SOL    HW231968   3.507   5.596   0.952  2.7300  1.3807  1.7105
 8059SOL    HW331969   3.414   5.685   1.030 -0.2171 -0.4571  0.4778
 8059SOL    MW431970   3.465   5.671   0.961 -0.0551 -0.6876  0.1369
 8060SOL     OW31971   2.040   4.848   1.833  0.8546 -0.1558  0.0078
 8060SOL    HW231972   2.094   4.818   1.760 -0.1559  0.6641 -1.1293
 8060SOL    HW331973   1.956   4.870   1.792  0.2418  0.2617  1.4392
 8060SOL    MW431974   2.036   4.847   1.818  0.1470 -0.2071 -0.0618
 8061SOL     OW31975   0.565   1.984   3.177 -0.2486 -0.2069 -0.5569
 8061SOL    HW231976   0.533   2.064   3.217 -2.1777 -0.5606 -1.3014
 8061SOL    HW331977   0.515   1.914   3.219  2.3575 -1.2327  1.0748
 8061SOL    MW431978   0.554   1.985   3.187  0.3960  1.0543 -0.1897
 8062SOL     OW31979   1.410   4.167   1.216  0.3234 -0.7777  0.1956
 8062SOL    HW231980   1.472   4.236   1.240  0.1763 -1.4032  2.6717
 8062SOL    HW331981   1.334   4.183   1.272 -0.4821 -1.8496 -0.5527
 8062SOL    MW431982   1.408   4.178   1.227  0.1363 -0.2915 -0.1979
 8063SOL     OW31983   1.559   5.649   5.931  0.1283  0.1759 -0.5576
 8063SOL    HW231984   1.635   5.659   5.989 -0.7223 -0.4282  0.7229
 8063SOL    HW331985   1.517   5.735   5.932 -0.1836  0.0234  0.1895
 8063SOL    MW431986   1.563   5.662   5.939  0.0217 -0.0492  0.0994
 8064SOL     OW31987   3.548   4.553   0.254  0.0252 -0.2794 -0.0505
 8064SOL    HW231988   3.586   4.466   0.265 -1.7074 -1.0412  0.3219
 8064SOL    HW331989   3.623   4.612   0.249  1.2525 -1.8191 -0.6200
 8064SOL    MW431990   3.563   4.550   0.255  0.2441 -0.2091  0.3092
 8065SOL     OW31991   3.044   6.252   3.941 -0.3691  0.1245  0.1837
 8065SOL    HW231992   3.085   6.281   3.860  0.0350  0.8252  0.6202
 8065SOL    HW331993   3.096   6.295   4.010 -0.0511 -1.2687  0.8441
 8065SOL    MW431994   3.056   6.262   3.940 -0.1492  0.2462 -0.1618
 8066SOL     OW31995   2.660   0.019   3.908 -0.3557  0.0946  0.3890
 8066SOL    HW231996   2.661  -0.011   3.817  2.8144  0.0023  0.3512
 8066SOL    HW331997   2.732   0.082   3.914 -0.3443 -0.0304  2.8958
 8066SOL    MW431998   2.670   0.024   3.897 -0.1410  0.2736  0.3245
 8067SOL     OW31999   0.419   0.115   5.331  0.1851 -0.3267  0.2022
 8067SOL    HW232000   0.419   0.102   5.236  0.6550 -1.0038  0.2844
 8067SOL    HW332001   0.345   0.063   5.363  1.1299 -1.6300  0.3744
 8067SOL    MW432002   0.409   0.107   5.323  0.0616 -0.3128  0.0521
 8068SOL     OW32003   2.228   3.259   1.289 -0.7082  0.8822 -0.4403
 8068SOL    HW232004   2.168   3.300   1.352  1.3403 -1.1955  3.2629
 8068SOL    HW332005   2.246   3.173   1.327  0.9042 -0.4972 -3.9096
 8068SOL    MW432006   2.222   3.253   1.303  0.6473 -0.1306 -0.2405
 8069SOL     OW32007   1.641   1.401   0.174  0.2744  0.1037 -0.3633
 8069SOL    HW232008   1.625   1.494   0.157  0.0171  0.0800 -0.2556
 8069SOL    HW332009   1.732   1.397   0.203 -0.1036  0.4943  0.9164
 8069SOL    MW432010   1.651   1.413   0.175 -0.3453 -0.2555 -0.3019
 8070SOL     OW32011   2.886   2.810   2.064 -0.2527  0.1197  0.0574
 8070SOL    HW232012   2.815   2.799   2.127 -0.9548  2.8793 -0.1492
 8070SOL    HW332013   2.852   2.871   2.000  1.7784  0.2872 -0.9330
 8070SOL    MW432014   2.872   2.816   2.064 -0.0353  0.2680 -0.2527
 8071SOL     OW32015   2.472   2.532   2.758 -0.1864  0.9985  0.4168
 8071SOL    HW232016   2.563   2.552   2.782  0.4678 -0.6369 -0.5668
 8071SOL    HW332017   2.425   2.613   2.778  1.2903  1.5579  1.8900
 8071SOL    MW432018   2.478   2.545   2.764  0.2140  0.3581  0.0191
 8072SOL     OW32019   3.806   6.030   5.111 -0.1431  0.0558 -0.4874
 8072SOL    HW232020   3.880   6.069   5.158 -1.1053  0.3961  0.7753
 8072SOL    HW332021   3.844   5.953   5.068  1.1434  0.7501 -0.6579
 8072SOL    MW432022   3.821   6.025   5.111 -0.2910  0.4247 -0.0426
 8073SOL     OW32023   2.846   1.443   0.615 -0.1077 -0.1125 -0.1829
 8073SOL    HW232024   2.782   1.413   0.680 -0.9370  0.0960 -0.8752
 8073SOL    HW332025   2.808   1.523   0.580  0.1350 -0.4194 -1.1893
 8073SOL    MW432026   2.832   1.449   0.619 -0.3018  0.4061 -0.1205
 8074SOL     OW32027   0.336   0.204   4.259  0.0396 -0.3697  0.1932
 8074SOL    HW232028   0.396   0.132   4.238 -0.6264 -0.6288 -0.8620
 8074SOL    HW332029   0.371   0.279   4.210 -0.6417 -0.5905 -0.6475
 8074SOL    MW432030   0.349   0.204   4.250  0.1998 -0.0333 -0.2444
 8075SOL     OW32031   3.590   3.448   3.796  0.0993  0.6078 -0.2478
 8075SOL    HW232032   3.595   3.541   3.819 -0.0638  1.2787 -2.6485
 8075SOL    HW332033   3.681   3.418   3.797  0.2063  0.9376  0.0184
 8075SOL    MW432034   3.603   3.457   3.799 -0.1343  0.3402 -0.0022
 8076SOL     OW32035   5.585   0.638   2.085 -0.8497  0.3698 -0.1015
 8076SOL    HW232036   5.658   0.576   2.087 -0.5453  0.6575  3.7976
 8076SOL    HW332037   5.626   0.723   2.076 -0.7860  0.4201  0.6121
 8076SOL    MW432038   5.600   0.641   2.084  0.5989  0.8818  0.3683
 8077SOL     OW32039   3.826   0.283   2.899 -0.3086 -0.1998 -0.4428
 8077SOL    HW232040   3.897   0.346   2.904  0.2815 -0.8231 -0.8568
 8077SOL    HW332041   3.819   0.247   2.987 -0.2525  0.0017 -0.3547
 8077SOL    MW432042   3.834   0.287   2.911  0.3281  0.1800  0.3073
 8078SOL     OW32043   5.756   3.523   5.276  0.1243 -0.4459 -0.4921
 8078SOL    HW232044   5.779   3.596   5.218  0.3795 -0.1556 -0.0292
 8078SOL    HW332045   5.837   3.474   5.285 -0.0428 -0.7852 -0.7872
 8078SOL    MW432046   5.770   3.526   5.269 -0.5919 -0.2690  0.0772
 8079SOL     OW32047   0.044   4.456   5.417 -0.0844  0.5370 -0.1244
 8079SOL    HW232048   0.100   4.512   5.471  0.0216  2.3530 -2.0268
 8079SOL    HW332049  -0.040   4.455   5.464  0.8110 -0.4025  1.5831
 8079SOL    MW432050   0.040   4.463   5.431  0.0479 -0.0856  0.7902
 8080SOL     OW32051   5.111   6.031   0.504  0.0498 -0.1297 -0.4519
 8080SOL    HW232052   5.129   5.937   0.503  0.1012 -0.1312  0.2294
 8080SOL    HW332053   5.173   6.068   0.442  0.1363 -0.5278 -0.6073
 8080SOL    MW432054   5.121   6.024   0.496 -0.1907  0.1711 -0.2031
 8081SOL     OW32055   5.995   3.831   5.967 -0.0053  0.2732  0.5384
 8081SOL    HW232056   5.926   3.796   5.911  1.3997 -0.9885 -0.4778
 8081SOL    HW332057   5.954   3.906   6.011 -1.3477  0.9698 -1.7224
 8081SOL    MW432058   5.980   3.836   5.966  0.2638  0.1678  0.4592
 8082SOL     OW32059   5.857   2.344   4.001  0.1075  0.3168  0.6188
 8082SOL    HW232060   5.783   2.285   3.987  1.7577 -1.9132  0.7351
 8082SOL    HW332061   5.854   2.362   4.095 -1.1196  1.4720  0.3841
 8082SOL    MW432062   5.847   2.338   4.012 -0.0449  0.3985  0.6434
 8083SOL     OW32063   6.360   3.840   3.370  0.3579 -0.1961 -0.5989
 8083SOL    HW232064   6.431   3.787   3.406  0.6851 -1.7012 -3.1866
 8083SOL    HW332065   6.404   3.910   3.322  0.1030 -0.6132 -1.4632
 8083SOL    MW432066   6.375   3.842   3.368  0.1729 -0.0582  0.3885
 8084SOL     OW32067   5.102   4.959   3.605  0.0006  0.3301  0.1707
 8084SOL    HW232068   5.131   4.890   3.664 -0.1615  0.0359 -0.0887
 8084SOL    HW332069   5.016   4.985   3.638 -0.0475  0.2330  0.1219
 8084SOL    MW432070   5.094   4.953   3.617 -0.3781  0.2158 -0.2139
 8085SOL     OW32071   3.999   4.976   3.476 -0.6728  0.9129 -0.1276
 8085SOL    HW232072   3.950   4.980   3.394  0.3387 -1.7904 -0.9906
 8085SOL    HW332073   4.090   4.971   3.449 -0.3780 -1.1583  1.0380
 8085SOL    MW432074   4.004   4.976   3.461  0.0655 -0.1705 -0.0315
 8086SOL     OW32075   2.575   0.609   3.650 -0.2331  0.0328 -0.1537
 8086SOL    HW232076   2.531   0.531   3.683  0.2044 -0.0465  0.2449
 8086SOL    HW332077   2.627   0.578   3.575  0.0154 -0.0747  0.0634
 8086SOL    MW432078   2.576   0.595   3.644  0.5283 -0.5493 -0.6495
 8087SOL     OW32079   2.894   4.361   2.937  0.2596 -0.1900 -0.3449
 8087SOL    HW232080   2.844   4.442   2.926  0.1931 -0.2103 -0.1957
 8087SOL    HW332081   2.831   4.299   2.975 -0.5664 -1.2362 -3.1825
 8087SOL    MW432082   2.879   4.363   2.941 -0.2948  0.2712  0.2988
 8088SOL     OW32083   6.303   4.297   4.437 -0.5158  0.7192 -0.1171
 8088SOL    HW232084   6.383   4.347   4.424 -0.1246 -0.1139 -0.9583
 8088SOL    HW332085   6.247   4.356   4.488  1.6270  0.2981  3.0430
 8088SOL    MW432086   6.306   4.312   4.442 -0.0499 -0.0830  0.5042
 8089SOL     OW32087   2.249   5.795   1.877 -0.0893  0.2828 -0.6175
 8089SOL    HW232088   2.340   5.766   1.874  0.0639  0.3421  1.8205
 8089SOL    HW332089   2.254   5.889   1.862  0.0860  0.1095 -1.7675
 8089SOL    MW432090   2.262   5.804   1.874 -0.6702 -0.2030 -0.0840
 8090SOL     OW32091   3.367   4.689   2.790  0.1111 -0.6030  0.0045
 8090SOL    HW232092   3.349   4.753   2.721  1.8977 -0.4371 -0.3633
 8090SOL    HW332093   3.301   4.621   2.779  0.2542 -0.4856 -1.7623
 8090SOL    MW432094   3.356   4.689   2.780  0.4242 -0.1922  0.3956
 8091SOL     OW32095   0.504   5.852   4.848  0.1317  0.4392 -0.1834
 8091SOL    HW232096   0.499   5.923   4.912  0.2241 -0.1809  0.5253
 8091SOL    HW332097   0.538   5.777   4.897 -0.0683 -0.1297 -0.8893
 8091SOL    MW432098   0.508   5.852   4.863  0.1616 -0.0438  0.2431
 8092SOL     OW32099   2.930   3.595   2.558 -0.2227  0.0470  0.4588
 8092SOL    HW232100   2.886   3.655   2.497 -0.9076  0.3182  1.1931
 8092SOL    HW332101   2.858   3.550   2.603  0.2817 -1.3315 -0.0705
 8092SOL    MW432102   2.915   3.597   2.556  0.3614  0.4159  0.3252
 8093SOL     OW32103   2.279   0.229   0.665  0.4551 -0.5400  0.3553
 8093SOL    HW232104   2.350   0.231   0.601  0.8492  1.3253  0.7711
 8093SOL    HW332105   2.210   0.283   0.626  0.4860  0.1630  1.2306
 8093SOL    MW432106   2.280   0.237   0.652  0.1312  0.3775 -0.0555
 8094SOL     OW32107   0.389   3.941   4.063 -0.0930  0.5903  0.3205
 8094SOL    HW232108   0.349   3.906   4.142 -0.9252 -0.1438 -0.3990
 8094SOL    HW332109   0.476   3.902   4.061 -0.1637  0.4041  0.7276
 8094SOL    MW432110   0.395   3.932   4.073 -0.0487 -0.3788  0.2368
 8095SOL     OW32111   2.711   5.236   1.989  0.2215  0.3059  0.6519
 8095SOL    HW232112   2.619   5.255   1.973 -0.0547 -1.8696 -0.8809
 8095SOL    HW332113   2.758   5.307   1.946 -0.7454  0.5054 -0.1073
 8095SOL    MW432114   2.705   5.248   1.981 -0.3362  0.0236 -0.8198
 8096SOL     OW32115   5.624   4.935   0.140 -0.1339 -0.2790  0.3217
 8096SOL    HW232116   5.623   4.894   0.227 -0.1126 -3.2610 -0.9460
 8096SOL    HW332117   5.543   4.984   0.136  0.0095  0.1912  2.1219
 8096SOL    MW432118   5.613   4.936   0.151  0.4555 -0.0525  0.8020
 8097SOL     OW32119   3.860   0.948   0.946 -0.1687 -0.1765 -0.1224
 8097SOL    HW232120   3.856   0.861   0.907  0.9114  0.3176 -1.4062
 8097SOL    HW332121   3.777   0.989   0.922 -0.8780 -0.9557  0.8603
 8097SOL    MW432122   3.849   0.942   0.938 -0.6724  0.9200 -0.2842
 8098SOL     OW32123   1.398   4.376   4.439  0.1594 -0.4528 -0.4551
 8098SOL    HW232124   1.481   4.415   4.412 -0.4499  1.3172  0.0882
 8098SOL    HW332125   1.333   4.444   4.421 -1.4787 -2.4141 -2.5613
 8098SOL    MW432126   1.400   4.390   4.433 -0.1327  0.6200 -0.1943
 8099SOL     OW32127   2.267   4.970   5.163  0.0727  0.4048  0.6897
 8099SOL    HW232128   2.231   5.016   5.239 -1.1720  3.5139 -1.5576
 8099SOL    HW332129   2.191   4.940   5.114  0.7728  0.2917 -0.3697
 8099SOL    MW432130   2.252   4.972   5.166 -0.3189  0.3992 -0.3575
 8100SOL     OW32131   0.752   0.934   2.982 -0.0454 -0.8244 -0.1993
 8100SOL    HW232132   0.818   0.938   3.052  0.4321 -1.5283 -0.5998
 8100SOL    HW332133   0.706   0.851   2.997 -2.0086  0.4009  1.0846
 8100SOL    MW432134   0.755   0.923   2.994  0.6646  0.0440 -0.6971
 8101SOL     OW32135   5.302   1.868   4.855 -0.7006  0.0336  0.5465
 8101SOL    HW232136   5.360   1.856   4.930 -1.3286 -0.3201  0.9843
 8101SOL    HW332137   5.323   1.795   4.797 -0.6327 -0.0277  0.6478
 8101SOL    MW432138   5.313   1.857   4.858  0.2708  0.0884  0.0229
 8102SOL     OW32139   4.853   1.682   3.204 -0.2725  0.3014 -0.0799
 8102SOL    HW232140   4.871   1.699   3.111 -0.4480  0.1337 -0.1451
 8102SOL    HW332141   4.939   1.681   3.245 -0.1459 -0.2670 -0.3489
 8102SOL    MW432142   4.867   1.684   3.197 -0.4027  0.3606 -0.4525
 8103SOL     OW32143   0.274   6.377   2.779  0.1307  0.4003 -0.0870
 8103SOL    HW232144   0.187   6.344   2.802  0.2725 -1.6792 -2.1204
 8103SOL    HW332145   0.287   6.347   2.689  1.3583  4.1403 -1.3135
 8103SOL    MW432146   0.264   6.369   2.770  0.2825 -0.2761  0.3466
 8104SOL     OW32147   6.049   1.435   5.526  0.2905  0.7243 -0.0246
 8104SOL    HW232148   6.002   1.439   5.609  0.5458  0.6143  0.1260
 8104SOL    HW332149   5.984   1.403   5.463  0.7364 -1.6386  0.6346
 8104SOL    MW432150   6.035   1.431   5.529  0.0714 -0.0627  0.0180
 8105SOL     OW32151   4.685   0.395   1.111 -0.5545  0.0809 -0.6717
 8105SOL    HW232152   4.720   0.481   1.131 -1.1577  0.2724 -0.4286
 8105SOL    HW332153   4.599   0.412   1.073 -0.2783 -0.3694 -1.5327
 8105SOL    MW432154   4.678   0.408   1.108  0.2314 -0.4027 -0.0977
 8106SOL     OW32155   3.392   5.998   5.992 -0.0855  0.3442  0.2083
 8106SOL    HW232156   3.457   6.068   5.980 -0.6949  0.8072 -0.4898
 8106SOL    HW332157   3.392   5.951   5.909 -0.2069 -0.0421  0.4227
 8106SOL    MW432158   3.401   6.001   5.980 -0.8512 -0.8754  0.6686
 8107SOL     OW32159   5.229   2.990   3.373 -0.0471  0.0551 -0.0381
 8107SOL    HW232160   5.147   2.945   3.351 -0.6554  0.7763  0.6863
 8107SOL    HW332161   5.269   2.936   3.440  0.2964 -0.5249 -0.6923
 8107SOL    MW432162   5.223   2.977   3.379 -0.5736  0.5158  0.0894
 8108SOL     OW32163   2.436   1.796   3.007  0.4823 -0.4951 -0.0651
 8108SOL    HW232164   2.443   1.823   2.916 -1.6105 -0.0467 -0.1585
 8108SOL    HW332165   2.387   1.714   3.004 -4.4967  2.0571  0.7385
 8108SOL    MW432166   2.430   1.789   2.995  0.2835  0.2724 -0.6472
 8109SOL     OW32167   2.902   0.362   2.175  0.9595  0.3196  0.0722
 8109SOL    HW232168   2.844   0.307   2.229  1.6996  0.6320  1.2300
 8109SOL    HW332169   2.898   0.323   2.088 -0.0358 -0.3975  0.4208
 8109SOL    MW432170   2.894   0.350   2.171  0.4561 -0.0582 -0.3364
 8110SOL     OW32171   2.727   3.758   2.404  0.2897  0.1816  0.5747
 8110SOL    HW232172   2.763   3.846   2.395  0.7546 -0.0623 -0.0233
 8110SOL    HW332173   2.647   3.759   2.352  1.6046 -0.4589 -1.5763
 8110SOL    MW432174   2.721   3.770   2.396 -0.2225 -0.2044  0.1171
 8111SOL     OW32175   0.720   0.711   1.498 -0.7760 -0.1992 -0.1559
 8111SOL    HW232176   0.728   0.697   1.404 -0.3477 -0.3928 -0.0933
 8111SOL    HW332177   0.804   0.748   1.525 -0.7463 -0.5279  0.2169
 8111SOL    MW432178   0.732   0.714   1.489  0.3000  0.1411  0.5594
 8112SOL     OW32179   5.525   1.254   3.461  0.2123  0.4593  0.3236
 8112SOL    HW232180   5.518   1.325   3.398  0.7460 -0.4117 -0.7565
 8112SOL    HW332181   5.581   1.289   3.531 -0.6798  1.5587  0.5043
 8112SOL    MW432182   5.532   1.268   3.462  0.2360  0.2304 -0.9029
 8113SOL     OW32183   5.285   1.065   3.980  0.4603 -0.4754 -0.0756
 8113SOL    HW232184   5.356   1.059   3.916 -0.4712 -0.6936 -1.1389
 8113SOL    HW332185   5.276   0.976   4.015  0.4405 -0.5434 -0.2527
 8113SOL    MW432186   5.293   1.052   3.976  0.1726  0.3028 -0.0482
 8114SOL     OW32187   3.662   1.028   5.298 -0.1935 -0.0056  0.4289
 8114SOL    HW232188   3.710   1.095   5.248 -0.2056  0.6388  1.2624
 8114SOL    HW332189   3.658   1.063   5.387  0.6057 -1.5342  1.1015
 8114SOL    MW432190   3.668   1.041   5.303  0.4108 -0.5426  0.2023
 8115SOL     OW32191   1.982   5.413   1.601 -0.0922  0.2778 -0.2661
 8115SOL    HW232192   1.909   5.373   1.648  0.0076  0.2675 -0.1189
 8115SOL    HW332193   2.032   5.338   1.566  0.6475  0.2241  0.8388
 8115SOL    MW432194   1.979   5.398   1.603  0.2919  0.0728  0.2036
 8116SOL     OW32195   3.775   2.136   4.665 -0.7150  0.0498 -0.3630
 8116SOL    HW232196   3.812   2.216   4.630 -2.1831  0.6523 -0.6154
 8116SOL    HW332197   3.827   2.066   4.626  0.3970  0.8598 -0.3641
 8116SOL    MW432198   3.787   2.137   4.656  0.1213  0.2233  0.2161
 8117SOL     OW32199   2.219   3.514   5.880 -0.4775 -0.0674  0.8129
 8117SOL    HW232200   2.185   3.496   5.968 -1.0134  1.0605  0.8595
 8117SOL    HW332201   2.172   3.593   5.852 -0.0301 -0.1883 -0.3348
 8117SOL    MW432202   2.208   3.522   5.888 -0.5611  0.1311 -0.6914
 8118SOL     OW32203   5.660   5.711   0.458 -0.4005  0.0882  0.2399
 8118SOL    HW232204   5.623   5.673   0.379  2.8438 -1.2231 -0.8201
 8118SOL    HW332205   5.688   5.635   0.510  2.1615  0.9033  0.1685
 8118SOL    MW432206   5.659   5.696   0.455 -0.3059  0.7423  0.2059
 8119SOL     OW32207   2.208   1.308   2.759  0.0727 -0.5921 -0.0596
 8119SOL    HW232208   2.117   1.282   2.748 -0.1418 -0.0461  0.3690
 8119SOL    HW332209   2.228   1.290   2.851  0.5257 -1.0889 -0.2503
 8119SOL    MW432210   2.199   1.302   2.769 -0.4222  0.0554  0.9913
 8120SOL     OW32211   6.020   2.917   4.282 -0.2754  0.1948  0.0296
 8120SOL    HW232212   5.989   2.974   4.353  2.1632  0.8520  0.6685
 8120SOL    HW332213   5.958   2.845   4.280 -1.0994  0.7844  2.0223
 8120SOL    MW432214   6.008   2.915   4.291  0.6665  0.0535 -0.0342
 8121SOL     OW32215   4.948   6.085   0.860 -0.7675 -0.0105 -0.5126
 8121SOL    HW232216   5.025   6.126   0.819  0.0394  0.2651  1.1863
 8121SOL    HW332217   4.924   6.014   0.800  2.4610 -1.8434  0.0992
 8121SOL    MW432218   4.955   6.081   0.846  0.2086  0.1741 -0.0791
 8122SOL     OW32219   0.823   5.898   1.162  0.2063  0.1132  0.4551
 8122SOL    HW232220   0.810   5.849   1.081 -0.2418 -0.8197  1.0837
 8122SOL    HW332221   0.873   5.839   1.218  1.3634  1.1226  0.5240
 8122SOL    MW432222   0.828   5.884   1.159  0.5957  0.1686  0.0716
 8123SOL     OW32223   1.135   6.243   5.098 -0.6408  1.2825  0.4377
 8123SOL    HW232224   1.058   6.185   5.101 -0.4279  1.0555  1.8718
 8123SOL    HW332225   1.098   6.331   5.109 -0.8104  1.2962 -0.1858
 8123SOL    MW432226   1.120   6.247   5.100  0.1770  0.4199  0.3100
 8124SOL     OW32227   6.346   3.218   1.211  0.5309  0.2484 -0.4285
 8124SOL    HW232228   6.278   3.220   1.278  0.2453  0.0602 -0.7071
 8124SOL    HW332229   6.382   3.129   1.216  0.2246  0.0968 -0.7948
 8124SOL    MW432230   6.342   3.206   1.221  0.2561  0.4702 -0.2366
 8125SOL     OW32231   5.396   2.477   1.377  0.3697 -0.1176  0.4729
 8125SOL    HW232232   5.303   2.489   1.357  0.7147  1.7307 -0.2066
 8125SOL    HW332233   5.400   2.392   1.421 -1.6201 -0.2846  0.4291
 8125SOL    MW432234   5.384   2.467   1.380  0.3061 -0.3500 -0.2584
 8126SOL     OW32235   0.536   4.146   0.038  0.1701 -0.0216 -0.0937
 8126SOL    HW232236   0.445   4.144   0.068 -0.7876  0.0541 -2.6977
 8126SOL    HW332237   0.563   4.055   0.037 -0.0367 -0.0893  0.2304
 8126SOL    MW432238   0.527   4.134   0.042  0.4110  0.1546 -0.1223
 8127SOL     OW32239   6.254   4.046   6.396  0.1732  0.6844  0.1097
 8127SOL    HW232240   6.250   4.042   6.301  1.1642 -1.0263  0.1073
 8127SOL    HW332241   6.346   4.062   6.416  0.0831  0.4004  0.7869
 8127SOL    MW432242   6.266   4.048   6.386 -0.3688 -0.0021 -0.0668
 8128SOL     OW32243   4.221   4.541   4.422  0.1407 -0.6746  0.5580
 8128SOL    HW232244   4.141   4.537   4.474 -0.0081  0.2654  0.4199
 8128SOL    HW332245   4.222   4.458   4.374 -0.6668 -0.7684  0.6844
 8128SOL    MW432246   4.211   4.530   4.422  0.4114  0.4281  0.1158
 8129SOL     OW32247   2.742   2.682   2.850  0.1217 -0.3013 -0.1621
 8129SOL    HW232248   2.813   2.725   2.803 -0.4445 -0.3157 -1.0687
 8129SOL    HW332249   2.768   2.591   2.855  0.8485 -0.0457  0.8398
 8129SOL    MW432250   2.755   2.676   2.844 -0.2003  0.4939  0.3129
 8130SOL     OW32251   4.843   6.309   0.999  0.4735  0.2167  0.5713
 8130SOL    HW232252   4.768   6.266   1.039 -0.0727  0.8319  0.2288
 8130SOL    HW332253   4.894   6.238   0.959 -0.4718 -0.0996 -0.0910
 8130SOL    MW432254   4.840   6.294   0.999  0.1644  0.2397 -0.4606
 8131SOL     OW32255   5.203   1.408   4.922 -0.1399  0.2402 -0.2996
 8131SOL    HW232256   5.109   1.392   4.930 -0.1209  0.6066  0.8014
 8131SOL    HW332257   5.243   1.322   4.934 -0.3465 -0.0481 -1.4980
 8131SOL    MW432258   5.196   1.394   4.925  0.1901 -0.3570  0.3421
 8132SOL     OW32259   3.239   0.704   4.853  0.3246  0.0195 -0.1888
 8132SOL    HW232260   3.252   0.718   4.947 -1.9200 -2.6919  0.6690
 8132SOL    HW332261   3.328   0.695   4.818  1.2697 -2.3405  2.3728
 8132SOL    MW432262   3.253   0.704   4.861 -0.2802 -0.0384 -0.1642
 8133SOL     OW32263   6.119   2.068   3.723 -0.2993 -0.1779  0.1358
 8133SOL    HW232264   6.163   2.015   3.657  0.9343  0.7634  0.1783
 8133SOL    HW332265   6.178   2.068   3.798 -0.1737  1.3996  0.0677
 8133SOL    MW432266   6.132   2.061   3.724  0.6559 -0.5114  0.0959
 8134SOL     OW32267   4.774   5.661   4.061 -0.3800 -0.3101  0.2219
 8134SOL    HW232268   4.715   5.601   4.105  0.9629 -1.7240  0.1851
 8134SOL    HW332269   4.826   5.605   4.003  1.3671  0.7701  0.6605
 8134SOL    MW432270   4.773   5.646   4.059 -0.4748  0.1439  0.1013
 8135SOL     OW32271   4.392   2.890   5.238 -0.1209 -0.0975 -0.8971
 8135SOL    HW232272   4.353   2.973   5.209  0.4875 -0.0015 -1.4774
 8135SOL    HW332273   4.318   2.834   5.259 -0.6068  1.5002  2.2930
 8135SOL    MW432274   4.377   2.894   5.237  0.1254  0.3259 -0.0999
 8136SOL     OW32275   5.424   3.434   1.916 -0.4759  0.2687  0.5323
 8136SOL    HW232276   5.392   3.518   1.884 -0.6154  0.6112  1.5357
 8136SOL    HW332277   5.519   3.443   1.917 -0.4067 -0.1232 -0.7659
 8136SOL    MW432278   5.432   3.446   1.912  0.1455  0.7760  0.3507
 8137SOL     OW32279   4.347   6.075   0.329 -0.1462  0.2238 -0.4203
 8137SOL    HW232280   4.330   6.145   0.266 -0.6856  0.1766 -0.3333
 8137SOL    HW332281   4.432   6.040   0.303 -0.4104  0.1318 -1.2006
 8137SOL    MW432282   4.356   6.079   0.317  0.5874  0.5425 -0.0125
 8138SOL     OW32283   1.096   3.997   0.449 -0.6079 -0.1912 -0.2074
 8138SOL    HW232284   1.040   4.033   0.380 -1.8375  0.0092  0.8368
 8138SOL    HW332285   1.179   3.979   0.406 -0.6783  1.7943 -1.2979
 8138SOL    MW432286   1.099   4.000   0.434  0.5769 -0.1273  0.2268
 8139SOL     OW32287   2.282   2.423   1.552  0.2235  0.0317 -0.0546
 8139SOL    HW232288   2.310   2.361   1.485  0.1272  1.6472 -1.6471
 8139SOL    HW332289   2.286   2.373   1.634 -0.2593 -2.1872 -1.3110
 8139SOL    MW432290   2.286   2.408   1.554  0.1721  0.2580  0.4237
 8140SOL     OW32291   4.363   0.722   1.354 -0.4569  0.4564 -0.7614
 8140SOL    HW232292   4.345   0.695   1.264 -0.5595  0.5640 -0.7735
 8140SOL    HW332293   4.436   0.666   1.381 -1.3553 -0.5968 -0.4219
 8140SOL    MW432294   4.370   0.711   1.345 -0.4435 -0.2535  1.0892
 8141SOL     OW32295   4.136   4.138   3.246  0.3693  0.0479  0.3929
 8141SOL    HW232296   4.202   4.079   3.209  1.0103  1.2342 -0.4553
 8141SOL    HW332297   4.150   4.135   3.340  0.6569 -0.8258  0.3311
 8141SOL    MW432298   4.146   4.130   3.253 -0.4691 -0.4709  0.2472
 8142SOL     OW32299   2.396   6.348   1.211  0.0657 -0.1703  0.0808
 8142SOL    HW232300   2.477   6.327   1.259 -0.1091 -0.8250  0.1065
 8142SOL    HW332301   2.396   6.286   1.138 -0.8427 -0.7543  0.5676
 8142SOL    MW432302   2.407   6.337   1.208 -0.4817 -0.0585 -0.4993
 8143SOL     OW32303   6.323   3.800   4.217 -0.4904  0.5564 -0.3709
 8143SOL    HW232304   6.254   3.750   4.261  0.2714  0.4902  0.7963
 8143SOL    HW332305   6.385   3.735   4.186 -0.2818  0.6816 -0.2239
 8143SOL    MW432306   6.322   3.785   4.219  0.4808  0.3741 -0.0706
 8144SOL     OW32307   3.214   2.907   6.288 -0.2262 -0.4027  0.0478
 8144SOL    HW232308   3.292   2.963   6.285 -0.3557 -0.2182 -2.4233
 8144SOL    HW332309   3.242   2.825   6.247 -1.3483 -0.2546 -1.0795
 8144SOL    MW432310   3.228   2.904   6.282  0.0477 -0.7507 -0.4046
 8145SOL     OW32311   3.295   4.010   0.667 -0.2345 -0.9206  0.5792
 8145SOL    HW232312   3.253   3.987   0.750  1.7284 -3.4875  0.9893
 8145SOL    HW332313   3.287   4.105   0.661 -2.8997 -0.9472  2.2955
 8145SOL    MW432314   3.288   4.019   0.677 -0.4738  0.0873 -0.5889
 8146SOL     OW32315   5.206   4.811   6.330 -0.3049  0.2640 -0.4642
 8146SOL    HW232316   5.239   4.804   6.241  1.1676 -3.1487  0.1773
 8146SOL    HW332317   5.280   4.784   6.385 -1.8380  0.0450  1.6291
 8146SOL    MW432318   5.220   4.806   6.326  0.0273  0.2196  0.0034
 8147SOL     OW32319   0.374   4.449   3.515 -0.0862  0.2044  0.7145
 8147SOL    HW232320   0.378   4.494   3.600  0.9647 -0.1025  0.8451
 8147SOL    HW332321   0.352   4.517   3.452 -0.9322  0.4263  1.2312
 8147SOL    MW432322   0.372   4.464   3.518 -0.3668 -0.0259 -0.3820
 8148SOL     OW32323   1.419   5.224   5.878  0.1201  0.4848 -0.1914
 8148SOL    HW232324   1.352   5.198   5.815 -0.6741 -0.4611  0.9833
 8148SOL    HW332325   1.501   5.224   5.829  0.1011 -3.6092 -0.5094
 8148SOL    MW432326   1.421   5.221   5.863 -0.2188 -0.6326 -0.1714
 8149SOL     OW32327   6.105   4.424   4.082  0.3640  0.2026 -0.0055
 8149SOL    HW232328   6.194   4.450   4.108  0.5907 -1.6792  1.2881
 8149SOL    HW332329   6.048   4.485   4.129  0.9107 -0.4312  1.5298
 8149SOL    MW432330   6.109   4.436   4.091  0.0729 -0.2597 -0.4468
 8150SOL     OW32331   3.485   4.386   5.211 -0.0415 -0.1950  0.6987
 8150SOL    HW232332   3.563   4.339   5.184 -1.0280 -0.6986 -1.4777
 8150SOL    HW332333   3.509   4.427   5.295  2.6311 -0.0557 -0.0531
 8150SOL    MW432334   3.498   4.385   5.219  0.4403 -0.3408  0.2100
 8151SOL     OW32335   3.867   0.618   5.040 -0.1103 -0.4129 -0.2157
 8151SOL    HW232336   3.926   0.553   5.078  0.9515  1.0460  0.7088
 8151SOL    HW332337   3.821   0.655   5.115 -0.6181  0.0042 -0.7250
 8151SOL    MW432338   3.868   0.614   5.055 -0.3863  0.4119  0.6577
 8152SOL     OW32339   5.605   3.513   3.263  0.7611 -0.2363  0.1382
 8152SOL    HW232340   5.618   3.488   3.354  0.7319 -2.7276 -0.4745
 8152SOL    HW332341   5.527   3.464   3.235  0.9517  0.2277 -1.3061
 8152SOL    MW432342   5.596   3.503   3.271  0.3826  0.4795  0.1518
 8153SOL     OW32343   5.825   6.088   4.034 -0.4499 -0.4110 -0.5776
 8153SOL    HW232344   5.782   6.148   4.095 -1.1664 -1.4877  0.0095
 8153SOL    HW332345   5.907   6.132   4.012  1.0023 -0.9681  2.9936
 8153SOL    MW432346   5.830   6.102   4.039  0.0995  0.0483  0.2991
 8154SOL     OW32347   3.060   5.472   2.638 -0.2200  0.5721  0.3806
 8154SOL    HW232348   3.135   5.493   2.581  1.9151 -0.7945  2.4692
 8154SOL    HW332349   3.031   5.557   2.671  0.0695  1.1818 -0.8668
 8154SOL    MW432350   3.066   5.486   2.635 -0.5978  0.4039 -0.0973
 8155SOL     OW32351   0.067   5.147   1.768 -0.1794  0.8956 -0.0654
 8155SOL    HW232352   0.152   5.140   1.725 -0.6308  2.0584 -1.2057
 8155SOL    HW332353   0.021   5.067   1.744  1.5731 -1.1938  2.9553
 8155SOL    MW432354   0.072   5.136   1.759 -0.4084  0.0357 -0.2478
 8156SOL     OW32355   3.000   1.658   0.011 -0.2640  0.0596 -0.3423
 8156SOL    HW232356   2.919   1.654  -0.040 -1.4365 -0.6686  1.4875
 8156SOL    HW332357   3.066   1.683  -0.053 -1.6146 -0.9449 -2.2662
 8156SOL    MW432358   2.998   1.661  -0.004  0.2880  0.2319  0.4620
 8157SOL     OW32359   1.918   0.234   6.395  0.1966 -0.5217 -0.3547
 8157SOL    HW232360   1.973   0.235   6.474  0.4422 -2.2753 -0.4524
 8157SOL    HW332361   1.866   0.155   6.404 -0.9326  0.1052 -1.2105
 8157SOL    MW432362   1.919   0.224   6.406 -0.3163  0.2583  0.2426
 8158SOL     OW32363   4.326   1.819   4.709  0.3262 -0.6260  0.0657
 8158SOL    HW232364   4.344   1.836   4.802  1.0697 -1.4151  0.0760
 8158SOL    HW332365   4.272   1.741   4.709  2.0137 -1.8509 -0.2279
 8158SOL    MW432366   4.321   1.811   4.721 -0.5728  0.4807  0.5582
 8159SOL     OW32367   4.871   0.030   5.636  0.6964  0.3131  0.3476
 8159SOL    HW232368   4.776   0.039   5.648  0.9793  1.3323  2.3346
 8159SOL    HW332369   4.906   0.032   5.725  2.6024 -0.0047 -0.3535
 8159SOL    MW432370   4.863   0.031   5.650  0.2453 -0.2233 -0.8390
 8160SOL     OW32371   4.424   3.511   0.041 -0.6298 -0.2180 -0.5378
 8160SOL    HW232372   4.413   3.587   0.098 -1.0004  1.0295 -2.2219
 8160SOL    HW332373   4.345   3.458   0.055 -0.9291  0.2981 -0.2532
 8160SOL    MW432374   4.412   3.514   0.051 -0.2148  0.1974  0.1729
 8161SOL     OW32375   6.400   3.321   5.394  0.5658 -0.0813 -0.4226
 8161SOL    HW232376   6.354   3.239   5.413 -0.8665  0.5852 -0.8706
 8161SOL    HW332377   6.473   3.322   5.456  1.2123 -2.1494 -1.0897
 8161SOL    MW432378   6.403   3.311   5.405  0.1760 -0.7055  0.7376
 8162SOL     OW32379   1.458   2.626   4.247 -0.0023 -0.0989 -0.9028
 8162SOL    HW232380   1.518   2.629   4.173 -2.1120  1.8622 -2.6944
 8162SOL    HW332381   1.511   2.651   4.323  1.6185  0.7495 -2.2626
 8162SOL    MW432382   1.473   2.630   4.248  0.2582  0.0384 -0.2107
 8163SOL     OW32383   3.754   2.129   3.362 -0.3694  0.1399 -0.3736
 8163SOL    HW232384   3.785   2.044   3.332 -0.6353 -0.1240  0.0824
 8163SOL    HW332385   3.712   2.111   3.446 -0.7864  0.6561 -0.4622
 8163SOL    MW432386   3.752   2.115   3.369  0.3142 -0.5371  0.8329
 8164SOL     OW32387   5.652   4.883   2.520 -0.1996 -0.0772 -0.1870
 8164SOL    HW232388   5.676   4.804   2.568  2.9782  0.3475 -0.8948
 8164SOL    HW332389   5.571   4.912   2.563  0.9664 -1.2051  3.1504
 8164SOL    MW432390   5.644   4.876   2.532 -0.0727 -0.1064 -0.6279
 8165SOL     OW32391   4.072   3.187   1.343  0.0459  0.1136  0.2709
 8165SOL    HW232392   4.090   3.198   1.250 -0.7035 -1.0522 -0.0405
 8165SOL    HW332393   4.072   3.276   1.379  0.9752  0.5211 -0.7086
 8165SOL    MW432394   4.074   3.200   1.336  0.2530 -0.2165 -0.6969
 8166SOL     OW32395   6.415   6.050   5.686 -0.1379  0.5436 -0.0289
 8166SOL    HW232396   6.491   6.076   5.737  0.6822  0.4245 -1.1634
 8166SOL    HW332397   6.442   5.969   5.642 -0.7263  0.7867 -0.8665
 8166SOL    MW432398   6.428   6.042   5.687  0.4411  0.2382  0.0617
 8167SOL     OW32399   4.926   3.561   1.831  0.2971 -0.2073  0.3761
 8167SOL    HW232400   4.949   3.490   1.891  1.1687 -0.3130 -0.0639
 8167SOL    HW332401   4.953   3.530   1.745  0.4258  0.5357  0.1375
 8167SOL    MW432402   4.933   3.548   1.828 -0.3776  0.7541  0.1217
 8168SOL     OW32403   0.943   2.945   0.897 -0.2569 -0.1162 -0.4541
 8168SOL    HW232404   0.964   2.919   0.808 -3.3853  0.1546 -1.4049
 8168SOL    HW332405   0.886   2.875   0.930 -2.0762  1.4806 -0.0419
 8168SOL    MW432406   0.938   2.933   0.890 -0.2830 -0.1022  0.3255
 8169SOL     OW32407   0.945   0.784   1.073 -0.6472  0.1986 -0.0213
 8169SOL    HW232408   0.947   0.857   1.134  3.1433  1.4419 -1.3837
 8169SOL    HW332409   0.920   0.822   0.989 -2.1160 -0.7991 -0.0801
 8169SOL    MW432410   0.942   0.798   1.070 -0.2226 -0.0945 -0.0948
 8170SOL     OW32411   2.633   1.132   4.850 -0.1781 -0.4223 -0.2882
 8170SOL    HW232412   2.608   1.083   4.771 -1.2985  1.4953 -1.1904
 8170SOL    HW332413   2.714   1.176   4.826 -0.0414 -0.5420 -0.0489
 8170SOL    MW432414   2.640   1.131   4.836  0.1997  0.1563  0.6032
 8171SOL     OW32415   2.464   1.217   3.346  0.3730 -0.4953  0.3178
 8171SOL    HW232416   2.506   1.167   3.276  1.5821  2.5802 -1.3229
 8171SOL    HW332417   2.371   1.218   3.323  0.1302 -2.7329  0.9692
 8171SOL    MW432418   2.457   1.210   3.334 -0.4157 -0.1672 -0.2936
 8172SOL     OW32419   1.792   0.389   0.245  0.8884 -0.8123 -0.0803
 8172SOL    HW232420   1.847   0.406   0.168  0.3831 -1.5752 -0.6288
 8172SOL    HW332421   1.774   0.295   0.240  2.1614 -1.2039  1.8648
 8172SOL    MW432422   1.797   0.379   0.234  0.4475 -0.1906  0.0908
 8173SOL     OW32423   2.929   2.323   4.877 -0.2220  0.1742  0.4003
 8173SOL    HW232424   2.848   2.288   4.841 -1.1572  1.5890  1.0470
 8173SOL    HW332425   2.973   2.247   4.916 -1.3922 -0.5630  0.3336
 8173SOL    MW432426   2.924   2.308   4.878 -0.1695 -0.7969  0.1235
 8174SOL     OW32427   2.909   1.140   1.440 -0.3964  0.2385  0.2404
 8174SOL    HW232428   2.848   1.067   1.440 -1.3819  1.0300  0.6458
 8174SOL    HW332429   2.996   1.100   1.435 -0.9139 -0.9419  0.5210
 8174SOL    MW432430   2.913   1.125   1.439  0.6625  0.8163  0.0935
 8175SOL     OW32431   4.520   4.267   0.392  0.4821  0.0843  0.4940
 8175SOL    HW232432   4.471   4.204   0.445  1.4672 -1.4034 -0.2988
 8175SOL    HW332433   4.472   4.349   0.404 -0.9160 -0.8082  1.4814
 8175SOL    MW432434   4.507   4.269   0.401 -0.6159 -0.2151  0.0828
 8176SOL     OW32435   4.991   0.467   1.159  0.4631  0.1755  0.1810
 8176SOL    HW232436   5.007   0.507   1.244 -1.2194  1.4340 -0.0332
 8176SOL    HW332437   4.993   0.541   1.098  0.6834 -0.5763 -0.7415
 8176SOL    MW432438   4.994   0.482   1.162 -0.1816 -0.2194  0.3491
 8177SOL     OW32439   2.898   5.992   1.716  0.3302 -0.0011  0.1297
 8177SOL    HW232440   2.841   6.062   1.748  2.7225  1.4383  1.5733
 8177SOL    HW332441   2.854   5.911   1.743 -1.1570  1.0105  0.8933
 8177SOL    MW432442   2.884   5.991   1.724 -0.5758 -0.2410 -0.3361
 8178SOL     OW32443   4.741   0.064   0.807 -0.2466  0.4944  0.1028
 8178SOL    HW232444   4.778  -0.007   0.859 -0.2165  0.2121 -0.3035
 8178SOL    HW332445   4.775   0.144   0.849  2.1111  0.2442 -1.1428
 8178SOL    MW432446   4.751   0.065   0.819 -0.0883  0.1041  0.5491
 8179SOL     OW32447   0.498   5.310   0.174 -0.4469  0.3446  0.0937
 8179SOL    HW232448   0.482   5.381   0.112  0.6262  0.4066 -0.1167
 8179SOL    HW332449   0.578   5.268   0.144  0.4154  0.7180  1.7274
 8179SOL    MW432450   0.506   5.314   0.162 -0.1785  0.1270 -0.2358
 8180SOL     OW32451   1.021   1.910   1.855  0.0873 -0.6767 -0.7772
 8180SOL    HW232452   0.970   1.876   1.782 -0.9496 -1.2945  0.2099
 8180SOL    HW332453   0.960   1.912   1.929  1.5406 -1.6681  0.5150
 8180SOL    MW432454   1.006   1.906   1.855  0.4178  0.7123  0.0711
 8181SOL     OW32455   2.861   5.380   2.985 -0.2005 -0.2034 -0.2116
 8181SOL    HW232456   2.892   5.290   2.994 -1.6679 -0.8811 -1.5732
 8181SOL    HW332457   2.775   5.381   3.027 -1.2797 -0.1176 -2.2607
 8181SOL    MW432458   2.854   5.368   2.991  0.3132 -0.1700  0.2525
 8182SOL     OW32459   2.058   1.432   5.830  0.2387  0.5132 -0.0478
 8182SOL    HW232460   2.105   1.422   5.913  0.3800 -0.3529 -0.2151
 8182SOL    HW332461   2.069   1.524   5.807  0.1454  0.7768  0.9248
 8182SOL    MW432462   2.066   1.443   5.838 -0.0403 -0.0008  0.1445
 8183SOL     OW32463   5.225   5.711   0.904  0.0509 -0.0184  0.7654
 8183SOL    HW232464   5.310   5.676   0.875  1.2776  2.6925  0.8469
 8183SOL    HW332465   5.161   5.661   0.853  1.8119 -0.2733 -1.3638
 8183SOL    MW432466   5.228   5.700   0.893  0.2903  0.1587 -0.1301
 8184SOL     OW32467   2.858   1.942   4.337 -0.1920  0.9365  0.0443
 8184SOL    HW232468   2.806   1.997   4.279 -0.3108  0.7901  0.0100
 8184SOL    HW332469   2.829   1.966   4.426  0.2156  1.3840  0.0547
 8184SOL    MW432470   2.847   1.952   4.341 -0.3546 -0.6019 -0.4805
 8185SOL     OW32471   2.037   1.481   3.144 -0.2090 -0.5215  0.1133
 8185SOL    HW232472   2.061   1.563   3.101 -1.4720  0.2845  0.8812
 8185SOL    HW332473   2.075   1.486   3.231  0.2102 -1.0322 -0.0311
 8185SOL    MW432474   2.045   1.492   3.149  0.2919  0.2508 -0.0097
 8186SOL     OW32475   3.254   1.841   5.887  0.6205 -0.1559 -0.0735
 8186SOL    HW232476   3.271   1.889   5.967 -1.4608  0.7807 -0.1267
 8186SOL    HW332477   3.175   1.790   5.906 -2.1988  2.8479 -2.4773
 8186SOL    MW432478   3.245   1.841   5.900 -0.5231 -0.7224 -0.1497
 8187SOL     OW32479   4.950   1.191   5.633  0.1968 -0.1668  0.1880
 8187SOL    HW232480   4.938   1.275   5.678  0.7782  0.0490 -0.0511
 8187SOL    HW332481   4.928   1.209   5.542  1.0684 -0.0770 -0.0119
 8187SOL    MW432482   4.946   1.205   5.627 -0.0269  0.0416  0.1001
 8188SOL     OW32483   2.681   0.202   0.339  0.1614  0.7483  0.0196
 8188SOL    HW232484   2.770   0.193   0.373  0.2409  1.1556 -0.0752
 8188SOL    HW332485   2.693   0.211   0.244 -0.1955 -3.4191 -0.6179
 8188SOL    MW432486   2.694   0.202   0.331  0.6072  0.5519  0.5939
 8189SOL     OW32487   0.488   2.521   4.336 -0.1658 -0.2487 -0.1152
 8189SOL    HW232488   0.562   2.512   4.395 -0.7860 -0.4212  0.6510
 8189SOL    HW332489   0.527   2.518   4.248  1.0870  2.6203  0.2221
 8189SOL    MW432490   0.503   2.519   4.332  0.2385  0.3675  0.3308
 8190SOL     OW32491   2.868   3.291   5.433 -0.1083 -0.6146 -0.1077
 8190SOL    HW232492   2.878   3.206   5.476  0.2911 -1.4123 -1.6926
 8190SOL    HW332493   2.852   3.353   5.504  0.2122 -1.9170  1.1298
 8190SOL    MW432494   2.867   3.288   5.448 -0.7700 -0.2895 -0.2002
 8191SOL     OW32495   2.412   3.794   2.942  0.0078 -0.3745 -0.3905
 8191SOL    HW232496   2.428   3.866   2.882 -1.3882 -0.5653 -1.0358
 8191SOL    HW332497   2.345   3.826   3.002 -0.7476 -1.1413 -0.7831
 8191SOL    MW432498   2.405   3.807   2.942 -0.1071  0.0579  0.3416
 8192SOL     OW32499   3.061   5.289  -0.012  0.0131  0.4941  0.0875
 8192SOL    HW232500   3.034   5.222  -0.075 -1.9418  0.2171  1.1371
 8192SOL    HW332501   3.016   5.368  -0.042 -1.0514  0.3237  1.1843
 8192SOL    MW432502   3.052   5.291  -0.025 -0.5371  0.1957  0.0195
 8193SOL     OW32503   4.429   0.722   3.550  0.0421  0.0275  0.2716
 8193SOL    HW232504   4.514   0.690   3.521 -0.3584  0.3380 -1.3556
 8193SOL    HW332505   4.368   0.652   3.525 -0.3090  0.2635  0.4620
 8193SOL    MW432506   4.432   0.708   3.543  0.0837 -0.1119  0.0372
 8194SOL     OW32507   5.953   0.256   3.471 -0.1039 -0.0919 -0.1887
 8194SOL    HW232508   5.947   0.167   3.438  2.4840 -0.5420  0.3212
 8194SOL    HW332509   5.863   0.288   3.471 -0.9763 -2.3389 -1.3192
 8194SOL    MW432510   5.941   0.249   3.467 -0.0852 -0.0664 -0.6724
 8195SOL     OW32511   2.032   2.125   2.482 -0.3823 -0.4857 -0.0990
 8195SOL    HW232512   1.952   2.153   2.527 -0.2596  1.2596 -0.9110
 8195SOL    HW332513   2.016   2.033   2.461 -2.1285 -0.2105 -0.1313
 8195SOL    MW432514   2.019   2.117   2.486 -0.1627 -0.0579  0.3043
 8196SOL     OW32515   4.962   0.889   2.765  0.4207  0.2489 -0.3411
 8196SOL    HW232516   4.906   0.952   2.720 -1.0675 -1.7319 -1.4094
 8196SOL    HW332517   4.913   0.864   2.842  1.2854  0.7967  0.4136
 8196SOL    MW432518   4.948   0.894   2.769  0.4155  0.1559 -0.0099
 8197SOL     OW32519   2.863   4.776   1.216 -0.3834  0.5278 -0.0983
 8197SOL    HW232520   2.775   4.772   1.253 -0.0143  1.6061  0.9771
 8197SOL    HW332521   2.921   4.758   1.290  0.3188  0.0458 -0.7454
 8197SOL    MW432522   2.859   4.773   1.231 -0.2392  0.5221 -0.1621
 8198SOL     OW32523   2.209   0.973   2.785 -0.4046 -0.0477  0.4298
 8198SOL    HW232524   2.302   0.971   2.763 -0.4201  1.3927  0.1178
 8198SOL    HW332525   2.168   0.917   2.720  0.2289 -0.5739  0.4741
 8198SOL    MW432526   2.216   0.966   2.773 -0.3815 -0.2089  0.7984
 8199SOL     OW32527   0.960   4.196   4.306 -0.0090  0.4671 -0.4170
 8199SOL    HW232528   0.925   4.257   4.241 -0.0642  1.2527  0.3371
 8199SOL    HW332529   1.055   4.212   4.305 -0.0040  0.4407 -0.3446
 8199SOL    MW432530   0.968   4.206   4.297 -0.2792  0.4243  0.0952
 8200SOL     OW32531   1.653   6.209   0.099 -0.1666 -0.1888 -0.4266
 8200SOL    HW232532   1.696   6.131   0.062 -1.0691 -0.5363 -0.7682
 8200SOL    HW332533   1.701   6.227   0.180 -0.1566 -1.3147 -0.1657
 8200SOL    MW432534   1.665   6.201   0.105 -0.4018 -0.2876  0.6679
 8201SOL     OW32535   2.472   4.542   1.146  0.1790  0.4145  0.3794
 8201SOL    HW232536   2.514   4.576   1.067  1.3266 -0.1828  0.7088
 8201SOL    HW332537   2.517   4.588   1.218 -0.6007  0.6810  0.7061
 8201SOL    MW432538   2.483   4.553   1.145 -0.1384 -0.1154  0.2638
 8202SOL     OW32539   2.958   5.859   5.971  0.4109 -0.3719 -0.8222
 8202SOL    HW232540   3.046   5.862   6.009 -0.0956 -0.7212  0.4009
 8202SOL    HW332541   2.950   5.941   5.922  1.3458 -0.2604 -0.8044
 8202SOL    MW432542   2.969   5.870   5.969 -0.3772 -0.1817  0.6745
 8203SOL     OW32543   5.959   1.581   2.071  0.1677  0.3516 -0.3581
 8203SOL    HW232544   5.976   1.553   2.161  0.3926  0.7743 -0.2685
 8203SOL    HW332545   5.866   1.565   2.058 -0.0316  1.0423  0.2160
 8203SOL    MW432546   5.949   1.575   2.081 -0.5804  0.0395 -0.3994
 8204SOL     OW32547   2.811   4.470   1.731  0.1106  0.6181 -0.2801
 8204SOL    HW232548   2.805   4.376   1.714 -0.1023  0.8861 -1.8638
 8204SOL    HW332549   2.902   4.485   1.755 -0.0664 -0.1145  0.9161
 8204SOL    MW432550   2.822   4.460   1.732 -0.1078  0.6040 -0.2384
 8205SOL     OW32551   1.057   4.083   1.825 -0.1011  0.2950 -0.1466
 8205SOL    HW232552   0.975   4.124   1.853  0.2897  1.3048 -0.4546
 8205SOL    HW332553   1.062   4.100   1.732 -1.0521 -2.4659 -0.8097
 8205SOL    MW432554   1.047   4.090   1.817 -0.3450 -0.0774 -0.0795
 8206SOL     OW32555   5.116   1.141   3.331 -1.0697  0.3141 -0.2323
 8206SOL    HW232556   5.051   1.211   3.331 -0.4354  0.9110 -0.4584
 8206SOL    HW332557   5.151   1.140   3.242 -0.5162  0.2324 -0.0188
 8206SOL    MW432558   5.112   1.150   3.319  0.3489  0.0010  0.0314
 8207SOL     OW32559   4.204   5.660   4.385 -0.5630 -0.3270 -0.1190
 8207SOL    HW232560   4.260   5.646   4.308 -0.0052  0.9863  0.0190
 8207SOL    HW332561   4.211   5.578   4.434  2.4376  0.2434  0.6269
 8207SOL    MW432562   4.212   5.647   4.381 -0.1823 -0.2220 -0.2551
 8208SOL     OW32563   2.767   3.418   2.745 -0.3996  0.6066  0.4107
 8208SOL    HW232564   2.798   3.504   2.773  0.2288  0.0722  1.4340
 8208SOL    HW332565   2.802   3.357   2.811 -0.9869 -0.4090 -0.1826
 8208SOL    MW432566   2.775   3.421   2.758 -0.5945  0.0601 -0.9316
 8209SOL     OW32567   2.313   6.061   2.778 -0.4521  0.0206 -0.0389
 8209SOL    HW232568   2.268   6.035   2.698 -1.4148 -0.1236  0.5327
 8209SOL    HW332569   2.327   6.155   2.768  0.9006 -0.2642 -1.0701
 8209SOL    MW432570   2.309   6.070   2.766 -0.5351 -0.5975 -0.2812
 8210SOL     OW32571   4.985   0.820   1.641 -0.3907 -0.3055 -0.3707
 8210SOL    HW232572   5.068   0.781   1.670 -0.9961  0.1979  2.3213
 8210SOL    HW332573   5.010   0.878   1.569  1.7258  0.2768  0.7438
 8210SOL    MW432574   4.999   0.822   1.635  0.3897 -0.2112  0.2371
 8211SOL     OW32575   5.774   0.470   4.066  0.4756 -0.0930  0.6784
 8211SOL    HW232576   5.851   0.473   4.122  2.2687 -0.1245 -1.6259
 8211SOL    HW332577   5.764   0.559   4.034  0.4740 -0.3846 -0.1594
 8211SOL    MW432578   5.783   0.482   4.069 -0.2636  0.5964  0.0704
 8212SOL     OW32579   4.482   1.596   6.033  0.4112 -0.3635  0.7017
 8212SOL    HW232580   4.419   1.641   6.089  1.1270 -0.7039  1.8190
 8212SOL    HW332581   4.523   1.531   6.091  0.1547 -1.7247 -0.5888
 8212SOL    MW432582   4.479   1.593   6.048 -0.0915  0.5820  0.1785
 8213SOL     OW32583   3.540   4.514   5.894  0.2864 -0.0879  0.1559
 8213SOL    HW232584   3.505   4.546   5.977  2.4072  2.0926  0.3323
 8213SOL    HW332585   3.481   4.550   5.828 -0.9885 -1.2237  0.6287
 8213SOL    MW432586   3.527   4.523   5.896  0.2743 -0.8116  0.4963
 8214SOL     OW32587   5.389   6.421   6.398 -0.3880  0.3966  0.1498
 8214SOL    HW232588   5.316   6.391   6.344  1.7602 -0.5729 -2.3967
 8214SOL    HW332589   5.363   6.398   6.488 -4.1608  2.1958 -0.2780
 8214SOL    MW432590   5.376   6.414   6.403 -0.4619  0.5646 -0.1460
 8215SOL     OW32591   4.801   1.760   4.866  0.1861  0.1897  0.2503
 8215SOL    HW232592   4.821   1.835   4.811  0.9090  0.6831  1.1561
 8215SOL    HW332593   4.720   1.724   4.830  0.4090  0.7578 -0.8473
 8215SOL    MW432594   4.793   1.765   4.854  0.4776  0.0626 -0.7620
 8216SOL     OW32595   1.625   1.727   1.629 -0.5432 -0.0110  0.4729
 8216SOL    HW232596   1.576   1.802   1.595  0.2530  0.3893  0.1686
 8216SOL    HW332597   1.621   1.662   1.558  1.5408  1.0119 -0.6912
 8216SOL    MW432598   1.618   1.728   1.615 -0.0302 -0.0682 -0.0735
 8217SOL     OW32599   0.978   2.514   3.185  0.1134  0.4102  0.7099
 8217SOL    HW232600   0.930   2.520   3.268  0.0947  2.1306  0.6028
 8217SOL    HW332601   0.987   2.604   3.156  1.5063 -0.0485 -0.3816
 8217SOL    MW432602   0.973   2.527   3.192 -0.4171  0.3014  0.6489
 8218SOL     OW32603   5.721   1.430   0.450  0.7318  0.1459  0.2114
 8218SOL    HW232604   5.676   1.489   0.511  2.4652  1.1679  0.5547
 8218SOL    HW332605   5.684   1.344   0.469 -0.3939  0.7947  1.1169
 8218SOL    MW432606   5.710   1.427   0.461  0.1594  0.2197 -0.7749
 8219SOL     OW32607   0.454   2.096   2.516 -0.7038  0.5984 -0.2309
 8219SOL    HW232608   0.430   2.028   2.454 -0.7722 -1.1305  1.5972
 8219SOL    HW332609   0.549   2.102   2.509 -0.6624  0.0563 -0.1724
 8219SOL    MW432610   0.464   2.088   2.507  0.2882 -0.5875  0.1228
 8220SOL     OW32611   0.108   5.812   1.789 -0.4109  0.2931  0.4938
 8220SOL    HW232612   0.048   5.883   1.765 -1.2202 -0.3734  0.5203
 8220SOL    HW332613   0.144   5.783   1.706 -1.9364 -0.8816  0.1952
 8220SOL    MW432614   0.105   5.818   1.775  0.1288  0.8584 -0.2390
 8221SOL     OW32615   5.725   4.632   3.200 -0.2789  0.3732 -0.8916
 8221SOL    HW232616   5.749   4.578   3.275  0.8165  0.6710 -1.0131
 8221SOL    HW332617   5.635   4.605   3.179 -0.3322 -0.2350  0.0533
 8221SOL    MW432618   5.716   4.621   3.207  0.2936 -0.0763 -0.2532
 8222SOL     OW32619   1.907   5.114   2.663 -0.3672 -0.0534 -0.1524
 8222SOL    HW232620   1.825   5.142   2.623 -1.1632 -0.6299  1.0303
 8222SOL    HW332621   1.975   5.158   2.612 -1.3276 -0.6734 -2.0709
 8222SOL    MW432622   1.905   5.124   2.651 -0.0449  0.2134  0.1071
 8223SOL     OW32623   3.878   1.564   3.635  0.4357  0.2486  0.3405
 8223SOL    HW232624   3.800   1.555   3.690 -1.2055 -2.7993 -2.1315
 8223SOL    HW332625   3.939   1.499   3.669  0.8385  0.7894  0.6598
 8223SOL    MW432626   3.876   1.554   3.647  0.0321  0.1988  0.4534
 8224SOL     OW32627   5.138   5.945   0.196 -0.1401  0.1789  0.2146
 8224SOL    HW232628   5.049   5.972   0.219 -0.3305  1.7622 -2.0778
 8224SOL    HW332629   5.127   5.859   0.155 -0.6354  0.4609 -0.2503
 8224SOL    MW432630   5.125   5.937   0.194 -0.4316 -0.1300 -0.4072
 8225SOL     OW32631   0.901   4.577   3.107  0.3146  0.0859 -0.5773
 8225SOL    HW232632   0.833   4.641   3.128 -2.8274 -2.4536 -2.1441
 8225SOL    HW332633   0.918   4.532   3.190  1.3276  1.7904  0.1711
 8225SOL    MW432634   0.894   4.579   3.121  0.3426 -0.2966 -0.2636
 8226SOL     OW32635   4.047   5.120   5.181  0.6807  0.5662  0.5184
 8226SOL    HW232636   4.072   5.079   5.264 -0.5297 -3.6513 -0.9241
 8226SOL    HW332637   4.129   5.130   5.133  0.9334 -2.9326 -0.0430
 8226SOL    MW432638   4.061   5.116   5.186 -0.3701 -0.1838 -0.0340
 8227SOL     OW32639   3.771   2.571   2.918  0.2842  0.2988 -0.0954
 8227SOL    HW232640   3.770   2.587   2.824  1.9453  0.2311 -0.1631
 8227SOL    HW332641   3.680   2.581   2.946 -0.1211  0.9914 -1.5871
 8227SOL    MW432642   3.759   2.574   2.909  0.3781  0.1441 -0.0547
 8228SOL     OW32643   4.953   4.111   2.714 -0.1513  0.1337  0.1848
 8228SOL    HW232644   4.978   4.055   2.788 -0.1577  0.0409  0.1171
 8228SOL    HW332645   5.014   4.184   2.718  0.2854 -0.2070 -0.1176
 8228SOL    MW432646   4.964   4.113   2.724 -0.4156 -0.2570  0.1154
 8229SOL     OW32647   0.313   2.296   5.678  0.0216  0.0561 -0.4660
 8229SOL    HW232648   0.349   2.238   5.745 -0.4434 -0.2719 -0.4892
 8229SOL    HW332649   0.375   2.291   5.605  0.8450  0.8871  0.1665
 8229SOL    MW432650   0.326   2.288   5.677  0.3695  0.0209 -0.4175
 8230SOL     OW32651   2.607   4.925   2.777  0.1429 -0.0464 -0.0540
 8230SOL    HW232652   2.540   4.899   2.713 -0.4737  1.2683  0.0206
 8230SOL    HW332653   2.562   4.921   2.861  1.2177 -2.7091  0.4795
 8230SOL    MW432654   2.592   4.921   2.780  0.0388  0.0741  0.4844
 8231SOL     OW32655   1.908   4.074   4.662  0.3029 -1.0102  0.8158
 8231SOL    HW232656   1.862   4.144   4.707 -1.1922 -0.6228 -1.1875
 8231SOL    HW332657   1.972   4.119   4.607 -0.4715 -1.1957 -0.2654
 8231SOL    MW432658   1.911   4.089   4.661  0.3353 -0.1227  0.0043
 8232SOL     OW32659   3.482   1.556   2.968  0.4362 -0.7473 -0.5621
 8232SOL    HW232660   3.480   1.651   2.968  0.2791 -0.7429  0.3112
 8232SOL    HW332661   3.561   1.533   2.919  0.2801 -0.1866 -1.0913
 8232SOL    MW432662   3.492   1.565   2.961  0.1151 -0.0965 -0.3712
 8233SOL     OW32663   4.758   5.475   4.929 -0.2117 -0.2407 -0.4786
 8233SOL    HW232664   4.784   5.513   5.013 -1.4818  0.8174 -0.5159
 8233SOL    HW332665   4.665   5.457   4.939 -0.4082 -0.0141 -1.6727
 8233SOL    MW432666   4.749   5.478   4.941 -0.4452 -0.2280 -0.2668
 8234SOL     OW32667   0.705   5.970   0.791  0.1494  0.0308 -0.0337
 8234SOL    HW232668   0.626   6.017   0.815  1.2449  3.3295 -2.3019
 8234SOL    HW332669   0.772   6.005   0.850  0.5159 -0.6967 -0.0007
 8234SOL    MW432670   0.704   5.981   0.802 -0.3785 -0.2961  0.3335
 8235SOL     OW32671   2.420   2.057  -0.018 -0.1390  0.4652 -0.1855
 8235SOL    HW232672   2.464   1.972  -0.008 -1.3852  0.0576  3.2768
 8235SOL    HW332673   2.355   2.042  -0.087  0.1051 -1.2045 -0.1079
 8235SOL    MW432674   2.418   2.043  -0.026  0.2636 -0.1639 -0.4330
 8236SOL     OW32675   3.465   0.120   4.668  0.8727 -0.4955  0.2938
 8236SOL    HW232676   3.454   0.085   4.756 -1.2451 -4.3924 -1.2730
 8236SOL    HW332677   3.418   0.203   4.669  0.8489 -0.4744  2.7492
 8236SOL    MW432678   3.458   0.127   4.680  0.3799  0.5777 -0.3286
 8237SOL     OW32679   1.928   3.920   4.978 -0.4884 -0.7900 -0.4289
 8237SOL    HW232680   1.962   3.853   4.918  1.0854  0.7638 -1.3818
 8237SOL    HW332681   2.004   3.974   4.998 -1.7493  0.8337  0.1318
 8237SOL    MW432682   1.942   3.918   4.972  0.2936 -0.0274 -0.6052
 8238SOL     OW32683   0.965   3.829   3.125  0.1809 -0.1337  0.2476
 8238SOL    HW232684   0.924   3.847   3.209  0.7411 -2.3364  1.0577
 8238SOL    HW332685   0.897   3.848   3.060 -0.2333  1.6665  1.1463
 8238SOL    MW432686   0.951   3.834   3.127 -0.3778  0.6421  0.7353
 8239SOL     OW32687   5.287   0.098   3.826 -0.3579 -0.3356  0.1769
 8239SOL    HW232688   5.251   0.143   3.902  1.4016 -1.0773  1.5018
 8239SOL    HW332689   5.322   0.168   3.771 -1.3023  0.1754  0.2014
 8239SOL    MW432690   5.287   0.113   3.828  0.1871 -0.1117  0.0664
 8240SOL     OW32691   4.806   5.167   6.275  0.0345 -0.0400 -0.3200
 8240SOL    HW232692   4.875   5.116   6.234 -0.0776  0.7768 -1.5703
 8240SOL    HW332693   4.850   5.217   6.343  0.6244  0.2329 -0.8922
 8240SOL    MW432694   4.821   5.167   6.278  0.0964  0.5612  0.2408
 8241SOL     OW32695   5.811   0.771   6.172 -0.4665  0.1262  0.3619
 8241SOL    HW232696   5.880   0.761   6.106 -1.0601 -0.4285 -0.1789
 8241SOL    HW332697   5.732   0.789   6.122 -0.9069 -0.2134  0.9290
 8241SOL    MW432698   5.810   0.772   6.157 -0.2378  0.8841 -0.6088
 8242SOL     OW32699   2.396   1.521   3.033  0.6272  0.0460 -0.3857
 8242SOL    HW232700   2.327   1.458   3.012  0.3800  0.4509 -0.8059
 8242SOL    HW332701   2.412   1.509   3.126 -2.3688  2.1900  0.5648
 8242SOL    MW432702   2.389   1.511   3.042  0.4359 -0.2645 -0.0384
 8243SOL     OW32703   6.344   0.639   3.958 -0.1257 -0.4114  0.6924
 8243SOL    HW232704   6.396   0.719   3.957 -2.9185  1.7737 -3.8725
 8243SOL    HW332705   6.390   0.580   3.898  0.3117 -1.1025  1.6720
 8243SOL    MW432706   6.357   0.642   3.950 -0.1258  0.7855  0.0286
 8244SOL     OW32707   1.419   2.812   0.170  0.1886  0.1788  0.7474
 8244SOL    HW232708   1.335   2.826   0.127  0.8856 -0.2429 -0.8471
 8244SOL    HW332709   1.446   2.899   0.199  0.6836  0.9089 -1.6811
 8244SOL    MW432710   1.412   2.826   0.168  0.1962  0.3255 -0.2104
 8245SOL     OW32711   5.609   2.371   2.421 -0.4405 -0.8185  0.1025
 8245SOL    HW232712   5.691   2.414   2.446  0.3046 -2.8795  1.4889
 8245SOL    HW332713   5.629   2.330   2.337 -0.5552 -0.0267 -0.3134
 8245SOL    MW432714   5.623   2.371   2.413 -0.4081  0.4624 -0.0655
 8246SOL     OW32715   0.612   4.552   5.990 -0.2274  0.0631  0.4512
 8246SOL    HW232716   0.636   4.508   5.908 -0.7320  0.2436  0.2033
 8246SOL    HW332717   0.544   4.496   6.027  1.2223 -0.9951  1.6548
 8246SOL    MW432718   0.606   4.539   5.984 -0.5532  0.4244  0.7295
 8247SOL     OW32719   4.141   2.773   5.264  0.3698  0.5231  0.1883
 8247SOL    HW232720   4.147   2.760   5.170 -0.0998  0.6219  0.1445
 8247SOL    HW332721   4.083   2.848   5.275 -0.4729 -0.1666  0.5814
 8247SOL    MW432722   4.135   2.781   5.253 -0.3191 -0.0235 -0.1200
 8248SOL     OW32723   4.332   0.349   2.038  0.5738 -0.3442  0.7635
 8248SOL    HW232724   4.418   0.366   1.999  0.5922  1.1228  1.3780
 8248SOL    HW332725   4.270   0.377   1.971  0.5903  0.0853  0.9256
 8248SOL    MW432726   4.335   0.355   2.024  0.3947  0.1997 -0.4365
 8249SOL     OW32727   1.637   0.308   4.501  0.1580 -0.3914  0.2086
 8249SOL    HW232728   1.658   0.280   4.412 -5.1780 -1.3467 -1.0884
 8249SOL    HW332729   1.593   0.232   4.540 -2.0347  1.5730  1.8077
 8249SOL    MW432730   1.634   0.294   4.494  0.2044 -0.2961 -0.5454
 8250SOL     OW32731   5.210   5.433   5.297 -0.3129  0.1744 -0.2925
 8250SOL    HW232732   5.163   5.352   5.316  0.5734 -0.5251 -0.9656
 8250SOL    HW332733   5.192   5.450   5.205  0.1535  0.2852 -0.3669
 8250SOL    MW432734   5.202   5.424   5.288  0.1999  0.4669 -0.1959
 8251SOL     OW32735   0.095   0.100   0.784 -0.0349 -0.2967  0.3087
 8251SOL    HW232736   0.190   0.110   0.791 -0.1338  0.6703  0.4950
 8251SOL    HW332737   0.071   0.039   0.853  0.5349 -1.1653 -0.2449
 8251SOL    MW432738   0.104   0.094   0.794  0.2366  0.5015 -0.2054
 8252SOL     OW32739   4.886   1.216   0.873  0.3420 -0.1539  0.9099
 8252SOL    HW232740   4.817   1.156   0.844  0.1631  0.1859  0.6251
 8252SOL    HW332741   4.967   1.169   0.855  0.2302 -0.0369  0.0360
 8252SOL    MW432742   4.887   1.202   0.867  0.1628 -0.7513 -0.4808
 8253SOL     OW32743   2.607   4.316   1.403  0.4731  0.1431  0.4841
 8253SOL    HW232744   2.548   4.378   1.447  0.5621  0.7159 -0.1933
 8253SOL    HW332745   2.548   4.261   1.351  0.5784  1.4605 -1.1239
 8253SOL    MW432746   2.591   4.317   1.402  0.1893  0.0222  0.5828
 8254SOL     OW32747   4.742   3.795   3.125  0.1923  0.4615  0.1903
 8254SOL    HW232748   4.680   3.775   3.055 -0.0663  2.2716 -0.1448
 8254SOL    HW332749   4.700   3.863   3.176  2.0116  1.9821 -0.2320
 8254SOL    MW432750   4.728   3.801   3.123 -0.3218 -0.6005 -0.2774
 8255SOL     OW32751   3.838   6.387   0.692 -0.1323  0.2767 -0.7103
 8255SOL    HW232752   3.792   6.435   0.623 -0.6896  2.3278  0.9901
 8255SOL    HW332753   3.822   6.437   0.772  2.4243 -0.7102  0.5423
 8255SOL    MW432754   3.830   6.400   0.694 -0.0240 -0.4439 -0.3671
 8256SOL     OW32755   4.215   2.351   5.086  0.1528  0.7937  0.0537
 8256SOL    HW232756   4.138   2.390   5.044 -1.4775 -1.7916  0.4084
 8256SOL    HW332757   4.178   2.291   5.151  2.4145 -1.4589 -0.5927
 8256SOL    MW432758   4.200   2.348   5.089  0.0219  0.0469  0.4327
 8257SOL     OW32759   5.250   4.689   4.957 -0.1592  0.3356  0.2476
 8257SOL    HW232760   5.300   4.764   4.990  0.1439  0.5933 -0.7567
 8257SOL    HW332761   5.298   4.613   4.989  0.9465  0.5813 -0.7546
 8257SOL    MW432762   5.263   4.689   4.966  0.0175  0.1325  0.2211
 8258SOL     OW32763   2.575   4.083   3.979 -0.6183  0.0719 -0.4436
 8258SOL    HW232764   2.508   4.028   3.938  0.3013  0.3088 -2.3744
 8258SOL    HW332765   2.527   4.160   4.009 -1.3513 -0.1260 -1.0676
 8258SOL    MW432766   2.559   4.086   3.977 -0.1897  0.3916 -0.4940
 8259SOL     OW32767   1.881   3.808   0.624 -0.1268  0.0253 -0.3709
 8259SOL    HW232768   1.889   3.715   0.644  0.3528  0.1292 -0.0805
 8259SOL    HW332769   1.925   3.818   0.539 -0.5248 -0.0766 -0.5960
 8259SOL    MW432770   1.888   3.797   0.615 -0.5132  0.7079 -0.2487
 8260SOL     OW32771   2.080   2.947   2.461  0.2914 -0.3930 -0.3393
 8260SOL    HW232772   2.170   2.977   2.470  0.4041 -0.9046  0.3141
 8260SOL    HW332773   2.082   2.885   2.388  0.4186 -0.2064 -0.4928
 8260SOL    MW432774   2.092   2.943   2.453  0.4140 -0.3510 -0.1096
 8261SOL     OW32775   3.018   4.692   3.065 -0.1768 -0.3358  0.4513
 8261SOL    HW232776   3.076   4.764   3.039 -0.8807 -0.4856 -1.7300
 8261SOL    HW332777   3.073   4.614   3.058  0.7301 -0.0554  3.2929
 8261SOL    MW432778   3.033   4.691   3.061 -0.0388  0.2640  0.2645
 8262SOL     OW32779   5.926   5.261   5.539 -0.2681  0.2128  0.4130
 8262SOL    HW232780   6.009   5.297   5.508  1.1297 -1.1248  2.3384
 8262SOL    HW332781   5.869   5.337   5.550  1.7976  1.6150  2.1163
 8262SOL    MW432782   5.929   5.275   5.537 -0.2633 -0.1999 -1.1833
 8263SOL     OW32783   3.253   0.074   0.819 -0.1233  0.0926 -0.0966
 8263SOL    HW232784   3.236   0.166   0.841  0.0932  0.8277 -2.6656
 8263SOL    HW332785   3.342   0.074   0.783 -0.3572 -1.0091 -0.7250
 8263SOL    MW432786   3.263   0.086   0.817  0.1032  0.0884 -0.1469
 8264SOL     OW32787   1.501   6.257   5.950  0.3178 -0.1129  0.3458
 8264SOL    HW232788   1.405   6.255   5.947  0.2319  0.7733  1.6105
 8264SOL    HW332789   1.521   6.303   6.032  1.8329 -0.7192  0.3376
 8264SOL    MW432790   1.491   6.263   5.960  0.3009 -0.4117 -0.1372
 8265SOL     OW32791   6.256   5.429   2.468 -0.2850  0.2419  0.0464
 8265SOL    HW232792   6.333   5.379   2.442 -0.7626  0.2092 -1.4466
 8265SOL    HW332793   6.290   5.503   2.519  0.6173 -0.3757  0.3582
 8265SOL    MW432794   6.271   5.432   2.471 -0.3128 -0.2473 -0.0700
 8266SOL     OW32795   5.716   2.099   1.077 -0.2859 -0.3852  0.0976
 8266SOL    HW232796   5.681   2.176   1.032  0.8278  0.3286  0.4032
 8266SOL    HW332797   5.675   2.102   1.164 -0.1576 -0.0682  0.1492
 8266SOL    MW432798   5.706   2.109   1.083  0.2160 -0.3158  0.3057
 8267SOL     OW32799   1.614   6.352   4.288 -0.1170  0.1264 -0.0011
 8267SOL    HW232800   1.541   6.312   4.334 -0.5637  0.8295 -0.0898
 8267SOL    HW332801   1.575   6.394   4.211  0.5722 -0.7627 -0.8668
 8267SOL    MW432802   1.599   6.352   4.284 -0.4774 -0.2735 -0.4735
 8268SOL     OW32803   6.263   4.371   5.162 -0.2992 -0.5073  0.0665
 8268SOL    HW232804   6.176   4.398   5.191 -0.4967 -1.0291 -0.0457
 8268SOL    HW332805   6.318   4.448   5.178 -0.6076 -0.4575  0.9199
 8268SOL    MW432806   6.259   4.385   5.168  0.2538 -0.5858 -0.2013
 8269SOL     OW32807   3.855   4.918   4.030 -0.1189  0.2057 -0.1506
 8269SOL    HW232808   3.843   4.950   3.940 -0.4663 -1.8355 -0.9133
 8269SOL    HW332809   3.949   4.908   4.040  0.0927  2.4871  0.5405
 8269SOL    MW432810   3.866   4.921   4.019 -0.1845  0.6088 -0.1569
 8270SOL     OW32811   3.191   4.124   1.808  0.0057  0.1738  0.0594
 8270SOL    HW232812   3.106   4.156   1.839 -0.5504 -0.0356 -1.2138
 8270SOL    HW332813   3.239   4.104   1.889 -2.0473 -2.0459  0.8591
 8270SOL    MW432814   3.186   4.125   1.823 -0.1224 -0.5232  0.4766
 8271SOL     OW32815   3.384   1.086   5.989 -0.0133  0.4496  1.0022
 8271SOL    HW232816   3.429   1.144   5.929 -1.1325  0.1843 -0.1367
 8271SOL    HW332817   3.306   1.135   6.017  0.4863  0.5723  2.2680
 8271SOL    MW432818   3.380   1.100   5.985 -0.0730 -0.1044 -0.3245
 8272SOL     OW32819   1.887   4.731   4.331  0.4848  0.3482  0.6774
 8272SOL    HW232820   1.942   4.744   4.408  0.9143  0.9804  0.2722
 8272SOL    HW332821   1.897   4.811   4.281  0.3192 -0.1158 -0.1103
 8272SOL    MW432822   1.895   4.743   4.335  0.3206 -0.1330  0.2848
 8273SOL     OW32823   1.492   5.102   0.188 -0.5278  0.1323  0.6213
 8273SOL    HW232824   1.507   5.110   0.094  1.6311 -0.0550  0.8761
 8273SOL    HW332825   1.426   5.168   0.208  1.0067  2.1624 -0.6254
 8273SOL    MW432826   1.486   5.112   0.178  0.1639 -0.0949  0.3649
 8274SOL     OW32827   2.838   1.699   3.065 -0.0871 -1.2244 -0.2481
 8274SOL    HW232828   2.850   1.708   2.971  0.3111 -0.6818 -0.1473
 8274SOL    HW332829   2.926   1.677   3.099 -0.4143 -2.4318 -0.1159
 8274SOL    MW432830   2.851   1.697   3.057 -0.0027 -0.1897  0.1582
 8275SOL     OW32831   4.966   5.645   1.838 -0.2291 -0.4337 -0.0929
 8275SOL    HW232832   4.996   5.555   1.853  0.1777 -0.2052  0.5639
 8275SOL    HW332833   4.966   5.684   1.926 -2.3065 -0.3565 -0.0838
 8275SOL    MW432834   4.970   5.638   1.852  0.3687  0.1082  0.4551
 8276SOL     OW32835   2.039   6.389   1.567  0.2542 -0.5107 -0.0637
 8276SOL    HW232836   2.119   6.430   1.601  0.1562 -1.5244  1.4835
 8276SOL    HW332837   2.068   6.344   1.488  1.4038 -1.4206  0.8309
 8276SOL    MW432838   2.054   6.388   1.561 -0.2179 -0.1486  0.1484
 8277SOL     OW32839   5.333   4.016   0.270 -0.0454 -0.0112  0.0686
 8277SOL    HW232840   5.245   4.027   0.235  0.2283 -3.1032 -1.9655
 8277SOL    HW332841   5.390   4.041   0.197  0.6988 -0.7975  0.3708
 8277SOL    MW432842   5.329   4.021   0.256 -0.4155 -0.5850 -0.2418
 8278SOL     OW32843   0.041   2.189   5.669 -0.5374 -0.1250 -0.4068
 8278SOL    HW232844   0.135   2.205   5.668 -0.7230  1.0033 -1.1939
 8278SOL    HW332845   0.011   2.224   5.753 -0.3198 -0.0375 -0.3666
 8278SOL    MW432846   0.049   2.196   5.680 -0.1437 -0.3519  0.0426
 8279SOL     OW32847   6.258   6.095   4.781  0.0260  0.2850 -0.0526
 8279SOL    HW232848   6.236   6.011   4.822  0.2277  1.1174  1.9009
 8279SOL    HW332849   6.321   6.073   4.712  1.4944 -1.0355  1.6015
 8279SOL    MW432850   6.264   6.081   4.777 -0.3269  0.3780 -0.3334
 8280SOL     OW32851   2.271   5.163   3.916 -0.2888 -0.7370 -0.5813
 8280SOL    HW232852   2.363   5.180   3.936 -0.2597 -2.7440  1.3244
 8280SOL    HW332853   2.274   5.095   3.849 -0.4393 -0.0023 -1.3660
 8280SOL    MW432854   2.283   5.157   3.909  0.0119  0.3290 -0.0067
 8281SOL     OW32855   5.704   3.455   1.903 -0.0832 -0.3809 -0.1492
 8281SOL    HW232856   5.714   3.371   1.947  0.7708 -0.9229 -1.3263
 8281SOL    HW332857   5.712   3.435   1.810  0.5032  1.0482 -0.4397
 8281SOL    MW432858   5.707   3.442   1.896  0.5288 -0.2266 -0.1017
 8282SOL     OW32859   1.396   1.740   6.067 -0.5034 -0.3971 -0.2034
 8282SOL    HW232860   1.410   1.828   6.102  0.2578 -0.3707 -0.5601
 8282SOL    HW332861   1.310   1.714   6.100 -1.1768  0.8662 -0.9015
 8282SOL    MW432862   1.386   1.748   6.076 -0.1007 -0.1778  0.4266
 8283SOL     OW32863   5.953   0.574   5.978  0.3972  0.3969  0.4268
 8283SOL    HW232864   6.028   0.514   5.980 -0.4520 -0.6784  0.6799
 8283SOL    HW332865   5.890   0.536   6.038 -1.5985 -0.4129 -2.0091
 8283SOL    MW432866   5.955   0.562   5.986  0.7508  0.7713  0.5070
 8284SOL     OW32867   4.762   2.383   1.877  0.1108 -0.8944  0.2231
 8284SOL    HW232868   4.688   2.325   1.857  0.1204 -1.3542  1.4145
 8284SOL    HW332869   4.723   2.456   1.924  0.2510 -0.4786 -0.2969
 8284SOL    MW432870   4.747   2.385   1.880  0.7450 -0.0739  0.2304
 8285SOL     OW32871   5.103   0.545   4.212 -0.1984 -0.4048 -0.2717
 8285SOL    HW232872   5.197   0.559   4.198 -0.5012  3.0231  0.2093
 8285SOL    HW332873   5.060   0.610   4.155 -2.2035 -0.8854  0.6007
 8285SOL    MW432874   5.110   0.556   4.203 -0.2388  0.3503  0.2721
 8286SOL     OW32875   0.386   3.740   1.834  0.4089  0.9781 -0.3899
 8286SOL    HW232876   0.344   3.816   1.874 -0.2158  0.4580 -0.0338
 8286SOL    HW332877   0.462   3.721   1.890 -0.1456  0.5926  0.2405
 8286SOL    MW432878   0.391   3.747   1.847  0.4096  0.0694  0.3434
 8287SOL     OW32879   0.414   1.187   3.503  0.4984 -0.2893  0.2232
 8287SOL    HW232880   0.370   1.220   3.582  1.4181  0.3498  0.4995
 8287SOL    HW332881   0.346   1.185   3.436 -0.2354 -0.5652  0.9582
 8287SOL    MW432882   0.400   1.191   3.505 -0.5220  0.1277  0.2565
 8288SOL     OW32883   0.887   3.129   3.853  0.1880 -0.3959 -0.5855
 8288SOL    HW232884   0.967   3.078   3.841  0.6782  0.4699 -1.1172
 8288SOL    HW332885   0.903   3.180   3.933  0.1419 -0.2716 -0.6549
 8288SOL    MW432886   0.899   3.129   3.862  0.0519  0.0771 -0.5207
 8289SOL     OW32887   3.193   5.461   4.392  0.8324  0.3218  0.6791
 8289SOL    HW232888   3.150   5.496   4.314  1.7976 -0.2549 -0.1327
 8289SOL    HW332889   3.121   5.444   4.453 -0.0363  0.0298 -0.3889
 8289SOL    MW432890   3.177   5.463   4.390 -0.0975 -0.0576 -0.0574
 8290SOL     OW32891   4.065   2.064   2.460 -0.5253  0.1420  0.1443
 8290SOL    HW232892   4.038   2.153   2.436  0.9130  0.5984  0.0726
 8290SOL    HW332893   4.139   2.045   2.401 -0.4722 -0.8858  0.5254
 8290SOL    MW432894   4.072   2.073   2.449 -0.2056  0.0711 -0.0901
 8291SOL     OW32895   5.824   0.498   0.471 -0.2309 -0.0841 -0.2955
 8291SOL    HW232896   5.867   0.484   0.386  2.1155 -0.9790  0.9368
 8291SOL    HW332897   5.830   0.414   0.515 -2.3498  0.0818  0.4208
 8291SOL    MW432898   5.831   0.485   0.466 -0.0319  0.0688 -0.4824
 8292SOL     OW32899   0.832   4.150   1.985  0.4565  0.1757  0.1386
 8292SOL    HW232900   0.837   4.079   2.049  0.8291 -0.1647 -0.2599
 8292SOL    HW332901   0.743   4.184   1.995  0.2685 -0.3491  0.3380
 8292SOL    MW432902   0.821   4.145   1.994 -0.3924 -0.5699 -0.5424
 8293SOL     OW32903   1.703   1.099   5.723  0.7317  0.2128 -0.2731
 8293SOL    HW232904   1.610   1.088   5.744  0.9402 -0.1416  0.4876
 8293SOL    HW332905   1.730   1.175   5.774  0.8000  0.4841 -0.7062
 8293SOL    MW432906   1.694   1.108   5.732  0.7105  0.1570  0.0395
 8294SOL     OW32907   5.477   4.474   4.080  0.3355 -0.2124 -0.1083
 8294SOL    HW232908   5.540   4.421   4.031  0.7963  0.6652 -0.4872
 8294SOL    HW332909   5.522   4.557   4.094 -0.3148  0.0235  0.6233
 8294SOL    MW432910   5.491   4.478   4.076  0.1996 -0.1611 -0.1413
 8295SOL     OW32911   1.786   3.773   0.010 -0.6494 -0.0200  0.1902
 8295SOL    HW232912   1.795   3.791  -0.083 -0.8292 -0.6872  0.0375
 8295SOL    HW332913   1.863   3.720   0.031  1.3451  3.0179  1.2162
 8295SOL    MW432914   1.798   3.768   0.001 -0.0818 -0.6046 -0.3329
 8296SOL     OW32915   1.889   0.020   5.962  0.0784 -0.5594  0.1039
 8296SOL    HW232916   1.937   0.101   5.944 -0.3619 -0.4664 -0.7330
 8296SOL    HW332917   1.932  -0.017   6.039  1.7178 -0.6647 -0.8197
 8296SOL    MW432918   1.901   0.026   5.970 -0.6958  0.6894 -0.3990
 8297SOL     OW32919   3.540   5.394   3.604  0.3446 -0.4321  0.5367
 8297SOL    HW232920   3.470   5.426   3.662 -1.2816  0.2039 -1.6469
 8297SOL    HW332921   3.509   5.308   3.575  0.8596 -0.5024  0.1890
 8297SOL    MW432922   3.527   5.387   3.608 -0.5127 -0.4475 -0.3901
 8298SOL     OW32923   2.265   2.175   4.558 -0.4729  0.2751  0.2154
 8298SOL    HW232924   2.349   2.141   4.527 -1.5721 -0.4198 -2.2713
 8298SOL    HW332925   2.284   2.266   4.580  0.7791  0.4001 -1.1501
 8298SOL    MW432926   2.279   2.183   4.557  0.0201  0.0106 -0.4400
 8299SOL     OW32927   5.805   1.480   0.009 -0.0966  0.2840  0.6186
 8299SOL    HW232928   5.900   1.489   0.008  0.0340 -0.8089  1.5657
 8299SOL    HW332929   5.781   1.487   0.101 -1.0897  1.7827  0.2979
 8299SOL    MW432930   5.814   1.482   0.021  0.7423  0.1679 -0.3495
 8300SOL     OW32931   1.444   5.960   2.336 -0.2450  0.2246  0.2062
 8300SOL    HW232932   1.408   6.048   2.323  0.4913  0.4750 -0.2050
 8300SOL    HW332933   1.515   5.953   2.272  1.0129  0.0713  1.5556
 8300SOL    MW432934   1.449   5.971   2.326 -0.2326  0.4894 -0.1234
 8301SOL     OW32935   0.067   5.260   5.999 -0.1221  0.2809  0.1059
 8301SOL    HW232936  -0.024   5.292   6.000 -0.2221 -0.0126  0.5683
 8301SOL    HW332937   0.084   5.233   6.089  0.2093 -0.2662 -0.1163
 8301SOL    MW432938   0.057   5.260   6.011 -0.5402  0.0828  0.5888
 8302SOL     OW32939   1.513   6.180   4.903 -0.0057 -0.0185 -0.5034
 8302SOL    HW232940   1.573   6.222   4.964 -0.4178 -0.6039  0.3167
 8302SOL    HW332941   1.468   6.113   4.955  0.1389 -1.0111 -1.6064
 8302SOL    MW432942   1.515   6.177   4.917  0.0629  0.0819  0.4436
 8303SOL     OW32943   1.010   6.096   2.064  0.4619 -0.0734 -0.2455
 8303SOL    HW232944   0.951   6.103   1.989 -0.6526 -1.4665  0.4638
 8303SOL    HW332945   1.032   6.187   2.085 -1.2696  0.4790 -0.6745
 8303SOL    MW432946   1.005   6.109   2.057  0.0440  0.7847  0.0637
 8304SOL     OW32947   0.496   2.318   5.479  0.0208  0.1513  0.4744
 8304SOL    HW232948   0.553   2.368   5.420 -0.3721  1.1740  0.9251
 8304SOL    HW332949   0.520   2.227   5.465  0.0677  0.3785 -1.1379
 8304SOL    MW432950   0.507   2.313   5.469 -0.0283  0.2747  0.2038
 8305SOL     OW32951   1.083   4.721   2.859 -0.4160 -0.2944  0.1630
 8305SOL    HW232952   1.060   4.667   2.784 -0.5848 -1.4463  1.0135
 8305SOL    HW332953   0.999   4.742   2.900 -0.2420 -2.2410  1.7253
 8305SOL    MW432954   1.069   4.716   2.855 -0.4382  0.4048 -0.2075
 8306SOL     OW32955   5.615   2.388   5.097  0.4089  0.3428 -0.7657
 8306SOL    HW232956   5.710   2.395   5.091  0.5019 -0.0119  0.1035
 8306SOL    HW332957   5.598   2.294   5.094  0.1519  0.3653 -0.0741
 8306SOL    MW432958   5.625   2.376   5.096 -0.2721 -0.0878 -0.1244
 8307SOL     OW32959   1.217   1.466   1.540 -0.0538  0.0589 -0.2133
 8307SOL    HW232960   1.240   1.552   1.506 -0.3710  0.0677 -0.4152
 8307SOL    HW332961   1.162   1.427   1.471 -1.1678  0.2920  0.5178
 8307SOL    MW432962   1.213   1.472   1.526  0.6057 -0.3805  0.4329
 8308SOL     OW32963   3.451   2.501   1.757  0.2503 -0.2529  0.1759
 8308SOL    HW232964   3.356   2.511   1.762  0.3648  1.0665  0.0037
 8308SOL    HW332965   3.485   2.591   1.760  1.5880 -0.7585  1.9878
 8308SOL    MW432966   3.443   2.514   1.758  0.5824  0.5883  0.1722
 8309SOL     OW32967   4.283   3.776   1.640 -0.7232  0.1014  0.9085
 8309SOL    HW232968   4.363   3.735   1.607 -0.4560  0.3519  1.2454
 8309SOL    HW332969   4.311   3.829   1.715 -1.2127  0.1330  1.0768
 8309SOL    MW432970   4.297   3.778   1.646  0.6048 -0.0760 -0.0486
 8310SOL     OW32971   4.549   4.582   1.151 -0.0598  0.4244 -0.0855
 8310SOL    HW232972   4.547   4.655   1.090  0.3384 -0.1454 -0.7983
 8310SOL    HW332973   4.615   4.522   1.115 -0.5899 -0.4255  0.3134
 8310SOL    MW432974   4.558   4.584   1.139 -0.2373  0.1714  0.0898
 8311SOL     OW32975   1.965   3.832   0.342 -0.0092  0.3359 -0.2661
 8311SOL    HW232976   2.033   3.896   0.360  0.5567 -0.2386 -0.3414
 8311SOL    HW332977   1.902   3.878   0.286  0.4965  0.7595 -0.4901
 8311SOL    MW432978   1.965   3.846   0.337 -0.3181 -0.2495  0.1523
 8312SOL     OW32979   5.841   3.431   0.779  0.4473 -0.5554 -0.5008
 8312SOL    HW232980   5.821   3.518   0.813  1.0635 -0.3948 -0.5463
 8312SOL    HW332981   5.936   3.425   0.781  0.3732 -1.8800  1.1172
 8312SOL    MW432982   5.851   3.442   0.784  0.1591 -0.4326  0.5056
 8313SOL     OW32983   0.047   2.976   1.229  0.1996  0.7095  0.2421
 8313SOL    HW232984   0.051   2.904   1.292  0.1757  1.9115  1.6861
 8313SOL    HW332985   0.115   2.957   1.166 -0.5834 -1.1760 -0.0967
 8313SOL    MW432986   0.056   2.964   1.229 -0.8673  0.2669  0.0128
 8314SOL     OW32987   4.077   0.915   4.099  0.0143  0.1204 -0.2020
 8314SOL    HW232988   4.124   0.995   4.122  1.1438 -0.0624 -1.7806
 8314SOL    HW332989   4.130   0.873   4.032 -1.0599 -1.4688 -0.1267
 8314SOL    MW432990   4.090   0.920   4.094  0.8066  0.4941  0.1649
 8315SOL     OW32991   5.545   1.192   1.778  0.2019  0.5816  0.4292
 8315SOL    HW232992   5.599   1.191   1.857 -0.5797  3.0487  1.0979
 8315SOL    HW332993   5.607   1.210   1.707  1.0852 -2.7339  0.1875
 8315SOL    MW432994   5.560   1.194   1.779  0.0876  0.2470  0.1545
 8316SOL     OW32995   2.487   2.275   4.801  0.1337  0.6132  1.0597
 8316SOL    HW232996   2.578   2.279   4.769  0.3993 -0.5335  1.6390
 8316SOL    HW332997   2.494   2.297   4.894 -0.0959 -0.0767  1.2434
 8316SOL    MW432998   2.500   2.278   4.809 -0.0294 -0.2495  0.4629
 8317SOL     OW32999   5.916   4.044   6.137 -0.0192 -0.5744 -0.3647
 8317SOL    HW233000   5.945   4.012   6.222 -1.0446  0.0511  0.2476
 8317SOL    HW333001   5.913   4.140   6.147  0.9462 -0.4131 -1.4727
 8317SOL    MW433002   5.919   4.053   6.150  0.0805  0.3008  0.2397
 8318SOL     OW33003   3.112   2.032   4.822 -0.4411 -0.1321  0.4966
 8318SOL    HW233004   3.128   2.053   4.730 -2.4356 -0.4684  0.0145
 8318SOL    HW333005   3.169   1.957   4.840  0.6763  0.5314 -0.1658
 8318SOL    MW433006   3.122   2.025   4.812  0.6215  0.6086  0.3583
 8319SOL     OW33007   2.540   3.560   3.078 -0.3841  0.0481 -0.0581
 8319SOL    HW233008   2.506   3.637   3.034  1.1944 -0.4497 -2.3418
 8319SOL    HW333009   2.531   3.489   3.014  1.5716 -0.8318  0.5450
 8319SOL    MW433010   2.535   3.561   3.064 -0.1313  0.2475 -0.3013
 8320SOL     OW33011   4.101   2.180   5.275 -0.0633 -0.0638 -0.2322
 8320SOL    HW233012   4.094   2.085   5.268 -3.4529 -0.0103  0.8450
 8320SOL    HW333013   4.097   2.198   5.369  0.6925  1.1462 -0.4104
 8320SOL    MW433014   4.100   2.170   5.286  0.4846  0.2758  0.0718
 8321SOL     OW33015   0.868   2.797   6.131 -0.8016 -0.3875  0.7157
 8321SOL    HW233016   0.872   2.873   6.074 -3.3732 -1.2095 -0.7249
 8321SOL    HW333017   0.941   2.808   6.191  1.5091  0.9799 -2.1364
 8321SOL    MW433018   0.878   2.808   6.132 -0.2885 -0.0122 -0.6399
 8322SOL     OW33019   2.382   5.631   5.079  0.3066  0.7005 -0.0954
 8322SOL    HW233020   2.349   5.720   5.084 -0.8859  0.4041 -1.6751
 8322SOL    HW333021   2.333   5.591   5.007  0.8888 -1.2005  0.4852
 8322SOL    MW433022   2.371   5.637   5.070 -0.6314  0.2155  0.4925
 8323SOL     OW33023   4.586   4.589   1.658 -0.1267  0.7367 -0.3648
 8323SOL    HW233024   4.557   4.504   1.690  2.4717  0.9938  3.3068
 8323SOL    HW333025   4.516   4.650   1.685  0.0812  0.3281  1.2033
 8323SOL    MW433026   4.573   4.586   1.666  0.0732  0.4154 -0.0740
 8324SOL     OW33027   5.552   0.516   1.734 -0.1190  0.0792 -0.5042
 8324SOL    HW233028   5.505   0.561   1.664 -0.0515  0.2445 -0.4448
 8324SOL    HW333029   5.588   0.438   1.692 -1.0902 -0.4566 -0.3656
 8324SOL    MW433030   5.551   0.512   1.719 -0.0439  0.6724  0.1567
 8325SOL     OW33031   3.845   5.341   3.718  0.3364  0.0003 -0.4560
 8325SOL    HW233032   3.777   5.398   3.754 -0.3570 -0.8383 -0.4080
 8325SOL    HW333033   3.802   5.293   3.648  0.0232 -2.6005  1.3672
 8325SOL    MW433034   3.830   5.342   3.713  0.5462  0.0463  0.5818
 8326SOL     OW33035   1.490   1.798   4.480  0.3423 -0.9939  0.1880
 8326SOL    HW233036   1.566   1.739   4.478  1.3110  0.2365 -0.7522
 8326SOL    HW333037   1.506   1.861   4.410 -0.0154  1.1766  1.9268
 8326SOL    MW433038   1.502   1.798   4.471  0.0417 -0.2439  0.2727
 8327SOL     OW33039   5.539   2.403   0.944  0.0059  0.1078  0.4714
 8327SOL    HW233040   5.511   2.487   0.980  0.0568 -0.5241  2.0512
 8327SOL    HW333041   5.485   2.338   0.988  1.0981 -0.8113  0.5051
 8327SOL    MW433042   5.528   2.406   0.955 -0.2999 -0.0554  0.2656
 8328SOL     OW33043   2.891   1.823   5.316 -0.1257  0.2015  0.2130
 8328SOL    HW233044   2.805   1.852   5.347  0.2038  0.8836  0.5042
 8328SOL    HW333045   2.882   1.821   5.220 -0.7257 -0.5877  0.2721
 8328SOL    MW433046   2.879   1.826   5.307  0.0758 -0.6374  0.0213
 8329SOL     OW33047   1.090   4.017   3.969  0.3713  0.2230  0.3812
 8329SOL    HW233048   1.040   4.096   3.946  0.0759  0.5315  1.9916
 8329SOL    HW333049   1.181   4.047   3.975  0.4295  0.1725 -0.1898
 8329SOL    MW433050   1.095   4.032   3.967  0.4780  0.1647 -0.7923
 8330SOL     OW33051   4.390   4.104   2.485 -0.0196 -0.4667  0.5267
 8330SOL    HW233052   4.354   4.059   2.409  0.1148 -0.1271  0.2601
 8330SOL    HW333053   4.316   4.153   2.522  0.0850 -0.0315  0.1711
 8330SOL    MW433054   4.376   4.105   2.480 -0.0818 -0.2547  0.3220
 8331SOL     OW33055   3.917   6.066   4.073  0.6259  0.3378  0.1723
 8331SOL    HW233056   4.001   6.089   4.034  0.0504  1.3247 -0.5213
 8331SOL    HW333057   3.855   6.129   4.036 -0.9356 -1.9660 -1.3306
 8331SOL    MW433058   3.920   6.078   4.063 -0.1163 -0.0812  0.0348
 8332SOL     OW33059   1.808   2.112   5.201 -0.2634  0.4377  0.3922
 8332SOL    HW233060   1.819   2.142   5.111 -4.6684 -1.3557 -1.0427
 8332SOL    HW333061   1.885   2.059   5.219  0.6613  0.6796 -2.3765
 8332SOL    MW433062   1.819   2.109   5.192  0.3885 -0.2907  0.7538
 8333SOL     OW33063   0.109   4.390   3.949 -0.3003  0.3560  0.1890
 8333SOL    HW233064   0.154   4.354   3.872 -0.2844  0.2266  0.2596
 8333SOL    HW333065   0.151   4.476   3.962  0.1159  0.1219  0.4184
 8333SOL    MW433066   0.121   4.397   3.940  0.3220  0.2503 -0.2399
 8334SOL     OW33067   1.289   3.600   1.830  0.2623 -0.0766  0.4740
 8334SOL    HW233068   1.378   3.565   1.838 -0.2886 -1.4655  0.9974
 8334SOL    HW333069   1.236   3.541   1.884 -1.4294 -1.0610 -2.0617
 8334SOL    MW433070   1.294   3.587   1.838 -0.4899 -0.2274 -0.1110
 8335SOL     OW33071   5.819   3.567   2.176  0.1361 -0.0351 -0.3084
 8335SOL    HW233072   5.752   3.607   2.121  1.1939 -0.2913 -1.8426
 8335SOL    HW333073   5.849   3.638   2.234 -0.3275  0.4953 -0.7144
 8335SOL    MW433074   5.815   3.582   2.177 -0.5153 -0.4999  0.0132
 8336SOL     OW33075   3.148   3.535   4.718  0.0647  0.1685  0.2576
 8336SOL    HW233076   3.164   3.626   4.693 -0.5049  0.0348 -0.6533
 8336SOL    HW333077   3.222   3.487   4.683  0.3033  0.2628  0.6301
 8336SOL    MW433078   3.160   3.540   4.710 -0.2143  0.1679 -0.6633
 8337SOL     OW33079   1.409   5.462   4.723 -0.5062 -1.1430  0.8497
 8337SOL    HW233080   1.379   5.484   4.635  0.7358 -1.6860  0.2667
 8337SOL    HW333081   1.455   5.541   4.752 -0.7175 -1.0469  0.9297
 8337SOL    MW433082   1.411   5.475   4.715  0.4852 -0.4318  0.5257
 8338SOL     OW33083   4.977   5.969   5.788 -0.1104 -0.3983  0.1098
 8338SOL    HW233084   4.975   5.993   5.695 -1.6809  0.4884  0.3400
 8338SOL    HW333085   4.992   5.875   5.788  2.4397 -0.0954 -0.9418
 8338SOL    MW433086   4.979   5.960   5.776  0.1094  0.8915 -0.0712
 8339SOL     OW33087   5.245   1.254   4.644  0.0394  0.2232 -0.0544
 8339SOL    HW233088   5.182   1.186   4.669 -0.4208  0.6581 -0.0120
 8339SOL    HW333089   5.245   1.313   4.719  0.5761  0.1731 -0.0164
 8339SOL    MW433090   5.236   1.252   4.658 -0.1817  0.3179  0.0748
 8340SOL     OW33091   4.689   5.124   5.116 -0.1391  0.2362  0.1159
 8340SOL    HW233092   4.762   5.084   5.163  1.6013  3.7610  0.6648
 8340SOL    HW333093   4.712   5.112   5.023  0.3971  0.0855  0.2613
 8340SOL    MW433094   4.702   5.117   5.110  0.7654  0.0329 -0.3870
 8341SOL     OW33095   1.283   6.221   1.492 -0.1560 -0.6823 -0.0761
 8341SOL    HW233096   1.317   6.146   1.442  1.5714 -0.3576  0.5428
 8341SOL    HW333097   1.354   6.285   1.490 -1.1860  0.5027  0.3492
 8341SOL    MW433098   1.297   6.219   1.485 -0.4000 -0.5778  0.2318
 8342SOL     OW33099   1.160   3.463   1.612 -0.7009  0.2177  0.7692
 8342SOL    HW233100   1.197   3.518   1.681  0.3472 -0.9913  1.2126
 8342SOL    HW333101   1.205   3.379   1.621 -1.0854 -0.2189 -0.9146
 8342SOL    MW433102   1.171   3.459   1.622  0.0249 -0.7547 -0.0323
 8343SOL     OW33103   3.433   1.913   5.134 -0.1436 -0.4517  0.3668
 8343SOL    HW233104   3.454   1.827   5.172  0.0387  0.6498  2.9419
 8343SOL    HW333105   3.505   1.970   5.163 -1.8854  1.2849  1.4924
 8343SOL    MW433106   3.445   1.909   5.143 -0.6376  0.9975 -0.3648
 8344SOL     OW33107   2.940   4.028   0.378 -0.2838  0.1603 -0.0997
 8344SOL    HW233108   3.021   3.979   0.389 -0.6509 -0.4001  0.1487
 8344SOL    HW333109   2.958   4.114   0.417 -0.1395 -0.3059  0.8800
 8344SOL    MW433110   2.953   4.033   0.384 -0.3512 -0.4747 -0.0413
 8345SOL     OW33111   2.766   3.770   3.834  0.4861 -0.1033  0.0467
 8345SOL    HW233112   2.851   3.784   3.792  2.7495 -1.2062  3.7760
 8345SOL    HW333113   2.742   3.680   3.810  0.0813  0.3261 -1.2960
 8345SOL    MW433114   2.774   3.760   3.825 -0.7891  0.0578  0.0024
 8346SOL     OW33115   6.289   2.256   2.376 -0.3642  0.2321  0.2844
 8346SOL    HW233116   6.305   2.310   2.453  1.5291 -0.0407  0.1382
 8346SOL    HW333117   6.248   2.177   2.411 -0.5337  0.5691  0.8675
 8346SOL    MW433118   6.286   2.253   2.391 -0.0265 -0.3302  0.4314
 8347SOL     OW33119   0.302   5.760   3.208 -0.2742  0.1397  0.6293
 8347SOL    HW233120   0.227   5.796   3.160 -1.6617 -3.4983 -0.2310
 8347SOL    HW333121   0.266   5.729   3.290  0.2118 -1.7318  0.1798
 8347SOL    MW433122   0.288   5.761   3.212  0.0316 -0.1869  0.5853
 8348SOL     OW33123   4.369   4.004   5.661  0.0366  0.3183 -0.6000
 8348SOL    HW233124   4.433   4.028   5.594  0.8881  0.7174  0.3246
 8348SOL    HW333125   4.336   3.918   5.633  1.6923 -0.3577 -0.6127
 8348SOL    MW433126   4.373   3.996   5.649 -0.2360  0.0309  0.0144
 8349SOL     OW33127   3.477   1.504   1.740  0.3042 -0.4346 -0.3826
 8349SOL    HW233128   3.561   1.515   1.694  0.2750 -1.4729 -0.7152
 8349SOL    HW333129   3.416   1.476   1.671 -0.7776  1.9793 -0.5087
 8349SOL    MW433130   3.480   1.502   1.725 -0.0809  0.2648  0.5578
 8350SOL     OW33131   5.910   4.108   1.284 -0.0382 -0.1020 -0.2455
 8350SOL    HW233132   5.899   4.123   1.190 -0.0475  0.2204 -0.1960
 8350SOL    HW333133   5.894   4.194   1.324  0.6778 -0.0663 -0.0113
 8350SOL    MW433134   5.906   4.122   1.277  0.2631 -0.0296  0.7729
 8351SOL     OW33135   0.598   0.089   1.558 -0.3820 -0.0530 -0.4446
 8351SOL    HW233136   0.643   0.006   1.542  1.6068  1.1054 -1.3613
 8351SOL    HW333137   0.661   0.141   1.609 -1.0574  1.3208 -0.9444
 8351SOL    MW433138   0.613   0.085   1.562 -0.2122 -0.4382  0.0029
 8352SOL     OW33139   2.971   2.592   1.930  0.4344 -0.3149 -0.5641
 8352SOL    HW233140   2.960   2.681   1.964 -1.6006 -0.0606 -1.7399
 8352SOL    HW333141   2.968   2.536   2.007  4.3850  0.6777  0.5492
 8352SOL    MW433142   2.969   2.597   1.945  0.0241 -0.2891 -0.0563
 8353SOL     OW33143   5.088   4.724   3.791  0.9664 -0.4967 -0.2170
 8353SOL    HW233144   5.131   4.670   3.858 -0.3617 -1.0560  0.2233
 8353SOL    HW333145   5.001   4.685   3.782 -0.0201  1.5499  0.0645
 8353SOL    MW433146   5.082   4.712   3.799  0.0632  0.4722 -0.1354
 8354SOL     OW33147   2.659   4.716   1.788 -0.7003  0.3159 -0.4550
 8354SOL    HW233148   2.693   4.631   1.762 -2.3910 -0.9832  1.3015
 8354SOL    HW333149   2.719   4.745   1.857 -1.0026 -0.1929  0.0257
 8354SOL    MW433150   2.672   4.709   1.794  0.4927 -0.3495 -0.2396
 8355SOL     OW33151   4.935   0.643   5.313  0.5142  0.3782  0.1802
 8355SOL    HW233152   5.003   0.593   5.268 -0.8050 -0.7611 -0.6350
 8355SOL    HW333153   4.972   0.730   5.325  1.4487  0.3096 -1.8609
 8355SOL    MW433154   4.949   0.647   5.309  0.9226 -0.2761 -0.1996
 8356SOL     OW33155   0.654   1.499   5.451 -0.1413  0.0111 -0.1063
 8356SOL    HW233156   0.583   1.470   5.508  1.1567  0.7587  1.9891
 8356SOL    HW333157   0.687   1.419   5.411 -0.8543 -0.5863  0.4766
 8356SOL    MW433158   0.649   1.485   5.453 -0.2371 -0.3968 -0.6779
 8357SOL     OW33159   2.407   0.605   1.178  0.1910 -0.0013 -0.7208
 8357SOL    HW233160   2.489   0.555   1.187  0.6620  0.7605 -0.6714
 8357SOL    HW333161   2.368   0.572   1.097 -0.6667 -2.0526  0.4454
 8357SOL    MW433162   2.413   0.594   1.168 -0.8796  0.2004  0.4402
 8358SOL     OW33163   2.878   1.588   2.792  0.4028 -0.4259  0.1245
 8358SOL    HW233164   2.878   1.521   2.723 -1.2424 -0.1123 -0.2311
 8358SOL    HW333165   2.804   1.564   2.848  0.8143  0.1697  0.9417
 8358SOL    MW433166   2.868   1.576   2.790  0.3548  0.0736  1.1731
 8359SOL     OW33167   3.568   1.927   0.508 -0.0879  0.4842 -0.5075
 8359SOL    HW233168   3.624   1.954   0.581 -0.3552 -0.7432  0.1896
 8359SOL    HW333169   3.629   1.907   0.437  0.6983 -2.9165  0.8845
 8359SOL    MW433170   3.584   1.928   0.508  0.0525 -0.2288 -0.8400
 8360SOL     OW33171   0.236   1.909   5.431 -0.3871 -0.2175 -0.2480
 8360SOL    HW233172   0.193   1.844   5.375  0.6454 -1.0618 -0.0920
 8360SOL    HW333173   0.165   1.949   5.480 -1.0239 -1.5182 -0.0642
 8360SOL    MW433174   0.221   1.906   5.430 -0.0260  0.2214  0.6704
 8361SOL     OW33175   3.449   3.153   5.500  0.5245 -0.1431  0.2767
 8361SOL    HW233176   3.373   3.101   5.475  1.6228 -0.9707 -1.5065
 8361SOL    HW333177   3.489   3.105   5.573 -0.7539  0.4331  1.4021
 8361SOL    MW433178   3.444   3.140   5.506 -0.2436 -0.3091 -1.0567
 8362SOL     OW33179   5.879   3.017   3.667  0.0940  0.0667 -0.2665
 8362SOL    HW233180   5.814   2.973   3.722  0.4108 -0.7363 -0.5201
 8362SOL    HW333181   5.923   2.946   3.620 -0.1384  0.7319 -1.5401
 8362SOL    MW433182   5.877   3.002   3.668 -0.0087  0.0312 -0.0945
 8363SOL     OW33183   2.514   0.377   5.282  0.2477  0.0004  0.3194
 8363SOL    HW233184   2.486   0.458   5.239  0.9678  0.0313 -0.0979
 8363SOL    HW333185   2.440   0.317   5.271  0.5038 -0.0633 -1.1618
 8363SOL    MW433186   2.501   0.380   5.275 -0.6938  0.4676 -0.1111
 8364SOL     OW33187   3.980   6.213   5.986  0.0040  0.0248 -0.2309
 8364SOL    HW233188   3.950   6.205   5.895  0.5041 -0.2322 -0.3782
 8364SOL    HW333189   4.048   6.280   5.983 -0.8926  0.9676  0.1888
 8364SOL    MW433190   3.985   6.221   5.974  0.2651  0.1429  0.1295
 8365SOL     OW33191   4.547   2.792   5.767 -0.5455  0.4089  0.0550
 8365SOL    HW233192   4.500   2.808   5.685 -1.7312  0.1920  0.6641
 8365SOL    HW333193   4.638   2.783   5.741 -1.0347 -0.8553 -1.4085
 8365SOL    MW433194   4.553   2.793   5.752  0.0987 -0.7300  0.3723
 8366SOL     OW33195   6.329   2.394   5.552 -0.3866 -0.1633 -0.5839
 8366SOL    HW233196   6.374   2.320   5.590  0.9914  0.4295 -0.9914
 8366SOL    HW333197   6.303   2.449   5.626  0.5634  0.0307 -0.3866
 8366SOL    MW433198   6.331   2.392   5.567  0.1985 -1.0946  0.3373
 8367SOL     OW33199   2.457   1.420   5.924 -0.0235  0.2049  0.2092
 8367SOL    HW233200   2.475   1.418   5.830  0.1471  0.7684  0.2270
 8367SOL    HW333201   2.393   1.350   5.938 -0.0341  0.1081 -0.3240
 8367SOL    MW433202   2.451   1.411   5.914  0.3025 -0.3204 -0.3706
 8368SOL     OW33203   1.753   2.223   5.503  0.2983  0.4526 -0.1577
 8368SOL    HW233204   1.694   2.181   5.441 -0.4745  2.1218 -0.6154
 8368SOL    HW333205   1.832   2.168   5.502 -1.1467 -1.7574  0.3851
 8368SOL    MW433206   1.756   2.210   5.495  0.4213  0.1650 -0.1305
 8369SOL     OW33207   3.848   6.306   2.828 -0.0540  0.0170  0.2832
 8369SOL    HW233208   3.769   6.353   2.854 -0.2638 -1.5650  2.8840
 8369SOL    HW333209   3.816   6.237   2.769 -0.1968  0.9363 -0.7547
 8369SOL    MW433210   3.833   6.303   2.823 -0.1458  0.2102  0.1277
 8370SOL     OW33211   1.046   6.346   2.529 -0.2025  0.1748 -0.3957
 8370SOL    HW233212   1.012   6.435   2.543 -0.1588  0.2763 -0.9273
 8370SOL    HW333213   1.089   6.324   2.612  0.6342  1.0247 -0.5960
 8370SOL    MW433214   1.047   6.355   2.542  0.4299  0.0414  0.4319
 8371SOL     OW33215   4.864   2.685   4.747  0.0934 -0.4160 -0.3702
 8371SOL    HW233216   4.833   2.609   4.797 -0.5065 -0.5369 -0.9160
 8371SOL    HW333217   4.959   2.682   4.755  0.1969 -2.1274 -1.6531
 8371SOL    MW433218   4.872   2.674   4.755 -0.3977  0.2280 -0.6791
 8372SOL     OW33219   1.527   1.150   6.163 -0.2580 -0.5416 -0.0793
 8372SOL    HW233220   1.581   1.224   6.191 -0.0683 -1.1081  1.1424
 8372SOL    HW333221   1.483   1.181   6.084  0.2941  0.6484  0.0493
 8372SOL    MW433222   1.529   1.164   6.156 -0.3385 -0.4309 -0.3316
 8373SOL     OW33223   0.280   5.311   2.430 -0.2896 -0.4488  0.2227
 8373SOL    HW233224   0.273   5.369   2.506  0.9163 -0.5755  0.4530
 8373SOL    HW333225   0.298   5.371   2.357  2.4179 -0.5539  0.6885
 8373SOL    MW433226   0.282   5.327   2.430  0.1349 -0.2694  0.0491
 8374SOL     OW33227   4.148   2.148   1.104  0.9281  0.0309  0.1631
 8374SOL    HW233228   4.180   2.216   1.045  1.6445  0.3588  0.8994
 8374SOL    HW333229   4.053   2.148   1.092  1.1320 -0.6153 -1.7167
 8374SOL    MW433230   4.140   2.157   1.095  0.6696 -0.0029 -0.3720
 8375SOL     OW33231   5.729   0.179   6.076  0.0689  0.7616  0.5889
 8375SOL    HW233232   5.772   0.229   6.146  2.1241 -0.2562  0.1332
 8375SOL    HW333233   5.791   0.183   6.003 -0.9809 -0.1468 -0.3851
 8375SOL    MW433234   5.743   0.186   6.075 -0.2419 -0.0784 -0.3464
 8376SOL     OW33235   2.008   1.848   2.399 -0.1294  0.2247 -0.2376
 8376SOL    HW233236   1.968   1.865   2.314 -1.0915  1.5494  0.4526
 8376SOL    HW333237   1.973   1.762   2.425 -0.5379  0.2239 -0.7740
 8376SOL    MW433238   1.998   1.839   2.392  0.0943  0.3538 -0.4342
 8377SOL     OW33239   4.287   3.539   3.844  0.4034  0.5733 -0.4747
 8377SOL    HW233240   4.210   3.589   3.870 -1.0213 -1.9204  0.3923
 8377SOL    HW333241   4.274   3.522   3.751  1.2852  2.3598 -0.9681
 8377SOL    MW433242   4.275   3.543   3.835  0.0856 -0.0655  0.5706
 8378SOL     OW33243   5.843   5.826   4.459 -0.6871  0.0629  0.3763
 8378SOL    HW233244   5.837   5.780   4.375 -0.2841 -0.8762  0.8530
 8378SOL    HW333245   5.922   5.791   4.500 -0.3079  1.2835  0.7039
 8378SOL    MW433246   5.852   5.815   4.453  0.0101 -0.0092 -0.1654
 8379SOL     OW33247   0.534   5.805   3.048  0.0772 -0.5583  0.2639
 8379SOL    HW233248   0.572   5.872   2.991  0.4157  0.1783  1.3430
 8379SOL    HW333249   0.468   5.851   3.100  0.7025 -0.9237  1.4141
 8379SOL    MW433250   0.530   5.820   3.047  0.1930 -0.0343  0.0676
 8380SOL     OW33251   5.930   3.550   4.697  0.2877  0.4101 -0.0644
 8380SOL    HW233252   5.837   3.541   4.676  0.0057  1.2612  0.7080
 8380SOL    HW333253   5.946   3.484   4.764  0.2413  0.2479 -0.2141
 8380SOL    MW433254   5.920   3.540   4.703  0.1071 -0.3306 -0.5778
 8381SOL     OW33255   1.366   2.176   0.189  0.4774 -0.0906 -0.1845
 8381SOL    HW233256   1.448   2.164   0.236  0.7432 -1.3022 -0.9049
 8381SOL    HW333257   1.299   2.175   0.258  0.7754 -2.7442  0.1760
 8381SOL    MW433258   1.368   2.174   0.205  0.2403  0.5470 -0.2831
 8382SOL     OW33259   2.627   3.331   3.935 -0.1318 -0.3312 -0.2120
 8382SOL    HW233260   2.671   3.341   4.019 -0.4412  1.8373 -0.2683
 8382SOL    HW333261   2.670   3.395   3.877 -1.9588  0.3858 -0.8319
 8382SOL    MW433262   2.639   3.341   3.938  0.2682  0.0186 -0.0101
 8383SOL     OW33263   5.019   0.668   0.651 -0.4459  0.1799 -0.1010
 8383SOL    HW233264   5.083   0.729   0.614 -0.8113  0.2929 -0.5633
 8383SOL    HW333265   5.016   0.595   0.589  0.1734 -0.4439  0.5784
 8383SOL    MW433266   5.027   0.667   0.638 -0.8099 -0.1973 -0.3098
 8384SOL     OW33267   2.607   4.403   2.557 -0.3810  0.3400  0.4799
 8384SOL    HW233268   2.664   4.476   2.534  0.5505 -0.7073 -0.7517
 8384SOL    HW333269   2.547   4.396   2.483 -1.0051  0.3686  0.9786
 8384SOL    MW433270   2.607   4.412   2.544 -0.2135  0.4926 -0.2481
 8385SOL     OW33271   5.203   2.802   1.162  0.0327 -0.6242  0.1702
 8385SOL    HW233272   5.150   2.783   1.239  0.5801  0.7052  0.9048
 8385SOL    HW333273   5.259   2.875   1.188  0.2189 -0.1264 -1.4870
 8385SOL    MW433274   5.203   2.809   1.176  0.1010  0.0243 -0.2199
 8386SOL     OW33275   5.314   4.973   5.062  0.7888  0.0282 -0.2297
 8386SOL    HW233276   5.320   5.006   5.152  0.0531  0.8807 -0.4801
 8386SOL    HW333277   5.221   4.981   5.040  0.7403 -1.3811 -0.6212
 8386SOL    MW433278   5.302   4.978   5.071  0.0242  0.0469  0.8606
 8387SOL     OW33279   3.827   0.941   6.391  0.5778 -0.3758  0.4573
 8387SOL    HW233280   3.845   0.854   6.357  1.4338 -0.4606  1.0761
 8387SOL    HW333281   3.827   0.930   6.486 -1.6928 -0.1355  0.5334
 8387SOL    MW433282   3.830   0.928   6.399 -0.3560 -0.2980  0.5602
 8388SOL     OW33283   0.690   4.016   0.424 -0.0235  0.2054 -0.0911
 8388SOL    HW233284   0.764   4.074   0.445 -0.0465  0.3165 -0.3149
 8388SOL    HW333285   0.731   3.942   0.379 -0.1474  0.6964 -1.0340
 8388SOL    MW433286   0.705   4.014   0.421  0.1859 -0.1900 -0.5622
 8389SOL     OW33287   3.283   5.063   4.903  0.8298  0.5240  0.1413
 8389SOL    HW233288   3.324   5.149   4.913  1.5735 -0.0470  3.0885
 8389SOL    HW333289   3.230   5.070   4.825  1.3808  3.4518 -0.0723
 8389SOL    MW433290   3.282   5.075   4.894  0.3285  0.4820  0.6668
 8390SOL     OW33291   3.681   1.499   2.799  0.1291 -0.3058 -0.1691
 8390SOL    HW233292   3.774   1.507   2.777  0.5429 -2.0443  0.7961
 8390SOL    HW333293   3.643   1.447   2.728 -0.2277  0.7632 -0.7866
 8390SOL    MW433294   3.688   1.493   2.787  0.1044 -0.3614 -0.2354
 8391SOL     OW33295   0.569   3.533   0.846  0.0371  0.6980  0.6114
 8391SOL    HW233296   0.505   3.471   0.811 -0.0347 -0.2998  2.4373
 8391SOL    HW333297   0.637   3.479   0.886  1.6611  1.7526 -0.5399
 8391SOL    MW433298   0.570   3.518   0.846 -0.6195 -0.4578  0.2038
 8392SOL     OW33299   3.987   3.178   2.976 -0.1186 -0.0447 -0.3162
 8392SOL    HW233300   3.902   3.136   2.989  0.3583 -1.2553 -0.9660
 8392SOL    HW333301   4.045   3.107   2.949  1.6221  0.3331  2.0681
 8392SOL    MW433302   3.984   3.163   2.974  0.2507  0.5800 -0.2243
 8393SOL     OW33303   3.192   5.302   2.803 -0.2247 -0.0202 -0.2850
 8393SOL    HW233304   3.245   5.261   2.735 -0.9656 -0.4245 -0.6334
 8393SOL    HW333305   3.129   5.357   2.755 -1.3835 -1.0575  0.0049
 8393SOL    MW433306   3.191   5.304   2.788 -0.1823  0.5293  0.3887
 8394SOL     OW33307   4.857   4.812   4.692 -0.4176 -0.3265 -0.6682
 8394SOL    HW233308   4.837   4.830   4.600 -2.0784 -1.4493 -0.5631
 8394SOL    HW333309   4.935   4.756   4.689 -0.3497 -0.1994 -1.3798
 8394SOL    MW433310   4.865   4.807   4.680  0.3884  0.0270  0.2192
 8395SOL     OW33311   6.145   2.171   5.526  0.0394  0.4831 -0.6431
 8395SOL    HW233312   6.082   2.169   5.598  0.0956 -0.5166 -0.6086
 8395SOL    HW333313   6.202   2.245   5.546  0.7965 -0.4802  0.9975
 8395SOL    MW433314   6.144   2.180   5.538  0.3018  0.3980  0.3136
 8396SOL     OW33315   0.208   0.707   3.256 -0.0176  0.8740  0.3624
 8396SOL    HW233316   0.117   0.733   3.243 -0.7776 -1.3218  0.8869
 8396SOL    HW333317   0.219   0.629   3.202  1.7497  1.3737 -0.0933
 8396SOL    MW433318   0.198   0.700   3.247 -1.1214  0.4623  0.1460
 8397SOL     OW33319   4.852   0.019   1.470  0.0891 -0.0425  0.0338
 8397SOL    HW233320   4.792   0.079   1.425  0.1218  0.0986  0.1750
 8397SOL    HW333321   4.857  -0.057   1.413 -0.6435 -0.2833  0.2710
 8397SOL    MW433322   4.845   0.017   1.457 -0.5249  0.2172  0.1960
 8398SOL     OW33323   0.783   2.719   0.920  0.4222  0.1083 -0.1239
 8398SOL    HW233324   0.729   2.697   0.843  0.2558  1.6212 -0.4728
 8398SOL    HW333325   0.719   2.737   0.989  0.5668 -0.9095  0.2956
 8398SOL    MW433326   0.767   2.718   0.919 -0.4494  0.1232  0.1110
 8399SOL     OW33327   2.895   2.508   6.157  0.0786 -0.0666 -0.2095
 8399SOL    HW233328   2.913   2.422   6.120  0.3436 -0.6513  1.1857
 8399SOL    HW333329   2.928   2.502   6.247  0.3445  1.5860 -0.1670
 8399SOL    MW433330   2.902   2.496   6.164 -0.0267 -0.3668  0.2365
 8400SOL     OW33331   0.973   2.688   0.346  0.3579 -0.3617  0.3245
 8400SOL    HW233332   1.049   2.631   0.360  0.6125 -0.9426 -2.7446
 8400SOL    HW333333   0.900   2.627   0.334 -0.4005  0.1678  1.9079
 8400SOL    MW433334   0.974   2.672   0.347 -0.9714 -0.2882  0.6538
 8401SOL     OW33335   4.484   5.228   4.765 -0.9266 -0.2728  0.9634
 8401SOL    HW233336   4.482   5.133   4.774 -2.3109 -0.3158  0.4555
 8401SOL    HW333337   4.532   5.243   4.683  0.9926 -0.4120  2.0072
 8401SOL    MW433338   4.490   5.217   4.755  0.8120 -0.3558  0.3974
 8402SOL     OW33339   3.342   5.533   6.155  0.1888  1.1240 -0.3015
 8402SOL    HW233340   3.390   5.452   6.171  0.8950  1.5287 -0.3091
 8402SOL    HW333341   3.371   5.592   6.224 -0.1864  1.4265 -0.4008
 8402SOL    MW433342   3.352   5.530   6.166 -0.1330 -0.0464  0.3790
 8403SOL     OW33343   4.272   3.791   3.554  0.4294 -0.1062 -0.2874
 8403SOL    HW233344   4.242   3.798   3.645  0.1955 -1.1393 -0.2720
 8403SOL    HW333345   4.285   3.697   3.541 -1.1124 -0.1594 -1.8122
 8403SOL    MW433346   4.270   3.780   3.564  0.4865 -0.0453  0.1749
 8404SOL     OW33347   1.547   1.970   1.527  0.0750 -0.2287 -0.3944
 8404SOL    HW233348   1.616   2.035   1.520 -1.1506  1.2769  0.6856
 8404SOL    HW333349   1.519   1.954   1.436  0.3796  0.7959 -0.6803
 8404SOL    MW433350   1.552   1.977   1.514  0.1796  0.5223  0.1674
 8405SOL     OW33351   4.988   4.545   1.408 -0.2967  0.1592  0.7698
 8405SOL    HW233352   4.963   4.465   1.456 -1.2791  1.6742  2.9504
 8405SOL    HW333353   5.084   4.546   1.412 -0.0886 -1.9984 -1.2983
 8405SOL    MW433354   4.998   4.534   1.415 -0.3580  0.4082 -0.0341
 8406SOL     OW33355   6.233   5.741   1.969 -0.2726 -0.3724 -0.4161
 8406SOL    HW233356   6.263   5.754   1.879 -1.9637 -0.8753 -1.0902
 8406SOL    HW333357   6.281   5.663   1.998 -1.6158 -1.8518 -1.8714
 8406SOL    MW433358   6.243   5.732   1.961 -0.3015  0.1110 -0.0840
 8407SOL     OW33359   1.882   6.089   5.071  0.7070 -0.0935  0.1424
 8407SOL    HW233360   1.838   6.097   5.155  1.1859  0.0804  0.3767
 8407SOL    HW333361   1.889   5.995   5.057  0.3623 -0.1237  0.1534
 8407SOL    MW433362   1.877   6.078   5.080  0.1297  0.5948  0.5058
 8408SOL     OW33363   2.237   4.452   0.031 -0.0727  0.5122 -0.0641
 8408SOL    HW233364   2.294   4.483  -0.040 -1.2250  0.4538 -1.0422
 8408SOL    HW333365   2.248   4.357   0.030  0.6441  0.5738  0.5015
 8408SOL    MW433366   2.246   4.444   0.022 -0.0900 -0.2899  0.4306
 8409SOL     OW33367   2.817   5.382   4.628 -0.2472 -0.1142  0.3475
 8409SOL    HW233368   2.783   5.433   4.555 -0.8965 -0.3516  0.4744
 8409SOL    HW333369   2.912   5.388   4.620 -0.2872 -0.8031 -1.0055
 8409SOL    MW433370   2.825   5.389   4.617  0.5008  0.5676 -0.0161
 8410SOL     OW33371   5.170   1.213   1.003 -0.5237  0.1430  0.0960
 8410SOL    HW233372   5.191   1.204   0.910  0.7653 -0.7534  0.4536
 8410SOL    HW333373   5.200   1.301   1.027  1.5558 -0.5613  0.2423
 8410SOL    MW433374   5.176   1.224   0.994 -0.0715  0.0025  0.0106
 8411SOL     OW33375   0.789   0.676   0.172 -0.1991  0.4588  0.3078
 8411SOL    HW233376   0.781   0.758   0.122 -1.4700 -1.9241 -3.8688
 8411SOL    HW333377   0.881   0.652   0.165  0.0580  1.1639  1.0529
 8411SOL    MW433378   0.800   0.684   0.165 -0.1677  0.2057 -0.0074
 8412SOL     OW33379   1.667   0.031   0.011 -0.0893 -0.5789 -0.5401
 8412SOL    HW233380   1.653  -0.062   0.028  0.6348 -0.9473 -1.8760
 8412SOL    HW333381   1.682   0.069   0.098 -2.5775 -1.2754  0.2952
 8412SOL    MW433382   1.667   0.024   0.025  0.7106  0.0635 -0.7582
 8413SOL     OW33383   0.740   3.484   6.399 -0.0789 -0.2206 -0.0912
 8413SOL    HW233384   0.666   3.529   6.439  0.1337  0.0239  0.0323
 8413SOL    HW333385   0.725   3.391   6.418 -0.8057 -0.2573 -0.8290
 8413SOL    MW433386   0.729   3.478   6.407  0.7424 -0.4265  0.0592
 8414SOL     OW33387   5.198   6.132   0.755 -0.1950 -0.4354  0.0790
 8414SOL    HW233388   5.169   6.099   0.670  1.8909 -0.6644 -0.5907
 8414SOL    HW333389   5.251   6.062   0.791  0.2944  0.3025  0.8322
 8414SOL    MW433390   5.201   6.119   0.749  0.1612 -0.1601 -0.0075
 8415SOL     OW33391   5.829   2.165   3.649  0.2847  0.1513  0.1723
 8415SOL    HW233392   5.833   2.255   3.683  0.7603 -0.2507  1.2163
 8415SOL    HW333393   5.816   2.111   3.727 -0.1015 -0.6789 -0.4644
 8415SOL    MW433394   5.828   2.170   3.664 -0.3555 -0.4680 -0.6791
 8416SOL     OW33395   4.060   2.903   3.954  0.5376  0.2390 -0.1732
 8416SOL    HW233396   4.008   2.983   3.961  0.4528  0.1487  0.2700
 8416SOL    HW333397   4.133   2.927   3.897  1.1184  0.9657  0.8281
 8416SOL    MW433398   4.063   2.917   3.947 -0.1744 -0.1438 -0.7308
 8417SOL     OW33399   1.269   5.298   3.236 -0.0713  0.2281 -0.1436
 8417SOL    HW233400   1.362   5.278   3.240 -0.1272  0.0066  0.0458
 8417SOL    HW333401   1.234   5.238   3.170  0.0965  0.9994 -0.9548
 8417SOL    MW433402   1.277   5.288   3.228 -0.1302 -0.1110  0.2812
 8418SOL     OW33403   0.994   2.666   4.401 -0.2958  0.2997 -0.0231
 8418SOL    HW233404   0.927   2.728   4.428 -0.1788 -0.1439  1.3811
 8418SOL    HW333405   0.959   2.625   4.322 -1.3513  0.6062  0.2736
 8418SOL    MW433406   0.981   2.669   4.394  0.3418  0.1188 -0.6403
 8419SOL     OW33407   4.774   2.554   0.650 -0.4309 -0.4247 -0.4683
 8419SOL    HW233408   4.867   2.531   0.652 -0.6126 -1.1263  1.0381
 8419SOL    HW333409   4.735   2.491   0.589 -0.1027 -0.9040 -0.1910
 8419SOL    MW433410   4.781   2.543   0.642 -0.4674 -0.4532  0.1302
 8420SOL     OW33411   2.845   0.865   3.811 -0.0491 -0.2918 -0.2767
 8420SOL    HW233412   2.932   0.860   3.849  0.9314 -0.2681 -2.3643
 8420SOL    HW333413   2.795   0.798   3.857  1.1585 -0.5377  0.7359
 8420SOL    MW433414   2.850   0.855   3.822 -0.0002 -0.0678  0.1717
 8421SOL     OW33415   0.305   5.300   4.075  0.4336 -0.4034 -0.0448
 8421SOL    HW233416   0.386   5.345   4.051  0.1006  0.3558  0.2059
 8421SOL    HW333417   0.325   5.207   4.067  1.3565 -0.2246  0.0945
 8421SOL    MW433418   0.318   5.294   4.071 -0.5144  0.3567  0.1289
 8422SOL     OW33419   5.753   3.621   3.023  0.1072  0.3814 -0.3052
 8422SOL    HW233420   5.685   3.648   2.961  0.5046  3.1140  0.3179
 8422SOL    HW333421   5.704   3.587   3.098 -0.5481  1.3179 -0.2942
 8422SOL    MW433422   5.737   3.620   3.025  0.5704  0.2594 -0.8377
 8423SOL     OW33423   2.449   4.845   5.783 -0.6166 -1.0428 -0.1173
 8423SOL    HW233424   2.410   4.843   5.696 -0.7556  0.4651 -0.1042
 8423SOL    HW333425   2.535   4.885   5.770 -0.0979 -2.0101  0.2519
 8423SOL    MW433426   2.455   4.850   5.770 -0.3009  0.3594  0.3886
 8424SOL     OW33427   4.204   3.453   5.231  0.2349  0.4013  0.1497
 8424SOL    HW233428   4.196   3.435   5.325  0.6949  1.8426  0.4928
 8424SOL    HW333429   4.298   3.447   5.214  0.0642 -0.8305 -0.4516
 8424SOL    MW433430   4.216   3.450   5.241  0.0026 -0.6570  0.2044
 8425SOL     OW33431   3.366   2.337   5.456  0.1953 -0.0110 -0.4327
 8425SOL    HW233432   3.399   2.248   5.448 -0.3691 -0.0679 -3.3201
 8425SOL    HW333433   3.443   2.393   5.447  0.4049 -0.1678  0.3058
 8425SOL    MW433434   3.380   2.333   5.454  0.0939 -0.1911 -0.0519
 8426SOL     OW33435   0.334   5.386   4.338  0.0525  0.1296  0.4649
 8426SOL    HW233436   0.324   5.335   4.258 -0.1208 -0.1746  0.6784
 8426SOL    HW333437   0.428   5.384   4.356  0.3080  1.4489 -0.5363
 8426SOL    MW433438   0.345   5.379   4.330  0.4171 -0.0264 -0.1995
 8427SOL     OW33439   5.996   3.021   2.212 -0.3003 -0.1797  0.5089
 8427SOL    HW233440   6.044   2.957   2.159 -0.6993  0.6834 -0.9705
 8427SOL    HW333441   6.056   3.095   2.220 -0.9274  0.4518 -0.3883
 8427SOL    MW433442   6.010   3.022   2.206  0.4958 -0.0524 -0.2931
 8428SOL     OW33443   5.669   2.813   2.846 -0.3074  0.9150 -0.7093
 8428SOL    HW233444   5.719   2.893   2.866 -0.9334  1.5801 -1.7053
 8428SOL    HW333445   5.720   2.771   2.777 -0.1742  0.6437 -0.4456
 8428SOL    MW433446   5.682   2.818   2.839 -0.1378  0.3881 -0.0963
 8429SOL     OW33447   2.635   5.402   0.097  0.2001  0.3032  0.1559
 8429SOL    HW233448   2.560   5.416   0.155 -0.1971 -0.2586 -0.2174
 8429SOL    HW333449   2.710   5.436   0.146  0.0341 -1.0536  1.4274
 8429SOL    MW433450   2.635   5.408   0.111 -0.5751 -0.3287 -0.1649
 8430SOL     OW33451   5.169   2.379   6.107  0.2421 -0.4537  0.2128
 8430SOL    HW233452   5.078   2.349   6.101  0.3427 -0.5456 -2.5905
 8430SOL    HW333453   5.162   2.474   6.117 -0.2002 -0.4104 -0.4230
 8430SOL    MW433454   5.156   2.387   6.107 -0.7803 -0.7725  0.1529
 8431SOL     OW33455   2.135   4.436   4.196  0.2021  0.6064 -0.0651
 8431SOL    HW233456   2.124   4.409   4.287 -1.4790 -2.2220 -0.9902
 8431SOL    HW333457   2.050   4.473   4.172 -0.7647 -2.2040 -1.4470
 8431SOL    MW433458   2.122   4.438   4.205  0.1976  0.5714  0.7571
 8432SOL     OW33459   4.865   4.400   5.892  0.2890 -0.7413  0.2762
 8432SOL    HW233460   4.813   4.320   5.892  0.8596 -1.1869 -2.3280
 8432SOL    HW333461   4.939   4.382   5.950  0.5380 -2.2007 -0.4724
 8432SOL    MW433462   4.868   4.387   5.900 -0.2362  0.2755  0.2869
 8433SOL     OW33463   2.437   4.475   4.508  0.6732  0.1903 -0.4116
 8433SOL    HW233464   2.530   4.488   4.485  0.8566  1.4520  0.8849
 8433SOL    HW333465   2.439   4.434   4.594 -0.0135 -2.6836 -1.6506
 8433SOL    MW433466   2.450   4.471   4.516 -0.1431  0.1803 -0.0368
 8434SOL     OW33467   0.051   3.346   2.581 -0.3795  0.1842  0.2131
 8434SOL    HW233468   0.094   3.289   2.645 -0.5206  0.3509  0.4571
 8434SOL    HW333469  -0.033   3.367   2.621 -1.1801 -1.0460 -0.7249
 8434SOL    MW433470   0.045   3.341   2.595 -0.2211 -0.1878  0.2657
 8435SOL     OW33471   5.788   1.709   5.774 -0.0541  0.6261 -0.0488
 8435SOL    HW233472   5.713   1.655   5.752 -0.7371  1.2639  0.6740
 8435SOL    HW333473   5.796   1.770   5.700  0.7619 -0.4687 -0.8987
 8435SOL    MW433474   5.779   1.710   5.761  0.1371  0.3487  0.6542
 8436SOL     OW33475   4.210   4.210   1.263  0.0257  0.1118 -0.1897
 8436SOL    HW233476   4.232   4.267   1.189  0.8612 -0.9643 -0.7967
 8436SOL    HW333477   4.115   4.197   1.256 -0.1828  1.4233 -0.0252
 8436SOL    MW433478   4.200   4.216   1.253  0.1947 -0.1329 -0.1773
 8437SOL     OW33479   1.277   2.323   2.131 -0.1518 -0.0540 -0.3098
 8437SOL    HW233480   1.353   2.284   2.173 -2.6884 -2.1207  2.9142
 8437SOL    HW333481   1.234   2.374   2.200 -3.0575 -1.2114 -1.0822
 8437SOL    MW433482   1.281   2.325   2.145 -0.3916  0.2719  0.1168
 8438SOL     OW33483   3.448   4.286   1.239 -0.1603  0.3633 -0.1948
 8438SOL    HW233484   3.511   4.337   1.189  0.3777  0.0122  0.1216
 8438SOL    HW333485   3.453   4.198   1.201  0.3529  0.0585  0.5556
 8438SOL    MW433486   3.457   4.281   1.228 -0.6133  0.2526  0.1457
 8439SOL     OW33487   2.474   3.777   2.260 -0.3374 -0.2953  0.3226
 8439SOL    HW233488   2.460   3.732   2.177 -0.4731 -3.2141  1.7952
 8439SOL    HW333489   2.409   3.847   2.261 -1.1768 -1.0027 -1.4845
 8439SOL    MW433490   2.464   3.780   2.249 -0.5602 -0.3610  0.1026
 8440SOL     OW33491   1.709   3.678   4.809  0.0854  0.4454  0.5236
 8440SOL    HW233492   1.615   3.693   4.816  0.1166  0.3833  1.0849
 8440SOL    HW333493   1.727   3.610   4.874  0.6021  0.7999  0.7495
 8440SOL    MW433494   1.699   3.671   4.818  0.0252 -0.3744 -0.2291
 8441SOL     OW33495   1.133   5.887   5.824  0.1124 -0.6320  0.0957
 8441SOL    HW233496   1.227   5.890   5.843  0.7656 -0.4278 -2.6695
 8441SOL    HW333497   1.114   5.794   5.812 -0.4296 -0.8178  2.0398
 8441SOL    MW433498   1.143   5.875   5.825 -0.2475 -0.4937  0.1064
 8442SOL     OW33499   0.456   6.322   0.143  0.4316  0.6171  0.3111
 8442SOL    HW233500   0.361   6.314   0.132  0.5881 -0.9143 -0.2342
 8442SOL    HW333501   0.492   6.278   0.066  1.6198  3.2298 -0.7237
 8442SOL    MW433502   0.448   6.315   0.131  0.7927 -0.1543  0.1663
 8443SOL     OW33503   4.840   4.793   4.197 -0.1735  0.4811 -0.1631
 8443SOL    HW233504   4.762   4.803   4.144 -1.5515 -1.7433  1.2518
 8443SOL    HW333505   4.893   4.729   4.149  0.3948  1.3131 -0.6740
 8443SOL    MW433506   4.837   4.786   4.184 -0.8966 -0.1471 -0.1208
 8444SOL     OW33507   4.240   5.620   3.996  0.1050 -0.0210 -0.0353
 8444SOL    HW233508   4.153   5.590   4.021  0.1440 -0.4838 -0.4355
 8444SOL    HW333509   4.251   5.703   4.042 -0.7187  0.2629 -0.3263
 8444SOL    MW433510   4.230   5.627   4.005 -0.3840 -0.2817 -0.7473
 8445SOL     OW33511   2.413   3.884   3.867 -0.4715  0.7060 -0.0073
 8445SOL    HW233512   2.447   3.852   3.783 -0.0467  0.6258  0.1944
 8445SOL    HW333513   2.320   3.898   3.851 -0.2783  1.3038 -0.6788
 8445SOL    MW433514   2.405   3.882   3.854  0.0683 -0.0764 -0.7517
 8446SOL     OW33515   6.112   3.418   0.888 -0.1915  0.2167  1.2485
 8446SOL    HW233516   6.196   3.464   0.883  0.6850 -1.4158 -2.7916
 8446SOL    HW333517   6.136   3.326   0.896 -1.5595 -0.2840 -0.0752
 8446SOL    MW433518   6.127   3.412   0.889 -0.0569 -0.2759  0.1902
 8447SOL     OW33519   1.155   2.488   0.190  0.0694 -0.6143  0.4227
 8447SOL    HW233520   1.243   2.519   0.210  0.2999 -1.5633  0.9048
 8447SOL    HW333521   1.120   2.553   0.128  0.5283  0.6015  1.4098
 8447SOL    MW433522   1.162   2.501   0.184  0.7253 -0.0658  0.7642
 8448SOL     OW33523   1.567   3.027   3.487  0.2357 -0.0157  0.8443
 8448SOL    HW233524   1.478   2.992   3.494  0.6072 -0.7741  2.1620
 8448SOL    HW333525   1.619   2.953   3.455  0.6162  0.0373  1.3350
 8448SOL    MW433526   1.562   3.012   3.484 -0.4213  0.0058  0.4034
 8449SOL     OW33527   6.404   5.529   5.349 -0.4063 -0.3180 -0.0949
 8449SOL    HW233528   6.347   5.606   5.351 -1.5739 -1.1664  0.3641
 8449SOL    HW333529   6.487   5.561   5.314 -0.3964  1.4562  1.3842
 8449SOL    MW433530   6.407   5.543   5.345 -0.4949 -0.0966 -0.1245
 8450SOL     OW33531   3.122   0.427   4.266 -0.1318 -0.1276 -0.0633
 8450SOL    HW233532   3.030   0.416   4.244 -0.3914  2.3907 -0.5308
 8450SOL    HW333533   3.153   0.338   4.283 -2.2465 -1.2046 -1.3658
 8450SOL    MW433534   3.114   0.414   4.265 -0.7784  0.0869 -0.4562
 8451SOL     OW33535   6.360   6.301   5.575  0.6619  0.0069  0.9865
 8451SOL    HW233536   6.386   6.210   5.588 -1.7434 -0.9859 -0.4648
 8451SOL    HW333537   6.326   6.303   5.486 -0.7157  1.9720  1.5042
 8451SOL    MW433538   6.359   6.289   5.565 -0.1511 -0.3991 -0.3152
 8452SOL     OW33539   3.654   2.700   5.680 -0.0654 -0.0008  0.5254
 8452SOL    HW233540   3.629   2.632   5.618 -0.9501 -1.2578  2.1594
 8452SOL    HW333541   3.578   2.757   5.686 -1.3033 -1.7178  2.7442
 8452SOL    MW433542   3.641   2.699   5.673 -1.0793 -0.1123  0.1919
 8453SOL     OW33543   2.085   2.614   2.709  0.3788  0.0585 -0.0730
 8453SOL    HW233544   2.139   2.629   2.632  2.1374 -2.5016  0.5240
 8453SOL    HW333545   2.094   2.693   2.761  2.0571  0.4401 -0.8840
 8453SOL    MW433546   2.093   2.626   2.706  0.5848  0.2648 -0.3204
 8454SOL     OW33547   5.926   2.575   2.221 -0.1064  0.1842 -0.1306
 8454SOL    HW233548   5.881   2.627   2.289 -0.1989 -0.2325  0.1364
 8454SOL    HW333549   6.018   2.597   2.232 -0.1762  0.5530 -0.2494
 8454SOL    MW433550   5.932   2.585   2.232 -0.0022 -0.0101 -0.2499
 8455SOL     OW33551   2.863   4.047   5.748 -0.3478 -0.2101 -0.0968
 8455SOL    HW233552   2.881   4.045   5.842 -0.9330 -1.6521  0.0138
 8455SOL    HW333553   2.948   4.030   5.707  0.0060  0.9115  0.1290
 8455SOL    MW433554   2.876   4.045   5.755 -0.1653  0.0155  0.2735
 8456SOL     OW33555   4.537   5.806   0.679  0.0606 -0.2345 -0.6637
 8456SOL    HW233556   4.533   5.901   0.672 -0.6949 -0.1392  0.7067
 8456SOL    HW333557   4.626   5.788   0.713 -0.0505  0.0513 -0.2064
 8456SOL    MW433558   4.548   5.816   0.683  0.0702  0.0624 -0.0486
 8457SOL     OW33559   3.145   2.851   1.658  0.2866  0.1811 -0.0761
 8457SOL    HW233560   3.177   2.816   1.742  2.3942  1.9409 -0.0524
 8457SOL    HW333561   3.205   2.813   1.593 -0.7073 -0.3709 -0.6885
 8457SOL    MW433562   3.157   2.841   1.660 -0.1996 -0.5373  0.3182
 8458SOL     OW33563   1.107   5.791   5.489 -0.3266 -0.4440  0.0440
 8458SOL    HW233564   1.103   5.696   5.493 -0.8590 -0.4130  0.2196
 8458SOL    HW333565   1.178   5.815   5.549 -0.7611 -0.6750  0.6500
 8458SOL    MW433566   1.116   5.782   5.498 -0.7496  0.3818 -0.4588
 8459SOL     OW33567   3.139   0.932   3.561 -0.3500  0.3764 -0.2728
 8459SOL    HW233568   3.058   0.884   3.546 -0.1669  0.0877 -0.3428
 8459SOL    HW333569   3.124   0.982   3.641 -0.3791 -0.1397  0.0418
 8459SOL    MW433570   3.127   0.933   3.569  0.5615 -0.6319 -0.3285
 8460SOL     OW33571   2.834   1.396   1.370  0.6960 -0.2479  0.0688
 8460SOL    HW233572   2.832   1.303   1.394 -0.4194 -0.5209 -0.9996
 8460SOL    HW333573   2.849   1.397   1.276 -0.8505  0.5701 -0.2099
 8460SOL    MW433574   2.836   1.384   1.361 -0.2813  0.3286  0.5229
 8461SOL     OW33575   5.749   2.216   2.655  0.0578 -0.2740  0.0135
 8461SOL    HW233576   5.727   2.208   2.562 -2.6090  1.1945  0.4206
 8461SOL    HW333577   5.681   2.274   2.691  1.3303 -0.3440  2.7732
 8461SOL    MW433578   5.737   2.222   2.648 -0.1814  0.5834  0.3025
 8462SOL     OW33579   4.584   3.012   1.216 -0.3586  0.1169  0.2595
 8462SOL    HW233580   4.609   2.989   1.305  2.1220  3.2288  0.5095
 8462SOL    HW333581   4.645   2.963   1.161 -0.9051 -0.6286  0.2964
 8462SOL    MW433582   4.595   3.002   1.220 -0.1245 -0.4394  0.1605
 8463SOL     OW33583   0.383   4.844   1.403  0.0579  0.1486 -0.3726
 8463SOL    HW233584   0.296   4.821   1.433 -0.3988  0.5491 -1.3518
 8463SOL    HW333585   0.438   4.771   1.432 -0.6809 -0.3186 -0.1265
 8463SOL    MW433586   0.379   4.831   1.411 -0.2722  0.4675  0.2460
 8464SOL     OW33587   1.071   1.400   3.597  0.0523  0.2342  0.3178
 8464SOL    HW233588   1.047   1.344   3.671  1.2897  1.1875  1.4827
 8464SOL    HW333589   1.162   1.422   3.613 -0.1198  1.7382 -0.6603
 8464SOL    MW433590   1.080   1.395   3.609  0.4488  0.2836  0.2564
 8465SOL     OW33591   1.611   3.620   2.301 -0.2569 -0.3201  0.4991
 8465SOL    HW233592   1.609   3.527   2.324 -3.4498 -0.2585  0.8999
 8465SOL    HW333593   1.697   3.650   2.332 -0.2397 -2.5089  2.9490
 8465SOL    MW433594   1.622   3.612   2.308  0.3805  0.2672  0.4109
 8466SOL     OW33595   3.709   3.967   2.722  0.1974  0.4941  0.6335
 8466SOL    HW233596   3.639   3.946   2.660 -0.1544  1.1426  0.8023
 8466SOL    HW333597   3.738   3.882   2.755 -1.3831  0.2485  1.5013
 8466SOL    MW433598   3.704   3.953   2.718  0.0498  0.3398 -0.0935
 8467SOL     OW33599   5.380   3.918   0.913 -0.1110  0.7032  0.2294
 8467SOL    HW233600   5.393   3.930   1.007  0.6970  0.1370  0.1967
 8467SOL    HW333601   5.468   3.909   0.877 -0.4434  0.1083 -0.4663
 8467SOL    MW433602   5.393   3.919   0.920 -0.1585  0.2109 -0.3201
 8468SOL     OW33603   1.236   0.171   2.489  0.0193  0.5518  0.0053
 8468SOL    HW233604   1.305   0.143   2.548  0.0259  0.4931 -0.0302
 8468SOL    HW333605   1.230   0.266   2.502  0.4213  0.6249 -0.3282
 8468SOL    MW433606   1.244   0.180   2.499 -0.0427 -0.0871 -0.4241
 8469SOL     OW33607   2.760   2.709   4.464 -0.1960 -0.1235 -0.5681
 8469SOL    HW233608   2.701   2.768   4.417 -0.3449 -0.6380 -1.0405
 8469SOL    HW333609   2.789   2.646   4.398 -0.1119 -0.6361 -0.0570
 8469SOL    MW433610   2.756   2.708   4.449 -0.4842 -0.0279  0.1080
 8470SOL     OW33611   3.092   4.652   2.047 -0.0930 -0.0780  0.0941
 8470SOL    HW233612   3.082   4.569   2.092 -0.4947  0.4454  0.9862
 8470SOL    HW333613   3.181   4.681   2.069 -0.2729  0.1557  0.5187
 8470SOL    MW433614   3.103   4.645   2.056  0.2905  0.5334  0.2606
 8471SOL     OW33615   5.696   2.428   4.527  0.1958 -0.2960 -0.5683
 8471SOL    HW233616   5.648   2.366   4.583 -0.8254  0.6106 -0.3991
 8471SOL    HW333617   5.779   2.442   4.573 -0.4456  0.0917  0.5166
 8471SOL    MW433618   5.701   2.422   4.541 -0.3850 -0.1403  0.9436
 8472SOL     OW33619   3.781   5.917   3.093 -0.5014  0.4621 -0.4518
 8472SOL    HW233620   3.844   5.987   3.077 -1.3254  1.5049  0.7070
 8472SOL    HW333621   3.809   5.878   3.176 -0.1972 -0.4434 -0.9628
 8472SOL    MW433622   3.793   5.921   3.102 -0.3174  0.4396  0.0577
 8473SOL     OW33623   0.786   4.402   1.773 -0.2216 -0.2617  0.3362
 8473SOL    HW233624   0.777   4.422   1.866  3.0476 -0.8836  0.9060
 8473SOL    HW333625   0.794   4.488   1.730  1.3075  0.0014  1.0872
 8473SOL    MW433626   0.786   4.416   1.779  0.0219  0.1659 -0.1692
 8474SOL     OW33627   2.070   5.175   0.001 -0.6449  0.0286  0.2551
 8474SOL    HW233628   2.060   5.082  -0.015 -0.6464  0.1612 -0.5353
 8474SOL    HW333629   1.980   5.209   0.005 -0.6459  0.4300 -2.1364
 8474SOL    MW433630   2.057   5.168   0.000  0.2923 -0.1298  0.3200
 8475SOL     OW33631   3.534   2.321   6.154  0.0435  0.0898 -0.1912
 8475SOL    HW233632   3.539   2.385   6.083  2.5200  0.2345  0.0144
 8475SOL    HW333633   3.457   2.347   6.205  0.6432  2.5981 -0.4451
 8475SOL    MW433634   3.525   2.333   6.151  0.3119 -0.2611 -0.3770
 8476SOL     OW33635   3.495   5.841   5.032 -0.1991 -0.2102  0.3751
 8476SOL    HW233636   3.410   5.839   4.989  0.3069 -0.3428 -0.6666
 8476SOL    HW333637   3.491   5.917   5.090  0.5418  2.7716 -3.1177
 8476SOL    MW433638   3.483   5.850   5.034  0.5338  0.1695 -0.0142
 8477SOL     OW33639   2.628   1.500   4.414 -0.3661  0.5897  0.1830
 8477SOL    HW233640   2.717   1.512   4.448 -0.7862  3.2812  0.5922
 8477SOL    HW333641   2.592   1.428   4.465  0.8359  0.9638  1.6294
 8477SOL    MW433642   2.635   1.492   4.425 -0.0528  0.4072 -0.0856
 8478SOL     OW33643   5.353   3.039   3.123  0.4572 -0.0595 -0.6595
 8478SOL    HW233644   5.365   2.945   3.109 -0.4798 -0.5115  1.1856
 8478SOL    HW333645   5.295   3.044   3.199  1.1667  2.0262 -0.1980
 8478SOL    MW433646   5.347   3.027   3.131  0.1943 -0.3419 -0.1167
 8479SOL     OW33647   1.421   0.705   6.251  0.1064  0.5441 -0.1105
 8479SOL    HW233648   1.490   0.687   6.315 -0.7403 -0.4221  0.5497
 8479SOL    HW333649   1.466   0.755   6.182  1.3876  0.2378  0.4585
 8479SOL    MW433650   1.436   0.709   6.250  0.0356 -0.7772  0.2694
 8480SOL     OW33651   3.563   5.330   5.437 -0.0503 -0.1295 -0.3656
 8480SOL    HW233652   3.547   5.237   5.453 -1.0752  0.3906  2.1400
 8480SOL    HW333653   3.475   5.368   5.426  0.1669  0.9159  1.2506
 8480SOL    MW433654   3.549   5.323   5.437  0.3052  0.4329  0.0810
 8481SOL     OW33655   6.048   0.664   2.554  0.1203  0.0456  0.1322
 8481SOL    HW233656   5.973   0.716   2.585 -0.5925 -0.4742 -0.6745
 8481SOL    HW333657   6.085   0.627   2.634 -0.3977  0.4211  0.5594
 8481SOL    MW433658   6.043   0.666   2.569  0.0994  0.0230  0.0406
 8482SOL     OW33659   5.521   4.006   2.762  0.3982  0.1833 -0.7981
 8482SOL    HW233660   5.426   4.005   2.768  0.4521  1.4334  2.0197
 8482SOL    HW333661   5.545   4.097   2.782  2.2007 -0.5363  0.6083
 8482SOL    MW433662   5.512   4.018   2.765 -0.3229  0.0410  0.0728
 8483SOL     OW33663   1.339   3.240   1.972 -0.0763 -0.4160  0.2487
 8483SOL    HW233664   1.304   3.252   1.884  1.3676 -0.9257 -0.4355
 8483SOL    HW333665   1.331   3.327   2.013 -0.4557 -0.0862 -0.5123
 8483SOL    MW433666   1.334   3.253   1.966  0.5307 -0.4818  0.7770
 8484SOL     OW33667   5.386   6.013   0.325  0.4195 -0.2151  0.0839
 8484SOL    HW233668   5.296   5.982   0.313  1.2107 -1.8193 -2.4839
 8484SOL    HW333669   5.380   6.108   0.312 -0.9103 -0.2679  0.1073
 8484SOL    MW433670   5.373   6.022   0.322  0.2377  0.3347  0.4878
 8485SOL     OW33671   0.904   0.906   2.107  0.3575 -0.3460 -0.4101
 8485SOL    HW233672   0.854   0.870   2.034 -0.0488  0.1996 -0.4118
 8485SOL    HW333673   0.846   0.897   2.183 -0.1647  1.1850 -0.5934
 8485SOL    MW433674   0.890   0.900   2.107 -0.5547 -0.4939  0.1048
 8486SOL     OW33675   0.573   1.656   4.269 -0.5610  0.1112  0.0476
 8486SOL    HW233676   0.620   1.608   4.201  1.2870 -0.3493  1.5554
 8486SOL    HW333677   0.504   1.595   4.298  0.3261 -0.7479  0.3927
 8486SOL    MW433678   0.570   1.641   4.264  0.5897  0.5533 -0.3920
 8487SOL     OW33679   3.781   6.114   0.761  0.0565  0.3530  0.6689
 8487SOL    HW233680   3.686   6.116   0.774  0.2132  0.1453  2.0666
 8487SOL    HW333681   3.807   6.206   0.763  0.1074  0.3345  2.4461
 8487SOL    MW433682   3.771   6.127   0.763 -0.6728 -0.1089 -0.6104
 8488SOL     OW33683   5.564   0.010   4.267 -0.0329 -0.1445 -0.7128
 8488SOL    HW233684   5.533  -0.032   4.186  2.1903 -1.7862 -0.8133
 8488SOL    HW333685   5.573   0.102   4.244 -3.9302  0.3807 -0.8561
 8488SOL    MW433686   5.561   0.016   4.253  0.0579 -0.0179 -0.1457
 8489SOL     OW33687   1.124   0.227   3.396 -0.4956 -0.3091  0.1347
 8489SOL    HW233688   1.212   0.190   3.398 -0.4105 -0.0743  2.1241
 8489SOL    HW333689   1.081   0.192   3.474 -1.9532  0.1230 -0.4413
 8489SOL    MW433690   1.130   0.218   3.406 -0.0548 -0.0527 -0.2042
 8490SOL     OW33691   3.222   3.343   1.327  0.1338 -0.7651  0.5873
 8490SOL    HW233692   3.281   3.398   1.377  2.2196 -0.8849 -1.5535
 8490SOL    HW333693   3.276   3.309   1.255 -2.6876 -0.3271 -1.9426
 8490SOL    MW433694   3.237   3.346   1.324  0.0894 -0.1752  0.2996
 8491SOL     OW33695   3.864   4.006   5.557  0.8988  0.9179  0.0832
 8491SOL    HW233696   3.936   4.045   5.507  1.3760 -1.4731 -1.2947
 8491SOL    HW333697   3.786   4.022   5.504  1.0974  0.0781 -0.4914
 8491SOL    MW433698   3.863   4.013   5.543  0.2882 -0.4260 -0.1773
 8492SOL     OW33699   0.729   1.820   1.918 -0.2114 -0.3456 -0.1491
 8492SOL    HW233700   0.759   1.873   1.992 -0.2216  0.1238 -0.4719
 8492SOL    HW333701   0.663   1.875   1.875 -0.3879 -0.7196 -0.3551
 8492SOL    MW433702   0.725   1.835   1.922  0.3139 -0.4721  0.0268
 8493SOL     OW33703   0.684   4.411   5.769 -0.1437 -0.3802  0.2899
 8493SOL    HW233704   0.735   4.446   5.696  0.1441  0.3913  0.8434
 8493SOL    HW333705   0.712   4.320   5.776  1.6137  0.1679  0.9412
 8493SOL    MW433706   0.695   4.404   5.760 -0.0950  0.0035 -0.1725
 8494SOL     OW33707   4.942   0.918   0.057 -0.0072  0.6986  0.0514
 8494SOL    HW233708   4.981   0.834   0.081 -1.1476 -0.1070 -0.8193
 8494SOL    HW333709   5.015   0.980   0.060  0.5839 -0.0068  2.1276
 8494SOL    MW433710   4.957   0.915   0.061 -0.4892  0.0866  0.3435
 8495SOL     OW33711   5.760   5.545   1.072 -0.1780 -0.6351 -0.1098
 8495SOL    HW233712   5.826   5.614   1.083 -0.2680 -0.2480 -1.7806
 8495SOL    HW333713   5.765   5.495   1.154  0.0861  1.1529  1.0308
 8495SOL    MW433714   5.770   5.548   1.084 -0.4439 -0.3728 -0.2182
 8496SOL     OW33715   2.620   0.784   5.392  0.3459  0.7609 -0.4532
 8496SOL    HW233716   2.609   0.700   5.348  1.3503 -0.0958  0.8348
 8496SOL    HW333717   2.697   0.771   5.448 -0.6400  1.8966  1.2468
 8496SOL    MW433718   2.629   0.771   5.394  0.3619 -0.0572 -1.1671
 8497SOL     OW33719   5.164   1.228   5.219  0.3321  0.0375 -0.5707
 8497SOL    HW233720   5.093   1.247   5.158  0.4672 -0.1819 -0.7956
 8497SOL    HW333721   5.237   1.200   5.164  1.3948  2.5526 -0.5653
 8497SOL    MW433722   5.164   1.227   5.204 -0.3044  0.4845 -0.0410
 8498SOL     OW33723   3.121   1.155   0.709  0.0395 -0.1333 -0.1189
 8498SOL    HW233724   3.209   1.140   0.744 -0.2670 -1.3487  0.1796
 8498SOL    HW333725   3.122   1.246   0.678  1.3798 -0.1157 -0.0656
 8498SOL    MW433726   3.133   1.165   0.709  0.0166  0.1389 -0.4195
 8499SOL     OW33727   5.878   5.877   0.455 -0.6108 -0.9765 -0.3716
 8499SOL    HW233728   5.845   5.961   0.486  0.1962 -0.5001 -0.7681
 8499SOL    HW333729   5.803   5.818   0.460 -0.8142 -0.6234  1.3635
 8499SOL    MW433730   5.864   5.880   0.460 -0.0891  0.2277  0.2016
 8500SOL     OW33731   2.057   3.781   5.219 -0.1736 -0.0631  0.7001
 8500SOL    HW233732   2.151   3.795   5.212 -0.4586  2.2473  0.7404
 8500SOL    HW333733   2.024   3.795   5.130 -0.4988 -0.8833  0.6806
 8500SOL    MW433734   2.065   3.785   5.206  0.1548 -0.0540  0.0471
 8501SOL     OW33735   0.329   3.825   2.192  0.0458  0.2873  0.5609
 8501SOL    HW233736   0.324   3.881   2.114  2.2705 -0.3076 -0.1080
 8501SOL    HW333737   0.330   3.735   2.157 -0.2837 -0.0446  1.3805
 8501SOL    MW433738   0.329   3.820   2.177  0.2260 -0.0073  0.1922
 8502SOL     OW33739   1.842   3.596   3.513 -0.0138 -0.2085 -0.1935
 8502SOL    HW233740   1.934   3.609   3.489 -0.0114 -0.9472 -0.6413
 8502SOL    HW333741   1.796   3.670   3.472  0.4126  0.3189  0.2721
 8502SOL    MW433742   1.848   3.607   3.504  0.2255  0.0316  0.5080
 8503SOL     OW33743   5.604   0.225   1.674 -0.2361  0.3599 -0.5672
 8503SOL    HW233744   5.606   0.233   1.770 -0.3599 -1.5053 -0.3739
 8503SOL    HW333745   5.511   0.221   1.652 -0.2113  0.9517 -0.7926
 8503SOL    MW433746   5.592   0.225   1.684 -0.1660 -0.1437 -0.4548
 8504SOL     OW33747   4.179   0.860   3.362 -0.1440  0.4728  0.0485
 8504SOL    HW233748   4.254   0.917   3.380  0.4040 -0.3994  0.6620
 8504SOL    HW333749   4.207   0.808   3.286 -0.8065  1.2809 -0.7758
 8504SOL    MW433750   4.193   0.860   3.354  0.2793  0.1128  0.3870
 8505SOL     OW33751   4.147   0.218   1.711 -0.1874 -0.3380 -0.1680
 8505SOL    HW233752   4.230   0.234   1.757 -0.2778  0.3998 -0.2620
 8505SOL    HW333753   4.081   0.215   1.780 -0.1769 -0.2713 -0.1553
 8505SOL    MW433754   4.150   0.219   1.726  0.3972 -0.4080 -0.7485
 8506SOL     OW33755   1.952   3.430   1.942 -0.3383 -0.9533 -1.1469
 8506SOL    HW233756   2.042   3.414   1.972 -0.7554 -1.2272 -0.0308
 8506SOL    HW333757   1.949   3.388   1.856  1.1412  0.6347 -2.0429
 8506SOL    MW433758   1.964   3.422   1.934 -0.6612  0.0789 -0.0193
 8507SOL     OW33759   3.918   3.398   5.685 -0.1695 -0.3880  0.5392
 8507SOL    HW233760   3.966   3.476   5.713  0.5043 -0.7691  0.4670
 8507SOL    HW333761   3.957   3.374   5.601 -2.4263  0.9697 -1.0115
 8507SOL    MW433762   3.929   3.405   5.677  0.3602  0.3844 -0.1233
 8508SOL     OW33763   3.259   1.176   1.754  0.0875  0.3195  0.3193
 8508SOL    HW233764   3.319   1.110   1.719  1.6296  0.5406  2.4022
 8508SOL    HW333765   3.172   1.142   1.733  0.8639 -1.1956 -0.6939
 8508SOL    MW433766   3.255   1.163   1.746 -0.1130  0.3716 -1.1044
 8509SOL     OW33767   4.956   1.855   4.488 -0.0658 -0.3181 -0.8592
 8509SOL    HW233768   4.927   1.901   4.567 -0.0389  0.2016 -1.1501
 8509SOL    HW333769   5.047   1.831   4.506  0.4391  1.1656 -1.3350
 8509SOL    MW433770   4.964   1.858   4.501  0.3750  0.2271 -0.8440
 8510SOL     OW33771   3.628   2.077   5.248 -0.2148 -0.2698 -0.0351
 8510SOL    HW233772   3.670   2.162   5.237 -1.0276  0.5860  2.6682
 8510SOL    HW333773   3.699   2.016   5.264  0.2356  0.4013  0.5614
 8510SOL    MW433774   3.643   2.080   5.249  0.0747  0.0479  0.2884
 8511SOL     OW33775   1.815   5.172   3.989 -0.2307  0.1620  0.4351
 8511SOL    HW233776   1.847   5.125   4.066  0.4077 -2.6235 -1.3769
 8511SOL    HW333777   1.740   5.121   3.959 -0.1461  0.8634 -1.0842
 8511SOL    MW433778   1.810   5.159   3.995 -0.2572 -0.2830 -0.2273
 8512SOL     OW33779   1.532   0.931   0.805  0.1868 -0.3878  0.5212
 8512SOL    HW233780   1.551   1.016   0.845 -0.7858 -0.4475  1.1473
 8512SOL    HW333781   1.602   0.873   0.835  0.1821 -0.1088  1.0794
 8512SOL    MW433782   1.544   0.935   0.814  0.8028  0.0844  0.0413
 8513SOL     OW33783   1.763   1.965   4.673 -0.3838 -0.5337 -0.2071
 8513SOL    HW233784   1.799   2.053   4.681 -0.5181 -0.4766 -0.2304
 8513SOL    HW333785   1.683   1.967   4.725 -0.8406 -0.3922 -0.9009
 8513SOL    MW433786   1.757   1.977   4.681 -0.0502 -0.1712  0.5427
 8514SOL     OW33787   4.822   4.297   2.862 -0.0688 -0.2057 -0.2146
 8514SOL    HW233788   4.864   4.225   2.816 -0.3077  1.4238 -3.2208
 8514SOL    HW333789   4.734   4.302   2.824 -0.2594  1.2982  0.3235
 8514SOL    MW433790   4.816   4.288   2.851  0.2374 -0.0961 -0.5999
 8515SOL     OW33791   0.448   5.162   2.835  0.0063 -0.2989 -0.1636
 8515SOL    HW233792   0.538   5.138   2.858 -0.4361 -1.0498  0.8552
 8515SOL    HW333793   0.433   5.120   2.751  1.4459  1.9581 -1.6572
 8515SOL    MW433794   0.458   5.154   2.827 -0.1392 -0.3893  0.1426
 8516SOL     OW33795   0.923   4.757   5.600 -0.5549  0.3507 -0.3241
 8516SOL    HW233796   0.966   4.744   5.685 -0.5988 -0.6419 -0.4471
 8516SOL    HW333797   0.832   4.774   5.622 -0.4779  0.5521 -0.1539
 8516SOL    MW433798   0.917   4.758   5.614  0.0386  0.1737 -0.3162
 8517SOL     OW33799   6.361   3.608   1.186  0.7151  0.2515  0.6380
 8517SOL    HW233800   6.422   3.558   1.131 -0.1189  0.1255 -0.1959
 8517SOL    HW333801   6.418   3.661   1.242  1.6024  0.4459 -0.4110
 8517SOL    MW433802   6.377   3.608   1.186 -0.1195 -0.2617 -0.1543
 8518SOL     OW33803   0.362   2.116   3.881  0.4503  0.0165  0.5146
 8518SOL    HW233804   0.339   2.192   3.934 -2.7084 -1.4648  1.5478
 8518SOL    HW333805   0.313   2.127   3.799  0.2294 -0.7120  0.5363
 8518SOL    MW433806   0.352   2.127   3.877  0.2301  0.1198  0.1904
 8519SOL     OW33807   2.739   0.763   4.524 -0.2830 -0.3319 -0.0440
 8519SOL    HW233808   2.771   0.673   4.527 -0.0125 -0.3248 -1.7393
 8519SOL    HW333809   2.769   0.802   4.606  4.2182 -0.2926 -1.4207
 8519SOL    MW433810   2.747   0.756   4.535 -0.3421 -0.2426 -0.3722
 8520SOL     OW33811   3.098   3.529   2.781  0.0086 -0.0144  0.3294
 8520SOL    HW233812   3.175   3.583   2.799  0.3176 -0.3653  0.0806
 8520SOL    HW333813   3.056   3.570   2.706 -0.1324  0.2638  0.5580
 8520SOL    MW433814   3.103   3.541   2.773  0.3175  0.3709  0.6625
 8521SOL     OW33815   0.092   3.762  -0.004  0.4115 -0.7815 -0.7833
 8521SOL    HW233816   0.023   3.798  -0.061 -0.8181 -1.3497  0.2991
 8521SOL    HW333817   0.098   3.824   0.068 -0.5829 -1.8559  0.2691
 8521SOL    MW433818   0.083   3.775  -0.002 -0.0078  0.3243  0.1323
 8522SOL     OW33819   1.788   4.847   0.815 -0.1828 -0.0319  0.2631
 8522SOL    HW233820   1.770   4.916   0.878 -0.0937  2.1032 -1.9320
 8522SOL    HW333821   1.701   4.821   0.782 -0.0749  1.7842 -1.6308
 8522SOL    MW433822   1.774   4.852   0.819  0.4521 -0.2103  0.2721
 8523SOL     OW33823   0.201   3.202   2.774 -0.3062 -0.0713  0.7151
 8523SOL    HW233824   0.277   3.170   2.725 -1.6793 -1.0478 -0.8794
 8523SOL    HW333825   0.232   3.208   2.865  1.7026 -0.2741  0.0904
 8523SOL    MW433826   0.215   3.198   2.780  0.7101 -0.6134  0.3894
 8524SOL     OW33827   5.205   4.185   3.117 -0.0145  0.1244 -0.4000
 8524SOL    HW233828   5.186   4.096   3.146  0.5953  0.7312  2.0740
 8524SOL    HW333829   5.299   4.196   3.132 -0.2464  1.4733  0.2300
 8524SOL    MW433830   5.215   4.175   3.122  0.0935 -0.0989  0.2590
 8525SOL     OW33831   1.841   3.387   4.743 -0.0946 -0.0031  1.0363
 8525SOL    HW233832   1.781   3.447   4.698  0.6836 -0.5814 -0.8898
 8525SOL    HW333833   1.810   3.300   4.718  1.6377 -0.3146 -0.2369
 8525SOL    MW433834   1.829   3.383   4.733  0.1627 -0.3844 -0.8264
 8526SOL     OW33835   3.615   4.242   5.920 -0.2668  0.2338 -0.6579
 8526SOL    HW233836   3.531   4.202   5.939 -0.1546 -1.0388 -2.5380
 8526SOL    HW333837   3.593   4.328   5.884 -0.6322  0.7669  0.7647
 8526SOL    MW433838   3.601   4.248   5.917 -0.1023 -0.2758  0.1841
 8527SOL     OW33839   0.709   1.319   5.248  0.2447 -0.0280 -0.0669
 8527SOL    HW233840   0.644   1.387   5.230  0.0905 -0.8438 -3.1889
 8527SOL    HW333841   0.791   1.357   5.217  0.2311 -1.0477 -1.4123
 8527SOL    MW433842   0.711   1.333   5.242 -0.2328  0.2802  0.5075
 8528SOL     OW33843   4.755   2.647   2.192 -0.2891 -0.2375  0.5565
 8528SOL    HW233844   4.710   2.677   2.112 -1.5517  1.0339  1.6934
 8528SOL    HW333845   4.834   2.603   2.159 -1.9576 -1.9250 -1.5020
 8528SOL    MW433846   4.760   2.645   2.177  0.9710  0.6188  0.1507
 8529SOL     OW33847   0.166   4.215   5.441  0.0449  0.3933  0.2399
 8529SOL    HW233848   0.110   4.292   5.429  0.3505  0.4914 -0.6113
 8529SOL    HW333849   0.105   4.142   5.450 -0.2519  0.7400  1.1914
 8529SOL    MW433850   0.151   4.216   5.440 -0.4545 -0.2580 -0.0235
 8530SOL     OW33851   6.011   5.967   2.231 -0.3443 -0.9323  0.0957
 8530SOL    HW233852   5.918   5.987   2.228 -0.0181  0.4940 -2.3756
 8530SOL    HW333853   6.020   5.885   2.182 -0.1520 -0.3621 -0.8334
 8530SOL    MW433854   6.000   5.959   2.224 -0.1381 -0.0598 -0.1405
 8531SOL     OW33855   4.195   2.605   1.296  0.1288 -0.5900  0.0376
 8531SOL    HW233856   4.143   2.615   1.375  0.6991  0.4775  0.2897
 8531SOL    HW333857   4.135   2.565   1.232 -0.3419 -1.4297  0.9783
 8531SOL    MW433858   4.180   2.601   1.298 -0.3836 -0.2276  0.0508
 8532SOL     OW33859   0.203   1.682   6.036 -0.5773 -0.1870  0.3422
 8532SOL    HW233860   0.168   1.744   6.100 -0.6499  0.1136  0.0116
 8532SOL    HW333861   0.177   1.596   6.070 -0.7983 -0.0193  0.6043
 8532SOL    MW433862   0.195   1.679   6.049 -0.7035 -0.0302 -0.1843
 8533SOL     OW33863   4.020   2.378   2.712 -0.0254 -0.3012  0.1641
 8533SOL    HW233864   3.937   2.343   2.744 -0.2586 -0.2001 -0.3163
 8533SOL    HW333865   4.046   2.442   2.778 -1.3924  1.2031 -0.6866
 8533SOL    MW433866   4.012   2.382   2.725  0.4298  0.4823  0.0988
 8534SOL     OW33867   2.387   1.674   5.220  0.0587  0.0145  0.7104
 8534SOL    HW233868   2.350   1.729   5.288 -1.6457  0.8779 -0.8281
 8534SOL    HW333869   2.321   1.673   5.151  2.3827  0.6955 -1.7261
 8534SOL    MW433870   2.374   1.681   5.220  0.3911  0.2436 -0.1628
 8535SOL     OW33871   3.516   4.321   2.381  0.2474  0.2635  0.3498
 8535SOL    HW233872   3.603   4.286   2.365  0.5293  1.1792 -0.2185
 8535SOL    HW333873   3.525   4.375   2.459 -0.0256 -0.3299  0.8068
 8535SOL    MW433874   3.528   4.323   2.389  0.2398 -0.0648 -0.2097
 8536SOL     OW33875   4.123   2.203   0.460  0.1787  0.2177  0.5376
 8536SOL    HW233876   4.168   2.149   0.396 -1.8441 -0.2766 -0.5799
 8536SOL    HW333877   4.160   2.290   0.449  1.2890 -0.2923  0.1409
 8536SOL    MW433878   4.134   2.208   0.450 -0.2930  0.1984  0.0248
 8537SOL     OW33879   3.276   1.597   0.765 -0.5159  0.0481  0.0322
 8537SOL    HW233880   3.353   1.628   0.717 -0.7538 -0.6197 -0.8045
 8537SOL    HW333881   3.257   1.668   0.827  1.9026 -0.5827  1.6334
 8537SOL    MW433882   3.283   1.611   0.767  0.3263 -0.2329  0.1643
 8538SOL     OW33883   5.306   2.292   2.498  0.4335 -0.3164  1.1683
 8538SOL    HW233884   5.399   2.312   2.486  0.4514 -0.1348  1.5718
 8538SOL    HW333885   5.302   2.244   2.581  0.4146 -2.2395  0.1000
 8538SOL    MW433886   5.318   2.288   2.508 -0.3488 -0.1772 -0.2713
 8539SOL     OW33887   4.437   3.938   1.817  0.2470 -0.2031 -0.6381
 8539SOL    HW233888   4.476   3.946   1.730  0.0573 -2.0107 -0.9183
 8539SOL    HW333889   4.509   3.910   1.874 -0.1973 -1.7719 -0.7990
 8539SOL    MW433890   4.451   3.936   1.813 -0.3463  0.6467  0.0475
 8540SOL     OW33891   4.911   5.981   3.960  0.1096  0.1405 -0.6088
 8540SOL    HW233892   4.884   5.890   3.944  1.5880 -0.7217  1.4225
 8540SOL    HW333893   4.871   6.004   4.043  2.9072 -0.1283  0.9455
 8540SOL    MW433894   4.902   5.972   3.969  0.5915  0.5995  0.3725
 8541SOL     OW33895   3.717   4.788   3.290  0.3896 -0.1088 -0.3658
 8541SOL    HW233896   3.734   4.694   3.287  0.4886 -0.1465  0.7387
 8541SOL    HW333897   3.668   4.801   3.372 -3.8391  0.1876 -2.6898
 8541SOL    MW433898   3.713   4.777   3.301 -0.1157  0.3793  0.9068
 8542SOL     OW33899   0.748   2.345   0.964 -0.1736  0.0493  0.2361
 8542SOL    HW233900   0.679   2.402   0.997  1.8920  2.4538  0.6399
 8542SOL    HW333901   0.818   2.350   1.029  0.8418 -1.5087 -0.6543
 8542SOL    MW433902   0.748   2.353   0.977 -0.1985  0.4626 -0.0155
 8543SOL     OW33903   1.649   2.641   4.055 -0.3344  0.0565 -0.3285
 8543SOL    HW233904   1.659   2.673   3.965  0.8969  0.1018 -0.1926
 8543SOL    HW333905   1.707   2.565   4.060 -1.1825 -0.5837  0.1415
 8543SOL    MW433906   1.658   2.635   4.044 -0.0180 -0.3673  0.0100
 8544SOL     OW33907   3.166   4.947   6.362 -0.6132 -0.1396  0.7352
 8544SOL    HW233908   3.191   4.914   6.276 -0.8789  0.1165  0.5629
 8544SOL    HW333909   3.180   4.872   6.421 -1.9106 -0.7947  0.2306
 8544SOL    MW433910   3.171   4.933   6.359  0.4857  0.2074  0.0882
 8545SOL     OW33911   3.426   0.290   2.870 -0.0145  0.5404 -0.3869
 8545SOL    HW233912   3.445   0.324   2.958  1.1334 -1.2198  0.1118
 8545SOL    HW333913   3.503   0.313   2.819  2.0879 -3.2507  0.6295
 8545SOL    MW433914   3.439   0.297   2.875 -0.0190 -0.7042 -0.7718
 8546SOL     OW33915   3.759   2.261   2.741  0.1282 -0.6674  0.3680
 8546SOL    HW233916   3.675   2.303   2.761 -0.1159 -0.1030 -1.6748
 8546SOL    HW333917   3.737   2.168   2.730 -0.1083 -0.6304  0.5151
 8546SOL    MW433918   3.745   2.254   2.742 -0.3100 -0.7900 -0.2385
 8547SOL     OW33919   2.608   0.478   4.109  0.1894  0.5654  0.8561
 8547SOL    HW233920   2.642   0.524   4.032  0.1200  0.8946  1.0206
 8547SOL    HW333921   2.524   0.520   4.128  0.2521  0.5567  1.1699
 8547SOL    MW433922   2.602   0.489   4.101 -0.5359 -0.0571 -0.3890
 8548SOL     OW33923   0.058   1.395   1.686 -0.4408  0.3330  0.1889
 8548SOL    HW233924   0.119   1.444   1.630  0.6203  0.0211  1.0579
 8548SOL    HW333925  -0.006   1.461   1.713 -0.5399  0.6571 -0.7682
 8548SOL    MW433926   0.057   1.410   1.682 -0.4530 -0.2434  0.6690
 8549SOL     OW33927   6.213   1.212   4.610 -0.1435 -0.2845 -0.1547
 8549SOL    HW233928   6.186   1.142   4.669 -1.1338 -0.3107 -0.6272
 8549SOL    HW333929   6.274   1.170   4.548 -0.2345 -0.5777 -0.0422
 8549SOL    MW433930   6.218   1.198   4.609 -0.3030 -0.0188 -0.2561
 8550SOL     OW33931   2.686   5.726   3.722 -0.3097  0.4080  0.0224
 8550SOL    HW233932   2.643   5.699   3.803 -2.0605 -1.2035 -1.3526
 8550SOL    HW333933   2.671   5.821   3.718  0.2967  0.6156  1.8087
 8550SOL    MW433934   2.679   5.735   3.732  0.2146 -0.1790 -0.0270
 8551SOL     OW33935   2.769   2.998   1.871 -0.4839  0.1602  0.4224
 8551SOL    HW233936   2.773   2.946   1.790 -1.4117 -0.0383  0.4902
 8551SOL    HW333937   2.689   3.050   1.861 -0.1490  0.7617  0.8482
 8551SOL    MW433938   2.759   2.998   1.859  0.3575  0.0144  0.7282
 8552SOL     OW33939   2.255   3.935   1.769  0.4423  0.1401 -0.1104
 8552SOL    HW233940   2.228   4.001   1.705  1.3172  0.0186 -0.6102
 8552SOL    HW333941   2.177   3.922   1.824  0.2631  1.6077  0.0178
 8552SOL    MW433942   2.241   3.942   1.768  0.4695  0.1034  0.8445
 8553SOL     OW33943   3.042   5.741   2.174 -0.1131 -0.4542  0.2882
 8553SOL    HW233944   2.986   5.666   2.152 -1.6137  1.0203 -1.2831
 8553SOL    HW333945   2.993   5.787   2.242 -0.4660  0.4284 -0.5451
 8553SOL    MW433946   3.028   5.737   2.180  0.9575 -0.3174  0.5354
 8554SOL     OW33947   3.981   0.604   3.609 -0.1570 -0.5429  0.2609
 8554SOL    HW233948   4.001   0.697   3.602  0.3679 -0.2675  3.6548
 8554SOL    HW333949   4.066   0.561   3.604 -0.1247 -0.5952  1.1533
 8554SOL    MW433950   3.995   0.611   3.607 -0.2267 -0.2688  0.2669
 8555SOL     OW33951   4.338   6.356   4.137  0.4408 -0.0735  0.3785
 8555SOL    HW233952   4.347   6.392   4.049  1.7254 -0.2571  0.4192
 8555SOL    HW333953   4.282   6.279   4.127 -2.1481  1.7189  0.2505
 8555SOL    MW433954   4.332   6.350   4.124 -0.2612  0.0565  0.3793
 8556SOL     OW33955   0.036   5.254   3.532 -0.1404 -0.2639 -0.0022
 8556SOL    HW233956  -0.050   5.250   3.574  0.5308 -0.0057  1.4565
 8556SOL    HW333957   0.051   5.165   3.501 -0.4580 -0.5970  0.7518
 8556SOL    MW433958   0.027   5.242   3.534  0.3239  0.0519  0.3649
 8557SOL     OW33959   5.225   6.149   1.251 -0.1627  0.4154 -0.4535
 8557SOL    HW233960   5.204   6.231   1.295  1.9375  0.4673  0.5672
 8557SOL    HW333961   5.143   6.123   1.209 -1.5157  1.8160  1.1597
 8557SOL    MW433962   5.211   6.156   1.252 -0.1261 -0.2929  0.1541
 8558SOL     OW33963   3.989   4.778   5.432 -0.0730  0.0135 -0.5473
 8558SOL    HW233964   4.034   4.729   5.362  0.9567  2.4768 -1.7170
 8558SOL    HW333965   4.041   4.760   5.510 -0.6356 -1.9598 -0.5664
 8558SOL    MW433966   4.002   4.769   5.433 -1.0076  0.6820  0.3069
 8559SOL     OW33967   2.090   2.840   2.873  0.6099 -0.1230  0.2684
 8559SOL    HW233968   2.025   2.846   2.943 -0.8723  0.0355 -1.0643
 8559SOL    HW333969   2.103   2.931   2.845 -0.1753 -0.3207 -0.8189
 8559SOL    MW433970   2.083   2.853   2.879  0.1071  0.2290 -0.1227
 8560SOL     OW33971   1.768   5.039   4.681  0.6423  1.0122 -0.0687
 8560SOL    HW233972   1.851   5.020   4.726 -0.7510 -0.1092  2.2470
 8560SOL    HW333973   1.769   4.981   4.605  2.0677  1.1831 -0.2109
 8560SOL    MW433974   1.779   5.029   4.677 -0.6174 -0.1522 -0.6279
 8561SOL     OW33975   4.626   1.324   0.626 -0.1334  0.2363  0.1024
 8561SOL    HW233976   4.688   1.325   0.553 -0.6331 -1.6625 -0.4175
 8561SOL    HW333977   4.546   1.363   0.590 -0.6040 -1.3267 -0.6379
 8561SOL    MW433978   4.624   1.329   0.612  0.1761  0.5194  0.8684
 8562SOL     OW33979   4.761   4.581   2.286 -0.3932 -0.5608  0.2807
 8562SOL    HW233980   4.713   4.526   2.224 -2.1486  0.0968  0.9941
 8562SOL    HW333981   4.850   4.581   2.253 -1.1458 -0.6784 -1.9315
 8562SOL    MW433982   4.766   4.573   2.274  0.2354 -0.6639 -0.4985
 8563SOL     OW33983   4.081   0.587   0.127 -0.3806  0.1527  0.0862
 8563SOL    HW233984   3.989   0.562   0.137 -1.8996  4.9227  0.5426
 8563SOL    HW333985   4.087   0.623   0.038  1.4477 -1.2322 -0.4106
 8563SOL    MW433986   4.070   0.589   0.116  0.4322  1.0330  1.4246
 8564SOL     OW33987   2.541   5.950   2.899  0.3284 -0.3265 -0.1346
 8564SOL    HW233988   2.466   5.987   2.853  0.0154  0.5789  1.0567
 8564SOL    HW333989   2.604   6.022   2.904  1.4500 -1.1655 -1.4122
 8564SOL    MW433990   2.539   5.965   2.893  0.0717 -0.3704  0.0744
 8565SOL     OW33991   0.878   2.871   4.162 -1.1597  0.0100  0.1815
 8565SOL    HW233992   0.869   2.780   4.191  1.2256 -0.2911  0.1535
 8565SOL    HW333993   0.879   2.922   4.243 -1.4784 -0.0874  0.2483
 8565SOL    MW433994   0.877   2.866   4.176  0.5696  0.1785 -0.8197
 8566SOL     OW33995   0.632   1.361   3.149  0.4972  0.3326 -0.1223
 8566SOL    HW233996   0.666   1.366   3.238 -0.5217 -0.5221  0.3467
 8566SOL    HW333997   0.589   1.275   3.145  0.8897  0.1789 -1.5703
 8566SOL    MW433998   0.631   1.350   3.160 -0.0319 -0.1605 -0.4805
 8567SOL     OW33999   0.356   2.492   0.831 -0.0156 -0.9718  0.3854
 8567SOL    HW234000   0.406   2.446   0.764 -0.4156 -0.4622 -0.2714
 8567SOL    HW334001   0.267   2.457   0.822  0.2319 -2.0130  1.6698
 8567SOL    MW434002   0.350   2.482   0.821  0.6346  0.4218 -0.5559
 8568SOL     OW34003   6.169   4.764   2.640  0.4206  0.2531 -0.0488
 8568SOL    HW234004   6.091   4.735   2.593 -0.7359  1.3319  1.1517
 8568SOL    HW334005   6.162   4.859   2.643  1.4870  0.3274  0.5987
 8568SOL    MW434006   6.158   4.773   2.634  0.4626  0.8027  0.2210
 8569SOL     OW34007   0.671   1.330   5.890  0.1111  0.1276 -0.1603
 8569SOL    HW234008   0.721   1.388   5.832  1.0811 -1.4352 -0.9688
 8569SOL    HW334009   0.671   1.246   5.845 -1.7351 -0.3873  0.7060
 8569SOL    MW434010   0.677   1.327   5.876  0.2549  0.0968  0.1048
 8570SOL     OW34011   3.608   5.736   4.251 -0.5518 -0.3510  0.2637
 8570SOL    HW234012   3.531   5.700   4.296  0.8431 -1.7691  1.6449
 8570SOL    HW334013   3.658   5.659   4.226 -0.5436  0.4672 -2.5193
 8570SOL    MW434014   3.604   5.721   4.254 -0.1408 -0.4439 -0.0815
 8571SOL     OW34015   0.115   2.929   0.038  0.2391 -0.0448 -0.0471
 8571SOL    HW234016   0.097   2.838   0.062  0.1777 -0.7205 -2.4074
 8571SOL    HW334017   0.097   2.979   0.117  0.7925 -2.1361  1.4726
 8571SOL    MW434018   0.111   2.924   0.051 -0.4578  0.6011 -0.0223
 8572SOL     OW34019   1.903   4.598   0.926 -0.0461  0.1146  0.0321
 8572SOL    HW234020   1.850   4.536   0.877  0.7413  0.3898 -1.2180
 8572SOL    HW334021   1.869   4.684   0.900 -0.1185  0.2567  0.5730
 8572SOL    MW434022   1.891   4.601   0.916 -0.1006 -0.1824 -0.5663
 8573SOL     OW34023   5.908   0.355   2.842 -0.6418  0.1857 -0.1422
 8573SOL    HW234024   5.981   0.363   2.904 -2.0564 -0.6648  1.7613
 8573SOL    HW334025   5.833   0.336   2.898 -1.9118 -1.1949 -2.2151
 8573SOL    MW434026   5.908   0.353   2.858 -0.1202  0.0364 -0.1835
 8574SOL     OW34027   3.820   0.837   0.239 -0.4607 -0.0632  0.4953
 8574SOL    HW234028   3.821   0.781   0.316 -2.1637 -1.6586 -0.5754
 8574SOL    HW334029   3.813   0.926   0.274 -0.7383 -0.7136  2.1715
 8574SOL    MW434030   3.819   0.842   0.254 -0.2420  0.9037  0.0502
 8575SOL     OW34031   1.317   6.082   5.394 -0.0249  0.1552 -0.1629
 8575SOL    HW234032   1.388   6.019   5.403 -1.7953 -2.0961 -1.0603
 8575SOL    HW334033   1.259   6.044   5.329 -1.2513  2.7165 -0.7003
 8575SOL    MW434034   1.319   6.069   5.387  0.8374 -0.8394  0.0335
 8576SOL     OW34035   0.920   1.467   2.167 -0.6584  0.3891  0.1901
 8576SOL    HW234036   0.969   1.385   2.177 -0.7212  0.4951  1.5004
 8576SOL    HW334037   0.981   1.527   2.124  0.2658  0.4253  1.5092
 8576SOL    MW434038   0.934   1.464   2.162  0.0959  0.2916  0.2598
 8577SOL     OW34039   3.046   4.878   4.550 -0.1576  0.2334  0.1489
 8577SOL    HW234040   3.103   4.815   4.506  0.8962  2.1780 -1.4100
 8577SOL    HW334041   3.101   4.955   4.563 -1.9233  1.5346  0.2563
 8577SOL    MW434042   3.061   4.880   4.546  0.2340 -0.4037 -0.4794
 8578SOL     OW34043   1.490   0.614   2.942 -0.2765  0.1800 -0.0052
 8578SOL    HW234044   1.481   0.693   2.995  1.7790  0.8164 -0.5370
 8578SOL    HW334045   1.565   0.568   2.980 -0.8180 -1.0333 -0.3375
 8578SOL    MW434046   1.499   0.618   2.954 -0.0765  0.6483  0.2634
 8579SOL     OW34047   4.400   5.095   0.624 -0.2069  0.3637 -0.4182
 8579SOL    HW234048   4.389   5.185   0.655 -1.2480  0.4037 -0.8435
 8579SOL    HW334049   4.311   5.067   0.603  0.1442 -0.6757 -0.5421
 8579SOL    MW434050   4.387   5.104   0.625 -0.4845 -0.0803  0.3476
 8580SOL     OW34051   4.801   1.750   5.551 -0.9509 -0.5827 -0.2535
 8580SOL    HW234052   4.788   1.656   5.563  3.6671 -1.3032  0.7718
 8580SOL    HW334053   4.839   1.780   5.634  1.0007  1.3889 -1.7592
 8580SOL    MW434054   4.804   1.742   5.564  0.3842  0.3911 -0.1973
 8581SOL     OW34055   6.007   1.728   5.548 -0.3057 -0.2507  0.3500
 8581SOL    HW234056   5.937   1.787   5.519  0.0306  0.3734  0.8061
 8581SOL    HW334057   5.988   1.646   5.503 -0.3482  0.4132 -0.9050
 8581SOL    MW434058   5.995   1.725   5.538 -0.2847 -0.4019 -0.0148
 8582SOL     OW34059   2.906   5.752   5.604 -0.0594  0.3230  0.5816
 8582SOL    HW234060   2.969   5.730   5.673 -0.3614 -0.8283  0.5210
 8582SOL    HW334061   2.840   5.683   5.610  0.3774 -0.3362 -1.4372
 8582SOL    MW434062   2.905   5.740   5.614  0.8457  0.5720 -0.3606
 8583SOL     OW34063   0.452   0.209   1.959  0.4415  0.1018  0.0502
 8583SOL    HW234064   0.406   0.174   2.035 -0.2885 -2.3943 -1.4162
 8583SOL    HW334065   0.519   0.144   1.939 -0.5639 -0.2880 -2.4520
 8583SOL    MW434066   0.455   0.196   1.966 -0.3943  0.2130 -0.0544
 8584SOL     OW34067   5.387   6.337   4.493 -0.0644 -0.3619  0.1837
 8584SOL    HW234068   5.291   6.340   4.496 -0.1044  0.3587 -1.3159
 8584SOL    HW334069   5.410   6.372   4.407  1.5428 -0.8033  0.4040
 8584SOL    MW434070   5.377   6.342   4.482  0.4474  0.1271 -0.2222
 8585SOL     OW34071   0.790   4.605   6.333  0.1843 -0.3332 -0.5394
 8585SOL    HW234072   0.849   4.680   6.328 -1.6389  1.0991 -2.3656
 8585SOL    HW334073   0.846   4.529   6.319  1.6319  0.9501 -2.1156
 8585SOL    MW434074   0.805   4.605   6.330 -0.0199  0.1837 -0.1257
 8586SOL     OW34075   4.171   4.334   0.349  0.2078  0.0936  0.2928
 8586SOL    HW234076   4.204   4.275   0.417  0.8703 -1.1303 -1.0316
 8586SOL    HW334077   4.199   4.421   0.376  2.5114 -0.6303  0.4198
 8586SOL    MW434078   4.179   4.337   0.361 -0.7175 -0.4323  0.0518
 8587SOL     OW34079   3.111   0.475   5.956  0.0532 -0.2935 -0.5555
 8587SOL    HW234080   3.137   0.385   5.972  0.5508  0.1723  1.5339
 8587SOL    HW334081   3.022   0.468   5.920 -0.0090 -1.6106 -0.1891
 8587SOL    MW434082   3.102   0.463   5.953 -0.2989  0.0168 -0.5706
 8588SOL     OW34083   1.459   0.336   2.598 -0.1787  0.3017 -0.1604
 8588SOL    HW234084   1.522   0.285   2.548 -0.8430 -1.2066  0.4787
 8588SOL    HW334085   1.512   0.400   2.645  0.7508 -0.1598 -0.5594
 8588SOL    MW434086   1.474   0.338   2.598  0.5871 -0.2385  0.2181
 8589SOL     OW34087   0.413   5.675   1.170  0.9771 -0.2658 -0.0274
 8589SOL    HW234088   0.339   5.650   1.226  2.7322 -2.0714  1.6154
 8589SOL    HW334089   0.442   5.593   1.130  2.3329  0.3433 -0.3428
 8589SOL    MW434090   0.407   5.661   1.172  0.4182  0.0470  0.2826
 8590SOL     OW34091   3.096   0.886   3.935 -0.2371  0.1988  0.2968
 8590SOL    HW234092   3.097   0.982   3.937 -1.6205  0.2274  0.4138
 8590SOL    HW334093   3.186   0.862   3.913 -0.5490  1.6286 -3.2469
 8590SOL    MW434094   3.108   0.895   3.932 -0.3590 -0.2586  0.7164
 8591SOL     OW34095   2.927   3.406   4.006 -0.3674  0.1057  0.0617
 8591SOL    HW234096   2.888   3.375   4.088 -0.4983  0.6009  0.1934
 8591SOL    HW334097   3.019   3.420   4.027 -0.7718  2.1259  0.7007
 8591SOL    MW434098   2.934   3.404   4.020  0.3485  0.0422  0.0411
 8592SOL     OW34099   4.380   4.356   3.386 -0.5019 -0.1815 -0.3776
 8592SOL    HW234100   4.348   4.446   3.395  0.5902  0.1615  0.3283
 8592SOL    HW334101   4.395   4.345   3.292 -1.2427  0.1491 -0.5415
 8592SOL    MW434102   4.378   4.367   3.375  0.3844  0.6457 -0.1084
 8593SOL     OW34103   1.060   2.081   2.903  0.2672 -0.5769 -0.5564
 8593SOL    HW234104   1.072   2.066   2.809 -1.2184 -0.4031 -0.8038
 8593SOL    HW334105   1.038   1.994   2.938  1.3696 -0.7492 -0.2523
 8593SOL    MW434106   1.059   2.067   2.895 -0.5190  0.0680  0.3422
 8594SOL     OW34107   4.858   1.800   2.184  0.2101 -0.0635 -0.0178
 8594SOL    HW234108   4.858   1.866   2.114  0.3986 -0.2673 -0.2135
 8594SOL    HW334109   4.793   1.736   2.157  0.8307 -0.5461 -0.4004
 8594SOL    MW434110   4.849   1.801   2.171  0.5022  0.3675 -0.1693
 8595SOL     OW34111   1.509   3.015   4.943 -0.2768 -0.0682  0.8264
 8595SOL    HW234112   1.542   2.962   5.016 -1.1941  0.6973  1.8325
 8595SOL    HW334113   1.561   2.987   4.867 -0.3749 -2.0125  1.4285
 8595SOL    MW434114   1.520   3.004   4.943 -0.6121 -0.0463  0.0774
 8596SOL     OW34115   4.493   1.685   0.965  0.0015 -0.4036  0.2134
 8596SOL    HW234116   4.518   1.612   0.908 -0.1862 -1.5337  1.5067
 8596SOL    HW334117   4.541   1.670   1.046  0.5573  1.3750  0.2530
 8596SOL    MW434118   4.502   1.673   0.969  0.1138  0.0068  0.0362
 8597SOL     OW34119   4.209   1.582   4.323 -0.3298 -0.1473  0.0261
 8597SOL    HW234120   4.270   1.556   4.255 -1.5940 -2.1443 -0.4168
 8597SOL    HW334121   4.198   1.504   4.377  1.1931  1.5569  3.0486
 8597SOL    MW434122   4.215   1.569   4.321  0.3226  0.3428 -0.0551
 8598SOL     OW34123   1.128   1.102   2.648 -0.0307  0.9592 -0.2815
 8598SOL    HW234124   1.112   1.015   2.613  0.5470  0.6675  0.1679
 8598SOL    HW334125   1.223   1.107   2.659 -0.0443  1.6943 -0.4356
 8598SOL    MW434126   1.138   1.091   2.645 -0.1752 -0.0902 -0.5560
 8599SOL     OW34127   2.164   3.097   2.867  0.3539  0.3777  0.1760
 8599SOL    HW234128   2.098   3.134   2.925 -1.2785 -0.3526 -1.1299
 8599SOL    HW334129   2.236   3.071   2.925 -1.6760 -1.4445  2.0728
 8599SOL    MW434130   2.165   3.098   2.882  0.5738  0.2427 -0.3514
 8600SOL     OW34131   4.840   1.223   2.900  0.0560  0.2159  0.5194
 8600SOL    HW234132   4.813   1.134   2.922 -0.2042 -0.4826 -2.2417
 8600SOL    HW334133   4.931   1.214   2.872  0.0296  0.8194  0.2222
 8600SOL    MW434134   4.849   1.210   2.899  0.3772  0.0207  0.3264
 8601SOL     OW34135   4.621   3.163   2.059  0.1472  0.2439 -0.8071
 8601SOL    HW234136   4.561   3.184   1.987 -1.1895 -0.5095  0.0567
 8601SOL    HW334137   4.602   3.229   2.126 -0.6151 -0.7058 -0.0505
 8601SOL    MW434138   4.610   3.174   2.058  0.5901  0.6035  1.1419
 8602SOL     OW34139   2.637   1.497   4.790 -0.7463  0.1334 -0.3565
 8602SOL    HW234140   2.554   1.495   4.838 -0.9845 -0.3925 -0.7769
 8602SOL    HW334141   2.630   1.575   4.735 -0.1040  1.2332  1.0862
 8602SOL    MW434142   2.625   1.507   4.789 -0.2863  0.1466 -0.8949
 8603SOL     OW34143   5.492   4.231   3.202  0.2359 -0.2843  0.0372
 8603SOL    HW234144   5.435   4.218   3.278  2.5939  0.6866  2.1450
 8603SOL    HW334145   5.504   4.143   3.166 -0.1272 -0.9634  1.4648
 8603SOL    MW434146   5.486   4.218   3.207  0.4478 -0.2900 -0.0535
 8604SOL     OW34147   0.810   5.767   5.259 -0.1076  0.0315  0.0986
 8604SOL    HW234148   0.867   5.834   5.298 -0.1847 -0.4870  1.1445
 8604SOL    HW334149   0.726   5.812   5.246 -0.7366 -0.2925  2.5103
 8604SOL    MW434150   0.807   5.782   5.262 -0.1198 -0.1104  0.0333
 8605SOL     OW34151   2.217   5.318   3.386  0.1305  0.2936  0.0179
 8605SOL    HW234152   2.180   5.232   3.403 -0.5573  0.2911 -1.3286
 8605SOL    HW334153   2.183   5.342   3.300  0.3105  1.9099  0.3599
 8605SOL    MW434154   2.207   5.310   3.377  0.5118  0.0068  0.2807
 8606SOL     OW34155   2.585   1.257   5.267  0.7468  0.2549 -0.2772
 8606SOL    HW234156   2.505   1.308   5.264  0.4446 -0.1925 -0.0338
 8606SOL    HW334157   2.611   1.260   5.360 -1.4995 -3.3478  0.6686
 8606SOL    MW434158   2.578   1.264   5.279  0.3992 -0.6468  0.2515
 8607SOL     OW34159   2.422   1.661   0.693 -0.3031  0.6188  0.5468
 8607SOL    HW234160   2.398   1.696   0.607 -1.2771 -0.5647  0.3110
 8607SOL    HW334161   2.384   1.723   0.755 -1.3121  0.4351  0.1305
 8607SOL    MW434162   2.414   1.674   0.690 -0.1034 -0.1433 -0.5195
 8608SOL     OW34163   3.931   5.282   5.572 -0.2088 -0.5699  0.1243
 8608SOL    HW234164   3.922   5.248   5.661 -0.0323 -0.1055  0.3216
 8608SOL    HW334165   3.955   5.205   5.520 -2.2604 -1.2791  0.1003
 8608SOL    MW434166   3.933   5.267   5.577 -0.3359 -0.1142  0.1835
 8609SOL     OW34167   0.985   2.550   5.769 -0.4159 -0.1439 -0.1457
 8609SOL    HW234168   1.024   2.570   5.854 -0.4594  0.1726 -0.1975
 8609SOL    HW334169   1.026   2.468   5.742  0.7686  0.5476 -0.5352
 8609SOL    MW434170   0.996   2.542   5.777  0.1745 -0.0186 -0.2282
 8610SOL     OW34171   1.845   3.634   6.013 -0.2906  0.5827  0.1542
 8610SOL    HW234172   1.937   3.617   6.035  0.3236 -0.8422 -2.9833
 8610SOL    HW334173   1.844   3.647   5.919 -3.3732  0.2963  0.0253
 8610SOL    MW434174   1.857   3.633   6.004  0.2936  0.1800  0.0329
 8611SOL     OW34175   4.293   3.945   3.107  0.4449  0.7143 -0.1052
 8611SOL    HW234176   4.388   3.940   3.121  0.4601  0.3504 -0.2984
 8611SOL    HW334177   4.284   3.992   3.024  0.4406  1.1060  0.1196
 8611SOL    MW434178   4.305   3.950   3.098  0.8135  0.0295 -0.0113
 8612SOL     OW34179   0.678   6.274   3.497 -0.0819  0.1658  0.2483
 8612SOL    HW234180   0.733   6.211   3.543 -0.9523 -0.6465  0.2184
 8612SOL    HW334181   0.679   6.352   3.553  1.2770  0.2643  0.1170
 8612SOL    MW434182   0.685   6.276   3.511  0.5108  0.7352  0.0832
 8613SOL     OW34183   4.518   4.945   4.790 -0.2232 -0.4611  0.0419
 8613SOL    HW234184   4.557   4.913   4.871 -1.5489  0.8013  1.2449
 8613SOL    HW334185   4.496   4.866   4.741  1.6210 -1.2291  0.3752
 8613SOL    MW434186   4.520   4.931   4.795 -0.0686  0.2858 -0.0573
 8614SOL     OW34187   5.222   0.204   2.483 -0.3879  0.1611  0.1500
 8614SOL    HW234188   5.165   0.129   2.470 -0.5563  0.3732 -0.3777
 8614SOL    HW334189   5.310   0.171   2.468 -0.4259 -0.0178  0.3165
 8614SOL    MW434190   5.226   0.190   2.479 -0.0224 -0.4007 -0.1146
 8615SOL     OW34191   5.344   4.619   0.315 -0.3075  0.0476 -0.6146
 8615SOL    HW234192   5.350   4.554   0.245  2.2086  0.4150 -0.8444
 8615SOL    HW334193   5.362   4.570   0.395 -3.1696 -0.3688 -0.1459
 8615SOL    MW434194   5.347   4.604   0.316 -0.1839  0.0019 -0.6019
 8616SOL     OW34195   4.408   6.266   0.929 -0.0709 -0.1169 -0.2250
 8616SOL    HW234196   4.460   6.318   0.868  0.1426 -1.2358 -1.0297
 8616SOL    HW334197   4.472   6.213   0.976 -0.1779  1.0865  1.3896
 8616SOL    MW434198   4.424   6.266   0.927 -0.0426 -0.1384  0.1506
 8617SOL     OW34199   5.218   0.795   2.756  0.2859  0.2650  0.1780
 8617SOL    HW234200   5.254   0.788   2.668  0.5880  1.2415  0.2120
 8617SOL    HW334201   5.125   0.809   2.743  0.4659  1.3757 -0.0349
 8617SOL    MW434202   5.211   0.796   2.743  0.3244  0.0938 -0.3015
 8618SOL     OW34203   3.255   3.639   2.506  0.5421 -0.3204  0.0296
 8618SOL    HW234204   3.197   3.581   2.456  1.1765 -2.3440  1.4929
 8618SOL    HW334205   3.327   3.658   2.446 -1.2306  1.6905 -1.5829
 8618SOL    MW434206   3.257   3.634   2.492  0.0357  0.0637 -0.2470
 8619SOL     OW34207   6.073   5.455   3.829 -0.3175 -0.0308 -0.4234
 8619SOL    HW234208   6.044   5.377   3.782  1.0057 -1.1812  0.5569
 8619SOL    HW334209   6.055   5.436   3.921  0.5464  0.5457 -0.1162
 8619SOL    MW434210   6.067   5.442   3.835  0.3015 -0.1660 -0.7143
 8620SOL     OW34211   1.336   6.388   4.952  0.1723 -0.3761  0.0779
 8620SOL    HW234212   1.407   6.324   4.940 -1.3453 -2.0264 -0.4425
 8620SOL    HW334213   1.266   6.339   4.994 -1.1702  0.8819 -0.6046
 8620SOL    MW434214   1.336   6.373   4.956 -0.2292  0.3758  0.0883
 8621SOL     OW34215   0.603   2.809   1.813 -0.2626 -0.2583 -0.5913
 8621SOL    HW234216   0.539   2.765   1.757  1.1098 -0.2784 -2.2456
 8621SOL    HW334217   0.617   2.894   1.770  2.3816 -1.1000 -1.5747
 8621SOL    MW434218   0.596   2.814   1.800 -0.7541 -0.7235 -0.1498
 8622SOL     OW34219   0.490   0.780   3.356 -0.0226  0.4655 -0.5082
 8622SOL    HW234220   0.396   0.792   3.373 -0.1383 -0.0704 -0.7495
 8622SOL    HW334221   0.532   0.849   3.408 -0.6624  2.0255 -1.9743
 8622SOL    MW434222   0.483   0.791   3.365  0.0507  0.0891 -0.3576
 8623SOL     OW34223   5.796   2.746   3.087  0.8795 -0.3046  0.6147
 8623SOL    HW234224   5.855   2.670   3.086  1.0269 -0.2510  2.3107
 8623SOL    HW334225   5.738   2.732   3.012  1.2760 -1.7939  0.5461
 8623SOL    MW434226   5.796   2.734   3.077 -0.1089 -0.5938 -0.0118
 8624SOL     OW34227   2.309   0.225   4.726  0.5894  0.4534  0.0899
 8624SOL    HW234228   2.240   0.173   4.766  1.6293  0.1452  1.5479
 8624SOL    HW334229   2.271   0.312   4.716 -0.8883 -0.3223 -1.6135
 8624SOL    MW434230   2.295   0.230   4.730  0.5446  0.5396  0.3332
 8625SOL     OW34231   4.638   4.473   3.436  0.5455 -0.0327 -0.0677
 8625SOL    HW234232   4.719   4.424   3.422 -0.0572 -0.9769 -0.3526
 8625SOL    HW334233   4.569   4.410   3.417 -0.2620  0.6604  0.5084
 8625SOL    MW434234   4.640   4.458   3.432  0.5780 -0.2960 -0.1900
 8626SOL     OW34235   0.857   2.902   1.468 -0.5738 -0.5070  0.1618
 8626SOL    HW234236   0.913   2.927   1.394 -0.9595 -0.0654  0.0131
 8626SOL    HW334237   0.917   2.864   1.532 -0.0355  0.3772  0.1941
 8626SOL    MW434238   0.872   2.900   1.466 -0.1305 -0.4383 -0.0609
 8627SOL     OW34239   3.552   1.458   1.303  0.5033 -0.1869 -0.5954
 8627SOL    HW234240   3.569   1.470   1.397  1.4809 -1.2740 -0.6017
 8627SOL    HW334241   3.459   1.436   1.298 -0.7531  4.2235 -0.3708
 8627SOL    MW434242   3.542   1.456   1.315  0.2818  0.7697 -0.1053
 8628SOL     OW34243   6.366   6.166   0.168 -0.1292  0.3358  0.2925
 8628SOL    HW234244   6.333   6.235   0.111 -0.5420  1.1777  1.5074
 8628SOL    HW334245   6.307   6.092   0.154  0.3545  0.1736 -1.0671
 8628SOL    MW434246   6.354   6.165   0.159 -0.8265  0.4198 -0.0330
 8629SOL     OW34247   2.122   4.435   2.124  0.1863  0.3742  0.0699
 8629SOL    HW234248   2.095   4.441   2.215  1.2070 -0.9292  0.4857
 8629SOL    HW334249   2.072   4.503   2.079 -0.9777  0.4490  1.4415
 8629SOL    MW434250   2.112   4.445   2.130 -0.3220 -0.6410  0.5445
 8630SOL     OW34251   1.309   4.203   1.488  0.1638 -0.7386 -0.0244
 8630SOL    HW234252   1.338   4.286   1.524 -0.8975 -0.4859  0.2934
 8630SOL    HW334253   1.387   4.166   1.446  0.9449 -0.1546  0.8711
 8630SOL    MW434254   1.323   4.209   1.487  0.5529 -0.0982  0.0110
 8631SOL     OW34255   5.760   2.766   1.497  0.0776  0.1788 -0.1555
 8631SOL    HW234256   5.775   2.860   1.494 -0.8126  0.3159 -0.8531
 8631SOL    HW334257   5.679   2.753   1.447  0.2088 -0.9566 -0.1051
 8631SOL    MW434258   5.751   2.777   1.490  0.1626 -0.2132 -0.4265
 8632SOL     OW34259   0.394   1.641   4.634  0.0086 -0.5266  0.6918
 8632SOL    HW234260   0.353   1.578   4.574 -1.3215 -0.3456  1.3777
 8632SOL    HW334261   0.488   1.621   4.628 -0.2674 -1.7548 -0.0277
 8632SOL    MW434262   0.401   1.630   4.625  0.1062  0.0979 -0.4566
 8633SOL     OW34263   1.128   3.398   6.305  0.2342 -0.1656  0.1752
 8633SOL    HW234264   1.121   3.470   6.368 -0.9528  0.3322 -0.5015
 8633SOL    HW334265   1.220   3.399   6.279  0.0015  2.0094 -0.8214
 8633SOL    MW434266   1.140   3.408   6.310  0.8458  0.1474 -0.0848
 8634SOL     OW34267   1.840   2.661   2.331  0.3271 -0.0726  0.1949
 8634SOL    HW234268   1.791   2.602   2.273 -2.0699  1.2167  0.7564
 8634SOL    HW334269   1.843   2.743   2.283  2.7426 -0.2964 -0.1421
 8634SOL    MW434270   1.834   2.664   2.317 -0.3456  0.3290 -0.0308
 8635SOL     OW34271   4.858   5.820   2.322 -0.0326 -0.2201 -0.5137
 8635SOL    HW234272   4.901   5.903   2.346 -0.4470 -0.4185  1.0376
 8635SOL    HW334273   4.854   5.771   2.404 -0.0908 -1.6561 -1.3511
 8635SOL    MW434274   4.863   5.825   2.336 -0.4921  0.1294 -0.5503
 8636SOL     OW34275   5.936   2.443   3.030 -0.4976 -0.1595 -0.3892
 8636SOL    HW234276   5.945   2.415   3.121  1.3547  0.5933 -0.2961
 8636SOL    HW334277   5.992   2.382   2.981 -0.0184  0.5833 -0.7732
 8636SOL    MW434278   5.945   2.431   3.036  0.4223 -0.2061 -0.4172
 8637SOL     OW34279   2.385   3.546   4.370 -0.4841  0.2980 -0.1258
 8637SOL    HW234280   2.317   3.576   4.429  0.0323  1.9623 -0.3193
 8637SOL    HW334281   2.427   3.626   4.339  1.2911 -0.6528 -0.3290
 8637SOL    MW434282   2.382   3.560   4.373  0.4881 -0.3661  0.4219
 8638SOL     OW34283   6.276   0.942   2.707 -0.4723  0.2851  0.0313
 8638SOL    HW234284   6.182   0.954   2.696 -0.5884 -1.8507 -2.2763
 8638SOL    HW334285   6.312   0.955   2.619  1.1111 -0.8130  0.4650
 8638SOL    MW434286   6.269   0.945   2.694  0.4250 -0.5737 -0.0801
 8639SOL     OW34287   4.406   5.030   0.897 -0.3281  0.3756  0.3544
 8639SOL    HW234288   4.421   5.041   0.803  0.6608  1.9799  0.6673
 8639SOL    HW334289   4.312   5.045   0.907 -0.1328  2.1762 -0.1582
 8639SOL    MW434290   4.395   5.033   0.886 -0.5393 -0.2104 -0.1459
 8640SOL     OW34291   0.539   4.252   2.014  0.5026 -0.4222  0.0945
 8640SOL    HW234292   0.504   4.230   2.100  0.7394 -0.6911  0.1235
 8640SOL    HW334293   0.469   4.229   1.953  0.5265 -0.7133  0.1728
 8640SOL    MW434294   0.525   4.246   2.017  0.2949 -0.1591 -0.0252
 8641SOL     OW34295   5.424   5.641   2.735  0.4629 -0.0684  0.7990
 8641SOL    HW234296   5.391   5.652   2.646  0.4367  0.9301  0.9282
 8641SOL    HW334297   5.422   5.728   2.773  1.5757 -0.2857  1.4036
 8641SOL    MW434298   5.420   5.654   2.728 -0.7964 -0.2893 -0.3567
 8642SOL     OW34299   0.414   0.723   5.663 -0.2072 -0.6989  0.0536
 8642SOL    HW234300   0.497   0.680   5.641 -1.7377 -2.1408 -3.6498
 8642SOL    HW334301   0.432   0.817   5.655  0.9627 -1.0103 -1.3786
 8642SOL    MW434302   0.427   0.730   5.659  0.4844 -0.4218  0.1650
 8643SOL     OW34303   5.550   2.293   3.935 -0.5178  0.1714  0.3313
 8643SOL    HW234304   5.524   2.213   3.889 -0.3687  0.2811  0.0577
 8643SOL    HW334305   5.491   2.297   4.010 -0.5605 -0.1699  0.3191
 8643SOL    MW434306   5.538   2.283   3.939 -0.2818  0.0453 -0.3227
 8644SOL     OW34307   4.461   0.527   0.394 -0.3578 -0.2980 -0.8447
 8644SOL    HW234308   4.462   0.437   0.426 -1.3128  0.1999  0.6946
 8644SOL    HW334309   4.522   0.573   0.451 -1.4618  0.4393 -0.2205
 8644SOL    MW434310   4.469   0.521   0.406  0.1151 -0.2273 -0.3067
 8645SOL     OW34311   6.416   2.915   1.634  0.0886 -0.1030  0.2292
 8645SOL    HW234312   6.392   2.836   1.683 -0.2807 -1.7274 -2.4159
 8645SOL    HW334313   6.503   2.896   1.598 -0.6870 -0.0236 -1.7862
 8645SOL    MW434314   6.424   2.902   1.636  0.1064 -0.0473 -0.3167
 8646SOL     OW34315   2.939   4.572   4.434  0.4240 -0.2648 -0.2027
 8646SOL    HW234316   2.894   4.562   4.518 -0.9188 -3.3358 -1.1621
 8646SOL    HW334317   2.954   4.482   4.404  0.5471  0.7145 -3.4216
 8646SOL    MW434318   2.935   4.558   4.441  0.3998 -0.2365  0.1649
 8647SOL     OW34319   0.459   2.727   2.299  0.2562  0.2441  0.1229
 8647SOL    HW234320   0.464   2.778   2.379 -0.5127  1.6993 -0.7249
 8647SOL    HW334321   0.366   2.707   2.289  0.4007 -0.3076 -0.1868
 8647SOL    MW434322   0.447   2.731   2.308 -0.6715 -0.3547  0.3945
 8648SOL     OW34323   4.613   4.407   5.653 -0.0796 -0.2761  0.0278
 8648SOL    HW234324   4.597   4.391   5.746  0.0416  2.0078  0.5006
 8648SOL    HW334325   4.531   4.385   5.610  0.1872 -2.3659  0.4887
 8648SOL    MW434326   4.600   4.402   5.660 -0.3998  0.2355 -0.0604
 8649SOL     OW34327   2.199   4.692   1.668 -0.0896  0.1733  0.0881
 8649SOL    HW234328   2.260   4.726   1.603 -0.5944  1.1416  0.1019
 8649SOL    HW334329   2.253   4.679   1.747  0.4601 -0.7246 -0.4187
 8649SOL    MW434330   2.214   4.694   1.670 -0.1659  0.1577 -0.0987
 8650SOL     OW34331   1.150   2.113   1.583 -0.4580 -0.0327 -0.3722
 8650SOL    HW234332   1.227   2.056   1.587 -0.0810  0.4809 -0.2080
 8650SOL    HW334333   1.087   2.064   1.531  1.2162  0.9724 -3.6118
 8650SOL    MW434334   1.152   2.099   1.577 -0.1897 -0.6630  0.0752
 8651SOL     OW34335   3.560   1.990   5.915 -0.0858 -0.1773  0.4917
 8651SOL    HW234336   3.625   2.027   5.975  0.4176 -0.7514  0.3092
 8651SOL    HW334337   3.578   1.896   5.916 -0.6179 -0.2858  0.0792
 8651SOL    MW434338   3.571   1.983   5.923 -0.5515 -0.1627 -0.6705
 8652SOL     OW34339   4.493   5.384   1.344 -0.0246  0.2309  0.0430
 8652SOL    HW234340   4.580   5.397   1.306 -0.3565  0.4529 -0.6550
 8652SOL    HW334341   4.476   5.465   1.392  0.7021 -0.3359  1.3199
 8652SOL    MW434342   4.502   5.396   1.345 -0.3722  0.1482 -0.1602
 8653SOL     OW34343   2.786   1.560   5.425 -0.1174 -0.5800 -0.0118
 8653SOL    HW234344   2.810   1.472   5.454 -0.5797 -0.2312  1.5388
 8653SOL    HW334345   2.869   1.602   5.404  0.1910 -1.0938  0.1693
 8653SOL    MW434346   2.800   1.554   5.426  0.1971  0.0305 -0.5120
 8654SOL     OW34347   4.285   5.073   4.566 -1.0136  0.2692 -0.2045
 8654SOL    HW234348   4.247   5.080   4.653  0.0825 -1.3456  0.4490
 8654SOL    HW334349   4.340   4.994   4.570  1.5547  1.8599 -1.3897
 8654SOL    MW434350   4.287   5.064   4.578  0.3637 -0.1927  0.4663
 8655SOL     OW34351   5.322   6.177   4.063 -0.1673  0.3412 -0.2818
 8655SOL    HW234352   5.265   6.151   3.991 -0.2155  0.0494 -0.1389
 8655SOL    HW334353   5.366   6.256   4.032  0.2219 -0.0895 -0.8495
 8655SOL    MW434354   5.320   6.184   4.050 -0.2455 -0.0383  0.6626
 8656SOL     OW34355   1.430   6.109   2.728  0.1023 -0.6973  0.3509
 8656SOL    HW234356   1.462   6.042   2.789 -0.3475 -0.7810  0.4935
 8656SOL    HW334357   1.510   6.148   2.693  0.3667 -0.9140  0.6996
 8656SOL    MW434358   1.445   6.105   2.731  0.5586  0.1151 -0.0217
 8657SOL     OW34359   2.630   2.177   0.990 -0.3691  0.5092 -0.4967
 8657SOL    HW234360   2.690   2.252   0.982 -0.2318  0.5168  0.5097
 8657SOL    HW334361   2.635   2.134   0.905  1.6088  0.1220 -0.2321
 8657SOL    MW434362   2.639   2.181   0.977 -0.1622 -0.0393  0.6991
 8658SOL     OW34363   4.787   2.964   3.094 -0.1232  0.7401 -0.1247
 8658SOL    HW234364   4.695   2.991   3.081  0.0206  2.3800  1.8405
 8658SOL    HW334365   4.824   3.031   3.150  1.7916 -0.9254  0.7172
 8658SOL    MW434366   4.779   2.976   3.099 -0.3205 -0.4082 -0.0244
 8659SOL     OW34367   1.037   4.149   5.239 -0.0068 -0.5758 -0.0034
 8659SOL    HW234368   1.075   4.158   5.152  0.7771  0.2210  0.3984
 8659SOL    HW334369   1.032   4.239   5.272 -0.9954 -0.7947  0.4860
 8659SOL    MW434370   1.041   4.162   5.232  0.0078 -0.2367 -0.0914
 8660SOL     OW34371   6.365   4.518   4.123 -0.5098  0.1975 -0.0420
 8660SOL    HW234372   6.350   4.599   4.075 -0.9931 -0.2316 -0.6322
 8660SOL    HW334373   6.428   4.469   4.070 -0.2085  0.1950  0.3172
 8660SOL    MW434374   6.371   4.522   4.110 -0.2852  0.0132 -0.0219
 8661SOL     OW34375   5.518   0.159   3.219 -0.0907 -0.5077  0.3199
 8661SOL    HW234376   5.508   0.131   3.311  1.2572 -4.0859 -0.4627
 8661SOL    HW334377   5.443   0.119   3.174  0.7172 -1.1177 -0.5187
 8661SOL    MW434378   5.507   0.150   3.226 -0.6628  0.3800 -0.0306
 8662SOL     OW34379   2.776   2.692   0.050  0.1031 -0.0779  0.1109
 8662SOL    HW234380   2.829   2.740   0.113 -0.4971 -1.6248  1.9054
 8662SOL    HW334381   2.709   2.648   0.104  1.2505 -3.7547 -1.1920
 8662SOL    MW434382   2.774   2.692   0.065 -0.0632 -0.3777  0.0392
 8663SOL     OW34383   4.340   1.404   3.573  0.7181 -0.0958  0.2096
 8663SOL    HW234384   4.358   1.394   3.666 -0.1035 -0.0420  0.3788
 8663SOL    HW334385   4.294   1.488   3.566 -1.5354 -1.2524  0.1138
 8663SOL    MW434386   4.336   1.413   3.584 -0.1653  0.3867 -0.2482
 8664SOL     OW34387   0.903   0.148   2.838 -0.7309  0.0644 -0.1309
 8664SOL    HW234388   0.962   0.213   2.878 -0.5526 -0.2981  0.2081
 8664SOL    HW334389   0.815   0.177   2.864 -0.5487 -1.0873  1.9921
 8664SOL    MW434390   0.899   0.161   2.847  0.6567 -0.0239 -0.1719
 8665SOL     OW34391   1.811   3.669   1.194 -0.3270  0.4330 -0.2865
 8665SOL    HW234392   1.734   3.639   1.146 -0.5933  0.9370 -0.1789
 8665SOL    HW334393   1.780   3.684   1.283  0.0457  0.0120 -0.0776
 8665SOL    MW434394   1.797   3.667   1.199 -0.6489  0.0576 -0.6906
 8666SOL     OW34395   3.980   3.613   3.225 -0.4546 -0.5319 -0.1429
 8666SOL    HW234396   3.915   3.590   3.292  0.0107 -0.3744  0.3728
 8666SOL    HW334397   3.933   3.606   3.142 -1.3775  0.4317  0.2752
 8666SOL    MW434398   3.965   3.609   3.223 -0.1655  0.0593 -0.1298
 8667SOL     OW34399   2.163   6.265   1.302  0.0484  0.1770 -0.1988
 8667SOL    HW234400   2.246   6.309   1.283 -0.7945  1.3725 -1.3130
 8667SOL    HW334401   2.104   6.296   1.233 -1.4854 -0.1616  0.9190
 8667SOL    MW434402   2.166   6.275   1.291  0.3467  0.2983 -0.2460
 8668SOL     OW34403   4.138   0.512   4.092  0.8485 -0.0654  0.1009
 8668SOL    HW234404   4.212   0.527   4.151  2.2821  0.8358 -1.8370
 8668SOL    HW334405   4.176   0.509   4.005 -1.4438  0.7608 -1.0176
 8668SOL    MW434406   4.153   0.513   4.089 -0.0930  0.4887  0.4736
 8669SOL     OW34407   3.162   2.494   0.164 -0.4305  0.7796 -0.6621
 8669SOL    HW234408   3.140   2.454   0.248  0.4202 -0.0850 -0.8374
 8669SOL    HW334409   3.086   2.475   0.109 -1.0037  1.3718 -0.0941
 8669SOL    MW434410   3.149   2.486   0.168  0.1572 -0.9253  0.3955
 8670SOL     OW34411   5.456   3.263   6.253 -0.0939  0.0932  0.1842
 8670SOL    HW234412   5.502   3.188   6.214 -1.4371 -1.3241  1.1860
 8670SOL    HW334413   5.493   3.271   6.341 -0.1907  0.3946  0.1985
 8670SOL    MW434414   5.467   3.254   6.260  0.4266 -0.1299 -0.0311
 8671SOL     OW34415   3.002   4.285   0.507 -0.4595 -0.1029 -0.3289
 8671SOL    HW234416   3.082   4.311   0.553 -0.2215 -2.3185  0.6212
 8671SOL    HW334417   2.976   4.363   0.459  0.5165  1.6583  1.8267
 8671SOL    MW434418   3.009   4.299   0.507 -0.6339 -0.0789 -0.2141
 8672SOL     OW34419   3.784   2.108   0.110  0.1491 -0.3517 -0.2798
 8672SOL    HW234420   3.786   2.030   0.166 -0.8674  0.4849  0.9972
 8672SOL    HW334421   3.875   2.134   0.102  0.4118 -1.1427  0.0464
 8672SOL    MW434422   3.796   2.101   0.117 -0.5975  0.5659  0.5133
 8673SOL     OW34423   1.409   4.839   0.117  0.4451  0.3332 -0.7818
 8673SOL    HW234424   1.322   4.834   0.079  0.5797  0.3625 -1.0933
 8673SOL    HW334425   1.422   4.932   0.136 -0.4533  0.0938  1.2882
 8673SOL    MW434426   1.400   4.850   0.115  0.0627  0.4699 -0.1015
 8674SOL     OW34427   0.230   0.134   2.127  0.0557 -0.5256  0.6423
 8674SOL    HW234428   0.188   0.050   2.106  0.7689 -0.5224 -0.9532
 8674SOL    HW334429   0.211   0.148   2.220 -2.9539 -0.8238  0.1988
 8674SOL    MW434430   0.222   0.125   2.137  0.1425 -0.1214  0.3529
 8675SOL     OW34431   5.088   5.048   1.029  0.0785 -0.0511 -0.0587
 8675SOL    HW234432   4.996   5.035   1.004  0.2295 -0.6763 -0.3277
 8675SOL    HW334433   5.085   5.083   1.118 -0.4004 -2.3472  0.9014
 8675SOL    MW434434   5.076   5.051   1.037 -0.2092  0.3896  1.0775
 8676SOL     OW34435   6.063   1.209   2.426 -0.1171 -0.0133 -0.2279
 8676SOL    HW234436   6.041   1.148   2.355 -0.1095  0.2433 -0.4492
 8676SOL    HW334437   5.987   1.204   2.485  0.2315 -0.8331  0.1604
 8676SOL    MW434438   6.050   1.200   2.425 -0.1109 -0.5055 -0.1540
 8677SOL     OW34439   2.809   2.398   1.015 -0.4211  0.2630 -0.2687
 8677SOL    HW234440   2.898   2.379   0.985  0.0786  2.2018 -0.1589
 8677SOL    HW334441   2.798   2.492   0.997 -0.8753  1.0881  3.4901
 8677SOL    MW434442   2.820   2.408   1.009  0.2138 -0.1808 -0.2405
 8678SOL     OW34443   3.880   2.781   4.640  0.0120 -0.0504 -0.9565
 8678SOL    HW234444   3.951   2.723   4.667 -1.2333 -1.0293  0.3646
 8678SOL    HW334445   3.902   2.865   4.682  0.6582 -0.1740 -1.0264
 8678SOL    MW434446   3.893   2.785   4.649 -0.0606 -0.4306  0.0022
 8679SOL     OW34447   3.721   6.109   2.688  0.1306  0.2330 -0.6774
 8679SOL    HW234448   3.789   6.041   2.685  0.5838  0.7157 -1.5308
 8679SOL    HW334449   3.640   6.062   2.669  0.0606 -0.5162  1.2565
 8679SOL    MW434450   3.719   6.094   2.685 -0.2814  0.0344  0.3238
 8680SOL     OW34451   1.904   0.692   2.744 -0.5082  0.4634 -0.4114
 8680SOL    HW234452   1.920   0.748   2.821  0.6543  0.2967 -0.5131
 8680SOL    HW334453   1.841   0.741   2.692 -0.1908  1.2752 -0.0595
 8680SOL    MW434454   1.898   0.706   2.747  0.1518 -0.3203 -0.1408
 8681SOL     OW34455   5.431   0.363   3.935  0.1374 -0.4873  1.1959
 8681SOL    HW234456   5.439   0.438   3.994  1.0523  1.1419 -0.8529
 8681SOL    HW334457   5.521   0.346   3.906 -0.3149 -1.0526  0.0846
 8681SOL    MW434458   5.444   0.371   3.939  0.5920  0.2176 -0.2380
 8682SOL     OW34459   5.419   4.358   6.362 -0.3564  0.0056 -0.4566
 8682SOL    HW234460   5.347   4.387   6.418 -0.6701 -1.0765 -0.2755
 8682SOL    HW334461   5.497   4.397   6.401 -0.8793  1.8171 -1.0796
 8682SOL    MW434462   5.420   4.367   6.375 -0.6876  0.1626 -0.1760
 8683SOL     OW34463   2.051   0.859   3.216  0.0467  0.5029  0.5604
 8683SOL    HW234464   2.138   0.878   3.251  0.1855 -1.4688  1.3898
 8683SOL    HW334465   1.993   0.922   3.259  0.7529  0.4405  1.6396
 8683SOL    MW434466   2.055   0.870   3.226  0.4057 -0.1016 -0.3428
 8684SOL     OW34467   1.436   5.573   3.278  0.2870  0.2622 -0.9488
 8684SOL    HW234468   1.452   5.511   3.348  1.3992 -0.2811 -1.6524
 8684SOL    HW334469   1.420   5.656   3.322 -0.0842 -0.2892 -0.0328
 8684SOL    MW434470   1.436   5.576   3.293  0.8879  0.5521  0.4279
 8685SOL     OW34471   3.357   3.922   1.274  0.3230  0.2410  0.2219
 8685SOL    HW234472   3.269   3.960   1.277  0.2919  0.1407  1.4103
 8685SOL    HW334473   3.401   3.960   1.350  1.2107  0.0477 -0.1873
 8685SOL    MW434474   3.351   3.932   1.285  0.7789  0.2520  0.2005
 8686SOL     OW34475   3.170   0.008   1.836 -0.1791 -0.1520  0.2250
 8686SOL    HW234476   3.074   0.008   1.834 -0.1973 -1.2704  0.7337
 8686SOL    HW334477   3.195  -0.084   1.833  0.8600  0.0738  1.1989
 8686SOL    MW434478   3.161  -0.004   1.836 -0.1480 -0.3339  0.1117
 8687SOL     OW34479   2.404   5.441   2.531  0.0470 -0.1652  0.1210
 8687SOL    HW234480   2.476   5.487   2.486  0.8792 -1.2134  0.3467
 8687SOL    HW334481   2.419   5.349   2.511 -1.5048 -0.3759 -0.1848
 8687SOL    MW434482   2.415   5.435   2.522 -0.0080  0.5090  0.5881
 8688SOL     OW34483   3.808   3.008   6.398  0.1872  0.5458  0.2243
 8688SOL    HW234484   3.873   3.017   6.328  1.4748 -0.6220  1.1997
 8688SOL    HW334485   3.787   2.915   6.400  0.9079  0.3755  1.9652
 8688SOL    MW434486   3.814   2.997   6.389 -0.2639  0.7172 -0.8462
 8689SOL     OW34487   6.126   6.110   1.195  0.1138  0.1980  0.2786
 8689SOL    HW234488   6.058   6.085   1.257  0.3363 -1.3613 -0.0627
 8689SOL    HW334489   6.183   6.033   1.189  0.6501  0.6613 -1.1160
 8689SOL    MW434490   6.125   6.097   1.202  0.1224  0.1256  0.4299
 8690SOL     OW34491   0.887   4.798   4.152 -0.3351 -0.0863  0.3868
 8690SOL    HW234492   0.894   4.892   4.131  1.4277  0.0591  1.3546
 8690SOL    HW334493   0.795   4.785   4.174 -0.6916  1.3468 -0.1321
 8690SOL    MW434494   0.876   4.809   4.152 -0.3943 -0.2003  0.1708
 8691SOL     OW34495   6.389   5.066   2.240  0.1235  0.2748  0.4333
 8691SOL    HW234496   6.421   5.130   2.303 -0.8243  2.0029 -0.7456
 8691SOL    HW334497   6.434   5.089   2.158  1.9841 -2.4319  0.5517
 8691SOL    MW434498   6.399   5.077   2.237  0.1955 -0.1579 -0.6620
 8692SOL     OW34499   3.216   6.122   0.986 -0.3286 -0.3361 -0.2373
 8692SOL    HW234500   3.234   6.036   1.026  0.3271  0.0309  0.2704
 8692SOL    HW334501   3.251   6.115   0.897 -0.2933 -0.5977 -0.2044
 8692SOL    MW434502   3.223   6.110   0.979  0.4041 -0.0233 -0.1993
 8693SOL     OW34503   3.653   1.727   0.035 -0.9220 -0.2027  0.9816
 8693SOL    HW234504   3.690   1.790   0.097 -0.0491 -0.1613  0.4379
 8693SOL    HW334505   3.661   1.769  -0.050 -1.7352 -0.4324  0.7848
 8693SOL    MW434506   3.659   1.741   0.032  0.2237 -0.5569  0.1945
 8694SOL     OW34507   2.062   0.389   0.547  0.1536 -0.1944  0.2491
 8694SOL    HW234508   2.004   0.446   0.596 -1.7189 -0.3402 -1.6636
 8694SOL    HW334509   2.074   0.433   0.463  0.0328 -1.7734 -0.6420
 8694SOL    MW434510   2.056   0.402   0.542  0.1690 -0.3118  0.5171
 8695SOL     OW34511   1.486   2.294   6.119 -0.2399 -0.3804  0.1781
 8695SOL    HW234512   1.432   2.312   6.042  1.1112  0.7947 -0.5223
 8695SOL    HW334513   1.563   2.348   6.108 -1.2503  2.1563  3.7660
 8695SOL    MW434514   1.489   2.303   6.108 -0.1057 -0.0328  0.4098
 8696SOL     OW34515   2.055   4.338   6.194 -0.3896  0.2049 -0.0646
 8696SOL    HW234516   2.144   4.352   6.162  0.0325 -0.3722  0.8048
 8696SOL    HW334517   2.013   4.423   6.188 -0.6724 -0.0285 -3.0472
 8696SOL    MW434518   2.061   4.351   6.189 -0.3236 -0.2051 -0.1355
 8697SOL     OW34519   1.430   2.702   5.934  0.3234 -0.0194 -0.1670
 8697SOL    HW234520   1.391   2.717   5.848  1.3575  0.5861 -0.5517
 8697SOL    HW334521   1.364   2.732   5.996  0.4152  1.6246 -0.8091
 8697SOL    MW434522   1.416   2.708   5.931  0.0089  0.8156  0.1820
 8698SOL     OW34523   5.417   0.901   0.769  0.0563 -0.0224  0.8920
 8698SOL    HW234524   5.417   0.991   0.802 -0.1420  0.7560 -1.1090
 8698SOL    HW334525   5.510   0.878   0.763  0.4498  1.7581 -2.7283
 8698SOL    MW434526   5.429   0.910   0.773  0.3831 -0.0696 -0.2926
 8699SOL     OW34527   5.139   2.485   1.923 -0.1836 -0.0062  0.4974
 8699SOL    HW234528   5.206   2.425   1.891  0.6240  1.1171  0.0431
 8699SOL    HW334529   5.082   2.499   1.847  0.8985  1.5084 -0.0852
 8699SOL    MW434530   5.140   2.479   1.909 -0.1855 -0.1903 -0.6141
 8700SOL     OW34531   5.860   3.720   0.434  0.2376  0.7317  0.1153
 8700SOL    HW234532   5.873   3.634   0.476  0.2353  0.6504 -0.0489
 8700SOL    HW334533   5.942   3.735   0.386  0.5416  1.1679  0.7513
 8700SOL    MW434534   5.873   3.710   0.433 -0.5700 -0.9644 -0.2842
 8701SOL     OW34535   4.791   3.388   3.961  0.5156 -0.3824 -0.1273
 8701SOL    HW234536   4.768   3.419   3.874  3.4940 -2.2131 -1.7017
 8701SOL    HW334537   4.810   3.468   4.010 -1.5381  0.6943 -0.9585
 8701SOL    MW434538   4.790   3.403   3.956 -0.2346  0.8010 -0.2297
 8702SOL     OW34539   0.833   1.348   1.202 -0.2930  0.2158 -0.5284
 8702SOL    HW234540   0.758   1.390   1.245  0.5247  2.3577 -1.0823
 8702SOL    HW334541   0.818   1.254   1.215 -1.7867  0.6629  1.5073
 8702SOL    MW434542   0.821   1.341   1.209 -0.5666 -0.2358  0.5112
 8703SOL     OW34543   0.414   3.981   0.418  0.0433 -0.8063 -0.0177
 8703SOL    HW234544   0.422   3.886   0.427  1.6088 -1.1225 -3.4038
 8703SOL    HW334545   0.503   4.011   0.403 -0.6399  0.9585 -0.8270
 8703SOL    MW434546   0.427   3.973   0.418  0.1580  0.2496 -0.4133
 8704SOL     OW34547   0.890   4.183   3.836 -0.0371  0.6388  0.1171
 8704SOL    HW234548   0.871   4.141   3.752 -1.6856  0.4633  0.5508
 8704SOL    HW334549   0.848   4.269   3.831  2.1366  1.7659 -0.2258
 8704SOL    MW434550   0.882   4.189   3.824  0.1101 -0.5521  0.2556
 8705SOL     OW34551   6.204   3.515   5.418  0.1499 -0.0122 -0.2551
 8705SOL    HW234552   6.188   3.545   5.329  0.1564 -0.7133 -0.5019
 8705SOL    HW334553   6.277   3.454   5.410 -0.3836 -0.7141  0.0970
 8705SOL    MW434554   6.211   3.511   5.405 -0.2209 -0.2319  0.4802
 8706SOL     OW34555   2.229   0.789   3.787 -0.1537 -0.8757 -0.0229
 8706SOL    HW234556   2.170   0.857   3.754  1.1491 -0.2435 -1.2006
 8706SOL    HW334557   2.172   0.718   3.815 -1.5924  0.9044  1.7831
 8706SOL    MW434558   2.214   0.789   3.786 -0.7379 -0.0481  0.0232
 8707SOL     OW34559   4.866   6.001   0.263  0.6504  0.2766 -0.4112
 8707SOL    HW234560   4.856   6.063   0.335  3.3921 -0.0077  0.3262
 8707SOL    HW334561   4.894   5.919   0.305  0.2516 -0.5371 -1.6552
 8707SOL    MW434562   4.868   5.998   0.278 -0.0298 -0.7183  0.0448
 8708SOL     OW34563   5.899   1.442   5.765 -0.1546 -0.4844 -0.0324
 8708SOL    HW234564   5.886   1.537   5.763 -1.2838 -0.5882  0.8083
 8708SOL    HW334565   5.936   1.424   5.851  0.4204 -0.7689 -0.3355
 8708SOL    MW434566   5.902   1.452   5.776 -0.4402 -0.4113 -0.2639
 8709SOL     OW34567   5.368   0.987   1.811  0.2995  0.1336  0.3030
 8709SOL    HW234568   5.368   0.949   1.724 -0.7860  0.3474  0.1890
 8709SOL    HW334569   5.429   1.061   1.805 -1.4073  1.5316 -0.9419
 8709SOL    MW434570   5.376   0.992   1.799  0.3922  0.0379  0.2194
 8710SOL     OW34571   4.462   1.504   5.360 -0.6753 -0.2584 -0.0983
 8710SOL    HW234572   4.482   1.429   5.304  0.7271 -0.9018  1.1897
 8710SOL    HW334573   4.429   1.571   5.300 -0.7694 -1.4720 -1.4484
 8710SOL    MW434574   4.461   1.503   5.345 -0.1323  0.1868  0.7175
 8711SOL     OW34575   1.491   2.784   5.159 -0.1669 -0.0466  0.4789
 8711SOL    HW234576   1.444   2.712   5.116  2.5891 -1.1451 -0.9179
 8711SOL    HW334577   1.574   2.790   5.112  0.9292  2.1170  2.4987
 8711SOL    MW434578   1.495   2.775   5.147  0.0231 -0.3263 -0.4935
 8712SOL     OW34579   0.646   0.743   0.403 -0.0543  0.5296  0.7122
 8712SOL    HW234580   0.687   0.728   0.318 -0.3185  2.7331  0.1204
 8712SOL    HW334581   0.552   0.748   0.384 -0.3396 -1.1851  1.5245
 8712SOL    MW434582   0.639   0.742   0.389 -0.0206 -0.6841 -0.1255
 8713SOL     OW34583   5.396   0.582   1.222 -0.4238  0.4330 -0.0087
 8713SOL    HW234584   5.357   0.505   1.181  0.0736  1.3729 -2.3768
 8713SOL    HW334585   5.371   0.655   1.165  0.3962  1.8120  1.3251
 8713SOL    MW434586   5.388   0.582   1.209 -0.3088  0.1695  0.1981
 8714SOL     OW34587   0.800   5.323   1.412  0.0196 -1.0037  0.8567
 8714SOL    HW234588   0.803   5.228   1.421 -1.2984 -1.0602  0.9202
 8714SOL    HW334589   0.809   5.356   1.502 -1.0462 -1.1454  1.0359
 8714SOL    MW434590   0.801   5.315   1.425  0.1506 -0.0473  0.2941
 8715SOL     OW34591   4.827   5.722   4.328  0.3796 -0.6595 -0.1576
 8715SOL    HW234592   4.881   5.800   4.318  0.9661 -1.0926 -0.4626
 8715SOL    HW334593   4.825   5.683   4.240  1.5972 -1.9428  0.3310
 8715SOL    MW434594   4.834   5.727   4.315  0.6953 -0.4693 -0.1331
 8716SOL     OW34595   1.201   1.873   0.237 -0.8822 -0.3646  0.1847
 8716SOL    HW234596   1.191   1.861   0.332 -0.2394 -1.2281  0.1483
 8716SOL    HW334597   1.225   1.787   0.204  0.4096  0.2573 -0.5657
 8716SOL    MW434598   1.203   1.860   0.245  0.1333 -0.6485  0.5106
 8717SOL     OW34599   5.309   1.452   5.384  0.5874 -0.2092  0.4511
 8717SOL    HW234600   5.244   1.403   5.334  2.1084 -0.8392 -0.9962
 8717SOL    HW334601   5.265   1.473   5.467 -2.0533  0.9248 -1.1185
 8717SOL    MW434602   5.295   1.449   5.388 -0.3917  0.1425  0.1051
 8718SOL     OW34603   5.157   0.461   5.272 -0.4587  0.2785 -0.0064
 8718SOL    HW234604   5.158   0.366   5.266 -0.5163  0.3692 -1.9452
 8718SOL    HW334605   5.205   0.480   5.353  0.7420 -1.3512 -0.2882
 8718SOL    MW434606   5.164   0.451   5.282 -0.0153 -0.0854  0.3462
 8719SOL     OW34607   1.418   1.768   2.131 -0.2697  0.1752 -0.5845
 8719SOL    HW234608   1.463   1.801   2.208  1.8434 -0.4911 -1.4633
 8719SOL    HW334609   1.383   1.847   2.088 -3.0785  0.4487  1.8515
 8719SOL    MW434610   1.419   1.783   2.135  0.4030 -0.4220 -0.8028
 8720SOL     OW34611   3.818   5.063   6.311  0.6584 -0.5713  0.1562
 8720SOL    HW234612   3.910   5.038   6.323  1.1633  0.2614 -1.6334
 8720SOL    HW334613   3.791   5.020   6.230 -0.1935  0.0685  0.0797
 8720SOL    MW434614   3.827   5.054   6.302 -0.3018  0.1187 -0.0810
 8721SOL     OW34615   5.333   3.071   4.606 -0.0957  0.1763 -0.1354
 8721SOL    HW234616   5.331   3.096   4.514  2.4136  1.6615  0.1353
 8721SOL    HW334617   5.354   2.977   4.605  1.2252  0.4575 -1.0850
 8721SOL    MW434618   5.335   3.062   4.594 -0.0773  0.1137  0.2447
 8722SOL     OW34619   3.906   0.883   5.464  0.4331  0.7475 -0.0857
 8722SOL    HW234620   3.854   0.831   5.403 -0.0026 -0.4630  1.2624
 8722SOL    HW334621   3.864   0.870   5.549  2.2064  0.7231  0.8435
 8722SOL    MW434622   3.894   0.874   5.467  0.2126 -0.2650  0.2552
 8723SOL     OW34623   3.467   1.078   1.216  0.6116  0.4402 -0.2728
 8723SOL    HW234624   3.409   1.151   1.238 -0.2697 -0.3670  0.1858
 8723SOL    HW334625   3.417   1.027   1.152  0.8784 -0.1781  0.0080
 8723SOL    MW434626   3.453   1.081   1.210 -0.2281  0.1863  0.1730
 8724SOL     OW34627   4.033   4.523   4.891 -0.3428  0.2470 -0.2468
 8724SOL    HW234628   4.127   4.518   4.904 -0.1781  0.7896 -1.1053
 8724SOL    HW334629   4.008   4.607   4.930 -0.6535 -0.3796  0.9317
 8724SOL    MW434630   4.042   4.534   4.898 -0.1909  0.0145 -0.2458
 8725SOL     OW34631   2.524   5.464   5.263  0.3046  0.4287  0.0562
 8725SOL    HW234632   2.469   5.423   5.331 -0.7309  0.5256 -0.6994
 8725SOL    HW334633   2.462   5.515   5.211  1.4084  2.1227  0.3395
 8725SOL    MW434634   2.508   5.465   5.265  0.2713 -0.0288 -0.1975
 8726SOL     OW34635   5.269   2.030   1.178  0.2643 -0.0787  0.1648
 8726SOL    HW234636   5.229   2.017   1.264 -0.8122 -0.2451 -0.3485
 8726SOL    HW334637   5.201   2.006   1.115  1.5132 -1.3782 -0.7463
 8726SOL    MW434638   5.254   2.025   1.181 -0.3366 -0.2295 -0.0632
 8727SOL     OW34639   3.040   3.413   2.400  0.0859 -0.0773 -0.2289
 8727SOL    HW234640   2.976   3.459   2.454  1.6980 -1.4968  3.1663
 8727SOL    HW334641   2.988   3.348   2.352 -1.3824  0.9453 -0.0869
 8727SOL    MW434642   3.025   3.410   2.401  0.2422  0.9732  0.2483
 8728SOL     OW34643   5.889   1.846   2.135  0.0512  0.3458 -0.4991
 8728SOL    HW234644   5.884   1.892   2.052  2.1422 -0.0078 -0.8591
 8728SOL    HW334645   5.919   1.758   2.113  0.7137  0.2629  0.6279
 8728SOL    MW434646   5.892   1.840   2.121  0.4096 -0.7855  0.1155
 8729SOL     OW34647   3.140   3.411   1.677 -0.2089 -0.0012 -0.2473
 8729SOL    HW234648   3.177   3.475   1.616 -1.1691 -0.3706 -1.2508
 8729SOL    HW334649   3.057   3.449   1.704 -0.1631 -0.2163  0.1988
 8729SOL    MW434650   3.134   3.425   1.672 -0.1125  0.2886  0.0781
 8730SOL     OW34651   4.403   1.515   2.729  0.6229 -0.2099 -0.2574
 8730SOL    HW234652   4.402   1.422   2.750 -2.6502 -0.1503  0.3092
 8730SOL    HW334653   4.351   1.522   2.649 -0.0022  1.2064  0.2431
 8730SOL    MW434654   4.396   1.504   2.721  0.4809 -0.2399 -0.1552
 8731SOL     OW34655   5.105   3.736   0.871  0.3812  0.3108  0.2453
 8731SOL    HW234656   5.055   3.703   0.797  1.3088 -0.0984 -0.2260
 8731SOL    HW334657   5.125   3.826   0.848  1.2253 -0.0067 -0.3294
 8731SOL    MW434658   5.101   3.743   0.858 -0.1446 -0.1705 -0.0990
 8732SOL     OW34659   4.770   3.383   0.710 -0.7827  0.9619  0.0173
 8732SOL    HW234660   4.723   3.310   0.749 -1.3802  1.4068  0.1296
 8732SOL    HW334661   4.863   3.363   0.726 -1.0066  1.9309  3.1468
 8732SOL    MW434662   4.776   3.371   0.717 -0.0010  0.2898  0.0969
 8733SOL     OW34663   4.086   4.035   0.842  0.0472 -0.2666 -0.0937
 8733SOL    HW234664   4.092   3.962   0.903  1.3976 -0.9863 -1.0599
 8733SOL    HW334665   4.171   4.079   0.849 -0.5004  0.8227 -0.0364
 8733SOL    MW434666   4.098   4.031   0.851 -0.3594 -0.4554  0.0744
 8734SOL     OW34667   4.089   1.260   5.372  0.3518 -0.3438  0.2277
 8734SOL    HW234668   4.018   1.216   5.419  2.0224 -1.0036  2.2890
 8734SOL    HW334669   4.110   1.201   5.300 -0.1958 -0.8768  0.4965
 8734SOL    MW434670   4.082   1.246   5.369  0.2911 -0.1717  0.0417
 8735SOL     OW34671   1.094   3.237   2.152  0.1491  0.0818  0.2865
 8735SOL    HW234672   1.153   3.188   2.093 -0.7160  0.4397 -0.9197
 8735SOL    HW334673   1.013   3.187   2.151 -0.1325  0.5355  0.5289
 8735SOL    MW434674   1.091   3.224   2.144 -0.1386  0.3449  0.3008
 8736SOL     OW34675   0.009   0.317   1.587 -0.2868  0.3352  0.1450
 8736SOL    HW234676   0.068   0.270   1.646  1.6872  1.5225 -0.7777
 8736SOL    HW334677   0.005   0.262   1.508  0.4810  0.7708 -0.2046
 8736SOL    MW434678   0.016   0.303   1.584  0.8413 -0.4768 -0.4335
 8737SOL     OW34679   2.138   2.355   2.816 -0.0134 -0.2314 -0.6796
 8737SOL    HW234680   2.204   2.301   2.772 -0.1940 -1.0327 -0.0151
 8737SOL    HW334681   2.148   2.442   2.778  1.8178 -0.1885 -0.2005
 8737SOL    MW434682   2.148   2.359   2.805 -0.1505  0.4348 -0.5382
 8738SOL     OW34683   6.216   4.507   0.210 -0.1205  0.1626  0.8703
 8738SOL    HW234684   6.178   4.437   0.263  1.0646  0.5298  2.2597
 8738SOL    HW334685   6.164   4.584   0.231  0.8873  0.5087  2.2431
 8738SOL    MW434686   6.204   4.508   0.220  0.0395 -0.7237  0.7901
 8739SOL     OW34687   4.689   4.437   2.061  0.2360  0.3187  0.0970
 8739SOL    HW234688   4.696   4.343   2.042 -0.7012  0.1882  0.3581
 8739SOL    HW334689   4.771   4.474   2.028 -0.0514 -0.3495 -1.4635
 8739SOL    MW434690   4.701   4.429   2.054  0.2288 -0.5843 -0.1978
 8740SOL     OW34691   6.169   0.991   2.254 -0.5084  0.6302  0.2911
 8740SOL    HW234692   6.226   0.988   2.331  0.6756  0.1145 -0.5686
 8740SOL    HW334693   6.217   1.045   2.191 -0.8312 -0.0497 -0.5559
 8740SOL    MW434694   6.183   0.997   2.255  0.1716 -0.2033  0.0923
 8741SOL     OW34695   5.421   3.843   0.572 -0.2200  0.9774 -0.1463
 8741SOL    HW234696   5.488   3.842   0.641  0.5308  0.5110 -0.8586
 8741SOL    HW334697   5.364   3.917   0.595  0.3426  1.1781  0.6595
 8741SOL    MW434698   5.422   3.853   0.584 -0.2255 -1.1187  0.0959
 8742SOL     OW34699   4.430   1.029   5.177  0.5545 -0.3257  0.1115
 8742SOL    HW234700   4.335   1.030   5.166  0.4270  2.5926  0.5830
 8742SOL    HW334701   4.442   1.037   5.272  1.2689 -0.4785  0.0354
 8742SOL    MW434702   4.419   1.030   5.188  0.1764  0.1058 -0.1782
 8743SOL     OW34703   3.418   2.341   0.320 -0.4269  0.1900 -0.3220
 8743SOL    HW234704   3.489   2.279   0.331 -1.8025 -1.4337 -0.1803
 8743SOL    HW334705   3.459   2.427   0.331  1.8036 -0.5861 -1.8797
 8743SOL    MW434706   3.433   2.344   0.323 -0.3405 -0.2645  0.2627
 8744SOL     OW34707   3.212   2.771   0.920  0.1548 -0.0971 -0.6308
 8744SOL    HW234708   3.121   2.782   0.894 -0.2530 -0.6046  0.5749
 8744SOL    HW334709   3.219   2.681   0.950  0.7676  0.2706  0.3898
 8744SOL    MW434710   3.201   2.761   0.920  0.2311  0.0142  0.1467
 8745SOL     OW34711   5.876   6.159   5.022 -0.2643 -0.5200 -1.0743
 8745SOL    HW234712   5.845   6.225   5.083 -0.8434  0.7844 -2.6947
 8745SOL    HW334713   5.929   6.207   4.959 -2.8219 -1.0132 -3.8215
 8745SOL    MW434714   5.879   6.174   5.022 -0.2413  0.2502 -0.1715
 8746SOL     OW34715   3.398   3.390   2.902 -0.1084  0.0968  0.2756
 8746SOL    HW234716   3.482   3.358   2.869 -0.1375 -1.4465  1.5803
 8746SOL    HW334717   3.334   3.324   2.873 -0.5574  0.2133  0.9699
 8746SOL    MW434718   3.400   3.377   2.894  0.1508 -1.1822 -0.0694
 8747SOL     OW34719   0.827   3.462   3.843  0.4549  0.8028 -0.5797
 8747SOL    HW234720   0.773   3.397   3.886  1.3579  0.2591 -0.2274
 8747SOL    HW334721   0.783   3.545   3.859 -0.0299  0.4272  0.0810
 8747SOL    MW434722   0.814   3.464   3.851  0.7246  0.3608  0.1992
 8748SOL     OW34723   5.680   0.162   5.049  0.3108 -0.5208 -0.0376
 8748SOL    HW234724   5.737   0.091   5.078  0.6473 -0.2515 -0.0338
 8748SOL    HW334725   5.594   0.139   5.083  0.9377  0.4849  2.4402
 8748SOL    MW434726   5.676   0.150   5.057 -0.3015 -0.7066 -0.2832
 8749SOL     OW34727   2.750   3.870   2.804  0.0537  0.3242  0.3759
 8749SOL    HW234728   2.670   3.842   2.760 -0.2117  0.3915  0.8099
 8749SOL    HW334729   2.780   3.792   2.851 -0.5398  0.6611  1.3666
 8749SOL    MW434730   2.743   3.856   2.805 -0.1870  0.0704 -0.2469
 8750SOL     OW34731   3.232   0.174   3.162 -0.0835  0.4336  0.4610
 8750SOL    HW234732   3.187   0.242   3.112 -0.3194  0.5908  0.8841
 8750SOL    HW334733   3.306   0.220   3.203 -0.8390  0.6806  1.5974
 8750SOL    MW434734   3.236   0.189   3.161  0.5178  0.1135  0.2811
 8751SOL     OW34735   1.791   3.017   0.716 -0.0740 -0.5078 -0.8160
 8751SOL    HW234736   1.789   3.008   0.621 -0.1963  1.1153 -0.9911
 8751SOL    HW334737   1.831   3.103   0.731  0.9524 -1.1984  0.6387
 8751SOL    MW434738   1.796   3.027   0.706  0.1111 -0.9569  0.4986
 8752SOL     OW34739   2.934   6.120   0.901 -0.0653  0.3008  0.0524
 8752SOL    HW234740   3.026   6.146   0.900 -0.6940  2.8120 -0.0872
 8752SOL    HW334741   2.907   6.128   0.993 -0.1347 -0.5551  0.1161
 8752SOL    MW434742   2.943   6.125   0.913  0.7347 -0.5357  0.1811
 8753SOL     OW34743   2.145   0.171   3.507  0.4253  0.5736  0.6293
 8753SOL    HW234744   2.142   0.261   3.539  1.1438 -0.0663  2.6799
 8753SOL    HW334745   2.110   0.176   3.418 -0.4241  2.7115  1.0158
 8753SOL    MW434746   2.140   0.184   3.499  0.0974  0.2746 -0.3811
 8754SOL     OW34747   6.207   3.086   2.610  0.6039  0.1677 -0.2151
 8754SOL    HW234748   6.181   3.062   2.699 -0.7889 -0.2322 -0.7055
 8754SOL    HW334749   6.152   3.161   2.588  0.9505  0.2778 -0.7364
 8754SOL    MW434750   6.196   3.093   2.619 -0.3640 -0.5540 -0.0270
 8755SOL     OW34751   0.659   6.412   1.171 -0.4428  0.1632  0.3501
 8755SOL    HW234752   0.608   6.489   1.197 -0.8845  1.0856 -2.7900
 8755SOL    HW334753   0.739   6.417   1.223 -0.4763  2.7555  0.2915
 8755SOL    MW434754   0.663   6.423   1.181 -0.1061  0.6856 -0.2184
 8756SOL     OW34755   0.740   5.107   2.869  0.1335 -0.2716  0.2763
 8756SOL    HW234756   0.770   5.172   2.933  1.7203 -1.5751  0.9415
 8756SOL    HW334757   0.759   5.146   2.784 -0.3523  0.7529  0.6212
 8756SOL    MW434758   0.747   5.120   2.866 -0.6446 -0.3268  0.0786
 8757SOL     OW34759   5.988   0.197   0.334  0.3851 -0.0757 -0.7004
 8757SOL    HW234760   6.038   0.217   0.254  0.1767  2.5075 -0.2849
 8757SOL    HW334761   5.899   0.182   0.303  0.8961 -2.3616 -1.2168
 8757SOL    MW434762   5.983   0.198   0.319  0.7202 -0.0186 -0.5114
 8758SOL     OW34763   2.103   3.143   4.069  0.4922  0.0291 -0.2457
 8758SOL    HW234764   2.073   3.191   4.146 -0.6179 -1.4558  0.2941
 8758SOL    HW334765   2.147   3.209   4.015  0.0523  1.3830  0.9946
 8758SOL    MW434766   2.105   3.158   4.072 -0.4559  0.2480 -0.2365
 8759SOL     OW34767   1.117   1.908   6.311 -0.0751 -0.8680 -0.4918
 8759SOL    HW234768   1.193   1.873   6.358  0.4688 -0.0583 -0.7541
 8759SOL    HW334769   1.074   1.966   6.373  0.6461  0.2051 -0.9797
 8759SOL    MW434770   1.121   1.911   6.325  0.8066  0.1987  0.3954
 8760SOL     OW34771   0.111   0.306   0.092 -0.4564  0.2378  0.3908
 8760SOL    HW234772   0.106   0.369   0.021  2.5656  0.3678  0.1619
 8760SOL    HW334773   0.042   0.241   0.073  1.9834 -1.3995 -4.3709
 8760SOL    MW434774   0.101   0.305   0.080  0.6121  0.2371 -0.7961
 8761SOL     OW34775   2.792   4.500   5.778  0.2724 -0.0724 -0.5430
 8761SOL    HW234776   2.737   4.556   5.723 -3.5580 -1.7947  1.1706
 8761SOL    HW334777   2.808   4.422   5.726  1.9983  0.7344 -1.3366
 8761SOL    MW434778   2.787   4.497   5.764  0.5082  0.0650  0.2947
 8762SOL     OW34779   5.698   1.152   1.076 -0.6843 -0.3112 -0.1963
 8762SOL    HW234780   5.694   1.149   0.980 -0.9745 -1.2547 -0.1600
 8762SOL    HW334781   5.731   1.066   1.101 -0.8147 -0.1413  0.5617
 8762SOL    MW434782   5.701   1.140   1.066  0.2415 -0.1319  0.2254
 8763SOL     OW34783   4.206   2.492   0.423  0.2370 -0.3454  0.4318
 8763SOL    HW234784   4.300   2.510   0.421  0.1270  0.3737  1.1804
 8763SOL    HW334785   4.171   2.559   0.482 -0.7758 -0.4676 -0.0225
 8763SOL    MW434786   4.214   2.504   0.431  0.0530 -0.0894 -0.4580
 8764SOL     OW34787   6.049   1.612   6.395 -0.4651  0.1064  0.3776
 8764SOL    HW234788   6.101   1.534   6.412 -3.8578 -2.3182  0.7111
 8764SOL    HW334789   6.032   1.610   6.301 -0.7085  0.3801  0.4130
 8764SOL    MW434790   6.054   1.602   6.385  0.1086  0.0525  0.1080
 8765SOL     OW34791   5.956   4.301   4.677  0.0415 -0.5135  0.4106
 8765SOL    HW234792   5.882   4.347   4.716  0.0042 -0.2079 -0.0171
 8765SOL    HW334793   5.936   4.208   4.689 -1.5352 -0.5158 -1.7462
 8765SOL    MW434794   5.944   4.295   4.684  0.0124  0.2455  0.1721
 8766SOL     OW34795   6.050   2.870   1.461 -0.0420  0.2346  0.1233
 8766SOL    HW234796   5.973   2.884   1.406  0.8488  0.8064 -1.0251
 8766SOL    HW334797   6.119   2.843   1.400  0.3747 -1.5403  1.2781
 8766SOL    MW434798   6.049   2.868   1.446 -0.0984  0.3340 -0.3901
 8767SOL     OW34799   4.701   0.131   6.385 -0.2006  0.8938  0.2373
 8767SOL    HW234800   4.722   0.166   6.298  1.5829  0.2049  0.3599
 8767SOL    HW334801   4.641   0.196   6.422  1.2912  2.7406 -0.3911
 8767SOL    MW434802   4.696   0.144   6.378  0.4090 -0.1997 -0.1916
 8768SOL     OW34803   5.422   5.011   6.213 -0.0139 -0.2720 -0.1373
 8768SOL    HW234804   5.352   5.071   6.239  0.1692 -0.2350  0.2729
 8768SOL    HW334805   5.406   4.996   6.120  1.1075  1.9926 -0.7609
 8768SOL    MW434806   5.410   5.017   6.204  0.4198 -0.1876  0.0895
 8769SOL     OW34807   3.044   4.968   1.143 -0.3348  0.0334  0.0064
 8769SOL    HW234808   3.032   4.966   1.048  0.9999 -0.0551 -0.1793
 8769SOL    HW334809   2.985   4.900   1.176  0.7588 -1.4951 -0.9879
 8769SOL    MW434810   3.035   4.959   1.135  0.0179 -0.5676 -0.0882
 8770SOL     OW34811   6.257   1.675   3.842 -0.0101 -0.0978 -0.4362
 8770SOL    HW234812   6.300   1.758   3.862 -0.3473 -0.0147 -0.0488
 8770SOL    HW334813   6.185   1.698   3.783 -0.6471  0.0107  0.3628
 8770SOL    MW434814   6.253   1.689   3.837 -0.3338  0.3462 -0.5653
 8771SOL     OW34815   5.663   4.413   3.873  0.3846 -0.2908 -0.4859
 8771SOL    HW234816   5.749   4.381   3.902  0.9330 -0.7416 -2.4504
 8771SOL    HW334817   5.684   4.484   3.812 -0.6967  0.3844 -0.0916
 8771SOL    MW434818   5.677   4.418   3.868 -0.1602  0.0933  0.3931
 8772SOL     OW34819   6.242   0.073   0.700 -0.3510 -0.2693  0.5215
 8772SOL    HW234820   6.318   0.112   0.742  0.0422 -0.8358  0.3399
 8772SOL    HW334821   6.262  -0.020   0.694 -1.1338 -0.4606  0.6355
 8772SOL    MW434822   6.254   0.066   0.705 -0.6654  0.0169 -0.0103
 8773SOL     OW34823   5.701   4.907   1.351  0.3236 -0.0503  0.0072
 8773SOL    HW234824   5.674   4.817   1.369  1.9018 -0.2925  1.4006
 8773SOL    HW334825   5.719   4.944   1.438 -0.2848  1.6265 -0.5357
 8773SOL    MW434826   5.700   4.900   1.365  0.0289  0.6705  0.0237
 8774SOL     OW34827   3.286   1.369   1.561  0.0014  0.0039  0.0990
 8774SOL    HW234828   3.266   1.287   1.606 -1.1157 -0.6756 -1.5492
 8774SOL    HW334829   3.214   1.427   1.585 -1.1873 -0.7079 -1.5882
 8774SOL    MW434830   3.274   1.366   1.570  0.4018 -0.1405  0.1310
 8775SOL     OW34831   1.734   2.854   5.052 -0.5588 -0.2579  0.1806
 8775SOL    HW234832   1.805   2.820   4.997 -0.0633  1.5383 -0.3563
 8775SOL    HW334833   1.768   2.847   5.141  0.4816  0.8712 -0.0880
 8775SOL    MW434834   1.748   2.849   5.057 -0.1909  0.3872 -0.1192
 8776SOL     OW34835   2.091   3.442   1.480 -0.1286  0.0253 -0.0516
 8776SOL    HW234836   2.017   3.499   1.498  0.4735  0.9444 -0.4067
 8776SOL    HW334837   2.165   3.484   1.523  0.1810 -0.9193  0.3647
 8776SOL    MW434838   2.091   3.455   1.488 -0.1189  0.5062  0.0135
 8777SOL     OW34839   4.579   4.034   2.869  0.2313  0.7040  0.6238
 8777SOL    HW234840   4.620   4.082   2.796 -1.2447  0.7217 -0.2321
 8777SOL    HW334841   4.544   4.103   2.926 -0.7425  0.6784  0.0725
 8777SOL    MW434842   4.580   4.050   2.867  0.5731  0.1496  0.0782
 8778SOL     OW34843   2.835   4.647   6.022 -0.0729 -0.5386 -0.5438
 8778SOL    HW234844   2.807   4.615   5.936 -2.0094 -2.2150  0.6180
 8778SOL    HW334845   2.781   4.724   6.038 -2.4719 -2.3411  0.6356
 8778SOL    MW434846   2.825   4.653   6.012 -0.1612 -0.1614 -0.0598
 8779SOL     OW34847   3.362   0.033   2.930  0.4891 -0.1562 -0.2250
 8779SOL    HW234848   3.316   0.074   3.003 -1.4430 -1.7339 -0.4618
 8779SOL    HW334849   3.404   0.106   2.884 -1.3506  1.3497  0.3386
 8779SOL    MW434850   3.362   0.048   2.934  0.0963  0.3439 -0.2328
 8780SOL     OW34851   0.513   6.366   0.732  0.1364 -0.0165 -0.6590
 8780SOL    HW234852   0.472   6.452   0.729  1.5357  0.6819 -2.5482
 8780SOL    HW334853   0.587   6.376   0.792  0.7718  0.3712 -1.4835
 8780SOL    MW434854   0.517   6.378   0.739  0.0215 -0.2690  0.3987
 8781SOL     OW34855   1.560   0.150   1.162 -0.3172 -0.2832 -0.2945
 8781SOL    HW234856   1.614   0.075   1.138  1.1188  0.9488 -1.0413
 8781SOL    HW334857   1.471   0.115   1.165  0.3107 -2.0095 -0.6061
 8781SOL    MW434858   1.555   0.136   1.159  0.1052  0.1958  0.0004
 8782SOL     OW34859   1.088   3.340   0.634  0.3490  0.3564 -0.1212
 8782SOL    HW234860   1.100   3.299   0.548  2.5114  0.4466  0.0759
 8782SOL    HW334861   1.082   3.433   0.616 -0.1555  0.3000 -0.2448
 8782SOL    MW434862   1.089   3.347   0.621 -0.0244 -0.2533  0.4078
 8783SOL     OW34863   3.184   2.393   0.438  0.0476 -0.5756 -0.2281
 8783SOL    HW234864   3.192   2.445   0.518  0.1166 -1.1225  0.1293
 8783SOL    HW334865   3.274   2.384   0.406 -0.0229 -0.0052 -0.6034
 8783SOL    MW434866   3.197   2.399   0.444  0.0373 -0.8417  0.3108
 8784SOL     OW34867   2.138   4.730   5.422 -0.1201 -0.0560 -0.5438
 8784SOL    HW234868   2.104   4.695   5.504 -1.5622 -0.6311 -1.3423
 8784SOL    HW334869   2.126   4.659   5.359  1.5915  0.1282 -1.1237
 8784SOL    MW434870   2.132   4.716   5.424 -0.9119  0.3133 -0.6500
 8785SOL     OW34871   6.162   2.406   6.397 -0.1414 -0.1489  0.5448
 8785SOL    HW234872   6.115   2.374   6.321  0.5127 -2.4650  1.0542
 8785SOL    HW334873   6.100   2.465   6.440 -0.4497  1.3782 -1.8092
 8785SOL    MW434874   6.148   2.410   6.393  0.7187  0.4025  0.2927
 8786SOL     OW34875   4.024   3.399   1.512  0.0603 -0.1559  0.5114
 8786SOL    HW234876   3.952   3.452   1.476 -0.2567  1.2904  3.0351
 8786SOL    HW334877   4.073   3.460   1.566  1.9059 -1.6708  0.6266
 8786SOL    MW434878   4.021   3.414   1.514  0.2024 -0.5486 -0.1017
 8787SOL     OW34879   1.049   6.083   0.295 -0.3049  0.2390  0.3886
 8787SOL    HW234880   1.062   6.120   0.382 -0.1748 -0.0943  0.5128
 8787SOL    HW334881   1.129   6.032   0.278 -0.7721 -0.5562  0.5136
 8787SOL    MW434882   1.061   6.081   0.304  0.2309  0.0738 -0.1525
 8788SOL     OW34883   4.946   6.062   2.449  0.4812 -0.1811 -0.0779
 8788SOL    HW234884   5.023   6.114   2.425  0.8012  0.8875  2.8517
 8788SOL    HW334885   4.967   6.026   2.535 -0.8878 -2.9578 -0.7838
 8788SOL    MW434886   4.959   6.064   2.457 -0.3451 -0.2514  0.4148
 8789SOL     OW34887   3.921   1.598   5.724 -0.2141  0.3888 -0.0789
 8789SOL    HW234888   3.919   1.557   5.637  0.7044 -0.7651  0.4114
 8789SOL    HW334889   3.832   1.587   5.758  0.0819 -1.6450  0.1894
 8789SOL    MW434890   3.909   1.591   5.717 -0.1216 -0.0741  0.3727
 8790SOL     OW34891   2.457   5.365   0.788  0.1199  0.0851  0.0978
 8790SOL    HW234892   2.476   5.282   0.745  2.3812  0.7965 -0.4047
 8790SOL    HW334893   2.490   5.354   0.877  0.3666  0.4048  0.0497
 8790SOL    MW434894   2.464   5.353   0.794  0.1329  0.2427 -0.4360
 8791SOL     OW34895   2.340   5.004   3.235  0.0401  0.5011 -0.2036
 8791SOL    HW234896   2.366   4.979   3.146  0.3733  3.2523 -0.9720
 8791SOL    HW334897   2.396   5.079   3.256 -0.6080  0.4234  2.0371
 8791SOL    MW434898   2.351   5.011   3.226 -0.3690 -0.8270 -0.4384
 8792SOL     OW34899   2.878   5.229   0.256  0.4748  0.3195  0.1381
 8792SOL    HW234900   2.891   5.145   0.212  2.8304  0.0642  1.1909
 8792SOL    HW334901   2.849   5.206   0.345  1.8028  0.5573  0.6519
 8792SOL    MW434902   2.876   5.215   0.262  0.4813  0.3709 -0.6417
 8793SOL     OW34903   6.398   1.053   3.527  0.1032 -0.3834 -0.1726
 8793SOL    HW234904   6.353   1.080   3.447 -0.1960  0.8461  0.3956
 8793SOL    HW334905   6.389   1.127   3.586 -0.0267 -1.4182  1.1613
 8793SOL    MW434906   6.391   1.066   3.524  0.0304 -0.4802 -0.1891
 8794SOL     OW34907   5.504   0.650   5.838  0.3457  0.6426 -0.1083
 8794SOL    HW234908   5.520   0.704   5.761  2.1525  1.3796  0.7197
 8794SOL    HW334909   5.551   0.569   5.820 -0.6625  0.1172 -0.4751
 8794SOL    MW434910   5.512   0.646   5.825 -0.2828 -0.3567  0.9547
 8795SOL     OW34911   2.103   2.848   3.551 -0.4166  0.3874  0.3894
 8795SOL    HW234912   2.062   2.778   3.501 -0.0605 -0.0381  0.6826
 8795SOL    HW334913   2.055   2.851   3.634 -1.1371  1.2266 -0.0415
 8795SOL    MW434914   2.092   2.839   3.556  0.1814 -0.3273 -0.3614
 8796SOL     OW34915   0.548   2.613   0.543  0.2072  0.0299 -0.2089
 8796SOL    HW234916   0.453   2.623   0.530  0.2262  1.4000  0.5840
 8796SOL    HW334917   0.556   2.544   0.608 -0.2955  0.5342  0.4026
 8796SOL    MW434918   0.536   2.605   0.550  0.1053  0.1030 -0.3167
 8797SOL     OW34919   6.211   0.840   5.647  0.7422  0.3200  0.2050
 8797SOL    HW234920   6.280   0.824   5.583 -0.0700 -1.3732 -0.3175
 8797SOL    HW334921   6.148   0.897   5.603  1.2281  0.9251  0.2813
 8797SOL    MW434922   6.212   0.845   5.633  0.3006  0.2268 -0.4523
 8798SOL     OW34923   2.863   4.799   4.776  0.1617  0.0336 -0.3576
 8798SOL    HW234924   2.946   4.780   4.733  0.2888  0.5035 -0.3291
 8798SOL    HW334925   2.856   4.732   4.844 -0.4310 -1.2048 -1.6035
 8798SOL    MW434926   2.873   4.788   4.779 -0.5123  0.5109 -0.4208
 8799SOL     OW34927   1.855   4.358   1.396 -0.2088 -0.2034 -0.7456
 8799SOL    HW234928   1.925   4.353   1.330  0.5360  2.1756 -0.2458
 8799SOL    HW334929   1.891   4.416   1.464 -2.3123  0.3104 -0.0060
 8799SOL    MW434930   1.869   4.365   1.396  0.3634 -0.2852 -0.6012
 8800SOL     OW34931   3.859   3.340   4.596 -0.1436  0.4768  0.3493
 8800SOL    HW234932   3.831   3.431   4.589 -1.7756 -0.0203  0.1866
 8800SOL    HW334933   3.856   3.321   4.690  0.3811  0.6227  0.4031
 8800SOL    MW434934   3.855   3.349   4.607  0.1433 -0.1611  0.6375
 8801SOL     OW34935   1.738   0.975   2.328 -0.3630  0.3079 -0.1618
 8801SOL    HW234936   1.747   1.068   2.305 -0.2235  0.2020 -0.5483
 8801SOL    HW334937   1.802   0.930   2.272  2.9834  0.3907  3.1778
 8801SOL    MW434938   1.748   0.981   2.318  0.2977  0.2696 -0.3631
 8802SOL     OW34939   2.909   1.396   2.575 -0.3527  0.1092 -0.1435
 8802SOL    HW234940   2.868   1.388   2.489  1.5828 -0.8639 -1.0475
 8802SOL    HW334941   2.949   1.310   2.590  1.6805  1.1065  0.4445
 8802SOL    MW434942   2.909   1.384   2.566  0.6105 -0.0765 -0.0128
 8803SOL     OW34943   5.303   5.683   5.842  0.1400  0.0068 -0.1673
 8803SOL    HW234944   5.351   5.692   5.760 -0.2878 -3.5524 -0.9634
 8803SOL    HW334945   5.369   5.657   5.906 -0.0261 -0.6435 -0.2493
 8803SOL    MW434946   5.318   5.681   5.840  0.3256 -0.3534  0.2038
 8804SOL     OW34947   5.565   3.177   4.457  0.1152  0.4686  0.5144
 8804SOL    HW234948   5.570   3.099   4.512 -0.5417 -1.6954 -2.2438
 8804SOL    HW334949   5.477   3.174   4.419  0.2651  2.2892 -0.0409
 8804SOL    MW434950   5.554   3.166   4.459 -0.6887 -0.2079 -0.2994
 8805SOL     OW34951   3.185   3.253   2.778  0.2609 -0.0886 -0.2645
 8805SOL    HW234952   3.111   3.195   2.798 -1.0270  1.2833 -0.8467
 8805SOL    HW334953   3.146   3.341   2.776  1.8583  0.6335 -0.9382
 8805SOL    MW434954   3.170   3.257   2.781 -0.2035  0.3066 -0.1292
 8806SOL     OW34955   1.942   5.893   4.700 -0.2548  0.3314 -0.1074
 8806SOL    HW234956   1.861   5.915   4.653  1.3489 -0.5080 -3.5681
 8806SOL    HW334957   1.972   5.977   4.734 -2.6118  0.6334  1.4476
 8806SOL    MW434958   1.935   5.907   4.698  0.3457 -0.2404 -0.2235
 8807SOL     OW34959   6.125   2.330   3.625  0.1398  0.6798  0.4903
 8807SOL    HW234960   6.217   2.351   3.638 -0.1542  1.0682  2.1862
 8807SOL    HW334961   6.116   2.240   3.655  0.0708  0.4208 -0.2794
 8807SOL    MW434962   6.136   2.321   3.630  0.1589  0.0291  0.2012
 8808SOL     OW34963   1.502   3.062   1.671 -0.0832  0.3354 -0.2890
 8808SOL    HW234964   1.538   3.083   1.585 -0.0867  0.5866 -0.2307
 8808SOL    HW334965   1.457   2.979   1.659  1.6639 -0.6832 -0.0407
 8808SOL    MW434966   1.501   3.054   1.658 -0.5605 -0.4826  0.6783
 8809SOL     OW34967   1.822   5.551   1.423 -0.6107  1.0138  0.4902
 8809SOL    HW234968   1.873   5.599   1.358 -1.1009 -1.4739 -1.8995
 8809SOL    HW334969   1.886   5.526   1.490  0.2236  2.3123  0.2119
 8809SOL    MW434970   1.837   5.554   1.423  0.4204 -0.7056  0.0948
 8810SOL     OW34971   4.693   2.457   5.750 -0.0259 -0.1431 -0.7794
 8810SOL    HW234972   4.677   2.455   5.656 -0.6493 -0.5352 -0.6685
 8810SOL    HW334973   4.616   2.500   5.787  0.0889 -0.2383 -0.4224
 8810SOL    MW434974   4.681   2.463   5.743  0.1407  0.1891  0.4134
 8811SOL     OW34975   1.876   2.108   0.267 -1.1540 -0.3434 -0.1270
 8811SOL    HW234976   1.910   2.063   0.344  1.6998 -1.7909 -2.0360
 8811SOL    HW334977   1.797   2.153   0.297  0.8014  0.7342  4.0706
 8811SOL    MW434978   1.870   2.108   0.281  0.8287 -0.4726 -1.0012
 8812SOL     OW34979   2.213   1.366   5.621  0.5815  0.1703 -0.1533
 8812SOL    HW234980   2.180   1.392   5.535 -0.3923  3.3232  1.0478
 8812SOL    HW334981   2.153   1.406   5.683  1.9430 -1.0225  2.0477
 8812SOL    MW434982   2.201   1.374   5.617 -0.3047  0.0135  0.0576
 8813SOL     OW34983   4.411   2.378   1.666 -0.2208  0.1309  0.8999
 8813SOL    HW234984   4.324   2.339   1.659 -0.6952  1.0132  1.6106
 8813SOL    HW334985   4.435   2.402   1.577 -0.3868 -0.7577  0.6057
 8813SOL    MW434986   4.403   2.376   1.654  0.0569 -0.4705  0.1021
 8814SOL     OW34987   5.274   2.144   6.319  0.6814 -0.2760 -1.1433
 8814SOL    HW234988   5.247   2.053   6.318 -0.0873 -0.1403  1.2820
 8814SOL    HW334989   5.313   2.158   6.233 -3.2608 -1.6051 -3.4201
 8814SOL    MW434990   5.276   2.134   6.308 -0.5932  0.2392 -0.1679
 8815SOL     OW34991   6.004   0.929   5.186 -0.4816 -0.1520 -0.3062
 8815SOL    HW234992   5.992   0.971   5.101  3.2984  1.1298 -0.4328
 8815SOL    HW334993   6.031   0.840   5.165 -1.5398 -0.4739 -0.3342
 8815SOL    MW434994   6.006   0.923   5.172 -0.2105 -0.6049  0.1619
 8816SOL     OW34995   6.052   4.823   1.053 -0.5953 -0.0169  0.2529
 8816SOL    HW234996   6.088   4.909   1.031 -0.3194 -0.2381 -0.1633
 8816SOL    HW334997   5.976   4.814   0.996 -1.4221  0.5132  1.2334
 8816SOL    MW434998   6.047   4.833   1.043  0.5956  0.6652  0.9904
 8817SOL     OW34999   2.454   3.091   1.496 -0.8401  0.5004  0.7270
 8817SOL    HW235000   2.502   3.047   1.566 -1.4378 -0.1309  0.7553
 8817SOL    HW335001   2.520   3.143   1.450 -0.2926  0.2919  1.2616
 8817SOL    MW435002   2.469   3.092   1.499  0.0673  0.1218  0.1487
 8818SOL     OW35003   2.380   5.924   3.895 -0.5848  0.4304 -0.0999
 8818SOL    HW235004   2.397   5.843   3.943 -1.5635 -0.5253 -1.3031
 8818SOL    HW335005   2.466   5.950   3.861  0.0970  1.0175  1.9019
 8818SOL    MW435006   2.394   5.917   3.897 -0.1262 -0.3403 -0.7368
 8819SOL     OW35007   4.143   1.123   5.122 -0.1801  0.3822 -0.0237
 8819SOL    HW235008   4.088   1.045   5.121  2.3829 -1.5881 -2.7725
 8819SOL    HW335009   4.107   1.180   5.054 -1.1758  0.9816  0.9805
 8819SOL    MW435010   4.131   1.120   5.113  0.1416 -0.3113  0.4509
 8820SOL     OW35011   6.084   5.257   6.405 -0.1159 -0.2457  0.1770
 8820SOL    HW235012   6.177   5.267   6.425 -0.1657  1.7663 -0.3388
 8820SOL    HW335013   6.082   5.213   6.320  0.3945  0.2184 -0.0814
 8820SOL    MW435014   6.096   5.253   6.396 -0.4985  0.0190 -0.3165
 8821SOL     OW35015   4.315   4.362   3.951  0.0075 -0.4866  0.3616
 8821SOL    HW235016   4.324   4.357   3.856 -1.7086 -1.2580  0.2149
 8821SOL    HW335017   4.305   4.456   3.969  0.1360 -0.3572 -0.2251
 8821SOL    MW435018   4.315   4.374   3.941  0.3782 -0.8940 -0.2269
 8822SOL     OW35019   5.968   3.335   4.875  0.1283 -0.3087  0.0283
 8822SOL    HW235020   5.907   3.277   4.920 -0.5916  1.9240  2.1693
 8822SOL    HW335021   6.036   3.353   4.941  1.2975 -0.1201 -1.1921
 8822SOL    MW435022   5.969   3.330   4.890 -0.5844 -0.1516 -0.4931
 8823SOL     OW35023   4.734   1.583   3.779  0.3190 -0.1278  0.6446
 8823SOL    HW235024   4.732   1.679   3.788 -0.3907 -0.0722 -0.0192
 8823SOL    HW335025   4.670   1.564   3.710  0.5703 -1.0714  0.6597
 8823SOL    MW435026   4.725   1.593   3.771 -0.0301 -0.4459  0.3655
 8824SOL     OW35027   3.737   5.246   1.971  0.3918 -0.0841  0.1716
 8824SOL    HW235028   3.822   5.260   2.013  0.6383 -0.2456 -0.2653
 8824SOL    HW335029   3.677   5.229   2.044  1.3014 -2.9635  0.3785
 8824SOL    MW435030   3.740   5.246   1.986  0.6420  0.3564 -0.4746
 8825SOL     OW35031   5.251   4.729   2.875 -0.4115  0.0272  0.4640
 8825SOL    HW235032   5.233   4.651   2.823 -0.4037  0.0694  0.3987
 8825SOL    HW335033   5.319   4.701   2.937 -0.7263 -0.1456  0.7397
 8825SOL    MW435034   5.258   4.715   2.876  0.0877 -0.1074  0.5400
 8826SOL     OW35035   0.928   1.619   0.101  0.2266  0.2465 -0.8219
 8826SOL    HW235036   0.939   1.643   0.009  0.0760 -1.0707 -1.1996
 8826SOL    HW335037   0.932   1.524   0.102 -1.2772  0.1630  0.3429
 8826SOL    MW435038   0.930   1.610   0.089 -0.2125 -0.1257 -0.3399
 8827SOL     OW35039   2.657   4.557   5.348 -0.1192 -0.7672 -0.2655
 8827SOL    HW235040   2.677   4.626   5.286 -0.5382 -0.9471 -0.5994
 8827SOL    HW335041   2.635   4.481   5.294 -1.2694 -0.7083  0.0874
 8827SOL    MW435042   2.657   4.556   5.333  0.4074  0.2659 -0.0250
 8828SOL     OW35043   0.756   5.678   0.998 -0.1522  0.6935  0.2219
 8828SOL    HW235044   0.815   5.642   0.931 -0.4775  1.0706 -0.2700
 8828SOL    HW335045   0.679   5.705   0.949 -1.2974 -0.9789  1.0157
 8828SOL    MW435046   0.754   5.676   0.982 -0.3161  0.0205  0.3923
 8829SOL     OW35047   2.777   1.611   3.732  0.0246 -0.0146 -0.2424
 8829SOL    HW235048   2.828   1.615   3.651  0.3776  1.8722  0.0441
 8829SOL    HW335049   2.815   1.538   3.781 -0.8259 -1.8301 -2.1437
 8829SOL    MW435050   2.788   1.602   3.728 -0.6835  0.1612 -0.4222
 8830SOL     OW35051   1.839   5.778   1.965 -0.2847  0.0286 -0.0990
 8830SOL    HW235052   1.896   5.706   1.991  1.5230  1.3807 -0.0795
 8830SOL    HW335053   1.878   5.812   1.884  0.2193  2.2487  0.9806
 8830SOL    MW435054   1.852   5.773   1.958 -0.0380  0.0128  0.0901
 8831SOL     OW35055   1.193   1.884   0.511 -0.1993  0.2925  0.0854
 8831SOL    HW235056   1.151   1.968   0.495 -0.9862  0.3379  2.0883
 8831SOL    HW335057   1.124   1.829   0.549  1.0207 -0.2578  1.6266
 8831SOL    MW435058   1.179   1.888   0.514 -0.0785  0.6833  0.6024
 8832SOL     OW35059   0.970   4.686   2.598 -0.8836 -0.2051  0.4019
 8832SOL    HW235060   0.968   4.635   2.517  0.0764  0.4834 -0.0812
 8832SOL    HW335061   0.977   4.777   2.569 -0.1835  0.0276  1.2518
 8832SOL    MW435062   0.971   4.691   2.584 -0.1269 -0.0126 -0.0245
 8833SOL     OW35063   1.397   1.756   3.105  0.4022  0.0751 -0.6373
 8833SOL    HW235064   1.419   1.834   3.055  1.5619 -0.0280 -0.3010
 8833SOL    HW335065   1.480   1.726   3.142 -0.4976  0.5401  1.9487
 8833SOL    MW435066   1.410   1.762   3.103 -0.2602  0.2110  0.0754
 8834SOL     OW35067   5.731   2.387   1.853  0.3339  0.1844  0.7402
 8834SOL    HW235068   5.819   2.359   1.878  0.0363  0.3645  2.0335
 8834SOL    HW335069   5.687   2.306   1.827  0.8639  0.0877  0.1295
 8834SOL    MW435070   5.737   2.372   1.853  0.0195 -0.1369 -0.3867
 8835SOL     OW35071   4.228   5.390   2.682 -0.7479  0.0023  0.4054
 8835SOL    HW235072   4.260   5.478   2.664 -1.2045  0.0561 -0.1910
 8835SOL    HW335073   4.304   5.334   2.669 -0.9397  0.0857 -1.3875
 8835SOL    MW435074   4.242   5.394   2.678  0.0780  0.0008 -0.3695
 8836SOL     OW35075   0.422   4.666   0.425 -0.0834  0.2493  0.1468
 8836SOL    HW235076   0.424   4.613   0.346 -2.6747  0.4289 -0.1360
 8836SOL    HW335077   0.390   4.606   0.493  1.3815  0.2956  0.9077
 8836SOL    MW435078   0.418   4.651   0.424  0.4358 -0.1297  0.2970
 8837SOL     OW35079   0.434   0.444   0.595  0.2797 -0.1471  0.1212
 8837SOL    HW235080   0.379   0.506   0.642  2.3999  2.6126 -0.7982
 8837SOL    HW335081   0.410   0.455   0.503 -1.3915 -2.9769  0.1097
 8837SOL    MW435082   0.424   0.454   0.589 -0.6656 -0.0191 -0.1109
 8838SOL     OW35083   4.846   3.076   4.858 -0.1167 -0.0455  0.4490
 8838SOL    HW235084   4.912   3.054   4.792  1.0554 -0.3537  1.6499
 8838SOL    HW335085   4.882   3.039   4.939 -1.6426  0.0592  1.2045
 8838SOL    MW435086   4.860   3.068   4.860 -0.3224  0.7234  0.4983
 8839SOL     OW35087   6.082   5.176   0.438  0.7854  0.0470  0.0634
 8839SOL    HW235088   6.047   5.198   0.352  1.3683  0.0275 -0.1868
 8839SOL    HW335089   6.033   5.231   0.499 -3.2281 -3.3491  0.3949
 8839SOL    MW435090   6.071   5.186   0.435 -0.1372  0.2444  0.5532
 8840SOL     OW35091   2.269   0.897   3.405 -0.4044  0.5792 -0.3556
 8840SOL    HW235092   2.362   0.894   3.426 -0.8154 -1.8028  1.6268
 8840SOL    HW335093   2.236   0.975   3.449  0.2319  0.0668  1.0689
 8840SOL    MW435094   2.277   0.907   3.413  0.4765 -0.0078 -0.0423
 8841SOL     OW35095   2.047   5.096   2.003 -0.4029  0.2804 -0.6952
 8841SOL    HW235096   2.095   5.179   2.004 -0.6761  0.4341 -0.3771
 8841SOL    HW335097   2.104   5.036   1.954  1.2312 -0.1822  1.5791
 8841SOL    MW435098   2.061   5.099   1.997  0.3902  0.3605  0.4295
 8842SOL     OW35099   4.954   1.854   0.161  0.2962 -0.4049 -0.1282
 8842SOL    HW235100   5.016   1.788   0.193  2.2397  1.4227  0.1044
 8842SOL    HW335101   5.002   1.937   0.166 -1.9094  1.0111 -0.7556
 8842SOL    MW435102   4.968   1.857   0.166  0.1060 -0.7712 -0.1899
 8843SOL     OW35103   3.625   6.230   5.749  0.2311 -0.2774  0.2718
 8843SOL    HW235104   3.610   6.135   5.746  0.8944 -0.4175  1.1748
 8843SOL    HW335105   3.620   6.252   5.842 -0.3919  0.6636  0.0271
 8843SOL    MW435106   3.622   6.220   5.761 -0.2994  0.1364 -0.2034
 8844SOL     OW35107   6.074   1.536   1.208  0.0637  0.0566 -0.7521
 8844SOL    HW235108   6.009   1.601   1.183  0.6976  0.6737 -0.8046
 8844SOL    HW335109   6.143   1.543   1.142  1.5938  1.4645  0.8715
 8844SOL    MW435110   6.075   1.545   1.196 -0.1427  0.5307  0.0383
 8845SOL     OW35111   1.236   4.014   4.591  0.3420 -0.0594 -0.2161
 8845SOL    HW235112   1.169   3.950   4.612  2.0148 -1.0923  2.5291
 8845SOL    HW335113   1.309   3.962   4.558  1.5680  0.3968  1.6385
 8845SOL    MW435114   1.237   3.999   4.590 -0.3872  0.0382 -0.0818
 8846SOL     OW35115   3.980   1.970   6.298 -0.8707 -0.2439  0.0638
 8846SOL    HW235116   4.043   1.940   6.364  0.5180  1.4393 -0.4129
 8846SOL    HW335117   3.980   2.065   6.307 -0.2843  0.0852 -2.6244
 8846SOL    MW435118   3.988   1.978   6.308  0.5106  0.4342  0.0160
 8847SOL     OW35119   0.872   1.735   1.698  0.1066  0.1650 -0.0514
 8847SOL    HW235120   0.824   1.742   1.781 -0.2655 -1.7863 -0.0485
 8847SOL    HW335121   0.936   1.666   1.713  0.9337  0.7148 -0.9885
 8847SOL    MW435122   0.874   1.727   1.711 -0.8652 -0.4576 -0.6472
 8848SOL     OW35123   0.940   0.543   2.683  0.3754  0.0604  0.6226
 8848SOL    HW235124   0.945   0.491   2.764  0.3467 -1.5903 -0.3840
 8848SOL    HW335125   0.924   0.632   2.713  2.0817 -0.1944  2.5039
 8848SOL    MW435126   0.938   0.548   2.698 -0.3801 -0.3340  0.4639
 8849SOL     OW35127   5.069   2.308   5.160  0.3733 -0.2562  0.0534
 8849SOL    HW235128   5.149   2.336   5.205  0.6316  0.5199 -0.8521
 8849SOL    HW335129   5.096   2.294   5.070 -0.1241 -1.8553  0.1153
 8849SOL    MW435130   5.083   2.310   5.154  0.0876 -0.1167  0.3577
 8850SOL     OW35131   3.294   4.804   4.227 -0.2544  0.3494  0.2462
 8850SOL    HW235132   3.364   4.861   4.260 -0.6336 -0.2455  2.2207
 8850SOL    HW335133   3.237   4.862   4.177  0.4380  1.2991  0.5368
 8850SOL    MW435134   3.296   4.819   4.225 -0.4380  0.7635 -0.3125
 8851SOL     OW35135   1.581   6.030   1.816  0.6136  0.1932 -0.4667
 8851SOL    HW235136   1.583   6.089   1.741 -0.9376 -1.8129 -2.1986
 8851SOL    HW335137   1.508   6.061   1.869  0.6128  0.5748 -0.6863
 8851SOL    MW435138   1.572   6.042   1.813 -0.0846 -0.6253  0.2130
 8852SOL     OW35139   2.580   0.809   2.220 -0.4242  0.4104  0.7437
 8852SOL    HW235140   2.547   0.722   2.242  3.2396 -1.1636  0.7178
 8852SOL    HW335141   2.517   0.844   2.157 -2.6344 -1.6832  1.6375
 8852SOL    MW435142   2.568   0.802   2.215  0.8272  0.6625  0.6349
 8853SOL     OW35143   5.309   4.780   6.056  0.4478 -0.0029  0.8932
 8853SOL    HW235144   5.394   4.762   6.016  0.4877 -0.1138  1.0298
 8853SOL    HW335145   5.273   4.852   6.004 -1.7121 -3.2372 -2.6610
 8853SOL    MW435146   5.315   4.787   6.043 -0.0766  0.0543  0.2780
 8854SOL     OW35147   2.455   5.805   1.590  0.8084  0.5502  0.5226
 8854SOL    HW235148   2.541   5.771   1.566  0.2979 -1.0870  0.8429
 8854SOL    HW335149   2.473   5.885   1.639  2.0730  1.0266 -0.6726
 8854SOL    MW435150   2.469   5.811   1.594 -0.2406  0.4316 -0.5518
 8855SOL     OW35151   2.989   5.372   5.076  0.2994 -0.4938 -0.3906
 8855SOL    HW235152   3.019   5.281   5.081  0.3216 -0.6587 -2.5647
 8855SOL    HW335153   2.909   5.373   5.128 -0.2794 -2.0359 -1.1779
 8855SOL    MW435154   2.983   5.360   5.083  0.3789  0.4235 -0.1735
 8856SOL     OW35155   2.267   3.831   4.812 -0.7127 -0.1351 -0.5246
 8856SOL    HW235156   2.297   3.909   4.767  0.1202  0.0372  0.3144
 8856SOL    HW335157   2.190   3.803   4.762  0.2145 -0.0024 -2.1001
 8856SOL    MW435158   2.261   3.837   4.799  0.5859 -0.0228  0.3154
 8857SOL     OW35159   5.023   0.657   3.022  0.2827 -0.0163 -0.1235
 8857SOL    HW235160   5.089   0.718   3.054  0.3374 -0.1252 -0.0265
 8857SOL    HW335161   5.073   0.589   2.977  0.3814 -1.0275  1.4437
 8857SOL    MW435162   5.038   0.656   3.020  1.2706 -0.0949  0.1885
 8858SOL     OW35163   5.825   1.751   0.746  0.2229 -0.3109  0.2184
 8858SOL    HW235164   5.772   1.817   0.793  2.5034  2.0036 -0.2565
 8858SOL    HW335165   5.902   1.739   0.801  1.6638  0.4025 -1.5489
 8858SOL    MW435166   5.828   1.758   0.760 -0.1354 -0.5901  0.3267
 8859SOL     OW35167   2.006   1.811   5.941 -0.1499 -0.5960  0.1350
 8859SOL    HW235168   1.997   1.901   5.974 -0.9123 -0.1570 -1.1910
 8859SOL    HW335169   1.916   1.778   5.936  0.1899 -1.8403  1.6220
 8859SOL    MW435170   1.993   1.819   5.944  0.2064  0.1630  0.1489
 8860SOL     OW35171   6.418   4.774   3.581  0.3354  0.3055 -0.1309
 8860SOL    HW235172   6.325   4.760   3.600 -0.0663  1.8580 -0.7956
 8860SOL    HW335173   6.457   4.687   3.587 -1.3718 -0.5701 -0.9078
 8860SOL    MW435174   6.411   4.760   3.584 -0.5920 -0.1230  0.5630
 8861SOL     OW35175   1.910   3.159   3.671 -0.0838 -0.0545  0.0775
 8861SOL    HW235176   1.847   3.190   3.736 -0.2247 -1.2444  0.5433
 8861SOL    HW335177   1.866   3.169   3.587 -0.8976 -0.8313  0.3974
 8861SOL    MW435178   1.896   3.164   3.668  0.0112 -0.4340 -0.5444
 8862SOL     OW35179   2.460   1.290   2.402 -0.3930 -0.2056  0.3611
 8862SOL    HW235180   2.452   1.225   2.333  0.6539  0.0649 -0.0366
 8862SOL    HW335181   2.553   1.316   2.400 -1.0505  2.3952 -0.5269
 8862SOL    MW435182   2.472   1.285   2.392  0.5316 -0.1343  0.1817
 8863SOL     OW35183   4.561   4.467   5.069 -0.0457 -0.6068 -0.1454
 8863SOL    HW235184   4.615   4.499   4.997  1.2993 -1.1705  0.5702
 8863SOL    HW335185   4.560   4.372   5.058 -2.2228 -0.5211 -1.0300
 8863SOL    MW435186   4.568   4.459   5.058 -0.3219 -0.2842 -0.0654
 8864SOL     OW35187   0.982   5.796   4.525  0.6296  0.3945 -0.4731
 8864SOL    HW235188   0.954   5.784   4.434  0.5057  1.2146 -0.5455
 8864SOL    HW335189   0.944   5.880   4.551  1.8017  0.8207 -0.0994
 8864SOL    MW435190   0.973   5.805   4.516 -0.7145  0.1772 -0.0650
 8865SOL     OW35191   0.151   1.945   4.004  0.3984  0.2834  0.2351
 8865SOL    HW235192   0.220   1.995   3.960 -0.1255 -0.9330 -2.1161
 8865SOL    HW335193   0.165   1.855   3.976 -1.5885 -0.1428  0.4715
 8865SOL    MW435194   0.162   1.939   3.995 -0.2407 -0.3151  0.1911
 8866SOL     OW35195   2.760   1.382   2.344 -0.4937  0.8463 -0.1267
 8866SOL    HW235196   2.753   1.470   2.307 -1.8361  0.3841 -1.0778
 8866SOL    HW335197   2.775   1.325   2.269  0.1969  0.2371  0.4567
 8866SOL    MW435198   2.761   1.386   2.329  0.3692  0.0272  0.7504
 8867SOL     OW35199   5.218   5.120   2.286 -0.0081  0.0818 -0.0815
 8867SOL    HW235200   5.266   5.146   2.364  0.6130  0.4922 -0.5837
 8867SOL    HW335201   5.129   5.103   2.316  0.0256  1.0071  0.5803
 8867SOL    MW435202   5.212   5.122   2.300  0.2643 -0.4729  0.1233
 8868SOL     OW35203   6.244   0.962   1.145 -0.7942  0.7746 -0.0248
 8868SOL    HW235204   6.220   0.870   1.153 -0.0939  0.5288 -0.6698
 8868SOL    HW335205   6.338   0.964   1.159 -0.7210  1.3179 -0.5344
 8868SOL    MW435206   6.253   0.950   1.148 -0.4260 -0.1358  0.2356
 8869SOL     OW35207   3.278   6.275   2.691 -0.1379  0.9022  0.5914
 8869SOL    HW235208   3.351   6.332   2.715  0.1525  0.8687 -0.1882
 8869SOL    HW335209   3.207   6.335   2.669  0.6578  1.0615 -1.8224
 8869SOL    MW435210   3.278   6.290   2.692 -0.3665 -0.0989  0.5715
 8870SOL     OW35211   4.952   2.777   4.172 -0.0855 -0.5520 -0.4324
 8870SOL    HW235212   4.951   2.781   4.076  0.5391 -0.3041 -0.4363
 8870SOL    HW335213   4.989   2.861   4.199 -0.5414 -0.4968  0.0438
 8870SOL    MW435214   4.957   2.788   4.163 -0.6998 -0.7102 -0.3396
 8871SOL     OW35215   2.912   4.324   2.325 -0.2202  0.3568 -0.1662
 8871SOL    HW235216   2.825   4.288   2.347  0.6285 -0.4960  2.0881
 8871SOL    HW335217   2.966   4.247   2.309  0.4315  0.8166 -0.2153
 8871SOL    MW435218   2.907   4.309   2.326 -0.4745 -0.2075 -0.3530
 8872SOL     OW35219   4.473   6.199   3.375  0.4545  0.1594  0.3060
 8872SOL    HW235220   4.432   6.267   3.427  1.0692  0.2536  0.6827
 8872SOL    HW335221   4.521   6.145   3.439  1.8109  0.6970 -0.2199
 8872SOL    MW435222   4.474   6.201   3.390 -0.1953 -0.0467  0.0050
 8873SOL     OW35223   2.239   5.722   2.578 -0.4155 -0.1723 -0.8129
 8873SOL    HW235224   2.263   5.681   2.662  0.1159 -0.6764 -1.2017
 8873SOL    HW335225   2.175   5.788   2.602  0.2860  0.2083  0.0958
 8873SOL    MW435226   2.234   5.725   2.592  0.3993  0.1158 -0.4945
 8874SOL     OW35227   5.862   5.142   4.754  0.2618  0.0646 -0.6275
 8874SOL    HW235228   5.848   5.093   4.835 -2.7643 -0.0158 -1.0585
 8874SOL    HW335229   5.910   5.081   4.697  0.1751 -0.8441  0.2404
 8874SOL    MW435230   5.866   5.127   4.757  0.5499 -0.2716  0.3271
 8875SOL     OW35231   1.419   1.273   0.303  0.1857  0.0638 -0.3246
 8875SOL    HW235232   1.349   1.334   0.329 -0.8636 -0.7051 -1.2456
 8875SOL    HW335233   1.484   1.329   0.260 -0.5430  0.6163 -0.7417
 8875SOL    MW435234   1.418   1.289   0.301  0.6867  0.1616  0.0213
 8876SOL     OW35235   1.717   0.114   0.283  0.0908 -0.0101  0.4615
 8876SOL    HW235236   1.638   0.117   0.336 -0.8677  0.5304 -0.9298
 8876SOL    HW335237   1.745   0.022   0.286  0.8037  0.2405  2.8812
 8876SOL    MW435238   1.710   0.102   0.290  0.3548  0.0306 -0.3951
 8877SOL     OW35239   6.024   3.461   5.814  0.0358  0.0344 -0.0354
 8877SOL    HW235240   6.078   3.532   5.778 -2.4351  0.6833 -2.9514
 8877SOL    HW335241   6.058   3.382   5.772  0.0681  0.1408 -0.2153
 8877SOL    MW435242   6.036   3.460   5.804 -0.8408 -0.4289  0.5622
 8878SOL     OW35243   1.350   2.317   4.577 -0.2344 -0.4337  0.1617
 8878SOL    HW235244   1.295   2.337   4.501 -1.1474 -1.3483  0.5566
 8878SOL    HW335245   1.306   2.362   4.650 -0.9619 -1.8436  0.6267
 8878SOL    MW435246   1.337   2.326   4.577 -0.1471  0.1072 -0.1869
 8879SOL     OW35247   0.437   0.717   2.856 -0.0890  0.2100 -0.5043
 8879SOL    HW235248   0.483   0.718   2.940  0.5205 -2.7799 -0.6997
 8879SOL    HW335249   0.502   0.748   2.793  0.0144  0.8081 -0.1073
 8879SOL    MW435250   0.452   0.721   2.859 -0.3510 -0.0771 -0.0390
 8880SOL     OW35251   3.493   4.283   0.241 -0.2924 -0.4603 -0.0055
 8880SOL    HW235252   3.528   4.221   0.305  1.1784  0.3348 -0.0062
 8880SOL    HW335253   3.546   4.270   0.163 -0.5206  0.2165 -0.2772
 8880SOL    MW435254   3.504   4.273   0.239 -0.1782 -0.4485 -0.0383
 8881SOL     OW35255   1.341   1.382   5.941 -0.0044  0.2324 -0.3150
 8881SOL    HW235256   1.391   1.392   6.022 -0.0997 -1.2665 -0.0312
 8881SOL    HW335257   1.406   1.387   5.871 -0.0398  2.4488 -0.2387
 8881SOL    MW435258   1.356   1.384   5.942  0.5262  0.6273  0.1386
 8882SOL     OW35259   5.158   2.670   1.570  0.5335 -0.2153 -0.2328
 8882SOL    HW235260   5.231   2.706   1.619 -1.9513  0.8440  3.0517
 8882SOL    HW335261   5.123   2.745   1.521  0.8072 -0.3821 -0.6854
 8882SOL    MW435262   5.163   2.685   1.570 -0.6459  0.4582  0.7051
 8883SOL     OW35263   3.832   0.468   0.192  0.3246 -0.0497  0.5723
 8883SOL    HW235264   3.855   0.391   0.141  0.9789  1.1110 -0.9971
 8883SOL    HW335265   3.762   0.510   0.142 -0.4123  0.0896  1.6973
 8883SOL    MW435266   3.826   0.464   0.179 -0.4787  0.1466 -0.4321
 8884SOL     OW35267   0.866   5.785   5.627  0.1401  0.1932 -0.4012
 8884SOL    HW235268   0.944   5.809   5.578 -0.3662  0.1716 -1.2310
 8884SOL    HW335269   0.822   5.719   5.573  0.2507 -0.8179  0.7048
 8884SOL    MW435270   0.870   5.780   5.614  0.2370 -0.3262  0.2704
 8885SOL     OW35271   4.781   0.746   0.363 -0.1521 -0.1101  0.3051
 8885SOL    HW235272   4.845   0.677   0.382 -0.6123 -0.7107 -0.2634
 8885SOL    HW335273   4.713   0.734   0.430 -1.2147 -1.5042 -0.9614
 8885SOL    MW435274   4.780   0.735   0.374 -0.0330  0.2447 -0.2800
 8886SOL     OW35275   5.737   2.179   4.883  0.1230  0.0941 -0.0566
 8886SOL    HW235276   5.683   2.246   4.842 -0.4396  0.4044  1.1538
 8886SOL    HW335277   5.684   2.099   4.881 -0.3054  0.3398  0.9076
 8886SOL    MW435278   5.723   2.177   4.877  0.4213 -0.1832 -0.3687
 8887SOL     OW35279   6.266   2.812   5.499 -0.3529 -0.2599 -0.3931
 8887SOL    HW235280   6.297   2.721   5.494 -3.1365 -1.2688 -1.1387
 8887SOL    HW335281   6.180   2.810   5.457 -0.4413  2.7929 -0.5749
 8887SOL    MW435282   6.259   2.800   5.493  0.0096 -0.2789 -0.0728
 8888SOL     OW35283   4.828   1.972   0.906 -0.7326  0.0202 -0.4219
 8888SOL    HW235284   4.803   1.897   0.961 -0.8689 -0.5670 -1.2674
 8888SOL    HW335285   4.883   2.026   0.963 -0.4818 -0.8154  0.1466
 8888SOL    MW435286   4.832   1.969   0.921  0.2479 -0.0703  0.4492
 8889SOL     OW35287   1.786   1.549   1.195 -0.3267 -0.8950 -0.6577
 8889SOL    HW235288   1.784   1.515   1.285 -0.1157 -0.6688 -0.5670
 8889SOL    HW335289   1.785   1.644   1.205  0.0274 -0.8641 -0.8831
 8889SOL    MW435290   1.786   1.557   1.208 -0.2631  0.2544  0.0787
 8890SOL     OW35291   0.193   2.646   2.198  0.0377  0.1017  0.1173
 8890SOL    HW235292   0.118   2.697   2.168 -1.2127 -1.9615 -0.4738
 8890SOL    HW335293   0.160   2.595   2.272  0.7421 -1.0428 -0.3202
 8890SOL    MW435294   0.179   2.646   2.204  0.2269  0.2667 -0.0061
 8891SOL     OW35295   1.683   0.872   3.252 -0.0647 -0.4480 -0.0516
 8891SOL    HW235296   1.601   0.835   3.219  0.6683 -1.1211 -1.1905
 8891SOL    HW335297   1.710   0.935   3.185 -0.3069  0.7653  0.9566
 8891SOL    MW435298   1.676   0.875   3.239 -0.1230  0.0839 -0.2466
 8892SOL     OW35299   0.077   2.059   4.239  0.2481  0.1974  0.2840
 8892SOL    HW235300   0.072   2.154   4.235 -0.3598  0.1824  0.5614
 8892SOL    HW335301   0.111   2.032   4.154 -0.2579  0.6181 -0.0499
 8892SOL    MW435302   0.081   2.068   4.228  0.3599 -0.2807 -0.3281
 8893SOL     OW35303   3.437   0.502   3.909 -0.5882  0.4652 -0.5491
 8893SOL    HW235304   3.357   0.534   3.951 -0.3888 -0.6301  0.7886
 8893SOL    HW335305   3.508   0.544   3.958 -0.3464  0.2146 -0.6826
 8893SOL    MW435306   3.436   0.511   3.921 -0.0757  0.1448  0.1168
 8894SOL     OW35307   3.053   3.982   4.395 -0.1351  0.1820 -0.2164
 8894SOL    HW235308   3.054   3.887   4.384 -0.4050  0.1289  0.1901
 8894SOL    HW335309   3.124   3.998   4.458 -0.7629  0.1412  0.5112
 8894SOL    MW435310   3.063   3.971   4.402  0.0453 -0.1507 -0.7593
 8895SOL     OW35311   4.215   0.870   0.881 -0.5135 -0.1094  0.0516
 8895SOL    HW235312   4.135   0.828   0.913 -0.2052 -0.2025  0.7222
 8895SOL    HW335313   4.247   0.920   0.956  0.3979 -0.5797 -0.0098
 8895SOL    MW435314   4.209   0.871   0.895 -0.0295  0.2781  0.3732
 8896SOL     OW35315   3.999   4.508  -0.027 -0.3811 -0.0478 -0.4658
 8896SOL    HW235316   3.954   4.429  -0.056  1.3050 -0.7521 -1.2570
 8896SOL    HW335317   3.968   4.521   0.062 -0.5499 -1.7218 -0.2420
 8896SOL    MW435318   3.989   4.499  -0.019 -0.3219 -0.1675 -0.1349
 8897SOL     OW35319   2.475   1.430   3.681 -0.7045  0.1300  0.1272
 8897SOL    HW235320   2.384   1.413   3.659 -0.5898  1.8153 -1.9805
 8897SOL    HW335321   2.524   1.358   3.641 -0.9505  0.3773 -0.6300
 8897SOL    MW435322   2.469   1.418   3.673  0.0835  0.2572 -0.3039
 8898SOL     OW35323   3.410   5.573   3.796 -0.1096  0.7567 -0.2043
 8898SOL    HW235324   3.375   5.656   3.762  0.6946  0.4476 -1.8975
 8898SOL    HW335325   3.333   5.522   3.820 -0.6340  1.8151  0.4532
 8898SOL    MW435326   3.395   5.577   3.794  0.0955 -0.0852 -0.0518
 8899SOL     OW35327   5.718   6.352   6.166 -0.0383  0.7251  0.2095
 8899SOL    HW235328   5.675   6.364   6.251  1.0033  1.6797  0.6312
 8899SOL    HW335329   5.710   6.438   6.123  0.5010  0.6038 -0.1429
 8899SOL    MW435330   5.711   6.365   6.171 -0.0918 -0.7631  0.6752
 8900SOL     OW35331   0.142   2.943   2.349 -0.5417  0.1591 -0.1416
 8900SOL    HW235332   0.152   2.912   2.259 -0.9055  0.8373 -0.4216
 8900SOL    HW335333   0.051   2.973   2.354 -0.8034 -0.7229  0.7240
 8900SOL    MW435334   0.131   2.943   2.337 -0.5065  0.0524 -0.0819
 8901SOL     OW35335   4.967   1.807   4.088 -0.0461  0.5518  0.0360
 8901SOL    HW235336   4.926   1.721   4.083  0.0465  0.5414 -0.6925
 8901SOL    HW335337   4.897   1.866   4.112 -1.2223  0.9812 -3.7104
 8901SOL    MW435338   4.953   1.803   4.090  0.2313 -0.0966  0.0721
 8902SOL     OW35339   3.281   2.080   2.827 -0.1883  0.6102 -0.2249
 8902SOL    HW235340   3.310   2.017   2.893 -0.6091 -0.0419 -0.6475
 8902SOL    HW335341   3.191   2.101   2.852  0.0870  1.3712  0.1505
 8902SOL    MW435342   3.273   2.074   2.839 -0.2729 -0.3463  0.2149
 8903SOL     OW35343   4.599   1.000   4.010 -0.4651  0.3139  0.0003
 8903SOL    HW235344   4.598   0.942   4.086 -0.9858 -0.6706 -0.7376
 8903SOL    HW335345   4.519   1.051   4.017 -0.3259  0.4948  0.3048
 8903SOL    MW435346   4.589   0.999   4.021 -0.3021  0.0592  0.0651
 8904NA      NA35347   3.172   3.813   3.924 -0.1377 -0.4321 -0.2513
 8905NA      NA35348   2.940   1.297   0.451 -0.0895  0.1791 -0.5076
 8906NA      NA35349   3.348   2.339   0.092 -0.2097  0.4185  0.0363
 8907NA      NA35350   2.371   1.423   0.750 -0.3278  0.3345 -0.1887
 8908NA      NA35351   0.120   0.335   2.015  0.4015  0.0217  0.2790
 8909NA      NA35352   0.913   6.223   0.171  0.0934 -0.2043 -0.6017
 8910NA      NA35353   2.612   1.002   5.277  0.2149 -0.2720 -0.0948
 8911NA      NA35354   1.268   3.997   0.850  0.0454 -0.3997 -0.2134
   6.43155   6.43155   6.43155
