A-SYNC WITH FASUDIL in water
35354
  121NASP     N    1   2.497   4.379   2.217 -0.6766 -0.1311  0.5052
  121NASP    H1    2   2.489   4.280   2.202 -1.6222 -0.2591  1.6970
  121NASP    H2    3   2.580   4.403   2.270  1.5841  0.4070 -2.9601
  121NASP    H3    4   2.521   4.417   2.127  2.0766 -0.8924  0.8297
  121NASP    CA    5   2.372   4.440   2.271  0.4032  0.1751  0.2798
  121NASP    HA    6   2.383   4.549   2.273 -1.2432  0.3900 -0.4481
  121NASP    CB    7   2.253   4.398   2.184  0.7900  0.1670 -0.0794
  121NASP   HB1    8   2.254   4.465   2.098  0.3559 -0.3604 -0.5017
  121NASP   HB2    9   2.163   4.401   2.246  0.4936 -1.9913 -0.3522
  121NASP    CG   10   2.250   4.254   2.144 -0.6440  1.1249  0.5825
  121NASP   OD1   11   2.329   4.169   2.193  0.1277  0.0471  0.9324
  121NASP   OD2   12   2.177   4.226   2.044  0.8757 -0.0416 -1.0375
  121NASP     C   13   2.365   4.402   2.419 -0.1123 -0.3120  0.4073
  121NASP     O   14   2.386   4.287   2.452  0.2728  0.4769 -0.1999
  122ASN      N   15   2.349   4.501   2.506 -0.0350 -0.1319 -0.2581
  122ASN      H   16   2.339   4.593   2.467  1.3470  0.4826  0.7372
  122ASN     CA   17   2.357   4.486   2.654 -0.0991 -0.3996  0.3447
  122ASN     HA   18   2.453   4.445   2.684  1.5057  2.0667 -1.0693
  122ASN     CB   19   2.339   4.625   2.714 -0.1162  0.1471  0.3662
  122ASN    HB1   20   2.307   4.624   2.818  2.2740  1.9654  1.2029
  122ASN    HB2   21   2.268   4.684   2.656 -0.2985 -0.3105  0.1154
  122ASN     CG   22   2.461   4.709   2.714  0.0895  0.0098  0.0701
  122ASN    OD1   23   2.566   4.687   2.654 -0.4716 -0.3887  0.0742
  122ASN    ND2   24   2.458   4.817   2.787 -0.4114 -0.2536  0.1029
  122ASN   HD21   25   2.540   4.876   2.783 -0.3345 -0.4177 -1.3884
  122ASN   HD22   26   2.385   4.831   2.856 -0.3064  2.9299 -0.2739
  122ASN      C   27   2.246   4.387   2.701  0.4051  0.3275  0.0785
  122ASN      O   28   2.142   4.388   2.633  0.8627  0.1594  0.5118
  123GLU      N   29   2.262   4.306   2.802  0.1643 -0.5497  0.2928
  123GLU      H   30   2.350   4.318   2.849 -0.7826  0.1716  1.9853
  123GLU     CA   31   2.173   4.191   2.832 -0.9875  0.6292 -0.5245
  123GLU     HA   32   2.156   4.143   2.736 -3.0528  2.6302 -1.2210
  123GLU     CB   33   2.252   4.075   2.908  0.2579 -0.2997  0.1161
  123GLU    HB1   34   2.353   4.057   2.870  0.5673 -0.3905  0.9492
  123GLU    HB2   35   2.210   3.977   2.891  0.9594 -0.9237  1.7509
  123GLU     CG   36   2.250   4.104   3.057 -0.1824 -0.1830 -0.7323
  123GLU    HG1   37   2.149   4.114   3.098 -1.3069 -2.3534 -2.7229
  123GLU    HG2   38   2.312   4.190   3.080  3.4205 -2.1621 -2.2155
  123GLU     CD   39   2.317   3.974   3.121 -0.0030 -0.5542 -0.3007
  123GLU    OE1   40   2.237   3.886   3.154  0.2450  0.0571  0.6016
  123GLU    OE2   41   2.438   3.973   3.151 -0.1128 -0.0366  0.3102
  123GLU      C   42   2.032   4.217   2.890 -0.7729 -0.7384  0.2537
  123GLU      O   43   2.004   4.319   2.949 -0.5809  0.0333  0.2184
  124ALA      N   44   1.949   4.115   2.877  0.6595  0.3151  0.0152
  124ALA      H   45   1.978   4.043   2.812 -1.9399 -1.2652  0.4474
  124ALA     CA   46   1.811   4.123   2.917  0.4314  0.2813  0.5260
  124ALA     HA   47   1.768   4.216   2.878 -1.0250 -0.9298 -0.9074
  124ALA     CB   48   1.731   4.014   2.836 -0.2755  0.7576 -0.6533
  124ALA    HB1   49   1.779   3.918   2.854 -0.0271  1.1973  1.2434
  124ALA    HB2   50   1.729   4.026   2.728 -1.1348 -1.1375 -0.9003
  124ALA    HB3   51   1.629   3.994   2.871  0.1992  1.7629  1.4171
  124ALA      C   52   1.794   4.123   3.078 -0.8603  0.1929  0.6938
  124ALA      O   53   1.890   4.096   3.159  0.0023 -0.0298  0.2669
  125TYR      N   54   1.674   4.160   3.126  0.0297  0.0034  0.5048
  125TYR      H   55   1.597   4.178   3.063 -0.1916 -3.5462 -0.4494
  125TYR     CA   56   1.642   4.165   3.271 -0.5296  0.0200  1.1839
  125TYR     HA   57   1.711   4.230   3.325  1.2071 -0.1825 -0.6881
  125TYR     CB   58   1.502   4.223   3.276 -0.6520 -0.2111 -0.5404
  125TYR    HB1   59   1.435   4.155   3.224 -0.1425 -0.7412 -0.5087
  125TYR    HB2   60   1.500   4.326   3.239  0.6246  0.2956  0.6758
  125TYR     CG   61   1.438   4.247   3.412 -0.4989 -0.2743  0.2921
  125TYR    CD1   62   1.490   4.342   3.505 -0.1480  0.5243 -0.4264
  125TYR    HD1   63   1.573   4.405   3.478  1.3506 -1.1796  0.0120
  125TYR    CE1   64   1.430   4.347   3.635  0.2641 -0.2507  0.0540
  125TYR    HE1   65   1.470   4.408   3.715  0.4021 -0.5779  0.2379
  125TYR     CZ   66   1.313   4.267   3.664 -0.8661 -0.5007  0.1977
  125TYR     OH   67   1.249   4.284   3.780  0.5878 -0.0540  0.3628
  125TYR     HH   68   1.185   4.214   3.793  0.8033 -0.4404 -0.5563
  125TYR    CE2   69   1.267   4.171   3.574 -0.1648  0.4526  0.3883
  125TYR    HE2   70   1.178   4.116   3.602  0.0184 -0.1180 -0.1132
  125TYR    CD2   71   1.335   4.159   3.450 -0.2412  0.0910  0.3676
  125TYR    HD2   72   1.297   4.084   3.381  1.3373 -1.0003  0.6280
  125TYR      C   73   1.646   4.026   3.337 -0.3385  0.1853  0.2266
  125TYR      O   74   1.618   3.923   3.277 -0.4509 -0.4279  0.0490
  126GLU      N   75   1.661   4.022   3.467  0.5171  0.6370 -0.5767
  126GLU      H   76   1.653   4.106   3.522  1.1752 -0.5001  1.3778
  126GLU     CA   77   1.657   3.898   3.552  0.4619  0.1319 -0.5268
  126GLU     HA   78   1.600   3.817   3.507 -0.0536  0.0732  0.2192
  126GLU     CB   79   1.797   3.848   3.572  0.4855 -0.7407 -0.1990
  126GLU    HB1   80   1.854   3.911   3.639  0.4066  0.2213 -1.0069
  126GLU    HB2   81   1.835   3.834   3.471 -1.7141 -0.3231 -1.1575
  126GLU     CG   82   1.793   3.706   3.635  0.1288 -0.3154 -0.0061
  126GLU    HG1   83   1.705   3.654   3.598 -1.0407 -0.0632  2.2631
  126GLU    HG2   84   1.786   3.717   3.743 -1.0270  0.7379 -0.1637
  126GLU     CD   85   1.898   3.610   3.603 -0.0251 -0.1971 -0.2160
  126GLU    OE1   86   1.934   3.522   3.688  0.1630  0.0159 -0.3449
  126GLU    OE2   87   1.955   3.616   3.491  0.2764  0.1186  0.3206
  126GLU      C   88   1.581   3.923   3.687 -0.5048  0.3091 -0.3818
  126GLU      O   89   1.498   3.844   3.722  0.3894  0.2361  0.2678
  127MET      N   90   1.621   4.029   3.765  0.5995 -0.2110  0.0251
  127MET      H   91   1.689   4.091   3.724  0.6501 -0.8897 -0.9548
  127MET     CA   92   1.560   4.046   3.900  0.5580  0.0601  0.2347
  127MET     HA   93   1.458   4.010   3.894 -0.6714  3.3775 -3.3522
  127MET     CB   94   1.644   3.967   4.000  0.2498 -0.6092  0.5052
  127MET    HB1   95   1.658   3.864   3.967  1.7573 -0.8051  1.6667
  127MET    HB2   96   1.583   3.959   4.090 -0.7213  0.4407 -0.0345
  127MET     CG   97   1.780   4.035   4.026 -0.3565 -1.0561 -0.0908
  127MET    HG1   98   1.760   4.140   4.049  1.6336 -0.1952 -1.9158
  127MET    HG2   99   1.837   4.022   3.934  0.8912 -0.0529  0.5133
  127MET     SD  100   1.874   3.970   4.167 -0.1844 -0.0069 -0.4099
  127MET     CE  101   1.939   4.124   4.243 -0.5226 -0.3851 -0.0346
  127MET    HE1  102   1.988   4.100   4.337 -0.4905 -0.6474 -0.1167
  127MET    HE2  103   1.859   4.192   4.273  0.7880  1.1196  0.1646
  127MET    HE3  104   1.994   4.193   4.179  0.0511 -0.1151  0.7371
  127MET      C  105   1.540   4.191   3.951  0.4550 -0.6324  0.0965
  127MET      O  106   1.615   4.284   3.906 -0.2145  0.5435 -0.0406
  128PRO      N  107   1.456   4.217   4.051 -0.3909 -0.5430 -0.1750
  128PRO     CD  108   1.355   4.118   4.108  1.0100 -0.0500  0.1797
  128PRO    HD1  109   1.404   4.052   4.180  2.1187  1.0279  0.4584
  128PRO    HD2  110   1.309   4.057   4.031  0.6708  1.5360 -0.9360
  128PRO     CG  111   1.247   4.202   4.180  0.4108 -0.5912 -1.1779
  128PRO    HG1  112   1.200   4.162   4.269 -0.9401 -1.0868 -2.0881
  128PRO    HG2  113   1.177   4.231   4.101 -0.8733 -1.4461 -0.3753
  128PRO     CB  114   1.332   4.323   4.216 -0.4507  0.2798 -0.0902
  128PRO    HB1  115   1.277   4.414   4.240  1.0140  1.0197  0.5909
  128PRO    HB2  116   1.378   4.288   4.309  0.5549 -1.5737 -1.2335
  128PRO     CA  117   1.448   4.348   4.118  0.4520 -0.1350 -0.3703
  128PRO     HA  118   1.414   4.424   4.047 -1.5841 -1.6192 -1.0783
  128PRO      C  119   1.575   4.407   4.186 -0.2849  0.0640 -0.1146
  128PRO      O  120   1.662   4.328   4.233  0.1465 -0.1916  0.0958
  129SER      N  121   1.572   4.544   4.195  0.4338 -0.2652 -0.2247
  129SER      H  122   1.487   4.590   4.169  0.5849  0.4924  0.5688
  129SER     CA  123   1.676   4.624   4.257 -0.6573  0.0043 -0.5965
  129SER     HA  124   1.719   4.575   4.345  0.8681  0.5336 -1.0034
  129SER     CB  125   1.789   4.639   4.158  0.8483 -0.0218 -0.1009
  129SER    HB1  126   1.820   4.541   4.120  2.7635 -0.5609  2.5524
  129SER    HB2  127   1.870   4.685   4.215  0.8560 -0.3703  0.1750
  129SER     OG  128   1.755   4.716   4.049  0.3493  0.0791 -0.5709
  129SER    HG1  129   1.830   4.735   3.993  0.6495 -0.0313 -0.2101
  129SER      C  130   1.631   4.771   4.302 -0.6067 -0.8730 -0.0675
  129SER      O  131   1.513   4.802   4.310  0.2336 -0.2575 -0.0161
  130GLU      N  132   1.730   4.857   4.338  0.3665  0.7242  0.4877
  130GLU      H  133   1.820   4.811   4.337 -0.0487 -0.1209 -1.1462
  130GLU     CA  134   1.716   5.005   4.372 -0.0179  0.1223  0.2462
  130GLU     HA  135   1.649   5.002   4.457 -2.5798 -1.9631 -1.6820
  130GLU     CB  136   1.856   5.059   4.404 -0.4906  0.4296  0.0400
  130GLU    HB1  137   1.854   5.166   4.427  0.7571 -0.3638  4.9896
  130GLU    HB2  138   1.924   5.047   4.320 -1.2931 -0.9390 -0.4543
  130GLU     CG  139   1.913   4.988   4.523  0.2037 -0.4604  0.3618
  130GLU    HG1  140   1.908   4.880   4.508 -1.7397 -0.2296 -1.0972
  130GLU    HG2  141   1.851   5.003   4.611 -0.6148 -0.1429 -0.2511
  130GLU     CD  142   2.055   5.034   4.563  0.1794  0.1922 -0.3885
  130GLU    OE1  143   2.123   4.950   4.630  0.6410 -0.0362 -0.2737
  130GLU    OE2  144   2.097   5.151   4.532  0.2920  0.3912  0.2507
  130GLU      C  145   1.652   5.085   4.259  0.4191  0.2520 -0.0428
  130GLU      O  146   1.576   5.177   4.286 -0.3042 -0.7234  0.3135
  131GLU      N  147   1.664   5.031   4.137  0.5821 -0.0112  0.7525
  131GLU      H  148   1.701   4.937   4.129 -1.2461 -0.6477 -1.6372
  131GLU     CA  149   1.590   5.079   4.015  0.0078  0.2563  0.2269
  131GLU     HA  150   1.584   5.188   4.023 -1.5000  0.2713 -0.7249
  131GLU     CB  151   1.656   5.036   3.880 -0.2002  0.0794  0.1864
  131GLU    HB1  152   1.607   5.085   3.797 -2.4814  0.3159  1.5773
  131GLU    HB2  153   1.639   4.929   3.869 -0.2932  0.2153 -1.1063
  131GLU     CG  154   1.806   5.068   3.881  0.5015  0.0460  0.5188
  131GLU    HG1  155   1.858   4.999   3.947 -2.0012  0.0494  2.6428
  131GLU    HG2  156   1.821   5.171   3.912 -1.6548  0.2926  0.9049
  131GLU     CD  157   1.863   5.043   3.740 -0.3169  0.4432  0.2513
  131GLU    OE1  158   1.804   5.086   3.638 -0.4919  0.4176 -0.5041
  131GLU    OE2  159   1.976   4.986   3.731 -0.0887  0.1273  0.2488
  131GLU      C  160   1.443   5.034   4.008  0.1924  0.1103  0.0820
  131GLU      O  161   1.371   5.077   3.915 -0.3759  0.8885 -0.3076
  132GLY      N  162   1.389   4.956   4.105  0.2134 -0.0144  0.0698
  132GLY      H  163   1.452   4.942   4.183  0.2209 -0.2974  0.0127
  132GLY     CA  164   1.258   4.888   4.099  0.1830 -0.1649 -0.2237
  132GLY    HA1  165   1.187   4.955   4.050 -1.0685 -1.7669 -0.6704
  132GLY    HA2  166   1.209   4.878   4.196 -0.4030  1.7583 -0.2659
  132GLY      C  167   1.258   4.755   4.035 -0.4433 -0.3425  0.0140
  132GLY      O  168   1.349   4.671   4.052  0.4926 -0.1255  0.1106
  133TYR      N  169   1.148   4.725   3.961 -0.7284 -0.2310  0.5405
  133TYR      H  170   1.076   4.796   3.957 -0.5357  0.0459  1.6633
  133TYR     CA  171   1.126   4.609   3.878 -0.2917 -0.0832 -0.7152
  133TYR     HA  172   1.209   4.540   3.870  0.6937  1.0380 -0.5131
  133TYR     CB  173   1.011   4.517   3.934  0.0311  0.6483 -0.4759
  133TYR    HB1  174   1.042   4.473   4.029 -0.3995 -0.0362 -0.6479
  133TYR    HB2  175   0.992   4.432   3.868  0.5468 -1.3023  1.7284
  133TYR     CG  176   0.875   4.573   3.961 -0.1022  1.1651 -0.9234
  133TYR    CD1  177   0.837   4.610   4.091 -0.5188 -0.3488  0.7454
  133TYR    HD1  178   0.906   4.620   4.174  0.4091  1.9519 -0.2203
  133TYR    CE1  179   0.703   4.646   4.110 -0.3391 -0.1744  0.5613
  133TYR    HE1  180   0.669   4.685   4.204 -0.7425  2.8197 -0.7050
  133TYR     CZ  181   0.614   4.653   4.003  0.2977  1.1072 -0.4365
  133TYR     OH  182   0.482   4.684   4.017  0.5797  0.0762  0.1692
  133TYR     HH  183   0.427   4.677   3.939 -0.6540 -1.2528  1.1160
  133TYR    CE2  184   0.647   4.609   3.878 -0.1476  0.5294 -0.4133
  133TYR    HE2  185   0.579   4.599   3.795 -0.0425 -1.3127 -0.3316
  133TYR    CD2  186   0.783   4.571   3.858 -0.4331 -0.2534  1.1796
  133TYR    HD2  187   0.819   4.538   3.762 -0.2045  1.8988  0.4691
  133TYR      C  188   1.104   4.649   3.730  0.5979  0.2335 -0.7572
  133TYR      O  189   1.105   4.770   3.700  0.0582 -0.0148 -0.6920
  134GLN      N  190   1.090   4.553   3.643  0.4374 -0.1816 -0.0768
  134GLN      H  191   1.099   4.457   3.670  1.9956 -0.4040 -1.2474
  134GLN     CA  192   1.034   4.569   3.501  0.3251 -0.5635 -0.6667
  134GLN     HA  193   1.000   4.671   3.483 -1.1155 -0.8566  0.2235
  134GLN     CB  194   1.150   4.547   3.404 -0.7963  0.3657 -0.5658
  134GLN    HB1  195   1.113   4.536   3.302 -0.4160 -3.0433 -0.4438
  134GLN    HB2  196   1.198   4.451   3.423 -1.4865 -0.3162 -2.0783
  134GLN     CG  197   1.254   4.661   3.419  0.2032  0.0459 -0.0096
  134GLN    HG1  198   1.289   4.676   3.521  3.4103  1.8107 -1.2210
  134GLN    HG2  199   1.213   4.754   3.379  2.7081  0.2711 -2.3551
  134GLN     CD  200   1.375   4.625   3.332 -0.1935  0.0452  0.0283
  134GLN    OE1  201   1.373   4.575   3.219 -0.0597 -0.0395 -0.3907
  134GLN    NE2  202   1.494   4.641   3.384 -0.0596  0.3432 -0.9104
  134GLN   HE21  203   1.574   4.607   3.333  1.6095  1.0921  1.1014
  134GLN   HE22  204   1.505   4.670   3.480  2.1045 -0.0184 -1.0047
  134GLN      C  205   0.921   4.472   3.491  0.1997  0.2273  0.2791
  134GLN      O  206   0.937   4.359   3.545  0.0988 -0.3685 -0.4325
  135ASP      N  207   0.809   4.507   3.422  0.5794  0.1583  0.5373
  135ASP      H  208   0.804   4.598   3.380  0.6375 -0.0795  0.0126
  135ASP     CA  209   0.680   4.432   3.418 -0.1262  0.4621 -0.0773
  135ASP     HA  210   0.708   4.328   3.433 -0.4191  0.3806 -0.0770
  135ASP     CB  211   0.577   4.476   3.530  0.7326 -0.4155  0.0761
  135ASP    HB1  212   0.632   4.454   3.622  1.2814  1.6933  0.3086
  135ASP    HB2  213   0.491   4.409   3.521 -1.1608  1.8445  0.5010
  135ASP     CG  214   0.536   4.623   3.527 -0.4628  0.2866 -0.6651
  135ASP    OD1  215   0.614   4.706   3.474  0.4366  0.3139  0.0280
  135ASP    OD2  216   0.435   4.655   3.590  0.2205 -0.1036 -0.2475
  135ASP      C  217   0.623   4.445   3.280 -0.0731  0.4177 -0.4727
  135ASP      O  218   0.628   4.557   3.220 -0.4023  0.5647 -0.4111
  136TYR      N  219   0.549   4.342   3.235  0.6165 -0.1825  0.4129
  136TYR      H  220   0.547   4.262   3.296 -2.8847 -0.7157 -0.2202
  136TYR     CA  221   0.474   4.335   3.112 -0.1087  0.1831  0.1418
  136TYR     HA  222   0.541   4.367   3.032 -1.0168 -0.9777 -1.1217
  136TYR     CB  223   0.426   4.193   3.089  0.1280 -0.1723  0.2964
  136TYR    HB1  224   0.379   4.183   2.991  1.4762  1.1496 -0.5220
  136TYR    HB2  225   0.348   4.179   3.164 -0.1071  0.2278  0.1281
  136TYR     CG  226   0.527   4.084   3.096 -1.3845 -0.2368  0.3178
  136TYR    CD1  227   0.659   4.107   3.046  0.4480  0.0376 -0.7508
  136TYR    HD1  228   0.683   4.199   2.995 -0.2554 -0.3601 -1.8507
  136TYR    CE1  229   0.758   4.010   3.078 -0.2885  0.1195  0.1371
  136TYR    HE1  230   0.857   4.031   3.040  1.1491 -0.7948  3.1364
  136TYR     CZ  231   0.722   3.891   3.138  0.0637 -0.4724 -0.0584
  136TYR     OH  232   0.821   3.801   3.163 -0.0444 -0.6220  0.5977
  136TYR     HH  233   0.908   3.821   3.129 -0.3940 -0.0778  0.0030
  136TYR    CE2  234   0.596   3.872   3.192  0.0077  0.0899 -0.4927
  136TYR    HE2  235   0.575   3.783   3.249  1.5635  0.2643  0.4136
  136TYR    CD2  236   0.502   3.975   3.180  0.6100  0.6483  0.4543
  136TYR    HD2  237   0.401   3.968   3.220  0.4473  2.3058  0.3970
  136TYR      C  238   0.350   4.424   3.106 -0.3543  0.0566  0.8089
  136TYR      O  239   0.287   4.458   3.202 -0.1570  0.0032 -0.1054
  137GLU      N  240   0.295   4.461   2.992  0.4398  0.3477  0.2999
  137GLU      H  241   0.343   4.428   2.909  0.0160  1.2295 -0.3158
  137GLU     CA  242   0.179   4.545   2.978  0.6931  0.4336 -0.5178
  137GLU     HA  243   0.178   4.614   3.063  0.4328 -0.6521  0.3873
  137GLU     CB  244   0.175   4.633   2.851 -0.0438  0.0244 -0.1852
  137GLU    HB1  245   0.103   4.714   2.862 -1.0874 -1.0445  1.2303
  137GLU    HB2  246   0.152   4.572   2.764 -1.0871  1.0396 -0.6507
  137GLU     CG  247   0.299   4.710   2.806  0.2752 -0.0029  0.0806
  137GLU    HG1  248   0.296   4.747   2.703  1.5462 -1.1982 -0.4143
  137GLU    HG2  249   0.395   4.659   2.804  0.4233  0.2878 -0.4025
  137GLU     CD  250   0.320   4.842   2.882  0.0190 -0.1256 -0.7623
  137GLU    OE1  251   0.285   4.950   2.830  0.1825 -0.4328 -0.5323
  137GLU    OE2  252   0.362   4.834   3.004 -0.0282  0.3975  0.0417
  137GLU      C  253   0.052   4.455   2.978 -0.7928 -0.0210 -0.1983
  137GLU      O  254   0.043   4.361   2.896  0.1855 -0.4177  0.3316
  138PRO      N  255  -0.042   4.476   3.072  0.3656  0.0720 -0.6876
  138PRO     CD  256  -0.049   4.591   3.160 -0.5667 -0.3126  0.0028
  138PRO    HD1  257  -0.008   4.686   3.124  0.5533 -0.5563  0.5795
  138PRO    HD2  258   0.008   4.566   3.250  1.9565  0.1396 -1.3753
  138PRO     CG  259  -0.195   4.604   3.204 -0.0218 -0.2336 -0.4005
  138PRO    HG1  260  -0.245   4.668   3.130 -3.0305 -1.4398  0.4633
  138PRO    HG2  261  -0.214   4.650   3.301  0.7146 -0.3343 -0.1972
  138PRO     CB  262  -0.234   4.461   3.197 -0.3096 -1.0612 -0.2612
  138PRO    HB1  263  -0.196   4.418   3.289 -2.7481 -0.4073  1.1366
  138PRO    HB2  264  -0.342   4.447   3.191 -0.4775  0.4060 -1.1991
  138PRO     CA  265  -0.169   4.404   3.069  0.1892  0.3920 -0.2661
  138PRO     HA  266  -0.158   4.296   3.081 -2.7560  0.0608  0.0910
  138PRO      C  267  -0.248   4.431   2.948  0.1974  0.0375 -0.0751
  138PRO      O  268  -0.235   4.529   2.881  0.1540  0.1570  0.0034
  139GLU      N  269  -0.343   4.343   2.923 -0.3890 -0.3708  0.6952
  139GLU      H  270  -0.364   4.271   2.990 -2.7136 -2.8569 -2.3474
  139GLU     CA  271  -0.419   4.333   2.798 -0.7945  0.0629 -0.5179
  139GLU     HA  272  -0.362   4.375   2.716  0.7233  2.6724  1.7256
  139GLU     CB  273  -0.441   4.190   2.775  0.2316 -0.2394 -0.0195
  139GLU    HB1  274  -0.482   4.162   2.678 -1.2396 -3.6033  1.4207
  139GLU    HB2  275  -0.505   4.148   2.853 -0.9218  1.9066  0.2418
  139GLU     CG  276  -0.304   4.115   2.766 -0.3985 -0.0696  0.3253
  139GLU    HG1  277  -0.242   4.131   2.854  1.6311  1.1790 -1.2495
  139GLU    HG2  278  -0.248   4.150   2.680  1.2950  0.8376  1.7134
  139GLU     CD  279  -0.330   3.967   2.753  0.5249 -0.3589 -0.1113
  139GLU    OE1  280  -0.429   3.919   2.809  0.1723  0.4224  0.1100
  139GLU    OE2  281  -0.254   3.896   2.684  0.6848  0.4551 -0.0830
  139GLU      C  282  -0.550   4.403   2.793 -1.1482 -0.2202 -0.5611
  139GLU      O  283  -0.655   4.338   2.793 -0.4966  0.3724  0.4640
  140CALA     N  284  -0.544   4.534   2.811  0.1433 -0.2977 -0.0314
  140CALA     H  285  -0.456   4.583   2.804 -0.2046  0.0675 -3.3453
  140CALA    CA  286  -0.661   4.621   2.811 -0.0278 -0.5306 -0.2326
  140CALA    HA  287  -0.731   4.584   2.887 -0.6001 -1.6441 -1.2662
  140CALA    CB  288  -0.622   4.762   2.860  0.2221 -0.0766  0.2882
  140CALA   HB1  289  -0.546   4.808   2.797  0.3213  1.8101  1.6977
  140CALA   HB2  290  -0.590   4.760   2.964 -0.4157 -1.1595  0.4803
  140CALA   HB3  291  -0.711   4.826   2.859  0.5792  0.4207 -0.7683
  140CALA     C  292  -0.742   4.613   2.675  0.2876 -0.1554  0.0772
  140CALA   OC1  293  -0.869   4.617   2.671 -0.4249 -0.5174 -0.0724
  140CALA   OC2  294  -0.670   4.613   2.569  0.4234 -0.0149 -0.0273
  141SOL     OW  295   2.077   0.241   3.658  0.0904 -0.1530 -0.1115
  141SOL    HW2  296   2.155   0.220   3.711  1.1500 -0.3259 -1.6654
  141SOL    HW3  297   2.068   0.336   3.667 -1.1768 -0.4102  2.2073
  141SOL    MW4  298   2.086   0.251   3.667 -0.4315 -0.0696  0.0827
  142SOL     OW  299   5.022   1.722   4.634  0.0884  0.6867  0.3266
  142SOL    HW2  300   5.095   1.708   4.694 -0.8492  1.9833  1.8380
  142SOL    HW3  301   4.946   1.734   4.691 -1.2658 -0.2196 -1.1904
  142SOL    MW4  302   5.021   1.721   4.649  0.0223  0.3588  0.7061
  143SOL     OW  303   2.736   0.481   3.118 -0.5030 -0.1362 -0.1596
  143SOL    HW2  304   2.755   0.423   3.191  1.6704 -1.9525 -2.0007
  143SOL    HW3  305   2.645   0.465   3.097 -0.6903 -0.8056  1.0912
  143SOL    MW4  306   2.727   0.472   3.125 -0.0370  0.9087  0.4601
  144SOL     OW  307   4.511   3.629   0.097 -0.5656 -0.3829 -0.3193
  144SOL    HW2  308   4.523   3.540   0.062  0.6021 -0.4130  0.1083
  144SOL    HW3  309   4.449   3.670   0.037 -1.9849 -1.8164  0.0743
  144SOL    MW4  310   4.504   3.623   0.085 -0.3818  0.7559 -0.3997
  145SOL     OW  311   4.568   1.348   1.268  0.3242 -1.0158 -0.0316
  145SOL    HW2  312   4.544   1.429   1.313  1.1873 -0.3249 -0.7695
  145SOL    HW3  313   4.528   1.356   1.182  0.1621 -1.5153 -0.0037
  145SOL    MW4  314   4.560   1.360   1.263  0.8341  0.4212 -0.4991
  146SOL     OW  315   4.223   4.887   5.601 -0.1593 -0.9431 -0.4008
  146SOL    HW2  316   4.158   4.860   5.665 -1.3133 -1.2645 -1.6440
  146SOL    HW3  317   4.292   4.930   5.652 -1.5735 -0.1466  0.9226
  146SOL    MW4  318   4.223   4.889   5.616 -0.3332  0.0245 -0.5548
  147SOL     OW  319   2.724   1.478   5.062 -0.6726  0.4561 -0.3995
  147SOL    HW2  320   2.654   1.424   5.026 -0.4672  0.4449 -0.7837
  147SOL    HW3  321   2.800   1.421   5.064  0.0345  1.2340 -2.5379
  147SOL    MW4  322   2.725   1.464   5.057  0.4011  0.1752  0.2741
  148SOL     OW  323   0.150   0.837   0.712  0.2682  0.7356  1.1037
  148SOL    HW2  324   0.202   0.872   0.640  0.9939  3.0711  2.6338
  148SOL    HW3  325   0.062   0.871   0.697  0.0888  0.0429  0.5781
  148SOL    MW4  326   0.145   0.846   0.701  0.5214  0.4293  0.3119
  149SOL     OW  327   3.602   6.051   4.614 -0.1281  0.4550 -0.1502
  149SOL    HW2  328   3.651   5.982   4.659  1.0269  2.5527  2.0319
  149SOL    HW3  329   3.513   6.044   4.649  0.3906  1.0749  1.3464
  149SOL    MW4  330   3.597   6.041   4.625  0.1374  0.5955 -0.6277
  150SOL     OW  331   1.262   1.943   6.193 -0.1709 -0.1231  0.1691
  150SOL    HW2  332   1.306   1.922   6.275 -0.2366 -2.3161 -0.2773
  150SOL    HW3  333   1.327   1.991   6.142  1.4723 -2.4411 -0.1052
  150SOL    MW4  334   1.276   1.946   6.197 -0.0373  0.3991 -0.2493
  151SOL     OW  335   2.494   4.947   0.558  0.0255  0.6827 -0.0920
  151SOL    HW2  336   2.469   5.034   0.589  1.8023  2.0648 -2.1952
  151SOL    HW3  337   2.590   4.949   0.553  0.0259 -0.6228 -2.1539
  151SOL    MW4  338   2.503   4.958   0.561 -0.4031  0.2890 -0.5242
  152SOL     OW  339   6.103   6.231   4.220  0.4274  0.2899 -0.0907
  152SOL    HW2  340   6.072   6.158   4.166 -1.6824  0.1099  1.2339
  152SOL    HW3  341   6.104   6.195   4.309 -1.3872  2.0160  0.6986
  152SOL    MW4  342   6.099   6.216   4.225  0.5949 -0.1400  0.2032
  153SOL     OW  343   6.019   3.227   0.758 -1.1030  0.3539 -0.1941
  153SOL    HW2  344   5.945   3.191   0.708 -1.0980 -0.6877  0.5134
  153SOL    HW3  345   6.088   3.162   0.747 -1.1610  0.0209  1.2842
  153SOL    MW4  346   6.018   3.213   0.750  0.2563  0.1191 -0.4788
  154SOL     OW  347   4.980   6.331   4.276 -0.2039  0.7051 -0.4887
  154SOL    HW2  348   4.975   6.396   4.205  2.0323  2.2358  0.6263
  154SOL    HW3  349   5.074   6.317   4.288 -0.5782 -0.6376  1.2226
  154SOL    MW4  350   4.992   6.337   4.268  0.2797 -0.2136  0.4446
  155SOL     OW  351   2.535   5.268   1.569  0.0949  0.0993  0.5643
  155SOL    HW2  352   2.462   5.270   1.507  0.9704 -2.8850 -0.7815
  155SOL    HW3  353   2.495   5.250   1.654 -0.8805  0.7513  0.2542
  155SOL    MW4  354   2.520   5.266   1.572 -0.2561  0.2511  0.3341
  156SOL     OW  355   3.544   3.558   4.932  0.9815  0.4180 -0.0991
  156SOL    HW2  356   3.575   3.511   4.855  2.1033 -0.6941  0.9717
  156SOL    HW3  357   3.625   3.589   4.974  0.4353  0.5060  0.9074
  156SOL    MW4  358   3.559   3.556   4.927 -0.0952  0.1273 -0.0297
  157SOL     OW  359   3.706   2.273   0.444 -0.7345  0.1665 -0.0501
  157SOL    HW2  360   3.751   2.212   0.386 -0.4492  1.9957 -1.8431
  157SOL    HW3  361   3.613   2.247   0.439 -0.4714 -0.9554  0.3554
  157SOL    MW4  362   3.699   2.261   0.436  0.4550 -0.1845 -0.4550
  158SOL     OW  363   5.836   1.625   1.591  0.2153  0.5346  0.3244
  158SOL    HW2  364   5.901   1.678   1.636  0.4867 -0.2347  0.8633
  158SOL    HW3  365   5.881   1.592   1.514  0.9587 -1.1642  1.4345
  158SOL    MW4  366   5.850   1.627   1.587  0.1817  0.1600 -0.0925
  159SOL     OW  367   3.404   2.817   1.575  0.1986  0.8640 -0.1002
  159SOL    HW2  368   3.428   2.890   1.633 -0.5651  3.1493 -2.4788
  159SOL    HW3  369   3.311   2.832   1.556  0.2734 -0.1997 -1.3635
  159SOL    MW4  370   3.395   2.829   1.580 -0.3696  0.1175 -0.2658
  160SOL     OW  371   1.175   5.607   3.451 -0.1480 -0.2033  0.0541
  160SOL    HW2  372   1.099   5.578   3.502 -0.8941  0.1448 -0.8308
  160SOL    HW3  373   1.228   5.528   3.441 -0.9741 -0.7268 -0.3022
  160SOL    MW4  374   1.172   5.593   3.456 -0.1291 -0.6159 -0.0480
  161SOL     OW  375   6.302   4.020   4.866  0.1680 -0.8769 -0.3401
  161SOL    HW2  376   6.318   4.001   4.773  0.4484 -1.2535 -0.2182
  161SOL    HW3  377   6.381   4.063   4.896 -0.7920  1.3775 -0.8238
  161SOL    MW4  378   6.314   4.023   4.857  0.0273 -0.4476 -0.2487
  162SOL     OW  379   1.243   0.770   2.630 -0.2275 -0.1897  0.8165
  162SOL    HW2  380   1.173   0.719   2.671 -1.5730 -2.0745 -3.3337
  162SOL    HW3  381   1.307   0.705   2.603  2.1082  1.2976  2.4418
  162SOL    MW4  382   1.242   0.755   2.632 -0.2520 -0.5438  0.1998
  163SOL     OW  383   2.435   6.324   4.415 -0.1772 -0.3772 -0.9415
  163SOL    HW2  384   2.384   6.389   4.464  1.6801  1.9898 -1.9543
  163SOL    HW3  385   2.398   6.240   4.443 -2.2000  1.0188  1.0390
  163SOL    MW4  386   2.423   6.322   4.425 -0.3423  0.3052  0.7471
  164SOL     OW  387   3.752   5.476   3.043 -0.3596  0.1368  0.7100
  164SOL    HW2  388   3.831   5.451   3.090  0.1561 -1.4537 -0.8980
  164SOL    HW3  389   3.697   5.398   3.045 -0.0197 -0.2635 -1.8499
  164SOL    MW4  390   3.755   5.462   3.049 -0.2559  0.1682  0.2178
  165SOL     OW  391   5.431   5.317   5.233  0.3607  0.6728 -0.4355
  165SOL    HW2  392   5.424   5.245   5.170  0.6290 -1.0959  1.4526
  165SOL    HW3  393   5.343   5.324   5.271  0.3050  1.4322 -0.6935
  165SOL    MW4  394   5.418   5.309   5.230  0.1834 -0.0141  0.2430
  166SOL     OW  395   4.425   0.943   5.020  0.0036  0.6114  0.0741
  166SOL    HW2  396   4.407   0.936   4.926 -0.3636 -0.0664  0.1889
  166SOL    HW3  397   4.473   0.863   5.041  1.6088  1.5547  0.1400
  166SOL    MW4  398   4.429   0.931   5.010 -0.3588  0.8699 -0.2743
  167SOL     OW  399   4.629   3.178   5.669  0.3727  0.1251  0.3910
  167SOL    HW2  400   4.628   3.099   5.723  0.1360  0.0326  0.2543
  167SOL    HW3  401   4.681   3.241   5.718  0.5051 -0.0954  0.5330
  167SOL    MW4  402   4.636   3.176   5.682  0.1980  0.4175  0.2935
  168SOL     OW  403   0.987   0.481   5.417  0.1482  0.2613  0.3366
  168SOL    HW2  404   0.917   0.484   5.482  1.3993  1.3137  1.7045
  168SOL    HW3  405   1.039   0.405   5.441 -0.3257 -0.3306 -0.4796
  168SOL    MW4  406   0.985   0.472   5.428 -0.7069 -0.4974 -0.1068
  169SOL     OW  407   1.098   4.163   0.145 -0.3948 -0.2543 -0.0842
  169SOL    HW2  408   1.192   4.175   0.133 -0.7068  0.5589 -2.3999
  169SOL    HW3  409   1.068   4.128   0.061 -2.0406 -1.4194  0.9356
  169SOL    MW4  410   1.106   4.160   0.132 -0.2924 -0.1336 -0.7136
  170SOL     OW  411   1.502   2.327   4.317 -0.3509 -0.0706 -0.2294
  170SOL    HW2  412   1.414   2.315   4.282  0.3003 -1.3815 -1.5629
  170SOL    HW3  413   1.493   2.394   4.385 -1.9540  1.5514 -1.9425
  170SOL    MW4  414   1.489   2.334   4.321  0.4080 -0.6438  0.9263
  171SOL     OW  415   2.094   6.291   3.827 -0.1700 -0.0927  0.8842
  171SOL    HW2  416   2.162   6.295   3.760 -1.5417 -0.1332 -0.5891
  171SOL    HW3  417   2.012   6.301   3.778 -1.3707 -2.2186  2.2867
  171SOL    MW4  418   2.092   6.293   3.811 -0.4599 -0.1785  0.4295
  172SOL     OW  419   4.899   0.521   6.373 -0.0924  0.4889  0.3866
  172SOL    HW2  420   4.909   0.466   6.295 -0.9333  0.9633 -0.0702
  172SOL    HW3  421   4.896   0.459   6.446  0.3891  0.0201  0.0157
  172SOL    MW4  422   4.900   0.505   6.372 -0.5265  0.3238  0.7759
  173SOL     OW  423   5.825   0.732   3.186  0.0061  0.1764 -0.4863
  173SOL    HW2  424   5.768   0.800   3.222 -1.7302 -1.1748 -0.5633
  173SOL    HW3  425   5.801   0.728   3.093 -2.0521 -2.4452  0.0407
  173SOL    MW4  426   5.815   0.740   3.178  0.0223  0.2630  0.9523
  174SOL     OW  427   4.760   4.276   6.092  0.6132  0.4967 -0.4883
  174SOL    HW2  428   4.695   4.231   6.038  0.3429  0.2469  0.0491
  174SOL    HW3  429   4.772   4.361   6.048  0.3768  0.3049 -0.9294
  174SOL    MW4  430   4.753   4.282   6.079 -0.1179 -0.1361 -0.2551
  175SOL     OW  431   1.416   1.683   4.311  0.5855 -0.1368  0.2488
  175SOL    HW2  432   1.381   1.758   4.359 -0.6649 -1.3885  1.4102
  175SOL    HW3  433   1.496   1.660   4.358  1.3987  0.9095 -0.5845
  175SOL    MW4  434   1.422   1.690   4.324  0.4451 -0.0065  0.3185
  176SOL     OW  435   1.444   4.985   5.685 -0.0029 -0.1266  0.4429
  176SOL    HW2  436   1.536   5.011   5.689 -0.4949  1.6366  1.9546
  176SOL    HW3  437   1.432   4.928   5.761 -0.1067 -0.4684  0.1660
  176SOL    MW4  438   1.454   4.981   5.696 -0.5740  0.4132  0.1853
  177SOL     OW  439   4.200   1.565   4.803  0.2753 -0.6598  0.0532
  177SOL    HW2  440   4.176   1.476   4.776  0.2838 -0.1890 -1.6040
  177SOL    HW3  441   4.294   1.561   4.821  0.0597 -1.2350  1.1551
  177SOL    MW4  442   4.209   1.553   4.802 -0.1236 -0.3087  0.1836
  178SOL     OW  443   3.020   4.749   2.989  0.6834  0.2322 -0.2902
  178SOL    HW2  444   3.071   4.818   3.031  0.8191 -0.3612  0.5487
  178SOL    HW3  445   2.939   4.745   3.039  0.9235 -0.6114  0.0453
  178SOL    MW4  446   3.016   4.757   3.001  0.7430  0.1926 -0.4867
  179SOL     OW  447   2.780   4.805   0.755  0.2897 -0.2525  0.2994
  179SOL    HW2  448   2.802   4.882   0.703 -2.1919  1.3825  1.4847
  179SOL    HW3  449   2.862   4.781   0.798  1.0383  2.0780  0.3256
  179SOL    MW4  450   2.794   4.812   0.754  0.1154 -0.6353  0.4532
  180SOL     OW  451   1.294   0.447   1.713  0.1867  0.0884  0.0623
  180SOL    HW2  452   1.388   0.454   1.728  0.3951 -1.1866 -0.5541
  180SOL    HW3  453   1.264   0.538   1.711  0.8766  0.4936  3.2221
  180SOL    MW4  454   1.302   0.460   1.715  0.1615 -0.0888 -0.2095
  181SOL     OW  455   0.731   6.074   5.852 -0.0575  0.2635 -1.1126
  181SOL    HW2  456   0.809   6.111   5.892 -1.3128  0.0690  1.7840
  181SOL    HW3  457   0.661   6.091   5.916 -1.6502 -2.8387 -1.8233
  181SOL    MW4  458   0.732   6.081   5.866 -0.1674  0.2128  0.0805
  182SOL     OW  459   3.247   6.411   5.209  0.1596  0.5957  0.5674
  182SOL    HW2  460   3.217   6.380   5.295 -0.8334 -0.7694 -0.2191
  182SOL    HW3  461   3.173   6.394   5.151  0.5381  2.2000 -0.4324
  182SOL    MW4  462   3.233   6.404   5.213  0.1348 -0.2883  0.0864
  183SOL     OW  463   4.146   6.196   4.489  0.1841  0.2232  0.1758
  183SOL    HW2  464   4.073   6.163   4.436 -2.8302  1.8197  2.9451
  183SOL    HW3  465   4.164   6.283   4.454  0.0220  0.2430  0.1416
  183SOL    MW4  466   4.138   6.203   4.478 -0.0226 -0.3522 -0.2830
  184SOL     OW  467   1.683   0.280   2.970  0.1806 -0.3140 -0.2215
  184SOL    HW2  468   1.645   0.363   2.998  0.5284 -0.6098  1.2278
  184SOL    HW3  469   1.762   0.304   2.922 -0.7373  0.2352 -1.4889
  184SOL    MW4  470   1.689   0.294   2.968  0.2477 -0.1371  0.2924
  185SOL     OW  471   3.756   1.880   3.082 -0.0456 -0.5721 -0.5430
  185SOL    HW2  472   3.687   1.857   3.019  0.2108 -1.8682 -0.3723
  185SOL    HW3  473   3.837   1.870   3.033  0.0419  2.3341 -1.1813
  185SOL    MW4  474   3.757   1.876   3.067  0.7387  0.5680 -0.0074
  186SOL     OW  475   0.617   1.851   3.300 -0.6107 -0.2854  0.1575
  186SOL    HW2  476   0.711   1.841   3.288 -0.2404  0.8025  1.9153
  186SOL    HW3  477   0.589   1.768   3.339 -0.5175 -0.8332 -0.8874
  186SOL    MW4  478   0.626   1.839   3.304  0.0060 -0.0261 -1.0726
  187SOL     OW  479   0.261   5.632   0.087  0.3146 -0.1127 -0.2336
  187SOL    HW2  480   0.314   5.701   0.125 -2.5426  2.0218  0.1932
  187SOL    HW3  481   0.245   5.661  -0.003  1.0390 -1.4609 -0.8234
  187SOL    MW4  482   0.266   5.645   0.080  0.9154 -0.8638  0.0820
  188SOL     OW  483   4.081   3.126   0.792 -0.2588 -0.8561 -0.0457
  188SOL    HW2  484   4.105   3.217   0.779  1.5407 -1.3574 -0.4926
  188SOL    HW3  485   4.101   3.084   0.708  0.0861 -1.8833  0.5335
  188SOL    MW4  486   4.087   3.132   0.779 -0.1229  0.2539  0.2827
  189SOL     OW  487   0.422   5.787   4.964  0.2015  0.1226 -0.0935
  189SOL    HW2  488   0.496   5.831   4.922 -0.8407  2.4610  0.3825
  189SOL    HW3  489   0.453   5.697   4.977  2.8237  0.9056 -0.2421
  189SOL    MW4  490   0.436   5.781   4.961 -0.5984  0.6393 -0.5645
  190SOL     OW  491   2.454   1.066   2.696 -0.1691 -0.1076 -0.3712
  190SOL    HW2  492   2.364   1.048   2.669  0.1664 -0.2445 -1.4585
  190SOL    HW3  493   2.490   0.980   2.718 -0.0318 -0.1747 -0.8425
  190SOL    MW4  494   2.447   1.053   2.695  0.5019 -0.6169  0.1606
  191SOL     OW  495   0.635   0.852   1.180  0.5879 -0.0196  0.2486
  191SOL    HW2  496   0.687   0.904   1.119  0.6976 -0.7687 -0.3025
  191SOL    HW3  497   0.566   0.813   1.126  2.1001 -2.6527  0.0784
  191SOL    MW4  498   0.633   0.854   1.165  0.2769 -0.3438  0.9579
  192SOL     OW  499   1.181   1.258   0.909  0.3386  0.4297  0.5563
  192SOL    HW2  500   1.250   1.199   0.938 -0.2095 -0.5562 -0.0893
  192SOL    HW3  501   1.117   1.257   0.981  0.3418  0.2587  0.5567
  192SOL    MW4  502   1.181   1.250   0.923  0.3333 -0.5629 -0.0130
  193SOL     OW  503   4.945   2.324   4.523 -0.2174 -0.0247  0.3334
  193SOL    HW2  504   4.897   2.405   4.508 -0.7587 -0.0913  1.5749
  193SOL    HW3  505   4.887   2.255   4.492 -0.1213  0.0071  0.0807
  193SOL    MW4  506   4.931   2.325   4.517 -0.2524 -0.2451 -0.4158
  194SOL     OW  507   3.553   0.129   1.563 -0.2209  0.2636  0.2282
  194SOL    HW2  508   3.641   0.166   1.571 -0.7628  1.4480  0.9515
  194SOL    HW3  509   3.550   0.095   1.473  0.6930  0.9668 -0.0848
  194SOL    MW4  510   3.564   0.129   1.552 -0.3549  0.0803 -0.0115
  195SOL     OW  511   3.025   3.111   1.112  0.3849 -0.3351  0.4386
  195SOL    HW2  512   3.064   3.038   1.064 -0.7256 -0.1266 -0.8830
  195SOL    HW3  513   2.989   3.072   1.191 -0.0894 -1.2372 -0.1933
  195SOL    MW4  514   3.025   3.097   1.116 -0.6226 -0.3333 -0.3552
  196SOL     OW  515   4.516   1.100   1.401  0.2877 -0.2460 -0.3766
  196SOL    HW2  516   4.522   1.188   1.364 -1.8935  0.1729  0.1651
  196SOL    HW3  517   4.523   1.113   1.496  2.1176 -0.9336 -0.3625
  196SOL    MW4  518   4.518   1.113   1.409 -0.2532  0.1022  0.0995
  197SOL     OW  519   2.402   4.107   0.463 -0.4242  0.4007  0.0195
  197SOL    HW2  520   2.325   4.157   0.488 -1.3492 -1.3596  0.9169
  197SOL    HW3  521   2.475   4.151   0.507 -1.1786  1.0412  0.6654
  197SOL    MW4  522   2.402   4.119   0.472  0.1532 -0.1848  0.0917
  198SOL     OW  523   0.457   5.505   1.235  0.4807  0.1057  0.1326
  198SOL    HW2  524   0.452   5.410   1.225 -1.7431  0.0139  1.4360
  198SOL    HW3  525   0.533   5.520   1.291  0.6347 -0.9315  0.2131
  198SOL    MW4  526   0.466   5.495   1.241 -0.2279 -0.7502 -0.7326
  199SOL     OW  527   6.031   1.160   5.441 -0.2381  0.3932 -0.0399
  199SOL    HW2  528   6.111   1.139   5.393  0.9229 -0.0601  1.9687
  199SOL    HW3  529   5.964   1.103   5.403  1.6307 -3.2643  1.7003
  199SOL    MW4  530   6.033   1.150   5.430  0.2490 -0.3713  0.3415
  200SOL     OW  531   1.921   5.467   4.988 -0.1316 -0.0456 -0.2442
  200SOL    HW2  532   1.916   5.470   5.084  1.8369 -0.7110 -0.0767
  200SOL    HW3  533   1.855   5.530   4.958 -0.0783  0.9279  1.5664
  200SOL    MW4  534   1.911   5.476   4.997  0.3068  0.2373 -0.1078
  201SOL     OW  535   1.362   0.078   2.252 -0.3192  0.1496  0.3092
  201SOL    HW2  536   1.393  -0.012   2.265  0.0478 -0.2076 -2.4292
  201SOL    HW3  537   1.275   0.067   2.213 -0.7069  1.0253  0.9125
  201SOL    MW4  538   1.354   0.064   2.248 -0.0800 -0.2689 -0.2699
  202SOL     OW  539   6.414   2.833   6.229  0.0342 -0.3119 -0.1634
  202SOL    HW2  540   6.411   2.796   6.317  3.0839 -0.3811  0.0251
  202SOL    HW3  541   6.403   2.927   6.241  1.6825 -0.1737  0.4995
  202SOL    MW4  542   6.412   2.840   6.242  0.1993 -0.8170  0.0443
  203SOL     OW  543   4.229   5.616   0.164 -0.5960  0.0367  0.0999
  203SOL    HW2  544   4.167   5.662   0.221 -0.5623  0.8303 -0.4882
  203SOL    HW3  545   4.309   5.611   0.216 -0.2247  1.7323 -0.2475
  203SOL    MW4  546   4.231   5.621   0.178  0.2613 -0.6308  0.1012
  204SOL     OW  547   3.377   4.896   1.112 -0.6156  0.4612 -0.0346
  204SOL    HW2  548   3.307   4.960   1.098 -0.2680  0.8328 -0.1002
  204SOL    HW3  549   3.332   4.812   1.118 -1.0752  0.7057  0.0021
  204SOL    MW4  550   3.362   4.893   1.111 -0.1446 -0.1244  0.0980
  205SOL     OW  551   5.384   2.059   1.247 -0.4731 -0.5304 -0.6623
  205SOL    HW2  552   5.325   1.995   1.206 -3.4068 -0.2331  2.6107
  205SOL    HW3  553   5.337   2.142   1.242 -0.0188 -0.1011  1.3589
  205SOL    MW4  554   5.370   2.061   1.241 -0.0521  0.0896 -0.3737
  206SOL     OW  555   0.166   1.644   2.413 -0.0842 -0.6235  0.0822
  206SOL    HW2  556   0.117   1.621   2.492  0.0179  0.8057  0.5937
  206SOL    HW3  557   0.247   1.682   2.445 -0.4674  0.9067 -0.6604
  206SOL    MW4  558   0.170   1.646   2.427 -0.5232 -0.4851 -0.2561
  207SOL     OW  559   3.189   1.241   0.982  0.2959 -0.0422 -0.2884
  207SOL    HW2  560   3.280   1.215   0.967  0.2210 -0.8228  0.4971
  207SOL    HW3  561   3.137   1.170   0.944  0.0527 -0.3337  0.5647
  207SOL    MW4  562   3.194   1.228   0.975  0.7272 -0.0940 -0.4927
  208SOL     OW  563   5.560   3.392   5.517  0.6470  0.2678 -0.0259
  208SOL    HW2  564   5.589   3.447   5.590 -0.5031 -0.3728  0.9535
  208SOL    HW3  565   5.628   3.401   5.451  2.4353 -0.2174  1.6724
  208SOL    MW4  566   5.572   3.400   5.518 -0.0404  0.6480  0.5194
  209SOL     OW  567   2.351   0.516   0.269  0.0615 -0.2665  0.1092
  209SOL    HW2  568   2.289   0.534   0.340 -0.2722 -0.6484 -0.0861
  209SOL    HW3  569   2.314   0.442   0.223  0.0901  0.2133 -0.6986
  209SOL    MW4  570   2.338   0.509   0.273  0.5296  0.0234 -0.4390
  210SOL     OW  571   3.664   5.092   1.695 -0.0818  0.3786 -0.1289
  210SOL    HW2  572   3.655   5.024   1.629  0.0474  1.2787 -1.1003
  210SOL    HW3  573   3.750   5.076   1.734 -0.2045 -0.2216 -0.0988
  210SOL    MW4  574   3.674   5.081   1.692  0.1068  0.2857  0.1892
  211SOL     OW  575   1.012   4.750   4.958 -0.1911 -0.2846  0.4847
  211SOL    HW2  576   1.081   4.807   4.925 -0.4344 -0.2911 -0.0556
  211SOL    HW3  577   1.047   4.713   5.039  0.3856 -0.1852  0.2817
  211SOL    MW4  578   1.025   4.752   4.964  0.0662  0.4287  0.1992
  212SOL     OW  579   6.041   3.778   3.324 -0.2833 -1.1498 -0.3880
  212SOL    HW2  580   6.043   3.847   3.258  0.7647 -1.4291 -0.6735
  212SOL    HW3  581   5.948   3.758   3.336 -0.4736 -1.5527 -2.2662
  212SOL    MW4  582   6.029   3.784   3.317  0.1673  0.1833 -0.1528
  213SOL     OW  583   2.340   0.153   3.745 -0.0275 -0.0342 -0.2155
  213SOL    HW2  584   2.383   0.223   3.794  1.5010 -2.2647  1.8624
  213SOL    HW3  585   2.408   0.119   3.687 -0.9900  0.6639 -1.8062
  213SOL    MW4  586   2.355   0.158   3.744 -0.1249 -0.1510 -0.6563
  214SOL     OW  587   2.054   1.742   0.433  0.4386 -0.7098  0.0739
  214SOL    HW2  588   2.054   1.648   0.449 -0.0283 -1.0295 -1.6651
  214SOL    HW3  589   2.109   1.778   0.503  0.5366 -2.2419  0.8211
  214SOL    MW4  590   2.061   1.734   0.445  0.5286  0.3278 -0.1579
  215SOL     OW  591   5.638   0.376   3.008  0.3461 -0.2412  0.1241
  215SOL    HW2  592   5.642   0.424   3.091  0.5534 -0.1145  0.0415
  215SOL    HW3  593   5.720   0.326   3.005  0.2858 -0.3356  0.0521
  215SOL    MW4  594   5.650   0.376   3.019  0.6280 -0.1123 -0.4225
  216SOL     OW  595   0.189   4.841   3.928 -0.7934 -0.1242 -0.4929
  216SOL    HW2  596   0.261   4.894   3.963 -0.9671 -0.9973  1.3115
  216SOL    HW3  597   0.165   4.884   3.846  0.6121  1.2003 -0.2581
  216SOL    MW4  598   0.196   4.854   3.922  0.4331 -0.1182 -0.5346
  217SOL     OW  599   3.017   1.473   5.930  0.0199  0.0406 -0.0414
  217SOL    HW2  600   3.061   1.517   6.003  1.7886 -0.0767 -0.9669
  217SOL    HW3  601   3.084   1.415   5.894 -1.6046 -1.8274 -0.1882
  217SOL    MW4  602   3.032   1.471   5.935  0.6802  0.3292 -0.0531
  218SOL     OW  603   3.785   1.233   6.022  0.0378 -0.8039 -0.3223
  218SOL    HW2  604   3.725   1.306   6.038  1.0312  0.1526 -0.7553
  218SOL    HW3  605   3.769   1.208   5.931 -2.0960 -2.8923  0.5295
  218SOL    MW4  606   3.775   1.240   6.012 -0.1122  0.2640 -0.0092
  219SOL     OW  607   6.280   6.095   1.943  0.3270 -0.0364  0.2358
  219SOL    HW2  608   6.320   6.179   1.920 -0.2150  0.2793  0.4423
  219SOL    HW3  609   6.311   6.035   1.876  2.2582 -0.1221  1.1294
  219SOL    MW4  610   6.290   6.098   1.931 -0.4553  0.7302 -0.2314
  220SOL     OW  611   5.597   4.415   6.059 -0.3372 -1.2124 -0.0662
  220SOL    HW2  612   5.529   4.462   6.107  1.2915  0.0972  1.0458
  220SOL    HW3  613   5.641   4.362   6.126  0.9585 -0.5601 -0.3774
  220SOL    MW4  614   5.594   4.414   6.074  0.2905  0.7433 -0.0907
  221SOL     OW  615   6.147   4.207   0.172 -0.1237 -0.2344  0.5620
  221SOL    HW2  616   6.210   4.153   0.125  2.7665  1.4265  2.1651
  221SOL    HW3  617   6.125   4.157   0.250  0.8467 -0.0463  0.9741
  221SOL    MW4  618   6.152   4.193   0.176 -0.4688 -0.1901 -0.2513
  222SOL     OW  619   0.158   3.457   4.840  0.0108  0.2478  0.2956
  222SOL    HW2  620   0.092   3.445   4.771  0.2736  1.6187 -0.2456
  222SOL    HW3  621   0.136   3.542   4.878  1.4988  0.7739  0.0484
  222SOL    MW4  622   0.146   3.467   4.836  0.6461 -1.2084 -0.0264
  223SOL     OW  623   1.579   5.308   2.348 -0.0605 -0.1772  0.4844
  223SOL    HW2  624   1.566   5.370   2.420  0.3473 -1.2329  1.4869
  223SOL    HW3  625   1.515   5.238   2.365  0.2759 -0.6052  0.0121
  223SOL    MW4  626   1.569   5.307   2.360  0.5840 -0.2815  0.6636
  224SOL     OW  627   3.276   3.843   6.172  0.1117  0.3897 -0.1301
  224SOL    HW2  628   3.253   3.765   6.122  1.1074 -0.1086  0.1586
  224SOL    HW3  629   3.194   3.869   6.214 -0.0552 -1.0825  0.5438
  224SOL    MW4  630   3.262   3.836   6.171 -0.4267  0.1698  0.1778
  225SOL     OW  631   5.768   2.551   4.266  0.6598 -0.1002  0.5690
  225SOL    HW2  632   5.777   2.558   4.171  0.8491  0.3255  0.6145
  225SOL    HW3  633   5.842   2.497   4.294 -0.3746 -1.7293  0.2947
  225SOL    MW4  634   5.779   2.545   4.257  0.5862 -0.3086  0.8093
  226SOL     OW  635   5.193   5.314   5.399 -0.2285  0.2237  0.3064
  226SOL    HW2  636   5.217   5.238   5.452  0.1451 -0.9765 -1.4641
  226SOL    HW3  637   5.104   5.295   5.368 -0.2491  0.6496  0.0909
  226SOL    MW4  638   5.184   5.301   5.402  0.4379  0.3393  0.0221
  227SOL     OW  639   5.181   5.913   2.505 -0.4566  0.1333 -0.1770
  227SOL    HW2  640   5.095   5.872   2.507 -2.2498  3.4944 -0.0592
  227SOL    HW3  641   5.192   5.949   2.593  1.0204 -0.1157 -0.2441
  227SOL    MW4  642   5.171   5.913   2.517  0.0874 -0.0203  0.0846
  228SOL     OW  643   4.577   5.595   0.958  0.0238 -0.8385 -0.5862
  228SOL    HW2  644   4.640   5.617   0.890  0.2550 -0.5066 -0.2682
  228SOL    HW3  645   4.515   5.668   0.957  0.7610 -0.1676  0.4353
  228SOL    MW4  646   4.577   5.608   0.949  0.5815  0.0210  0.0116
  229SOL     OW  647   4.268   2.198   3.436 -0.0644 -0.7168 -0.0009
  229SOL    HW2  648   4.234   2.152   3.512  3.1368 -2.0187  0.8087
  229SOL    HW3  649   4.218   2.164   3.362 -1.2348 -1.6291  1.1790
  229SOL    MW4  650   4.257   2.187   3.436  0.1497 -0.3727  0.1013
  230SOL     OW  651   4.949   5.785   1.144 -0.1437 -0.1758  0.2319
  230SOL    HW2  652   4.926   5.717   1.208  0.9095  0.0526  0.8644
  230SOL    HW3  653   5.037   5.812   1.167  0.1454  0.1438 -1.1365
  230SOL    MW4  654   4.957   5.779   1.155  0.5546  0.1609  0.0863
  231SOL     OW  655   5.864   5.825   5.547 -0.3212 -0.4941 -0.5245
  231SOL    HW2  656   5.828   5.909   5.518  1.2219 -0.4770 -2.6477
  231SOL    HW3  657   5.950   5.847   5.584  0.4379 -1.1718 -1.8194
  231SOL    MW4  658   5.870   5.839   5.548 -0.0918 -0.8142  0.1996
  232SOL     OW  659   5.278   0.607   4.600 -0.2267  0.0489 -0.6726
  232SOL    HW2  660   5.186   0.611   4.573 -0.6377 -0.0818  0.6341
  232SOL    HW3  661   5.326   0.645   4.527 -1.3401  0.3451 -1.2751
  232SOL    MW4  662   5.272   0.612   4.587  0.0496 -0.4880 -0.4689
  233SOL     OW  663   3.511   5.307   3.062 -0.0440  0.4921  0.6215
  233SOL    HW2  664   3.466   5.283   2.981  1.6379  0.6776 -0.4345
  233SOL    HW3  665   3.480   5.396   3.081  1.8019  1.7834 -1.6768
  233SOL    MW4  666   3.501   5.316   3.054 -0.1781  0.1760  0.3602
  234SOL     OW  667   4.413   6.402   1.344  0.7636  0.0127 -0.5714
  234SOL    HW2  668   4.414   6.354   1.427  2.5578  0.0959 -0.5067
  234SOL    HW3  669   4.449   6.488   1.366 -0.8258  0.8127 -1.0213
  234SOL    MW4  670   4.418   6.407   1.358 -0.3498  0.3838 -0.0093
  235SOL     OW  671   0.729   1.064   5.321 -0.5680  0.2459 -0.1642
  235SOL    HW2  672   0.644   1.047   5.279 -0.9426  0.6513  0.4135
  235SOL    HW3  673   0.776   1.119   5.258 -1.4833  1.6268  0.3143
  235SOL    MW4  674   0.724   1.069   5.307 -0.0055 -0.4138 -0.0519
  236SOL     OW  675   2.505   2.989   4.833 -0.2930 -0.1365 -0.2705
  236SOL    HW2  676   2.553   2.912   4.804 -1.3790 -0.5511 -1.0257
  236SOL    HW3  677   2.449   2.958   4.904  0.4012  0.3021  0.4820
  236SOL    MW4  678   2.504   2.975   4.839 -0.0385  0.0593  0.0115
  237SOL     OW  679   6.373   3.017   3.891 -0.4069 -0.1305 -0.0573
  237SOL    HW2  680   6.410   2.958   3.825  0.4368 -1.4820  1.5744
  237SOL    HW3  681   6.284   2.985   3.905 -0.5350  0.0658 -0.3880
  237SOL    MW4  682   6.366   3.005   3.884 -0.4026 -0.6480 -0.5774
  238SOL     OW  683   5.736   2.800   6.370  0.1185 -0.1664  0.1308
  238SOL    HW2  684   5.808   2.768   6.424 -0.3068 -0.6574  0.4185
  238SOL    HW3  685   5.698   2.871   6.421 -1.3507 -1.7328  1.3016
  238SOL    MW4  686   5.740   2.805   6.384 -0.3876  0.3178 -0.1152
  239SOL     OW  687   0.232   4.528   1.377 -0.6757 -0.3887  0.2349
  239SOL    HW2  688   0.273   4.496   1.458 -0.7138 -1.9472 -0.3308
  239SOL    HW3  689   0.260   4.619   1.371 -0.0500 -0.4587  1.6083
  239SOL    MW4  690   0.241   4.535   1.387 -0.2646  0.1828  0.0217
  240SOL     OW  691   2.205   5.019   0.956  0.8068 -0.2171  0.3451
  240SOL    HW2  692   2.234   5.100   0.997  0.3621  0.4941 -0.7115
  240SOL    HW3  693   2.124   4.996   1.001  0.0882  0.7903 -0.3698
  240SOL    MW4  694   2.198   5.027   0.967 -0.6668  0.1615 -0.5835
  241SOL     OW  695   0.924   6.325   0.522 -0.3136 -0.1489 -0.2358
  241SOL    HW2  696   0.978   6.334   0.600 -0.9168 -1.5035  0.3670
  241SOL    HW3  697   0.842   6.287   0.554 -0.9380  0.1763 -1.3897
  241SOL    MW4  698   0.920   6.321   0.536  0.2339  0.3552 -0.7458
  242SOL     OW  699   2.774   5.461   1.691 -0.6518  0.1999  0.3163
  242SOL    HW2  700   2.769   5.549   1.727  0.8980  1.0162 -1.2583
  242SOL    HW3  701   2.683   5.437   1.671 -0.9959  2.0962 -0.6271
  242SOL    MW4  702   2.761   5.469   1.693 -0.3608 -0.4567  0.1947
  243SOL     OW  703   2.367   2.702   5.891 -0.2959  0.2880 -0.2343
  243SOL    HW2  704   2.312   2.781   5.886  0.2665  0.8246  1.3326
  243SOL    HW3  705   2.417   2.703   5.809 -0.1147  1.7354 -0.1488
  243SOL    MW4  706   2.367   2.713   5.880 -1.0336 -0.5171  0.4545
  244SOL     OW  707   0.024   6.403   3.322  0.3796  0.4763 -0.1555
  244SOL    HW2  708  -0.060   6.371   3.289 -0.2754  1.0696  0.9014
  244SOL    HW3  709   0.074   6.323   3.340  0.0598  0.1197 -0.8107
  244SOL    MW4  710   0.020   6.388   3.320 -0.5450 -0.1874 -0.6659
  245SOL     OW  711   6.189   6.273   4.657 -0.2074 -0.9591 -0.0085
  245SOL    HW2  712   6.159   6.201   4.602 -0.8170 -0.8781  0.2137
  245SOL    HW3  713   6.185   6.350   4.600  0.8621 -1.1670 -0.3772
  245SOL    MW4  714   6.184   6.274   4.643 -0.2412  0.1223 -0.7161
  246SOL     OW  715   1.984   0.721   5.180  1.0120  0.2663 -0.1643
  246SOL    HW2  716   2.016   0.771   5.106  2.1176 -2.5226 -1.7300
  246SOL    HW3  717   2.042   0.744   5.252  1.1251  1.5946 -0.6616
  246SOL    MW4  718   1.995   0.731   5.180 -0.7466 -0.6004  0.6184
  247SOL     OW  719   3.669   5.892   3.031 -0.1122 -0.4810 -0.7568
  247SOL    HW2  720   3.659   5.911   3.125 -0.7422 -0.7513 -0.7598
  247SOL    HW3  721   3.651   5.975   2.988  0.9752 -0.1546 -0.6125
  247SOL    MW4  722   3.665   5.905   3.038 -0.5232 -0.0209 -0.0890
  248SOL     OW  723   4.169   3.341   1.531 -0.2367 -0.2853  0.1846
  248SOL    HW2  724   4.238   3.374   1.589  0.2446 -0.3261 -0.3558
  248SOL    HW3  725   4.154   3.412   1.469 -1.4729  0.1610  0.9607
  248SOL    MW4  726   4.176   3.355   1.531 -0.0882  0.1103 -0.1024
  249SOL     OW  727   4.126   2.133   5.921 -0.2979 -0.7275  0.4533
  249SOL    HW2  728   4.194   2.122   5.854 -0.9912  0.9581 -0.5937
  249SOL    HW3  729   4.051   2.085   5.887 -0.1803 -1.1329  0.7632
  249SOL    MW4  730   4.125   2.125   5.907  0.0466  0.3247 -0.2260
  250SOL     OW  731   6.385   0.451   5.250 -0.1827 -0.2608  0.0761
  250SOL    HW2  732   6.333   0.380   5.288  0.9761 -0.5985  1.0961
  250SOL    HW3  733   6.362   0.528   5.302 -1.6675  0.2353 -1.2221
  250SOL    MW4  734   6.375   0.452   5.262  0.7917  0.1163 -0.2238
  251SOL     OW  735   5.998   4.861   0.012 -0.2860 -0.1196  0.5227
  251SOL    HW2  736   6.016   4.927   0.079  0.0104 -0.9115  1.2570
  251SOL    HW3  737   5.904   4.842   0.021 -0.5074  0.6607 -0.1276
  251SOL    MW4  738   5.988   4.867   0.022 -0.3407  0.3179  0.3945
  252SOL     OW  739   3.985   3.239   5.891 -0.0361  0.2923 -0.1787
  252SOL    HW2  740   4.001   3.281   5.806  0.0978  0.2706 -0.1652
  252SOL    HW3  741   3.995   3.146   5.873 -1.0538  0.2128 -0.3666
  252SOL    MW4  742   3.989   3.232   5.877  0.0557 -0.4934 -0.1419
  253SOL     OW  743   3.921   1.336   1.458  0.1532  0.1515 -0.3210
  253SOL    HW2  744   4.006   1.303   1.431 -1.1013 -1.2428 -2.9473
  253SOL    HW3  745   3.875   1.260   1.494 -0.7453  0.3356 -1.0330
  253SOL    MW4  746   3.926   1.322   1.459 -0.2512 -0.1576  0.0951
  254SOL     OW  747   2.968   2.242   4.033  0.6444  0.1543  0.0708
  254SOL    HW2  748   2.978   2.192   4.114 -1.2752  1.2459  1.0469
  254SOL    HW3  749   2.971   2.334   4.060  1.5476  0.5958 -1.3493
  254SOL    MW4  750   2.970   2.248   4.047  0.4533  0.2675  0.3146
  255SOL     OW  751   4.684   2.387   5.423  0.1859  0.1173 -0.5859
  255SOL    HW2  752   4.653   2.304   5.387 -2.2624  0.4310  0.5818
  255SOL    HW3  753   4.688   2.446   5.348  2.0983 -1.0533 -1.4516
  255SOL    MW4  754   4.680   2.384   5.408  0.3066  0.7246  0.7330
  256SOL     OW  755   3.925   2.505   2.571  0.1262  0.6023 -0.5579
  256SOL    HW2  756   3.900   2.572   2.635  0.5850  1.1532 -0.9400
  256SOL    HW3  757   3.928   2.551   2.487  0.5184  0.1230 -0.8187
  256SOL    MW4  758   3.922   2.520   2.568  0.0203 -0.0145  0.3541
  257SOL     OW  759   0.515   1.799   0.135  0.3318 -0.3774  0.5007
  257SOL    HW2  760   0.591   1.849   0.106  1.3204 -1.8191  0.5392
  257SOL    HW3  761   0.440   1.845   0.096  1.2596  0.6318 -0.1464
  257SOL    MW4  762   0.515   1.812   0.126  0.5008  0.0012 -0.7121
  258SOL     OW  763   5.529   6.389   4.182  0.6867 -0.5987  0.5458
  258SOL    HW2  764   5.592   6.360   4.117 -1.9954  0.1742 -2.6447
  258SOL    HW3  765   5.448   6.345   4.158 -1.1384  1.9798  1.5056
  258SOL    MW4  766   5.527   6.379   4.171 -0.0756 -0.3713 -0.2262
  259SOL     OW  767   5.510   1.196   0.375 -0.7071  0.2063  0.2455
  259SOL    HW2  768   5.536   1.286   0.357 -0.3660  0.6893  2.8391
  259SOL    HW3  769   5.416   1.201   0.392 -0.9076 -0.1377 -0.7106
  259SOL    MW4  770   5.501   1.209   0.375  0.3855  0.1042  0.3301
  260SOL     OW  771   2.834   4.732   0.101  0.2619  0.2053 -0.1734
  260SOL    HW2  772   2.906   4.680   0.136 -0.5310 -1.9656 -1.5478
  260SOL    HW3  773   2.757   4.703   0.151 -0.2279 -0.1056 -1.0905
  260SOL    MW4  774   2.833   4.722   0.112  0.4987  0.3197 -0.1221
  261SOL     OW  775   3.192   0.902   5.942  0.3032 -0.3364 -0.3783
  261SOL    HW2  776   3.166   0.983   5.898 -1.0962 -0.5224  0.0384
  261SOL    HW3  777   3.246   0.931   6.016  0.6423  0.1420 -0.8114
  261SOL    MW4  778   3.195   0.916   5.946 -0.1513  0.0803 -0.4547
  262SOL     OW  779   1.002   0.815   6.251 -0.6065  0.4343 -0.1212
  262SOL    HW2  780   0.954   0.732   6.252 -0.9851  0.6534  0.4470
  262SOL    HW3  781   0.988   0.850   6.163 -3.4413  1.5872  0.6697
  262SOL    MW4  782   0.993   0.809   6.240 -0.0235 -0.1888 -0.6806
  263SOL     OW  783   0.870   5.617   5.771 -0.0376 -0.3177  0.1807
  263SOL    HW2  784   0.868   5.635   5.864  0.2459  2.1907 -0.2404
  263SOL    HW3  785   0.779   5.596   5.748 -0.1422 -0.7418  0.9556
  263SOL    MW4  786   0.858   5.616   5.780 -0.0281  0.3508 -0.4295
  264SOL     OW  787   4.227   0.048   4.401  0.3729 -0.0355  0.4156
  264SOL    HW2  788   4.151   0.103   4.423  0.9466  0.1931  1.9362
  264SOL    HW3  789   4.302   0.106   4.412  0.9581 -0.9846  1.6783
  264SOL    MW4  790   4.227   0.063   4.406  0.1332  0.3542 -0.2775
  265SOL     OW  791   2.974   6.364   0.958  0.1972 -0.1901  0.1545
  265SOL    HW2  792   3.013   6.416   1.029  0.3661 -0.6293  0.3888
  265SOL    HW3  793   3.049   6.327   0.912  0.0726 -0.4391  0.1513
  265SOL    MW4  794   2.989   6.366   0.961 -0.0706  0.2003  0.2968
  266SOL     OW  795   4.689   5.784   4.910  0.6056  0.0349 -0.2334
  266SOL    HW2  796   4.639   5.705   4.933  0.2894 -0.8758 -3.5312
  266SOL    HW3  797   4.780   5.754   4.906  0.4597 -0.2547 -1.6962
  266SOL    MW4  798   4.694   5.769   4.913  0.0196  0.2296 -0.5579
  267SOL     OW  799   4.188   1.893   2.753  0.2592  0.0012  0.2261
  267SOL    HW2  800   4.209   1.806   2.719  0.4831  0.6279 -1.3043
  267SOL    HW3  801   4.268   1.922   2.796  0.2953 -0.4114  0.4439
  267SOL    MW4  802   4.201   1.885   2.754 -0.4444  0.2153  0.0392
  268SOL     OW  803   3.514   0.396   3.503 -0.3134 -0.3100 -0.2725
  268SOL    HW2  804   3.489   0.471   3.558  0.1604 -0.2234 -0.1725
  268SOL    HW3  805   3.574   0.434   3.438  1.4716 -0.9296  0.9407
  268SOL    MW4  806   3.518   0.411   3.502 -0.0922  0.2769  0.0427
  269SOL     OW  807   4.130   3.418   2.677 -0.4963 -0.2312  0.2180
  269SOL    HW2  808   4.145   3.502   2.633 -0.6608  0.1352  0.8404
  269SOL    HW3  809   4.039   3.424   2.707 -0.5600 -0.7041  0.1207
  269SOL    MW4  810   4.120   3.430   2.675  0.1956 -0.9084 -0.6651
  270SOL     OW  811   1.080   5.926   5.024  0.2602  0.0664 -0.2489
  270SOL    HW2  812   1.106   6.016   5.006  0.3893  0.1869  0.5415
  270SOL    HW3  813   1.155   5.888   5.069 -0.4215  0.0451  0.9023
  270SOL    MW4  814   1.093   5.933   5.027 -0.1501  0.5938  0.1609
  271SOL     OW  815   6.237   5.957   1.219 -0.0956  0.1087  0.0208
  271SOL    HW2  816   6.274   5.875   1.251  0.5249  1.0842  2.0130
  271SOL    HW3  817   6.291   6.025   1.259 -2.0151  1.5260  0.3923
  271SOL    MW4  818   6.249   5.955   1.229  0.4036  0.0852  0.1252
  272SOL     OW  819   2.100   1.719   2.682  0.2224  0.2703  0.4197
  272SOL    HW2  820   2.168   1.665   2.723  0.8549  1.6375  1.2512
  272SOL    HW3  821   2.018   1.677   2.708  0.6839 -2.3247 -1.8925
  272SOL    MW4  822   2.098   1.706   2.691  0.4297 -0.1363  0.1411
  273SOL     OW  823   1.572   5.018   3.168  0.5417  0.0134  0.5281
  273SOL    HW2  824   1.544   5.028   3.259 -0.8485 -0.1793  0.1459
  273SOL    HW3  825   1.579   4.923   3.156 -0.3955 -0.0220  0.1386
  273SOL    MW4  826   1.569   5.007   3.178 -0.3662 -0.3433 -0.0114
  274SOL     OW  827   5.368   4.457   3.865 -0.4794 -0.0868  0.4481
  274SOL    HW2  828   5.406   4.420   3.785  0.6001  0.2006  0.8179
  274SOL    HW3  829   5.381   4.551   3.856 -0.9034 -0.0039  0.6899
  274SOL    MW4  830   5.375   4.465   3.853 -0.5702  0.6584 -0.3123
  275SOL     OW  831   0.376   4.875   5.571  0.2471  0.0484 -0.3811
  275SOL    HW2  832   0.334   4.826   5.500 -1.1716 -0.9968  1.1332
  275SOL    HW3  833   0.458   4.828   5.587  0.1664 -0.2140 -0.7315
  275SOL    MW4  834   0.382   4.863   5.563 -0.1089  0.0664  0.2017
  276SOL     OW  835   1.299   5.421   3.992  0.2071  0.7724  0.4439
  276SOL    HW2  836   1.304   5.375   4.076  1.6142 -0.0471 -0.0650
  276SOL    HW3  837   1.278   5.511   4.016 -3.0143 -0.1242  1.4429
  276SOL    MW4  838   1.297   5.427   4.006 -0.1400  0.6047 -0.1409
  277SOL     OW  839   5.237   2.706   0.917  0.0565 -0.2684 -0.3248
  277SOL    HW2  840   5.165   2.768   0.930 -1.5351 -2.3608  1.7391
  277SOL    HW3  841   5.308   2.758   0.880 -1.9973  2.2192 -1.0004
  277SOL    MW4  842   5.237   2.721   0.914 -0.8937 -0.0568  0.4404
  278SOL     OW  843   4.116   4.084   2.386  0.0857  0.0593 -0.2367
  278SOL    HW2  844   4.129   4.095   2.292 -0.2230  1.6659 -0.1219
  278SOL    HW3  845   4.108   3.989   2.398 -0.9347 -0.1240 -1.9695
  278SOL    MW4  846   4.116   4.073   2.375  0.2057  0.2075  0.1922
  279SOL     OW  847   3.124   0.807   0.820 -0.3690  0.0002  0.7084
  279SOL    HW2  848   3.071   0.886   0.818 -0.1452  0.1382 -0.2855
  279SOL    HW3  849   3.101   0.765   0.903 -1.7154  0.2673  0.4971
  279SOL    MW4  850   3.114   0.812   0.831  0.2159 -0.0249  0.4615
  280SOL     OW  851   4.901   2.940   3.586 -0.5403  0.3827 -0.0769
  280SOL    HW2  852   4.993   2.968   3.591 -0.8490  1.4401 -0.2272
  280SOL    HW3  853   4.852   3.020   3.571 -1.3107 -0.3846 -2.0204
  280SOL    MW4  854   4.907   2.954   3.584 -0.1637 -0.3550 -0.2638
  281SOL     OW  855   0.257   5.620   1.865 -0.1820  0.1172  0.1097
  281SOL    HW2  856   0.224   5.611   1.776  2.3028 -1.1206 -0.8033
  281SOL    HW3  857   0.227   5.541   1.911 -1.2122  0.6109  0.3021
  281SOL    MW4  858   0.249   5.608   1.860 -0.2926 -0.2931  0.7656
  282SOL     OW  859   0.575   6.298   1.896 -0.0844  0.1393 -0.2577
  282SOL    HW2  860   0.569   6.354   1.818 -3.2774 -1.4167 -1.3029
  282SOL    HW3  861   0.540   6.214   1.868  0.4349 -1.0729  2.4119
  282SOL    MW4  862   0.570   6.294   1.882 -0.1138 -0.5302  0.2427
  283SOL     OW  863   1.178   3.417   4.967 -0.2975 -0.2347 -0.7850
  283SOL    HW2  864   1.117   3.369   4.911 -0.2099 -1.1049 -0.1680
  283SOL    HW3  865   1.202   3.354   5.035  1.0137  0.2080 -0.8073
  283SOL    MW4  866   1.173   3.402   4.969  0.2899  0.1294 -0.1430
  284SOL     OW  867   4.571   1.211   0.737 -0.0110 -0.4891 -0.4559
  284SOL    HW2  868   4.497   1.226   0.678  0.1365 -2.7165 -1.3269
  284SOL    HW3  869   4.623   1.143   0.693  2.9640  1.4434 -0.2075
  284SOL    MW4  870   4.568   1.204   0.723  0.4429 -0.0410 -0.1412
  285SOL     OW  871   5.121   4.982   4.169  0.4151 -0.5245  0.8647
  285SOL    HW2  872   5.044   4.951   4.217 -0.4325 -0.0631 -0.1583
  285SOL    HW3  873   5.135   4.916   4.101 -2.2956  1.8109 -2.2863
  285SOL    MW4  874   5.113   4.969   4.166  0.2887 -0.0872  0.4723
  286SOL     OW  875   1.797   0.068   5.575  0.0315 -0.4055 -0.4253
  286SOL    HW2  876   1.825   0.159   5.572 -1.3345  0.0707  0.2534
  286SOL    HW3  877   1.878   0.017   5.582  0.9502  0.6040 -2.9448
  286SOL    MW4  878   1.811   0.073   5.576  0.0242 -1.0113  0.1745
  287SOL     OW  879   5.385   5.661   0.136 -0.8900  0.3148 -0.6124
  287SOL    HW2  880   5.481   5.660   0.129 -0.8523 -0.2270 -0.1946
  287SOL    HW3  881   5.360   5.569   0.129 -1.1034  0.0460  2.2787
  287SOL    MW4  882   5.394   5.648   0.134 -0.5669 -0.1317  0.1996
  288SOL     OW  883   0.312   5.628   2.474  0.2273 -0.1518  0.1230
  288SOL    HW2  884   0.339   5.548   2.520 -1.0773 -0.1896  0.8813
  288SOL    HW3  885   0.365   5.697   2.513  0.3793 -0.4528  0.4526
  288SOL    MW4  886   0.322   5.627   2.486 -0.0879 -0.4682 -0.0420
  289SOL     OW  887   3.046   2.127   1.700 -0.0337 -0.2486  0.3374
  289SOL    HW2  888   3.134   2.106   1.731 -0.2892 -1.1367  0.4913
  289SOL    HW3  889   3.057   2.208   1.651  0.6601  0.2910  1.3546
  289SOL    MW4  890   3.059   2.135   1.697  0.0611  0.2062  0.0955
  290SOL     OW  891   4.302   1.803   0.637  0.5915 -0.1714 -0.3938
  290SOL    HW2  892   4.376   1.817   0.696  0.4525 -2.2655  0.3571
  290SOL    HW3  893   4.235   1.865   0.668  1.6882  1.1228 -0.5391
  290SOL    MW4  894   4.303   1.813   0.649 -0.7074  0.0762  0.3029
  291SOL     OW  895   1.941   4.175   2.530  0.0667  0.3614  0.8666
  291SOL    HW2  896   1.972   4.097   2.576  0.3916 -0.2680 -0.3719
  291SOL    HW3  897   2.021   4.221   2.503  0.1448 -1.5611 -2.8410
  291SOL    MW4  898   1.956   4.171   2.533 -0.1309 -0.2018  0.5029
  292SOL     OW  899   5.025   6.267   0.182 -0.6881 -0.3082  0.3608
  292SOL    HW2  900   4.975   6.270   0.263 -1.7259 -0.4224 -0.2595
  292SOL    HW3  901   4.964   6.233   0.116 -0.2907  0.9978 -0.7532
  292SOL    MW4  902   5.011   6.263   0.184 -0.1618  0.3763 -0.4261
  293SOL     OW  903   4.851   1.779   4.896  0.1956 -0.1944  0.1611
  293SOL    HW2  904   4.764   1.785   4.856 -0.2196 -1.6541  0.7848
  293SOL    HW3  905   4.887   1.867   4.886 -1.2362  0.3751 -0.3735
  293SOL    MW4  906   4.844   1.791   4.890  0.0605 -0.1030  0.2948
  294SOL     OW  907   5.576   4.704   3.617 -0.5200  0.1865 -0.2809
  294SOL    HW2  908   5.671   4.716   3.616 -0.2874 -1.2997  0.3876
  294SOL    HW3  909   5.546   4.739   3.533  1.0072 -1.9072 -1.7963
  294SOL    MW4  910   5.585   4.710   3.606  0.1901  0.0636 -0.3239
  295SOL     OW  911   1.452   5.812   1.125  0.1901  0.1575  0.4187
  295SOL    HW2  912   1.497   5.883   1.171 -3.1648  3.7566 -1.3224
  295SOL    HW3  913   1.483   5.818   1.035 -1.9130  1.1294 -0.2764
  295SOL    MW4  914   1.462   5.822   1.119  0.2275 -0.2886  0.5304
  296SOL     OW  915   4.162   3.035   3.682  0.1022 -0.4347 -0.1454
  296SOL    HW2  916   4.147   3.022   3.589 -2.3802  1.6223 -0.1442
  296SOL    HW3  917   4.196   3.124   3.689  0.3587 -0.5955  0.9298
  296SOL    MW4  918   4.165   3.045   3.671  0.0499  0.6142 -0.2556
  297SOL     OW  919   1.695   2.065   4.460 -0.3907  0.0698 -0.4655
  297SOL    HW2  920   1.780   2.035   4.428 -0.3279 -0.4541  0.1752
  297SOL    HW3  921   1.636   2.052   4.385 -0.6168 -2.8400  0.1133
  297SOL    MW4  922   1.698   2.059   4.446  0.4821  0.4462  0.3263
  298SOL     OW  923   1.164   3.610   5.888 -0.1506  0.2953  0.7413
  298SOL    HW2  924   1.201   3.533   5.844 -0.7914 -0.0428  0.7758
  298SOL    HW3  925   1.220   3.682   5.862 -0.8522  0.2088 -1.1301
  298SOL    MW4  926   1.176   3.609   5.879  0.1156  0.0490  0.0952
  299SOL     OW  927   2.996   4.568   0.456  0.5449 -0.5305  0.1774
  299SOL    HW2  928   3.047   4.502   0.502 -0.2520 -2.4315 -1.4819
  299SOL    HW3  929   2.908   4.561   0.494  0.9411  1.1662  1.4953
  299SOL    MW4  930   2.991   4.558   0.467 -0.2261  0.1873  0.0257
  300SOL     OW  931   3.896   3.294   0.312  0.2352 -0.4673  0.2144
  300SOL    HW2  932   3.985   3.323   0.335  0.3594 -0.5214 -0.1838
  300SOL    HW3  933   3.868   3.355   0.244 -0.0108 -0.4879  0.2979
  300SOL    MW4  934   3.904   3.306   0.306  0.0907 -0.2204  0.4375
  301SOL     OW  935   2.140   0.861   1.767  0.4054 -0.3553 -0.3793
  301SOL    HW2  936   2.050   0.894   1.762 -0.3510 -2.3421 -0.5269
  301SOL    HW3  937   2.146   0.819   1.853  0.8636 -1.1329 -0.7796
  301SOL    MW4  938   2.129   0.860   1.778 -0.0062  0.5134  0.6342
  302SOL     OW  939   4.122   6.227   2.197 -0.0666  0.0594  0.4055
  302SOL    HW2  940   4.215   6.232   2.219 -0.5410  1.1413  2.4919
  302SOL    HW3  941   4.109   6.139   2.163  1.8911  0.2341 -0.8860
  302SOL    MW4  942   4.132   6.216   2.196  0.1756 -0.6915 -0.0587
  303SOL     OW  943   2.501   5.778   2.348  0.0318 -0.0225 -0.0083
  303SOL    HW2  944   2.482   5.848   2.284 -0.7723 -2.1964 -2.2975
  303SOL    HW3  945   2.469   5.812   2.431 -1.5748  1.7996 -1.2940
  303SOL    MW4  946   2.494   5.792   2.350 -0.4213  0.0197 -0.2236
  304SOL     OW  947   3.231   5.301   0.317 -0.1221 -0.3896 -0.6168
  304SOL    HW2  948   3.170   5.323   0.387  0.9950  0.0987  0.2418
  304SOL    HW3  949   3.293   5.374   0.316  0.9102 -1.2439 -0.9234
  304SOL    MW4  950   3.231   5.314   0.326  0.4816 -0.2942 -0.6037
  305SOL     OW  951   5.218   1.394   3.475 -0.3936  0.5130  0.1531
  305SOL    HW2  952   5.290   1.406   3.536 -1.8764  0.2495  2.0491
  305SOL    HW3  953   5.259   1.362   3.395  1.5270 -0.1084  1.3329
  305SOL    MW4  954   5.233   1.391   3.472  1.0821  0.7247  0.2300
  306SOL     OW  955   0.134   3.627   2.609 -0.0995  0.7788 -0.7068
  306SOL    HW2  956   0.062   3.675   2.650 -1.0261 -0.1663 -1.1663
  306SOL    HW3  957   0.161   3.682   2.536 -2.2547 -0.0444 -2.2532
  306SOL    MW4  958   0.128   3.640   2.605  0.3857 -0.4879 -0.0495
  307SOL     OW  959   1.747   3.644   4.689  0.8580 -0.8789  0.4671
  307SOL    HW2  960   1.819   3.632   4.750  0.0576 -0.6922  1.4833
  307SOL    HW3  961   1.690   3.710   4.731  0.4026 -0.5715 -0.5835
  307SOL    MW4  962   1.749   3.651   4.703 -0.1429  0.2730  0.8663
  308SOL     OW  963   4.839   0.224   3.204 -0.2121  0.0018 -0.4862
  308SOL    HW2  964   4.878   0.286   3.266 -0.6225 -0.2596  0.0401
  308SOL    HW3  965   4.902   0.151   3.201 -0.0726  0.1254 -0.5637
  308SOL    MW4  966   4.852   0.222   3.212  0.4870  0.7168 -0.6124
  309SOL     OW  967   3.383   5.681   5.782 -0.0979 -0.2510  0.3337
  309SOL    HW2  968   3.420   5.629   5.854 -0.7457 -0.7954  0.2757
  309SOL    HW3  969   3.389   5.624   5.706  1.1185  0.5354 -0.1852
  309SOL    MW4  970   3.389   5.666   5.782  0.6311 -0.4554  0.2932
  310SOL     OW  971   4.176   5.960   4.235 -0.1943  0.3915  0.3749
  310SOL    HW2  972   4.221   5.977   4.152 -1.2910  2.2646  0.1027
  310SOL    HW3  973   4.135   5.874   4.223  0.3972  0.2353 -0.6841
  310SOL    MW4  974   4.176   5.951   4.222  0.0919 -0.5257 -0.1532
  311SOL     OW  975   2.536   6.193   0.902 -0.1161 -0.2985  0.3590
  311SOL    HW2  976   2.622   6.175   0.940  0.1369 -1.5297 -0.7419
  311SOL    HW3  977   2.554   6.245   0.824 -0.2789 -1.2823 -0.3522
  311SOL    MW4  978   2.549   6.198   0.897  0.0674 -0.2670 -0.6151
  312SOL     OW  979   0.084   6.312   2.696 -0.2767 -0.0334  0.0151
  312SOL    HW2  980   0.157   6.361   2.657  0.1879 -1.1532 -0.5546
  312SOL    HW3  981   0.061   6.247   2.631 -1.2156 -0.2660  0.5632
  312SOL    MW4  982   0.091   6.310   2.683 -0.0436  0.8281  0.1294
  313SOL     OW  983   6.328   6.102   6.289  0.1517 -0.4911  0.1515
  313SOL    HW2  984   6.269   6.093   6.364  0.7810 -1.8544  0.5308
  313SOL    HW3  985   6.282   6.059   6.217  0.2719 -0.7434  0.2199
  313SOL    MW4  986   6.314   6.095   6.290 -0.0789 -0.1861  0.1664
  314SOL     OW  987   1.736   5.106   2.436  0.2943 -0.3704  0.2101
  314SOL    HW2  988   1.688   5.186   2.415 -1.0929 -1.7818 -2.4508
  314SOL    HW3  989   1.819   5.115   2.389  0.1332 -0.5130 -0.0993
  314SOL    MW4  990   1.740   5.118   2.427  0.5080 -0.2044  0.2992
  315SOL     OW  991   1.287   4.905   0.655 -0.4093 -0.0099 -0.3254
  315SOL    HW2  992   1.262   4.952   0.735 -0.8233 -1.4926  0.4403
  315SOL    HW3  993   1.381   4.892   0.663 -0.6114 -1.1110  0.4734
  315SOL    MW4  994   1.296   4.910   0.666  0.2945 -0.4837 -0.4185
  316SOL     OW  995   2.035   2.313   4.175  0.3956  0.3247 -0.4204
  316SOL    HW2  996   2.035   2.339   4.083 -0.8755 -1.0508 -0.8489
  316SOL    HW3  997   1.947   2.336   4.206  1.0315  1.4233  0.6813
  316SOL    MW4  998   2.023   2.320   4.167 -0.2369 -0.2938 -0.3730
  317SOL     OW  999   2.511   4.961   5.940  0.1898  0.3733 -0.2854
  317SOL    HW2 1000   2.492   4.949   6.033 -2.2256 -0.3551 -0.7684
  317SOL    HW3 1001   2.477   4.881   5.899 -1.7837  2.0117 -2.0893
  317SOL    MW4 1002   2.504   4.949   5.947  0.1061  0.7491  0.2877
  318SOL     OW 1003   2.424   4.078   4.443 -0.2394  0.0420  0.0320
  318SOL    HW2 1004   2.449   4.063   4.352  0.1195  0.9793 -0.0249
  318SOL    HW3 1005   2.378   4.162   4.443  0.9772  0.7458  0.9224
  318SOL    MW4 1006   2.421   4.087   4.431 -0.2835  0.2680 -0.3324
  319SOL     OW 1007   2.709   5.003   6.425  0.3582 -0.1316 -0.7653
  319SOL    HW2 1008   2.729   5.092   6.395  0.6746  0.1027  0.1116
  319SOL    HW3 1009   2.703   4.951   6.344 -0.6348  0.8379 -1.3384
  319SOL    MW4 1010   2.711   5.008   6.410  0.1699 -0.0833 -0.2119
  320SOL     OW 1011   3.271   3.313   4.585 -0.4096 -0.3326 -0.5011
  320SOL    HW2 1012   3.357   3.350   4.563  0.0480 -1.3720 -0.5478
  320SOL    HW3 1013   3.208   3.375   4.549  0.3291  0.0364 -1.1995
  320SOL    MW4 1014   3.274   3.326   4.577 -0.4695 -0.1301 -0.3278
  321SOL     OW 1015   4.286   5.466   5.000 -0.1820  0.2689 -0.1859
  321SOL    HW2 1016   4.263   5.443   4.910 -0.8472 -0.0560  0.0645
  321SOL    HW3 1017   4.355   5.533   4.991  0.0039 -0.0169 -0.9271
  321SOL    MW4 1018   4.292   5.472   4.987 -0.3562  0.2227  0.0943
  322SOL     OW 1019   0.470   5.246   3.493  0.1466  0.2314 -0.0213
  322SOL    HW2 1020   0.539   5.188   3.461 -0.9265 -1.5154  0.7266
  322SOL    HW3 1021   0.402   5.242   3.426  0.5112  1.5728 -0.5205
  322SOL    MW4 1022   0.470   5.238   3.480  0.3543  0.0445  0.0000
  323SOL     OW 1023   3.584   4.443   4.038  0.4623 -0.0627 -0.0585
  323SOL    HW2 1024   3.572   4.384   4.111 -0.1879 -0.0542 -0.1529
  323SOL    HW3 1025   3.567   4.390   3.960  1.6266 -0.1941 -0.2314
  323SOL    MW4 1026   3.580   4.428   4.037  0.1439  0.2402  0.0338
  324SOL     OW 1027   0.026   0.310   3.837  0.0751 -0.2085  0.0028
  324SOL    HW2 1028   0.074   0.393   3.845  0.4684 -0.2774 -1.3559
  324SOL    HW3 1029  -0.063   0.335   3.813  0.7088 -0.1760 -2.6108
  324SOL    MW4 1030   0.021   0.324   3.835  0.0262  0.1825 -0.1200
  325SOL     OW 1031   3.621   0.525   1.338  0.5027  0.0002 -0.2233
  325SOL    HW2 1032   3.615   0.620   1.338 -1.2900 -0.0552  1.8122
  325SOL    HW3 1033   3.697   0.506   1.282  0.2625  2.5379 -1.5333
  325SOL    MW4 1034   3.630   0.535   1.331 -0.2724  0.0636  0.1433
  326SOL     OW 1035   2.540   4.651   3.307  0.0012 -0.4083  0.2295
  326SOL    HW2 1036   2.543   4.563   3.269 -1.6102 -0.4058  0.0361
  326SOL    HW3 1037   2.448   4.665   3.329  0.6731 -0.1103  3.4699
  326SOL    MW4 1038   2.528   4.641   3.305  0.2765  0.0302  0.2068
  327SOL     OW 1039   5.013   3.080   4.771  0.5620  0.2623  0.3095
  327SOL    HW2 1040   5.020   3.146   4.840  0.5630  0.0194  0.5419
  327SOL    HW3 1041   5.042   3.125   4.692 -1.3486  1.1589  0.0631
  327SOL    MW4 1042   5.018   3.095   4.770 -0.2552  0.3681 -0.1364
  328SOL     OW 1043   5.394   0.230   2.328 -0.0180  0.8550  0.0131
  328SOL    HW2 1044   5.386   0.145   2.286  0.3107  0.4993  0.6464
  328SOL    HW3 1045   5.403   0.292   2.256 -0.4049  0.3728 -0.4610
  328SOL    MW4 1046   5.394   0.227   2.313 -0.3181 -0.0474  0.6951
  329SOL     OW 1047   1.745   4.270   5.763  0.0838  0.1867  0.1395
  329SOL    HW2 1048   1.769   4.335   5.828 -1.6673 -0.2856  1.3457
  329SOL    HW3 1049   1.678   4.313   5.709 -0.3339 -0.2493  0.2949
  329SOL    MW4 1050   1.739   4.284   5.765  0.3136 -0.1472  0.1400
  330SOL     OW 1051   2.492   1.422   3.933  0.6155 -0.1490  0.0886
  330SOL    HW2 1052   2.434   1.479   3.883 -0.4445 -0.1794  1.2705
  330SOL    HW3 1053   2.487   1.337   3.887 -1.7280 -0.6806  1.1927
  330SOL    MW4 1054   2.484   1.418   3.920  0.4591 -0.0606  0.7319
  331SOL     OW 1055   2.358   2.382   4.044  0.5645 -0.1790 -0.0047
  331SOL    HW2 1056   2.337   2.304   4.094 -0.0262  0.5446  0.9175
  331SOL    HW3 1057   2.452   2.395   4.057  0.5989 -0.5528  0.1112
  331SOL    MW4 1058   2.368   2.374   4.052 -0.4240 -0.6537 -0.0120
  332SOL     OW 1059   3.295   1.077   1.998  0.0905 -0.1522  0.0405
  332SOL    HW2 1060   3.361   1.030   1.947 -1.7669  0.8337 -3.5740
  332SOL    HW3 1061   3.243   1.007   2.039  1.0494 -1.0516 -0.2405
  332SOL    MW4 1062   3.297   1.061   1.997 -0.3474  0.6040 -0.4358
  333SOL     OW 1063   5.430   3.807   3.995 -0.0287 -0.2452  0.1075
  333SOL    HW2 1064   5.434   3.890   4.042 -0.0803 -0.1018 -0.1419
  333SOL    HW3 1065   5.336   3.789   3.986 -0.1293 -2.1611  3.3925
  333SOL    MW4 1066   5.418   3.815   4.000  0.2118  0.7921  0.0066
  334SOL     OW 1067   1.152   5.053   0.839 -0.0613  0.1512 -0.4936
  334SOL    HW2 1068   1.133   5.016   0.925 -0.2187 -1.0359 -1.0227
  334SOL    HW3 1069   1.208   5.128   0.857 -0.6130  0.3029  0.6859
  334SOL    MW4 1070   1.157   5.058   0.853  0.1941  0.2947 -0.2535
  335SOL     OW 1071   6.089   0.520   2.540 -0.2159  0.0152  0.5535
  335SOL    HW2 1072   6.030   0.449   2.568  0.1467 -0.4363  0.2022
  335SOL    HW3 1073   6.158   0.522   2.606 -0.2018  0.0119  0.5388
  335SOL    MW4 1074   6.090   0.511   2.552 -0.1586 -0.0291  0.4862
  336SOL     OW 1075   1.712   3.534   4.000  0.1460 -0.3666  0.3505
  336SOL    HW2 1076   1.780   3.593   3.968  0.1233 -0.4383  0.1733
  336SOL    HW3 1077   1.669   3.501   3.922 -0.3596 -0.0117  0.4725
  336SOL    MW4 1078   1.715   3.537   3.986 -0.3973 -0.2774 -0.0763
  337SOL     OW 1079   4.512   0.600   1.642  0.0524  0.1599  0.1571
  337SOL    HW2 1080   4.578   0.594   1.711 -1.2959  2.3924  1.7776
  337SOL    HW3 1081   4.556   0.648   1.571  0.1464  1.8699  1.3261
  337SOL    MW4 1082   4.526   0.606   1.642 -0.0132  0.2564  0.5518
  338SOL     OW 1083   6.052   0.255   1.900  0.1694 -0.0558  0.2455
  338SOL    HW2 1084   6.025   0.186   1.961 -0.8611 -2.1518 -2.3919
  338SOL    HW3 1085   6.045   0.214   1.814  3.9309  1.9295 -1.2107
  338SOL    MW4 1086   6.047   0.240   1.897  0.0110 -0.3180 -0.0929
  339SOL     OW 1087   1.051   0.061   2.638 -0.4526 -0.0702  0.1248
  339SOL    HW2 1088   1.095   0.117   2.574 -1.6761 -1.7437 -2.3843
  339SOL    HW3 1089   0.959   0.085   2.632 -0.6910 -0.7996  0.6847
  339SOL    MW4 1090   1.045   0.071   2.628  0.8459 -0.5115  0.3231
  340SOL     OW 1091   0.075   0.452   4.488 -0.5558 -0.1188  0.3159
  340SOL    HW2 1092  -0.009   0.437   4.445 -0.4206 -0.1275  0.0509
  340SOL    HW3 1093   0.073   0.396   4.565 -0.6124 -0.4488  0.0742
  340SOL    MW4 1094   0.063   0.443   4.492 -0.8500  0.1470  0.2334
  341SOL     OW 1095   3.510   4.971   1.897 -0.2272 -0.0004 -0.4817
  341SOL    HW2 1096   3.571   5.018   1.841  0.6097 -0.7065 -0.1969
  341SOL    HW3 1097   3.562   4.899   1.933 -1.2830 -0.7387 -0.3861
  341SOL    MW4 1098   3.525   4.967   1.894 -0.6774 -0.5326  0.0013
  342SOL     OW 1099   2.622   4.520   3.574  0.1689  0.2194  0.0816
  342SOL    HW2 1100   2.713   4.507   3.601  0.1332  0.5922  0.3922
  342SOL    HW3 1101   2.627   4.540   3.481  0.5071  1.3449  0.3289
  342SOL    MW4 1102   2.634   4.521   3.565  0.3230 -0.2682  0.3209
  343SOL     OW 1103   2.177   0.558   2.994 -0.0173  0.3584 -0.1562
  343SOL    HW2 1104   2.177   0.606   2.912  1.8577  4.3771  1.9391
  343SOL    HW3 1105   2.096   0.584   3.038 -0.1515 -0.3309  0.0212
  343SOL    MW4 1106   2.166   0.567   2.989  0.4947  0.0736 -0.1448
  344SOL     OW 1107   4.408   5.357   2.461  0.1161 -0.0857 -0.3827
  344SOL    HW2 1108   4.480   5.381   2.403 -0.7958 -0.8745 -1.9095
  344SOL    HW3 1109   4.401   5.430   2.522  2.6772 -0.3238  0.3312
  344SOL    MW4 1110   4.417   5.370   2.461 -0.3805 -0.6474  0.6996
  345SOL     OW 1111   3.823   2.930   6.321  0.3136 -0.3562 -0.1006
  345SOL    HW2 1112   3.906   2.911   6.365  0.2237  0.3599  0.4002
  345SOL    HW3 1113   3.791   3.009   6.364 -0.5868 -0.5733 -0.3578
  345SOL    MW4 1114   3.830   2.938   6.333  0.5744 -0.3708  0.5021
  346SOL     OW 1115   5.865   2.082   4.470 -0.4392 -0.2603 -0.3451
  346SOL    HW2 1116   5.781   2.092   4.516  0.2850 -0.6838  1.1329
  346SOL    HW3 1117   5.842   2.048   4.384 -1.7672 -0.6799  0.1546
  346SOL    MW4 1118   5.851   2.079   4.465 -0.1031  0.0745 -0.8004
  347SOL     OW 1119   5.866   2.440   2.403 -0.3246 -0.4334  0.4172
  347SOL    HW2 1120   5.881   2.494   2.326  1.6985 -1.2283  0.1613
  347SOL    HW3 1121   5.772   2.426   2.406 -0.4510 -0.4417 -1.9706
  347SOL    MW4 1122   5.856   2.445   2.394 -0.2038 -0.2679 -0.0163
  348SOL     OW 1123   1.705   6.157   3.595 -0.2672 -0.4606  0.1889
  348SOL    HW2 1124   1.690   6.153   3.690  1.7398 -0.6586  0.5281
  348SOL    HW3 1125   1.758   6.079   3.576  0.1762  0.0976 -0.9315
  348SOL    MW4 1126   1.710   6.146   3.605  0.2601 -0.4678 -0.4832
  349SOL     OW 1127   5.016   2.358   2.754  0.6583 -0.3434 -0.1956
  349SOL    HW2 1128   4.947   2.310   2.709  1.1478  0.3088 -1.7032
  349SOL    HW3 1129   5.097   2.325   2.716  1.0270  1.2046 -0.8337
  349SOL    MW4 1130   5.018   2.348   2.743  0.0256  1.0838  0.0186
  350SOL     OW 1131   2.333   1.403   0.595  0.0422  0.3632  0.8433
  350SOL    HW2 1132   2.284   1.345   0.653  1.3109 -0.5391  1.0790
  350SOL    HW3 1133   2.320   1.490   0.631 -0.1823 -0.0378  1.7657
  350SOL    MW4 1134   2.325   1.407   0.607 -0.3841  0.4947 -0.2016
  351SOL     OW 1135   1.712   5.437   6.121 -0.0628 -0.1863  0.1759
  351SOL    HW2 1136   1.698   5.349   6.085 -1.3034  0.4851 -1.1039
  351SOL    HW3 1137   1.624   5.467   6.146  0.4975  0.2499  1.7113
  351SOL    MW4 1138   1.698   5.429   6.119 -0.7429  0.3589  0.2482
  352SOL     OW 1139   4.554   3.215   4.546  0.3928  0.3521 -0.7651
  352SOL    HW2 1140   4.505   3.158   4.486 -0.4552  1.2449 -0.9444
  352SOL    HW3 1141   4.512   3.201   4.631 -0.7340  1.6883 -1.0592
  352SOL    MW4 1142   4.542   3.206   4.549 -0.3802 -0.0391 -0.2544
  353SOL     OW 1143   0.808   5.984   5.065 -0.2638 -0.2587 -0.3044
  353SOL    HW2 1144   0.785   5.905   5.015 -0.3926 -1.9946  2.2646
  353SOL    HW3 1145   0.903   5.984   5.068 -0.2559 -0.1438 -0.5675
  353SOL    MW4 1146   0.817   5.973   5.059 -0.2147 -0.6220 -0.1288
  354SOL     OW 1147   2.787   2.963   6.289 -0.1232 -0.5852 -0.0657
  354SOL    HW2 1148   2.852   2.987   6.356 -0.7429  1.0161  0.0133
  354SOL    HW3 1149   2.837   2.955   6.208  0.0698  2.0133 -0.2920
  354SOL    MW4 1150   2.802   2.965   6.287 -0.2859 -0.0740 -0.4366
  355SOL     OW 1151   5.567   1.469   1.381  0.5532  0.4623  0.3036
  355SOL    HW2 1152   5.559   1.504   1.470  0.1931 -0.0293  0.4744
  355SOL    HW3 1153   5.557   1.374   1.393 -0.1384  0.4520 -0.3394
  355SOL    MW4 1154   5.565   1.461   1.395 -0.1164 -0.1925  0.2209
  356SOL     OW 1155   6.138   3.959   2.430  0.3817 -0.1336  0.3767
  356SOL    HW2 1156   6.190   4.039   2.431 -1.8857  1.4407  0.0187
  356SOL    HW3 1157   6.149   3.923   2.518 -1.3116  2.5636  1.8525
  356SOL    MW4 1158   6.146   3.965   2.442  0.1317  0.2644  0.5061
  357SOL     OW 1159   5.861   5.565   4.171 -0.1941 -0.0307  0.4345
  357SOL    HW2 1160   5.816   5.641   4.207 -1.0431  0.3391 -1.3366
  357SOL    HW3 1161   5.838   5.493   4.231 -0.1057  0.9029  1.6125
  357SOL    MW4 1162   5.852   5.565   4.184 -0.1103  0.3276  0.2781
  358SOL     OW 1163   2.422   3.957   6.131  0.0847  0.1550  0.1420
  358SOL    HW2 1164   2.350   3.926   6.186 -0.5359 -0.3915 -0.9377
  358SOL    HW3 1165   2.427   4.051   6.148 -1.6895  0.4238 -0.6297
  358SOL    MW4 1166   2.413   3.965   6.140  0.0782 -0.2208  0.1726
  359SOL     OW 1167   3.522   1.667   2.665 -0.1288  0.3853 -0.3363
  359SOL    HW2 1168   3.545   1.712   2.583  0.5250  2.2472  0.8140
  359SOL    HW3 1169   3.579   1.590   2.666 -0.3171  0.1925 -1.7253
  359SOL    MW4 1170   3.533   1.662   2.654 -0.0773 -0.0942  0.6390
  360SOL     OW 1171   2.605   5.291   6.116  0.0111  0.1408 -0.2762
  360SOL    HW2 1172   2.520   5.321   6.085  0.2845  1.0707 -0.1559
  360SOL    HW3 1173   2.603   5.305   6.211 -1.1955 -3.5894  0.4504
  360SOL    MW4 1174   2.594   5.296   6.124 -0.2787  0.5069 -0.6714
  361SOL     OW 1175   1.815   0.776   3.776 -0.7162  0.6996  0.2107
  361SOL    HW2 1176   1.779   0.729   3.701 -2.1563  2.3885 -0.2104
  361SOL    HW3 1177   1.749   0.765   3.845  0.4290 -0.5359  1.1655
  361SOL    MW4 1178   1.801   0.769   3.775  0.1956  0.6612  0.0987
  362SOL     OW 1179   1.418   5.940   5.535 -0.4668  0.2209  0.2677
  362SOL    HW2 1180   1.355   6.006   5.507 -0.8801 -0.3656 -0.2158
  362SOL    HW3 1181   1.486   5.941   5.468  0.2590  1.1264  0.9916
  362SOL    MW4 1182   1.419   5.948   5.523 -0.1732 -0.0952  0.2282
  363SOL     OW 1183   5.729   5.297   0.141 -0.6152  0.0257  0.0010
  363SOL    HW2 1184   5.817   5.277   0.109 -0.7082  0.6853 -0.6803
  363SOL    HW3 1185   5.678   5.219   0.117 -0.3611 -0.0946 -0.1609
  363SOL    MW4 1186   5.734   5.284   0.133  0.3477 -0.6494  0.0261
  364SOL     OW 1187   6.118   5.281   4.314  0.4999  0.0684 -0.3677
  364SOL    HW2 1188   6.170   5.354   4.348 -0.0258  0.2465  0.0761
  364SOL    HW3 1189   6.179   5.207   4.310  0.5951  0.0648  0.9068
  364SOL    MW4 1190   6.133   5.281   4.318 -0.1854 -0.2930 -0.1451
  365SOL     OW 1191   2.142   1.093   3.548 -0.6245 -0.0548 -0.2449
  365SOL    HW2 1192   2.098   1.049   3.621  0.5647  0.8636  1.0751
  365SOL    HW3 1193   2.180   1.172   3.587  0.9723 -0.0868 -1.6438
  365SOL    MW4 1194   2.141   1.098   3.563 -0.2062  0.0146 -0.2744
  366SOL     OW 1195   6.348   1.627   1.956 -0.6629  0.9158  0.3181
  366SOL    HW2 1196   6.386   1.625   2.044 -1.1488 -1.1325  0.5233
  366SOL    HW3 1197   6.339   1.535   1.931 -1.5508  1.4326 -1.4454
  366SOL    MW4 1198   6.352   1.615   1.964  0.4659  0.1481 -1.1921
  367SOL     OW 1199   0.915   3.565   0.429 -0.3749 -0.1587  0.5960
  367SOL    HW2 1200   0.836   3.581   0.377 -0.6878 -0.4292  0.9861
  367SOL    HW3 1201   0.982   3.541   0.365 -0.6082  0.0711  0.2652
  367SOL    MW4 1202   0.914   3.564   0.414 -0.2785 -0.2453  0.3047
  368SOL     OW 1203   6.238   0.745   1.913  0.7428  0.1265 -0.6736
  368SOL    HW2 1204   6.300   0.807   1.951 -0.1029 -0.2732  1.4650
  368SOL    HW3 1205   6.275   0.725   1.826  1.4618  2.9571 -1.1237
  368SOL    MW4 1206   6.251   0.750   1.906  0.1247  0.0439  0.3131
  369SOL     OW 1207   2.301   5.075   6.128  0.0083  0.1278  0.3173
  369SOL    HW2 1208   2.317   5.069   6.034 -1.0279 -2.3221  0.2207
  369SOL    HW3 1209   2.223   5.129   6.137 -0.2790 -0.1788 -0.3018
  369SOL    MW4 1210   2.293   5.081   6.117  0.2260 -0.3606 -0.5220
  370SOL     OW 1211   1.920   2.779   2.204  0.4230  0.3634 -0.3532
  370SOL    HW2 1212   2.010   2.776   2.239  0.7191 -2.3433 -1.1383
  370SOL    HW3 1213   1.865   2.756   2.279  0.3230  2.1419  0.1594
  370SOL    MW4 1214   1.925   2.775   2.219 -0.0494  0.0611 -0.1793
  371SOL     OW 1215   5.462   0.038   5.163  0.0284  0.0026  0.5594
  371SOL    HW2 1216   5.454   0.025   5.257 -2.3272 -1.4288  0.2448
  371SOL    HW3 1217   5.528  -0.026   5.136  0.7516  0.4528  1.2067
  371SOL    MW4 1218   5.469   0.028   5.172 -0.2878  0.2934  1.5163
  372SOL     OW 1219   3.097   6.248   2.248 -0.4145 -0.2045  0.3448
  372SOL    HW2 1220   3.082   6.184   2.318  0.9397 -0.8996  0.0398
  372SOL    HW3 1221   3.132   6.196   2.176  1.2182  0.9415  0.2712
  372SOL    MW4 1222   3.100   6.233   2.248 -0.0671 -0.8024  0.5480
  373SOL     OW 1223   4.647   5.034   6.056  1.1236 -0.0771 -0.4457
  373SOL    HW2 1224   4.652   5.106   5.993  3.1443 -1.3224 -1.8357
  373SOL    HW3 1225   4.723   4.979   6.035 -0.3788 -2.6647  0.4914
  373SOL    MW4 1226   4.658   5.036   6.045  0.2891 -0.0691 -0.8060
  374SOL     OW 1227   2.828   1.936   5.957  0.3727  0.7139  0.5169
  374SOL    HW2 1228   2.831   2.028   5.981  2.1818  0.9584 -0.4568
  374SOL    HW3 1229   2.759   1.931   5.890 -0.1752  1.2185  1.0324
  374SOL    MW4 1230   2.819   1.947   5.951  0.1765 -0.5762  0.3190
  375SOL     OW 1231   0.977   1.959   4.620  0.1198  0.3419 -0.3097
  375SOL    HW2 1232   1.065   1.989   4.641  0.2752 -0.7051  0.6524
  375SOL    HW3 1233   0.944   2.023   4.557  1.7054  0.5376 -0.9925
  375SOL    MW4 1234   0.985   1.971   4.615  0.4136  0.2248 -0.0551
  376SOL     OW 1235   1.097   4.139   4.751 -0.5140  0.0750  0.3481
  376SOL    HW2 1236   1.136   4.061   4.712  0.6247  0.3105  0.9624
  376SOL    HW3 1237   1.167   4.176   4.806 -1.6379  0.4564  1.5883
  376SOL    MW4 1238   1.111   4.134   4.753 -0.2974  0.0203  0.0976
  377SOL     OW 1239   3.108   3.576   0.727 -0.0873 -0.0220 -0.4905
  377SOL    HW2 1240   3.013   3.587   0.728 -0.3329 -1.2191 -3.0366
  377SOL    HW3 1241   3.122   3.484   0.749  0.4422 -0.0381 -0.8847
  377SOL    MW4 1242   3.097   3.565   0.730  0.1239  0.2345 -0.3459
  378SOL     OW 1243   3.643   4.986   5.573  0.2502  0.5181  0.1683
  378SOL    HW2 1244   3.681   4.995   5.660 -2.0095  2.0848  1.1038
  378SOL    HW3 1245   3.623   4.893   5.565  2.2644  0.0176  0.4621
  378SOL    MW4 1246   3.645   4.975   5.583 -0.2202 -0.1815 -0.1769
  379SOL     OW 1247   1.711   3.891   2.475  0.7690  0.3684 -0.5980
  379SOL    HW2 1248   1.742   3.806   2.443  0.6069  0.5019 -1.1126
  379SOL    HW3 1249   1.788   3.931   2.516  0.8662  0.0094 -0.4298
  379SOL    MW4 1250   1.725   3.885   2.477  0.0048  0.5599  0.2610
  380SOL     OW 1251   3.493   3.016   4.327  0.3585 -0.4635  0.3797
  380SOL    HW2 1252   3.541   3.094   4.297 -0.0585 -0.7706 -1.1843
  380SOL    HW3 1253   3.413   3.051   4.366 -1.0943 -0.1143 -2.6617
  380SOL    MW4 1254   3.489   3.031   4.328  0.3678  0.0587 -0.3527
  381SOL     OW 1255   1.153   3.804   1.248 -0.2931  0.0057  0.2928
  381SOL    HW2 1256   1.151   3.851   1.331 -1.0521  1.1062 -0.3192
  381SOL    HW3 1257   1.246   3.801   1.224 -0.1287  0.1821  0.8964
  381SOL    MW4 1258   1.165   3.810   1.256  0.1598 -0.2081  0.2452
  382SOL     OW 1259   3.672   6.133   6.259  0.2065 -0.3002 -1.0855
  382SOL    HW2 1260   3.589   6.156   6.218  0.3252  0.8510 -0.7075
  382SOL    HW3 1261   3.731   6.206   6.239  0.1158  0.5983  1.5063
  382SOL    MW4 1262   3.669   6.146   6.251  0.6132  0.4505  0.1933
  383SOL     OW 1263   0.912   5.743   3.936  0.1346  0.0958  0.3127
  383SOL    HW2 1264   0.898   5.778   4.024  0.2632 -0.1272  0.4215
  383SOL    HW3 1265   0.929   5.650   3.950 -1.1950 -0.2306 -0.0418
  383SOL    MW4 1266   0.912   5.735   3.949  0.2685 -0.4484 -1.0292
  384SOL     OW 1267   1.014   4.212   1.358 -0.3207 -0.3207 -0.1325
  384SOL    HW2 1268   0.960   4.280   1.318 -0.0692 -1.4585 -2.6037
  384SOL    HW3 1269   0.952   4.145   1.387 -0.5198  0.5993  1.7498
  384SOL    MW4 1270   0.999   4.212   1.357 -0.1193 -0.1654  0.1209
  385SOL     OW 1271   6.292   4.987   1.067  0.0963 -0.9740  0.5096
  385SOL    HW2 1272   6.342   5.066   1.088 -0.7932 -0.0976 -0.4883
  385SOL    HW3 1273   6.279   4.943   1.151 -0.2342  0.4659  1.2424
  385SOL    MW4 1274   6.297   4.992   1.080 -0.2956  0.2230  0.4314
  386SOL     OW 1275   4.398   4.511   4.767 -0.7359 -0.1225 -0.1991
  386SOL    HW2 1276   4.348   4.561   4.702  0.9699  1.5165 -0.3211
  386SOL    HW3 1277   4.448   4.447   4.715  0.6261  1.1861 -0.5640
  386SOL    MW4 1278   4.398   4.509   4.751  0.4892  0.5328 -0.2514
  387SOL     OW 1279   4.785   6.307   3.210  0.0747 -0.0709 -0.4339
  387SOL    HW2 1280   4.874   6.335   3.233 -0.4735  1.0060  0.4742
  387SOL    HW3 1281   4.794   6.214   3.190  1.5601  0.2192 -1.2593
  387SOL    MW4 1282   4.798   6.298   3.211  0.4111 -0.0835 -0.4310
  388SOL     OW 1283   3.005   5.263   5.595 -0.0994  0.5572  0.0212
  388SOL    HW2 1284   3.097   5.287   5.582  0.5563 -1.0201  1.4015
  388SOL    HW3 1285   2.992   5.189   5.535 -0.4312  0.6736 -0.0501
  388SOL    MW4 1286   3.015   5.256   5.585  0.0293 -0.1664  0.2422
  389SOL     OW 1287   1.666   1.848   3.678  0.3549  0.4540 -0.7812
  389SOL    HW2 1288   1.622   1.931   3.698  0.2352  0.4905 -1.1664
  389SOL    HW3 1289   1.625   1.784   3.736 -0.0195  0.5437 -0.9392
  389SOL    MW4 1290   1.655   1.850   3.688  0.0684 -0.3594  0.0201
  390SOL     OW 1291   3.398   6.075   5.406 -0.1283  0.3778 -0.6307
  390SOL    HW2 1292   3.339   6.003   5.384 -0.3988 -0.1059  1.4773
  390SOL    HW3 1293   3.437   6.100   5.323 -2.5844  0.0835 -1.9799
  390SOL    MW4 1294   3.395   6.069   5.392 -0.1217  0.5657  0.2937
  391SOL     OW 1295   0.632   1.117   4.298  0.5522  0.0053  0.3815
  391SOL    HW2 1296   0.544   1.106   4.335  1.8314 -1.8015  3.1252
  391SOL    HW3 1297   0.640   1.212   4.286 -1.1920  0.3693  1.6042
  391SOL    MW4 1298   0.621   1.128   4.301  0.7641 -0.2097  0.5464
  392SOL     OW 1299   2.181   3.709   3.395  0.2555 -0.9149 -0.2782
  392SOL    HW2 1300   2.105   3.670   3.437  0.6565 -0.7260  0.6509
  392SOL    HW3 1301   2.150   3.792   3.360 -0.1331 -1.1707 -0.5497
  392SOL    MW4 1302   2.167   3.715   3.396  0.0882 -0.2418 -0.8274
  393SOL     OW 1303   2.159   0.078   2.445 -0.1689 -0.2418 -0.2866
  393SOL    HW2 1304   2.111   0.101   2.525 -1.6514 -0.4051 -1.0886
  393SOL    HW3 1305   2.228   0.018   2.475 -0.4215  0.0439  0.9268
  393SOL    MW4 1306   2.162   0.073   2.459 -0.2191 -0.3520  0.3880
  394SOL     OW 1307   0.553   5.274   5.805  0.0680 -0.1593 -0.3647
  394SOL    HW2 1308   0.625   5.216   5.781 -0.0334 -1.0938  1.4775
  394SOL    HW3 1309   0.566   5.292   5.898 -1.1702  0.9784 -0.3818
  394SOL    MW4 1310   0.564   5.269   5.814 -0.1518 -0.2612  0.3305
  395SOL     OW 1311   2.407   5.918   5.486 -0.1283  0.0149  0.2652
  395SOL    HW2 1312   2.463   5.979   5.438  0.1618 -1.4461 -1.3547
  395SOL    HW3 1313   2.332   5.904   5.428  0.5115 -2.2466 -0.1419
  395SOL    MW4 1314   2.405   5.924   5.472 -0.7251  0.5950  0.1354
  396SOL     OW 1315   4.563   4.528   5.148 -0.3639  0.1174  0.4784
  396SOL    HW2 1316   4.546   4.603   5.205 -0.0958 -0.1115  0.8662
  396SOL    HW3 1317   4.482   4.516   5.100 -1.5558 -1.2723  2.6655
  396SOL    MW4 1318   4.550   4.536   5.149 -0.0571  0.0639  0.2458
  397SOL     OW 1319   5.069   1.586   1.364  0.2969  0.1182 -0.4528
  397SOL    HW2 1320   5.024   1.589   1.280 -0.6655  0.4864  0.0551
  397SOL    HW3 1321   5.073   1.677   1.393  0.1674 -0.0521  0.1241
  397SOL    MW4 1322   5.064   1.598   1.357  0.3761  0.0166 -0.0897
  398SOL     OW 1323   4.058   6.422   3.220 -0.0915  0.2427  0.1712
  398SOL    HW2 1324   4.096   6.474   3.150  0.0679  0.0793  0.1351
  398SOL    HW3 1325   4.068   6.331   3.191 -1.5071  0.2296 -0.3482
  398SOL    MW4 1326   4.064   6.417   3.207  0.4681 -0.5657 -0.2646
  399SOL     OW 1327   4.469   6.411   4.887 -0.1595 -0.0388 -0.1046
  399SOL    HW2 1328   4.440   6.375   4.803 -0.9948  2.0374 -0.7833
  399SOL    HW3 1329   4.559   6.439   4.871  0.0049 -0.5153 -0.0151
  399SOL    MW4 1330   4.477   6.410   4.874  0.0863 -0.3609 -0.4839
  400SOL     OW 1331   4.454   0.549   2.266 -0.5109  0.0217  0.1269
  400SOL    HW2 1332   4.408   0.469   2.239 -1.0387 -0.4162  2.1614
  400SOL    HW3 1333   4.446   0.607   2.191 -1.7891 -1.1512 -0.6957
  400SOL    MW4 1334   4.447   0.546   2.253 -0.3452  0.7886  0.3074
  401SOL     OW 1335   0.234   4.519   0.394  0.2206  0.1124 -0.4636
  401SOL    HW2 1336   0.209   4.591   0.451 -0.3987 -1.3936  1.2611
  401SOL    HW3 1337   0.301   4.556   0.336 -0.6343  2.2426 -0.1710
  401SOL    MW4 1338   0.239   4.534   0.394 -0.4732  0.0456  0.1494
  402SOL     OW 1339   5.758   5.955   6.368 -0.0929 -0.0113  0.0480
  402SOL    HW2 1340   5.824   5.917   6.310 -0.5799 -0.6198 -0.1248
  402SOL    HW3 1341   5.751   6.047   6.340 -0.3035 -0.2866 -0.8578
  402SOL    MW4 1342   5.766   5.962   6.356  0.1494  0.1880 -0.2996
  403SOL     OW 1343   1.969   2.542   1.377  0.1877 -0.6897 -0.4317
  403SOL    HW2 1344   1.924   2.457   1.376 -1.8234  0.3129 -1.3391
  403SOL    HW3 1345   1.950   2.581   1.292  0.0889  1.1479  0.3709
  403SOL    MW4 1346   1.961   2.536   1.366  0.4484 -0.5265 -0.4350
  404SOL     OW 1347   0.208   3.801   0.761 -0.4106 -0.0012 -0.3742
  404SOL    HW2 1348   0.287   3.806   0.708 -0.7070 -0.3243 -0.8552
  404SOL    HW3 1349   0.240   3.781   0.849  0.1941  2.0289 -0.0826
  404SOL    MW4 1350   0.223   3.799   0.766 -0.3504  0.2304 -0.1536
  405SOL     OW 1351   5.370   2.620   3.657  0.6540 -0.0970  0.6788
  405SOL    HW2 1352   5.432   2.547   3.645  1.4693  0.9167 -2.1002
  405SOL    HW3 1353   5.306   2.608   3.587  0.2696  1.3478  0.7623
  405SOL    MW4 1354   5.370   2.609   3.646 -0.3986  0.4690  0.0741
  406SOL     OW 1355   3.764   3.607   5.074  0.2742 -0.4999  0.4684
  406SOL    HW2 1356   3.777   3.688   5.124  0.3870 -0.8891  1.0910
  406SOL    HW3 1357   3.851   3.567   5.071  0.3303 -0.3332 -0.3155
  406SOL    MW4 1358   3.778   3.612   5.080  0.0893 -0.1076 -0.6158
  407SOL     OW 1359   0.785   2.312   1.697 -0.1034 -0.0579  0.1552
  407SOL    HW2 1360   0.759   2.391   1.745  0.5582 -0.0496  0.5185
  407SOL    HW3 1361   0.802   2.343   1.608  0.1649  0.2147  0.2988
  407SOL    MW4 1362   0.784   2.327   1.692 -0.4704 -0.0525 -0.3163
  408SOL     OW 1363   5.905   1.652   4.347  0.0459 -0.4521 -0.0305
  408SOL    HW2 1364   5.874   1.661   4.437 -0.1895 -0.8806 -0.0669
  408SOL    HW3 1365   5.905   1.741   4.313  1.9772 -0.0117  0.9929
  408SOL    MW4 1366   5.901   1.665   4.354 -0.6689 -0.1016 -0.1717
  409SOL     OW 1367   2.597   5.341   5.751 -0.0146 -0.0280  0.0997
  409SOL    HW2 1368   2.664   5.389   5.799 -0.1357  0.9369 -0.6478
  409SOL    HW3 1369   2.625   5.346   5.659 -0.9375  0.1330 -0.1881
  409SOL    MW4 1370   2.609   5.348   5.745 -0.0537 -0.6777 -0.5187
  410SOL     OW 1371   5.669   1.541   3.592 -0.7983  1.0021 -0.2862
  410SOL    HW2 1372   5.725   1.565   3.518 -0.3754  0.7018 -0.0628
  410SOL    HW3 1373   5.710   1.582   3.668 -0.1275 -0.2988  0.0835
  410SOL    MW4 1374   5.682   1.550   3.592 -0.3001  0.0368 -0.0416
  411SOL     OW 1375   5.163   4.666   2.091 -0.2050  0.1676 -0.2291
  411SOL    HW2 1376   5.115   4.651   2.173  1.1065 -0.7828  0.4054
  411SOL    HW3 1377   5.249   4.629   2.107 -0.6847 -2.4618 -2.9461
  411SOL    MW4 1378   5.168   4.659   2.104  0.4911 -0.0362  0.0830
  412SOL     OW 1379   3.087   4.855   0.609  0.0540  0.2463  0.2509
  412SOL    HW2 1380   3.173   4.813   0.613  0.1116  0.4972  2.5882
  412SOL    HW3 1381   3.047   4.817   0.531  1.2439 -1.9459  0.6103
  412SOL    MW4 1382   3.093   4.844   0.599  0.0874 -0.1226  0.6005
  413SOL     OW 1383   2.824   0.502   2.865  0.4390 -0.5858  0.8474
  413SOL    HW2 1384   2.916   0.518   2.888  0.9518 -1.4232 -0.4906
  413SOL    HW3 1385   2.777   0.510   2.948  1.7419 -0.3272  1.5923
  413SOL    MW4 1386   2.830   0.505   2.879  0.3118  0.1209  0.1235
  414SOL     OW 1387   0.778   5.085   5.738 -0.3855 -0.2364 -0.3419
  414SOL    HW2 1388   0.866   5.119   5.750 -0.1856 -0.9017  0.1673
  414SOL    HW3 1389   0.784   4.993   5.767 -1.5826  0.1227  1.1900
  414SOL    MW4 1390   0.790   5.077   5.744  0.7756 -0.0489 -0.6570
  415SOL     OW 1391   3.474   1.599   3.970 -0.1555  0.5524  0.0637
  415SOL    HW2 1392   3.519   1.603   4.054  1.5940  2.3033 -0.8684
  415SOL    HW3 1393   3.502   1.515   3.932  1.0439  0.8783  0.1945
  415SOL    MW4 1394   3.484   1.588   3.976 -0.5249 -0.2916  0.2543
  416SOL     OW 1395   4.157   4.933   0.838 -0.1554 -0.5729  0.1758
  416SOL    HW2 1396   4.177   5.017   0.795  2.2437 -0.2164  1.7758
  416SOL    HW3 1397   4.066   4.941   0.865 -0.2905  1.0868 -0.6509
  416SOL    MW4 1398   4.148   4.945   0.836 -0.2817 -0.1969 -0.4803
  417SOL     OW 1399   3.908   2.249   2.883  0.2028 -0.1650  0.3839
  417SOL    HW2 1400   3.831   2.206   2.918  0.2216 -0.8958 -0.4486
  417SOL    HW3 1401   3.940   2.190   2.815  1.5080  0.1132  0.7296
  417SOL    MW4 1402   3.902   2.236   2.878 -0.0638 -0.5430  0.4826
  418SOL     OW 1403   3.101   1.672   4.441 -0.2317 -0.1991  0.2027
  418SOL    HW2 1404   3.062   1.740   4.496  2.1921  0.1034  1.6914
  418SOL    HW3 1405   3.122   1.601   4.502  0.7724 -0.6743 -0.6568
  418SOL    MW4 1406   3.099   1.672   4.456 -0.1810  0.5336 -0.3358
  419SOL     OW 1407   1.641   5.668   2.779  0.0283 -0.0413  0.2083
  419SOL    HW2 1408   1.616   5.613   2.704  0.6009 -0.3945  0.2668
  419SOL    HW3 1409   1.564   5.669   2.835 -0.0758 -0.5759  0.0804
  419SOL    MW4 1410   1.628   5.661   2.776 -0.3756 -0.0848  0.6073
  420SOL     OW 1411   1.440   6.051   4.725  0.0576  0.0448  0.2889
  420SOL    HW2 1412   1.469   6.119   4.786 -1.3648  1.5511 -0.6468
  420SOL    HW3 1413   1.413   5.979   4.781 -0.2454  0.9955  1.4045
  420SOL    MW4 1414   1.440   6.050   4.741  0.2991 -0.1176  0.2767
  421SOL     OW 1415   1.801   5.669   0.607  0.2732  0.6674 -0.2674
  421SOL    HW2 1416   1.767   5.755   0.579 -0.9190 -0.1087 -1.3077
  421SOL    HW3 1417   1.893   5.685   0.626 -0.1566  2.4081  0.5635
  421SOL    MW4 1418   1.808   5.683   0.606 -0.2151 -0.8017  0.2941
  422SOL     OW 1419   6.239   0.567   2.270 -0.1947 -0.0382  0.6824
  422SOL    HW2 1420   6.208   0.499   2.330 -0.3119 -0.8199 -0.2370
  422SOL    HW3 1421   6.245   0.523   2.186  0.8685  0.7992  0.3034
  422SOL    MW4 1422   6.236   0.552   2.267  0.1827  0.0432  0.4088
  423SOL     OW 1423   4.939   1.716   0.148 -0.0349 -0.3984  0.8924
  423SOL    HW2 1424   5.014   1.672   0.188 -1.0774 -0.4847  2.8944
  423SOL    HW3 1425   4.878   1.645   0.128 -0.8233 -0.1098  2.1396
  423SOL    MW4 1426   4.941   1.701   0.151  0.2987 -0.3065 -0.1127
  424SOL     OW 1427   6.275   5.114   5.773  0.5307  0.6936 -0.0797
  424SOL    HW2 1428   6.241   5.093   5.860 -2.2019  2.7827 -0.4945
  424SOL    HW3 1429   6.345   5.177   5.788  1.1577 -0.1410  0.6204
  424SOL    MW4 1430   6.279   5.120   5.787 -0.3257 -0.3496 -0.0996
  425SOL     OW 1431   2.394   5.279   0.118  0.2248  0.1477 -0.2533
  425SOL    HW2 1432   2.415   5.341   0.188 -4.0949 -0.5343  1.9292
  425SOL    HW3 1433   2.326   5.322   0.067 -0.2821 -1.3938 -0.9360
  425SOL    MW4 1434   2.388   5.293   0.120  0.1077  0.4357 -0.6984
  426SOL     OW 1435   1.672   3.457   0.718 -0.2812 -0.0402  0.2594
  426SOL    HW2 1436   1.619   3.443   0.640  0.8337 -0.5207 -0.4341
  426SOL    HW3 1437   1.746   3.396   0.708  0.8396  1.1961  0.7734
  426SOL    MW4 1438   1.675   3.447   0.706  0.1504 -0.5634 -0.2473
  427SOL     OW 1439   5.520   4.354   3.446 -0.0277 -0.2311 -0.2813
  427SOL    HW2 1440   5.606   4.317   3.425  0.8197  1.0882  0.7560
  427SOL    HW3 1441   5.491   4.303   3.521  1.9303  2.1215  2.3024
  427SOL    MW4 1442   5.528   4.342   3.453 -0.3867  0.7420  0.1996
  428SOL     OW 1443   0.869   5.320   6.080 -0.6177 -0.0501  0.2977
  428SOL    HW2 1444   0.807   5.389   6.057  2.2998  2.2442 -1.2662
  428SOL    HW3 1445   0.921   5.357   6.152  0.5455 -0.8983 -0.0807
  428SOL    MW4 1446   0.867   5.334   6.087  0.2461  0.5610 -0.7102
  429SOL     OW 1447   0.658   1.833   3.686 -0.0665 -0.2499 -0.2520
  429SOL    HW2 1448   0.658   1.781   3.766  1.3887 -0.0125 -0.0605
  429SOL    HW3 1449   0.728   1.897   3.699 -2.0011  2.0359 -0.3281
  429SOL    MW4 1450   0.667   1.835   3.698 -0.2514 -0.5579 -0.1055
  430SOL     OW 1451   2.318   2.191   0.995  0.3176 -0.6223 -0.2745
  430SOL    HW2 1452   2.286   2.254   0.930  0.0802 -1.6397 -1.1756
  430SOL    HW3 1453   2.370   2.243   1.056 -2.2043  0.9445  0.6749
  430SOL    MW4 1454   2.320   2.206   0.994  0.4503 -0.0145  0.1517
  431SOL     OW 1455   6.206   1.914   2.674 -0.1990 -0.6031 -0.1562
  431SOL    HW2 1456   6.210   1.976   2.601 -0.2096  0.3872  0.6646
  431SOL    HW3 1457   6.294   1.913   2.709 -0.6107  0.3755  0.9730
  431SOL    MW4 1458   6.218   1.922   2.669  0.2962  0.2371 -0.2210
  432SOL     OW 1459   1.144   3.428   3.513 -0.1104 -0.0019  0.4694
  432SOL    HW2 1460   1.114   3.501   3.459  0.3445  0.0395  0.2737
  432SOL    HW3 1461   1.125   3.456   3.603 -0.0596  0.3002  0.3861
  432SOL    MW4 1462   1.137   3.441   3.518  0.7216 -0.5081 -0.3853
  433SOL     OW 1463   2.449   3.639   3.412 -0.3310  0.8170  0.0065
  433SOL    HW2 1464   2.355   3.650   3.398 -0.7320 -1.1412  0.7977
  433SOL    HW3 1465   2.490   3.700   3.351 -2.0950  1.0453 -1.0098
  433SOL    MW4 1466   2.442   3.649   3.402  0.4338 -0.0350 -0.3778
  434SOL     OW 1467   3.993   3.137   1.526  0.8245  0.6802 -0.6887
  434SOL    HW2 1468   4.072   3.185   1.502  0.4881  0.7564 -1.7243
  434SOL    HW3 1469   4.022   3.048   1.544  0.9301  0.1595 -3.1014
  434SOL    MW4 1470   4.007   3.132   1.525  0.0129 -0.0346 -0.3815
  435SOL     OW 1471   0.281   5.123   0.361  0.3614 -0.0443 -0.0478
  435SOL    HW2 1472   0.366   5.090   0.389 -0.5444 -2.0425  0.5371
  435SOL    HW3 1473   0.251   5.177   0.434 -0.1351 -1.7842  1.1008
  435SOL    MW4 1474   0.288   5.125   0.374  0.7276 -0.4321  0.6356
  436SOL     OW 1475   0.195   4.004   0.375 -0.1628  0.1553  0.0302
  436SOL    HW2 1476   0.118   4.053   0.402  0.2785 -0.4194  2.6146
  436SOL    HW3 1477   0.160   3.919   0.347 -0.5441  0.0066  0.8946
  436SOL    MW4 1478   0.180   3.999   0.375  0.1210  0.0885 -0.0463
  437SOL     OW 1479   4.300   3.596   2.450 -0.8640 -0.2598  0.3546
  437SOL    HW2 1480   4.266   3.611   2.362  0.9964  0.0656 -0.3389
  437SOL    HW3 1481   4.356   3.520   2.442 -1.4025 -0.8124  1.4878
  437SOL    MW4 1482   4.303   3.588   2.438 -0.0885 -0.3958  0.2542
  438SOL     OW 1483   5.656   5.095   2.455 -0.4785 -0.0778 -0.6944
  438SOL    HW2 1484   5.616   5.175   2.421 -3.8144 -0.8670  0.8547
  438SOL    HW3 1485   5.750   5.111   2.451 -0.9327  4.4688  0.7544
  438SOL    MW4 1486   5.663   5.108   2.450 -0.1101  0.1821 -0.3790
  439SOL     OW 1487   1.991   0.645   4.064  0.6320 -0.0143 -0.5657
  439SOL    HW2 1488   1.971   0.734   4.092  1.6127  0.0778 -0.1008
  439SOL    HW3 1489   1.923   0.624   4.000 -1.0243  0.1997  1.0278
  439SOL    MW4 1490   1.979   0.654   4.060 -0.1627  0.0299  0.2833
  440SOL     OW 1491   5.169   1.558   1.890 -0.2715  0.1983 -0.2772
  440SOL    HW2 1492   5.152   1.470   1.856 -0.5181  0.1129  0.0612
  440SOL    HW3 1493   5.209   1.543   1.975  2.9843  0.3477 -1.6202
  440SOL    MW4 1494   5.172   1.544   1.897 -0.4815 -0.4347 -0.0525
  441SOL     OW 1495   0.464   5.841   2.581  0.0375  0.3194 -0.0792
  441SOL    HW2 1496   0.398   5.906   2.606 -1.4026 -1.6362  1.6562
  441SOL    HW3 1497   0.516   5.829   2.660 -0.8677 -1.8342  0.2591
  441SOL    MW4 1498   0.462   5.848   2.595  0.6537  0.7235 -0.4288
  442SOL     OW 1499   2.379   6.399   0.979  0.0137  0.8887 -0.0160
  442SOL    HW2 1500   2.427   6.474   1.016  0.3927  0.3281  0.6593
  442SOL    HW3 1501   2.445   6.330   0.972 -0.0811  0.9195 -1.6248
  442SOL    MW4 1502   2.394   6.400   0.983 -0.1097  0.1906  0.2560
  443SOL     OW 1503   2.182   6.210   4.259  0.1844 -0.2506  0.1250
  443SOL    HW2 1504   2.209   6.301   4.273  2.5919 -0.9590  0.6274
  443SOL    HW3 1505   2.134   6.187   4.339  3.0588 -0.5352  1.9170
  443SOL    MW4 1506   2.179   6.219   4.272 -0.6965  0.1547  0.5336
  444SOL     OW 1507   4.463   0.699   6.379  0.2805  0.1668 -0.6718
  444SOL    HW2 1508   4.431   0.782   6.344  4.2516  2.4614  0.4864
  444SOL    HW3 1509   4.503   0.655   6.305  0.4289  0.5457 -0.8203
  444SOL    MW4 1510   4.464   0.704   6.365 -0.3333 -0.1688 -0.2039
  445SOL     OW 1511   1.586   3.685   1.281  0.3633 -0.1214  0.2503
  445SOL    HW2 1512   1.507   3.671   1.229  0.2480 -0.6827  0.5728
  445SOL    HW3 1513   1.574   3.772   1.318  0.3103  0.1639 -0.4202
  445SOL    MW4 1514   1.574   3.695   1.279  0.0894  0.2410  0.4829
  446SOL     OW 1515   4.277   5.121   3.217  0.1854 -0.2711 -0.0404
  446SOL    HW2 1516   4.350   5.077   3.260 -0.1743 -2.2692 -1.3736
  446SOL    HW3 1517   4.284   5.096   3.125 -1.3480  0.6829 -0.4620
  446SOL    MW4 1518   4.287   5.112   3.211  0.2012  0.1336  0.1685
  447SOL     OW 1519   4.806   2.630   5.959  0.5997  0.6182  0.7368
  447SOL    HW2 1520   4.826   2.682   5.881  0.4563  0.0919  0.3461
  447SOL    HW3 1521   4.751   2.558   5.928 -0.7681  1.2604  1.5795
  447SOL    MW4 1522   4.802   2.627   5.945 -0.2249  0.0125  0.1787
  448SOL     OW 1523   2.846   0.079   4.391 -0.2756  0.0962 -0.0723
  448SOL    HW2 1524   2.896   0.081   4.473 -1.6255 -0.3293  0.8016
  448SOL    HW3 1525   2.884   0.007   4.341 -0.1716 -0.3880  0.6878
  448SOL    MW4 1526   2.858   0.069   4.395 -0.4561  0.6064  0.4499
  449SOL     OW 1527   5.412   1.180   0.034 -0.9357  0.1583 -0.8759
  449SOL    HW2 1528   5.500   1.218   0.032 -0.6935 -0.1278  1.5420
  449SOL    HW3 1529   5.424   1.094   0.073 -2.1707 -0.3399 -1.5472
  449SOL    MW4 1530   5.425   1.174   0.039  0.8864 -0.4868  0.1651
  450SOL     OW 1531   0.872   2.301   6.052 -0.5134  0.1606  0.1200
  450SOL    HW2 1532   0.932   2.373   6.071  2.3851 -2.0085 -0.1648
  450SOL    HW3 1533   0.906   2.263   5.971 -2.4799 -1.0269 -0.2025
  450SOL    MW4 1534   0.884   2.306   6.044  0.5729 -0.7449  0.5404
  451SOL     OW 1535   6.346   2.650   6.031 -0.0345  0.2907 -0.3559
  451SOL    HW2 1536   6.357   2.706   5.955 -1.6695  1.0413 -0.0917
  451SOL    HW3 1537   6.381   2.702   6.104  3.6513 -1.2889 -0.7515
  451SOL    MW4 1538   6.352   2.664   6.031 -0.3696  0.3354  0.1182
  452SOL     OW 1539   1.639   1.231   3.877 -0.3541  0.2515  0.4355
  452SOL    HW2 1540   1.593   1.156   3.839 -0.0937  0.0667  0.4855
  452SOL    HW3 1541   1.731   1.218   3.854 -0.4514  1.1435 -0.5259
  452SOL    MW4 1542   1.645   1.219   3.869 -0.8047  0.6627 -0.0996
  453SOL     OW 1543   0.359   4.177   1.536  0.1888  0.1003 -0.3535
  453SOL    HW2 1544   0.290   4.171   1.470  1.8423  0.9449 -2.2556
  453SOL    HW3 1545   0.365   4.089   1.573 -1.5402 -0.1020 -0.4867
  453SOL    MW4 1546   0.351   4.164   1.532 -0.0654 -0.2221 -0.2050
  454SOL     OW 1547   1.512   6.360   1.434 -0.1909  0.6585 -0.1668
  454SOL    HW2 1548   1.532   6.438   1.382  1.0901  1.2375  1.1528
  454SOL    HW3 1549   1.520   6.389   1.525  0.9332 -1.1512  0.3582
  454SOL    MW4 1550   1.515   6.374   1.439 -0.3858  0.1004  0.3528
  455SOL     OW 1551   1.019   6.257   5.117 -0.2467  0.1731  0.4074
  455SOL    HW2 1552   0.971   6.338   5.102  1.6180  1.3917  0.7445
  455SOL    HW3 1553   1.045   6.228   5.029 -1.8946 -0.7449  0.1774
  455SOL    MW4 1554   1.016   6.264   5.103 -0.0423  0.1769 -0.6453
  456SOL     OW 1555   2.985   5.246   1.171 -0.1232  0.4188 -0.6124
  456SOL    HW2 1556   2.897   5.281   1.165 -0.3496 -0.2104 -1.1073
  456SOL    HW3 1557   3.041   5.323   1.185 -0.6562  0.9073 -1.1267
  456SOL    MW4 1558   2.981   5.261   1.172 -0.1251  0.2545 -0.3241
  457SOL     OW 1559   2.786   1.384   3.921 -0.4898  0.1323 -0.4557
  457SOL    HW2 1560   2.838   1.459   3.893  0.1838  0.3112  1.1549
  457SOL    HW3 1561   2.711   1.422   3.967 -0.0294 -0.1483  0.5673
  457SOL    MW4 1562   2.783   1.399   3.924 -0.8250  0.7113  0.0215
  458SOL     OW 1563   0.304   6.043   1.566  0.3546 -0.3346  0.4060
  458SOL    HW2 1564   0.360   6.050   1.489  1.8087  1.3624  1.5504
  458SOL    HW3 1565   0.327   6.118   1.620 -1.7908 -0.5573  1.7744
  458SOL    MW4 1566   0.314   6.054   1.563 -0.7821 -0.5145 -0.1041
  459SOL     OW 1567   6.111   3.037   5.514  0.2709  0.5937  0.0257
  459SOL    HW2 1568   6.094   2.978   5.441  0.4060  0.1488  0.3463
  459SOL    HW3 1569   6.119   3.124   5.474 -1.3140  0.6181 -0.3088
  459SOL    MW4 1570   6.110   3.041   5.499  0.0931 -0.9946  0.0915
  460SOL     OW 1571   3.221   0.200   4.903  0.0486 -0.1329 -0.0338
  460SOL    HW2 1572   3.171   0.251   4.967  0.9588 -0.6019  1.1011
  460SOL    HW3 1573   3.297   0.255   4.882  1.2864 -1.1278  1.5559
  460SOL    MW4 1574   3.225   0.214   4.909  0.7177  0.2098  0.1848
  461SOL     OW 1575   5.749   0.321   1.513 -0.5982 -0.3152  1.0972
  461SOL    HW2 1576   5.801   0.392   1.552  0.9135 -0.1699 -1.0249
  461SOL    HW3 1577   5.813   0.252   1.494 -1.4010 -0.7256 -0.2650
  461SOL    MW4 1578   5.764   0.321   1.516 -0.4596 -0.1696  0.2134
  462SOL     OW 1579   4.433   4.840   0.511  0.0174  0.3919  0.4899
  462SOL    HW2 1580   4.492   4.804   0.446 -1.1466  0.4559 -0.6561
  462SOL    HW3 1581   4.357   4.782   0.510  0.3917 -0.2001  2.5637
  462SOL    MW4 1582   4.431   4.828   0.503  0.2477  0.5883  0.0589
  463SOL     OW 1583   5.284   3.414   1.962  0.0701 -0.1015  0.4495
  463SOL    HW2 1584   5.251   3.423   1.873  2.0087 -1.7302 -0.5312
  463SOL    HW3 1585   5.259   3.325   1.988  1.2553 -0.3784  0.7120
  463SOL    MW4 1586   5.276   3.403   1.954  0.1117  0.7627 -0.1218
  464SOL     OW 1587   4.629   2.476   6.301  0.3366 -0.0281 -0.2259
  464SOL    HW2 1588   4.711   2.436   6.331  0.4436 -0.0219 -0.5093
  464SOL    HW3 1589   4.651   2.567   6.284  0.2495 -0.0042 -0.2103
  464SOL    MW4 1590   4.642   2.483   6.303  0.9127 -0.2141  0.7410
  465SOL     OW 1591   1.724   4.916   2.653  0.6119 -0.5800  0.9810
  465SOL    HW2 1592   1.697   4.953   2.737 -3.4648  0.7478 -0.6392
  465SOL    HW3 1593   1.727   4.991   2.593  2.7064 -1.5793 -0.2557
  465SOL    MW4 1594   1.721   4.931   2.656 -0.0205 -0.1313  0.2012
  466SOL     OW 1595   4.856   3.413   2.094 -0.3041  0.2953  0.4438
  466SOL    HW2 1596   4.916   3.453   2.032 -1.0099  0.5040 -0.1238
  466SOL    HW3 1597   4.832   3.330   2.054  0.0636 -0.0619  0.9511
  466SOL    MW4 1598   4.861   3.407   2.081  0.1202  1.0130  0.6166
  467SOL     OW 1599   3.384   5.125   0.454 -0.1894 -0.3632  0.1259
  467SOL    HW2 1600   3.404   5.148   0.545 -1.2784  0.3728  0.2011
  467SOL    HW3 1601   3.321   5.191   0.427 -0.1892 -0.8292 -1.0399
  467SOL    MW4 1602   3.378   5.137   0.463 -0.5001  0.0693 -0.0960
  468SOL     OW 1603   4.200   4.901   4.493  0.2119 -0.0021 -0.1861
  468SOL    HW2 1604   4.183   4.982   4.542 -2.5822  1.6155 -3.4198
  468SOL    HW3 1605   4.296   4.896   4.490  0.5149  1.2719  2.8970
  468SOL    MW4 1606   4.211   4.911   4.499  0.8819 -0.6266 -0.1489
  469SOL     OW 1607   5.500   3.156   4.135  0.4955 -0.5389  0.1950
  469SOL    HW2 1608   5.517   3.073   4.090 -0.2877  0.2091 -1.5681
  469SOL    HW3 1609   5.438   3.134   4.204 -0.0245 -1.3622 -0.5176
  469SOL    MW4 1610   5.494   3.142   4.138 -0.4374  0.2763 -0.2339
  470SOL     OW 1611   1.048   6.123   6.384 -0.3731  0.6937  0.1679
  470SOL    HW2 1612   0.992   6.093   6.313 -0.9032  1.6595  0.1574
  470SOL    HW3 1613   0.987   6.160   6.448  0.1769  0.8103  0.6277
  470SOL    MW4 1614   1.032   6.124   6.383 -0.0320 -0.5020  0.4061
  471SOL     OW 1615   0.436   3.589   6.379  0.5409 -0.1052  0.6342
  471SOL    HW2 1616   0.499   3.648   6.420  0.0019  0.9187  0.0148
  471SOL    HW3 1617   0.381   3.559   6.451 -1.2678  2.7261  0.5567
  471SOL    MW4 1618   0.437   3.593   6.394 -0.4349  0.3877  0.0401
  472SOL     OW 1619   2.982   6.065   0.178 -0.2606  0.2089 -0.7303
  472SOL    HW2 1620   3.011   6.015   0.102  1.3791  1.3659 -0.9275
  472SOL    HW3 1621   3.030   6.027   0.252 -1.3613 -0.4955 -0.3623
  472SOL    MW4 1622   2.992   6.054   0.178 -0.1355  0.4096 -0.3451
  473SOL     OW 1623   0.102   5.660   3.899  0.2588  0.2699  0.2833
  473SOL    HW2 1624   0.174   5.720   3.920  2.1062 -2.0302  0.9545
  473SOL    HW3 1625   0.089   5.610   3.980 -3.0660  1.4310  0.6269
  473SOL    MW4 1626   0.110   5.661   3.913  0.4105  0.3162  0.0468
  474SOL     OW 1627   3.331   2.203   5.818  0.2078 -0.3759 -0.0118
  474SOL    HW2 1628   3.378   2.265   5.762  0.0417 -0.6007 -0.4032
  474SOL    HW3 1629   3.391   2.129   5.830  0.0824 -0.5126 -0.2332
  474SOL    MW4 1630   3.345   2.202   5.813 -0.1052  0.1366  0.2147
  475SOL     OW 1631   5.162   5.112   3.240  0.0131  0.5399 -0.3885
  475SOL    HW2 1632   5.145   5.040   3.178 -0.3462  2.1982 -2.3209
  475SOL    HW3 1633   5.087   5.111   3.299  0.0280 -0.6711 -0.3614
  475SOL    MW4 1634   5.150   5.102   3.239 -0.2652  0.0319 -0.4123
  476SOL     OW 1635   2.945   4.654   1.896 -0.2906 -0.1877 -0.1762
  476SOL    HW2 1636   2.969   4.587   1.960 -1.2833  0.4672  0.9136
  476SOL    HW3 1637   2.884   4.611   1.837  0.3074 -0.6745 -0.4560
  476SOL    MW4 1638   2.940   4.639   1.896  0.4442  0.1904  0.1154
  477SOL     OW 1639   3.463   4.000   0.048  0.2948  0.3165  0.1800
  477SOL    HW2 1640   3.537   4.058   0.029  0.2972 -0.0699 -1.0840
  477SOL    HW3 1641   3.386   4.051   0.022  0.2571 -0.0176 -0.3684
  477SOL    MW4 1642   3.463   4.014   0.042 -0.6072 -0.1677  0.5703
  478SOL     OW 1643   5.253   3.227   5.039  0.3489  0.1907 -0.2042
  478SOL    HW2 1644   5.272   3.315   5.070  1.1266 -0.1804  0.4005
  478SOL    HW3 1645   5.161   3.230   5.012  0.2710  1.0843  0.1424
  478SOL    MW4 1646   5.244   3.239   5.040 -0.2968  0.1858 -0.3418
  479SOL     OW 1647   3.353   6.402   2.299 -0.0536 -0.4645 -0.2509
  479SOL    HW2 1648   3.416   6.393   2.227 -1.6676 -1.2787 -1.6383
  479SOL    HW3 1649   3.282   6.341   2.277 -0.1723 -1.4976  2.5627
  479SOL    MW4 1650   3.352   6.393   2.287  0.1676 -0.1101  0.2516
  480SOL     OW 1651   2.459   3.351   0.829  0.0311 -0.3620  0.0083
  480SOL    HW2 1652   2.510   3.286   0.780  0.2973  0.7303 -1.2167
  480SOL    HW3 1653   2.525   3.402   0.877 -0.0424 -0.0097 -0.2622
  480SOL    MW4 1654   2.475   3.349   0.829 -0.0199  0.1714  0.2616
  481SOL     OW 1655   4.203   0.274   0.017  0.0657 -0.1630  0.2306
  481SOL    HW2 1656   4.258   0.342   0.057  0.0187  0.1076 -0.1683
  481SOL    HW3 1657   4.237   0.192   0.055  0.4946  0.0316  0.2813
  481SOL    MW4 1658   4.215   0.272   0.028 -0.2923  0.9027  0.5823
  482SOL     OW 1659   0.375   0.390   1.071 -0.1484  0.2614 -0.6616
  482SOL    HW2 1660   0.374   0.466   1.129 -0.7706 -0.2909  0.0898
  482SOL    HW3 1661   0.464   0.387   1.036  0.1800  0.7389  0.1153
  482SOL    MW4 1662   0.387   0.399   1.074  0.1465 -1.0084  0.7894
  483SOL     OW 1663   3.358   2.285   1.646 -0.5969  0.0750  0.2079
  483SOL    HW2 1664   3.448   2.316   1.639 -0.8341  0.4322 -2.1048
  483SOL    HW3 1665   3.311   2.357   1.689  0.0642  0.1808  0.7689
  483SOL    MW4 1666   3.363   2.298   1.651  0.3569 -0.5524  0.1215
  484SOL     OW 1667   5.199   2.244   2.146 -0.0818  0.3421  0.0636
  484SOL    HW2 1668   5.213   2.235   2.052 -2.4653 -1.9336 -0.1623
  484SOL    HW3 1669   5.188   2.339   2.159  0.8394  0.7602 -1.8095
  484SOL    MW4 1670   5.200   2.256   2.135 -0.7105 -0.4452  0.2145
  485SOL     OW 1671   2.551   3.834   0.860 -0.2089  0.4197  0.3672
  485SOL    HW2 1672   2.595   3.822   0.943  2.1988 -0.2872 -0.9254
  485SOL    HW3 1673   2.572   3.924   0.834  0.7333  0.0044 -0.3630
  485SOL    MW4 1674   2.559   3.844   0.867 -0.0684  0.2508 -0.2689
  486SOL     OW 1675   0.304   1.997   6.409 -0.2763  0.4279 -0.0825
  486SOL    HW2 1676   0.261   2.060   6.466  0.8648  0.7264  0.4674
  486SOL    HW3 1677   0.384   2.041   6.379 -0.6215  0.1151 -1.5593
  486SOL    MW4 1678   0.309   2.011   6.412 -0.6349 -0.7876  0.1333
  487SOL     OW 1679   5.176   4.115   5.671  0.4433 -0.4034  0.7672
  487SOL    HW2 1680   5.237   4.164   5.616 -1.7428 -0.2947 -1.7460
  487SOL    HW3 1681   5.138   4.180   5.730 -0.7363  0.5775 -0.9829
  487SOL    MW4 1682   5.179   4.130   5.671  0.3453 -0.4865 -0.1673
  488SOL     OW 1683   0.521   1.194   1.142 -0.2169  0.2597 -0.1785
  488SOL    HW2 1684   0.453   1.226   1.083 -0.6626  1.2905  0.8441
  488SOL    HW3 1685   0.587   1.155   1.085 -1.2047  0.1126 -1.2582
  488SOL    MW4 1686   0.520   1.193   1.127  0.0655  0.1851 -0.5843
  489SOL     OW 1687   2.844   2.687   3.115  0.1045  0.2102  0.4380
  489SOL    HW2 1688   2.784   2.614   3.096  0.6884  0.0324 -0.7951
  489SOL    HW3 1689   2.864   2.677   3.208  1.8412 -2.5041 -0.1138
  489SOL    MW4 1690   2.839   2.676   3.125 -0.7994  0.4760  0.0005
  490SOL     OW 1691   4.791   1.618   5.730  0.6567 -0.3141 -0.2511
  490SOL    HW2 1692   4.729   1.678   5.771 -0.9726 -1.0035 -1.5919
  490SOL    HW3 1693   4.857   1.675   5.690  1.7881  0.3933  2.4033
  490SOL    MW4 1694   4.792   1.634   5.730  0.1557  0.6472 -0.5769
  491SOL     OW 1695   2.452   5.690   1.748 -0.0295 -0.4569 -0.3948
  491SOL    HW2 1696   2.397   5.662   1.821  0.1317 -0.1914 -0.1704
  491SOL    HW3 1697   2.412   5.772   1.718  0.3984 -0.1146 -0.0524
  491SOL    MW4 1698   2.439   5.697   1.754 -0.6774  0.0649 -0.5519
  492SOL     OW 1699   5.520   6.409   5.449  0.1855  0.4295  0.2250
  492SOL    HW2 1700   5.608   6.443   5.432  0.4368 -0.3616 -0.0767
  492SOL    HW3 1701   5.468   6.487   5.470 -0.2176  1.6005 -4.1431
  492SOL    MW4 1702   5.525   6.424   5.450 -0.2938  0.1276  0.0450
  493SOL     OW 1703   2.280   4.758   3.399  0.4382 -0.2203  0.2300
  493SOL    HW2 1704   2.213   4.812   3.441  0.5488  0.9465 -1.0491
  493SOL    HW3 1705   2.282   4.678   3.452 -1.6945 -0.1422  0.5283
  493SOL    MW4 1706   2.271   4.754   3.412  0.3484  0.2441  0.1030
  494SOL     OW 1707   1.888   3.330   5.481 -0.8060  0.1675  0.4221
  494SOL    HW2 1708   1.804   3.342   5.524 -1.2412 -2.0540  0.3121
  494SOL    HW3 1709   1.927   3.255   5.526  1.0375  1.0197  0.3286
  494SOL    MW4 1710   1.882   3.322   5.493 -0.1796 -0.2390 -0.1033
  495SOL     OW 1711   2.491   1.837   0.341  1.0750 -0.1642  0.5192
  495SOL    HW2 1712   2.545   1.901   0.295  1.4040 -0.9445 -0.2122
  495SOL    HW3 1713   2.547   1.805   0.412  1.8678 -1.4672 -0.6441
  495SOL    MW4 1714   2.506   1.842   0.344 -0.4074  0.7513 -0.2403
  496SOL     OW 1715   5.465   6.283   0.966  0.5465 -1.1681 -0.3207
  496SOL    HW2 1716   5.419   6.238   0.894  0.8886 -1.4119 -0.3884
  496SOL    HW3 1717   5.396   6.300   1.031  0.2783 -1.1478 -0.6064
  496SOL    MW4 1718   5.450   6.279   0.965  0.3493 -0.0890  0.8944
  497SOL     OW 1719   0.921   6.164   5.592  0.0444 -0.1642  0.3132
  497SOL    HW2 1720   0.904   6.084   5.640 -0.8861  0.9527  1.9466
  497SOL    HW3 1721   0.944   6.135   5.504 -1.8901 -2.1564  0.3843
  497SOL    MW4 1722   0.922   6.150   5.587  0.0693 -0.1628 -0.0290
  498SOL     OW 1723   4.791   4.115   1.781  0.1420 -0.4700 -0.0529
  498SOL    HW2 1724   4.813   4.039   1.835  0.9366 -1.5314 -1.7721
  498SOL    HW3 1725   4.873   4.163   1.772  0.2508 -0.8242 -1.0650
  498SOL    MW4 1726   4.805   4.111   1.787 -0.3634  0.3146 -0.0797
  499SOL     OW 1727   0.465   1.621   5.493  0.3240  0.4959  0.5918
  499SOL    HW2 1728   0.395   1.681   5.521 -1.7878 -1.8885  0.8232
  499SOL    HW3 1729   0.513   1.601   5.573 -2.5398 -2.3792  1.8078
  499SOL    MW4 1730   0.462   1.626   5.507 -0.1452  0.1674  0.2893
  500SOL     OW 1731   5.223   5.883   3.668  0.4393 -0.1444 -0.7654
  500SOL    HW2 1732   5.298   5.904   3.723  0.5789  1.8658 -1.6397
  500SOL    HW3 1733   5.190   5.800   3.703  0.8986  0.6983  1.9378
  500SOL    MW4 1734   5.228   5.875   3.680 -0.7737  0.5886  0.1080
  501SOL     OW 1735   2.720   5.534   3.984  0.6925 -0.1239 -0.2643
  501SOL    HW2 1736   2.734   5.604   3.920 -1.1316  1.0871  0.5751
  501SOL    HW3 1737   2.702   5.457   3.930  1.0416  0.4359 -1.2114
  501SOL    MW4 1738   2.719   5.533   3.968 -0.9904  0.2841  0.2502
  502SOL     OW 1739   1.572   6.412   4.612 -0.3246 -0.0625 -0.3392
  502SOL    HW2 1740   1.477   6.422   4.612 -0.5665 -1.8628  1.7211
  502SOL    HW3 1741   1.590   6.352   4.539 -0.7925 -0.0216 -0.4912
  502SOL    MW4 1742   1.562   6.406   4.602  0.5382  0.3901 -0.2292
  503SOL     OW 1743   3.823   2.535   5.525 -0.1830  0.5309 -0.5255
  503SOL    HW2 1744   3.782   2.599   5.466 -1.4695  0.3488  0.1314
  503SOL    HW3 1745   3.912   2.566   5.536 -0.2787  1.2461 -1.5980
  503SOL    MW4 1746   3.829   2.547   5.519 -0.5745 -0.3685 -0.0989
  504SOL     OW 1747   3.043   2.554   4.058 -0.4986 -0.0500  0.0284
  504SOL    HW2 1748   3.127   2.525   4.093 -0.7149 -0.4822  0.1999
  504SOL    HW3 1749   3.043   2.649   4.072 -0.4934 -0.1888  1.0266
  504SOL    MW4 1750   3.054   2.563   4.065 -0.5142 -0.8561  0.2684
  505SOL     OW 1751   5.244   2.989   0.252  0.5385 -0.2273  0.9594
  505SOL    HW2 1752   5.223   2.942   0.171 -1.4174  0.3288  1.0994
  505SOL    HW3 1753   5.208   3.077   0.238  1.8819  0.4780  1.7025
  505SOL    MW4 1754   5.237   2.995   0.239  0.0113  0.0156 -0.0082
  506SOL     OW 1755   4.381   3.975   6.414 -0.3926 -0.5647  0.2494
  506SOL    HW2 1756   4.401   4.064   6.384 -0.0077 -0.6961  0.1045
  506SOL    HW3 1757   4.464   3.942   6.448 -0.1115 -1.4555 -1.2137
  506SOL    MW4 1758   4.394   3.982   6.415 -1.1771  0.3236  0.0169
  507SOL     OW 1759   5.673   1.275   0.091 -0.1616  0.1486 -0.0375
  507SOL    HW2 1760   5.745   1.284   0.154 -0.9098 -1.6019  1.1627
  507SOL    HW3 1761   5.664   1.362   0.053  1.5226  0.8188  0.9519
  507SOL    MW4 1762   5.681   1.287   0.094 -0.6549  0.1833 -0.4880
  508SOL     OW 1763   3.822   5.196   2.916 -0.1139  0.2111 -0.9955
  508SOL    HW2 1764   3.768   5.174   2.840  2.5881 -1.3712 -2.5959
  508SOL    HW3 1765   3.872   5.273   2.888  1.2231 -0.6480 -1.0165
  508SOL    MW4 1766   3.821   5.203   2.902  0.0794 -0.4517  0.1319
  509SOL     OW 1767   1.868   2.281   0.166 -0.2582  0.6328  0.2827
  509SOL    HW2 1768   1.881   2.321   0.252 -1.2359  0.7401  0.3947
  509SOL    HW3 1769   1.781   2.240   0.172  1.1602 -2.6284  0.6141
  509SOL    MW4 1770   1.858   2.281   0.178  0.5253 -0.5868 -0.7239
  510SOL     OW 1771   2.491   5.611   1.453 -0.4497  0.1980  0.2502
  510SOL    HW2 1772   2.500   5.609   1.549 -1.3160 -0.3791  0.3351
  510SOL    HW3 1773   2.471   5.520   1.429  0.5826  0.1744 -0.5736
  510SOL    MW4 1774   2.489   5.599   1.463 -0.0290  0.5145 -0.1308
  511SOL     OW 1775   0.004   3.896   2.611 -0.2572  0.2310 -0.7508
  511SOL    HW2 1776   0.041   3.951   2.680 -1.5344 -1.2612  1.2458
  511SOL    HW3 1777  -0.088   3.886   2.635 -0.3975 -1.5679 -1.8343
  511SOL    MW4 1778  -0.003   3.901   2.623 -0.7855 -0.1837 -0.2056
  512SOL     OW 1779   4.131   5.382   2.187 -0.6064 -0.1061 -0.3086
  512SOL    HW2 1780   4.098   5.297   2.160 -0.6616  0.2273 -1.3489
  512SOL    HW3 1781   4.141   5.375   2.282 -0.3745 -1.3427 -0.4053
  512SOL    MW4 1782   4.128   5.370   2.196 -0.0926 -0.4298 -0.2192
  513SOL     OW 1783   6.262   0.483   4.373 -0.7284 -0.4649  0.1663
  513SOL    HW2 1784   6.266   0.447   4.285  2.6791 -0.8123  0.3241
  513SOL    HW3 1785   6.297   0.571   4.365  0.0171 -0.6470  1.1969
  513SOL    MW4 1786   6.267   0.490   4.361 -0.9565 -0.0146  0.1396
  514SOL     OW 1787   5.997   2.665   3.754  0.6849 -0.0555  0.1357
  514SOL    HW2 1788   6.083   2.707   3.751  0.9086 -0.5612 -2.5586
  514SOL    HW3 1789   5.936   2.738   3.763  1.1830  0.7778 -2.4914
  514SOL    MW4 1790   6.000   2.680   3.755 -0.2433  0.8475  0.6728
  515SOL     OW 1791   4.862   0.756   1.218  0.2494  0.2787  0.2525
  515SOL    HW2 1792   4.928   0.690   1.240  0.9243  0.5896 -0.7872
  515SOL    HW3 1793   4.902   0.839   1.242 -0.9933  0.3014  2.5153
  515SOL    MW4 1794   4.876   0.758   1.224  0.2017 -0.3613 -0.8677
  516SOL     OW 1795   5.954   5.489   3.409  0.0878 -0.2761 -0.3589
  516SOL    HW2 1796   6.003   5.436   3.473 -0.7762 -1.0503 -0.3141
  516SOL    HW3 1797   5.865   5.453   3.412 -0.4019  0.8701 -0.6928
  516SOL    MW4 1798   5.949   5.477   3.418  0.7751  0.3395 -0.2434
  517SOL     OW 1799   4.499   2.113   4.793 -0.0269 -0.2380 -0.0392
  517SOL    HW2 1800   4.496   2.192   4.739 -1.3098 -0.1493  0.1281
  517SOL    HW3 1801   4.550   2.139   4.870 -3.9237  1.8904  2.1369
  517SOL    MW4 1802   4.505   2.127   4.796 -0.3898  0.0694  0.1983
  518SOL     OW 1803   6.289   4.569   0.319 -0.0012  0.4949 -0.2676
  518SOL    HW2 1804   6.275   4.496   0.379  1.0309  0.3081 -0.2388
  518SOL    HW3 1805   6.202   4.588   0.283 -0.2894 -0.7229 -0.2438
  518SOL    MW4 1806   6.276   4.562   0.322 -0.1621  0.2786 -0.0682
  519SOL     OW 1807   2.729   2.070   4.972  0.3868  0.8877  0.2713
  519SOL    HW2 1808   2.636   2.070   4.949  0.2858  0.4422  0.6669
  519SOL    HW3 1809   2.730   2.089   5.066  0.6482  0.0660  0.4409
  519SOL    MW4 1810   2.717   2.073   4.982  0.8181 -0.6520  0.2028
  520SOL     OW 1811   3.025   2.606   3.782  0.1299 -0.0803  0.0622
  520SOL    HW2 1812   3.043   2.583   3.873  1.4736  1.3581  0.2072
  520SOL    HW3 1813   3.047   2.699   3.776 -2.9310  0.6664 -0.9982
  520SOL    MW4 1814   3.031   2.615   3.793  0.5660 -0.1042 -0.5086
  521SOL     OW 1815   0.596   5.654   5.924 -0.6102  0.0065 -0.3415
  521SOL    HW2 1816   0.599   5.720   5.855 -1.4582 -0.1304 -0.5252
  521SOL    HW3 1817   0.524   5.596   5.899 -1.7956  0.6751  1.2797
  521SOL    MW4 1818   0.587   5.655   5.912 -0.3247  0.5551 -0.8846
  522SOL     OW 1819   6.105   3.416   0.561  0.5887 -0.9026  0.3103
  522SOL    HW2 1820   6.055   3.386   0.486 -0.5120  0.2758  0.5436
  522SOL    HW3 1821   6.078   3.358   0.633 -0.1242 -0.5565  0.3306
  522SOL    MW4 1822   6.095   3.404   0.561  0.6309  0.0374 -0.1348
  523SOL     OW 1823   1.659   2.241   5.902 -0.1379 -0.1291 -0.0881
  523SOL    HW2 1824   1.637   2.247   5.809 -0.5920  0.1481  0.0302
  523SOL    HW3 1825   1.717   2.315   5.918  0.1067 -0.2991 -0.1986
  523SOL    MW4 1826   1.664   2.252   5.892  0.4559  0.3575 -0.3985
  524SOL     OW 1827   0.406   1.959   3.718 -0.1587 -0.2493  0.0386
  524SOL    HW2 1828   0.363   1.924   3.796 -1.4185 -1.0855 -0.9881
  524SOL    HW3 1829   0.489   1.913   3.713 -0.5033 -0.9229  0.3531
  524SOL    MW4 1830   0.411   1.949   3.727 -0.6529 -0.6272  0.1487
  525SOL     OW 1831   6.065   2.484   1.170  0.2785 -0.0713 -0.2992
  525SOL    HW2 1832   6.127   2.535   1.118  1.3591 -1.1675 -0.1239
  525SOL    HW3 1833   6.112   2.404   1.192 -1.0426 -0.7298  0.2458
  525SOL    MW4 1834   6.079   2.480   1.166 -0.3681  0.1158  0.1898
  526SOL     OW 1835   5.416   1.851   1.961  0.8884  0.1363  0.1984
  526SOL    HW2 1836   5.511   1.863   1.963  1.6727 -4.3156 -0.3307
  526SOL    HW3 1837   5.393   1.860   1.868  0.9139  0.4537  0.2217
  526SOL    MW4 1838   5.426   1.854   1.949  0.3130  0.3590 -0.1040
  527SOL     OW 1839   1.143   2.280   5.642  0.1762  0.2067 -0.3775
  527SOL    HW2 1840   1.211   2.249   5.701  1.1895  0.8994 -1.1643
  527SOL    HW3 1841   1.066   2.291   5.699  0.2477 -1.9757  0.2509
  527SOL    MW4 1842   1.142   2.277   5.657 -0.3790  0.0287  0.3264
  528SOL     OW 1843   4.972   5.685   2.849 -0.4832 -0.2445 -0.3202
  528SOL    HW2 1844   4.959   5.650   2.937  2.2370 -0.4102  0.0793
  528SOL    HW3 1845   4.956   5.610   2.791 -1.7540 -0.2664  0.0322
  528SOL    MW4 1846   4.968   5.670   2.853  0.0786  0.4916  0.4123
  529SOL     OW 1847   5.481   2.084   2.181 -0.4063  0.0178 -0.0446
  529SOL    HW2 1848   5.415   2.015   2.188 -0.4121  0.1719  2.4598
  529SOL    HW3 1849   5.452   2.151   2.242  0.3144  1.6599 -1.4367
  529SOL    MW4 1850   5.469   2.084   2.190 -0.2119  0.0960  0.0484
  530SOL     OW 1851   5.385   4.555   6.230 -0.8720 -0.0748 -0.3438
  530SOL    HW2 1852   5.420   4.543   6.318 -0.9286 -0.3208 -0.3526
  530SOL    HW3 1853   5.375   4.649   6.220  0.4999  0.0637 -0.6157
  530SOL    MW4 1854   5.389   4.566   6.240  0.0509  0.1449 -0.0359
  531SOL     OW 1855   5.721   0.531   6.411 -0.2652 -0.1918  0.0960
  531SOL    HW2 1856   5.754   0.602   6.467  0.9611 -0.7936  0.1740
  531SOL    HW3 1857   5.799   0.497   6.368 -0.9012 -1.1948 -0.2892
  531SOL    MW4 1858   5.736   0.536   6.413  0.5219  0.1886 -0.3671
  532SOL     OW 1859   0.117   3.740   0.310  0.0337  0.4042  0.4954
  532SOL    HW2 1860   0.069   3.674   0.360  0.2925  0.8408  1.3462
  532SOL    HW3 1861   0.071   3.745   0.226  0.1814 -1.0517  0.3011
  532SOL    MW4 1862   0.105   3.732   0.305 -0.2990  0.2946 -0.1041
  533SOL     OW 1863   4.660   5.060   1.608 -0.4837 -0.0720 -0.0913
  533SOL    HW2 1864   4.715   4.983   1.623 -0.4841  0.1544  1.1419
  533SOL    HW3 1865   4.574   5.037   1.643 -0.3568  0.6450  0.7352
  533SOL    MW4 1866   4.656   5.047   1.614 -0.4904 -0.1980 -0.1898
  534SOL     OW 1867   6.214   2.467   1.875 -0.0739  0.2572 -0.7957
  534SOL    HW2 1868   6.136   2.506   1.915 -0.1034  0.3639 -0.9544
  534SOL    HW3 1869   6.192   2.375   1.865  0.4011 -0.0240  0.5790
  534SOL    MW4 1870   6.201   2.460   1.879 -0.1123  0.0097 -0.3494
  535SOL     OW 1871   1.582   1.248   1.339 -0.0638 -0.1851  0.1669
  535SOL    HW2 1872   1.537   1.306   1.278  0.1175  0.4043  0.5799
  535SOL    HW3 1873   1.515   1.225   1.404  0.1328  0.4273  0.5973
  535SOL    MW4 1874   1.567   1.252   1.340  0.3053 -0.0906 -1.1078
  536SOL     OW 1875   2.833   2.039   3.892  0.4760  0.0824 -0.2972
  536SOL    HW2 1876   2.857   2.123   3.930 -1.6943  1.3804 -1.5825
  536SOL    HW3 1877   2.915   2.002   3.860  1.4651  1.7381  0.2253
  536SOL    MW4 1878   2.847   2.045   3.893 -0.0129 -0.1477  0.5016
  537SOL     OW 1879   4.173   5.440   4.735 -0.0706  0.2325 -0.3629
  537SOL    HW2 1880   4.176   5.485   4.650 -0.2911  1.0418  0.0531
  537SOL    HW3 1881   4.088   5.464   4.772 -0.6245 -1.3341 -0.5598
  537SOL    MW4 1882   4.162   5.449   4.728 -0.6213 -0.1893  0.3945
  538SOL     OW 1883   0.104   2.901   3.218  0.0287 -0.1226  0.4180
  538SOL    HW2 1884   0.088   2.807   3.224 -1.4665 -0.0887 -1.7418
  538SOL    HW3 1885   0.131   2.915   3.127  0.5547  1.4911  0.7942
  538SOL    MW4 1886   0.105   2.891   3.206 -0.1121 -0.3415  0.4357
  539SOL     OW 1887   5.865   0.378   5.673  0.8792 -0.4154 -0.0154
  539SOL    HW2 1888   5.934   0.406   5.733  0.6421 -0.8513  0.4647
  539SOL    HW3 1889   5.784   0.394   5.720  0.5405  1.4967 -1.1335
  539SOL    MW4 1890   5.864   0.384   5.687 -0.4147 -0.2261  0.3388
  540SOL     OW 1891   5.675   6.043   4.986 -0.0583  0.6743 -0.3149
  540SOL    HW2 1892   5.614   5.983   5.029  0.1381 -0.2621 -1.2848
  540SOL    HW3 1893   5.762   6.013   5.014  0.2082 -1.2981 -2.8717
  540SOL    MW4 1894   5.679   6.031   4.995 -0.2978 -0.0651 -0.4914
  541SOL     OW 1895   2.645   5.328   5.469  0.0668  0.0378  0.6180
  541SOL    HW2 1896   2.569   5.370   5.429  0.1461  0.3216  0.7639
  541SOL    HW3 1897   2.720   5.373   5.431  0.3340 -2.4495 -2.1198
  541SOL    MW4 1898   2.645   5.340   5.459 -0.1694 -0.6876 -0.3847
  542SOL     OW 1899   3.884   4.109   6.103  0.5209  0.5624 -0.3792
  542SOL    HW2 1900   3.912   4.180   6.045  0.4163  1.5015  0.6972
  542SOL    HW3 1901   3.887   4.146   6.191 -0.2484 -0.5417  0.1444
  542SOL    MW4 1902   3.888   4.123   6.107 -0.4277  0.2626  0.2917
  543SOL     OW 1903   5.748   5.784   3.041  0.9572 -0.4331 -0.2036
  543SOL    HW2 1904   5.760   5.826   3.127  2.2366 -0.2478 -0.4577
  543SOL    HW3 1905   5.725   5.694   3.062  0.2631 -0.1413  0.3367
  543SOL    MW4 1906   5.747   5.778   3.055 -0.4527  0.0098  0.0604
  544SOL     OW 1907   4.175   1.353   6.336 -0.0814  0.7653  0.8132
  544SOL    HW2 1908   4.155   1.435   6.290 -0.0664  1.4740  2.0313
  544SOL    HW3 1909   4.136   1.285   6.281 -1.9893  1.7574  0.8598
  544SOL    MW4 1910   4.168   1.355   6.323  0.4320  0.8894 -0.2835
  545SOL     OW 1911   0.170   1.011   3.480  0.2782 -0.3031  0.0420
  545SOL    HW2 1912   0.249   0.961   3.499  0.4653  0.3416  1.0682
  545SOL    HW3 1913   0.117   0.953   3.426  1.3326 -0.8446 -0.4494
  545SOL    MW4 1914   0.174   0.997   3.475 -0.2755  0.3151 -0.1880
  546SOL     OW 1915   2.136   5.897   5.866 -0.6507 -0.3513 -0.3347
  546SOL    HW2 1916   2.163   5.885   5.775 -0.2000  0.5501 -0.3289
  546SOL    HW3 1917   2.218   5.895   5.916 -0.5668  2.0617 -0.2714
  546SOL    MW4 1918   2.151   5.895   5.861 -0.3033 -0.0290  0.0793
  547SOL     OW 1919   5.997   3.201   5.243  0.5700  0.8466 -0.2584
  547SOL    HW2 1920   5.921   3.163   5.287  2.3721 -1.2434  1.2993
  547SOL    HW3 1921   6.000   3.291   5.273 -2.3521  1.6489 -1.9596
  547SOL    MW4 1922   5.988   3.208   5.253 -0.1038 -0.2780  0.3734
  548SOL     OW 1923   5.052   0.897   4.631  0.9565  0.3786 -0.4361
  548SOL    HW2 1924   5.139   0.935   4.642  0.7178  0.5469  1.1265
  548SOL    HW3 1925   5.036   0.849   4.713 -0.3671  0.2393 -0.7425
  548SOL    MW4 1926   5.061   0.895   4.644 -0.0848  0.6263  0.0664
  549SOL     OW 1927   2.844   1.021   5.927  0.2771  0.4078  0.2324
  549SOL    HW2 1928   2.869   1.096   5.872  1.4513 -0.0923  0.0397
  549SOL    HW3 1929   2.804   0.959   5.866 -0.6357  0.8413  0.3802
  549SOL    MW4 1930   2.842   1.023   5.912 -0.0168 -0.0560  0.7957
  550SOL     OW 1931   3.501   6.324   4.265  0.3890 -0.5166 -0.3892
  550SOL    HW2 1932   3.447   6.305   4.341 -0.2015 -0.6800 -0.8400
  550SOL    HW3 1933   3.590   6.300   4.291  0.0181 -1.6341 -0.1287
  550SOL    MW4 1934   3.506   6.318   4.278 -0.2441 -0.2071  0.8427
  551SOL     OW 1935   3.316   1.683   3.718 -0.1743 -0.1971 -0.2384
  551SOL    HW2 1936   3.327   1.728   3.634  0.0289 -2.2085 -1.3629
  551SOL    HW3 1937   3.324   1.752   3.784 -0.3559  1.4500 -1.8587
  551SOL    MW4 1938   3.318   1.698   3.716 -0.4875 -0.2092  0.2000
  552SOL     OW 1939   0.102   5.540   4.151 -0.5323  0.7066  0.3183
  552SOL    HW2 1940   0.123   5.625   4.189  0.9459  0.1713  0.7757
  552SOL    HW3 1941   0.157   5.478   4.199 -0.2476 -0.2836 -1.2179
  552SOL    MW4 1942   0.112   5.543   4.162 -0.0182 -0.0646 -0.1632
  553SOL     OW 1943   3.511   4.773   5.192  0.4246 -0.3402 -0.2277
  553SOL    HW2 1944   3.598   4.776   5.231  0.0007  0.5632  0.7158
  553SOL    HW3 1945   3.525   4.801   5.101  1.8711 -5.2221 -1.7932
  553SOL    MW4 1946   3.524   4.777   5.185 -0.2522 -0.1045 -0.2213
  554SOL     OW 1947   0.077   6.380   1.370  0.3691  0.2452  0.2994
  554SOL    HW2 1948   0.056   6.417   1.456  0.1230  0.4290  0.1602
  554SOL    HW3 1949   0.097   6.455   1.315  1.0972  0.0951  0.3443
  554SOL    MW4 1950   0.077   6.395   1.374  0.0200 -0.3444 -0.3037
  555SOL     OW 1951   5.662   0.720   0.912 -0.0360 -0.5426 -0.1298
  555SOL    HW2 1952   5.596   0.654   0.933 -0.1039 -0.7045 -0.8157
  555SOL    HW3 1953   5.634   0.798   0.959  0.0949 -1.0260  0.7703
  555SOL    MW4 1954   5.650   0.721   0.921 -0.2255  0.0376 -0.0825
  556SOL     OW 1955   6.103   4.192   3.427 -0.1722  0.6602  0.3225
  556SOL    HW2 1956   6.106   4.274   3.477 -0.4179  2.1442 -1.9397
  556SOL    HW3 1957   6.029   4.203   3.367  1.4472  0.0210 -1.9421
  556SOL    MW4 1958   6.094   4.205   3.426 -0.6150 -0.4892  0.2608
  557SOL     OW 1959   2.138   4.032   6.002  0.3791 -0.0272 -0.1632
  557SOL    HW2 1960   2.147   4.127   6.012  0.1968 -0.0307  0.0464
  557SOL    HW3 1961   2.202   4.008   5.935  0.8415  0.1645  0.2059
  557SOL    MW4 1962   2.148   4.041   5.995  0.3068 -0.1245 -0.1415
  558SOL     OW 1963   4.104   0.223   0.348 -0.4994 -0.0281 -0.2331
  558SOL    HW2 1964   4.197   0.202   0.342  0.0917  2.0622  0.7227
  558SOL    HW3 1965   4.095   0.307   0.303 -2.1936 -0.8107 -1.4462
  558SOL    MW4 1966   4.115   0.231   0.342  0.7540  0.0222 -0.4683
  559SOL     OW 1967   3.887   0.424   4.056  0.2404 -0.2082  0.2212
  559SOL    HW2 1968   3.866   0.383   3.973  0.2242  0.9412 -0.3646
  559SOL    HW3 1969   3.960   0.482   4.037  0.6784 -0.4243  1.1608
  559SOL    MW4 1970   3.894   0.427   4.043  0.7827 -0.6968  0.1952
  560SOL     OW 1971   0.715   1.096   0.963 -0.0554 -0.1520 -0.2501
  560SOL    HW2 1972   0.733   1.055   0.879  0.2321  0.3933 -0.4583
  560SOL    HW3 1973   0.770   1.175   0.964 -1.5766  0.9689 -0.4456
  560SOL    MW4 1974   0.725   1.101   0.952  0.3426 -0.7023 -0.3672
  561SOL     OW 1975   4.547   6.407   3.930 -0.3947 -0.3901  0.1310
  561SOL    HW2 1976   4.585   6.492   3.910  0.5925  0.0475  3.3013
  561SOL    HW3 1977   4.621   6.347   3.930 -1.1414 -1.4126 -2.4621
  561SOL    MW4 1978   4.562   6.410   3.927  0.4995 -0.8027 -0.2605
  562SOL     OW 1979   1.398   0.037   0.307  0.0944 -0.0294  0.1185
  562SOL    HW2 1980   1.443   0.038   0.392  0.6475  0.2537 -0.1674
  562SOL    HW3 1981   1.453  -0.018   0.251 -0.6304 -0.7753  0.1276
  562SOL    MW4 1982   1.412   0.030   0.311  0.2418  0.0115  0.0318
  563SOL     OW 1983   5.322   1.597   4.408 -0.1638  0.7123 -0.4522
  563SOL    HW2 1984   5.410   1.560   4.418 -0.5581 -0.2632 -0.4479
  563SOL    HW3 1985   5.321   1.673   4.465 -0.9222 -2.0982  3.6960
  563SOL    MW4 1986   5.333   1.602   4.417 -0.2647  0.6169  0.1754
  564SOL     OW 1987   5.104   5.174   6.418 -0.6735  0.5392  0.4082
  564SOL    HW2 1988   5.079   5.184   6.327  2.4964 -1.5798 -0.8577
  564SOL    HW3 1989   5.190   5.216   6.425  0.2660 -1.4516  1.7438
  564SOL    MW4 1990   5.112   5.181   6.407  0.0322  0.4776 -0.7364
  565SOL     OW 1991   1.669   2.133   2.370  0.0026  0.4487 -0.1458
  565SOL    HW2 1992   1.710   2.167   2.290  0.3203  0.5628  0.0652
  565SOL    HW3 1993   1.660   2.039   2.354 -4.1066  0.9644 -2.2214
  565SOL    MW4 1994   1.673   2.125   2.357  0.4190 -0.1437  0.2930
  566SOL     OW 1995   2.416   5.674   5.718 -0.3444  0.1202 -0.3372
  566SOL    HW2 1996   2.371   5.755   5.695 -0.7577 -0.1049 -0.3285
  566SOL    HW3 1997   2.509   5.698   5.720 -0.6178  1.1949  2.1831
  566SOL    MW4 1998   2.423   5.688   5.715 -1.4295  0.2361 -0.0837
  567SOL     OW 1999   2.031   2.052   3.871  0.2278  0.1701  0.5743
  567SOL    HW2 2000   2.052   2.145   3.862 -1.1100  0.2723 -2.3841
  567SOL    HW3 2001   2.113   2.013   3.902  1.3664  2.0601  0.1344
  567SOL    MW4 2002   2.045   2.059   3.874  0.0341  0.2575 -0.0635
  568SOL     OW 2003   4.130   0.497   4.458 -0.1724 -0.4494 -0.4560
  568SOL    HW2 2004   4.096   0.521   4.545 -0.3860 -0.5133 -0.5226
  568SOL    HW3 2005   4.225   0.503   4.468 -0.2247  1.8149 -0.8476
  568SOL    MW4 2006   4.138   0.501   4.471 -0.6198  0.2981  0.0705
  569SOL     OW 2007   5.059   2.577   2.938  0.3750  0.1455 -0.0913
  569SOL    HW2 2008   5.008   2.563   3.017 -2.0381  0.6401 -1.4492
  569SOL    HW3 2009   5.045   2.499   2.885 -0.8000  1.1702 -1.3783
  569SOL    MW4 2010   5.050   2.565   2.941  0.6915  1.1261  0.0630
  570SOL     OW 2011   5.795   1.282   6.092 -0.0772 -0.2116 -0.6285
  570SOL    HW2 2012   5.812   1.258   6.183 -2.7703 -0.6688 -0.1503
  570SOL    HW3 2013   5.701   1.300   6.090  0.1845  1.2306 -3.0306
  570SOL    MW4 2014   5.785   1.281   6.104  0.5562  0.6206 -0.0999
  571SOL     OW 2015   5.314   5.262   4.843  0.1669 -0.0616  0.2549
  571SOL    HW2 2016   5.228   5.300   4.862  0.8471  1.5865  0.2307
  571SOL    HW3 2017   5.341   5.306   4.762  0.3037 -1.8573 -0.7244
  571SOL    MW4 2018   5.306   5.273   4.835 -0.0190 -0.6951 -0.3226
  572SOL     OW 2019   3.673   1.402   2.420  0.2675 -0.0520  0.6177
  572SOL    HW2 2020   3.760   1.369   2.397  0.3192  0.6554 -0.2292
  572SOL    HW3 2021   3.624   1.399   2.338 -0.7599 -1.1688  1.2422
  572SOL    MW4 2022   3.678   1.397   2.406 -0.3109 -0.1845 -0.0231
  573SOL     OW 2023   3.611   4.155   2.502 -0.3983 -0.0802  0.3487
  573SOL    HW2 2024   3.522   4.133   2.531 -0.3754  0.3991  0.7912
  573SOL    HW3 2025   3.620   4.248   2.523  0.0305 -0.0091 -0.1574
  573SOL    MW4 2026   3.600   4.164   2.509  0.7498  0.0615  0.4856
  574SOL     OW 2027   5.800   0.306   0.976 -0.3444  0.0866  0.2941
  574SOL    HW2 2028   5.759   0.383   1.014 -1.0223 -0.6351  1.0433
  574SOL    HW3 2029   5.737   0.236   0.988  0.5212 -0.7328  0.1896
  574SOL    MW4 2030   5.786   0.307   0.983 -0.2956  0.1999  1.3944
  575SOL     OW 2031   1.279   2.293   2.999 -0.0827  0.9900 -0.0391
  575SOL    HW2 2032   1.362   2.248   3.011  1.4279  3.6248  0.1849
  575SOL    HW3 2033   1.276   2.312   2.905 -0.0954  1.5009  0.0636
  575SOL    MW4 2034   1.289   2.290   2.988  0.2018 -0.0361  0.2962
  576SOL     OW 2035   5.600   4.008   3.171 -0.2354  0.0187  0.2807
  576SOL    HW2 2036   5.567   4.095   3.148  1.0232  0.6929  0.9227
  576SOL    HW3 2037   5.678   3.997   3.117 -0.6533 -0.9331 -0.1497
  576SOL    MW4 2038   5.606   4.018   3.161 -0.4360 -0.6748  0.2341
  577SOL     OW 2039   4.784   1.423   1.552  0.5271 -0.2645  0.1544
  577SOL    HW2 2040   4.861   1.455   1.504  0.6005 -0.6088  0.0427
  577SOL    HW3 2041   4.710   1.452   1.499  0.5888 -0.1862  0.1086
  577SOL    MW4 2042   4.785   1.431   1.539 -0.9805  0.0276  0.1149
  578SOL     OW 2043   5.492   1.623   0.110 -0.6046  0.1808 -0.2293
  578SOL    HW2 2044   5.419   1.602   0.052 -1.9017  0.7113  1.1379
  578SOL    HW3 2045   5.469   1.708   0.148  1.3497  0.9727 -0.7026
  578SOL    MW4 2046   5.479   1.631   0.108 -0.0276 -0.5462  0.4401
  579SOL     OW 2047   0.907   4.917   4.006  0.3896 -0.2889  0.4527
  579SOL    HW2 2048   0.853   4.899   3.929 -1.3459  2.4390  0.9161
  579SOL    HW3 2049   0.963   4.990   3.980  1.6525 -1.0116  1.0223
  579SOL    MW4 2050   0.907   4.924   3.992 -0.6645 -0.5621 -0.0438
  580SOL     OW 2051   5.169   2.866   4.906 -0.4813  0.0719  0.6233
  580SOL    HW2 2052   5.133   2.947   4.869 -0.1761 -0.6228 -1.3112
  580SOL    HW3 2053   5.181   2.808   4.830 -1.4457 -2.0985  2.0044
  580SOL    MW4 2054   5.166   2.869   4.891 -0.3587 -0.4091  0.3063
  581SOL     OW 2055   3.595   2.429   4.093  0.1685  0.3084 -0.7098
  581SOL    HW2 2056   3.558   2.341   4.102 -0.8993  0.7912 -0.1810
  581SOL    HW3 2057   3.520   2.485   4.075  0.5955  1.3640  0.6045
  581SOL    MW4 2058   3.580   2.425   4.092 -0.8501  0.4335  0.4723
  582SOL     OW 2059   0.173   6.138   0.013 -0.3016 -0.3319 -0.8779
  582SOL    HW2 2060   0.117   6.194   0.067 -0.5003 -1.0024 -0.3721
  582SOL    HW3 2061   0.115   6.068  -0.017  0.1250 -0.6967 -0.8642
  582SOL    MW4 2062   0.158   6.136   0.016  0.7534 -0.0139 -0.3716
  583SOL     OW 2063   5.474   4.522   0.072  0.5716 -0.0694 -0.2879
  583SOL    HW2 2064   5.516   4.526   0.158 -0.7650 -1.6557  0.4891
  583SOL    HW3 2065   5.395   4.576   0.081  2.9512  4.2150 -2.2048
  583SOL    MW4 2066   5.469   4.529   0.084 -0.4390 -0.2698 -0.0278
  584SOL     OW 2067   1.212   3.872   1.968  0.1391  0.1271  0.5481
  584SOL    HW2 2068   1.225   3.862   2.062 -2.5286 -0.7232  0.9229
  584SOL    HW3 2069   1.168   3.791   1.941  2.3338 -0.4095 -1.8227
  584SOL    MW4 2070   1.208   3.860   1.977  0.1126  0.2947 -0.2041
  585SOL     OW 2071   3.652   2.780   3.775  0.0288 -0.0140 -0.3075
  585SOL    HW2 2072   3.726   2.806   3.829 -0.4463 -0.7372  0.7319
  585SOL    HW3 2073   3.575   2.803   3.827 -0.4334 -1.2089 -0.4231
  585SOL    MW4 2074   3.651   2.787   3.789 -0.1387 -0.1676  0.2323
  586SOL     OW 2075   1.781   5.320   5.423 -0.3696 -0.1262  0.4043
  586SOL    HW2 2076   1.723   5.359   5.488  1.7238  0.8921  1.8036
  586SOL    HW3 2077   1.809   5.237   5.463  0.1405  0.0216  0.3638
  586SOL    MW4 2078   1.777   5.314   5.437  0.3509  0.1833  0.5366
  587SOL     OW 2079   1.542   1.136   5.905  0.0585  0.4331  0.7574
  587SOL    HW2 2080   1.637   1.127   5.906  0.1545 -0.8645 -2.9710
  587SOL    HW3 2081   1.510   1.046   5.914 -0.7815  0.7437  0.9264
  587SOL    MW4 2082   1.550   1.123   5.906 -0.1825  0.2003 -0.2190
  588SOL     OW 2083   5.039   2.522   0.771 -0.3757  0.9837 -0.2350
  588SOL    HW2 2084   5.010   2.484   0.854 -1.1828  0.5235 -0.7117
  588SOL    HW3 2085   5.123   2.563   0.791 -0.2646  0.3422  0.6659
  588SOL    MW4 2086   5.046   2.522   0.785 -0.2184 -0.0378  0.1721
  589SOL     OW 2087   6.303   2.412   0.617 -0.2455 -0.0381 -0.2164
  589SOL    HW2 2088   6.260   2.326   0.620  0.5112 -0.5018 -1.6356
  589SOL    HW3 2089   6.251   2.467   0.675 -1.2154 -1.2553  0.1130
  589SOL    MW4 2090   6.290   2.408   0.625  0.1370 -0.6538 -0.4359
  590SOL     OW 2091   0.206   0.729   6.156  0.3926 -0.4717 -0.1177
  590SOL    HW2 2092   0.167   0.745   6.070  1.6860  0.8537 -0.5148
  590SOL    HW3 2093   0.300   0.741   6.141  0.6300 -0.0992  1.5024
  590SOL    MW4 2094   0.214   0.733   6.142  0.2121  0.4517  0.6463
  591SOL     OW 2095   4.885   4.057   3.621 -0.0455  0.8908 -0.3364
  591SOL    HW2 2096   4.959   4.082   3.675 -0.3369 -0.9760  1.0287
  591SOL    HW3 2097   4.827   4.133   3.622  0.3108  1.1790  1.3787
  591SOL    MW4 2098   4.887   4.070   3.628 -0.4072  0.2368 -0.1045
  592SOL     OW 2099   2.236   6.040   0.223 -0.1622  0.3979  0.9667
  592SOL    HW2 2100   2.176   6.036   0.298  0.5489  1.3981  1.6145
  592SOL    HW3 2101   2.187   6.000   0.151 -1.0690 -0.0822  1.8226
  592SOL    MW4 2102   2.221   6.034   0.224 -0.1432  0.8212  0.5137
  593SOL     OW 2103   0.958   5.204   1.023  0.3279 -0.1099  0.3569
  593SOL    HW2 2104   1.001   5.125   1.056  3.3098  0.9030 -0.7523
  593SOL    HW3 2105   0.991   5.213   0.933 -0.9619  1.6957  0.0183
  593SOL    MW4 2106   0.968   5.195   1.015 -0.1457  0.0209 -0.2573
  594SOL     OW 2107   2.177   1.191   4.933  0.1370  0.4769 -0.1447
  594SOL    HW2 2108   2.253   1.144   4.900  0.6323  0.9409  0.2907
  594SOL    HW3 2109   2.168   1.161   5.024 -0.6634 -0.1301 -0.4133
  594SOL    MW4 2110   2.186   1.181   4.941 -0.3514 -0.4655  0.0929
  595SOL     OW 2111   3.793   5.886   1.695 -0.2628 -0.6195 -0.1073
  595SOL    HW2 2112   3.876   5.918   1.661 -0.0880  1.0137  1.6942
  595SOL    HW3 2113   3.797   5.904   1.789 -3.0273  0.4170 -0.1056
  595SOL    MW4 2114   3.804   5.892   1.703 -0.5431 -0.0181  0.8747
  596SOL     OW 2115   3.818   3.071   0.724  0.0198  0.3628 -0.9356
  596SOL    HW2 2116   3.902   3.095   0.763 -0.3951 -0.4044  0.4780
  596SOL    HW3 2117   3.789   3.151   0.679  0.8884  1.0306 -0.3391
  596SOL    MW4 2118   3.825   3.085   0.723 -0.4680 -0.3412 -1.0049
  597SOL     OW 2119   1.789   5.542   0.335  0.2990 -0.3839  0.5427
  597SOL    HW2 2120   1.729   5.591   0.279  0.3239 -1.3376 -0.3593
  597SOL    HW3 2121   1.777   5.579   0.422  1.0149  1.8722 -0.2437
  597SOL    MW4 2122   1.779   5.553   0.339 -0.1124  0.4271  0.3165
  598SOL     OW 2123   4.565   5.342   0.113  0.0515  0.0348 -0.1637
  598SOL    HW2 2124   4.469   5.338   0.119  0.1150 -0.3550  0.8902
  598SOL    HW3 2125   4.584   5.433   0.091 -0.6015 -0.1295 -1.4658
  598SOL    MW4 2126   4.555   5.354   0.111  0.7193  0.0870 -0.0406
  599SOL     OW 2127   0.748   3.421   2.995 -0.3246 -0.2669 -0.6705
  599SOL    HW2 2128   0.821   3.442   3.052 -0.4141 -0.3961 -0.5079
  599SOL    HW3 2129   0.756   3.327   2.979  0.7703  0.0733 -2.3559
  599SOL    MW4 2130   0.758   3.411   3.000  0.6583 -0.7332  0.5163
  600SOL     OW 2131   5.313   3.471   5.438 -0.1764 -0.5991 -0.1198
  600SOL    HW2 2132   5.398   3.447   5.475 -0.5682 -0.4911  0.8974
  600SOL    HW3 2133   5.269   3.387   5.423 -0.2942 -0.6307  0.3702
  600SOL    MW4 2134   5.318   3.456   5.441  0.3356 -0.1327  0.0353
  601SOL     OW 2135   4.876   2.741   4.742  0.0005 -0.3134  0.1726
  601SOL    HW2 2136   4.867   2.731   4.837 -0.4709  0.0110  0.1644
  601SOL    HW3 2137   4.835   2.825   4.722  0.7737 -0.0192 -0.2233
  601SOL    MW4 2138   4.870   2.751   4.752  0.0946  0.2304  0.0416
  602SOL     OW 2139   3.684   4.900   3.785  0.1179  0.0240 -0.5198
  602SOL    HW2 2140   3.659   4.825   3.730 -0.3049  0.1596 -0.5096
  602SOL    HW3 2141   3.603   4.948   3.799  0.6541  1.4142 -1.9128
  602SOL    MW4 2142   3.670   4.896   3.779 -0.3723 -0.1662 -0.9844
  603SOL     OW 2143   3.342   6.306   3.616  0.2239 -0.1830 -0.1302
  603SOL    HW2 2144   3.351   6.391   3.661  0.1795 -1.1473  1.8030
  603SOL    HW3 2145   3.432   6.280   3.598  0.3895 -0.7193  1.3148
  603SOL    MW4 2146   3.355   6.314   3.620  0.0017 -0.4493 -0.2192
  604SOL     OW 2147   1.899   3.577   5.815 -0.3474 -0.1009 -0.6244
  604SOL    HW2 2148   1.970   3.544   5.870 -0.0035 -2.4646 -2.3477
  604SOL    HW3 2149   1.856   3.643   5.869  0.0510 -2.1202  2.4298
  604SOL    MW4 2150   1.903   3.581   5.829  0.2534 -0.3711 -0.2457
  605SOL     OW 2151   3.257   3.685   1.217 -0.0771 -0.0770 -0.0793
  605SOL    HW2 2152   3.282   3.653   1.130 -2.4543  3.8496 -2.5547
  605SOL    HW3 2153   3.329   3.743   1.243 -0.6136  1.0490 -0.9741
  605SOL    MW4 2154   3.270   3.689   1.209 -0.1236  0.2265 -0.0620
  606SOL     OW 2155   0.119   3.744   1.090  0.4164  0.3339 -0.0057
  606SOL    HW2 2156   0.044   3.688   1.107  1.9808 -1.7709  0.3668
  606SOL    HW3 2157   0.087   3.833   1.105 -1.8287 -0.5287  0.6347
  606SOL    MW4 2158   0.105   3.748   1.094  0.9215  0.1881 -0.5250
  607SOL     OW 2159   0.394   4.793   1.651 -0.3207 -0.4175 -0.3311
  607SOL    HW2 2160   0.401   4.787   1.556 -0.1813  1.0855 -0.4396
  607SOL    HW3 2161   0.435   4.877   1.673 -2.0598  0.1822  0.8514
  607SOL    MW4 2162   0.401   4.804   1.641  0.3943 -0.4664  0.0611
  608SOL     OW 2163   1.958   5.427   5.997 -0.4379  0.2949  0.2959
  608SOL    HW2 2164   1.937   5.440   5.904 -0.0114  1.0047  0.2915
  608SOL    HW3 2165   1.874   5.429   6.041 -0.5023  2.0613  0.1556
  608SOL    MW4 2166   1.944   5.429   5.990  0.1425 -0.2703 -0.0980
  609SOL     OW 2167   4.037   6.176   5.374  0.5346 -0.0156 -0.0351
  609SOL    HW2 2168   4.104   6.214   5.431  0.6301  0.1992 -0.2879
  609SOL    HW3 2169   3.955   6.189   5.421  0.5418  0.6828 -0.2066
  609SOL    MW4 2170   4.035   6.183   5.388  0.6450 -0.2223 -0.4499
  610SOL     OW 2171   0.341   0.114   6.274 -0.1247  0.5626 -0.1938
  610SOL    HW2 2172   0.375   0.184   6.219 -0.5083  1.7430  1.0002
  610SOL    HW3 2173   0.283   0.159   6.336 -1.1311 -0.9451  0.0062
  610SOL    MW4 2174   0.337   0.129   6.275 -0.2836  0.0030 -0.4104
  611SOL     OW 2175   0.544   5.016   1.706 -0.8968 -0.3104 -0.6745
  611SOL    HW2 2176   0.630   5.002   1.665 -1.1251  0.4346 -1.4405
  611SOL    HW3 2177   0.525   5.108   1.688 -0.9267  0.0933  1.2988
  611SOL    MW4 2178   0.553   5.026   1.698 -0.2234  1.3289  0.3496
  612SOL     OW 2179   3.090   3.984   2.617 -0.1675  0.4945  0.0985
  612SOL    HW2 2180   3.185   3.983   2.632 -0.1490  1.5135  0.1159
  612SOL    HW3 2181   3.052   3.979   2.704 -0.1521 -0.4556  0.0663
  612SOL    MW4 2182   3.098   3.983   2.630  0.0398  0.2504 -0.7514
  613SOL     OW 2183   3.557   1.454   3.240  0.2967  0.1611  0.2929
  613SOL    HW2 2184   3.627   1.509   3.273 -0.4305  2.8466 -2.1626
  613SOL    HW3 2185   3.594   1.411   3.163  0.1984 -1.0566  0.9122
  613SOL    MW4 2186   3.571   1.456   3.234 -0.8222  0.5018 -0.4767
  614SOL     OW 2187   2.555   4.587   5.476  0.0365 -0.1767 -0.3717
  614SOL    HW2 2188   2.623   4.583   5.409 -0.3305  1.1703 -0.8574
  614SOL    HW3 2189   2.542   4.681   5.492  0.1628 -0.4529  1.6535
  614SOL    MW4 2190   2.562   4.599   5.469  0.3800 -0.1490 -0.5883
  615SOL     OW 2191   0.423   2.071   5.616  0.3747  0.5630 -0.4159
  615SOL    HW2 2192   0.362   2.036   5.551  1.4775 -0.8934 -0.7451
  615SOL    HW3 2193   0.374   2.074   5.697 -0.9244  2.0577 -1.2026
  615SOL    MW4 2194   0.409   2.066   5.618 -0.3154  0.2937 -0.5807
  616SOL     OW 2195   1.112   0.734   3.309 -0.0877 -0.1521 -0.4971
  616SOL    HW2 2196   1.042   0.790   3.342 -1.1779 -0.9930 -1.2983
  616SOL    HW3 2197   1.170   0.793   3.261  1.0423  0.9445  2.0430
  616SOL    MW4 2198   1.110   0.749   3.307  0.5174 -0.3403  0.6736
  617SOL     OW 2199   5.292   3.486   5.110 -0.2074  0.1125  0.1731
  617SOL    HW2 2200   5.280   3.497   5.205 -0.6232  2.4776 -0.0926
  617SOL    HW3 2201   5.383   3.513   5.095 -0.7117  1.6415 -0.3035
  617SOL    MW4 2202   5.303   3.491   5.121  0.5815  0.1240 -0.6183
  618SOL     OW 2203   3.116   0.540   0.421  0.3286 -0.4734 -0.5446
  618SOL    HW2 2204   3.044   0.478   0.426 -1.2609  1.3945  0.9322
  618SOL    HW3 2205   3.194   0.487   0.440 -0.6712 -2.3980 -1.4811
  618SOL    MW4 2206   3.117   0.525   0.424  0.2007  0.2564  0.3677
  619SOL     OW 2207   3.787   4.976   5.824 -0.0557 -0.3374 -0.2242
  619SOL    HW2 2208   3.734   4.924   5.885 -0.7021  1.1240  0.5213
  619SOL    HW3 2209   3.811   5.054   5.874  1.1824 -0.0670 -1.1938
  619SOL    MW4 2210   3.783   4.980   5.839 -0.3385 -0.2122  0.1595
  620SOL     OW 2211   1.843   0.551   4.793  0.3389  0.5509  0.4660
  620SOL    HW2 2212   1.914   0.585   4.848  0.9148  1.6004 -0.8508
  620SOL    HW3 2213   1.883   0.481   4.742  0.1083  0.3455  0.5654
  620SOL    MW4 2214   1.858   0.547   4.794  0.0444 -0.0941  0.2604
  621SOL     OW 2215   3.570   1.618   5.619 -0.2699 -0.3696 -0.4126
  621SOL    HW2 2216   3.632   1.674   5.666 -0.0056  0.0023 -1.1763
  621SOL    HW3 2217   3.493   1.614   5.675 -0.0340  0.2095 -0.0360
  621SOL    MW4 2218   3.568   1.625   5.632 -0.2739 -0.0335 -0.0251
  622SOL     OW 2219   6.040   1.009   2.823  0.1632  0.4862  0.3486
  622SOL    HW2 2220   6.081   0.958   2.754 -0.7452 -0.0632  0.1996
  622SOL    HW3 2221   5.986   1.074   2.777  0.0533  0.5283  0.5340
  622SOL    MW4 2222   6.038   1.011   2.808 -0.2729 -0.1454  0.1283
  623SOL     OW 2223   1.523   0.304   1.478  0.5486 -0.2082  0.0312
  623SOL    HW2 2224   1.437   0.266   1.497  0.9008 -0.7529  0.5778
  623SOL    HW3 2225   1.542   0.359   1.553  0.7180 -0.1664 -0.0427
  623SOL    MW4 2226   1.514   0.306   1.490  0.2809 -0.2855  0.3474
  624SOL     OW 2227   5.023   0.193   0.512  0.2357 -0.3898  0.1210
  624SOL    HW2 2228   5.058   0.230   0.593  2.9553 -1.0940 -0.6263
  624SOL    HW3 2229   5.083   0.122   0.490 -0.2149 -0.0196 -2.6795
  624SOL    MW4 2230   5.035   0.188   0.520 -0.0914 -0.3092 -0.3580
  625SOL     OW 2231   3.852   5.134   5.441 -0.0043 -0.6942 -0.2026
  625SOL    HW2 2232   3.774   5.096   5.481 -0.9077  1.1593 -0.1200
  625SOL    HW3 2233   3.889   5.190   5.510  0.6463 -0.5135 -0.6857
  625SOL    MW4 2234   3.847   5.136   5.456 -0.4274 -0.2124  0.0547
  626SOL     OW 2235   3.617   4.406   2.747  0.1468  0.8805  0.1637
  626SOL    HW2 2236   3.523   4.405   2.765 -0.0232  0.0687 -0.7310
  626SOL    HW3 2237   3.655   4.350   2.814 -0.0612  0.8070  0.2204
  626SOL    MW4 2238   3.609   4.399   2.758 -0.2587  0.0429 -0.1032
  627SOL     OW 2239   6.380   0.009   3.611 -0.0097 -0.2938 -0.6081
  627SOL    HW2 2240   6.441   0.027   3.681  0.0484  0.9699 -0.9665
  627SOL    HW3 2241   6.433   0.007   3.532 -0.3425  0.1832 -0.8466
  627SOL    MW4 2242   6.395   0.011   3.610 -0.0906 -0.1323  0.3131
  628SOL     OW 2243   5.483   0.394   3.838 -0.0102  0.1684  0.2729
  628SOL    HW2 2244   5.506   0.426   3.925 -1.2452  0.6412  0.4389
  628SOL    HW3 2245   5.568   0.374   3.797  0.7595  2.4658  0.6101
  628SOL    MW4 2246   5.497   0.395   3.844 -0.5520  0.0941 -0.0717
  629SOL     OW 2247   5.062   2.933   5.810 -0.6636 -0.1105 -0.7189
  629SOL    HW2 2248   5.052   2.943   5.905  1.1541  0.7710 -0.5728
  629SOL    HW3 2249   5.122   2.859   5.800 -0.3818  0.1716 -1.1426
  629SOL    MW4 2250   5.069   2.925   5.821  0.1905 -0.5984 -0.3165
  630SOL     OW 2251   1.504   2.094   0.631  0.2732 -0.1883 -0.4602
  630SOL    HW2 2252   1.459   2.115   0.713  1.6820 -0.6271  0.4626
  630SOL    HW3 2253   1.582   2.046   0.658 -0.0868 -1.8521 -2.1784
  630SOL    MW4 2254   1.508   2.091   0.646  0.2528  0.2500  0.3305
  631SOL     OW 2255   4.180   3.356   6.330 -0.6115  0.2092  0.4965
  631SOL    HW2 2256   4.173   3.360   6.234 -0.5680 -1.3802  0.3996
  631SOL    HW3 2257   4.273   3.352   6.347 -0.6348 -2.1706  0.4087
  631SOL    MW4 2258   4.191   3.356   6.319  0.3044 -0.0719  0.2725
  632SOL     OW 2259   3.355   4.068   2.099 -0.6372  0.7110 -0.1125
  632SOL    HW2 2260   3.370   4.098   2.010 -1.9192 -0.1118 -0.6402
  632SOL    HW3 2261   3.420   4.114   2.152  0.1290  1.2214 -1.4630
  632SOL    MW4 2262   3.365   4.078   2.094 -0.2388  0.2238  0.0591
  633SOL     OW 2263   5.339   3.165   0.604  0.2573  0.5100  0.3282
  633SOL    HW2 2264   5.298   3.189   0.688 -1.0622 -0.7522  0.0848
  633SOL    HW3 2265   5.286   3.209   0.538  0.7932  0.8291  0.1023
  633SOL    MW4 2266   5.327   3.174   0.606 -0.1704  0.2999  0.0469
  634SOL     OW 2267   0.618   2.730   2.518  0.8079  0.0320  0.1974
  634SOL    HW2 2268   0.536   2.775   2.498  0.3825 -1.4997 -1.7396
  634SOL    HW3 2269   0.596   2.670   2.588 -0.1611 -1.4617 -1.3349
  634SOL    MW4 2270   0.605   2.728   2.525  0.4540 -0.9770  0.6332
  635SOL     OW 2271   0.774   1.410   6.402  0.1463  0.1726 -0.0489
  635SOL    HW2 2272   0.709   1.450   6.344  0.2557  1.1354  0.4792
  635SOL    HW3 2273   0.835   1.365   6.343 -0.2445  0.3911 -0.6243
  635SOL    MW4 2274   0.774   1.409   6.386  0.2406  0.1682  0.0630
  636SOL     OW 2275   4.611   2.960   5.835  0.2024  0.7403  0.0193
  636SOL    HW2 2276   4.653   2.997   5.913  0.6953  0.7332 -0.2383
  636SOL    HW3 2277   4.670   2.889   5.808  0.1580  0.8962 -0.4974
  636SOL    MW4 2278   4.624   2.955   5.842 -0.1796  0.2926 -0.2040
  637SOL     OW 2279   5.435   1.359   0.747  0.1908 -0.1410  0.2507
  637SOL    HW2 2280   5.526   1.333   0.732 -0.1252 -1.0896 -0.1431
  637SOL    HW3 2281   5.400   1.293   0.807 -0.5971 -0.5838 -0.6556
  637SOL    MW4 2282   5.442   1.347   0.753  0.1903 -0.2587  0.4230
  638SOL     OW 2283   5.461   1.766   3.384  0.2499 -0.0876 -0.4650
  638SOL    HW2 2284   5.404   1.842   3.399 -2.0023 -1.6837 -0.4834
  638SOL    HW3 2285   5.472   1.726   3.470 -1.2396 -1.4784 -0.8669
  638SOL    MW4 2286   5.455   1.771   3.397 -0.3745 -0.1365 -0.1992
  639SOL     OW 2287   1.913   2.188   4.730 -0.7833 -0.2858  0.0394
  639SOL    HW2 2288   1.894   2.094   4.735 -1.1348 -0.2069  0.2111
  639SOL    HW3 2289   1.891   2.212   4.640  1.3935 -0.8099 -0.6993
  639SOL    MW4 2290   1.907   2.179   4.719  0.0856 -0.3881  0.5212
  640SOL     OW 2291   0.423   5.118   5.470 -0.0205 -0.2794  0.1631
  640SOL    HW2 2292   0.412   5.025   5.492  1.2105 -0.1064  1.6787
  640SOL    HW3 2293   0.518   5.132   5.475 -0.0195  0.6834 -1.7167
  640SOL    MW4 2294   0.434   5.107   5.473 -0.3805  0.0798 -0.1678
  641SOL     OW 2295   0.950   0.477   1.518  0.1555  1.0200  0.2858
  641SOL    HW2 2296   1.027   0.505   1.468  1.8714 -0.5983  1.8846
  641SOL    HW3 2297   0.945   0.538   1.591  0.3913  0.6642  0.6016
  641SOL    MW4 2298   0.959   0.489   1.521 -0.4716  0.1371  0.4138
  642SOL     OW 2299   1.623   6.139   2.114  0.7295  0.4978 -0.1653
  642SOL    HW2 2300   1.633   6.195   2.038  2.0811  0.0804 -0.3161
  642SOL    HW3 2301   1.566   6.189   2.173 -2.0417 -0.0073 -2.2170
  642SOL    MW4 2302   1.617   6.153   2.112  0.3430  0.0448  0.1645
  643SOL     OW 2303   2.696   2.970   3.345  0.4213  0.2296 -0.3730
  643SOL    HW2 2304   2.671   3.044   3.288 -1.3110  1.4018  1.7525
  643SOL    HW3 2305   2.769   3.003   3.397 -0.2306  0.4273  0.4441
  643SOL    MW4 2306   2.702   2.984   3.344 -0.0564  0.7173  0.2272
  644SOL     OW 2307   2.350   1.201   5.647  0.7105 -0.6235  0.5885
  644SOL    HW2 2308   2.261   1.177   5.618  0.6140  2.2651 -2.1071
  644SOL    HW3 2309   2.338   1.232   5.737 -1.0563 -0.3286  0.3039
  644SOL    MW4 2310   2.336   1.202   5.655  0.1546  0.0418  0.0460
  645SOL     OW 2311   3.903   1.435   3.826 -0.3077  0.1867  0.2058
  645SOL    HW2 2312   3.905   1.530   3.812  3.2149  0.2532  0.3275
  645SOL    HW3 2313   3.905   1.424   3.921  1.1029  0.0819  0.1916
  645SOL    MW4 2314   3.903   1.446   3.836 -0.2151 -0.1640 -0.1793
  646SOL     OW 2315   2.233   4.737   4.529  0.0624  0.4384  0.3301
  646SOL    HW2 2316   2.175   4.697   4.465 -0.8377 -0.3721  1.6003
  646SOL    HW3 2317   2.189   4.818   4.554  1.0004  1.3764 -0.9070
  646SOL    MW4 2318   2.220   4.742   4.524 -0.0062  0.1613  0.5697
  647SOL     OW 2319   2.158   5.914   1.984  0.0475  0.3941  0.5969
  647SOL    HW2 2320   2.145   5.954   1.898  0.9200 -1.6343 -0.5247
  647SOL    HW3 2321   2.071   5.916   2.024 -0.9119 -0.7481 -1.3055
  647SOL    MW4 2322   2.145   5.920   1.978  1.2980 -0.1114  0.4823
  648SOL     OW 2323   0.483   5.920   1.087  0.4479  0.2652  0.0668
  648SOL    HW2 2324   0.491   5.994   1.027  2.5342 -0.3814 -0.5478
  648SOL    HW3 2325   0.523   5.951   1.169  2.1868 -0.4039 -0.4755
  648SOL    MW4 2326   0.490   5.933   1.090 -0.9447 -0.2037 -0.0439
  649SOL     OW 2327   5.984   4.762   2.550  0.2942  0.5811  0.3499
  649SOL    HW2 2328   5.898   4.721   2.559  0.2921  0.4450 -0.2146
  649SOL    HW3 2329   6.023   4.758   2.637  0.9928 -2.1769  0.0173
  649SOL    MW4 2330   5.978   4.756   2.562 -0.0475 -0.6967 -0.1678
  650SOL     OW 2331   3.129   0.991   4.257  0.3929  0.5575  0.2150
  650SOL    HW2 2332   3.093   0.929   4.194 -0.7889  0.8141  0.6053
  650SOL    HW3 2333   3.086   1.074   4.237 -0.9705  0.3789  2.0973
  650SOL    MW4 2334   3.118   0.994   4.246 -0.3000 -0.1153  0.4611
  651SOL     OW 2335   3.134   5.093   4.528 -0.0195 -0.4035 -0.2681
  651SOL    HW2 2336   3.069   5.163   4.540  0.3058 -0.0815 -0.3791
  651SOL    HW3 2337   3.090   5.014   4.559 -0.6147 -0.2569 -0.7155
  651SOL    MW4 2338   3.119   5.092   4.533  0.5973 -0.1631  0.1295
  652SOL     OW 2339   0.434   4.907   0.596  0.8783  0.2460 -0.4410
  652SOL    HW2 2340   0.387   4.970   0.651  0.0227 -0.0506 -0.8153
  652SOL    HW3 2341   0.481   4.851   0.657 -1.3496 -1.1172  0.1143
  652SOL    MW4 2342   0.434   4.908   0.611  0.1353 -0.4500 -0.5306
  653SOL     OW 2343   5.686   3.062   3.455 -0.1077 -0.2886  0.1631
  653SOL    HW2 2344   5.656   3.151   3.474 -0.5945 -0.5817  0.8125
  653SOL    HW3 2345   5.771   3.074   3.412  0.4707  0.4676  1.4297
  653SOL    MW4 2346   5.693   3.075   3.452  0.3691  0.2567  0.4546
  654SOL     OW 2347   1.413   4.214   4.594 -0.2286 -0.9577 -0.1124
  654SOL    HW2 2348   1.431   4.178   4.507  0.0833 -1.2329  0.0616
  654SOL    HW3 2349   1.327   4.255   4.587  0.2778 -0.0005 -0.8509
  654SOL    MW4 2350   1.404   4.215   4.582  0.4653 -0.0461 -0.0928
  655SOL     OW 2351   2.852   4.118   3.909 -0.5807 -0.3063  0.0779
  655SOL    HW2 2352   2.759   4.110   3.887 -0.2918 -0.1403 -1.3098
  655SOL    HW3 2353   2.886   4.182   3.847  0.3622  0.0427  0.9275
  655SOL    MW4 2354   2.844   4.125   3.898  0.3932 -0.0019 -0.5880
  656SOL     OW 2355   3.823   1.163   2.339  0.1053  0.0215 -0.0335
  656SOL    HW2 2356   3.864   1.084   2.305  2.0647  0.7796  0.3724
  656SOL    HW3 2357   3.839   1.229   2.272 -0.5164  0.3284  0.1195
  656SOL    MW4 2358   3.831   1.161   2.326  0.7053 -0.0169 -0.3245
  657SOL     OW 2359   5.579   5.044   0.102  0.4998  0.3339  0.4363
  657SOL    HW2 2360   5.494   5.066   0.142  0.5858  0.6371  0.4529
  657SOL    HW3 2361   5.556   5.013   0.015  0.3776  0.5210  0.4003
  657SOL    MW4 2362   5.565   5.043   0.096 -0.2021  0.0595  0.0343
  658SOL     OW 2363   1.769   4.797   5.887  0.5436 -0.3240 -0.2796
  658SOL    HW2 2364   1.747   4.726   5.826 -0.3812 -0.1651 -0.1502
  658SOL    HW3 2365   1.744   4.877   5.840 -0.0006 -0.1915  0.2291
  658SOL    MW4 2366   1.762   4.798   5.873 -0.5113 -0.0918 -0.4199
  659SOL     OW 2367   0.175   5.078   2.259 -0.8074  0.2605 -0.0993
  659SOL    HW2 2368   0.267   5.065   2.279 -1.0225 -0.4238  0.4624
  659SOL    HW3 2369   0.164   5.173   2.258  0.1791  0.3860 -1.4830
  659SOL    MW4 2370   0.186   5.089   2.261 -0.5200 -0.8521 -0.3675
  660SOL     OW 2371   4.155   1.673   3.913  0.1131  0.2186 -0.0294
  660SOL    HW2 2372   4.233   1.673   3.858 -0.7469  0.5173 -1.2965
  660SOL    HW3 2373   4.082   1.679   3.851 -1.0331 -2.2012  0.9616
  660SOL    MW4 2374   4.155   1.674   3.897  0.5976 -0.2508  0.4101
  661SOL     OW 2375   5.241   4.173   3.223  0.3872  0.0651  0.4418
  661SOL    HW2 2376   5.296   4.226   3.165 -0.9053 -0.2794 -1.1582
  661SOL    HW3 2377   5.217   4.097   3.170 -1.2626 -0.0090  1.2440
  661SOL    MW4 2378   5.245   4.170   3.208 -0.6665 -0.2996 -0.0579
  662SOL     OW 2379   1.799   5.435   3.932 -0.5686 -0.0625  0.2915
  662SOL    HW2 2380   1.770   5.507   3.988 -1.5959  0.7754 -1.2598
  662SOL    HW3 2381   1.874   5.469   3.884  1.1193 -1.1903  1.9569
  662SOL    MW4 2382   1.805   5.449   3.933  0.1394  0.2896  0.3371
  663SOL     OW 2383   2.288   2.199   0.583 -0.1817 -0.2804  0.4131
  663SOL    HW2 2384   2.273   2.134   0.514 -1.3285 -0.1343  0.5062
  663SOL    HW3 2385   2.304   2.281   0.536  1.9563 -0.6975  0.2718
  663SOL    MW4 2386   2.288   2.201   0.568  0.4780 -0.6159 -0.0750
  664SOL     OW 2387   1.199   6.079   2.979 -0.3008 -0.7762 -0.6079
  664SOL    HW2 2388   1.251   6.065   3.059 -0.8197  0.1732 -0.0933
  664SOL    HW3 2389   1.255   6.046   2.909  1.5675  1.3601 -0.2111
  664SOL    MW4 2390   1.213   6.073   2.980 -0.5341  0.1864  0.1814
  665SOL     OW 2391   6.043   3.329   3.899  0.4982 -0.2257 -0.0323
  665SOL    HW2 2392   6.137   3.327   3.912  0.6509  0.5704 -0.9722
  665SOL    HW3 2393   6.030   3.306   3.807 -0.2180 -0.2146  0.0540
  665SOL    MW4 2394   6.053   3.326   3.889 -0.2062  0.0293 -0.1323
  666SOL     OW 2395   5.464   0.729   4.372 -0.1647 -0.8690  0.3368
  666SOL    HW2 2396   5.556   0.709   4.354 -0.4065 -1.5770 -0.1464
  666SOL    HW3 2397   5.455   0.822   4.353  0.4909 -0.7582  0.5463
  666SOL    MW4 2398   5.475   0.738   4.367 -0.0447 -0.1560 -0.5555
  667SOL     OW 2399   2.304   0.043   0.707  0.8383  0.0576  0.3993
  667SOL    HW2 2400   2.345   0.037   0.794 -0.0460  0.3878  0.8484
  667SOL    HW3 2401   2.211   0.028   0.723  0.7238 -0.3553 -0.5668
  667SOL    MW4 2402   2.297   0.040   0.721 -0.9141 -0.2524 -0.4973
  668SOL     OW 2403   0.906   4.271   0.333 -0.3431  0.4793  0.2149
  668SOL    HW2 2404   0.965   4.246   0.262  1.1446 -0.4046  1.6855
  668SOL    HW3 2405   0.891   4.364   0.321  0.3321  0.4604 -0.9261
  668SOL    MW4 2406   0.912   4.280   0.322  0.1587 -0.2184  0.0854
  669SOL     OW 2407   3.102   5.307   1.653 -0.6090  0.7286  0.0835
  669SOL    HW2 2408   3.053   5.297   1.734  1.8553 -1.3475  1.4333
  669SOL    HW3 2409   3.055   5.253   1.589 -0.0555 -1.4103  1.4022
  669SOL    MW4 2410   3.089   5.299   1.655  0.4727 -0.2358 -0.4189
  670SOL     OW 2411   1.279   5.053   1.812  0.2279  0.2654 -0.3279
  670SOL    HW2 2412   1.219   4.983   1.837 -0.2124  0.8413  0.2457
  670SOL    HW3 2413   1.242   5.088   1.730 -0.0012  0.3604 -0.1843
  670SOL    MW4 2414   1.266   5.049   1.804 -0.3355  0.3400 -1.1755
  671SOL     OW 2415   4.938   0.082   4.483 -0.8586 -0.1695 -0.4829
  671SOL    HW2 2416   4.959   0.028   4.407 -1.2227 -0.6027 -0.2760
  671SOL    HW3 2417   4.915   0.020   4.552  1.0921  0.1373  0.5050
  671SOL    MW4 2418   4.938   0.067   4.482  0.3354 -0.1287  0.1494
  672SOL     OW 2419   6.181   4.230   4.203 -0.0927  0.5917  0.6234
  672SOL    HW2 2420   6.257   4.284   4.226  0.0784  0.0595  1.3430
  672SOL    HW3 2421   6.119   4.244   4.275  0.1488 -0.5305  1.0735
  672SOL    MW4 2422   6.183   4.239   4.215  0.5761  0.1675 -1.1163
  673SOL     OW 2423   4.512   2.754   1.410 -0.0102 -0.0525  0.7149
  673SOL    HW2 2424   4.461   2.673   1.403  0.9256 -0.5828 -0.4122
  673SOL    HW3 2425   4.586   2.731   1.466  1.2246 -0.5575 -1.0175
  673SOL    MW4 2426   4.515   2.740   1.416 -0.1869 -0.0206 -0.5282
  674SOL     OW 2427   5.703   2.719   6.100 -0.3807 -0.0359 -0.1396
  674SOL    HW2 2428   5.718   2.745   6.191 -1.1138  0.9195 -0.2769
  674SOL    HW3 2429   5.772   2.656   6.081  1.1044  1.3856  0.3837
  674SOL    MW4 2430   5.714   2.714   6.110 -0.0253  0.0120  0.1231
  675SOL     OW 2431   5.185   0.675   3.500  0.0456  0.1498 -0.2033
  675SOL    HW2 2432   5.232   0.644   3.577 -0.0531 -0.2106 -0.2899
  675SOL    HW3 2433   5.147   0.759   3.527  0.1495  0.1031  0.0869
  675SOL    MW4 2434   5.186   0.682   3.513 -0.2199  0.1043  0.2115
  676SOL     OW 2435   5.694   1.092   4.494  0.1184  0.6298  0.1326
  676SOL    HW2 2436   5.603   1.117   4.477 -0.6186 -1.4194  0.6534
  676SOL    HW3 2437   5.725   1.056   4.411 -0.8221 -1.9928  0.8063
  676SOL    MW4 2438   5.686   1.090   4.481 -0.3250  0.4621 -0.2197
  677SOL     OW 2439   2.834   2.325   2.337 -0.6756 -0.0627  0.3201
  677SOL    HW2 2440   2.923   2.316   2.370 -0.2836 -0.1752 -0.7353
  677SOL    HW3 2441   2.779   2.326   2.416  0.0372 -2.3270  0.8951
  677SOL    MW4 2442   2.838   2.324   2.352  0.1764 -0.7886  0.4479
  678SOL     OW 2443   3.488   3.580   0.269  0.1161 -0.3547 -0.3533
  678SOL    HW2 2444   3.552   3.648   0.247  0.5567 -1.0694 -1.3614
  678SOL    HW3 2445   3.407   3.609   0.227  0.4405 -0.6988 -1.2527
  678SOL    MW4 2446   3.486   3.593   0.260 -0.7365 -0.1579 -0.1318
  679SOL     OW 2447   1.530   3.213   4.017 -0.0405  0.3149 -0.1453
  679SOL    HW2 2448   1.622   3.237   4.012  0.5941 -1.7560  0.7322
  679SOL    HW3 2449   1.527   3.141   4.079 -2.5735  1.7574  1.6135
  679SOL    MW4 2450   1.542   3.207   4.024 -0.8857  0.2004  0.1742
  680SOL     OW 2451   4.532   2.700   3.586 -0.2122 -0.0147 -0.2672
  680SOL    HW2 2452   4.617   2.699   3.540 -0.1328  0.3635 -0.1274
  680SOL    HW3 2453   4.469   2.677   3.518  0.1686 -1.9838 -0.0195
  680SOL    MW4 2454   4.535   2.697   3.571  0.0591  0.5938 -0.4656
  681SOL     OW 2455   1.416   5.677   2.450  0.0652 -0.1825 -0.6524
  681SOL    HW2 2456   1.325   5.681   2.419  0.8760  0.5410 -3.2154
  681SOL    HW3 2457   1.462   5.742   2.397  1.9060  0.2059  1.3175
  681SOL    MW4 2458   1.410   5.686   2.439 -0.4063 -0.7759 -0.5293
  682SOL     OW 2459   3.540   5.922   4.358  0.2324  0.3210 -0.0292
  682SOL    HW2 2460   3.622   5.874   4.346  0.2006  0.3521 -0.3659
  682SOL    HW3 2461   3.552   5.969   4.440 -0.4470 -1.7142  1.3205
  682SOL    MW4 2462   3.552   5.922   4.367 -0.3636 -0.4347  0.5363
  683SOL     OW 2463   5.559   1.554   1.691 -0.1776 -0.3410  0.6023
  683SOL    HW2 2464   5.576   1.506   1.772  1.2327  0.7797  0.9914
  683SOL    HW3 2465   5.643   1.592   1.667 -0.3104 -1.4376 -1.9494
  683SOL    MW4 2466   5.572   1.552   1.699 -0.0084  0.5030  0.5805
  684SOL     OW 2467   1.060   1.623   5.883  0.3918  0.2893  0.2252
  684SOL    HW2 2468   1.013   1.640   5.801  0.6583  0.3794  0.0884
  684SOL    HW3 2469   0.995   1.583   5.940  0.4201 -0.5604 -0.3174
  684SOL    MW4 2470   1.045   1.620   5.880 -0.2750  0.4019  0.5660
  685SOL     OW 2471   4.394   1.335   4.108  0.4744 -0.7377  0.2818
  685SOL    HW2 2472   4.364   1.331   4.017  0.8035 -0.3606  0.1533
  685SOL    HW3 2473   4.321   1.375   4.156  0.2351 -1.0914  0.2129
  685SOL    MW4 2474   4.381   1.340   4.102  0.1995  0.1083 -0.6015
  686SOL     OW 2475   5.266   2.505   5.509  0.4473 -0.3687 -0.2037
  686SOL    HW2 2476   5.211   2.539   5.439  1.0028  1.1318  0.0529
  686SOL    HW3 2477   5.339   2.566   5.515  0.6234 -0.6796  1.4199
  686SOL    MW4 2478   5.268   2.517   5.501 -0.1145  0.0223  0.2281
  687SOL     OW 2479   1.361   4.007   1.163 -0.1724 -0.0503  0.3577
  687SOL    HW2 2480   1.282   4.060   1.172  0.0075  0.1772  0.6078
  687SOL    HW3 2481   1.386   3.987   1.253  0.7266  0.8703  0.3255
  687SOL    MW4 2482   1.354   4.011   1.176  0.1591 -0.2879 -0.3140
  688SOL     OW 2483   1.149   4.677   1.490 -0.1289 -0.1494 -0.0247
  688SOL    HW2 2484   1.230   4.668   1.440  0.6714 -2.0965  1.4399
  688SOL    HW3 2485   1.167   4.630   1.572 -1.6730  2.0463  1.7064
  688SOL    MW4 2486   1.162   4.669   1.494 -0.0757  0.3633 -0.9186
  689SOL     OW 2487   5.121   6.230   3.576  0.2786 -0.0266 -0.5613
  689SOL    HW2 2488   5.109   6.324   3.558 -0.6340  0.1253  0.7288
  689SOL    HW3 2489   5.215   6.215   3.564  0.3864  0.9783 -1.0798
  689SOL    MW4 2490   5.132   6.241   3.572  0.0868  0.0882 -0.3325
  690SOL     OW 2491   2.581   3.237   1.573 -0.5546 -0.2358  0.2820
  690SOL    HW2 2492   2.517   3.298   1.537  1.3616  0.8292 -1.5396
  690SOL    HW3 2493   2.528   3.173   1.622 -2.9397  0.7812 -0.7944
  690SOL    MW4 2494   2.565   3.237   1.575 -0.2520 -0.2763  0.1554
  691SOL     OW 2495   1.879   5.947   6.239 -0.1880 -0.4991 -0.0105
  691SOL    HW2 2496   1.799   5.969   6.286 -0.7814 -3.1492  0.3565
  691SOL    HW3 2497   1.868   5.987   6.153 -1.5479 -0.1559  0.3044
  691SOL    MW4 2498   1.867   5.955   6.234  0.5117  0.3241  0.5200
  692SOL     OW 2499   3.304   5.878   2.795  0.2238 -0.2145  0.0465
  692SOL    HW2 2500   3.231   5.838   2.747  1.1061 -0.0680 -1.4517
  692SOL    HW3 2501   3.294   5.972   2.779  0.0970 -0.0938  0.7916
  692SOL    MW4 2502   3.293   5.886   2.787  0.3655  0.2853  0.8343
  693SOL     OW 2503   0.088   2.169   2.826  0.0413  0.0713 -0.1444
  693SOL    HW2 2504   0.010   2.189   2.773 -0.8527 -0.5403  0.8912
  693SOL    HW3 2505   0.065   2.198   2.914  1.6123  1.3252 -0.1054
  693SOL    MW4 2506   0.074   2.175   2.831  0.2104 -0.4783 -0.4709
  694SOL     OW 2507   3.791   5.780   3.695  0.2006  0.2304 -0.4109
  694SOL    HW2 2508   3.801   5.873   3.716 -1.3917 -0.1681  2.8329
  694SOL    HW3 2509   3.697   5.769   3.680  0.2432 -0.9635  0.0817
  694SOL    MW4 2510   3.780   5.791   3.696  0.9120 -0.2534 -0.6552
  695SOL     OW 2511   5.592   2.517   2.613  0.2172 -0.2038  0.1580
  695SOL    HW2 2512   5.598   2.485   2.703 -0.2773  2.2348  1.1494
  695SOL    HW3 2513   5.498   2.520   2.595  0.3224 -0.8468 -0.5256
  695SOL    MW4 2514   5.580   2.513   2.623  0.2862  0.6797  0.1073
  696SOL     OW 2515   3.631   1.253   5.390  0.3670  0.0245  0.2661
  696SOL    HW2 2516   3.614   1.212   5.305 -0.4468 -0.3095  0.5781
  696SOL    HW3 2517   3.607   1.345   5.378  1.5866  0.2835 -0.2552
  696SOL    MW4 2518   3.625   1.259   5.377  0.4015  0.2682  0.0750
  697SOL     OW 2519   5.591   4.582   1.873  0.4169 -0.8053  0.8829
  697SOL    HW2 2520   5.672   4.588   1.923 -0.2227  1.2188  1.7673
  697SOL    HW3 2521   5.534   4.526   1.926  0.2067  0.2346  1.7714
  697SOL    MW4 2522   5.594   4.575   1.886 -0.0356  0.2307  0.0739
  698SOL     OW 2523   1.281   3.598   0.074  0.0070  0.6190  0.3697
  698SOL    HW2 2524   1.261   3.670   0.016 -1.5545 -0.4159 -0.4468
  698SOL    HW3 2525   1.293   3.522   0.016 -1.8564 -0.4961  1.3325
  698SOL    MW4 2526   1.280   3.597   0.059  0.1457 -0.4571 -0.1373
  699SOL     OW 2527   2.434   4.992   2.478 -0.0456 -0.2077  0.5328
  699SOL    HW2 2528   2.415   5.011   2.570 -1.0251  1.3746  0.0483
  699SOL    HW3 2529   2.370   5.045   2.430  2.4510  1.4750 -1.1155
  699SOL    MW4 2530   2.423   5.002   2.484 -0.1845 -0.0995 -0.2253
  700SOL     OW 2531   0.543   5.522   5.049  0.4392  0.7778  0.4005
  700SOL    HW2 2532   0.494   5.502   5.129 -0.7690  0.0437 -0.4924
  700SOL    HW3 2533   0.634   5.505   5.072 -0.0126 -0.7397  1.2386
  700SOL    MW4 2534   0.548   5.517   5.063  0.2126  0.3782  0.1653
  701SOL     OW 2535   1.759   1.768   2.045  0.5079 -0.5008 -0.1726
  701SOL    HW2 2536   1.834   1.826   2.061  0.6111 -0.1419 -1.7827
  701SOL    HW3 2537   1.796   1.680   2.043  0.6799 -0.4394  0.2961
  701SOL    MW4 2538   1.773   1.764   2.047  0.0601  0.7223 -0.0857
  702SOL     OW 2539   0.132   5.974   6.095 -0.6310 -0.6434  0.1453
  702SOL    HW2 2540   0.148   6.054   6.045  0.6402 -0.0442  1.4625
  702SOL    HW3 2541   0.038   5.958   6.085 -0.5461 -0.1442 -1.8012
  702SOL    MW4 2542   0.122   5.983   6.087 -0.3332 -0.1021  0.0140
  703SOL     OW 2543   5.329   2.925   3.089 -0.7943 -0.1501 -0.6855
  703SOL    HW2 2544   5.380   2.867   3.031 -0.2362  0.5188 -0.8769
  703SOL    HW3 2545   5.254   2.952   3.036 -0.4889  0.1510 -0.9721
  703SOL    MW4 2546   5.326   2.921   3.074 -0.0035 -0.7663 -0.2678
  704SOL     OW 2547   2.129   6.316   0.336  0.1159 -0.0251 -0.3612
  704SOL    HW2 2548   2.081   6.340   0.256  1.4596 -3.7713 -2.5209
  704SOL    HW3 2549   2.211   6.279   0.304  1.4845 -0.1119  2.9168
  704SOL    MW4 2550   2.133   6.315   0.321  0.1262 -0.1078 -0.5578
  705SOL     OW 2551   0.014   1.031   2.299  0.0514  0.3684  0.4688
  705SOL    HW2 2552  -0.074   1.011   2.331 -0.3277  1.1426 -0.0582
  705SOL    HW3 2553   0.006   1.026   2.204  1.0155 -1.3169  0.4428
  705SOL    MW4 2554   0.001   1.028   2.291  0.3143  0.2989 -0.0094
  706SOL     OW 2555   5.786   4.796   0.865  0.0620 -0.1252 -0.0733
  706SOL    HW2 2556   5.873   4.835   0.864  0.6935 -1.4025 -1.8117
  706SOL    HW3 2557   5.774   4.765   0.955  1.7126 -0.5635  0.0247
  706SOL    MW4 2558   5.796   4.797   0.877 -0.3141  0.1539  0.3276
  707SOL     OW 2559   1.814   3.601   1.678 -0.0331 -0.4472 -0.3437
  707SOL    HW2 2560   1.758   3.673   1.709  0.9941  0.4286 -0.4381
  707SOL    HW3 2561   1.903   3.628   1.703  0.3223 -1.9386  0.0610
  707SOL    MW4 2562   1.819   3.614   1.685 -0.1864  0.0126  0.5040
  708SOL     OW 2563   4.475   0.076   5.840 -0.1273 -0.2762  0.2088
  708SOL    HW2 2564   4.534   0.001   5.838 -0.0461 -0.2815 -3.5261
  708SOL    HW3 2565   4.394   0.042   5.877  0.4913 -1.7153  0.2914
  708SOL    MW4 2566   4.472   0.062   5.845 -0.0190  0.0417 -0.1880
  709SOL     OW 2567   0.275   3.370   2.556  0.0250 -0.4071 -0.1097
  709SOL    HW2 2568   0.248   3.455   2.592 -0.4749 -1.2955  1.7347
  709SOL    HW3 2569   0.347   3.391   2.496 -2.5319  1.7031 -2.7046
  709SOL    MW4 2570   0.281   3.384   2.553  0.1145  0.2306  0.1394
  710SOL     OW 2571   1.078   0.970   4.936 -0.1682 -0.2477 -0.9400
  710SOL    HW2 2572   0.986   0.990   4.921 -0.2676  0.8908  0.8770
  710SOL    HW3 2573   1.078   0.904   5.006  0.3840  0.4963 -0.2115
  710SOL    MW4 2574   1.066   0.964   4.943 -0.0353 -0.1253 -0.1409
  711SOL     OW 2575   2.274   2.780   6.334  0.1124 -0.0197  0.5245
  711SOL    HW2 2576   2.217   2.733   6.274 -1.6076  1.8030  0.6176
  711SOL    HW3 2577   2.216   2.812   6.403  1.0178  2.6851  0.1541
  711SOL    MW4 2578   2.259   2.778   6.335 -0.4254 -0.8043  0.2964
  712SOL     OW 2579   5.054   2.404   5.681  0.8322  0.0943 -0.2208
  712SOL    HW2 2580   5.083   2.348   5.754  0.9078 -0.5603 -0.7508
  712SOL    HW3 2581   5.135   2.431   5.638  0.8823  1.5276  0.6685
  712SOL    MW4 2582   5.069   2.400   5.685  0.6797 -0.5025  0.3290
  713SOL     OW 2583   3.957   3.773   1.877  0.0432  0.0945 -0.5234
  713SOL    HW2 2584   3.980   3.691   1.833  0.2914  0.8134 -1.7876
  713SOL    HW3 2585   3.945   3.836   1.806 -0.2441  1.1345  0.4151
  713SOL    MW4 2586   3.958   3.771   1.862 -0.2925 -0.3902 -0.0504
  714SOL     OW 2587   0.737   1.297   1.285 -0.4532 -0.1432  0.2893
  714SOL    HW2 2588   0.744   1.256   1.371  0.6572 -1.2243 -0.2825
  714SOL    HW3 2589   0.672   1.245   1.239  1.4978 -1.8537 -0.6970
  714SOL    MW4 2590   0.730   1.285   1.290  1.3296  0.0676 -0.1177
  715SOL     OW 2591   3.529   1.378   0.706 -0.3746 -0.1660  0.1519
  715SOL    HW2 2592   3.479   1.300   0.731 -1.7289  0.3234 -0.9000
  715SOL    HW3 2593   3.599   1.384   0.771 -1.7452 -0.8381  1.7616
  715SOL    MW4 2594   3.532   1.369   0.718 -0.3030 -0.0122  0.2700
  716SOL     OW 2595   0.185   3.682   3.105  0.2808  0.3169  0.2500
  716SOL    HW2 2596   0.205   3.774   3.092 -1.5099  0.8402  0.9703
  716SOL    HW3 2597   0.176   3.673   3.200  0.5029 -0.6219  0.1909
  716SOL    MW4 2598   0.187   3.693   3.116  0.5227 -0.3126 -0.3096
  717SOL     OW 2599   6.147   0.667   0.446 -0.1841 -0.0026 -0.4786
  717SOL    HW2 2600   6.194   0.612   0.384 -1.7734  0.4973 -2.2276
  717SOL    HW3 2601   6.066   0.619   0.464  0.8541 -0.8393  2.4316
  717SOL    MW4 2602   6.143   0.653   0.440 -0.5290  0.2041  0.2739
  718SOL     OW 2603   5.028   4.263   1.806  0.0612 -0.6898 -0.1662
  718SOL    HW2 2604   5.102   4.244   1.748 -0.6118 -2.1168 -0.6169
  718SOL    HW3 2605   5.025   4.358   1.810  2.6785 -0.5577  0.8819
  718SOL    MW4 2606   5.037   4.273   1.799 -0.0548  0.0557 -0.0900
  719SOL     OW 2607   2.403   0.922   0.295 -0.4061  0.5761 -0.1200
  719SOL    HW2 2608   2.407   1.018   0.294 -0.4981  0.5937  0.7265
  719SOL    HW3 2609   2.312   0.902   0.319 -0.0473  0.2933  1.0499
  719SOL    MW4 2610   2.391   0.932   0.298 -0.3306  0.1678  0.1540
  720SOL     OW 2611   0.448   3.128   3.116 -0.1079 -0.4369 -0.0274
  720SOL    HW2 2612   0.531   3.166   3.144  1.3002 -2.0989 -1.6876
  720SOL    HW3 2613   0.399   3.201   3.079  2.3202  0.0001 -2.7575
  720SOL    MW4 2614   0.452   3.143   3.115  0.0228 -0.2281  1.0125
  721SOL     OW 2615   5.240   3.761   3.336  0.1847  0.0443 -0.1607
  721SOL    HW2 2616   5.246   3.687   3.274 -1.8867  0.0171 -0.3829
  721SOL    HW3 2617   5.232   3.838   3.280 -1.5700  0.0315  0.0174
  721SOL    MW4 2618   5.240   3.761   3.320  0.3187 -0.5368  0.2262
  722SOL     OW 2619   5.051   2.635   4.533 -0.3299  0.1006  0.1959
  722SOL    HW2 2620   4.998   2.652   4.455  0.5216  1.2903 -0.1437
  722SOL    HW3 2621   4.991   2.653   4.606 -0.8912 -0.2220 -0.1767
  722SOL    MW4 2622   5.036   2.640   4.533  0.6181  0.3376 -0.1702
  723SOL     OW 2623   2.320   6.021   3.685  0.4486 -0.3864  0.2356
  723SOL    HW2 2624   2.373   6.008   3.764 -0.4733 -2.0100  0.6414
  723SOL    HW3 2625   2.238   5.977   3.704 -0.0160 -0.3061 -1.4265
  723SOL    MW4 2626   2.316   6.013   3.698 -0.7219 -0.2875 -0.2859
  724SOL     OW 2627   4.971   3.967   0.168 -0.1337  0.2110 -0.9429
  724SOL    HW2 2628   4.923   3.948   0.248 -1.3091  1.4611 -1.3096
  724SOL    HW3 2629   5.050   3.914   0.174  0.4153  1.1884  1.6223
  724SOL    MW4 2630   4.975   3.958   0.179  0.9112 -0.4557  0.4155
  725SOL     OW 2631   1.654   2.936   3.739 -0.1053 -0.1116 -0.3945
  725SOL    HW2 2632   1.652   2.912   3.832 -0.4374 -0.5105 -0.5019
  725SOL    HW3 2633   1.581   2.997   3.728 -0.3476 -0.4169 -0.4873
  725SOL    MW4 2634   1.644   2.941   3.750  0.0481 -0.2493  0.4128
  726SOL     OW 2635   3.256   1.829   1.215 -0.0285 -0.2618 -0.1105
  726SOL    HW2 2636   3.239   1.737   1.194 -0.8508 -0.1872  0.1986
  726SOL    HW3 2637   3.201   1.878   1.153 -1.7309 -0.0251  1.5065
  726SOL    MW4 2638   3.247   1.823   1.204 -0.5065 -0.6671 -0.0141
  727SOL     OW 2639   5.004   1.828   5.206  0.6411  0.3090 -0.2256
  727SOL    HW2 2640   4.917   1.826   5.167  0.2633  0.0124  0.6165
  727SOL    HW3 2641   5.004   1.905   5.262  1.2194  0.7949 -0.8730
  727SOL    MW4 2642   4.993   1.838   5.208 -0.4937  0.0694 -0.1646
  728SOL     OW 2643   5.109   4.676   2.367  0.0419 -0.0829 -0.4644
  728SOL    HW2 2644   5.196   4.694   2.401  0.1370 -0.4771 -0.4885
  728SOL    HW3 2645   5.095   4.583   2.385 -0.9786  0.3071  0.9015
  728SOL    MW4 2646   5.119   4.666   2.374  0.4389  0.6668  0.5923
  729SOL     OW 2647   4.137   1.527   2.944 -0.6777  0.2320 -0.1855
  729SOL    HW2 2648   4.053   1.513   2.988 -0.2687 -0.0117  0.5363
  729SOL    HW3 2649   4.179   1.441   2.946 -1.0674 -0.0444 -1.9857
  729SOL    MW4 2650   4.131   1.514   2.950 -0.3558 -0.0215  0.6950
  730SOL     OW 2651   6.227   1.862   1.940  0.2395  1.1026 -0.4160
  730SOL    HW2 2652   6.177   1.852   1.859 -1.1773  1.4551  0.3736
  730SOL    HW3 2653   6.270   1.777   1.953 -1.2847  0.3009 -0.4255
  730SOL    MW4 2654   6.226   1.849   1.931  0.7897  0.3234  0.2440
  731SOL     OW 2655   0.085   2.562   1.698 -0.2893 -0.0694  0.0754
  731SOL    HW2 2656   0.179   2.549   1.714 -0.8340 -3.0387  1.5349
  731SOL    HW3 2657   0.060   2.633   1.758  0.1628 -2.7168  3.7707
  731SOL    MW4 2658   0.094   2.570   1.708  0.5837 -0.2936 -0.3325
  732SOL     OW 2659   6.266   0.863   0.640  0.0034 -0.0496 -0.4133
  732SOL    HW2 2660   6.232   0.919   0.710  0.4490 -0.1452 -0.1149
  732SOL    HW3 2661   6.249   0.774   0.670 -0.9823 -0.0762 -1.0284
  732SOL    MW4 2662   6.259   0.858   0.653  0.2717  0.3488  0.7633
  733SOL     OW 2663   3.179   0.428   0.890  0.2314  0.1474  0.9523
  733SOL    HW2 2664   3.267   0.397   0.911  0.8134  1.8092  1.1268
  733SOL    HW3 2665   3.191   0.486   0.815 -0.8009 -0.0039  0.6502
  733SOL    MW4 2666   3.192   0.432   0.883 -0.1199  0.4419 -0.6155
  734SOL     OW 2667   3.351   5.678   6.207  0.2340  0.4668  0.3096
  734SOL    HW2 2668   3.392   5.626   6.138 -0.4470  0.9694 -0.5041
  734SOL    HW3 2669   3.349   5.621   6.283 -0.0174 -0.5161 -0.4115
  734SOL    MW4 2670   3.356   5.664   6.208  0.4326  0.2425  0.7489
  735SOL     OW 2671   1.092   5.377   1.299 -1.0756 -0.0092 -0.2403
  735SOL    HW2 2672   1.126   5.406   1.384 -1.6746  4.5161 -1.3134
  735SOL    HW3 2673   1.008   5.336   1.320  0.6116 -2.8638  1.5765
  735SOL    MW4 2674   1.086   5.375   1.313 -0.0246  0.1877 -0.1777
  736SOL     OW 2675   4.334   3.874   2.087 -0.3787 -0.0811 -0.3963
  736SOL    HW2 2676   4.356   3.866   2.180  0.1044 -1.9965 -0.6307
  736SOL    HW3 2677   4.276   3.949   2.082  0.0235  0.3837  1.3776
  736SOL    MW4 2678   4.329   3.883   2.098 -0.0523  0.4749 -0.3555
  737SOL     OW 2679   5.575   5.608   0.583  0.2432  0.2068  0.6336
  737SOL    HW2 2680   5.553   5.532   0.637 -2.6342  0.1034 -0.5162
  737SOL    HW3 2681   5.592   5.572   0.496  0.9407  0.7145  0.5523
  737SOL    MW4 2682   5.575   5.593   0.579  0.4334  0.5601  0.6203
  738SOL     OW 2683   2.547   0.448   6.369 -0.1040  0.0973 -0.2479
  738SOL    HW2 2684   2.464   0.493   6.388 -0.1466 -0.6861  1.6329
  738SOL    HW3 2685   2.544   0.433   6.275 -0.6240  2.9094 -0.7722
  738SOL    MW4 2686   2.536   0.452   6.359 -0.1525 -0.1932 -0.0565
  739SOL     OW 2687   1.925   3.915   4.983  0.3013  0.3332  0.2523
  739SOL    HW2 2688   1.986   3.886   5.049  0.6016 -0.7666 -0.4846
  739SOL    HW3 2689   1.866   3.975   5.029  0.8831  0.0783  1.3520
  739SOL    MW4 2690   1.925   3.919   4.998 -0.4798  0.3631  0.8408
  740SOL     OW 2691   5.538   4.496   0.627  0.0919  0.2413  0.4309
  740SOL    HW2 2692   5.471   4.552   0.666 -0.5765  0.0912 -0.4642
  740SOL    HW3 2693   5.620   4.543   0.641 -0.2573  0.6555  1.1206
  740SOL    MW4 2694   5.540   4.510   0.634  0.0246 -0.1047  0.6556
  741SOL     OW 2695   4.222   0.563   4.888 -0.0559 -0.3539  0.4272
  741SOL    HW2 2696   4.163   0.516   4.828  0.1921 -2.4414  1.7529
  741SOL    HW3 2697   4.179   0.648   4.901 -1.6529 -0.9997 -0.3474
  741SOL    MW4 2698   4.208   0.568   4.881  0.3425  0.3210 -0.4299
  742SOL     OW 2699   0.681   4.476   5.362 -0.5225 -0.0844 -0.1203
  742SOL    HW2 2700   0.615   4.494   5.295 -1.5971  1.1796  1.2229
  742SOL    HW3 2701   0.646   4.402   5.411 -2.0003  1.8200  1.8427
  742SOL    MW4 2702   0.668   4.469   5.359  0.3284  0.3298 -0.7118
  743SOL     OW 2703   4.775   3.624   1.762 -0.0036 -0.0320 -0.3346
  743SOL    HW2 2704   4.720   3.585   1.830  1.1908 -0.8822  0.1693
  743SOL    HW3 2705   4.846   3.667   1.809  0.3703  0.1066 -1.0092
  743SOL    MW4 2706   4.777   3.624   1.777 -0.3775  0.4979 -0.7245
  744SOL     OW 2707   2.603   5.047   3.781  0.0532 -0.0439  0.0122
  744SOL    HW2 2708   2.679   4.995   3.807 -0.7637 -1.7691 -0.8558
  744SOL    HW3 2709   2.528   4.997   3.813 -0.7458  1.0091 -0.1785
  744SOL    MW4 2710   2.603   5.034   3.788 -0.3464  0.4648 -0.8435
  745SOL     OW 2711   2.702   4.611   1.715 -0.0604 -0.2542 -0.3715
  745SOL    HW2 2712   2.638   4.652   1.656  0.8764  1.3932 -0.3050
  745SOL    HW3 2713   2.660   4.613   1.801 -0.9327 -1.5539 -0.7232
  745SOL    MW4 2714   2.688   4.616   1.718 -0.4475 -0.1253 -0.3703
  746SOL     OW 2715   2.770   5.965   2.270  0.2577 -0.1063 -0.0026
  746SOL    HW2 2716   2.704   6.031   2.290  2.1555  1.7309  0.5985
  746SOL    HW3 2717   2.761   5.900   2.340  0.2717  1.0870  1.1527
  746SOL    MW4 2718   2.760   5.965   2.282 -0.0811  0.1999  0.4134
  747SOL     OW 2719   3.929   0.199   3.898  0.3156  0.4557  0.3664
  747SOL    HW2 2720   3.916   0.218   3.805  1.3283 -0.0018  0.1163
  747SOL    HW3 2721   3.890   0.113   3.911 -0.1581  0.6804  0.4566
  747SOL    MW4 2722   3.922   0.190   3.888  0.2246  0.1725  0.6119
  748SOL     OW 2723   3.315   6.089   3.234 -0.0618  0.2597  0.0120
  748SOL    HW2 2724   3.231   6.106   3.192 -0.6344 -1.3664  0.4330
  748SOL    HW3 2725   3.308   6.129   3.320 -0.1460  0.6879 -0.1901
  748SOL    MW4 2726   3.303   6.097   3.240  0.0118 -0.2495  0.0202
  749SOL     OW 2727   3.259   1.112   1.308  0.0350 -0.4485 -0.5440
  749SOL    HW2 2728   3.256   1.076   1.396 -0.6804 -0.1802 -0.4554
  749SOL    HW3 2729   3.352   1.107   1.283  0.0453 -1.8448 -0.3373
  749SOL    MW4 2730   3.271   1.106   1.316 -0.0962  0.4829 -0.6375
  750SOL     OW 2731   0.919   2.667   2.123  0.0835  0.4065 -0.1154
  750SOL    HW2 2732   0.899   2.709   2.207 -0.7218  0.1678 -0.1822
  750SOL    HW3 2733   0.859   2.708   2.060 -0.5334 -0.6337 -0.2352
  750SOL    MW4 2734   0.909   2.678   2.126  0.4375 -0.1116  0.4500
  751SOL     OW 2735   4.213   4.484   3.562  0.5634 -0.0828 -0.0981
  751SOL    HW2 2736   4.235   4.576   3.580  1.3575 -0.4924  1.2019
  751SOL    HW3 2737   4.117   4.482   3.564  0.5447  0.4628  1.4577
  751SOL    MW4 2738   4.203   4.496   3.565  0.1800  0.2421 -0.0690
  752SOL     OW 2739   5.623   5.537   3.147 -0.6648  0.2344 -0.2758
  752SOL    HW2 2740   5.682   5.462   3.154 -0.1261  0.6084 -0.6934
  752SOL    HW3 2741   5.541   5.500   3.115 -0.2613 -0.1131 -0.9275
  752SOL    MW4 2742   5.620   5.522   3.144  0.2214  0.3650 -0.6256
  753SOL     OW 2743   3.635   5.205   0.222  0.2412 -0.9396 -0.0915
  753SOL    HW2 2744   3.630   5.278   0.160 -1.2388 -0.7483  0.2162
  753SOL    HW3 2745   3.582   5.234   0.297  1.5646 -1.3721  1.0626
  753SOL    MW4 2746   3.627   5.219   0.224 -0.3719  0.5261  0.2868
  754SOL     OW 2747   3.162   3.327   3.073  0.0450  0.4866  0.3349
  754SOL    HW2 2748   3.214   3.325   3.154 -0.6003 -0.8426  0.7354
  754SOL    HW3 2749   3.195   3.254   3.021  0.1455  1.0599 -0.4268
  754SOL    MW4 2750   3.173   3.317   3.077  0.3248 -0.0656 -0.4230
  755SOL     OW 2751   4.954   3.354   5.314 -0.3919  0.5598  0.0639
  755SOL    HW2 2752   4.974   3.423   5.250 -0.1890  0.2317 -0.2317
  755SOL    HW3 2753   4.861   3.336   5.301  0.0017 -0.6931 -1.3491
  755SOL    MW4 2754   4.944   3.360   5.304  0.0314  0.3960  0.2858
  756SOL     OW 2755   4.658   2.507   1.109  0.0728  0.0166 -0.1090
  756SOL    HW2 2756   4.691   2.593   1.132  0.7449 -0.3060  0.1559
  756SOL    HW3 2757   4.671   2.454   1.188  1.1847 -0.7554 -0.7819
  756SOL    MW4 2758   4.664   2.511   1.122 -0.1703 -0.2677 -0.6483
  757SOL     OW 2759   2.978   2.816   0.870 -0.0379  0.0442  0.1296
  757SOL    HW2 2760   2.911   2.883   0.885 -0.9631 -0.7397 -0.4221
  757SOL    HW3 2761   3.046   2.861   0.820 -0.0707  0.8923  0.8218
  757SOL    MW4 2762   2.978   2.831   0.866 -0.1565 -0.0972 -1.0540
  758SOL     OW 2763   4.643   5.565   4.366 -0.2091  0.2791 -0.0648
  758SOL    HW2 2764   4.620   5.520   4.285  0.5309 -1.7912  0.8081
  758SOL    HW3 2765   4.739   5.566   4.365 -0.1787 -0.3664  1.0722
  758SOL    MW4 2766   4.653   5.559   4.355  0.2138 -0.2681  0.2139
  759SOL     OW 2767   4.814   5.668   5.281  0.2093 -0.4374 -0.6156
  759SOL    HW2 2768   4.909   5.660   5.284  0.3392  0.9484 -0.5081
  759SOL    HW3 2769   4.798   5.741   5.222 -0.8239 -1.1265 -1.2108
  759SOL    MW4 2770   4.824   5.676   5.274 -0.3107  0.9028  0.2326
  760SOL     OW 2771   5.654   0.428   4.806 -0.0235  0.1148  0.2805
  760SOL    HW2 2772   5.664   0.381   4.723 -0.1174 -0.7174  0.7317
  760SOL    HW3 2773   5.643   0.359   4.872  0.4494  0.7459  1.0425
  760SOL    MW4 2774   5.654   0.413   4.804 -0.2425  0.0749  0.0391
  761SOL     OW 2775   3.236   0.405   2.382 -0.3680  0.3704 -0.6053
  761SOL    HW2 2776   3.269   0.315   2.379 -2.4525 -0.4377 -0.6911
  761SOL    HW3 2777   3.227   0.430   2.290 -2.8080 -0.5677 -0.6942
  761SOL    MW4 2778   3.239   0.396   2.370 -0.7759 -0.1767  0.1172
  762SOL     OW 2779   5.321   5.974   3.021  0.5063 -0.6025 -0.1203
  762SOL    HW2 2780   5.303   6.033   3.094 -2.0450 -1.9658  0.4605
  762SOL    HW3 2781   5.243   5.980   2.965  0.6728 -2.5269 -0.6253
  762SOL    MW4 2782   5.308   5.982   3.023 -0.2862  0.0969 -0.5471
  763SOL     OW 2783   2.190   5.107   5.541  0.3729  0.2638 -0.0503
  763SOL    HW2 2784   2.221   5.170   5.476 -0.1507  0.8208  0.2279
  763SOL    HW3 2785   2.209   5.021   5.502  1.2735  0.5882 -0.3440
  763SOL    MW4 2786   2.197   5.104   5.527 -0.0421  0.6012 -0.1869
  764SOL     OW 2787   0.927   1.342   4.094  0.5805 -0.4121  0.5081
  764SOL    HW2 2788   1.012   1.323   4.054  0.2299  0.2630 -0.5966
  764SOL    HW3 2789   0.865   1.289   4.044  0.1025  0.6426 -0.0516
  764SOL    MW4 2790   0.930   1.332   4.082  0.8340  0.1787 -0.1228
  765SOL     OW 2791   3.185   0.336   5.532 -0.1626  0.4307  0.0770
  765SOL    HW2 2792   3.194   0.403   5.600  0.7569 -0.1710  0.5834
  765SOL    HW3 2793   3.168   0.385   5.451 -0.1334  1.2260  0.5446
  765SOL    MW4 2794   3.184   0.351   5.530 -0.4074  0.5129  0.5877
  766SOL     OW 2795   5.032   0.804   1.986  0.1302  0.2508 -0.5013
  766SOL    HW2 2796   5.107   0.756   2.021 -0.0839  0.8664  0.8537
  766SOL    HW3 2797   5.041   0.892   2.022 -3.0359 -0.4529  2.6304
  766SOL    MW4 2798   5.043   0.809   1.995 -0.4873 -0.3035  0.5947
  767SOL     OW 2799   3.493   2.318   2.978 -0.0745  0.0406 -0.3744
  767SOL    HW2 2800   3.446   2.264   2.914  0.1309 -0.0144 -0.4792
  767SOL    HW3 2801   3.564   2.262   3.009 -0.1551  0.0787 -0.1194
  767SOL    MW4 2802   3.496   2.304   2.973  0.5480 -0.2371 -0.3846
  768SOL     OW 2803   6.303   5.559   4.324  0.2885  0.2124  0.0821
  768SOL    HW2 2804   6.280   5.647   4.296 -0.5229 -0.2143 -0.6319
  768SOL    HW3 2805   6.359   5.525   4.255  0.4855  0.1103  0.2879
  768SOL    MW4 2806   6.307   5.566   4.311 -0.1669 -0.3553  0.3541
  769SOL     OW 2807   6.426   3.348   0.029 -0.6565 -0.6397  0.5357
  769SOL    HW2 2808   6.400   3.432  -0.009 -1.1010 -0.1166  1.9063
  769SOL    HW3 2809   6.373   3.342   0.109  0.1515 -1.7264  1.0041
  769SOL    MW4 2810   6.415   3.359   0.035 -0.8192 -0.2282  0.3600
  770SOL     OW 2811   0.188   4.450   5.149 -0.1224 -0.2048 -0.2981
  770SOL    HW2 2812   0.281   4.466   5.166 -0.2381 -0.4396  0.5584
  770SOL    HW3 2813   0.146   4.457   5.234 -0.5706 -2.3446 -0.2857
  770SOL    MW4 2814   0.195   4.453   5.162 -0.0149 -0.2064 -0.0598
  771SOL     OW 2815   3.089   5.680   6.118  0.0993  0.4109 -0.4173
  771SOL    HW2 2816   3.179   5.678   6.151 -0.2685  1.5062  0.7604
  771SOL    HW3 2817   3.070   5.773   6.109 -1.5305  0.2861  1.2096
  771SOL    MW4 2818   3.099   5.692   6.121 -0.2248 -0.1222 -0.2129
  772SOL     OW 2819   3.236   2.643   0.273  0.0199  0.1063 -0.0733
  772SOL    HW2 2820   3.237   2.655   0.368 -1.1371 -0.4150  0.0284
  772SOL    HW3 2821   3.320   2.601   0.253  0.1915  0.0399  0.7432
  772SOL    MW4 2822   3.247   2.639   0.283  0.2343 -0.2417  0.1366
  773SOL     OW 2823   4.676   4.516   1.155 -0.4194  0.0821  0.4383
  773SOL    HW2 2824   4.605   4.498   1.093 -0.4374 -0.8189  0.6949
  773SOL    HW3 2825   4.632   4.552   1.232 -0.6072 -0.4104  0.5703
  773SOL    MW4 2826   4.661   4.518   1.157  0.3395  0.2500 -0.0830
  774SOL     OW 2827   3.259   3.865   1.486  0.1982  0.5456 -0.1260
  774SOL    HW2 2828   3.311   3.841   1.563  1.7970  2.0944 -0.6598
  774SOL    HW3 2829   3.322   3.870   1.415 -0.9134  1.1808 -1.1004
  774SOL    MW4 2830   3.274   3.862   1.487 -0.8848 -0.5039 -0.0691
  775SOL     OW 2831   3.154   3.388   5.950 -0.0694  0.1001  0.1386
  775SOL    HW2 2832   3.164   3.482   5.967 -0.7167  0.2374 -0.2371
  775SOL    HW3 2833   3.235   3.349   5.984  1.2467  1.0483 -1.7667
  775SOL    MW4 2834   3.166   3.395   5.957  0.3348 -0.3125 -0.0131
  776SOL     OW 2835   0.731   5.064   0.074  0.3683  0.0867  0.3025
  776SOL    HW2 2836   0.693   5.136   0.024 -0.7318 -0.4460  0.3575
  776SOL    HW3 2837   0.750   5.102   0.160 -0.3412  0.2785  0.3782
  776SOL    MW4 2838   0.729   5.079   0.079 -0.1035  0.5262  0.1072
  777SOL     OW 2839   4.802   5.742   4.564  0.1385  0.3500 -0.0638
  777SOL    HW2 2840   4.724   5.792   4.587  0.0538  0.1315  0.1282
  777SOL    HW3 2841   4.797   5.663   4.618 -0.6401 -0.7112 -1.6166
  777SOL    MW4 2842   4.791   5.738   4.575 -0.2997 -0.0758 -0.3977
  778SOL     OW 2843   3.291   2.665   0.555  0.2688  0.0285  0.3351
  778SOL    HW2 2844   3.360   2.723   0.587  1.3452 -0.8724 -0.3147
  778SOL    HW3 2845   3.333   2.580   0.546 -0.3277 -0.0699 -2.1668
  778SOL    MW4 2846   3.305   2.661   0.558  0.0264  0.1211  0.1447
  779SOL     OW 2847   1.746   6.021   0.825  0.1465  0.6732  0.0063
  779SOL    HW2 2848   1.766   6.030   0.732  0.1133 -1.1268 -0.2058
  779SOL    HW3 2849   1.806   6.081   0.869  1.4059  0.2367 -1.0666
  779SOL    MW4 2850   1.757   6.030   0.819  0.7790  0.7050  0.3439
  780SOL     OW 2851   2.523   5.146   1.201 -0.1399 -0.6090  0.3792
  780SOL    HW2 2852   2.611   5.124   1.170 -1.2433 -1.8089 -2.2370
  780SOL    HW3 2853   2.484   5.063   1.227 -1.2742 -0.5015 -0.8356
  780SOL    MW4 2854   2.529   5.132   1.200  0.4048  0.2611  0.3602
  781SOL     OW 2855   0.975   6.217   3.093  0.1706 -0.3783  0.3522
  781SOL    HW2 2856   1.042   6.167   3.046  0.6684  1.0121 -0.4552
  781SOL    HW3 2857   0.903   6.224   3.031 -0.2458 -0.7910  0.7729
  781SOL    MW4 2858   0.974   6.211   3.079  0.0815 -0.0670  0.8467
  782SOL     OW 2859   1.609   1.631   0.760 -0.6228  0.5315 -0.0574
  782SOL    HW2 2860   1.661   1.587   0.827 -0.7225  0.0235 -0.3103
  782SOL    HW3 2861   1.673   1.659   0.694 -0.7361 -0.8501 -0.7953
  782SOL    MW4 2862   1.624   1.629   0.760  0.3579 -0.3005 -0.5173
  783SOL     OW 2863   1.703   4.891   3.470  0.2182 -0.4297  0.2209
  783SOL    HW2 2864   1.638   4.852   3.529  0.5211  0.6558  1.3405
  783SOL    HW3 2865   1.743   4.961   3.523  1.5034 -0.3437 -0.8210
  783SOL    MW4 2866   1.700   4.895   3.485  0.3519 -0.4657 -0.0403
  784SOL     OW 2867   5.268   2.764   1.732 -0.0457 -0.1354 -0.3379
  784SOL    HW2 2868   5.331   2.756   1.804  0.6053 -1.0537 -0.9958
  784SOL    HW3 2869   5.227   2.849   1.746  0.2287 -0.2004  0.9930
  784SOL    MW4 2870   5.271   2.774   1.743  0.3535  0.2976  0.7212
  785SOL     OW 2871   2.496   0.506   5.473 -0.3838 -0.5528 -0.3961
  785SOL    HW2 2872   2.536   0.487   5.558 -0.1639  0.0082 -0.3742
  785SOL    HW3 2873   2.407   0.474   5.481 -0.4148 -0.3469  0.1057
  785SOL    MW4 2874   2.490   0.499   5.485  0.2335  0.2693 -0.7521
  786SOL     OW 2875   0.413   5.598   3.678 -0.4755 -0.1958  0.2658
  786SOL    HW2 2876   0.466   5.623   3.753 -0.1133  0.3091 -0.1492
  786SOL    HW3 2877   0.350   5.536   3.713 -0.0721 -0.2540  0.9120
  786SOL    MW4 2878   0.412   5.593   3.692 -0.3859 -0.4355  0.7015
  787SOL     OW 2879   3.606   5.841   5.742  0.2988 -0.2967 -0.3188
  787SOL    HW2 2880   3.534   5.778   5.751 -0.5407  0.6896  0.0327
  787SOL    HW3 2881   3.591   5.882   5.658 -0.4341  0.9658  0.4015
  787SOL    MW4 2882   3.594   5.838   5.732  0.7137 -0.4662  0.5867
  788SOL     OW 2883   2.440   4.601   4.261  0.1131 -0.4829  0.5098
  788SOL    HW2 2884   2.526   4.576   4.227  0.4844 -2.8580  2.9067
  788SOL    HW3 2885   2.378   4.569   4.196  0.9349  1.4684 -1.3679
  788SOL    MW4 2886   2.443   4.594   4.248  0.2658 -0.0720  0.3360
  789SOL     OW 2887   2.035   2.788   3.034  0.5703  0.1492 -1.2089
  789SOL    HW2 2888   2.008   2.744   2.953 -0.5223 -0.9313 -0.3091
  789SOL    HW3 2889   2.127   2.764   3.044 -0.0818 -2.4557 -0.5183
  789SOL    MW4 2890   2.043   2.779   3.025  0.2093 -0.3379  0.3439
  790SOL     OW 2891   0.582   6.352   0.096 -0.0921  0.0920 -0.4423
  790SOL    HW2 2892   0.526   6.424   0.125 -0.1831 -0.5397  0.9959
  790SOL    HW3 2893   0.609   6.308   0.176 -0.2945 -1.6935 -1.2990
  790SOL    MW4 2894   0.578   6.356   0.110  0.3839  0.0344 -0.4417
  791SOL     OW 2895   3.111   1.406   3.430 -0.0337 -0.3222  0.4002
  791SOL    HW2 2896   3.062   1.484   3.458  0.9523  0.7140 -0.6548
  791SOL    HW3 2897   3.145   1.369   3.512 -1.4091 -0.2860  1.0185
  791SOL    MW4 2898   3.109   1.411   3.445  0.1683 -0.4918 -0.2157
  792SOL     OW 2899   1.645   2.810   5.365 -0.2094 -0.3908  0.0617
  792SOL    HW2 2900   1.683   2.731   5.327 -0.2989 -0.5477  0.2990
  792SOL    HW3 2901   1.707   2.835   5.434  0.1507  0.1070 -0.4273
  792SOL    MW4 2902   1.658   2.803   5.369  0.4553  0.2453  0.2777
  793SOL     OW 2903   5.434   0.897   0.453  0.2082 -0.7431 -0.1914
  793SOL    HW2 2904   5.457   0.919   0.363 -1.6177 -0.1427 -0.5614
  793SOL    HW3 2905   5.458   0.975   0.503  1.2392 -1.0831 -0.1260
  793SOL    MW4 2906   5.440   0.910   0.448 -0.3911  0.1914  0.1448
  794SOL     OW 2907   1.778   5.687   4.256  0.0549 -0.1763 -0.6169
  794SOL    HW2 2908   1.812   5.607   4.295 -0.0542 -0.4712 -1.1083
  794SOL    HW3 2909   1.691   5.698   4.294 -1.0723 -1.7968 -2.5183
  794SOL    MW4 2910   1.771   5.678   4.266  0.3269 -0.1307  0.1165
  795SOL     OW 2911   5.710   3.427   5.300  0.0418 -0.0215 -0.3437
  795SOL    HW2 2912   5.676   3.342   5.272 -1.0496  0.3936 -0.3338
  795SOL    HW3 2913   5.654   3.491   5.256 -1.3340  0.6645  2.1978
  795SOL    MW4 2914   5.698   3.424   5.290  0.0752  0.4155 -0.2024
  796SOL     OW 2915   4.247   5.492   4.415 -0.2833 -0.0587 -0.0157
  796SOL    HW2 2916   4.274   5.459   4.330  2.0860  0.7086  0.3539
  796SOL    HW3 2917   4.255   5.587   4.407  0.9729 -0.0138  1.3163
  796SOL    MW4 2918   4.252   5.500   4.403 -0.6229  0.2370  0.2346
  797SOL     OW 2919   2.766   5.405   0.446 -0.1106 -0.5660 -0.3398
  797SOL    HW2 2920   2.769   5.497   0.419  0.6336  0.1278  1.8746
  797SOL    HW3 2921   2.732   5.359   0.370 -1.0691  1.6150 -1.3352
  797SOL    MW4 2922   2.762   5.411   0.433 -0.5110  0.4921  0.2331
  798SOL     OW 2923   1.234   5.570   4.939 -0.4124  0.5450  0.4867
  798SOL    HW2 2924   1.172   5.549   4.868  0.4755 -1.6737  0.2898
  798SOL    HW3 2925   1.316   5.528   4.912  0.0087 -0.1737  2.7144
  798SOL    MW4 2926   1.236   5.562   4.926 -0.3961 -0.2655  0.0466
  799SOL     OW 2927   1.266   2.323   2.721  0.5695 -0.5827  0.7883
  799SOL    HW2 2928   1.175   2.341   2.698  0.3418  1.1962  2.7507
  799SOL    HW3 2929   1.291   2.248   2.667 -2.3255 -1.6905  0.8536
  799SOL    MW4 2930   1.258   2.316   2.711  0.1271  0.3106 -0.1460
  800SOL     OW 2931   3.571   0.957   2.120  0.1653 -0.1329  0.4465
  800SOL    HW2 2932   3.526   1.030   2.161 -1.4924 -0.5737 -0.5155
  800SOL    HW3 2933   3.653   0.994   2.088  0.0318  0.9327  1.2865
  800SOL    MW4 2934   3.576   0.971   2.122  0.3172  0.2248  0.6632
  801SOL     OW 2935   4.895   5.969   2.107 -0.1478  0.2991 -0.0473
  801SOL    HW2 2936   4.846   6.042   2.145 -0.9979 -0.5584  0.5262
  801SOL    HW3 2937   4.885   5.898   2.169  0.4194 -0.4058 -0.7466
  801SOL    MW4 2938   4.887   5.969   2.120  0.2327  0.1888  0.2287
  802SOL     OW 2939   2.265   0.451   4.397  0.3126 -0.2301 -0.2181
  802SOL    HW2 2940   2.226   0.538   4.398  1.1994  0.1725  0.5020
  802SOL    HW3 2941   2.333   0.456   4.329  3.1798  0.9813  2.4544
  802SOL    MW4 2942   2.269   0.463   4.388  0.0230 -0.7012  0.3626
  803SOL     OW 2943   5.238   5.967   2.234 -0.2112  0.1557  0.2353
  803SOL    HW2 2944   5.200   5.935   2.316 -0.8057 -1.4926 -0.6234
  803SOL    HW3 2945   5.331   5.946   2.242 -0.0021  1.3406  1.0688
  803SOL    MW4 2946   5.245   5.960   2.246 -0.2934 -0.3336 -0.0402
  804SOL     OW 2947   4.239   0.511   5.154 -0.0379 -0.2972 -0.2484
  804SOL    HW2 2948   4.239   0.542   5.063  1.3094  3.2994  0.8089
  804SOL    HW3 2949   4.323   0.542   5.190 -1.6658  0.8603  2.9269
  804SOL    MW4 2950   4.250   0.519   5.147 -0.1499  0.9725  0.2986
  805SOL     OW 2951   2.210   5.327   1.657 -0.0872 -0.0179 -0.6017
  805SOL    HW2 2952   2.177   5.410   1.623 -1.2575 -0.0805  0.2982
  805SOL    HW3 2953   2.195   5.265   1.586 -0.9540  0.1756 -0.6034
  805SOL    MW4 2954   2.204   5.330   1.643  0.5183  0.2861  0.3354
  806SOL     OW 2955   5.248   0.034   3.409 -0.5325  0.5934 -0.0531
  806SOL    HW2 2956   5.247   0.110   3.351  2.9011  1.6047  0.9694
  806SOL    HW3 2957   5.231   0.070   3.496  0.3490  0.1014  0.3342
  806SOL    MW4 2958   5.245   0.049   3.412 -0.5329  0.4138  0.3221
  807SOL     OW 2959   0.166   5.216   1.662 -0.1410 -0.0132  0.0480
  807SOL    HW2 2960   0.137   5.190   1.750 -2.6397 -0.7729 -0.9212
  807SOL    HW3 2961   0.166   5.135   1.612 -0.3212  0.6481 -1.0379
  807SOL    MW4 2962   0.162   5.202   1.667 -0.6717  0.4502 -0.1366
  808SOL     OW 2963   1.744   5.730   3.982  0.0794  0.4208 -0.1446
  808SOL    HW2 2964   1.738   5.702   4.073 -0.4430 -1.4881 -0.7187
  808SOL    HW3 2965   1.834   5.760   3.972  0.7140 -1.0999  0.5689
  808SOL    MW4 2966   1.755   5.730   3.993  0.0994 -0.0769  0.3718
  809SOL     OW 2967   5.253   4.613   1.050  0.0999  0.8141  0.0195
  809SOL    HW2 2968   5.179   4.637   1.106 -0.5037  0.5661 -0.6548
  809SOL    HW3 2969   5.306   4.692   1.043  1.1698  0.3990  2.3856
  809SOL    MW4 2970   5.250   4.627   1.057  0.1517  0.5017  0.0708
  810SOL     OW 2971   1.913   2.903   0.230  0.1965 -0.0714  0.3179
  810SOL    HW2 2972   1.912   2.824   0.284 -0.0958 -0.5143 -0.3299
  810SOL    HW3 2973   1.939   2.973   0.291  1.0901 -0.7612  0.7623
  810SOL    MW4 2974   1.916   2.902   0.245  0.6928  0.3779  0.2215
  811SOL     OW 2975   6.028   0.457   1.618 -0.1499 -0.0770  0.1523
  811SOL    HW2 2976   6.028   0.363   1.600  1.1210 -0.3455  1.3718
  811SOL    HW3 2977   5.982   0.465   1.702  2.4045 -0.0197  1.6439
  811SOL    MW4 2978   6.022   0.446   1.627 -0.3979  0.7978 -0.0072
  812SOL     OW 2979   4.407   5.746   4.377  0.3760 -0.5422  0.0048
  812SOL    HW2 2980   4.493   5.706   4.391  2.2004  2.6650 -1.0259
  812SOL    HW3 2981   4.393   5.739   4.283  0.3340  0.4678 -0.0672
  812SOL    MW4 2982   4.417   5.740   4.366  0.4601  0.3795 -0.2076
  813SOL     OW 2983   2.101   1.898   1.392  0.4044  0.4314 -0.4937
  813SOL    HW2 2984   2.098   1.979   1.341  1.9475  1.7031  1.2903
  813SOL    HW3 2985   2.179   1.907   1.447  0.2447 -1.9934  0.2676
  813SOL    MW4 2986   2.111   1.909   1.392 -0.9055 -0.5652 -0.4237
  814SOL     OW 2987   1.157   2.779   0.893  0.1209  0.1742  0.3499
  814SOL    HW2 2988   1.196   2.825   0.819  0.1271  0.9893  0.8495
  814SOL    HW3 2989   1.169   2.686   0.873 -0.1084  0.3712 -0.7971
  814SOL    MW4 2990   1.163   2.772   0.881 -0.7415 -0.0964  0.6176
  815SOL     OW 2991   2.958   5.870   2.807  0.5472  0.1452 -0.7285
  815SOL    HW2 2992   3.025   5.851   2.873  0.4250  2.0357  0.0202
  815SOL    HW3 2993   3.000   5.850   2.724  1.4889 -0.2191 -0.1839
  815SOL    MW4 2994   2.973   5.865   2.805  0.0311  0.0835 -0.1772
  816SOL     OW 2995   4.178   3.335   0.370  0.2643 -0.0681 -0.0666
  816SOL    HW2 2996   4.206   3.413   0.418  1.4374 -1.4054  1.5747
  816SOL    HW3 2997   4.254   3.311   0.317 -0.0005 -0.2201 -0.3774
  816SOL    MW4 2998   4.192   3.342   0.369  0.1351  0.0944  1.0806
  817SOL     OW 2999   3.255   5.309   5.981 -0.0006 -0.3350 -0.4595
  817SOL    HW2 3000   3.183   5.366   5.955  0.6963  0.1796 -1.3414
  817SOL    HW3 3001   3.221   5.258   6.054 -1.2825 -0.1780 -0.9310
  817SOL    MW4 3002   3.241   5.310   5.987  0.5227  0.9535  0.2640
  818SOL     OW 3003   5.271   2.726   4.688  0.0288 -0.2003  0.2726
  818SOL    HW2 3004   5.213   2.673   4.633 -1.0466  0.4434  0.7597
  818SOL    HW3 3005   5.278   2.809   4.642 -1.1292  0.4563  1.2268
  818SOL    MW4 3006   5.264   2.730   4.675 -0.0953 -0.4312  0.1709
  819SOL     OW 3007   3.787   2.960   3.984 -0.0432  0.1163  0.2863
  819SOL    HW2 3008   3.708   3.015   3.983  0.8970  1.5208  0.0478
  819SOL    HW3 3009   3.821   2.966   3.894  1.0119  0.5817  0.6979
  819SOL    MW4 3010   3.781   2.968   3.972 -0.3566 -0.2884  0.0659
  820SOL     OW 3011   2.679   5.257   0.670 -0.4327  0.3062  0.4540
  820SOL    HW2 3012   2.583   5.253   0.672 -0.4437  0.7867  1.7784
  820SOL    HW3 3013   2.699   5.320   0.601 -1.0584  0.0173 -0.0048
  820SOL    MW4 3014   2.669   5.264   0.661  0.0304  0.2423  0.4004
  821SOL     OW 3015   0.061   4.259   4.726 -0.5488 -0.3409  0.7237
  821SOL    HW2 3016  -0.009   4.243   4.663  0.3967  0.9776 -0.7608
  821SOL    HW3 3017   0.139   4.220   4.685  0.0552  0.3757  1.1661
  821SOL    MW4 3018   0.062   4.252   4.712 -0.1091  0.3405  0.2606
  822SOL     OW 3019   0.628   4.273   5.551  0.2770  0.2112  0.7756
  822SOL    HW2 3020   0.694   4.297   5.616 -0.6359 -1.9439  2.6526
  822SOL    HW3 3021   0.667   4.202   5.501 -0.0902 -0.1223  0.9553
  822SOL    MW4 3022   0.642   4.267   5.553  0.0992 -0.6537  0.6147
  823SOL     OW 3023   3.003   1.877   3.757 -0.6637  0.5360  0.1194
  823SOL    HW2 3024   3.001   1.896   3.664  0.9184 -0.6669 -0.1979
  823SOL    HW3 3025   2.952   1.797   3.767  1.7892 -1.1990 -0.2804
  823SOL    MW4 3026   2.996   1.869   3.746 -0.3135  0.1160  0.3034
  824SOL     OW 3027   4.674   5.654   0.578 -0.3285  0.0995  0.0371
  824SOL    HW2 3028   4.645   5.565   0.559  0.5825  0.0050 -0.9824
  824SOL    HW3 3029   4.725   5.680   0.502 -0.3912  1.4224  0.4152
  824SOL    MW4 3030   4.677   5.646   0.566  0.2784 -0.3357 -0.0897
  825SOL     OW 3031   4.546   0.013   2.166 -0.4358 -0.4113 -0.1351
  825SOL    HW2 3032   4.583  -0.002   2.253 -0.9075 -1.6646 -0.1334
  825SOL    HW3 3033   4.558   0.107   2.151  0.1423 -0.2764  1.0509
  825SOL    MW4 3034   4.552   0.024   2.176  0.1504 -0.5708  0.4633
  826SOL     OW 3035   0.045   1.919   1.590 -0.6350 -0.3155  0.3019
  826SOL    HW2 3036   0.071   1.969   1.512  0.5541 -2.1758 -0.5690
  826SOL    HW3 3037   0.007   1.984   1.648  2.3964  1.9855 -0.0258
  826SOL    MW4 3038   0.043   1.934   1.587 -0.0895  0.6269  0.2823
  827SOL     OW 3039   4.822   1.408   4.673 -0.2075 -0.2348  0.2051
  827SOL    HW2 3040   4.796   1.326   4.633  1.5088 -0.9164  0.3943
  827SOL    HW3 3041   4.903   1.387   4.720 -0.1875  1.3721  0.9526
  827SOL    MW4 3042   4.830   1.395   4.674  0.2136 -0.1879  0.7651
  828SOL     OW 3043   4.310   1.631   3.531 -0.3163 -0.0476 -0.1661
  828SOL    HW2 3044   4.224   1.596   3.507 -0.7161  1.0250 -0.3303
  828SOL    HW3 3045   4.371   1.588   3.471 -0.5320 -1.8436  0.8271
  828SOL    MW4 3046   4.307   1.620   3.520  0.3570  0.2245 -0.2942
  829SOL     OW 3047   4.904   3.135   4.312  0.2366  0.2850 -0.2238
  829SOL    HW2 3048   4.926   3.057   4.262 -1.2762  0.5737 -1.3927
  829SOL    HW3 3049   4.944   3.208   4.264 -1.0471  0.5395 -0.9716
  829SOL    MW4 3050   4.912   3.135   4.299 -0.4582 -0.3836  0.1398
  830SOL     OW 3051   0.104   3.193   2.979 -0.0328 -0.5343 -0.4012
  830SOL    HW2 3052   0.121   3.212   3.072  4.1131 -3.5061 -0.3163
  830SOL    HW3 3053   0.124   3.100   2.969  0.7648 -0.1050 -4.5006
  830SOL    MW4 3054   0.109   3.184   2.990 -0.6226 -0.3316 -0.3397
  831SOL     OW 3055   1.722   5.813   1.521  0.1084 -0.6935  0.4463
  831SOL    HW2 3056   1.805   5.778   1.552 -0.6209 -1.3707  1.7258
  831SOL    HW3 3057   1.658   5.784   1.586 -1.1046 -0.0400 -0.4133
  831SOL    MW4 3058   1.724   5.805   1.534 -0.4364  0.0125  0.0474
  832SOL     OW 3059   4.161   3.811   1.467 -0.1179 -0.3895  0.1985
  832SOL    HW2 3060   4.204   3.792   1.550 -0.7936  1.1011  0.9459
  832SOL    HW3 3061   4.123   3.898   1.480 -0.4407 -0.2252 -1.6014
  832SOL    MW4 3062   4.161   3.820   1.480  0.2217  0.0389  0.5576
  833SOL     OW 3063   4.983   4.469   2.631  0.3243 -0.5867 -0.4729
  833SOL    HW2 3064   5.031   4.415   2.694  0.2761  0.1000  0.1634
  833SOL    HW3 3065   5.021   4.446   2.546  2.3988  0.5549  0.0896
  833SOL    MW4 3066   4.994   4.459   2.628  0.0369 -0.0805 -0.2347
  834SOL     OW 3067   2.454   3.929   3.739 -0.4826  0.9638  0.2840
  834SOL    HW2 3068   2.367   3.903   3.710  0.0277 -0.5763  0.0642
  834SOL    HW3 3069   2.463   3.892   3.827  0.7129 -0.7420 -0.5045
  834SOL    MW4 3070   2.444   3.921   3.747 -0.0164 -0.0150  0.1701
  835SOL     OW 3071   2.111   3.885   3.956 -0.1634 -0.7073  0.1183
  835SOL    HW2 3072   2.125   3.840   3.873 -0.9872  0.5763 -0.7650
  835SOL    HW3 3073   2.155   3.970   3.944 -1.3939  0.0028  0.4844
  835SOL    MW4 3074   2.119   3.891   3.944 -1.1726  0.8442  0.1075
  836SOL     OW 3075   4.465   4.402   0.980  0.3179  0.5913  0.2680
  836SOL    HW2 3076   4.460   4.307   0.981 -0.8475  0.6177 -0.6491
  836SOL    HW3 3077   4.374   4.431   0.979  0.6438  1.6659 -1.0026
  836SOL    MW4 3078   4.453   4.393   0.980  0.4606 -0.0587  0.4031
  837SOL     OW 3079   5.754   5.881   4.094 -0.1031 -0.5101  0.1584
  837SOL    HW2 3080   5.809   5.846   4.024  1.8132  0.0846  1.3065
  837SOL    HW3 3081   5.675   5.826   4.092  0.4889 -1.3659 -1.5645
  837SOL    MW4 3082   5.751   5.869   4.084 -0.1020 -0.0208  0.2410
  838SOL     OW 3083   2.530   1.665   3.215  0.6033 -0.5331 -0.1720
  838SOL    HW2 3084   2.538   1.747   3.264  0.1491  1.1445 -2.6963
  838SOL    HW3 3085   2.593   1.606   3.255  1.6748  1.3820  1.1024
  838SOL    MW4 3086   2.539   1.668   3.227 -0.3342 -0.4086  0.1303
  839SOL     OW 3087   5.938   0.027   2.622 -0.3953  0.4114 -0.4931
  839SOL    HW2 3088   5.922   0.121   2.617 -1.2544  0.4135  1.4160
  839SOL    HW3 3089   6.033   0.019   2.627 -0.2823  1.1227 -1.3557
  839SOL    MW4 3090   5.948   0.038   2.622 -0.3018 -0.0280  0.0249
  840SOL     OW 3091   0.535   4.946   0.305  0.1820 -0.4755 -0.0445
  840SOL    HW2 3092   0.528   4.924   0.398  0.3091  0.7973  0.2769
  840SOL    HW3 3093   0.599   5.017   0.302 -1.8678  1.4393 -0.7883
  840SOL    MW4 3094   0.543   4.952   0.317 -0.0596 -0.3377 -0.7793
  841SOL     OW 3095   5.745   6.160   4.105  0.1507  0.0902 -0.2382
  841SOL    HW2 3096   5.728   6.173   4.198  0.0574  1.9047 -0.4771
  841SOL    HW3 3097   5.770   6.068   4.098  2.5549  0.4718  1.9562
  841SOL    MW4 3098   5.746   6.150   4.116  0.2122  0.4887  0.1475
  842SOL     OW 3099   5.073   2.304   5.098 -0.2980  1.1956  0.0723
  842SOL    HW2 3100   5.051   2.369   5.165  1.8052  0.8720  1.1449
  842SOL    HW3 3101   5.168   2.295   5.103 -0.2602 -0.0711 -1.8488
  842SOL    MW4 3102   5.082   2.312   5.107 -0.0897  0.1173 -0.5538
  843SOL     OW 3103   2.166   6.003   0.541 -0.3424 -0.3980 -0.1008
  843SOL    HW2 3104   2.234   5.935   0.542 -1.0991 -1.1746  0.8493
  843SOL    HW3 3105   2.136   6.008   0.632 -1.1873  0.2953 -0.4082
  843SOL    MW4 3106   2.171   5.994   0.553  0.3527 -0.3875 -0.0411
  844SOL     OW 3107   3.673   2.086   4.642  0.4589 -0.3629  0.3104
  844SOL    HW2 3108   3.666   2.143   4.565  2.0072 -0.2222  0.2476
  844SOL    HW3 3109   3.598   2.110   4.697  0.1510  0.5519 -0.4897
  844SOL    MW4 3110   3.662   2.097   4.639  0.5181 -0.0733 -0.6430
  845SOL     OW 3111   1.991   4.572   4.412 -0.1859  0.6651  0.3373
  845SOL    HW2 3112   2.017   4.484   4.440 -0.6097  0.5494  0.3817
  845SOL    HW3 3113   1.933   4.603   4.482 -0.4743  0.7587  0.0582
  845SOL    MW4 3114   1.987   4.564   4.425 -0.3255 -0.1661  0.0760
  846SOL     OW 3115   3.671   3.614   0.932  0.9712 -0.3276 -0.3290
  846SOL    HW2 3116   3.707   3.558   1.000  0.2988 -0.6752 -0.2532
  846SOL    HW3 3117   3.577   3.594   0.931  1.0872 -0.9552 -1.9319
  846SOL    MW4 3118   3.663   3.604   0.941 -0.2586  0.4168 -0.3939
  847SOL     OW 3119   1.044   4.962   0.082  0.1905 -0.1941 -0.4448
  847SOL    HW2 3120   1.046   4.868   0.063 -0.1591  0.2674 -3.2018
  847SOL    HW3 3121   1.072   4.969   0.173  2.0599 -2.8265 -0.7138
  847SOL    MW4 3122   1.048   4.951   0.091  0.1734 -0.1615  0.0585
  848SOL     OW 3123   5.111   0.839   1.730  0.9265 -0.5769  0.1494
  848SOL    HW2 3124   5.071   0.844   1.817 -0.2369 -1.0699 -0.3352
  848SOL    HW3 3125   5.205   0.837   1.747  0.7593  0.2793  1.3462
  848SOL    MW4 3126   5.118   0.840   1.744  0.1595 -0.2277  0.3755
  849SOL     OW 3127   3.720   1.688   6.105  0.2404 -0.6650  0.4696
  849SOL    HW2 3128   3.751   1.607   6.146 -0.6130 -1.6466 -0.7082
  849SOL    HW3 3129   3.739   1.676   6.012  1.0321  0.9644  0.3902
  849SOL    MW4 3130   3.727   1.675   6.098 -0.2037 -0.6330  0.7143
  850SOL     OW 3131   1.379   5.519   5.292 -0.2715  0.1678  0.1431
  850SOL    HW2 3132   1.348   5.608   5.274 -1.5949 -0.4554 -0.7862
  850SOL    HW3 3133   1.306   5.476   5.335 -0.1962 -0.9002 -0.7562
  850SOL    MW4 3134   1.365   5.525   5.295  0.0342  0.3320  0.1438
  851SOL     OW 3135   4.383   1.788   0.375 -0.3185  0.2903  0.4089
  851SOL    HW2 3136   4.430   1.705   0.363 -0.1202  0.3733  0.5932
  851SOL    HW3 3137   4.341   1.778   0.461 -1.9840 -0.4293 -0.4400
  851SOL    MW4 3138   4.384   1.776   0.385  0.2237  0.1438  0.3713
  852SOL     OW 3139   4.045   5.313   3.999 -0.1143 -0.1589  0.0237
  852SOL    HW2 3140   4.114   5.308   3.933  0.9258  0.2780  1.0526
  852SOL    HW3 3141   4.074   5.256   4.070 -0.6099  0.3343  0.6423
  852SOL    MW4 3142   4.058   5.305   4.000 -0.1558 -0.4414  0.2386
  853SOL     OW 3143   1.089   1.902   5.199 -0.4376 -0.3164 -0.0517
  853SOL    HW2 3144   1.065   1.816   5.234  0.6765 -0.2027  1.0812
  853SOL    HW3 3145   1.079   1.962   5.273  1.2480  0.0659 -0.0883
  853SOL    MW4 3146   1.085   1.898   5.213  0.8088 -0.5337 -0.0128
  854SOL     OW 3147   2.119   0.063   4.303 -0.2693 -0.6789 -0.3100
  854SOL    HW2 3148   2.162   0.074   4.219 -0.2128  1.1573 -0.0786
  854SOL    HW3 3149   2.071   0.145   4.317 -0.4016 -0.9965  1.3554
  854SOL    MW4 3150   2.118   0.075   4.294 -0.2578 -0.0007 -0.4138
  855SOL     OW 3151   5.899   4.987   4.865 -0.0628  0.5647  0.1069
  855SOL    HW2 3152   5.946   4.949   4.939 -0.3128  0.7905  0.3831
  855SOL    HW3 3153   5.853   5.062   4.901  0.5811  1.2628 -0.4724
  855SOL    MW4 3154   5.899   4.992   4.879  0.0951 -0.1243  0.3546
  856SOL     OW 3155   5.355   3.263   5.678 -0.1155  0.1663 -0.0222
  856SOL    HW2 3156   5.343   3.188   5.621 -1.5050  0.4565 -0.1374
  856SOL    HW3 3157   5.442   3.296   5.656  0.5399 -1.4137  0.0715
  856SOL    MW4 3158   5.365   3.258   5.668 -0.5964 -0.0478  1.1176
  857SOL     OW 3159   4.121   5.332   2.477 -0.2493  0.0342  0.1309
  857SOL    HW2 3160   4.099   5.269   2.546 -0.7246 -2.7383 -2.3214
  857SOL    HW3 3161   4.216   5.323   2.466 -0.1565  0.5599  0.4982
  857SOL    MW4 3162   4.130   5.322   2.484 -0.1242 -0.0613 -0.6176
  858SOL     OW 3163   4.163   2.347   5.659  0.4711 -0.5059  0.4938
  858SOL    HW2 3164   4.098   2.306   5.602  1.0449  0.0871 -0.6197
  858SOL    HW3 3165   4.229   2.279   5.671  1.1735 -0.1259 -0.9419
  858SOL    MW4 3166   4.163   2.333   5.653 -0.3469 -0.1818 -0.5231
  859SOL     OW 3167   4.553   5.915   0.654  0.1976  0.5409  0.0129
  859SOL    HW2 3168   4.559   5.824   0.624  2.8313  0.6001  0.1809
  859SOL    HW3 3169   4.578   5.911   0.746 -0.4968  1.3537  0.2487
  859SOL    MW4 3170   4.557   5.902   0.662  0.8207 -0.7011  0.0296
  860SOL     OW 3171   5.887   5.899   0.895  0.1135 -0.5648  0.1204
  860SOL    HW2 3172   5.909   5.846   0.971  0.2313 -1.6141 -0.6201
  860SOL    HW3 3173   5.822   5.962   0.927 -0.7107 -1.7347  0.8345
  860SOL    MW4 3174   5.881   5.901   0.909 -0.0407  0.3768  0.0776
  861SOL     OW 3175   6.101   3.246   5.782 -0.0059  0.0180  0.5575
  861SOL    HW2 3176   6.042   3.274   5.712  0.1049 -1.4315 -0.1616
  861SOL    HW3 3177   6.048   3.250   5.861 -0.4044  0.8276  0.2641
  861SOL    MW4 3178   6.086   3.250   5.783  0.3704 -0.1853  0.2929
  862SOL     OW 3179   1.515   4.681   0.271 -0.1008  0.2019  0.0515
  862SOL    HW2 3180   1.437   4.726   0.239 -1.0527 -0.6294  1.1505
  862SOL    HW3 3181   1.483   4.598   0.307  1.6437 -1.7948 -2.5349
  862SOL    MW4 3182   1.500   4.676   0.271  0.1236 -0.5129 -0.2657
  863SOL     OW 3183   6.119   1.412   6.395 -0.6132 -0.2924 -0.3607
  863SOL    HW2 3184   6.048   1.351   6.379 -0.8952  0.1128 -0.6879
  863SOL    HW3 3185   6.135   1.454   6.310 -0.3565  0.0108 -0.1676
  863SOL    MW4 3186   6.112   1.410   6.382  0.3315  0.4693 -0.5880
  864SOL     OW 3187   2.279   5.674   1.979 -0.2127  0.0971 -0.0173
  864SOL    HW2 3188   2.278   5.645   2.071 -2.2511 -0.1867 -0.0784
  864SOL    HW3 3189   2.224   5.752   1.978  1.6766  1.4728 -0.6330
  864SOL    MW4 3190   2.271   5.680   1.991  0.5703  0.3536 -0.2682
  865SOL     OW 3191   5.648   5.307   5.944  0.2242 -0.3507  0.8858
  865SOL    HW2 3192   5.664   5.357   5.864  0.1170 -1.1057  0.3720
  865SOL    HW3 3193   5.700   5.350   6.011  1.4146 -0.5123  0.0974
  865SOL    MW4 3194   5.657   5.319   5.942 -0.0001 -0.0504 -0.5198
  866SOL     OW 3195   5.277   0.658   5.126  0.1832 -0.4857 -0.0274
  866SOL    HW2 3196   5.346   0.675   5.061  0.3948 -0.3971  0.2191
  866SOL    HW3 3197   5.323   0.617   5.199  0.4304  1.8211  1.2028
  866SOL    MW4 3198   5.292   0.654   5.127 -0.4424 -0.0435  0.8578
  867SOL     OW 3199   1.109   0.879   2.388 -0.2717 -0.0392  0.2299
  867SOL    HW2 3200   1.160   0.809   2.429  0.2848  0.6927  0.8299
  867SOL    HW3 3201   1.159   0.904   2.311 -0.7562 -0.6683 -0.2994
  867SOL    MW4 3202   1.122   0.874   2.383 -0.0008  0.3330 -0.0142
  868SOL     OW 3203   1.998   4.527   1.662  0.2914 -0.6894  0.2745
  868SOL    HW2 3204   2.083   4.549   1.700 -0.7015  2.7077  0.9225
  868SOL    HW3 3205   2.003   4.434   1.643  3.7616 -0.8364  1.2322
  868SOL    MW4 3206   2.010   4.518   1.664  0.6007 -0.0485  0.0002
  869SOL     OW 3207   0.594   4.725   5.637  0.0670  0.6472 -0.1969
  869SOL    HW2 3208   0.583   4.692   5.725 -0.5343  2.2446  0.3678
  869SOL    HW3 3209   0.682   4.697   5.611 -0.6979 -2.0795 -0.1500
  869SOL    MW4 3210   0.605   4.717   5.645 -0.1851 -0.3566 -0.3517
  870SOL     OW 3211   1.019   4.075   1.948  0.3063  0.5380  0.3304
  870SOL    HW2 3212   0.942   4.025   1.977 -1.7382 -0.2739 -5.3172
  870SOL    HW3 3213   1.088   4.009   1.939  0.4149  0.4900  1.3310
  870SOL    MW4 3214   1.018   4.059   1.951  0.1443  0.1658 -0.5137
  871SOL     OW 3215   6.424   5.228   2.887  0.1992 -0.1367  0.1538
  871SOL    HW2 3216   6.391   5.139   2.897 -0.9362 -0.0127 -1.9428
  871SOL    HW3 3217   6.519   5.219   2.891  0.1630 -1.7064 -1.5186
  871SOL    MW4 3218   6.432   5.215   2.889 -0.0895 -0.5321  0.4013
  872SOL     OW 3219   5.664   6.338   5.024 -0.1650 -0.1274 -0.1450
  872SOL    HW2 3220   5.746   6.330   4.975 -0.0821 -0.6692  0.0830
  872SOL    HW3 3221   5.646   6.250   5.056 -0.7162  0.0347  0.0043
  872SOL    MW4 3222   5.672   6.326   5.021 -0.2651  0.3419  0.4342
  873SOL     OW 3223   4.750   4.114   4.373  0.2603  0.5094  0.6569
  873SOL    HW2 3224   4.687   4.048   4.400  2.4353 -1.0934  2.1705
  873SOL    HW3 3225   4.715   4.149   4.291 -1.4608 -1.8607  0.2790
  873SOL    MW4 3226   4.737   4.110   4.365 -0.1230  0.0260  0.8082
  874SOL     OW 3227   3.681   5.634   1.977 -0.0504 -1.0165  0.1520
  874SOL    HW2 3228   3.647   5.570   1.914 -0.0219 -0.4264 -0.4849
  874SOL    HW3 3229   3.775   5.616   1.981  0.6601  1.1787 -2.7702
  874SOL    MW4 3230   3.689   5.623   1.969  0.7847  1.0280  0.0849
  875SOL     OW 3231   4.366   6.369   3.627  0.7025 -0.2271  0.0672
  875SOL    HW2 3232   4.453   6.343   3.656  0.8514  0.9136  0.6974
  875SOL    HW3 3233   4.351   6.454   3.670 -0.4110 -0.0637 -0.6179
  875SOL    MW4 3234   4.376   6.377   3.637  0.0118  0.1851  0.0742
  876SOL     OW 3235   1.807   3.865   1.775 -0.0618  0.3824  1.0418
  876SOL    HW2 3236   1.722   3.896   1.744  0.0060  1.5593  1.9488
  876SOL    HW3 3237   1.856   3.945   1.794  1.1924 -0.2725  0.7184
  876SOL    MW4 3238   1.802   3.880   1.773  0.7670 -0.3381 -0.7419
  877SOL     OW 3239   3.491   2.957   1.193 -0.3362  0.1788  0.4443
  877SOL    HW2 3240   3.414   2.935   1.141  0.0867 -1.7012  0.5288
  877SOL    HW3 3241   3.554   2.993   1.131 -0.3845 -0.6541 -0.1084
  877SOL    MW4 3242   3.489   2.959   1.178  0.0777 -0.3619  0.1286
  878SOL     OW 3243   1.748   1.429   0.369 -0.7780 -0.2074  0.6936
  878SOL    HW2 3244   1.722   1.337   0.365 -1.6098  0.0445  0.0342
  878SOL    HW3 3245   1.666   1.476   0.388 -0.3715  0.4036  0.9768
  878SOL    MW4 3246   1.734   1.423   0.371 -0.1322 -0.7708 -0.0418
  879SOL     OW 3247   1.485   2.482   4.551 -0.3171 -0.6265  0.1881
  879SOL    HW2 3248   1.410   2.445   4.597 -1.3608  0.2926 -0.7361
  879SOL    HW3 3249   1.505   2.563   4.598 -0.6052 -0.3141 -0.2209
  879SOL    MW4 3250   1.478   2.488   4.563 -0.3995 -0.1419  0.1775
  880SOL     OW 3251   3.099   2.322   3.260  0.1991 -0.1869 -0.4772
  880SOL    HW2 3252   3.147   2.398   3.228 -0.6568  0.8612  0.5980
  880SOL    HW3 3253   3.107   2.327   3.356 -0.7462 -0.8492 -0.3451
  880SOL    MW4 3254   3.106   2.333   3.269 -0.0497 -0.0601 -0.6981
  881SOL     OW 3255   1.203   0.411   5.699  0.0109 -0.3030  0.2419
  881SOL    HW2 3256   1.268   0.376   5.639  0.7099  1.7794 -0.3040
  881SOL    HW3 3257   1.126   0.356   5.685  1.2068 -2.0010 -0.0376
  881SOL    MW4 3258   1.201   0.399   5.689 -0.1129  0.0215 -0.6631
  882SOL     OW 3259   5.746   2.746   2.822 -0.5004 -0.3758  0.3873
  882SOL    HW2 3260   5.769   2.773   2.733 -0.6268 -0.1096  0.4333
  882SOL    HW3 3261   5.786   2.812   2.878  0.5495 -1.1784  0.5970
  882SOL    MW4 3262   5.754   2.758   2.818 -0.3527 -0.1508 -0.0987
  883SOL     OW 3263   0.535   0.011   5.155 -0.6073  0.2823 -0.0060
  883SOL    HW2 3264   0.485   0.080   5.198 -2.2263 -1.1351  0.4871
  883SOL    HW3 3265   0.545  -0.057   5.221 -2.5918 -1.6732 -1.5445
  883SOL    MW4 3266   0.529   0.011   5.169  0.2500  0.5976 -0.1515
  884SOL     OW 3267   1.237   2.039   1.459  0.1272 -0.0207  0.2744
  884SOL    HW2 3268   1.189   2.041   1.376  0.3382  2.7068  0.1125
  884SOL    HW3 3269   1.203   1.963   1.505 -1.6790 -0.2735 -1.3510
  884SOL    MW4 3270   1.227   2.030   1.454  0.0901  0.6138  0.2796
  885SOL     OW 3271   3.017   4.364   1.727  0.6677 -0.0316  0.1181
  885SOL    HW2 3272   3.062   4.283   1.747  2.3876  0.5496 -1.1688
  885SOL    HW3 3273   3.087   4.429   1.715 -0.6132  1.4552  0.3172
  885SOL    MW4 3274   3.032   4.362   1.728  0.1300 -0.2799  0.1435
  886SOL     OW 3275   4.167   3.135   1.281 -0.2092  0.2608 -0.0281
  886SOL    HW2 3276   4.090   3.191   1.292 -0.7782  0.4024 -3.5537
  886SOL    HW3 3277   4.136   3.047   1.300 -0.4595  0.6005  1.2425
  886SOL    MW4 3278   4.153   3.131   1.285  0.1195 -0.0675  0.5050
  887SOL     OW 3279   3.998   4.209   1.019  0.0342  0.2460  0.3620
  887SOL    HW2 3280   4.004   4.282   1.081 -0.6901  0.8596 -0.2681
  887SOL    HW3 3281   3.923   4.159   1.049  0.3517 -0.0820  0.6188
  887SOL    MW4 3282   3.989   4.212   1.031  0.1793  0.1100 -0.0022
  888SOL     OW 3283   2.361   2.237   3.791  0.1920  0.2508  0.0203
  888SOL    HW2 3284   2.340   2.300   3.860 -1.9938 -0.3974 -0.0007
  888SOL    HW3 3285   2.405   2.165   3.837 -0.2825  0.3069  0.5702
  888SOL    MW4 3286   2.364   2.236   3.806 -0.1831 -0.6239  0.5580
  889SOL     OW 3287   5.358   5.542   1.410  0.2232  0.7246 -0.1472
  889SOL    HW2 3288   5.308   5.593   1.473  1.0134  1.2884  0.0387
  889SOL    HW3 3289   5.448   5.543   1.443  0.5639  0.6417 -1.0312
  889SOL    MW4 3290   5.363   5.549   1.422  0.1709 -0.4783  0.4009
  890SOL     OW 3291   6.331   2.895   1.562  0.0080 -0.0507 -0.3281
  890SOL    HW2 3292   6.419   2.926   1.540 -0.0887 -0.1585 -0.8774
  890SOL    HW3 3293   6.346   2.830   1.631  0.5542 -1.5089 -1.7557
  890SOL    MW4 3294   6.345   2.890   1.568  0.2790 -0.1496 -0.4239
  891SOL     OW 3295   5.557   4.766   3.224  0.2712  0.2854  0.0387
  891SOL    HW2 3296   5.497   4.696   3.249  0.5345  0.0012 -0.1278
  891SOL    HW3 3297   5.513   4.811   3.152 -1.9668  3.0394  2.8489
  891SOL    MW4 3298   5.543   4.763   3.218 -0.3251 -0.7219  0.0796
  892SOL     OW 3299   4.554   0.910   2.560  0.1829  0.4508 -0.0444
  892SOL    HW2 3300   4.477   0.946   2.604 -1.9737 -0.9242 -2.4059
  892SOL    HW3 3301   4.576   0.832   2.612  0.4800  1.2278  1.0448
  892SOL    MW4 3302   4.547   0.904   2.573 -0.1619  0.6660  0.1664
  893SOL     OW 3303   4.663   5.214   3.754  0.1261  0.3340  0.1528
  893SOL    HW2 3304   4.745   5.181   3.790 -0.1823  1.7773  2.4288
  893SOL    HW3 3305   4.595   5.167   3.803 -0.4022  0.1271 -0.7521
  893SOL    MW4 3306   4.665   5.204   3.765  0.0861  0.2586 -0.4052
  894SOL     OW 3307   5.133   1.654   3.466  0.2108  0.5196  0.1623
  894SOL    HW2 3308   5.151   1.685   3.554  1.6807  0.0450  0.0488
  894SOL    HW3 3309   5.153   1.560   3.468 -0.5087  0.3373 -0.4749
  894SOL    MW4 3310   5.138   1.645   3.478  0.5833 -0.3732  0.1432
  895SOL     OW 3311   0.190   2.109   4.378 -0.0759 -0.3712 -0.0844
  895SOL    HW2 3312   0.131   2.175   4.412  0.3688 -0.9043  1.8327
  895SOL    HW3 3313   0.180   2.115   4.283 -1.5422  1.0351  0.1113
  895SOL    MW4 3314   0.181   2.118   4.370 -0.0193 -0.8440 -0.1250
  896SOL     OW 3315   3.486   4.421   5.597 -0.3651 -0.3713  0.1382
  896SOL    HW2 3316   3.474   4.516   5.590  0.3326 -0.2878 -0.0102
  896SOL    HW3 3317   3.408   4.384   5.555 -0.5506  0.1371  0.0241
  896SOL    MW4 3318   3.474   4.429   5.590  0.8376 -0.2891 -0.6275
  897SOL     OW 3319   0.879   4.330   2.878  0.0655 -0.0928  0.3941
  897SOL    HW2 3320   0.853   4.419   2.903 -0.8532 -0.1882 -0.1453
  897SOL    HW3 3321   0.802   4.295   2.833  0.8314 -0.7459 -0.4444
  897SOL    MW4 3322   0.865   4.337   2.875  0.6365  0.3309 -0.0208
  898SOL     OW 3323   3.319   4.547   3.265 -0.2460  0.0830  0.1925
  898SOL    HW2 3324   3.288   4.575   3.180  0.0632 -0.0438  0.0351
  898SOL    HW3 3325   3.260   4.476   3.291  0.5554 -0.9270 -0.6083
  898SOL    MW4 3326   3.307   4.541   3.257  0.0218  0.2787  0.7207
  899SOL     OW 3327   5.234   3.912   0.581  0.0381  0.0388  0.1747
  899SOL    HW2 3328   5.163   3.976   0.591 -0.8548 -1.1005  1.6528
  899SOL    HW3 3329   5.303   3.943   0.640  0.8087  1.1275 -1.2355
  899SOL    MW4 3330   5.233   3.924   0.590  0.0721  0.5699  0.1002
  900SOL     OW 3331   6.315   5.652   3.515  0.1605 -0.8316 -0.0044
  900SOL    HW2 3332   6.374   5.681   3.446 -0.3305 -1.1194 -0.5577
  900SOL    HW3 3333   6.227   5.668   3.480 -0.0987 -0.4822  0.7720
  900SOL    MW4 3334   6.311   5.658   3.501  0.9279  0.1617  0.6199
  901SOL     OW 3335   1.896   6.357   4.399  0.4611  0.1944 -0.2085
  901SOL    HW2 3336   1.971   6.400   4.358 -0.0742 -1.4068 -3.1132
  901SOL    HW3 3337   1.822   6.413   4.378  0.4406  0.3434  0.2522
  901SOL    MW4 3338   1.896   6.370   4.391  0.0699 -0.1018  0.4351
  902SOL     OW 3339   1.003   1.200   1.482 -0.1343  0.9635 -0.1141
  902SOL    HW2 3340   0.914   1.184   1.513  0.1273 -1.2220 -0.3710
  902SOL    HW3 3341   1.032   1.275   1.534 -0.2310 -1.5812  4.1083
  902SOL    MW4 3342   0.995   1.208   1.493 -0.3022  0.2265  0.0987
  903SOL     OW 3343   1.247   6.236   3.361  0.4895 -0.4756 -0.3171
  903SOL    HW2 3344   1.311   6.269   3.425 -0.6302 -0.7075  0.9658
  903SOL    HW3 3345   1.288   6.157   3.325  2.4658  1.2723 -2.1909
  903SOL    MW4 3346   1.261   6.230   3.365  0.4688  0.0459 -0.5632
  904SOL     OW 3347   4.349   5.358   1.974 -0.0602  0.0520  0.2711
  904SOL    HW2 3348   4.287   5.351   2.046 -0.0796  0.9615  0.3577
  904SOL    HW3 3349   4.305   5.413   1.909  0.4316  0.2526  0.0987
  904SOL    MW4 3350   4.335   5.364   1.975 -0.2348  0.5702  0.4446
  905SOL     OW 3351   5.383   0.273   3.246 -0.9049  0.2735 -0.0936
  905SOL    HW2 3352   5.415   0.346   3.194  1.0908 -0.3824  0.1406
  905SOL    HW3 3353   5.408   0.195   3.197  0.1105 -0.3257  1.2916
  905SOL    MW4 3354   5.390   0.273   3.233 -0.0510  0.0599 -0.6369
  906SOL     OW 3355   3.844   3.664   2.965  0.1085 -1.0073 -0.0678
  906SOL    HW2 3356   3.749   3.666   2.974  0.0632  1.0883 -0.3571
  906SOL    HW3 3357   3.861   3.718   2.887  1.4902 -1.9890 -0.4768
  906SOL    MW4 3358   3.833   3.672   2.956  0.2143 -0.8130 -0.6440
  907SOL     OW 3359   6.074   1.728   1.709  0.4759 -0.3528 -0.4603
  907SOL    HW2 3360   6.125   1.790   1.657  1.0723 -0.1542  0.3268
  907SOL    HW3 3361   6.098   1.642   1.676 -0.9800 -0.1695 -2.1212
  907SOL    MW4 3362   6.084   1.725   1.698  0.0481 -0.1715  0.7450
  908SOL     OW 3363   2.195   3.455   3.644 -0.0233 -0.0529  0.0599
  908SOL    HW2 3364   2.099   3.454   3.645 -0.1488  1.9462 -2.2500
  908SOL    HW3 3365   2.218   3.431   3.554  1.6243  0.0929  0.4210
  908SOL    MW4 3366   2.185   3.452   3.632 -0.2470  0.5223 -0.6446
  909SOL     OW 3367   6.009   3.880   6.182 -0.1796 -0.2415 -0.4964
  909SOL    HW2 3368   5.994   3.880   6.276 -0.5502  2.8611 -0.4342
  909SOL    HW3 3369   6.101   3.909   6.173 -0.5878  0.9782 -1.0353
  909SOL    MW4 3370   6.019   3.884   6.193 -0.0884 -0.1877  0.1089
  910SOL     OW 3371   4.479   4.615   4.091 -0.2862  0.0550 -0.3993
  910SOL    HW2 3372   4.456   4.525   4.116  3.3630 -1.5776 -2.2458
  910SOL    HW3 3373   4.459   4.619   3.997  0.2438  0.9310 -0.4805
  910SOL    MW4 3374   4.473   4.604   4.082 -0.1921 -0.4350 -0.4793
  911SOL     OW 3375   4.389   0.334   4.394  0.0540 -0.0797 -0.4217
  911SOL    HW2 3376   4.385   0.307   4.302  0.1569  0.4165 -0.5713
  911SOL    HW3 3377   4.472   0.380   4.402 -0.2952  0.5284 -0.2553
  911SOL    MW4 3378   4.400   0.336   4.383 -0.8863 -0.5312  0.1994
  912SOL     OW 3379   6.242   3.464   6.069 -0.8433  0.3998  0.3123
  912SOL    HW2 3380   6.200   3.520   6.004  0.2501  0.4682 -0.3693
  912SOL    HW3 3381   6.244   3.517   6.149 -0.8296  0.9050 -0.0154
  912SOL    MW4 3382   6.237   3.478   6.071 -0.5584 -0.3348  0.0146
  913SOL     OW 3383   1.672   0.853   5.642 -0.6635 -0.0763 -0.5757
  913SOL    HW2 3384   1.729   0.860   5.566  0.4015  0.0713  0.2074
  913SOL    HW3 3385   1.731   0.835   5.715 -1.4459  1.4912  0.5109
  913SOL    MW4 3386   1.687   0.852   5.642 -0.1724  0.7402  0.3864
  914SOL     OW 3387   1.952   6.361   3.118  0.0356  0.1197  0.2082
  914SOL    HW2 3388   2.020   6.302   3.149  0.6349  0.7508  0.1387
  914SOL    HW3 3389   1.877   6.345   3.175  0.5611  0.0726  0.8946
  914SOL    MW4 3390   1.951   6.351   3.129 -0.3717 -0.4466  0.3834
  915SOL     OW 3391   0.448   3.611   5.910  0.1926  0.9661 -0.4386
  915SOL    HW2 3392   0.436   3.700   5.878 -1.7355  0.8170 -0.2231
  915SOL    HW3 3393   0.457   3.558   5.830 -2.6114  0.8674 -0.7645
  915SOL    MW4 3394   0.448   3.616   5.895 -0.2429 -0.2503 -0.0082
  916SOL     OW 3395   3.887   6.201   1.334 -0.3306  0.2616  0.6244
  916SOL    HW2 3396   3.930   6.145   1.398  0.5841  0.2437  0.0112
  916SOL    HW3 3397   3.795   6.202   1.361 -0.2435 -0.9864  1.0319
  916SOL    MW4 3398   3.880   6.194   1.346  0.0763  0.0423  0.1694
  917SOL     OW 3399   0.877   0.521   4.231  0.3674  0.2222 -0.3635
  917SOL    HW2 3400   0.904   0.549   4.143  0.0259  1.5257 -0.0726
  917SOL    HW3 3401   0.890   0.598   4.286  1.7108 -0.9167  0.9955
  917SOL    MW4 3402   0.882   0.535   4.226 -0.1683  0.5593  0.2265
  918SOL     OW 3403   4.737   0.741   2.686  0.6129  0.1202 -0.4104
  918SOL    HW2 3404   4.799   0.797   2.733  1.3919 -0.4750 -0.7055
  918SOL    HW3 3405   4.757   0.652   2.717 -1.0144  0.0457  0.5166
  918SOL    MW4 3406   4.748   0.736   2.697 -0.0580  0.3678 -0.3165
  919SOL     OW 3407   4.683   2.116   5.024  0.2910 -0.1850  0.1507
  919SOL    HW2 3408   4.665   2.022   5.029  1.6775 -0.5845 -1.4530
  919SOL    HW3 3409   4.762   2.122   4.971  0.0804  1.9264  0.0048
  919SOL    MW4 3410   4.691   2.104   5.018 -0.1467 -0.4306  0.6564
  920SOL     OW 3411   4.126   3.521   3.075 -0.3078  0.0180 -0.5502
  920SOL    HW2 3412   4.161   3.580   3.141 -1.8946 -0.3633  0.7183
  920SOL    HW3 3413   4.063   3.574   3.027 -0.5194 -0.1845 -0.5011
  920SOL    MW4 3414   4.122   3.536   3.078 -0.2129  0.0892  0.2629
  921SOL     OW 3415   6.143   0.891   3.060  0.1542  0.1224 -0.4708
  921SOL    HW2 3416   6.097   0.932   2.986 -0.6233 -0.2656 -0.2152
  921SOL    HW3 3417   6.230   0.931   3.060 -0.0125  0.4963 -1.2839
  921SOL    MW4 3418   6.148   0.902   3.050 -1.1724  0.2622 -0.6586
  922SOL     OW 3419   6.211   4.128   5.329  0.2870 -0.2390  0.0910
  922SOL    HW2 3420   6.174   4.075   5.258  0.5374  0.6182 -0.7096
  922SOL    HW3 3421   6.302   4.142   5.302 -0.0220  1.3618 -0.2002
  922SOL    MW4 3422   6.218   4.123   5.316  0.0354 -0.0968  0.6938
  923SOL     OW 3423   1.032   6.281   2.379  0.3918  0.3724  0.2351
  923SOL    HW2 3424   1.029   6.352   2.315  2.3435  1.8648  1.6792
  923SOL    HW3 3425   1.047   6.202   2.326  0.9615  1.4080 -1.2131
  923SOL    MW4 3426   1.034   6.280   2.363 -0.1099  0.2374 -0.0967
  924SOL     OW 3427   2.298   5.306   0.937  0.4563  0.4491 -0.9440
  924SOL    HW2 3428   2.373   5.366   0.929  0.3064  0.9016  0.6782
  924SOL    HW3 3429   2.252   5.337   1.015 -1.0042 -0.2976 -1.4839
  924SOL    MW4 3430   2.302   5.318   0.946 -0.5093 -0.2027 -0.5753
  925SOL     OW 3431   4.486   0.223   1.408  0.3278 -0.2390  0.3669
  925SOL    HW2 3432   4.481   0.263   1.495  1.9722 -1.9639  1.3444
  925SOL    HW3 3433   4.553   0.273   1.362 -0.8381  0.9428 -0.1090
  925SOL    MW4 3434   4.494   0.235   1.413  0.3352  0.1200 -0.0768
  926SOL     OW 3435   5.707   1.793   3.755  0.0878  0.6326  0.0457
  926SOL    HW2 3436   5.771   1.839   3.701 -0.0977 -0.4625 -1.1385
  926SOL    HW3 3437   5.623   1.810   3.713  0.0458 -0.9826 -0.5942
  926SOL    MW4 3438   5.704   1.802   3.743  0.6289  0.7339 -0.0371
  927SOL     OW 3439   5.440   3.529   4.169  0.4619  0.0806 -0.2475
  927SOL    HW2 3440   5.428   3.517   4.263  0.9770  1.5690  0.0485
  927SOL    HW3 3441   5.493   3.609   4.162  1.4192 -0.6350 -1.7695
  927SOL    MW4 3442   5.445   3.538   4.180 -0.0445  0.0172 -0.3578
  928SOL     OW 3443   1.094   4.543   4.761  0.2589  0.0085  0.0579
  928SOL    HW2 3444   1.060   4.596   4.833 -0.7602 -0.0896 -0.3400
  928SOL    HW3 3445   1.188   4.535   4.780  1.1135  4.2135 -1.2736
  928SOL    MW4 3446   1.102   4.549   4.773  0.2715  0.4165  0.3883
  929SOL     OW 3447   1.968   2.529   4.495 -0.2538 -0.2834  0.2955
  929SOL    HW2 3448   1.893   2.473   4.512 -0.6941  0.4330  0.7207
  929SOL    HW3 3449   1.960   2.553   4.403  0.1851 -1.2726 -0.0122
  929SOL    MW4 3450   1.957   2.525   4.485 -0.2196 -0.2552  0.0899
  930SOL     OW 3451   0.330   4.098   0.829 -0.3074 -0.4339  0.5902
  930SOL    HW2 3452   0.239   4.082   0.854 -0.0084 -0.7806  1.4913
  930SOL    HW3 3453   0.374   4.014   0.842 -0.2668 -0.8543 -1.8167
  930SOL    MW4 3454   0.324   4.085   0.834  0.4070 -0.1313 -0.7616
  931SOL     OW 3455   2.201   0.300   2.078 -0.3346  0.1908 -0.3981
  931SOL    HW2 3456   2.242   0.350   2.008  1.0063  0.7077  0.7153
  931SOL    HW3 3457   2.209   0.209   2.050 -0.7467  0.4387 -1.3766
  931SOL    MW4 3458   2.207   0.294   2.065 -0.3127 -0.4421  0.5038
  932SOL     OW 3459   4.961   0.820   5.806 -0.4516 -0.0281  0.6226
  932SOL    HW2 3460   4.930   0.754   5.868  1.4202 -0.3582  1.2885
  932SOL    HW3 3461   4.963   0.901   5.857 -0.3878  0.0165  0.5500
  932SOL    MW4 3462   4.957   0.822   5.821  0.0877 -0.6398 -0.0598
  933SOL     OW 3463   2.121   0.195   5.280  0.4823  0.0077 -0.0357
  933SOL    HW2 3464   2.190   0.133   5.259  0.3656 -0.2379  0.3005
  933SOL    HW3 3465   2.083   0.218   5.195  2.3045  1.7356 -0.4726
  933SOL    MW4 3466   2.125   0.190   5.266 -0.1233 -0.4542  0.0706
  934SOL     OW 3467   0.538   3.869   3.748  0.3248 -0.1098 -0.1527
  934SOL    HW2 3468   0.611   3.812   3.722 -0.4812 -0.5886 -1.4712
  934SOL    HW3 3469   0.488   3.881   3.667  0.1804  2.0615  0.2135
  934SOL    MW4 3470   0.541   3.863   3.734 -0.3733 -0.5108 -0.3641
  935SOL     OW 3471   0.193   2.570   1.060  0.8056 -0.2646  0.2288
  935SOL    HW2 3472   0.179   2.585   1.153  2.3168  0.1243  0.4168
  935SOL    HW3 3473   0.277   2.612   1.041  1.0243 -1.2283 -1.0848
  935SOL    MW4 3474   0.202   2.578   1.070  0.0850  0.0806 -0.1240
  936SOL     OW 3475   3.026   2.365   1.544 -0.1963  0.7899  0.2338
  936SOL    HW2 3476   3.081   2.443   1.538 -0.2548  0.8159  0.0457
  936SOL    HW3 3477   2.936   2.400   1.547 -0.1694  0.9536  3.3531
  936SOL    MW4 3478   3.021   2.380   1.544  0.3682  0.1868  0.6273
  937SOL     OW 3479   5.351   1.685   6.166  0.1316 -0.7645 -0.1548
  937SOL    HW2 3480   5.402   1.609   6.138  0.6608 -0.5536  0.2310
  937SOL    HW3 3481   5.260   1.659   6.150  0.3915  0.2190 -4.4262
  937SOL    MW4 3482   5.346   1.671   6.160  0.4830  0.0367  1.0080
  938SOL     OW 3483   4.450   4.047   1.697 -0.2862  0.3028  0.4078
  938SOL    HW2 3484   4.473   4.131   1.658 -1.0794  0.9248  1.2417
  938SOL    HW3 3485   4.512   3.985   1.658 -0.0406  1.1628 -0.6318
  938SOL    MW4 3486   4.461   4.050   1.687 -0.3033  0.6084 -0.5583
  939SOL     OW 3487   2.137   1.659   4.470 -0.1296  0.3235  0.6662
  939SOL    HW2 3488   2.108   1.723   4.534  0.5673  1.9590 -0.5898
  939SOL    HW3 3489   2.071   1.662   4.401  1.0641  1.4232 -0.4849
  939SOL    MW4 3490   2.124   1.668   4.469 -0.0043  0.0653 -0.9031
  940SOL     OW 3491   4.209   3.620   3.592 -0.0018 -0.0370 -0.6125
  940SOL    HW2 3492   4.153   3.597   3.667 -1.8586 -1.7212 -2.3902
  940SOL    HW3 3493   4.251   3.537   3.568  0.7763  0.5418 -1.2540
  940SOL    MW4 3494   4.207   3.606   3.599  0.8188  0.1800 -0.0576
  941SOL     OW 3495   5.088   5.516   4.157 -0.8209 -0.0692  0.2304
  941SOL    HW2 3496   5.162   5.563   4.119 -1.4462  0.9262  0.2257
  941SOL    HW3 3497   5.116   5.424   4.157  0.9720  0.4260  1.4817
  941SOL    MW4 3498   5.101   5.510   4.152  0.7314 -0.5769 -0.0789
  942SOL     OW 3499   0.572   1.165   5.855 -0.4110  0.1012 -0.1180
  942SOL    HW2 3500   0.528   1.116   5.925  0.8199 -0.5584  0.2124
  942SOL    HW3 3501   0.559   1.112   5.776 -1.8542  0.8764 -0.4324
  942SOL    MW4 3502   0.564   1.152   5.854  0.4901  0.6611 -0.0916
  943SOL     OW 3503   4.577   3.797   1.648  0.3463 -0.0861  0.1955
  943SOL    HW2 3504   4.587   3.779   1.555  0.3252 -0.3151  0.2351
  943SOL    HW3 3505   4.655   3.759   1.688  0.3540  0.0090  0.2710
  943SOL    MW4 3506   4.589   3.789   1.641 -0.5356  0.4316  0.4227
  944SOL     OW 3507   1.106   0.734   4.751  0.0949 -0.4376  0.1955
  944SOL    HW2 3508   1.059   0.774   4.678 -2.6528 -0.3385  1.8981
  944SOL    HW3 3509   1.103   0.799   4.821  1.0090 -1.2623  1.0472
  944SOL    MW4 3510   1.100   0.747   4.751 -0.7225  0.7270  0.2316
  945SOL     OW 3511   6.264   4.530   6.205 -0.1031 -0.1813  0.2360
  945SOL    HW2 3512   6.287   4.524   6.298 -0.2349 -2.1844  0.1841
  945SOL    HW3 3513   6.219   4.614   6.197 -0.2571 -0.0494  2.0343
  945SOL    MW4 3514   6.261   4.540   6.216 -0.2620  0.2459 -0.1899
  946SOL     OW 3515   5.374   3.361   2.655 -0.2742  0.2693  0.1950
  946SOL    HW2 3516   5.364   3.266   2.651  0.2787  0.1059  1.9314
  946SOL    HW3 3517   5.434   3.382   2.583 -1.3842 -0.5016 -1.0142
  946SOL    MW4 3518   5.381   3.351   2.645  0.8646  0.9307  0.5076
  947SOL     OW 3519   3.981   3.848   3.159  0.7663 -0.6448  0.4157
  947SOL    HW2 3520   3.975   3.929   3.108  2.1275 -0.8321 -0.0799
  947SOL    HW3 3521   3.940   3.782   3.103 -0.0242 -0.3879  0.6686
  947SOL    MW4 3522   3.974   3.850   3.145 -0.6756  0.4861  0.5104
  948SOL     OW 3523   2.593   0.613   0.926 -0.7855 -0.1444 -0.5555
  948SOL    HW2 3524   2.549   0.612   0.841 -2.3140 -0.3609  0.2008
  948SOL    HW3 3525   2.588   0.522   0.957  0.0334 -0.1295 -0.3669
  948SOL    MW4 3526   2.586   0.601   0.919  0.2129  0.3636 -0.3097
  949SOL     OW 3527   0.037   0.077   4.360  0.1657  0.5262 -0.4521
  949SOL    HW2 3528   0.069   0.071   4.450 -1.7758  0.5795  0.2886
  949SOL    HW3 3529   0.057  -0.009   4.321 -0.3679 -0.0470  0.5207
  949SOL    MW4 3530   0.044   0.065   4.366 -0.7141 -0.1936 -0.0586
  950SOL     OW 3531   5.127   3.653   4.880  0.2217  0.4535  0.8689
  950SOL    HW2 3532   5.128   3.712   4.804  1.8841  0.4126  0.8145
  950SOL    HW3 3533   5.167   3.703   4.950 -3.9100  1.5659  2.6974
  950SOL    MW4 3534   5.133   3.667   4.879  0.5502  0.6657 -0.2604
  951SOL     OW 3535   3.356   1.927   2.046 -0.1973  0.5495  0.0778
  951SOL    HW2 3536   3.340   1.942   1.953 -0.5348 -1.0234 -0.1378
  951SOL    HW3 3537   3.345   2.014   2.086 -2.1325  0.8889 -1.0670
  951SOL    MW4 3538   3.352   1.941   2.039 -0.2133  0.4986 -0.2114
  952SOL     OW 3539   3.401   2.836   4.885 -0.2173 -0.1875  0.1528
  952SOL    HW2 3540   3.369   2.870   4.969 -0.8388  2.5401 -1.0832
  952SOL    HW3 3541   3.329   2.851   4.824  0.4477 -1.5401 -1.0318
  952SOL    MW4 3542   3.387   2.842   4.888  0.4550  0.4101  0.8295
  953SOL     OW 3543   1.415   4.774   6.167  0.0762  0.2498  0.4197
  953SOL    HW2 3544   1.454   4.826   6.237  0.4938  2.2418 -1.1799
  953SOL    HW3 3545   1.326   4.757   6.196  0.6597 -0.2370  2.0332
  953SOL    MW4 3546   1.409   4.778   6.180 -0.1410  0.4952  0.1912
  954SOL     OW 3547   1.360   6.025   3.233  0.3778  0.5560  0.2107
  954SOL    HW2 3548   1.329   5.934   3.231  1.6723  0.0121  1.9070
  954SOL    HW3 3549   1.455   6.018   3.229  0.6550  1.6090  2.7701
  954SOL    MW4 3550   1.368   6.012   3.232 -0.1257  0.0004  0.0048
  955SOL     OW 3551   1.617   2.209   2.758 -0.3383  0.0733 -0.2624
  955SOL    HW2 3552   1.570   2.166   2.686  3.0832 -2.8795 -1.0313
  955SOL    HW3 3553   1.641   2.294   2.723 -1.1138 -0.2177 -1.5762
  955SOL    MW4 3554   1.614   2.214   2.744  0.3769  0.4364 -0.3661
  956SOL     OW 3555   4.024   3.517   5.038 -0.0589  0.4067  0.2806
  956SOL    HW2 3556   4.068   3.591   5.080  2.0086 -0.2131 -0.6685
  956SOL    HW3 3557   4.073   3.502   4.958 -1.3056 -1.1272 -0.2577
  956SOL    MW4 3558   4.036   3.525   5.033  0.1375 -0.2740 -0.1053
  957SOL     OW 3559   2.628   2.469   6.386  0.3271 -0.2117  0.3211
  957SOL    HW2 3560   2.681   2.545   6.408  0.2109 -0.2469  0.7415
  957SOL    HW3 3561   2.640   2.458   6.292 -2.2844  2.4057 -0.4920
  957SOL    MW4 3562   2.636   2.478   6.376 -0.9103 -0.2196  0.5224
  958SOL     OW 3563   5.464   3.282   0.957  0.1187 -0.0768  0.0551
  958SOL    HW2 3564   5.456   3.346   1.028  0.9149 -1.5735  1.5595
  958SOL    HW3 3565   5.377   3.241   0.952  0.0910 -0.0357  0.2068
  958SOL    MW4 3566   5.451   3.285   0.966 -0.3780 -0.4958  0.4490
  959SOL     OW 3567   3.736   0.843   3.432  0.1045 -0.1431 -0.1736
  959SOL    HW2 3568   3.771   0.841   3.520 -0.5930  2.9490  0.2905
  959SOL    HW3 3569   3.811   0.864   3.376  0.3694 -1.2040 -0.2417
  959SOL    MW4 3570   3.751   0.845   3.436  0.0185  0.0200  0.7208
  960SOL     OW 3571   4.870   1.249   5.304 -0.1311  0.4456 -0.0444
  960SOL    HW2 3572   4.911   1.224   5.221  1.1822 -1.0280  0.9881
  960SOL    HW3 3573   4.942   1.252   5.366 -0.9304  2.5693  0.8680
  960SOL    MW4 3574   4.885   1.246   5.301 -0.3715  0.4496 -0.2501
  961SOL     OW 3575   1.852   2.951   4.616  0.6257 -0.0823  0.0704
  961SOL    HW2 3576   1.937   2.920   4.586  0.4635 -0.2137 -0.2656
  961SOL    HW3 3577   1.837   2.904   4.699  1.2446  0.5702  0.5613
  961SOL    MW4 3578   1.861   2.941   4.623 -0.1445 -0.2407 -0.4348
  962SOL     OW 3579   3.605   4.131   3.430 -0.1308  0.0193  0.3059
  962SOL    HW2 3580   3.682   4.116   3.375 -1.8091 -1.9212 -1.7111
  962SOL    HW3 3581   3.599   4.227   3.436  1.5044  0.2440 -0.8557
  962SOL    MW4 3582   3.615   4.142   3.423  0.4015  0.2735  1.1053
  963SOL     OW 3583   5.390   4.890   3.021  0.4510  0.2683  0.6955
  963SOL    HW2 3584   5.397   4.827   2.950  1.0101  1.2260 -0.1124
  963SOL    HW3 3585   5.296   4.891   3.042  0.5334 -1.5228  1.4003
  963SOL    MW4 3586   5.378   4.882   3.015  0.3572 -0.7695 -0.6518
  964SOL     OW 3587   5.761   0.832   5.096 -0.1715 -0.2873  0.0320
  964SOL    HW2 3588   5.726   0.783   5.171 -0.6540 -0.9540 -0.6137
  964SOL    HW3 3589   5.854   0.809   5.094  0.3747  1.4786  1.7492
  964SOL    MW4 3590   5.769   0.822   5.106 -0.2246  0.2853 -0.2265
  965SOL     OW 3591   6.318   5.647   5.546  0.6281 -0.0040 -0.4375
  965SOL    HW2 3592   6.288   5.578   5.487  0.2774 -1.3650  1.2270
  965SOL    HW3 3593   6.251   5.650   5.615  1.6560  0.5966  0.5677
  965SOL    MW4 3594   6.305   5.638   5.548  0.1972  0.5568  0.0633
  966SOL     OW 3595   3.951   2.496   5.105  0.1244 -0.1135 -0.0149
  966SOL    HW2 3596   3.995   2.575   5.074 -1.8210  1.2185  0.4846
  966SOL    HW3 3597   3.925   2.450   5.025  1.6881 -0.5644 -0.3124
  966SOL    MW4 3598   3.954   2.500   5.090  0.0058 -0.4410 -0.0532
  967SOL     OW 3599   2.519   3.546   2.434 -0.0121 -0.0685 -0.4926
  967SOL    HW2 3600   2.479   3.552   2.347 -1.3330 -1.9467 -0.0924
  967SOL    HW3 3601   2.458   3.492   2.484  1.6203 -0.5762  1.0545
  967SOL    MW4 3602   2.505   3.540   2.429 -0.5344 -0.2835 -0.7504
  968SOL     OW 3603   5.307   1.087   5.911  0.3888  0.2086  0.3747
  968SOL    HW2 3604   5.245   1.016   5.924  0.9541 -0.2299  0.7431
  968SOL    HW3 3605   5.389   1.044   5.887  1.0096  0.6578  1.5794
  968SOL    MW4 3606   5.310   1.072   5.910  0.5323 -0.0854 -0.6370
  969SOL     OW 3607   3.431   3.758   1.668 -0.0169 -0.3631  0.5126
  969SOL    HW2 3608   3.524   3.780   1.664  0.2522 -1.4464  0.7366
  969SOL    HW3 3609   3.406   3.778   1.758  0.0947 -0.4910  0.5706
  969SOL    MW4 3610   3.440   3.764   1.679  0.0707 -0.3981 -0.1314
  970SOL     OW 3611   3.694   2.541   0.367  0.0058  0.2203 -0.1108
  970SOL    HW2 3612   3.705   2.448   0.388 -0.8246  0.2324  0.4102
  970SOL    HW3 3613   3.611   2.545   0.320 -0.1051  0.7384  0.1243
  970SOL    MW4 3614   3.684   2.529   0.363  0.5055  0.6009  0.6507
  971SOL     OW 3615   0.906   3.776   6.327 -0.0713 -0.2449  0.0325
  971SOL    HW2 3616   0.861   3.715   6.269 -0.3940 -0.5583  0.6086
  971SOL    HW3 3617   0.999   3.758   6.313 -0.0902  0.7305 -1.5089
  971SOL    MW4 3618   0.912   3.766   6.318 -0.0142  0.2387  0.2743
  972SOL     OW 3619   2.881   2.647   1.229  0.3723 -0.2806  0.4583
  972SOL    HW2 3620   2.802   2.657   1.282 -0.1912 -0.8944 -0.2425
  972SOL    HW3 3621   2.952   2.678   1.286 -0.5024  1.5783  0.6120
  972SOL    MW4 3622   2.880   2.652   1.243 -0.6486  0.4851  0.5176
  973SOL     OW 3623   5.776   0.970   4.731  0.0709 -0.0206  0.2654
  973SOL    HW2 3624   5.748   0.879   4.740  1.6640 -0.5909 -0.3186
  973SOL    HW3 3625   5.752   0.993   4.641 -0.7616  0.3052  0.5629
  973SOL    MW4 3626   5.769   0.961   4.720 -0.3143  0.1347 -0.8487
  974SOL     OW 3627   1.646   5.327   4.511 -0.1234 -0.3544  0.5411
  974SOL    HW2 3628   1.730   5.367   4.488 -0.5440  0.3899  0.2630
  974SOL    HW3 3629   1.609   5.299   4.427 -1.5657  2.1810  0.2176
  974SOL    MW4 3630   1.652   5.329   4.497  0.1925 -1.3078  0.3055
  975SOL     OW 3631   2.969   4.998   1.987 -0.9149  0.1097 -0.3599
  975SOL    HW2 3632   3.044   4.970   1.935 -0.1261  0.0505  0.7505
  975SOL    HW3 3633   3.008   5.051   2.057 -2.0674  1.4120 -0.6587
  975SOL    MW4 3634   2.984   5.002   1.990  0.1554 -0.6258 -0.3041
  976SOL     OW 3635   3.164   0.492   0.006 -0.5916  0.0986  0.1055
  976SOL    HW2 3636   3.132   0.489  -0.084 -0.0550 -1.3192 -0.0671
  976SOL    HW3 3637   3.142   0.406   0.042  1.6677 -0.3993  0.4273
  976SOL    MW4 3638   3.157   0.480  -0.001  0.0294 -0.4723 -0.3035
  977SOL     OW 3639   5.535   3.058   1.265  0.4555 -0.0243  0.3197
  977SOL    HW2 3640   5.479   3.136   1.259 -0.3152 -0.5962 -0.0889
  977SOL    HW3 3641   5.592   3.065   1.189 -0.3087 -0.3761 -0.3003
  977SOL    MW4 3642   5.535   3.069   1.254 -0.5086 -0.0451 -0.3280
  978SOL     OW 3643   2.501   0.640   2.129 -0.7137 -0.3857  0.0582
  978SOL    HW2 3644   2.466   0.571   2.073  1.3960 -0.6751 -0.9921
  978SOL    HW3 3645   2.589   0.610   2.152 -0.2107  1.3835  0.6018
  978SOL    MW4 3646   2.508   0.627   2.125  0.0036  0.0322  0.4590
  979SOL     OW 3647   0.194   2.374   2.079 -0.1727 -0.0960 -0.5481
  979SOL    HW2 3648   0.159   2.342   1.996  0.6702  0.0567 -0.9768
  979SOL    HW3 3649   0.276   2.418   2.055  0.1796 -0.2227  0.3896
  979SOL    MW4 3650   0.201   2.376   2.065 -0.1298  0.1024 -0.8689
  980SOL     OW 3651   3.115   3.566   4.986  0.2073 -0.0341 -0.4765
  980SOL    HW2 3652   3.175   3.531   4.920  0.9414  1.3256 -0.5734
  980SOL    HW3 3653   3.172   3.616   5.045 -0.9876  3.0463 -1.7169
  980SOL    MW4 3654   3.131   3.568   4.985  0.6252  0.2312  0.4684
  981SOL     OW 3655   0.065   4.347   1.271  0.0595 -0.0603 -0.0721
  981SOL    HW2 3656   0.120   4.419   1.300 -0.5662  0.0544  0.8749
  981SOL    HW3 3657  -0.025   4.376   1.289 -0.2370 -0.7529 -0.4013
  981SOL    MW4 3658   0.060   4.360   1.277  0.2491 -0.0032 -0.8930
  982SOL     OW 3659   4.331   2.945   1.493  0.0051 -0.0926 -0.8641
  982SOL    HW2 3660   4.345   3.011   1.426  2.0752  1.3288  0.8069
  982SOL    HW3 3661   4.383   2.870   1.464  1.5857  0.8163 -0.5464
  982SOL    MW4 3662   4.340   2.944   1.480  0.4955 -1.1086 -0.0232
  983SOL     OW 3663   0.269   5.231   2.895 -0.2351 -0.1876 -0.7009
  983SOL    HW2 3664   0.289   5.139   2.911  0.7089  0.1162 -0.0434
  983SOL    HW3 3665   0.278   5.273   2.981 -1.9534  0.3053 -0.7185
  983SOL    MW4 3666   0.273   5.225   2.908 -0.6440 -0.2482  0.1920
  984SOL     OW 3667   1.808   5.003   5.055 -0.5466  0.7154  0.4127
  984SOL    HW2 3668   1.775   4.926   5.008 -1.2519  0.8879  0.6124
  984SOL    HW3 3669   1.812   5.071   4.988  3.0326 -0.2109 -0.5471
  984SOL    MW4 3670   1.804   5.001   5.040 -0.8347  0.0117  0.2352
  985SOL     OW 3671   0.869   1.131   5.953 -0.1601  0.2762  0.3597
  985SOL    HW2 3672   0.841   1.051   5.908 -0.7983  0.5136  0.3240
  985SOL    HW3 3673   0.828   1.202   5.904  1.5284  0.7404 -0.4630
  985SOL    MW4 3674   0.860   1.129   5.940 -0.2266  0.6444 -0.2690
  986SOL     OW 3675   4.585   1.924   3.929  0.3396 -0.3632 -0.2984
  986SOL    HW2 3676   4.627   1.845   3.896 -0.6224 -0.7741 -0.6003
  986SOL    HW3 3677   4.519   1.892   3.990 -1.4379  0.0197 -1.9033
  986SOL    MW4 3678   4.582   1.909   3.932 -0.1648 -0.4314  0.3323
  987SOL     OW 3679   1.956   3.157   1.270 -0.0125 -0.4047 -0.0502
  987SOL    HW2 3680   1.982   3.078   1.223  2.1838 -0.5200  1.2259
  987SOL    HW3 3681   2.013   3.226   1.234 -1.3334  0.4495 -0.5672
  987SOL    MW4 3682   1.967   3.155   1.259  0.8890  0.1131  0.2662
  988SOL     OW 3683   0.570   3.469   3.225  0.0789 -0.1959 -0.4993
  988SOL    HW2 3684   0.564   3.397   3.289  1.6138  0.7548  0.7792
  988SOL    HW3 3685   0.636   3.440   3.163  0.1279 -0.2213 -0.4361
  988SOL    MW4 3686   0.578   3.455   3.225  0.2272 -0.3875 -0.5047
  989SOL     OW 3687   1.389   3.220   3.251 -0.2281 -0.4360  0.3853
  989SOL    HW2 3688   1.347   3.134   3.251 -0.4265 -0.3527  1.5983
  989SOL    HW3 3689   1.421   3.232   3.340 -1.7384  1.4573  0.7551
  989SOL    MW4 3690   1.388   3.210   3.262 -0.0631 -0.3940 -0.0285
  990SOL     OW 3691   1.365   4.521   4.789  0.5691  0.1203  0.4414
  990SOL    HW2 3692   1.347   4.615   4.783 -1.2303 -0.2759 -2.1635
  990SOL    HW3 3693   1.448   4.510   4.743  0.8119  0.4434  0.7990
  990SOL    MW4 3694   1.373   4.532   4.782 -0.3886  0.1857  0.5435
  991SOL     OW 3695   4.381   6.248   2.275 -0.3471  0.0041 -0.0116
  991SOL    HW2 3696   4.435   6.304   2.220 -0.4367  0.6261  0.5220
  991SOL    HW3 3697   4.438   6.175   2.301  0.1053  0.4290  0.1924
  991SOL    MW4 3698   4.395   6.245   2.272 -1.2342 -0.0343  0.8144
  992SOL     OW 3699   0.237   1.915   1.205  0.6421 -0.1952  0.5342
  992SOL    HW2 3700   0.230   1.982   1.273  0.2894 -0.2091  0.5152
  992SOL    HW3 3701   0.314   1.940   1.154  2.7141 -1.8228  2.6925
  992SOL    MW4 3702   0.246   1.927   1.207  0.1542  0.6702  0.1007
  993SOL     OW 3703   1.555   2.963   2.520 -0.0748  0.2494  0.1216
  993SOL    HW2 3704   1.598   2.973   2.435  1.0995 -0.7598  0.5707
  993SOL    HW3 3705   1.624   2.933   2.579 -1.3942 -1.5490  0.8465
  993SOL    MW4 3706   1.569   2.960   2.516  0.0046 -0.0034  0.5544
  994SOL     OW 3707   3.355   2.172   1.394 -0.2071  0.4959  0.4821
  994SOL    HW2 3708   3.343   2.092   1.445  1.2422 -0.1766 -0.1705
  994SOL    HW3 3709   3.355   2.243   1.459  1.0151 -0.2821  1.3645
  994SOL    MW4 3710   3.353   2.171   1.409  0.3343  0.2014 -0.7872
  995SOL     OW 3711   3.760   0.505   0.556  0.2092  0.4417  0.3996
  995SOL    HW2 3712   3.761   0.601   0.557 -0.0066  0.4499  0.1412
  995SOL    HW3 3713   3.737   0.482   0.466 -1.1485  0.1668  0.7895
  995SOL    MW4 3714   3.757   0.515   0.544 -0.4797  0.0980 -1.0428
  996SOL     OW 3715   0.600   4.244   1.442  0.2051  0.0260 -0.0439
  996SOL    HW2 3716   0.514   4.221   1.476  0.7908 -0.4300  1.2004
  996SOL    HW3 3717   0.601   4.208   1.353 -0.5301 -0.8203  0.2767
  996SOL    MW4 3718   0.589   4.236   1.435 -0.2161 -0.3437 -0.0296
  997SOL     OW 3719   1.533   5.901   2.288  0.2635  0.0047  0.0565
  997SOL    HW2 3720   1.556   5.972   2.348  0.2240 -0.0037  0.0817
  997SOL    HW3 3721   1.509   5.945   2.207 -2.2509  0.1914  0.8308
  997SOL    MW4 3722   1.533   5.916   2.285 -0.0033 -0.3365 -0.1763
  998SOL     OW 3723   0.421   3.238   1.894 -0.2786 -0.0484  0.1992
  998SOL    HW2 3724   0.345   3.187   1.867  0.5622 -0.5468 -1.3329
  998SOL    HW3 3725   0.494   3.176   1.891  0.2436  0.4832  1.4065
  998SOL    MW4 3726   0.421   3.223   1.890 -0.4373  0.2855  0.6357
  999SOL     OW 3727   0.812   5.340   0.526 -0.4014 -0.1036  0.6899
  999SOL    HW2 3728   0.906   5.324   0.539 -0.6247 -0.6712  1.6893
  999SOL    HW3 3729   0.807   5.431   0.499  0.3965  0.1104  1.2208
  999SOL    MW4 3730   0.824   5.350   0.524 -0.7793 -0.1846  0.1714
 1000SOL     OW 3731   0.616   1.334   5.545  0.2957 -0.0453  0.2577
 1000SOL    HW2 3732   0.653   1.360   5.630  0.1789  1.2098 -0.0576
 1000SOL    HW3 3733   0.687   1.350   5.482  1.6413 -4.1184  0.4216
 1000SOL    MW4 3734   0.630   1.339   5.548  0.6811  0.1466  0.4832
 1001SOL     OW 3735   1.542   5.839   0.584  0.2546 -0.0508  0.5038
 1001SOL    HW2 3736   1.526   5.919   0.535 -1.0325 -1.8108 -2.2028
 1001SOL    HW3 3737   1.494   5.851   0.666  0.3084  1.9929  0.2891
 1001SOL    MW4 3738   1.533   5.851   0.588  0.0193  0.0172  0.3923
 1002SOL     OW 3739   0.548   1.821   1.226  0.2648  0.7024 -0.5187
 1002SOL    HW2 3740   0.569   1.769   1.148 -2.2624  0.4092 -1.1170
 1002SOL    HW3 3741   0.495   1.893   1.192 -1.5547  0.1404  0.9590
 1002SOL    MW4 3742   0.544   1.823   1.211  0.2190 -0.5314  0.6773
 1003SOL     OW 3743   5.870   3.891   1.401 -0.3805  0.4553  0.3323
 1003SOL    HW2 3744   5.889   3.798   1.389 -0.2237  0.7835 -2.6790
 1003SOL    HW3 3745   5.911   3.913   1.485  2.5302 -1.4650 -0.4171
 1003SOL    MW4 3746   5.878   3.882   1.411 -0.2485 -0.5774 -0.4619
 1004SOL     OW 3747   3.749   1.783   1.386 -0.2588 -0.5834 -0.7070
 1004SOL    HW2 3748   3.823   1.737   1.346  1.0623  1.1974 -0.4284
 1004SOL    HW3 3749   3.676   1.722   1.378  1.1211 -2.2216 -1.4121
 1004SOL    MW4 3750   3.749   1.769   1.379 -0.1028  0.2161  0.3844
 1005SOL     OW 3751   2.030   2.200   2.474 -0.0303  0.0292 -0.1406
 1005SOL    HW2 3752   1.980   2.264   2.422 -1.5980  0.2169  1.5006
 1005SOL    HW3 3753   1.963   2.151   2.521  1.3217  0.1765  2.0469
 1005SOL    MW4 3754   2.014   2.202   2.473 -0.3720  0.2835  0.3492
 1006SOL     OW 3755   0.964   3.294   4.322 -0.2660  0.1707  1.0531
 1006SOL    HW2 3756   1.021   3.268   4.249 -0.5422  1.2455  0.4302
 1006SOL    HW3 3757   1.007   3.259   4.400  1.2534  0.9641  0.6003
 1006SOL    MW4 3758   0.977   3.286   4.322  0.0836 -0.4274  0.1064
 1007SOL     OW 3759   5.842   0.189   6.003 -0.6492  0.6193  0.1857
 1007SOL    HW2 3760   5.918   0.192   6.061 -0.4524 -0.9743  0.0343
 1007SOL    HW3 3761   5.782   0.254   6.039 -0.2880  0.0763  1.8264
 1007SOL    MW4 3762   5.844   0.198   6.015  0.0477 -0.0288  0.0149
 1008SOL     OW 3763   5.115   1.341   0.838  0.0997 -0.8978  0.3568
 1008SOL    HW2 3764   5.058   1.278   0.793 -1.5375  0.0664  0.9659
 1008SOL    HW3 3765   5.113   1.418   0.781  0.5211 -0.7316  0.5694
 1008SOL    MW4 3766   5.107   1.343   0.824  0.3299 -0.1931 -0.2782
 1009SOL     OW 3767   0.399   0.675   1.770  0.0402  0.0092  0.0391
 1009SOL    HW2 3768   0.307   0.652   1.775 -0.3789  1.4580 -0.4856
 1009SOL    HW3 3769   0.445   0.592   1.759 -1.3522 -0.5811 -1.5807
 1009SOL    MW4 3770   0.393   0.661   1.769 -0.1905  0.2949  0.1606
 1010SOL     OW 3771   1.094   2.692   4.206  0.2392  0.3193  0.1917
 1010SOL    HW2 3772   1.159   2.627   4.233  0.5539  0.4197 -0.3046
 1010SOL    HW3 3773   1.141   2.748   4.144 -0.1554  0.7530  0.2810
 1010SOL    MW4 3774   1.109   2.691   4.201  0.4223 -0.2802 -0.1457
 1011SOL     OW 3775   5.942   2.278   5.609 -0.4640  0.4871  0.1463
 1011SOL    HW2 3776   5.916   2.326   5.530  0.6166  0.3934 -0.2826
 1011SOL    HW3 3777   5.934   2.186   5.584 -0.7435  0.4527  0.3624
 1011SOL    MW4 3778   5.937   2.273   5.595 -0.3816  0.1705  0.6835
 1012SOL     OW 3779   4.352   3.812   3.467  0.3328 -0.4527 -0.3787
 1012SOL    HW2 3780   4.316   3.803   3.378 -1.6136 -1.7527  0.4867
 1012SOL    HW3 3781   4.310   3.743   3.518 -0.7182  1.9259  2.2209
 1012SOL    MW4 3782   4.342   3.802   3.462 -0.5029  0.2631 -0.1504
 1013SOL     OW 3783   5.877   6.034   2.256 -0.1656  0.3158  0.2314
 1013SOL    HW2 3784   5.918   6.068   2.176 -1.8090  0.0585 -0.7677
 1013SOL    HW3 3785   5.896   6.100   2.322  2.6215 -0.2143  0.1073
 1013SOL    MW4 3786   5.885   6.047   2.254 -0.2012  0.2108  0.2544
 1014SOL     OW 3787   3.046   0.973   1.830  0.1418  0.8042  0.0400
 1014SOL    HW2 3788   3.013   0.957   1.918  0.9472  0.8791  0.3628
 1014SOL    HW3 3789   3.113   0.906   1.816 -1.8212 -0.9703 -1.5718
 1014SOL    MW4 3790   3.051   0.962   1.840  0.3113 -0.3421 -0.1548
 1015SOL     OW 3791   2.626   0.855   1.938 -0.3763 -0.0512  0.1924
 1015SOL    HW2 3792   2.688   0.916   1.977 -0.5615  1.0193 -1.1231
 1015SOL    HW3 3793   2.597   0.800   2.012  0.7857  0.5642  1.1478
 1015SOL    MW4 3794   2.630   0.856   1.953 -0.8326 -0.6581 -0.2890
 1016SOL     OW 3795   1.134   5.772   1.773  0.6111 -0.3494  0.8632
 1016SOL    HW2 3796   1.099   5.778   1.862  0.6086 -0.5336  0.8736
 1016SOL    HW3 3797   1.194   5.698   1.775 -0.1250 -0.9743  0.4578
 1016SOL    MW4 3798   1.137   5.763   1.785 -0.1736  0.3430  0.1810
 1017SOL     OW 3799   0.597   4.694   2.997  0.3212  0.1316  0.0547
 1017SOL    HW2 3800   0.627   4.656   3.079  1.0816  1.1997  0.2937
 1017SOL    HW3 3801   0.509   4.728   3.016 -0.3292 -1.3858 -0.1424
 1017SOL    MW4 3802   0.590   4.694   3.010 -0.7133  0.0856  0.3719
 1018SOL     OW 3803   1.663   0.260   4.645 -0.0428  0.1647 -0.0140
 1018SOL    HW2 3804   1.652   0.165   4.646  0.8992  0.0489  0.4305
 1018SOL    HW3 3805   1.641   0.286   4.555  0.8581 -0.6370 -0.4872
 1018SOL    MW4 3806   1.659   0.251   4.633 -0.2624 -0.1903 -0.0622
 1019SOL     OW 3807   5.517   2.909   2.460 -0.2168  0.2817 -0.5422
 1019SOL    HW2 3808   5.595   2.871   2.499 -0.4930  0.1958 -0.0699
 1019SOL    HW3 3809   5.450   2.841   2.470 -0.3304  0.3157 -1.0331
 1019SOL    MW4 3810   5.518   2.895   2.466  0.3777  0.7764  0.0054
 1020SOL     OW 3811   3.278   1.516   0.720  0.3533  0.3864 -0.6171
 1020SOL    HW2 3812   3.365   1.494   0.685 -0.0797 -0.0533 -1.4537
 1020SOL    HW3 3813   3.274   1.612   0.715  1.1955  0.5063  0.4632
 1020SOL    MW4 3814   3.289   1.526   0.715 -0.8110  0.0310 -0.1838
 1021SOL     OW 3815   0.928   1.241   0.319 -0.1192 -0.2287 -0.0047
 1021SOL    HW2 3816   0.859   1.188   0.279  0.3349 -0.4942 -0.4565
 1021SOL    HW3 3817   0.929   1.322   0.268 -0.6168  0.1002  0.4997
 1021SOL    MW4 3818   0.919   1.245   0.307 -0.1141  0.2682  0.1740
 1022SOL     OW 3819   5.883   3.434   2.194  0.5827  0.2610  0.2867
 1022SOL    HW2 3820   5.897   3.497   2.264  0.9692 -0.2327  0.6554
 1022SOL    HW3 3821   5.951   3.368   2.206 -1.9087 -2.2109  2.1093
 1022SOL    MW4 3822   5.894   3.434   2.205 -0.2940  0.7751  0.2731
 1023SOL     OW 3823   0.255   3.039   6.306 -0.0905  0.5082 -0.1949
 1023SOL    HW2 3824   0.191   3.019   6.237  0.1709  1.8840 -0.8860
 1023SOL    HW3 3825   0.277   3.131   6.291 -0.5733  1.0891  2.1861
 1023SOL    MW4 3826   0.249   3.049   6.295 -0.6760 -0.0854 -0.7168
 1024SOL     OW 3827   2.407   1.681   4.389  0.7030  0.0834 -0.0397
 1024SOL    HW2 3828   2.313   1.665   4.384  0.4589  1.3626  0.0756
 1024SOL    HW3 3829   2.443   1.637   4.313 -0.0430 -0.1039 -0.2935
 1024SOL    MW4 3830   2.399   1.673   4.379  0.0096 -0.2208  0.4897
 1025SOL     OW 3831   6.381   4.647   1.950  0.1765  0.2218  0.2605
 1025SOL    HW2 3832   6.439   4.599   2.009  2.0556 -0.4804 -1.9995
 1025SOL    HW3 3833   6.398   4.739   1.970  1.2267  0.0048  0.4363
 1025SOL    MW4 3834   6.391   4.653   1.961 -0.2049 -0.0508  0.2778
 1026SOL     OW 3835   4.126   5.118   2.071  0.7881  0.0977 -0.1611
 1026SOL    HW2 3836   4.173   5.120   1.988 -0.6302  0.2782 -0.9986
 1026SOL    HW3 3837   4.034   5.133   2.046  0.3812  0.4619  1.4677
 1026SOL    MW4 3838   4.120   5.120   2.057  0.2424  0.2397  0.0683
 1027SOL     OW 3839   5.579   2.365   4.671  0.4323 -0.1777 -0.0595
 1027SOL    HW2 3840   5.528   2.416   4.608  3.0567  0.5996 -1.6859
 1027SOL    HW3 3841   5.553   2.400   4.757 -0.9382  0.9175 -0.8795
 1027SOL    MW4 3842   5.569   2.377   4.674 -0.2088  0.1565 -0.5169
 1028SOL     OW 3843   5.293   0.852   5.323 -0.0251  0.5636  0.2869
 1028SOL    HW2 3844   5.226   0.914   5.295  0.7385  1.6246  0.7605
 1028SOL    HW3 3845   5.294   0.785   5.254 -0.6714  1.2056 -0.3589
 1028SOL    MW4 3846   5.284   0.851   5.310  0.2370  0.3877  0.4657
 1029SOL     OW 3847   4.095   1.049   0.737  0.5470 -0.1172 -0.4755
 1029SOL    HW2 3848   4.171   1.090   0.696  1.8643 -1.5780  0.3873
 1029SOL    HW3 3849   4.111   0.955   0.727 -1.1670 -0.4553 -0.2691
 1029SOL    MW4 3850   4.107   1.042   0.730 -0.1416  0.1281 -0.2087
 1030SOL     OW 3851   3.953   5.402   4.909  0.4964  0.0552 -0.4174
 1030SOL    HW2 3852   3.923   5.328   4.857 -0.4952  0.8691 -1.0512
 1030SOL    HW3 3853   3.986   5.363   4.989 -0.2108 -1.0612 -0.6436
 1030SOL    MW4 3854   3.954   5.387   4.913 -0.5150  1.0161 -0.2649
 1031SOL     OW 3855   3.169   3.385   0.160 -0.0316 -0.1420 -0.2650
 1031SOL    HW2 3856   3.178   3.297   0.195 -1.2003 -0.6282 -1.1204
 1031SOL    HW3 3857   3.078   3.390   0.131  0.3755  0.8853 -1.4485
 1031SOL    MW4 3858   3.158   3.374   0.161 -0.1294 -0.1766 -0.0623
 1032SOL     OW 3859   3.414   0.230   5.236  0.3131  0.4816  0.0456
 1032SOL    HW2 3860   3.366   0.306   5.205  1.2018  0.8646 -0.3871
 1032SOL    HW3 3861   3.366   0.155   5.200  0.3773  0.8751 -0.8661
 1032SOL    MW4 3862   3.401   0.230   5.227  0.3032 -0.1128  0.1511
 1033SOL     OW 3863   3.268   2.911   1.002 -1.1410  0.1135  0.8646
 1033SOL    HW2 3864   3.316   2.971   0.945 -2.6502  0.4369 -0.1372
 1033SOL    HW3 3865   3.289   2.824   0.968 -1.3627  0.2589  0.3444
 1033SOL    MW4 3866   3.277   2.908   0.990  0.8075 -1.0030  0.2033
 1034SOL     OW 3867   0.345   0.747   3.761  0.3370 -0.2912 -0.0881
 1034SOL    HW2 3868   0.330   0.837   3.789  0.2823  0.0851 -1.2665
 1034SOL    HW3 3869   0.315   0.744   3.670 -1.8509 -2.1078  0.5911
 1034SOL    MW4 3870   0.339   0.758   3.752 -0.1652  0.2799  0.6071
 1035SOL     OW 3871   1.678   2.249   3.533 -0.2768  0.1829  0.0260
 1035SOL    HW2 3872   1.618   2.229   3.461 -1.3972 -2.1652  1.4738
 1035SOL    HW3 3873   1.761   2.210   3.507 -0.4149  0.1670 -0.4003
 1035SOL    MW4 3874   1.681   2.241   3.520  0.4489  0.3958  0.0728
 1036SOL     OW 3875   0.120   2.306   4.587 -0.0500  0.6673  0.0428
 1036SOL    HW2 3876   0.145   2.262   4.668 -2.0567  1.8001  1.3717
 1036SOL    HW3 3877   0.178   2.383   4.583  0.8182  0.0144 -0.2220
 1036SOL    MW4 3878   0.131   2.310   4.597 -0.1391 -0.3869 -0.0567
 1037SOL     OW 3879   5.864   3.479   5.055  0.0103 -0.2489  0.0788
 1037SOL    HW2 3880   5.807   3.449   5.126  0.7131 -1.1889  0.2582
 1037SOL    HW3 3881   5.805   3.490   4.980 -0.4674 -0.8454  0.3636
 1037SOL    MW4 3882   5.849   3.476   5.054  0.2026  0.6971  0.4161
 1038SOL     OW 3883   4.879   2.681   5.012  0.4356 -0.2588 -0.1754
 1038SOL    HW2 3884   4.935   2.608   4.986  1.2324 -0.2673  1.4217
 1038SOL    HW3 3885   4.939   2.744   5.052 -0.3536  0.9150 -0.8002
 1038SOL    MW4 3886   4.894   2.679   5.014 -0.1089 -1.0205  1.1685
 1039SOL     OW 3887   3.424   6.052   4.122 -0.2815  0.7427 -0.2430
 1039SOL    HW2 3888   3.430   6.143   4.151 -0.5227  1.0543 -1.1631
 1039SOL    HW3 3889   3.465   6.003   4.193 -0.6797  1.5054  0.5413
 1039SOL    MW4 3890   3.430   6.058   4.135 -0.6808  0.1620 -0.4461
 1040SOL     OW 3891   5.342   4.652   5.603  0.5652 -0.1064  0.0709
 1040SOL    HW2 3892   5.434   4.680   5.607  1.3894 -2.1049 -2.1230
 1040SOL    HW3 3893   5.323   4.649   5.509 -1.5512 -0.3957  0.4704
 1040SOL    MW4 3894   5.352   4.655   5.591  0.0667 -0.7223 -0.4472
 1041SOL     OW 3895   1.476   1.694   5.345 -0.0918  0.1565  0.3322
 1041SOL    HW2 3896   1.528   1.628   5.299 -1.0024 -0.4023  0.0871
 1041SOL    HW3 3897   1.438   1.748   5.275 -0.4773  0.0724  0.4738
 1041SOL    MW4 3898   1.478   1.692   5.329  0.0499  0.5649  0.3331
 1042SOL     OW 3899   5.780   1.556   5.695 -0.1369  0.1563  0.6031
 1042SOL    HW2 3900   5.802   1.483   5.753  1.6372  2.0493  2.4978
 1042SOL    HW3 3901   5.722   1.612   5.747  0.3881  1.2229  0.0740
 1042SOL    MW4 3902   5.775   1.554   5.710  0.3138  0.0859 -0.0967
 1043SOL     OW 3903   5.679   3.797   1.695  0.3790  0.5770 -0.2728
 1043SOL    HW2 3904   5.631   3.742   1.633  0.8624  0.6449 -0.7068
 1043SOL    HW3 3905   5.726   3.735   1.751 -1.0958  0.4567  0.9008
 1043SOL    MW4 3906   5.679   3.781   1.694  0.1595  0.1761 -0.2672
 1044SOL     OW 3907   6.333   4.061   1.491 -0.2820  0.2746  0.5663
 1044SOL    HW2 3908   6.275   4.125   1.532 -2.4643 -0.6389 -0.9139
 1044SOL    HW3 3909   6.388   4.029   1.563 -1.3084  1.4843  1.9529
 1044SOL    MW4 3910   6.333   4.065   1.506  0.1498  0.1802  0.7397
 1045SOL     OW 3911   3.465   5.715   2.512 -0.0169  0.8855  0.1635
 1045SOL    HW2 3912   3.449   5.621   2.519  1.2916  0.6358 -0.0147
 1045SOL    HW3 3913   3.442   5.750   2.599  0.0674  0.3176  0.4155
 1045SOL    MW4 3914   3.460   5.708   2.524  0.1083  0.5867  0.4701
 1046SOL     OW 3915   3.853   0.764   6.213 -0.6560 -0.3066  0.2920
 1046SOL    HW2 3916   3.772   0.719   6.239 -1.5310  0.4681 -0.9855
 1046SOL    HW3 3917   3.825   0.852   6.188  0.6136  0.0284 -0.0299
 1046SOL    MW4 3918   3.839   0.770   6.213 -0.6104 -0.7897  0.0798
 1047SOL     OW 3919   2.962   1.292   0.663 -0.1439 -0.1490  0.5891
 1047SOL    HW2 3920   3.039   1.349   0.661  1.0433 -1.6212 -2.9918
 1047SOL    HW3 3921   2.897   1.337   0.609 -2.3896  1.4963  4.2282
 1047SOL    MW4 3922   2.964   1.305   0.656  0.3633 -0.6021  0.0206
 1048SOL     OW 3923   0.554   3.009   3.420  0.7147 -0.2412 -0.3949
 1048SOL    HW2 3924   0.464   3.024   3.391  0.3224 -1.0783  0.3450
 1048SOL    HW3 3925   0.609   3.049   3.352 -0.2179  1.8440  0.0008
 1048SOL    MW4 3926   0.550   3.016   3.408 -0.0329 -0.2802 -0.0446
 1049SOL     OW 3927   0.632   3.591   0.361  0.0278  0.7532  0.3085
 1049SOL    HW2 3928   0.644   3.596   0.456  0.8473 -2.0704  0.4294
 1049SOL    HW3 3929   0.561   3.652   0.342 -1.2873  0.1646  2.9677
 1049SOL    MW4 3930   0.625   3.600   0.371  0.8437 -0.0372  0.1993
 1050SOL     OW 3931   2.430   4.834   3.924 -0.6680  0.1507  0.7104
 1050SOL    HW2 3932   2.405   4.842   4.016  1.3928 -0.0211  1.3232
 1050SOL    HW3 3933   2.428   4.740   3.907 -2.6573  0.2700  0.0627
 1050SOL    MW4 3934   2.426   4.822   3.934 -0.0932 -0.4502  0.4284
 1051SOL     OW 3935   1.621   2.295   5.232 -0.4920  0.3883  0.0759
 1051SOL    HW2 3936   1.660   2.382   5.242  0.0449 -0.0030  1.6412
 1051SOL    HW3 3937   1.658   2.244   5.303  0.8772 -1.7658 -2.0395
 1051SOL    MW4 3938   1.631   2.300   5.242 -0.4084  0.5094  0.3674
 1052SOL     OW 3939   1.239   2.246   1.659 -0.0613 -0.0384 -0.4203
 1052SOL    HW2 3940   1.227   2.205   1.573 -2.6384 -0.4309  0.0465
 1052SOL    HW3 3941   1.296   2.187   1.707 -0.3317 -0.9275 -1.1666
 1052SOL    MW4 3942   1.245   2.233   1.654  0.3256  0.5044  0.4518
 1053SOL     OW 3943   2.712   2.614   0.698  0.0122  1.0739  0.5985
 1053SOL    HW2 3944   2.746   2.658   0.776 -2.4147 -1.2379  3.2028
 1053SOL    HW3 3945   2.661   2.540   0.732 -1.4788  0.0873 -3.2022
 1053SOL    MW4 3946   2.710   2.610   0.713 -0.0733  0.3662 -0.0261
 1054SOL     OW 3947   2.501   1.809   3.617 -0.1728 -0.4343 -0.1620
 1054SOL    HW2 3948   2.555   1.836   3.692  1.2976 -0.5085 -1.1619
 1054SOL    HW3 3949   2.428   1.871   3.618 -0.1556 -0.3886  1.2899
 1054SOL    MW4 3950   2.499   1.821   3.627  0.1639 -0.3376 -0.4868
 1055SOL     OW 3951   5.747   3.880   4.884 -0.1667 -0.0037  0.1878
 1055SOL    HW2 3952   5.784   3.968   4.889 -0.3832  0.1711 -1.0965
 1055SOL    HW3 3953   5.672   3.883   4.944  1.5201 -0.2212  2.4448
 1055SOL    MW4 3954   5.742   3.892   4.893  0.4296 -0.5904 -0.0327
 1056SOL     OW 3955   1.009   4.639   4.450  0.7832  0.2156 -0.5462
 1056SOL    HW2 3956   0.987   4.707   4.387 -0.8085 -0.6734 -1.0067
 1056SOL    HW3 3957   0.992   4.678   4.536 -2.4483 -0.2535 -0.8506
 1056SOL    MW4 3958   1.004   4.653   4.453  0.0942  0.1837  0.3074
 1057SOL     OW 3959   1.741   5.539   3.192  0.5222  0.4524  0.3072
 1057SOL    HW2 3960   1.784   5.614   3.232  0.8125 -0.4797  1.8338
 1057SOL    HW3 3961   1.767   5.464   3.246 -0.7173 -0.5779 -0.4414
 1057SOL    MW4 3962   1.750   5.539   3.204 -0.9042  0.1720  0.2662
 1058SOL     OW 3963   1.211   4.822   3.080  0.3744 -0.3669  0.2213
 1058SOL    HW2 3964   1.302   4.822   3.048 -0.1791 -0.1595 -1.4453
 1058SOL    HW3 3965   1.161   4.866   3.011 -0.9861 -0.3113  1.1954
 1058SOL    MW4 3966   1.217   4.828   3.067  0.0371 -0.0103  0.1993
 1059SOL     OW 3967   3.248   3.540   2.906 -0.0191 -0.1381  0.0096
 1059SOL    HW2 3968   3.224   3.469   2.966  0.2771 -0.4808 -0.2733
 1059SOL    HW3 3969   3.206   3.517   2.824 -1.0948  0.7428  0.2815
 1059SOL    MW4 3970   3.239   3.528   2.903 -0.6915 -0.2382  0.4263
 1060SOL     OW 3971   0.738   3.706   3.644  0.6153 -0.1456 -0.1461
 1060SOL    HW2 3972   0.674   3.643   3.677  0.5800  0.4451  0.9457
 1060SOL    HW3 3973   0.742   3.689   3.550 -2.0901  0.6294 -0.4743
 1060SOL    MW4 3974   0.730   3.695   3.636  0.5795  0.6668  0.3211
 1061SOL     OW 3975   4.581   3.123   2.074 -0.1758  0.0520  0.1310
 1061SOL    HW2 3976   4.635   3.111   2.152 -2.8997  0.2600  2.1937
 1061SOL    HW3 3977   4.550   3.035   2.052  1.4502 -0.1739 -1.4871
 1061SOL    MW4 3978   4.584   3.110   2.081 -0.3174  0.1636  0.1073
 1062SOL     OW 3979   5.370   0.775   6.336 -0.0327  0.5580 -0.3956
 1062SOL    HW2 3980   5.314   0.697   6.342 -0.5213  0.8498 -1.0869
 1062SOL    HW3 3981   5.453   0.742   6.302 -0.5490  0.4763 -1.6037
 1062SOL    MW4 3982   5.374   0.760   6.332 -0.3827 -0.3194  0.6047
 1063SOL     OW 3983   4.024   5.300   0.071 -0.0478  0.3103 -0.0959
 1063SOL    HW2 3984   4.026   5.355  -0.008 -0.8959  0.3048 -0.1285
 1063SOL    HW3 3985   4.115   5.270   0.081  0.6555  2.4146  0.4426
 1063SOL    MW4 3986   4.037   5.303   0.062  0.5193  0.0143 -0.4929
 1064SOL     OW 3987   3.230   2.808   5.423 -0.3943  0.3374  0.1807
 1064SOL    HW2 3988   3.202   2.720   5.449 -0.2749  0.0612 -0.6101
 1064SOL    HW3 3989   3.152   2.862   5.437 -0.6860 -0.0286  0.0031
 1064SOL    MW4 3990   3.216   2.803   5.428  0.1786 -0.2363  0.0664
 1065SOL     OW 3991   5.248   6.242   4.390  0.1084 -0.1113  0.0655
 1065SOL    HW2 3992   5.277   6.326   4.425  0.1744  0.5475 -1.4815
 1065SOL    HW3 3993   5.198   6.202   4.460  0.3668  1.0724  0.9426
 1065SOL    MW4 3994   5.245   6.248   4.404 -0.9324  0.5821  0.3967
 1066SOL     OW 3995   4.433   6.059   4.428 -0.0734  0.8185 -0.2040
 1066SOL    HW2 3996   4.408   5.977   4.385  1.3597 -1.4635  2.8940
 1066SOL    HW3 3997   4.349   6.098   4.455 -0.7475 -0.1374 -0.8469
 1066SOL    MW4 3998   4.418   6.053   4.426 -0.0932  0.0200 -0.0740
 1067SOL     OW 3999   1.042   5.142   0.322 -0.0231  0.5503 -0.6958
 1067SOL    HW2 4000   1.108   5.130   0.390 -0.7452  1.4248  0.1827
 1067SOL    HW3 4001   0.962   5.104   0.358 -0.8010  2.3843 -0.3872
 1067SOL    MW4 4002   1.040   5.136   0.336  0.2972 -0.3855 -0.0323
 1068SOL     OW 4003   4.172   6.406   5.253  0.1565 -0.4643 -0.2461
 1068SOL    HW2 4004   4.145   6.322   5.292  2.2813 -1.8164 -1.4690
 1068SOL    HW3 4005   4.108   6.421   5.183 -1.6874  0.2653  1.4998
 1068SOL    MW4 4006   4.160   6.397   5.249 -0.0583 -0.2191 -0.2591
 1069SOL     OW 4007   4.463   1.591   1.380  0.2220  0.1885  0.0020
 1069SOL    HW2 4008   4.467   1.671   1.327  1.1062  0.4706  0.4733
 1069SOL    HW3 4009   4.440   1.622   1.468  0.3220 -0.0986  0.1298
 1069SOL    MW4 4010   4.460   1.606   1.384  0.3365 -0.3628 -0.4627
 1070SOL     OW 4011   4.183   3.644   5.512 -0.6055  0.3467 -0.1598
 1070SOL    HW2 4012   4.117   3.587   5.473  1.5835 -1.4684 -1.5410
 1070SOL    HW3 4013   4.247   3.584   5.551  1.6790  1.7643 -1.4213
 1070SOL    MW4 4014   4.183   3.628   5.512 -0.1844  0.2007 -0.1465
 1071SOL     OW 4015   5.424   3.762   2.845 -0.0257 -0.2230 -0.0922
 1071SOL    HW2 4016   5.389   3.848   2.871 -0.6130 -0.1706 -1.0082
 1071SOL    HW3 4017   5.449   3.721   2.927  1.3729  1.2931  0.2867
 1071SOL    MW4 4018   5.423   3.768   2.859 -0.3311  0.3248 -0.4534
 1072SOL     OW 4019   2.851   5.531   6.298 -0.0959 -0.1433 -0.3265
 1072SOL    HW2 4020   2.759   5.555   6.291 -0.3363 -1.0748 -0.4318
 1072SOL    HW3 4021   2.894   5.578   6.226 -0.2621  1.2746  0.4605
 1072SOL    MW4 4022   2.845   5.540   6.288 -0.2963 -0.4322 -0.2890
 1073SOL     OW 4023   3.888   5.743   5.726  0.1582 -0.7294  0.0227
 1073SOL    HW2 4024   3.803   5.786   5.718  1.7670  2.9568  0.9479
 1073SOL    HW3 4025   3.918   5.732   5.636 -0.9470 -1.4745 -0.2830
 1073SOL    MW4 4026   3.881   5.747   5.713  0.1382 -0.6413 -0.1072
 1074SOL     OW 4027   4.803   5.297   1.583 -0.3144 -0.1306 -0.4069
 1074SOL    HW2 4028   4.862   5.293   1.507 -0.8447  0.3276 -0.8528
 1074SOL    HW3 4029   4.767   5.209   1.591  0.7420 -0.5458  0.1404
 1074SOL    MW4 4030   4.806   5.285   1.574 -0.1417 -0.6044  0.0218
 1075SOL     OW 4031   3.848   3.322   2.682 -0.2198 -0.7150  0.1237
 1075SOL    HW2 4032   3.777   3.380   2.710 -0.3203 -2.1712  3.3207
 1075SOL    HW3 4033   3.807   3.265   2.617 -1.5202 -0.4511  0.6736
 1075SOL    MW4 4034   3.833   3.322   2.677 -0.2990 -0.3731  0.2141
 1076SOL     OW 4035   1.944   3.684   2.763  0.1517 -0.5016  0.1374
 1076SOL    HW2 4036   1.962   3.713   2.853  0.0668 -1.0465  0.3315
 1076SOL    HW3 4037   1.851   3.662   2.763  0.0095  0.0639 -0.2487
 1076SOL    MW4 4038   1.934   3.685   2.775 -0.4991  1.2106  0.3522
 1077SOL     OW 4039   0.204   1.405   5.760  0.3263  0.3164  0.3002
 1077SOL    HW2 4040   0.258   1.396   5.681  1.7110 -0.3856  1.2960
 1077SOL    HW3 4041   0.236   1.485   5.802  0.2008  0.2050  0.6067
 1077SOL    MW4 4042   0.215   1.414   5.755 -0.0487  0.2130 -0.1025
 1078SOL     OW 4043   1.836   1.562   6.261 -0.0087 -0.0430  0.4668
 1078SOL    HW2 4044   1.755   1.562   6.312 -0.1292  0.3713  0.2814
 1078SOL    HW3 4045   1.869   1.473   6.269 -1.2308 -0.6387 -0.6246
 1078SOL    MW4 4046   1.829   1.550   6.269 -0.3799  0.1508  0.2725
 1079SOL     OW 4047   2.853   6.301   1.742 -0.3687  0.1081 -0.2605
 1079SOL    HW2 4048   2.827   6.343   1.661 -1.4284  1.0386  0.5341
 1079SOL    HW3 4049   2.894   6.370   1.794 -1.3819  0.0067  0.7267
 1079SOL    MW4 4050   2.855   6.316   1.739  0.2064  0.0307  0.2494
 1080SOL     OW 4051   0.090   5.254   3.898 -0.3639 -0.3164 -0.4702
 1080SOL    HW2 4052   0.170   5.202   3.899 -0.4383 -0.4490 -1.0437
 1080SOL    HW3 4053   0.107   5.323   3.833  0.3363  1.3511  1.3572
 1080SOL    MW4 4054   0.103   5.257   3.889  0.2464 -0.3196  0.9351
 1081SOL     OW 4055   3.672   5.120   3.202 -0.1949  0.1966  0.0274
 1081SOL    HW2 4056   3.729   5.071   3.143  1.2837  2.7834 -0.8381
 1081SOL    HW3 4057   3.628   5.184   3.145 -0.9726  0.8427  1.3064
 1081SOL    MW4 4058   3.673   5.122   3.187 -0.3595  0.0004  0.3233
 1082SOL     OW 4059   4.259   6.059   4.705 -0.2754 -0.0860  0.2836
 1082SOL    HW2 4060   4.352   6.061   4.728 -0.5512  1.3386  1.3801
 1082SOL    HW3 4061   4.247   6.134   4.647 -0.7036 -0.4160 -0.0638
 1082SOL    MW4 4062   4.270   6.069   4.700 -0.0256  1.0951  1.0001
 1083SOL     OW 4063   5.454   4.332   4.303 -0.0045 -0.3707  0.0253
 1083SOL    HW2 4064   5.434   4.425   4.314  0.0062 -0.5156  1.5108
 1083SOL    HW3 4065   5.526   4.315   4.364 -0.7025 -1.5620  0.5757
 1083SOL    MW4 4066   5.460   4.342   4.313 -0.2293  0.8536  0.1344
 1084SOL     OW 4067   5.861   3.818   2.605  0.8575 -0.2309 -0.4889
 1084SOL    HW2 4068   5.919   3.857   2.670  0.9581  0.6390 -1.0847
 1084SOL    HW3 4069   5.781   3.797   2.654  0.7897  0.7585 -0.1470
 1084SOL    MW4 4070   5.858   3.821   2.620 -0.0751 -0.6626  0.5621
 1085SOL     OW 4071   5.718   6.009   3.554  0.4908 -0.3289  0.0237
 1085SOL    HW2 4072   5.776   6.012   3.630 -0.2958 -0.9976  0.6787
 1085SOL    HW3 4073   5.664   5.931   3.568 -0.0532 -0.1472 -0.9422
 1085SOL    MW4 4074   5.718   5.999   3.566 -0.5235 -0.2076  0.0730
 1086SOL     OW 4075   1.957   3.912   2.248 -0.3003  0.1746  0.5784
 1086SOL    HW2 4076   2.007   3.929   2.168 -4.0649  1.4588 -1.7714
 1086SOL    HW3 4077   1.984   3.982   2.307 -0.5768  1.9833 -1.2983
 1086SOL    MW4 4078   1.967   3.924   2.245  0.4005  0.2047  0.6593
 1087SOL     OW 4079   2.260   2.981   4.002 -0.3793  0.1096 -0.0409
 1087SOL    HW2 4080   2.221   2.925   4.069  1.9518  0.5140  1.8284
 1087SOL    HW3 4081   2.239   3.070   4.030 -0.8884  0.2594 -0.8742
 1087SOL    MW4 4082   2.252   2.986   4.015 -0.1029  0.2776 -0.1288
 1088SOL     OW 4083   3.676   2.126   1.537  0.1520 -0.1376  0.0967
 1088SOL    HW2 4084   3.657   2.108   1.445 -0.1891 -0.2022  0.1789
 1088SOL    HW3 4085   3.641   2.214   1.552 -0.0124 -0.2236  0.2258
 1088SOL    MW4 4086   3.669   2.135   1.527  0.1410 -0.6503  0.2888
 1089SOL     OW 4087   1.110   1.258   2.305 -1.2120  0.6245  0.4105
 1089SOL    HW2 4088   1.135   1.341   2.265 -1.5422  1.2705  1.4886
 1089SOL    HW3 4089   1.194   1.214   2.321 -1.1095 -0.3348 -2.2660
 1089SOL    MW4 4090   1.125   1.263   2.302  0.2089 -0.1867 -0.2164
 1090SOL     OW 4091   3.521   6.299   0.595  0.6254  0.1217 -0.1308
 1090SOL    HW2 4092   3.459   6.364   0.627 -1.7680 -1.2964 -1.5919
 1090SOL    HW3 4093   3.514   6.225   0.656  1.7594  0.3578  0.3230
 1090SOL    MW4 4094   3.512   6.298   0.607  0.3743 -0.1705  0.0445
 1091SOL     OW 4095   0.801   4.854   5.913 -0.3983  0.3554 -0.2213
 1091SOL    HW2 4096   0.896   4.845   5.912 -0.4052  0.2916 -0.3864
 1091SOL    HW3 4097   0.768   4.764   5.916 -0.4688  0.2646 -2.2570
 1091SOL    MW4 4098   0.809   4.841   5.913  0.5830 -0.5541 -0.4379
 1092SOL     OW 4099   5.032   2.830   0.356 -0.3636 -0.0603 -0.5333
 1092SOL    HW2 4100   4.968   2.850   0.288  1.1052  1.3168 -1.5713
 1092SOL    HW3 4101   5.107   2.884   0.336  1.1624 -1.6053  0.6578
 1092SOL    MW4 4102   5.033   2.839   0.345 -0.4157 -0.4089 -0.1018
 1093SOL     OW 4103   3.989   0.517   5.265 -0.1788 -0.1729  0.1930
 1093SOL    HW2 4104   3.998   0.593   5.323 -2.7021  0.5227 -0.1747
 1093SOL    HW3 4105   4.076   0.503   5.230  0.4164  2.5226  0.3562
 1093SOL    MW4 4106   4.001   0.525   5.268 -0.0930  0.0970 -0.6691
 1094SOL     OW 4107   0.339   5.522   5.238  0.5697  0.0706 -0.3737
 1094SOL    HW2 4108   0.263   5.553   5.189  1.0765  0.5701 -0.8540
 1094SOL    HW3 4109   0.303   5.461   5.302 -0.2570  0.4407 -0.4771
 1094SOL    MW4 4110   0.324   5.518   5.240 -0.1245 -0.3006 -0.5467
 1095SOL     OW 4111   0.193   4.958   1.204  0.0356 -0.0544 -0.0870
 1095SOL    HW2 4112   0.152   4.884   1.160  0.8255 -1.0368  0.7889
 1095SOL    HW3 4113   0.204   5.024   1.135 -1.9525 -0.1746 -0.5817
 1095SOL    MW4 4114   0.189   4.957   1.189  0.1215 -0.3850 -0.1140
 1096SOL     OW 4115   0.234   0.954   0.224 -0.3185  0.4190 -0.2952
 1096SOL    HW2 4116   0.146   0.916   0.217 -0.8297  1.6611 -0.7876
 1096SOL    HW3 4117   0.258   0.942   0.316 -0.2380 -1.5242 -0.5231
 1096SOL    MW4 4118   0.226   0.947   0.235 -0.5437 -0.3081 -0.2522
 1097SOL     OW 4119   0.341   3.490   1.776 -0.8432  0.4385  0.3093
 1097SOL    HW2 4120   0.399   3.549   1.824 -2.0813 -0.0058  2.5018
 1097SOL    HW3 4121   0.374   3.402   1.796 -0.6788  0.2700 -0.6487
 1097SOL    MW4 4122   0.353   3.486   1.785  0.3287  0.5593  0.2382
 1098SOL     OW 4123   3.700   6.342   5.285  0.4445  0.3688  0.6924
 1098SOL    HW2 4124   3.639   6.407   5.320  1.5277  1.2905  0.8869
 1098SOL    HW3 4125   3.737   6.299   5.363  1.2917  0.9761  0.6334
 1098SOL    MW4 4126   3.697   6.345   5.300  0.3904  0.3614 -0.1181
 1099SOL     OW 4127   0.227   2.698   4.860  0.1393  0.5408 -0.2466
 1099SOL    HW2 4128   0.317   2.727   4.875  0.7913 -1.3222 -0.2999
 1099SOL    HW3 4129   0.232   2.643   4.782 -0.9453 -0.0605  0.0818
 1099SOL    MW4 4130   0.239   2.695   4.852  0.5302 -0.0675  0.2073
 1100SOL     OW 4131   2.020   2.315   0.675 -0.1896 -0.2570 -0.1109
 1100SOL    HW2 4132   2.029   2.349   0.764 -2.6388 -0.4748  0.2803
 1100SOL    HW3 4133   2.110   2.294   0.649  0.8103  1.5247  1.5945
 1100SOL    MW4 4134   2.033   2.317   0.684 -0.1874 -0.6924  0.1421
 1101SOL     OW 4135   6.020   1.454   3.366 -0.6640 -0.0943  0.0501
 1101SOL    HW2 4136   5.945   1.504   3.333  0.3574  0.4085 -1.5640
 1101SOL    HW3 4137   5.980   1.386   3.422 -2.1995  1.1953  0.5976
 1101SOL    MW4 4138   6.005   1.451   3.369  0.3558  0.1436 -0.5045
 1102SOL     OW 4139   4.177   1.725   2.430 -0.3464  0.1556 -0.2375
 1102SOL    HW2 4140   4.212   1.811   2.453  1.2349 -0.5764  0.2775
 1102SOL    HW3 4141   4.112   1.742   2.363 -2.0469  1.9930  1.7192
 1102SOL    MW4 4142   4.173   1.738   2.425 -0.2553 -0.0172 -0.3773
 1103SOL     OW 4143   5.948   2.851   0.444  0.3279 -0.2333  0.4333
 1103SOL    HW2 4144   5.914   2.788   0.509 -1.2569  0.0977 -0.0468
 1103SOL    HW3 4145   5.931   2.937   0.483 -2.3050  0.0507 -1.1130
 1103SOL    MW4 4146   5.942   2.854   0.458  0.4191  0.3619  0.0236
 1104SOL     OW 4147   1.811   2.050   6.006  0.1575  0.7038 -0.4419
 1104SOL    HW2 4148   1.750   2.110   5.964  0.1528  0.9716 -0.0562
 1104SOL    HW3 4149   1.896   2.092   5.997 -0.1846  2.1569  2.2510
 1104SOL    MW4 4150   1.814   2.063   5.999  0.0177  0.2332  0.2749
 1105SOL     OW 4151   4.334   2.653   3.335  0.4327 -0.2806  0.1263
 1105SOL    HW2 4152   4.264   2.670   3.271 -1.3079  1.2911  2.2832
 1105SOL    HW3 4153   4.304   2.576   3.383  0.2668  0.2334  0.8739
 1105SOL    MW4 4154   4.321   2.645   3.333  0.5318  0.1770  0.3859
 1106SOL     OW 4155   4.743   5.959   0.422  0.3000  0.0800 -0.4590
 1106SOL    HW2 4156   4.784   5.913   0.349  0.8551 -1.4875  0.7838
 1106SOL    HW3 4157   4.799   5.940   0.497  0.3681  2.5570  0.2130
 1106SOL    MW4 4158   4.755   5.950   0.422 -0.4649  0.3291 -0.2426
 1107SOL     OW 4159   0.484   1.368   5.247 -0.3306  0.0738  0.0772
 1107SOL    HW2 4160   0.463   1.343   5.337 -0.0888  1.2143  0.4628
 1107SOL    HW3 4161   0.447   1.456   5.237  1.5912  0.8917 -0.2132
 1107SOL    MW4 4162   0.476   1.377   5.257  0.0290  0.0926 -0.0763
 1108SOL     OW 4163   3.057   3.470   4.521  0.7646 -0.5826 -0.0444
 1108SOL    HW2 4164   3.135   3.524   4.529  1.6606 -1.4678 -2.1195
 1108SOL    HW3 4165   3.017   3.472   4.608  2.4546  0.8152  0.7557
 1108SOL    MW4 4166   3.062   3.478   4.534 -0.3450  0.0296  0.0172
 1109SOL     OW 4167   2.902   1.507   2.026  0.0987 -0.4177 -0.1864
 1109SOL    HW2 4168   2.902   1.565   2.102  1.8939 -1.6061  0.7772
 1109SOL    HW3 4169   2.945   1.558   1.957 -2.3710  1.0223 -0.8058
 1109SOL    MW4 4170   2.908   1.522   2.027 -0.1989 -0.0257  0.8429
 1110SOL     OW 4171   0.767   4.504   6.220 -0.1442  0.4385 -0.6885
 1110SOL    HW2 4172   0.817   4.435   6.262 -0.1652  0.2516 -0.9648
 1110SOL    HW3 4173   0.826   4.541   6.154 -0.8809 -0.9015 -2.1891
 1110SOL    MW4 4174   0.781   4.500   6.217 -0.3649  0.4545  0.3636
 1111SOL     OW 4175   1.877   3.621   6.319  0.0806  0.3231  0.3970
 1111SOL    HW2 4176   1.818   3.693   6.299  0.1326  0.4609  0.7265
 1111SOL    HW3 4177   1.935   3.656   6.387  1.3802  0.6207 -0.8192
 1111SOL    MW4 4178   1.877   3.635   6.325 -0.0853 -0.2297  0.2138
 1112SOL     OW 4179   6.090   3.278   2.248  0.1545  0.6002  0.0798
 1112SOL    HW2 4180   6.075   3.242   2.160 -0.2648 -0.8264  0.7118
 1112SOL    HW3 4181   6.050   3.215   2.307  0.2763  1.6326  1.3083
 1112SOL    MW4 4182   6.083   3.265   2.244  0.6575  0.3281  0.3119
 1113SOL     OW 4183   4.410   4.402   4.250  0.0289 -0.0819  0.7572
 1113SOL    HW2 4184   4.459   4.431   4.327 -1.4994 -1.2870  2.2659
 1113SOL    HW3 4185   4.459   4.326   4.218  0.8138  0.5790  0.3501
 1113SOL    MW4 4186   4.423   4.396   4.256  0.5392  0.0194 -0.0425
 1114SOL     OW 4187   2.893   4.396   4.733  0.0139  0.3051  0.0966
 1114SOL    HW2 4188   2.953   4.322   4.739 -1.1713 -0.6803  0.0659
 1114SOL    HW3 4189   2.943   4.463   4.686  0.5837 -1.0396 -1.2940
 1114SOL    MW4 4190   2.908   4.395   4.727  0.3038 -0.3739 -0.0349
 1115SOL     OW 4191   3.574   2.254   6.266  0.0522  0.2932 -0.0920
 1115SOL    HW2 4192   3.479   2.248   6.278 -0.1309  1.1065 -1.0289
 1115SOL    HW3 4193   3.596   2.179   6.211  0.4259 -1.5937  2.4348
 1115SOL    MW4 4194   3.564   2.243   6.260 -0.0264 -0.7579  0.2795
 1116SOL     OW 4195   2.746   0.841   3.538  0.4295 -0.2270 -0.3715
 1116SOL    HW2 4196   2.685   0.835   3.464 -0.5475 -1.6868  0.5119
 1116SOL    HW3 4197   2.782   0.753   3.546  0.7139 -0.0194  0.7217
 1116SOL    MW4 4198   2.742   0.829   3.529  0.0134  0.0181 -0.2909
 1117SOL     OW 4199   1.519   6.261   4.896 -0.2224  0.0228 -0.2466
 1117SOL    HW2 4200   1.476   6.310   4.966 -0.7248 -0.0450 -0.5031
 1117SOL    HW3 4201   1.581   6.323   4.858  1.5965 -0.5477  1.5999
 1117SOL    MW4 4202   1.521   6.275   4.900  0.0169  0.0330 -0.2288
 1118SOL     OW 4203   0.505   1.247   1.938 -0.5174 -0.0094  0.0208
 1118SOL    HW2 4204   0.419   1.223   1.973 -0.9912 -2.0610 -2.2369
 1118SOL    HW3 4205   0.487   1.305   1.865  0.1521  0.8606  0.5260
 1118SOL    MW4 4206   0.492   1.251   1.933 -0.6664 -0.6683  0.3967
 1119SOL     OW 4207   0.485   2.246   3.483  0.0590 -0.2736 -0.1044
 1119SOL    HW2 4208   0.517   2.216   3.398 -1.5109 -1.0603 -0.4601
 1119SOL    HW3 4209   0.468   2.166   3.532  0.9935  0.1734  1.0014
 1119SOL    MW4 4210   0.487   2.232   3.478 -0.0796 -0.6418  0.4286
 1120SOL     OW 4211   4.679   4.137   5.191 -0.0027  0.3753  0.1143
 1120SOL    HW2 4212   4.755   4.082   5.171 -0.9303 -0.9386  0.0986
 1120SOL    HW3 4213   4.700   4.177   5.275  0.9204  0.4625 -0.1352
 1120SOL    MW4 4214   4.692   4.135   5.199 -0.2999 -0.6597 -0.2472
 1121SOL     OW 4215   5.508   4.818   6.021  0.0135 -0.3530 -0.7327
 1121SOL    HW2 4216   5.423   4.845   5.987 -0.6379 -0.7577  0.5122
 1121SOL    HW3 4217   5.564   4.895   6.009 -0.2826 -0.3614 -2.3295
 1121SOL    MW4 4218   5.504   4.832   6.015 -0.2519  0.0291  0.4913
 1122SOL     OW 4219   6.070   6.105   4.479 -0.4222  0.8539  0.4410
 1122SOL    HW2 4220   6.088   6.014   4.457 -3.1910  1.0535 -3.8714
 1122SOL    HW3 4221   6.008   6.100   4.552 -0.2416 -0.6919  0.5146
 1122SOL    MW4 4222   6.064   6.093   4.486  0.1539  0.3821  0.0100
 1123SOL     OW 4223   4.661   1.803   4.416 -0.0837  1.1413 -0.0476
 1123SOL    HW2 4224   4.751   1.835   4.413  0.2111  0.5105  1.3232
 1123SOL    HW3 4225   4.666   1.714   4.380 -0.1615  1.0970  0.0516
 1123SOL    MW4 4226   4.674   1.795   4.411  0.8177  0.0045 -0.9029
 1124SOL     OW 4227   5.138   4.170   5.197  0.0711 -0.1638  0.0365
 1124SOL    HW2 4228   5.103   4.194   5.283 -0.2816 -2.9748  0.8034
 1124SOL    HW3 4229   5.070   4.194   5.136 -0.7762 -0.4145  0.8586
 1124SOL    MW4 4230   5.125   4.176   5.201  0.4035  0.1826 -0.4408
 1125SOL     OW 4231   1.225   5.111   1.312 -0.3826  0.5740  0.0672
 1125SOL    HW2 4232   1.271   5.034   1.279  1.0635  0.5676  1.9681
 1125SOL    HW3 4233   1.283   5.147   1.379 -1.5428  2.6802  0.0164
 1125SOL    MW4 4234   1.238   5.105   1.317 -0.3368  0.1705 -0.0962
 1126SOL     OW 4235   0.879   2.813   2.619  0.4414  0.1184  0.2090
 1126SOL    HW2 4236   0.927   2.730   2.609 -0.2295 -0.3095  0.4191
 1126SOL    HW3 4237   0.794   2.795   2.579  0.1092  0.5410  0.7267
 1126SOL    MW4 4238   0.874   2.799   2.613  0.2562 -0.4135 -0.3023
 1127SOL     OW 4239   1.595   0.908   2.314 -0.5944  0.6636 -0.0986
 1127SOL    HW2 4240   1.603   0.999   2.342 -0.3251  0.0516  2.0099
 1127SOL    HW3 4241   1.641   0.904   2.230  0.2948  2.2459  0.2765
 1127SOL    MW4 4242   1.602   0.920   2.307  0.6546 -0.1533  0.2115
 1128SOL     OW 4243   4.637   0.735   5.036  0.5840  0.2111 -0.5224
 1128SOL    HW2 4244   4.710   0.674   5.024  0.8619  0.1228  1.2689
 1128SOL    HW3 4245   4.670   0.800   5.098 -0.0719  1.5778 -1.5664
 1128SOL    MW4 4246   4.651   0.736   5.043 -0.4846 -0.2495  0.2025
 1129SOL     OW 4247   3.665   0.667   0.144  0.1490 -0.0800 -0.0479
 1129SOL    HW2 4248   3.673   0.665   0.049 -2.0992  1.8089 -0.3615
 1129SOL    HW3 4249   3.712   0.746   0.171 -0.0613 -0.0680  0.2898
 1129SOL    MW4 4250   3.672   0.677   0.135 -0.6030  0.5931 -0.2818
 1130SOL     OW 4251   1.101   2.111   2.330  0.0726 -0.0278 -0.0295
 1130SOL    HW2 4252   1.145   2.059   2.398  0.0475  0.4209  0.3315
 1130SOL    HW3 4253   1.109   2.201   2.360  0.9090  0.2721 -1.1061
 1130SOL    MW4 4254   1.108   2.116   2.343  0.1594 -0.5343  0.4942
 1131SOL     OW 4255   3.920   3.223   5.028 -0.2789 -0.6155  0.1073
 1131SOL    HW2 4256   3.944   3.316   5.029  1.2885 -0.9415 -1.2277
 1131SOL    HW3 4257   3.884   3.209   4.940  0.2670 -1.4137  0.0013
 1131SOL    MW4 4258   3.919   3.233   5.016 -0.0053 -0.1229 -0.2218
 1132SOL     OW 4259   5.790   5.444   4.464 -0.5714 -0.0422  0.3535
 1132SOL    HW2 4260   5.877   5.477   4.488 -1.0568  0.8227  0.9858
 1132SOL    HW3 4261   5.739   5.522   4.444 -0.7709 -0.6376 -1.5924
 1132SOL    MW4 4262   5.795   5.459   4.465  0.8283 -0.2228  0.4913
 1133SOL     OW 4263   3.538   4.315   3.793 -0.0915  0.2013 -0.2693
 1133SOL    HW2 4264   3.458   4.364   3.772 -1.2618 -1.4705  0.0335
 1133SOL    HW3 4265   3.512   4.223   3.786  1.3921 -0.4077  1.3783
 1133SOL    MW4 4266   3.524   4.309   3.789  1.0126 -0.1044  0.0571
 1134SOL     OW 4267   0.544   4.512   4.358 -0.5024 -0.4299 -0.2610
 1134SOL    HW2 4268   0.603   4.508   4.434 -1.5925 -0.3840  0.6180
 1134SOL    HW3 4269   0.555   4.427   4.315  2.6498  0.7168 -2.0936
 1134SOL    MW4 4270   0.553   4.500   4.363  0.4005  0.1045 -0.1806
 1135SOL     OW 4271   2.742   3.224   2.091  0.2235  0.1351  0.1070
 1135SOL    HW2 4272   2.698   3.212   2.175 -0.9001 -1.2557 -0.6360
 1135SOL    HW3 4273   2.673   3.256   2.032  0.4830 -0.9020 -0.7865
 1135SOL    MW4 4274   2.727   3.227   2.094  0.2641 -0.0859  0.2634
 1136SOL     OW 4275   4.324   5.648   3.052  0.3884  0.0412 -0.1932
 1136SOL    HW2 4276   4.326   5.569   3.106  1.7469 -0.6076 -1.1340
 1136SOL    HW3 4277   4.257   5.703   3.092 -0.3829 -1.4594  0.6690
 1136SOL    MW4 4278   4.315   5.644   3.064  0.7338  0.1570  0.2920
 1137SOL     OW 4279   2.948   0.682   5.992  0.0105 -0.3608  0.2080
 1137SOL    HW2 4280   2.972   0.758   5.939  2.8525 -1.5697 -0.4399
 1137SOL    HW3 4281   2.934   0.612   5.927 -2.1646 -0.5794  0.8142
 1137SOL    MW4 4282   2.949   0.683   5.976  0.0564  0.5772  0.1357
 1138SOL     OW 4283   2.436   2.703   1.047 -0.4147  0.3125  0.0456
 1138SOL    HW2 4284   2.425   2.747   0.962  1.4894  2.0891  0.6480
 1138SOL    HW3 4285   2.521   2.659   1.041 -1.1644 -1.2602  0.3734
 1138SOL    MW4 4286   2.446   2.703   1.035  0.4774  0.4537 -0.0052
 1139SOL     OW 4287   2.091   4.212   5.652  0.1541 -0.1707  0.1427
 1139SOL    HW2 4288   2.184   4.222   5.632 -0.0414  2.2351  0.1266
 1139SOL    HW3 4289   2.086   4.222   5.747 -0.3138  2.9334 -0.0986
 1139SOL    MW4 4290   2.102   4.215   5.662  0.4096 -0.2167 -0.3753
 1140SOL     OW 4291   0.351   3.640   4.732  0.3356  0.0435 -0.1142
 1140SOL    HW2 4292   0.293   3.573   4.768  0.6607 -0.7542 -1.0208
 1140SOL    HW3 4293   0.295   3.689   4.671  0.8700 -1.6043 -2.0523
 1140SOL    MW4 4294   0.336   3.638   4.728  0.3695 -0.3359 -0.0431
 1141SOL     OW 4295   3.892   2.529   0.017  0.2484 -0.1136 -0.3706
 1141SOL    HW2 4296   3.878   2.437  -0.007  0.7066 -0.3879  0.4119
 1141SOL    HW3 4297   3.883   2.577  -0.066 -0.3260 -0.8228 -0.7263
 1141SOL    MW4 4298   3.889   2.523   0.003 -0.7866  0.1605 -0.3416
 1142SOL     OW 4299   1.800   4.510   1.844  0.0624 -0.2549 -0.2200
 1142SOL    HW2 4300   1.841   4.472   1.921 -1.1573 -0.6118  0.2735
 1142SOL    HW3 4301   1.871   4.517   1.780  1.1105  0.1528  0.9565
 1142SOL    MW4 4302   1.814   4.505   1.845 -0.3446 -0.1340  0.9343
 1143SOL     OW 4303   5.000   3.617   5.455  0.5364  0.1748  0.1559
 1143SOL    HW2 4304   4.973   3.530   5.485 -0.3031  0.0929 -0.7850
 1143SOL    HW3 4305   4.936   3.676   5.494  1.0110  0.3680  0.6607
 1143SOL    MW4 4306   4.988   3.613   5.464 -0.2692 -0.2512  0.0902
 1144SOL     OW 4307   6.100   6.024   0.763  0.9118 -0.1184  0.3957
 1144SOL    HW2 4308   6.163   6.004   0.832  2.7925 -2.5868 -1.8681
 1144SOL    HW3 4309   6.021   5.976   0.788  1.4890 -0.7912  0.9414
 1144SOL    MW4 4310   6.098   6.015   0.775  0.0511 -0.1895 -0.5329
 1145SOL     OW 4311   1.535   2.508   5.492 -0.1312  0.3132  0.2390
 1145SOL    HW2 4312   1.603   2.575   5.481 -1.2065  1.8348  2.1160
 1145SOL    HW3 4313   1.454   2.551   5.463 -0.7912 -0.2686  1.1609
 1145SOL    MW4 4314   1.533   2.523   5.487  0.4855  0.3492 -1.0206
 1146SOL     OW 4315   5.334   2.182   3.181 -0.2834 -0.6805 -0.4015
 1146SOL    HW2 4316   5.423   2.170   3.148  0.5811 -0.1898  1.6008
 1146SOL    HW3 4317   5.280   2.124   3.127  1.4764 -2.1428 -0.6796
 1146SOL    MW4 4318   5.338   2.173   3.169 -0.1068  0.4334 -0.3239
 1147SOL     OW 4319   1.939   6.368   2.340  0.0191 -0.1391 -0.3328
 1147SOL    HW2 4320   1.856   6.400   2.375 -0.9882  0.2619 -2.8316
 1147SOL    HW3 4321   2.005   6.424   2.381 -0.9920 -0.0339  1.2186
 1147SOL    MW4 4322   1.936   6.380   2.350  0.0440 -0.0049  0.1581
 1148SOL     OW 4323   4.464   4.261   2.037  0.1602 -0.5644 -0.6795
 1148SOL    HW2 4324   4.520   4.320   1.987 -0.6156 -0.0087 -0.9054
 1148SOL    HW3 4325   4.513   4.243   2.117  1.3860 -1.4077 -1.5847
 1148SOL    MW4 4326   4.478   4.266   2.041 -0.0370 -0.2100 -0.0513
 1149SOL     OW 4327   1.334   5.992   1.446 -0.0526  0.0499  0.0599
 1149SOL    HW2 4328   1.405   5.977   1.385 -0.3045 -0.1729 -0.1813
 1149SOL    HW3 4329   1.265   6.032   1.393 -0.2351 -0.0553  0.2179
 1149SOL    MW4 4330   1.334   5.995   1.431  0.3076  0.1896  0.0351
 1150SOL     OW 4331   2.661   1.637   4.541 -0.0016  0.5475 -0.3208
 1150SOL    HW2 4332   2.632   1.570   4.604  1.0281  1.3561  1.0808
 1150SOL    HW3 4333   2.580   1.668   4.501 -0.9342  1.2075  1.8895
 1150SOL    MW4 4334   2.646   1.632   4.544 -0.2409  0.0821  0.1122
 1151SOL     OW 4335   5.152   4.554   0.797  0.1068 -0.2958 -0.5435
 1151SOL    HW2 4336   5.180   4.572   0.887  2.0489  0.1128 -1.1916
 1151SOL    HW3 4337   5.171   4.462   0.783 -1.0593 -0.5994 -0.2732
 1151SOL    MW4 4338   5.158   4.544   0.807 -0.0767  0.6473 -0.0077
 1152SOL     OW 4339   4.254   1.049   3.393 -0.1750 -0.5205  0.0326
 1152SOL    HW2 4340   4.281   1.129   3.347  1.6872 -1.1718 -0.0922
 1152SOL    HW3 4341   4.312   0.981   3.359  0.9050 -1.1510  2.8402
 1152SOL    MW4 4342   4.265   1.051   3.383 -0.4411 -0.6166 -0.0455
 1153SOL     OW 4343   2.421   4.924   1.331 -0.0221 -0.0185 -0.4048
 1153SOL    HW2 4344   2.488   4.877   1.381 -1.0277 -0.3620  0.6821
 1153SOL    HW3 4345   2.356   4.950   1.397 -1.5151 -0.6817 -1.5530
 1153SOL    MW4 4346   2.421   4.921   1.346 -0.1423  0.3819 -0.2996
 1154SOL     OW 4347   1.276   6.251   2.515 -0.1979 -0.5646  0.8223
 1154SOL    HW2 4348   1.187   6.274   2.488 -0.4810  0.0201  2.1697
 1154SOL    HW3 4349   1.273   6.156   2.525 -0.2957 -0.7075 -0.3776
 1154SOL    MW4 4350   1.264   6.242   2.512 -0.3910 -0.6300  0.4463
 1155SOL     OW 4351   3.052   3.733   0.386 -0.0175 -0.8201 -0.6260
 1155SOL    HW2 4352   2.964   3.721   0.352 -1.1788  0.7854  1.5011
 1155SOL    HW3 4353   3.095   3.791   0.323 -1.4827  0.6334 -0.3608
 1155SOL    MW4 4354   3.046   3.739   0.373  0.2403  0.5900 -0.1998
 1156SOL     OW 4355   5.477   3.871   6.366  0.4021  0.1958 -0.1185
 1156SOL    HW2 4356   5.497   3.875   6.273  0.7056 -0.1449 -0.0679
 1156SOL    HW3 4357   5.562   3.880   6.410  0.0880  2.2784  0.1792
 1156SOL    MW4 4358   5.491   3.873   6.360 -0.2226 -0.0917  0.6801
 1157SOL     OW 4359   1.047   4.081   2.464 -0.1912 -0.3352  0.3729
 1157SOL    HW2 4360   1.081   3.994   2.485 -0.7296 -0.8079 -0.6337
 1157SOL    HW3 4361   0.952   4.072   2.473 -0.5097 -0.6698 -2.3858
 1157SOL    MW4 4362   1.039   4.068   2.468  0.2001 -0.4437 -0.3592
 1158SOL     OW 4363   2.555   2.713   4.966  0.0070 -0.3618  0.0582
 1158SOL    HW2 4364   2.504   2.717   5.047 -0.5293  3.4519 -0.2923
 1158SOL    HW3 4365   2.645   2.729   4.994 -0.1465  0.7248 -0.0261
 1158SOL    MW4 4366   2.560   2.715   4.981 -0.8934  0.1471 -0.7615
 1159SOL     OW 4367   1.812   1.095   1.313  0.3079 -0.1184 -0.3334
 1159SOL    HW2 4368   1.725   1.129   1.291  0.8479  0.1006 -2.2882
 1159SOL    HW3 4369   1.857   1.168   1.354 -0.3659 -0.1813  0.5371
 1159SOL    MW4 4370   1.806   1.109   1.315  0.1562  0.0966  0.0393
 1160SOL     OW 4371   2.737   1.818   1.910  0.1697 -0.0009  0.4226
 1160SOL    HW2 4372   2.750   1.777   1.825 -0.8273  0.2928  0.1178
 1160SOL    HW3 4373   2.642   1.822   1.921  0.2781  0.5889  1.2395
 1160SOL    MW4 4374   2.727   1.813   1.900 -0.6497 -0.3222 -0.0465
 1161SOL     OW 4375   2.045   2.927   1.145 -0.1810 -0.1673 -0.1300
 1161SOL    HW2 4376   2.110   2.940   1.213 -1.2312  2.7463  0.4673
 1161SOL    HW3 4377   2.094   2.932   1.063  0.8188 -1.9334  0.2911
 1161SOL    MW4 4378   2.060   2.929   1.143  0.6850 -0.6007  0.3451
 1162SOL     OW 4379   3.631   0.580   3.332  0.0453  0.3702  0.0296
 1162SOL    HW2 4380   3.721   0.546   3.332  0.9817  2.5966  1.0184
 1162SOL    HW3 4381   3.641   0.672   3.359 -2.4136  1.0396 -1.1044
 1162SOL    MW4 4382   3.644   0.588   3.336 -0.3415  0.7296 -0.1453
 1163SOL     OW 4383   3.084   5.628   3.642 -0.3008 -0.2192  0.4485
 1163SOL    HW2 4384   3.174   5.653   3.622  0.2396  0.2099  3.0419
 1163SOL    HW3 4385   3.034   5.656   3.566  1.4324  1.5852 -0.1180
 1163SOL    MW4 4386   3.090   5.635   3.629 -0.2360  0.5172 -0.0939
 1164SOL     OW 4387   1.984   1.752   1.628 -0.5143  0.0031 -0.0713
 1164SOL    HW2 4388   1.907   1.795   1.667 -0.3639  0.4944 -0.3022
 1164SOL    HW3 4389   2.006   1.807   1.553 -0.5997 -0.7558 -0.6668
 1164SOL    MW4 4390   1.976   1.765   1.624  0.0828  0.1211 -0.8423
 1165SOL     OW 4391   5.556   0.607   1.292 -0.2115  0.5930 -0.3260
 1165SOL    HW2 4392   5.639   0.589   1.248  0.3931  1.7952  0.2902
 1165SOL    HW3 4393   5.527   0.521   1.324  1.3021  0.3053  0.3305
 1165SOL    MW4 4394   5.563   0.593   1.290  0.7000 -0.2104 -0.0388
 1166SOL     OW 4395   1.166   2.621   2.218  0.0715 -0.1459  0.2826
 1166SOL    HW2 4396   1.132   2.570   2.292 -0.1785  0.9629  0.9517
 1166SOL    HW3 4397   1.088   2.641   2.165  0.0316  0.3158  0.5126
 1166SOL    MW4 4398   1.151   2.617   2.221 -0.1771 -0.3138  0.4247
 1167SOL     OW 4399   3.361   3.192   4.830 -0.2341 -0.6166  0.1099
 1167SOL    HW2 4400   3.457   3.186   4.826  0.0141  1.9785  0.1123
 1167SOL    HW3 4401   3.336   3.223   4.743 -1.0751 -1.1877  0.1432
 1167SOL    MW4 4402   3.371   3.195   4.818 -0.2006  0.6236  0.2290
 1168SOL     OW 4403   0.178   4.903   6.406  0.7442 -0.3884 -0.3440
 1168SOL    HW2 4404   0.124   4.928   6.481 -0.0432 -3.8835  0.3995
 1168SOL    HW3 4405   0.268   4.916   6.435  0.4232 -0.5856  0.7602
 1168SOL    MW4 4406   0.183   4.908   6.419  0.0045  0.4363 -0.4337
 1169SOL     OW 4407   3.416   2.203   4.139  0.0047 -0.4894  0.2391
 1169SOL    HW2 4408   3.491   2.162   4.096  0.5272 -0.2397  0.8891
 1169SOL    HW3 4409   3.362   2.235   4.067  0.3327 -0.9972 -0.2448
 1169SOL    MW4 4410   3.419   2.202   4.124 -0.0591  0.4706 -0.4453
 1170SOL     OW 4411   0.876   4.706   1.808  0.9353 -0.1502  0.6213
 1170SOL    HW2 4412   0.846   4.645   1.875  2.7172 -0.1298  1.4834
 1170SOL    HW3 4413   0.905   4.650   1.736 -2.2894 -0.1536 -0.8255
 1170SOL    MW4 4414   0.876   4.691   1.807 -0.1393  0.0201  0.1525
 1171SOL     OW 4415   2.628   1.843   3.877  0.4028  0.8729  0.1772
 1171SOL    HW2 4416   2.595   1.825   3.965  0.0476  0.5582 -0.0144
 1171SOL    HW3 4417   2.702   1.902   3.890 -0.2924  1.6650  0.6148
 1171SOL    MW4 4418   2.633   1.848   3.890 -0.3940  0.1296  0.7927
 1172SOL     OW 4419   4.020   6.358   1.498  0.6424  0.8204  0.0647
 1172SOL    HW2 4420   3.942   6.319   1.456  0.4939 -0.0947  1.1360
 1172SOL    HW3 4421   4.083   6.368   1.427 -0.8282  2.6729 -1.0673
 1172SOL    MW4 4422   4.018   6.354   1.483 -0.1917 -0.2120  0.5622
 1173SOL     OW 4423   0.989   5.729   3.215 -0.8605 -0.2623 -0.0990
 1173SOL    HW2 4424   0.986   5.812   3.166  0.2980  0.1239  0.4429
 1173SOL    HW3 4425   0.977   5.755   3.306  1.0400 -0.4805  0.2540
 1173SOL    MW4 4426   0.987   5.744   3.221  0.0749 -0.5787  0.7815
 1174SOL     OW 4427   0.616   3.000   4.928 -0.1400 -0.3729 -0.6286
 1174SOL    HW2 4428   0.557   2.925   4.931 -1.3905  0.6127  0.4242
 1174SOL    HW3 4429   0.562   3.075   4.952  1.3126  0.7334 -0.6399
 1174SOL    MW4 4430   0.601   3.000   4.931 -0.3350 -0.0780  0.1602
 1175SOL     OW 4431   0.745   0.867   0.725  0.2368 -0.1471  0.5619
 1175SOL    HW2 4432   0.836   0.895   0.714  0.7644 -1.9416  0.1648
 1175SOL    HW3 4433   0.697   0.911   0.655  0.7754  0.8310  0.7895
 1175SOL    MW4 4434   0.751   0.877   0.715 -0.1957 -0.0367 -0.3298
 1176SOL     OW 4435   3.203   1.521   2.396 -0.0825 -0.8600  0.1234
 1176SOL    HW2 4436   3.118   1.509   2.355  0.4389 -1.4097 -0.8466
 1176SOL    HW3 4437   3.189   1.498   2.488 -0.9122 -1.2217 -0.0850
 1176SOL    MW4 4438   3.190   1.516   2.403 -0.1136 -0.3616 -0.3697
 1177SOL     OW 4439   4.291   2.337   4.227  0.1515 -0.3366 -0.1591
 1177SOL    HW2 4440   4.379   2.327   4.263  0.2340  0.2607 -0.1798
 1177SOL    HW3 4441   4.263   2.248   4.205  0.8618 -0.4954 -0.4154
 1177SOL    MW4 4442   4.299   2.324   4.229  0.3993  0.2045 -0.7994
 1178SOL     OW 4443   4.909   5.821   2.544 -0.7362  0.0570 -0.2978
 1178SOL    HW2 4444   4.893   5.786   2.456  0.7291 -2.6684  0.3920
 1178SOL    HW3 4445   4.849   5.772   2.600 -0.3756  0.4396  0.4356
 1178SOL    MW4 4446   4.899   5.810   2.540 -0.2471 -0.3937  0.0950
 1179SOL     OW 4447   3.780   4.885   2.602 -0.2802  0.3118 -0.3587
 1179SOL    HW2 4448   3.769   4.821   2.673  2.2599 -1.1291 -1.1200
 1179SOL    HW3 4449   3.869   4.870   2.570 -0.5619  2.4190 -2.4186
 1179SOL    MW4 4450   3.791   4.875   2.607 -0.4539 -0.4959 -0.2292
 1180SOL     OW 4451   0.608   4.671   6.368  0.3651  0.3636  0.5340
 1180SOL    HW2 4452   0.647   4.601   6.316 -1.3833 -0.3040  0.0657
 1180SOL    HW3 4453   0.673   4.741   6.366  0.5227  0.2461 -2.2893
 1180SOL    MW4 4454   0.622   4.671   6.361  0.4594  0.2724 -0.3432
 1181SOL     OW 4455   1.161   6.417   3.067  0.4765 -0.2818 -0.1477
 1181SOL    HW2 4456   1.092   6.352   3.078 -0.3966  0.6528  0.0544
 1181SOL    HW3 4457   1.201   6.395   2.983 -0.4934 -0.4597 -0.5807
 1181SOL    MW4 4458   1.157   6.406   3.057  0.9984 -0.8255 -0.5228
 1182SOL     OW 4459   3.786   1.140   4.506  0.4763  0.0536  0.1714
 1182SOL    HW2 4460   3.765   1.232   4.489  2.2601  0.4302 -0.2276
 1182SOL    HW3 4461   3.703   1.095   4.499 -0.0859  1.2790 -2.1572
 1182SOL    MW4 4462   3.772   1.146   4.503 -0.5089 -0.7707  0.2120
 1183SOL     OW 4463   5.336   1.554   4.140 -0.4730  0.2312  0.2443
 1183SOL    HW2 4464   5.389   1.620   4.096 -0.2051 -0.4281 -0.4353
 1183SOL    HW3 4465   5.350   1.571   4.234  3.7192 -2.0366  0.2545
 1183SOL    MW4 4466   5.345   1.565   4.147 -0.0517  0.0929 -0.2255
 1184SOL     OW 4467   2.136   3.149   4.965 -0.2776  0.7047  0.0889
 1184SOL    HW2 4468   2.192   3.225   4.980 -1.4523  1.3909  1.2804
 1184SOL    HW3 4469   2.076   3.177   4.895 -0.3408  0.6635  0.1263
 1184SOL    MW4 4470   2.135   3.163   4.958  0.3211 -0.4559  0.4068
 1185SOL     OW 4471   2.114   0.675   4.356 -0.0756  0.5530  0.5986
 1185SOL    HW2 4472   2.064   0.740   4.405 -1.3623 -1.0420  1.5209
 1185SOL    HW3 4473   2.063   0.658   4.278  1.1126  1.8323 -0.5040
 1185SOL    MW4 4474   2.101   0.681   4.352 -0.0684 -0.9984  0.4868
 1186SOL     OW 4475   0.886   3.696   1.246 -0.2969  0.1467  0.4039
 1186SOL    HW2 4476   0.813   3.754   1.227  0.9817  1.6322 -0.2240
 1186SOL    HW3 4477   0.964   3.745   1.218  0.9029 -1.5921  0.5140
 1186SOL    MW4 4478   0.887   3.710   1.240 -0.0102  0.3511 -0.6804
 1187SOL     OW 4479   4.442   1.707   1.961  0.6307 -0.4006 -0.0131
 1187SOL    HW2 4480   4.492   1.682   2.039 -0.2937  1.5873  1.3005
 1187SOL    HW3 4481   4.425   1.800   1.972 -2.8592 -0.8121 -0.6003
 1187SOL    MW4 4482   4.446   1.716   1.973  0.4062 -0.5885  0.8534
 1188SOL     OW 4483   2.273   5.258   5.319  0.3427 -0.0752  0.2114
 1188SOL    HW2 4484   2.309   5.346   5.323  1.5639 -0.5618  0.2978
 1188SOL    HW3 4485   2.346   5.202   5.292  0.1388 -1.3332  2.0373
 1188SOL    MW4 4486   2.287   5.262   5.316  0.5316  0.4584  0.1724
 1189SOL     OW 4487   2.400   2.968   3.178 -0.7863 -0.5850  0.0396
 1189SOL    HW2 4488   2.403   2.904   3.249 -0.3573 -0.2057  0.3669
 1189SOL    HW3 4489   2.453   2.930   3.109  1.4183  0.4351  1.0934
 1189SOL    MW4 4490   2.407   2.955   3.178 -0.5840  0.0194  0.2450
 1190SOL     OW 4491   3.421   1.064   0.596 -0.3696  0.1143 -0.0480
 1190SOL    HW2 4492   3.383   1.001   0.534  1.6378  0.3116 -1.6173
 1190SOL    HW3 4493   3.413   1.022   0.681 -0.0687 -1.8284 -0.9089
 1190SOL    MW4 4494   3.415   1.050   0.599  0.0756 -0.3439  0.3683
 1191SOL     OW 4495   5.781   0.086   5.657  0.2507  0.4514 -0.0366
 1191SOL    HW2 4496   5.702   0.122   5.697 -0.1336 -0.0787 -0.3126
 1191SOL    HW3 4497   5.839   0.162   5.646  0.2741  0.6458  1.2871
 1191SOL    MW4 4498   5.779   0.101   5.661 -0.2895  0.0435  0.4286
 1192SOL     OW 4499   3.793   0.463   4.772  0.5390  0.0923 -0.4225
 1192SOL    HW2 4500   3.780   0.509   4.855  0.3100 -0.2263 -0.2753
 1192SOL    HW3 4501   3.719   0.489   4.718  0.8680  0.5594 -0.6476
 1192SOL    MW4 4502   3.781   0.472   4.776 -0.9797 -0.0873  0.3968
 1193SOL     OW 4503   0.587   0.658   4.775  0.5753  0.2009  0.2769
 1193SOL    HW2 4504   0.523   0.598   4.737  1.0333 -0.0753 -0.0726
 1193SOL    HW3 4505   0.647   0.601   4.823  0.5426  0.4603  0.6256
 1193SOL    MW4 4506   0.587   0.642   4.776  0.3028 -0.4688  0.3980
 1194SOL     OW 4507   2.393   2.679   1.313  0.1643 -0.1537 -0.2397
 1194SOL    HW2 4508   2.413   2.697   1.221  0.5329 -1.5978 -0.4687
 1194SOL    HW3 4509   2.477   2.685   1.358  0.5534 -2.4174 -0.5470
 1194SOL    MW4 4510   2.407   2.682   1.306  0.0962 -0.7460 -0.2270
 1195SOL     OW 4511   0.065   6.161   5.388  0.7257 -0.3383 -0.0420
 1195SOL    HW2 4512   0.145   6.146   5.438  2.6531 -0.6481 -3.0128
 1195SOL    HW3 4513   0.083   6.240   5.337 -1.7948  0.9222  0.8305
 1195SOL    MW4 4514   0.078   6.170   5.388  0.7614 -0.2882 -0.4874
 1196SOL     OW 4515   6.239   5.453   2.869  0.0674  0.3129  0.2431
 1196SOL    HW2 4516   6.291   5.373   2.856 -0.7005 -0.2529  0.5700
 1196SOL    HW3 4517   6.289   5.505   2.931  0.7544  0.2611 -0.2559
 1196SOL    MW4 4518   6.252   5.449   2.875  0.2499 -0.0417  0.0949
 1197SOL     OW 4519   2.760   3.921   5.795  0.2839 -0.1789  0.2125
 1197SOL    HW2 4520   2.737   3.938   5.703  0.1573 -0.7527  0.1385
 1197SOL    HW3 4521   2.702   3.979   5.845  0.0616 -0.1673 -0.0534
 1197SOL    MW4 4522   2.749   3.931   5.789 -0.3108 -0.3527 -0.6099
 1198SOL     OW 4523   0.375   3.924   1.644  0.5386  0.4670  0.2748
 1198SOL    HW2 4524   0.284   3.925   1.674  0.0756 -2.4174 -0.6460
 1198SOL    HW3 4525   0.371   3.878   1.560  2.7820  0.8568 -0.1024
 1198SOL    MW4 4526   0.363   3.918   1.637 -0.6001 -0.1174  0.4913
 1199SOL     OW 4527   4.652   3.881   0.023 -0.6511  0.2907  0.0916
 1199SOL    HW2 4528   4.731   3.902   0.072 -0.1735  1.9632 -1.3478
 1199SOL    HW3 4529   4.620   3.800   0.064  1.9764 -0.6482  0.4635
 1199SOL    MW4 4530   4.658   3.873   0.035 -0.2177 -0.0881 -0.1646
 1200SOL     OW 4531   0.688   3.195   4.284  0.0304  0.4824  0.2834
 1200SOL    HW2 4532   0.681   3.106   4.250  1.0045  1.1822 -1.9478
 1200SOL    HW3 4533   0.781   3.215   4.279  0.1687  0.8781  2.9786
 1200SOL    MW4 4534   0.699   3.186   4.279  0.0808 -0.1392 -0.2832
 1201SOL     OW 4535   3.796   2.460   4.289 -0.1243 -0.2064  0.1859
 1201SOL    HW2 4536   3.785   2.529   4.354 -2.3424 -0.6449  0.3626
 1201SOL    HW3 4537   3.743   2.489   4.215 -0.6499 -1.4442  0.0587
 1201SOL    MW4 4538   3.788   2.473   4.288  0.5184 -0.1808 -0.0326
 1202SOL     OW 4539   0.054   4.097   0.883 -0.4613 -0.3554  0.5206
 1202SOL    HW2 4540   0.000   4.054   0.817 -2.3915  0.3299  1.6005
 1202SOL    HW3 4541   0.025   4.061   0.966 -0.3162  1.1148  1.2491
 1202SOL    MW4 4542   0.043   4.087   0.885  0.4821  0.2164  0.6899
 1203SOL     OW 4543   0.882   1.553   2.725  0.2088  0.0564 -0.2024
 1203SOL    HW2 4544   0.865   1.473   2.775  0.8159 -0.4166 -0.7200
 1203SOL    HW3 4545   0.814   1.554   2.658 -0.1680  0.3067  0.1767
 1203SOL    MW4 4546   0.871   1.542   2.723  0.3694 -0.4742  0.4262
 1204SOL     OW 4547   4.268   0.725   5.608 -0.6263  0.5142  0.3956
 1204SOL    HW2 4548   4.280   0.631   5.619  1.4186  0.2939 -2.6714
 1204SOL    HW3 4549   4.348   0.763   5.646  0.0086  0.7206 -1.0892
 1204SOL    MW4 4550   4.280   0.718   5.615  0.6664 -0.0822 -0.1521
 1205SOL     OW 4551   5.039   3.110   2.566 -0.4966  0.1473  0.1674
 1205SOL    HW2 4552   4.945   3.093   2.559 -0.3511 -0.7256  0.2669
 1205SOL    HW3 4553   5.045   3.205   2.576 -1.2000  0.5951 -2.7873
 1205SOL    MW4 4554   5.027   3.120   2.566  0.2497  0.1630 -0.2377
 1206SOL     OW 4555   5.634   5.057   2.902 -0.2017  0.3875 -0.1822
 1206SOL    HW2 4556   5.678   5.032   2.983 -1.1367 -0.2020  0.1502
 1206SOL    HW3 4557   5.698   5.114   2.857 -0.0574  1.5704  1.4240
 1206SOL    MW4 4558   5.649   5.061   2.907  0.7916  0.6562 -0.3596
 1207SOL     OW 4559   3.500   4.714   5.548  0.0856 -0.3818 -0.1921
 1207SOL    HW2 4560   3.446   4.751   5.618  1.9681  3.3679 -0.4653
 1207SOL    HW3 4561   3.446   4.722   5.469 -0.9566 -1.8939  0.3405
 1207SOL    MW4 4562   3.486   4.720   5.547  0.2587 -0.4197 -0.4182
 1208SOL     OW 4563   1.480   1.812   0.915  0.1035  0.5139  0.1397
 1208SOL    HW2 4564   1.523   1.752   0.855 -2.3187 -1.7107  0.4716
 1208SOL    HW3 4565   1.476   1.764   0.998 -3.1684  0.4501  0.0391
 1208SOL    MW4 4566   1.485   1.798   0.918  0.0668  0.2305  0.0338
 1209SOL     OW 4567   5.796   2.390   3.116  0.3510  0.4902  0.1474
 1209SOL    HW2 4568   5.891   2.383   3.127  0.1033 -0.4863  2.2429
 1209SOL    HW3 4569   5.767   2.437   3.194 -0.8347  1.4966 -0.8747
 1209SOL    MW4 4570   5.805   2.395   3.128  0.1640  0.2384 -0.2855
 1210SOL     OW 4571   4.874   1.695   3.091  0.2902 -0.0071  0.5297
 1210SOL    HW2 4572   4.965   1.703   3.119  0.2965 -0.5490  0.6898
 1210SOL    HW3 4573   4.861   1.767   3.030  0.8389  0.0556  0.4797
 1210SOL    MW4 4574   4.884   1.705   3.087 -0.0605  0.2501 -0.4686
 1211SOL     OW 4575   4.339   2.134   5.366 -0.4957 -0.2096  0.4249
 1211SOL    HW2 4576   4.332   2.090   5.450  0.9092 -0.7039  0.3038
 1211SOL    HW3 4577   4.333   2.064   5.301  0.5190 -0.1108  0.1989
 1211SOL    MW4 4578   4.337   2.119   5.368 -0.2331  0.4406  0.1893
 1212SOL     OW 4579   5.246   5.539   4.404  0.2504 -0.2462 -0.4108
 1212SOL    HW2 4580   5.274   5.628   4.385 -2.6931  0.8378 -0.2204
 1212SOL    HW3 4581   5.195   5.513   4.327 -0.2290 -1.1747  0.1969
 1212SOL    MW4 4582   5.243   5.547   4.391 -0.0049 -0.3775  0.0901
 1213SOL     OW 4583   0.241   5.183   3.362 -0.4158  0.4845  0.2336
 1213SOL    HW2 4584   0.180   5.236   3.311 -0.1110 -0.7656 -1.5154
 1213SOL    HW3 4585   0.185   5.130   3.420 -0.7530  2.0485  1.4163
 1213SOL    MW4 4586   0.225   5.183   3.363 -0.4161  0.2860  0.1761
 1214SOL     OW 4587   0.781   4.358   1.871  0.5879  0.3319 -0.1130
 1214SOL    HW2 4588   0.732   4.276   1.872  1.9093 -0.5698 -2.3588
 1214SOL    HW3 4589   0.860   4.339   1.820  0.7073  3.1044 -1.1395
 1214SOL    MW4 4590   0.785   4.345   1.865 -0.5450  0.0224 -0.5854
 1215SOL     OW 4591   4.031   4.835   5.800 -0.0702 -0.1635 -0.4359
 1215SOL    HW2 4592   4.034   4.809   5.892  0.4556 -1.0762 -0.7031
 1215SOL    HW3 4593   3.942   4.868   5.786 -0.1968 -0.1696  0.3555
 1215SOL    MW4 4594   4.020   4.836   5.810  0.2390  0.5566 -0.3656
 1216SOL     OW 4595   2.144   1.884   3.124 -0.0330  0.0774  0.0467
 1216SOL    HW2 4596   2.175   1.916   3.039 -0.2274 -0.0109 -0.0587
 1216SOL    HW3 4597   2.191   1.803   3.138 -0.6357 -0.3556 -0.3822
 1216SOL    MW4 4598   2.154   1.878   3.114 -0.7043 -0.4538 -0.0407
 1217SOL     OW 4599   4.136   4.244   1.660 -0.3839 -0.0257 -0.2012
 1217SOL    HW2 4600   4.205   4.310   1.660  0.5240 -0.9457 -1.5682
 1217SOL    HW3 4601   4.165   4.177   1.722 -0.0722 -0.3756 -0.7194
 1217SOL    MW4 4602   4.149   4.244   1.668 -1.0604  0.5502  0.3692
 1218SOL     OW 4603   2.976   5.882   4.637 -0.2194  0.5942  0.3704
 1218SOL    HW2 4604   2.961   5.970   4.673  1.6666  0.2021  2.3108
 1218SOL    HW3 4605   3.016   5.833   4.709  0.8472 -1.2121 -1.3531
 1218SOL    MW4 4606   2.979   5.887   4.651  0.1296 -1.2242  0.0911
 1219SOL     OW 4607   2.773   4.613   3.068 -0.0661  0.2616  0.4799
 1219SOL    HW2 4608   2.785   4.527   3.108 -0.4434 -0.3859 -0.7476
 1219SOL    HW3 4609   2.777   4.597   2.974 -1.5109  1.3778  0.1955
 1219SOL    MW4 4610   2.775   4.600   3.061 -0.1344 -0.0379 -0.3025
 1220SOL     OW 4611   4.262   2.384   4.792  0.4651 -0.0834 -0.1276
 1220SOL    HW2 4612   4.290   2.366   4.702 -0.6179 -0.6879 -0.3632
 1220SOL    HW3 4613   4.229   2.300   4.823  0.6815  0.1648  0.7916
 1220SOL    MW4 4614   4.262   2.371   4.784 -0.3738  0.4803  0.1370
 1221SOL     OW 4615   3.376   6.133   5.799 -0.0976 -0.0397  0.3271
 1221SOL    HW2 4616   3.326   6.051   5.803 -0.5338  0.1263 -1.2123
 1221SOL    HW3 4617   3.403   6.140   5.708  0.1632  1.4105  0.4986
 1221SOL    MW4 4618   3.373   6.123   5.787  0.1897  0.1533 -0.4113
 1222SOL     OW 4619   6.248   0.460   4.060 -0.0473 -0.1112 -0.5079
 1222SOL    HW2 4620   6.323   0.520   4.066 -1.4216  1.5033  2.9565
 1222SOL    HW3 4621   6.172   0.516   4.072 -1.5268 -2.3006  0.8268
 1222SOL    MW4 4622   6.248   0.475   4.062  0.3879  0.7608  0.0317
 1223SOL     OW 4623   1.439   2.057   1.752  0.2302  0.6370 -0.0526
 1223SOL    HW2 4624   1.403   1.971   1.733  0.5241  0.4143  0.3931
 1223SOL    HW3 4625   1.466   2.053   1.844 -0.4913  1.4600  0.2086
 1223SOL    MW4 4626   1.438   2.045   1.762  0.0309  0.1961 -0.5481
 1224SOL     OW 4627   0.739   2.759   1.947 -0.1297 -0.2508  0.3245
 1224SOL    HW2 4628   0.687   2.791   2.021 -2.1305 -1.0539 -0.6713
 1224SOL    HW3 4629   0.745   2.834   1.888 -1.6833 -0.6275 -0.3436
 1224SOL    MW4 4630   0.733   2.773   1.949 -0.6026  0.4197 -0.3064
 1225SOL     OW 4631   4.545   4.138   2.873 -0.0152  0.2442  0.0495
 1225SOL    HW2 4632   4.575   4.168   2.959  0.2184  1.1122 -0.3288
 1225SOL    HW3 4633   4.489   4.209   2.841 -0.4201 -0.2470 -0.3572
 1225SOL    MW4 4634   4.541   4.152   2.880 -0.2729 -0.1440 -0.1040
 1226SOL     OW 4635   5.516   0.345   5.505  0.2922 -0.5087  0.0651
 1226SOL    HW2 4636   5.495   0.426   5.459 -0.5436 -1.0734 -0.5774
 1226SOL    HW3 4637   5.595   0.312   5.462  0.5694 -0.0962  0.2548
 1226SOL    MW4 4638   5.524   0.351   5.493  0.1829  0.4222 -0.0868
 1227SOL     OW 4639   4.265   4.701   5.413 -0.2276  0.5812 -0.1395
 1227SOL    HW2 4640   4.281   4.626   5.469 -2.1524 -0.7655 -1.2536
 1227SOL    HW3 4641   4.251   4.774   5.473  0.1298 -0.2830  1.0263
 1227SOL    MW4 4642   4.265   4.701   5.428  0.6266  0.3363  0.1571
 1228SOL     OW 4643   4.746   1.171   4.543  0.5385 -0.2797 -0.6008
 1228SOL    HW2 4644   4.763   1.077   4.548  0.7559 -0.2824 -1.2197
 1228SOL    HW3 4645   4.692   1.181   4.464 -0.8539 -0.0623  0.3334
 1228SOL    MW4 4646   4.741   1.160   4.533  0.0191  0.0264  0.2064
 1229SOL     OW 4647   2.402   5.719   6.046 -0.1974 -0.3594 -0.1123
 1229SOL    HW2 4648   2.375   5.738   6.135  0.3396 -0.1178  0.0017
 1229SOL    HW3 4649   2.410   5.623   6.043  2.2521 -0.2534  0.8500
 1229SOL    MW4 4650   2.399   5.709   6.057 -0.1324  0.1572  0.2467
 1230SOL     OW 4651   4.023   5.886   0.917 -0.3022  0.9517  0.2930
 1230SOL    HW2 4652   4.045   5.815   0.977  0.3384  0.5917 -0.3540
 1230SOL    HW3 4653   3.996   5.958   0.974 -2.1605 -0.1755  0.9336
 1230SOL    MW4 4654   4.023   5.886   0.932 -0.7918 -0.6215 -0.5806
 1231SOL     OW 4655   3.850   5.978   1.953 -0.2002  0.9659 -0.2645
 1231SOL    HW2 4656   3.773   5.958   2.007  0.7190  1.2819  1.2230
 1231SOL    HW3 4657   3.837   6.068   1.924  0.2794  1.5358  1.2191
 1231SOL    MW4 4658   3.838   5.987   1.956  0.1176 -0.1081 -0.6373
 1232SOL     OW 4659   1.085   4.834   5.906  0.0446 -0.3156  0.0685
 1232SOL    HW2 4660   1.098   4.836   5.811  0.6162 -2.9531  0.0405
 1232SOL    HW3 4661   1.121   4.917   5.936  0.5389  0.2507 -1.9260
 1232SOL    MW4 4662   1.091   4.846   5.898 -0.6701 -0.0452  0.4027
 1233SOL     OW 4663   4.649   6.019   3.366  0.5983 -0.7404 -0.0357
 1233SOL    HW2 4664   4.705   6.034   3.290  2.0180  0.5356  1.1675
 1233SOL    HW3 4665   4.560   6.025   3.332  1.1718  1.2219 -1.3997
 1233SOL    MW4 4666   4.644   6.022   3.352 -0.2369  0.3236 -0.4708
 1234SOL     OW 4667   1.914   3.424   0.960 -0.1602 -0.2983 -0.0845
 1234SOL    HW2 4668   1.829   3.389   0.988 -0.0727 -1.2853 -1.0100
 1234SOL    HW3 4669   1.898   3.518   0.951 -1.3878 -0.5647 -0.9914
 1234SOL    MW4 4670   1.900   3.432   0.963  0.0272 -0.1732  0.3048
 1235SOL     OW 4671   0.586   2.934   0.085 -0.0665  0.7021 -0.2236
 1235SOL    HW2 4672   0.636   2.903   0.160 -2.3865  0.0154  1.1108
 1235SOL    HW3 4673   0.508   2.879   0.083 -0.6562  1.5233 -2.4146
 1235SOL    MW4 4674   0.583   2.923   0.094  0.0816 -0.0113 -0.3823
 1236SOL     OW 4675   1.045   5.036   4.465  0.3206 -0.2700 -1.0364
 1236SOL    HW2 4676   1.027   5.004   4.554 -1.0266  1.4924 -0.6005
 1236SOL    HW3 4677   1.136   5.064   4.468 -0.0178  0.8649  0.2214
 1236SOL    MW4 4678   1.054   5.036   4.477  0.6842 -0.0724  0.2869
 1237SOL     OW 4679   0.673   5.564   0.687  0.0098 -0.6572 -0.5044
 1237SOL    HW2 4680   0.604   5.629   0.698  0.6124 -0.2231  0.8636
 1237SOL    HW3 4681   0.657   5.499   0.756 -0.0274 -1.4744 -1.2601
 1237SOL    MW4 4682   0.662   5.564   0.698  0.1675 -1.1664 -0.1884
 1238SOL     OW 4683   2.959   5.320   2.434 -0.4323 -0.0340  0.2312
 1238SOL    HW2 4684   2.883   5.264   2.449 -0.3505  0.1130  1.3101
 1238SOL    HW3 4685   3.032   5.271   2.472  0.0065 -0.1158 -0.6824
 1238SOL    MW4 4686   2.959   5.306   2.441  0.0858  0.5092  0.8010
 1239SOL     OW 4687   3.987   2.216   5.461  0.0577 -0.4460 -0.5859
 1239SOL    HW2 4688   3.906   2.242   5.504 -0.6362  0.9430 -2.6548
 1239SOL    HW3 4689   3.998   2.124   5.487 -0.7987  0.0264  1.7354
 1239SOL    MW4 4690   3.978   2.207   5.470 -0.3288 -0.4284 -0.1562
 1240SOL     OW 4691   4.117   0.785   0.704 -0.3518 -0.0685  0.7703
 1240SOL    HW2 4692   4.186   0.724   0.731  0.2473 -0.3745 -1.2316
 1240SOL    HW3 4693   4.101   0.763   0.612 -1.6310  1.4141  0.5949
 1240SOL    MW4 4694   4.124   0.774   0.695  0.1408 -0.6644  0.5347
 1241SOL     OW 4695   1.452   3.607   3.211  0.3544 -0.0687 -0.8780
 1241SOL    HW2 4696   1.522   3.602   3.147 -0.1370  2.5020 -1.7408
 1241SOL    HW3 4697   1.378   3.564   3.169  0.6454 -0.3341 -1.1208
 1241SOL    MW4 4698   1.451   3.601   3.197 -0.4476 -0.2252 -0.0519
 1242SOL     OW 4699   5.863   5.791   3.879 -0.2607 -0.3337 -0.2165
 1242SOL    HW2 4700   5.948   5.759   3.849 -1.3311 -2.3865 -1.2603
 1242SOL    HW3 4701   5.856   5.878   3.840  0.8424 -0.6256 -1.1276
 1242SOL    MW4 4702   5.873   5.799   3.870 -0.2410  0.0164  0.4636
 1243SOL     OW 4703   4.818   5.883   4.323 -0.3979  0.2153 -0.3491
 1243SOL    HW2 4704   4.825   5.840   4.408 -1.9244 -1.3379 -0.9501
 1243SOL    HW3 4705   4.766   5.962   4.341 -1.0937 -0.3310  0.1155
 1243SOL    MW4 4706   4.812   5.888   4.336  0.7175  0.4953 -0.0351
 1244SOL     OW 4707   1.420   1.011   4.625  0.4046 -0.2417  0.0903
 1244SOL    HW2 4708   1.378   0.970   4.550 -0.1989  2.2871 -1.0311
 1244SOL    HW3 4709   1.348   1.049   4.675  1.0627  1.2011 -0.0225
 1244SOL    MW4 4710   1.405   1.011   4.622  0.8788  0.2769 -0.0613
 1245SOL     OW 4711   4.132   5.089   5.867 -0.3364 -0.0781 -0.1202
 1245SOL    HW2 4712   4.103   4.998   5.867  2.1136 -0.9238  0.7998
 1245SOL    HW3 4713   4.132   5.114   5.960  0.4278  0.3627 -0.2334
 1245SOL    MW4 4714   4.128   5.080   5.879  0.4089  0.3326  0.2365
 1246SOL     OW 4715   2.321   4.068   0.059  0.1972 -0.0921  0.0494
 1246SOL    HW2 4716   2.394   4.105   0.110 -0.1550 -0.0986  0.5690
 1246SOL    HW3 4717   2.243   4.108   0.097 -0.0518  0.1807 -0.7367
 1246SOL    MW4 4718   2.320   4.078   0.071  0.2692  0.4766 -0.7861
 1247SOL     OW 4719   1.055   2.404   2.386  0.2361  0.2317 -0.2590
 1247SOL    HW2 4720   0.980   2.422   2.329  0.8045  0.8267 -0.8343
 1247SOL    HW3 4721   1.032   2.445   2.470 -1.0865 -1.5820  0.3327
 1247SOL    MW4 4722   1.042   2.412   2.390  0.2166  0.3468  0.2274
 1248SOL     OW 4723   4.235   0.522   6.156 -0.9301  0.1056  0.0930
 1248SOL    HW2 4724   4.329   0.531   6.173 -1.0625  1.4974  0.2790
 1248SOL    HW3 4725   4.224   0.432   6.126  0.3389 -0.3408  0.8625
 1248SOL    MW4 4726   4.246   0.512   6.154  0.0466  0.1160 -0.0515
 1249SOL     OW 4727   4.595   5.640   1.391 -0.4180  0.5127  0.2752
 1249SOL    HW2 4728   4.591   5.731   1.421  2.6936  0.2989  1.7994
 1249SOL    HW3 4729   4.604   5.589   1.471  0.9704 -0.8113 -0.6759
 1249SOL    MW4 4730   4.596   5.645   1.405 -0.6725  0.5183  0.5238
 1250SOL     OW 4731   5.610   4.708   2.120 -0.0077 -0.2397  0.1740
 1250SOL    HW2 4732   5.668   4.669   2.185 -0.6538  0.2159  1.0453
 1250SOL    HW3 4733   5.533   4.652   2.119 -0.1692 -0.0196  0.1028
 1250SOL    MW4 4734   5.608   4.696   2.129  0.3015 -0.0648 -0.5603
 1251SOL     OW 4735   1.061   2.572   3.206 -0.2200 -0.3232 -0.6769
 1251SOL    HW2 4736   1.094   2.629   3.275  0.8078 -1.7231  0.0394
 1251SOL    HW3 4737   1.132   2.569   3.141 -0.2818 -0.7573 -0.7273
 1251SOL    MW4 4738   1.075   2.579   3.206 -0.5147  0.0646  0.0466
 1252SOL     OW 4739   3.038   1.689   4.137  0.0386  0.3343 -0.2827
 1252SOL    HW2 4740   3.071   1.693   4.227  2.6991  0.7110 -1.1763
 1252SOL    HW3 4741   3.083   1.614   4.099  1.9518  2.3662 -2.2981
 1252SOL    MW4 4742   3.048   1.680   4.144 -0.1903 -0.0676 -0.2242
 1253SOL     OW 4743   5.135   1.248   3.132  0.4696 -0.1545  0.5285
 1253SOL    HW2 4744   5.058   1.221   3.082  1.4205 -0.8191 -0.6173
 1253SOL    HW3 4745   5.149   1.339   3.109  0.3337 -0.1811  0.3445
 1253SOL    MW4 4746   5.126   1.256   3.123  0.6312 -0.5037  0.2489
 1254SOL     OW 4747   3.798   1.469   1.662  0.0007 -0.2568 -0.2613
 1254SOL    HW2 4748   3.857   1.506   1.727 -0.6088  3.3621 -1.5421
 1254SOL    HW3 4749   3.854   1.450   1.587  0.1356 -0.8034 -0.0250
 1254SOL    MW4 4750   3.813   1.471   1.661  0.0797 -0.6929  0.3789
 1255SOL     OW 4751   0.331   5.432   6.066 -0.4699 -0.3333 -0.1460
 1255SOL    HW2 4752   0.335   5.520   6.104  1.4097 -1.0468  1.4313
 1255SOL    HW3 4753   0.242   5.402   6.086 -0.8234  0.8286  0.1294
 1255SOL    MW4 4754   0.320   5.440   6.073 -0.2342 -0.3680 -0.0591
 1256SOL     OW 4755   5.891   3.129   4.990  0.1766 -0.5240 -0.3972
 1256SOL    HW2 4756   5.913   3.153   5.081 -1.0264 -0.6288 -0.0627
 1256SOL    HW3 4757   5.914   3.206   4.939  0.1615 -0.1825  0.1005
 1256SOL    MW4 4758   5.897   3.142   4.996  0.0004 -0.0960  0.1203
 1257SOL     OW 4759   5.774   3.641   2.979  0.2425 -0.1419  0.0996
 1257SOL    HW2 4760   5.764   3.628   2.885  1.2036 -0.2077 -0.0023
 1257SOL    HW3 4761   5.869   3.652   2.992 -0.0023  1.2195  0.8858
 1257SOL    MW4 4762   5.785   3.640   2.968  0.3197  0.2326 -0.1321
 1258SOL     OW 4763   0.320   1.372   5.508  0.4745 -0.3404  0.0947
 1258SOL    HW2 4764   0.384   1.443   5.512 -1.0597  1.0840  2.9633
 1258SOL    HW3 4765   0.247   1.409   5.459  0.2213 -0.4375  0.3965
 1258SOL    MW4 4766   0.319   1.386   5.502 -0.0617 -0.6159 -0.0704
 1259SOL     OW 4767   6.132   5.683   5.768  0.5241 -0.1002  0.1381
 1259SOL    HW2 4768   6.078   5.605   5.773 -0.8474  0.8272  0.2099
 1259SOL    HW3 4769   6.084   5.749   5.818  1.6923  0.7785  0.1468
 1259SOL    MW4 4770   6.119   5.681   5.776  0.5422  0.6193 -0.1921
 1260SOL     OW 4771   2.937   3.884   3.794  0.6189 -0.6505 -0.1123
 1260SOL    HW2 4772   2.922   3.968   3.837  2.2320  0.6647 -1.9387
 1260SOL    HW3 4773   2.881   3.822   3.841 -1.0341  1.5325  0.9459
 1260SOL    MW4 4774   2.928   3.887   3.806 -0.2608  0.2851 -0.0884
 1261SOL     OW 4775   0.499   2.989   1.592 -1.0107  0.0980  0.0883
 1261SOL    HW2 4776   0.564   2.927   1.624  0.5360  2.1532  1.1493
 1261SOL    HW3 4777   0.544   3.073   1.590 -3.2184  1.3595 -0.5588
 1261SOL    MW4 4778   0.513   2.992   1.596  0.3094 -0.8476 -0.3044
 1262SOL     OW 4779   1.350   1.378   4.322 -0.3061 -0.0563  0.2684
 1262SOL    HW2 4780   1.310   1.305   4.274  1.5468  0.9679 -3.1141
 1262SOL    HW3 4781   1.296   1.454   4.298 -0.4657  0.2146  1.4148
 1262SOL    MW4 4782   1.337   1.378   4.312 -0.3849  0.5499  0.3700
 1263SOL     OW 4783   5.521   5.951   2.807 -0.0780  0.3118  0.0951
 1263SOL    HW2 4784   5.434   5.971   2.840 -0.6268 -0.4566 -0.8483
 1263SOL    HW3 4785   5.529   5.856   2.815 -0.4247  0.0010 -2.3250
 1263SOL    MW4 4786   5.511   5.941   2.812 -0.3632 -0.3630  0.0793
 1264SOL     OW 4787   3.775   5.355   2.262 -0.4472 -0.1676 -0.0401
 1264SOL    HW2 4788   3.774   5.337   2.356  3.2695  1.6267  0.5203
 1264SOL    HW3 4789   3.708   5.423   2.250 -0.7805 -0.2228  1.3566
 1264SOL    MW4 4790   3.766   5.362   2.273  0.2195  0.1979 -0.5820
 1265SOL     OW 4791   2.429   4.889   4.213 -0.1227 -0.2189 -0.0339
 1265SOL    HW2 4792   2.450   4.803   4.249  1.6564 -0.2733 -1.0562
 1265SOL    HW3 4793   2.383   4.935   4.283  1.9494 -0.7929  1.8083
 1265SOL    MW4 4794   2.426   4.884   4.227  0.1963  0.9658  0.1644
 1266SOL     OW 4795   1.741   3.421   4.545 -0.3057 -0.3872 -0.9436
 1266SOL    HW2 4796   1.688   3.422   4.465 -1.6892 -1.2507 -0.0587
 1266SOL    HW3 4797   1.716   3.501   4.591  0.3421  0.0061 -1.2616
 1266SOL    MW4 4798   1.731   3.432   4.540 -0.5268 -0.3605 -0.1609
 1267SOL     OW 4799   2.929   3.787   6.024  0.0629 -0.2206  0.1807
 1267SOL    HW2 4800   2.946   3.697   6.051 -0.1555 -0.7059 -1.2214
 1267SOL    HW3 4801   2.886   3.779   5.939  0.4518  1.2145 -0.1805
 1267SOL    MW4 4802   2.926   3.774   6.017 -0.4667 -0.4985 -0.2630
 1268SOL     OW 4803   1.669   0.049   4.296  0.0813 -0.0751  0.0403
 1268SOL    HW2 4804   1.700   0.043   4.205  0.5254 -1.5260  0.2495
 1268SOL    HW3 4805   1.620   0.131   4.300  0.8213  0.4669 -1.2736
 1268SOL    MW4 4806   1.667   0.059   4.285 -0.0255 -0.2057  0.0847
 1269SOL     OW 4807   2.546   6.056   3.917  0.0603  0.1892 -0.3006
 1269SOL    HW2 4808   2.520   5.986   3.977 -0.6392 -0.5697 -1.4471
 1269SOL    HW3 4809   2.631   6.028   3.883  1.7735  1.8785  2.2095
 1269SOL    MW4 4810   2.554   6.043   3.921 -0.3702 -0.2186  0.0723
 1270SOL     OW 4811   0.270   1.592   3.326 -0.2614 -0.0395  0.1443
 1270SOL    HW2 4812   0.341   1.570   3.267  0.4128  0.9275  0.5684
 1270SOL    HW3 4813   0.190   1.577   3.274  0.2614 -0.6180 -0.5085
 1270SOL    MW4 4814   0.269   1.587   3.311  0.3109 -0.3334 -0.0541
 1271SOL     OW 4815   2.208   3.252   4.098 -0.1279  0.3779 -0.1980
 1271SOL    HW2 4816   2.211   3.335   4.050 -1.1736  0.0972 -0.7899
 1271SOL    HW3 4817   2.118   3.247   4.130  0.1228 -0.2073  0.4200
 1271SOL    MW4 4818   2.196   3.263   4.096 -0.3542 -0.2275 -0.7290
 1272SOL     OW 4819   2.581   0.227   4.693  0.2934 -0.4141  0.4694
 1272SOL    HW2 4820   2.579   0.287   4.768  0.9593 -0.7869  0.7926
 1272SOL    HW3 4821   2.491   0.227   4.659  0.5447  1.7855 -0.3478
 1272SOL    MW4 4822   2.569   0.235   4.698 -0.6346  0.1633 -0.2722
 1273SOL     OW 4823   6.164   3.850   1.543  0.0915 -0.4318 -0.5260
 1273SOL    HW2 4824   6.220   3.926   1.531  0.6235 -0.7754 -0.2946
 1273SOL    HW3 4825   6.080   3.885   1.572  0.6304  0.0163  0.5571
 1273SOL    MW4 4826   6.160   3.864   1.545 -0.2533  1.0197  0.5052
 1274SOL     OW 4827   5.986   2.198   2.383 -0.3084 -0.3838  0.0866
 1274SOL    HW2 4828   5.955   2.288   2.389 -1.9607 -0.7540 -1.7955
 1274SOL    HW3 4829   5.911   2.145   2.412  0.4629 -1.1899  0.6721
 1274SOL    MW4 4830   5.972   2.203   2.388 -0.1379 -0.0043  0.7315
 1275SOL     OW 4831   1.568   3.940   1.670 -0.7519  0.8246  0.2221
 1275SOL    HW2 4832   1.519   4.009   1.714  0.1086  0.6418  1.5365
 1275SOL    HW3 4833   1.527   3.858   1.699 -0.4425  0.7172  0.3667
 1275SOL    MW4 4834   1.556   3.938   1.679 -0.0159 -0.5149 -0.2426
 1276SOL     OW 4835   1.924   1.823   5.686 -0.0615 -0.2374 -0.2407
 1276SOL    HW2 4836   2.002   1.790   5.732 -0.6774 -0.6614  0.5203
 1276SOL    HW3 4837   1.855   1.822   5.752 -0.5817  0.7060 -0.7453
 1276SOL    MW4 4838   1.925   1.819   5.701 -0.5641 -0.0589  0.2727
 1277SOL     OW 4839   1.070   1.561   3.739  0.3479  0.3053 -0.2801
 1277SOL    HW2 4840   1.057   1.646   3.697  1.4694  0.7989  0.3292
 1277SOL    HW3 4841   1.013   1.502   3.691 -0.8282  1.4948 -0.3964
 1277SOL    MW4 4842   1.061   1.565   3.727  0.3665  0.4352 -0.0720
 1278SOL     OW 4843   4.417   1.356   1.854 -0.6876  0.0342 -0.5387
 1278SOL    HW2 4844   4.491   1.379   1.797 -1.2117 -0.1071 -1.2870
 1278SOL    HW3 4845   4.442   1.271   1.890 -0.1482  0.3295 -0.1943
 1278SOL    MW4 4846   4.430   1.348   1.851  0.1229 -0.3023  0.1909
 1279SOL     OW 4847   0.795   2.681   5.050  0.1603 -0.6470 -0.3186
 1279SOL    HW2 4848   0.804   2.715   4.961 -0.8351  0.0162 -0.1846
 1279SOL    HW3 4849   0.818   2.588   5.043 -0.0512 -0.6392 -1.2903
 1279SOL    MW4 4850   0.800   2.673   5.037 -0.3938  0.0547 -0.0527
 1280SOL     OW 4851   6.165   0.264   5.346  0.7437 -0.0770 -0.5226
 1280SOL    HW2 4852   6.117   0.209   5.284  1.1673 -1.4338  0.3114
 1280SOL    HW3 4853   6.138   0.354   5.324 -1.3395 -0.7048 -0.7906
 1280SOL    MW4 4854   6.155   0.269   5.335 -0.1530  0.1126 -0.5156
 1281SOL     OW 4855   1.664   6.020   3.256  0.3106 -0.0863  0.1694
 1281SOL    HW2 4856   1.719   6.098   3.264  2.1238 -1.2612 -0.1630
 1281SOL    HW3 4857   1.688   5.982   3.172 -2.7771  0.5619 -1.1518
 1281SOL    MW4 4858   1.675   6.026   3.246  0.6183 -0.4923  0.4184
 1282SOL     OW 4859   5.671   1.154   5.165  0.1665  0.2873 -0.5831
 1282SOL    HW2 4860   5.593   1.198   5.199  0.5936  0.7614 -0.1858
 1282SOL    HW3 4861   5.652   1.138   5.073 -1.0421 -1.0516 -0.1553
 1282SOL    MW4 4862   5.658   1.158   5.157  0.3119  0.8022 -0.2270
 1283SOL     OW 4863   0.959   0.498   4.711 -0.1136  0.1503 -0.1923
 1283SOL    HW2 4864   1.022   0.561   4.747 -0.1826 -0.4970  1.1444
 1283SOL    HW3 4865   1.014   0.437   4.661  0.5014 -0.8288  1.5503
 1283SOL    MW4 4866   0.975   0.498   4.709 -0.0068 -0.0303 -0.3157
 1284SOL     OW 4867   4.803   3.689   2.896  0.2633  0.4645  0.1790
 1284SOL    HW2 4868   4.790   3.766   2.841 -0.4588 -0.2872 -0.7497
 1284SOL    HW3 4869   4.875   3.712   2.955  0.7017  1.4853 -0.7367
 1284SOL    MW4 4870   4.811   3.702   2.897  0.2682  0.4261 -0.6368
 1285SOL     OW 4871   1.609   1.226   0.928 -0.1976  0.0970  0.2650
 1285SOL    HW2 4872   1.535   1.188   0.976 -0.8942  0.5839 -0.3947
 1285SOL    HW3 4873   1.591   1.204   0.837  0.8962 -0.4623  0.1743
 1285SOL    MW4 4874   1.597   1.218   0.922  0.1332 -0.3851 -0.5313
 1286SOL     OW 4875   1.845   2.630   0.334 -0.6827 -0.3467 -0.0380
 1286SOL    HW2 4876   1.777   2.620   0.267 -0.0361 -2.2379 -0.4758
 1286SOL    HW3 4877   1.844   2.547   0.382  0.2462  0.2031  0.9894
 1286SOL    MW4 4878   1.836   2.618   0.332 -0.3380 -0.0826  0.5659
 1287SOL     OW 4879   5.807   5.439   2.251 -0.0629  0.8833  0.2034
 1287SOL    HW2 4880   5.729   5.389   2.273  0.8449 -1.3531 -1.3708
 1287SOL    HW3 4881   5.782   5.492   2.175  0.1513 -0.5073 -0.8663
 1287SOL    MW4 4882   5.794   5.440   2.244 -0.3125 -0.1720  0.0517
 1288SOL     OW 4883   0.914   2.864   2.342  0.2609  0.0683  0.3295
 1288SOL    HW2 4884   0.887   2.860   2.434 -1.2729  1.2468 -0.0391
 1288SOL    HW3 4885   1.003   2.899   2.345  0.0719  0.4940  1.3519
 1288SOL    MW4 4886   0.922   2.868   2.354 -0.5302  0.0581  0.2177
 1289SOL     OW 4887   2.742   5.996   2.636  0.0307  0.5159 -0.0212
 1289SOL    HW2 4888   2.822   6.000   2.687  0.0456 -0.3893  0.0435
 1289SOL    HW3 4889   2.756   5.923   2.574 -0.6792  0.4357 -0.0981
 1289SOL    MW4 4890   2.754   5.987   2.634 -0.7983  0.1449 -0.4596
 1290SOL     OW 4891   6.161   2.161   2.137 -0.2395 -0.3124  0.2685
 1290SOL    HW2 4892   6.077   2.171   2.181  0.3311  0.5810  1.1911
 1290SOL    HW3 4893   6.208   2.242   2.155  0.2351 -0.1542 -1.5504
 1290SOL    MW4 4894   6.156   2.173   2.146  0.1521 -0.0502 -0.3033
 1291SOL     OW 4895   3.779   4.041   4.986 -0.2299 -0.6919 -0.3823
 1291SOL    HW2 4896   3.786   3.959   4.937 -0.7278 -0.5636 -0.6752
 1291SOL    HW3 4897   3.842   4.100   4.944  0.2872 -0.9876 -0.0316
 1291SOL    MW4 4898   3.788   4.038   4.974 -0.2368  0.1843 -0.5744
 1292SOL     OW 4899   2.721   0.366   1.049  0.3210 -0.5312  0.2549
 1292SOL    HW2 4900   2.742   0.428   1.119 -2.1861  0.3240  0.3353
 1292SOL    HW3 4901   2.802   0.359   0.998  1.7865 -0.0933  2.3828
 1292SOL    MW4 4902   2.735   0.373   1.051  0.6711  0.0261 -0.1987
 1293SOL     OW 4903   4.653   0.358   0.149  0.3625  0.0011 -0.3566
 1293SOL    HW2 4904   4.744   0.336   0.167  0.0128 -0.3116  1.1177
 1293SOL    HW3 4905   4.605   0.332   0.227 -1.3648 -1.9403 -1.9456
 1293SOL    MW4 4906   4.659   0.352   0.161  0.3641 -0.0690  0.1265
 1294SOL     OW 4907   5.236   0.286   1.311 -0.1014  0.0310  0.4961
 1294SOL    HW2 4908   5.199   0.320   1.392 -0.8124 -0.1384  0.2467
 1294SOL    HW3 4909   5.331   0.296   1.322 -0.2076  0.3026  1.2122
 1294SOL    MW4 4910   5.244   0.292   1.323  0.3118 -0.9804  0.1221
 1295SOL     OW 4911   5.875   1.817   3.180  0.2521  0.3844 -0.0574
 1295SOL    HW2 4912   5.837   1.793   3.096 -0.8881  0.6169  0.3704
 1295SOL    HW3 4913   5.968   1.827   3.163  0.3356 -1.5077 -0.8604
 1295SOL    MW4 4914   5.882   1.815   3.167 -0.0384  0.8314  0.0981
 1296SOL     OW 4915   1.502   1.304   5.691  0.4212  0.2456 -0.0961
 1296SOL    HW2 4916   1.518   1.260   5.774 -1.1324  0.6654  0.4545
 1296SOL    HW3 4917   1.497   1.397   5.713  1.8128  0.5504 -0.9579
 1296SOL    MW4 4918   1.503   1.310   5.705  0.1127  0.1794 -0.0477
 1297SOL     OW 4919   3.009   2.125   5.656 -0.0609  0.3515 -0.3843
 1297SOL    HW2 4920   3.001   2.142   5.750 -1.4091 -0.6487 -0.2749
 1297SOL    HW3 4921   2.982   2.206   5.614  0.1581  0.6738  0.0853
 1297SOL    MW4 4922   3.004   2.138   5.663 -0.9180 -0.2948  0.4730
 1298SOL     OW 4923   2.568   2.057   4.313  0.1583 -0.0266  0.1209
 1298SOL    HW2 4924   2.655   2.021   4.294  0.9203  0.8916  1.5970
 1298SOL    HW3 4925   2.576   2.150   4.291  0.3666  0.5854  2.4928
 1298SOL    MW4 4926   2.581   2.065   4.308 -0.1165 -0.7053 -0.6183
 1299SOL     OW 4927   2.192   3.068   3.397  0.2437  0.9725  0.4610
 1299SOL    HW2 4928   2.165   2.999   3.337  3.5710 -1.5059  1.5365
 1299SOL    HW3 4929   2.128   3.063   3.469  0.7897 -1.6009  0.8717
 1299SOL    MW4 4930   2.180   3.058   3.399  0.2185  0.3603  0.1046
 1300SOL     OW 4931   1.802   2.474   5.955 -0.2600 -0.5296  0.4270
 1300SOL    HW2 4932   1.860   2.446   6.026  0.0480 -1.1814 -0.0671
 1300SOL    HW3 4933   1.834   2.561   5.931 -1.0393  0.1579  1.7862
 1300SOL    MW4 4934   1.814   2.482   5.961  0.5922  0.0783  0.1220
 1301SOL     OW 4935   6.117   5.362   1.377  0.2209 -0.0273 -0.4834
 1301SOL    HW2 4936   6.038   5.307   1.373 -0.7975  0.4497  5.2318
 1301SOL    HW3 4937   6.190   5.301   1.366 -0.8683 -1.2255 -1.3245
 1301SOL    MW4 4938   6.116   5.347   1.375  0.4248  0.4234  0.1024
 1302SOL     OW 4939   5.766   4.117   0.744 -0.7056  0.0799  0.0527
 1302SOL    HW2 4940   5.748   4.024   0.732 -1.1086  0.3407 -1.6451
 1302SOL    HW3 4941   5.714   4.142   0.821 -0.2144 -1.1695  0.8197
 1302SOL    MW4 4942   5.757   4.108   0.753  0.2174  0.3231 -0.3940
 1303SOL     OW 4943   4.837   1.349   0.074 -0.8252 -0.1559  0.1469
 1303SOL    HW2 4944   4.922   1.363   0.116  0.0862 -0.3576 -1.5394
 1303SOL    HW3 4945   4.773   1.388   0.134  0.5793  1.2110  0.8197
 1303SOL    MW4 4946   4.840   1.356   0.087 -0.0677  0.0840 -0.1053
 1304SOL     OW 4947   1.382   1.249   2.104  0.1206  0.3709  0.4447
 1304SOL    HW2 4948   1.322   1.189   2.147  1.7710 -0.3962  1.8130
 1304SOL    HW3 4949   1.353   1.336   2.130  1.1440 -0.0601  3.3971
 1304SOL    MW4 4950   1.371   1.252   2.113 -0.2842  0.1330  0.1966
 1305SOL     OW 4951   2.613   4.267   3.709 -0.6157 -0.2564  0.0031
 1305SOL    HW2 4952   2.661   4.204   3.655 -1.5706 -0.3978 -0.7069
 1305SOL    HW3 4953   2.605   4.345   3.654 -0.1381  0.2121  0.5824
 1305SOL    MW4 4954   2.619   4.269   3.695  0.0679 -0.2519 -0.2987
 1306SOL     OW 4955   5.578   2.514   1.890 -0.6347 -0.1081  0.6944
 1306SOL    HW2 4956   5.561   2.573   1.964 -0.8937 -1.8619  2.1149
 1306SOL    HW3 4957   5.564   2.568   1.812 -3.4942  1.0129  1.8669
 1306SOL    MW4 4958   5.574   2.529   1.890  0.1920  0.6425  0.2744
 1307SOL     OW 4959   3.194   4.770   2.595  0.2696  0.2381  0.6099
 1307SOL    HW2 4960   3.184   4.831   2.521  1.1643  1.6684  1.6073
 1307SOL    HW3 4961   3.120   4.789   2.652  0.6689  0.5678  1.0288
 1307SOL    MW4 4962   3.183   4.781   2.593 -0.1253 -0.8673  0.9131
 1308SOL     OW 4963   0.812   3.034   1.737 -0.3796  0.5164  0.0111
 1308SOL    HW2 4964   0.886   3.054   1.794  0.1416  0.3408 -0.5939
 1308SOL    HW3 4965   0.851   3.014   1.652 -1.0996  0.1362 -0.2463
 1308SOL    MW4 4966   0.827   3.034   1.734  0.1957  0.8874  0.7754
 1309SOL     OW 4967   5.708   5.646   0.118 -0.0135 -0.8556  0.2735
 1309SOL    HW2 4968   5.707   5.737   0.148 -0.5263 -1.4179  2.0892
 1309SOL    HW3 4969   5.679   5.596   0.194 -0.8487 -2.4438 -1.0370
 1309SOL    MW4 4970   5.704   5.652   0.132 -0.0761  1.1128 -0.2699
 1310SOL     OW 4971   3.129   6.392   0.344  0.1007 -0.3476 -0.0700
 1310SOL    HW2 4972   3.081   6.388   0.261 -0.0117  1.3642 -0.1239
 1310SOL    HW3 4973   3.104   6.476   0.382  1.8502 -0.1102  0.6471
 1310SOL    MW4 4974   3.119   6.402   0.338  0.1228 -0.1760  0.6320
 1311SOL     OW 4975   5.761   4.929   1.992 -0.7761 -0.8834  0.3449
 1311SOL    HW2 4976   5.709   4.866   2.040 -1.2839 -0.7686 -0.0452
 1311SOL    HW3 4977   5.775   4.888   1.906 -2.7683  0.3249 -0.6215
 1311SOL    MW4 4978   5.756   4.916   1.987 -0.5541 -0.7809 -0.0482
 1312SOL     OW 4979   2.693   5.772   5.752 -0.0453  0.2990  0.2514
 1312SOL    HW2 4980   2.755   5.700   5.738 -1.6790 -1.4202  1.3488
 1312SOL    HW3 4981   2.683   5.778   5.847 -1.4839  0.5671  0.1119
 1312SOL    MW4 4982   2.700   5.763   5.763 -0.3651  0.3350  0.1823
 1313SOL     OW 4983   0.633   3.125   5.816 -0.4308  0.2198 -0.2725
 1313SOL    HW2 4984   0.549   3.152   5.781  0.3224  0.4847 -1.9957
 1313SOL    HW3 4985   0.680   3.089   5.741  0.5502 -1.0685  0.8924
 1313SOL    MW4 4986   0.628   3.124   5.802 -0.2434 -0.3197  0.1824
 1314SOL     OW 4987   2.111   1.348   0.161 -0.5835 -0.0789  0.2141
 1314SOL    HW2 4988   2.107   1.440   0.136 -1.1820 -0.4716 -1.1886
 1314SOL    HW3 4989   2.188   1.314   0.116  0.4460  0.0128  1.8063
 1314SOL    MW4 4990   2.121   1.356   0.152  0.5052  0.0347  0.3568
 1315SOL     OW 4991   0.048   4.148   6.130 -0.1919  0.0552  0.5077
 1315SOL    HW2 4992   0.112   4.076   6.129 -0.1861  0.0249 -1.7238
 1315SOL    HW3 4993   0.098   4.224   6.100 -0.3885  0.8518  2.1309
 1315SOL    MW4 4994   0.063   4.149   6.126 -0.1067  0.8228  0.1188
 1316SOL     OW 4995   4.466   5.448   0.560 -0.9094 -0.5999 -0.9445
 1316SOL    HW2 4996   4.452   5.433   0.654  0.1469  0.0195 -0.6663
 1316SOL    HW3 4997   4.536   5.388   0.536 -2.3430 -2.0349 -1.7813
 1316SOL    MW4 4998   4.473   5.438   0.569  0.3984  0.1717 -0.3824
 1317SOL     OW 4999   0.590   3.252   1.583  0.2939 -0.1864 -0.2966
 1317SOL    HW2 5000   0.654   3.272   1.514 -0.4959 -1.6401 -1.5173
 1317SOL    HW3 5001   0.638   3.262   1.665  1.9997 -0.8810 -1.1701
 1317SOL    MW4 5002   0.605   3.256   1.585  0.1443 -0.3880 -0.6727
 1318SOL     OW 5003   2.451   0.747   4.894 -0.0474 -0.5962  0.2025
 1318SOL    HW2 5004   2.395   0.701   4.957 -0.5360 -0.5710 -0.2095
 1318SOL    HW3 5005   2.433   0.703   4.811 -1.1549  0.8574 -0.3641
 1318SOL    MW4 5006   2.441   0.735   4.892  0.5629  0.7587 -0.3178
 1319SOL     OW 5007   0.482   0.167   0.224 -0.0671 -0.0746  0.2339
 1319SOL    HW2 5008   0.547   0.201   0.286 -0.9231  1.2868  0.4205
 1319SOL    HW3 5009   0.403   0.216   0.244 -0.7409 -0.6179 -1.0248
 1319SOL    MW4 5010   0.480   0.178   0.235 -0.4330  0.0176  0.4060
 1320SOL     OW 5011   5.190   2.115   0.898  0.5065  0.4896 -0.1217
 1320SOL    HW2 5012   5.234   2.038   0.861 -0.7178 -0.1982 -0.1781
 1320SOL    HW3 5013   5.136   2.149   0.827 -0.1159  0.5051  0.3561
 1320SOL    MW4 5014   5.189   2.110   0.884  0.2874  0.1606  0.5242
 1321SOL     OW 5015   0.669   0.633   5.296  0.1181 -0.2475 -0.2423
 1321SOL    HW2 5016   0.748   0.587   5.266  0.4365 -0.1515  0.4419
 1321SOL    HW3 5017   0.678   0.637   5.391 -0.3949  0.3447 -0.2146
 1321SOL    MW4 5018   0.681   0.627   5.304  0.4555  0.4220 -0.2633
 1322SOL     OW 5019   2.350   5.146   3.587  0.0941 -0.1323  0.3018
 1322SOL    HW2 5020   2.262   5.156   3.550 -0.0216 -0.1514  0.5693
 1322SOL    HW3 5021   2.335   5.130   3.680  0.4428  1.8191  0.7365
 1322SOL    MW4 5022   2.336   5.145   3.594 -0.3435  0.5289  0.9448
 1323SOL     OW 5023   4.388   5.149   3.972 -0.4326  0.2082  0.0137
 1323SOL    HW2 5024   4.362   5.174   4.060  1.1130  2.4081 -0.0683
 1323SOL    HW3 5025   4.319   5.185   3.915 -1.0634 -0.6026  0.2453
 1323SOL    MW4 5026   4.376   5.157   3.976  0.0999 -0.0342  0.0699
 1324SOL     OW 5027   0.407   3.163   5.025  0.9891 -0.6230 -0.3124
 1324SOL    HW2 5028   0.399   3.242   4.972 -0.8409 -0.8560 -0.4579
 1324SOL    HW3 5029   0.448   3.192   5.106  1.7439  0.1661 -0.9611
 1324SOL    MW4 5030   0.411   3.177   5.029 -0.1066 -0.1722 -0.2074
 1325SOL     OW 5031   6.143   3.271   3.441  0.2678  0.2905  0.1746
 1325SOL    HW2 5032   6.165   3.346   3.386  0.7063  0.3138  0.3761
 1325SOL    HW3 5033   6.206   3.203   3.415 -0.0817  0.0131  0.0413
 1325SOL    MW4 5034   6.154   3.272   3.430 -0.8279 -0.0897 -0.2861
 1326SOL     OW 5035   5.144   6.014   0.248 -0.0348 -0.0148 -0.2900
 1326SOL    HW2 5036   5.114   5.985   0.334 -1.6958  1.7078 -0.2285
 1326SOL    HW3 5037   5.126   6.108   0.246  1.5631  0.3152 -1.8927
 1326SOL    MW4 5038   5.137   6.023   0.259  0.3572 -0.3934  0.1449
 1327SOL     OW 5039   5.745   0.819   0.144 -0.5825  0.4887  0.3834
 1327SOL    HW2 5040   5.747   0.857   0.056  1.3063  0.8807  0.5517
 1327SOL    HW3 5041   5.695   0.882   0.196  0.0905  1.3301  0.0389
 1327SOL    MW4 5042   5.738   0.833   0.139  0.6188 -0.0202 -0.0710
 1328SOL     OW 5043   5.453   3.750   1.896 -0.5063  0.0442  0.3995
 1328SOL    HW2 5044   5.531   3.755   1.840 -1.5460 -0.0056 -1.1146
 1328SOL    HW3 5045   5.481   3.699   1.972  0.5628 -1.2353 -0.7990
 1328SOL    MW4 5046   5.467   3.744   1.898  0.4432 -0.1394 -0.5765
 1329SOL     OW 5047   0.471   6.048   1.834  0.0743 -0.1452 -0.0131
 1329SOL    HW2 5048   0.401   5.990   1.860 -0.0195 -0.0600 -0.0760
 1329SOL    HW3 5049   0.551   6.000   1.855  0.0119  0.2032  1.1049
 1329SOL    MW4 5050   0.473   6.034   1.840 -0.0696  0.1206 -0.3768
 1330SOL     OW 5051   3.111   0.429   4.328  0.0489 -0.3676 -0.5978
 1330SOL    HW2 5052   3.124   0.336   4.307 -1.1944 -0.1854 -2.3968
 1330SOL    HW3 5053   3.112   0.473   4.243 -1.5559  0.9586  0.0059
 1330SOL    MW4 5054   3.113   0.422   4.314  0.4405 -0.4752  0.0552
 1331SOL     OW 5055   0.606   6.399   6.203  0.2207 -0.8893  0.6887
 1331SOL    HW2 5056   0.656   6.394   6.284 -0.0157  0.6351  0.9529
 1331SOL    HW3 5057   0.525   6.444   6.227  0.1911 -0.3276 -0.4082
 1331SOL    MW4 5058   0.602   6.404   6.216 -0.2785 -0.4289  0.1506
 1332SOL     OW 5059   3.287   1.536   3.258  0.1074 -0.9051  0.7991
 1332SOL    HW2 5060   3.374   1.496   3.252 -0.3047 -1.7858  0.6098
 1332SOL    HW3 5061   3.240   1.484   3.323 -0.7854 -1.4307 -0.2236
 1332SOL    MW4 5062   3.292   1.524   3.266  0.1042  0.1916 -0.2677
 1333SOL     OW 5063   2.067   0.119   2.710  0.6087 -0.9479  0.1221
 1333SOL    HW2 5064   2.101   0.196   2.756  0.1195 -0.2710 -0.6290
 1333SOL    HW3 5065   2.013   0.074   2.774  0.2606 -0.2314  0.3433
 1333SOL    MW4 5066   2.065   0.123   2.724  0.7114 -0.4120 -0.5467
 1334SOL     OW 5067   0.796   0.639   2.564  0.6011 -0.1562 -0.5722
 1334SOL    HW2 5068   0.873   0.620   2.618  1.2326  0.6816 -1.1594
 1334SOL    HW3 5069   0.831   0.685   2.488 -0.2775 -1.3066 -1.7090
 1334SOL    MW4 5070   0.811   0.643   2.561 -0.8410  0.0429 -0.8395
 1335SOL     OW 5071   1.616   3.163   0.483 -0.2430  0.0926  0.2927
 1335SOL    HW2 5072   1.539   3.127   0.440 -0.1657  0.4061 -0.1139
 1335SOL    HW3 5073   1.646   3.093   0.540 -0.6813 -0.1218  0.2660
 1335SOL    MW4 5074   1.610   3.149   0.485 -0.2623  0.5784  0.2612
 1336SOL     OW 5075   3.879   3.577   1.516 -0.0023 -0.5150 -0.1957
 1336SOL    HW2 5076   3.828   3.498   1.498  0.2708 -0.8128  0.3178
 1336SOL    HW3 5077   3.920   3.560   1.601 -0.0273  0.2234 -0.0298
 1336SOL    MW4 5078   3.877   3.564   1.525 -0.0149 -0.0922  0.5491
 1337SOL     OW 5079   0.561   5.585   3.949  0.0108 -0.0723 -0.0529
 1337SOL    HW2 5080   0.623   5.642   3.906 -0.9789 -0.3377 -1.9159
 1337SOL    HW3 5081   0.526   5.637   4.022  0.8280  0.8247 -0.2936
 1337SOL    MW4 5082   0.564   5.599   3.953 -0.3060 -0.1363 -0.0007
 1338SOL     OW 5083   4.625   0.701   3.078 -0.4037 -0.2330 -0.5077
 1338SOL    HW2 5084   4.582   0.652   3.008 -0.8534 -2.0115  0.9150
 1338SOL    HW3 5085   4.587   0.666   3.159 -0.7617  2.5416  0.6419
 1338SOL    MW4 5086   4.614   0.690   3.080  0.3218 -0.1439  0.0972
 1339SOL     OW 5087   4.321   1.728   5.824 -0.3199 -0.0802  0.4795
 1339SOL    HW2 5088   4.282   1.773   5.899 -1.2410 -1.6997  1.0273
 1339SOL    HW3 5089   4.247   1.708   5.767 -0.1164 -1.7090  0.7237
 1339SOL    MW4 5090   4.306   1.731   5.826  0.1479 -0.0703 -0.4286
 1340SOL     OW 5091   5.396   0.130   3.830  0.1587  0.5857  0.3476
 1340SOL    HW2 5092   5.403   0.225   3.822  1.3639  0.6485  1.7453
 1340SOL    HW3 5093   5.487   0.099   3.838 -0.2663 -0.5535  1.0938
 1340SOL    MW4 5094   5.409   0.138   3.830 -0.0527  0.0756 -0.0297
 1341SOL     OW 5095   0.396   1.722   2.025 -0.6267 -0.5184  0.0615
 1341SOL    HW2 5096   0.382   1.780   2.100  0.2471 -0.1168 -0.0695
 1341SOL    HW3 5097   0.362   1.770   1.950 -0.4698 -0.4309  0.0446
 1341SOL    MW4 5098   0.390   1.736   2.025 -0.0090  0.2162 -0.0846
 1342SOL     OW 5099   3.810   4.176   5.611 -0.7678  0.0950 -0.5134
 1342SOL    HW2 5100   3.858   4.249   5.572 -1.5126 -0.3029 -2.2806
 1342SOL    HW3 5101   3.878   4.118   5.644 -0.0996  0.5748 -1.0190
 1342SOL    MW4 5102   3.825   4.178   5.610 -0.1486 -0.7858  0.3395
 1343SOL     OW 5103   1.334   3.852   3.260 -0.8166  0.2751 -0.0803
 1343SOL    HW2 5104   1.404   3.915   3.275 -0.6759  0.8819 -2.7304
 1343SOL    HW3 5105   1.380   3.771   3.236 -0.8984  1.0396 -3.1680
 1343SOL    MW4 5106   1.350   3.849   3.259 -0.0262  0.2897 -0.2329
 1344SOL     OW 5107   1.125   5.774   2.723 -0.2638 -0.8260 -0.3413
 1344SOL    HW2 5108   1.170   5.836   2.666  0.3532 -2.0112 -1.1818
 1344SOL    HW3 5109   1.167   5.690   2.706  0.6191 -1.0818  2.5820
 1344SOL    MW4 5110   1.136   5.771   2.713 -0.2305  0.3288  0.4282
 1345SOL     OW 5111   2.041   3.538   5.555  0.2982  0.2495  0.3364
 1345SOL    HW2 5112   2.003   3.458   5.518 -0.2291  0.6373  0.0224
 1345SOL    HW3 5113   1.989   3.554   5.634 -2.0069  2.1784 -1.3889
 1345SOL    MW4 5114   2.029   3.530   5.561 -0.1491  0.5394  0.4092
 1346SOL     OW 5115   2.541   4.356   0.243  0.0439 -0.0834 -0.1433
 1346SOL    HW2 5116   2.582   4.438   0.215 -2.0230  0.7967 -0.7496
 1346SOL    HW3 5117   2.448   4.367   0.223 -0.5445 -1.9498  1.2614
 1346SOL    MW4 5118   2.534   4.369   0.237  0.0103  0.0808  0.1388
 1347SOL     OW 5119   0.646   6.335   4.131  0.1372  0.1133  0.5297
 1347SOL    HW2 5120   0.654   6.390   4.053  0.7591  0.1660  0.6197
 1347SOL    HW3 5121   0.716   6.270   4.122  0.0860 -0.0060  0.9441
 1347SOL    MW4 5122   0.656   6.334   4.120  0.7567  0.5551  0.3413
 1348SOL     OW 5123   4.434   2.779   4.223 -0.2435 -0.6342 -1.0507
 1348SOL    HW2 5124   4.506   2.718   4.242  0.1424  0.1871  0.2294
 1348SOL    HW3 5125   4.434   2.840   4.296 -1.6272 -0.0150 -1.5330
 1348SOL    MW4 5126   4.444   2.779   4.235  0.6139 -0.0238  0.6005
 1349SOL     OW 5127   5.632   5.386   5.634  0.0556  0.1220 -0.1928
 1349SOL    HW2 5128   5.667   5.475   5.642 -1.4931  0.6314  1.5490
 1349SOL    HW3 5129   5.607   5.377   5.542  0.4482  1.3952 -0.4347
 1349SOL    MW4 5130   5.634   5.396   5.623  0.2216 -0.0555  0.2935
 1350SOL     OW 5131   0.270   4.430   4.451 -0.6596 -0.2687 -0.2337
 1350SOL    HW2 5132   0.364   4.447   4.457 -0.5762 -0.7457 -0.1662
 1350SOL    HW3 5133   0.255   4.409   4.359 -0.8824  0.8491 -0.4629
 1350SOL    MW4 5134   0.281   4.430   4.440  0.2408 -0.3084  0.0341
 1351SOL     OW 5135   5.641   6.261   1.318 -0.5277 -0.3118 -0.0578
 1351SOL    HW2 5136   5.586   6.267   1.396  0.4492  3.5425  0.5098
 1351SOL    HW3 5137   5.731   6.269   1.351 -0.1406  2.7787 -1.4980
 1351SOL    MW4 5138   5.646   6.263   1.333  0.2350  0.2749  0.0785
 1352SOL     OW 5139   3.582   1.349   3.855  0.3987 -0.2121 -0.5101
 1352SOL    HW2 5140   3.660   1.316   3.900 -0.5786 -0.6993  0.8779
 1352SOL    HW3 5141   3.566   1.286   3.785  0.8987 -0.4303 -0.4323
 1352SOL    MW4 5142   3.590   1.336   3.852 -0.1686  0.5599 -0.4794
 1353SOL     OW 5143   5.344   3.542   6.064 -0.2538 -0.3638 -0.4022
 1353SOL    HW2 5144   5.377   3.532   6.153  0.4323  1.7630 -0.3472
 1353SOL    HW3 5145   5.297   3.625   6.065 -2.4435 -1.5097 -1.4344
 1353SOL    MW4 5146   5.342   3.552   6.076 -0.0649 -0.5224  0.1498
 1354SOL     OW 5147   4.180   0.199   3.984  0.0759 -0.0308  0.4383
 1354SOL    HW2 5148   4.088   0.221   3.968  0.4991  0.9461 -0.8628
 1354SOL    HW3 5149   4.209   0.160   3.901  1.1873  0.9280  0.3557
 1354SOL    MW4 5150   4.172   0.196   3.971  0.4919 -0.1695 -0.1291
 1355SOL     OW 5151   5.108   4.524   6.005 -0.4327 -0.2250  0.0072
 1355SOL    HW2 5152   5.200   4.499   6.012 -0.1834  0.8611  1.0657
 1355SOL    HW3 5153   5.101   4.567   5.920 -0.2892 -1.5122 -0.6746
 1355SOL    MW4 5154   5.119   4.527   5.995  0.5787  0.6725  0.3584
 1356SOL     OW 5155   2.980   0.370   2.212 -0.1003 -0.5034  0.2154
 1356SOL    HW2 5156   3.042   0.421   2.161 -0.3730 -1.1587 -0.8066
 1356SOL    HW3 5157   2.898   0.373   2.161 -0.8098  0.0309  1.3433
 1356SOL    MW4 5158   2.977   0.377   2.199  0.4797  0.1124  0.3533
 1357SOL     OW 5159   0.325   0.343   4.418  0.1360 -0.1111  0.0556
 1357SOL    HW2 5160   0.320   0.259   4.371 -0.2657  0.7219 -1.4712
 1357SOL    HW3 5161   0.237   0.380   4.409  0.2142  0.3215  1.0226
 1357SOL    MW4 5162   0.312   0.337   4.410 -0.3277  0.0763  0.4213
 1358SOL     OW 5163   0.064   3.835   5.386 -0.9903 -0.0012  0.2356
 1358SOL    HW2 5164  -0.014   3.875   5.424 -2.4492  0.2061 -2.6645
 1358SOL    HW3 5165   0.047   3.741   5.392 -1.0319  0.0164  0.4163
 1358SOL    MW4 5166   0.051   3.828   5.392  0.1134  0.5468 -0.2630
 1359SOL     OW 5167   4.272   5.756   2.487  0.0371  0.1581  0.2068
 1359SOL    HW2 5168   4.331   5.825   2.518 -0.5004  0.8321 -0.2454
 1359SOL    HW3 5169   4.189   5.801   2.471 -0.0002 -0.3774 -1.1809
 1359SOL    MW4 5170   4.269   5.771   2.489 -0.4415  0.4802 -0.7675
 1360SOL     OW 5171   4.196   3.171   2.936 -0.0015  0.0239  0.1954
 1360SOL    HW2 5172   4.283   3.209   2.923 -0.5454  1.1277 -0.2931
 1360SOL    HW3 5173   4.156   3.172   2.849 -0.6518 -0.1079  0.4898
 1360SOL    MW4 5174   4.202   3.176   2.923  0.3875  0.2915  0.4537
 1361SOL     OW 5175   6.086   1.409   5.060  0.5078  0.5635  0.2466
 1361SOL    HW2 5176   6.065   1.360   4.980 -1.2926  1.3190  0.1994
 1361SOL    HW3 5177   6.016   1.386   5.121 -0.2252  2.7783  0.3354
 1361SOL    MW4 5178   6.074   1.400   5.057  0.2507  0.2075  0.0368
 1362SOL     OW 5179   4.380   5.547   2.657 -0.3815  0.3845 -0.6556
 1362SOL    HW2 5180   4.344   5.613   2.598 -1.3836  1.1184  0.7225
 1362SOL    HW3 5181   4.363   5.581   2.745  0.8425 -0.7852  0.0791
 1362SOL    MW4 5182   4.373   5.560   2.661 -0.5740 -0.0431 -0.0071
 1363SOL     OW 5183   5.299   5.138   0.512 -0.1316 -0.1018  0.2033
 1363SOL    HW2 5184   5.259   5.163   0.595 -1.4739 -1.4653  0.0104
 1363SOL    HW3 5185   5.342   5.054   0.530  0.2730 -0.0044 -0.2761
 1363SOL    MW4 5186   5.299   5.130   0.525  0.0491  0.0573  0.3446
 1364SOL     OW 5187   0.459   5.726   0.779 -0.0684  0.1998  0.3433
 1364SOL    HW2 5188   0.493   5.705   0.866 -0.4324  0.1872  0.4847
 1364SOL    HW3 5189   0.511   5.801   0.750  0.5072 -0.2191  0.2889
 1364SOL    MW4 5190   0.470   5.733   0.787  0.3316 -0.8441  0.7122
 1365SOL     OW 5191   0.375   5.983   5.747  0.0832  0.1303  0.0753
 1365SOL    HW2 5192   0.304   5.925   5.719  0.6876  0.4592 -2.4043
 1365SOL    HW3 5193   0.455   5.933   5.729  0.5729  1.3134 -1.1852
 1365SOL    MW4 5194   0.376   5.969   5.741 -0.0167 -0.3941  0.5465
 1366SOL     OW 5195   0.011   5.235   1.111  0.1587  0.0610 -0.2447
 1366SOL    HW2 5196  -0.043   5.269   1.039 -0.1585 -1.9337 -1.0500
 1366SOL    HW3 5197   0.097   5.220   1.071 -0.1777 -1.6015 -0.4269
 1366SOL    MW4 5198   0.015   5.237   1.096 -0.4008  0.2017  0.3086
 1367SOL     OW 5199   5.420   1.310   3.262 -0.0657 -0.4213  0.0916
 1367SOL    HW2 5200   5.502   1.293   3.309  0.5720 -0.1163 -0.8822
 1367SOL    HW3 5201   5.419   1.244   3.192  0.0042  0.4055 -0.7012
 1367SOL    MW4 5202   5.431   1.299   3.259  0.3437  0.3710 -0.1107
 1368SOL     OW 5203   3.455   3.184   3.679 -0.3490 -0.2067  0.3018
 1368SOL    HW2 5204   3.475   3.256   3.619 -0.8343 -0.4396 -0.1434
 1368SOL    HW3 5205   3.490   3.106   3.635 -2.5480 -0.6969 -0.7089
 1368SOL    MW4 5206   3.462   3.183   3.665  0.6317 -0.3941  0.4212
 1369SOL     OW 5207   1.204   3.204   1.672 -0.1123 -0.1978 -0.6033
 1369SOL    HW2 5208   1.238   3.267   1.609  2.1886 -1.0467 -0.2949
 1369SOL    HW3 5209   1.244   3.228   1.755 -1.1501 -0.5867  0.0262
 1369SOL    MW4 5210   1.214   3.215   1.675  0.1964  0.7869 -0.2811
 1370SOL     OW 5211   0.962   5.128   2.556  0.1782 -0.1566  0.5084
 1370SOL    HW2 5212   1.037   5.162   2.605 -0.0831  0.9295  0.1920
 1370SOL    HW3 5213   0.889   5.134   2.617  0.0106  0.4615  0.2610
 1370SOL    MW4 5214   0.963   5.134   2.570 -0.0163  0.2066 -0.4272
 1371SOL     OW 5215   6.294   6.088   3.893  0.2174 -0.6324  0.0034
 1371SOL    HW2 5216   6.273   6.145   3.819  0.5889  0.5800  0.8009
 1371SOL    HW3 5217   6.320   6.005   3.853 -1.5854 -0.6912 -1.1497
 1371SOL    MW4 5218   6.295   6.084   3.878 -0.3553  0.1742  0.3830
 1372SOL     OW 5219   2.189   2.559   3.198  0.7697 -0.2289 -1.2993
 1372SOL    HW2 5220   2.247   2.595   3.132  3.1004 -0.1723  0.6222
 1372SOL    HW3 5221   2.202   2.615   3.275 -0.9534 -0.9433 -0.4292
 1372SOL    MW4 5222   2.198   2.571   3.200  0.1061  1.3733  0.2158
 1373SOL     OW 5223   3.791   0.268   2.406  0.4068 -0.1511 -0.7854
 1373SOL    HW2 5224   3.870   0.286   2.457  0.4694  0.1949 -0.9974
 1373SOL    HW3 5225   3.790   0.337   2.339 -0.1755 -0.0437 -0.6670
 1373SOL    MW4 5226   3.802   0.280   2.404  0.3795  0.0761 -0.1882
 1374SOL     OW 5227   2.258   1.265   5.937  0.1429  0.3022 -0.0793
 1374SOL    HW2 5228   2.324   1.238   5.999  0.5685  1.0174 -0.2029
 1374SOL    HW3 5229   2.176   1.230   5.971  0.3337  0.9055  1.0231
 1374SOL    MW4 5230   2.256   1.257   5.949  0.2462  0.2235 -0.0323
 1375SOL     OW 5231   3.952   1.692   2.639 -0.5933  0.1643 -0.0972
 1375SOL    HW2 5232   4.017   1.716   2.574 -0.3581 -0.9910 -0.3106
 1375SOL    HW3 5233   3.975   1.743   2.716  0.4528 -0.0835 -0.2328
 1375SOL    MW4 5234   3.963   1.702   2.641  0.1200 -0.3561  0.6114
 1376SOL     OW 5235   2.310   2.829   3.669 -0.5951 -0.5941 -0.2647
 1376SOL    HW2 5236   2.356   2.913   3.679 -0.7561 -0.5342 -0.0146
 1376SOL    HW3 5237   2.219   2.853   3.655 -0.5972 -0.7210 -0.4659
 1376SOL    MW4 5238   2.304   2.844   3.669  0.3003  0.2242  0.1288
 1377SOL     OW 5239   0.702   0.226   2.391 -0.1494 -0.1699  0.0189
 1377SOL    HW2 5240   0.640   0.163   2.355  0.2183  0.8833 -2.6453
 1377SOL    HW3 5241   0.647   0.298   2.423 -0.3951  0.1625 -1.1134
 1377SOL    MW4 5242   0.686   0.227   2.391 -0.1099 -0.5952  0.0737
 1378SOL     OW 5243   1.780   4.555   0.971 -0.2543  0.3889  0.1594
 1378SOL    HW2 5244   1.761   4.571   1.063 -1.5903 -0.5198  0.0780
 1378SOL    HW3 5245   1.874   4.536   0.968 -0.5137 -1.4629  1.6460
 1378SOL    MW4 5246   1.790   4.555   0.983 -0.1257  0.4475 -0.0973
 1379SOL     OW 5247   2.689   0.783   6.173 -0.2482  0.1533  0.0888
 1379SOL    HW2 5248   2.768   0.757   6.125 -0.0200 -0.0915  0.5873
 1379SOL    HW3 5249   2.708   0.760   6.264 -0.9521 -0.0384  0.1914
 1379SOL    MW4 5250   2.702   0.776   6.179 -0.0245 -0.2833 -0.3668
 1380SOL     OW 5251   5.213  -0.001   0.467  0.0117  0.4415  0.9117
 1380SOL    HW2 5252   5.284  -0.061   0.493 -2.2693 -2.5717  0.7166
 1380SOL    HW3 5253   5.225   0.009   0.373  0.3416  0.1415  0.9157
 1380SOL    MW4 5254   5.224  -0.008   0.458  0.6652  0.1842 -1.1917
 1381SOL     OW 5255   0.040   1.907   1.008 -0.2609 -1.0173  0.1735
 1381SOL    HW2 5256  -0.029   1.842   1.022 -1.5551  0.1508 -0.5186
 1381SOL    HW3 5257   0.087   1.910   1.091 -1.0000 -1.8971  0.6490
 1381SOL    MW4 5258   0.037   1.899   1.021  0.5185 -0.2363  0.4517
 1382SOL     OW 5259   0.814   4.349   5.763  0.1656  0.4730  0.3012
 1382SOL    HW2 5260   0.743   4.327   5.823 -1.7170  1.0532 -1.6148
 1382SOL    HW3 5261   0.877   4.277   5.772 -0.6319 -0.0559  2.0284
 1382SOL    MW4 5262   0.813   4.337   5.772  0.5704 -0.0994  0.0077
 1383SOL     OW 5263   4.906   4.707   1.412  0.2428  0.7266 -0.0056
 1383SOL    HW2 5264   4.916   4.714   1.317  2.7799  0.3465  0.1522
 1383SOL    HW3 5265   4.869   4.620   1.426 -0.2663  0.8367 -0.6477
 1383SOL    MW4 5266   4.903   4.697   1.401  1.1177 -0.3732  0.0632
 1384SOL     OW 5267   1.552   5.330   0.069  0.4082 -1.0487  0.0054
 1384SOL    HW2 5268   1.498   5.262   0.027  0.1219  0.6760 -2.7029
 1384SOL    HW3 5269   1.488   5.387   0.113  0.1971 -0.4438 -1.0278
 1384SOL    MW4 5270   1.536   5.329   0.069 -0.3365  0.2107  1.0845
 1385SOL     OW 5271   4.100   1.688   5.019  0.2492 -0.3538  0.5774
 1385SOL    HW2 5272   4.156   1.636   5.076  2.0111  1.1493  0.3258
 1385SOL    HW3 5273   4.125   1.661   4.931 -1.4721 -1.6642  0.4415
 1385SOL    MW4 5274   4.111   1.678   5.015 -0.0482  0.2402 -0.3148
 1386SOL     OW 5275   6.138   5.458   6.211  0.5827  0.0651  0.3948
 1386SOL    HW2 5276   6.212   5.442   6.270  0.7258  1.1224  0.5204
 1386SOL    HW3 5277   6.085   5.524   6.255 -0.1089 -0.2243  0.0185
 1386SOL    MW4 5278   6.141   5.464   6.224 -0.4639 -0.1498  0.1180
 1387SOL     OW 5279   5.431   3.577   0.494 -0.3028 -0.4644  0.0082
 1387SOL    HW2 5280   5.456   3.578   0.586  0.0872  0.7137 -0.0954
 1387SOL    HW3 5281   5.515   3.579   0.447 -0.5052  1.0714 -0.3474
 1387SOL    MW4 5282   5.446   3.577   0.500  0.1761  0.2800  0.4728
 1388SOL     OW 5283   2.126   0.507   5.934 -0.9130  0.7090 -0.3244
 1388SOL    HW2 5284   2.106   0.581   5.877 -0.5602  1.3454  0.3539
 1388SOL    HW3 5285   2.208   0.472   5.900 -0.4645  1.3722  0.0574
 1388SOL    MW4 5286   2.134   0.512   5.922 -0.0190  0.1736 -0.0761
 1389SOL     OW 5287   2.033   4.064   1.090  0.1891  0.3466  0.1392
 1389SOL    HW2 5288   1.968   4.031   1.151  0.6877 -1.9410 -0.4870
 1389SOL    HW3 5289   2.027   4.007   1.014  1.7488  1.1394 -0.6393
 1389SOL    MW4 5290   2.024   4.053   1.088  0.2551 -0.1456 -0.2246
 1390SOL     OW 5291   0.651   3.663   0.720 -0.2568  0.2119  0.1551
 1390SOL    HW2 5292   0.658   3.579   0.674 -1.4259  0.0158  0.2972
 1390SOL    HW3 5293   0.709   3.722   0.672  1.9932 -1.0853  1.0978
 1390SOL    MW4 5294   0.660   3.659   0.708 -0.3630 -0.0186 -0.2774
 1391SOL     OW 5295   0.238   5.508   4.558 -0.5626 -0.2064  0.0828
 1391SOL    HW2 5296   0.147   5.498   4.583  0.0624 -0.8511  2.3545
 1391SOL    HW3 5297   0.287   5.466   4.629  1.5587  1.7671 -0.0967
 1391SOL    MW4 5298   0.233   5.501   4.571  0.3519  0.2011  0.1906
 1392SOL     OW 5299   4.488   4.123   3.357 -0.6532 -0.0615 -0.0354
 1392SOL    HW2 5300   4.510   4.074   3.437 -0.7899  0.8008  0.5397
 1392SOL    HW3 5301   4.444   4.202   3.389  0.5000  0.9623 -0.8952
 1392SOL    MW4 5302   4.485   4.127   3.372 -0.1331  0.1798  0.9549
 1393SOL     OW 5303   1.797   0.665   2.837  0.0908 -0.1499  1.0840
 1393SOL    HW2 5304   1.703   0.672   2.859 -0.2674  0.3666 -0.4980
 1393SOL    HW3 5305   1.841   0.677   2.921 -1.2475  0.0718  1.7984
 1393SOL    MW4 5306   1.790   0.667   2.851  0.2487 -0.1690  0.7619
 1394SOL     OW 5307   1.657   2.709   3.278  0.2845  0.3716  0.3657
 1394SOL    HW2 5308   1.676   2.771   3.349  0.8255  0.9857 -0.3072
 1394SOL    HW3 5309   1.577   2.744   3.237 -1.0507 -0.9332  1.7307
 1394SOL    MW4 5310   1.649   2.722   3.282  0.0787 -0.7305 -0.0611
 1395SOL     OW 5311   5.718   1.070   4.165 -0.1124  0.1221 -0.6429
 1395SOL    HW2 5312   5.797   1.123   4.158 -0.1141  0.1739 -0.2816
 1395SOL    HW3 5313   5.652   1.118   4.114  0.2999 -0.3439 -1.6575
 1395SOL    MW4 5314   5.719   1.083   4.157 -1.0577 -0.1892  0.3779
 1396SOL     OW 5315   1.226   2.378   0.574  0.1381  0.3824 -0.3599
 1396SOL    HW2 5316   1.300   2.413   0.523  1.5461  0.1932  1.4379
 1396SOL    HW3 5317   1.218   2.437   0.648  0.4367 -1.2320  1.0251
 1396SOL    MW4 5318   1.235   2.390   0.577 -0.4814  0.0382 -0.2164
 1397SOL     OW 5319   0.899   5.329   2.332 -0.0779 -0.2058 -0.5569
 1397SOL    HW2 5320   0.808   5.354   2.347  1.0438  2.8467  2.3666
 1397SOL    HW3 5321   0.919   5.268   2.403  1.0805  2.1973  1.3238
 1397SOL    MW4 5322   0.890   5.324   2.344 -0.3493 -0.6777  0.0058
 1398SOL     OW 5323   4.325   4.749   6.064 -1.1011 -0.2944  0.7535
 1398SOL    HW2 5324   4.355   4.812   5.999 -0.6977 -1.3419 -0.1221
 1398SOL    HW3 5325   4.346   4.663   6.026  1.5697 -0.9707  3.3564
 1398SOL    MW4 5326   4.332   4.746   6.050 -0.6440  0.0985  0.0565
 1399SOL     OW 5327   5.827   2.865   5.050  0.0899  0.3863 -0.4712
 1399SOL    HW2 5328   5.868   2.946   5.019  0.3923 -0.5157 -2.5992
 1399SOL    HW3 5329   5.810   2.815   4.970 -1.0462 -1.2127  0.7158
 1399SOL    MW4 5330   5.830   2.869   5.035  0.1958 -0.4207  0.3707
 1400SOL     OW 5331   0.869   2.131   0.459 -0.1818  0.3303  0.3676
 1400SOL    HW2 5332   0.863   2.114   0.553 -0.9013 -1.2189  0.0722
 1400SOL    HW3 5333   0.920   2.058   0.424 -0.4444  0.5579 -0.5185
 1400SOL    MW4 5334   0.875   2.119   0.467  0.6331 -0.1773  0.0192
 1401SOL     OW 5335   2.275   2.610   3.832  0.0855  0.2722 -0.1206
 1401SOL    HW2 5336   2.282   2.690   3.779  0.0857 -0.0106 -0.5487
 1401SOL    HW3 5337   2.210   2.631   3.898 -0.6784  0.2799 -0.8599
 1401SOL    MW4 5338   2.267   2.624   3.834 -1.3074  0.6575 -0.0748
 1402SOL     OW 5339   4.118   2.718   0.777  0.1646 -0.2884 -0.0111
 1402SOL    HW2 5340   4.190   2.780   0.783 -0.4345  0.7411 -2.4909
 1402SOL    HW3 5341   4.055   2.758   0.717 -2.1116 -1.5351  1.3783
 1402SOL    MW4 5342   4.119   2.731   0.770 -0.1378 -0.6019  0.4319
 1403SOL     OW 5343   2.185   2.869   5.774 -0.0661 -0.3462 -0.4960
 1403SOL    HW2 5344   2.178   2.803   5.706  1.3397  0.1028 -1.1252
 1403SOL    HW3 5345   2.209   2.949   5.727  1.9029 -0.2417  0.5783
 1403SOL    MW4 5346   2.188   2.871   5.759 -0.5991 -0.3552 -0.1836
 1404SOL     OW 5347   3.317   0.825   2.379 -0.7291  0.0143 -0.4147
 1404SOL    HW2 5348   3.372   0.749   2.396 -1.0548 -0.4401 -1.3301
 1404SOL    HW3 5349   3.377   0.900   2.384 -0.5319 -0.2005  1.1702
 1404SOL    MW4 5350   3.332   0.825   2.382  0.3651  0.0782 -0.8462
 1405SOL     OW 5351   1.106   4.544   5.653  0.6380 -0.0177 -0.3331
 1405SOL    HW2 5352   1.106   4.519   5.745 -2.0760  0.7467 -0.0477
 1405SOL    HW3 5353   1.120   4.638   5.654 -0.6907  0.2097 -0.5475
 1405SOL    MW4 5354   1.108   4.553   5.665 -0.5374  0.4187  0.0738
 1406SOL     OW 5355   4.353   3.106   0.886  0.5453  0.1213 -0.0430
 1406SOL    HW2 5356   4.260   3.098   0.866  0.6317  0.5332 -0.6343
 1406SOL    HW3 5357   4.356   3.160   0.965  0.2287 -1.0663  0.8123
 1406SOL    MW4 5358   4.341   3.112   0.894 -0.1327  0.4313  0.1251
 1407SOL     OW 5359   1.854   4.227   3.639 -0.2699  0.0238  0.3726
 1407SOL    HW2 5360   1.872   4.281   3.562 -0.8257  0.2644  0.4070
 1407SOL    HW3 5361   1.932   4.172   3.649  0.0044  0.3297 -0.0760
 1407SOL    MW4 5362   1.867   4.227   3.630  0.3429  0.0193  0.0036
 1408SOL     OW 5363   3.004   3.242   5.708 -0.0745  0.0649  0.4675
 1408SOL    HW2 5364   2.938   3.307   5.685  0.8713  0.2698 -2.0507
 1408SOL    HW3 5365   3.071   3.292   5.756 -0.3604  0.4873  0.4335
 1408SOL    MW4 5366   3.004   3.258   5.711 -0.6254 -0.0594 -0.4201
 1409SOL     OW 5367   3.422   0.341   0.201  0.0640  0.3775  0.4997
 1409SOL    HW2 5368   3.396   0.424   0.160 -1.2264 -0.8283 -1.3217
 1409SOL    HW3 5369   3.412   0.277   0.131  1.9656 -1.2057  1.5773
 1409SOL    MW4 5370   3.417   0.344   0.186 -0.2990 -0.1021  0.0925
 1410SOL     OW 5371   3.234   5.205   0.897 -0.1351 -0.3893 -0.3006
 1410SOL    HW2 5372   3.186   5.142   0.950 -2.1707 -0.3400 -1.9533
 1410SOL    HW3 5373   3.193   5.289   0.917 -0.4708 -0.2762 -1.3971
 1410SOL    MW4 5374   3.223   5.208   0.907  0.5748  0.3095 -0.0619
 1411SOL     OW 5375   1.304   6.291   1.976 -0.8308  0.2591 -0.3545
 1411SOL    HW2 5376   1.321   6.211   2.026  0.4245  0.1093 -0.9770
 1411SOL    HW3 5377   1.391   6.327   1.957 -1.3026  0.8256 -1.5957
 1411SOL    MW4 5378   1.318   6.285   1.980 -0.9286  0.3869  0.1855
 1412SOL     OW 5379   0.820   0.044   5.118 -0.6824 -0.4695 -0.1101
 1412SOL    HW2 5380   0.726   0.026   5.119 -0.6279 -0.8431  1.5115
 1412SOL    HW3 5381   0.829   0.126   5.166 -0.2496  0.0408 -1.0478
 1412SOL    MW4 5382   0.809   0.052   5.125  0.3346 -0.3253  0.1438
 1413SOL     OW 5383   2.966   5.173   3.943 -0.3683 -0.4301 -0.4952
 1413SOL    HW2 5384   2.960   5.246   3.880 -0.3563  0.4139  0.4554
 1413SOL    HW3 5385   2.893   5.116   3.920 -1.6840  0.9501  0.0396
 1413SOL    MW4 5386   2.955   5.175   3.932 -0.7897 -0.0819  0.1029
 1414SOL     OW 5387   1.729   3.501   3.061 -0.1367  0.1779  0.3866
 1414SOL    HW2 5388   1.768   3.536   3.141  0.5604  0.2905  0.0056
 1414SOL    HW3 5389   1.722   3.407   3.077 -0.1255  0.2182  0.6336
 1414SOL    MW4 5390   1.733   3.494   3.074  0.0903 -0.0460  0.2784
 1415SOL     OW 5391   2.348   2.541   1.691 -0.1395  0.6740 -0.0657
 1415SOL    HW2 5392   2.284   2.591   1.740 -0.3781  0.3008  0.0087
 1415SOL    HW3 5393   2.305   2.521   1.608  0.9838  3.0601 -1.3300
 1415SOL    MW4 5394   2.334   2.545   1.686  0.3713 -0.5606 -0.0550
 1416SOL     OW 5395   4.092   4.502   4.407  0.0827  0.1537  0.5137
 1416SOL    HW2 5396   4.150   4.426   4.401  1.1836  0.9050  1.2029
 1416SOL    HW3 5397   4.129   4.554   4.478 -1.4963  0.6332  1.0208
 1416SOL    MW4 5398   4.105   4.499   4.416 -0.0395  0.3591 -0.6047
 1417SOL     OW 5399   4.031   2.566   4.773  0.1844  0.5423  0.0453
 1417SOL    HW2 5400   4.124   2.546   4.774  0.0363 -0.1720 -0.0931
 1417SOL    HW3 5401   4.027   2.661   4.783  0.9002  0.4906  1.0822
 1417SOL    MW4 5402   4.043   2.576   4.775  0.4828  0.5225 -0.2140
 1418SOL     OW 5403   0.517   0.125   3.427  0.4851  0.2928  0.4847
 1418SOL    HW2 5404   0.462   0.097   3.354  0.2018  0.2702  0.7041
 1418SOL    HW3 5405   0.507   0.055   3.493 -0.3243  0.9528  1.0871
 1418SOL    MW4 5406   0.509   0.112   3.426 -0.0065  0.3412  0.7221
 1419SOL     OW 5407   2.368   5.980   0.876 -0.1637  0.0252  0.2871
 1419SOL    HW2 5408   2.362   5.968   0.971 -0.7585 -2.0098  0.0365
 1419SOL    HW3 5409   2.431   6.052   0.864  1.6405 -1.1534  2.1504
 1419SOL    MW4 5410   2.375   5.988   0.887 -0.4884  0.2197 -0.2527
 1420SOL     OW 5411   2.903   3.559   3.808  0.4776 -0.1044 -0.0774
 1420SOL    HW2 5412   2.952   3.480   3.790 -1.1424 -1.7155  2.0088
 1420SOL    HW3 5413   2.844   3.568   3.734  1.3978 -0.2277 -0.8367
 1420SOL    MW4 5414   2.901   3.550   3.796  0.4038  0.1990 -0.0259
 1421SOL     OW 5415   4.602   1.542   3.017  0.3122  0.1278 -0.1451
 1421SOL    HW2 5416   4.609   1.582   2.930  1.5844  0.2496 -0.0013
 1421SOL    HW3 5417   4.598   1.616   3.077 -0.0647  0.0397 -0.0579
 1421SOL    MW4 5418   4.602   1.557   3.013  0.1722 -0.2443  0.3436
 1422SOL     OW 5419   5.913   0.967   5.265 -0.3801  0.4177  0.4040
 1422SOL    HW2 5420   5.849   0.917   5.214 -0.5777  1.0189  0.0499
 1422SOL    HW3 5421   5.985   0.982   5.204 -0.0388  0.0215  0.7048
 1422SOL    MW4 5422   5.914   0.963   5.250 -0.5177 -0.4589  0.4892
 1423SOL     OW 5423   3.873   0.974   0.478 -0.0503  0.1916 -0.7695
 1423SOL    HW2 5424   3.955   1.024   0.478  0.7700 -1.1006 -0.3013
 1423SOL    HW3 5425   3.804   1.040   0.486  1.0633  1.1476  1.8006
 1423SOL    MW4 5426   3.875   0.989   0.479  0.1456 -1.0493  0.1569
 1424SOL     OW 5427   4.130   2.295   2.395 -0.0466 -0.1693 -0.1866
 1424SOL    HW2 5428   4.146   2.289   2.300  1.5439 -1.2524  0.1205
 1424SOL    HW3 5429   4.110   2.387   2.409 -0.5042 -0.0193 -1.6004
 1424SOL    MW4 5430   4.129   2.306   2.384  0.4134 -0.3605  0.2022
 1425SOL     OW 5431   2.371   5.429   6.031  0.1887  0.0139  0.0746
 1425SOL    HW2 5432   2.367   5.413   5.937  0.3431  0.9446 -0.1001
 1425SOL    HW3 5433   2.292   5.389   6.067 -0.1038  0.0692 -0.5128
 1425SOL    MW4 5434   2.360   5.422   6.024 -0.2257  0.1892  0.7824
 1426SOL     OW 5435   4.908   2.056   5.953 -0.3197  0.7800 -0.2710
 1426SOL    HW2 5436   4.938   1.965   5.943 -3.4467 -0.4862  0.7251
 1426SOL    HW3 5437   4.873   2.079   5.868 -0.8056  0.5333 -0.1383
 1426SOL    MW4 5438   4.908   2.047   5.941 -0.2866 -0.2778  0.1653
 1427SOL     OW 5439   2.359   3.666   4.325 -0.4075  0.1242 -0.3833
 1427SOL    HW2 5440   2.438   3.612   4.331 -0.3077  0.3679  3.9586
 1427SOL    HW3 5441   2.287   3.606   4.346 -1.1808  0.3553 -2.2067
 1427SOL    MW4 5442   2.360   3.651   4.329  0.1681  0.6857  0.0802
 1428SOL     OW 5443   3.974   4.705   4.970  0.1155 -0.6507  0.2604
 1428SOL    HW2 5444   3.949   4.789   4.932  2.0356  1.2676  2.8902
 1428SOL    HW3 5445   3.895   4.676   5.017 -0.3063  0.0702  0.0118
 1428SOL    MW4 5446   3.960   4.712   4.971 -0.2206  0.5846 -0.1432
 1429SOL     OW 5447   3.492   0.923   0.149 -0.1186 -0.2859  0.6984
 1429SOL    HW2 5448   3.435   0.949   0.222  0.9282 -0.4082  1.5938
 1429SOL    HW3 5449   3.437   0.866   0.095 -1.8430  2.1122 -0.2539
 1429SOL    MW4 5450   3.478   0.919   0.152 -0.4380  0.3738  0.4507
 1430SOL     OW 5451   2.456   5.532   3.315 -0.0733 -0.0126  0.1843
 1430SOL    HW2 5452   2.494   5.476   3.248 -2.4420 -0.3361 -1.0107
 1430SOL    HW3 5453   2.438   5.473   3.388  1.6724  0.1606  0.7920
 1430SOL    MW4 5454   2.458   5.517   3.316 -0.0658  0.0004 -0.6359
 1431SOL     OW 5455   2.624   4.797   2.410  0.2358  0.2181  0.8200
 1431SOL    HW2 5456   2.572   4.877   2.409 -0.9036 -0.4804 -1.2542
 1431SOL    HW3 5457   2.627   4.771   2.503 -1.9992  1.0007  1.1741
 1431SOL    MW4 5458   2.618   4.804   2.422  0.4887  0.1591 -0.3941
 1432SOL     OW 5459   0.631   4.868   1.259  0.3410  0.2445  0.0401
 1432SOL    HW2 5460   0.708   4.842   1.310  0.0799 -0.4992  0.0575
 1432SOL    HW3 5461   0.661   4.866   1.168  0.5891  0.8247  0.1039
 1432SOL    MW4 5462   0.645   4.864   1.253 -0.3812  0.0222 -0.5383
 1433SOL     OW 5463   5.573   3.472   2.488 -0.5761 -0.2762 -0.2522
 1433SOL    HW2 5464   5.589   3.429   2.404  0.3083 -1.8847  0.6932
 1433SOL    HW3 5465   5.527   3.553   2.465 -0.3354 -0.6611 -2.2735
 1433SOL    MW4 5466   5.569   3.477   2.474  0.1747 -0.0971  0.7978
 1434SOL     OW 5467   6.096   1.026   4.000 -0.4662  0.0610 -0.3261
 1434SOL    HW2 5468   6.017   1.043   3.948  0.2977 -0.4700 -1.7058
 1434SOL    HW3 5469   6.105   0.931   3.999 -0.1593  0.0780  0.3740
 1434SOL    MW4 5470   6.087   1.016   3.993 -0.5633  0.0803 -0.5357
 1435SOL     OW 5471   6.423   5.126   5.130 -0.1276 -0.6837 -0.0101
 1435SOL    HW2 5472   6.429   5.034   5.102 -0.2801 -1.3129  1.8963
 1435SOL    HW3 5473   6.428   5.122   5.225  1.3916  1.4393  0.0472
 1435SOL    MW4 5474   6.424   5.113   5.139 -0.0554 -0.1792 -0.0758
 1436SOL     OW 5475   0.912   3.264   2.249  0.1004 -0.5212 -0.4216
 1436SOL    HW2 5476   0.910   3.315   2.169 -1.3411 -2.5249 -1.7516
 1436SOL    HW3 5477   0.886   3.326   2.318  2.5801  1.5582 -1.1981
 1436SOL    MW4 5478   0.908   3.279   2.248 -0.4169 -0.3985  0.2182
 1437SOL     OW 5479   0.667   2.462   5.961  0.5204 -0.0543  0.0426
 1437SOL    HW2 5480   0.742   2.410   5.988 -0.1285 -1.5360 -0.8665
 1437SOL    HW3 5481   0.600   2.397   5.939 -1.2992  1.2090  1.5444
 1437SOL    MW4 5482   0.668   2.447   5.962 -0.3708  0.0505  0.0592
 1438SOL     OW 5483   2.248   0.334   0.889 -0.4596 -0.0666  0.0082
 1438SOL    HW2 5484   2.325   0.298   0.934 -0.9669 -1.6469 -0.3269
 1438SOL    HW3 5485   2.265   0.428   0.885  0.7167 -0.1825  1.3436
 1438SOL    MW4 5486   2.261   0.342   0.895  0.9608 -0.0587 -0.3239
 1439SOL     OW 5487   2.478   3.420   0.510  0.6135  0.0248 -0.6047
 1439SOL    HW2 5488   2.546   3.488   0.515 -0.0704  0.7683 -1.0423
 1439SOL    HW3 5489   2.433   3.438   0.428 -0.5120 -0.0523 -0.0260
 1439SOL    MW4 5490   2.481   3.432   0.500  0.1103  0.4644 -0.5712
 1440SOL     OW 5491   2.167   4.563   4.737  0.2053  0.7729  0.3072
 1440SOL    HW2 5492   2.209   4.609   4.665 -0.3038  1.2057  0.2816
 1440SOL    HW3 5493   2.220   4.584   4.813 -0.8562  2.6765  0.5910
 1440SOL    MW4 5494   2.179   4.572   4.738 -0.3132  0.1343 -0.3506
 1441SOL     OW 5495   0.309   0.816   3.002  0.1250 -0.0169  0.2708
 1441SOL    HW2 5496   0.326   0.771   2.919 -0.5268 -2.3537  1.3297
 1441SOL    HW3 5497   0.242   0.763   3.045 -0.9851  2.2266  1.4756
 1441SOL    MW4 5498   0.302   0.803   2.997 -0.7625 -0.3332  0.2404
 1442SOL     OW 5499   6.076   5.290   4.660 -0.2015  0.2058 -0.0438
 1442SOL    HW2 5500   6.157   5.265   4.704 -1.9917 -1.6897  2.4585
 1442SOL    HW3 5501   6.051   5.213   4.609 -1.0791  0.2574  0.2907
 1442SOL    MW4 5502   6.083   5.277   4.659 -0.5245 -0.2623 -0.2141
 1443SOL     OW 5503   5.814   5.679   5.290 -0.2843 -0.0424 -0.0021
 1443SOL    HW2 5504   5.844   5.726   5.368  2.2945 -1.0442 -0.2849
 1443SOL    HW3 5505   5.735   5.634   5.318  0.5629 -0.3700  2.0625
 1443SOL    MW4 5506   5.808   5.679   5.304 -0.2029 -0.0148  0.2711
 1444SOL     OW 5507   0.874   3.396   5.209 -0.1056 -0.1205  0.4217
 1444SOL    HW2 5508   0.875   3.328   5.141  0.3351 -1.2022  1.4646
 1444SOL    HW3 5509   0.964   3.402   5.239 -0.0736  1.2083  0.1067
 1444SOL    MW4 5510   0.886   3.387   5.204 -0.0008  0.1061  0.0833
 1445SOL     OW 5511   3.566   1.076   2.402  0.1084 -0.2530 -0.5342
 1445SOL    HW2 5512   3.653   1.115   2.393 -0.1432  0.6718  0.7166
 1445SOL    HW3 5513   3.577   1.008   2.469  0.2702 -1.4961 -1.7918
 1445SOL    MW4 5514   3.579   1.072   2.410  0.1571  0.5622  0.8611
 1446SOL     OW 5515   1.509   4.355   1.569  0.3149 -0.4351  0.7962
 1446SOL    HW2 5516   1.434   4.297   1.583 -0.2261  0.3728  1.3441
 1446SOL    HW3 5517   1.542   4.330   1.483 -0.6580 -0.7390  0.4873
 1446SOL    MW4 5518   1.503   4.344   1.559 -0.0075 -0.3518 -0.1554
 1447SOL     OW 5519   6.039   1.753   6.084  0.2050 -0.7835  0.2219
 1447SOL    HW2 5520   6.099   1.827   6.075 -1.9119  1.5753  3.3467
 1447SOL    HW3 5521   6.029   1.720   5.994  1.6844  2.3743 -1.2784
 1447SOL    MW4 5522   6.045   1.758   6.071 -0.0885  0.2400 -0.2810
 1448SOL     OW 5523   6.373   4.909   4.448  0.4531  0.3055 -0.4710
 1448SOL    HW2 5524   6.452   4.909   4.500 -0.1509 -1.0362  0.4958
 1448SOL    HW3 5525   6.301   4.911   4.511 -0.2892 -0.2908 -1.2523
 1448SOL    MW4 5526   6.374   4.909   4.463  0.4333  0.1618 -0.0466
 1449SOL     OW 5527   2.343   4.498   3.503  0.3343  0.2557 -0.0672
 1449SOL    HW2 5528   2.309   4.418   3.463 -0.5667  0.8092 -0.4333
 1449SOL    HW3 5529   2.436   4.497   3.482  0.1165 -0.1128 -1.0795
 1449SOL    MW4 5530   2.351   4.487   3.495  0.1160 -0.1990  0.2039
 1450SOL     OW 5531   1.761   6.106   0.557  0.5355 -0.0147  0.0920
 1450SOL    HW2 5532   1.686   6.126   0.501 -0.5965 -0.3670  1.4028
 1450SOL    HW3 5533   1.806   6.034   0.514 -0.5806 -0.5951 -0.1285
 1450SOL    MW4 5534   1.757   6.099   0.544 -0.2063  0.5878 -0.5412
 1451SOL     OW 5535   4.255   6.000   0.817 -0.8095 -0.1481 -0.3741
 1451SOL    HW2 5536   4.173   5.968   0.854 -0.2294  0.6953  1.8031
 1451SOL    HW3 5537   4.256   5.967   0.727 -2.4492 -2.1112  0.2609
 1451SOL    MW4 5538   4.244   5.991   0.810 -0.2978 -0.1333 -0.2455
 1452SOL     OW 5539   1.213   3.059   3.818 -0.0431  0.1538  0.4061
 1452SOL    HW2 5540   1.135   3.003   3.817 -1.7316  2.3793 -0.1939
 1452SOL    HW3 5541   1.283   3.003   3.785 -1.9503 -1.1724 -1.6497
 1452SOL    MW4 5542   1.212   3.044   3.814 -0.7673 -0.3286 -0.5909
 1453SOL     OW 5543   2.571   1.831   6.375  0.7278  0.0975  0.6672
 1453SOL    HW2 5544   2.631   1.813   6.303 -1.1169  0.1683 -0.9755
 1453SOL    HW3 5545   2.574   1.753   6.429 -0.3873 -1.4571 -1.3923
 1453SOL    MW4 5546   2.579   1.819   6.373 -0.3970  0.1580 -0.2377
 1454SOL     OW 5547   0.344   1.453   1.314  0.3347 -0.4418 -0.1505
 1454SOL    HW2 5548   0.415   1.510   1.344  0.6276 -1.1149  0.4494
 1454SOL    HW3 5549   0.358   1.370   1.360 -0.8943 -0.5576  0.0610
 1454SOL    MW4 5550   0.355   1.450   1.324 -0.1807 -0.2390 -0.0612
 1455SOL     OW 5551   1.830   2.286   1.367 -0.2280  0.1375 -0.2193
 1455SOL    HW2 5552   1.858   2.235   1.291  3.0928  0.7079  0.4779
 1455SOL    HW3 5553   1.736   2.295   1.356  0.0153 -0.3344 -3.9025
 1455SOL    MW4 5554   1.821   2.280   1.356  0.4149  0.1412  0.9658
 1456SOL     OW 5555   1.180   5.283   4.802  0.0660  0.5647 -0.1497
 1456SOL    HW2 5556   1.133   5.299   4.720 -0.0380  0.6003 -0.0839
 1456SOL    HW3 5557   1.263   5.331   4.792 -0.5672  1.8134  0.3550
 1456SOL    MW4 5558   1.185   5.291   4.790  0.1834 -1.0048 -0.4131
 1457SOL     OW 5559   1.972   3.183   4.194  0.2440  0.2143 -0.0555
 1457SOL    HW2 5560   1.909   3.201   4.123 -0.0725  1.0540  0.4127
 1457SOL    HW3 5561   1.955   3.093   4.219  0.2369 -0.0364 -0.9304
 1457SOL    MW4 5562   1.961   3.174   4.188 -0.2265  0.1558 -0.1899
 1458SOL     OW 5563   0.970   6.213   5.951  0.2146 -0.1627  0.0374
 1458SOL    HW2 5564   1.020   6.294   5.941  1.2416 -0.8136 -0.2456
 1458SOL    HW3 5565   1.033   6.144   5.935 -0.5762 -1.0385  0.5856
 1458SOL    MW4 5566   0.985   6.215   5.948  0.9504 -0.3927  0.0691
 1459SOL     OW 5567   4.180   5.588   0.780 -0.3547  0.3421  0.2947
 1459SOL    HW2 5568   4.176   5.607   0.687 -0.4518  2.9470  0.7479
 1459SOL    HW3 5569   4.089   5.577   0.807 -0.2867 -1.3497 -0.0125
 1459SOL    MW4 5570   4.167   5.589   0.771 -0.1860  0.3972  0.6574
 1460SOL     OW 5571   3.310   6.006   0.098  0.2092 -0.4296  0.2551
 1460SOL    HW2 5572   3.317   6.098   0.076 -1.8821  0.0126  1.1421
 1460SOL    HW3 5573   3.332   6.002   0.191  0.6678 -0.8925  0.1299
 1460SOL    MW4 5574   3.314   6.017   0.108  0.1742 -0.2613  0.0584
 1461SOL     OW 5575   3.597   2.361   1.026 -0.1856  0.6875 -0.1301
 1461SOL    HW2 5576   3.655   2.312   1.085  0.2378  0.8158 -0.4344
 1461SOL    HW3 5577   3.530   2.399   1.083 -1.0558 -0.9715  0.0376
 1461SOL    MW4 5578   3.596   2.359   1.041  0.5987  0.0552  0.0969
 1462SOL     OW 5579   3.800   2.990   3.476 -0.3234 -0.3733 -0.1746
 1462SOL    HW2 5580   3.713   2.950   3.477 -1.2346  1.4255 -1.2945
 1462SOL    HW3 5581   3.843   2.953   3.399 -0.7557 -0.0582 -0.5799
 1462SOL    MW4 5582   3.794   2.980   3.466 -0.0286 -0.4502  0.4671
 1463SOL     OW 5583   4.226   5.543   5.254  0.2728 -0.4664  0.4806
 1463SOL    HW2 5584   4.238   5.512   5.164 -0.8723  0.6336 -0.0746
 1463SOL    HW3 5585   4.197   5.465   5.302 -1.6484 -0.5272 -0.6767
 1463SOL    MW4 5586   4.224   5.528   5.248 -0.1244 -0.4859  0.4572
 1464SOL     OW 5587   2.029   3.071   0.434  0.8654  0.6227  0.2173
 1464SOL    HW2 5588   2.012   3.066   0.528  0.4573  0.0025  0.1183
 1464SOL    HW3 5589   1.968   3.138   0.403  0.8760  0.7014  0.3641
 1464SOL    MW4 5590   2.018   3.079   0.442 -0.1023 -0.4595 -0.0257
 1465SOL     OW 5591   2.910   3.294   0.077 -0.2705  0.5416 -0.6499
 1465SOL    HW2 5592   2.827   3.299   0.030 -0.3742 -0.5854 -0.6077
 1465SOL    HW3 5593   2.889   3.321   0.166 -0.6859 -0.1294 -0.5370
 1465SOL    MW4 5594   2.896   3.298   0.082 -0.1073 -0.1590 -0.0052
 1466SOL     OW 5595   3.472   1.360   5.809 -0.0650  0.6381 -0.1040
 1466SOL    HW2 5596   3.421   1.441   5.810  0.4838  1.0080  1.5753
 1466SOL    HW3 5597   3.444   1.315   5.729 -0.7436  2.2409 -0.8171
 1466SOL    MW4 5598   3.461   1.365   5.798 -0.3562 -0.2464  0.2293
 1467SOL     OW 5599   0.510   2.316   1.602 -0.0723 -0.0304  0.2124
 1467SOL    HW2 5600   0.534   2.315   1.510  0.3153  0.9014  0.2893
 1467SOL    HW3 5601   0.594   2.321   1.649 -0.2959  0.6753  0.5642
 1467SOL    MW4 5602   0.525   2.317   1.596  0.5792  0.5287  0.1408
 1468SOL     OW 5603   1.036   0.741   5.130  0.2724 -0.0903 -0.1008
 1468SOL    HW2 5604   0.973   0.670   5.115 -0.2815  0.3363  0.1835
 1468SOL    HW3 5605   1.111   0.698   5.173  0.7911 -0.8649 -1.6870
 1468SOL    MW4 5606   1.038   0.726   5.133  0.4096  0.9514 -0.3446
 1469SOL     OW 5607   4.542   1.897   0.166 -0.2197  0.3846 -0.0108
 1469SOL    HW2 5608   4.480   1.960   0.130  0.0244  1.4087  1.2915
 1469SOL    HW3 5609   4.494   1.853   0.236  0.1411  0.3267  0.2049
 1469SOL    MW4 5610   4.528   1.899   0.171  0.1127  0.0240  0.1698
 1470SOL     OW 5611   4.391   0.576   4.673  0.4342  0.5822  0.0890
 1470SOL    HW2 5612   4.343   0.564   4.755 -2.5825 -0.8614 -1.7150
 1470SOL    HW3 5613   4.439   0.494   4.661  0.1765  0.4388  0.0194
 1470SOL    MW4 5614   4.391   0.564   4.682 -0.0561 -0.3852  0.4289
 1471SOL     OW 5615   2.942   5.061   5.365 -0.3135  0.0126  0.0680
 1471SOL    HW2 5616   2.952   5.145   5.319  0.1967 -0.1348 -0.0966
 1471SOL    HW3 5617   3.021   5.012   5.343 -1.0016 -0.8558 -0.5395
 1471SOL    MW4 5618   2.954   5.066   5.356 -0.5034  0.0083  0.4562
 1472SOL     OW 5619   1.871   1.557   2.777  0.0286  0.2898  0.3255
 1472SOL    HW2 5620   1.896   1.547   2.869 -0.6803 -0.0056  0.4904
 1472SOL    HW3 5621   1.838   1.646   2.770  1.3956  0.7999  0.0322
 1472SOL    MW4 5622   1.870   1.567   2.788  0.1393  0.0942  0.1096
 1473SOL     OW 5623   1.520   4.448   0.972 -0.0323 -0.4724  0.0592
 1473SOL    HW2 5624   1.505   4.355   0.991  0.5608 -0.9169 -1.5052
 1473SOL    HW3 5625   1.614   4.454   0.955 -0.0570  0.4329  0.1904
 1473SOL    MW4 5626   1.530   4.437   0.972 -0.0293  0.0968 -0.2059
 1474SOL     OW 5627   4.819   2.949   6.188  0.0060 -0.1058 -0.1488
 1474SOL    HW2 5628   4.764   3.016   6.148 -0.2531 -1.3567 -2.0340
 1474SOL    HW3 5629   4.759   2.877   6.209  0.5173 -0.4102  0.3313
 1474SOL    MW4 5630   4.804   2.948   6.186 -0.8936 -1.0604 -0.4781
 1475SOL     OW 5631   6.300   4.861   1.329 -0.4484  0.2979  0.3053
 1475SOL    HW2 5632   6.221   4.808   1.340 -0.7422  0.5750 -0.4161
 1475SOL    HW3 5633   6.362   4.825   1.393 -0.9986 -0.2195  0.5602
 1475SOL    MW4 5634   6.298   4.849   1.339 -0.6547 -0.0205 -0.2204
 1476SOL     OW 5635   5.150   1.746   2.685  0.5190  0.4515 -0.2865
 1476SOL    HW2 5636   5.060   1.724   2.662  0.4221  1.4618 -0.9277
 1476SOL    HW3 5637   5.155   1.731   2.779  0.2902 -1.6203 -0.5630
 1476SOL    MW4 5638   5.139   1.741   2.694 -0.1534  0.3071 -0.2041
 1477SOL     OW 5639   1.886   2.698   1.157 -0.2534  0.0798  0.3709
 1477SOL    HW2 5640   1.882   2.683   1.063  0.7050 -2.4052  0.6574
 1477SOL    HW3 5641   1.939   2.777   1.167  1.0005 -0.5434 -1.1321
 1477SOL    MW4 5642   1.892   2.707   1.146  0.2122 -0.0200  0.1022
 1478SOL     OW 5643   5.489   0.105   2.567 -0.4134 -0.3276  0.3176
 1478SOL    HW2 5644   5.421   0.152   2.518 -0.0847  1.1262  1.2122
 1478SOL    HW3 5645   5.483   0.140   2.656  0.3284 -1.4873  0.8456
 1478SOL    MW4 5646   5.479   0.116   2.572  0.0019 -0.6343 -0.1712
 1479SOL     OW 5647   5.721   1.069   1.689  0.2974  0.4078 -0.1203
 1479SOL    HW2 5648   5.715   1.033   1.600  0.8306  1.3790 -0.5702
 1479SOL    HW3 5649   5.788   1.137   1.682 -1.6074  2.4557  0.3284
 1479SOL    MW4 5650   5.729   1.073   1.676  0.4260 -0.7533  0.0672
 1480SOL     OW 5651   5.654   5.211   4.529  0.1249 -0.0762 -0.2498
 1480SOL    HW2 5652   5.629   5.220   4.620 -0.6866  0.6945 -0.5361
 1480SOL    HW3 5653   5.705   5.290   4.510  0.7382 -0.4856 -0.3220
 1480SOL    MW4 5654   5.658   5.223   4.538  0.7570  0.1387 -0.0246
 1481SOL     OW 5655   3.080   1.159   2.450  0.1240 -0.0738 -0.1294
 1481SOL    HW2 5656   3.104   1.119   2.534 -0.9656  1.8794  1.1828
 1481SOL    HW3 5657   3.164   1.170   2.404  1.0439  0.8171  1.6507
 1481SOL    MW4 5658   3.095   1.155   2.455  0.3600  0.3354 -0.6326
 1482SOL     OW 5659   2.283   2.412   0.359 -0.7050 -0.1394  0.0250
 1482SOL    HW2 5660   2.311   2.358   0.285 -1.8692  3.8821 -3.8093
 1482SOL    HW3 5661   2.357   2.471   0.374 -0.9444 -0.1485  1.3292
 1482SOL    MW4 5662   2.296   2.413   0.351 -0.1284 -0.3641 -0.2556
 1483SOL     OW 5663   0.799   2.269   5.357  0.2868  0.1592 -0.6016
 1483SOL    HW2 5664   0.761   2.287   5.271 -0.0959 -1.0727 -0.7073
 1483SOL    HW3 5665   0.725   2.242   5.411  0.5816  0.5628  0.0107
 1483SOL    MW4 5666   0.784   2.268   5.352 -0.1260 -0.5102  0.0854
 1484SOL     OW 5667   1.608   1.624   1.593 -0.4836  0.0641 -0.2130
 1484SOL    HW2 5668   1.648   1.686   1.654 -1.0600  0.7823 -0.5533
 1484SOL    HW3 5669   1.680   1.568   1.566 -0.0213  0.3581  0.3700
 1484SOL    MW4 5670   1.623   1.625   1.598 -0.0167  0.1859  0.5408
 1485SOL     OW 5671   3.011   4.068   1.780 -0.3834  0.1575 -0.1356
 1485SOL    HW2 5672   2.949   4.057   1.852 -1.7717  0.8982 -1.1908
 1485SOL    HW3 5673   2.991   3.997   1.719 -1.7798  1.6713 -1.5488
 1485SOL    MW4 5674   3.000   4.057   1.782 -0.3564  0.1531  0.1376
 1486SOL     OW 5675   1.489   2.069   4.664 -0.7823 -0.8616  0.1569
 1486SOL    HW2 5676   1.425   2.005   4.633 -0.6083 -1.1280  0.3480
 1486SOL    HW3 5677   1.557   2.070   4.597 -0.4451 -1.3798  0.4877
 1486SOL    MW4 5678   1.490   2.061   4.651  0.0457  0.1764 -0.4479
 1487SOL     OW 5679   5.927   2.371   4.421 -0.3565  0.1442  0.5836
 1487SOL    HW2 5680   5.900   2.394   4.510  0.9311  0.2179  0.9730
 1487SOL    HW3 5681   5.923   2.275   4.419  0.9916  0.0613  1.1905
 1487SOL    MW4 5682   5.923   2.361   4.433 -0.5115 -0.3783 -0.7430
 1488SOL     OW 5683   2.483   6.314   5.689  0.0591  0.5388  0.4418
 1488SOL    HW2 5684   2.450   6.225   5.688  0.7126  0.2982  0.0073
 1488SOL    HW3 5685   2.410   6.367   5.656  0.3680 -0.0883 -1.3278
 1488SOL    MW4 5686   2.469   6.309   5.685  0.3311 -0.2380  0.1683
 1489SOL     OW 5687   0.179   0.239   1.234 -0.1261  0.3007 -0.0010
 1489SOL    HW2 5688   0.113   0.221   1.166  0.7471  0.2006 -0.8373
 1489SOL    HW3 5689   0.248   0.286   1.188 -0.3779  1.9483  1.2506
 1489SOL    MW4 5690   0.179   0.243   1.219 -0.4240  0.1438  0.4421
 1490SOL     OW 5691   3.049   2.991   1.384 -0.2236  0.6600 -0.1095
 1490SOL    HW2 5692   3.016   3.057   1.445  0.7288  0.6622  0.4255
 1490SOL    HW3 5693   3.143   2.989   1.401 -0.0671  0.0864 -1.0315
 1490SOL    MW4 5694   3.057   3.000   1.395 -0.3783  0.0803 -1.0923
 1491SOL     OW 5695   2.640   6.002   5.096 -0.2222  0.1246  0.1919
 1491SOL    HW2 5696   2.660   6.085   5.052 -0.0356 -0.0403 -0.0392
 1491SOL    HW3 5697   2.619   5.941   5.024  0.2712 -0.1980  0.3202
 1491SOL    MW4 5698   2.640   6.005   5.081 -0.8552  0.0480  0.4715
 1492SOL     OW 5699   5.189   2.368   4.644 -0.2447 -0.5759  0.1492
 1492SOL    HW2 5700   5.121   2.380   4.578 -1.2589  2.5486  1.5360
 1492SOL    HW3 5701   5.148   2.397   4.725  2.6519  1.4616  1.0515
 1492SOL    MW4 5702   5.174   2.374   4.646 -0.5147  0.4351  0.4601
 1493SOL     OW 5703   3.458   0.328   0.929 -0.3710  0.1278 -0.7896
 1493SOL    HW2 5704   3.528   0.364   0.875  0.9287 -1.3840 -0.1793
 1493SOL    HW3 5705   3.452   0.388   1.004  0.1177  0.3621 -0.9363
 1493SOL    MW4 5706   3.466   0.341   0.932 -0.1989 -0.3759 -0.3069
 1494SOL     OW 5707   0.785   0.118   2.637 -0.3178 -0.0236  0.0221
 1494SOL    HW2 5708   0.770   0.170   2.558 -0.4432  0.4408  0.3467
 1494SOL    HW3 5709   0.747   0.170   2.707 -0.0664 -0.3617  0.4120
 1494SOL    MW4 5710   0.778   0.132   2.636  0.3946  0.0878  0.6471
 1495SOL     OW 5711   2.465   5.407   2.349 -0.3949 -0.3535  0.2395
 1495SOL    HW2 5712   2.519   5.432   2.424 -0.5262  0.8504 -0.0450
 1495SOL    HW3 5713   2.396   5.474   2.346 -0.5833 -0.5807 -0.7426
 1495SOL    MW4 5714   2.463   5.419   2.359  0.3997 -0.1046  0.1454
 1496SOL     OW 5715   2.176   2.418   5.026  0.0101  0.1343 -0.2591
 1496SOL    HW2 5716   2.106   2.418   4.960  0.0075  0.2833 -0.2569
 1496SOL    HW3 5717   2.256   2.436   4.975  0.2143 -1.1997 -0.4387
 1496SOL    MW4 5718   2.177   2.421   5.010 -0.0832  0.4437 -0.3022
 1497SOL     OW 5719   2.557   4.462   1.299  0.4249 -0.4013 -0.3127
 1497SOL    HW2 5720   2.645   4.483   1.330  0.2350  1.5188 -0.9354
 1497SOL    HW3 5721   2.554   4.498   1.210 -0.1005 -2.9100 -1.4042
 1497SOL    MW4 5722   2.568   4.470   1.291  0.1914  0.1633 -0.0164
 1498SOL     OW 5723   3.500   1.568  -0.003  0.3073  0.0109 -0.4951
 1498SOL    HW2 5724   3.469   1.608  -0.084 -1.8492  0.2041  0.3661
 1498SOL    HW3 5725   3.453   1.613   0.067 -0.2157 -2.1789  0.6871
 1498SOL    MW4 5726   3.490   1.579  -0.004  0.0802  0.1597 -0.1579
 1499SOL     OW 5727   5.522   0.005   3.163 -0.0293  0.1529  0.6276
 1499SOL    HW2 5728   5.606   0.032   3.201 -0.6557  1.5650  1.0800
 1499SOL    HW3 5729   5.544  -0.024   3.074  0.9967  0.0381  0.9040
 1499SOL    MW4 5730   5.536   0.005   3.156  0.0041 -0.4423  0.1610
 1500SOL     OW 5731   4.048   5.291   0.901 -0.1959  0.1915 -0.2406
 1500SOL    HW2 5732   3.989   5.229   0.944  0.1868  0.5078  0.7753
 1500SOL    HW3 5733   4.106   5.322   0.971  0.5926  0.5652 -1.0348
 1500SOL    MW4 5734   4.048   5.287   0.916  0.0874 -0.0964 -0.0995
 1501SOL     OW 5735   1.890   4.640   3.569  0.0171  0.9832  0.2584
 1501SOL    HW2 5736   1.857   4.602   3.651 -1.4992  0.3324 -0.6194
 1501SOL    HW3 5737   1.813   4.678   3.527 -0.0707 -1.9956 -2.6395
 1501SOL    MW4 5738   1.875   4.640   3.575  0.2838 -0.4236 -0.2702
 1502SOL     OW 5739   1.986   5.279   1.356  0.0588  0.2657 -0.0857
 1502SOL    HW2 5740   1.898   5.250   1.330 -0.3797  1.1407  0.3902
 1502SOL    HW3 5741   2.026   5.202   1.394 -0.4151 -0.2093 -0.5254
 1502SOL    MW4 5742   1.980   5.265   1.358  0.4718  0.6516  0.0597
 1503SOL     OW 5743   3.469   1.924   0.490  0.3949 -0.0036 -0.5075
 1503SOL    HW2 5744   3.551   1.924   0.441  0.6852  2.2643 -0.1417
 1503SOL    HW3 5745   3.481   1.991   0.557 -2.8669  2.9313 -2.5253
 1503SOL    MW4 5746   3.482   1.933   0.493 -1.0022  0.7415  0.4548
 1504SOL     OW 5747   1.885   1.245   5.709 -0.0007 -0.0456 -0.0282
 1504SOL    HW2 5748   1.841   1.280   5.632  1.8703 -0.8633 -1.5517
 1504SOL    HW3 5749   1.913   1.323   5.757  0.0034  0.5049 -0.8941
 1504SOL    MW4 5750   1.883   1.260   5.705  0.5542 -0.3533 -0.6463
 1505SOL     OW 5751   0.697   5.141   3.372  0.0967  0.3853  0.0921
 1505SOL    HW2 5752   0.664   5.196   3.300 -1.7527  0.2466  0.7884
 1505SOL    HW3 5753   0.744   5.071   3.328 -0.8198  0.4223 -0.9989
 1505SOL    MW4 5754   0.699   5.139   3.356  0.4052  0.1349  0.3017
 1506SOL     OW 5755   0.043   5.068   5.420 -0.0520  0.2782  0.5721
 1506SOL    HW2 5756   0.069   4.993   5.367  0.5309  0.2493  0.8946
 1506SOL    HW3 5757  -0.015   5.031   5.486 -0.2367  0.2067  0.3717
 1506SOL    MW4 5758   0.039   5.053   5.422  0.1997  0.2706  0.3737
 1507SOL     OW 5759   4.581   2.797   3.238  0.1729 -0.4409  0.0803
 1507SOL    HW2 5760   4.513   2.734   3.261  0.0646  0.3110  1.9192
 1507SOL    HW3 5761   4.662   2.759   3.273  0.1779  0.2087  0.7882
 1507SOL    MW4 5762   4.583   2.784   3.245  0.0183 -0.5791  0.1994
 1508SOL     OW 5763   5.835   2.822   3.491  0.1591  0.2190  0.0859
 1508SOL    HW2 5764   5.816   2.914   3.475  0.7687  0.1820 -0.9022
 1508SOL    HW3 5765   5.759   2.775   3.454  0.8928  0.2161 -1.4847
 1508SOL    MW4 5766   5.822   2.828   3.484  0.1158 -0.2530  0.0303
 1509SOL     OW 5767   2.624   5.252   4.126  0.3045  0.6471 -0.1356
 1509SOL    HW2 5768   2.550   5.270   4.185 -1.2959 -0.8194 -1.5834
 1509SOL    HW3 5769   2.663   5.337   4.110 -1.3346  1.5381  0.3535
 1509SOL    MW4 5770   2.619   5.265   4.132  0.1599 -0.1498 -0.0233
 1510SOL     OW 5771   5.100   3.164   1.978 -0.7356 -0.0818 -0.0379
 1510SOL    HW2 5772   5.007   3.185   1.973 -0.9489 -1.1606 -0.7860
 1510SOL    HW3 5773   5.111   3.126   2.065 -0.7556  1.0894  0.4970
 1510SOL    MW4 5774   5.089   3.162   1.989 -0.3793 -0.0980 -0.1003
 1511SOL     OW 5775   1.323   3.077   0.977  0.0990  0.1897  0.2796
 1511SOL    HW2 5776   1.273   3.121   1.045  1.2723 -0.0329  1.3264
 1511SOL    HW3 5777   1.298   3.122   0.896 -4.0601 -1.7952  0.1773
 1511SOL    MW4 5778   1.313   3.089   0.975  0.4650 -0.3902 -0.4600
 1512SOL     OW 5779   5.156   3.026   1.740  0.2052 -0.1168 -0.2841
 1512SOL    HW2 5780   5.130   3.077   1.817 -0.7455 -0.0006 -0.6728
 1512SOL    HW3 5781   5.074   2.994   1.703  0.7397 -1.4622 -0.3799
 1512SOL    MW4 5782   5.142   3.029   1.745  0.0284 -0.6304 -0.5164
 1513SOL     OW 5783   2.287   5.926   3.269 -0.7249 -0.1776  0.2046
 1513SOL    HW2 5784   2.237   5.855   3.230 -1.4712  1.1023 -1.2794
 1513SOL    HW3 5785   2.234   6.004   3.255  0.4975  0.8339  0.9228
 1513SOL    MW4 5786   2.274   5.927   3.262  0.3929 -0.1735  0.0888
 1514SOL     OW 5787   4.288   4.135   3.121 -0.3909  0.1715  0.1597
 1514SOL    HW2 5788   4.353   4.065   3.126  1.1753  1.6427  2.9458
 1514SOL    HW3 5789   4.307   4.191   3.197 -2.1233  3.1312 -1.3811
 1514SOL    MW4 5790   4.299   4.133   3.132  0.0581 -0.0622  0.1385
 1515SOL     OW 5791   2.878   0.854   2.798  0.2198  0.0410  0.4678
 1515SOL    HW2 5792   2.959   0.843   2.849  1.1571 -0.7046 -1.0961
 1515SOL    HW3 5793   2.866   0.949   2.794  1.0966  0.1680  0.6068
 1515SOL    MW4 5794   2.887   0.865   2.804 -0.1318  0.1028 -0.2554
 1516SOL     OW 5795   3.630   2.969   4.798 -0.0720 -0.4645 -0.3816
 1516SOL    HW2 5796   3.550   2.937   4.839 -1.3446  1.0969 -1.5388
 1516SOL    HW3 5797   3.696   2.963   4.867 -1.2629 -1.3779  0.7292
 1516SOL    MW4 5798   3.628   2.964   4.812 -0.9418 -0.3675  0.8825
 1517SOL     OW 5799   3.266   5.567   4.151  0.0522  0.3276  0.7433
 1517SOL    HW2 5800   3.279   5.635   4.085 -0.6584 -1.2748 -1.1693
 1517SOL    HW3 5801   3.177   5.535   4.135  0.1579 -0.6515  1.9639
 1517SOL    MW4 5802   3.256   5.572   4.140 -0.3280 -0.1581 -0.5338
 1518SOL     OW 5803   3.425   5.566   5.300 -0.6763  0.6172 -0.2052
 1518SOL    HW2 5804   3.366   5.550   5.227  1.0397 -0.9486 -1.3366
 1518SOL    HW3 5805   3.503   5.604   5.260  0.7444 -1.2917  0.5817
 1518SOL    MW4 5806   3.427   5.569   5.285 -0.3096 -0.4918 -0.3424
 1519SOL     OW 5807   6.018   0.198   0.852  0.1726 -0.2387 -0.1136
 1519SOL    HW2 5808   6.082   0.268   0.835  1.2120 -1.3252 -0.8631
 1519SOL    HW3 5809   5.937   0.244   0.871  1.1653  1.2028  0.8708
 1519SOL    MW4 5810   6.016   0.213   0.852  0.0617 -0.1204  0.0374
 1520SOL     OW 5811   0.723   1.440   5.095  0.1814  0.1441 -0.3776
 1520SOL    HW2 5812   0.782   1.371   5.126  0.3378  0.9823  1.2813
 1520SOL    HW3 5813   0.635   1.408   5.117  0.2059  0.1590 -0.2590
 1520SOL    MW4 5814   0.719   1.427   5.102  0.2468 -0.5163 -0.3348
 1521SOL     OW 5815   5.230   0.633   2.144 -0.3555 -0.2857 -0.2457
 1521SOL    HW2 5816   5.227   0.719   2.187  0.1659  0.4905 -1.6898
 1521SOL    HW3 5817   5.178   0.576   2.201 -1.4949  1.2016  0.2782
 1521SOL    MW4 5818   5.223   0.637   2.157  0.4491 -0.1316 -0.2638
 1522SOL     OW 5819   5.661   5.924   0.189  0.3964  0.3830 -0.1426
 1522SOL    HW2 5820   5.567   5.941   0.200  0.6051  2.2151 -0.7572
 1522SOL    HW3 5821   5.678   5.947   0.098  1.9743  3.2655  0.7448
 1522SOL    MW4 5822   5.651   5.930   0.179  0.1846 -0.0462 -0.2296
 1523SOL     OW 5823   5.141   2.773   5.161  0.2688  0.6439  0.1317
 1523SOL    HW2 5824   5.162   2.793   5.070 -0.6699 -1.3585 -0.5798
 1523SOL    HW3 5825   5.072   2.836   5.184 -0.2959  0.4304 -0.9255
 1523SOL    MW4 5826   5.134   2.784   5.152 -0.3776 -0.5433  0.3965
 1524SOL     OW 5827   2.132   3.535   5.184 -0.2352 -0.1231  0.0782
 1524SOL    HW2 5828   2.187   3.468   5.144  1.2837  0.8811  0.3927
 1524SOL    HW3 5829   2.044   3.496   5.186  0.4577 -1.8045 -0.3709
 1524SOL    MW4 5830   2.127   3.521   5.179  0.6290  0.1033 -0.3323
 1525SOL     OW 5831   5.882   6.151   0.553  0.3235 -0.2554 -0.1875
 1525SOL    HW2 5832   5.884   6.153   0.457  2.1578 -1.8804 -0.2431
 1525SOL    HW3 5833   5.848   6.064   0.574  0.0677  0.0387  0.6552
 1525SOL    MW4 5834   5.878   6.140   0.543 -0.0279  0.1371  0.4594
 1526SOL     OW 5835   5.536   4.128   5.551 -0.3872 -0.6320  0.4009
 1526SOL    HW2 5836   5.470   4.187   5.514  0.9502  0.2691 -0.6477
 1526SOL    HW3 5837   5.510   4.041   5.519 -0.0263 -0.0422 -1.6697
 1526SOL    MW4 5838   5.524   4.124   5.542  0.0447  0.3747  0.7161
 1527SOL     OW 5839   1.683   0.033   2.842  0.5291  0.1104 -0.1403
 1527SOL    HW2 5840   1.664   0.111   2.895  2.4208 -0.2298  1.1531
 1527SOL    HW3 5841   1.767   0.002   2.876  0.0484 -2.2323 -0.9653
 1527SOL    MW4 5842   1.692   0.039   2.854 -0.0163 -0.3764 -0.7046
 1528SOL     OW 5843   4.705   4.232   6.384 -0.2152  0.1316 -0.4345
 1528SOL    HW2 5844   4.779   4.174   6.404  0.4407  0.8060 -0.8432
 1528SOL    HW3 5845   4.703   4.235   6.289 -0.1408  0.8942 -0.4178
 1528SOL    MW4 5846   4.715   4.225   6.374 -0.1175  0.8516 -0.4482
 1529SOL     OW 5847   4.694   1.530   0.240  0.5386 -0.0056 -0.0944
 1529SOL    HW2 5848   4.650   1.489   0.314  0.2884  1.0873  0.3800
 1529SOL    HW3 5849   4.624   1.558   0.181  0.5988  1.2223  0.3889
 1529SOL    MW4 5850   4.679   1.528   0.242  0.4611 -0.2475 -0.6603
 1530SOL     OW 5851   1.480   5.873   3.472 -0.4298  0.3168 -0.1617
 1530SOL    HW2 5852   1.556   5.910   3.427 -0.7757  0.2068 -0.8530
 1530SOL    HW3 5853   1.423   5.843   3.401 -1.1285  0.4250  0.3457
 1530SOL    MW4 5854   1.483   5.874   3.457  0.2392 -0.5972 -0.5902
 1531SOL     OW 5855   1.545   5.704   1.709 -0.2902 -0.2047 -0.3101
 1531SOL    HW2 5856   1.463   5.666   1.675  0.3012 -0.3410 -1.6729
 1531SOL    HW3 5857   1.609   5.633   1.701 -0.4764 -0.8768  2.9160
 1531SOL    MW4 5858   1.542   5.689   1.703 -0.1734 -0.8033  0.6829
 1532SOL     OW 5859   5.339   0.657   0.228  0.4093 -0.5276  0.4865
 1532SOL    HW2 5860   5.309   0.613   0.149 -0.3368 -1.4249  1.2371
 1532SOL    HW3 5861   5.380   0.738   0.197 -0.7404 -0.3862 -0.7389
 1532SOL    MW4 5862   5.340   0.661   0.214  0.0517  0.1279 -0.2499
 1533SOL     OW 5863   1.019   1.194   1.879 -0.0031  0.0085  0.5996
 1533SOL    HW2 5864   1.112   1.200   1.855 -0.2798  0.7320 -0.3241
 1533SOL    HW3 5865   1.000   1.278   1.921 -0.3386  0.0212  0.4252
 1533SOL    MW4 5866   1.029   1.206   1.882 -0.3526 -0.1419 -0.1055
 1534SOL     OW 5867   1.834   1.227   4.580 -0.0896 -0.2942 -0.0050
 1534SOL    HW2 5868   1.850   1.280   4.659  1.0287 -1.0933  0.3314
 1534SOL    HW3 5869   1.897   1.261   4.516 -0.4623 -0.1686 -0.3103
 1534SOL    MW4 5870   1.845   1.239   4.582 -0.4069  0.0458 -0.2229
 1535SOL     OW 5871   0.759   4.479   4.520 -0.4606  0.1139 -0.3872
 1535SOL    HW2 5872   0.789   4.388   4.514  0.0572  0.3525 -1.9175
 1535SOL    HW3 5873   0.835   4.531   4.491 -0.4765  1.1016  1.2202
 1535SOL    MW4 5874   0.773   4.474   4.516  0.8148  0.7012  0.2485
 1536SOL     OW 5875   1.082   3.157   3.438 -0.0324 -0.1995 -0.0165
 1536SOL    HW2 5876   1.128   3.116   3.365  0.0546  0.0352 -0.0946
 1536SOL    HW3 5877   1.136   3.233   3.461 -0.2712 -0.0414  0.0257
 1536SOL    MW4 5878   1.095   3.162   3.432 -0.3429 -0.5911  0.0311
 1537SOL     OW 5879   4.663   6.289   0.016  0.3217 -0.2658 -0.1841
 1537SOL    HW2 5880   4.657   6.375  -0.027 -1.8341 -0.2659  0.0040
 1537SOL    HW3 5881   4.641   6.307   0.107  0.3473 -0.9289 -0.0458
 1537SOL    MW4 5882   4.659   6.303   0.022  0.1189  0.2823 -0.7296
 1538SOL     OW 5883   6.136   1.392   5.570 -0.0311  0.3455 -0.0350
 1538SOL    HW2 5884   6.106   1.453   5.503  1.5089  0.3976 -0.7200
 1538SOL    HW3 5885   6.091   1.310   5.548  2.1896 -0.3082 -2.6571
 1538SOL    MW4 5886   6.126   1.389   5.558 -0.1027 -0.2855  0.6338
 1539SOL     OW 5887   3.688   3.767   0.176 -0.5021  0.0651 -0.8669
 1539SOL    HW2 5888   3.721   3.803   0.094 -0.1653  1.2611 -0.2251
 1539SOL    HW3 5889   3.689   3.840   0.238  0.0488 -1.0021  0.4506
 1539SOL    MW4 5890   3.692   3.781   0.174  0.5114 -0.4791  0.5159
 1540SOL     OW 5891   0.720   5.293   6.330  0.3459 -0.1594  0.5149
 1540SOL    HW2 5892   0.665   5.325   6.401  0.2402 -1.9377  1.2831
 1540SOL    HW3 5893   0.665   5.302   6.251 -1.3396 -2.4160  1.3319
 1540SOL    MW4 5894   0.705   5.299   6.329 -0.7653 -0.1652  0.3692
 1541SOL     OW 5895   6.348   4.375   0.842  0.3906  0.1153 -0.2173
 1541SOL    HW2 5896   6.381   4.290   0.868  0.3081  0.7571  2.1625
 1541SOL    HW3 5897   6.425   4.432   0.842  0.3291  0.2281 -1.1345
 1541SOL    MW4 5898   6.363   4.372   0.845  0.3787 -0.5004  0.0010
 1542SOL     OW 5899   0.426   5.483   2.213 -0.2062 -0.0116  0.2426
 1542SOL    HW2 5900   0.387   5.409   2.258  0.0780  0.1792  0.8148
 1542SOL    HW3 5901   0.395   5.560   2.261  0.3258  0.1789  0.2980
 1542SOL    MW4 5902   0.417   5.483   2.226 -0.0673  0.7801  0.2463
 1543SOL     OW 5903   3.931   4.306   5.882  0.3322 -0.1488  0.5539
 1543SOL    HW2 5904   4.014   4.303   5.835  1.2543  1.3575  1.9697
 1543SOL    HW3 5905   3.871   4.253   5.830  1.9536 -0.5634 -0.9516
 1543SOL    MW4 5906   3.934   4.299   5.869 -0.0258 -0.1320 -0.6043
 1544SOL     OW 5907   1.574   2.101   3.762 -0.3127 -0.1731 -0.1016
 1544SOL    HW2 5908   1.586   2.164   3.832  0.4080 -0.8581  0.4107
 1544SOL    HW3 5909   1.601   2.147   3.683 -2.3076  1.0320 -0.1597
 1544SOL    MW4 5910   1.579   2.115   3.761  0.1858 -0.2042  0.4013
 1545SOL     OW 5911   5.607   2.154   5.952 -0.2484  0.5650 -0.1500
 1545SOL    HW2 5912   5.611   2.083   6.016 -1.4832  0.0104 -0.6427
 1545SOL    HW3 5913   5.529   2.135   5.900 -0.1830  1.8817 -0.7843
 1545SOL    MW4 5914   5.597   2.142   5.954 -1.0710 -0.2292 -0.9570
 1546SOL     OW 5915   5.560   2.358   4.260 -0.1047  0.1512  0.3655
 1546SOL    HW2 5916   5.494   2.397   4.318 -0.0046 -0.2357  0.7385
 1546SOL    HW3 5917   5.636   2.415   4.270 -0.6844  1.1854 -0.8169
 1546SOL    MW4 5918   5.561   2.371   4.269 -0.3789  0.2673  0.2623
 1547SOL     OW 5919   3.352   4.020   2.697  0.0739  0.7624 -0.0767
 1547SOL    HW2 5920   3.317   3.964   2.766 -0.0763  1.8403  0.7481
 1547SOL    HW3 5921   3.324   4.109   2.721 -0.2480  1.1317 -1.6860
 1547SOL    MW4 5922   3.343   4.025   2.709 -0.4589 -0.1215 -0.2660
 1548SOL     OW 5923   2.640   4.533   5.782 -0.1521 -0.1219 -0.1645
 1548SOL    HW2 5924   2.670   4.455   5.829  1.5665 -0.0568 -1.0650
 1548SOL    HW3 5925   2.602   4.499   5.701 -2.7216 -0.2055  0.9735
 1548SOL    MW4 5926   2.639   4.518   5.778 -0.0527  0.2388 -0.1875
 1549SOL     OW 5927   6.002   0.057   2.096 -0.1591  0.2838  0.7036
 1549SOL    HW2 5928   5.985   0.109   2.175 -2.4232  2.9048 -1.3505
 1549SOL    HW3 5929   5.929  -0.004   2.091 -0.6016  0.8562  0.0885
 1549SOL    MW4 5930   5.990   0.056   2.106  0.4721  0.1313  0.0570
 1550SOL     OW 5931   4.974   3.425   3.144 -0.0037 -0.0457 -0.6608
 1550SOL    HW2 5932   5.013   3.343   3.175  1.5148  1.3105  1.1899
 1550SOL    HW3 5933   4.894   3.435   3.196  0.1178 -0.0481 -0.4750
 1550SOL    MW4 5934   4.969   3.415   3.155  0.6088 -0.1550 -0.2054
 1551SOL     OW 5935   5.436   1.201   2.218 -0.9258 -0.2931 -0.1353
 1551SOL    HW2 5936   5.520   1.159   2.237 -1.6431 -1.1828  1.2181
 1551SOL    HW3 5937   5.376   1.164   2.283 -1.9684  1.6201  0.0577
 1551SOL    MW4 5938   5.439   1.191   2.229  0.1942  0.4694 -0.2577
 1552SOL     OW 5939   1.455   4.265   2.519  0.3394 -0.1168  0.1700
 1552SOL    HW2 5940   1.413   4.218   2.591 -0.6290  0.2115 -0.1644
 1552SOL    HW3 5941   1.543   4.286   2.552  0.8549 -2.2491  0.2828
 1552SOL    MW4 5942   1.461   4.262   2.533  0.3840 -0.1262  0.4381
 1553SOL     OW 5943   0.124   4.883   5.216  0.2638  0.2640 -0.5052
 1553SOL    HW2 5944   0.202   4.937   5.204  0.4134 -0.2522 -2.2208
 1553SOL    HW3 5945   0.153   4.812   5.274  0.3150  1.4722  0.9928
 1553SOL    MW4 5946   0.138   4.881   5.222  0.2301  0.2214 -0.2782
 1554SOL     OW 5947   0.857   5.257   1.356 -0.0730 -0.1318  0.0288
 1554SOL    HW2 5948   0.833   5.211   1.437  0.1853 -0.6727 -0.1931
 1554SOL    HW3 5949   0.783   5.241   1.297  0.4259 -1.0652 -0.3628
 1554SOL    MW4 5950   0.844   5.249   1.359 -0.1992 -0.2610 -0.2706
 1555SOL     OW 5951   2.998   2.562   4.763  0.4382 -0.3465  0.5712
 1555SOL    HW2 5952   2.905   2.545   4.751 -0.0968  2.7359 -0.6636
 1555SOL    HW3 5953   3.037   2.542   4.678  0.8634 -1.2728  0.9737
 1555SOL    MW4 5954   2.991   2.557   4.750  0.2884 -0.1889 -0.3511
 1556SOL     OW 5955   0.641   0.949   2.266 -0.0881 -0.4463 -0.5512
 1556SOL    HW2 5956   0.712   0.896   2.303 -0.4722  0.3665  1.4923
 1556SOL    HW3 5957   0.684   1.027   2.232  0.1048 -0.3753 -0.1528
 1556SOL    MW4 5958   0.656   0.952   2.266 -0.8488  0.1704  0.0224
 1557SOL     OW 5959   5.726   4.110   3.915 -0.0931 -0.2608 -0.3844
 1557SOL    HW2 5960   5.682   4.163   3.983  2.6264  1.2174  0.3555
 1557SOL    HW3 5961   5.787   4.055   3.964 -0.2155 -1.3899 -1.4636
 1557SOL    MW4 5962   5.728   4.110   3.931  0.3835  0.1905 -0.2897
 1558SOL     OW 5963   4.858   2.909   0.653  0.2312  0.4390 -0.0011
 1558SOL    HW2 5964   4.952   2.892   0.650  0.0826 -0.5098  0.3090
 1558SOL    HW3 5965   4.851   3.004   0.666  1.1568  0.4196  0.7587
 1558SOL    MW4 5966   4.869   2.919   0.655 -0.0634  0.2572 -0.0461
 1559SOL     OW 5967   5.548   3.904   2.544 -0.0137 -0.5023  0.3919
 1559SOL    HW2 5968   5.551   3.948   2.459  2.1005 -0.9175  0.2077
 1559SOL    HW3 5969   5.570   3.971   2.608  0.6669 -0.6979  0.3691
 1559SOL    MW4 5970   5.551   3.918   2.541 -0.0065 -0.1037  0.1450
 1560SOL     OW 5971   2.598   4.175   3.115 -0.4292 -0.5158  0.1464
 1560SOL    HW2 5972   2.544   4.097   3.133 -1.1340  0.4438  2.6782
 1560SOL    HW3 5973   2.554   4.218   3.042 -0.6048 -1.9305 -0.6292
 1560SOL    MW4 5974   2.585   4.170   3.108  0.3832 -0.3651  0.2922
 1561SOL     OW 5975   0.772   0.140   4.343 -0.3228 -0.2340 -0.0378
 1561SOL    HW2 5976   0.743   0.049   4.331  1.5929 -0.7608 -0.9710
 1561SOL    HW3 5977   0.807   0.142   4.432 -1.0801 -0.1901  0.2666
 1561SOL    MW4 5978   0.773   0.128   4.353 -0.3515 -0.3347  0.1788
 1562SOL     OW 5979   3.436   5.104   5.356 -0.5313 -0.1985  0.0452
 1562SOL    HW2 5980   3.501   5.088   5.424 -0.0877  3.1675  0.5793
 1562SOL    HW3 5981   3.483   5.154   5.289 -2.5051  2.6107  0.5966
 1562SOL    MW4 5982   3.451   5.108   5.356  0.6032  0.3700  0.2110
 1563SOL     OW 5983   3.049   0.662   0.180  0.0112  0.1448 -0.4074
 1563SOL    HW2 5984   3.095   0.627   0.257 -1.2969 -0.7475  0.0055
 1563SOL    HW3 5985   3.087   0.614   0.106 -1.7509 -2.2844  0.1516
 1563SOL    MW4 5986   3.060   0.651   0.181  0.3498  0.3391  0.3366
 1564SOL     OW 5987   1.156   0.409   5.001  0.0004 -0.3544 -0.1351
 1564SOL    HW2 5988   1.246   0.416   5.035  0.2708  0.3773 -0.9597
 1564SOL    HW3 5989   1.165   0.420   4.906 -1.2127  2.6207 -0.0212
 1564SOL    MW4 5990   1.169   0.411   4.993  0.0588 -0.1026 -0.0610
 1565SOL     OW 5991   2.939   4.269   3.667 -0.1556  0.2005 -0.3028
 1565SOL    HW2 5992   2.910   4.256   3.577 -0.4554  0.6518 -0.2782
 1565SOL    HW3 5993   2.949   4.364   3.675  1.8216  0.0495 -0.4550
 1565SOL    MW4 5994   2.936   4.280   3.656  0.0263  0.0537  0.1707
 1566SOL     OW 5995   5.046   2.083   1.582 -0.2066 -1.0025 -0.2902
 1566SOL    HW2 5996   5.109   2.139   1.538 -0.1887 -2.2163 -1.9262
 1566SOL    HW3 5997   4.998   2.141   1.640 -1.5087  1.1857 -3.2975
 1566SOL    MW4 5998   5.048   2.098   1.584 -0.1240  0.0496 -0.3817
 1567SOL     OW 5999   4.828   4.746   1.982  0.1641  0.6823 -0.2594
 1567SOL    HW2 6000   4.847   4.813   1.916  1.0813 -0.4700 -1.2028
 1567SOL    HW3 6001   4.847   4.789   2.065  1.0325  1.5094 -0.8590
 1567SOL    MW4 6002   4.833   4.761   1.984 -0.4476  0.3396  0.1845
 1568SOL     OW 6003   2.843   0.581   1.202  0.3343  0.7565  0.1047
 1568SOL    HW2 6004   2.853   0.537   1.286 -2.5559 -0.9301 -0.2854
 1568SOL    HW3 6005   2.787   0.656   1.219 -0.6843  0.1201 -0.3540
 1568SOL    MW4 6006   2.837   0.585   1.215 -0.1849  0.3440  0.6024
 1569SOL     OW 6007   1.265   5.825   3.637  0.0639  0.6431  0.1330
 1569SOL    HW2 6008   1.346   5.851   3.593  0.0437 -0.2645 -0.4912
 1569SOL    HW3 6009   1.220   5.770   3.572 -0.1684 -0.3955  1.1408
 1569SOL    MW4 6010   1.269   5.821   3.622  0.1629 -0.1365 -0.2551
 1570SOL     OW 6011   0.821   0.879   5.836 -0.4712  0.1182 -0.1360
 1570SOL    HW2 6012   0.739   0.833   5.820 -1.6240  1.9636  0.1855
 1570SOL    HW3 6013   0.827   0.942   5.765  1.6316 -1.1563 -1.1918
 1570SOL    MW4 6014   0.811   0.881   5.825 -0.1360  0.5339  0.0407
 1571SOL     OW 6015   2.875   1.688   2.616 -0.0614  0.2445 -0.2643
 1571SOL    HW2 6016   2.813   1.635   2.565 -1.8265  1.5076  0.4964
 1571SOL    HW3 6017   2.935   1.624   2.654 -2.3960 -1.3440  1.0099
 1571SOL    MW4 6018   2.875   1.672   2.614  0.1967 -0.6484  0.0171
 1572SOL     OW 6019   5.847   1.931   3.562 -0.0781 -0.2966 -0.0838
 1572SOL    HW2 6020   5.775   1.956   3.504 -1.6414 -0.0103  1.8833
 1572SOL    HW3 6021   5.871   2.011   3.607  0.0880 -0.7982  0.7428
 1572SOL    MW4 6022   5.840   1.945   3.560  0.0312 -0.4358  0.5881
 1573SOL     OW 6023   6.133   2.217   6.124  0.3391 -1.3832 -0.6444
 1573SOL    HW2 6024   6.085   2.134   6.134  1.0384 -1.8204 -0.8487
 1573SOL    HW3 6025   6.110   2.248   6.037 -0.9696 -0.6687 -0.0791
 1573SOL    MW4 6026   6.124   2.210   6.114 -0.3151 -0.2665 -0.4017
 1574SOL     OW 6027   0.446   2.939   4.362 -0.0440 -0.4313 -0.6293
 1574SOL    HW2 6028   0.417   3.025   4.394  3.3633  0.8709 -0.5552
 1574SOL    HW3 6029   0.434   2.880   4.436 -0.7079  0.4290 -0.0319
 1574SOL    MW4 6030   0.441   2.943   4.376 -0.6212 -0.6221  0.3565
 1575SOL     OW 6031   0.273   0.863   5.029 -0.1362  0.2040 -0.1275
 1575SOL    HW2 6032   0.330   0.875   4.953  0.5444  1.4434  0.5685
 1575SOL    HW3 6033   0.323   0.806   5.088 -0.2675  0.0222 -0.1913
 1575SOL    MW4 6034   0.287   0.857   5.027  0.1698 -0.2219 -0.1070
 1576SOL     OW 6035   0.366   3.222   3.728  0.4188 -0.1038  0.3363
 1576SOL    HW2 6036   0.363   3.213   3.632  0.1857  0.2981  0.3026
 1576SOL    HW3 6037   0.447   3.269   3.744  0.0250  0.6105  0.2668
 1576SOL    MW4 6038   0.376   3.227   3.717  0.6809 -0.5567  0.0914
 1577SOL     OW 6039   3.383   3.587   0.978  0.0847 -0.2586  0.0913
 1577SOL    HW2 6040   3.327   3.591   0.901  2.6650 -0.3106 -1.9443
 1577SOL    HW3 6041   3.399   3.494   0.991  0.1421 -0.2210  0.2917
 1577SOL    MW4 6042   3.378   3.575   0.969 -0.0707 -0.2622 -1.0532
 1578SOL     OW 6043   2.975   5.217   4.836 -0.6106  0.8331  0.1351
 1578SOL    HW2 6044   3.062   5.251   4.818 -1.1791  2.4610  0.2804
 1578SOL    HW3 6045   2.928   5.222   4.753 -0.7401  0.4735  0.1810
 1578SOL    MW4 6046   2.980   5.222   4.823 -0.2361 -0.6468  0.4796
 1579SOL     OW 6047   2.444   2.104   4.892 -0.1237  0.2066 -0.1402
 1579SOL    HW2 6048   2.453   2.150   4.809 -1.3871 -0.5987 -0.7712
 1579SOL    HW3 6049   2.454   2.011   4.869  0.5151  0.0340  0.7814
 1579SOL    MW4 6050   2.446   2.098   4.878 -0.2014  0.9066  0.2591
 1580SOL     OW 6051   5.624   2.172   3.155  0.6171 -0.5281 -0.7268
 1580SOL    HW2 6052   5.692   2.236   3.135  0.6425  0.2711  1.6133
 1580SOL    HW3 6053   5.661   2.116   3.223  0.0058 -2.0309 -1.5845
 1580SOL    MW4 6054   5.638   2.173   3.161  0.2803 -0.0950  0.4058
 1581SOL     OW 6055   6.060   5.063   3.419 -0.0902  0.2804  0.1602
 1581SOL    HW2 6056   6.058   5.121   3.343 -1.3239 -0.0454 -0.0798
 1581SOL    HW3 6057   6.117   4.991   3.394  1.8910  1.6068  0.6488
 1581SOL    MW4 6058   6.067   5.061   3.406  0.2960 -0.1038 -0.0513
 1582SOL     OW 6059   0.535   2.930   6.024 -0.0319  0.3406 -0.6668
 1582SOL    HW2 6060   0.579   2.919   6.108 -0.3608  0.1251 -0.5194
 1582SOL    HW3 6061   0.597   2.978   5.970  0.2521  0.3224 -0.3570
 1582SOL    MW4 6062   0.549   2.935   6.028 -0.4987  0.9456 -0.1937
 1583SOL     OW 6063   3.638   2.758   1.722  0.3495 -0.1926 -0.2731
 1583SOL    HW2 6064   3.569   2.788   1.781 -1.9521 -3.8227 -0.8070
 1583SOL    HW3 6065   3.598   2.760   1.635  0.9411 -2.1690 -0.6345
 1583SOL    MW4 6066   3.624   2.763   1.719 -0.0580 -0.4372  1.2470
 1584SOL     OW 6067   4.301   2.227   2.739  0.1043  0.0377 -0.4462
 1584SOL    HW2 6068   4.219   2.178   2.743 -0.0431  0.3343  0.6663
 1584SOL    HW3 6069   4.275   2.317   2.721  0.1477  0.1727  0.1203
 1584SOL    MW4 6070   4.287   2.232   2.737 -0.5711  0.2672  0.7444
 1585SOL     OW 6071   2.851   4.757   4.437 -0.2223  0.1478 -0.4405
 1585SOL    HW2 6072   2.784   4.693   4.463  1.5556 -1.7342 -0.1882
 1585SOL    HW3 6073   2.883   4.725   4.353  1.5498 -0.0229  0.2601
 1585SOL    MW4 6074   2.846   4.744   4.430  0.3062 -0.0937  0.1760
 1586SOL     OW 6075   1.043   1.107   4.557  0.1078  0.2473  0.8623
 1586SOL    HW2 6076   1.114   1.142   4.611  0.7161 -0.6114  0.6296
 1586SOL    HW3 6077   1.044   1.162   4.478  1.3360 -0.5405  0.3114
 1586SOL    MW4 6078   1.053   1.119   4.554  0.2587 -0.5447 -0.5690
 1587SOL     OW 6079   1.225   0.167   6.019 -0.5425  0.2905  0.0965
 1587SOL    HW2 6080   1.244   0.261   6.014 -0.6440  0.3701  0.9768
 1587SOL    HW3 6081   1.295   0.132   6.074  0.4042 -0.4318 -1.5037
 1587SOL    MW4 6082   1.237   0.175   6.026  0.3202 -0.6317  0.4566
 1588SOL     OW 6083   3.072   3.170   2.528  0.1649 -0.2132 -0.3212
 1588SOL    HW2 6084   2.991   3.213   2.502 -0.1049 -0.6051 -0.1436
 1588SOL    HW3 6085   3.139   3.209   2.472 -0.0945  0.3352 -0.2520
 1588SOL    MW4 6086   3.070   3.181   2.517 -0.0506  0.9583  0.1469
 1589SOL     OW 6087   5.536   2.414   3.959  0.6294  0.1300 -0.1287
 1589SOL    HW2 6088   5.581   2.498   3.957 -0.2326  0.6024  0.0169
 1589SOL    HW3 6089   5.539   2.387   4.050  1.9290 -0.5775 -0.3535
 1589SOL    MW4 6090   5.542   2.421   3.971 -0.1842 -0.3079  0.5147
 1590SOL     OW 6091   6.089   1.815   5.511  0.0164 -0.0014 -0.4942
 1590SOL    HW2 6092   6.123   1.902   5.494 -1.8672  0.8655 -0.0874
 1590SOL    HW3 6093   5.994   1.826   5.511 -0.2597 -2.0170 -0.2270
 1590SOL    MW4 6094   6.081   1.828   5.509  0.5854 -0.2406  0.8898
 1591SOL     OW 6095   2.093   1.283   2.544  0.3523 -0.4732 -0.6597
 1591SOL    HW2 6096   2.004   1.254   2.523  0.2053 -0.1788 -0.4537
 1591SOL    HW3 6097   2.095   1.375   2.518 -0.3610  0.4088  2.0819
 1591SOL    MW4 6098   2.082   1.291   2.538 -0.3645  0.3904 -0.7684
 1592SOL     OW 6099   3.112   1.655   5.144 -0.4530  0.0885  0.4076
 1592SOL    HW2 6100   3.171   1.592   5.185  0.6892  0.5936 -0.4284
 1592SOL    HW3 6101   3.027   1.638   5.185 -0.2733 -2.2308 -0.0641
 1592SOL    MW4 6102   3.108   1.644   5.155 -0.0580 -0.7503 -0.0692
 1593SOL     OW 6103   1.056   5.778   0.246 -0.0568 -0.3285  0.3280
 1593SOL    HW2 6104   1.106   5.738   0.175 -0.4821 -1.2036  0.5145
 1593SOL    HW3 6105   0.979   5.815   0.204 -0.3858 -0.9820  0.3573
 1593SOL    MW4 6106   1.053   5.778   0.231 -0.0120 -0.3806  0.3379
 1594SOL     OW 6107   1.461   4.606   2.776 -0.7324  0.1989  0.0903
 1594SOL    HW2 6108   1.409   4.686   2.778 -0.6961  0.2952  3.2229
 1594SOL    HW3 6109   1.399   4.537   2.797 -0.4951 -0.4390 -1.2086
 1594SOL    MW4 6110   1.446   4.608   2.779 -0.5987  0.1282 -0.5719
 1595SOL     OW 6111   5.976   4.359   2.431 -0.0524  0.5373 -0.6340
 1595SOL    HW2 6112   6.018   4.297   2.373 -1.5569 -1.6389  0.4665
 1595SOL    HW3 6113   5.883   4.354   2.410 -0.4749  0.7187  0.9978
 1595SOL    MW4 6114   5.969   4.350   2.421 -0.0957 -0.6881  0.6881
 1596SOL     OW 6115   5.532   1.467   6.103 -0.5616 -0.1580  0.2924
 1596SOL    HW2 6116   5.498   1.379   6.119  0.3779 -0.6448 -0.3334
 1596SOL    HW3 6117   5.582   1.489   6.182  0.8972 -1.0255 -0.3511
 1596SOL    MW4 6118   5.534   1.459   6.116  0.1987  0.6708  0.0389
 1597SOL     OW 6119   5.944   2.694   0.101  0.6241  0.0704  0.3813
 1597SOL    HW2 6120   5.998   2.722   0.175 -0.0331  1.8688  0.2292
 1597SOL    HW3 6121   5.890   2.623   0.136  0.7562  0.4840  1.4477
 1597SOL    MW4 6122   5.944   2.688   0.116  0.7234 -0.1445 -0.9412
 1598SOL     OW 6123   5.322   4.316   5.525 -0.0570  0.0020 -0.1513
 1598SOL    HW2 6124   5.368   4.338   5.444 -0.2080  1.3202  0.0930
 1598SOL    HW3 6125   5.380   4.345   5.595  0.2187 -1.4381  0.2327
 1598SOL    MW4 6126   5.336   4.323   5.524 -0.3736  0.1595 -0.0475
 1599SOL     OW 6127   0.611   4.169   1.187 -0.7422  0.0568  0.2846
 1599SOL    HW2 6128   0.660   4.228   1.130 -0.0196  1.6236  2.4071
 1599SOL    HW3 6129   0.529   4.153   1.140 -0.1514  1.1940 -1.2139
 1599SOL    MW4 6130   0.607   4.175   1.173  0.1115  0.0419  0.5372
 1600SOL     OW 6131   2.400   5.948   1.622  0.5905 -0.4373 -0.2950
 1600SOL    HW2 6132   2.478   5.962   1.567  0.4438  0.2504 -0.3298
 1600SOL    HW3 6133   2.328   5.940   1.559  0.7710 -2.1950 -0.3278
 1600SOL    MW4 6134   2.401   5.948   1.606  0.4486  0.0808  0.2997
 1601SOL     OW 6135   5.460   4.192   1.195 -0.0146  0.4111  0.1140
 1601SOL    HW2 6136   5.382   4.139   1.179 -0.4654  1.2168 -0.4058
 1601SOL    HW3 6137   5.518   4.134   1.245 -0.4894 -0.5679 -0.4347
 1601SOL    MW4 6138   5.458   4.177   1.199 -0.2575 -0.1879 -0.7471
 1602SOL     OW 6139   0.304   1.876   2.226  0.0014  0.0383  0.2877
 1602SOL    HW2 6140   0.384   1.896   2.275  1.2896 -2.1771 -0.7394
 1602SOL    HW3 6141   0.260   1.960   2.216  1.4708  1.1027  2.1285
 1602SOL    MW4 6142   0.309   1.889   2.231  0.3346  0.3604 -0.1086
 1603SOL     OW 6143   1.606   3.003   1.907 -0.0947  0.1865 -0.6850
 1603SOL    HW2 6144   1.622   2.909   1.920 -1.7631  0.0605  0.9066
 1603SOL    HW3 6145   1.567   3.009   1.820 -2.4767 -0.9973  0.2253
 1603SOL    MW4 6146   1.603   2.991   1.897 -0.2648 -0.2175  0.2673
 1604SOL     OW 6147   4.376   5.086   6.076  0.7146 -0.0794 -1.1806
 1604SOL    HW2 6148   4.467   5.058   6.084  1.1578  1.7228  1.5793
 1604SOL    HW3 6149   4.381   5.182   6.075 -1.1805  0.0972  0.4904
 1604SOL    MW4 6150   4.389   5.095   6.077 -0.1763 -0.0062 -0.2368
 1605SOL     OW 6151   3.252   1.602   1.460  0.2512  0.8447 -0.3731
 1605SOL    HW2 6152   3.227   1.588   1.552 -0.4886 -0.5628 -0.7602
 1605SOL    HW3 6153   3.186   1.661   1.425 -0.2148  0.3420 -0.3394
 1605SOL    MW4 6154   3.240   1.608   1.468  0.4361  0.0881 -0.0237
 1606SOL     OW 6155   2.561   4.410   0.789 -0.6359 -0.0564  0.5684
 1606SOL    HW2 6156   2.540   4.337   0.846 -0.4254 -0.5019  0.0869
 1606SOL    HW3 6157   2.488   4.414   0.727 -1.3570  1.0440  1.4464
 1606SOL    MW4 6158   2.549   4.401   0.788  0.5693 -0.1735 -0.0611
 1607SOL     OW 6159   2.493   1.412   1.885 -0.1847 -0.9096  0.6020
 1607SOL    HW2 6160   2.463   1.321   1.882 -0.3494 -0.8390 -0.2980
 1607SOL    HW3 6161   2.588   1.406   1.878 -0.2825 -0.9745 -1.3344
 1607SOL    MW4 6162   2.501   1.399   1.883  0.0582  0.2786  0.3148
 1608SOL     OW 6163   2.942   6.005   3.267  0.0650 -0.3867  0.2096
 1608SOL    HW2 6164   2.887   5.947   3.214  1.5758 -0.6957 -1.1011
 1608SOL    HW3 6165   3.007   5.947   3.306  2.2237  0.4215 -1.9193
 1608SOL    MW4 6166   2.943   5.990   3.265 -0.1729  0.6064 -0.0761
 1609SOL     OW 6167   6.324   2.776   0.540  0.2790 -0.4209  0.4693
 1609SOL    HW2 6168   6.400   2.776   0.598  0.9410  0.5837 -0.3446
 1609SOL    HW3 6169   6.361   2.782   0.452 -0.7175 -1.3189 -0.0393
 1609SOL    MW4 6170   6.339   2.777   0.536 -0.1272  0.2259 -0.5346
 1610SOL     OW 6171   1.352   4.842   2.484  0.2438 -0.5983  0.0377
 1610SOL    HW2 6172   1.390   4.826   2.570 -0.1734 -1.2217  0.1114
 1610SOL    HW3 6173   1.359   4.937   2.472  0.9088 -0.5866  0.4676
 1610SOL    MW4 6174   1.358   4.852   2.494 -0.0065  0.1999  0.4199
 1611SOL     OW 6175   1.093   3.645   3.352 -0.0449 -0.5421 -0.4266
 1611SOL    HW2 6176   1.025   3.599   3.302 -1.2258  1.5325 -0.8314
 1611SOL    HW3 6177   1.090   3.735   3.320  0.5085  0.4257  2.0194
 1611SOL    MW4 6178   1.084   3.651   3.341 -0.3311 -0.1471  0.4266
 1612SOL     OW 6179   3.465   6.186   0.320  0.2168 -0.5160  0.3356
 1612SOL    HW2 6180   3.456   6.206   0.413  0.2302  1.4666 -0.0424
 1612SOL    HW3 6181   3.402   6.243   0.277  2.3229  0.9338 -1.0590
 1612SOL    MW4 6182   3.456   6.196   0.327  0.0426  0.0488 -0.3925
 1613SOL     OW 6183   4.084   2.604   1.289 -0.1668 -0.4689 -0.8105
 1613SOL    HW2 6184   4.089   2.619   1.195 -1.2269 -0.6539 -0.9173
 1613SOL    HW3 6185   3.994   2.572   1.303  0.2210 -1.1728  0.1609
 1613SOL    MW4 6186   4.073   2.602   1.278  0.2678  0.7669 -0.8911
 1614SOL     OW 6187   6.100   3.582   3.806 -0.1148  0.2630  0.7560
 1614SOL    HW2 6188   6.079   3.498   3.848 -1.5383  0.4230  0.4085
 1614SOL    HW3 6189   6.029   3.596   3.743  1.3828  0.5677 -0.9447
 1614SOL    MW4 6190   6.088   3.573   3.803 -0.3324 -0.3219  0.8364
 1615SOL     OW 6191   3.684   3.294   1.968  0.0106 -0.1753  0.3142
 1615SOL    HW2 6192   3.777   3.313   1.984  0.2368  0.8831 -1.9347
 1615SOL    HW3 6193   3.638   3.366   2.011  0.2831 -0.0532  0.4092
 1615SOL    MW4 6194   3.690   3.306   1.976 -0.0472 -0.7204 -0.1310
 1616SOL     OW 6195   0.507   5.448   0.443 -0.3212  0.1316 -0.1108
 1616SOL    HW2 6196   0.571   5.421   0.378  1.5048 -0.7592  1.9440
 1616SOL    HW3 6197   0.556   5.454   0.525 -3.0777 -2.0044  1.9116
 1616SOL    MW4 6198   0.522   5.445   0.445  0.0287 -0.3237  0.0465
 1617SOL     OW 6199   1.590   0.483   5.661 -0.2079  0.2381 -0.2512
 1617SOL    HW2 6200   1.534   0.420   5.616 -0.9634  0.6313  0.0997
 1617SOL    HW3 6201   1.539   0.509   5.738  0.4777  0.5951  0.0953
 1617SOL    MW4 6202   1.576   0.478   5.665 -0.2616 -0.5176  0.0827
 1618SOL     OW 6203   0.839   1.746   4.748  0.5607 -0.4852  0.1984
 1618SOL    HW2 6204   0.872   1.665   4.709 -0.2488  0.2999 -2.3310
 1618SOL    HW3 6205   0.895   1.814   4.710 -3.0993  0.8051 -3.6255
 1618SOL    MW4 6206   0.851   1.744   4.738 -0.5771  0.6812 -0.7488
 1619SOL     OW 6207   6.282   4.878   3.352 -0.5916 -0.1324 -0.1420
 1619SOL    HW2 6208   6.243   4.818   3.415 -0.1477  0.0506  0.3152
 1619SOL    HW3 6209   6.354   4.919   3.399 -0.2420 -0.0030 -0.7745
 1619SOL    MW4 6210   6.286   4.875   3.366  0.0922 -0.8219 -0.3598
 1620SOL     OW 6211   1.682   4.790   5.486 -0.1295 -0.0358  0.4992
 1620SOL    HW2 6212   1.600   4.818   5.445 -0.3040 -2.3446 -0.9549
 1620SOL    HW3 6213   1.751   4.828   5.431 -0.2231  1.2758  1.2705
 1620SOL    MW4 6214   1.680   4.799   5.473 -0.0083  0.2281  0.2258
 1621SOL     OW 6215   1.155   3.212   4.097  0.2351 -0.2531 -0.3037
 1621SOL    HW2 6216   1.141   3.149   4.027 -3.7271  2.0986 -1.9676
 1621SOL    HW3 6217   1.228   3.266   4.067 -0.2169 -0.4191 -1.7522
 1621SOL    MW4 6218   1.163   3.211   4.084  0.7797 -0.1435  0.9183
 1622SOL     OW 6219   4.363   0.082   0.395 -0.2571 -0.0985  0.7643
 1622SOL    HW2 6220   4.351   0.076   0.301 -0.9674 -0.1467  0.8480
 1622SOL    HW3 6221   4.435   0.143   0.407 -0.9392  0.8420  0.2083
 1622SOL    MW4 6222   4.371   0.089   0.384 -0.2387  0.8275  0.2614
 1623SOL     OW 6223   6.289   5.942   6.067 -0.2022 -0.4439 -0.6768
 1623SOL    HW2 6224   6.287   5.847   6.073 -0.0337 -0.5002 -1.4346
 1623SOL    HW3 6225   6.288   5.961   5.973 -1.5505  0.3342 -0.5461
 1623SOL    MW4 6226   6.288   5.932   6.056 -0.1568  0.4571  0.1431
 1624SOL     OW 6227   2.013   6.071   2.818 -0.9619  0.2088 -0.1056
 1624SOL    HW2 6228   1.926   6.053   2.783 -1.6842  0.6706  1.3721
 1624SOL    HW3 6229   2.073   6.032   2.755 -2.2673 -1.3821 -0.4210
 1624SOL    MW4 6230   2.010   6.064   2.805 -0.1907 -0.1815  0.8479
 1625SOL     OW 6231   1.491   0.923   6.116  0.0058 -0.0303  0.2639
 1625SOL    HW2 6232   1.509   0.844   6.167  0.4180 -0.3858 -0.4212
 1625SOL    HW3 6233   1.484   0.892   6.025 -0.4849  0.6259  0.0673
 1625SOL    MW4 6234   1.492   0.909   6.111  0.0059  0.6411  0.7034
 1626SOL     OW 6235   2.707   0.010   1.208 -0.0823 -0.4682 -0.5618
 1626SOL    HW2 6236   2.721   0.037   1.117 -0.9006 -1.0601 -0.8755
 1626SOL    HW3 6237   2.642  -0.060   1.202 -2.7808  1.6978  0.7222
 1626SOL    MW4 6238   2.700   0.004   1.195 -0.2025 -0.2159  0.1149
 1627SOL     OW 6239   4.322   5.754   5.923  0.5826 -1.0054 -0.2566
 1627SOL    HW2 6240   4.359   5.781   6.007  1.0306  0.3070 -0.8382
 1627SOL    HW3 6241   4.391   5.702   5.882  0.1414 -2.1454  0.4109
 1627SOL    MW4 6242   4.336   5.751   5.929 -0.0149 -0.4486 -0.2111
 1628SOL     OW 6243   0.910   5.458   3.851 -0.1206 -0.0910 -0.5646
 1628SOL    HW2 6244   0.911   5.491   3.761  1.2589 -0.1224 -0.5839
 1628SOL    HW3 6245   0.994   5.413   3.860 -1.0219 -1.6922  0.1679
 1628SOL    MW4 6246   0.921   5.456   3.840 -0.1616  0.2680  0.0562
 1629SOL     OW 6247   1.724   0.074   5.243 -0.6234 -0.3000  0.3437
 1629SOL    HW2 6248   1.798   0.024   5.278  0.2115  0.1467 -0.6981
 1629SOL    HW3 6249   1.726   0.055   5.149 -2.0164 -0.4888  0.3304
 1629SOL    MW4 6250   1.734   0.065   5.235 -0.1685 -0.1969 -0.4249
 1630SOL     OW 6251   1.714   5.036   5.760  0.1812 -0.2711  0.4948
 1630SOL    HW2 6252   1.738   5.082   5.841 -0.1930  0.7931  0.0244
 1630SOL    HW3 6253   1.779   5.065   5.696 -0.2272 -0.1722  0.1161
 1630SOL    MW4 6254   1.726   5.046   5.762 -0.3931 -0.0304 -0.2228
 1631SOL     OW 6255   0.260   2.872   6.001  0.1861 -0.3637 -1.1732
 1631SOL    HW2 6256   0.351   2.901   6.005  0.1337 -0.2058 -1.1570
 1631SOL    HW3 6257   0.215   2.939   5.950 -0.2311  0.3287  0.0636
 1631SOL    MW4 6258   0.266   2.884   5.995 -0.0618 -0.2198 -0.0890
 1632SOL     OW 6259   4.514   5.881   6.371  0.3375 -0.3060 -0.6759
 1632SOL    HW2 6260   4.543   5.965   6.408  0.9279 -0.1294 -1.5321
 1632SOL    HW3 6261   4.420   5.878   6.392  0.3394  0.4993 -0.5170
 1632SOL    MW4 6262   4.505   5.892   6.379  0.4005 -0.4879  0.4539
 1633SOL     OW 6263   4.707   0.156   4.255 -0.0446 -0.3600  0.1724
 1633SOL    HW2 6264   4.675   0.094   4.189 -0.3495 -0.8020  0.7244
 1633SOL    HW3 6265   4.799   0.167   4.234  0.0896 -1.2483  0.2439
 1633SOL    MW4 6266   4.715   0.149   4.244 -0.4641 -0.0197 -0.3931
 1634SOL     OW 6267   4.351   0.378   1.640  0.0311  0.4404  0.1515
 1634SOL    HW2 6268   4.413   0.451   1.645 -0.5285  0.9520 -0.2586
 1634SOL    HW3 6269   4.265   0.420   1.634 -0.1811 -0.1864 -2.1842
 1634SOL    MW4 6270   4.348   0.394   1.640  0.4015 -0.2060  0.1138
 1635SOL     OW 6271   3.321   2.438   3.719  0.1149 -0.5343  0.4324
 1635SOL    HW2 6272   3.278   2.378   3.780  1.6179 -2.2082 -0.1055
 1635SOL    HW3 6273   3.384   2.384   3.672  0.1552  1.0734 -1.4569
 1635SOL    MW4 6274   3.323   2.423   3.721 -0.1822 -0.1816 -0.3082
 1636SOL     OW 6275   0.588   1.795   3.012  0.4591  0.0068  0.1109
 1636SOL    HW2 6276   0.571   1.850   3.089 -0.0446 -0.2559  0.1882
 1636SOL    HW3 6277   0.597   1.857   2.940  0.3358  0.2193  0.2765
 1636SOL    MW4 6278   0.587   1.810   3.013  0.7834 -0.8394 -0.0271
 1637SOL     OW 6279   0.807   1.962   2.449  0.3758  0.5033 -0.0297
 1637SOL    HW2 6280   0.779   2.053   2.451 -2.2713 -0.2537  0.8947
 1637SOL    HW3 6281   0.807   1.938   2.357 -0.6016  0.9720 -0.1563
 1637SOL    MW4 6282   0.803   1.970   2.437  0.0707  0.1472 -0.1801
 1638SOL     OW 6283   1.951   0.368   4.630  0.1368 -0.3360  0.2298
 1638SOL    HW2 6284   1.872   0.314   4.617 -0.2080  0.1917  0.1187
 1638SOL    HW3 6285   2.004   0.353   4.552  1.1110 -2.2777  1.1832
 1638SOL    MW4 6286   1.947   0.359   4.618  0.0981 -0.6583  1.2359
 1639SOL     OW 6287   6.030   2.827   2.485  1.0233 -0.1707 -0.3554
 1639SOL    HW2 6288   5.949   2.805   2.532  0.3637 -0.8912 -1.7527
 1639SOL    HW3 6289   6.077   2.886   2.544  0.6901 -1.7470  1.5676
 1639SOL    MW4 6290   6.025   2.832   2.499 -0.4002  0.3348  0.2374
 1640SOL     OW 6291   1.831   4.230   6.148  0.0092 -0.1405 -0.5402
 1640SOL    HW2 6292   1.802   4.140   6.163  0.4282 -0.2845 -0.5769
 1640SOL    HW3 6293   1.764   4.284   6.189 -1.3046 -0.3975 -2.2148
 1640SOL    MW4 6294   1.819   4.225   6.155 -0.1203 -0.5850 -0.9266
 1641SOL     OW 6295   0.989   1.892   3.096 -0.1010  0.4576  0.0710
 1641SOL    HW2 6296   0.947   1.852   3.019  2.5897 -0.2381 -1.1672
 1641SOL    HW3 6297   0.950   1.847   3.171 -0.2494 -1.4578 -1.0936
 1641SOL    MW4 6298   0.979   1.880   3.095  0.5838 -0.1413 -0.0902
 1642SOL     OW 6299   3.618   3.256   4.302  0.1350 -0.2231 -0.6006
 1642SOL    HW2 6300   3.705   3.257   4.341  0.2659  0.6656 -0.8888
 1642SOL    HW3 6301   3.621   3.324   4.235 -1.5395  1.5969  1.0633
 1642SOL    MW4 6302   3.630   3.265   4.298  0.5316 -0.0008 -0.2100
 1643SOL     OW 6303   5.344   0.337   4.575  0.1428  0.5423  0.2155
 1643SOL    HW2 6304   5.300   0.288   4.643  0.4968 -0.0460  0.0256
 1643SOL    HW3 6305   5.319   0.428   4.591 -0.5939  0.2902  0.5020
 1643SOL    MW4 6306   5.335   0.343   4.586 -0.3807  0.2673  0.6895
 1644SOL     OW 6307   5.508   0.489   0.939 -0.2834 -0.0662  0.2406
 1644SOL    HW2 6308   5.443   0.530   0.996 -0.7732 -1.4918  0.7673
 1644SOL    HW3 6309   5.473   0.402   0.922  1.6297 -1.0140  0.8160
 1644SOL    MW4 6310   5.495   0.483   0.944 -0.0052 -0.4698 -0.1879
 1645SOL     OW 6311   3.295   0.063   1.917 -0.2937  0.2695  0.1972
 1645SOL    HW2 6312   3.202   0.046   1.909 -0.3771  0.6960  0.2008
 1645SOL    HW3 6313   3.316   0.117   1.841  0.3651 -1.4471 -0.8839
 1645SOL    MW4 6314   3.286   0.068   1.906  0.3364 -0.2749 -0.1422
 1646SOL     OW 6315   5.239   2.288   6.177  0.4184 -0.1394 -0.1854
 1646SOL    HW2 6316   5.249   2.199   6.143  1.0419 -0.6817  1.3087
 1646SOL    HW3 6317   5.271   2.282   6.267 -0.8079  1.2971  0.3797
 1646SOL    MW4 6318   5.245   2.275   6.184  0.3330 -0.0300  0.5328
 1647SOL     OW 6319   2.152   5.239   3.188 -0.4986  0.3335  0.7323
 1647SOL    HW2 6320   2.162   5.298   3.263  2.5637  1.6023 -0.5155
 1647SOL    HW3 6321   2.227   5.180   3.194 -1.3957 -0.9760 -0.2129
 1647SOL    MW4 6322   2.163   5.239   3.199  0.2056  0.2232 -0.4553
 1648SOL     OW 6323   3.975   0.287   3.614  0.4105  0.1451 -0.1472
 1648SOL    HW2 6324   4.004   0.312   3.526 -0.7291  0.0859 -0.5515
 1648SOL    HW3 6325   3.885   0.257   3.602  0.5905 -0.8497  0.8876
 1648SOL    MW4 6326   3.967   0.287   3.601 -0.2136 -0.0938 -0.0885
 1649SOL     OW 6327   3.670   6.134   4.002  0.4761 -0.4534 -0.0262
 1649SOL    HW2 6328   3.588   6.099   4.039 -0.1710  1.0624  0.0405
 1649SOL    HW3 6329   3.738   6.078   4.038 -0.3726 -0.6369  1.3789
 1649SOL    MW4 6330   3.668   6.122   4.012  0.2503 -0.1048 -0.1029
 1650SOL     OW 6331   1.374   6.292   1.147 -0.1342 -0.0907 -0.1619
 1650SOL    HW2 6332   1.300   6.348   1.171  0.1011  0.1023  0.1207
 1650SOL    HW3 6333   1.446   6.322   1.203 -0.0823 -0.8691  0.2107
 1650SOL    MW4 6334   1.374   6.303   1.158 -0.3920 -0.3504 -0.2570
 1651SOL     OW 6335   1.129   4.949   2.855 -0.3227 -0.5726 -0.5036
 1651SOL    HW2 6336   1.037   4.936   2.876 -0.3911 -1.6899 -1.3965
 1651SOL    HW3 6337   1.151   5.034   2.895 -1.5059 -0.6620  0.4077
 1651SOL    MW4 6338   1.120   4.959   2.863 -0.0489  0.1813 -0.4823
 1652SOL     OW 6339   4.671   6.373   3.611  0.0557  0.0776 -0.1539
 1652SOL    HW2 6340   4.649   6.382   3.518  1.1413  0.1191 -0.4171
 1652SOL    HW3 6341   4.677   6.279   3.625  2.9333  0.0563 -0.9105
 1652SOL    MW4 6342   4.669   6.362   3.601 -0.5778  0.3450  0.5339
 1653SOL     OW 6343   0.287   6.384   3.619 -0.1689  0.2476  0.6448
 1653SOL    HW2 6344   0.322   6.353   3.702 -0.8535  0.3395  0.9756
 1653SOL    HW3 6345   0.298   6.479   3.621 -0.1100  0.2419  0.5962
 1653SOL    MW4 6346   0.293   6.392   3.630  0.2067 -0.1700 -0.0816
 1654SOL     OW 6347   3.007   3.948   2.126  0.0448  0.2170 -0.3302
 1654SOL    HW2 6348   3.094   3.922   2.097  0.7026  0.4006  1.3500
 1654SOL    HW3 6349   2.948   3.891   2.078  1.2759 -2.2739  0.9160
 1654SOL    MW4 6350   3.011   3.937   2.116  0.7517 -0.3868 -0.2871
 1655SOL     OW 6351   3.698   4.587   0.121  0.4312  0.0919 -0.5537
 1655SOL    HW2 6352   3.763   4.655   0.136  2.6308 -2.0962  0.3791
 1655SOL    HW3 6353   3.634   4.599   0.191 -0.2865  2.2182 -1.4458
 1655SOL    MW4 6354   3.698   4.598   0.132 -0.2156 -0.7882  0.4538
 1656SOL     OW 6355   2.724   0.993   0.890 -0.0658 -0.4636  0.8608
 1656SOL    HW2 6356   2.738   0.976   0.984  0.4607  1.6241  1.2179
 1656SOL    HW3 6357   2.630   1.009   0.882 -0.1124 -0.6493  1.0254
 1656SOL    MW4 6358   2.714   0.993   0.902 -0.1834  0.4593  0.1101
 1657SOL     OW 6359   5.255   3.626   1.226 -0.0768 -0.0972 -0.0661
 1657SOL    HW2 6360   5.199   3.618   1.304 -0.2521  1.0887 -0.0426
 1657SOL    HW3 6361   5.300   3.542   1.220 -1.7040 -1.0276  0.0412
 1657SOL    MW4 6362   5.253   3.614   1.236 -0.1638 -0.4829  0.0398
 1658SOL     OW 6363   1.301   5.193   0.491  0.0174  0.4084 -0.2945
 1658SOL    HW2 6364   1.389   5.201   0.453  0.1938 -0.3099 -0.0563
 1658SOL    HW3 6365   1.308   5.120   0.553 -1.1523 -0.7633 -1.4689
 1658SOL    MW4 6366   1.314   5.184   0.494 -0.4540  0.2572  0.1486
 1659SOL     OW 6367   4.576   3.141   0.696  0.7405  0.0529 -0.5027
 1659SOL    HW2 6368   4.510   3.137   0.765  1.9184 -1.6556  0.5901
 1659SOL    HW3 6369   4.546   3.213   0.639 -0.7454  0.9179  1.2536
 1659SOL    MW4 6370   4.563   3.150   0.697  0.5857 -0.3411  0.0844
 1660SOL     OW 6371   0.762   5.664   6.276 -0.0453 -0.0240 -0.3374
 1660SOL    HW2 6372   0.678   5.640   6.314 -0.7434  1.0994 -1.0953
 1660SOL    HW3 6373   0.820   5.591   6.296 -0.9181 -0.3558  1.0919
 1660SOL    MW4 6374   0.758   5.651   6.284 -0.0829  0.2596 -0.2906
 1661SOL     OW 6375   0.674   4.059   0.575 -0.2374 -0.0084 -0.2185
 1661SOL    HW2 6376   0.741   4.115   0.614 -1.2284  0.4807  0.8706
 1661SOL    HW3 6377   0.711   4.030   0.492  1.6322 -0.3808  0.6995
 1661SOL    MW4 6378   0.688   4.063   0.570  0.6652  0.7103  0.4635
 1662SOL     OW 6379   1.142   6.318   0.744 -0.3990 -0.8058 -0.5271
 1662SOL    HW2 6380   1.230   6.282   0.746  0.3583  0.9585  0.3198
 1662SOL    HW3 6381   1.109   6.306   0.833 -0.4041 -0.1007 -0.4257
 1662SOL    MW4 6382   1.149   6.312   0.756 -0.2235  0.0890 -0.4730
 1663SOL     OW 6383   3.780   1.090   3.893 -1.1792  0.5229  0.1552
 1663SOL    HW2 6384   3.802   1.049   3.809 -1.9555 -2.0849  1.1255
 1663SOL    HW3 6385   3.865   1.104   3.935 -0.8312  1.0659 -0.6973
 1663SOL    MW4 6386   3.794   1.087   3.887 -0.1633 -0.3445  0.0043
 1664SOL     OW 6387   4.087   2.578   2.319  0.6118 -0.3181 -0.0882
 1664SOL    HW2 6388   4.098   2.581   2.224  1.6165 -1.2628 -0.0258
 1664SOL    HW3 6389   4.105   2.667   2.349 -2.0282  0.5954 -0.9626
 1664SOL    MW4 6390   4.091   2.590   2.311  0.4235  0.0754 -0.3653
 1665SOL     OW 6391   0.548   2.555   6.205 -0.3171  0.2850  0.0098
 1665SOL    HW2 6392   0.456   2.574   6.189 -0.1761  0.4595 -0.6260
 1665SOL    HW3 6393   0.580   2.517   6.123 -0.3363 -1.8196  0.9023
 1665SOL    MW4 6394   0.540   2.553   6.192 -0.4975 -0.1109  0.5088
 1666SOL     OW 6395   1.637   6.053   4.531  0.4411  0.2055 -0.1011
 1666SOL    HW2 6396   1.617   6.114   4.461  1.9156  1.1808  0.2680
 1666SOL    HW3 6397   1.562   6.059   4.590 -0.6571 -0.3749 -1.3901
 1666SOL    MW4 6398   1.625   6.062   4.530  0.4560  0.3167  0.0191
 1667SOL     OW 6399   1.252   6.146   5.443 -0.0795 -0.1952 -0.4169
 1667SOL    HW2 6400   1.269   6.240   5.449  0.1434 -0.3294  3.1928
 1667SOL    HW3 6401   1.177   6.139   5.384  1.2495  1.9492 -2.5794
 1667SOL    MW4 6402   1.244   6.158   5.436 -0.5190  0.2691  0.0029
 1668SOL     OW 6403   2.514   5.697   1.049  0.5781 -0.1628  0.6804
 1668SOL    HW2 6404   2.562   5.778   1.062  1.2029 -0.4978  0.5233
 1668SOL    HW3 6405   2.464   5.685   1.130  0.0573  0.6466  0.4862
 1668SOL    MW4 6406   2.514   5.706   1.062  0.1323  0.7064  0.1935
 1669SOL     OW 6407   3.446   3.435   2.267  0.0350 -0.8436  0.3113
 1669SOL    HW2 6408   3.539   3.414   2.278  0.2534 -0.1349 -0.1180
 1669SOL    HW3 6409   3.437   3.458   2.174 -0.7042 -1.5552  0.2011
 1669SOL    MW4 6410   3.457   3.436   2.256 -0.1549  0.3602  0.0529
 1670SOL     OW 6411   0.443   4.671   4.651  0.5881  0.3871  0.7844
 1670SOL    HW2 6412   0.496   4.749   4.670  1.9120  0.0702 -1.1869
 1670SOL    HW3 6413   0.415   4.684   4.560  1.0111 -1.4843  0.3349
 1670SOL    MW4 6414   0.446   4.683   4.641 -0.4595  0.4279  0.2917
 1671SOL     OW 6415   0.480   0.396   1.781  0.3423  0.1703  0.1192
 1671SOL    HW2 6416   0.399   0.344   1.782  0.5259 -0.1132  0.6912
 1671SOL    HW3 6417   0.528   0.366   1.858  0.1316  1.7249  0.8834
 1671SOL    MW4 6418   0.475   0.385   1.791 -0.4383  0.3032  0.1007
 1672SOL     OW 6419   6.042   0.156   3.983  0.4826 -0.3567  0.3211
 1672SOL    HW2 6420   6.127   0.176   4.024  1.7272 -2.0699 -1.2277
 1672SOL    HW3 6421   6.033   0.223   3.914  0.9504 -0.5794  0.0325
 1672SOL    MW4 6422   6.052   0.168   3.979  0.2522  0.5871 -0.0045
 1673SOL     OW 6423   5.122   0.158   2.382  0.4757 -0.2561  0.1998
 1673SOL    HW2 6424   5.213   0.179   2.360  0.9420 -1.3179  1.0335
 1673SOL    HW3 6425   5.080   0.142   2.298  1.1753 -0.1936 -0.1701
 1673SOL    MW4 6426   5.129   0.159   2.368  0.3114  0.5994  0.3398
 1674SOL     OW 6427   4.803   2.648   2.866 -0.0348  0.7500  0.6830
 1674SOL    HW2 6428   4.892   2.630   2.898 -0.2959  1.2357  1.7316
 1674SOL    HW3 6429   4.760   2.562   2.867 -0.0546  0.7547  1.7457
 1674SOL    MW4 6430   4.809   2.634   2.870  0.1670 -0.1809  0.2038
 1675SOL     OW 6431   2.214   2.006   2.379 -0.1294  0.6796 -0.1875
 1675SOL    HW2 6432   2.258   2.050   2.306 -1.3704 -0.8283 -1.9348
 1675SOL    HW3 6433   2.142   2.065   2.402 -3.0105 -1.0238 -3.8214
 1675SOL    MW4 6434   2.210   2.020   2.373  0.0535  0.3213 -0.4328
 1676SOL     OW 6435   5.912   0.270   0.184  0.5129  0.5730  0.0273
 1676SOL    HW2 6436   5.914   0.341   0.249 -1.7028 -0.0451  0.8686
 1676SOL    HW3 6437   5.834   0.288   0.131  2.0172  0.8073 -2.2542
 1676SOL    MW4 6438   5.902   0.282   0.186  0.7112 -0.5509  0.1049
 1677SOL     OW 6439   0.064   6.207   0.458  0.3873  0.3471 -0.1624
 1677SOL    HW2 6440   0.148   6.251   0.462  0.1214  0.7882  1.4712
 1677SOL    HW3 6441   0.021   6.230   0.540 -0.3662 -1.7928  0.1095
 1677SOL    MW4 6442   0.069   6.216   0.469  0.2387  0.7856  0.7710
 1678SOL     OW 6443   3.353   5.895   2.069  0.1205 -0.2901 -0.7175
 1678SOL    HW2 6444   3.446   5.892   2.091  0.2645  3.3076 -0.1791
 1678SOL    HW3 6445   3.310   5.851   2.143  1.3275 -1.0270 -0.4267
 1678SOL    MW4 6446   3.360   5.889   2.082  0.4062  0.6518 -0.0534
 1679SOL     OW 6447   3.763   3.554   5.833 -0.4196  0.2065 -0.4542
 1679SOL    HW2 6448   3.669   3.566   5.841 -0.0967  2.4737  1.0817
 1679SOL    HW3 6449   3.787   3.601   5.753 -0.5291  0.1774 -0.5033
 1679SOL    MW4 6450   3.754   3.562   5.823 -0.3495 -0.1848 -0.0999
 1680SOL     OW 6451   4.015   5.303   4.364 -0.4614 -0.6432  0.3190
 1680SOL    HW2 6452   4.057   5.387   4.380 -0.2248 -0.3738 -1.5077
 1680SOL    HW3 6453   3.922   5.320   4.376 -0.2621 -0.7607  2.4006
 1680SOL    MW4 6454   4.008   5.316   4.368 -0.1676 -1.3538  0.6881
 1681SOL     OW 6455   0.885   0.771   1.600  0.2550 -0.0059  0.2806
 1681SOL    HW2 6456   0.870   0.748   1.509 -0.7168 -0.8881  0.6478
 1681SOL    HW3 6457   0.799   0.796   1.634  0.9543  2.6298  0.3669
 1681SOL    MW4 6458   0.872   0.772   1.593 -0.1334 -0.3866  0.5032
 1682SOL     OW 6459   3.191   2.539   6.051  0.1248  0.0447 -0.2966
 1682SOL    HW2 6460   3.251   2.546   5.977  1.2988  0.6860  0.6894
 1682SOL    HW3 6461   3.212   2.613   6.107  2.6075 -2.8557  3.0481
 1682SOL    MW4 6462   3.202   2.550   6.049 -0.1305 -0.6342  0.1222
 1683SOL     OW 6463   5.487   0.734   2.945 -0.1412  0.1004  0.4113
 1683SOL    HW2 6464   5.463   0.784   3.023 -0.2089 -0.4088  0.7215
 1683SOL    HW3 6465   5.583   0.733   2.944 -0.1278  1.0976 -0.1577
 1683SOL    MW4 6466   5.497   0.740   2.955  0.1965  0.4109 -0.0301
 1684SOL     OW 6467   5.545   1.486   0.348 -0.5852 -0.2956  0.0622
 1684SOL    HW2 6468   5.524   1.535   0.268 -2.4531  0.8272  1.1694
 1684SOL    HW3 6469   5.626   1.526   0.380 -0.2470 -0.2335 -0.8308
 1684SOL    MW4 6470   5.553   1.497   0.342 -0.6704 -0.2433 -0.3741
 1685SOL     OW 6471   1.823   1.270   5.379 -0.3168 -0.0326  0.0788
 1685SOL    HW2 6472   1.872   1.349   5.400 -0.1505 -0.1951  0.3188
 1685SOL    HW3 6473   1.731   1.295   5.388 -0.5402  1.3566 -4.0626
 1685SOL    MW4 6474   1.817   1.284   5.383 -0.4696  0.3571 -0.1566
 1686SOL     OW 6475   1.383   0.013   5.557  0.4827 -1.2433  0.2424
 1686SOL    HW2 6476   1.406   0.025   5.649 -0.6841 -0.7371  0.4868
 1686SOL    HW3 6477   1.291  -0.011   5.558  0.6865 -2.1609 -0.7570
 1686SOL    MW4 6478   1.374   0.011   5.570 -0.2008 -0.0459 -0.0649
 1687SOL     OW 6479   0.817   1.638   2.178  0.4566 -0.0702 -0.3145
 1687SOL    HW2 6480   0.729   1.631   2.214  1.1776 -2.8164  1.1872
 1687SOL    HW3 6481   0.837   1.732   2.180 -2.6773  0.7232 -1.5098
 1687SOL    MW4 6482   0.808   1.650   2.183 -0.0350  0.1757  0.0462
 1688SOL     OW 6483   5.391   0.924   0.137 -0.1890  0.1461  0.3513
 1688SOL    HW2 6484   5.300   0.935   0.165 -0.0193  0.1107  0.9338
 1688SOL    HW3 6485   5.386   0.864   0.063 -0.6835  0.5023  0.0896
 1688SOL    MW4 6486   5.378   0.918   0.131  0.1632 -0.0139  0.4872
 1689SOL     OW 6487   1.205   5.847   6.059 -0.3256  0.4820 -0.5261
 1689SOL    HW2 6488   1.196   5.900   5.980 -0.1591  2.0938  0.4873
 1689SOL    HW3 6489   1.259   5.900   6.118 -1.8381  0.0862  1.3112
 1689SOL    MW4 6490   1.211   5.861   6.056 -0.1133  0.0220  0.6041
 1690SOL     OW 6491   6.191   3.442   4.416 -0.5314 -0.1620 -0.2366
 1690SOL    HW2 6492   6.169   3.350   4.404  1.0627 -0.5371 -0.4808
 1690SOL    HW3 6493   6.164   3.462   4.506 -1.0263 -0.8083 -0.2356
 1690SOL    MW4 6494   6.184   3.433   4.426 -0.3877 -0.0134  0.2258
 1691SOL     OW 6495   5.712   0.594   2.661  0.1332  0.9623 -0.2205
 1691SOL    HW2 6496   5.772   0.641   2.603  0.6461  0.3526 -0.1938
 1691SOL    HW3 6497   5.688   0.516   2.612 -0.7546  1.2736 -0.2846
 1691SOL    MW4 6498   5.717   0.590   2.647 -0.1874  0.3254  0.1469
 1692SOL     OW 6499   1.017   5.839   2.049 -0.2279  0.0547  0.1087
 1692SOL    HW2 6500   0.999   5.764   2.105 -0.4879  0.7825  1.0141
 1692SOL    HW3 6501   0.935   5.889   2.049 -0.2810 -0.0064 -1.0401
 1692SOL    MW4 6502   1.004   5.836   2.056 -0.0585  0.5643 -0.4618
 1693SOL     OW 6503   2.670   0.078   5.585  0.0270 -0.2726  0.0892
 1693SOL    HW2 6504   2.620   0.018   5.640 -0.1004 -0.9627 -0.7611
 1693SOL    HW3 6505   2.757   0.082   5.626 -0.5554  0.5498  1.2961
 1693SOL    MW4 6506   2.675   0.071   5.598  0.7225 -0.5664 -0.1917
 1694SOL     OW 6507   5.234   4.669   0.082  0.6433 -0.2475 -0.8358
 1694SOL    HW2 6508   5.243   4.756   0.043 -0.0240  0.1693 -0.0703
 1694SOL    HW3 6509   5.149   4.638   0.052  0.3868 -0.1695 -0.1843
 1694SOL    MW4 6510   5.224   4.676   0.073  0.1234 -0.3898 -0.0583
 1695SOL     OW 6511   4.339   4.271   3.928 -0.1954 -0.0861  0.2805
 1695SOL    HW2 6512   4.322   4.263   3.834 -1.3505 -0.6002  0.5085
 1695SOL    HW3 6513   4.432   4.251   3.937  0.5990  2.6035 -1.0417
 1695SOL    MW4 6514   4.349   4.267   3.916  1.1744 -0.1060  0.0485
 1696SOL     OW 6515   1.811   0.242   1.686  0.1583  0.0034 -0.4846
 1696SOL    HW2 6516   1.775   0.274   1.769  1.3154  0.4823 -0.1415
 1696SOL    HW3 6517   1.881   0.182   1.713  0.5311  0.1501 -1.1105
 1696SOL    MW4 6518   1.815   0.238   1.701 -0.2339  0.2836  0.5524
 1697SOL     OW 6519   4.703   3.164   3.016 -0.1862 -0.6060  0.3767
 1697SOL    HW2 6520   4.677   3.163   3.108 -3.1888  0.1309 -0.3669
 1697SOL    HW3 6521   4.715   3.256   2.995 -3.4663 -0.3395 -0.8529
 1697SOL    MW4 6522   4.701   3.176   3.025  0.2393 -0.2794  0.5660
 1698SOL     OW 6523   4.675   2.873   1.817  0.1559  0.1662  0.6292
 1698SOL    HW2 6524   4.585   2.902   1.800 -0.2631 -0.6632  1.3616
 1698SOL    HW3 6525   4.689   2.800   1.757 -0.4405 -1.1103  1.9710
 1698SOL    MW4 6526   4.665   2.867   1.807 -0.2719  0.3156 -0.3153
 1699SOL     OW 6527   0.172   0.211   3.589 -0.3651 -0.0620  0.5277
 1699SOL    HW2 6528   0.106   0.229   3.522 -1.2357 -0.1330  1.3404
 1699SOL    HW3 6529   0.127   0.229   3.672  0.1972 -1.4196  1.1678
 1699SOL    MW4 6530   0.157   0.215   3.591 -0.4037 -0.3720 -0.6009
 1700SOL     OW 6531   4.007   4.438   0.485  0.2307 -0.7274 -0.1877
 1700SOL    HW2 6532   4.070   4.500   0.521 -0.2308  0.8287 -1.9188
 1700SOL    HW3 6533   3.927   4.489   0.472 -0.6688 -2.0818 -0.2563
 1700SOL    MW4 6534   4.005   4.453   0.488  0.5174 -0.6097  0.0619
 1701SOL     OW 6535   6.129   2.901   3.903  0.3668  0.1811  0.1343
 1701SOL    HW2 6536   6.131   2.889   3.998 -2.0554 -0.4745  0.1652
 1701SOL    HW3 6537   6.041   2.933   3.885 -0.4036 -2.7779 -2.1853
 1701SOL    MW4 6538   6.118   2.904   3.913 -0.3044 -0.7309 -0.4847
 1702SOL     OW 6539   5.880   1.433   1.954 -0.3335 -0.1086 -0.0432
 1702SOL    HW2 6540   5.879   1.380   1.874  0.3004  2.1672 -1.6573
 1702SOL    HW3 6541   5.950   1.394   2.007 -1.8195 -2.6589  0.2544
 1702SOL    MW4 6542   5.889   1.421   1.951 -0.0484  0.5175 -0.1264
 1703SOL     OW 6543   5.874   6.392   4.526 -0.2407 -0.7449 -0.3755
 1703SOL    HW2 6544   5.926   6.401   4.446  1.4735 -0.2593  0.7579
 1703SOL    HW3 6545   5.784   6.412   4.498  0.1942 -1.2893 -2.3061
 1703SOL    MW4 6546   5.869   6.396   4.511 -0.2634  0.3445 -0.7976
 1704SOL     OW 6547   4.694   2.152   2.960 -0.1069  0.2032 -0.0110
 1704SOL    HW2 6548   4.774   2.190   2.996 -1.1071  1.5518  0.8518
 1704SOL    HW3 6549   4.644   2.124   3.036 -1.2303  0.9871 -0.4401
 1704SOL    MW4 6550   4.698   2.153   2.975 -0.5401  0.3295  0.3829
 1705SOL     OW 6551   0.972   5.488   1.878  0.5517 -0.6343  0.1026
 1705SOL    HW2 6552   1.057   5.445   1.879  2.1179  2.1014 -2.2109
 1705SOL    HW3 6553   0.975   5.549   1.952  0.2177 -1.1046  0.5164
 1705SOL    MW4 6554   0.984   5.490   1.888  0.0159  0.1640  0.9233
 1706SOL     OW 6555   1.764   2.569   5.264  0.1597  0.0480  0.0314
 1706SOL    HW2 6556   1.845   2.518   5.266  0.8559  1.1102 -0.1075
 1706SOL    HW3 6557   1.735   2.565   5.173  1.5167  1.8283 -0.5326
 1706SOL    MW4 6558   1.771   2.562   5.252  0.0177  0.0370  0.0790
 1707SOL     OW 6559   1.151   5.346   3.774 -0.0392  0.0810  0.4312
 1707SOL    HW2 6560   1.222   5.372   3.832  0.1788  2.3893 -0.7779
 1707SOL    HW3 6561   1.192   5.339   3.688 -1.0307  0.0730 -0.0496
 1707SOL    MW4 6562   1.166   5.348   3.771 -0.1843  0.0026 -0.8690
 1708SOL     OW 6563   1.722   4.512   3.263 -0.5401 -0.0609  0.8134
 1708SOL    HW2 6564   1.782   4.457   3.315 -0.0777 -0.0374  0.3112
 1708SOL    HW3 6565   1.749   4.497   3.173  1.2470  2.8418  0.7551
 1708SOL    MW4 6566   1.734   4.503   3.258 -0.2293 -0.9298 -0.2566
 1709SOL     OW 6567   4.548   1.132   0.279 -0.1433  0.4710  0.1615
 1709SOL    HW2 6568   4.526   1.181   0.199  0.7810  1.1249  0.2998
 1709SOL    HW3 6569   4.554   1.041   0.249  0.1512  0.7002 -0.5089
 1709SOL    MW4 6570   4.546   1.127   0.264  0.6654  0.1492  0.1310
 1710SOL     OW 6571   4.893   0.258   2.926 -0.3871  0.0413  0.4064
 1710SOL    HW2 6572   4.835   0.328   2.894  0.4543  0.3550 -0.5177
 1710SOL    HW3 6573   4.883   0.260   3.021  0.3841  2.1468  0.5072
 1710SOL    MW4 6574   4.884   0.268   2.934 -0.1529  0.6995 -0.0846
 1711SOL     OW 6575   3.959   4.388   5.473  0.1225 -0.0845 -0.1330
 1711SOL    HW2 6576   3.922   4.466   5.513 -0.8183 -0.9000  0.6053
 1711SOL    HW3 6577   3.896   4.363   5.406  1.6920  1.2949 -2.2892
 1711SOL    MW4 6578   3.946   4.395   5.469 -0.5696 -0.2837  0.2120
 1712SOL     OW 6579   3.853   0.283   1.071  0.3927  0.4802  0.2625
 1712SOL    HW2 6580   3.829   0.375   1.074 -1.0993  0.1001  1.1996
 1712SOL    HW3 6581   3.917   0.277   1.000  1.0380  2.3335  0.6381
 1712SOL    MW4 6582   3.858   0.294   1.062  0.4044  0.1811 -0.7428
 1713SOL     OW 6583   2.533   0.784   3.363  0.6188  0.1769 -0.1473
 1713SOL    HW2 6584   2.535   0.810   3.271 -1.0742  1.4639  0.1396
 1713SOL    HW3 6585   2.469   0.842   3.403  1.7641  0.0627  1.9909
 1713SOL    MW4 6586   2.525   0.795   3.356 -0.0240  0.4131 -0.0425
 1714SOL     OW 6587   5.919   4.722   5.253  0.3221 -0.2873 -0.1172
 1714SOL    HW2 6588   6.004   4.682   5.268  0.3652 -0.5619 -1.0137
 1714SOL    HW3 6589   5.858   4.648   5.246  0.3038 -0.1995 -1.1715
 1714SOL    MW4 6590   5.922   4.707   5.254 -0.3081 -0.4474  0.5673
 1715SOL     OW 6591   3.737   6.120   0.832  0.3780 -0.3464 -0.0517
 1715SOL    HW2 6592   3.675   6.163   0.891  0.0717  0.7241 -1.1429
 1715SOL    HW3 6593   3.806   6.088   0.891 -0.6397 -0.5950  1.0535
 1715SOL    MW4 6594   3.738   6.121   0.848  0.0702 -1.1453  0.5929
 1716SOL     OW 6595   0.336   1.018   3.812  0.1287 -0.0510  0.0148
 1716SOL    HW2 6596   0.335   1.035   3.906  0.5727 -0.6051  0.1293
 1716SOL    HW3 6597   0.275   1.082   3.774  1.2065  1.2929  0.4816
 1716SOL    MW4 6598   0.328   1.029   3.819  0.1636  0.0422 -0.7306
 1717SOL     OW 6599   6.316   5.303   0.805 -0.5761  0.3177  0.0034
 1717SOL    HW2 6600   6.222   5.301   0.822 -0.7433 -0.5075 -0.9602
 1717SOL    HW3 6601   6.334   5.223   0.756  0.5667  0.6506 -0.1555
 1717SOL    MW4 6602   6.306   5.292   0.801  0.2348 -0.2488  0.2160
 1718SOL     OW 6603   1.540   3.820   2.020  0.2603  0.1254 -0.1891
 1718SOL    HW2 6604   1.516   3.784   1.934 -0.8472  0.0136  0.1524
 1718SOL    HW3 6605   1.590   3.749   2.062  1.7911  0.5837 -1.1424
 1718SOL    MW4 6606   1.544   3.806   2.014 -0.3514 -0.1093 -0.1995
 1719SOL     OW 6607   4.238   1.310   3.868 -0.2615 -0.0233  0.1083
 1719SOL    HW2 6608   4.250   1.247   3.797  0.3544 -0.8787  0.9583
 1719SOL    HW3 6609   4.188   1.382   3.827  0.0656 -0.4936 -1.1776
 1719SOL    MW4 6610   4.233   1.311   3.853 -0.0465  0.4970 -0.0116
 1720SOL     OW 6611   6.022   2.210   5.057  0.7941  0.3984 -0.8807
 1720SOL    HW2 6612   6.057   2.279   5.114  1.1517 -1.0527  0.7543
 1720SOL    HW3 6613   5.930   2.202   5.083  1.1130 -0.6986  0.0204
 1720SOL    MW4 6614   6.014   2.218   5.068 -0.1780 -0.0887  0.4684
 1721SOL     OW 6615   3.267   5.463   3.360  0.2300 -0.5278  0.2166
 1721SOL    HW2 6616   3.280   5.515   3.280  0.6197 -0.2977  0.4264
 1721SOL    HW3 6617   3.186   5.415   3.344 -0.9708  1.2780  0.6131
 1721SOL    MW4 6618   3.258   5.463   3.347  0.5331 -0.5100 -0.5846
 1722SOL     OW 6619   6.323   4.773   0.007  0.1609 -0.5758  0.6610
 1722SOL    HW2 6620   6.235   4.801   0.031 -0.3404  0.2060 -1.8359
 1722SOL    HW3 6621   6.372   4.854  -0.007  0.5966 -0.9642 -0.1755
 1722SOL    MW4 6622   6.318   4.787   0.008 -0.1581 -0.1847  0.3292
 1723SOL     OW 6623   0.204   5.554   5.571 -0.2306  0.4729 -0.2073
 1723SOL    HW2 6624   0.226   5.483   5.509 -1.6851 -0.6416  0.4845
 1723SOL    HW3 6625   0.113   5.537   5.595 -0.0405  1.5230  1.4077
 1723SOL    MW4 6626   0.195   5.542   5.566  0.8715 -0.4602  0.2164
 1724SOL     OW 6627   0.646   2.034   0.833 -0.8442 -0.2912  0.1646
 1724SOL    HW2 6628   0.723   2.085   0.807  0.3160 -2.0407  0.0038
 1724SOL    HW3 6629   0.613   1.997   0.751 -1.3689 -0.2287  0.3428
 1724SOL    MW4 6630   0.652   2.036   0.818  0.0220  0.2713 -0.0489
 1725SOL     OW 6631   5.289   6.284   5.045 -0.5147 -0.4912  0.2899
 1725SOL    HW2 6632   5.285   6.204   5.097 -1.4539  0.5167  1.8831
 1725SOL    HW3 6633   5.336   6.346   5.101 -4.0140  1.4938  1.3262
 1725SOL    MW4 6634   5.295   6.282   5.059 -0.2709  0.8704 -0.1539
 1726SOL     OW 6635   2.123   2.198   0.167 -0.3958 -0.2913  0.0408
 1726SOL    HW2 6636   2.122   2.106   0.193  1.6138 -0.3120  0.1952
 1726SOL    HW3 6637   2.031   2.219   0.152 -0.7961 -2.8236 -1.7723
 1726SOL    MW4 6638   2.111   2.189   0.169 -0.3681 -0.4143  0.0391
 1727SOL     OW 6639   5.804   2.228   1.250  0.1776  0.0898 -0.0437
 1727SOL    HW2 6640   5.737   2.277   1.298 -0.4120 -0.7695  0.0514
 1727SOL    HW3 6641   5.756   2.155   1.210  1.0279 -0.4471 -0.1226
 1727SOL    MW4 6642   5.789   2.225   1.251  0.4777  0.2418 -0.1063
 1728SOL     OW 6643   0.125   0.672   1.808  0.3851  0.4918  0.4200
 1728SOL    HW2 6644   0.070   0.594   1.811  0.9807  0.0337 -0.1644
 1728SOL    HW3 6645   0.145   0.691   1.899 -1.1533  0.9753  0.6747
 1728SOL    MW4 6646   0.121   0.664   1.820  0.2249 -0.3442 -0.0281
 1729SOL     OW 6647   2.078   1.615   0.050 -0.1994  0.2603  0.1096
 1729SOL    HW2 6648   1.988   1.622   0.080 -0.3327  3.0736 -0.6984
 1729SOL    HW3 6649   2.131   1.640   0.126 -0.2068  0.6586 -0.0154
 1729SOL    MW4 6650   2.073   1.619   0.064  0.0651 -0.0842  0.2834
 1730SOL     OW 6651   2.018   2.281   1.615  0.0268 -0.7673 -0.1908
 1730SOL    HW2 6652   1.950   2.317   1.672  0.4068 -0.6579  0.2045
 1730SOL    HW3 6653   1.972   2.254   1.536 -0.4567 -0.5902  0.0266
 1730SOL    MW4 6654   2.003   2.282   1.612 -0.2786  0.0619 -0.4483
 1731SOL     OW 6655   4.254   2.438   1.775 -0.4842  0.5129  0.7401
 1731SOL    HW2 6656   4.190   2.474   1.715  0.3851  0.9549  0.0536
 1731SOL    HW3 6657   4.249   2.343   1.762  2.1561  0.6574 -2.7891
 1731SOL    MW4 6658   4.245   2.430   1.766  0.2588 -0.7678 -0.6052
 1732SOL     OW 6659   0.006   2.408   4.865 -0.3152 -0.1240  0.3327
 1732SOL    HW2 6660  -0.047   2.339   4.826 -0.1175 -0.5558  0.8165
 1732SOL    HW3 6661  -0.021   2.488   4.819  0.8832 -0.7903 -1.6608
 1732SOL    MW4 6662  -0.004   2.410   4.854  0.0772 -0.4144  0.3294
 1733SOL     OW 6663   5.079   0.379   1.096 -0.0192  0.7333  0.1119
 1733SOL    HW2 6664   5.141   0.338   1.156  0.5251 -0.5690 -1.2790
 1733SOL    HW3 6665   5.112   0.358   1.008 -2.0126  0.6289 -0.6770
 1733SOL    MW4 6666   5.092   0.371   1.092  0.0678  0.0445 -0.9408
 1734SOL     OW 6667   3.364   2.565   2.709  0.2119  0.3048 -0.1243
 1734SOL    HW2 6668   3.325   2.614   2.636 -0.3555  0.4420  0.2649
 1734SOL    HW3 6669   3.419   2.630   2.754 -0.9299  0.7511  0.6882
 1734SOL    MW4 6670   3.366   2.580   2.706  0.1915  0.3038 -0.0896
 1735SOL     OW 6671   5.281   2.757   2.489  0.0514  0.3720  0.0125
 1735SOL    HW2 6672   5.231   2.756   2.407 -1.3063 -1.3851  0.8061
 1735SOL    HW3 6673   5.216   2.777   2.557  0.7819 -0.1140  0.8694
 1735SOL    MW4 6674   5.266   2.760   2.487 -0.7981  0.2793  0.3563
 1736SOL     OW 6675   5.417   6.233   0.293  0.0745  0.3822 -0.2140
 1736SOL    HW2 6676   5.458   6.183   0.223  2.3877  0.0595  1.2685
 1736SOL    HW3 6677   5.364   6.299   0.247 -0.5040 -1.3454 -2.2040
 1736SOL    MW4 6678   5.415   6.235   0.278  0.0964  0.6995  0.0770
 1737SOL     OW 6679   0.744   3.621   3.368 -0.2338  0.1542  0.1809
 1737SOL    HW2 6680   0.667   3.577   3.332  0.0181 -0.3191  0.2206
 1737SOL    HW3 6681   0.759   3.695   3.308  0.5645 -0.9930 -1.1054
 1737SOL    MW4 6682   0.736   3.625   3.355 -0.1965 -0.3142  0.2800
 1738SOL     OW 6683   6.215   2.385   3.435 -0.5526 -0.2841  0.0957
 1738SOL    HW2 6684   6.147   2.450   3.456 -0.8108 -0.5723  0.1538
 1738SOL    HW3 6685   6.167   2.303   3.422 -0.2911 -0.3414 -0.5679
 1738SOL    MW4 6686   6.199   2.383   3.436 -0.2541  0.0176 -0.0096
 1739SOL     OW 6687   0.094   3.692   2.231 -0.4764  0.0822 -0.1218
 1739SOL    HW2 6688   0.012   3.711   2.277 -2.1113  0.3753 -2.9245
 1739SOL    HW3 6689   0.085   3.601   2.202  0.9483 -0.4145  0.8789
 1739SOL    MW4 6690   0.082   3.683   2.233 -0.3819 -0.0708 -0.1501
 1740SOL     OW 6691   5.221   6.314   1.171 -0.6216 -0.5485 -0.4477
 1740SOL    HW2 6692   5.244   6.336   1.262 -0.5538  2.6890 -1.1382
 1740SOL    HW3 6693   5.126   6.314   1.169 -0.6212 -0.3809 -0.4394
 1740SOL    MW4 6694   5.212   6.317   1.183  0.0721  0.2163  0.0128
 1741SOL     OW 6695   1.209   2.920   5.247 -0.3431  0.1656 -0.0095
 1741SOL    HW2 6696   1.119   2.909   5.216 -0.3111  1.7710 -0.8196
 1741SOL    HW3 6697   1.232   3.009   5.220  1.0746  0.2199  1.2668
 1741SOL    MW4 6698   1.200   2.931   5.239 -0.2369 -0.5467  0.7243
 1742SOL     OW 6699   2.184   1.934   0.940  0.1807 -0.6710 -0.2799
 1742SOL    HW2 6700   2.216   2.024   0.950 -0.2945 -0.5082 -0.1935
 1742SOL    HW3 6701   2.259   1.879   0.961  0.7592 -0.2938 -1.2889
 1742SOL    MW4 6702   2.198   1.939   0.944  0.6893 -0.0625 -0.2306
 1743SOL     OW 6703   4.763   5.569   5.688  0.0839  0.3734  0.0293
 1743SOL    HW2 6704   4.754   5.645   5.631 -0.6524  0.6000  0.4398
 1743SOL    HW3 6705   4.728   5.496   5.638  1.9383  0.0361 -0.8635
 1743SOL    MW4 6706   4.757   5.570   5.674  0.2855 -0.0781 -0.0819
 1744SOL     OW 6707   2.783   4.043   1.956  0.4169  0.4688 -0.1789
 1744SOL    HW2 6708   2.765   3.969   1.897  3.3553 -0.5668  0.0687
 1744SOL    HW3 6709   2.754   4.120   1.907 -3.1865 -0.7374 -0.2638
 1744SOL    MW4 6710   2.776   4.043   1.942 -0.9800  0.7650  0.3436
 1745SOL     OW 6711   0.881   3.434   2.034 -0.1794 -0.7717 -0.3541
 1745SOL    HW2 6712   0.957   3.470   1.990 -1.3456  0.8019 -1.1621
 1745SOL    HW3 6713   0.839   3.509   2.077 -0.9844 -1.6883  0.5359
 1745SOL    MW4 6714   0.885   3.449   2.034  0.4936  0.8536 -0.9477
 1746SOL     OW 6715   2.141   5.806   5.578 -0.2756  0.3909 -0.2686
 1746SOL    HW2 6716   2.052   5.803   5.615 -0.5784  0.1964 -1.0051
 1746SOL    HW3 6717   2.131   5.851   5.495  0.2405 -0.0561 -0.5768
 1746SOL    MW4 6718   2.128   5.812   5.572  0.1665  0.2257 -0.3591
 1747SOL     OW 6719   0.401   1.039   0.013  0.0594 -0.2447 -0.0223
 1747SOL    HW2 6720   0.355   0.998   0.085  1.8752 -2.5641 -0.0610
 1747SOL    HW3 6721   0.442   1.117   0.051 -2.1979  0.8032  0.4266
 1747SOL    MW4 6722   0.400   1.044   0.027  0.3599  0.6669 -0.7938
 1748SOL     OW 6723   4.628   1.931   6.096  0.4360 -0.5784  0.3817
 1748SOL    HW2 6724   4.690   1.989   6.141  1.3532 -1.2676  0.0315
 1748SOL    HW3 6725   4.555   1.923   6.158 -1.0318  3.0572 -0.5905
 1748SOL    MW4 6726   4.627   1.938   6.110  0.4402 -0.2293 -0.1594
 1749SOL     OW 6727   1.344   5.377   5.930  0.4681  0.3530  0.4694
 1749SOL    HW2 6728   1.357   5.346   5.841 -0.3676 -0.3387  0.5758
 1749SOL    HW3 6729   1.375   5.468   5.929  1.0468  0.1564 -0.3571
 1749SOL    MW4 6730   1.350   5.385   5.918  0.0125 -0.1411 -0.3487
 1750SOL     OW 6731   1.085   5.452   5.712  0.0822 -0.9336  0.2757
 1750SOL    HW2 6732   1.080   5.456   5.617 -0.1104 -0.6363  0.2969
 1750SOL    HW3 6733   1.007   5.498   5.743 -1.0889 -3.0107  0.5811
 1750SOL    MW4 6734   1.074   5.459   5.704  0.2572 -0.1184  0.2871
 1751SOL     OW 6735   0.261   5.171   1.007 -0.2785 -0.2567 -0.0222
 1751SOL    HW2 6736   0.354   5.172   1.031  0.1562 -0.7991 -1.5833
 1751SOL    HW3 6737   0.259   5.136   0.919 -1.9769 -0.1177 -0.0765
 1751SOL    MW4 6738   0.273   5.167   0.999 -0.3653  0.6296  0.5464
 1752SOL     OW 6739   4.052   4.601   2.400  0.2312 -0.4715 -0.1539
 1752SOL    HW2 6740   4.123   4.609   2.463 -1.9093 -0.4957  2.4235
 1752SOL    HW3 6741   4.026   4.509   2.403  0.4491 -0.6140 -1.5812
 1752SOL    MW4 6742   4.058   4.590   2.409 -0.4757 -0.4089  0.3663
 1753SOL     OW 6743   0.152   6.212   4.262 -0.6063 -0.2770 -0.0313
 1753SOL    HW2 6744   0.225   6.184   4.316  1.0810  1.3073 -1.3362
 1753SOL    HW3 6745   0.088   6.142   4.269  1.3009 -2.0486  0.6659
 1753SOL    MW4 6746   0.153   6.199   4.270  0.2591 -0.2600 -0.1866
 1754SOL     OW 6747   5.013   3.732   3.070 -0.3076  0.0950  0.1785
 1754SOL    HW2 6748   5.070   3.656   3.065  0.8503  0.9630 -0.1892
 1754SOL    HW3 6749   4.997   3.745   3.164  2.2662  1.3693  0.5221
 1754SOL    MW4 6750   5.018   3.724   3.082 -0.0126  0.3466 -0.5083
 1755SOL     OW 6751   3.958   0.367   5.707  0.6144  0.3179  0.2026
 1755SOL    HW2 6752   3.967   0.461   5.691  2.2560  0.2360  0.4260
 1755SOL    HW3 6753   3.940   0.329   5.621  1.0110  0.7386 -0.0664
 1755SOL    MW4 6754   3.957   0.374   5.694 -0.1782 -0.0750 -0.2148
 1756SOL     OW 6755   2.106   0.036   1.088 -0.5249 -0.5129  0.0837
 1756SOL    HW2 6756   2.165   0.038   1.012 -1.8331  0.9555 -0.9464
 1756SOL    HW3 6757   2.162   0.062   1.162  0.8397 -2.2452 -0.2648
 1756SOL    MW4 6758   2.121   0.040   1.088 -0.2482 -0.0800 -0.6036
 1757SOL     OW 6759   6.275   2.251   2.712  0.6596 -1.0079 -0.1247
 1757SOL    HW2 6760   6.268   2.213   2.625  1.5991 -1.7825  0.1096
 1757SOL    HW3 6761   6.298   2.343   2.697  0.8720 -1.1514 -0.6909
 1757SOL    MW4 6762   6.277   2.258   2.699  0.4690 -0.2001  0.4642
 1758SOL     OW 6763   5.188   2.938   4.190  0.2275  0.2520 -0.2086
 1758SOL    HW2 6764   5.209   2.978   4.274  0.8478  2.1705 -1.2276
 1758SOL    HW3 6765   5.260   2.877   4.174  0.4545  0.3804  0.3102
 1758SOL    MW4 6766   5.200   2.935   4.199 -0.3014 -0.0130 -0.5663
 1759SOL     OW 6767   1.572   5.835   5.067 -0.6297  0.9908 -0.0948
 1759SOL    HW2 6768   1.565   5.853   5.160  1.7454  1.5813  0.0546
 1759SOL    HW3 6769   1.621   5.753   5.062  1.3337  2.1033 -0.7204
 1759SOL    MW4 6770   1.578   5.827   5.078 -0.2612 -0.2154 -0.3712
 1760SOL     OW 6771   5.495   5.985   5.485  0.3059  0.4486  0.7413
 1760SOL    HW2 6772   5.416   6.039   5.475  0.9191  1.2198 -0.1665
 1760SOL    HW3 6773   5.563   6.047   5.512  1.1746  0.3039 -0.9632
 1760SOL    MW4 6774   5.494   6.000   5.487  0.1766  0.1308  0.1833
 1761SOL     OW 6775   5.919   6.341   1.123 -0.3758 -0.3785 -0.2572
 1761SOL    HW2 6776   5.852   6.327   1.056 -1.2051 -0.3791  0.5431
 1761SOL    HW3 6777   5.963   6.257   1.131  1.0399  0.1307 -2.1406
 1761SOL    MW4 6778   5.916   6.328   1.115  1.1292 -0.2409  0.3780
 1762SOL     OW 6779   3.633   3.999   3.117 -0.5172 -0.2747 -0.5869
 1762SOL    HW2 6780   3.663   3.991   3.027  0.1727 -1.1142 -0.2853
 1762SOL    HW3 6781   3.573   4.074   3.115  2.8143  2.6009 -0.8803
 1762SOL    MW4 6782   3.629   4.008   3.105  0.2482  0.5923  0.2518
 1763SOL     OW 6783   5.808   4.471   5.401  0.2034  0.2955  0.4671
 1763SOL    HW2 6784   5.749   4.412   5.353  0.4072 -0.9419  1.6768
 1763SOL    HW3 6785   5.886   4.418   5.418  0.9938  1.3905  0.3353
 1763SOL    MW4 6786   5.810   4.456   5.397  0.0708 -0.2426  0.2397
 1764SOL     OW 6787   0.167   4.731   5.455 -0.3127  0.0682  0.0414
 1764SOL    HW2 6788   0.221   4.657   5.481 -0.1254  0.6647  1.4742
 1764SOL    HW3 6789   0.078   4.707   5.481 -0.2595  0.3063  0.4604
 1764SOL    MW4 6790   0.162   4.718   5.462  0.5692 -0.1230 -0.5330
 1765SOL     OW 6791   5.764   0.652   2.920 -0.1905  0.1862  0.0332
 1765SOL    HW2 6792   5.773   0.655   2.825  1.3972  0.1085  0.1469
 1765SOL    HW3 6793   5.725   0.566   2.938 -0.5394  0.2188 -0.5461
 1765SOL    MW4 6794   5.760   0.641   2.910  0.2497  0.3362 -0.1573
 1766SOL     OW 6795   2.366   2.109   2.977 -0.4767  0.4884 -0.3789
 1766SOL    HW2 6796   2.326   2.156   2.904 -0.2904 -0.2462 -0.9680
 1766SOL    HW3 6797   2.394   2.178   3.037  0.4929  1.1962 -1.5827
 1766SOL    MW4 6798   2.365   2.125   2.975  0.2000  0.2679  0.2020
 1767SOL     OW 6799   2.146   6.385   4.610  0.1989 -0.7678  0.0291
 1767SOL    HW2 6800   2.067   6.387   4.555  0.0988 -2.0404  0.1069
 1767SOL    HW3 6801   2.198   6.459   4.579 -0.9195 -0.0391 -0.1722
 1767SOL    MW4 6802   2.142   6.395   4.599  0.8328  0.1946 -1.3401
 1768SOL     OW 6803   3.682   4.553   5.848  0.0107  0.1639 -0.0056
 1768SOL    HW2 6804   3.635   4.472   5.831 -0.6295  0.8055 -1.4853
 1768SOL    HW3 6805   3.764   4.525   5.889  0.2480 -1.3316 -1.3945
 1768SOL    MW4 6806   3.687   4.539   5.851 -0.1444  0.1236  0.1507
 1769SOL     OW 6807   0.752   6.168   2.407 -0.9196  0.1081 -0.2868
 1769SOL    HW2 6808   0.830   6.222   2.391 -1.3187  0.3258 -1.6759
 1769SOL    HW3 6809   0.784   6.078   2.405 -0.8421  0.1404 -2.0079
 1769SOL    MW4 6810   0.767   6.163   2.405  0.3997 -0.1833 -0.1924
 1770SOL     OW 6811   1.966   4.766   2.715  0.2334  0.0366 -0.2098
 1770SOL    HW2 6812   1.932   4.689   2.670  0.3073 -0.8032  1.1276
 1770SOL    HW3 6813   1.892   4.827   2.715 -0.6319 -0.9636  0.8108
 1770SOL    MW4 6814   1.951   4.764   2.709  0.6250  0.4198 -0.0984
 1771SOL     OW 6815   3.712   2.578   5.795  0.4596  0.8714  0.1340
 1771SOL    HW2 6816   3.734   2.536   5.712  2.5694  1.8734  0.1262
 1771SOL    HW3 6817   3.649   2.646   5.772  1.0598  1.1664 -0.6667
 1771SOL    MW4 6818   3.707   2.581   5.781 -0.2252  0.4509  0.9192
 1772SOL     OW 6819   5.963   5.896   6.176  0.0250  0.3275  0.3616
 1772SOL    HW2 6820   6.034   5.844   6.214  0.3606  0.4733 -0.0492
 1772SOL    HW3 6821   5.980   5.985   6.207  1.3076  0.7882 -1.4505
 1772SOL    MW4 6822   5.975   5.901   6.185 -0.0884  0.0337  0.4362
 1773SOL     OW 6823   3.479   2.597   1.431 -0.9776 -0.1495 -0.0176
 1773SOL    HW2 6824   3.524   2.657   1.370 -0.0714 -0.6382  0.1443
 1773SOL    HW3 6825   3.419   2.653   1.480 -0.6424  0.5097 -0.3442
 1773SOL    MW4 6826   3.477   2.613   1.430  0.4922 -0.1957  0.3085
 1774SOL     OW 6827   6.249   3.761   2.284  0.3129  0.1934  0.4611
 1774SOL    HW2 6828   6.201   3.825   2.335 -0.6559 -0.5127  0.4545
 1774SOL    HW3 6829   6.190   3.738   2.212 -0.3133 -2.3785  1.7088
 1774SOL    MW4 6830   6.235   3.767   2.281 -0.3344 -0.1118 -0.8026
 1775SOL     OW 6831   0.343   3.156   2.255 -0.5952  0.2501 -0.5038
 1775SOL    HW2 6832   0.315   3.172   2.345 -1.0957 -0.3881 -0.5465
 1775SOL    HW3 6833   0.426   3.108   2.264 -0.1933  0.9458 -0.3883
 1775SOL    MW4 6834   0.350   3.152   2.268 -0.0228  0.0179  0.0133
 1776SOL     OW 6835   4.657   3.222   0.368 -0.4147  0.6466 -0.1720
 1776SOL    HW2 6836   4.640   3.300   0.421 -1.1612 -1.0671  2.2959
 1776SOL    HW3 6837   4.595   3.157   0.402  1.3867 -1.5466 -0.8910
 1776SOL    MW4 6838   4.647   3.224   0.380  0.2439  0.7140 -0.0683
 1777SOL     OW 6839   0.299   2.151   2.214 -0.0735 -0.5269  0.4110
 1777SOL    HW2 6840   0.272   2.218   2.151 -0.6654  0.4578  1.6736
 1777SOL    HW3 6841   0.381   2.117   2.179 -0.6434 -0.3832 -1.1551
 1777SOL    MW4 6842   0.306   2.155   2.201  0.3594  0.0139  0.1494
 1778SOL     OW 6843   4.323   0.897   4.094  0.4641 -0.0650 -0.3390
 1778SOL    HW2 6844   4.354   0.817   4.052 -1.0474 -0.4023 -0.8626
 1778SOL    HW3 6845   4.276   0.867   4.171 -1.0401  0.2123 -1.1152
 1778SOL    MW4 6846   4.321   0.883   4.099  0.3920 -0.3892 -0.3435
 1779SOL     OW 6847   6.160   1.494   1.620 -0.4273 -0.8397 -0.1689
 1779SOL    HW2 6848   6.245   1.535   1.604 -1.7083  2.1252 -0.0277
 1779SOL    HW3 6849   6.154   1.424   1.555  2.5919 -1.9780  0.6535
 1779SOL    MW4 6850   6.170   1.490   1.609 -0.1448  0.5636 -0.1097
 1780SOL     OW 6851   1.652   3.740   0.914  0.0117 -0.0972  0.7470
 1780SOL    HW2 6852   1.597   3.727   0.991  0.2611 -1.2761  0.7373
 1780SOL    HW3 6853   1.622   3.676   0.851 -0.6120  1.2725 -0.4037
 1780SOL    MW4 6854   1.641   3.730   0.916  0.5923 -0.1381 -0.5497
 1781SOL     OW 6855   5.796   3.450   0.629 -0.2466 -0.0856 -0.0393
 1781SOL    HW2 6856   5.714   3.403   0.640  1.0745 -2.5130  0.1993
 1781SOL    HW3 6857   5.829   3.461   0.718  0.8842 -1.5684 -0.2155
 1781SOL    MW4 6858   5.790   3.445   0.642  0.4786 -0.0918  0.5096
 1782SOL     OW 6859   5.662   5.566   4.915  0.3915 -0.5034 -0.5643
 1782SOL    HW2 6860   5.611   5.594   4.990  1.0816  0.3676 -0.4100
 1782SOL    HW3 6861   5.607   5.585   4.839  1.5255  3.2162 -0.6563
 1782SOL    MW4 6862   5.648   5.572   4.915  0.1441  0.0415  0.5404
 1783SOL     OW 6863   3.892   4.433   1.535  0.4692 -0.3080  0.0535
 1783SOL    HW2 6864   3.855   4.422   1.447  1.0390  0.7358 -0.3424
 1783SOL    HW3 6865   3.863   4.356   1.584  0.2114 -0.9491 -1.0780
 1783SOL    MW4 6866   3.884   4.422   1.530 -0.1722 -0.3533 -0.0796
 1784SOL     OW 6867   5.078   0.505   5.394  0.4842 -0.3088  0.0316
 1784SOL    HW2 6868   5.086   0.440   5.324 -0.4172  0.4744 -0.8277
 1784SOL    HW3 6869   4.991   0.543   5.382  0.7865  0.6875  0.8408
 1784SOL    MW4 6870   5.067   0.502   5.383 -0.0082  0.3573  0.8136
 1785SOL     OW 6871   3.884   1.252   0.069 -0.1428 -0.2808  0.0944
 1785SOL    HW2 6872   3.801   1.212   0.043 -0.8928  0.5520  1.1282
 1785SOL    HW3 6873   3.866   1.290   0.155  0.6697  1.8169 -0.5940
 1785SOL    MW4 6874   3.871   1.252   0.077  0.2194  0.3788 -0.0090
 1786SOL     OW 6875   0.049   0.666   4.671 -0.4875  0.5294  0.3571
 1786SOL    HW2 6876   0.060   0.596   4.607 -2.9206  0.5945 -0.2160
 1786SOL    HW3 6877   0.031   0.621   4.753 -1.8305  0.4300  0.0338
 1786SOL    MW4 6878   0.048   0.651   4.673  0.4845  0.4409 -0.5715
 1787SOL     OW 6879   2.042   3.549   4.717 -0.0872  0.7999  0.1750
 1787SOL    HW2 6880   2.068   3.547   4.625 -0.2934 -2.4091  0.0828
 1787SOL    HW3 6881   2.094   3.620   4.755  1.1875  1.1665 -2.0650
 1787SOL    MW4 6882   2.052   3.558   4.710  0.1519  0.5205 -0.2394
 1788SOL     OW 6883   5.236   2.529   2.137 -0.9562 -0.0059  0.0151
 1788SOL    HW2 6884   5.192   2.598   2.188 -1.3260 -1.1563  1.3291
 1788SOL    HW3 6885   5.209   2.545   2.047 -0.6716  1.8202  0.2204
 1788SOL    MW4 6886   5.226   2.540   2.132 -0.1783  0.1323  0.0937
 1789SOL     OW 6887   6.156   2.672   1.704  0.5426 -0.3277  0.2928
 1789SOL    HW2 6888   6.198   2.605   1.757 -2.0868 -1.9576  0.4825
 1789SOL    HW3 6889   6.131   2.627   1.624 -1.4281  0.3188  0.4933
 1789SOL    MW4 6890   6.158   2.657   1.701  0.1292  0.7821  1.2058
 1790SOL     OW 6891   4.716   3.944   2.749  0.1485  0.0289  0.0011
 1790SOL    HW2 6892   4.804   3.973   2.772 -0.0193  0.1950  0.4450
 1790SOL    HW3 6893   4.660   4.019   2.767 -0.3295 -0.6434  1.4499
 1790SOL    MW4 6894   4.721   3.957   2.755  0.0096  0.3632  0.1737
 1791SOL     OW 6895   1.976   6.385   5.272  0.0603  0.6171  0.0813
 1791SOL    HW2 6896   1.940   6.380   5.183 -2.7417  1.5315  1.0336
 1791SOL    HW3 6897   2.029   6.465   5.272 -0.4944  1.0008 -0.6187
 1791SOL    MW4 6898   1.978   6.395   5.260 -0.2722  0.1078  0.0950
 1792SOL     OW 6899   3.427   2.830   3.952 -0.4759  0.4472  0.1137
 1792SOL    HW2 6900   3.483   2.818   4.028  1.2238 -0.7666 -1.2483
 1792SOL    HW3 6901   3.366   2.900   3.977 -0.4736 -0.4230  2.8151
 1792SOL    MW4 6902   3.426   2.838   3.965  0.4270 -0.0245  0.1378
 1793SOL     OW 6903   4.841   4.948   2.191 -0.1825  0.4614 -0.3128
 1793SOL    HW2 6904   4.920   4.927   2.242  0.5582  1.0506 -1.1727
 1793SOL    HW3 6905   4.850   5.041   2.170 -1.0248  0.4921 -0.5676
 1793SOL    MW4 6906   4.853   4.958   2.195  0.1203 -0.2824  0.2984
 1794SOL     OW 6907   0.080   6.107   3.361  0.1075 -0.7945 -0.2611
 1794SOL    HW2 6908   0.116   6.125   3.447 -0.7424  1.6806 -0.3611
 1794SOL    HW3 6909   0.147   6.135   3.300 -0.6690  0.8688 -0.4034
 1794SOL    MW4 6910   0.093   6.113   3.364 -0.1370 -0.1605  0.2514
 1795SOL     OW 6911   4.486   2.571   3.013  0.2860 -0.5630  0.3130
 1795SOL    HW2 6912   4.494   2.667   3.011  0.1251 -0.5396  0.5804
 1795SOL    HW3 6913   4.392   2.555   3.005  0.3062 -0.6951  0.3409
 1795SOL    MW4 6914   4.474   2.582   3.012 -0.2573  0.4581 -0.6506
 1796SOL     OW 6915   4.285   6.063   2.897 -0.5960  0.6831 -0.0766
 1796SOL    HW2 6916   4.341   6.111   2.957 -0.8919  0.2042  0.5970
 1796SOL    HW3 6917   4.336   5.985   2.873 -1.2501 -0.1474  1.1426
 1796SOL    MW4 6918   4.299   6.059   2.902 -0.1858  0.5851 -0.5982
 1797SOL     OW 6919   4.638   2.374   0.849 -0.2764  0.4419  0.3164
 1797SOL    HW2 6920   4.663   2.430   0.923 -0.5918 -0.6363  1.2758
 1797SOL    HW3 6921   4.568   2.423   0.806  1.3724  2.0981 -0.6182
 1797SOL    MW4 6922   4.632   2.388   0.853 -0.0783  0.3300 -0.0643
 1798SOL     OW 6923   6.184   5.872   2.385 -0.0994  0.2789 -0.2328
 1798SOL    HW2 6924   6.201   5.964   2.364 -0.3874  0.4361  0.2172
 1798SOL    HW3 6925   6.229   5.824   2.315  1.1578  0.7185  0.2410
 1798SOL    MW4 6926   6.192   5.878   2.373  0.0847  0.1708  0.1478
 1799SOL     OW 6927   4.438   6.376   1.834 -0.0991  0.1162 -0.2418
 1799SOL    HW2 6928   4.418   6.292   1.876 -1.1230  0.3546 -0.2234
 1799SOL    HW3 6929   4.431   6.358   1.740 -2.7486  0.6969 -0.2301
 1799SOL    MW4 6930   4.434   6.362   1.827  0.1099 -0.9630 -0.0900
 1800SOL     OW 6931   6.025   0.073   3.328 -0.5314 -0.3719  0.1705
 1800SOL    HW2 6932   6.066   0.142   3.276  1.4665 -2.5878 -1.4494
 1800SOL    HW3 6933   6.065   0.082   3.415 -1.1901  1.1833  0.3343
 1800SOL    MW4 6934   6.036   0.083   3.333 -0.0311  0.0959 -0.5510
 1801SOL     OW 6935   0.502   5.275   4.215  0.4210  0.3769 -0.2766
 1801SOL    HW2 6936   0.423   5.311   4.255  1.1713  0.0299  1.6221
 1801SOL    HW3 6937   0.505   5.314   4.127 -1.6708  0.6275 -0.2675
 1801SOL    MW4 6938   0.492   5.285   4.209  0.1460 -0.5562 -0.3410
 1802SOL     OW 6939   5.735   3.629   0.425 -0.0708  0.0238  0.0071
 1802SOL    HW2 6940   5.760   3.567   0.494  2.0116  0.6015 -0.1892
 1802SOL    HW3 6941   5.741   3.579   0.344 -2.2389 -0.5718  0.1444
 1802SOL    MW4 6942   5.739   3.614   0.423 -0.0917 -0.3639  0.5347
 1803SOL     OW 6943   4.986   2.454   3.658 -0.6904 -0.3202 -0.2301
 1803SOL    HW2 6944   4.958   2.390   3.593 -1.0216  0.0780 -0.4875
 1803SOL    HW3 6945   5.050   2.509   3.611 -2.1800  1.0343 -0.7697
 1803SOL    MW4 6946   4.991   2.453   3.643 -0.4551 -0.6931  0.4355
 1804SOL     OW 6947   3.424   0.550   1.109  0.0076  0.1882 -0.1959
 1804SOL    HW2 6948   3.342   0.569   1.155 -0.3846 -2.5470  0.4538
 1804SOL    HW3 6949   3.492   0.564   1.175  0.3104  3.6229 -1.0640
 1804SOL    MW4 6950   3.422   0.554   1.124 -0.1330 -0.1448  0.4756
 1805SOL     OW 6951   1.832   3.334   1.741  0.4652 -0.3164  0.3970
 1805SOL    HW2 6952   1.831   3.317   1.646  0.3807 -0.3401  0.4019
 1805SOL    HW3 6953   1.834   3.430   1.748  0.5770 -0.3169  0.3708
 1805SOL    MW4 6954   1.832   3.345   1.729  0.0230 -0.6245 -0.1109
 1806SOL     OW 6955   4.707   5.777   1.667  0.2193 -0.4640  0.0736
 1806SOL    HW2 6956   4.747   5.831   1.735  0.9806  0.0775 -0.7740
 1806SOL    HW3 6957   4.622   5.752   1.702  0.9905 -1.0270  1.6277
 1806SOL    MW4 6958   4.701   5.781   1.680  0.0028 -0.3929 -0.3716
 1807SOL     OW 6959   5.414   6.246   0.598 -0.1969 -0.1797 -0.3056
 1807SOL    HW2 6960   5.461   6.185   0.540  0.9783 -0.4080  0.8629
 1807SOL    HW3 6961   5.373   6.189   0.663  0.9427  0.2526  0.8198
 1807SOL    MW4 6962   5.414   6.230   0.599  0.5644 -0.0561  0.3909
 1808SOL     OW 6963   0.848   0.985   3.016  0.5542 -0.2049 -0.0910
 1808SOL    HW2 6964   0.937   1.018   3.002  0.5053 -0.9399 -2.5669
 1808SOL    HW3 6965   0.851   0.894   2.988 -0.9567 -0.2650 -0.1752
 1808SOL    MW4 6966   0.860   0.978   3.011 -0.8555  0.2340 -0.3857
 1809SOL     OW 6967   2.539   0.891   0.555 -0.6781 -0.1515 -0.0073
 1809SOL    HW2 6968   2.631   0.910   0.537 -0.8858  1.3862  0.4608
 1809SOL    HW3 6969   2.497   0.891   0.469 -0.1341 -1.6569 -0.3100
 1809SOL    MW4 6970   2.546   0.893   0.541 -0.0675 -0.1984  0.7878
 1810SOL     OW 6971   5.084   0.432   1.945  0.2770 -0.4234 -0.0410
 1810SOL    HW2 6972   5.063   0.442   2.038  2.6138  0.7413  0.4398
 1810SOL    HW3 6973   5.048   0.347   1.922  0.4870 -1.2086  2.2239
 1810SOL    MW4 6974   5.076   0.422   1.954  0.9214 -0.2085  0.1082
 1811SOL     OW 6975   5.495   2.931   3.653 -0.3740 -0.5016  0.0193
 1811SOL    HW2 6976   5.514   2.838   3.658  0.5074 -0.4591 -1.6589
 1811SOL    HW3 6977   5.534   2.959   3.570  0.9717  1.7378  1.3009
 1811SOL    MW4 6978   5.503   2.923   3.643 -0.0274  0.3667 -0.4810
 1812SOL     OW 6979   3.497   4.057   3.781  0.7142  0.3815 -0.5857
 1812SOL    HW2 6980   3.409   4.050   3.819  1.2979  1.6109  1.1193
 1812SOL    HW3 6981   3.485   4.031   3.689 -1.3565  0.2132 -0.3285
 1812SOL    MW4 6982   3.484   4.053   3.774  0.0632 -0.2711 -0.6465
 1813SOL     OW 6983   6.155   5.282   3.248 -0.3405 -0.2072 -0.3395
 1813SOL    HW2 6984   6.135   5.367   3.210 -0.0314  0.2801  0.5574
 1813SOL    HW3 6985   6.234   5.253   3.202 -1.5426 -0.9437 -2.0384
 1813SOL    MW4 6986   6.163   5.289   3.237  0.1708  0.3827  0.9965
 1814SOL     OW 6987   4.713   0.106   4.854 -0.0540 -0.1390  0.0860
 1814SOL    HW2 6988   4.706   0.176   4.788 -0.5851 -0.0140  0.2620
 1814SOL    HW3 6989   4.738   0.152   4.935 -0.2323 -0.1729  0.1618
 1814SOL    MW4 6990   4.715   0.121   4.856 -0.3940  0.2134 -0.7776
 1815SOL     OW 6991   4.967   3.535   6.251 -0.1464 -0.3058  0.4407
 1815SOL    HW2 6992   5.013   3.613   6.284  3.7465 -1.6685 -1.1532
 1815SOL    HW3 6993   4.932   3.562   6.166 -1.7170  0.4928  1.2812
 1815SOL    MW4 6994   4.969   3.549   6.245  0.6823  0.1288  0.8351
 1816SOL     OW 6995   5.300   0.340   5.782 -0.3464  0.2846 -0.7600
 1816SOL    HW2 6996   5.354   0.417   5.761  0.4342 -0.3795 -1.2280
 1816SOL    HW3 6997   5.314   0.326   5.875 -0.8081  0.9345 -0.5776
 1816SOL    MW4 6998   5.309   0.349   5.791  0.5002 -0.6056 -0.5710
 1817SOL     OW 6999   3.786   6.209   5.513 -0.1398  0.0411 -0.0545
 1817SOL    HW2 7000   3.765   6.277   5.576 -1.6915  0.3083 -0.8268
 1817SOL    HW3 7001   3.724   6.139   5.531  0.7180 -0.7183  0.0039
 1817SOL    MW4 7002   3.775   6.209   5.523 -0.3873  0.9650  0.3595
 1818SOL     OW 7003   2.146   2.914   1.799  0.4792 -0.5119 -0.4707
 1818SOL    HW2 7004   2.070   2.955   1.842  1.5789  1.6592 -0.4568
 1818SOL    HW3 7005   2.141   2.822   1.825 -2.4912 -0.5999 -0.9894
 1818SOL    MW4 7006   2.135   2.907   1.808 -0.4940  0.5162  0.1434
 1819SOL     OW 7007   4.621   3.732   1.379  0.2716 -0.1474  0.1573
 1819SOL    HW2 7008   4.683   3.717   1.307  1.0547 -1.5075  1.0804
 1819SOL    HW3 7009   4.544   3.769   1.336  0.9947 -0.2304 -1.2854
 1819SOL    MW4 7010   4.619   3.735   1.364 -0.0436  0.6782  0.5836
 1820SOL     OW 7011   1.598   1.418   4.142  0.1975  0.2838  0.5819
 1820SOL    HW2 7012   1.510   1.393   4.169  0.4828 -1.3453  0.1392
 1820SOL    HW3 7013   1.602   1.396   4.049  2.5241 -4.6149  1.4774
 1820SOL    MW4 7014   1.587   1.412   4.133 -0.2714  0.2425  0.1911
 1821SOL     OW 7015   3.014   3.818   6.302 -0.2888  0.0327 -0.3301
 1821SOL    HW2 7016   3.029   3.909   6.329 -2.5852  0.2061  0.5009
 1821SOL    HW3 7017   2.970   3.825   6.217 -1.1612 -0.2577  0.0864
 1821SOL    MW4 7018   3.010   3.831   6.295 -0.1626  0.0845 -0.3163
 1822SOL     OW 7019   1.143   4.461   5.926 -0.2679  0.0693 -0.4210
 1822SOL    HW2 7020   1.234   4.477   5.950 -1.2829  1.9875  2.7536
 1822SOL    HW3 7021   1.125   4.373   5.959 -0.3911  0.9742  2.1390
 1822SOL    MW4 7022   1.153   4.452   5.934  0.1141  0.1705 -0.2355
 1823SOL     OW 7023   4.458   0.977   3.867 -0.1956 -0.5821 -0.1630
 1823SOL    HW2 7024   4.419   1.034   3.801  0.7849  0.4332  0.1014
 1823SOL    HW3 7025   4.398   0.980   3.941  1.6315  3.3242  1.4158
 1823SOL    MW4 7026   4.445   0.985   3.868 -0.3000 -0.4500  0.3669
 1824SOL     OW 7027   4.154   5.869   1.377  0.6170 -0.2652  0.3335
 1824SOL    HW2 7028   4.204   5.907   1.306 -0.3167 -0.7131 -0.6008
 1824SOL    HW3 7029   4.194   5.783   1.392  0.7790 -0.1933  0.3125
 1824SOL    MW4 7030   4.166   5.863   1.370  0.0447 -0.2043  0.2303
 1825SOL     OW 7031   0.512   2.967   5.448 -0.3678 -0.0199 -0.4230
 1825SOL    HW2 7032   0.597   2.985   5.487  0.7934 -2.7041 -1.4858
 1825SOL    HW3 7033   0.532   2.918   5.369 -2.8883  0.4455 -1.4464
 1825SOL    MW4 7034   0.526   2.963   5.443  0.5127 -0.1638  1.0320
 1826SOL     OW 7035   2.944   0.665   3.405 -0.3588  0.3548  0.1414
 1826SOL    HW2 7036   2.892   0.611   3.465 -1.4825  2.9241  1.6195
 1826SOL    HW3 7037   3.034   0.633   3.417 -0.7969 -0.3378  1.9307
 1826SOL    MW4 7038   2.949   0.653   3.415  0.2298  0.0004  0.4022
 1827SOL     OW 7039   3.586   6.137   2.259  0.1472 -0.0396 -0.5701
 1827SOL    HW2 7040   3.655   6.159   2.322  0.4430  1.6604 -1.4432
 1827SOL    HW3 7041   3.508   6.124   2.313  0.7115 -0.0521  0.2638
 1827SOL    MW4 7042   3.584   6.138   2.274 -1.0548  0.2042 -0.4456
 1828SOL     OW 7043   2.152   1.257   0.764  0.7251  0.1747 -0.3467
 1828SOL    HW2 7044   2.199   1.267   0.847  0.9726 -0.1891 -0.4435
 1828SOL    HW3 7045   2.065   1.293   0.781  0.1920 -1.4724  0.5832
 1828SOL    MW4 7046   2.147   1.263   0.777  0.0549 -0.7412  0.0515
 1829SOL     OW 7047   2.408   5.114   2.089 -0.1695 -0.8906 -0.0672
 1829SOL    HW2 7048   2.400   5.157   2.004 -1.4837 -1.2216 -0.1285
 1829SOL    HW3 7049   2.498   5.133   2.117 -0.6099  1.7995 -0.1447
 1829SOL    MW4 7050   2.419   5.122   2.082 -0.6479 -0.6639  0.1652
 1830SOL     OW 7051   3.640   2.726   1.234 -0.3494 -0.3759  0.7700
 1830SOL    HW2 7052   3.652   2.683   1.150 -0.2284  0.4619  0.3437
 1830SOL    HW3 7053   3.583   2.801   1.215 -0.7736 -0.4926  1.5384
 1830SOL    MW4 7054   3.634   2.731   1.221  0.2850  0.1023  0.8729
 1831SOL     OW 7055   0.884   2.063   5.033 -0.1343  0.6233  0.5317
 1831SOL    HW2 7056   0.901   2.156   5.048  1.9095  0.5224 -0.7292
 1831SOL    HW3 7057   0.965   2.020   5.060 -0.6253 -0.6635  0.0116
 1831SOL    MW4 7058   0.897   2.070   5.038  0.2700  0.1259  0.1717
 1832SOL     OW 7059   5.295   6.112   0.820  0.1216 -0.6406  0.5494
 1832SOL    HW2 7060   5.343   6.029   0.820  0.6284 -0.3531  1.0316
 1832SOL    HW3 7061   5.211   6.090   0.860  0.9036 -0.5738  2.3049
 1832SOL    MW4 7062   5.290   6.098   0.825 -0.2198  0.4130 -0.4101
 1833SOL     OW 7063   0.220   3.946   3.032 -0.3964 -0.4264  0.6200
 1833SOL    HW2 7064   0.140   3.977   2.991 -0.9589 -1.9759  0.4781
 1833SOL    HW3 7065   0.286   3.951   2.962 -0.4974  0.3406  0.5785
 1833SOL    MW4 7066   0.218   3.951   3.017  0.4658 -0.0142  0.0831
 1834SOL     OW 7067   0.565   2.068   6.357  0.2872  0.4990 -0.3160
 1834SOL    HW2 7068   0.566   2.163   6.367 -1.8517  0.6257 -0.8027
 1834SOL    HW3 7069   0.633   2.049   6.292  0.0846  1.7957 -0.9267
 1834SOL    MW4 7070   0.574   2.078   6.350 -0.2507 -0.2323  0.0010
 1835SOL     OW 7071   2.717   1.650   4.832 -0.9561 -0.1733 -0.2297
 1835SOL    HW2 7072   2.712   1.592   4.908 -0.6539 -0.7337 -0.6320
 1835SOL    HW3 7073   2.790   1.709   4.852 -1.3848  0.2001  0.2655
 1835SOL    MW4 7074   2.726   1.650   4.845 -0.2756 -0.1122 -0.1255
 1836SOL     OW 7075   3.066   1.909   2.600 -0.1234 -0.2766 -0.3021
 1836SOL    HW2 7076   3.066   1.966   2.677  2.8339 -0.1648 -0.2603
 1836SOL    HW3 7077   2.992   1.850   2.613 -2.8283  2.8804  0.0929
 1836SOL    MW4 7078   3.056   1.909   2.612 -0.3296  0.2617  0.1221
 1837SOL     OW 7079   3.840   4.365   1.263  0.0424 -0.0652  0.4567
 1837SOL    HW2 7080   3.782   4.414   1.205  1.6383  0.9824 -0.3213
 1837SOL    HW3 7081   3.813   4.274   1.252 -0.2279  0.2003 -1.3144
 1837SOL    MW4 7082   3.829   4.360   1.254  0.3856  0.1333  0.5648
 1838SOL     OW 7083   2.258   6.360   2.733 -0.5628 -0.0875 -0.1429
 1838SOL    HW2 7084   2.325   6.428   2.738 -1.4297  1.0818 -2.6502
 1838SOL    HW3 7085   2.175   6.408   2.729 -1.1580 -1.1163 -2.8526
 1838SOL    MW4 7086   2.256   6.375   2.733 -0.5374  0.1283  0.0572
 1839SOL     OW 7087   0.585   0.002   3.686  0.7222  0.8378 -0.8406
 1839SOL    HW2 7088   0.653   0.037   3.744  0.1578  0.1744  0.2642
 1839SOL    HW3 7089   0.627  -0.070   3.640  0.1278 -1.4474  1.8858
 1839SOL    MW4 7090   0.599  -0.003   3.688 -0.1278  0.6938  0.9111
 1840SOL     OW 7091   2.994   5.519   0.706  0.7999  0.4364 -0.0059
 1840SOL    HW2 7092   3.043   5.499   0.785  0.7894 -0.2294 -0.1668
 1840SOL    HW3 7093   3.018   5.450   0.644  0.1816  0.4872 -0.3086
 1840SOL    MW4 7094   3.003   5.508   0.708 -0.0265 -0.3961  0.0802
 1841SOL     OW 7095   3.754   3.638   0.563  0.5167 -0.6298  0.2084
 1841SOL    HW2 7096   3.672   3.591   0.577 -0.1607  0.2448 -0.6711
 1841SOL    HW3 7097   3.732   3.730   0.577  1.7266 -0.5100  1.5093
 1841SOL    MW4 7098   3.740   3.644   0.567 -0.1238  0.0301 -0.0320
 1842SOL     OW 7099   0.415   3.869   5.297 -0.3616 -0.4173 -0.1442
 1842SOL    HW2 7100   0.346   3.935   5.298 -0.0975 -0.1441  1.2475
 1842SOL    HW3 7101   0.408   3.829   5.210 -0.9161  1.0167 -0.7884
 1842SOL    MW4 7102   0.405   3.872   5.286 -0.4281  0.1547 -0.1879
 1843SOL     OW 7103   3.499   3.541   1.345 -0.3970  0.0737  0.2953
 1843SOL    HW2 7104   3.409   3.549   1.312 -0.4942  1.0854  0.7667
 1843SOL    HW3 7105   3.489   3.511   1.435 -0.1408 -2.4280 -0.4217
 1843SOL    MW4 7106   3.486   3.538   1.352  0.0030 -0.2310  0.1541
 1844SOL     OW 7107   0.229   0.884   5.809  0.1560  0.5925 -0.1787
 1844SOL    HW2 7108   0.188   0.964   5.777 -1.4516  0.2393  0.8484
 1844SOL    HW3 7109   0.161   0.843   5.864  1.7664 -0.2300  1.2949
 1844SOL    MW4 7110   0.214   0.889   5.812  0.2887 -0.0264 -0.6112
 1845SOL     OW 7111   2.655   5.050   5.403  0.0816 -0.0348 -0.2104
 1845SOL    HW2 7112   2.620   5.072   5.316 -1.0516  1.0578  0.4747
 1845SOL    HW3 7113   2.634   5.127   5.456  2.2779  0.0371  0.6353
 1845SOL    MW4 7114   2.647   5.063   5.398 -0.2058  0.4167 -0.3089
 1846SOL     OW 7115   2.900   0.472   5.783 -0.8642 -0.0479  0.0027
 1846SOL    HW2 7116   2.869   0.390   5.821 -1.8050  0.5496  0.5655
 1846SOL    HW3 7117   2.993   0.457   5.767 -0.8947 -1.0203  0.6572
 1846SOL    MW4 7118   2.908   0.459   5.786 -0.5995  0.0921  0.5375
 1847SOL     OW 7119   4.920   1.894   0.747 -0.4209  0.2186  0.0422
 1847SOL    HW2 7120   4.909   1.951   0.671  0.9327 -0.6476 -0.8550
 1847SOL    HW3 7121   4.860   1.821   0.731  0.3690 -0.3107 -0.5709
 1847SOL    MW4 7122   4.910   1.892   0.735 -0.1329  0.0603  0.6226
 1848SOL     OW 7123   0.990   0.318   1.076  0.4330 -0.0549 -0.2237
 1848SOL    HW2 7124   1.066   0.341   1.023 -0.4675 -0.8083 -1.8959
 1848SOL    HW3 7125   0.930   0.392   1.067  0.0517 -0.4200 -0.7047
 1848SOL    MW4 7126   0.992   0.331   1.068  0.0625  0.5802  0.7011
 1849SOL     OW 7127   2.625   3.741   4.885 -0.1423  0.1265  0.4738
 1849SOL    HW2 7128   2.635   3.721   4.792  0.4340  0.3732  0.4761
 1849SOL    HW3 7129   2.694   3.805   4.903 -1.4615  1.5850  0.6280
 1849SOL    MW4 7130   2.635   3.747   4.875  0.2748  0.0956 -0.0987
 1850SOL     OW 7131   6.005   1.863   2.168  0.2354 -0.2790 -0.2468
 1850SOL    HW2 7132   6.028   1.894   2.081 -0.5921 -2.8062 -1.4488
 1850SOL    HW3 7133   5.919   1.900   2.186 -0.0773 -0.6204 -1.0076
 1850SOL    MW4 7134   5.997   1.872   2.159  0.3560 -0.0492  0.5612
 1851SOL     OW 7135   2.144   5.298   6.155  0.0622 -0.4685  0.0239
 1851SOL    HW2 7136   2.089   5.364   6.113 -1.4539 -1.7964 -0.2028
 1851SOL    HW3 7137   2.085   5.251   6.213  1.3646 -0.8794  1.0633
 1851SOL    MW4 7138   2.129   5.300   6.157  0.0834  0.4554  0.1840
 1852SOL     OW 7139   2.797   3.085   4.433 -0.2549  0.0196  0.1254
 1852SOL    HW2 7140   2.773   3.159   4.376  0.1589 -0.0094 -0.0911
 1852SOL    HW3 7141   2.716   3.034   4.441 -1.1000  1.5180  1.8482
 1852SOL    MW4 7142   2.783   3.088   4.427 -0.0226 -0.5668  0.3439
 1853SOL     OW 7143   5.337   6.273   4.029 -0.4189 -0.7431  0.3755
 1853SOL    HW2 7144   5.289   6.355   4.019 -0.4534 -0.7317  0.6321
 1853SOL    HW3 7145   5.269   6.205   4.033 -0.4336 -0.7025  1.0014
 1853SOL    MW4 7146   5.322   6.275   4.028 -0.0791 -0.3344 -0.5900
 1854SOL     OW 7147   4.654   0.897   3.470  0.1944 -0.1944  0.3214
 1854SOL    HW2 7148   4.592   0.889   3.397 -0.0642  0.0213  0.5158
 1854SOL    HW3 7149   4.709   0.819   3.463  3.6899  2.2342 -3.3452
 1854SOL    MW4 7150   4.653   0.885   3.459  0.4089 -0.2997  0.3648
 1855SOL     OW 7151   2.803   3.623   0.763 -0.0302 -0.0304  0.7781
 1855SOL    HW2 7152   2.830   3.713   0.781 -1.1741  0.3528  0.6980
 1855SOL    HW3 7153   2.730   3.632   0.702 -0.3141 -0.9964  0.9570
 1855SOL    MW4 7154   2.797   3.636   0.758 -0.2495  0.3696  0.2627
 1856SOL     OW 7155   5.871   1.073   3.844  0.0883  0.3810 -0.2515
 1856SOL    HW2 7156   5.843   0.983   3.825 -0.3676  0.6311 -0.7750
 1856SOL    HW3 7157   5.801   1.128   3.811  0.3849  0.9393  0.0344
 1856SOL    MW4 7158   5.858   1.068   3.837 -0.0039  0.2660  0.0583
 1857SOL     OW 7159   2.194   1.339   1.863  0.3916 -0.1189 -0.1003
 1857SOL    HW2 7160   2.178   1.420   1.816 -2.0699  0.7023  1.9484
 1857SOL    HW3 7161   2.232   1.366   1.947  0.3206 -1.1369  0.2855
 1857SOL    MW4 7162   2.197   1.353   1.868 -0.2030  0.4374 -0.0245
 1858SOL     OW 7163   5.043   2.050   3.292 -0.5382  0.1906  0.0335
 1858SOL    HW2 7164   5.125   2.037   3.339  0.2364  3.1670 -0.3068
 1858SOL    HW3 7165   4.975   2.018   3.351  0.7364 -0.6568  1.0806
 1858SOL    MW4 7166   5.045   2.044   3.306 -0.3366  0.0411  0.0985
 1859SOL     OW 7167   1.807   4.748   1.982 -0.1492  0.1027 -0.1247
 1859SOL    HW2 7168   1.747   4.754   2.057 -0.0339 -1.9793  0.1960
 1859SOL    HW3 7169   1.774   4.675   1.930  1.4914 -0.4461 -0.4770
 1859SOL    MW4 7170   1.795   4.739   1.985 -0.4355  0.2198  0.1790
 1860SOL     OW 7171   0.143   0.538   2.697 -0.0074 -0.3763  0.2303
 1860SOL    HW2 7172   0.235   0.554   2.715 -0.4604  0.6958  1.7116
 1860SOL    HW3 7173   0.140   0.520   2.602  1.6316  0.0730  0.0712
 1860SOL    MW4 7174   0.155   0.538   2.687 -0.2834 -0.2946  0.1526
 1861SOL     OW 7175   0.021   1.230   0.808  0.3258 -0.2205 -0.2876
 1861SOL    HW2 7176   0.075   1.207   0.883 -0.2477 -1.4160 -0.2195
 1861SOL    HW3 7177   0.011   1.325   0.813  0.2188 -0.2979  1.1964
 1861SOL    MW4 7178   0.027   1.240   0.818 -0.1486 -0.3365  0.8258
 1862SOL     OW 7179   2.886   1.720   0.315  0.1018 -0.1336 -0.5511
 1862SOL    HW2 7180   2.873   1.636   0.272  2.9597 -0.7012 -0.4746
 1862SOL    HW3 7181   2.960   1.706   0.373 -1.2453  1.6624  1.7475
 1862SOL    MW4 7182   2.894   1.707   0.317 -0.1044 -0.0713 -0.1089
 1863SOL     OW 7183   6.085   0.691   3.337  0.2333  0.2825 -0.6141
 1863SOL    HW2 7184   6.025   0.693   3.262 -0.7298  0.4834  0.1385
 1863SOL    HW3 7185   6.101   0.784   3.356 -1.4771  0.3000  0.9248
 1863SOL    MW4 7186   6.079   0.704   3.329 -0.1000 -0.4821  0.0608
 1864SOL     OW 7187   2.909   6.103   1.422  0.8380 -0.0940  0.0199
 1864SOL    HW2 7188   2.911   6.014   1.457  0.2589  0.4232  1.4546
 1864SOL    HW3 7189   2.919   6.092   1.328 -1.2174 -1.8410 -0.0857
 1864SOL    MW4 7190   2.910   6.090   1.414  0.0762 -0.1311  0.2443
 1865SOL     OW 7191   5.725   0.688   4.306  0.1421  0.0673 -0.0241
 1865SOL    HW2 7192   5.724   0.714   4.214 -0.2504  0.9313  0.2210
 1865SOL    HW3 7193   5.797   0.738   4.345 -0.0057  0.0693  0.2474
 1865SOL    MW4 7194   5.734   0.698   4.299  0.4633 -0.5627 -0.9522
 1866SOL     OW 7195   1.073   4.125   0.507 -0.2512 -0.4821  0.1656
 1866SOL    HW2 7196   1.063   4.044   0.458 -1.7817 -0.2732  0.0650
 1866SOL    HW3 7197   1.004   4.182   0.473 -0.5101  0.1360  1.6208
 1866SOL    MW4 7198   1.062   4.122   0.496  0.0053 -0.1260  0.6884
 1867SOL     OW 7199   5.776   2.586   5.753 -0.1458 -0.3163  0.6875
 1867SOL    HW2 7200   5.702   2.581   5.693 -1.9236  1.0188  2.6049
 1867SOL    HW3 7201   5.792   2.496   5.780 -0.2344 -0.7596 -0.6756
 1867SOL    MW4 7202   5.768   2.574   5.748 -0.5416 -0.1852 -0.2632
 1868SOL     OW 7203   0.542   3.479   3.679  0.4738 -0.1796  0.0633
 1868SOL    HW2 7204   0.466   3.511   3.727  0.3122 -0.4895  0.0125
 1868SOL    HW3 7205   0.506   3.440   3.599  0.6826 -0.3698  0.0621
 1868SOL    MW4 7206   0.527   3.478   3.675  0.0452 -0.4331  0.1800
 1869SOL     OW 7207   2.329   3.221   3.142  0.4515  0.0683 -0.8003
 1869SOL    HW2 7208   2.322   3.246   3.234  1.5398  1.1037 -0.9714
 1869SOL    HW3 7209   2.370   3.135   3.143  0.0542 -0.1158 -0.3063
 1869SOL    MW4 7210   2.333   3.213   3.154 -1.0487 -0.2803 -0.6665
 1870SOL     OW 7211   4.401   1.800   1.162 -0.2687 -0.2877  0.5366
 1870SOL    HW2 7212   4.465   1.868   1.140 -1.0579  0.6009  0.9140
 1870SOL    HW3 7213   4.330   1.848   1.206 -1.4210 -1.1796 -0.3102
 1870SOL    MW4 7214   4.400   1.816   1.165  0.0389  0.0472  0.0083
 1871SOL     OW 7215   0.212   1.997   5.826  0.2828  0.4832 -0.0115
 1871SOL    HW2 7216   0.135   1.961   5.782  0.9242 -1.8622  0.6886
 1871SOL    HW3 7217   0.178   2.029   5.910  0.1452 -1.1456  0.5786
 1871SOL    MW4 7218   0.197   1.997   5.831 -0.2537 -0.3407  0.5103
 1872SOL     OW 7219   5.685   1.764   1.326 -0.6562 -0.0255  0.3893
 1872SOL    HW2 7220   5.767   1.774   1.276 -0.5063 -1.2874  0.3640
 1872SOL    HW3 7221   5.698   1.818   1.404  0.0094  0.1550  0.1637
 1872SOL    MW4 7222   5.698   1.773   1.329  0.0387  0.2294 -0.1267
 1873SOL     OW 7223   0.231   0.252   3.008  0.2372 -0.6406  0.4437
 1873SOL    HW2 7224   0.197   0.251   2.918  1.0274  0.0201  0.1257
 1873SOL    HW3 7225   0.162   0.210   3.060 -0.2890 -0.9165 -0.4457
 1873SOL    MW4 7226   0.218   0.246   3.003 -0.2556 -0.0137  0.6009
 1874SOL     OW 7227   2.147   3.349   1.600  0.2043 -0.0492  0.4398
 1874SOL    HW2 7228   2.140   3.308   1.687 -0.9245  1.3535  1.0551
 1874SOL    HW3 7229   2.058   3.348   1.567  0.9341 -2.6586 -1.7846
 1874SOL    MW4 7230   2.134   3.343   1.607 -0.4222 -0.2941 -0.0622
 1875SOL     OW 7231   5.074   4.492   3.614  0.2824 -0.1172 -0.2780
 1875SOL    HW2 7232   5.166   4.496   3.589  0.5185  0.1785  0.6297
 1875SOL    HW3 7233   5.069   4.540   3.696 -0.4978 -1.0542  0.2346
 1875SOL    MW4 7234   5.085   4.499   3.621 -0.0348 -0.2640 -0.4701
 1876SOL     OW 7235   2.294   1.961   5.726  0.1433 -0.5316  0.1084
 1876SOL    HW2 7236   2.336   1.927   5.646  0.1071 -0.8770  0.2335
 1876SOL    HW3 7237   2.225   1.898   5.745 -0.9482  0.4328 -0.5218
 1876SOL    MW4 7238   2.291   1.948   5.718  0.1136  0.0499  0.0822
 1877SOL     OW 7239   5.117   2.641   3.520  0.4844 -0.3026  0.0901
 1877SOL    HW2 7240   5.163   2.662   3.439  1.2120  0.4699  0.6861
 1877SOL    HW3 7241   5.105   2.726   3.563  0.0007 -0.6905  0.7308
 1877SOL    MW4 7242   5.121   2.655   3.515  0.4120  0.1793  0.4356
 1878SOL     OW 7243   1.860   2.579   0.843 -0.4281 -0.0484 -0.2102
 1878SOL    HW2 7244   1.869   2.634   0.765  1.7889 -4.1809 -3.2972
 1878SOL    HW3 7245   1.781   2.528   0.827  0.0440 -0.9350  0.2244
 1878SOL    MW4 7246   1.851   2.580   0.830 -0.7771  0.1962  0.0174
 1879SOL     OW 7247   3.840   2.652   6.207  0.4269  0.3150  0.1768
 1879SOL    HW2 7248   3.751   2.624   6.186  0.9433  0.2160 -2.2221
 1879SOL    HW3 7249   3.829   2.735   6.253 -0.9036  0.4458 -0.3461
 1879SOL    MW4 7250   3.827   2.660   6.210 -0.4066 -0.1349 -0.7292
 1880SOL     OW 7251   0.184   1.886   3.321  0.0191  0.1118  0.3567
 1880SOL    HW2 7252   0.234   1.911   3.243 -0.9140  0.1152 -0.2472
 1880SOL    HW3 7253   0.211   1.795   3.338  0.6936  0.3126  0.4195
 1880SOL    MW4 7254   0.194   1.877   3.313  0.0395  0.1763  0.5305
 1881SOL     OW 7255   2.051   4.281   6.318  0.2856 -0.0700  0.2250
 1881SOL    HW2 7256   2.017   4.283   6.228 -0.7470  0.0862  0.6116
 1881SOL    HW3 7257   2.009   4.205   6.358  0.0253  0.4004  0.8552
 1881SOL    MW4 7258   2.041   4.272   6.311  0.3195 -0.0925 -0.7601
 1882SOL     OW 7259   5.571   5.033   3.889 -0.0051 -0.6017 -0.2317
 1882SOL    HW2 7260   5.512   4.958   3.880 -2.0487  0.7981  0.6283
 1882SOL    HW3 7261   5.627   5.011   3.964 -0.0559 -1.5859 -0.4732
 1882SOL    MW4 7262   5.571   5.020   3.898  0.4453 -0.5994  0.4054
 1883SOL     OW 7263   1.322   3.843   5.550  0.0838  0.0680 -0.4254
 1883SOL    HW2 7264   1.291   3.862   5.639 -0.6449 -0.3944 -0.5659
 1883SOL    HW3 7265   1.417   3.852   5.555 -0.0715  1.9702 -0.0712
 1883SOL    MW4 7266   1.330   3.846   5.562 -0.2356 -0.8459 -0.7524
 1884SOL     OW 7267   3.498   0.256   6.299  0.3782 -0.3459  0.2293
 1884SOL    HW2 7268   3.574   0.281   6.351  0.3177 -1.3994  0.8584
 1884SOL    HW3 7269   3.532   0.196   6.233  0.1389 -0.5858  0.3215
 1884SOL    MW4 7270   3.512   0.252   6.297 -0.5763 -0.1715  0.5363
 1885SOL     OW 7271   3.837   6.244   1.845  0.0145 -0.4954  0.0090
 1885SOL    HW2 7272   3.858   6.295   1.923  2.1548  0.0360 -0.8453
 1885SOL    HW3 7273   3.768   6.294   1.801 -1.2581 -0.8370  1.5461
 1885SOL    MW4 7274   3.830   6.257   1.849  0.4925 -0.5459 -0.2467
 1886SOL     OW 7275   4.423   6.340   5.147  0.2354 -0.2850  0.5850
 1886SOL    HW2 7276   4.335   6.368   5.175  0.8621  0.7386  1.6325
 1886SOL    HW3 7277   4.430   6.372   5.058 -0.4534 -0.3671  0.4921
 1886SOL    MW4 7278   4.412   6.348   5.139  0.8943 -0.2386  0.5404
 1887SOL     OW 7279   4.402   1.332   4.744 -0.2556 -0.2702  0.1033
 1887SOL    HW2 7280   4.474   1.344   4.805  1.4572  2.5817 -2.1920
 1887SOL    HW3 7281   4.428   1.259   4.689 -0.4682 -1.0070  0.9582
 1887SOL    MW4 7282   4.415   1.324   4.745 -0.6434 -0.1094  0.1776
 1888SOL     OW 7283   5.168   0.219   2.898 -0.1943 -0.0532  0.4146
 1888SOL    HW2 7284   5.099   0.217   2.831 -0.5542 -0.4607  0.7899
 1888SOL    HW3 7285   5.129   0.268   2.971  0.7410  1.7614 -0.2474
 1888SOL    MW4 7286   5.154   0.226   2.899 -0.5443 -0.1398 -0.0230
 1889SOL     OW 7287   1.473   5.497   6.255 -0.5278  0.4279 -0.1224
 1889SOL    HW2 7288   1.395   5.476   6.204  0.0894 -1.1107 -0.4958
 1889SOL    HW3 7289   1.489   5.418   6.307  0.3798  0.9837  0.4576
 1889SOL    MW4 7290   1.465   5.484   6.255  0.5235 -0.1149  0.4945
 1890SOL     OW 7291   5.207   5.089   3.613 -0.0950 -0.1125  0.6596
 1890SOL    HW2 7292   5.191   5.116   3.703 -1.8804  0.2867  0.2702
 1890SOL    HW3 7293   5.267   5.154   3.578 -1.4661  1.3006  0.8203
 1890SOL    MW4 7294   5.213   5.101   3.620  0.1786  0.4006 -0.1195
 1891SOL     OW 7295   0.960   0.274   5.712  0.2957  0.0475  0.8311
 1891SOL    HW2 7296   0.963   0.212   5.785 -0.0225 -0.3955  0.4783
 1891SOL    HW3 7297   0.938   0.220   5.636 -0.5146  0.6631  0.6068
 1891SOL    MW4 7298   0.957   0.259   5.712 -0.5275  0.5070 -0.9458
 1892SOL     OW 7299   1.000   0.543   6.005 -0.5765 -0.3154 -0.0509
 1892SOL    HW2 7300   0.988   0.637   6.017  0.5769  0.2911 -2.9114
 1892SOL    HW3 7301   0.932   0.517   5.943 -1.0130 -1.4570  0.8517
 1892SOL    MW4 7302   0.989   0.552   5.999  0.2271 -0.1747  0.2149
 1893SOL     OW 7303   3.780   0.137   4.176  0.2886  0.0376 -0.3219
 1893SOL    HW2 7304   3.849   0.200   4.156  0.3420 -0.4689 -1.8439
 1893SOL    HW3 7305   3.742   0.115   4.091 -0.3836 -1.2464  0.2827
 1893SOL    MW4 7306   3.784   0.143   4.162  0.3329 -0.2205  0.6535
 1894SOL     OW 7307   5.333   0.533   3.092  0.0215  0.3091  0.5303
 1894SOL    HW2 7308   5.389   0.573   3.026 -1.2218  1.7556  0.2764
 1894SOL    HW3 7309   5.309   0.605   3.150 -0.3703 -0.5672  1.4911
 1894SOL    MW4 7310   5.337   0.548   3.091  0.3898 -0.5597 -0.2450
 1895SOL     OW 7311   0.265   5.069   0.737  0.6198 -0.1512 -0.4697
 1895SOL    HW2 7312   0.310   5.148   0.707  0.0736  0.8140  1.1306
 1895SOL    HW3 7313   0.173   5.083   0.713  0.1200  0.7629  1.7021
 1895SOL    MW4 7314   0.259   5.082   0.730 -0.0246  0.0739 -0.1312
 1896SOL     OW 7315   2.424   3.704   5.933  0.1135  0.0838 -0.0271
 1896SOL    HW2 7316   2.472   3.756   5.998  0.5271 -0.1143 -0.1707
 1896SOL    HW3 7317   2.486   3.694   5.860 -0.2885  0.1610 -0.3777
 1896SOL    MW4 7318   2.439   3.709   5.932  0.1793  0.4818  1.0124
 1897SOL     OW 7319   1.029   2.350   0.374 -0.0479  0.6057  0.4623
 1897SOL    HW2 7320   1.099   2.361   0.438 -0.8399  1.8149  1.1538
 1897SOL    HW3 7321   0.974   2.280   0.409  0.8290 -0.4125 -0.1285
 1897SOL    MW4 7322   1.031   2.343   0.387  0.2719 -0.2038  0.3263
 1898SOL     OW 7323   5.405   2.060   3.691  0.0557  0.3429  0.2297
 1898SOL    HW2 7324   5.486   2.109   3.677  0.6737 -0.2922  1.3994
 1898SOL    HW3 7325   5.361   2.107   3.762 -1.2770  1.4551 -1.2813
 1898SOL    MW4 7326   5.410   2.073   3.699  0.3867  0.4340  0.2006
 1899SOL     OW 7327   0.668   3.393   0.604  0.2027  0.8051 -0.0796
 1899SOL    HW2 7328   0.727   3.340   0.551  0.9200  0.8155  0.6860
 1899SOL    HW3 7329   0.584   3.347   0.599  0.7929 -0.3785  0.5084
 1899SOL    MW4 7330   0.665   3.380   0.596 -0.0773  0.3412  0.0583
 1900SOL     OW 7331   4.489   0.160   5.419  0.0252 -0.3139 -0.2749
 1900SOL    HW2 7332   4.414   0.190   5.470  0.9390 -0.0291  0.9490
 1900SOL    HW3 7333   4.496   0.067   5.439  0.9112 -0.0328  0.8908
 1900SOL    MW4 7334   4.480   0.152   5.429 -0.5133  0.2081 -0.2892
 1901SOL     OW 7335   4.889   3.908   0.829 -0.4639  0.4205 -0.0494
 1901SOL    HW2 7336   4.867   3.879   0.741 -1.9910  0.3160  0.3419
 1901SOL    HW3 7337   4.805   3.918   0.873  0.2912 -1.0093  1.8785
 1901SOL    MW4 7338   4.875   3.906   0.823  0.1473  0.3321 -0.8893
 1902SOL     OW 7339   4.678   2.060   1.692  0.1057  0.7720 -0.1948
 1902SOL    HW2 7340   4.628   2.132   1.729 -0.4602 -0.2664  1.1282
 1902SOL    HW3 7341   4.767   2.074   1.722 -0.1743  0.4416  0.8087
 1902SOL    MW4 7342   4.683   2.071   1.701 -0.2496  0.0314  0.8473
 1903SOL     OW 7343   0.761   2.483   5.577  0.2580  0.2095  1.1286
 1903SOL    HW2 7344   0.678   2.478   5.625 -0.5474  2.6429  0.1691
 1903SOL    HW3 7345   0.747   2.427   5.500 -0.9327  1.3498  0.4670
 1903SOL    MW4 7346   0.748   2.475   5.573  0.0344 -0.0098 -0.9965
 1904SOL     OW 7347   0.636   0.063   0.650 -0.1164  0.5052  0.1757
 1904SOL    HW2 7348   0.693   0.076   0.726 -0.7201  2.9443  0.3017
 1904SOL    HW3 7349   0.555   0.027   0.687  0.1273  0.2654  0.4771
 1904SOL    MW4 7350   0.633   0.060   0.665 -0.8600 -0.6491  0.3288
 1905SOL     OW 7351   2.104   0.719   2.311  0.3941 -0.2081 -0.0369
 1905SOL    HW2 7352   2.143   0.676   2.387  0.1522  1.1382  0.9073
 1905SOL    HW3 7353   2.021   0.673   2.298  1.8549 -2.5975 -1.5950
 1905SOL    MW4 7354   2.098   0.708   2.320 -0.1089  0.0159  0.5398
 1906SOL     OW 7355   4.887   1.166   2.559 -0.3186 -0.3977 -0.1795
 1906SOL    HW2 7356   4.940   1.092   2.591  0.3927 -0.3923 -1.3186
 1906SOL    HW3 7357   4.896   1.233   2.627 -2.4174 -1.9327  1.7915
 1906SOL    MW4 7358   4.895   1.165   2.572  0.5944 -0.2474 -0.1996
 1907SOL     OW 7359   4.880   1.095   4.852 -0.3016  0.4185 -0.1005
 1907SOL    HW2 7360   4.936   1.155   4.802 -0.3074 -0.2149 -0.8692
 1907SOL    HW3 7361   4.800   1.087   4.800 -0.9423  0.9563  0.7683
 1907SOL    MW4 7362   4.877   1.102   4.839  0.2736 -0.6798  0.0698
 1908SOL     OW 7363   6.018   2.548   2.617  0.0017 -0.1896 -0.0414
 1908SOL    HW2 7364   5.951   2.496   2.573  0.9687 -3.1616  1.7337
 1908SOL    HW3 7365   6.080   2.572   2.548 -1.7852  0.9608 -1.3496
 1908SOL    MW4 7366   6.017   2.544   2.603  0.1941  0.0090  0.7848
 1909SOL     OW 7367   1.737   1.805   5.915  0.0023  0.6773 -0.5876
 1909SOL    HW2 7368   1.647   1.813   5.883 -0.3943  1.6186  0.6653
 1909SOL    HW3 7369   1.759   1.893   5.946  1.1507  0.3217 -0.3487
 1909SOL    MW4 7370   1.728   1.818   5.915 -0.0451  0.3060  0.2402
 1910SOL     OW 7371   6.429   3.583   5.279  0.3207 -0.6522 -0.5186
 1910SOL    HW2 7372   6.381   3.537   5.210  0.5419 -2.1988  0.3122
 1910SOL    HW3 7373   6.510   3.532   5.289  1.0873  0.5735 -0.3160
 1910SOL    MW4 7374   6.434   3.570   5.271  0.1578 -0.4842 -0.4182
 1911SOL     OW 7375   5.494   5.660   2.925 -0.3894 -0.1092  0.4774
 1911SOL    HW2 7376   5.532   5.581   2.887 -0.1060  0.0880  0.3439
 1911SOL    HW3 7377   5.561   5.692   2.985 -1.0410 -0.7026  1.5482
 1911SOL    MW4 7378   5.508   5.654   2.928 -0.3297 -0.6853  0.4367
 1912SOL     OW 7379   0.441   5.485   4.779  0.0578 -0.1813  0.1462
 1912SOL    HW2 7380   0.489   5.485   4.861  1.4535 -1.9501 -0.6086
 1912SOL    HW3 7381   0.471   5.564   4.733  1.4372 -0.6756  0.1624
 1912SOL    MW4 7382   0.451   5.496   4.784 -0.4411 -0.4317  0.0383
 1913SOL     OW 7383   5.291   5.723   4.072  0.0637 -0.1091 -1.1092
 1913SOL    HW2 7384   5.336   5.773   4.004 -0.5421  1.6354 -0.2887
 1913SOL    HW3 7385   5.228   5.784   4.109  0.3980 -0.9797  1.0567
 1913SOL    MW4 7386   5.289   5.737   4.068  0.0729  0.4543  0.7239
 1914SOL     OW 7387   0.028   1.586   2.629 -0.0872  0.4331  0.0311
 1914SOL    HW2 7388   0.061   1.529   2.699 -0.8770  0.2006  0.2345
 1914SOL    HW3 7389  -0.039   1.639   2.671  0.5256  1.4169 -0.2006
 1914SOL    MW4 7390   0.023   1.585   2.644  0.0282  0.0753  0.0148
 1915SOL     OW 7391   4.668   3.841   3.099  0.0547  0.2623 -0.2079
 1915SOL    HW2 7392   4.718   3.923   3.092 -1.4058  1.0874 -1.8023
 1915SOL    HW3 7393   4.711   3.781   3.038  0.1680  0.3740 -0.2376
 1915SOL    MW4 7394   4.680   3.844   3.090 -0.3849 -0.1024  0.1997
 1916SOL     OW 7395   0.545   0.169   4.553  0.6171 -0.1556 -0.3799
 1916SOL    HW2 7396   0.480   0.239   4.546  1.5546  0.8088  0.1040
 1916SOL    HW3 7397   0.599   0.178   4.474  2.1991  1.2539  0.7873
 1916SOL    MW4 7398   0.544   0.179   4.542  0.3965 -0.8255  0.5238
 1917SOL     OW 7399   1.613   0.953   3.181  0.4745  0.4871  0.4668
 1917SOL    HW2 7400   1.708   0.962   3.172  0.4538 -0.5048 -1.2815
 1917SOL    HW3 7401   1.579   1.042   3.173  1.2105  0.7639  0.3641
 1917SOL    MW4 7402   1.621   0.966   3.179 -0.0373 -0.3836  0.0180
 1918SOL     OW 7403   2.452   2.375   6.015  0.3027  0.1686  0.0316
 1918SOL    HW2 7404   2.392   2.354   6.085 -0.0379 -0.5304 -0.4609
 1918SOL    HW3 7405   2.525   2.420   6.058 -1.1680  2.3011  0.4748
 1918SOL    MW4 7406   2.454   2.378   6.030  0.2160  0.5138 -0.1779
 1919SOL     OW 7407   0.727   6.198   0.638 -0.1199 -0.2662 -0.1394
 1919SOL    HW2 7408   0.646   6.203   0.587 -0.5719 -2.7052  0.2058
 1919SOL    HW3 7409   0.706   6.242   0.721 -0.6477  0.2679 -0.5504
 1919SOL    MW4 7410   0.713   6.204   0.643 -0.7369  0.1861 -0.0337
 1920SOL     OW 7411   4.950   1.815   5.610  0.1570 -0.0492 -0.4661
 1920SOL    HW2 7412   4.871   1.863   5.637 -0.4380 -0.8322 -0.7873
 1920SOL    HW3 7413   4.983   1.865   5.535 -2.5411 -2.0345 -3.2485
 1920SOL    MW4 7414   4.944   1.828   5.604  0.0083  0.4318 -1.0490
 1921SOL     OW 7415   1.716   1.929   5.004 -0.1648 -0.0934  0.3234
 1921SOL    HW2 7416   1.739   1.932   4.911 -1.9604 -0.8350 -0.1821
 1921SOL    HW3 7417   1.624   1.952   5.006 -0.4282 -1.1628  1.8084
 1921SOL    MW4 7418   1.707   1.932   4.992 -0.3704  0.3146 -0.2626
 1922SOL     OW 7419   5.542   5.339   3.742  0.4412  0.2991 -0.3722
 1922SOL    HW2 7420   5.624   5.381   3.767  0.2297  0.4074  0.1376
 1922SOL    HW3 7421   5.495   5.327   3.824 -0.0593  0.2485 -0.6651
 1922SOL    MW4 7422   5.547   5.343   3.756 -0.4266  0.1240 -0.3167
 1923SOL     OW 7423   0.447   6.090   0.042 -0.1350 -0.3779 -0.6060
 1923SOL    HW2 7424   0.354   6.113   0.042  0.0940  0.6859  0.9877
 1923SOL    HW3 7425   0.491   6.169   0.071  1.4785 -0.2827 -2.9951
 1923SOL    MW4 7426   0.440   6.103   0.046 -0.6493 -0.3620  0.0924
 1924SOL     OW 7427   4.644   5.383   2.320 -0.3834  0.6725  0.0211
 1924SOL    HW2 7428   4.643   5.338   2.235 -0.6657  1.6083 -0.4926
 1924SOL    HW3 7429   4.703   5.332   2.374  0.0185  0.2125 -0.8319
 1924SOL    MW4 7430   4.651   5.371   2.316  0.0016 -0.3373 -0.3788
 1925SOL     OW 7431   6.408   5.812   0.288 -0.1873 -0.6524 -0.3706
 1925SOL    HW2 7432   6.449   5.825   0.374  0.4784  0.6171 -0.8578
 1925SOL    HW3 7433   6.348   5.738   0.301 -0.4658 -0.1633  1.3122
 1925SOL    MW4 7434   6.406   5.804   0.301  0.5304 -0.6517 -0.0707
 1926SOL     OW 7435   2.464   6.350   3.940 -0.5168 -0.0533  0.0086
 1926SOL    HW2 7436   2.504   6.264   3.926 -2.7667 -1.1368 -0.2526
 1926SOL    HW3 7437   2.433   6.377   3.853  0.4939  1.2313  0.0142
 1926SOL    MW4 7438   2.465   6.342   3.926 -0.0159 -0.0050 -0.3647
 1927SOL     OW 7439   2.422   3.218   2.693  0.3904 -0.6038  0.3738
 1927SOL    HW2 7440   2.482   3.291   2.705 -0.4189  0.4224 -1.4636
 1927SOL    HW3 7441   2.458   3.169   2.619 -0.4582 -0.5768 -0.0684
 1927SOL    MW4 7442   2.434   3.221   2.685  0.5570 -0.1951  0.1208
 1928SOL     OW 7443   5.196   1.850   0.769  0.4455 -0.2528  0.1582
 1928SOL    HW2 7444   5.229   1.847   0.680  0.3370  0.3285  0.0942
 1928SOL    HW3 7445   5.100   1.854   0.760  0.4458  0.1144  0.2874
 1928SOL    MW4 7446   5.187   1.850   0.756  0.0541 -0.1046  0.6106
 1929SOL     OW 7447   6.318   3.893   4.332 -0.3184 -0.0527 -0.0816
 1929SOL    HW2 7448   6.406   3.931   4.341  0.0526 -1.3096  2.7842
 1929SOL    HW3 7449   6.334   3.800   4.314 -1.1480  0.1559 -2.1138
 1929SOL    MW4 7450   6.332   3.886   4.331  0.4245 -0.5043 -0.0950
 1930SOL     OW 7451   2.644   3.839   5.518  0.3636 -0.9676  0.3919
 1930SOL    HW2 7452   2.617   3.931   5.513  0.7106 -0.8819  0.0418
 1930SOL    HW3 7453   2.705   3.828   5.445  0.8984 -1.2827  0.8743
 1930SOL    MW4 7454   2.649   3.850   5.508 -0.1704 -0.1718  0.4902
 1931SOL     OW 7455   0.920   5.612   0.791  0.1549 -0.2677  0.1787
 1931SOL    HW2 7456   0.973   5.680   0.749  1.2438 -0.5780  1.0073
 1931SOL    HW3 7457   0.842   5.606   0.736 -0.2571  2.0439  0.3699
 1931SOL    MW4 7458   0.917   5.621   0.778  0.2077 -0.0119 -0.4366
 1932SOL     OW 7459   5.240   5.866   0.016  0.4568  0.6460  0.2460
 1932SOL    HW2 7460   5.287   5.793   0.056 -0.6128  0.2504  0.8015
 1932SOL    HW3 7461   5.222   5.926   0.088  0.3995  0.9624 -0.0269
 1932SOL    MW4 7462   5.244   5.865   0.031  0.1198  0.0754 -0.1420
 1933SOL     OW 7463   3.893   4.715   1.407 -0.0521 -0.3346  0.0870
 1933SOL    HW2 7464   3.920   4.739   1.318 -1.5171  1.1664 -0.0005
 1933SOL    HW3 7465   3.975   4.698   1.453  0.9117  1.4124 -0.8652
 1933SOL    MW4 7466   3.908   4.716   1.401  0.1606  0.6280 -0.1896
 1934SOL     OW 7467   2.444   2.286   3.201 -0.3024 -0.2606  0.5452
 1934SOL    HW2 7468   2.444   2.341   3.280 -0.0890  0.0614  0.3234
 1934SOL    HW3 7469   2.533   2.293   3.167 -0.7357  0.7262 -0.4938
 1934SOL    MW4 7470   2.456   2.294   3.207 -0.1986 -0.2745  0.1168
 1935SOL     OW 7471   3.964   3.483   4.448  0.2978  0.1971 -0.9420
 1935SOL    HW2 7472   3.919   3.399   4.460 -0.1345  0.2706 -1.9558
 1935SOL    HW3 7473   3.915   3.528   4.380  0.9932  0.9467 -0.9721
 1935SOL    MW4 7474   3.952   3.478   4.441 -0.0278 -0.4654 -0.6711
 1936SOL     OW 7475   2.376   5.207   4.893  0.2210  0.3624  0.0029
 1936SOL    HW2 7476   2.429   5.277   4.932 -0.8084  1.0096  0.2988
 1936SOL    HW3 7477   2.292   5.213   4.939 -0.6929  0.5031 -1.6314
 1936SOL    MW4 7478   2.372   5.217   4.905 -0.5319  0.1797 -0.6005
 1937SOL     OW 7479   2.609   4.515   4.804 -0.2871  0.1015  0.2030
 1937SOL    HW2 7480   2.632   4.433   4.846  1.2452 -0.5568 -1.7707
 1937SOL    HW3 7481   2.664   4.581   4.847 -1.6562  0.1752  1.9137
 1937SOL    MW4 7482   2.619   4.513   4.815  0.2787  0.2347 -0.2700
 1938SOL     OW 7483   1.746   4.764   4.930 -0.6324  0.0670 -0.3661
 1938SOL    HW2 7484   1.822   4.714   4.902 -0.4089  0.3946 -0.3407
 1938SOL    HW3 7485   1.690   4.699   4.974 -0.4871 -0.2229 -0.6074
 1938SOL    MW4 7486   1.748   4.749   4.932  0.0235  0.2852 -0.4680
 1939SOL     OW 7487   0.104   1.417   2.817  0.5597  0.5448 -0.2173
 1939SOL    HW2 7488   0.037   1.385   2.877  0.8230  1.7513  0.7622
 1939SOL    HW3 7489   0.186   1.403   2.863  0.7435  1.7863 -0.1375
 1939SOL    MW4 7490   0.106   1.411   2.831 -0.1527 -1.2285  0.0364
 1940SOL     OW 7491   2.625   4.009   0.098 -1.2890 -0.4378  0.5411
 1940SOL    HW2 7492   2.690   3.947   0.066 -0.7499  0.1829  0.4054
 1940SOL    HW3 7493   2.668   4.053   0.172 -1.0007  0.9685 -0.4230
 1940SOL    MW4 7494   2.639   4.007   0.104  0.2306  0.6511  0.0375
 1941SOL     OW 7495   6.063   1.562   5.379 -0.2313 -0.1175 -0.2464
 1941SOL    HW2 7496   6.124   1.583   5.308  0.4470  0.3529  0.4651
 1941SOL    HW3 7497   6.050   1.644   5.426 -0.1789 -0.5504  0.5560
 1941SOL    MW4 7498   6.069   1.575   5.376 -0.5599  0.1974  0.3910
 1942SOL     OW 7499   5.894   6.081   4.688  0.4943  0.6240  0.1082
 1942SOL    HW2 7500   5.939   6.084   4.772  0.9078  0.8163 -0.1144
 1942SOL    HW3 7501   5.841   6.001   4.691  2.7002 -0.9615 -0.5273
 1942SOL    MW4 7502   5.893   6.071   4.699 -0.0442  0.3169 -0.2040
 1943SOL     OW 7503   0.856   2.803   5.463  0.5019 -0.0867  0.4133
 1943SOL    HW2 7504   0.943   2.766   5.449  0.5271  0.5312 -1.2999
 1943SOL    HW3 7505   0.797   2.728   5.455  0.8814 -0.6125  2.1662
 1943SOL    MW4 7506   0.860   2.788   5.460  0.1565  0.2511  0.2272
 1944SOL     OW 7507   3.047   1.893   2.034 -0.0407  0.2674  0.6560
 1944SOL    HW2 7508   2.997   1.847   2.101  0.7815  0.2935  1.3028
 1944SOL    HW3 7509   3.137   1.895   2.068  0.8002 -1.3253 -1.2344
 1944SOL    MW4 7510   3.052   1.887   2.047  0.5171 -0.0200  0.0524
 1945SOL     OW 7511   2.059   3.895   0.877 -0.2090 -0.4923 -0.0008
 1945SOL    HW2 7512   2.014   3.955   0.819  2.2255  1.3022 -0.1680
 1945SOL    HW3 7513   2.131   3.859   0.825  0.5806 -0.7099  1.1839
 1945SOL    MW4 7514   2.062   3.898   0.863  0.3390 -0.1254 -0.4021
 1946SOL     OW 7515   2.553   6.152   2.361  0.0574 -0.5186 -0.5100
 1946SOL    HW2 7516   2.469   6.189   2.388  0.6194 -0.9025  2.0197
 1946SOL    HW3 7517   2.618   6.195   2.416  1.3170 -1.5813 -1.0787
 1946SOL    MW4 7518   2.551   6.162   2.372 -0.1867  0.3784 -0.2943
 1947SOL     OW 7519   1.321   1.696   5.927 -0.2906 -0.2601  0.2608
 1947SOL    HW2 7520   1.242   1.672   5.879  0.2602  0.7986 -1.2782
 1947SOL    HW3 7521   1.344   1.783   5.893  1.1684 -0.2603  1.1384
 1947SOL    MW4 7522   1.314   1.705   5.916 -0.3025  0.2410  0.1803
 1948SOL     OW 7523   3.050  -0.001   5.012  0.2045 -0.2266  0.1043
 1948SOL    HW2 7524   3.017  -0.055   4.940  0.4234 -0.0841 -0.1020
 1948SOL    HW3 7525   3.111   0.060   4.971  0.6777 -0.4470  0.4726
 1948SOL    MW4 7526   3.054   0.000   4.997 -0.6887  0.5771 -0.0907
 1949SOL     OW 7527   3.868   6.278   3.445  0.0655 -0.0593 -0.4477
 1949SOL    HW2 7528   3.897   6.342   3.380  0.8251  2.0251  1.7869
 1949SOL    HW3 7529   3.776   6.261   3.422  0.2559  0.7315 -1.9535
 1949SOL    MW4 7530   3.859   6.284   3.433 -0.1063 -0.4280  0.1159
 1950SOL     OW 7531   4.891   4.095   4.719  0.2632 -0.3403 -0.4792
 1950SOL    HW2 7532   4.912   4.168   4.660 -1.2924 -0.2378 -0.9559
 1950SOL    HW3 7533   4.965   4.091   4.780  0.1667  1.9608 -0.1328
 1950SOL    MW4 7534   4.904   4.104   4.719  0.2661  0.5089  0.5057
 1951SOL     OW 7535   2.667   1.855   0.774 -0.0147 -0.3380 -0.6857
 1951SOL    HW2 7536   2.630   1.943   0.762  0.5384 -0.0623 -0.3921
 1951SOL    HW3 7537   2.667   1.817   0.686  0.3755  0.2081 -0.9241
 1951SOL    MW4 7538   2.662   1.862   0.761 -0.9109 -0.1648 -0.5519
 1952SOL     OW 7539   2.225   3.832   1.190 -0.3072 -1.0091  0.3694
 1952SOL    HW2 7540   2.183   3.911   1.155  0.5861 -0.3783  0.6827
 1952SOL    HW3 7541   2.184   3.819   1.275  0.7089  0.1203  1.0703
 1952SOL    MW4 7542   2.214   3.841   1.196  0.3917 -0.1049 -0.2659
 1953SOL     OW 7543   3.741   1.821   2.495 -0.2909  0.3780 -0.0761
 1953SOL    HW2 7544   3.819   1.775   2.528 -1.0213 -0.2824  0.7654
 1953SOL    HW3 7545   3.776   1.902   2.458  1.0616 -0.9373 -1.8569
 1953SOL    MW4 7546   3.756   1.826   2.495  0.2469  0.0007 -0.3375
 1954SOL     OW 7547   0.252   4.279   1.047  0.2285  0.7329  0.0779
 1954SOL    HW2 7548   0.225   4.256   0.958  1.4591 -0.9998  0.0982
 1954SOL    HW3 7549   0.172   4.311   1.089 -0.8271 -0.2762 -1.0701
 1954SOL    MW4 7550   0.238   4.280   1.040 -0.3787  0.2199 -0.0446
 1955SOL     OW 7551   0.924   0.788   0.407  0.1682  0.4283  0.2711
 1955SOL    HW2 7552   0.975   0.806   0.328 -0.6984  0.0522 -0.3889
 1955SOL    HW3 7553   0.919   0.693   0.412  0.2052  0.4503  0.7705
 1955SOL    MW4 7554   0.930   0.778   0.397  0.3991 -0.5374 -0.4991
 1956SOL     OW 7555   1.895   2.970   5.004  0.1366 -0.0992 -0.4231
 1956SOL    HW2 7556   1.811   2.998   5.041 -0.8580  0.3083 -2.8480
 1956SOL    HW3 7557   1.951   3.047   5.012  0.5259 -0.5366  1.7037
 1956SOL    MW4 7558   1.891   2.983   5.010 -0.1244  0.1414 -0.1627
 1957SOL     OW 7559   3.911   5.561   0.882 -0.5738  0.3077 -0.1412
 1957SOL    HW2 7560   3.947   5.473   0.872 -0.5157  0.2011  0.9263
 1957SOL    HW3 7561   3.937   5.588   0.969 -1.3263  1.0471 -0.1328
 1957SOL    MW4 7562   3.919   5.553   0.892 -0.5255 -0.5733 -0.4501
 1958SOL     OW 7563   2.521   2.074   1.749  0.4295 -0.4673 -0.2269
 1958SOL    HW2 7564   2.580   2.055   1.822 -0.6783 -0.2757  0.7380
 1958SOL    HW3 7565   2.507   2.169   1.755 -0.6788 -0.6441  0.1085
 1958SOL    MW4 7566   2.527   2.084   1.760  0.0216  0.5813  0.3384
 1959SOL     OW 7567   5.826   1.733   6.258  0.1448  0.3958 -0.1258
 1959SOL    HW2 7568   5.761   1.796   6.228  1.8280  1.5784 -1.5456
 1959SOL    HW3 7569   5.895   1.737   6.191  2.1458  0.0050  1.7960
 1959SOL    MW4 7570   5.827   1.742   6.245 -0.1093 -0.3240 -0.1228
 1960SOL     OW 7571   6.394   0.865   6.286 -0.3146  0.4654 -0.0698
 1960SOL    HW2 7572   6.390   0.960   6.273  0.8933  0.5690  0.1962
 1960SOL    HW3 7573   6.480   0.840   6.253 -0.0556 -0.3189  1.1467
 1960SOL    MW4 7574   6.405   0.875   6.280 -0.8613 -0.6412 -0.6304
 1961SOL     OW 7575   1.958   3.217   5.921  0.2384  0.4168  0.1285
 1961SOL    HW2 7576   1.995   3.293   5.966  0.1958  0.5632 -0.0799
 1961SOL    HW3 7577   1.991   3.142   5.970  0.4117  0.5633  0.2412
 1961SOL    MW4 7578   1.968   3.217   5.933 -0.1349  0.6689  0.8005
 1962SOL     OW 7579   5.811   5.306   4.856  0.6383  0.1172 -0.0542
 1962SOL    HW2 7580   5.779   5.394   4.875 -0.4643 -0.3577  0.3959
 1962SOL    HW3 7581   5.875   5.318   4.785 -1.6269  0.9805 -2.0894
 1962SOL    MW4 7582   5.815   5.319   4.849 -0.2987  0.0047 -0.0133
 1963SOL     OW 7583   2.572   4.270   1.960  0.0424 -0.0331  0.5195
 1963SOL    HW2 7584   2.610   4.289   1.874  2.0857 -0.4124  1.2743
 1963SOL    HW3 7585   2.511   4.199   1.944  1.6551 -1.2854 -0.4108
 1963SOL    MW4 7586   2.569   4.263   1.946 -0.3826  0.2905 -0.0750
 1964SOL     OW 7587   4.927   4.987   6.026  0.2355  0.2180  0.6031
 1964SOL    HW2 7588   4.995   4.929   6.060  0.2376  0.3041  0.7454
 1964SOL    HW3 7589   4.949   4.997   5.933  0.3970  0.2177  0.6411
 1964SOL    MW4 7590   4.939   4.980   6.018  0.3260  0.2051 -0.4349
 1965SOL     OW 7591   2.940   4.690   5.937 -0.9792 -0.0398  0.0875
 1965SOL    HW2 7592   2.917   4.606   5.977  0.5971 -0.3755  0.3568
 1965SOL    HW3 7593   2.927   4.676   5.843  0.9214 -1.2126 -0.0653
 1965SOL    MW4 7594   2.936   4.677   5.930 -0.5945  0.2910  0.0044
 1966SOL     OW 7595   5.140   5.951   6.073  0.0956  0.1377 -0.3510
 1966SOL    HW2 7596   5.073   6.018   6.081  0.2610  0.5031 -1.7468
 1966SOL    HW3 7597   5.220   5.992   6.105  0.2580  0.7258 -1.4728
 1966SOL    MW4 7598   5.142   5.965   6.078 -0.2207  0.3636 -0.2267
 1967SOL     OW 7599   0.305   4.571   1.892  0.2254 -0.9090 -0.3746
 1967SOL    HW2 7600   0.307   4.569   1.797 -0.2347  0.4318 -0.4398
 1967SOL    HW3 7601   0.349   4.653   1.915 -0.7482 -0.6057  0.5074
 1967SOL    MW4 7602   0.311   4.582   1.883 -0.3913 -0.4155 -0.5121
 1968SOL     OW 7603   4.017   1.494   5.483 -0.1416 -0.1243  0.1211
 1968SOL    HW2 7604   3.935   1.470   5.527  0.1551 -2.4508 -0.4974
 1968SOL    HW3 7605   4.082   1.435   5.520  1.0486  0.9434 -0.2246
 1968SOL    MW4 7606   4.015   1.483   5.494  0.3492  0.1508 -0.1326
 1969SOL     OW 7607   0.439   5.271   1.692  0.1974 -0.0734  0.1951
 1969SOL    HW2 7608   0.350   5.244   1.668  0.6166 -0.6147 -0.7795
 1969SOL    HW3 7609   0.437   5.278   1.788 -0.9724  0.2097  0.1633
 1969SOL    MW4 7610   0.427   5.268   1.702 -0.4907 -0.0658 -0.0051
 1970SOL     OW 7611   0.868   2.290   4.157  0.0112 -0.5497 -0.4338
 1970SOL    HW2 7612   0.877   2.238   4.077 -1.8147 -1.0929 -0.3485
 1970SOL    HW3 7613   0.774   2.286   4.177  0.3131  0.2113  1.3120
 1970SOL    MW4 7614   0.857   2.282   4.149  0.2154  0.4870  0.7249
 1971SOL     OW 7615   5.680   5.037   6.027 -0.3229 -0.3661 -0.0648
 1971SOL    HW2 7616   5.697   5.069   6.116 -1.1321 -2.1637  0.7919
 1971SOL    HW3 7617   5.677   5.117   5.973 -1.5966  0.9547  1.8161
 1971SOL    MW4 7618   5.682   5.052   6.032  0.7118  0.0291  0.0988
 1972SOL     OW 7619   5.738   1.638   2.246  0.3772 -1.0121 -0.0242
 1972SOL    HW2 7620   5.768   1.655   2.157 -0.0523 -0.9972 -0.1676
 1972SOL    HW3 7621   5.645   1.659   2.245  0.9828  2.3373  1.3042
 1972SOL    MW4 7622   5.730   1.643   2.234 -0.2900  0.0576  0.3369
 1973SOL     OW 7623   4.943   4.957   0.985 -0.3414 -0.6201  0.5252
 1973SOL    HW2 7624   4.908   4.894   0.922  0.2105 -1.2535  0.8478
 1973SOL    HW3 7625   4.872   5.021   0.996 -0.0870  0.1016 -1.5227
 1973SOL    MW4 7626   4.929   4.957   0.978 -0.4599  0.1339 -0.0656
 1974SOL     OW 7627   5.048   4.649   4.883 -0.2827  0.1671  0.0485
 1974SOL    HW2 7628   5.031   4.662   4.789 -1.6458  1.6580  0.4571
 1974SOL    HW3 7629   5.099   4.725   4.909  0.0719 -0.2349  0.5360
 1974SOL    MW4 7630   5.052   4.661   4.874  0.2737 -0.0062  0.3106
 1975SOL     OW 7631   1.350   1.418   4.587  0.0431 -0.0668 -0.2283
 1975SOL    HW2 7632   1.339   1.399   4.494  0.1165 -0.3334 -0.1816
 1975SOL    HW3 7633   1.415   1.355   4.617  0.6285  0.5496 -0.1707
 1975SOL    MW4 7634   1.357   1.408   4.579 -0.0234  0.0866 -0.5852
 1976SOL     OW 7635   3.555   0.796   1.282 -0.3826  0.0281  0.2571
 1976SOL    HW2 7636   3.466   0.772   1.258  0.6313 -0.7365 -3.4468
 1976SOL    HW3 7637   3.566   0.885   1.249  0.7286 -0.5858 -1.1480
 1976SOL    MW4 7638   3.545   0.805   1.274  0.2010  0.1764 -0.7658
 1977SOL     OW 7639   6.151   4.103   0.750 -0.7408  0.1245  0.2169
 1977SOL    HW2 7640   6.103   4.023   0.727  4.6948 -3.1475 -1.8070
 1977SOL    HW3 7641   6.149   4.156   0.671 -0.2689 -0.5320 -0.2520
 1977SOL    MW4 7642   6.145   4.099   0.737  0.7468  0.2973  0.0068
 1978SOL     OW 7643   4.506   0.926   2.964  0.0464  0.8621  0.7452
 1978SOL    HW2 7644   4.508   0.982   3.041 -0.0006 -0.8593  2.0442
 1978SOL    HW3 7645   4.544   0.843   2.992 -2.4339 -0.7452 -0.2631
 1978SOL    MW4 7646   4.511   0.923   2.978 -0.5522 -0.3410 -0.4960
 1979SOL     OW 7647   3.406   4.976   3.802  0.7124 -0.0957 -0.5365
 1979SOL    HW2 7648   3.348   5.008   3.870 -0.6490 -1.4566 -1.0203
 1979SOL    HW3 7649   3.428   5.054   3.751 -0.4274  0.5026 -0.1444
 1979SOL    MW4 7650   3.402   4.991   3.804 -0.0256  0.5650  0.5633
 1980SOL     OW 7651   6.222   1.632   5.148  0.1821 -0.0831  0.6383
 1980SOL    HW2 7652   6.171   1.555   5.124  2.2076 -1.2396 -0.2040
 1980SOL    HW3 7653   6.170   1.706   5.119 -0.8174 -1.2104 -0.5432
 1980SOL    MW4 7654   6.209   1.632   5.141  0.4093 -0.1370  0.5715
 1981SOL     OW 7655   0.294   4.563   5.818 -0.2900  0.4521 -0.3597
 1981SOL    HW2 7656   0.320   4.551   5.727  2.0549  0.7269  0.1998
 1981SOL    HW3 7657   0.246   4.646   5.819  1.4878  1.5535 -1.0798
 1981SOL    MW4 7658   0.291   4.572   5.806 -0.4493  0.2042 -0.2803
 1982SOL     OW 7659   0.823   4.227   0.763  0.2749 -0.1078 -0.3548
 1982SOL    HW2 7660   0.897   4.203   0.818 -1.0392  0.8299  1.9457
 1982SOL    HW3 7661   0.858   4.295   0.705  1.5014 -0.5714 -0.1903
 1982SOL    MW4 7662   0.838   4.233   0.762 -0.3548  0.2065  0.3439
 1983SOL     OW 7663   2.132   2.615   1.841  0.0062 -0.0961  0.5903
 1983SOL    HW2 7664   2.118   2.543   1.903 -0.8004  0.4374  1.0396
 1983SOL    HW3 7665   2.070   2.598   1.770 -0.4371  0.3444  0.8682
 1983SOL    MW4 7666   2.122   2.603   1.840  0.3502 -0.5379  0.4573
 1984SOL     OW 7667   5.991   1.255   4.535 -0.1648  0.1665  0.4582
 1984SOL    HW2 7668   5.901   1.223   4.530 -0.4323  0.8264  1.0399
 1984SOL    HW3 7669   6.045   1.177   4.521 -0.8146 -0.4078  1.1190
 1984SOL    MW4 7670   5.986   1.241   4.532  0.2403 -0.5427 -0.2239
 1985SOL     OW 7671   1.173   1.475   3.071  0.3036 -0.4395  0.1573
 1985SOL    HW2 7672   1.152   1.486   2.979 -0.9113 -2.6000  0.1085
 1985SOL    HW3 7673   1.091   1.493   3.117  0.3371 -1.4188  0.6201
 1985SOL    MW4 7674   1.160   1.479   3.065 -0.4200  0.5389  0.0000
 1986SOL     OW 7675   0.651   4.946   4.380 -0.1286 -0.1870 -0.3236
 1986SOL    HW2 7676   0.608   4.967   4.297  1.4429  0.1617 -1.0850
 1986SOL    HW3 7677   0.738   4.914   4.355  0.5958  0.4766  1.2040
 1986SOL    MW4 7678   0.657   4.945   4.365 -0.1811 -0.0490  0.2450
 1987SOL     OW 7679   1.940   4.487   4.897  0.1884 -0.2229  0.7722
 1987SOL    HW2 7680   1.991   4.527   4.827  2.2622 -3.1878  0.4048
 1987SOL    HW3 7681   1.922   4.398   4.866 -0.4800 -1.0270  3.2159
 1987SOL    MW4 7682   1.944   4.480   4.883  0.7949  0.9069  0.6152
 1988SOL     OW 7683   6.276   0.548   3.493 -0.6613  0.4869  0.5643
 1988SOL    HW2 7684   6.212   0.610   3.458  0.5429  1.7157  0.4919
 1988SOL    HW3 7685   6.356   0.599   3.506 -0.1303 -0.6431  2.1519
 1988SOL    MW4 7686   6.278   0.563   3.490 -0.0247  0.2101 -0.0494
 1989SOL     OW 7687   6.037   5.550   4.561  0.3694  0.0495 -0.2161
 1989SOL    HW2 7688   6.040   5.459   4.591 -2.8410  0.2613  1.1949
 1989SOL    HW3 7689   6.027   5.601   4.641  1.3487  1.6190 -1.0482
 1989SOL    MW4 7690   6.036   5.545   4.576 -0.2981 -0.0052  0.3219
 1990SOL     OW 7691   1.160   0.986   3.597 -0.3320  0.0620  0.3382
 1990SOL    HW2 7692   1.089   0.939   3.553 -1.1216  1.9714 -0.5702
 1990SOL    HW3 7693   1.120   1.023   3.676 -0.8086  2.2721 -0.8541
 1990SOL    MW4 7694   1.145   0.985   3.602  0.0735  0.4600 -0.1379
 1991SOL     OW 7695   1.168   4.482   1.073 -0.2067 -0.2826 -0.2747
 1991SOL    HW2 7696   1.229   4.553   1.055 -0.8824  0.6045  0.8631
 1991SOL    HW3 7697   1.100   4.492   1.006 -1.5862  1.6900  1.3248
 1991SOL    MW4 7698   1.167   4.493   1.062  0.0365  0.2292 -0.4709
 1992SOL     OW 7699   4.699   6.124   1.589  0.4035  0.3432  0.1590
 1992SOL    HW2 7700   4.736   6.068   1.658 -1.0010 -1.3758 -0.3886
 1992SOL    HW3 7701   4.770   6.137   1.527  1.0130 -0.0931  0.7545
 1992SOL    MW4 7702   4.713   6.118   1.590 -0.3079  0.0669 -0.1345
 1993SOL     OW 7703   1.241   1.882   3.922  0.2665 -0.2623 -0.1600
 1993SOL    HW2 7704   1.233   1.936   3.843 -1.5100  0.2291  0.3051
 1993SOL    HW3 7705   1.316   1.825   3.905  0.3497  0.3070 -1.9054
 1993SOL    MW4 7706   1.250   1.882   3.909  0.4522 -0.1542 -0.8136
 1994SOL     OW 7707   2.022   3.805   5.769 -0.1019  0.0691  0.0255
 1994SOL    HW2 7708   1.969   3.726   5.779 -0.0514  0.1072  0.6117
 1994SOL    HW3 7709   1.969   3.875   5.808  0.6059  0.0133  1.1084
 1994SOL    MW4 7710   2.008   3.804   5.775 -0.6006  0.1323 -0.9804
 1995SOL     OW 7711   4.579   3.945   4.524 -0.1099  0.3464  0.1761
 1995SOL    HW2 7712   4.602   3.988   4.606  1.0166  1.3647 -0.6316
 1995SOL    HW3 7713   4.489   3.971   4.508 -1.2035 -1.8151  2.2455
 1995SOL    MW4 7714   4.570   3.954   4.533  0.2860  0.0326  0.2131
 1996SOL     OW 7715   4.977   1.394   4.099  0.0141  0.4932 -0.4189
 1996SOL    HW2 7716   4.942   1.356   4.018  1.8916  0.8311 -1.4626
 1996SOL    HW3 7717   4.954   1.331   4.167  0.5359 -1.0901 -1.6376
 1996SOL    MW4 7718   4.969   1.380   4.097 -0.6232 -0.1262  0.2067
 1997SOL     OW 7719   2.916   2.640   3.382 -0.0857 -0.2966 -0.3218
 1997SOL    HW2 7720   2.993   2.584   3.388 -0.8107 -1.4314 -1.2093
 1997SOL    HW3 7721   2.851   2.598   3.440 -0.1085  0.5508  0.2850
 1997SOL    MW4 7722   2.917   2.627   3.391  0.1885  0.5095 -0.4373
 1998SOL     OW 7723   1.746   0.629   6.042 -0.4499  0.6236  0.7966
 1998SOL    HW2 7724   1.796   0.551   6.020 -0.7921 -0.0106  2.1561
 1998SOL    HW3 7725   1.668   0.623   5.987 -0.2602  0.2508  0.5611
 1998SOL    MW4 7726   1.742   0.618   6.032 -0.3709  0.2464 -0.3267
 1999SOL     OW 7727   5.638   2.012   5.221 -0.6398  0.2944  0.3122
 1999SOL    HW2 7728   5.653   2.051   5.134  0.7225 -0.9285 -0.0382
 1999SOL    HW3 7729   5.543   2.004   5.227 -0.8927  2.3041 -0.1863
 1999SOL    MW4 7730   5.627   2.016   5.210 -0.1892  0.0336 -0.2947
 2000SOL     OW 7731   3.483   0.210   2.432  0.3299 -0.4148 -0.4264
 2000SOL    HW2 7732   3.447   0.128   2.399 -1.8162  0.2715  0.0800
 2000SOL    HW3 7733   3.537   0.243   2.361  0.0368 -1.5368 -1.1909
 2000SOL    MW4 7734   3.486   0.204   2.419 -0.2370  0.2683 -0.5716
 2001SOL     OW 7735   2.955   6.320   4.225  0.2363 -0.3223  0.0741
 2001SOL    HW2 7736   3.010   6.252   4.262 -0.2279  0.6574  2.8079
 2001SOL    HW3 7737   2.881   6.274   4.187  1.9247 -1.5271 -1.9722
 2001SOL    MW4 7738   2.953   6.305   4.225  0.0566 -0.4529  0.0813
 2002SOL     OW 7739   3.622   4.405   3.489  0.2725 -0.4186 -0.2946
 2002SOL    HW2 7740   3.558   4.476   3.478 -0.8902 -1.2259  0.9489
 2002SOL    HW3 7741   3.699   4.448   3.528 -0.4807  0.1567  0.5975
 2002SOL    MW4 7742   3.624   4.420   3.493  0.4180 -0.4476 -0.2311
 2003SOL     OW 7743   1.023   4.368   6.368 -0.0123  0.2811 -0.0801
 2003SOL    HW2 7744   1.097   4.395   6.315  0.0561 -0.8955 -0.6230
 2003SOL    HW3 7745   1.048   4.388   6.458 -0.1744  2.4076 -0.4618
 2003SOL    MW4 7746   1.036   4.374   6.373 -0.0086  1.0978  0.2090
 2004SOL     OW 7747   6.351   0.521   5.934 -0.2990  0.0495  0.4788
 2004SOL    HW2 7748   6.378   0.473   6.012  1.4987  2.9262  1.8155
 2004SOL    HW3 7749   6.375   0.465   5.861  2.2536 -0.8496  1.8941
 2004SOL    MW4 7750   6.358   0.508   5.935 -0.3579 -0.3649 -0.1577
 2005SOL     OW 7751   4.535   3.093   5.420  0.4191 -0.1740  0.8361
 2005SOL    HW2 7752   4.551   3.146   5.498  0.8002 -0.0412  0.6699
 2005SOL    HW3 7753   4.443   3.108   5.399  0.6629  0.8605  0.4675
 2005SOL    MW4 7754   4.525   3.102   5.427  0.5131  0.3967  0.1685
 2006SOL     OW 7755   5.433   1.685   2.183  0.2970 -0.1386  0.5049
 2006SOL    HW2 7756   5.392   1.741   2.250  2.7034  0.0056  1.9931
 2006SOL    HW3 7757   5.417   1.732   2.101 -0.6475  0.9674  1.2695
 2006SOL    MW4 7758   5.425   1.699   2.181  0.1524  0.0279  0.2866
 2007SOL     OW 7759   2.271   4.139   3.945  0.4653  0.3469  0.1316
 2007SOL    HW2 7760   2.213   4.214   3.960 -0.8278 -0.4224 -0.7859
 2007SOL    HW3 7761   2.282   4.136   3.850  0.2949 -0.7526  0.1326
 2007SOL    MW4 7762   2.265   4.149   3.934  0.6857  0.3209  0.3003
 2008SOL     OW 7763   4.260   5.422   4.154  0.0925 -0.3393  0.2638
 2008SOL    HW2 7764   4.285   5.499   4.103 -0.3320 -0.5534 -0.2691
 2008SOL    HW3 7765   4.185   5.385   4.108 -0.8797 -0.0271  1.5450
 2008SOL    MW4 7766   4.254   5.427   4.142 -0.0645  0.0572  0.0004
 2009SOL     OW 7767   2.139   4.867   2.508  0.1195 -0.3356  0.0544
 2009SOL    HW2 7768   2.108   4.836   2.593 -1.8963  0.8295 -0.1866
 2009SOL    HW3 7769   2.145   4.962   2.518  2.0923 -0.3567 -0.4596
 2009SOL    MW4 7770   2.136   4.876   2.520  0.0077  0.2680 -0.1685
 2010SOL     OW 7771   2.392   0.307   3.307  0.3722  0.0224  0.0855
 2010SOL    HW2 7772   2.471   0.263   3.337 -0.9483 -1.5552  1.4896
 2010SOL    HW3 7773   2.386   0.386   3.361 -1.2481 -2.0960  3.3479
 2010SOL    MW4 7774   2.401   0.311   3.318 -0.0801  0.4092 -0.2312
 2011SOL     OW 7775   2.109   0.576   3.353 -0.3317 -0.2354  0.3725
 2011SOL    HW2 7776   2.080   0.492   3.318 -0.8061 -0.9126  2.2651
 2011SOL    HW3 7777   2.204   0.572   3.349 -0.3574 -0.7721  0.2373
 2011SOL    MW4 7778   2.117   0.564   3.348 -0.2457  0.1979  0.3080
 2012SOL     OW 7779   0.262   2.397   5.949  0.2380 -0.4086  0.1875
 2012SOL    HW2 7780   0.173   2.363   5.934 -0.2541  1.0696 -0.3710
 2012SOL    HW3 7781   0.268   2.475   5.894  1.7319 -0.2243  0.5758
 2012SOL    MW4 7782   0.251   2.403   5.940 -0.2843  0.0736 -0.3299
 2013SOL     OW 7783   3.833   2.168   1.858 -0.2844  0.3562  0.0750
 2013SOL    HW2 7784   3.914   2.118   1.845  0.0752  0.8703  0.2882
 2013SOL    HW3 7785   3.781   2.115   1.917 -0.3158 -0.2142 -0.4549
 2013SOL    MW4 7786   3.837   2.154   1.864 -0.4545 -0.5450  0.2924
 2014SOL     OW 7787   1.269   1.302   5.441  0.2752  0.6521  0.0243
 2014SOL    HW2 7788   1.362   1.313   5.425  0.1778 -0.4517 -1.4700
 2014SOL    HW3 7789   1.231   1.389   5.428  1.0447  1.0346  0.3185
 2014SOL    MW4 7790   1.276   1.315   5.437 -0.2078  0.5443 -0.2541
 2015SOL     OW 7791   2.544   4.772   4.546  0.1458 -0.0653 -0.6592
 2015SOL    HW2 7792   2.460   4.805   4.515 -1.4359 -1.1297  2.0991
 2015SOL    HW3 7793   2.551   4.684   4.511 -1.4194 -1.0972  1.3767
 2015SOL    MW4 7794   2.534   4.765   4.538 -0.2453 -0.5533  0.7241
 2016SOL     OW 7795   0.314   0.041   4.005 -0.4313 -0.1674  0.1760
 2016SOL    HW2 7796   0.306   0.050   4.100 -1.0170 -0.4718  0.1576
 2016SOL    HW3 7797   0.224   0.037   3.974 -0.2370 -0.4228 -0.3590
 2016SOL    MW4 7798   0.301   0.042   4.014 -0.3382  0.9483  0.2137
 2017SOL     OW 7799   4.325   5.932   1.151  0.1523 -0.3450  0.6386
 2017SOL    HW2 7800   4.357   5.877   1.079 -0.6730  0.3351 -0.2700
 2017SOL    HW3 7801   4.378   6.012   1.145 -1.6865  0.8416 -0.9561
 2017SOL    MW4 7802   4.336   5.935   1.141  0.5885 -0.1678  0.0421
 2018SOL     OW 7803   1.101   3.227   4.552  0.3105 -0.4157 -0.0885
 2018SOL    HW2 7804   1.187   3.198   4.583  0.1299 -0.6992  0.1478
 2018SOL    HW3 7805   1.058   3.263   4.629 -0.1230 -1.0874 -0.0017
 2018SOL    MW4 7806   1.107   3.228   4.566  0.6372 -0.1429  0.2524
 2019SOL     OW 7807   1.379   0.670   2.262  0.0233  0.3887 -0.0488
 2019SOL    HW2 7808   1.347   0.669   2.172 -1.1905  0.0308  0.3700
 2019SOL    HW3 7809   1.407   0.760   2.277 -0.0922  0.5293 -0.6630
 2019SOL    MW4 7810   1.379   0.682   2.252  0.1339  0.2195  0.0214
 2020SOL     OW 7811   1.507   3.710   5.988 -0.0178 -0.2017 -0.1708
 2020SOL    HW2 7812   1.500   3.639   5.924 -0.8113 -0.3641  0.0889
 2020SOL    HW3 7813   1.499   3.665   6.073 -0.3722  0.1825 -0.0014
 2020SOL    MW4 7814   1.505   3.695   5.991  0.0342 -0.3767 -0.2399
 2021SOL     OW 7815   3.134   0.524   5.318 -0.1413  0.0260  0.7001
 2021SOL    HW2 7816   3.146   0.499   5.226  2.8382  2.3987  0.2867
 2021SOL    HW3 7817   3.040   0.513   5.334 -0.4399 -2.4379 -1.9462
 2021SOL    MW4 7818   3.123   0.519   5.308  0.5837  0.1706  0.6157
 2022SOL     OW 7819   5.302   1.908   2.311 -0.4072  0.8681  0.0650
 2022SOL    HW2 7820   5.327   1.936   2.399 -1.3085  1.2966  0.2005
 2022SOL    HW3 7821   5.210   1.933   2.303 -1.1585 -1.6138  0.0146
 2022SOL    MW4 7822   5.293   1.915   2.322  0.6753 -0.8113  0.3455
 2023SOL     OW 7823   0.152   6.364   1.052  0.0233 -0.3105 -0.0984
 2023SOL    HW2 7824   0.102   6.446   1.043  0.4415 -0.0740 -0.3017
 2023SOL    HW3 7825   0.239   6.393   1.082 -0.2510 -0.7900  1.2418
 2023SOL    MW4 7826   0.157   6.379   1.055 -0.0175 -0.6971 -0.1308
 2024SOL     OW 7827   0.203   5.969   1.005 -0.3381  0.1829 -0.2488
 2024SOL    HW2 7828   0.297   5.967   0.991 -0.4412  0.2741 -1.0044
 2024SOL    HW3 7829   0.192   5.982   1.100  0.3994  0.5094 -0.2084
 2024SOL    MW4 7830   0.214   5.970   1.016  0.1389 -0.2976  0.0866
 2025SOL     OW 7831   3.179   4.591   6.160 -0.5589  0.0804  0.2879
 2025SOL    HW2 7832   3.247   4.586   6.227 -0.1469 -0.7885 -0.1820
 2025SOL    HW3 7833   3.226   4.615   6.080 -1.1733  2.0978  0.4652
 2025SOL    MW4 7834   3.194   4.593   6.158  0.5642  0.2269  0.2382
 2026SOL     OW 7835   1.371   6.170   6.417  0.1185 -0.2304 -0.6752
 2026SOL    HW2 7836   1.414   6.255   6.425 -0.7217  0.2011 -0.5211
 2026SOL    HW3 7837   1.278   6.190   6.432  0.1255 -1.4822  1.5570
 2026SOL    MW4 7838   1.364   6.184   6.420  0.7961 -0.2723  0.0433
 2027SOL     OW 7839   0.064   4.770   4.881  0.6452 -0.0100  0.3522
 2027SOL    HW2 7840   0.026   4.695   4.926  0.5333 -0.1097  0.0927
 2027SOL    HW3 7841   0.121   4.811   4.947  2.4768 -1.6010 -0.1455
 2027SOL    MW4 7842   0.067   4.766   4.896 -0.0786  0.7877 -0.2978
 2028SOL     OW 7843   3.660   5.072   4.397 -0.2515  0.5009 -0.1304
 2028SOL    HW2 7844   3.724   5.014   4.439 -1.2445 -0.6270 -0.1421
 2028SOL    HW3 7845   3.577   5.051   4.439 -1.0477  0.2660 -1.7543
 2028SOL    MW4 7846   3.658   5.061   4.408  0.8205  0.6313 -0.2455
 2029SOL     OW 7847   4.107   1.373   2.594  0.1769  0.2133 -0.2613
 2029SOL    HW2 7848   4.052   1.359   2.671  1.1761 -1.9028  0.1316
 2029SOL    HW3 7849   4.163   1.447   2.619 -0.5907  0.5946  0.3967
 2029SOL    MW4 7850   4.107   1.381   2.608  0.5458  0.0322  0.4827
 2030SOL     OW 7851   2.857   0.979   0.295  0.2729 -0.0219 -0.3024
 2030SOL    HW2 7852   2.918   0.991   0.222 -0.0270  0.6278 -0.4555
 2030SOL    HW3 7853   2.908   0.999   0.373  0.1642  0.9437 -0.4571
 2030SOL    MW4 7854   2.872   0.983   0.295 -0.1932  0.3898  0.5334
 2031SOL     OW 7855   0.066   2.592   2.153 -0.8853  0.1772 -0.7321
 2031SOL    HW2 7856  -0.025   2.562   2.151 -1.5517  1.3904  3.1932
 2031SOL    HW3 7857   0.117   2.513   2.136 -2.6945 -1.4971  1.0474
 2031SOL    MW4 7858   0.060   2.578   2.151 -0.8554  0.6572 -0.2889
 2032SOL     OW 7859   1.379   0.810   3.553 -0.4534  0.4907 -0.1820
 2032SOL    HW2 7860   1.352   0.719   3.541 -0.1721  0.2928  0.6228
 2032SOL    HW3 7861   1.297   0.858   3.569 -0.5095  0.1853  0.4996
 2032SOL    MW4 7862   1.364   0.804   3.554 -0.0903 -0.5893 -0.2252
 2033SOL     OW 7863   1.623   4.923   0.436  0.4935 -0.2187  0.1306
 2033SOL    HW2 7864   1.584   4.852   0.385  0.4661  0.6246 -1.0796
 2033SOL    HW3 7865   1.718   4.910   0.428  0.4910 -1.1982  1.5109
 2033SOL    MW4 7866   1.631   4.912   0.428 -0.4247 -0.3760  0.2369
 2034SOL     OW 7867   5.640   0.326   4.528 -0.2255 -0.5132 -1.0202
 2034SOL    HW2 7868   5.547   0.334   4.548  0.0301  3.0024 -0.6134
 2034SOL    HW3 7869   5.658   0.232   4.531 -3.8088 -1.3374 -1.5345
 2034SOL    MW4 7870   5.630   0.315   4.531  0.4444 -0.2292  0.3695
 2035SOL     OW 7871   3.753   6.408   0.454  0.2126 -0.6431  0.5113
 2035SOL    HW2 7872   3.686   6.361   0.502  0.5902 -1.0923  0.6026
 2035SOL    HW3 7873   3.825   6.418   0.516  0.6097 -1.0168  0.1113
 2035SOL    MW4 7874   3.754   6.403   0.469  0.0239 -0.6002  0.2683
 2036SOL     OW 7875   6.268   5.673   0.875 -0.7266  0.0088  0.2388
 2036SOL    HW2 7876   6.244   5.761   0.904  0.0550  0.2022  0.3364
 2036SOL    HW3 7877   6.349   5.654   0.923  1.2493  0.7668 -2.5728
 2036SOL    MW4 7878   6.276   5.682   0.885 -0.2901  1.1056  0.1752
 2037SOL     OW 7879   2.422   0.295   0.595  0.2588 -0.3142  0.5794
 2037SOL    HW2 7880   2.388   0.220   0.645  0.9565 -0.8616  0.2498
 2037SOL    HW3 7881   2.345   0.350   0.579  0.1095  0.2454  2.8477
 2037SOL    MW4 7882   2.407   0.292   0.599  0.0802  0.0761  0.0257
 2038SOL     OW 7883   0.143   4.909   4.659 -0.5629 -0.3479  0.1321
 2038SOL    HW2 7884   0.090   4.860   4.721 -0.5286  0.2380  0.6341
 2038SOL    HW3 7885   0.221   4.857   4.647 -1.1399 -1.1063 -0.4341
 2038SOL    MW4 7886   0.146   4.896   4.665 -0.0315 -0.3745 -0.1311
 2039SOL     OW 7887   0.912   3.584   4.371 -0.0145 -0.3874 -0.7047
 2039SOL    HW2 7888   0.908   3.489   4.364  0.4183 -0.3968 -0.8182
 2039SOL    HW3 7889   0.876   3.616   4.289 -1.4256 -0.4356 -0.1292
 2039SOL    MW4 7890   0.907   3.576   4.359  0.4138  0.0615  0.1077
 2040SOL     OW 7891   2.801   4.956   0.283  0.2106  0.3390 -0.8267
 2040SOL    HW2 7892   2.780   4.913   0.201  0.6048 -4.0420  1.1108
 2040SOL    HW3 7893   2.895   4.943   0.294 -0.1568 -1.1464  1.2086
 2040SOL    MW4 7894   2.811   4.949   0.274 -0.6758  0.1984 -0.1120
 2041SOL     OW 7895   2.801   2.371   1.211  0.1779 -0.2681  0.5890
 2041SOL    HW2 7896   2.862   2.312   1.256  0.6381 -0.9140 -0.8298
 2041SOL    HW3 7897   2.833   2.459   1.231  0.2538 -0.5180  1.6581
 2041SOL    MW4 7898   2.813   2.375   1.220 -0.2679  0.0034  0.2569
 2042SOL     OW 7899   2.604   6.398   4.846  0.0524  0.0037 -0.3204
 2042SOL    HW2 7900   2.623   6.475   4.792  1.8636 -0.7965 -0.8806
 2042SOL    HW3 7901   2.581   6.435   4.932 -0.4290  1.1991 -0.9457
 2042SOL    MW4 7902   2.604   6.413   4.850  0.0452 -0.4876  0.2175
 2043SOL     OW 7903   2.206   6.192   1.182  0.1088 -0.7352  0.2942
 2043SOL    HW2 7904   2.175   6.279   1.159  0.9281 -0.9630 -2.0107
 2043SOL    HW3 7905   2.127   6.145   1.211 -0.5143  0.4726  0.5942
 2043SOL    MW4 7906   2.191   6.197   1.182  0.1806 -0.5812 -0.2185
 2044SOL     OW 7907   6.205   5.931   1.569  0.2164 -0.1513  0.0120
 2044SOL    HW2 7908   6.225   6.025   1.566 -0.7157  0.1180  1.4813
 2044SOL    HW3 7909   6.249   5.900   1.648 -0.7675 -0.6214  0.3842
 2044SOL    MW4 7910   6.214   5.939   1.579 -0.6597  0.0215  0.1306
 2045SOL     OW 7911   0.920   4.398   5.182 -0.1418  0.5661  0.5199
 2045SOL    HW2 7912   0.895   4.361   5.097 -0.4438 -1.0580  1.2785
 2045SOL    HW3 7913   0.840   4.436   5.217 -0.4097 -0.2529  0.8026
 2045SOL    MW4 7914   0.906   4.398   5.175  0.0432  0.2083  0.3920
 2046SOL     OW 7915   1.392   1.603   2.456  0.2521  0.3467 -0.1918
 2046SOL    HW2 7916   1.441   1.644   2.528 -0.1744 -0.4034  0.5377
 2046SOL    HW3 7917   1.369   1.517   2.489  1.1516 -0.5244 -1.7088
 2046SOL    MW4 7918   1.396   1.597   2.470 -0.0564 -0.2184  0.8512
 2047SOL     OW 7919   2.064   1.429   4.866 -0.1216  0.1834  0.2104
 2047SOL    HW2 7920   2.097   1.496   4.925 -0.3778  0.0667  0.4855
 2047SOL    HW3 7921   2.088   1.346   4.909 -1.6521  0.0817  0.9221
 2047SOL    MW4 7922   2.072   1.427   4.879  0.4066 -0.2350  0.3078
 2048SOL     OW 7923   2.526   4.010   4.174 -0.3927 -0.4660 -0.1122
 2048SOL    HW2 7924   2.505   3.950   4.102 -2.7540  0.5151 -0.3165
 2048SOL    HW3 7925   2.534   4.096   4.133 -0.1225 -0.1519  0.5827
 2048SOL    MW4 7926   2.524   4.013   4.159  0.0403 -1.1877  0.2484
 2049SOL     OW 7927   5.897   2.002   1.390 -0.5151  0.6230 -0.8362
 2049SOL    HW2 7928   5.906   2.095   1.369  0.6209  0.6808 -0.1522
 2049SOL    HW3 7929   5.815   1.997   1.441  0.0673  1.4678  0.2285
 2049SOL    MW4 7930   5.887   2.014   1.394  0.2262 -0.3700  0.4389
 2050SOL     OW 7931   4.397   5.055   5.731 -0.4446  0.1936 -0.7185
 2050SOL    HW2 7932   4.418   5.143   5.699 -0.6765  0.0578 -1.2665
 2050SOL    HW3 7933   4.343   5.070   5.808 -1.2458  0.5420 -1.3295
 2050SOL    MW4 7934   4.393   5.069   5.737 -0.0234  0.1979  0.4623
 2051SOL     OW 7935   0.505   2.271   5.864 -0.2306 -0.2695 -0.2284
 2051SOL    HW2 7936   0.496   2.307   5.776  0.5644  0.7709  0.0893
 2051SOL    HW3 7937   0.422   2.289   5.907 -0.1951  0.3005 -0.3966
 2051SOL    MW4 7938   0.493   2.278   5.858 -0.0697 -0.5880 -0.2393
 2052SOL     OW 7939   0.961   3.441   6.268 -0.5003 -0.6400  0.2623
 2052SOL    HW2 7940   0.896   3.471   6.204 -0.8810 -0.5800  0.6726
 2052SOL    HW3 7941   0.931   3.478   6.351  2.3667  3.1159 -0.1119
 2052SOL    MW4 7942   0.948   3.450   6.270  0.1895 -0.1503 -0.0320
 2053SOL     OW 7943   4.915   6.108   1.415  0.3859  0.2499  0.2017
 2053SOL    HW2 7944   4.847   6.141   1.356 -0.3623  0.6061  1.2259
 2053SOL    HW3 7945   4.922   6.015   1.395  1.5216  0.7117 -1.7622
 2053SOL    MW4 7946   4.907   6.100   1.405  0.7947  0.4301 -0.3635
 2054SOL     OW 7947   4.551   4.374   5.770  0.0148 -0.1986 -0.0172
 2054SOL    HW2 7948   4.523   4.410   5.854 -1.7405  2.0069 -1.4135
 2054SOL    HW3 7949   4.634   4.420   5.751  0.6650 -1.0531  0.6781
 2054SOL    MW4 7950   4.559   4.385   5.779 -0.1455 -0.8360 -0.3645
 2055SOL     OW 7951   0.602   0.564   3.429 -0.1480  0.1676  0.0171
 2055SOL    HW2 7952   0.524   0.508   3.430 -1.6722  2.1474  2.1423
 2055SOL    HW3 7953   0.594   0.615   3.348 -1.0267  0.2513  0.1418
 2055SOL    MW4 7954   0.590   0.563   3.419 -0.3573  0.2137 -0.6817
 2056SOL     OW 7955   5.646   1.202   4.866 -0.2769 -0.7537 -0.5445
 2056SOL    HW2 7956   5.550   1.199   4.865 -0.2982 -0.7194 -2.2867
 2056SOL    HW3 7957   5.672   1.120   4.823  0.3806  0.3831 -2.4261
 2056SOL    MW4 7958   5.636   1.191   4.860  0.1467  0.2315 -0.0949
 2057SOL     OW 7959   0.999   3.306   0.762 -0.0942  0.1004 -0.2513
 2057SOL    HW2 7960   1.010   3.258   0.679  2.9072  0.4724 -0.1796
 2057SOL    HW3 7961   0.989   3.237   0.828 -1.6292 -0.2157 -0.7766
 2057SOL    MW4 7962   0.999   3.290   0.760 -0.1434  0.5760 -0.9041
 2058SOL     OW 7963   0.150   4.745   3.600  0.2764 -0.1108  1.0969
 2058SOL    HW2 7964   0.242   4.722   3.586  0.7517  1.5250  1.2519
 2058SOL    HW3 7965   0.100   4.674   3.559  1.5999 -0.0103 -0.8052
 2058SOL    MW4 7966   0.155   4.733   3.593  0.2447  0.5588  0.4078
 2059SOL     OW 7967   0.670   4.510   4.794 -0.0754 -0.1776 -0.1896
 2059SOL    HW2 7968   0.682   4.498   4.700 -1.9729 -1.5262 -0.3329
 2059SOL    HW3 7969   0.742   4.461   4.834  0.5446  0.1161 -0.9191
 2059SOL    MW4 7970   0.681   4.502   4.787 -0.1521  0.4315  0.5106
 2060SOL     OW 7971   6.093   4.000   5.108  0.2612 -0.6837 -0.3145
 2060SOL    HW2 7972   6.059   3.915   5.079 -1.2933  0.2210 -1.2929
 2060SOL    HW3 7973   6.135   4.036   5.030 -0.4374  0.0702 -0.3611
 2060SOL    MW4 7974   6.094   3.993   5.094  0.5396 -0.2934  0.0503
 2061SOL     OW 7975   2.079   4.865   4.114  0.2689  0.3115 -0.0878
 2061SOL    HW2 7976   2.072   4.960   4.123  0.3141  0.3319 -0.2568
 2061SOL    HW3 7977   2.023   4.844   4.039 -2.8330 -0.2566  2.1964
 2061SOL    MW4 7978   2.071   4.874   4.105  0.0280 -0.0894  0.1957
 2062SOL     OW 7979   0.354   4.717   4.358  0.3250 -0.1471  0.2736
 2062SOL    HW2 7980   0.431   4.665   4.335  1.0524  0.9609  0.0810
 2062SOL    HW3 7981   0.280   4.667   4.325  1.0844 -0.4756 -0.9869
 2062SOL    MW4 7982   0.354   4.704   4.351 -0.7594 -0.0499 -0.4083
 2063SOL     OW 7983   1.379   4.866   2.750 -0.0215  0.7473  0.4574
 2063SOL    HW2 7984   1.451   4.910   2.796 -0.3765  0.7274  1.0476
 2063SOL    HW3 7985   1.300   4.903   2.789 -0.3424  0.9996 -0.4003
 2063SOL    MW4 7986   1.378   4.877   2.761  0.0891 -0.0692  0.0048
 2064SOL     OW 7987   1.982   2.637   2.787 -0.4551 -0.3688  0.1517
 2064SOL    HW2 7988   2.022   2.551   2.775 -1.7186 -0.9380 -0.1463
 2064SOL    HW3 7989   1.892   2.618   2.815 -0.3950  0.8740  1.2832
 2064SOL    MW4 7990   1.975   2.623   2.789 -0.2015 -0.0981  1.0245
 2065SOL     OW 7991   3.282   3.269   0.425  0.8887 -0.0231 -0.1124
 2065SOL    HW2 7992   3.354   3.256   0.363  0.1461 -0.9658 -0.7923
 2065SOL    HW3 7993   3.324   3.266   0.511  1.8040  0.4709 -0.5253
 2065SOL    MW4 7994   3.297   3.267   0.428  0.1802  0.6341  0.0788
 2066SOL     OW 7995   2.823   2.919   2.129  0.2656 -0.2666  0.3946
 2066SOL    HW2 7996   2.857   2.918   2.218  0.3602 -0.2063  0.3597
 2066SOL    HW3 7997   2.820   3.012   2.105  0.9152 -0.3210  0.0781
 2066SOL    MW4 7998   2.827   2.931   2.137  0.2440  0.7662 -0.8406
 2067SOL     OW 7999   0.714   1.242   2.498 -0.2980 -0.1558  0.2471
 2067SOL    HW2 8000   0.794   1.295   2.503 -0.1277 -0.4562  0.7279
 2067SOL    HW3 8001   0.717   1.186   2.575 -0.8540 -0.3426  0.1379
 2067SOL    MW4 8002   0.725   1.242   2.509 -0.2699 -0.1728  0.3723
 2068SOL     OW 8003   4.032   5.273   5.144 -0.1681 -0.2271 -0.9599
 2068SOL    HW2 8004   4.125   5.254   5.129  0.0614 -0.4685  0.6262
 2068SOL    HW3 8005   3.993   5.189   5.168 -0.0471  0.3767  1.7436
 2068SOL    MW4 8006   4.039   5.260   5.145  0.1311  0.3672  0.1400
 2069SOL     OW 8007   5.571   4.020   1.996  0.4586  0.1074  0.0311
 2069SOL    HW2 8008   5.520   3.939   1.997  0.1525  0.2585  2.1540
 2069SOL    HW3 8009   5.507   4.089   1.975 -0.3718  0.3076  2.7638
 2069SOL    MW4 8010   5.555   4.019   1.994 -0.3721  0.0875  0.3888
 2070SOL     OW 8011   1.671   0.551   0.496  0.1456 -0.0634  0.0453
 2070SOL    HW2 8012   1.629   0.543   0.410  0.0059  1.2622 -0.0343
 2070SOL    HW3 8013   1.732   0.478   0.500 -1.0706 -1.1517 -0.4704
 2070SOL    MW4 8014   1.673   0.541   0.486 -0.2823 -0.2424 -0.4700
 2071SOL     OW 8015   0.988   5.537   2.530  0.5179  0.2933  0.0713
 2071SOL    HW2 8016   0.924   5.536   2.601 -1.1264  0.2901 -1.3603
 2071SOL    HW3 8017   0.946   5.490   2.458  0.5316  3.4060 -2.1894
 2071SOL    MW4 8018   0.974   5.531   2.530 -0.2869  0.2089 -0.1752
 2072SOL     OW 8019   4.540   6.321   4.262 -0.1506 -0.2691  0.1586
 2072SOL    HW2 8020   4.487   6.355   4.190 -0.2487  0.3025  0.4953
 2072SOL    HW3 8021   4.489   6.249   4.298 -1.3227  1.0889  1.3080
 2072SOL    MW4 8022   4.527   6.316   4.257  0.8550 -0.1199  0.3944
 2073SOL     OW 8023   0.023   2.127   2.310  0.4964 -0.3672 -0.0779
 2073SOL    HW2 8024  -0.002   2.089   2.225 -0.6383  0.0363  0.0551
 2073SOL    HW3 8025   0.089   2.193   2.289  1.0738 -1.0656 -0.5129
 2073SOL    MW4 8026   0.028   2.130   2.296  0.2159  0.5814  0.0651
 2074SOL     OW 8027   0.063   0.684   3.115  0.0551  0.4944 -0.2743
 2074SOL    HW2 8028  -0.003   0.623   3.082  1.3832 -0.8080 -0.6206
 2074SOL    HW3 8029   0.110   0.634   3.182  0.5041  1.4981  0.1830
 2074SOL    MW4 8030   0.061   0.670   3.120  0.5095 -0.2521 -0.1670
 2075SOL     OW 8031   0.905   4.360   4.860  0.2063  0.3393 -0.7641
 2075SOL    HW2 8032   0.916   4.265   4.855  0.7197  0.1501  2.2420
 2075SOL    HW3 8033   0.977   4.395   4.809  0.3708 -0.8810 -1.4070
 2075SOL    MW4 8034   0.916   4.352   4.853 -0.1012  0.3262 -0.2055
 2076SOL     OW 8035   3.814   1.888   1.051 -0.1187  0.4381  0.3765
 2076SOL    HW2 8036   3.830   1.958   1.114  0.2689  1.5726 -0.9194
 2076SOL    HW3 8037   3.725   1.858   1.070 -1.0344  2.5708 -0.1773
 2076SOL    MW4 8038   3.804   1.893   1.062 -0.8305 -0.9344 -0.0194
 2077SOL     OW 8039   3.706   0.774   0.610 -0.9864  1.0054 -0.5450
 2077SOL    HW2 8040   3.762   0.838   0.565  0.1299  1.0133  0.7992
 2077SOL    HW3 8041   3.714   0.796   0.703 -1.1107 -0.6609 -0.1080
 2077SOL    MW4 8042   3.715   0.785   0.616  0.3036 -0.5038  0.2870
 2078SOL     OW 8043   5.980   4.368   1.072  0.5857 -0.5948  0.0650
 2078SOL    HW2 8044   5.939   4.351   0.988  0.6378 -0.6028  0.0412
 2078SOL    HW3 8045   5.911   4.353   1.136  0.0769  0.9627 -0.0682
 2078SOL    MW4 8046   5.966   4.364   1.069 -0.4591  0.1414  0.7003
 2079SOL     OW 8047   4.890   3.378   1.724  0.2260 -0.4374  0.0805
 2079SOL    HW2 8048   4.862   3.470   1.724  2.0560  0.1889 -0.6129
 2079SOL    HW3 8049   4.891   3.354   1.631 -0.6393 -1.2999  0.2912
 2079SOL    MW4 8050   4.887   3.387   1.711 -0.0813 -0.1451  0.1098
 2080SOL     OW 8051   2.761   5.222   3.298 -0.0560 -0.3947  0.3467
 2080SOL    HW2 8052   2.712   5.266   3.229  0.0849 -0.4305  0.2245
 2080SOL    HW3 8053   2.806   5.150   3.254 -0.4549 -0.7926  0.5781
 2080SOL    MW4 8054   2.761   5.218   3.283  0.5555 -0.1034  0.3570
 2081SOL     OW 8055   2.951   0.139   0.687  0.3226 -0.2224 -0.0254
 2081SOL    HW2 8056   2.942   0.174   0.776 -0.9471 -1.2901  0.3002
 2081SOL    HW3 8057   2.862   0.136   0.653  0.5291 -1.8314 -0.5312
 2081SOL    MW4 8058   2.938   0.143   0.694  0.8576 -0.2604  0.3210
 2082SOL     OW 8059   0.982   1.330   2.540 -0.1202 -0.0427 -0.7377
 2082SOL    HW2 8060   1.024   1.288   2.465  0.3935 -0.9275  0.0189
 2082SOL    HW3 8061   0.984   1.423   2.519  5.0841  0.4484  0.4967
 2082SOL    MW4 8062   0.988   1.337   2.527  0.8421  0.3531  0.3833
 2083SOL     OW 8063   3.803   1.502   1.248  0.0583 -0.4450  0.3146
 2083SOL    HW2 8064   3.720   1.536   1.280  1.6512  2.6941  1.5769
 2083SOL    HW3 8065   3.844   1.462   1.324  1.1564  1.3151  0.7172
 2083SOL    MW4 8066   3.797   1.501   1.262 -0.6443  0.1850 -0.0724
 2084SOL     OW 8067   2.854   0.523   5.478 -0.2460 -0.0775  0.6088
 2084SOL    HW2 8068   2.864   0.573   5.559  0.6845 -0.4941  0.7643
 2084SOL    HW3 8069   2.876   0.433   5.503  0.9135 -0.0676 -0.2925
 2084SOL    MW4 8070   2.858   0.517   5.492  0.4877  0.0674  0.0627
 2085SOL     OW 8071   2.390   1.374   5.236 -0.0011 -0.5243  0.0452
 2085SOL    HW2 8072   2.340   1.441   5.191  2.2961  0.5772 -1.0025
 2085SOL    HW3 8073   2.360   1.379   5.327 -0.7891  1.0509 -0.2658
 2085SOL    MW4 8074   2.379   1.383   5.242 -0.1835 -0.2296 -0.1975
 2086SOL     OW 8075   4.358   3.821   1.260 -0.1266  0.1820  0.4195
 2086SOL    HW2 8076   4.339   3.876   1.184 -0.9908  0.5789  0.9117
 2086SOL    HW3 8077   4.285   3.836   1.320 -1.0531 -2.4400  0.0739
 2086SOL    MW4 8078   4.346   3.831   1.258  0.7952 -1.1894 -0.2192
 2087SOL     OW 8079   2.568   4.087   5.905  0.3851 -0.5547  0.3628
 2087SOL    HW2 8080   2.547   4.101   5.812  0.7995 -2.8070 -0.1356
 2087SOL    HW3 8081   2.483   4.075   5.947  0.2422 -0.6219  0.0601
 2087SOL    MW4 8082   2.554   4.087   5.898 -0.2213  0.9049 -0.2964
 2088SOL     OW 8083   1.590   3.518   1.491  0.4695  0.1973 -0.5737
 2088SOL    HW2 8084   1.597   3.590   1.428  1.6302  0.2541 -0.3975
 2088SOL    HW3 8085   1.666   3.529   1.548  0.3616 -0.8556 -0.2107
 2088SOL    MW4 8086   1.601   3.529   1.490  0.1256 -0.4106  0.1147
 2089SOL     OW 8087   5.934   3.296   3.629 -0.3010  0.4242 -0.3658
 2089SOL    HW2 8088   5.998   3.286   3.558 -0.9634 -0.3123 -0.8765
 2089SOL    HW3 8089   5.850   3.303   3.584 -0.8890 -1.4472  0.3642
 2089SOL    MW4 8090   5.931   3.296   3.613 -0.5092 -0.4719 -0.0963
 2090SOL     OW 8091   2.368   5.966   1.162  0.2727 -0.6124  0.3531
 2090SOL    HW2 8092   2.315   6.040   1.191 -0.5889 -1.0049 -0.1628
 2090SOL    HW3 8093   2.334   5.891   1.210  1.4286 -0.6205  1.1962
 2090SOL    MW4 8094   2.356   5.966   1.172 -0.1791  0.4243  0.1435
 2091SOL     OW 8095   0.236   2.973   1.139 -0.4917  0.0683 -0.4529
 2091SOL    HW2 8096   0.270   2.927   1.215 -1.8291 -0.4324 -0.1365
 2091SOL    HW3 8097   0.314   2.998   1.089  0.4480  0.9812  1.3903
 2091SOL    MW4 8098   0.251   2.970   1.142  0.1743  0.3725 -0.0452
 2092SOL     OW 8099   3.273   0.772   2.692 -0.1186  1.0156 -0.2147
 2092SOL    HW2 8100   3.316   0.809   2.769  0.1145 -0.6061  0.4730
 2092SOL    HW3 8101   3.344   0.728   2.645 -0.8007 -0.7380  0.3457
 2092SOL    MW4 8102   3.288   0.771   2.696  0.7229  0.4421  0.0693
 2093SOL     OW 8103   1.093   2.673   5.378  0.3345  0.2412  0.4131
 2093SOL    HW2 8104   1.083   2.588   5.335 -3.2729  1.2037 -0.9918
 2093SOL    HW3 8105   1.184   2.698   5.359  0.3221 -1.5300 -2.6918
 2093SOL    MW4 8106   1.104   2.665   5.370  0.9145 -1.0169 -0.1025
 2094SOL     OW 8107   4.756   3.710   2.324  0.1344 -0.6482 -0.2217
 2094SOL    HW2 8108   4.696   3.646   2.286 -1.4241  0.5221  0.1389
 2094SOL    HW3 8109   4.771   3.773   2.254 -1.3156  0.5431  0.4684
 2094SOL    MW4 8110   4.750   3.710   2.310 -0.1066 -0.1031  0.1074
 2095SOL     OW 8111   3.127   1.119   5.750  0.1311 -0.2272  0.0696
 2095SOL    HW2 8112   3.149   1.047   5.692  0.1007 -1.9583  2.0733
 2095SOL    HW3 8113   3.211   1.157   5.775  0.2300 -0.3997 -0.0022
 2095SOL    MW4 8114   3.141   1.115   5.746  0.4558 -0.2692  0.0585
 2096SOL     OW 8115   4.165   4.635   6.416  0.1069 -0.0528  0.0267
 2096SOL    HW2 8116   4.085   4.652   6.367  0.2972  0.7280 -0.0315
 2096SOL    HW3 8117   4.140   4.573   6.484 -0.8399  1.1664  0.8114
 2096SOL    MW4 8118   4.151   4.629   6.418 -0.5685  0.1327 -0.2346
 2097SOL     OW 8119   4.836   4.562   6.043 -0.4132 -0.3282 -0.0434
 2097SOL    HW2 8120   4.805   4.619   5.973  1.2225 -0.3459 -0.8448
 2097SOL    HW3 8121   4.930   4.555   6.027 -0.6836 -4.5577 -1.0095
 2097SOL    MW4 8122   4.844   4.569   6.032  0.0316  0.2258  0.1917
 2098SOL     OW 8123   3.192   2.931   3.084 -0.0676 -0.6913 -0.3538
 2098SOL    HW2 8124   3.116   2.907   3.031 -0.6435  0.2182  0.0483
 2098SOL    HW3 8125   3.166   2.912   3.174 -0.4142  1.0445 -0.0566
 2098SOL    MW4 8126   3.179   2.925   3.089 -0.3758  0.0738 -0.2069
 2099SOL     OW 8127   1.365   1.777   2.851 -0.8993  0.0507 -0.1258
 2099SOL    HW2 8128   1.312   1.838   2.904 -0.8409  0.0351 -0.0490
 2099SOL    HW3 8129   1.304   1.743   2.785 -0.7219  0.8333 -0.7038
 2099SOL    MW4 8130   1.350   1.780   2.849 -0.4730  0.4824 -0.2187
 2100SOL     OW 8131   3.512   3.116   6.121  0.1787 -0.0492 -0.4473
 2100SOL    HW2 8132   3.518   3.167   6.202  0.5760 -1.1805  0.2545
 2100SOL    HW3 8133   3.535   3.027   6.146  1.5121 -0.2067 -2.0391
 2100SOL    MW4 8134   3.516   3.111   6.135  0.3871 -0.1586  0.2546
 2101SOL     OW 8135   5.367   5.321   2.226  0.6422 -0.6266  0.5327
 2101SOL    HW2 8136   5.412   5.244   2.191 -0.1956 -0.4499 -1.0138
 2101SOL    HW3 8137   5.286   5.286   2.265  1.0397 -0.6905  1.3323
 2101SOL    MW4 8138   5.362   5.306   2.227 -0.5774  0.1666  0.5303
 2102SOL     OW 8139   2.257   4.334   1.806  0.0922 -0.4112 -0.0352
 2102SOL    HW2 8140   2.229   4.273   1.874  0.2074 -0.8235 -0.3532
 2102SOL    HW3 8141   2.325   4.286   1.757 -0.7664 -0.5540 -1.1308
 2102SOL    MW4 8142   2.262   4.319   1.808  0.2768  0.6364 -0.1453
 2103SOL     OW 8143   1.464   5.543   3.280 -0.0056  0.4745  0.2141
 2103SOL    HW2 8144   1.467   5.540   3.375  0.0929 -0.0980  0.1968
 2103SOL    HW3 8145   1.556   5.550   3.253 -0.0607  1.1367  0.1676
 2103SOL    MW4 8146   1.477   5.544   3.289  0.2979 -0.5980  0.4092
 2104SOL     OW 8147   1.106   0.377   0.097  0.3056 -0.7335  0.0546
 2104SOL    HW2 8148   1.186   0.387   0.148  0.8733 -2.1493 -0.5251
 2104SOL    HW3 8149   1.135   0.363   0.007 -0.5726 -1.3826 -0.1501
 2104SOL    MW4 8150   1.120   0.376   0.092  0.7155 -0.1923  0.3906
 2105SOL     OW 8151   4.186   1.260   4.473 -0.3357  0.1561  0.2839
 2105SOL    HW2 8152   4.139   1.256   4.556  0.0557 -1.0763  0.4760
 2105SOL    HW3 8153   4.270   1.218   4.492 -1.3831 -3.0732 -1.4214
 2105SOL    MW4 8154   4.191   1.254   4.487  0.3054  0.1842  0.1763
 2106SOL     OW 8155   1.991   1.350   4.363 -0.6409  0.1679 -0.3245
 2106SOL    HW2 8156   1.939   1.418   4.321 -0.1998  0.4751 -0.3857
 2106SOL    HW3 8157   2.072   1.346   4.312 -1.4484 -1.8195 -1.5872
 2106SOL    MW4 8158   1.995   1.358   4.351  0.1433  0.3998  0.5921
 2107SOL     OW 8159   1.226   0.396   6.253  0.4377  0.0039  0.0867
 2107SOL    HW2 8160   1.254   0.307   6.274  3.1877  0.3998 -1.4222
 2107SOL    HW3 8161   1.243   0.405   6.159  1.3110  2.4275  0.3912
 2107SOL    MW4 8162   1.232   0.386   6.243  0.2859 -0.6407  0.3173
 2108SOL     OW 8163   5.144   1.584   0.284  0.3076 -0.6464  0.4690
 2108SOL    HW2 8164   5.138   1.515   0.351  0.0941 -0.4978  0.6034
 2108SOL    HW3 8165   5.193   1.543   0.213  1.6224 -0.4143  1.2076
 2108SOL    MW4 8166   5.149   1.569   0.283  0.6033 -0.0525 -0.3312
 2109SOL     OW 8167   0.864   4.985   2.929 -0.3641  0.2922  0.2835
 2109SOL    HW2 8168   0.892   5.072   2.900  0.0171  0.0458 -0.1108
 2109SOL    HW3 8169   0.774   4.997   2.959  0.4804  1.3390  2.6566
 2109SOL    MW4 8170   0.856   4.998   2.929  0.6257 -0.0078  0.1157
 2110SOL     OW 8171   4.382   0.490   0.142  0.2585  0.3853  0.3696
 2110SOL    HW2 8172   4.470   0.460   0.119 -0.2463 -1.5932  0.8317
 2110SOL    HW3 8173   4.365   0.563   0.082  1.2181 -0.8736 -1.5248
 2110SOL    MW4 8174   4.391   0.496   0.131  0.4168  0.6358 -0.2619
 2111SOL     OW 8175   2.667   5.142   2.168 -0.0343  0.6772  0.1266
 2111SOL    HW2 8176   2.692   5.061   2.124  0.3260 -0.3728  2.1579
 2111SOL    HW3 8177   2.720   5.209   2.126 -1.2779  0.1315 -2.4908
 2111SOL    MW4 8178   2.677   5.140   2.157 -0.2259 -0.3326  0.2794
 2112SOL     OW 8179   2.414   4.234   1.269 -0.6864  0.0527  0.2849
 2112SOL    HW2 8180   2.448   4.317   1.303 -1.7715  0.3019  0.8083
 2112SOL    HW3 8181   2.321   4.250   1.253 -0.7763 -0.8762 -0.2328
 2112SOL    MW4 8182   2.406   4.247   1.272  0.9752  1.1324  0.3774
 2113SOL     OW 8183   4.803   1.868   2.908 -0.6489  0.1292  0.1399
 2113SOL    HW2 8184   4.766   1.950   2.940 -0.5332 -0.3716  1.6325
 2113SOL    HW3 8185   4.748   1.844   2.833 -0.7050  1.5287 -0.2890
 2113SOL    MW4 8186   4.791   1.875   2.902  0.0984  0.6581  0.3557
 2114SOL     OW 8187   3.875   1.730   4.772  0.3491 -0.0952  0.1196
 2114SOL    HW2 8188   3.822   1.754   4.696  0.3800 -1.4655 -0.3533
 2114SOL    HW3 8189   3.957   1.777   4.760  0.2286 -0.0436 -0.5172
 2114SOL    MW4 8190   3.878   1.739   4.761  0.2368  0.1371  0.2854
 2115SOL     OW 8191   3.219   6.013   1.640  0.3837 -0.5858  0.6415
 2115SOL    HW2 8192   3.287   5.966   1.690 -0.3154 -2.6783 -0.2668
 2115SOL    HW3 8193   3.187   5.949   1.576 -1.7532  0.6475  0.3679
 2115SOL    MW4 8194   3.224   5.998   1.638  0.0248  0.5082  0.6739
 2116SOL     OW 8195   3.092   0.201   4.640  0.7522  0.6364  0.2299
 2116SOL    HW2 8196   3.040   0.278   4.621 -1.3518 -0.4243  1.3223
 2116SOL    HW3 8197   3.119   0.212   4.732 -0.4938 -0.3658  0.7517
 2116SOL    MW4 8198   3.089   0.212   4.650  0.8113  0.2953 -0.2913
 2117SOL     OW 8199   1.981   0.674   0.392  0.4457  0.1983 -0.5622
 2117SOL    HW2 8200   1.908   0.731   0.367 -1.1896 -1.5387  0.0077
 2117SOL    HW3 8201   1.969   0.595   0.339 -0.0940 -1.4553  1.8460
 2117SOL    MW4 8202   1.970   0.671   0.382 -0.5918 -0.8841 -0.1578
 2118SOL     OW 8203   0.814   6.104   4.047  0.0374 -0.1164 -0.0285
 2118SOL    HW2 8204   0.867   6.103   3.967 -0.5373 -0.2492 -0.4208
 2118SOL    HW3 8205   0.839   6.025   4.094  1.6629  0.8441  0.8052
 2118SOL    MW4 8206   0.824   6.093   4.042  0.3952 -0.1078  0.5898
 2119SOL     OW 8207   0.375   1.927   4.825 -0.2269  0.6124 -0.6596
 2119SOL    HW2 8208   0.312   1.859   4.801  0.8891 -0.0150 -1.9950
 2119SOL    HW3 8209   0.432   1.886   4.890 -0.3359  0.7144 -0.4979
 2119SOL    MW4 8210   0.374   1.913   4.830  0.1797 -0.8231  0.2752
 2120SOL     OW 8211   4.225   3.674   5.177  0.3559 -0.0510  0.1573
 2120SOL    HW2 8212   4.203   3.691   5.269 -0.7795  0.9977 -0.2758
 2120SOL    HW3 8213   4.302   3.729   5.160 -0.6116  1.2999 -0.0218
 2120SOL    MW4 8214   4.232   3.684   5.187 -0.0003  0.5302 -0.0876
 2121SOL     OW 8215   0.103   3.031   0.144 -0.0061 -0.0952 -0.1482
 2121SOL    HW2 8216   0.165   3.053   0.074  1.4624 -0.9209  0.8283
 2121SOL    HW3 8217   0.121   3.096   0.212 -0.6514  0.0301 -0.0969
 2121SOL    MW4 8218   0.114   3.042   0.144 -0.9371 -0.0548  0.5356
 2122SOL     OW 8219   3.405   5.638   1.721  0.2855 -0.2835 -0.2370
 2122SOL    HW2 8220   3.411   5.733   1.734 -1.2800 -0.2736  0.6994
 2122SOL    HW3 8221   3.312   5.622   1.710  0.7168 -1.4805 -2.5937
 2122SOL    MW4 8222   3.394   5.649   1.722  0.7022  0.0694 -0.4591
 2123SOL     OW 8223   3.241   2.782   2.534 -0.1867  0.2965  0.0221
 2123SOL    HW2 8224   3.332   2.800   2.508 -0.2529  0.2687 -0.2286
 2123SOL    HW3 8225   3.220   2.851   2.596 -0.0787  0.4513 -0.1130
 2123SOL    MW4 8226   3.250   2.794   2.539 -0.4496  0.3373  0.5334
 2124SOL     OW 8227   3.182   0.582   3.467  0.2421 -0.5073  0.0676
 2124SOL    HW2 8228   3.238   0.657   3.447 -1.5143  0.7280 -0.4889
 2124SOL    HW3 8229   3.173   0.584   3.563  0.3699 -0.1408  0.0745
 2124SOL    MW4 8230   3.188   0.592   3.477 -0.0654 -0.0608 -0.4401
 2125SOL     OW 8231   0.994   3.583   2.361 -0.2963  0.6773 -0.1073
 2125SOL    HW2 8232   0.929   3.596   2.291 -2.0626 -1.5640  0.9619
 2125SOL    HW3 8233   1.069   3.543   2.317 -0.1203  2.1150 -1.1724
 2125SOL    MW4 8234   0.995   3.579   2.346  0.2583 -0.3153  0.7953
 2126SOL     OW 8235   6.059   3.643   1.115  0.4813  0.1465  0.3944
 2126SOL    HW2 8236   6.148   3.610   1.112  0.7794  0.7975  1.3384
 2126SOL    HW3 8237   6.008   3.581   1.064  1.4949 -0.1632 -0.2648
 2126SOL    MW4 8238   6.064   3.631   1.108  0.0110 -0.3289 -0.4120
 2127SOL     OW 8239   0.232   3.101   2.600 -0.1286 -0.0107 -0.7920
 2127SOL    HW2 8240   0.245   3.194   2.617  3.3343 -0.2782 -1.2013
 2127SOL    HW3 8241   0.225   3.062   2.687 -0.1233  0.4746 -0.5704
 2127SOL    MW4 8242   0.233   3.108   2.614 -0.1344  0.0716 -0.3885
 2128SOL     OW 8243   3.287   4.523   4.706 -0.1783  0.0961 -0.0505
 2128SOL    HW2 8244   3.286   4.558   4.795  0.2576  0.4023 -0.1650
 2128SOL    HW3 8245   3.200   4.545   4.670 -0.8474 -1.1561  0.7233
 2128SOL    MW4 8246   3.275   4.531   4.713  0.1634 -0.6918 -0.5259
 2129SOL     OW 8247   3.244   1.850   2.914 -0.3366  0.4762 -0.0331
 2129SOL    HW2 8248   3.186   1.863   2.989  1.4219  1.6900  1.2093
 2129SOL    HW3 8249   3.247   1.755   2.903 -0.2861  0.2319  1.7531
 2129SOL    MW4 8250   3.237   1.839   2.923 -0.1999 -0.1189 -0.0015
 2130SOL     OW 8251   3.730   0.456   3.811 -0.2233  0.6053  0.0062
 2130SOL    HW2 8252   3.732   0.542   3.852 -1.5465  0.5203  0.2702
 2130SOL    HW3 8253   3.690   0.399   3.877  0.7084 -0.2509 -0.1278
 2130SOL    MW4 8254   3.725   0.460   3.825  0.9753  0.1811 -0.3749
 2131SOL     OW 8255   3.358   6.049   2.416 -0.9554  0.4994  0.0217
 2131SOL    HW2 8256   3.426   6.042   2.482 -0.1078 -0.0906 -0.8804
 2131SOL    HW3 8257   3.333   5.959   2.397  2.8871 -0.0004 -4.4762
 2131SOL    MW4 8258   3.364   6.036   2.422  0.2282  0.1338 -0.3978
 2132SOL     OW 8259   6.118   0.136   3.600  0.0848 -0.3228 -0.5899
 2132SOL    HW2 8260   6.206   0.099   3.601  0.2265 -0.0107  0.8027
 2132SOL    HW3 8261   6.068   0.081   3.660 -0.2032  0.5465 -0.0113
 2132SOL    MW4 8262   6.123   0.124   3.608 -0.5316 -0.1902  0.4317
 2133SOL     OW 8263   3.917   5.646   1.688  0.0099  0.1850  0.4090
 2133SOL    HW2 8264   3.873   5.603   1.614  0.8157 -1.9737  1.1025
 2133SOL    HW3 8265   3.872   5.730   1.697 -3.1909 -1.3538  0.3099
 2133SOL    MW4 8266   3.905   5.652   1.680 -0.3275 -0.0701  0.0628
 2134SOL     OW 8267   2.584   5.721   5.435 -0.1953 -0.4544  0.4243
 2134SOL    HW2 8268   2.664   5.769   5.414  0.4295 -1.5275  0.2727
 2134SOL    HW3 8269   2.527   5.787   5.476  0.2592  0.6303 -0.6160
 2134SOL    MW4 8270   2.587   5.736   5.438  0.6896 -0.4482 -0.7745
 2135SOL     OW 8271   1.825   4.462   5.962  0.4888  0.6187  0.1549
 2135SOL    HW2 8272   1.831   4.386   6.021 -1.5483  0.0995 -0.2203
 2135SOL    HW3 8273   1.800   4.535   6.019  0.7763  0.6356  0.2622
 2135SOL    MW4 8274   1.823   4.461   5.977  0.1575 -0.6063  0.1533
 2136SOL     OW 8275   5.586   0.569   0.363 -0.0892  0.2692  0.0251
 2136SOL    HW2 8276   5.559   0.583   0.454 -0.7954 -0.9965  0.0447
 2136SOL    HW3 8277   5.505   0.582   0.313 -0.1466 -0.8166 -0.2073
 2136SOL    MW4 8278   5.572   0.572   0.369  0.0163  0.2843 -0.5671
 2137SOL     OW 8279   5.912   1.346   5.840 -0.0155  0.1702  0.4833
 2137SOL    HW2 8280   5.883   1.326   5.930  0.4068  0.8991  0.7871
 2137SOL    HW3 8281   6.006   1.359   5.848 -0.2235  2.0477  0.2733
 2137SOL    MW4 8282   5.920   1.345   5.853  0.5409  0.3777 -0.1242
 2138SOL     OW 8283   0.391   1.004   6.007  0.3148 -0.0418 -0.0970
 2138SOL    HW2 8284   0.332   0.958   5.946  1.5530 -1.7751 -0.0600
 2138SOL    HW3 8285   0.428   0.935   6.061  0.0429  1.3590  1.9748
 2138SOL    MW4 8286   0.388   0.989   6.006  0.1438 -0.5638 -0.1425
 2139SOL     OW 8287   1.557   6.238   4.320 -0.3020 -0.7160  0.3111
 2139SOL    HW2 8288   1.472   6.225   4.278  0.2615 -0.9587 -0.8157
 2139SOL    HW3 8289   1.589   6.321   4.286  1.2127 -2.0291 -1.7055
 2139SOL    MW4 8290   1.550   6.247   4.310 -0.4792 -0.1728 -0.0380
 2140SOL     OW 8291   5.247   1.698   4.779  0.0776  0.8623  0.3756
 2140SOL    HW2 8292   5.306   1.742   4.718  1.7174 -0.0781  1.2049
 2140SOL    HW3 8293   5.263   1.604   4.764 -0.6075  0.6104  1.1840
 2140SOL    MW4 8294   5.257   1.691   4.769 -0.2546  0.4749 -0.1050
 2141SOL     OW 8295   5.778   5.285   0.774  0.1483  1.0670 -0.2981
 2141SOL    HW2 8296   5.748   5.194   0.768  0.2313  1.1217 -2.5523
 2141SOL    HW3 8297   5.719   5.325   0.838 -1.3954 -0.0443 -0.9354
 2141SOL    MW4 8298   5.766   5.278   0.781  0.4535 -0.5060 -0.0748
 2142SOL     OW 8299   4.647   2.452   1.681 -0.2148 -0.0687 -0.3232
 2142SOL    HW2 8300   4.587   2.485   1.748  0.2606  0.4981 -0.1714
 2142SOL    HW3 8301   4.594   2.391   1.630 -0.6115 -0.4315  0.5027
 2142SOL    MW4 8302   4.632   2.448   1.683 -0.7287 -0.2513  0.1426
 2143SOL     OW 8303   2.278   3.862   5.498 -0.3519  0.0531 -0.2244
 2143SOL    HW2 8304   2.296   3.899   5.584 -0.9655 -1.4073  0.5756
 2143SOL    HW3 8305   2.182   3.857   5.493 -0.3175 -0.1156 -0.8894
 2143SOL    MW4 8306   2.268   3.866   5.509  0.0197  0.3827  0.3889
 2144SOL     OW 8307   5.604   1.848   2.649  1.3790  0.3562 -0.4168
 2144SOL    HW2 8308   5.619   1.814   2.737 -0.9085 -0.2831 -0.2080
 2144SOL    HW3 8309   5.668   1.803   2.594 -0.4614 -3.1908  0.1119
 2144SOL    MW4 8310   5.615   1.838   2.653 -0.0240  0.3679  0.3084
 2145SOL     OW 8311   3.635   3.195   5.883 -0.1179 -0.2587 -0.6390
 2145SOL    HW2 8312   3.599   3.206   5.971  1.1127 -0.6078 -0.0817
 2145SOL    HW3 8313   3.569   3.143   5.837  0.2270 -2.0003  0.7428
 2145SOL    MW4 8314   3.622   3.190   5.888 -0.4954  0.5426 -0.2368
 2146SOL     OW 8315   6.265   0.842   4.624  0.0014 -0.1582  0.5266
 2146SOL    HW2 8316   6.331   0.776   4.649 -0.5884 -0.3525  1.6176
 2146SOL    HW3 8317   6.181   0.799   4.638 -0.3896  0.7026  0.8717
 2146SOL    MW4 8318   6.263   0.827   4.629  0.2670  0.4451  0.4505
 2147SOL     OW 8319   2.868   5.509   5.373  0.6597  0.2959  0.1544
 2147SOL    HW2 8320   2.925   5.433   5.357  1.4964  0.7808  0.7079
 2147SOL    HW3 8321   2.920   5.584   5.344  0.0756  0.7091  0.1582
 2147SOL    MW4 8322   2.883   5.509   5.367  0.1424  0.0887  0.3627
 2148SOL     OW 8323   5.196   5.411   3.389  0.1210 -0.0413  0.2374
 2148SOL    HW2 8324   5.205   5.502   3.418  0.7265 -0.4386  1.3441
 2148SOL    HW3 8325   5.272   5.366   3.427 -1.2401 -1.4364  1.4240
 2148SOL    MW4 8326   5.207   5.417   3.398 -0.3877 -0.5386 -0.0064
 2149SOL     OW 8327   5.101   0.503   4.980 -0.0360 -0.1785 -0.5046
 2149SOL    HW2 8328   5.161   0.567   5.018 -0.4268  1.4525 -2.5044
 2149SOL    HW3 8329   5.017   0.521   5.022 -0.0913  0.4758 -0.8847
 2149SOL    MW4 8330   5.098   0.514   4.991 -0.1233 -0.5979  0.4382
 2150SOL     OW 8331   6.369   0.378   1.548 -1.1086 -0.5442  0.0192
 2150SOL    HW2 8332   6.293   0.430   1.523 -1.8329  0.2218  3.3341
 2150SOL    HW3 8333   6.382   0.397   1.641  2.9363 -0.9330 -0.2659
 2150SOL    MW4 8334   6.361   0.387   1.557 -0.0309 -0.0234  0.8666
 2151SOL     OW 8335   0.679   5.923   0.781  0.4094 -0.3980  0.3371
 2151SOL    HW2 8336   0.749   5.929   0.846 -1.4112  1.1169  2.3130
 2151SOL    HW3 8337   0.723   5.934   0.697  2.5197  0.8959  1.5165
 2151SOL    MW4 8338   0.694   5.926   0.779  1.0095  0.4048 -0.3375
 2152SOL     OW 8339   1.784   5.918   2.687 -0.1104 -0.4080 -0.2043
 2152SOL    HW2 8340   1.810   5.926   2.596 -1.4204  0.0621 -0.5615
 2152SOL    HW3 8341   1.764   5.826   2.699  0.7846 -0.6052 -0.1760
 2152SOL    MW4 8342   1.785   5.907   2.677  0.4273 -0.0110 -0.2927
 2153SOL     OW 8343   1.280   3.833   4.314 -0.0085 -0.1149 -0.2641
 2153SOL    HW2 8344   1.375   3.830   4.323 -0.0729  1.3879  1.4326
 2153SOL    HW3 8345   1.263   3.795   4.228  2.0865 -0.7166 -0.4649
 2153SOL    MW4 8346   1.290   3.828   4.304 -0.4317  0.1892  0.5725
 2154SOL     OW 8347   2.752   3.921   0.481  0.0720  0.8836 -0.4492
 2154SOL    HW2 8348   2.753   4.003   0.432  2.0066  0.0766 -1.8630
 2154SOL    HW3 8349   2.832   3.922   0.533 -0.1135  0.0742 -0.1251
 2154SOL    MW4 8350   2.763   3.932   0.481 -0.4366 -0.4759  0.1871
 2155SOL     OW 8351   3.330   3.818   1.919  0.6688  0.2342 -0.0504
 2155SOL    HW2 8352   3.326   3.913   1.913  0.4405  0.2343  0.0692
 2155SOL    HW3 8353   3.343   3.801   2.012 -4.1769  0.0493  0.8695
 2155SOL    MW4 8354   3.331   3.828   1.931  0.3823 -0.1829  0.2045
 2156SOL     OW 8355   3.055   1.664   3.166  0.1651 -0.0598  0.3124
 2156SOL    HW2 8356   3.021   1.614   3.091  1.0822  2.8437 -2.2635
 2156SOL    HW3 8357   3.122   1.608   3.204 -0.4932 -1.7428 -0.8789
 2156SOL    MW4 8358   3.059   1.650   3.161  0.4594 -0.2477  0.5991
 2157SOL     OW 8359   2.009   2.097   5.552  0.1141 -0.2699  0.3713
 2157SOL    HW2 8360   1.934   2.143   5.514  0.3498 -0.9862 -1.0273
 2157SOL    HW3 8361   1.974   2.012   5.577  0.0045  0.1340  1.6468
 2157SOL    MW4 8362   1.994   2.092   5.550  0.5229 -0.0304  0.3120
 2158SOL     OW 8363   6.403   2.775   5.785  0.5292  0.0240  0.2764
 2158SOL    HW2 8364   6.494   2.749   5.774  0.9954  2.4650 -2.7454
 2158SOL    HW3 8365   6.381   2.824   5.706 -3.4071 -0.3015  0.9323
 2158SOL    MW4 8366   6.412   2.778   5.773  0.3137 -0.3629  0.0726
 2159SOL     OW 8367   5.397   4.719   0.730  0.2786  0.0706  0.1515
 2159SOL    HW2 8368   5.305   4.705   0.750  0.1200  1.3218  0.3589
 2159SOL    HW3 8369   5.430   4.769   0.804  1.2983 -0.9313  0.4055
 2159SOL    MW4 8370   5.389   4.723   0.742 -0.0568  0.3100  0.0317
 2160SOL     OW 8371   5.039   2.416   0.286  0.0047 -0.3015  0.4059
 2160SOL    HW2 8372   5.010   2.465   0.363  1.3001  1.7471 -0.3234
 2160SOL    HW3 8373   5.131   2.438   0.277  0.2615 -1.7181 -0.8833
 2160SOL    MW4 8374   5.047   2.425   0.295  0.2458  0.3005  0.6937
 2161SOL     OW 8375   0.047   5.136   1.907  0.2524  0.1321  0.2191
 2161SOL    HW2 8376  -0.032   5.126   1.854  0.1382  0.9144  0.2388
 2161SOL    HW3 8377   0.066   5.047   1.939 -0.6133 -0.0567  0.2160
 2161SOL    MW4 8378   0.039   5.123   1.904  1.0860  0.2723 -0.3161
 2162SOL     OW 8379   1.860   2.393   2.330 -0.8494  0.3162 -0.6332
 2162SOL    HW2 8380   1.932   2.451   2.305  0.3457 -1.1652 -0.8190
 2162SOL    HW3 8381   1.783   2.449   2.332  0.3497  2.0424 -0.1162
 2162SOL    MW4 8382   1.860   2.408   2.327 -0.1923 -0.0208 -0.2974
 2163SOL     OW 8383   1.788   0.108   0.233 -0.2273  0.0486 -0.0961
 2163SOL    HW2 8384   1.859   0.056   0.197  0.3148  1.3807 -1.0161
 2163SOL    HW3 8385   1.770   0.175   0.167 -1.3784  0.6113  0.7311
 2163SOL    MW4 8386   1.795   0.110   0.220  0.1041 -0.2633  0.2316
 2164SOL     OW 8387   3.521   3.418   4.524 -0.3667  0.0391  0.1645
 2164SOL    HW2 8388   3.521   3.510   4.498 -0.9502  0.2766  0.9595
 2164SOL    HW3 8389   3.551   3.371   4.446  0.5857  0.9508 -0.0478
 2164SOL    MW4 8390   3.525   3.424   4.510  0.0250 -0.4471  0.0408
 2165SOL     OW 8391   3.042   0.842   5.335  0.6081 -0.9874 -0.2707
 2165SOL    HW2 8392   2.968   0.834   5.395 -1.6058 -1.1242 -2.8467
 2165SOL    HW3 8393   3.043   0.759   5.287  3.1517 -1.4168  0.3637
 2165SOL    MW4 8394   3.033   0.830   5.337  0.0581  1.2590  0.2191
 2166SOL     OW 8395   3.294   5.285   5.566  0.3552 -0.0145 -0.3065
 2166SOL    HW2 8396   3.320   5.230   5.492  0.7109  0.4833 -0.5559
 2166SOL    HW3 8397   3.352   5.259   5.637 -0.7903 -1.3549  0.1743
 2166SOL    MW4 8398   3.305   5.274   5.566  0.1991  0.2550  0.6777
 2167SOL     OW 8399   2.340   0.586   3.681  0.4475 -0.1775  0.1401
 2167SOL    HW2 8400   2.337   0.676   3.713 -0.8821 -0.6417  1.4239
 2167SOL    HW3 8401   2.249   0.557   3.681  0.5615 -0.8065 -2.4746
 2167SOL    MW4 8402   2.328   0.594   3.685 -0.0917 -0.4656 -0.3317
 2168SOL     OW 8403   3.090   0.772   2.965 -0.1605  0.3181  0.1182
 2168SOL    HW2 8404   3.037   0.746   3.040  0.7086  1.1201  1.0332
 2168SOL    HW3 8405   3.126   0.689   2.932 -0.2301 -0.0021  0.8249
 2168SOL    MW4 8406   3.088   0.757   2.970  0.3665  0.6335 -0.1454
 2169SOL     OW 8407   6.078   3.160   2.004  0.1781 -0.0109 -0.0228
 2169SOL    HW2 8408   5.986   3.133   2.004  0.5285 -1.2599 -0.4974
 2169SOL    HW3 8409   6.086   3.218   1.929  0.1642 -1.3795 -1.1284
 2169SOL    MW4 8410   6.067   3.164   1.994  0.8970  0.1278  0.4034
 2170SOL     OW 8411   6.308   6.007   5.803 -0.4220  0.3338 -0.0496
 2170SOL    HW2 8412   6.334   6.098   5.820  0.6149 -0.1955  1.5253
 2170SOL    HW3 8413   6.367   5.977   5.734  0.3958  0.3890  0.6035
 2170SOL    MW4 8414   6.319   6.015   5.796  0.1733 -0.0675  0.0234
 2171SOL     OW 8415   0.617   3.951   6.273  0.0615 -0.8780 -0.4992
 2171SOL    HW2 8416   0.526   3.976   6.288 -0.1549 -1.0391 -1.5069
 2171SOL    HW3 8417   0.613   3.856   6.259  0.3691 -0.8616 -0.6884
 2171SOL    MW4 8418   0.604   3.942   6.273 -0.1515 -0.1203 -0.5146
 2172SOL     OW 8419   1.712   1.508   0.983 -0.6693  0.6574  0.2310
 2172SOL    HW2 8420   1.781   1.472   0.927 -2.0705 -0.4454 -0.8574
 2172SOL    HW3 8421   1.650   1.436   0.994 -1.4493  1.4854  1.5333
 2172SOL    MW4 8422   1.713   1.494   0.977 -0.1105 -0.0368  0.2635
 2173SOL     OW 8423   0.893   0.224   1.895  0.4122  0.4238  0.2434
 2173SOL    HW2 8424   0.859   0.277   1.822  0.1417 -1.6402 -1.2158
 2173SOL    HW3 8425   0.815   0.202   1.945  0.4017  0.6068  0.3098
 2173SOL    MW4 8426   0.878   0.228   1.892  0.5125  0.2712 -0.3952
 2174SOL     OW 8427   1.970   1.271   1.520  0.0430 -0.0526  0.0689
 2174SOL    HW2 8428   2.018   1.326   1.582 -1.5004 -0.5400  1.8148
 2174SOL    HW3 8429   1.892   1.322   1.497 -0.4408 -0.7104  0.1916
 2174SOL    MW4 8430   1.966   1.285   1.525  0.4862  0.1100 -0.3626
 2175SOL     OW 8431   5.357   6.097   5.766  0.0349  0.2131 -0.3377
 2175SOL    HW2 8432   5.309   6.098   5.684 -1.2116 -0.2011  0.3658
 2175SOL    HW3 8433   5.392   6.008   5.774  1.4514  0.6712 -1.1240
 2175SOL    MW4 8434   5.355   6.086   5.757  0.0712  0.0406 -0.1552
 2176SOL     OW 8435   3.863   3.914   6.425 -0.0520 -0.1415  0.5586
 2176SOL    HW2 8436   3.943   3.907   6.477  0.9971  2.8111 -0.4552
 2176SOL    HW3 8437   3.884   3.873   6.341  0.2837  0.3083  0.4216
 2176SOL    MW4 8438   3.876   3.908   6.421 -0.2531 -0.4168  0.6148
 2177SOL     OW 8439   0.113   1.989   0.308 -0.2983 -0.3522 -0.0230
 2177SOL    HW2 8440   0.116   1.952   0.396  2.3794 -0.8787 -0.2536
 2177SOL    HW3 8441   0.134   1.915   0.250  1.0674  0.5983 -0.8200
 2177SOL    MW4 8442   0.116   1.974   0.312 -0.2156  0.0817  0.5543
 2178SOL     OW 8443   5.976   2.375   0.360 -0.8154 -0.0139  0.0119
 2178SOL    HW2 8444   6.052   2.379   0.302  0.2006  2.4142  1.3461
 2178SOL    HW3 8445   5.906   2.418   0.311 -0.8481 -0.7101 -0.5635
 2178SOL    MW4 8446   5.977   2.381   0.346  0.0447 -0.2723 -0.4493
 2179SOL     OW 8447   5.947   2.599   5.238  0.0542 -0.3377 -0.3543
 2179SOL    HW2 8448   5.912   2.562   5.319 -1.9007  0.7364 -0.6302
 2179SOL    HW3 8449   5.876   2.589   5.174  0.6815  0.9118 -1.2973
 2179SOL    MW4 8450   5.933   2.593   5.240 -0.4091  0.6634 -0.6814
 2180SOL     OW 8451   2.116   4.903   5.053 -0.2694  0.6901 -0.3655
 2180SOL    HW2 8452   2.073   4.987   5.067 -0.1764  1.1010 -2.2879
 2180SOL    HW3 8453   2.092   4.878   4.964  0.1294 -1.0850 -0.0167
 2180SOL    MW4 8454   2.107   4.911   5.043 -0.1585 -0.2385 -0.2829
 2181SOL     OW 8455   5.714   6.392   0.146  0.3183  0.0404 -0.1885
 2181SOL    HW2 8456   5.666   6.420   0.224 -1.3568 -0.6655 -0.9179
 2181SOL    HW3 8457   5.777   6.328   0.178  2.4866  2.6141  1.1331
 2181SOL    MW4 8458   5.716   6.387   0.161 -0.5855  0.3028  0.2895
 2182SOL     OW 8459   0.375   4.176   1.965 -0.0648 -0.0468  0.0810
 2182SOL    HW2 8460   0.314   4.227   1.911  0.9286  0.3532 -0.6913
 2182SOL    HW3 8461   0.447   4.154   1.906  1.7665  1.6363  1.5206
 2182SOL    MW4 8462   0.376   4.180   1.950  0.1036  0.0764  0.5753
 2183SOL     OW 8463   0.045   1.195   4.248 -0.0342 -0.8469 -0.1528
 2183SOL    HW2 8464   0.053   1.109   4.289 -1.0039 -1.6497 -1.5571
 2183SOL    HW3 8465  -0.002   1.178   4.166 -2.3579  1.3141  0.5818
 2183SOL    MW4 8466   0.040   1.181   4.243  0.3083  0.2055  0.2479
 2184SOL     OW 8467   1.807   0.176   2.628  0.3460  0.0825 -0.4311
 2184SOL    HW2 8468   1.898   0.166   2.656  0.4065  0.7014 -0.3904
 2184SOL    HW3 8469   1.756   0.142   2.701  0.5515 -0.6391 -0.6201
 2184SOL    MW4 8470   1.812   0.170   2.641 -0.1338 -0.5006  0.2096
 2185SOL     OW 8471   0.896   1.901   5.487  0.2109  0.6240  0.1128
 2185SOL    HW2 8472   0.840   1.946   5.551  1.5379  1.3720  0.8014
 2185SOL    HW3 8473   0.844   1.901   5.406 -0.6574  1.5664  0.6403
 2185SOL    MW4 8474   0.882   1.907   5.485 -0.2930 -0.5298  0.3432
 2186SOL     OW 8475   4.595   4.128   3.915 -0.4348  0.3752 -0.2496
 2186SOL    HW2 8476   4.558   4.042   3.899  1.7370 -0.4365 -1.3155
 2186SOL    HW3 8477   4.582   4.176   3.833  0.1860  0.3269 -0.3838
 2186SOL    MW4 8478   4.589   4.123   3.902 -0.3939 -0.9008 -0.2254
 2187SOL     OW 8479   5.916   1.272   4.218  0.1542  0.1630 -0.4574
 2187SOL    HW2 8480   5.991   1.299   4.165 -0.7105  0.9667 -1.3086
 2187SOL    HW3 8481   5.949   1.270   4.308  1.1296  0.7196 -0.7913
 2187SOL    MW4 8482   5.930   1.275   4.223  0.1642 -0.2149  0.5797
 2188SOL     OW 8483   6.360   1.043   3.069  0.5491 -0.1956 -0.3453
 2188SOL    HW2 8484   6.360   1.034   3.164  1.1353 -0.0375 -0.3228
 2188SOL    HW3 8485   6.374   1.137   3.054 -1.3064  0.0869 -0.5874
 2188SOL    MW4 8486   6.362   1.055   3.079  0.1327  0.0252 -0.4158
 2189SOL     OW 8487   5.841   3.281   1.071 -0.2894 -0.4096 -0.3331
 2189SOL    HW2 8488   5.863   3.259   1.162 -0.0221  1.8010  0.2004
 2189SOL    HW3 8489   5.797   3.204   1.037  0.1776 -1.5243  1.4812
 2189SOL    MW4 8490   5.838   3.268   1.079  0.9040 -0.0588  0.5331
 2190SOL     OW 8491   6.284   4.328   1.749  0.4294 -0.7176 -0.4409
 2190SOL    HW2 8492   6.287   4.423   1.738 -1.8049 -0.1310  2.7159
 2190SOL    HW3 8493   6.374   4.303   1.768  0.9061  0.9250 -0.4068
 2190SOL    MW4 8494   6.296   4.337   1.750 -0.1831  0.4744  0.4186
 2191SOL     OW 8495   4.344   5.185   1.378 -0.2801  0.3012  0.1376
 2191SOL    HW2 8496   4.439   5.188   1.368  0.0096  1.3087  2.5034
 2191SOL    HW3 8497   4.321   5.272   1.412 -2.1305  0.2141 -0.7560
 2191SOL    MW4 8498   4.353   5.197   1.381  0.4699  0.3455 -0.0392
 2192SOL     OW 8499   4.044   4.909   2.574  0.0568  0.0380 -0.0056
 2192SOL    HW2 8500   4.058   4.938   2.484 -0.3967 -0.9153 -0.3973
 2192SOL    HW3 8501   4.129   4.874   2.602 -0.2281 -1.2024 -0.6548
 2192SOL    MW4 8502   4.057   4.908   2.566 -0.4523 -0.5882 -0.1441
 2193SOL     OW 8503   0.162   1.427   5.114 -0.2176  0.1418  0.3421
 2193SOL    HW2 8504   0.119   1.425   5.199 -1.6741 -0.9503 -0.3808
 2193SOL    HW3 8505   0.211   1.345   5.109 -0.6326 -0.0836 -0.1077
 2193SOL    MW4 8506   0.163   1.416   5.124 -0.0666  0.3184 -0.4381
 2194SOL     OW 8507   0.125   1.144   5.741 -0.1667  0.1091  0.1804
 2194SOL    HW2 8508   0.072   1.159   5.662 -0.4011  1.4641  0.5844
 2194SOL    HW3 8509   0.169   1.227   5.757  0.2183 -0.2881  1.2348
 2194SOL    MW4 8510   0.124   1.157   5.732  0.2636 -0.3353 -0.3913
 2195SOL     OW 8511   1.940   5.343   4.149  0.1498 -0.8229 -0.0113
 2195SOL    HW2 8512   1.887   5.371   4.075 -1.1917 -3.3256 -0.1141
 2195SOL    HW3 8513   1.994   5.272   4.115  1.0319 -0.6520  0.9500
 2195SOL    MW4 8514   1.940   5.337   4.135 -0.0318  0.6674  0.5979
 2196SOL     OW 8515   2.776   5.025   4.360  0.4550  0.2006 -0.1161
 2196SOL    HW2 8516   2.792   4.951   4.418 -1.6464  0.6334  1.1373
 2196SOL    HW3 8517   2.750   4.986   4.277  3.1979 -0.4261 -0.7740
 2196SOL    MW4 8518   2.774   5.010   4.357  0.7429  0.0903 -0.2618
 2197SOL     OW 8519   1.295   2.562   4.997 -0.1860 -0.1609  0.4440
 2197SOL    HW2 8520   1.338   2.509   5.065  3.0044  1.0295 -0.4851
 2197SOL    HW3 8521   1.228   2.504   4.960  0.2735 -1.9922  2.2979
 2197SOL    MW4 8522   1.292   2.547   5.001 -0.4796 -0.0920 -0.0992
 2198SOL     OW 8523   5.619   2.679   4.460  0.0702 -0.7232 -0.1049
 2198SOL    HW2 8524   5.660   2.723   4.535 -0.5303 -3.3199  1.8941
 2198SOL    HW3 8525   5.684   2.616   4.431 -0.2878 -0.7741 -0.8056
 2198SOL    MW4 8526   5.633   2.677   4.466  0.1006 -0.4949  0.0082
 2199SOL     OW 8527   6.361   1.324   3.029 -0.2613  0.3030  0.0727
 2199SOL    HW2 8528   6.396   1.367   3.106  1.3933  1.0416 -1.0495
 2199SOL    HW3 8529   6.266   1.331   3.039 -0.0966  0.2837  2.0635
 2199SOL    MW4 8530   6.353   1.330   3.040  0.6229 -0.2632  0.4183
 2200SOL     OW 8531   6.345   4.634   5.519  0.0741 -0.6319 -0.0324
 2200SOL    HW2 8532   6.341   4.725   5.546  2.4996 -0.4069 -0.1656
 2200SOL    HW3 8533   6.293   4.587   5.584  0.3000  0.6442  1.0998
 2200SOL    MW4 8534   6.338   4.639   5.531  0.7373  0.2368  0.4134
 2201SOL     OW 8535   0.249   0.004   5.614  0.9412  0.1712 -0.1344
 2201SOL    HW2 8536   0.310   0.062   5.569 -0.7186  1.8583 -0.3122
 2201SOL    HW3 8537   0.253   0.031   5.705  0.8473 -0.1024 -0.0473
 2201SOL    MW4 8538   0.258   0.015   5.620  0.2818  0.3988  0.1632
 2202SOL     OW 8539   4.260   0.073   1.011 -0.0725 -0.2409 -0.1664
 2202SOL    HW2 8540   4.264   0.166   0.988 -0.7675  0.1008  0.9939
 2202SOL    HW3 8541   4.351   0.047   1.024  0.0737  0.5305  0.3966
 2202SOL    MW4 8542   4.272   0.082   1.010  0.4169 -0.5210 -0.3869
 2203SOL     OW 8543   1.534   0.764   0.756  0.4715 -0.0410  0.1784
 2203SOL    HW2 8544   1.551   0.800   0.669  2.4208 -1.8534 -0.2688
 2203SOL    HW3 8545   1.546   0.670   0.746 -0.0549 -0.3809  2.2605
 2203SOL    MW4 8546   1.538   0.757   0.743  0.0253 -0.3922 -1.2127
 2204SOL     OW 8547   5.819   5.789   5.022  0.4193 -0.2136 -0.5179
 2204SOL    HW2 8548   5.822   5.718   4.957 -1.2764  0.2038 -1.1095
 2204SOL    HW3 8549   5.789   5.747   5.102 -2.6558  0.0773 -1.3873
 2204SOL    MW4 8550   5.816   5.774   5.024 -0.3144  0.5604 -0.3996
 2205SOL     OW 8551   3.191   1.290   3.678  0.1292  0.0784 -0.0019
 2205SOL    HW2 8552   3.115   1.234   3.697 -0.0730  0.6392  0.9125
 2205SOL    HW3 8553   3.168   1.375   3.718  0.1654  1.0124 -1.8767
 2205SOL    MW4 8554   3.178   1.294   3.686 -0.0190 -0.5504  0.0034
 2206SOL     OW 8555   6.362   1.182   5.034  0.3217 -0.3939 -0.4292
 2206SOL    HW2 8556   6.339   1.092   5.010  0.8449 -1.1167  1.5787
 2206SOL    HW3 8557   6.287   1.235   5.007 -1.2051 -1.8419  0.7729
 2206SOL    MW4 8558   6.349   1.177   5.027 -0.7151  0.3399 -0.0823
 2207SOL     OW 8559   4.671   5.904   1.201  0.3533 -0.0881 -0.0543
 2207SOL    HW2 8560   4.756   5.861   1.199  0.5717  0.1551  2.2029
 2207SOL    HW3 8561   4.691   5.997   1.195  0.0552 -0.1027 -1.9098
 2207SOL    MW4 8562   4.685   5.911   1.200  0.0855  0.5412  0.2374
 2208SOL     OW 8563   6.309   5.109   4.257 -0.0276 -0.0298 -0.3755
 2208SOL    HW2 8564   6.400   5.126   4.232 -0.2931  0.2835 -1.1364
 2208SOL    HW3 8565   6.315   5.038   4.322  0.7594  0.0224 -0.3818
 2208SOL    MW4 8566   6.322   5.102   4.262 -0.0890 -0.3694 -0.0308
 2209SOL     OW 8567   0.936   5.992   0.948 -0.2902  0.5539 -0.4475
 2209SOL    HW2 8568   0.921   6.061   1.012  1.2286  1.2173 -0.7613
 2209SOL    HW3 8569   1.013   5.945   0.980  0.3008  0.7016 -1.5942
 2209SOL    MW4 8570   0.944   5.995   0.960 -0.2046  0.3034  0.7610
 2210SOL     OW 8571   5.479   5.118   4.304  0.0179  0.2047  0.3208
 2210SOL    HW2 8572   5.486   5.199   4.255 -0.7233 -0.3840 -0.8025
 2210SOL    HW3 8573   5.540   5.128   4.377  2.8916  0.2553 -1.9001
 2210SOL    MW4 8574   5.488   5.130   4.307  0.2209 -0.2650 -0.0283
 2211SOL     OW 8575   5.408   0.804   1.481  0.2413 -0.1256 -0.6419
 2211SOL    HW2 8576   5.349   0.856   1.427 -0.1180 -0.7621 -0.8715
 2211SOL    HW3 8577   5.440   0.736   1.423  0.8395 -0.0655 -0.3886
 2211SOL    MW4 8578   5.405   0.802   1.466 -0.6482 -0.1031 -0.1475
 2212SOL     OW 8579   6.340   1.297   2.233  0.4029 -0.1998 -0.3853
 2212SOL    HW2 8580   6.394   1.242   2.289 -2.0337 -1.5791  0.7725
 2212SOL    HW3 8581   6.298   1.358   2.294  0.1905  0.4428 -1.1638
 2212SOL    MW4 8582   6.341   1.298   2.249  0.2451  0.0428  0.7006
 2213SOL     OW 8583   5.438   6.066   6.394  0.0487 -0.0971 -0.5312
 2213SOL    HW2 8584   5.379   6.135   6.364  0.6073  0.3409 -0.6358
 2213SOL    HW3 8585   5.387   5.985   6.384 -1.4972  0.4751  1.7651
 2213SOL    MW4 8586   5.423   6.065   6.389 -0.0584 -0.4843 -0.2625
 2214SOL     OW 8587   5.214   1.494   3.832  0.0164  0.1996  0.0539
 2214SOL    HW2 8588   5.154   1.562   3.802 -0.6787  0.0587  1.0816
 2214SOL    HW3 8589   5.228   1.513   3.925  1.4888  0.1595 -0.1386
 2214SOL    MW4 8590   5.208   1.505   3.840  0.4024 -0.0585 -0.2387
 2215SOL     OW 8591   0.607   1.554   6.236 -0.6803  0.2288 -0.0633
 2215SOL    HW2 8592   0.550   1.603   6.295 -0.3191 -1.0122  1.3924
 2215SOL    HW3 8593   0.548   1.497   6.186 -0.9202  0.7055 -0.3267
 2215SOL    MW4 8594   0.592   1.553   6.237  0.0865  0.0593 -0.8227
 2216SOL     OW 8595   2.871   5.843   1.525 -0.0839  0.0272  0.2571
 2216SOL    HW2 8596   2.811   5.810   1.458 -0.1538 -0.4777  0.5589
 2216SOL    HW3 8597   2.831   5.816   1.608 -0.4961  1.4688  0.5541
 2216SOL    MW4 8598   2.857   5.835   1.527 -0.4192 -0.2288 -0.0524
 2217SOL     OW 8599   5.079   2.666   1.922 -0.0211 -0.7935 -0.1172
 2217SOL    HW2 8600   5.135   2.713   1.860  1.8867  0.5915  2.4330
 2217SOL    HW3 8601   5.017   2.732   1.954  1.6046 -0.2875  2.2719
 2217SOL    MW4 8602   5.078   2.681   1.918 -0.2213  0.8440  0.0809
 2218SOL     OW 8603   5.984   5.135   1.532 -0.2128 -0.8228 -0.4815
 2218SOL    HW2 8604   5.975   5.041   1.548  0.7661 -0.8097  0.2364
 2218SOL    HW3 8605   5.946   5.176   1.609 -0.3015 -0.6381 -0.6235
 2218SOL    MW4 8606   5.978   5.128   1.544  0.2049 -0.4975 -0.9752
 2219SOL     OW 8607   0.915   3.131   3.687 -0.5344 -0.3910  1.0975
 2219SOL    HW2 8608   0.880   3.220   3.683 -4.3080 -1.7590 -1.6113
 2219SOL    HW3 8609   0.982   3.128   3.619  0.4489  0.5964  1.9805
 2219SOL    MW4 8610   0.919   3.142   3.678  0.3720  0.1025 -0.6818
 2220SOL     OW 8611   2.147   5.006   1.786  0.0803  0.2003  0.5999
 2220SOL    HW2 8612   2.074   4.952   1.755 -0.8480  0.9923  1.3256
 2220SOL    HW3 8613   2.219   4.945   1.797 -0.8486 -0.8349  1.0835
 2220SOL    MW4 8614   2.147   4.991   1.783 -0.6522  0.4153  0.1400
 2221SOL     OW 8615   0.857   3.601   5.947 -0.7427 -0.0828  0.5827
 2221SOL    HW2 8616   0.951   3.616   5.939 -1.0599  1.3180 -1.2562
 2221SOL    HW3 8617   0.841   3.524   5.893 -0.7359  0.0960  0.3231
 2221SOL    MW4 8618   0.868   3.593   5.939 -0.0953  0.0258  0.1655
 2222SOL     OW 8619   4.922   4.398   0.426 -0.4299 -0.0553  0.1970
 2222SOL    HW2 8620   4.938   4.490   0.448 -1.4455 -0.4302  2.9425
 2222SOL    HW3 8621   4.846   4.400   0.369  0.6614  0.8687 -1.2963
 2222SOL    MW4 8622   4.914   4.410   0.421 -0.4603  0.6654  0.6424
 2223SOL     OW 8623   5.142   4.014   0.917 -0.2445  0.4777  0.1869
 2223SOL    HW2 8624   5.183   3.932   0.942 -0.6159  0.5719  1.1183
 2223SOL    HW3 8625   5.054   3.990   0.888 -0.7613  0.6544  1.5463
 2223SOL    MW4 8626   5.136   4.000   0.916 -0.0975  0.2194  0.5097
 2224SOL     OW 8627   5.105   1.260   2.244  0.2439  0.3160  0.2423
 2224SOL    HW2 8628   5.142   1.347   2.236  0.7821  0.0575 -0.0842
 2224SOL    HW3 8629   5.011   1.272   2.227  0.7441  0.3546 -3.1185
 2224SOL    MW4 8630   5.097   1.273   2.241 -0.2963  0.1416  0.1666
 2225SOL     OW 8631   3.202   3.664   3.520  0.8115 -0.0470 -0.5444
 2225SOL    HW2 8632   3.225   3.698   3.606 -0.8348 -0.0764 -0.0663
 2225SOL    HW3 8633   3.229   3.732   3.459  3.0128 -0.4976 -0.1455
 2225SOL    MW4 8634   3.209   3.677   3.523  0.4402  0.1766 -0.0293
 2226SOL     OW 8635   2.462   6.412   3.130  0.4872  0.9332  0.1818
 2226SOL    HW2 8636   2.399   6.369   3.072 -1.0910  2.7109  0.4957
 2226SOL    HW3 8637   2.514   6.468   3.073  1.9595 -0.5994 -0.0916
 2226SOL    MW4 8638   2.460   6.414   3.115 -0.6351 -0.1845  0.1173
 2227SOL     OW 8639   3.315   3.160   2.887  0.1821  0.0700 -0.1369
 2227SOL    HW2 8640   3.383   3.202   2.835  0.4303  0.0250  0.1507
 2227SOL    HW3 8641   3.261   3.113   2.822  0.5929 -0.1369 -0.3377
 2227SOL    MW4 8642   3.317   3.159   2.871 -0.5216  0.4505  0.2923
 2228SOL     OW 8643   0.670   4.965   3.853 -0.4246  0.1886  0.3957
 2228SOL    HW2 8644   0.689   5.050   3.812  0.9306 -0.9543 -1.4984
 2228SOL    HW3 8645   0.606   4.924   3.795 -1.5299  0.1123  1.6215
 2228SOL    MW4 8646   0.664   4.971   3.840  0.2537  0.1499  0.8698
 2229SOL     OW 8647   1.307   4.952   3.681 -0.1549 -0.4803  0.5861
 2229SOL    HW2 8648   1.225   4.914   3.713  0.0590 -0.5445  1.0659
 2229SOL    HW3 8649   1.340   5.004   3.755  0.7350 -1.2437  0.7466
 2229SOL    MW4 8650   1.300   4.954   3.695 -0.3006  0.0784  0.2808
 2230SOL     OW 8651   5.433   1.725   3.671 -0.2762 -0.3829  0.3242
 2230SOL    HW2 8652   5.358   1.782   3.656  0.7447  0.8215 -0.4142
 2230SOL    HW3 8653   5.434   1.710   3.765 -1.6167 -0.6764  0.3047
 2230SOL    MW4 8654   5.423   1.731   3.681 -0.5855 -0.2074 -0.2938
 2231SOL     OW 8655   3.910   3.825   1.156 -0.4391  0.1764  0.5550
 2231SOL    HW2 8656   3.994   3.846   1.197 -0.4003 -0.0862  0.6170
 2231SOL    HW3 8657   3.864   3.772   1.222 -0.9839  0.9956  0.8386
 2231SOL    MW4 8658   3.915   3.821   1.170 -0.5898 -0.8834  0.3228
 2232SOL     OW 8659   4.318   0.707   3.079 -0.3259  0.1990  0.0205
 2232SOL    HW2 8660   4.261   0.643   3.036 -0.4830  0.9971 -0.9754
 2232SOL    HW3 8661   4.296   0.791   3.040  0.4753  0.7566  0.7100
 2232SOL    MW4 8662   4.308   0.709   3.068 -0.0792  0.0261  0.0653
 2233SOL     OW 8663   5.225   0.150   2.033  0.4768  0.5676  0.0687
 2233SOL    HW2 8664   5.227   0.245   2.024  1.0057  0.4580 -1.2257
 2233SOL    HW3 8665   5.170   0.121   1.960  1.1629 -0.1697 -0.1684
 2233SOL    MW4 8666   5.218   0.159   2.022  0.5408  0.6265 -0.0315
 2234SOL     OW 8667   0.993   4.021   1.677  0.4319 -0.5482 -0.1259
 2234SOL    HW2 8668   0.930   4.074   1.629  1.3538 -0.8678 -1.7538
 2234SOL    HW3 8669   1.002   4.066   1.761 -1.5356 -0.2074 -0.0372
 2234SOL    MW4 8670   0.986   4.034   1.682  0.2102 -0.2821 -0.8504
 2235SOL     OW 8671   3.172   3.254   2.031  0.2478  0.2434 -0.4398
 2235SOL    HW2 8672   3.267   3.257   2.021  0.8721 -0.4947  3.5413
 2235SOL    HW3 8673   3.152   3.325   2.090 -1.6798  0.1599 -0.9318
 2235SOL    MW4 8674   3.182   3.263   2.037 -0.1373 -0.2170  0.0729
 2236SOL     OW 8675   5.102   2.682   3.882 -0.5008 -0.0204  0.3490
 2236SOL    HW2 8676   5.188   2.722   3.899 -0.8195 -0.0865  2.3036
 2236SOL    HW3 8677   5.047   2.755   3.855  0.1151  0.0434 -0.8026
 2236SOL    MW4 8678   5.106   2.697   3.881 -0.2315 -0.3720  0.3774
 2237SOL     OW 8679   0.667   3.871   1.239  0.1628 -0.3954 -0.1161
 2237SOL    HW2 8680   0.662   3.966   1.233 -0.1441 -0.4088 -0.0973
 2237SOL    HW3 8681   0.680   3.842   1.148 -0.7605 -0.3899 -0.2601
 2237SOL    MW4 8682   0.668   3.879   1.226 -0.7860 -0.2858 -0.5057
 2238SOL     OW 8683   3.623   5.529   0.790  0.2650 -0.2896  0.2032
 2238SOL    HW2 8684   3.595   5.619   0.775  0.7175 -0.2327 -0.3341
 2238SOL    HW3 8685   3.710   5.537   0.830 -0.9342 -0.4345  3.0563
 2238SOL    MW4 8686   3.631   5.542   0.794  0.1918  0.1674 -0.5464
 2239SOL     OW 8687   5.851   0.711   1.631 -0.8847 -0.0652 -0.4075
 2239SOL    HW2 8688   5.907   0.772   1.678 -0.7552 -0.0148 -0.6227
 2239SOL    HW3 8689   5.908   0.636   1.613 -0.1320  0.9440 -2.7149
 2239SOL    MW4 8690   5.866   0.709   1.634  0.4499  0.1165  0.3999
 2240SOL     OW 8691   6.010   5.417   3.703  0.4008  0.2921  0.2928
 2240SOL    HW2 8692   6.053   5.332   3.715  2.5833  0.9968 -1.7155
 2240SOL    HW3 8693   6.066   5.478   3.752 -0.6452  0.7272  0.9743
 2240SOL    MW4 8694   6.023   5.413   3.711 -0.1919 -0.0130  0.1877
 2241SOL     OW 8695   4.786   3.431   1.416  0.2885 -0.4396 -0.0247
 2241SOL    HW2 8696   4.795   3.405   1.324 -2.0661  0.1262 -0.4873
 2241SOL    HW3 8697   4.838   3.511   1.423 -0.9777  0.5690 -1.4095
 2241SOL    MW4 8698   4.794   3.438   1.405 -0.1252 -0.2192  0.1904
 2242SOL     OW 8699   3.770   1.735   1.977  0.3024 -0.2323 -0.3330
 2242SOL    HW2 8700   3.793   1.703   2.064  0.2339 -0.2199 -0.3102
 2242SOL    HW3 8701   3.683   1.699   1.961 -0.5198  1.3355  0.4029
 2242SOL    MW4 8702   3.762   1.726   1.986 -0.3257  0.3448  0.6701
 2243SOL     OW 8703   5.977   3.644   1.391 -0.1779  1.0199 -0.2500
 2243SOL    HW2 8704   6.000   3.639   1.298  0.3291 -0.0433 -0.0783
 2243SOL    HW3 8705   6.060   3.665   1.434  0.0638 -0.6713  0.1605
 2243SOL    MW4 8706   5.991   3.646   1.384 -0.2620  0.1229 -0.5620
 2244SOL     OW 8707   2.644   3.199   3.216  0.1114  0.4997 -0.0499
 2244SOL    HW2 8708   2.626   3.240   3.300 -3.0829 -0.9409  0.0983
 2244SOL    HW3 8709   2.737   3.217   3.200  0.0035  3.7352  2.1025
 2244SOL    MW4 8710   2.654   3.207   3.225 -0.5313 -0.0822  0.1749
 2245SOL     OW 8711   4.854   2.830   2.026  0.2443  0.4650 -0.0504
 2245SOL    HW2 8712   4.818   2.849   1.939  2.4396  2.0432 -0.6850
 2245SOL    HW3 8713   4.784   2.782   2.070 -1.1846  0.1521 -2.4525
 2245SOL    MW4 8714   4.840   2.826   2.020  0.4849  0.5912 -0.0238
 2246SOL     OW 8715   5.151   1.522   5.421 -0.2848 -0.0786 -0.2780
 2246SOL    HW2 8716   5.060   1.534   5.394 -0.2001 -0.1571 -0.5919
 2246SOL    HW3 8717   5.155   1.431   5.452 -0.4742  0.1248  0.3676
 2246SOL    MW4 8718   5.140   1.511   5.422  0.2572  0.4099  0.4825
 2247SOL     OW 8719   0.036   0.637   4.117 -0.3891  0.2604 -0.1505
 2247SOL    HW2 8720   0.083   0.623   4.034  0.9146 -1.0311  0.7672
 2247SOL    HW3 8721   0.104   0.638   4.183 -1.5152  0.1684  1.0437
 2247SOL    MW4 8722   0.051   0.636   4.115  0.6202  0.3023  0.2804
 2248SOL     OW 8723   0.022   2.199   0.997 -0.1997 -0.2691 -0.2332
 2248SOL    HW2 8724   0.101   2.246   0.970 -0.6826  0.9753  0.4260
 2248SOL    HW3 8725   0.045   2.106   0.989  1.6310  0.0521  0.7840
 2248SOL    MW4 8726   0.035   2.193   0.992  0.2398 -0.3060  1.0963
 2249SOL     OW 8727   6.344   1.703   3.424 -0.3895  0.2456  0.2539
 2249SOL    HW2 8728   6.257   1.742   3.429 -0.1121  1.1877 -1.6074
 2249SOL    HW3 8729   6.397   1.756   3.485 -0.9402  0.0911  0.8815
 2249SOL    MW4 8730   6.340   1.715   3.433 -0.0277  0.3972 -0.5875
 2250SOL     OW 8731   0.239   3.103   3.951 -0.3739  0.4787  0.2609
 2250SOL    HW2 8732   0.293   3.113   3.873  1.7384 -1.8793  1.2756
 2250SOL    HW3 8733   0.152   3.081   3.918 -0.0741  1.6312 -1.4112
 2250SOL    MW4 8734   0.235   3.102   3.936 -0.5800 -0.1732 -0.1491
 2251SOL     OW 8735   6.133   1.658   0.648  0.2538  0.1160 -0.0527
 2251SOL    HW2 8736   6.096   1.573   0.673 -1.4660  0.6314 -0.7100
 2251SOL    HW3 8737   6.107   1.671   0.557  1.7304  0.7203 -0.4162
 2251SOL    MW4 8738   6.125   1.649   0.640 -0.1868  0.3487  0.3447
 2252SOL     OW 8739   5.472   3.283   3.404 -0.1929  0.1211 -0.1806
 2252SOL    HW2 8740   5.434   3.195   3.405  0.9322 -0.4396  2.5306
 2252SOL    HW3 8741   5.407   3.338   3.448  0.7880 -0.2470  1.8241
 2252SOL    MW4 8742   5.458   3.279   3.410  0.0014  1.0914 -0.1363
 2253SOL     OW 8743   2.753   6.343   0.134 -0.3483  0.0042  0.2269
 2253SOL    HW2 8744   2.844   6.346   0.105 -0.1736 -0.0574  0.7607
 2253SOL    HW3 8745   2.729   6.251   0.127 -0.5039  0.0851 -0.3194
 2253SOL    MW4 8746   2.762   6.331   0.130  0.3528 -0.8262 -0.3348
 2254SOL     OW 8747   0.433   0.586   5.643  0.3123 -0.1178 -0.2076
 2254SOL    HW2 8748   0.508   0.531   5.624  2.4242  2.1765  0.9300
 2254SOL    HW3 8749   0.436   0.655   5.576 -1.2477 -0.3649 -0.5773
 2254SOL    MW4 8750   0.443   0.588   5.631  0.4459  0.0974 -0.9097
 2255SOL     OW 8751   3.202   1.425   4.054  0.2399  0.0147 -0.5053
 2255SOL    HW2 8752   3.196   1.329   4.059 -0.8508  0.0776 -0.4089
 2255SOL    HW3 8753   3.160   1.447   3.971  0.7356  0.3967 -0.6603
 2255SOL    MW4 8754   3.196   1.415   4.043 -0.2998 -0.1362 -0.8971
 2256SOL     OW 8755   0.415   1.295   4.719 -0.1891  0.1605  0.7335
 2256SOL    HW2 8756   0.449   1.206   4.709 -0.2848  0.0521  1.3177
 2256SOL    HW3 8757   0.493   1.350   4.726 -0.1284  0.1381  0.3003
 2256SOL    MW4 8758   0.430   1.290   4.718 -0.2936  0.6688  0.1903
 2257SOL     OW 8759   3.958   4.253   4.881  0.0391 -0.4721 -0.1716
 2257SOL    HW2 8760   3.981   4.340   4.848 -1.1008 -0.1014 -0.0444
 2257SOL    HW3 8761   4.020   4.194   4.838 -0.0490  0.2410 -1.3462
 2257SOL    MW4 8762   3.969   4.257   4.871  0.0838  0.1158  0.5716
 2258SOL     OW 8763   4.923   4.627   4.312  0.0271 -0.2655  0.7846
 2258SOL    HW2 8764   4.908   4.592   4.399 -0.2135  3.0638  2.2522
 2258SOL    HW3 8765   4.843   4.605   4.263 -0.3865 -1.0973  1.8058
 2258SOL    MW4 8766   4.910   4.620   4.317 -0.2164  0.0004 -0.4327
 2259SOL     OW 8767   3.712   5.878   4.819 -1.0767 -0.1438  0.0177
 2259SOL    HW2 8768   3.804   5.904   4.811 -1.2988  1.6784  2.2056
 2259SOL    HW3 8769   3.701   5.808   4.755  1.4880  0.4524 -1.2133
 2259SOL    MW4 8770   3.723   5.872   4.810  0.2837  0.0491  0.7262
 2260SOL     OW 8771   2.480   2.966   6.333 -0.3356 -0.3926 -0.2465
 2260SOL    HW2 8772   2.561   2.919   6.313  0.4157  0.6377  0.2801
 2260SOL    HW3 8773   2.411   2.899   6.327  0.7271 -1.6430  0.8742
 2260SOL    MW4 8774   2.481   2.951   6.330 -0.0725  0.6305 -0.1448
 2261SOL     OW 8775   0.195   1.598   0.966 -0.5597  0.4200  0.2370
 2261SOL    HW2 8776   0.123   1.570   0.910  0.6907 -1.6088 -0.4582
 2261SOL    HW3 8777   0.154   1.610   1.052 -2.0241  1.0260 -0.5122
 2261SOL    MW4 8778   0.180   1.596   0.970 -0.1099 -0.0349 -0.1654
 2262SOL     OW 8779   5.490   3.608   2.140 -0.1735 -0.3249 -0.7178
 2262SOL    HW2 8780   5.450   3.611   2.227  1.6109  0.0934  0.1340
 2262SOL    HW3 8781   5.526   3.519   2.133  0.1551 -0.1871 -0.8026
 2262SOL    MW4 8782   5.490   3.597   2.151 -0.1497  0.1452 -0.3308
 2263SOL     OW 8783   1.379   2.781   4.501 -0.3314 -0.3263  0.0235
 2263SOL    HW2 8784   1.407   2.807   4.588 -0.1595 -1.2817  0.2665
 2263SOL    HW3 8785   1.342   2.860   4.462  1.5042  0.6718  0.1782
 2263SOL    MW4 8786   1.378   2.795   4.507 -0.4319 -0.2327 -0.6059
 2264SOL     OW 8787   4.279   4.847   1.398 -0.1745 -0.0563 -0.1119
 2264SOL    HW2 8788   4.327   4.860   1.316  0.8514  0.7630  0.6041
 2264SOL    HW3 8789   4.339   4.876   1.466 -0.5754 -1.8029  1.0454
 2264SOL    MW4 8790   4.293   4.853   1.396  0.4979  0.7982  0.3021
 2265SOL     OW 8791   0.630   5.559   2.987  0.1606  0.1943 -0.0493
 2265SOL    HW2 8792   0.722   5.564   3.013  0.2215  0.0641 -0.2362
 2265SOL    HW3 8793   0.620   5.470   2.952 -0.1699  0.0148  0.4778
 2265SOL    MW4 8794   0.641   5.548   2.986  0.0395  0.3971  0.3530
 2266SOL     OW 8795   4.798   3.275   1.150  0.5324 -0.0282  0.1791
 2266SOL    HW2 8796   4.888   3.267   1.119  0.5030  1.7463 -0.4748
 2266SOL    HW3 8797   4.782   3.194   1.199  1.7709 -1.3241 -1.4301
 2266SOL    MW4 8798   4.807   3.263   1.152 -0.0150  0.2569  0.0580
 2267SOL     OW 8799   5.369   5.373   0.006  0.3443 -0.5491 -0.2950
 2267SOL    HW2 8800   5.311   5.405  -0.063 -1.0489 -0.4266  0.8950
 2267SOL    HW3 8801   5.446   5.429   0.000 -0.6188  0.7964 -0.4387
 2267SOL    MW4 8802   5.372   5.385  -0.004  0.3385 -0.0716  0.3261
 2268SOL     OW 8803   0.704   3.277   0.869 -0.3618  0.2209  0.3560
 2268SOL    HW2 8804   0.729   3.347   0.929 -0.1774  0.8650 -0.4544
 2268SOL    HW3 8805   0.737   3.305   0.783 -0.0638 -0.9711  0.0562
 2268SOL    MW4 8806   0.712   3.290   0.865 -0.6986 -0.3531 -0.4237
 2269SOL     OW 8807   0.538   5.021   4.101  0.0527 -0.3008  0.0080
 2269SOL    HW2 8808   0.574   5.010   4.013  0.2004  0.9455 -0.1119
 2269SOL    HW3 8809   0.533   5.116   4.113 -2.9236 -0.3835  0.1402
 2269SOL    MW4 8810   0.542   5.032   4.091  0.5439 -0.3086 -0.0367
 2270SOL     OW 8811   6.112   2.085   5.422 -0.0222  0.2342 -0.0838
 2270SOL    HW2 8812   6.149   2.164   5.460  0.8537 -0.1720 -0.0503
 2270SOL    HW3 8813   6.166   2.068   5.344  0.6236 -1.0079  0.5999
 2270SOL    MW4 8814   6.124   2.093   5.417 -0.1340  0.2211 -0.1562
 2271SOL     OW 8815   5.700   1.455   3.110 -0.1198  0.2139 -0.3297
 2271SOL    HW2 8816   5.686   1.361   3.104  0.9210 -0.1790  2.2188
 2271SOL    HW3 8817   5.763   1.474   3.040 -0.2398 -0.9814 -0.7889
 2271SOL    MW4 8818   5.707   1.445   3.100  0.2085 -0.1875 -0.0153
 2272SOL     OW 8819   4.835   5.187   2.435  0.0121  0.1193  0.1344
 2272SOL    HW2 8820   4.785   5.138   2.500  0.1519 -0.0540  0.1112
 2272SOL    HW3 8821   4.910   5.131   2.415  1.1137  1.0711  1.3830
 2272SOL    MW4 8822   4.838   5.173   2.441  0.2125 -0.1530 -0.0245
 2273SOL     OW 8823   5.911   0.749   2.490 -0.4849 -0.8807 -0.5155
 2273SOL    HW2 8824   5.981   0.689   2.515  0.7316  0.7062  0.0074
 2273SOL    HW3 8825   5.925   0.765   2.397  0.7992  0.5662 -0.1149
 2273SOL    MW4 8826   5.922   0.743   2.481 -0.3340 -0.1365 -0.9723
 2274SOL     OW 8827   3.030   4.242   0.660 -0.3096  0.1476  0.0929
 2274SOL    HW2 8828   2.935   4.254   0.654 -0.5674 -1.8772 -0.4456
 2274SOL    HW3 8829   3.043   4.197   0.743 -0.0199 -1.1551 -0.6400
 2274SOL    MW4 8830   3.019   4.238   0.670  0.1361 -0.2428  0.2829
 2275SOL     OW 8831   0.827   2.631   3.803  0.2327  0.6310  0.0258
 2275SOL    HW2 8832   0.830   2.605   3.895 -0.9223 -0.7955 -0.2956
 2275SOL    HW3 8833   0.739   2.668   3.792  0.0202 -0.0823 -0.7158
 2275SOL    MW4 8834   0.816   2.633   3.814 -0.1711 -0.7795  0.2529
 2276SOL     OW 8835   2.886   4.845   5.188  0.3014 -0.1420 -0.0144
 2276SOL    HW2 8836   2.946   4.877   5.121  0.4729 -2.4064 -1.0647
 2276SOL    HW3 8837   2.880   4.916   5.252  2.3541  1.0024 -0.9960
 2276SOL    MW4 8838   2.893   4.858   5.188  0.2034  0.9274 -0.2254
 2277SOL     OW 8839   2.263   3.487   0.681 -0.1364  0.1422  0.4640
 2277SOL    HW2 8840   2.305   3.441   0.754  0.8163  0.9874  0.4690
 2277SOL    HW3 8841   2.321   3.472   0.606  0.9210  2.3568  0.7490
 2277SOL    MW4 8842   2.276   3.479   0.681 -0.2628 -0.1847  0.2506
 2278SOL     OW 8843   2.745   2.127   2.145  0.0666  0.3214 -0.2944
 2278SOL    HW2 8844   2.794   2.135   2.063  0.5480  1.5252  0.0935
 2278SOL    HW3 8845   2.798   2.174   2.210 -0.4749 -0.3160  0.6421
 2278SOL    MW4 8846   2.758   2.134   2.143  0.2437 -0.5236  0.3153
 2279SOL     OW 8847   1.466   3.431   0.548  0.2716 -0.2597 -0.3118
 2279SOL    HW2 8848   1.430   3.488   0.480 -1.6820 -1.1617 -0.1086
 2279SOL    HW3 8849   1.481   3.347   0.503 -2.4244 -1.3299  0.5646
 2279SOL    MW4 8850   1.464   3.427   0.533  0.1749  0.0206  0.3900
 2280SOL     OW 8851   4.624   2.508   3.255 -0.0371  0.1605 -0.5466
 2280SOL    HW2 8852   4.565   2.525   3.181  0.4151  0.4784 -0.8440
 2280SOL    HW3 8853   4.586   2.433   3.300 -0.6982  0.4023 -0.6974
 2280SOL    MW4 8854   4.611   2.500   3.251 -0.8710 -0.2766  0.1415
 2281SOL     OW 8855   5.935   2.610   0.557 -0.2136 -0.2206 -0.2136
 2281SOL    HW2 8856   5.950   2.567   0.641 -1.2421 -2.1594 -0.9567
 2281SOL    HW3 8857   5.994   2.565   0.496 -1.9406 -1.2916 -1.1869
 2281SOL    MW4 8858   5.945   2.598   0.560  0.6819  0.2835 -0.6809
 2282SOL     OW 8859   3.943   1.639   1.032 -0.2743 -0.7986 -0.4455
 2282SOL    HW2 8860   3.884   1.578   1.077 -0.2692  0.6319  1.6284
 2282SOL    HW3 8861   3.899   1.723   1.037  0.3132 -0.3601 -2.1179
 2282SOL    MW4 8862   3.929   1.642   1.039 -0.4626  0.3442  0.4492
 2283SOL     OW 8863   3.025   5.589   1.984 -0.5071  0.6988  0.5954
 2283SOL    HW2 8864   2.950   5.539   2.017  1.2953 -1.7311  1.3022
 2283SOL    HW3 8865   3.025   5.669   2.037 -1.3897 -0.2271  2.0680
 2283SOL    MW4 8866   3.015   5.593   1.996 -0.0948 -0.3412  0.2496
 2284SOL     OW 8867   1.210   6.279   1.406  0.1678  0.8922  0.6125
 2284SOL    HW2 8868   1.303   6.286   1.383  0.2599  1.9468  1.2248
 2284SOL    HW3 8869   1.208   6.284   1.502 -0.4627  0.0071  0.6581
 2284SOL    MW4 8870   1.222   6.281   1.416 -0.3901 -0.3473 -0.4404
 2285SOL     OW 8871   6.077   6.002   4.045  0.3954 -0.0617  0.0607
 2285SOL    HW2 8872   6.112   5.932   4.101 -0.2093 -1.6942 -1.4806
 2285SOL    HW3 8873   6.155   6.041   4.004  0.8325  1.0886  1.8961
 2285SOL    MW4 8874   6.092   5.998   4.047  0.4594  0.4712  0.4216
 2286SOL     OW 8875   1.336   0.278   0.972 -0.0380  0.2360  0.5044
 2286SOL    HW2 8876   1.269   0.257   0.907  0.2450 -0.5875  0.4648
 2286SOL    HW3 8877   1.314   0.366   1.002 -0.4007  0.4681 -0.4205
 2286SOL    MW4 8878   1.324   0.287   0.967 -0.0606  0.4999  0.5997
 2287SOL     OW 8879   1.428   3.612   0.325 -0.6586 -0.2703  0.1172
 2287SOL    HW2 8880   1.414   3.700   0.360 -1.0224 -0.6374  0.9169
 2287SOL    HW3 8881   1.371   3.608   0.248 -0.5208  0.2408 -0.0175
 2287SOL    MW4 8882   1.419   3.623   0.319  0.1833 -0.1248 -0.3265
 2288SOL     OW 8883   3.094   0.111   2.978 -0.4375 -0.1449 -0.5817
 2288SOL    HW2 8884   3.147   0.122   2.900 -0.2728 -1.9233 -0.7592
 2288SOL    HW3 8885   3.036   0.188   2.979  0.5679  0.6488 -1.6179
 2288SOL    MW4 8886   3.093   0.123   2.968 -0.2115  0.2875  0.1515
 2289SOL     OW 8887   2.621   3.066   0.745 -0.0702 -0.0002 -0.0782
 2289SOL    HW2 8888   2.629   3.009   0.668 -1.3079 -2.3452  1.4218
 2289SOL    HW3 8889   2.709   3.102   0.758  1.1013 -2.5426 -0.4244
 2289SOL    MW4 8890   2.633   3.063   0.736 -0.2277 -0.0433  0.5069
 2290SOL     OW 8891   0.253   4.091   5.223  0.2419 -0.0682 -0.5227
 2290SOL    HW2 8892   0.307   4.118   5.149  0.3164  1.1889 -0.0417
 2290SOL    HW3 8893   0.175   4.052   5.184  0.2770  0.5811 -1.2675
 2290SOL    MW4 8894   0.250   4.089   5.208  0.1042 -0.0214  0.2340
 2291SOL     OW 8895   5.520   4.261   0.127  0.4244  0.2365  0.6270
 2291SOL    HW2 8896   5.486   4.205   0.057 -3.2481  0.5874  1.8833
 2291SOL    HW3 8897   5.500   4.350   0.098  2.8253  0.7365  0.3067
 2291SOL    MW4 8898   5.513   4.266   0.114  0.1753 -0.1586  0.0183
 2292SOL     OW 8899   5.272   5.748   3.155 -0.2660  0.0930  0.1425
 2292SOL    HW2 8900   5.333   5.679   3.130 -0.1022 -0.1414  1.1362
 2292SOL    HW3 8901   5.294   5.822   3.098 -0.4921 -0.6803 -0.9742
 2292SOL    MW4 8902   5.283   5.749   3.144  0.1134 -0.1046  0.7208
 2293SOL     OW 8903   3.424   0.778   4.130 -0.4140  0.2974  0.7844
 2293SOL    HW2 8904   3.516   0.783   4.153 -0.5578  0.6400  1.3115
 2293SOL    HW3 8905   3.410   0.848   4.067  0.1861 -1.2195 -1.1456
 2293SOL    MW4 8906   3.434   0.788   4.125 -0.2219 -0.1865 -0.7390
 2294SOL     OW 8907   4.983   5.734   3.175  0.4142 -0.6969 -0.2174
 2294SOL    HW2 8908   4.947   5.735   3.264 -0.2527 -0.1283 -0.4895
 2294SOL    HW3 8909   5.072   5.769   3.185 -0.1169  0.6381  0.0370
 2294SOL    MW4 8910   4.990   5.739   3.188 -0.2769  0.7132  0.4838
 2295SOL     OW 8911   1.930   4.382   3.425  0.6049 -0.1013  0.1161
 2295SOL    HW2 8912   2.000   4.379   3.359  0.3146 -0.1092 -0.1937
 2295SOL    HW3 8913   1.946   4.462   3.475  0.8424 -0.1100  0.0532
 2295SOL    MW4 8914   1.941   4.392   3.423  0.3252 -0.5987  0.0510
 2296SOL     OW 8915   1.810   0.381   3.829  0.0472 -0.1016  0.1804
 2296SOL    HW2 8916   1.837   0.291   3.849 -2.5845 -0.9224  0.3654
 2296SOL    HW3 8917   1.799   0.422   3.914 -0.3283 -0.1248  0.1449
 2296SOL    MW4 8918   1.812   0.374   3.843 -0.0125 -0.1049 -0.3747
 2297SOL     OW 8919   5.870   6.401   4.820  0.3530 -0.4500  0.1575
 2297SOL    HW2 8920   5.877   6.386   4.726  2.9110  0.0155  0.2127
 2297SOL    HW3 8921   5.955   6.373   4.855 -0.0011  0.7839  2.1279
 2297SOL    MW4 8922   5.882   6.395   4.812  0.7110 -0.4828  0.2966
 2298SOL     OW 8923   1.991   2.497   5.708 -0.2718 -0.3142  0.3004
 2298SOL    HW2 8924   2.049   2.477   5.781  0.1352 -0.6556 -0.1041
 2298SOL    HW3 8925   1.919   2.546   5.746  0.3119  0.1600  0.8088
 2298SOL    MW4 8926   1.989   2.501   5.723  0.2342  0.3510  0.6688
 2299SOL     OW 8927   2.239   0.368   4.709 -0.3504 -0.1291  0.1324
 2299SOL    HW2 8928   2.281   0.448   4.676  0.7321 -0.6357  0.2346
 2299SOL    HW3 8929   2.145   0.386   4.703 -0.1494  1.6076  1.2295
 2299SOL    MW4 8930   2.232   0.381   4.704  0.1273  0.4909 -0.1299
 2300SOL     OW 8931   5.895   1.234   2.754 -0.2652 -0.0008 -0.7584
 2300SOL    HW2 8932   5.873   1.297   2.823  0.4885 -0.9548  0.3965
 2300SOL    HW3 8933   5.971   1.273   2.710 -1.0546  0.8535 -1.4186
 2300SOL    MW4 8934   5.902   1.248   2.758 -0.2333  0.1599 -0.4916
 2301SOL     OW 8935   0.505   3.673   4.156  0.3450 -0.2661  0.0240
 2301SOL    HW2 8936   0.446   3.644   4.226 -0.7263 -1.6828 -1.3982
 2301SOL    HW3 8937   0.473   3.761   4.133  1.8769  1.0354  2.4851
 2301SOL    MW4 8938   0.493   3.681   4.162  0.3465 -0.2389 -0.1316
 2302SOL     OW 8939   1.803   4.784   3.232  0.3915  0.3666  0.4045
 2302SOL    HW2 8940   1.759   4.700   3.249 -0.7935  0.7716 -0.4849
 2302SOL    HW3 8941   1.778   4.840   3.305  1.4855 -0.1279  1.1978
 2302SOL    MW4 8942   1.794   4.780   3.244  0.5191  0.3052 -0.2262
 2303SOL     OW 8943   5.463   2.406   5.744  0.5074  0.1248  0.4640
 2303SOL    HW2 8944   5.506   2.320   5.740 -0.1259 -0.2342  0.9736
 2303SOL    HW3 8945   5.509   2.459   5.680  1.0716 -0.5290  0.3087
 2303SOL    MW4 8946   5.475   2.401   5.735 -0.3014 -0.1419  0.1557
 2304SOL     OW 8947   2.370   3.583   5.333 -0.4982 -0.5634 -0.6827
 2304SOL    HW2 8948   2.334   3.663   5.370 -0.3829  0.1594 -2.0695
 2304SOL    HW3 8949   2.306   3.555   5.268 -0.0122 -0.9638 -1.0042
 2304SOL    MW4 8950   2.357   3.590   5.329 -0.2727  0.7465  0.8585
 2305SOL     OW 8951   2.842   3.645   4.410 -0.8617 -0.4812 -0.0469
 2305SOL    HW2 8952   2.798   3.686   4.484  0.1330  0.0172  0.2850
 2305SOL    HW3 8953   2.921   3.606   4.448 -1.7882 -2.7979 -0.3278
 2305SOL    MW4 8954   2.847   3.645   4.425  0.2152  0.1910  0.3671
 2306SOL     OW 8955   1.346   1.485   3.852  0.4330 -0.5865  0.0937
 2306SOL    HW2 8956   1.277   1.535   3.809  0.3271 -0.9865 -0.2085
 2306SOL    HW3 8957   1.384   1.431   3.783  1.3876 -0.0169  0.1442
 2306SOL    MW4 8958   1.342   1.484   3.837 -0.2086  0.0880  0.1056
 2307SOL     OW 8959   5.300   3.324   4.035  0.4396  0.3621 -0.4561
 2307SOL    HW2 8960   5.348   3.394   4.078  2.1988 -0.7584 -0.4839
 2307SOL    HW3 8961   5.358   3.247   4.043 -2.0366 -1.5038  0.9325
 2307SOL    MW4 8962   5.314   3.323   4.042  0.1803  0.9519 -0.6117
 2308SOL     OW 8963   0.072   0.697   3.576 -0.5504  0.1353 -0.3704
 2308SOL    HW2 8964   0.031   0.762   3.633  0.3980  1.1469 -0.8042
 2308SOL    HW3 8965   0.108   0.749   3.504  1.2109 -0.7446 -0.1521
 2308SOL    MW4 8966   0.071   0.713   3.574  0.7459 -0.9581  0.5563
 2309SOL     OW 8967   2.215   3.234   1.839 -0.0228  0.3555  0.3249
 2309SOL    HW2 8968   2.274   3.310   1.842  1.7986 -1.0015  0.4192
 2309SOL    HW3 8969   2.154   3.248   1.910  0.7959  1.3517  0.8544
 2309SOL    MW4 8970   2.215   3.246   1.849 -0.5100 -0.0241  0.1489
 2310SOL     OW 8971   3.565   3.997   4.229  0.0246 -0.3824 -0.2615
 2310SOL    HW2 8972   3.555   3.914   4.184 -0.9877 -1.2573  1.4776
 2310SOL    HW3 8973   3.659   4.005   4.244  0.1510 -1.1170 -0.6225
 2310SOL    MW4 8974   3.576   3.987   4.225  0.4587 -0.0070 -0.2274
 2311SOL     OW 8975   6.093   2.308   5.867 -0.1844 -0.3721  0.0024
 2311SOL    HW2 8976   5.998   2.302   5.863 -0.2216 -0.2237  0.5163
 2311SOL    HW3 8977   6.112   2.400   5.847 -0.2222 -0.1747  0.8018
 2311SOL    MW4 8978   6.083   2.319   5.864  0.0963 -0.3955 -0.2244
 2312SOL     OW 8979   0.711   0.961   3.278 -0.5406  0.2310 -0.3322
 2312SOL    HW2 8980   0.754   0.970   3.193  0.3672 -0.4473  0.0402
 2312SOL    HW3 8981   0.657   1.039   3.286  0.3319  0.9188 -0.9916
 2312SOL    MW4 8982   0.710   0.972   3.268 -0.0035  0.7523  0.2783
 2313SOL     OW 8983   0.918   0.976   2.010 -0.0776  0.1172  0.0827
 2313SOL    HW2 8984   0.899   1.026   2.089  1.3389  0.8603 -0.0250
 2313SOL    HW3 8985   0.974   1.033   1.957  1.0915 -1.3283 -0.3167
 2313SOL    MW4 8986   0.923   0.990   2.013  0.0394  0.3310 -0.1023
 2314SOL     OW 8987   0.840   0.734   2.904 -0.4121  0.2475 -0.1252
 2314SOL    HW2 8988   0.762   0.677   2.904 -0.4933  0.3605 -0.5379
 2314SOL    HW3 8989   0.896   0.696   2.972  0.7840 -2.0482 -2.2488
 2314SOL    MW4 8990   0.837   0.721   2.913  0.3884  0.2615 -0.0523
 2315SOL     OW 8991   0.745   5.347   2.087 -0.6566 -0.3544  0.3896
 2315SOL    HW2 8992   0.815   5.358   2.022 -1.0561 -0.5600 -0.0885
 2315SOL    HW3 8993   0.779   5.282   2.148 -0.7704 -1.1203 -0.3401
 2315SOL    MW4 8994   0.759   5.340   2.086  0.1107  0.0956 -0.1163
 2316SOL     OW 8995   0.160   2.212   0.085  0.1905 -0.3940 -0.0305
 2316SOL    HW2 8996   0.077   2.164   0.087 -0.1821 -0.1024 -3.1681
 2316SOL    HW3 8997   0.143   2.287   0.028  2.3380  0.2692  0.1064
 2316SOL    MW4 8998   0.147   2.216   0.078  0.0721  0.3699 -0.6718
 2317SOL     OW 8999   2.614   0.043   6.362  0.5053  0.0241 -0.3068
 2317SOL    HW2 9000   2.651  -0.003   6.437 -1.0684 -0.5958  0.1303
 2317SOL    HW3 9001   2.630  -0.015   6.287 -1.3261 -1.2589  0.2128
 2317SOL    MW4 9002   2.621   0.029   6.362 -0.0221  0.3549  0.5007
 2318SOL     OW 9003   6.145   0.746   3.853  0.5712 -0.6500  0.1021
 2318SOL    HW2 9004   6.091   0.706   3.920  0.3994  0.3918  0.6052
 2318SOL    HW3 9005   6.089   0.751   3.775 -0.8547  2.2935  1.1737
 2318SOL    MW4 9006   6.131   0.741   3.851 -0.1692  0.3164 -0.1561
 2319SOL     OW 9007   5.744   1.778   5.515 -0.0435  0.4032 -0.7634
 2319SOL    HW2 9008   5.796   1.707   5.553 -0.5971  0.0803 -0.5881
 2319SOL    HW3 9009   5.772   1.782   5.424 -0.5764 -0.5961 -0.9902
 2319SOL    MW4 9010   5.754   1.769   5.508  0.4206  0.3387  0.0113
 2320SOL     OW 9011   0.780   3.340   1.777 -0.2825 -0.3218 -0.0113
 2320SOL    HW2 9012   0.863   3.351   1.731 -0.0686  1.4834  0.7332
 2320SOL    HW3 9013   0.805   3.328   1.869 -0.8508  1.6602  0.4392
 2320SOL    MW4 9014   0.794   3.340   1.783  0.0427  0.6930  0.6496
 2321SOL     OW 9015   3.896   2.363   4.861  0.0278 -0.3622 -0.0880
 2321SOL    HW2 9016   3.913   2.280   4.817  0.4343 -0.7079  0.7000
 2321SOL    HW3 9017   3.936   2.429   4.804  1.2966 -0.8814  0.1698
 2321SOL    MW4 9018   3.904   2.361   4.848 -0.0647  0.5404  0.5072
 2322SOL     OW 9019   0.289   6.149   5.540  0.1577  0.5808 -0.5140
 2322SOL    HW2 9020   0.279   6.237   5.579  2.0262  0.9052 -0.6855
 2322SOL    HW3 9021   0.319   6.094   5.613 -0.5122  0.1771 -0.5307
 2322SOL    MW4 9022   0.291   6.154   5.555  0.3957  0.5720  0.3795
 2323SOL     OW 9023   6.006   5.581   0.002  0.1870 -0.2654  0.3688
 2323SOL    HW2 9024   5.973   5.663   0.037 -1.2998 -0.3155 -0.7857
 2323SOL    HW3 9025   5.987   5.516   0.070 -1.0133 -0.0707  0.2381
 2323SOL    MW4 9026   5.999   5.583   0.016  0.1847 -0.1193 -0.1623
 2324SOL     OW 9027   3.591   0.223   2.908 -0.0060  0.4345  0.2675
 2324SOL    HW2 9028   3.598   0.288   2.838 -0.9921 -1.0455 -1.2851
 2324SOL    HW3 9029   3.666   0.165   2.894 -0.9029 -0.6092 -0.4214
 2324SOL    MW4 9030   3.602   0.224   2.897 -0.7191  0.1448 -0.0858
 2325SOL     OW 9031   6.242   3.179   5.103 -0.6637 -0.0498 -0.4384
 2325SOL    HW2 9032   6.280   3.209   5.185 -1.4469 -2.9570  1.1272
 2325SOL    HW3 9033   6.147   3.184   5.118 -0.8369 -2.5259 -0.2711
 2325SOL    MW4 9034   6.234   3.184   5.116  0.8972  0.8062 -0.3959
 2326SOL     OW 9035   4.627   5.380   4.812  0.0231 -0.7099  0.0558
 2326SOL    HW2 9036   4.576   5.375   4.731 -0.5437 -1.5019  0.4610
 2326SOL    HW3 9037   4.703   5.433   4.788  0.4357 -1.8666 -1.3084
 2326SOL    MW4 9038   4.630   5.386   4.798  0.3460 -0.1448 -0.7789
 2327SOL     OW 9039   3.986   5.329   3.611  0.1226 -0.6394  0.2537
 2327SOL    HW2 9040   3.952   5.285   3.533 -0.9765  0.7563 -0.1020
 2327SOL    HW3 9041   3.916   5.320   3.676 -0.5107  1.2445 -0.0996
 2327SOL    MW4 9042   3.972   5.322   3.609 -0.5847 -0.6014  0.2244
 2328SOL     OW 9043   6.382   4.569   5.072  0.2674  0.0837  0.3334
 2328SOL    HW2 9044   6.461   4.520   5.094  0.3853  0.5366  0.9456
 2328SOL    HW3 9045   6.316   4.536   5.133 -1.1316 -3.0422 -2.5712
 2328SOL    MW4 9046   6.384   4.558   5.083 -0.4356 -0.9243  0.3654
 2329SOL     OW 9047   0.225   2.668   5.799  0.1501  0.5934 -0.0955
 2329SOL    HW2 9048   0.287   2.670   5.726  0.1132  0.0388 -0.1472
 2329SOL    HW3 9049   0.265   2.722   5.866 -0.5245  2.3943 -1.0875
 2329SOL    MW4 9050   0.238   2.675   5.798  0.9112  0.2572  0.1041
 2330SOL     OW 9051   5.437   4.698   4.726 -0.6514  0.0115  0.3590
 2330SOL    HW2 9052   5.443   4.791   4.707  0.9665 -0.4154 -1.5919
 2330SOL    HW3 9053   5.381   4.663   4.657 -1.3980 -0.4559  1.1820
 2330SOL    MW4 9054   5.431   4.706   4.714  0.5361 -0.3789  0.3089
 2331SOL     OW 9055   0.389   3.334   0.590  0.4949 -0.0017 -0.4008
 2331SOL    HW2 9056   0.321   3.391   0.627 -1.5835 -3.0344  0.8841
 2331SOL    HW3 9057   0.397   3.361   0.499 -1.6127  1.2201 -0.2822
 2331SOL    MW4 9058   0.381   3.345   0.583  0.3015 -0.0351 -0.0187
 2332SOL     OW 9059   1.147   4.565   1.754 -0.3013 -0.6767  0.0806
 2332SOL    HW2 9060   1.101   4.481   1.745 -1.0076 -0.7519  3.2174
 2332SOL    HW3 9061   1.206   4.551   1.828 -0.0951  1.4458  0.3588
 2332SOL    MW4 9062   1.149   4.552   1.763  0.2530 -1.0502  0.1507
 2333SOL     OW 9063   3.550   2.748   4.175 -0.1126 -0.1195  0.3653
 2333SOL    HW2 9064   3.643   2.749   4.193  0.0277  1.0829 -0.2990
 2333SOL    HW3 9065   3.513   2.691   4.242  1.0933 -0.6284  0.6202
 2333SOL    MW4 9066   3.557   2.741   4.186  0.0329 -0.4068  0.7656
 2334SOL     OW 9067   4.873   5.526   4.733  0.1204 -0.6539  0.5628
 2334SOL    HW2 9068   4.932   5.596   4.761  2.2272 -2.1648  0.1374
 2334SOL    HW3 9069   4.929   5.465   4.686 -2.3277 -0.7455 -2.5574
 2334SOL    MW4 9070   4.888   5.528   4.730  0.1615 -0.3738 -0.4620
 2335SOL     OW 9071   1.992   3.455   2.558 -0.1080  0.0602  0.0451
 2335SOL    HW2 9072   1.974   3.432   2.649 -1.4031  0.1230 -0.1637
 2335SOL    HW3 9073   1.941   3.535   2.544  1.1281  0.7910 -0.3712
 2335SOL    MW4 9074   1.983   3.462   2.568  0.0365  0.3338 -0.0501
 2336SOL     OW 9075   2.791   2.219   5.988 -0.1064  0.1790  0.0110
 2336SOL    HW2 9076   2.722   2.201   6.052 -0.5952 -0.5663 -0.7020
 2336SOL    HW3 9077   2.866   2.245   6.041 -0.6846  0.1887  0.8507
 2336SOL    MW4 9078   2.791   2.220   6.004  0.5956  0.1672  0.7866
 2337SOL     OW 9079   2.646   3.668   0.547 -0.0061  0.1319  0.3815
 2337SOL    HW2 9080   2.573   3.727   0.565  0.9603  1.0094  1.6044
 2337SOL    HW3 9081   2.721   3.726   0.538  0.2804 -0.5286 -3.0062
 2337SOL    MW4 9082   2.646   3.684   0.548 -0.1547 -0.1467 -0.2035
 2338SOL     OW 9083   6.350   1.343   4.658  0.2331  0.0826  0.2027
 2338SOL    HW2 9084   6.319   1.426   4.695  0.0383 -0.0463  0.3337
 2338SOL    HW3 9085   6.436   1.330   4.698  0.9079  0.9364 -0.9238
 2338SOL    MW4 9086   6.357   1.352   4.668 -0.0956 -0.1819  0.0891
 2339SOL     OW 9087   1.065   1.810   3.540  0.0263 -0.2844 -0.4893
 2339SOL    HW2 9088   1.015   1.885   3.571  0.3700 -0.5058  0.6503
 2339SOL    HW3 9089   1.143   1.849   3.500 -0.4629  0.0108 -1.1728
 2339SOL    MW4 9090   1.069   1.825   3.539 -0.6499 -0.3663  0.0615
 2340SOL     OW 9091   0.015   2.789   1.849 -0.3226  0.4036  0.3507
 2340SOL    HW2 9092  -0.024   2.873   1.875  1.3043  0.7987  1.6455
 2340SOL    HW3 9093   0.109   2.800   1.864 -0.2657 -2.5454  3.1840
 2340SOL    MW4 9094   0.022   2.802   1.854 -0.0659 -0.1536  0.2196
 2341SOL     OW 9095   1.833   0.405   2.450  0.3240  0.3433 -0.2567
 2341SOL    HW2 9096   1.802   0.349   2.521 -0.0514  1.5144  0.5348
 2341SOL    HW3 9097   1.766   0.397   2.382  0.3228 -0.2290 -0.1945
 2341SOL    MW4 9098   1.820   0.397   2.450 -0.2713 -0.1489 -0.3354
 2342SOL     OW 9099   5.427   5.584   5.158 -0.1511 -0.0558 -0.0916
 2342SOL    HW2 9100   5.419   5.489   5.166 -1.3441 -0.0681 -1.1379
 2342SOL    HW3 9101   5.450   5.614   5.247 -0.3648 -1.2550  0.3835
 2342SOL    MW4 9102   5.429   5.576   5.171  0.4991 -0.0764  0.1630
 2343SOL     OW 9103   0.106   0.770   1.351  0.9450  0.8368 -0.6318
 2343SOL    HW2 9104   0.075   0.845   1.300  0.1630  1.0509  0.1300
 2343SOL    HW3 9105   0.097   0.798   1.442 -0.6695 -0.6632 -0.2862
 2343SOL    MW4 9106   0.101   0.784   1.356  0.3279  0.4656  0.0501
 2344SOL     OW 9107   4.070   2.135   2.609 -0.3437  0.3319 -0.1672
 2344SOL    HW2 9108   4.125   2.061   2.584 -2.8874 -2.2454  1.2165
 2344SOL    HW3 9109   4.084   2.200   2.540  1.6153 -1.6535 -1.7821
 2344SOL    MW4 9110   4.079   2.134   2.597 -0.3177 -0.1673 -0.6083
 2345SOL     OW 9111   1.863   5.919   2.416  0.0708  0.1169  0.1439
 2345SOL    HW2 9112   1.815   5.926   2.333 -0.4507  0.4756  0.4725
 2345SOL    HW3 9113   1.934   5.982   2.408  0.9167 -0.8762 -0.6111
 2345SOL    MW4 9114   1.866   5.928   2.404 -0.1957  0.6900  0.0282
 2346SOL     OW 9115   2.149   3.776   4.818 -0.1080  0.0665  0.3100
 2346SOL    HW2 9116   2.212   3.807   4.753 -1.2704  0.2074 -0.8012
 2346SOL    HW3 9117   2.082   3.844   4.821 -2.7310 -2.1372 -2.2051
 2346SOL    MW4 9118   2.149   3.789   4.809  0.5061  0.5740  0.1698
 2347SOL     OW 9119   1.205   3.496   2.203 -0.0207  0.4248 -0.1616
 2347SOL    HW2 9120   1.248   3.416   2.235  1.0944  1.6730  1.7079
 2347SOL    HW3 9121   1.199   3.485   2.108 -0.4682 -2.1135  0.1047
 2347SOL    MW4 9122   1.210   3.484   2.195 -0.2390  0.0719 -0.0981
 2348SOL     OW 9123   4.034   0.791   4.910  0.0692  0.6425 -0.1490
 2348SOL    HW2 9124   4.060   0.868   4.859 -0.0063  1.5363  1.1156
 2348SOL    HW3 9125   3.943   0.807   4.934 -0.6697 -0.8855 -1.6671
 2348SOL    MW4 9126   4.026   0.803   4.906 -0.3693  0.2643 -0.4177
 2349SOL     OW 9127   1.323   3.887   0.644 -0.7466 -0.2154  0.6508
 2349SOL    HW2 9128   1.369   3.818   0.692 -1.5103 -2.0981 -1.1622
 2349SOL    HW3 9129   1.231   3.861   0.647 -0.9342  0.1720 -0.8915
 2349SOL    MW4 9130   1.317   3.874   0.651 -0.1818  0.6965  0.3030
 2350SOL     OW 9131   2.379   5.844   0.621 -0.3936 -0.4110  0.1678
 2350SOL    HW2 9132   2.419   5.929   0.605 -1.8374  0.2516 -0.1004
 2350SOL    HW3 9133   2.387   5.832   0.716 -2.8282  1.4899  0.7282
 2350SOL    MW4 9134   2.385   5.854   0.632 -0.1486  0.4188  1.2169
 2351SOL     OW 9135   4.642   1.419   4.885 -0.3820 -0.2940 -0.1831
 2351SOL    HW2 9136   4.694   1.419   4.804 -1.6006  3.6195 -1.1749
 2351SOL    HW3 9137   4.600   1.505   4.887 -2.1352 -1.0217  3.5927
 2351SOL    MW4 9138   4.643   1.430   4.874 -0.7027 -0.3035 -0.3853
 2352SOL     OW 9139   4.916   0.698   3.010  0.1528  0.6364 -0.2354
 2352SOL    HW2 9140   4.967   0.621   3.035 -0.0479  0.8289  0.8227
 2352SOL    HW3 9141   4.830   0.683   3.048  0.3389  1.7344  0.6982
 2352SOL    MW4 9142   4.912   0.686   3.019 -0.3472  0.3182  0.1791
 2353SOL     OW 9143   4.394   0.802   3.575  0.1909  0.3436  0.3807
 2353SOL    HW2 9144   4.468   0.857   3.600  0.5494  0.7639 -1.4661
 2353SOL    HW3 9145   4.340   0.798   3.654  1.8917  0.4677  1.6045
 2353SOL    MW4 9146   4.396   0.809   3.589 -0.1413 -0.3094  0.8217
 2354SOL     OW 9147   4.596   2.854   0.551 -0.4622  0.2208  0.1142
 2354SOL    HW2 9148   4.666   2.877   0.612  0.3035  1.0417 -1.0351
 2354SOL    HW3 9149   4.616   2.764   0.524 -0.0291  0.3373  0.0377
 2354SOL    MW4 9150   4.608   2.845   0.556  0.1202 -0.7492 -0.2626
 2355SOL     OW 9151   4.333   5.800   4.634 -0.6861 -0.2926 -0.1145
 2355SOL    HW2 9152   4.351   5.787   4.541 -1.8467 -1.3931 -0.2214
 2355SOL    HW3 9153   4.282   5.881   4.638 -0.3170 -0.0443 -0.3923
 2355SOL    MW4 9154   4.329   5.809   4.622 -0.0462 -0.2081 -0.7385
 2356SOL     OW 9155   4.470   5.083   2.513 -0.1155 -0.4174  0.4443
 2356SOL    HW2 9156   4.418   5.053   2.439  2.2685  1.1625 -2.0602
 2356SOL    HW3 9157   4.441   5.173   2.529  0.2061 -0.3409  0.6145
 2356SOL    MW4 9158   4.459   5.091   2.506 -0.4161  0.3180  0.7155
 2357SOL     OW 9159   5.813   5.505   1.969 -0.0303 -0.0987 -0.0249
 2357SOL    HW2 9160   5.722   5.476   1.970 -0.5959  1.3914 -1.5685
 2357SOL    HW3 9161   5.862   5.431   1.934 -0.8298 -0.5256 -0.2683
 2357SOL    MW4 9162   5.808   5.492   1.965 -0.0270  0.4311  0.0869
 2358SOL     OW 9163   1.860   2.729   0.609  0.0649  0.6237  0.2699
 2358SOL    HW2 9164   1.858   2.683   0.525 -0.8405 -0.2313  0.7427
 2358SOL    HW3 9165   1.772   2.765   0.618 -0.1930 -0.2399  1.3598
 2358SOL    MW4 9166   1.848   2.728   0.599  0.5756  0.0789  0.7118
 2359SOL     OW 9167   1.167   5.000   4.859 -0.3842 -0.0204 -0.4410
 2359SOL    HW2 9168   1.219   4.946   4.799 -0.4149 -1.6237  0.9267
 2359SOL    HW3 9169   1.196   5.090   4.841  2.3479 -0.7649 -0.2559
 2359SOL    MW4 9170   1.178   5.005   4.848  0.4207  0.1153  0.4221
 2360SOL     OW 9171   0.180   5.784   0.806 -0.7267 -0.1561  0.2939
 2360SOL    HW2 9172   0.188   5.838   0.885 -0.3593 -2.8165  2.2411
 2360SOL    HW3 9173   0.270   5.759   0.784 -0.4974  2.7255 -2.7801
 2360SOL    MW4 9174   0.193   5.788   0.814 -0.0481 -0.2605  0.3587
 2361SOL     OW 9175   4.159   5.306   5.426 -0.0873  0.3752  0.3333
 2361SOL    HW2 9176   4.072   5.319   5.388 -0.8269 -0.5040  1.6680
 2361SOL    HW3 9177   4.183   5.217   5.399 -0.9547 -0.5619  2.4711
 2361SOL    MW4 9178   4.150   5.296   5.417 -0.4910 -0.3935 -0.2029
 2362SOL     OW 9179   5.342   4.178   0.366  0.1608 -0.4455  0.2096
 2362SOL    HW2 9180   5.378   4.190   0.278 -2.1658 -1.6342 -1.0033
 2362SOL    HW3 9181   5.343   4.083   0.380  3.0565 -0.1731  2.7096
 2362SOL    MW4 9182   5.347   4.167   0.356 -0.0888  0.0058  0.0867
 2363SOL     OW 9183   2.714   3.528   3.608 -0.1822  0.3284 -0.5982
 2363SOL    HW2 9184   2.651   3.585   3.652 -0.9305 -1.3564  0.6207
 2363SOL    HW3 9185   2.660   3.468   3.556  0.6224  1.1433 -2.4801
 2363SOL    MW4 9186   2.699   3.527   3.607 -0.4393  0.3873 -0.1410
 2364SOL     OW 9187   5.356   2.725   3.287  0.5416 -0.5535 -0.4944
 2364SOL    HW2 9188   5.334   2.648   3.235  0.1599  0.9044 -2.6223
 2364SOL    HW3 9189   5.351   2.798   3.226  0.2418  1.2827  1.5750
 2364SOL    MW4 9190   5.352   2.724   3.272  0.2058 -0.2007 -0.1202
 2365SOL     OW 9191   3.624   3.822   3.869 -0.5765  0.2847 -0.1149
 2365SOL    HW2 9192   3.718   3.834   3.852 -0.6921 -0.9956 -2.0095
 2365SOL    HW3 9193   3.584   3.905   3.846 -0.1564  0.0357 -1.8745
 2365SOL    MW4 9194   3.631   3.834   3.864  0.0404  0.3192 -0.1916
 2366SOL     OW 9195   2.685   5.213   0.259  0.0711  0.4689  0.0636
 2366SOL    HW2 9196   2.724   5.126   0.269 -0.9357  0.0668  0.6514
 2366SOL    HW3 9197   2.667   5.220   0.166 -0.0184 -0.0351  0.0388
 2366SOL    MW4 9198   2.688   5.202   0.248  0.8020  0.1346 -0.6381
 2367SOL     OW 9199   2.293   1.615   0.760 -0.1585  0.4159 -0.2428
 2367SOL    HW2 9200   2.243   1.614   0.842  0.2383 -0.0441 -0.0009
 2367SOL    HW3 9201   2.276   1.701   0.723  1.1923  1.4039  1.2832
 2367SOL    MW4 9202   2.284   1.626   0.766  0.0989  0.5880 -0.0862
 2368SOL     OW 9203   6.303   1.391   4.351 -0.5300 -0.0426  0.0144
 2368SOL    HW2 9204   6.347   1.316   4.311 -0.1709  0.5667 -0.7613
 2368SOL    HW3 9205   6.348   1.405   4.434  0.0363 -0.0923 -0.2801
 2368SOL    MW4 9206   6.315   1.383   4.356  0.1733 -0.1772  0.2436
 2369SOL     OW 9207   2.843   2.559   5.066  0.6738  0.0617 -0.2990
 2369SOL    HW2 9208   2.823   2.513   4.984  0.6066  0.8640 -0.7453
 2369SOL    HW3 9209   2.783   2.521   5.130 -0.9545  1.0386 -1.1601
 2369SOL    MW4 9210   2.832   2.548   5.064 -0.2445  0.2444  0.6437
 2370SOL     OW 9211   0.268   2.832   2.724 -0.7475 -0.0891  0.0426
 2370SOL    HW2 9212   0.316   2.840   2.642  2.5738  1.6478  1.9448
 2370SOL    HW3 9213   0.276   2.740   2.748  1.1123  0.0255 -0.0418
 2370SOL    MW4 9214   0.275   2.821   2.717  0.0725 -0.4484 -0.1115
 2371SOL     OW 9215   5.508   4.895   2.334 -0.0894 -0.2187  0.2907
 2371SOL    HW2 9216   5.561   4.859   2.263 -0.1535  1.3766 -0.6130
 2371SOL    HW3 9217   5.559   4.968   2.368 -0.3132 -0.6198  1.5407
 2371SOL    MW4 9218   5.522   4.900   2.329 -0.0522  0.0385 -0.1649
 2372SOL     OW 9219   5.752   0.305   3.693  0.0168 -0.1980 -0.5541
 2372SOL    HW2 9220   5.713   0.228   3.735 -0.7616  0.4341 -0.1028
 2372SOL    HW3 9221   5.709   0.311   3.608  0.9480 -0.9535 -1.0951
 2372SOL    MW4 9222   5.741   0.296   3.688  0.1742  0.3395  0.2839
 2373SOL     OW 9223   6.197   2.152   0.632 -0.1656  0.0697 -0.0258
 2373SOL    HW2 9224   6.235   2.073   0.671 -2.1096 -0.6401  0.5346
 2373SOL    HW3 9225   6.155   2.121   0.552 -0.5048  0.6197 -0.0612
 2373SOL    MW4 9226   6.196   2.137   0.627 -0.3366  0.0755  0.0732
 2374SOL     OW 9227   1.671   2.462   3.134  0.3463  0.6180  0.0347
 2374SOL    HW2 9228   1.672   2.539   3.190 -0.1943  0.2253  0.5989
 2374SOL    HW3 9229   1.742   2.407   3.168  0.2058  0.5072  0.1474
 2374SOL    MW4 9230   1.680   2.465   3.146 -0.3834 -0.2890 -0.0024
 2375SOL     OW 9231   2.276   3.108   3.738  0.0406  0.2510 -0.5696
 2375SOL    HW2 9232   2.370   3.124   3.744  0.0918 -0.2671  0.1119
 2375SOL    HW3 9233   2.260   3.036   3.799 -0.7657  0.2002 -0.8318
 2375SOL    MW4 9234   2.286   3.100   3.747  0.2280  0.1074 -0.3465
 2376SOL     OW 9235   0.915   2.577   1.175 -0.0732  0.6774 -0.0377
 2376SOL    HW2 9236   0.859   2.612   1.106 -1.9727  0.3775  1.2914
 2376SOL    HW3 9237   0.961   2.654   1.209 -1.6526  1.3924  0.5681
 2376SOL    MW4 9238   0.914   2.592   1.171  0.0077  0.1020  0.3246
 2377SOL     OW 9239   0.151   0.436   0.915 -0.3594 -0.0349  0.3316
 2377SOL    HW2 9240   0.089   0.451   0.986  0.0628  0.3470  0.6236
 2377SOL    HW3 9241   0.235   0.422   0.959 -0.1761 -0.2211 -0.0734
 2377SOL    MW4 9242   0.154   0.436   0.930 -0.1282  0.9461 -0.2457
 2378SOL     OW 9243   6.431   0.507   4.917 -0.1688 -0.4898 -0.1297
 2378SOL    HW2 9244   6.502   0.463   4.965 -0.4484  0.2735  1.0086
 2378SOL    HW3 9245   6.419   0.590   4.962 -2.1544 -0.8265  0.0402
 2378SOL    MW4 9246   6.439   0.512   4.929  0.3395 -0.6742  0.6526
 2379SOL     OW 9247   3.026   2.505   5.343 -0.0573  0.8550 -0.4500
 2379SOL    HW2 9248   3.019   2.445   5.417  2.5354  0.5689 -0.3259
 2379SOL    HW3 9249   2.960   2.572   5.360 -0.5459 -0.0016  1.3273
 2379SOL    MW4 9250   3.017   2.506   5.355  0.4057 -0.4166  0.2056
 2380SOL     OW 9251   1.955   5.050   2.267 -0.1089  0.2165 -0.1775
 2380SOL    HW2 9252   1.961   5.050   2.171  0.6220  1.8953 -0.1716
 2380SOL    HW3 9253   1.965   4.958   2.292 -0.4406 -0.2611 -1.7143
 2380SOL    MW4 9254   1.957   5.038   2.258  0.5504  0.0276 -0.6785
 2381SOL     OW 9255   3.469   5.516   6.002 -0.4401 -0.1983  0.6466
 2381SOL    HW2 9256   3.415   5.438   5.989 -0.7679  0.3548 -1.8395
 2381SOL    HW3 9257   3.558   5.483   6.009 -0.6660 -0.8605  0.4730
 2381SOL    MW4 9258   3.474   5.502   6.001 -0.5241  0.5408  0.0748
 2382SOL     OW 9259   4.602   1.654   2.201  0.0057 -0.3350  0.0975
 2382SOL    HW2 9260   4.558   1.569   2.212 -1.6604  0.5906  0.8488
 2382SOL    HW3 9261   4.576   1.705   2.277  0.7462  0.9785 -0.4950
 2382SOL    MW4 9262   4.593   1.649   2.212  0.0453 -0.2523 -0.1224
 2383SOL     OW 9263   6.050   1.993   4.664 -0.4040  0.3770  0.1070
 2383SOL    HW2 9264   6.106   1.931   4.616  0.8908  1.6031 -0.0336
 2383SOL    HW3 9265   5.986   2.022   4.599  0.2462  0.6996 -0.4043
 2383SOL    MW4 9266   6.049   1.989   4.649 -0.4715 -0.0480 -0.0622
 2384SOL     OW 9267   0.810   6.014   2.022 -0.3488  0.0253 -0.6944
 2384SOL    HW2 9268   0.723   5.995   2.057 -0.6468  0.3098 -1.2525
 2384SOL    HW3 9269   0.825   6.106   2.046  0.8952 -0.7138  1.6143
 2384SOL    MW4 9270   0.800   6.024   2.030 -0.2084 -0.2804  0.1889
 2385SOL     OW 9271   4.120   6.088   0.113 -0.2792  0.4687  0.3383
 2385SOL    HW2 9272   4.128   6.160   0.175 -1.8361 -0.5188  1.7585
 2385SOL    HW3 9273   4.026   6.073   0.105 -0.0098 -1.0692 -0.3204
 2385SOL    MW4 9274   4.109   6.095   0.120 -0.3654  0.2782 -0.0334
 2386SOL     OW 9275   3.461   6.359   4.958  0.3591 -0.2537 -0.0934
 2386SOL    HW2 9276   3.421   6.441   4.988 -1.1493 -0.9193 -0.1830
 2386SOL    HW3 9277   3.547   6.385   4.925 -0.2417  1.3494 -0.4855
 2386SOL    MW4 9278   3.467   6.373   4.958  0.4801  0.2097 -0.1223
 2387SOL     OW 9279   2.164   0.357   1.570  0.7403  0.7180  0.6618
 2387SOL    HW2 9280   2.233   0.421   1.583  1.0356  0.4257  0.5558
 2387SOL    HW3 9281   2.156   0.348   1.475  2.0399 -0.8020  0.6503
 2387SOL    MW4 9282   2.172   0.364   1.560 -0.0330  0.3046  0.3539
 2388SOL     OW 9283   1.646   4.262   1.837 -0.0438 -0.0270 -0.0936
 2388SOL    HW2 9284   1.702   4.339   1.845  0.0721 -0.0103 -0.9815
 2388SOL    HW3 9285   1.589   4.281   1.763 -0.2970 -0.6241 -0.0612
 2388SOL    MW4 9286   1.646   4.275   1.829  0.6403  0.4259 -0.0164
 2389SOL     OW 9287   1.636   2.667   4.697 -0.1846  0.2769 -0.0187
 2389SOL    HW2 9288   1.717   2.694   4.741 -0.3218  0.7635 -0.0648
 2389SOL    HW3 9289   1.567   2.714   4.743 -0.7707 -2.2703  1.9204
 2389SOL    MW4 9290   1.638   2.676   4.709 -0.3742  0.0137 -0.0702
 2390SOL     OW 9291   3.381   0.780   5.791  0.0863 -0.1146  0.2611
 2390SOL    HW2 9292   3.331   0.812   5.866  0.5290  1.3979 -0.0649
 2390SOL    HW3 9293   3.416   0.696   5.820 -1.3142 -0.4497  1.0635
 2390SOL    MW4 9294   3.379   0.773   5.805 -0.1530  0.2629 -0.5128
 2391SOL     OW 9295   3.823   4.399   4.416 -0.0338 -0.2561  0.3057
 2391SOL    HW2 9296   3.905   4.443   4.394  0.0991 -0.1434  1.0163
 2391SOL    HW3 9297   3.804   4.425   4.506 -1.8938  1.3737 -0.4685
 2391SOL    MW4 9298   3.831   4.408   4.425 -0.0919  0.8415 -0.1086
 2392SOL     OW 9299   4.083   1.089   4.256 -0.2355  0.0734 -0.1819
 2392SOL    HW2 9300   4.109   1.129   4.340  1.1471  0.3533 -0.7101
 2392SOL    HW3 9301   4.087   0.995   4.273 -1.1763  0.1215  0.3979
 2392SOL    MW4 9302   4.087   1.082   4.270  0.0706 -0.8036 -0.0073
 2393SOL     OW 9303   3.653   2.239   3.781  0.2275 -0.4559  0.2278
 2393SOL    HW2 9304   3.668   2.334   3.777  1.5041 -0.6288  0.5280
 2393SOL    HW3 9305   3.739   2.200   3.764 -0.6566 -1.6326 -1.9413
 2393SOL    MW4 9306   3.666   2.247   3.778  0.6689 -0.3801 -0.6351
 2394SOL     OW 9307   5.474   3.684   0.749  0.3812  0.2364 -0.2653
 2394SOL    HW2 9308   5.495   3.777   0.748 -0.8923  0.5656 -2.5553
 2394SOL    HW3 9309   5.394   3.677   0.801 -0.3429  0.6490 -1.3061
 2394SOL    MW4 9310   5.467   3.695   0.756 -0.1093 -0.3547 -0.6589
 2395SOL     OW 9311   2.056   4.789   0.098  0.3096  0.5632 -0.0255
 2395SOL    HW2 9312   2.055   4.884   0.108  1.0933  0.7614 -1.6072
 2395SOL    HW3 9313   1.982   4.759   0.151  0.9439  1.9033  1.6831
 2395SOL    MW4 9314   2.046   4.798   0.106 -0.0756  0.5935  0.3502
 2396SOL     OW 9315   5.923   0.870   4.439  0.3329  0.0136 -0.7162
 2396SOL    HW2 9316   5.955   0.852   4.528 -0.4928 -1.1561 -0.6404
 2396SOL    HW3 9317   6.002   0.877   4.386  0.8002 -0.6293 -0.1238
 2396SOL    MW4 9318   5.938   0.869   4.444  0.3268 -0.5310 -0.4629
 2397SOL     OW 9319   1.603   2.056   1.109 -0.2020  0.1750  0.3273
 2397SOL    HW2 9320   1.567   2.050   1.197 -0.3562  0.8045  0.3183
 2397SOL    HW3 9321   1.665   1.984   1.102 -1.7830 -1.2208  0.2020
 2397SOL    MW4 9322   1.606   2.046   1.119 -0.5280 -0.0160 -0.5386
 2398SOL     OW 9323   0.865   6.095   6.170  0.2052  0.4332 -0.2321
 2398SOL    HW2 9324   0.896   6.144   6.094  0.5425 -1.6491 -1.5482
 2398SOL    HW3 9325   0.775   6.070   6.147  0.3812 -0.3929 -0.0719
 2398SOL    MW4 9326   0.857   6.098   6.157  0.3125 -0.4474  0.2990
 2399SOL     OW 9327   5.249   3.198   6.062 -0.0771 -0.7806 -0.0994
 2399SOL    HW2 9328   5.229   3.227   6.151 -3.8089 -0.6690 -0.7935
 2399SOL    HW3 9329   5.216   3.108   6.059 -0.4792 -0.6004 -1.4840
 2399SOL    MW4 9330   5.242   3.190   6.073 -0.0437  0.2195  0.1790
 2400SOL     OW 9331   4.412   5.907   3.739  0.0364  0.2184 -0.1484
 2400SOL    HW2 9332   4.383   5.815   3.739 -1.3928  0.6395  0.7123
 2400SOL    HW3 9333   4.388   5.940   3.826  2.0477  0.9796  0.1794
 2400SOL    MW4 9334   4.405   5.899   3.750  0.2810  0.1146  0.1103
 2401SOL     OW 9335   0.242   0.172   1.744  0.3960 -0.7497  0.3004
 2401SOL    HW2 9336   0.155   0.144   1.715 -0.8467  1.7207  1.3521
 2401SOL    HW3 9337   0.286   0.199   1.663 -0.9227  0.6563 -0.0131
 2401SOL    MW4 9338   0.236   0.172   1.729  0.0490  0.0124 -0.2786
 2402SOL     OW 9339   4.599   4.670   0.351 -0.0491 -0.1427 -0.0480
 2402SOL    HW2 9340   4.679   4.721   0.338  0.0513  0.0401  1.1582
 2402SOL    HW3 9341   4.586   4.625   0.268  0.7907  0.5413 -0.5762
 2402SOL    MW4 9342   4.608   4.671   0.339 -0.1708 -0.2021 -0.0901
 2403SOL     OW 9343   3.875   5.080   0.171  0.1773 -0.2616  0.6484
 2403SOL    HW2 9344   3.924   5.152   0.129 -0.3677 -0.5976 -0.5973
 2403SOL    HW3 9345   3.798   5.122   0.208  0.3775 -0.0494  0.8302
 2403SOL    MW4 9346   3.872   5.095   0.171  0.4078  0.5541  0.3044
 2404SOL     OW 9347   3.927   1.968   5.844  0.0073 -0.1216  0.7210
 2404SOL    HW2 9348   3.872   1.903   5.800  1.1221 -0.0088 -0.9417
 2404SOL    HW3 9349   3.869   2.041   5.862 -0.3705  0.1236 -1.2697
 2404SOL    MW4 9350   3.912   1.969   5.841  0.1986  0.3731 -0.2327
 2405SOL     OW 9351   1.026   0.624   2.724  0.1824 -0.2833 -0.7071
 2405SOL    HW2 9352   0.969   0.655   2.795  0.5092  1.9203 -1.3203
 2405SOL    HW3 9353   1.048   0.534   2.748 -2.0343 -0.5710  0.4959
 2405SOL    MW4 9354   1.021   0.616   2.736  0.1612  0.4113  0.4431
 2406SOL     OW 9355   1.167   6.189   4.894  0.1239  0.2052 -0.2041
 2406SOL    HW2 9356   1.242   6.248   4.904 -0.5943  1.2467 -0.6859
 2406SOL    HW3 9357   1.140   6.202   4.803 -1.0530  0.3687  0.1576
 2406SOL    MW4 9358   1.173   6.199   4.883  0.2643 -0.0328 -0.4293
 2407SOL     OW 9359   1.008   6.309   0.978  0.2897  0.1687  0.1778
 2407SOL    HW2 9360   0.993   6.296   1.072  1.5348  0.4439  0.4303
 2407SOL    HW3 9361   0.920   6.315   0.940 -0.2567 -1.3045  1.1215
 2407SOL    MW4 9362   0.995   6.308   0.985 -0.1517  0.2843  0.6722
 2408SOL     OW 9363   1.194   3.535   4.368  0.6756  0.4382 -0.4954
 2408SOL    HW2 9364   1.218   3.616   4.324 -0.2508  1.8993  1.5069
 2408SOL    HW3 9365   1.099   3.541   4.378  0.6191 -0.8008 -0.0893
 2408SOL    MW4 9366   1.184   3.546   4.363  0.4095 -0.7931 -0.4203
 2409SOL     OW 9367   0.009   0.493   1.153 -0.2023 -0.2374 -0.2041
 2409SOL    HW2 9368  -0.086   0.492   1.152 -0.2432  1.2512 -0.2614
 2409SOL    HW3 9369   0.034   0.411   1.195 -1.4932 -0.8109 -0.5227
 2409SOL    MW4 9370   0.000   0.482   1.158 -0.5590 -0.1554  0.0468
 2410SOL     OW 9371   0.558   1.651   3.482  0.5879  0.2654 -0.3147
 2410SOL    HW2 9372   0.488   1.602   3.526  0.3983 -1.1175 -2.0277
 2410SOL    HW3 9373   0.596   1.705   3.551 -2.9053  2.0195  0.4838
 2410SOL    MW4 9374   0.554   1.652   3.497  0.9780 -0.4456  0.2316
 2411SOL     OW 9375   5.527   5.910   3.267  0.7677  0.5150 -0.1136
 2411SOL    HW2 9376   5.523   5.821   3.303  0.9558  1.4398  2.4275
 2411SOL    HW3 9377   5.440   5.947   3.283  0.5180  0.6320 -1.6492
 2411SOL    MW4 9378   5.515   5.903   3.274 -0.9414 -0.0549  0.8084
 2412SOL     OW 9379   2.384   6.180   0.553 -0.0458 -0.5426 -0.1812
 2412SOL    HW2 9380   2.362   6.257   0.606  1.5645 -0.0188 -0.2400
 2412SOL    HW3 9381   2.305   6.126   0.556 -0.8514  0.6336  0.7014
 2412SOL    MW4 9382   2.370   6.183   0.560  0.4801 -0.6339  0.5950
 2413SOL     OW 9383   3.144   1.663   6.100 -0.1914 -0.3130 -0.2605
 2413SOL    HW2 9384   3.085   1.699   6.166  0.1352  0.8122 -0.5562
 2413SOL    HW3 9385   3.231   1.673   6.139 -0.0839 -0.5876 -0.4335
 2413SOL    MW4 9386   3.148   1.669   6.114 -0.1705  0.3682  0.1754
 2414SOL     OW 9387   3.447   2.896   1.882 -0.3987 -0.1709  0.5617
 2414SOL    HW2 9388   3.357   2.865   1.869 -0.2068 -0.5484  0.1140
 2414SOL    HW3 9389   3.479   2.844   1.956 -0.7290  0.3628  1.0937
 2414SOL    MW4 9390   3.439   2.885   1.890  0.2296  0.2582  0.1643
 2415SOL     OW 9391   0.742   4.626   0.547  0.0743  0.0034  0.2917
 2415SOL    HW2 9392   0.709   4.587   0.466  1.4900 -0.3741 -0.1354
 2415SOL    HW3 9393   0.676   4.605   0.612 -1.1572  0.4298 -0.7851
 2415SOL    MW4 9394   0.729   4.618   0.545 -0.0914 -0.3711 -0.0682
 2416SOL     OW 9395   3.541   0.076   1.286 -0.0184 -0.1077 -0.3436
 2416SOL    HW2 9396   3.610   0.077   1.220 -0.5291  0.1747 -0.8790
 2416SOL    HW3 9397   3.514  -0.015   1.293 -0.0229 -0.1227 -0.5833
 2416SOL    MW4 9398   3.547   0.064   1.278 -0.3875  0.3682 -0.1054
 2417SOL     OW 9399   3.076   0.033   3.812 -0.4440 -0.0901  0.5488
 2417SOL    HW2 9400   2.995  -0.017   3.802  1.0313 -2.6400  0.5172
 2417SOL    HW3 9401   3.128  -0.018   3.873  2.1276  0.1016 -1.3225
 2417SOL    MW4 9402   3.072   0.020   3.819  0.4598 -0.5887 -0.1330
 2418SOL     OW 9403   5.604   4.284   1.725 -0.1110  1.1071 -0.3163
 2418SOL    HW2 9404   5.674   4.285   1.790 -0.1111  0.3966 -0.3017
 2418SOL    HW3 9405   5.623   4.359   1.669  0.7304  0.8543 -0.3800
 2418SOL    MW4 9406   5.615   4.294   1.726 -0.3026  0.3133 -0.0279
 2419SOL     OW 9407   1.483   5.900   4.110 -0.1200 -0.2574 -0.1266
 2419SOL    HW2 9408   1.516   5.846   4.038  1.0067  1.3523 -0.8828
 2419SOL    HW3 9409   1.555   5.960   4.130 -0.7660 -0.0173  1.7040
 2419SOL    MW4 9410   1.497   5.901   4.103 -0.2488  0.6053 -0.1604
 2420SOL     OW 9411   2.493   2.459   4.429  0.0574 -0.2549 -0.1702
 2420SOL    HW2 9412   2.549   2.422   4.362  0.7694 -2.5479  1.5619
 2420SOL    HW3 9413   2.404   2.432   4.404  0.2273 -0.4363 -0.5875
 2420SOL    MW4 9414   2.489   2.451   4.417  0.0652  0.0480 -0.8946
 2421SOL     OW 9415   1.352   6.088   3.860  0.1942  0.1154  0.0909
 2421SOL    HW2 9416   1.420   6.029   3.831  0.7614  0.7090  0.1879
 2421SOL    HW3 9417   1.274   6.033   3.869  0.9298 -0.8101  1.1134
 2421SOL    MW4 9418   1.350   6.073   3.857 -0.2410  0.8964 -0.0691
 2422SOL     OW 9419   5.459   4.319   3.018 -0.2920  0.5635 -0.3094
 2422SOL    HW2 9420   5.439   4.348   2.929 -0.6708  1.7662  0.1484
 2422SOL    HW3 9421   5.555   4.314   3.020 -0.2970 -2.1119 -1.5498
 2422SOL    MW4 9422   5.469   4.322   3.006  0.0983 -0.5286  0.1435
 2423SOL     OW 9423   3.024   0.032   1.870 -0.3245  0.0279 -0.6317
 2423SOL    HW2 9424   3.024   0.124   1.845  1.7636  0.1602 -0.2966
 2423SOL    HW3 9425   2.981   0.031   1.956  0.7382  0.9085 -0.0531
 2423SOL    MW4 9426   3.018   0.044   1.878  0.4340  0.4662  0.0837
 2424SOL     OW 9427   3.172   4.470   0.844 -0.2256  0.0022  0.1283
 2424SOL    HW2 9428   3.181   4.458   0.749 -0.5970 -1.2141  0.2239
 2424SOL    HW3 9429   3.079   4.452   0.861 -0.3849  1.1900  0.6048
 2424SOL    MW4 9430   3.161   4.466   0.834  0.0069  0.1144  0.3770
 2425SOL     OW 9431   1.771   2.736   5.808  0.4729  0.9137 -0.3804
 2425SOL    HW2 9432   1.680   2.762   5.790 -0.6513 -2.2977 -0.0716
 2425SOL    HW3 9433   1.792   2.780   5.891 -1.7161 -0.0193  0.7756
 2425SOL    MW4 9434   1.762   2.745   5.817  0.1402 -0.3973  0.1895
 2426SOL     OW 9435   3.371   6.364   2.609  0.4305  0.0931 -0.0284
 2426SOL    HW2 9436   3.428   6.329   2.541  0.3677  2.7813 -1.5811
 2426SOL    HW3 9437   3.335   6.286   2.652  4.0539 -1.7382  0.1017
 2426SOL    MW4 9438   3.374   6.349   2.606 -0.2278  0.1330 -0.7020
 2427SOL     OW 9439   5.546   1.430   4.424  0.4749 -0.5684 -0.2957
 2427SOL    HW2 9440   5.513   1.341   4.435  1.1531 -0.7788  0.1273
 2427SOL    HW3 9441   5.584   1.452   4.509  1.2655 -0.2814 -0.7094
 2427SOL    MW4 9442   5.547   1.421   4.437 -0.6186  0.2883  0.2384
 2428SOL     OW 9443   3.674   1.798   3.764 -0.2095 -0.9478  0.1696
 2428SOL    HW2 9444   3.647   1.800   3.855  0.5073 -0.3435  0.3827
 2428SOL    HW3 9445   3.646   1.713   3.731 -2.3958 -0.3398  0.3448
 2428SOL    MW4 9446   3.667   1.787   3.771 -0.2678 -0.4241  0.0327
 2429SOL     OW 9447   4.401   2.665   1.056  0.1804 -0.2647 -0.2185
 2429SOL    HW2 9448   4.459   2.589   1.049 -0.2698 -0.5032 -1.9889
 2429SOL    HW3 9449   4.316   2.628   1.080  0.0917 -0.2636 -0.5259
 2429SOL    MW4 9450   4.397   2.650   1.058 -0.3191  0.6436 -0.0376
 2430SOL     OW 9451   1.616   3.333   3.483  0.3279 -0.0485 -0.6864
 2430SOL    HW2 9452   1.698   3.364   3.447  0.4442 -0.2144 -0.5652
 2430SOL    HW3 9453   1.559   3.411   3.484  0.1094 -0.1727 -1.8052
 2430SOL    MW4 9454   1.619   3.347   3.479 -0.6158 -0.1789  0.2140
 2431SOL     OW 9455   4.584   0.773   4.739 -0.0735 -0.2129 -0.5011
 2431SOL    HW2 9456   4.611   0.749   4.828 -1.8508 -0.3099  0.0482
 2431SOL    HW3 9457   4.518   0.708   4.716 -0.9989  0.9175 -1.1340
 2431SOL    MW4 9458   4.579   0.761   4.748 -0.0266  0.3582  0.0507
 2432SOL     OW 9459   3.921   5.954   5.064 -0.1070  0.4574 -0.4927
 2432SOL    HW2 9460   3.925   5.985   4.973  0.3906  1.4697 -0.1389
 2432SOL    HW3 9461   3.967   6.021   5.114 -1.9429  0.8251  0.7626
 2432SOL    MW4 9462   3.928   5.967   5.058  0.4290 -0.3046 -0.1448
 2433SOL     OW 9463   6.268   2.420   2.158 -0.1694 -0.4098 -0.6083
 2433SOL    HW2 9464   6.182   2.458   2.180  0.7907  2.0647 -0.8075
 2433SOL    HW3 9465   6.269   2.418   2.062 -0.0290 -0.4982 -0.6042
 2433SOL    MW4 9466   6.257   2.425   2.148  0.1430 -0.1048  0.0309
 2434SOL     OW 9467   0.012   1.626   4.971 -0.2626 -0.0512 -0.8664
 2434SOL    HW2 9468  -0.060   1.636   5.033  1.8432  1.5340  1.5625
 2434SOL    HW3 9469   0.066   1.556   5.010  0.2350 -0.2348 -1.8644
 2434SOL    MW4 9470   0.010   1.618   4.984  0.0676 -0.0740  0.6681
 2435SOL     OW 9471   1.642   0.861   0.105  0.5756 -1.1500  0.2692
 2435SOL    HW2 9472   1.715   0.903   0.058  0.0100 -1.8702 -1.3002
 2435SOL    HW3 9473   1.576   0.845   0.038 -0.2812 -2.2071  1.3286
 2435SOL    MW4 9474   1.643   0.864   0.090  0.1263 -0.0809  0.0196
 2436SOL     OW 9475   4.143   1.656   1.592  0.1939 -0.3146  0.4383
 2436SOL    HW2 9476   4.077   1.696   1.649 -1.4674 -2.1938 -0.0349
 2436SOL    HW3 9477   4.102   1.653   1.506  1.6971  0.2289 -0.3308
 2436SOL    MW4 9478   4.129   1.661   1.588 -0.2152  0.0198  0.8086
 2437SOL     OW 9479   5.100   6.147   4.609  0.4563 -0.1883  0.5041
 2437SOL    HW2 9480   5.015   6.191   4.599  0.1749 -0.1896  2.5497
 2437SOL    HW3 9481   5.080   6.054   4.599  0.3918 -0.1344  0.0917
 2437SOL    MW4 9482   5.086   6.141   4.606  0.3239  0.0579  1.1421
 2438SOL     OW 9483   0.615   0.026   5.759  0.1634 -0.3458 -0.4011
 2438SOL    HW2 9484   0.637  -0.004   5.671 -1.8871 -0.2748 -0.9883
 2438SOL    HW3 9485   0.552  -0.038   5.791 -0.2035  0.4131  0.4358
 2438SOL    MW4 9486   0.609   0.014   5.751  0.7460 -0.1917  0.0085
 2439SOL     OW 9487   5.308   1.648   1.654  0.0783 -0.1739 -0.6648
 2439SOL    HW2 9488   5.401   1.629   1.652  0.3123  0.8815 -0.2091
 2439SOL    HW3 9489   5.281   1.629   1.743  0.2824  1.3838 -0.2444
 2439SOL    MW4 9490   5.316   1.643   1.665 -0.5037  0.1698 -0.1155
 2440SOL     OW 9491   2.198   2.783   2.241 -0.0603  0.3927  0.3358
 2440SOL    HW2 9492   2.287   2.754   2.263  0.0137  1.1521  1.0415
 2440SOL    HW3 9493   2.209   2.838   2.164  0.0586  0.3853  0.3477
 2440SOL    MW4 9494   2.211   2.786   2.234  0.0579 -0.2018  0.3339
 2441SOL     OW 9495   3.207   5.905   5.798 -0.2408 -0.0951 -0.6865
 2441SOL    HW2 9496   3.275   5.839   5.815 -0.2905 -0.4099 -1.6020
 2441SOL    HW3 9497   3.153   5.865   5.729  0.7739  1.5909 -2.5744
 2441SOL    MW4 9498   3.209   5.891   5.791  0.6253  0.3554 -0.0085
 2442SOL     OW 9499   5.729   4.320   3.063 -0.5339 -0.0697  0.6444
 2442SOL    HW2 9500   5.760   4.406   3.093  0.9474 -0.7169  1.0674
 2442SOL    HW3 9501   5.764   4.313   2.974  0.7440 -0.8724  1.1814
 2442SOL    MW4 9502   5.738   4.331   3.055  0.3192 -0.6810  0.3718
 2443SOL     OW 9503   6.222   6.329   5.399  0.6707  0.1223  0.4458
 2443SOL    HW2 9504   6.282   6.346   5.472  0.2027 -2.0195  1.4349
 2443SOL    HW3 9505   6.226   6.234   5.387 -1.6344  0.0465 -0.2210
 2443SOL    MW4 9506   6.230   6.318   5.407  0.3107  0.6800 -0.2342
 2444SOL     OW 9507   4.656   4.370   1.850  0.3387  0.1781 -0.4131
 2444SOL    HW2 9508   4.712   4.398   1.922  1.0724 -1.8268 -0.1449
 2444SOL    HW3 9509   4.697   4.290   1.817 -0.2614  0.7309 -2.7312
 2444SOL    MW4 9510   4.669   4.363   1.855  0.3034 -0.0159  0.5145
 2445SOL     OW 9511   5.461   2.376   0.407  0.3106  0.4858 -0.3817
 2445SOL    HW2 9512   5.536   2.404   0.458 -0.6045  1.4553  0.4784
 2445SOL    HW3 9513   5.419   2.309   0.460  0.4805  0.0407 -0.7998
 2445SOL    MW4 9514   5.465   2.371   0.421  0.5045 -0.3752 -0.2397
 2446SOL     OW 9515   4.730   6.010   1.851  0.0455  0.2284 -0.2902
 2446SOL    HW2 9516   4.809   5.972   1.888 -0.9636 -1.9339 -0.1985
 2446SOL    HW3 9517   4.663   5.997   1.918 -0.6033  1.2731 -0.6975
 2446SOL    MW4 9518   4.731   6.004   1.865 -0.8309  0.4140  0.5668
 2447SOL     OW 9519   2.887   4.076   6.120 -0.1737  0.6198  0.4928
 2447SOL    HW2 9520   2.799   4.079   6.158 -0.3830 -0.0043  0.0719
 2447SOL    HW3 9521   2.883   4.005   6.056  0.7858  0.2288  0.8471
 2447SOL    MW4 9522   2.875   4.067   6.116 -0.9434 -0.3686 -0.0233
 2448SOL     OW 9523   5.130   0.357   0.320  0.4160  0.3084 -0.2023
 2448SOL    HW2 9524   5.073   0.317   0.386 -0.1326 -0.5788 -1.1779
 2448SOL    HW3 9525   5.118   0.451   0.331  1.6833  0.2934  2.1191
 2448SOL    MW4 9526   5.121   0.364   0.330 -0.7533 -0.3701  0.0035
 2449SOL     OW 9527   1.382   0.958   3.982 -0.3033 -0.0274  0.2354
 2449SOL    HW2 9528   1.410   0.983   3.894  0.9884  2.0027  1.1576
 2449SOL    HW3 9529   1.307   0.900   3.968  0.5822 -0.6799 -2.2047
 2449SOL    MW4 9530   1.376   0.953   3.969  0.6119  0.0484  0.2755
 2450SOL     OW 9531   3.285   4.581   5.886  0.1634  0.2011  0.0857
 2450SOL    HW2 9532   3.335   4.506   5.855  3.1984  2.0101  0.1702
 2450SOL    HW3 9533   3.255   4.625   5.806 -0.4861 -0.3652  0.0106
 2450SOL    MW4 9534   3.288   4.577   5.871 -0.0194 -0.2652 -0.3853
 2451SOL     OW 9535   4.683   2.666   0.233  0.1655  0.1075 -0.0507
 2451SOL    HW2 9536   4.763   2.623   0.202  0.3435 -0.5731  1.2820
 2451SOL    HW3 9537   4.666   2.626   0.318 -0.5140  1.6252  0.5643
 2451SOL    MW4 9538   4.691   2.655   0.240  0.3093 -0.4099 -0.1117
 2452SOL     OW 9539   2.936   5.384   3.755  0.0526 -0.0009 -0.2824
 2452SOL    HW2 9540   3.013   5.437   3.736 -1.1145  1.1132 -2.2147
 2452SOL    HW3 9541   2.868   5.418   3.697 -2.4234  0.1732  2.4663
 2452SOL    MW4 9542   2.938   5.395   3.745 -0.9860 -0.1958 -0.4949
 2453SOL     OW 9543   0.252   2.787   4.201 -0.6029  0.7502  0.6569
 2453SOL    HW2 9544   0.272   2.873   4.237 -2.7033  1.5647  0.0396
 2453SOL    HW3 9545   0.289   2.789   4.112  1.1073  0.2128  1.3143
 2453SOL    MW4 9546   0.259   2.799   4.194 -0.1354  0.0814 -0.8198
 2454SOL     OW 9547   2.627   0.314   2.258  0.5989 -0.0274 -0.4608
 2454SOL    HW2 9548   2.589   0.360   2.333  1.8816  0.2140  0.0570
 2454SOL    HW3 9549   2.693   0.257   2.296  2.2408  1.1004 -1.5154
 2454SOL    MW4 9550   2.631   0.313   2.273  0.2148  0.5796  0.3923
 2455SOL     OW 9551   4.391   4.363   0.487 -0.6591  0.1304  0.6107
 2455SOL    HW2 9552   4.352   4.291   0.438  1.0832  0.4298 -1.3422
 2455SOL    HW3 9553   4.482   4.335   0.502 -0.2968  1.4030  0.8959
 2455SOL    MW4 9554   4.398   4.350   0.483  0.2784  0.2204 -0.4469
 2456SOL     OW 9555   1.349   0.475   4.453  0.2510  0.0341  0.1842
 2456SOL    HW2 9556   1.353   0.551   4.512 -2.1781  0.1895  0.2769
 2456SOL    HW3 9557   1.324   0.513   4.368 -1.1230 -0.6301  0.2652
 2456SOL    MW4 9558   1.346   0.490   4.449 -0.0673 -0.0008  0.0510
 2457SOL     OW 9559   5.234   0.097   4.066 -0.2374  0.5458  0.3003
 2457SOL    HW2 9560   5.267   0.136   4.147  0.2001  0.7220  0.0431
 2457SOL    HW3 9561   5.286   0.138   3.997 -1.7685  1.7195 -0.2304
 2457SOL    MW4 9562   5.245   0.108   4.068 -0.1291 -0.3466 -0.0702
 2458SOL     OW 9563   5.924   2.618   5.521 -0.1387  0.7562 -0.3128
 2458SOL    HW2 9564   5.883   2.601   5.606 -1.0939  0.3743 -0.8314
 2458SOL    HW3 9565   6.018   2.626   5.540  0.1539 -2.6844  0.3579
 2458SOL    MW4 9566   5.931   2.617   5.534  0.4058  0.1625 -0.5480
 2459SOL     OW 9567   4.952   6.414   3.788  0.7616  0.2625  0.6016
 2459SOL    HW2 9568   5.032   6.436   3.740  0.3378  2.4654  0.7769
 2459SOL    HW3 9569   4.881   6.430   3.726  0.3087  1.5271  1.3929
 2459SOL    MW4 9570   4.953   6.419   3.773 -0.6504 -0.1687  0.3955
 2460SOL     OW 9571   4.821   4.142   2.277  0.0893 -0.3169 -0.4339
 2460SOL    HW2 9572   4.857   4.138   2.366 -1.8562 -0.2771  0.3923
 2460SOL    HW3 9573   4.887   4.191   2.227  1.7755 -1.3592  0.6679
 2460SOL    MW4 9574   4.835   4.148   2.282  0.5573 -0.0514  0.4860
 2461SOL     OW 9575   5.739   3.140   3.884 -0.5017  0.0448  0.0758
 2461SOL    HW2 9576   5.724   3.201   3.811  0.3727  0.0270 -0.1281
 2461SOL    HW3 9577   5.773   3.196   3.954  1.7583 -0.3867 -0.6010
 2461SOL    MW4 9578   5.741   3.156   3.883 -1.0761  0.1725  0.4283
 2462SOL     OW 9579   0.995   3.083   1.933  0.1988  0.1680  0.1513
 2462SOL    HW2 9580   1.062   3.016   1.923 -0.6637 -0.4948 -1.5167
 2462SOL    HW3 9581   0.954   3.063   2.018  1.1812 -0.2420  0.5470
 2462SOL    MW4 9582   0.998   3.071   1.943  0.1164 -0.2231  0.3330
 2463SOL     OW 9583   0.857   6.148   4.831 -0.4968 -0.2810 -0.2248
 2463SOL    HW2 9584   0.884   6.082   4.766  0.1425  1.4516 -1.7910
 2463SOL    HW3 9585   0.818   6.096   4.902 -1.1861 -2.2598 -1.9355
 2463SOL    MW4 9586   0.856   6.132   4.832  0.1374  0.4011  0.4710
 2464SOL     OW 9587   2.156   5.081   0.074 -0.3186 -0.5582 -0.1522
 2464SOL    HW2 9588   2.130   5.124   0.156  0.9875 -0.3354  0.1629
 2464SOL    HW3 9589   2.248   5.057   0.087 -0.4477 -1.6591 -1.0884
 2464SOL    MW4 9590   2.165   5.084   0.087 -0.0122 -0.0021 -0.5298
 2465SOL     OW 9591   3.934   2.884   0.342  0.2852 -0.1739  0.3988
 2465SOL    HW2 9592   3.989   2.808   0.323  2.7377  1.2457  1.3314
 2465SOL    HW3 9593   3.902   2.868   0.431  0.2741 -0.3786  0.3604
 2465SOL    MW4 9594   3.937   2.872   0.351  0.2028  0.2214 -0.2441
 2466SOL     OW 9595   4.431   3.696   4.783  0.7584 -0.1267  0.3041
 2466SOL    HW2 9596   4.373   3.741   4.722  0.4004 -0.0503  0.6927
 2466SOL    HW3 9597   4.508   3.673   4.731  1.2188  1.4694  0.2442
 2466SOL    MW4 9598   4.434   3.699   4.768  0.1967 -0.0815 -0.3539
 2467SOL     OW 9599   6.401   2.431   4.156 -0.0830  0.1029  0.2646
 2467SOL    HW2 9600   6.480   2.459   4.202  0.1288  3.3540 -1.7466
 2467SOL    HW3 9601   6.342   2.507   4.161 -2.3660 -1.5387  0.0930
 2467SOL    MW4 9602   6.403   2.445   4.163  0.1618  0.4399 -0.4602
 2468SOL     OW 9603   1.102   2.657   2.852  0.0870 -0.6332  0.4270
 2468SOL    HW2 9604   1.026   2.711   2.874 -1.3346 -1.8971 -1.1187
 2468SOL    HW3 9605   1.171   2.720   2.832 -1.2868  0.6145 -0.5882
 2468SOL    MW4 9606   1.101   2.673   2.852 -0.1926 -0.4258 -0.3890
 2469SOL     OW 9607   1.089   5.090   3.884 -0.4417  0.0931 -0.2222
 2469SOL    HW2 9608   1.075   5.152   3.812 -1.1063  0.1742 -0.0308
 2469SOL    HW3 9609   1.179   5.106   3.912 -0.1409 -0.0142 -1.1018
 2469SOL    MW4 9610   1.099   5.100   3.878 -0.6246  0.0674 -0.1779
 2470SOL     OW 9611   3.436   5.617   4.616  0.1588 -0.2507 -0.4846
 2470SOL    HW2 9612   3.432   5.522   4.612  1.7303 -0.3054 -2.7022
 2470SOL    HW3 9613   3.374   5.647   4.549 -0.1571  0.3185  0.0388
 2470SOL    MW4 9614   3.427   5.609   4.607  0.0140  0.6786  0.2723
 2471SOL     OW 9615   4.981   3.546   2.628  0.6668 -0.4011 -0.3762
 2471SOL    HW2 9616   5.020   3.633   2.625  0.8678 -0.2280  2.9590
 2471SOL    HW3 9617   4.889   3.560   2.606  0.8653  0.5340 -0.6482
 2471SOL    MW4 9618   4.974   3.559   2.625  0.0329  0.0028 -0.0938
 2472SOL     OW 9619   2.358   1.610   2.591  0.4589 -0.4906 -0.2960
 2472SOL    HW2 9620   2.422   1.665   2.637  0.9780 -1.2638 -0.0797
 2472SOL    HW3 9621   2.356   1.646   2.503 -0.5402  1.0016  0.3022
 2472SOL    MW4 9622   2.366   1.622   2.586  0.1513 -0.7996 -0.1471
 2473SOL     OW 9623   1.933   1.247   3.838 -0.1358 -0.1530 -0.2154
 2473SOL    HW2 9624   2.001   1.251   3.905  0.2553  0.6249 -0.6446
 2473SOL    HW3 9625   1.950   1.165   3.791 -1.4452 -1.5901  1.6757
 2473SOL    MW4 9626   1.944   1.236   3.841  0.4991 -0.2612  0.1915
 2474SOL     OW 9627   4.457   1.970   1.982 -0.2147 -0.5449 -0.1706
 2474SOL    HW2 9628   4.469   2.009   1.895 -1.9721  1.2009  0.2921
 2474SOL    HW3 9629   4.538   1.991   2.029 -0.2170  0.6601 -0.6525
 2474SOL    MW4 9630   4.469   1.978   1.976 -0.0158  0.0091  0.5075
 2475SOL     OW 9631   5.933   3.315   0.382 -0.1923 -0.3353 -0.7724
 2475SOL    HW2 9632   5.947   3.271   0.298  0.4598  0.2469 -0.9758
 2475SOL    HW3 9633   5.845   3.353   0.375 -1.0452 -2.1008 -0.3534
 2475SOL    MW4 9634   5.923   3.314   0.370 -0.2176  0.5695 -0.6746
 2476SOL     OW 9635   3.031   4.462   2.639  0.0331  0.5667 -0.4654
 2476SOL    HW2 9636   3.125   4.445   2.634  0.0308  0.0516  0.7771
 2476SOL    HW3 9637   3.010   4.451   2.732 -1.6734 -1.6761 -1.0275
 2476SOL    MW4 9638   3.040   4.459   2.651  0.1806  0.6327  0.0913
 2477SOL     OW 9639   2.606   5.323   3.831  0.1722  0.0601 -0.5656
 2477SOL    HW2 9640   2.525   5.336   3.880  0.1194  0.0400 -0.6478
 2477SOL    HW3 9641   2.618   5.228   3.828  0.1255  0.0587 -0.6758
 2477SOL    MW4 9642   2.597   5.312   3.837  0.2669  0.3921 -0.2872
 2478SOL     OW 9643   1.983   3.891   2.575  0.5437  0.6332 -0.3341
 2478SOL    HW2 9644   2.077   3.908   2.572  0.8957  0.2521  3.5161
 2478SOL    HW3 9645   1.974   3.819   2.637 -2.1784 -1.2868 -2.6989
 2478SOL    MW4 9646   1.994   3.884   2.583  0.1666 -0.0457  0.7965
 2479SOL     OW 9647   2.697   2.789   4.678 -0.4400  0.2700 -0.0818
 2479SOL    HW2 9648   2.729   2.760   4.593  0.8122 -1.3942  0.9082
 2479SOL    HW3 9649   2.626   2.728   4.699  1.1040 -1.1639  1.2614
 2479SOL    MW4 9650   2.691   2.777   4.669  0.6323 -0.4219 -0.2334
 2480SOL     OW 9651   6.372   2.040   3.227  0.2596  0.1327 -0.2666
 2480SOL    HW2 9652   6.392   2.117   3.174 -1.2768  0.6834 -0.0767
 2480SOL    HW3 9653   6.458   2.006   3.252  0.9721  1.8726 -0.2074
 2480SOL    MW4 9654   6.386   2.045   3.223 -0.5344 -0.7099  0.4021
 2481SOL     OW 9655   4.678   0.369   5.409  0.2131 -0.1432 -0.1375
 2481SOL    HW2 9656   4.730   0.365   5.489 -0.0957 -1.6156  0.0188
 2481SOL    HW3 9657   4.612   0.300   5.420 -0.8784  0.7422 -0.9428
 2481SOL    MW4 9658   4.676   0.359   5.421  0.1159  0.1366  0.0416
 2482SOL     OW 9659   5.575   5.363   0.961 -0.0790  0.5419  0.0491
 2482SOL    HW2 9660   5.573   5.282   1.011 -0.4403 -0.0315 -0.8629
 2482SOL    HW3 9661   5.642   5.417   1.004  1.3818 -0.8960 -0.3179
 2482SOL    MW4 9662   5.584   5.359   0.973  0.1004  0.0186 -0.5739
 2483SOL     OW 9663   5.327   1.067   3.753  0.3206  0.3544  0.2183
 2483SOL    HW2 9664   5.389   1.101   3.689  0.4436  0.8304  0.5821
 2483SOL    HW3 9665   5.267   1.140   3.769 -3.5920 -1.4194 -3.9278
 2483SOL    MW4 9666   5.327   1.081   3.747  0.1674 -0.1810 -0.6445
 2484SOL     OW 9667   4.981   3.812   1.193 -0.3004  0.0204  0.4017
 2484SOL    HW2 9668   5.019   3.900   1.198  4.1591 -1.6093  0.2502
 2484SOL    HW3 9669   4.970   3.786   1.284  2.3234 -0.5730  0.6372
 2484SOL    MW4 9670   4.985   3.821   1.206 -0.4745 -0.4403 -0.0568
 2485SOL     OW 9671   0.776   3.968   2.038  0.0680 -0.4113 -0.2808
 2485SOL    HW2 9672   0.766   3.878   2.005  2.4219 -1.1665  0.8846
 2485SOL    HW3 9673   0.730   3.968   2.122  0.2069 -0.5702 -0.2050
 2485SOL    MW4 9674   0.769   3.956   2.045 -0.3118 -0.0432 -0.3758
 2486SOL     OW 9675   3.682   4.593   1.163  0.1039  0.2935 -0.0903
 2486SOL    HW2 9676   3.746   4.662   1.181 -0.2292  0.8132 -0.8163
 2486SOL    HW3 9677   3.630   4.586   1.243  1.1128 -0.2055  0.5457
 2486SOL    MW4 9678   3.683   4.601   1.176 -0.0635 -0.1090 -0.1740
 2487SOL     OW 9679   0.250   1.511   1.970 -0.2358  0.0683  0.1405
 2487SOL    HW2 9680   0.220   1.477   2.054 -0.1779 -1.0869 -0.2851
 2487SOL    HW3 9681   0.303   1.588   1.992 -1.3557  0.6021  1.0580
 2487SOL    MW4 9682   0.253   1.517   1.984 -0.6014  0.6123 -0.0642
 2488SOL     OW 9683   5.195   3.819   0.139 -0.1054  0.6298 -0.2824
 2488SOL    HW2 9684   5.179   3.733   0.179 -1.1935  1.0441  0.2032
 2488SOL    HW3 9685   5.272   3.853   0.185 -0.3419  0.3854  0.3035
 2488SOL    MW4 9686   5.203   3.812   0.150 -0.0500 -0.4843  0.3576
 2489SOL     OW 9687   6.129   2.556   4.491 -0.0944 -0.0033 -0.1899
 2489SOL    HW2 9688   6.099   2.465   4.489  1.7011 -0.8266  2.9188
 2489SOL    HW3 9689   6.048   2.608   4.485 -1.4855 -1.8995  0.9084
 2489SOL    MW4 9690   6.114   2.551   4.490 -0.1706  0.1003  0.1180
 2490SOL     OW 9691   5.998   0.227   2.304 -0.0935 -0.4642  0.0634
 2490SOL    HW2 9692   5.978   0.289   2.374 -2.9940 -1.0845 -0.0844
 2490SOL    HW3 9693   6.086   0.252   2.274 -1.2139  3.8706 -0.2908
 2490SOL    MW4 9694   6.007   0.239   2.309  0.0056 -0.1663 -0.3255
 2491SOL     OW 9695   0.593   6.288   1.186 -0.4621  0.2020  0.1039
 2491SOL    HW2 9696   0.632   6.200   1.185 -2.0203 -0.5190  0.2096
 2491SOL    HW3 9697   0.577   6.306   1.279  0.0987  0.7219  0.1047
 2491SOL    MW4 9698   0.596   6.279   1.198 -0.2756  0.6165  0.0779
 2492SOL     OW 9699   2.507   2.227   5.364 -0.5768  0.0597 -0.1742
 2492SOL    HW2 9700   2.592   2.207   5.323 -0.5005 -1.4030  0.6340
 2492SOL    HW3 9701   2.443   2.201   5.298 -0.4233 -0.7827 -0.0030
 2492SOL    MW4 9702   2.510   2.221   5.350 -0.6879 -0.4570  0.2297
 2493SOL     OW 9703   5.162   5.252   2.441 -0.3810  0.1840  0.0774
 2493SOL    HW2 9704   5.180   5.160   2.422 -1.1984 -0.3225  1.5387
 2493SOL    HW3 9705   5.234   5.279   2.498  0.4415  0.7879 -1.2247
 2493SOL    MW4 9706   5.174   5.244   2.446 -0.0592 -0.5082 -0.5291
 2494SOL     OW 9707   0.566   3.480   2.772  0.1311  0.0302 -0.1407
 2494SOL    HW2 9708   0.625   3.463   2.845  0.9931 -0.7210 -0.9721
 2494SOL    HW3 9709   0.496   3.533   2.809  1.2687  0.8530  0.9075
 2494SOL    MW4 9710   0.564   3.484   2.786  0.6522 -0.0402  0.6074
 2495SOL     OW 9711   0.094   5.401   1.984  0.0627  0.3307  0.1896
 2495SOL    HW2 9712   0.042   5.469   1.941  1.8756  1.4777 -0.3498
 2495SOL    HW3 9713   0.069   5.320   1.942 -0.8776  0.9233 -0.4154
 2495SOL    MW4 9714   0.084   5.400   1.973  0.2032  0.6916 -0.1655
 2496SOL     OW 9715   5.945   4.783   3.264 -0.1144  0.3416  0.0070
 2496SOL    HW2 9716   5.946   4.777   3.360  1.0870  0.4810  0.0078
 2496SOL    HW3 9717   5.885   4.713   3.237 -0.5355  0.3588  0.8621
 2496SOL    MW4 9718   5.937   4.773   3.273 -0.3357  0.1300  0.0219
 2497SOL     OW 9719   2.326   1.223   2.916  0.0267 -0.0769 -0.3865
 2497SOL    HW2 9720   2.374   1.171   2.852 -1.4494 -0.7896 -0.9567
 2497SOL    HW3 9721   2.392   1.281   2.954  1.4840 -1.5824 -0.5337
 2497SOL    MW4 9722   2.341   1.224   2.913  0.3546 -0.0386 -0.7298
 2498SOL     OW 9723   1.044   0.840   5.978  0.1817 -0.2492 -0.6521
 2498SOL    HW2 9724   1.094   0.780   5.923 -0.5078 -0.4706 -1.0581
 2498SOL    HW3 9725   0.964   0.857   5.927 -0.4195 -0.3704  0.2340
 2498SOL    MW4 9726   1.040   0.835   5.964  0.4806 -0.2484 -0.5057
 2499SOL     OW 9727   6.376   1.638   2.996 -0.0999 -0.2159  0.4286
 2499SOL    HW2 9728   6.469   1.660   2.991 -0.6493  2.8198  1.2735
 2499SOL    HW3 9729   6.367   1.591   3.079  0.4625  1.2860  1.3975
 2499SOL    MW4 9730   6.387   1.635   3.006  0.6120 -0.8940 -0.6694
 2500SOL     OW 9731   4.496   3.844   5.877 -0.2146  0.1233  0.1505
 2500SOL    HW2 9732   4.505   3.929   5.921  1.1793  0.5791 -0.9560
 2500SOL    HW3 9733   4.428   3.799   5.928 -1.2394  2.0020  0.5684
 2500SOL    MW4 9734   4.488   3.849   5.890 -0.1795 -0.8526  0.4459
 2501SOL     OW 9735   1.036   5.581   5.181  0.6148 -0.2994 -0.1419
 2501SOL    HW2 9736   1.125   5.605   5.153  0.2544  0.7412 -0.4727
 2501SOL    HW3 9737   1.003   5.661   5.223 -0.8483 -0.0175 -1.7393
 2501SOL    MW4 9738   1.044   5.595   5.183 -0.3680  0.7239  0.2850
 2502SOL     OW 9739   0.013   0.358   3.373 -0.1029  0.3688  0.1685
 2502SOL    HW2 9740   0.000   0.311   3.291  0.7064  0.8764 -0.2585
 2502SOL    HW3 9741  -0.066   0.411   3.383 -0.3626  0.0340 -0.0925
 2502SOL    MW4 9742   0.001   0.359   3.364 -0.0098 -0.6042 -0.2351
 2503SOL     OW 9743   1.888   6.213   1.193  0.0770  0.2110 -0.0461
 2503SOL    HW2 9744   1.852   6.208   1.281 -2.3613 -0.6171 -0.9821
 2503SOL    HW3 9745   1.909   6.305   1.180 -1.0430  0.6062  0.8621
 2503SOL    MW4 9746   1.886   6.224   1.203  0.6071 -0.0314  0.2942
 2504SOL     OW 9747   3.953   1.381   4.128 -0.2943 -0.2352  0.1072
 2504SOL    HW2 9748   3.928   1.297   4.167  1.4746  0.1928  2.4175
 2504SOL    HW3 9749   4.037   1.402   4.170 -0.5512  2.5569 -0.5890
 2504SOL    MW4 9750   3.961   1.373   4.139 -0.4105 -0.3879  0.3561
 2505SOL     OW 9751   6.190   2.104   4.267  0.2540 -0.5475 -0.0800
 2505SOL    HW2 9752   6.255   2.036   4.284 -0.7220 -1.3442  0.6097
 2505SOL    HW3 9753   6.192   2.160   4.344  0.6505 -0.1351 -0.3905
 2505SOL    MW4 9754   6.199   2.102   4.279  0.7111 -0.0393  0.4262
 2506SOL     OW 9755   0.260   5.596   1.531 -0.5516 -0.0068  0.1297
 2506SOL    HW2 9756   0.349   5.561   1.537 -0.0786  1.0933 -0.2375
 2506SOL    HW3 9757   0.252   5.623   1.439 -0.6879  1.3807  0.5429
 2506SOL    MW4 9758   0.271   5.595   1.519 -0.4445  0.3085 -0.6513
 2507SOL     OW 9759   1.842   2.248   3.128 -0.1304 -0.1905 -0.2906
 2507SOL    HW2 9760   1.814   2.158   3.145 -0.8067  0.1972  0.7895
 2507SOL    HW3 9761   1.886   2.244   3.044  0.3721 -1.6385  0.0131
 2507SOL    MW4 9762   1.844   2.236   3.119  0.1369  0.0077 -0.2449
 2508SOL     OW 9763   4.575   0.288   0.841  0.2234  0.3258  0.7560
 2508SOL    HW2 9764   4.604   0.198   0.852  0.8727  0.4979  0.5317
 2508SOL    HW3 9765   4.642   0.340   0.885  0.4430  0.7558 -0.0545
 2508SOL    MW4 9766   4.588   0.283   0.848 -0.4239 -0.5823 -0.0324
 2509SOL     OW 9767   4.704   4.296   3.573 -0.0512  0.0020 -0.3701
 2509SOL    HW2 9768   4.719   4.339   3.488  1.6087  0.7342  0.2342
 2509SOL    HW3 9769   4.628   4.240   3.559  0.7786 -0.6889 -2.6504
 2509SOL    MW4 9770   4.696   4.294   3.560  0.1389  0.0819  0.0746
 2510SOL     OW 9771   6.362   2.466   0.980  0.0458 -0.0738  0.2848
 2510SOL    HW2 9772   6.373   2.373   1.001 -0.3347  0.1697  1.6717
 2510SOL    HW3 9773   6.449   2.504   0.989  0.2261 -0.3171 -0.4144
 2510SOL    MW4 9774   6.375   2.459   0.984  0.7143 -0.9242 -0.5707
 2511SOL     OW 9775   3.759   2.935   6.033  0.4305  0.2610  0.0025
 2511SOL    HW2 9776   3.683   2.889   5.998 -0.4871  2.6665 -1.4159
 2511SOL    HW3 9777   3.754   2.920   6.128 -1.8957  0.4081 -0.0355
 2511SOL    MW4 9778   3.749   2.927   6.041  0.6367 -0.1428 -0.3293
 2512SOL     OW 9779   5.498   3.651   1.529  0.1812 -0.3716  0.0302
 2512SOL    HW2 9780   5.534   3.576   1.480  0.1154 -1.4428  1.5488
 2512SOL    HW3 9781   5.485   3.718   1.463  2.7959 -0.7421 -0.9944
 2512SOL    MW4 9782   5.501   3.650   1.514 -0.1958 -0.0351  0.3888
 2513SOL     OW 9783   2.995   2.824   4.061  0.1434 -0.3232  0.2067
 2513SOL    HW2 9784   3.013   2.891   4.127 -1.4851  0.4380 -0.0484
 2513SOL    HW3 9785   2.900   2.809   4.068  0.6014 -3.4216  0.9814
 2513SOL    MW4 9786   2.985   2.831   4.071 -0.8482  0.3299 -0.1036
 2514SOL     OW 9787   5.402   4.613   4.261 -0.1594  0.0263 -0.2512
 2514SOL    HW2 9788   5.467   4.645   4.199  1.1633 -0.9261  0.5856
 2514SOL    HW3 9789   5.378   4.690   4.313  0.8203  0.2392 -0.1113
 2514SOL    MW4 9790   5.407   4.627   4.260 -0.5555 -0.3935 -0.2817
 2515SOL     OW 9791   0.095   3.443   2.103 -0.4358  0.2380  0.5864
 2515SOL    HW2 9792   0.166   3.392   2.063 -0.2987  0.2233  0.8419
 2515SOL    HW3 9793   0.052   3.381   2.162 -0.6093  0.2708  0.4950
 2515SOL    MW4 9794   0.099   3.428   2.106  0.2357  0.8813  0.0185
 2516SOL     OW 9795   2.119   3.469   5.968 -0.0443  0.0046 -0.1292
 2516SOL    HW2 9796   2.205   3.480   5.928  0.4273 -0.5556  0.7081
 2516SOL    HW3 9797   2.124   3.519   6.050 -1.0552  1.2855 -0.8115
 2516SOL    MW4 9798   2.131   3.477   5.973 -0.1434  0.1369 -0.1719
 2517SOL     OW 9799   2.364   2.037   3.275 -0.2053  0.2009  0.5151
 2517SOL    HW2 9800   2.357   2.133   3.272  1.3283  0.3258 -0.8988
 2517SOL    HW3 9801   2.297   2.007   3.214 -1.4401  0.2822  1.7862
 2517SOL    MW4 9802   2.354   2.046   3.266 -0.4518 -0.3873 -0.8378
 2518SOL     OW 9803   5.462   5.694   6.239 -0.0004  0.2643 -0.0698
 2518SOL    HW2 9804   5.535   5.641   6.272  1.0889  1.2993 -0.7224
 2518SOL    HW3 9805   5.505   5.769   6.197 -1.4753  1.6467  0.8015
 2518SOL    MW4 9806   5.477   5.697   6.238 -0.3771 -0.0474 -0.4139
 2519SOL     OW 9807   0.850   1.777   0.861  0.2387  0.3006 -0.8424
 2519SOL    HW2 9808   0.881   1.855   0.908 -0.6587 -1.1714  2.4361
 2519SOL    HW3 9809   0.915   1.710   0.881  0.6244 -0.0716 -3.0588
 2519SOL    MW4 9810   0.863   1.779   0.870 -0.1511 -0.4044  0.0053
 2520SOL     OW 9811   1.278   1.020   1.280  0.7300  0.7620 -0.3415
 2520SOL    HW2 9812   1.195   0.975   1.265  1.2235 -0.2743 -0.0517
 2520SOL    HW3 9813   1.264   1.069   1.361  1.5038 -2.3069  1.8009
 2520SOL    MW4 9814   1.265   1.020   1.288  0.6328 -0.3772 -0.3237
 2521SOL     OW 9815   4.284   5.759   5.520  0.7291 -0.2410  0.5437
 2521SOL    HW2 9816   4.302   5.791   5.431  2.6911 -1.8855  0.2869
 2521SOL    HW3 9817   4.214   5.695   5.509  1.1965 -0.6844  0.1243
 2521SOL    MW4 9818   4.277   5.755   5.507  0.6517  0.1643 -0.0862
 2522SOL     OW 9819   5.390   2.545   1.443  0.5096 -0.3185  0.7394
 2522SOL    HW2 9820   5.414   2.601   1.517 -2.7562  0.4181  1.3721
 2522SOL    HW3 9821   5.424   2.590   1.366 -0.1542  1.4221  1.4289
 2522SOL    MW4 9822   5.398   2.558   1.443 -0.4004 -0.4956  0.3689
 2523SOL     OW 9823   1.570   0.320   4.372 -0.2046  0.3217 -0.3083
 2523SOL    HW2 9824   1.499   0.367   4.415 -0.1965  0.6262 -0.6236
 2523SOL    HW3 9825   1.536   0.301   4.285 -0.9297 -1.8969  0.3975
 2523SOL    MW4 9826   1.556   0.324   4.366 -0.2058 -0.4040  0.3295
 2524SOL     OW 9827   5.414   1.992   4.035 -0.0059 -0.0039  0.6015
 2524SOL    HW2 9828   5.445   2.001   4.126 -0.6447  1.5323  0.7037
 2524SOL    HW3 9829   5.382   2.079   4.013 -1.5082 -0.8017 -0.5028
 2524SOL    MW4 9830   5.414   2.005   4.044 -0.1834  0.8315 -0.1078
 2525SOL     OW 9831   4.662   3.178   0.063 -0.2261  0.5002  0.0689
 2525SOL    HW2 9832   4.658   3.169   0.158  2.3018 -2.9528  0.0646
 2525SOL    HW3 9833   4.627   3.095   0.030  3.2600 -0.4619 -1.6781
 2525SOL    MW4 9834   4.657   3.166   0.071  0.4466 -0.2574 -0.0982
 2526SOL     OW 9835   1.673   2.528   2.661  0.3424 -0.5429  0.0738
 2526SOL    HW2 9836   1.679   2.551   2.753 -1.5482  2.0424 -0.3035
 2526SOL    HW3 9837   1.583   2.550   2.637  1.2336  0.5919 -2.7339
 2526SOL    MW4 9838   1.662   2.534   2.670  0.4560  0.1476  0.2795
 2527SOL     OW 9839   3.242   4.517   1.644  0.3686 -0.1273  0.6417
 2527SOL    HW2 9840   3.270   4.608   1.649 -0.8210  0.2102  1.6613
 2527SOL    HW3 9841   3.304   4.469   1.699  0.2120  0.2785  1.1785
 2527SOL    MW4 9842   3.254   4.523   1.652  0.2299  0.3830  0.9446
 2528SOL     OW 9843   0.278   5.318   0.588 -0.1694 -1.0620 -0.1502
 2528SOL    HW2 9844   0.192   5.348   0.561  0.4698 -0.3800 -1.5274
 2528SOL    HW3 9845   0.339   5.375   0.541  1.0328 -1.1324  1.2519
 2528SOL    MW4 9846   0.275   5.330   0.578 -0.2806  0.2758 -0.0830
 2529SOL     OW 9847   5.013   6.012   3.422  0.2607 -0.0349  0.5131
 2529SOL    HW2 9848   4.980   5.931   3.459  0.1865  0.7841  2.3384
 2529SOL    HW3 9849   5.026   6.070   3.497  1.6599  1.1694 -0.5784
 2529SOL    MW4 9850   5.011   6.009   3.437  0.3524 -0.1034 -0.0568
 2530SOL     OW 9851   4.300   5.128   1.055 -0.3862 -0.2717  0.2325
 2530SOL    HW2 9852   4.342   5.123   0.969 -0.2861  0.7892  0.2023
 2530SOL    HW3 9853   4.304   5.221   1.078 -2.0187 -0.2628  0.5927
 2530SOL    MW4 9854   4.306   5.140   1.047 -0.6117 -0.4422 -0.5267
 2531SOL     OW 9855   3.207   1.389   5.589  0.6088 -0.0827 -0.0741
 2531SOL    HW2 9856   3.273   1.322   5.567  0.3976 -0.4446  0.3781
 2531SOL    HW3 9857   3.126   1.355   5.552  0.4280 -0.2623  0.4703
 2531SOL    MW4 9858   3.205   1.376   5.581 -0.5554 -0.3138 -0.4759
 2532SOL     OW 9859   2.217   1.475   6.250 -0.1179  0.0895  0.7342
 2532SOL    HW2 9860   2.311   1.491   6.245 -0.1788  0.3475  0.3771
 2532SOL    HW3 9861   2.183   1.548   6.302 -0.4966  1.6179 -1.5083
 2532SOL    MW4 9862   2.225   1.487   6.256  0.2830 -0.2859  1.0217
 2533SOL     OW 9863   2.401   6.191   0.074 -0.7750 -0.0046 -0.0572
 2533SOL    HW2 9864   2.349   6.125   0.121 -1.9718  0.2908 -0.9246
 2533SOL    HW3 9865   2.430   6.252   0.142  1.0904 -1.8435  0.9002
 2533SOL    MW4 9866   2.398   6.190   0.089  0.0453  0.8509 -0.1293
 2534SOL     OW 9867   1.533   4.909   1.806 -0.2176 -0.4425  0.3613
 2534SOL    HW2 9868   1.453   4.960   1.815  0.9507  1.1691  4.0751
 2534SOL    HW3 9869   1.508   4.820   1.828 -1.1887 -0.1523  0.4725
 2534SOL    MW4 9870   1.519   4.904   1.810  0.2128  0.8304  0.8877
 2535SOL     OW 9871   3.045   5.166   2.199 -0.7313  0.2780 -0.2447
 2535SOL    HW2 9872   3.014   5.213   2.276 -0.5854  2.2019 -1.2885
 2535SOL    HW3 9873   3.083   5.235   2.143 -2.1871 -0.7869 -2.7018
 2535SOL    MW4 9874   3.046   5.182   2.202  0.6304  0.3008 -0.5809
 2536SOL     OW 9875   1.615   1.850   2.382 -0.5487  0.2593  0.1781
 2536SOL    HW2 9876   1.608   1.790   2.456  0.2336  2.0044  1.7474
 2536SOL    HW3 9877   1.558   1.812   2.315  0.5499 -2.6465  0.7378
 2536SOL    MW4 9878   1.607   1.837   2.383  0.2651 -0.0695  0.0747
 2537SOL     OW 9879   6.109   2.998   3.010  0.6656  0.2618 -0.0675
 2537SOL    HW2 9880   6.117   3.056   2.934 -0.7439 -0.9338 -1.1873
 2537SOL    HW3 9881   6.021   2.962   3.004  0.5525  0.0286  2.1021
 2537SOL    MW4 9882   6.099   3.001   2.999  0.1848 -0.6667  0.3975
 2538SOL     OW 9883   6.233   0.635   1.646  0.3662  0.0698 -0.5575
 2538SOL    HW2 9884   6.160   0.574   1.652  0.0615  0.4846 -0.0054
 2538SOL    HW3 9885   6.261   0.630   1.554 -0.0166 -0.4790 -0.6458
 2538SOL    MW4 9886   6.227   0.627   1.634  0.1552 -0.3823 -0.3448
 2539SOL     OW 9887   6.362   3.328   2.301 -0.4118  0.1496  0.1190
 2539SOL    HW2 9888   6.364   3.411   2.349  0.7000  1.4208 -1.9869
 2539SOL    HW3 9889   6.270   3.313   2.283 -0.5270  1.9381 -1.0408
 2539SOL    MW4 9890   6.350   3.337   2.305 -0.0617 -0.3019 -0.1829
 2540SOL     OW 9891   3.937   5.042   1.747  0.3110  0.1345  0.5315
 2540SOL    HW2 9892   3.944   4.948   1.764 -1.4404 -0.0978  0.1517
 2540SOL    HW3 9893   4.014   5.064   1.695  2.1277 -0.5355  2.7701
 2540SOL    MW4 9894   3.948   5.033   1.742 -0.2431  0.0810 -0.5140
 2541SOL     OW 9895   2.144   6.160   3.190 -0.0557 -0.2101 -0.5604
 2541SOL    HW2 9896   2.195   6.205   3.257 -0.2056 -2.4607  1.1441
 2541SOL    HW3 9897   2.203   6.153   3.115  1.8793 -1.8528  1.0076
 2541SOL    MW4 9898   2.158   6.165   3.189 -0.2296 -0.2926 -0.3095
 2542SOL     OW 9899   5.137   4.016   4.854  0.2991 -0.2447  0.6157
 2542SOL    HW2 9900   5.218   4.058   4.824 -0.4905  2.3584  1.8539
 2542SOL    HW3 9901   5.165   3.959   4.926  1.3219 -1.4144 -0.6639
 2542SOL    MW4 9902   5.152   4.014   4.860 -0.1677  0.5926 -0.6325
 2543SOL     OW 9903   3.010   1.072   0.845  0.7330  0.1717 -0.3744
 2543SOL    HW2 9904   3.021   1.135   0.775  2.1980  0.0523 -0.2783
 2543SOL    HW3 9905   2.916   1.075   0.866  0.5413  1.2737 -1.3152
 2543SOL    MW4 9906   2.999   1.081   0.839  0.0833  0.5882 -0.0489
 2544SOL     OW 9907   3.718   2.286   5.614 -0.8766  0.1993  0.3651
 2544SOL    HW2 9908   3.624   2.301   5.626 -1.0895 -0.2225 -0.7018
 2544SOL    HW3 9909   3.749   2.365   5.570 -0.7246  0.3269  0.6937
 2544SOL    MW4 9910   3.710   2.299   5.610  0.1935  0.7721  0.1327
 2545SOL     OW 9911   4.239   3.607   4.407  0.2344  0.1970  0.1421
 2545SOL    HW2 9912   4.149   3.577   4.402  0.0202  0.9230 -0.6034
 2545SOL    HW3 9913   4.248   3.644   4.495 -0.4220  0.7879 -0.0305
 2545SOL    MW4 9914   4.229   3.608   4.418  0.1701 -0.0394 -0.4343
 2546SOL     OW 9915   4.753   5.862   2.893 -0.8774 -0.0291 -0.0020
 2546SOL    HW2 9916   4.837   5.829   2.861 -1.0431  0.0674 -0.5510
 2546SOL    HW3 9917   4.688   5.800   2.858 -1.1256  0.4799 -0.4573
 2546SOL    MW4 9918   4.755   5.849   2.884  0.1200 -0.2274  0.0692
 2547SOL     OW 9919   0.538   4.243   4.302 -0.6372  0.0898 -0.1635
 2547SOL    HW2 9920   0.624   4.242   4.261 -0.5510 -1.7118 -0.0343
 2547SOL    HW3 9921   0.549   4.190   4.381 -1.5989  0.7889  0.4599
 2547SOL    MW4 9922   0.551   4.236   4.307  0.3221 -0.0307  0.6405
 2548SOL     OW 9923   4.287   5.619   2.232  0.1506 -0.1494 -0.3250
 2548SOL    HW2 9924   4.218   5.552   2.230 -0.2046  0.2186 -0.4772
 2548SOL    HW3 9925   4.280   5.659   2.318  1.4388 -1.4074  0.4177
 2548SOL    MW4 9926   4.277   5.615   2.243 -0.4374  0.1191 -0.3005
 2549SOL     OW 9927   0.391   0.660   2.777  0.0887  0.1710  0.2384
 2549SOL    HW2 9928   0.429   0.573   2.780  0.6000  0.3879  0.1186
 2549SOL    HW3 9929   0.464   0.718   2.753 -0.7380  0.3076 -2.2841
 2549SOL    MW4 9930   0.406   0.656   2.774 -0.7616  0.0344 -0.0824
 2550SOL     OW 9931   4.526   4.765   5.350 -0.2495  0.0174 -0.0028
 2550SOL    HW2 9932   4.571   4.691   5.392 -0.2362  0.4151  0.7129
 2550SOL    HW3 9933   4.436   4.759   5.381 -0.3027  0.1668 -0.1301
 2550SOL    MW4 9934   4.520   4.754   5.360  0.1305 -0.1063 -0.4236
 2551SOL     OW 9935   4.245   4.225   0.126 -0.1130 -0.1398  0.3423
 2551SOL    HW2 9936   4.276   4.163   0.191  0.6847 -0.2601 -0.1381
 2551SOL    HW3 9937   4.317   4.233   0.063 -0.8390  0.0067 -0.5043
 2551SOL    MW4 9938   4.259   4.218   0.126  0.1762  0.2030 -0.0393
 2552SOL     OW 9939   1.775   3.226   0.045 -0.4007  0.6372  0.0070
 2552SOL    HW2 9940   1.790   3.226   0.140  1.3614  1.9597 -0.2120
 2552SOL    HW3 9941   1.863   3.234   0.007 -1.1889  1.8256 -1.6826
 2552SOL    MW4 9942   1.789   3.227   0.053 -0.6094 -0.0882 -0.2836
 2553SOL     OW 9943   4.767   2.148   4.433  0.9821 -0.1823 -0.1499
 2553SOL    HW2 9944   4.812   2.151   4.349  0.2664 -1.1300 -0.5859
 2553SOL    HW3 9945   4.803   2.071   4.477  0.3792 -0.4695 -0.1559
 2553SOL    MW4 9946   4.778   2.138   4.428  0.2639  0.4325  0.4090
 2554SOL     OW 9947   1.815   3.263   2.448 -0.2235 -0.2113 -0.2652
 2554SOL    HW2 9948   1.883   3.324   2.478  0.1344 -0.3155 -0.8685
 2554SOL    HW3 9949   1.852   3.221   2.371 -0.4708 -1.2031  0.1490
 2554SOL    MW4 9950   1.829   3.266   2.442  0.6671  0.3377 -0.0070
 2555SOL     OW 9951   5.556   3.118   2.003 -0.3300 -0.2517  0.3406
 2555SOL    HW2 9952   5.536   3.092   1.913  0.8578 -0.8389  0.2227
 2555SOL    HW3 9953   5.538   3.040   2.055  1.6076 -0.8494  0.2127
 2555SOL    MW4 9954   5.551   3.104   1.998 -0.0275  0.0477  0.4902
 2556SOL     OW 9955   4.451   3.029   1.726  0.2472 -0.1999  0.3313
 2556SOL    HW2 9956   4.417   3.010   1.638  0.1962  1.2484  0.0032
 2556SOL    HW3 9957   4.529   3.083   1.710 -1.0461  2.0604  1.1490
 2556SOL    MW4 9958   4.457   3.034   1.712 -0.0232 -0.2556  0.1805
 2557SOL     OW 9959   1.234   0.247   0.546  0.0366  0.5704  0.7385
 2557SOL    HW2 9960   1.272   0.335   0.542  1.2718  0.3190  3.8766
 2557SOL    HW3 9961   1.308   0.188   0.544 -0.8380 -0.6350 -2.6273
 2557SOL    MW4 9962   1.249   0.251   0.546 -0.5750  0.3018 -0.0416
 2558SOL     OW 9963   2.864   5.720   4.204  0.1972  0.0329 -0.0251
 2558SOL    HW2 9964   2.947   5.741   4.245 -0.0077  1.4143 -0.2745
 2558SOL    HW3 9965   2.888   5.678   4.121  0.6574  0.8273 -0.3021
 2558SOL    MW4 9966   2.878   5.717   4.198  0.2925  0.2569  0.3751
 2559SOL     OW 9967   4.786   4.633   3.899  0.0799  0.1750  0.4637
 2559SOL    HW2 9968   4.734   4.555   3.878 -1.0287  0.2413  2.6142
 2559SOL    HW3 9969   4.750   4.702   3.843 -0.6922 -0.2910  0.3648
 2559SOL    MW4 9970   4.774   4.632   3.889 -0.0850  0.1070 -0.8198
 2560SOL     OW 9971   2.276   2.003   0.389 -0.1272 -0.4017 -0.9616
 2560SOL    HW2 9972   2.190   1.973   0.360 -1.1058 -1.5614  2.6295
 2560SOL    HW3 9973   2.336   1.933   0.363 -1.1591 -1.9955  0.6960
 2560SOL    MW4 9974   2.273   1.990   0.381  0.6491 -0.3005  0.4171
 2561SOL     OW 9975   2.440   1.189   0.267 -0.1297 -0.0660 -0.0142
 2561SOL    HW2 9976   2.387   1.205   0.189  0.2045  0.4607 -0.1365
 2561SOL    HW3 9977   2.453   1.276   0.306 -1.3969 -0.4499  1.3633
 2561SOL    MW4 9978   2.435   1.203   0.262 -0.3401  0.0594 -0.5131
 2562SOL     OW 9979   2.306   6.333   3.369 -0.0483 -0.4332 -0.6059
 2562SOL    HW2 9980   2.370   6.342   3.299 -0.4305 -0.2733 -0.9343
 2562SOL    HW3 9981   2.280   6.423   3.390  1.1155 -0.3629  0.7258
 2562SOL    MW4 9982   2.311   6.346   3.363 -0.1724 -0.3709 -0.2521
 2563SOL     OW 9983   3.887   4.937   4.779  0.1167  0.0492  0.6392
 2563SOL    HW2 9984   3.840   5.017   4.758 -2.4669 -0.6891  3.1147
 2563SOL    HW3 9985   3.846   4.870   4.724  0.6100 -0.0416  0.3681
 2563SOL    MW4 9986   3.876   4.939   4.769  0.2199  0.4186 -0.2533
 2564SOL     OW 9987   1.607   2.780   2.167  0.2543  0.1963  0.0326
 2564SOL    HW2 9988   1.520   2.788   2.129  0.6708 -0.5505 -1.1292
 2564SOL    HW3 9989   1.610   2.690   2.201  0.5063  0.2805  0.2365
 2564SOL    MW4 9990   1.596   2.769   2.167  0.3057 -0.9387 -0.2836
 2565SOL     OW 9991   1.934   5.096   1.965 -0.2204 -0.3449  0.1246
 2565SOL    HW2 9992   1.948   5.188   1.988  0.2532 -0.8891  2.1384
 2565SOL    HW3 9993   2.017   5.068   1.927  0.0543 -0.2779  0.6727
 2565SOL    MW4 9994   1.947   5.105   1.963 -0.2894  0.0885  0.4714
 2566SOL     OW 9995   5.331   6.166   6.099  0.2462 -0.1654  0.3864
 2566SOL    HW2 9996   5.284   6.233   6.049 -1.2205 -1.7229 -0.4215
 2566SOL    HW3 9997   5.419   6.164   6.059 -0.3560 -0.1760 -0.9977
 2566SOL    MW4 9998   5.337   6.174   6.087 -0.2545  0.1382 -0.3614
 2567SOL     OW 9999   5.032   0.237   2.625 -0.1304  0.2904 -0.0920
 2567SOL    HW210000   5.067   0.203   2.542 -1.0354  1.6111 -1.0614
 2567SOL    HW310001   4.943   0.201   2.629  0.2898 -0.6979  0.9096
 2567SOL    MW410002   5.025   0.227   2.615  0.3606 -0.3533 -0.1438
 2568SOL     OW10003   3.398   0.691   6.076  0.1066 -0.4564 -0.6566
 2568SOL    HW210004   3.309   0.677   6.107  0.0874 -0.5435 -0.7480
 2568SOL    HW310005   3.430   0.603   6.055 -0.3412 -0.3003 -2.1345
 2568SOL    MW410006   3.390   0.678   6.077  0.2699 -0.4418  0.0539
 2569SOL     OW10007   1.243   1.087   0.544 -0.0318  0.4921 -0.5197
 2569SOL    HW210008   1.305   1.103   0.615 -1.0749 -2.8020  1.3533
 2569SOL    HW310009   1.276   1.138   0.471  3.5910  0.6584  1.0387
 2569SOL    MW410010   1.255   1.096   0.544  0.3213 -0.1285  0.1271
 2570SOL     OW10011   0.685   0.672   0.120 -0.4498  0.1605  0.8768
 2570SOL    HW210012   0.646   0.709   0.200 -0.0255  1.0535  0.6822
 2570SOL    HW310013   0.723   0.589   0.149  0.5207  0.8938  1.8414
 2570SOL    MW410014   0.685   0.666   0.134 -0.3031 -0.5406 -0.1513
 2571SOL     OW10015   0.960   3.132   1.001 -0.1936 -0.1693  0.8212
 2571SOL    HW210016   1.041   3.147   1.050  0.2285  0.2370  0.0162
 2571SOL    HW310017   0.950   3.037   1.001  0.0714 -0.2017  1.2536
 2571SOL    MW410018   0.970   3.121   1.007 -0.2183  0.8456  0.3807
 2572SOL     OW10019   0.904   3.581   4.642 -0.6182 -0.6062  0.4183
 2572SOL    HW210020   0.897   3.562   4.548  0.9812  1.6563 -0.2454
 2572SOL    HW310021   0.817   3.561   4.676 -3.2329  3.6231 -2.6635
 2572SOL    MW410022   0.891   3.576   4.634  0.4207 -0.6811 -0.2425
 2573SOL     OW10023   2.544   2.756   3.441 -0.2357 -0.2354  0.4768
 2573SOL    HW210024   2.571   2.756   3.533  0.2053  0.6888  0.3566
 2573SOL    HW310025   2.609   2.811   3.397  0.4918 -1.9205 -0.6770
 2573SOL    MW410026   2.556   2.763   3.447 -0.2777 -0.1189 -0.3560
 2574SOL     OW10027   1.461   6.329   3.179  0.2567 -0.3466  0.3688
 2574SOL    HW210028   1.467   6.278   3.098  1.9221  0.0538  0.2072
 2574SOL    HW310029   1.387   6.289   3.226  0.8226 -2.2169 -0.2236
 2574SOL    MW410030   1.452   6.317   3.174 -0.1948 -0.3906  0.2548
 2575SOL     OW10031   4.646   3.793   5.349  0.2620  0.6068  0.1645
 2575SOL    HW210032   4.572   3.832   5.303  0.2752  1.7833  1.1009
 2575SOL    HW310033   4.653   3.705   5.313  0.7901  1.7150 -2.6830
 2575SOL    MW410034   4.637   3.786   5.338  0.0667 -0.3595 -0.0096
 2576SOL     OW10035   2.352   6.182   1.769 -0.5282  0.4166 -0.0498
 2576SOL    HW210036   2.355   6.091   1.739 -1.9402  0.6541 -1.0212
 2576SOL    HW310037   2.420   6.226   1.718 -1.6622  0.4315 -1.6214
 2576SOL    MW410038   2.361   6.176   1.758  0.1133  0.3569 -0.1842
 2577SOL     OW10039   1.156   6.232   0.352  0.3062  0.5815 -0.1059
 2577SOL    HW210040   1.075   6.247   0.402  0.1205  1.1865 -0.5799
 2577SOL    HW310041   1.195   6.319   0.343  0.4442  0.4467 -0.8381
 2577SOL    MW410042   1.150   6.246   0.358 -0.2584  0.4048  0.9248
 2578SOL     OW10043   1.426   4.881   0.020 -0.1230  0.0333 -0.5472
 2578SOL    HW210044   1.390   4.920   0.099  0.9270 -0.1710  0.0407
 2578SOL    HW310045   1.521   4.888   0.030  0.0432 -0.9467 -1.3018
 2578SOL    MW410046   1.434   4.887   0.032 -0.5080  0.0588  0.2280
 2579SOL     OW10047   1.917   5.921   0.428 -0.2213  0.1419 -0.3764
 2579SOL    HW210048   1.914   5.853   0.361  0.9220 -1.4338  1.0867
 2579SOL    HW310049   2.008   5.922   0.458 -0.6825  0.8306  1.0962
 2579SOL    MW410050   1.928   5.912   0.423  0.1960 -0.0736  0.0623
 2580SOL     OW10051   5.782   6.041   1.639 -0.4624 -0.3759 -0.4356
 2580SOL    HW210052   5.804   5.983   1.566 -1.3458  0.4066 -1.3465
 2580SOL    HW310053   5.693   6.016   1.664  0.4896 -1.9378  1.6896
 2580SOL    MW410054   5.773   6.030   1.633 -0.1861  0.2278  0.3646
 2581SOL     OW10055   3.022   6.220   5.542  0.0068  0.4834  0.0259
 2581SOL    HW210056   3.112   6.253   5.533  0.0979 -0.3083 -3.5499
 2581SOL    HW310057   3.031   6.125   5.535 -1.0920  0.4144 -0.5868
 2581SOL    MW410058   3.035   6.212   5.540 -0.0415  0.4978 -0.8706
 2582SOL     OW10059   0.008   4.784   0.321 -0.3679  0.0071 -0.4494
 2582SOL    HW210060  -0.038   4.701   0.313  0.6186 -0.5292 -0.6997
 2582SOL    HW310061   0.066   4.773   0.397 -0.6698  0.6810 -0.1126
 2582SOL    MW410062   0.010   4.772   0.330 -0.0741  0.2932 -0.5302
 2583SOL     OW10063   1.385   5.958   2.793 -0.3665 -0.5379 -0.3370
 2583SOL    HW210064   1.382   5.875   2.841  0.7293 -1.1791 -1.3250
 2583SOL    HW310065   1.447   6.012   2.841  0.3263 -0.9822 -0.7265
 2583SOL    MW410066   1.392   5.954   2.806  0.1832 -0.1047  0.0460
 2584SOL     OW10067   1.466   2.884   4.757  0.9007  0.0808  0.3723
 2584SOL    HW210068   1.400   2.896   4.825 -1.1814 -1.0045 -1.3371
 2584SOL    HW310069   1.525   2.959   4.767  0.2656  0.3320  2.8600
 2584SOL    MW410070   1.465   2.896   4.767  0.1978 -0.3391 -0.1193
 2585SOL     OW10071   5.544   0.947   1.021 -0.0508 -0.5288 -0.3238
 2585SOL    HW210072   5.527   1.003   1.097  0.1276 -1.0470  0.1031
 2585SOL    HW310073   5.578   1.007   0.955 -0.0949 -0.0896  0.0432
 2585SOL    MW410074   5.546   0.962   1.022  0.3865  0.3677  0.0919
 2586SOL     OW10075   3.730   6.024   5.901  0.6638  0.2169 -0.0398
 2586SOL    HW210076   3.805   6.047   5.846  0.3776  0.3632 -0.3648
 2586SOL    HW310077   3.675   5.969   5.846 -0.8762  2.3659 -0.7762
 2586SOL    MW410078   3.733   6.020   5.887 -0.9523  0.7759  0.0729
 2587SOL     OW10079   1.354   0.747   1.296 -0.6734  0.2980  0.0776
 2587SOL    HW210080   1.341   0.840   1.279 -0.5494  0.1095 -1.0750
 2587SOL    HW310081   1.324   0.703   1.217  0.0745 -0.5923  0.2759
 2587SOL    MW410082   1.348   0.754   1.283  0.1718  0.4810 -0.1866
 2588SOL     OW10083   4.687   2.902   0.966 -0.4402 -0.5051  0.5516
 2588SOL    HW210084   4.726   2.828   0.919  2.0782  1.3928 -0.5722
 2588SOL    HW310085   4.744   2.976   0.947 -0.7387  1.0154  4.5408
 2588SOL    MW410086   4.700   2.902   0.958 -0.4220  0.2194 -0.8768
 2589SOL     OW10087   3.854   1.522   5.006  0.7675  0.0056  0.3781
 2589SOL    HW210088   3.924   1.581   4.978  0.2058  1.2174  1.4340
 2589SOL    HW310089   3.810   1.569   5.077 -1.6645 -0.3247 -0.8152
 2589SOL    MW410090   3.858   1.536   5.012 -0.2432  0.4827 -0.0387
 2590SOL     OW10091   3.437   3.266   0.659 -0.6718 -0.3147 -0.1363
 2590SOL    HW210092   3.469   3.345   0.615  0.2531 -0.8539 -0.4569
 2590SOL    HW310093   3.363   3.297   0.712 -1.1687  0.5341 -1.2634
 2590SOL    MW410094   3.431   3.281   0.660 -0.3636  0.0823  0.3525
 2591SOL     OW10095   6.286   0.218   2.240  0.5707  0.2462 -0.0689
 2591SOL    HW210096   6.317   0.165   2.166 -0.6564  1.0833 -1.2246
 2591SOL    HW310097   6.297   0.161   2.316  0.1018 -1.3464 -1.1485
 2591SOL    MW410098   6.292   0.203   2.240  0.6098 -0.4990  0.5877
 2592SOL     OW10099   6.280   3.638   1.411  0.2623 -0.1615 -0.0308
 2592SOL    HW210100   6.371   3.631   1.439  0.1853  0.0148  0.2787
 2592SOL    HW310101   6.247   3.716   1.457  0.5089  0.9687 -1.7117
 2592SOL    MW410102   6.287   3.647   1.421 -0.2501  0.2262  0.2242
 2593SOL     OW10103   2.534   2.978   4.404  0.1191 -0.5082  0.1558
 2593SOL    HW210104   2.501   3.035   4.334 -1.0817 -0.1588  0.9696
 2593SOL    HW310105   2.521   2.889   4.370 -1.9278 -0.3997  0.5039
 2593SOL    MW410106   2.528   2.974   4.390  0.0291 -0.1800  0.1977
 2594SOL     OW10107   4.184   4.003   1.792 -0.2875 -0.7727 -0.5371
 2594SOL    HW210108   4.277   4.012   1.771  0.0489 -1.5661  0.5414
 2594SOL    HW310109   4.177   3.917   1.834 -1.1328  0.2090  1.4222
 2594SOL    MW410110   4.196   3.993   1.795  0.3461  0.0165  0.3669
 2595SOL     OW10111   2.926   0.422   4.556 -0.1452  0.3391  0.2904
 2595SOL    HW210112   2.843   0.379   4.538  0.4627 -0.0198 -2.0667
 2595SOL    HW310113   2.954   0.457   4.471  2.3837 -0.0976  0.8404
 2595SOL    MW410114   2.919   0.421   4.542  0.2653 -0.1523 -0.0886
 2596SOL     OW10115   4.386   3.522   1.229  0.1538  0.1261 -0.7447
 2596SOL    HW210116   4.471   3.511   1.185 -0.0103  0.4948 -1.1594
 2596SOL    HW310117   4.375   3.616   1.236 -0.1647  0.0761 -0.5734
 2596SOL    MW410118   4.396   3.533   1.224  0.5525  0.5197 -0.3516
 2597SOL     OW10119   0.717   5.546   1.382 -0.0932 -0.1023 -0.3480
 2597SOL    HW210120   0.789   5.489   1.354 -0.6633 -1.2248  0.3978
 2597SOL    HW310121   0.746   5.580   1.466 -0.7994 -1.3068  0.4126
 2597SOL    MW410122   0.730   5.543   1.389  0.3524  0.0307  0.1376
 2598SOL     OW10123   4.528   2.862   2.967  0.5798 -0.6944 -0.1082
 2598SOL    HW210124   4.441   2.895   2.992  0.9932  0.8407 -0.5602
 2598SOL    HW310125   4.571   2.843   3.050  0.6300  0.8134  0.2462
 2598SOL    MW410126   4.522   2.864   2.981 -0.1906 -0.5363  0.5039
 2599SOL     OW10127   1.801   5.397   2.944  0.0183  0.5372  0.3557
 2599SOL    HW210128   1.714   5.371   2.914 -0.2314  1.5385  0.1610
 2599SOL    HW310129   1.785   5.451   3.021  0.3288  2.1406 -0.6526
 2599SOL    MW410130   1.787   5.401   2.950 -0.1092 -0.9284 -0.4153
 2600SOL     OW10131   0.416   4.334   2.753 -0.3125 -0.7042  0.6721
 2600SOL    HW210132   0.470   4.334   2.674 -0.5732  1.7061  0.4062
 2600SOL    HW310133   0.336   4.288   2.727 -0.8729  1.0144 -0.8898
 2600SOL    MW410134   0.413   4.328   2.739 -0.6574 -0.0737 -0.2431
 2601SOL     OW10135   2.659   1.399   2.743  0.2448 -0.3515  0.3123
 2601SOL    HW210136   2.593   1.368   2.681 -1.1471 -2.1113  2.5173
 2601SOL    HW310137   2.646   1.493   2.747 -1.5158 -0.5512 -0.0008
 2601SOL    MW410138   2.649   1.407   2.735  0.4293 -0.2563 -0.1842
 2602SOL     OW10139   4.097   2.085   4.967  0.4459  0.6884  0.2733
 2602SOL    HW210140   4.053   2.124   5.043  0.3711  2.0298 -0.4273
 2602SOL    HW310141   4.027   2.062   4.907  0.5927  1.0232 -0.0267
 2602SOL    MW410142   4.082   2.087   4.969  0.0852  0.1197 -0.0290
 2603SOL     OW10143   2.897   4.334   4.370  0.1800 -0.1904  0.1083
 2603SOL    HW210144   2.975   4.383   4.393 -0.4760  0.2175  1.5722
 2603SOL    HW310145   2.886   4.348   4.276  1.0726  0.8939  0.1525
 2603SOL    MW410146   2.906   4.342   4.361 -0.5345 -0.0087 -0.3311
 2604SOL     OW10147   0.885   3.329   3.371  0.7322  0.1167 -0.1074
 2604SOL    HW210148   0.961   3.272   3.386  1.0469  0.5088 -0.1811
 2604SOL    HW310149   0.871   3.373   3.455 -0.3168 -1.0137  0.3284
 2604SOL    MW410150   0.893   3.327   3.384  0.2243  0.3135 -0.3887
 2605SOL     OW10151   6.308   0.054   2.456 -0.7042  0.9946 -0.6164
 2605SOL    HW210152   6.391   0.011   2.437  0.3227  2.9403 -0.7619
 2605SOL    HW310153   6.243   0.002   2.409  0.3650 -0.7240 -0.2936
 2605SOL    MW410154   6.310   0.042   2.448 -0.0933  0.3506  0.7229
 2606SOL     OW10155   4.306   0.489   3.428 -0.0101  0.2616  0.6609
 2606SOL    HW210156   4.235   0.554   3.435 -2.6522 -2.1305 -1.4636
 2606SOL    HW310157   4.312   0.451   3.516 -3.1163 -1.0093  0.4687
 2606SOL    MW410158   4.297   0.493   3.441  0.2171 -0.1971  0.2282
 2607SOL     OW10159   1.006   1.106   2.692 -0.6259  0.3730  0.2746
 2607SOL    HW210160   1.017   1.047   2.618  0.9162  0.9592 -0.0043
 2607SOL    HW310161   1.002   1.194   2.654 -0.2456  0.6493  0.8513
 2607SOL    MW410162   1.007   1.110   2.677 -0.0381 -0.0624 -0.2910
 2608SOL     OW10163   2.530   4.750   1.551  0.7639 -0.1935  0.5909
 2608SOL    HW210164   2.456   4.694   1.529 -1.4130  2.7368 -0.1610
 2608SOL    HW310165   2.509   4.783   1.639  1.8982 -0.3822  0.9450
 2608SOL    MW410166   2.517   4.747   1.560 -0.7339  0.0639 -0.7584
 2609SOL     OW10167   3.903   3.960   5.414  0.0243 -0.8040  0.2361
 2609SOL    HW210168   3.847   4.029   5.447  1.6631 -0.6103  2.8724
 2609SOL    HW310169   3.992   3.992   5.427  0.8191 -2.3873 -0.8589
 2609SOL    MW410170   3.907   3.973   5.420  0.0694  0.1969  0.9277
 2610SOL     OW10171   6.183   1.571   0.173  0.1390 -0.3205  0.1357
 2610SOL    HW210172   6.184   1.660   0.136 -0.2969  0.2260  1.3952
 2610SOL    HW310173   6.145   1.518   0.104  0.3074  0.4847 -0.6051
 2610SOL    MW410174   6.178   1.576   0.159  0.0881 -0.3245 -0.6172
 2611SOL     OW10175   2.676   3.114   5.251 -0.1098 -0.3820 -0.2828
 2611SOL    HW210176   2.678   3.137   5.158 -0.3304 -0.5881 -0.3416
 2611SOL    HW310177   2.727   3.182   5.294 -0.6354  0.1387 -0.4685
 2611SOL    MW410178   2.683   3.126   5.244  0.0038 -0.2960  0.1520
 2612SOL     OW10179   1.340   1.162   6.195 -0.0695  0.3394  0.2519
 2612SOL    HW210180   1.347   1.211   6.113  1.7464 -1.6220 -0.8360
 2612SOL    HW310181   1.383   1.078   6.178  0.2179 -0.2226  3.1579
 2612SOL    MW410182   1.346   1.158   6.182 -0.1808 -0.8358 -0.2079
 2613SOL     OW10183   3.698   3.216   0.487 -0.6260 -0.1310  0.2848
 2613SOL    HW210184   3.629   3.257   0.434 -0.3189  1.1246  0.8171
 2613SOL    HW310185   3.779   3.232   0.437 -0.4239  0.4696  0.7868
 2613SOL    MW410186   3.700   3.224   0.473  0.6008 -0.1597 -0.4516
 2614SOL     OW10187   1.761   4.080   1.340  0.0671 -0.1650 -0.3655
 2614SOL    HW210188   1.750   4.028   1.260  3.5380  0.7862 -1.6276
 2614SOL    HW310189   1.824   4.031   1.392  1.3247  1.3901 -0.3495
 2614SOL    MW410190   1.767   4.067   1.336 -0.0929  0.0572 -0.0298
 2615SOL     OW10191   0.122   0.273   2.230 -0.6022 -0.1131 -0.3476
 2615SOL    HW210192   0.027   0.274   2.242 -0.4282  0.0328  1.1249
 2615SOL    HW310193   0.150   0.189   2.267  0.1873  1.2638  2.3933
 2615SOL    MW410194   0.113   0.262   2.236 -0.5126  0.5703  0.9788
 2616SOL     OW10195   1.463   4.369   6.065 -0.0021  0.4871  0.3284
 2616SOL    HW210196   1.479   4.439   6.001  0.5545  0.1748  0.1249
 2616SOL    HW310197   1.377   4.389   6.100  0.1785  1.3215  0.3200
 2616SOL    MW410198   1.454   4.381   6.061 -0.4097  0.0608  0.5080
 2617SOL     OW10199   2.775   4.818   4.725 -0.3908  0.2221 -0.2039
 2617SOL    HW210200   2.696   4.824   4.671 -0.9112  1.9118  0.6731
 2617SOL    HW310201   2.742   4.826   4.815  0.6914 -0.1999  0.2450
 2617SOL    MW410202   2.760   4.820   4.730  0.2220 -0.3247 -0.4999
 2618SOL     OW10203   4.106   1.464   3.431  0.6002  0.2264 -0.3056
 2618SOL    HW210204   4.133   1.399   3.366 -1.5885 -2.1219  0.9529
 2618SOL    HW310205   4.046   1.522   3.383  0.3227 -0.4413 -0.7807
 2618SOL    MW410206   4.101   1.463   3.416  0.3250  0.6140  0.1849
 2619SOL     OW10207   0.464   5.252   2.002 -0.0263 -0.0804  0.2539
 2619SOL    HW210208   0.409   5.310   2.055 -0.5411 -0.7332  0.4544
 2619SOL    HW310209   0.554   5.280   2.022 -0.2210 -0.1157  1.2481
 2619SOL    MW410210   0.469   5.263   2.012  0.4332 -0.3657 -0.4621
 2620SOL     OW10211   2.737   5.729   1.774 -0.1483 -0.3556 -0.0360
 2620SOL    HW210212   2.643   5.734   1.791  0.0809  0.0630  1.2328
 2620SOL    HW310213   2.777   5.768   1.851  1.1092 -1.4335 -0.1135
 2620SOL    MW410214   2.730   5.735   1.786  0.4398  0.0344  0.6355
 2621SOL     OW10215   0.202   3.500   0.704 -0.2385  0.0132 -0.6147
 2621SOL    HW210216   0.154   3.448   0.769  0.6420  1.4757  1.2860
 2621SOL    HW310217   0.178   3.591   0.724 -2.0116  0.4697 -4.0570
 2621SOL    MW410218   0.192   3.505   0.715 -0.6374  0.4303 -0.3841
 2622SOL     OW10219   5.116   4.288   2.798  1.1058 -0.5980  0.2154
 2622SOL    HW210220   5.185   4.255   2.740 -0.0249 -1.9897 -0.3912
 2622SOL    HW310221   5.161   4.304   2.881  2.2419 -1.0850 -0.2833
 2622SOL    MW410222   5.131   4.286   2.801 -0.4438 -0.2780  0.0183
 2623SOL     OW10223   5.988   6.220   6.236 -0.1208 -0.8940  0.0096
 2623SOL    HW210224   6.038   6.279   6.179  0.8077 -0.9693  0.7335
 2623SOL    HW310225   5.902   6.261   6.243 -0.0152 -0.4979 -0.8374
 2623SOL    MW410226   5.983   6.233   6.229  0.6093  0.6083  0.2730
 2624SOL     OW10227   3.248   1.502   1.721  0.2516 -0.2806  0.1929
 2624SOL    HW210228   3.202   1.421   1.697 -0.4674  0.1801 -0.0128
 2624SOL    HW310229   3.330   1.498   1.672  0.7032 -1.3799  0.9916
 2624SOL    MW410230   3.252   1.491   1.711 -0.4076 -0.4957  0.4037
 2625SOL     OW10231   1.209   1.159   4.761  0.0848 -0.5348  0.1206
 2625SOL    HW210232   1.160   1.109   4.827 -1.1638 -1.1592 -1.2174
 2625SOL    HW310233   1.185   1.250   4.778 -3.5834 -0.9140 -1.8871
 2625SOL    MW410234   1.199   1.165   4.772  0.9022 -0.2791 -0.4797
 2626SOL     OW10235   0.728   1.635   5.331  0.1469 -0.0508  0.4523
 2626SOL    HW210236   0.667   1.608   5.262  0.6178  1.3835 -0.5710
 2626SOL    HW310237   0.679   1.700   5.382  0.4577  0.3316  0.2681
 2626SOL    MW410238   0.713   1.640   5.329  0.2599 -0.1455 -0.9332
 2627SOL     OW10239   0.841   1.519   6.061 -0.0828  0.1194  0.1909
 2627SOL    HW210240   0.790   1.461   6.004 -0.1853 -3.2683  3.2745
 2627SOL    HW310241   0.777   1.551   6.125  0.6958  0.1920  0.9552
 2627SOL    MW410242   0.825   1.515   6.062 -0.0771 -0.1771 -0.3212
 2628SOL     OW10243   1.262   4.116   5.751  0.4244 -0.2395 -0.2877
 2628SOL    HW210244   1.349   4.109   5.788  0.0196 -0.2218  0.7062
 2628SOL    HW310245   1.271   4.177   5.678  1.1001  0.3310  0.2673
 2628SOL    MW410246   1.274   4.123   5.746 -0.6057 -0.4228 -0.0821
 2629SOL     OW10247   3.034   1.082   6.132 -0.6719  0.0365 -0.2126
 2629SOL    HW210248   2.995   1.041   6.055 -0.7520 -0.5851  0.1508
 2629SOL    HW310249   2.969   1.146   6.160 -1.0938 -0.4476 -0.0691
 2629SOL    MW410250   3.020   1.085   6.126 -0.7983 -0.2353  0.4100
 2630SOL     OW10251   0.620   0.185   4.818  0.5503  0.2532  0.0119
 2630SOL    HW210252   0.600   0.192   4.724  0.7074  0.7943  0.0191
 2630SOL    HW310253   0.629   0.091   4.833 -0.6695  0.0641 -0.2733
 2630SOL    MW410254   0.618   0.173   4.808  0.1972 -0.6145 -0.1705
 2631SOL     OW10255   3.669   0.772   4.368 -0.0792  0.3007 -0.0973
 2631SOL    HW210256   3.682   0.682   4.339 -0.2541  0.7320 -1.5543
 2631SOL    HW310257   3.755   0.798   4.402  0.0222 -0.3390  0.1679
 2631SOL    MW410258   3.682   0.763   4.369 -0.0856 -0.2173  0.0811
 2632SOL     OW10259   3.714   3.394   2.319  0.6067  0.2379 -0.4149
 2632SOL    HW210260   3.748   3.325   2.377  0.7801 -0.7148 -1.6207
 2632SOL    HW310261   3.707   3.471   2.376 -1.6513 -1.2680  1.5712
 2632SOL    MW410262   3.717   3.395   2.334  0.0873 -0.3945  0.1520
 2633SOL     OW10263   1.815   5.397   2.610 -0.1158 -0.2560 -0.1609
 2633SOL    HW210264   1.881   5.401   2.541  0.2280  2.0598  0.2221
 2633SOL    HW310265   1.849   5.332   2.672  1.2033 -0.0177 -0.5900
 2633SOL    MW410266   1.828   5.389   2.609  0.0233  0.0763  0.1435
 2634SOL     OW10267   4.353   2.730   4.658 -0.1508  0.1722  0.1099
 2634SOL    HW210268   4.346   2.719   4.753  1.1269  1.2819  0.3538
 2634SOL    HW310269   4.262   2.723   4.627 -0.6147  0.0503  1.4272
 2634SOL    MW410270   4.340   2.727   4.667 -0.2802 -0.3362 -0.5057
 2635SOL     OW10271   2.033   0.861   4.950  0.4406  0.5258  0.4349
 2635SOL    HW210272   2.035   0.957   4.949  1.0739  0.5123  0.1960
 2635SOL    HW310273   2.064   0.835   4.863 -0.7133  0.1108  0.1288
 2635SOL    MW410274   2.037   0.870   4.938  1.0965 -0.0770 -0.6149
 2636SOL     OW10275   5.948   0.473   3.819 -0.1942 -0.1865 -0.3925
 2636SOL    HW210276   6.033   0.458   3.778  0.0784  2.0955 -0.8095
 2636SOL    HW310277   5.885   0.433   3.759  0.2155  2.7037 -3.0599
 2636SOL    MW410278   5.951   0.466   3.806  0.0685 -0.3784  0.0493
 2637SOL     OW10279   5.897   1.489   2.901 -0.3682  0.0705 -0.0735
 2637SOL    HW210280   5.980   1.458   2.937  0.6495  0.9243 -1.5615
 2637SOL    HW310281   5.919   1.571   2.858 -2.4906  1.5799  1.5452
 2637SOL    MW410282   5.911   1.495   2.900  0.1868 -0.4727 -0.2732
 2638SOL     OW10283   4.023   4.543   1.041 -0.3498 -0.2670 -0.3519
 2638SOL    HW210284   3.970   4.622   1.059 -1.6520 -1.2409  0.2630
 2638SOL    HW310285   4.073   4.530   1.122 -2.5615 -1.8605  0.8680
 2638SOL    MW410286   4.023   4.552   1.054 -0.5924  0.3839  0.1648
 2639SOL     OW10287   0.743   0.452   4.888  0.0960  0.1912 -0.0389
 2639SOL    HW210288   0.698   0.370   4.868 -0.1485  0.5858 -1.1166
 2639SOL    HW310289   0.818   0.453   4.829  0.4332  0.4783  0.3835
 2639SOL    MW410290   0.747   0.441   4.878 -0.0298  0.4002  0.2092
 2640SOL     OW10291   0.266   5.865   3.985 -0.0667 -0.5393  0.1423
 2640SOL    HW210292   0.222   5.859   4.070 -0.5255  1.2912  0.0800
 2640SOL    HW310293   0.238   5.950   3.950 -0.5768 -1.6378 -2.2408
 2640SOL    MW410294   0.257   5.876   3.992  0.2474  0.3449  0.0486
 2641SOL     OW10295   3.947   5.843   2.983  0.1454 -0.8316 -0.2009
 2641SOL    HW210296   3.866   5.842   3.035  0.9612 -0.1061  1.1396
 2641SOL    HW310297   4.017   5.838   3.048  1.2153  0.1823 -1.2289
 2641SOL    MW410298   3.945   5.842   2.999  0.4410 -0.0776  0.3777
 2642SOL     OW10299   0.884   0.156   4.593  0.0366  0.7802 -0.1310
 2642SOL    HW210300   0.951   0.224   4.592  0.4013  0.4353  0.4053
 2642SOL    HW310301   0.867   0.140   4.685  0.1222 -0.0107 -0.2398
 2642SOL    MW410302   0.891   0.163   4.605 -0.9836 -0.1943  0.9107
 2643SOL     OW10303   0.569   0.974   0.514  0.3082 -0.3416 -0.2994
 2643SOL    HW210304   0.634   1.044   0.519  0.6466 -0.7181  0.9889
 2643SOL    HW310305   0.606   0.912   0.452  2.1024 -1.4117  1.7070
 2643SOL    MW410306   0.583   0.975   0.506 -0.6277 -0.0063  0.2824
 2644SOL     OW10307   1.665   2.085   0.070  0.3617 -0.2012  0.2137
 2644SOL    HW210308   1.729   2.115   0.005  0.5398 -0.0408  0.4631
 2644SOL    HW310309   1.580   2.107   0.032  0.3884 -1.5180 -0.6847
 2644SOL    MW410310   1.662   2.092   0.056 -0.1008 -0.6848  0.3254
 2645SOL     OW10311   5.098   0.906   2.981 -0.3456 -0.0501 -0.0008
 2645SOL    HW210312   5.160   0.868   2.919 -1.2736 -1.7246  0.0292
 2645SOL    HW310313   5.022   0.849   2.976 -2.0204  2.0827 -0.2205
 2645SOL    MW410314   5.096   0.894   2.972  0.2674  0.6052 -0.1155
 2646SOL     OW10315   2.261   0.349   2.345  0.1921  0.0050  0.2096
 2646SOL    HW210316   2.234   0.358   2.254  2.6495 -0.0787 -0.6198
 2646SOL    HW310317   2.240   0.258   2.367 -1.5162  0.3614  0.1688
 2646SOL    MW410318   2.255   0.338   2.336  0.1039 -0.5941  0.0992
 2647SOL     OW10319   3.528   4.832   4.042  0.4419  0.0151 -0.0415
 2647SOL    HW210320   3.610   4.783   4.046  0.1726 -0.3595  1.3253
 2647SOL    HW310321   3.555   4.923   4.034  1.0034 -0.0711  0.7510
 2647SOL    MW410322   3.542   4.837   4.042 -0.1178  0.8377 -0.4694
 2648SOL     OW10323   3.194   2.877   4.660 -0.0373 -0.1966 -0.0291
 2648SOL    HW210324   3.148   2.961   4.654 -1.5672 -0.9002  1.2237
 2648SOL    HW310325   3.266   2.885   4.597  0.8467  2.6415  1.1950
 2648SOL    MW410326   3.198   2.889   4.651 -0.5057 -0.0094 -0.4656
 2649SOL     OW10327   3.014   1.980   0.607 -0.0676  0.0513  0.2902
 2649SOL    HW210328   3.092   1.927   0.621  0.2678  0.7819  1.2729
 2649SOL    HW310329   2.963   1.968   0.688 -1.9139 -1.9174 -1.0321
 2649SOL    MW410330   3.017   1.971   0.620 -0.3453  0.0912  0.0316
 2650SOL     OW10331   6.335   4.001   3.053  0.0239  0.5391 -0.3489
 2650SOL    HW210332   6.243   3.986   3.077  0.8626 -2.6991  1.5324
 2650SOL    HW310333   6.367   4.065   3.116 -0.7474  1.1718 -0.5853
 2650SOL    MW410334   6.327   4.007   3.064 -0.2850  0.2730 -0.3576
 2651SOL     OW10335   2.162   6.241   1.582  0.6666 -0.0625  0.2300
 2651SOL    HW210336   2.170   6.156   1.539  0.5604  0.1646 -0.2537
 2651SOL    HW310337   2.229   6.240   1.650  0.8322 -0.4378  0.0656
 2651SOL    MW410338   2.172   6.230   1.585  0.9735 -0.1970 -0.2119
 2652SOL     OW10339   1.275   3.411   5.742  0.2839  0.3185  0.3441
 2652SOL    HW210340   1.275   3.437   5.650  1.8568 -2.2839 -0.5097
 2652SOL    HW310341   1.217   3.335   5.745 -0.9981  1.3068  1.8720
 2652SOL    MW410342   1.268   3.404   5.730 -0.1433  0.6522  0.4436
 2653SOL     OW10343   4.628   4.855   4.202  0.0769  0.2775  0.2079
 2653SOL    HW210344   4.575   4.797   4.147  3.2654 -2.9627  0.1836
 2653SOL    HW310345   4.577   4.864   4.283 -2.1712  0.5324 -1.1616
 2653SOL    MW410346   4.614   4.848   4.206 -0.1117  0.3438  0.3659
 2654SOL     OW10347   1.277   6.079   0.919 -0.1901 -0.1553 -0.3146
 2654SOL    HW210348   1.235   6.000   0.952  1.0838 -0.6463  0.2227
 2654SOL    HW310349   1.284   6.136   0.995 -0.1869  0.0522 -0.4699
 2654SOL    MW410350   1.273   6.076   0.933 -0.2696 -0.0127 -0.4384
 2655SOL     OW10351   0.455   3.881   2.867 -0.2585  0.1190  0.1078
 2655SOL    HW210352   0.511   3.936   2.921 -1.0658  1.7470 -0.6246
 2655SOL    HW310353   0.515   3.827   2.816  0.5226 -1.3307  2.4272
 2655SOL    MW410354   0.470   3.881   2.867 -0.2122 -0.2126 -0.7286
 2656SOL     OW10355   5.987   1.657   4.799 -0.3813  0.1029  0.0549
 2656SOL    HW210356   5.930   1.583   4.820 -1.0291  1.1047  2.1208
 2656SOL    HW310357   5.985   1.712   4.878 -1.6797  3.4504 -2.1032
 2656SOL    MW410358   5.980   1.654   4.812  0.5033  0.4310 -0.6839
 2657SOL     OW10359   3.826   0.557   2.934 -0.1462 -0.0064  0.5486
 2657SOL    HW210360   3.846   0.646   2.905 -0.7529  0.2442  0.8754
 2657SOL    HW310361   3.735   0.562   2.965  0.2392 -0.4349  1.7969
 2657SOL    MW410362   3.817   0.570   2.934  0.1637  0.3806  0.5982
 2658SOL     OW10363   3.756   4.660   4.113  0.4722 -0.1748 -0.0180
 2658SOL    HW210364   3.839   4.664   4.066  1.4366  0.1220  1.6466
 2658SOL    HW310365   3.716   4.578   4.084  0.4697  0.5016 -2.1795
 2658SOL    MW410366   3.762   4.650   4.103  0.5974  0.3273 -0.1420
 2659SOL     OW10367   5.563   2.436   3.554 -0.0390  0.7399 -0.3777
 2659SOL    HW210368   5.579   2.370   3.623 -2.3690  1.4865  1.0121
 2659SOL    HW310369   5.481   2.407   3.513 -1.4017  2.9410  0.6000
 2659SOL    MW410370   5.554   2.423   3.558  0.1292  0.2211  1.2739
 2660SOL     OW10371   5.284   1.405   0.089  0.4251  0.4612 -0.1547
 2660SOL    HW210372   5.242   1.403   0.003  2.4540  0.4363 -1.1912
 2660SOL    HW310373   5.334   1.324   0.093 -0.1785  0.1286  1.3750
 2660SOL    MW410374   5.285   1.394   0.078 -0.0259  0.0533  0.1926
 2661SOL     OW10375   4.205   2.085   4.169  0.1849  0.0892 -0.9681
 2661SOL    HW210376   4.255   2.036   4.234 -0.2706  1.4219  0.4544
 2661SOL    HW310377   4.114   2.076   4.198 -0.1609 -0.2220 -2.0920
 2661SOL    MW410378   4.199   2.077   4.181  0.6172 -0.2899  0.0153
 2662SOL     OW10379   0.990   4.510   0.873  0.1384  0.1703  0.0804
 2662SOL    HW210380   1.063   4.553   0.830 -0.5670  0.2486 -1.1008
 2662SOL    HW310381   0.954   4.576   0.932  0.2312  0.5651 -0.2984
 2662SOL    MW410382   0.995   4.524   0.875 -0.5043 -0.4636  0.6608
 2663SOL     OW10383   5.074   4.891   1.553 -0.3847  0.4557 -0.4757
 2663SOL    HW210384   5.161   4.913   1.520  0.3455 -0.7377  0.5514
 2663SOL    HW310385   5.041   4.826   1.492 -0.0221 -0.0049 -0.1891
 2663SOL    MW410386   5.081   4.885   1.541 -0.2798 -0.2868  0.3408
 2664SOL     OW10387   5.457   4.057   4.546 -0.2229  0.0280 -0.0581
 2664SOL    HW210388   5.536   4.109   4.536  0.2530 -0.9013 -1.2398
 2664SOL    HW310389   5.413   4.095   4.623  1.2486  0.6801  0.4904
 2664SOL    MW410390   5.461   4.069   4.555 -0.3280 -0.0566 -0.4667
 2665SOL     OW10391   0.313   4.433   2.329 -0.0347  0.1505  0.1329
 2665SOL    HW210392   0.342   4.493   2.398 -0.1278  0.6068 -0.2183
 2665SOL    HW310393   0.293   4.351   2.375  5.5572 -1.6668  0.0223
 2665SOL    MW410394   0.314   4.430   2.344 -0.3472  0.1270 -0.9023
 2666SOL     OW10395   3.894   5.474   0.249 -0.2051 -0.0798  0.2563
 2666SOL    HW210396   3.933   5.557   0.222  0.6076 -0.6780 -0.4540
 2666SOL    HW310397   3.952   5.407   0.212 -0.6654 -0.9607  1.0941
 2666SOL    MW410398   3.907   5.477   0.241 -0.3332  0.0327  0.5064
 2667SOL     OW10399   2.916   1.698   2.263 -0.0525  0.3040 -0.4634
 2667SOL    HW210400   2.953   1.637   2.328 -0.9509 -1.3966 -1.4800
 2667SOL    HW310401   2.840   1.735   2.307  0.0635  0.1139 -0.0916
 2667SOL    MW410402   2.911   1.695   2.278 -0.4469 -0.2334 -0.3928
 2668SOL     OW10403   3.356   2.557   4.015  0.3133  0.1742  0.0746
 2668SOL    HW210404   3.364   2.653   4.010 -3.1014  0.5759  0.3014
 2668SOL    HW310405   3.352   2.528   3.924  1.4126  0.2025  0.0043
 2668SOL    MW410406   3.357   2.566   4.003 -0.4783 -0.1051  0.0655
 2669SOL     OW10407   6.420   5.081   0.662 -0.4477  0.1337  0.7347
 2669SOL    HW210408   6.423   5.083   0.566  0.9742  0.2992  0.7579
 2669SOL    HW310409   6.412   4.989   0.684 -2.7827  0.2094  0.4639
 2669SOL    MW410410   6.419   5.069   0.652  0.1907 -0.2521  0.0663
 2670SOL     OW10411   2.979   2.965   5.780  0.5673  0.4993 -0.4717
 2670SOL    HW210412   2.897   2.929   5.746 -0.0833  1.1427  0.3688
 2670SOL    HW310413   2.972   3.059   5.762  0.2277  0.8525  1.3356
 2670SOL    MW410414   2.967   2.973   5.773  0.5004  0.6847 -0.0741
 2671SOL     OW10415   5.504   2.597   4.819  0.0909  0.0863 -0.3818
 2671SOL    HW210416   5.498   2.575   4.912  0.3363 -0.9046 -0.5870
 2671SOL    HW310417   5.425   2.648   4.801 -0.3149 -0.3205  0.2095
 2671SOL    MW410418   5.493   2.601   4.829  0.3695  0.5754 -0.5446
 2672SOL     OW10419   1.925   2.627   3.823  0.3154 -0.1877  0.2112
 2672SOL    HW210420   1.868   2.585   3.759 -1.7275  0.9782  1.1805
 2672SOL    HW310421   1.950   2.710   3.782  0.8201 -0.4178  0.0464
 2672SOL    MW410422   1.921   2.632   3.809 -0.4997 -0.2137 -0.0950
 2673SOL     OW10423   2.772   2.028   3.084 -0.0368 -0.6519  0.1971
 2673SOL    HW210424   2.849   1.972   3.099  0.5483 -0.5253 -1.9819
 2673SOL    HW310425   2.705   1.968   3.052  0.3110 -0.2910 -1.2906
 2673SOL    MW410426   2.773   2.012   3.081  0.2142 -0.3422 -0.8636
 2674SOL     OW10427   5.008   3.353   0.660  0.0799 -0.1950 -0.0099
 2674SOL    HW210428   4.966   3.338   0.745 -1.0198 -0.5016 -0.5944
 2674SOL    HW310429   4.968   3.289   0.602  0.9787 -0.1284 -0.7180
 2674SOL    MW410430   4.997   3.343   0.664 -0.2254  0.5516  0.0737
 2675SOL     OW10431   3.038   4.428   5.820 -0.2157 -0.2335 -0.1758
 2675SOL    HW210432   3.023   4.429   5.725  0.6438 -1.4704 -0.3513
 2675SOL    HW310433   3.106   4.493   5.834 -1.1460  0.7849 -0.2308
 2675SOL    MW410434   3.045   4.436   5.809 -1.2143 -0.1782  0.0665
 2676SOL     OW10435   2.866   2.074   0.382  0.3947 -0.0405 -0.1448
 2676SOL    HW210436   2.836   2.007   0.321  0.7476  0.5311 -0.9662
 2676SOL    HW310437   2.898   2.026   0.458 -0.6390 -0.7366 -0.1451
 2676SOL    MW410438   2.866   2.059   0.384  0.2402  0.0628 -0.1635
 2677SOL     OW10439   4.386   1.569   0.191 -0.4636  0.2361 -0.0840
 2677SOL    HW210440   4.309   1.545   0.242 -0.6113  0.2890 -0.2823
 2677SOL    HW310441   4.352   1.614   0.114 -0.3302 -1.0449 -0.9239
 2677SOL    MW410442   4.372   1.572   0.188 -0.2673 -0.1249 -0.9498
 2678SOL     OW10443   0.170   5.454   3.718 -0.2208  0.0328  0.0391
 2678SOL    HW210444   0.145   5.528   3.773 -2.3080 -1.1768  0.8233
 2678SOL    HW310445   0.131   5.474   3.632  2.4189  1.5656 -0.9312
 2678SOL    MW410446   0.162   5.466   3.714 -0.3532 -0.4942  0.1959
 2679SOL     OW10447   2.294   6.160   5.183  0.2096 -0.2049  0.0014
 2679SOL    HW210448   2.241   6.091   5.223  0.9957 -0.6862  0.2294
 2679SOL    HW310449   2.307   6.131   5.092  1.6511 -1.0484  0.4425
 2679SOL    MW410450   2.289   6.147   5.176  0.8675  0.2344 -0.8397
 2680SOL     OW10451   5.619   0.521   2.279 -0.1557 -0.6570  0.2163
 2680SOL    HW210452   5.593   0.596   2.332 -1.0934 -0.4538 -0.5014
 2680SOL    HW310453   5.685   0.555   2.219  2.0438 -1.2158  2.1720
 2680SOL    MW410454   5.624   0.535   2.278 -0.6103  0.7703 -0.5972
 2681SOL     OW10455   2.837   6.314   3.823  0.0804 -0.1382  1.1418
 2681SOL    HW210456   2.798   6.248   3.766 -1.3808 -0.5094  2.5061
 2681SOL    HW310457   2.825   6.280   3.911  0.7449  1.2112  1.7919
 2681SOL    MW410458   2.830   6.301   3.827 -0.1180 -0.2352  0.0904
 2682SOL     OW10459   1.050   0.127   3.389  0.4868  0.1950  0.4566
 2682SOL    HW210460   0.957   0.144   3.376  0.3440 -0.7390  0.1409
 2682SOL    HW310461   1.060   0.034   3.369  2.0055  0.8692 -2.5597
 2682SOL    MW410462   1.039   0.117   3.385 -0.0657 -0.4107  0.2088
 2683SOL     OW10463   3.895   0.813   0.239 -0.1247 -0.2463 -0.1211
 2683SOL    HW210464   3.878   0.870   0.314 -1.5894 -0.9587  0.1401
 2683SOL    HW310465   3.926   0.872   0.170 -0.7688  0.7324  0.4016
 2683SOL    MW410466   3.897   0.828   0.239 -0.4339  0.5727  0.2112
 2684SOL     OW10467   4.323   5.519   6.337  0.3175 -0.2092  0.6631
 2684SOL    HW210468   4.303   5.571   6.415  0.1642  1.4850 -0.4467
 2684SOL    HW310469   4.393   5.566   6.293 -0.2866 -0.5468 -0.7465
 2684SOL    MW410470   4.329   5.532   6.341  0.2325  0.5806  0.5504
 2685SOL     OW10471   1.927   3.039   3.088  0.6857 -0.3803  0.3299
 2685SOL    HW210472   1.944   2.944   3.089 -0.3574 -0.6081 -0.9429
 2685SOL    HW310473   1.923   3.063   3.181  0.7086 -1.6237  0.6750
 2685SOL    MW410474   1.929   3.029   3.101  0.7394 -0.7473 -0.6998
 2686SOL     OW10475   3.415   4.793   6.189 -0.6734 -0.3475 -0.4224
 2686SOL    HW210476   3.435   4.719   6.245 -0.2612 -0.5111 -0.7826
 2686SOL    HW310477   3.339   4.834   6.230 -0.5026 -0.5817  0.1396
 2686SOL    MW410478   3.408   4.789   6.202  0.0668 -0.2306 -0.0658
 2687SOL     OW10479   2.431   0.247   1.076 -0.1425 -0.1223  0.3181
 2687SOL    HW210480   2.495   0.299   1.125  0.8455 -2.6067  1.8429
 2687SOL    HW310481   2.356   0.239   1.135  0.0362 -1.0721  0.4231
 2687SOL    MW410482   2.429   0.253   1.090 -0.1404 -0.0751  0.0391
 2688SOL     OW10483   3.377   0.655   5.380  0.4610 -0.3125 -0.0667
 2688SOL    HW210484   3.296   0.607   5.362 -0.0236  0.3575  0.2908
 2688SOL    HW310485   3.355   0.747   5.364  1.0002 -0.0705  0.5234
 2688SOL    MW410486   3.364   0.661   5.376  0.5438  0.1685 -0.0986
 2689SOL     OW10487   4.098   0.604   4.059 -0.0392 -0.5815  0.1429
 2689SOL    HW210488   4.047   0.682   4.037 -0.6752 -0.8502  0.6285
 2689SOL    HW310489   4.188   0.627   4.036 -0.4256 -0.2344 -1.0980
 2689SOL    MW410490   4.103   0.618   4.053 -0.5158  0.0318  0.8149
 2690SOL     OW10491   4.799   0.220   1.155 -0.0011  0.5987  0.1333
 2690SOL    HW210492   4.871   0.202   1.093  1.0683  1.5934  1.0470
 2690SOL    HW310493   4.840   0.216   1.241 -0.7972  2.3195  0.6223
 2690SOL    MW410494   4.814   0.217   1.158  0.1350 -0.1398 -0.6621
 2691SOL     OW10495   2.169   4.146   5.106 -0.1730  0.2806 -0.1615
 2691SOL    HW210496   2.218   4.100   5.174  0.3960  0.2491 -0.5733
 2691SOL    HW310497   2.080   4.153   5.139  0.0122 -0.0685  0.4157
 2691SOL    MW410498   2.164   4.141   5.119 -0.0841 -0.2220 -0.3398
 2692SOL     OW10499   2.147   1.112   5.197 -0.6003 -0.1195  0.4640
 2692SOL    HW210500   2.157   1.131   5.291  0.6103  0.1288  0.3087
 2692SOL    HW310501   2.053   1.105   5.184 -0.9279  1.8969  1.3022
 2692SOL    MW410502   2.136   1.113   5.208  0.0564 -0.3616 -0.2698
 2693SOL     OW10503   3.752   2.030   2.712  0.5908  0.4958 -0.6943
 2693SOL    HW210504   3.734   1.953   2.659  2.7359  0.5126 -1.5298
 2693SOL    HW310505   3.688   2.026   2.783 -2.1786  0.2909 -3.0203
 2693SOL    MW410506   3.741   2.019   2.715 -0.1080 -0.1065 -0.2747
 2694SOL     OW10507   4.315   5.088   2.940 -0.3226 -0.0443 -0.0209
 2694SOL    HW210508   4.366   5.018   2.981 -0.7635  0.4017  1.3564
 2694SOL    HW310509   4.379   5.156   2.918 -0.1917  0.1045  0.8077
 2694SOL    MW410510   4.330   5.088   2.942 -0.1477 -0.0711  0.1750
 2695SOL     OW10511   0.551   3.066   3.941  0.2448  0.0970  0.0932
 2695SOL    HW210512   0.587   3.031   3.860  0.7302  0.1249  0.2925
 2695SOL    HW310513   0.589   3.154   3.949 -1.1226  0.7687 -0.5069
 2695SOL    MW410514   0.560   3.073   3.932 -0.2673  0.0305  0.1036
 2696SOL     OW10515   1.162   5.793   5.538 -0.1711  0.0509  0.0431
 2696SOL    HW210516   1.201   5.719   5.584 -1.7502  0.0504  1.4644
 2696SOL    HW310517   1.222   5.867   5.555  0.4823 -0.4845  0.0987
 2696SOL    MW410518   1.175   5.793   5.546  0.6371 -0.1025 -0.2995
 2697SOL     OW10519   1.914   3.878   4.648 -0.1386 -0.3945  0.2991
 2697SOL    HW210520   1.984   3.861   4.586 -0.5488  0.5921 -0.4619
 2697SOL    HW310521   1.875   3.792   4.664  0.3580 -0.7511 -0.3418
 2697SOL    MW410522   1.918   3.865   4.642 -1.2934 -0.0262 -0.3141
 2698SOL     OW10523   0.754   0.074   5.985  0.1859 -0.2621 -0.0668
 2698SOL    HW210524   0.711   0.025   6.054  1.5532  0.4444  1.3386
 2698SOL    HW310525   0.710   0.046   5.904 -1.6403 -0.8708  1.0945
 2698SOL    MW410526   0.742   0.064   5.983  0.4114 -0.0470  0.1446
 2699SOL     OW10527   6.428   3.915   5.139 -0.1561 -0.0600 -0.2030
 2699SOL    HW210528   6.446   3.886   5.229 -2.3728 -1.7385 -0.2255
 2699SOL    HW310529   6.355   3.861   5.110 -1.9828  2.9304 -1.7094
 2699SOL    MW410530   6.420   3.904   5.147 -0.0616 -0.0233  0.4131
 2700SOL     OW10531   2.399   1.889   5.166 -0.4291 -0.9027  0.4304
 2700SOL    HW210532   2.342   1.940   5.108  0.3598  0.3741  0.7559
 2700SOL    HW310533   2.359   1.897   5.252  0.8391  1.0384  0.9071
 2700SOL    MW410534   2.386   1.897   5.170 -0.1086  0.5857 -0.1474
 2701SOL     OW10535   1.479   3.114   5.725  0.6083 -0.0853 -0.3823
 2701SOL    HW210536   1.431   3.118   5.808 -2.6480  1.2934 -2.1540
 2701SOL    HW310537   1.567   3.143   5.748  0.1533 -0.7960  2.7600
 2701SOL    MW410538   1.484   3.119   5.739 -0.0994 -0.0628  0.0986
 2702SOL     OW10539   0.153   5.173   6.360 -0.5895 -0.2026  0.4440
 2702SOL    HW210540   0.181   5.082   6.375  0.7230  0.2653  1.0333
 2702SOL    HW310541   0.215   5.225   6.411 -2.1044  0.9772  1.1539
 2702SOL    MW410542   0.165   5.168   6.369  0.4763  0.7192  0.0189
 2703SOL     OW10543   2.848   0.144   2.340 -0.1090 -0.1573  0.0475
 2703SOL    HW210544   2.913   0.204   2.305 -0.9708  0.6654 -0.1631
 2703SOL    HW310545   2.847   0.071   2.278  2.3110 -1.3593  1.3002
 2703SOL    MW410546   2.856   0.142   2.327 -0.1003 -0.0822  1.0042
 2704SOL     OW10547   0.862   0.125   1.236  0.0613 -0.5043 -0.3258
 2704SOL    HW210548   0.770   0.150   1.238 -0.3542 -1.9611  1.4367
 2704SOL    HW310549   0.904   0.190   1.179 -1.6591  1.4792  0.5618
 2704SOL    MW410550   0.856   0.136   1.229 -0.0118  0.0065 -0.0223
 2705SOL     OW10551   4.844   4.222   2.560 -0.6776  0.0870  0.3043
 2705SOL    HW210552   4.929   4.246   2.599 -0.2891  0.9933 -1.0102
 2705SOL    HW310553   4.782   4.284   2.599 -0.9003 -1.0213  1.7945
 2705SOL    MW410554   4.847   4.233   2.570  0.2229  0.1854 -0.0902
 2706SOL     OW10555   5.025   4.310   5.835  1.1447 -0.1050 -0.7987
 2706SOL    HW210556   5.100   4.323   5.894  3.1776 -2.3798 -2.6564
 2706SOL    HW310557   4.961   4.263   5.888  1.6089  0.5884  0.4285
 2706SOL    MW410558   5.027   4.305   5.850 -0.2739  0.0249 -0.3828
 2707SOL     OW10559   5.183   4.803   0.316  0.0622  0.0058 -0.0255
 2707SOL    HW210560   5.125   4.877   0.303 -0.1774 -0.1730  0.0209
 2707SOL    HW310561   5.188   4.761   0.230 -3.0338 -2.2939  0.7215
 2707SOL    MW410562   5.176   4.807   0.303 -0.0700  0.3912 -0.0326
 2708SOL     OW10563   2.349   5.553   2.672  0.3427 -0.0648 -0.2851
 2708SOL    HW210564   2.301   5.482   2.629 -1.0785 -0.1691  1.3644
 2708SOL    HW310565   2.428   5.564   2.619 -1.0231 -0.5474 -2.5874
 2708SOL    MW410566   2.353   5.545   2.659 -0.0372 -0.2856  0.1533
 2709SOL     OW10567   0.537   4.631   5.911 -0.0258 -0.5431 -0.1340
 2709SOL    HW210568   0.443   4.622   5.893  0.0389  0.1507 -0.8817
 2709SOL    HW310569   0.562   4.546   5.948 -1.4888  0.1134  2.6582
 2709SOL    MW410570   0.528   4.619   5.913 -0.1178 -0.0177  0.2318
 2710SOL     OW10571   1.460   1.664   1.177  0.8489 -0.3918  0.6170
 2710SOL    HW210572   1.525   1.700   1.237 -0.7170  0.6432  1.7389
 2710SOL    HW310573   1.392   1.731   1.171  1.5436  0.2271 -3.4403
 2710SOL    MW410574   1.460   1.678   1.184  0.5951 -0.5895  0.0472
 2711SOL     OW10575   2.731   1.424   4.341  0.5084 -0.1619  0.3819
 2711SOL    HW210576   2.733   1.501   4.398  0.5866  0.3277 -0.2659
 2711SOL    HW310577   2.806   1.371   4.370 -0.2069 -0.5638  1.5843
 2711SOL    MW410578   2.741   1.428   4.353  0.0305  0.0147  0.3353
 2712SOL     OW10579   1.071   6.414   6.253  0.1286 -0.0976 -0.0681
 2712SOL    HW210580   1.079   6.325   6.287  0.0435  1.0539  3.3494
 2712SOL    HW310581   0.987   6.445   6.287  0.5968  1.6019 -0.3818
 2712SOL    MW410582   1.061   6.407   6.262  0.0721 -0.4180  0.5157
 2713SOL     OW10583   3.467   2.402   2.526  0.4373  0.1581  0.4409
 2713SOL    HW210584   3.435   2.456   2.599 -0.1722 -0.2659  0.4993
 2713SOL    HW310585   3.558   2.384   2.547  0.7301  1.3738  0.2977
 2713SOL    MW410586   3.475   2.407   2.539  0.5079 -0.2371 -0.2123
 2714SOL     OW10587   5.666   1.239   3.794  0.1393  0.2095  0.2035
 2714SOL    HW210588   5.613   1.263   3.718 -0.6027  0.9976  0.9373
 2714SOL    HW310589   5.607   1.250   3.868  0.6829 -1.0891  0.8534
 2714SOL    MW410590   5.651   1.244   3.794  0.4814  0.6294  0.1202
 2715SOL     OW10591   2.697   2.780   4.106 -0.2250  0.0866  0.1350
 2715SOL    HW210592   2.655   2.860   4.075  0.7863 -0.1283 -1.9926
 2715SOL    HW310593   2.672   2.714   4.042  0.5242 -0.8438  0.7750
 2715SOL    MW410594   2.688   2.782   4.094  0.2056 -0.4634  0.8007
 2716SOL     OW10595   3.235   4.464   0.580  0.2169 -1.0048 -0.1391
 2716SOL    HW210596   3.313   4.440   0.530  2.3490  1.8198  1.4986
 2716SOL    HW310597   3.242   4.559   0.589 -2.7159 -0.8285  1.2922
 2716SOL    MW410598   3.246   4.474   0.575  0.4944  0.3650  0.2231
 2717SOL     OW10599   2.424   0.283   3.982  0.2176  0.3602 -0.2022
 2717SOL    HW210600   2.368   0.229   4.038 -2.2586  1.1485 -1.7420
 2717SOL    HW310601   2.393   0.373   3.997  1.2561  0.8566 -0.9194
 2717SOL    MW410602   2.412   0.288   3.991 -0.1774 -0.6244 -0.4095
 2718SOL     OW10603   1.535   3.241   1.449 -1.1725 -0.1883  0.2996
 2718SOL    HW210604   1.607   3.201   1.401 -0.8911 -0.6138  1.0557
 2718SOL    HW310605   1.565   3.330   1.469 -1.4782  0.1481 -0.6949
 2718SOL    MW410606   1.548   3.248   1.446 -0.5200  0.4322  0.6209
 2719SOL     OW10607   4.923   5.548   4.368  0.0887 -0.7016  0.0860
 2719SOL    HW210608   4.994   5.571   4.308  1.0059 -0.4630  1.2255
 2719SOL    HW310609   4.951   5.465   4.407 -0.2923 -0.6268  0.5199
 2719SOL    MW410610   4.936   5.540   4.365  0.2244  0.3791  0.0074
 2720SOL     OW10611   4.957   0.887   0.545  0.0320 -0.0768  0.4231
 2720SOL    HW210612   4.959   0.916   0.454  0.5563 -0.4588  0.3098
 2720SOL    HW310613   4.909   0.804   0.543  0.3433 -0.2586  0.4438
 2720SOL    MW410614   4.951   0.880   0.533 -0.6834  0.2353 -0.3386
 2721SOL     OW10615   3.517   5.376   3.396  0.0868  0.5608  0.2428
 2721SOL    HW210616   3.430   5.413   3.379 -0.2846  0.6560  2.0550
 2721SOL    HW310617   3.577   5.433   3.348 -0.8853 -0.0237 -1.7482
 2721SOL    MW410618   3.514   5.389   3.388 -0.3941 -0.6078 -0.3149
 2722SOL     OW10619   4.850   0.666   3.661 -0.3717  0.2919  0.1560
 2722SOL    HW210620   4.877   0.574   3.669  0.5109  0.2805 -2.2644
 2722SOL    HW310621   4.764   0.669   3.703  0.6299 -1.0501  2.5215
 2722SOL    MW410622   4.842   0.654   3.668 -0.1324  0.4260  0.1599
 2723SOL     OW10623   2.751   5.474   5.957  0.2173 -0.0454  0.0713
 2723SOL    HW210624   2.745   5.564   5.986  0.9879 -0.5607  1.9797
 2723SOL    HW310625   2.696   5.425   6.018  0.7210 -0.9989 -0.2123
 2723SOL    MW410626   2.743   5.479   5.969  0.1467 -0.6037 -0.5155
 2724SOL     OW10627   1.331   1.626   6.210  0.1558  0.6971  0.0995
 2724SOL    HW210628   1.415   1.667   6.233  0.7056  0.8787 -1.9665
 2724SOL    HW310629   1.308   1.666   6.126 -0.2081 -1.8649 -1.1120
 2724SOL    MW410630   1.339   1.637   6.202  0.4500  0.7843 -0.1335
 2725SOL     OW10631   6.263   1.582   5.739 -0.8104 -0.3007  0.1272
 2725SOL    HW210632   6.315   1.651   5.697  0.5322 -0.7833  0.9174
 2725SOL    HW310633   6.233   1.527   5.667 -0.1646 -0.0353 -0.3547
 2725SOL    MW410634   6.266   1.584   5.724  0.5124 -0.7923 -0.1533
 2726SOL     OW10635   1.552   3.856   4.346  0.1903 -0.3458  0.0618
 2726SOL    HW210636   1.539   3.950   4.334  2.0338 -0.3186 -2.3395
 2726SOL    HW310637   1.557   3.846   4.441  1.0653  2.1637  0.3770
 2726SOL    MW410638   1.551   3.867   4.357  0.2216  0.0272 -0.0665
 2727SOL     OW10639   1.127   6.341   5.670 -0.6238  0.2143  0.3844
 2727SOL    HW210640   1.091   6.400   5.736 -0.3368  1.5107 -0.5803
 2727SOL    HW310641   1.054   6.284   5.647 -0.7077 -0.3164  1.8582
 2727SOL    MW410642   1.113   6.342   5.676  0.1423 -0.8267  0.1088
 2728SOL     OW10643   4.527   5.323   3.526 -0.3863 -0.1770  0.6316
 2728SOL    HW210644   4.583   5.283   3.593  2.2647  0.9515 -0.7820
 2728SOL    HW310645   4.487   5.249   3.481  1.8466 -1.1668  0.1798
 2728SOL    MW410646   4.529   5.308   3.529 -0.1694  0.4688  0.2386
 2729SOL     OW10647   6.418   5.500   6.337  0.0729 -0.2989 -0.1038
 2729SOL    HW210648   6.450   5.411   6.318 -1.3108 -0.9427  0.4439
 2729SOL    HW310649   6.394   5.498   6.430 -0.4665  0.4885 -0.2148
 2729SOL    MW410650   6.419   5.488   6.347  0.2653  0.3874 -0.3050
 2730SOL     OW10651   2.641   2.300   3.902 -0.8825  0.0557  0.0961
 2730SOL    HW210652   2.606   2.218   3.937  0.8272 -0.9529 -0.4297
 2730SOL    HW310653   2.638   2.288   3.807  1.8703 -0.6162 -0.0031
 2730SOL    MW410654   2.636   2.287   3.894 -0.5692 -0.1897  0.0258
 2731SOL     OW10655   3.272   1.807   4.087 -0.2362  0.9263  0.1602
 2731SOL    HW210656   3.328   1.747   4.039 -0.7910  1.7947 -1.6708
 2731SOL    HW310657   3.186   1.765   4.088  0.0178  0.4027  1.4114
 2731SOL    MW410658   3.268   1.794   4.081  0.4296  0.1412  0.4907
 2732SOL     OW10659   5.988   0.838   1.837 -0.3203 -0.2771 -0.6819
 2732SOL    HW210660   6.064   0.816   1.892  0.1625  1.5340 -0.5743
 2732SOL    HW310661   5.926   0.878   1.898 -0.1539  0.9143 -1.2662
 2732SOL    MW410662   5.990   0.840   1.853 -0.1507  0.1987 -0.0898
 2733SOL     OW10663   5.360   6.409   2.195  0.3142 -0.2229  0.0057
 2733SOL    HW210664   5.296   6.357   2.244  1.2663 -1.7515 -0.2951
 2733SOL    HW310665   5.308   6.463   2.136 -0.7739  0.3545  1.4245
 2733SOL    MW410666   5.345   6.409   2.194 -0.4670 -0.1491  0.6444
 2734SOL     OW10667   2.999   0.280   1.774 -0.2313 -0.0171  0.0256
 2734SOL    HW210668   3.049   0.278   1.692 -0.9818 -0.3866 -0.4402
 2734SOL    HW310669   2.992   0.373   1.796  0.3200  0.0581 -0.1149
 2734SOL    MW410670   3.005   0.292   1.766  0.2054 -0.0515 -0.3521
 2735SOL     OW10671   4.548   0.594   3.683  0.1225  0.1070 -0.0845
 2735SOL    HW210672   4.497   0.666   3.646  0.5126  0.0908 -0.6602
 2735SOL    HW310673   4.502   0.515   3.655  0.0004  0.1153  0.0910
 2735SOL    MW410674   4.535   0.593   3.674 -0.7752  0.0477  0.1877
 2736SOL     OW10675   3.243   4.623   4.315  0.0618 -0.3691  0.0410
 2736SOL    HW210676   3.263   4.583   4.231  0.6057 -1.1950  0.5529
 2736SOL    HW310677   3.292   4.705   4.314  1.2597 -1.0725  0.1486
 2736SOL    MW410678   3.252   4.629   4.304  0.1236  0.1495  0.2063
 2737SOL     OW10679   3.334   1.048   4.897 -0.6380 -1.0885 -0.0626
 2737SOL    HW210680   3.361   1.073   4.808 -0.3655 -1.3900 -0.0710
 2737SOL    HW310681   3.242   1.025   4.889 -0.8445 -0.2676 -0.0860
 2737SOL    MW410682   3.326   1.048   4.884 -0.2663 -0.0264 -0.2289
 2738SOL     OW10683   4.276   1.642   0.979 -0.4293  0.1163  0.0527
 2738SOL    HW210684   4.328   1.697   1.038  0.0516 -0.4505  0.1588
 2738SOL    HW310685   4.189   1.641   1.020 -0.2718  0.2636  0.4022
 2738SOL    MW410686   4.271   1.649   0.992  0.0172  0.2633  0.2752
 2739SOL     OW10687   0.024   1.519   3.909  0.6035 -0.1916 -0.2454
 2739SOL    HW210688  -0.024   1.454   3.858  0.9542 -0.9461  0.3634
 2739SOL    HW310689  -0.042   1.583   3.934  0.3001 -0.1677 -1.0684
 2739SOL    MW410690   0.009   1.519   3.906  0.1948 -0.4675  0.5246
 2740SOL     OW10691   1.723   5.521   2.084  0.0627 -0.2590  0.0078
 2740SOL    HW210692   1.649   5.460   2.082 -0.4102  0.2392  1.1322
 2740SOL    HW310693   1.728   5.549   2.176  0.0703  1.5869 -0.5081
 2740SOL    MW410694   1.714   5.517   2.096 -0.3307 -0.0929  0.0997
 2741SOL     OW10695   2.539   6.136   4.750 -0.0150 -0.2823 -0.5457
 2741SOL    HW210696   2.548   6.223   4.788  2.3556 -0.8816  0.4545
 2741SOL    HW310697   2.553   6.149   4.656  2.2970  0.2459 -0.1919
 2741SOL    MW410698   2.542   6.149   4.743  0.1838 -0.3615  0.7479
 2742SOL     OW10699   0.684   4.567   2.760 -0.3529  0.0006 -0.3371
 2742SOL    HW210700   0.649   4.596   2.844  1.4788  0.1246  0.4353
 2742SOL    HW310701   0.747   4.635   2.736 -0.0036 -0.6216 -1.2244
 2742SOL    MW410702   0.687   4.580   2.768 -0.1627 -0.0080  0.2992
 2743SOL     OW10703   4.607   3.431   0.559 -0.0445  0.0497  0.6105
 2743SOL    HW210704   4.552   3.490   0.508 -1.3187 -1.9330 -0.4522
 2743SOL    HW310705   4.584   3.450   0.650  0.9776  2.4295  0.4470
 2743SOL    MW410706   4.597   3.441   0.564 -0.3739 -1.0952 -0.5524
 2744SOL     OW10707   1.901   5.154   1.641 -0.4021  0.0775 -0.2254
 2744SOL    HW210708   1.866   5.120   1.558  2.3330  2.4254 -2.6070
 2744SOL    HW310709   1.884   5.085   1.705 -1.9187 -2.2664 -2.9127
 2744SOL    MW410710   1.895   5.141   1.638 -0.5082 -0.2434 -0.0221
 2745SOL     OW10711   0.390   5.272   0.090  0.0556  0.4804 -0.1564
 2745SOL    HW210712   0.405   5.178   0.080  0.5814  0.4076  1.0972
 2745SOL    HW310713   0.354   5.281   0.178  0.3288  1.4793 -0.1334
 2745SOL    MW410714   0.388   5.261   0.100  0.0468  0.0007 -0.4677
 2746SOL     OW10715   3.596   6.271   5.917 -0.3556 -0.7046  0.0734
 2746SOL    HW210716   3.507   6.257   5.886 -0.7833  0.1360  0.8764
 2746SOL    HW310717   3.638   6.186   5.908 -1.4091 -1.2598  0.2346
 2746SOL    MW410718   3.590   6.258   5.912  0.5112 -0.3525 -0.4340
 2747SOL     OW10719   2.771   4.597   5.275  0.3389 -0.0539 -0.0845
 2747SOL    HW210720   2.779   4.542   5.196  0.7897  0.6887 -0.5693
 2747SOL    HW310721   2.794   4.685   5.245 -0.8711  0.5094  0.5686
 2747SOL    MW410722   2.775   4.601   5.260 -0.0525  0.1789  0.3568
 2748SOL     OW10723   0.307   3.924   2.092  0.2711 -0.0509 -0.2098
 2748SOL    HW210724   0.238   3.928   2.157 -0.3499 -2.0093 -0.6794
 2748SOL    HW310725   0.313   4.013   2.057 -1.9444  0.1953 -0.0816
 2748SOL    MW410726   0.299   3.937   2.096  0.4051 -0.5940  0.2044
 2749SOL     OW10727   4.147   0.136   1.328  0.0355  0.0694 -0.2043
 2749SOL    HW210728   4.184   0.092   1.252 -1.4806  0.6629 -1.3336
 2749SOL    HW310729   4.223   0.156   1.383  1.5070  1.6205 -2.6044
 2749SOL    MW410730   4.162   0.133   1.325 -0.8022 -0.2667  0.8715
 2750SOL     OW10731   5.212   1.693   2.953 -0.1435 -0.3169 -0.2185
 2750SOL    HW210732   5.284   1.631   2.948 -2.2542 -2.9871 -0.1788
 2750SOL    HW310733   5.200   1.708   3.047 -0.6284 -1.1725 -0.1349
 2750SOL    MW410734   5.220   1.687   2.965 -0.4416  0.7019  0.0358
 2751SOL     OW10735   0.612   3.065   1.929  0.4554  0.0849  0.1728
 2751SOL    HW210736   0.673   3.064   1.855 -0.2529 -0.7298 -0.4148
 2751SOL    HW310737   0.669   3.058   2.006  1.1745  0.4691 -0.3138
 2751SOL    MW410738   0.628   3.064   1.929 -0.1068  0.1628  0.0674
 2752SOL     OW10739   0.575   4.426   2.516 -0.7589 -0.3805  0.1104
 2752SOL    HW210740   0.640   4.388   2.456 -0.3866  0.9590 -0.3950
 2752SOL    HW310741   0.628   4.464   2.586 -0.9226  1.1910 -0.5772
 2752SOL    MW410742   0.591   4.426   2.517 -0.3379 -0.2411 -0.5515
 2753SOL     OW10743   4.014   3.530   3.807 -0.0286  0.3360 -0.2737
 2753SOL    HW210744   4.078   3.492   3.867  0.2228  0.3669 -0.5222
 2753SOL    HW310745   3.986   3.457   3.752 -0.2818  0.3011 -0.1012
 2753SOL    MW410746   4.019   3.515   3.808  0.1493  0.2845 -0.1350
 2754SOL     OW10747   0.287   6.051   2.611  0.3122 -0.3076 -0.2203
 2754SOL    HW210748   0.226   5.978   2.618  0.7008 -0.5423  1.0584
 2754SOL    HW310749   0.289   6.073   2.518  0.9920 -2.6084 -0.8167
 2754SOL    MW410750   0.279   6.044   2.600  0.5647 -0.6803 -0.9481
 2755SOL     OW10751   0.961   3.076   2.513  0.3938  0.2737 -0.3908
 2755SOL    HW210752   0.948   2.999   2.569 -0.1128  0.7727  0.1858
 2755SOL    HW310753   0.873   3.109   2.496  0.5622  0.3312 -1.2161
 2755SOL    MW410754   0.948   3.070   2.518 -0.3458 -0.2329  0.2847
 2756SOL     OW10755   1.096   3.037   0.032  0.3160  0.5391 -0.2157
 2756SOL    HW210756   1.076   2.986   0.110 -0.4722 -0.8490 -1.2705
 2756SOL    HW310757   1.143   2.976  -0.025 -0.0681  1.1778 -1.2398
 2756SOL    MW410758   1.099   3.022   0.034 -0.4007  0.4060  0.2780
 2757SOL     OW10759   1.040   5.867   4.740  0.2802 -0.3551 -0.2094
 2757SOL    HW210760   1.017   5.775   4.727  0.4088 -0.6063  1.1595
 2757SOL    HW310761   1.068   5.871   4.832  2.0062  0.7008 -0.7485
 2757SOL    MW410762   1.040   5.855   4.751  0.6019 -0.3321 -0.3897
 2758SOL     OW10763   6.390   2.781   2.632 -0.2046  0.5432 -0.2994
 2758SOL    HW210764   6.481   2.794   2.661  0.3871  0.1890 -1.8713
 2758SOL    HW310765   6.368   2.862   2.587 -1.2956  1.2982  1.4762
 2758SOL    MW410766   6.399   2.793   2.630 -0.7383  0.3230 -0.2201
 2759SOL     OW10767   0.153   1.217   3.678 -0.3459  0.1409  0.1229
 2759SOL    HW210768   0.155   1.156   3.604 -2.2266  0.2944 -0.1094
 2759SOL    HW310769   0.192   1.298   3.643  0.6327 -0.4083 -0.0720
 2759SOL    MW410770   0.158   1.220   3.664  0.5376 -0.2149  1.1454
 2760SOL     OW10771   0.875   4.140   5.367  0.6533  0.0224 -0.2161
 2760SOL    HW210772   0.880   4.060   5.419  0.4184 -0.8020 -1.4452
 2760SOL    HW310773   0.950   4.192   5.397 -1.2720  1.0792  3.3181
 2760SOL    MW410774   0.886   4.137   5.378 -0.1599  0.3980  0.4230
 2761SOL     OW10775   3.654   2.468   4.758 -0.4766 -0.4919  0.2183
 2761SOL    HW210776   3.726   2.416   4.793 -0.0593  0.2741  0.5240
 2761SOL    HW310777   3.645   2.541   4.819 -2.0669 -0.9990  0.6453
 2761SOL    MW410778   3.662   2.471   4.771 -0.2739  0.0999  0.6301
 2762SOL     OW10779   3.478   0.607   4.878  0.5538 -0.2915  0.0158
 2762SOL    HW210780   3.536   0.665   4.830  0.9985 -0.8780 -0.1730
 2762SOL    HW310781   3.486   0.523   4.833  0.4586 -0.6755  0.6991
 2762SOL    MW410782   3.487   0.603   4.866  0.0603  0.1208 -0.6841
 2763SOL     OW10783   3.319   0.030   0.692  0.2114 -0.0426  0.0655
 2763SOL    HW210784   3.328   0.042   0.786 -0.3716 -1.1284  0.2777
 2763SOL    HW310785   3.262   0.102   0.664 -0.0187  0.0005  0.6298
 2763SOL    MW410786   3.313   0.041   0.701 -0.1451  0.1949  0.2861
 2764SOL     OW10787   1.389   4.723   5.370 -0.1628  0.0701  0.5418
 2764SOL    HW210788   1.356   4.638   5.340 -2.2217  0.2278  2.1048
 2764SOL    HW310789   1.334   4.787   5.325 -0.6886  0.4237  1.6471
 2764SOL    MW410790   1.377   4.720   5.360  0.5656 -0.5443 -0.3936
 2765SOL     OW10791   1.996   5.815   3.978 -0.2164 -0.0122  0.2933
 2765SOL    HW210792   2.030   5.761   4.049  0.3125  1.8710  1.5553
 2765SOL    HW310793   2.045   5.897   3.985 -0.7864  0.5468 -1.7055
 2765SOL    MW410794   2.007   5.819   3.989 -0.0047 -0.4409 -0.7150
 2766SOL     OW10795   5.403   2.880   1.471  0.3814  0.0613  0.1659
 2766SOL    HW210796   5.308   2.883   1.462  0.4325  2.1976 -0.1421
 2766SOL    HW310797   5.436   2.899   1.383  1.0641  0.8048  0.5699
 2766SOL    MW410798   5.395   2.883   1.458  0.3274  0.2712 -0.3163
 2767SOL     OW10799   4.747   3.324   3.739 -0.3838  0.2531 -0.3187
 2767SOL    HW210800   4.801   3.386   3.691  1.5530 -1.4204 -0.4414
 2767SOL    HW310801   4.791   3.314   3.824 -1.9139  0.6851  0.5739
 2767SOL    MW410802   4.760   3.331   3.744 -0.4728 -0.4487 -0.0440
 2768SOL     OW10803   2.342   6.053   4.516  0.3061  0.0042 -0.4158
 2768SOL    HW210804   2.304   5.994   4.450  2.0268 -1.6230 -0.0294
 2768SOL    HW310805   2.268   6.075   4.573 -0.5308 -1.2309 -0.9658
 2768SOL    MW410806   2.327   6.048   4.515  0.1057 -0.2727 -0.0678
 2769SOL     OW10807   1.634   0.788   1.124  0.1759 -0.3799 -0.3147
 2769SOL    HW210808   1.542   0.793   1.096  0.3346  0.6065 -0.6965
 2769SOL    HW310809   1.683   0.825   1.051  0.7702  0.4129  0.4749
 2769SOL    MW410810   1.628   0.793   1.111  0.2735  0.2885  0.1002
 2770SOL     OW10811   5.764   4.078   4.539  0.1094 -0.0999  0.0161
 2770SOL    HW210812   5.822   4.028   4.596  0.6683 -0.2271 -0.6562
 2770SOL    HW310813   5.748   4.020   4.464  0.2266  0.4726 -0.4561
 2770SOL    MW410814   5.769   4.063   4.537  0.3961 -0.3387 -0.1209
 2771SOL     OW10815   4.300   5.641   1.371 -0.6240  0.5521 -0.0156
 2771SOL    HW210816   4.386   5.681   1.375 -0.7132  0.9906 -1.7713
 2771SOL    HW310817   4.304   5.569   1.434  0.9879  0.6209  0.0004
 2771SOL    MW410818   4.312   5.637   1.380  0.2413  0.1162  0.7124
 2772SOL     OW10819   1.248   6.022   1.722  0.3769 -0.0182  0.3694
 2772SOL    HW210820   1.316   6.006   1.656 -0.0796  0.8860 -0.3481
 2772SOL    HW310821   1.197   5.942   1.723  0.0561  0.1540 -0.8017
 2772SOL    MW410822   1.251   6.009   1.713 -0.0820  0.5359  0.0698
 2773SOL     OW10823   1.571   5.740   4.430  0.3491 -1.0431 -0.0112
 2773SOL    HW210824   1.558   5.834   4.443  0.2359 -0.9894 -0.4894
 2773SOL    HW310825   1.556   5.702   4.517  0.2658 -0.6348  0.1593
 2773SOL    MW410826   1.567   5.747   4.443 -0.1732  1.0600  0.1988
 2774SOL     OW10827   5.588   0.652   6.221  0.2154 -0.9010 -0.9439
 2774SOL    HW210828   5.654   0.656   6.152  2.0151  2.5138  0.6933
 2774SOL    HW310829   5.636   0.623   6.299 -0.4726  0.3424 -0.0186
 2774SOL    MW410830   5.603   0.649   6.222 -0.6316  0.3715 -0.1444
 2775SOL     OW10831   0.416   2.754   1.021 -0.4124 -0.0663  0.2526
 2775SOL    HW210832   0.447   2.713   0.940  0.4925  0.8645  0.1049
 2775SOL    HW310833   0.388   2.841   0.994 -0.4703  0.1087  0.8762
 2775SOL    MW410834   0.416   2.760   1.007  0.3715  0.1051 -0.0531
 2776SOL     OW10835   3.442   4.444   4.474  0.1212 -0.4310 -0.2946
 2776SOL    HW210836   3.404   4.460   4.561 -1.7511 -1.1143 -0.9559
 2776SOL    HW310837   3.427   4.526   4.426 -0.0820 -0.5374 -0.4104
 2776SOL    MW410838   3.435   4.457   4.479  0.8871  0.4856  0.3932
 2777SOL     OW10839   2.545   0.266   1.852  0.4211 -0.0380  0.0029
 2777SOL    HW210840   2.534   0.226   1.938  1.0477  0.2226  0.2115
 2777SOL    HW310841   2.631   0.236   1.822  1.0413  1.3707  0.2988
 2777SOL    MW410842   2.555   0.257   1.860 -0.0926  0.2598  0.3193
 2778SOL     OW10843   1.603   6.343   1.928 -0.5057  0.5770 -0.7777
 2778SOL    HW210844   1.571   6.429   1.954  0.9237  0.7547  0.5126
 2778SOL    HW310845   1.601   6.345   1.832  0.6864  2.5308 -0.8101
 2778SOL    MW410846   1.599   6.354   1.919 -0.2297  0.1937 -0.1254
 2779SOL     OW10847   3.323   4.456   3.686  0.1156  0.5859 -0.5807
 2779SOL    HW210848   3.372   4.528   3.726 -0.8305  1.0251 -0.1782
 2779SOL    HW310849   3.247   4.445   3.742 -0.5695  0.3409 -1.5348
 2779SOL    MW410850   3.320   4.464   3.698  0.1646  0.0625  0.5285
 2780SOL     OW10851   4.997   3.269   4.966  0.6747 -0.4587  1.2485
 2780SOL    HW210852   4.905   3.254   4.943  0.6837 -0.0555  0.9385
 2780SOL    HW310853   4.997   3.353   5.013  1.1779  0.7526 -0.8106
 2780SOL    MW410854   4.985   3.278   4.969  0.1156  0.3554  0.9246
 2781SOL     OW10855   1.785   4.803   0.844 -0.1231 -0.3722 -0.2633
 2781SOL    HW210856   1.782   4.714   0.878  1.0648  0.7694  3.3109
 2781SOL    HW310857   1.857   4.803   0.782 -0.0874 -1.8577 -0.2526
 2781SOL    MW410858   1.794   4.792   0.841  0.0941 -0.4135  0.4158
 2782SOL     OW10859   0.122   2.876   3.732 -0.3208 -0.2016  0.7230
 2782SOL    HW210860   0.162   2.818   3.668  1.4985  0.7512  0.9152
 2782SOL    HW310861   0.119   2.961   3.690 -1.8619 -0.1460  0.8720
 2782SOL    MW410862   0.127   2.879   3.718  0.1757  0.2922  0.3510
 2783SOL     OW10863   1.351   4.922   0.283 -0.4673 -0.6599 -0.2041
 2783SOL    HW210864   1.263   4.901   0.315 -0.2183 -2.3142 -0.4742
 2783SOL    HW310865   1.372   5.006   0.322 -1.1734 -1.4139  1.9357
 2783SOL    MW410866   1.342   4.930   0.292 -0.2055  0.0779  0.4044
 2784SOL     OW10867   6.426   0.115   1.594 -0.0984 -0.1266 -0.6666
 2784SOL    HW210868   6.435   0.204   1.559  0.0894 -0.1869 -0.7719
 2784SOL    HW310869   6.388   0.128   1.681  0.3390  0.0896 -0.5001
 2784SOL    MW410870   6.423   0.129   1.601  0.2790  0.2399 -0.2464
 2785SOL     OW10871   4.548   3.661   3.303  0.3679  0.3036  0.7478
 2785SOL    HW210872   4.548   3.698   3.391  0.1121  1.3643  0.3253
 2785SOL    HW310873   4.583   3.731   3.248 -1.9821  0.7061 -0.3729
 2785SOL    MW410874   4.553   3.675   3.307 -0.0195 -0.0248  0.1261
 2786SOL     OW10875   2.485   6.270   1.296 -0.4614  0.0683 -0.4535
 2786SOL    HW210876   2.420   6.250   1.228 -1.7283  1.8357  0.1603
 2786SOL    HW310877   2.435   6.271   1.378  0.5036  0.7266  0.1482
 2786SOL    MW410878   2.470   6.267   1.298 -0.9282 -0.4421 -0.0548
 2787SOL     OW10879   3.743   0.025   1.089 -0.3194 -0.1673 -0.5669
 2787SOL    HW210880   3.829  -0.010   1.112 -0.3603  1.0303  1.6851
 2787SOL    HW310881   3.758   0.118   1.073 -1.1954  0.0867  0.0258
 2787SOL    MW410882   3.756   0.032   1.090  0.2382 -0.4218 -0.0366
 2788SOL     OW10883   3.889   4.454   3.306 -0.1062 -0.3208 -0.4385
 2788SOL    HW210884   3.796   4.446   3.287 -0.1030 -0.3034 -0.4605
 2788SOL    HW310885   3.908   4.378   3.362 -0.2805  0.0406  0.1197
 2788SOL    MW410886   3.879   4.443   3.311 -0.1229 -0.1831 -0.2770
 2789SOL     OW10887   2.715   5.401   1.338  0.1263 -0.6451  0.2164
 2789SOL    HW210888   2.708   5.401   1.242 -1.2602 -2.1733  0.2621
 2789SOL    HW310889   2.635   5.357   1.367 -0.8600  2.1870  2.2108
 2789SOL    MW410890   2.703   5.395   1.329 -0.3101  0.0885  0.4293
 2790SOL     OW10891   4.618   4.979   0.201  0.1613 -0.5565 -0.4372
 2790SOL    HW210892   4.676   4.927   0.256  1.1839  2.0037  1.1193
 2790SOL    HW310893   4.657   5.067   0.201 -2.0738  0.5454 -1.8757
 2790SOL    MW410894   4.631   4.984   0.208 -0.1684  0.3723  0.4400
 2791SOL     OW10895   1.781   2.908   6.026  0.2910  0.3157 -0.5494
 2791SOL    HW210896   1.772   2.839   6.092 -1.0369  1.4811  0.5676
 2791SOL    HW310897   1.874   2.931   6.027  0.1468  1.1401  1.8719
 2791SOL    MW410898   1.792   2.902   6.035 -0.0989 -0.7267  0.6166
 2792SOL     OW10899   3.781   0.469   6.077 -0.8136  0.2173 -0.2733
 2792SOL    HW210900   3.838   0.473   6.154 -0.8204 -2.4870 -0.0197
 2792SOL    HW310901   3.815   0.536   6.018  0.3884  1.0542  1.2941
 2792SOL    MW410902   3.793   0.478   6.080 -0.1754 -0.1230 -0.6242
 2793SOL     OW10903   6.354   5.749   4.927 -0.3183 -0.3056 -0.0025
 2793SOL    HW210904   6.442   5.771   4.897 -0.2189  1.5031  1.4309
 2793SOL    HW310905   6.344   5.656   4.907  2.3757 -0.8744  0.8897
 2793SOL    MW410906   6.364   5.740   4.920  0.0369 -0.4262  0.3614
 2794SOL     OW10907   5.327   1.101   2.743  0.0510  0.6908  0.4862
 2794SOL    HW210908   5.365   1.172   2.692 -0.8091 -0.2085 -1.4962
 2794SOL    HW310909   5.382   1.025   2.724  0.1690  0.4960  1.5277
 2794SOL    MW410910   5.339   1.100   2.734  0.0131 -0.3181 -0.0490
 2795SOL     OW10911   4.614   1.243   5.445 -0.4955 -0.2670  0.2587
 2795SOL    HW210912   4.677   1.235   5.374  0.3249  1.5770  0.7201
 2795SOL    HW310913   4.530   1.216   5.406 -0.1644  1.1346 -1.5638
 2795SOL    MW410914   4.611   1.238   5.431 -0.2579  0.4257  0.1460
 2796SOL     OW10915   4.024   5.573   2.600  0.9128 -0.0943 -1.1212
 2796SOL    HW210916   4.060   5.489   2.572 -0.8402 -1.4124  0.2868
 2796SOL    HW310917   3.988   5.612   2.520  0.4305 -1.4085 -1.5721
 2796SOL    MW410918   4.024   5.567   2.586 -0.3965 -0.5630 -0.0930
 2797SOL     OW10919   5.588   5.363   1.956  0.0648 -0.6072 -0.7472
 2797SOL    HW210920   5.530   5.310   1.902  1.2027 -2.7405  0.0106
 2797SOL    HW310921   5.629   5.301   2.016  1.2293  1.1987  0.4307
 2797SOL    MW410922   5.586   5.348   1.957  0.0087  0.3542  0.4336
 2798SOL     OW10923   4.010   4.063   0.321  0.0092 -0.0577 -0.1041
 2798SOL    HW210924   4.064   4.101   0.391  0.4394  1.4317 -1.2058
 2798SOL    HW310925   3.933   4.119   0.316 -1.7158 -2.1214  1.3984
 2798SOL    MW410926   4.007   4.075   0.330  0.2590 -0.2043 -0.2360
 2799SOL     OW10927   2.692   5.691   2.097  0.0557  0.0030  0.0745
 2799SOL    HW210928   2.646   5.706   2.180 -1.5481 -0.7061 -0.6530
 2799SOL    HW310929   2.728   5.776   2.074  0.3856  0.2536  1.3846
 2799SOL    MW410930   2.691   5.704   2.105  0.3380 -0.5166 -0.9455
 2800SOL     OW10931   2.726   1.308   1.242  0.7966  0.0837  0.2179
 2800SOL    HW210932   2.688   1.341   1.160  2.2585  0.9623 -0.1468
 2800SOL    HW310933   2.773   1.383   1.278  2.3839 -1.0155  0.5144
 2800SOL    MW410934   2.727   1.322   1.236 -0.0758 -0.1425 -0.0811
 2801SOL     OW10935   6.411   1.696   6.344  0.2355  0.4614 -0.4879
 2801SOL    HW210936   6.451   1.618   6.382  0.0153  0.4008 -0.3805
 2801SOL    HW310937   6.485   1.746   6.308  0.6513  1.3747  1.5310
 2801SOL    MW410938   6.426   1.692   6.344 -0.2712  0.1983  0.5568
 2802SOL     OW10939   1.399   0.662   4.657 -0.5815 -0.2486 -0.5460
 2802SOL    HW210940   1.328   0.714   4.695 -0.2237 -0.4017  0.3629
 2802SOL    HW310941   1.432   0.609   4.730 -0.3730 -1.1174 -1.2587
 2802SOL    MW410942   1.394   0.662   4.672 -0.2734 -0.2288  0.0307
 2803SOL     OW10943   4.968   0.785   3.889 -0.4315  0.0249 -0.1432
 2803SOL    HW210944   4.956   0.877   3.865  2.5965  0.4552 -0.4224
 2803SOL    HW310945   4.935   0.737   3.813 -1.0006  0.9036 -0.4836
 2803SOL    MW410946   4.962   0.791   3.876 -0.4955  0.0704  0.0011
 2804SOL     OW10947   2.857   2.089   1.896 -0.3470 -0.0053  0.4069
 2804SOL    HW210948   2.874   1.995   1.907 -1.1599 -0.1484  0.4614
 2804SOL    HW310949   2.905   2.112   1.816 -0.6082 -0.5956  0.0704
 2804SOL    MW410950   2.866   2.080   1.887 -0.0583  0.8960  0.9520
 2805SOL     OW10951   4.591   0.100   4.535  0.2397 -0.1002  0.3992
 2805SOL    HW210952   4.624   0.100   4.445 -0.5533 -2.5445  0.0620
 2805SOL    HW310953   4.566   0.191   4.550  0.2460  0.3515 -1.8964
 2805SOL    MW410954   4.592   0.112   4.525 -0.2381 -0.1830  0.0309
 2806SOL     OW10955   2.053   0.848   3.300 -0.0418  0.2881 -0.7301
 2806SOL    HW210956   2.079   0.764   3.338  0.4493  0.5904 -0.3799
 2806SOL    HW310957   2.135   0.886   3.268 -0.0449  1.2130  0.2949
 2806SOL    MW410958   2.067   0.842   3.301 -0.0967 -0.7605  0.8537
 2807SOL     OW10959   0.857   4.227   3.776  0.2273 -0.3011  0.3049
 2807SOL    HW210960   0.935   4.180   3.804  1.3275  1.1222 -0.2372
 2807SOL    HW310961   0.870   4.242   3.682  0.0105  1.2190  0.4925
 2807SOL    MW410962   0.869   4.223   3.767 -0.1147  0.8188  0.1598
 2808SOL     OW10963   1.704   3.241   5.845  0.0082 -0.0733 -0.2555
 2808SOL    HW210964   1.680   3.222   5.936  1.6305  1.9558  0.6672
 2808SOL    HW310965   1.799   3.252   5.846  0.0726  0.0186 -2.2138
 2808SOL    MW410966   1.713   3.240   5.857  0.0917  0.9620 -0.0861
 2809SOL     OW10967   0.121   2.759   0.706  0.5216  0.0152 -0.2822
 2809SOL    HW210968   0.132   2.797   0.793 -2.7108  0.9034 -0.1285
 2809SOL    HW310969   0.122   2.665   0.721  2.0669  0.0953  0.3383
 2809SOL    MW410970   0.123   2.752   0.719  0.6442 -0.3124 -0.1140
 2810SOL     OW10971   0.963   0.104   1.492  0.4925  0.1359 -0.1258
 2810SOL    HW210972   0.935   0.123   1.402  3.4280  1.2339 -0.9189
 2810SOL    HW310973   0.973   0.190   1.532  0.7327 -0.2911  0.7550
 2810SOL    MW410974   0.960   0.118   1.486  0.2294  0.0257  0.0867
 2811SOL     OW10975   3.750   1.660   5.207  0.8152  0.4400  0.4713
 2811SOL    HW210976   3.721   1.722   5.141 -1.3048  0.2200  1.1155
 2811SOL    HW310977   3.840   1.686   5.227  0.3713  2.6026 -0.0694
 2811SOL    MW410978   3.758   1.671   5.201 -0.7709  0.4121 -0.5417
 2812SOL     OW10979   3.480   4.565   1.360 -0.3941  0.1740 -0.4450
 2812SOL    HW210980   3.400   4.568   1.309 -1.2711  2.0746  0.8962
 2812SOL    HW310981   3.483   4.650   1.405  2.5297  0.3116 -0.6771
 2812SOL    MW410982   3.470   4.577   1.359  0.1033 -0.0109  0.3961
 2813SOL     OW10983   1.279   1.936   2.463 -0.1947  0.2526  0.0615
 2813SOL    HW210984   1.204   1.909   2.515  0.6617 -0.9939  0.7056
 2813SOL    HW310985   1.283   1.873   2.391  0.8139 -0.3541  0.6135
 2813SOL    MW410986   1.270   1.924   2.461  0.1264 -0.4136 -0.4517
 2814SOL     OW10987   0.772   3.631   5.314 -0.1463 -0.3413  0.0827
 2814SOL    HW210988   0.820   3.561   5.269 -0.5740 -1.3981  1.2263
 2814SOL    HW310989   0.828   3.709   5.303  0.7693 -1.0463 -0.4496
 2814SOL    MW410990   0.786   3.632   5.306 -0.5804 -0.6611  0.4322
 2815SOL     OW10991   4.892   0.135   2.165  0.1016 -0.0322 -0.1244
 2815SOL    HW210992   4.914   0.082   2.088  0.8254  0.3834 -0.2145
 2815SOL    HW310993   4.845   0.210   2.130  3.5340  2.0690 -0.6800
 2815SOL    MW410994   4.889   0.138   2.150  0.3352  0.0609 -0.0474
 2816SOL     OW10995   2.276   3.346   3.401 -0.1448  0.0969  0.1178
 2816SOL    HW210996   2.227   3.396   3.336 -0.0127 -1.3622 -1.1532
 2816SOL    HW310997   2.219   3.273   3.424 -0.1906  0.5813  1.6717
 2816SOL    MW410998   2.262   3.343   3.396 -1.0932 -0.5770  0.0863
 2817SOL     OW10999   3.497   2.826   0.642  0.1623  0.0086 -0.3504
 2817SOL    HW211000   3.577   2.783   0.671 -0.3452 -0.8141 -0.1568
 2817SOL    HW311001   3.523   2.872   0.562  0.8685 -0.0781 -0.1840
 2817SOL    MW411002   3.511   2.827   0.635 -0.7291 -0.2209 -0.3397
 2818SOL     OW11003   3.538   6.174   5.159  0.4212 -0.3738 -0.1471
 2818SOL    HW211004   3.492   6.235   5.102  1.5786  0.5283 -0.1460
 2818SOL    HW311005   3.596   6.229   5.212 -0.2106 -1.2356  1.5415
 2818SOL    MW411006   3.540   6.189   5.159 -0.1093  0.2756  0.1033
 2819SOL     OW11007   6.139   1.931   1.508 -0.0852 -0.5472  0.0647
 2819SOL    HW211008   6.174   1.867   1.445 -0.0260  1.1737 -1.7626
 2819SOL    HW311009   6.045   1.934   1.489 -0.0983 -0.1650  0.1856
 2819SOL    MW411010   6.131   1.923   1.497 -0.7010  0.0392 -0.5944
 2820SOL     OW11011   5.512   0.903   5.018  0.2479  0.0629 -0.2420
 2820SOL    HW211012   5.600   0.873   5.042 -0.0874 -0.4571  0.3707
 2820SOL    HW311013   5.506   0.991   5.054  0.1146 -0.3299  0.7182
 2820SOL    MW411014   5.523   0.910   5.026  0.6241 -0.3786 -0.1958
 2821SOL     OW11015   4.620   0.759   0.627 -0.4425  0.9762  0.1740
 2821SOL    HW211016   4.670   0.790   0.702 -0.7843  2.0320 -0.0240
 2821SOL    HW311017   4.682   0.704   0.578 -0.1725  0.4063  1.1251
 2821SOL    MW411018   4.635   0.756   0.630  0.1252  0.0081 -0.3606
 2822SOL     OW11019   5.417   5.242   3.508 -0.1565 -0.2508 -0.2664
 2822SOL    HW211020   5.464   5.266   3.588 -2.4153  1.2545  0.7274
 2822SOL    HW311021   5.464   5.165   3.474  1.9720  0.1880  1.4664
 2822SOL    MW411022   5.430   5.235   3.514  0.2940  0.4446  0.0810
 2823SOL     OW11023   3.868   0.088   2.840 -0.2227 -0.0541 -0.0574
 2823SOL    HW211024   3.955   0.049   2.831 -0.5615 -0.5009 -1.8131
 2823SOL    HW311025   3.878   0.153   2.909  0.3929 -3.1469  3.0191
 2823SOL    MW411026   3.881   0.092   2.848  0.7852  0.3397 -0.3832
 2824SOL     OW11027   4.148   0.789   4.331  0.2283  0.4575 -0.3478
 2824SOL    HW211028   4.223   0.808   4.388  0.5517  0.4107 -0.7512
 2824SOL    HW311029   4.149   0.694   4.321  0.3997  0.5005 -0.7376
 2824SOL    MW411030   4.158   0.779   4.337  0.0106 -0.3754 -0.1116
 2825SOL     OW11031   0.207   2.593   3.153 -0.0916 -0.3314 -0.1092
 2825SOL    HW211032   0.294   2.557   3.170  0.0781  0.7153  1.5564
 2825SOL    HW311033   0.155   2.563   3.227 -0.2119  1.8481  0.7743
 2825SOL    MW411034   0.212   2.585   3.165  0.3656  0.3859  0.1286
 2826SOL     OW11035   5.334   1.493   5.032 -0.5085  0.0092  0.3860
 2826SOL    HW211036   5.323   1.588   5.038 -0.4429  0.0703 -0.3777
 2826SOL    HW311037   5.395   1.472   5.103  0.1779  0.6594  0.0055
 2826SOL    MW411038   5.341   1.503   5.042 -0.1261  0.4362  0.0900
 2827SOL     OW11039   1.543   3.123   6.367 -0.9143  0.1790 -0.1497
 2827SOL    HW211040   1.627   3.139   6.409  0.4183 -1.6141 -1.9510
 2827SOL    HW311041   1.557   3.147   6.275 -1.9160 -1.4611 -0.7787
 2827SOL    MW411042   1.556   3.129   6.360  0.0985  0.1592  0.4950
 2828SOL     OW11043   1.380   4.153   0.068  0.1791 -0.1209 -0.2217
 2828SOL    HW211044   1.438   4.103   0.125 -0.1009 -2.0800 -1.5401
 2828SOL    HW311045   1.416   4.241   0.067  1.2509 -0.5044  1.4844
 2828SOL    MW411046   1.392   4.158   0.075 -0.7947 -0.0824 -0.5099
 2829SOL     OW11047   1.191   3.202   1.163  0.2012  0.0024 -0.7001
 2829SOL    HW211048   1.241   3.283   1.162  1.2595 -0.6294 -0.2594
 2829SOL    HW311049   1.213   3.161   1.246  0.1030 -0.9906 -1.1494
 2829SOL    MW411050   1.201   3.207   1.174  0.1518  0.3826 -0.0696
 2830SOL     OW11051   2.735   3.045   5.661  0.3475  0.8155 -0.6466
 2830SOL    HW211052   2.727   3.140   5.661  1.0774  0.8935  0.6109
 2830SOL    HW311053   2.659   3.015   5.611  0.6177  2.0770 -1.8771
 2830SOL    MW411054   2.724   3.054   5.654 -0.3986  0.1648 -0.1762
 2831SOL     OW11055   3.360   1.892   1.470  0.1855 -0.2064 -0.4538
 2831SOL    HW211056   3.282   1.866   1.518  0.8803 -0.5394  0.5099
 2831SOL    HW311057   3.339   1.871   1.379 -0.8229 -0.3404 -0.2086
 2831SOL    MW411058   3.347   1.886   1.464 -0.4740  0.1454  0.2038
 2832SOL     OW11059   5.739   2.920   1.400 -0.4167  0.3238 -0.8285
 2832SOL    HW211060   5.817   2.969   1.376  0.0257 -0.2871 -0.6622
 2832SOL    HW311061   5.666   2.975   1.371  0.0805  0.1957 -2.4363
 2832SOL    MW411062   5.739   2.933   1.393  0.3001 -0.1073 -0.2497
 2833SOL     OW11063   0.060   4.247   4.997 -0.1161  0.4166 -0.3506
 2833SOL    HW211064   0.118   4.313   5.036 -0.7827  1.0093 -0.3384
 2833SOL    HW311065   0.065   4.264   4.902 -0.4188  0.5971 -0.3346
 2833SOL    MW411066   0.068   4.258   4.989  0.1115 -0.1282  0.2073
 2834SOL     OW11067   1.798   3.621   2.443 -1.3984  0.3442  0.4991
 2834SOL    HW211068   1.717   3.582   2.477 -1.0153 -2.2016 -1.2538
 2834SOL    HW311069   1.807   3.585   2.355  0.1747  2.8582 -0.4839
 2834SOL    MW411070   1.788   3.611   2.436 -0.4457  0.3529  0.4180
 2835SOL     OW11071   2.574   3.240   2.338 -0.1589  1.0446 -0.2582
 2835SOL    HW211072   2.484   3.243   2.303 -1.0789  0.8489  1.9500
 2835SOL    HW311073   2.580   3.155   2.381  0.8860  1.3365  0.1850
 2835SOL    MW411074   2.563   3.229   2.339  0.1449  0.3692 -0.4993
 2836SOL     OW11075   2.945   4.831   2.730 -0.2273  0.1542  0.0904
 2836SOL    HW211076   2.983   4.917   2.712 -0.1962  0.4485  1.4603
 2836SOL    HW311077   2.964   4.815   2.822  1.8133 -2.3550 -0.6357
 2836SOL    MW411078   2.953   4.840   2.739  0.1564  0.0054 -0.8225
 2837SOL     OW11079   3.251   1.937   3.853 -0.5004  0.1200 -0.7444
 2837SOL    HW211080   3.258   1.888   3.935 -0.8401 -1.2998 -1.5373
 2837SOL    HW311081   3.164   1.916   3.820 -0.5807  1.1251 -1.2121
 2837SOL    MW411082   3.241   1.928   3.859  0.2863 -0.5581  0.7171
 2838SOL     OW11083   1.195   3.517   1.261  0.1882 -0.5920  0.0601
 2838SOL    HW211084   1.178   3.610   1.246  1.8477  0.0116  1.5608
 2838SOL    HW311085   1.286   3.505   1.235  0.0510 -1.7587  0.0839
 2838SOL    MW411086   1.204   3.528   1.255 -0.9449  0.6505 -0.1087
 2839SOL     OW11087   2.554   3.160   3.771 -0.3583 -0.3075  0.1371
 2839SOL    HW211088   2.632   3.202   3.808 -2.0525  2.8537  0.4618
 2839SOL    HW311089   2.563   3.171   3.677 -0.6216  0.5026  0.2011
 2839SOL    MW411090   2.566   3.167   3.764 -0.5028  0.0151 -0.3622
 2840SOL     OW11091   6.050   6.314   1.778 -0.3268  0.0589  0.2271
 2840SOL    HW211092   6.079   6.280   1.863  2.0052  0.0218 -0.5166
 2840SOL    HW311093   6.074   6.246   1.715 -2.9190 -0.3532 -0.4141
 2840SOL    MW411094   6.057   6.301   1.781 -0.3851 -0.1946 -0.1367
 2841SOL     OW11095   5.209   5.013   5.342 -0.2871  0.0604 -0.3707
 2841SOL    HW211096   5.233   5.061   5.263  1.2578 -1.1319 -0.6727
 2841SOL    HW311097   5.283   5.025   5.401 -1.5351  1.1586  1.0400
 2841SOL    MW411098   5.222   5.021   5.339  0.2060  0.1157  0.4657
 2842SOL     OW11099   6.262   0.596   6.328 -0.0668  0.1231  0.1839
 2842SOL    HW211100   6.340   0.542   6.340 -0.3400 -0.0955  1.0125
 2842SOL    HW311101   6.295   0.675   6.285  0.5803 -0.0550  0.3382
 2842SOL    MW411102   6.277   0.600   6.324  0.4291  0.2681 -0.2638
 2843SOL     OW11103   2.442   5.596   4.201  0.3681 -0.3485  0.2519
 2843SOL    HW211104   2.517   5.562   4.251  0.4822  1.1130  1.1496
 2843SOL    HW311105   2.381   5.626   4.269  1.2615  3.2990 -0.3610
 2843SOL    MW411106   2.444   5.595   4.217 -0.0962 -0.1662 -0.3025
 2844SOL     OW11107   2.153   4.588   3.747 -0.3606 -0.0928  0.2657
 2844SOL    HW211108   2.127   4.500   3.774 -1.4142 -0.6061 -2.1190
 2844SOL    HW311109   2.190   4.575   3.659  0.5494  1.7182  0.3491
 2844SOL    MW411110   2.154   4.574   3.739  0.5075  1.4013 -0.3260
 2845SOL     OW11111   4.160   2.437   0.663 -0.0132 -0.4821 -0.3614
 2845SOL    HW211112   4.086   2.382   0.638 -0.6587  0.8384 -1.4665
 2845SOL    HW311113   4.123   2.504   0.721  0.6109 -0.6898  0.3062
 2845SOL    MW411114   4.146   2.439   0.667  0.2997 -0.2134  0.1910
 2846SOL     OW11115   6.371   3.110   3.378  0.3810 -0.5362  0.3220
 2846SOL    HW211116   6.418   3.034   3.346 -0.7303 -0.3457 -1.9420
 2846SOL    HW311117   6.352   3.162   3.300  0.1295  1.5114  1.6660
 2846SOL    MW411118   6.375   3.107   3.364  0.1448  0.3541 -0.5900
 2847SOL     OW11119   0.150   4.515   0.867  0.3190 -0.4760 -0.1087
 2847SOL    HW211120   0.199   4.470   0.799  1.7531  1.0258 -0.1301
 2847SOL    HW311121   0.215   4.571   0.910 -1.7793  3.9376 -2.0744
 2847SOL    MW411122   0.165   4.517   0.864 -0.1478  0.8621  0.2645
 2848SOL     OW11123   5.089   4.489   2.991 -0.2571 -0.0631  0.0061
 2848SOL    HW211124   4.998   4.471   2.964 -0.5682 -0.2429  1.1405
 2848SOL    HW311125   5.118   4.557   2.930 -1.1983  0.0818 -0.3036
 2848SOL    MW411126   5.081   4.496   2.979 -0.2250 -0.0002 -0.9652
 2849SOL     OW11127   6.033   3.361   4.847  0.0666  0.0574  0.5925
 2849SOL    HW211128   6.098   3.410   4.798  1.2871 -0.5586  1.5355
 2849SOL    HW311129   6.007   3.419   4.919 -0.3785  0.2701  0.2658
 2849SOL    MW411130   6.038   3.375   4.850 -0.0479  0.4729  0.3554
 2850SOL     OW11131   4.492   4.807   4.450  1.0856 -0.1675 -0.1251
 2850SOL    HW211132   4.506   4.839   4.539  2.2333  0.0446 -0.3615
 2850SOL    HW311133   4.472   4.714   4.461 -1.0110  0.2943  0.4799
 2850SOL    MW411134   4.491   4.799   4.463  0.0627  0.0947 -0.0960
 2851SOL     OW11135   5.821   5.290   3.124 -0.1256  0.3054 -0.1844
 2851SOL    HW211136   5.795   5.210   3.170 -0.9015  1.6397  1.8443
 2851SOL    HW311137   5.893   5.326   3.177 -0.1423  1.2017 -0.7453
 2851SOL    MW411138   5.827   5.284   3.137 -0.0204 -0.0396  0.1179
 2852SOL     OW11139   1.379   2.439   3.413  0.1657  0.2664 -0.0439
 2852SOL    HW211140   1.420   2.354   3.394  3.1550  1.5894 -0.0156
 2852SOL    HW311141   1.353   2.473   3.327 -0.1136 -0.2114 -0.1534
 2852SOL    MW411142   1.381   2.432   3.399  0.3020 -0.4181  0.0026
 2853SOL     OW11143   4.700   4.836   3.737 -0.7981 -0.3334 -0.0656
 2853SOL    HW211144   4.767   4.897   3.709 -0.5236 -1.6613 -2.5766
 2853SOL    HW311145   4.641   4.888   3.792  1.2970  1.2601  0.7887
 2853SOL    MW411146   4.701   4.851   3.741  0.3353 -0.4044  0.1440
 2854SOL     OW11147   5.896   5.731   0.369 -0.6239 -0.3721  0.0354
 2854SOL    HW211148   5.907   5.776   0.285 -0.5017  0.0996  0.2991
 2854SOL    HW311149   5.884   5.639   0.346 -2.1516 -0.0385 -0.5825
 2854SOL    MW411150   5.896   5.725   0.355 -0.0447 -0.2513  0.0980
 2855SOL     OW11151   0.039   4.635   4.050 -0.3899  0.2748 -0.5668
 2855SOL    HW211152   0.129   4.604   4.055 -0.3110  0.5954  0.2236
 2855SOL    HW311153   0.047   4.726   4.021 -0.4582  0.2663 -0.6103
 2855SOL    MW411154   0.052   4.643   4.047 -0.1496 -0.5485 -0.0643
 2856SOL     OW11155   2.310   2.543   5.427 -0.0375  0.3241  0.1782
 2856SOL    HW211156   2.256   2.464   5.431  0.6980 -0.3755 -2.0324
 2856SOL    HW311157   2.257   2.610   5.471 -1.8428 -0.7912 -0.1601
 2856SOL    MW411158   2.296   2.542   5.433  0.4594  0.0597  0.8099
 2857SOL     OW11159   1.230   1.748   2.188  0.5436 -0.2055  0.2619
 2857SOL    HW211160   1.179   1.769   2.109  0.7055 -0.2840  0.1361
 2857SOL    HW311161   1.320   1.767   2.164  0.4294  1.3806  0.9794
 2857SOL    MW411162   1.235   1.753   2.174  0.0798  0.0356  0.5108
 2858SOL     OW11163   3.202   2.511   4.277 -0.0958 -0.9302 -0.2941
 2858SOL    HW211164   3.199   2.421   4.310  1.8100 -0.8419  0.2257
 2858SOL    HW311165   3.293   2.538   4.289 -0.9945  1.7293  1.2676
 2858SOL    MW411166   3.213   2.503   4.283  0.5720 -0.1377 -0.2704
 2859SOL     OW11167   1.035   3.266   6.061  0.3852  0.1601 -0.6696
 2859SOL    HW211168   0.997   3.323   6.129 -0.9644 -0.8179 -0.5540
 2859SOL    HW311169   0.980   3.187   6.063  1.3149 -0.5474 -1.8167
 2859SOL    MW411170   1.023   3.263   6.070  0.4420 -0.1914  0.2833
 2860SOL     OW11171   6.046   4.125   4.431  0.2870  0.0513 -0.1443
 2860SOL    HW211172   5.954   4.152   4.432 -0.0371 -1.0031 -0.0968
 2860SOL    HW311173   6.045   4.036   4.395  1.2137 -0.2430  0.5123
 2860SOL    MW411174   6.034   4.117   4.426  0.2576  0.2423 -0.5565
 2861SOL     OW11175   0.663   3.857   4.764 -0.0233 -0.0957 -0.1325
 2861SOL    HW211176   0.700   3.823   4.845 -4.0602 -0.7102  1.7112
 2861SOL    HW311177   0.658   3.781   4.706  0.9752 -0.1148 -0.2081
 2861SOL    MW411178   0.667   3.843   4.767 -0.2074  0.0434  0.6503
 2862SOL     OW11179   2.879   6.126   4.735 -0.0742 -0.7036 -0.3742
 2862SOL    HW211180   2.811   6.161   4.678  0.3342 -0.6282 -0.8267
 2862SOL    HW311181   2.954   6.184   4.720  0.0742 -0.7594  0.1485
 2862SOL    MW411182   2.880   6.138   4.725 -0.8221  0.1568  0.1191
 2863SOL     OW11183   5.908   2.760   4.540 -0.3046  0.0369 -0.0755
 2863SOL    HW211184   5.981   2.808   4.579  1.6802 -0.5184 -2.8771
 2863SOL    HW311185   5.868   2.821   4.479 -1.4158 -0.1045  0.4716
 2863SOL    MW411186   5.912   2.774   4.537 -0.1652  0.2696  0.0738
 2864SOL     OW11187   4.401   4.203   5.596 -0.1390 -0.2318  0.1698
 2864SOL    HW211188   4.401   4.239   5.507 -1.6712  1.0844  0.6748
 2864SOL    HW311189   4.467   4.254   5.643  0.6057 -0.8673 -0.1571
 2864SOL    MW411190   4.410   4.214   5.590  0.0097 -0.2356  0.1452
 2865SOL     OW11191   6.092   1.386   4.014  0.6489  0.1039  0.1579
 2865SOL    HW211192   6.167   1.326   4.013  0.0508 -0.8869  3.4055
 2865SOL    HW311193   6.110   1.445   4.087 -0.4687  1.6656 -0.7791
 2865SOL    MW411194   6.104   1.386   4.023 -0.2296 -0.4538 -0.0428
 2866SOL     OW11195   0.946   5.868   5.682 -0.0660 -0.1754 -0.1041
 2866SOL    HW211196   0.921   5.788   5.728  1.9177 -0.7785 -0.0033
 2866SOL    HW311197   1.006   5.840   5.613 -0.4014  1.0872 -0.9558
 2866SOL    MW411198   0.951   5.854   5.679 -0.4011 -0.2448 -0.6372
 2867SOL     OW11199   3.053   0.374   5.037 -0.4255 -0.0273 -0.5223
 2867SOL    HW211200   2.961   0.368   5.064 -0.6417  3.5065 -0.0928
 2867SOL    HW311201   3.050   0.417   4.951  0.7975 -2.3444 -1.8461
 2867SOL    MW411202   3.040   0.379   5.029  0.1577 -0.4005 -0.1005
 2868SOL     OW11203   3.839   0.131   5.177 -0.1305  0.2697  0.6602
 2868SOL    HW211204   3.772   0.189   5.140 -0.0751 -0.8936 -1.3869
 2868SOL    HW311205   3.791   0.054   5.207  0.1473 -0.1465  0.0715
 2868SOL    MW411206   3.824   0.129   5.176 -0.3658  0.1128 -0.9359
 2869SOL     OW11207   5.292   3.759   4.337  0.0462  0.5980 -0.1248
 2869SOL    HW211208   5.275   3.846   4.302  1.2232  0.7280 -0.4332
 2869SOL    HW311209   5.387   3.757   4.350  0.0408 -0.6464 -0.1600
 2869SOL    MW411210   5.303   3.770   4.334 -0.4925  0.1520  0.2079
 2870SOL     OW11211   0.775   4.069   5.102  1.1333  0.4731  0.2977
 2870SOL    HW211212   0.796   4.104   5.189 -3.3447  0.6539  1.5592
 2870SOL    HW311213   0.764   3.975   5.116  1.0001  0.4095 -0.2381
 2870SOL    MW411214   0.776   4.062   5.116  0.4363  0.0692 -0.2464
 2871SOL     OW11215   0.232   5.665   1.258  0.5510 -0.2370  0.3122
 2871SOL    HW211216   0.169   5.634   1.191 -0.7797 -0.0551  1.4316
 2871SOL    HW311217   0.305   5.603   1.252 -0.6849 -1.7832  0.3937
 2871SOL    MW411218   0.233   5.652   1.248  0.2283 -0.2256 -0.0017
 2872SOL     OW11219   5.205   3.939   2.599  0.4858 -0.8124  0.0373
 2872SOL    HW211220   5.114   3.921   2.576  0.0441 -0.5877  1.5398
 2872SOL    HW311221   5.237   3.857   2.636  0.3689 -0.4022  1.0747
 2872SOL    MW411222   5.197   3.926   2.601  0.2886  0.7517 -0.0736
 2873SOL     OW11223   3.420   0.624   0.250  0.3553 -0.3217 -0.3428
 2873SOL    HW211224   3.507   0.644   0.216 -0.0243  1.9624 -0.1609
 2873SOL    HW311225   3.429   0.634   0.345 -0.1677  0.2782 -0.3516
 2873SOL    MW411226   3.433   0.628   0.258 -0.4639 -0.4556  0.3908
 2874SOL     OW11227   2.943   0.526   2.449 -0.4449  0.5439 -0.2229
 2874SOL    HW211228   3.002   0.477   2.392  0.3067 -1.4774  2.1257
 2874SOL    HW311229   3.001   0.582   2.500 -0.8285  0.4183  0.3519
 2874SOL    MW411230   2.958   0.527   2.448 -0.1932  0.1065  0.0631
 2875SOL     OW11231   2.227   5.618   0.913  0.1566  0.0723  0.6599
 2875SOL    HW211232   2.313   5.613   0.955  0.7747 -2.1914 -0.6876
 2875SOL    HW311233   2.188   5.532   0.928 -0.4159 -0.1404 -1.5880
 2875SOL    MW411234   2.233   5.606   0.920  0.4375  0.0560  0.0728
 2876SOL     OW11235   0.091   4.893   2.037  0.1638 -0.3255  1.0567
 2876SOL    HW211236   0.098   4.944   2.117  1.6692  1.7211 -0.2638
 2876SOL    HW311237   0.171   4.841   2.035 -1.4061 -2.9818  2.4417
 2876SOL    MW411238   0.102   4.893   2.047  0.1872 -0.8801  0.2487
 2877SOL     OW11239   2.490   5.436   2.039 -0.2855 -0.0693 -0.2897
 2877SOL    HW211240   2.464   5.403   2.125 -2.3872 -0.0565 -0.8567
 2877SOL    HW311241   2.523   5.524   2.056 -2.4948  0.7111  0.3608
 2877SOL    MW411242   2.491   5.443   2.052 -0.4622 -0.0388  0.3851
 2878SOL     OW11243   3.463   3.864   5.133  0.1880 -0.2707  0.1140
 2878SOL    HW211244   3.430   3.864   5.223 -0.6283  1.8596 -0.1144
 2878SOL    HW311245   3.558   3.856   5.142  0.2609  1.3565  1.2982
 2878SOL    MW411246   3.471   3.863   5.146 -0.8363 -0.3605  0.4277
 2879SOL     OW11247   0.761   4.330   2.326 -0.0553  0.1105 -0.5683
 2879SOL    HW211248   0.838   4.296   2.281  0.0842  1.6401 -1.5874
 2879SOL    HW311249   0.691   4.322   2.262  0.5473  4.1600 -2.0522
 2879SOL    MW411250   0.762   4.325   2.311 -0.1278 -0.0432  0.4573
 2880SOL     OW11251   5.906   4.124   4.832  0.0490 -0.0069  0.0514
 2880SOL    HW211252   5.877   4.119   4.924 -1.6467  0.2238 -0.4413
 2880SOL    HW311253   5.975   4.191   4.833  0.2575 -0.2093  1.1938
 2880SOL    MW411254   5.912   4.132   4.845  0.0093  0.3641 -0.1215
 2881SOL     OW11255   4.943   2.380   0.978  0.2791 -0.2409 -0.6762
 2881SOL    HW211256   4.972   2.405   1.066  0.1323  0.9127 -0.9398
 2881SOL    HW311257   4.916   2.289   0.987  1.2464 -0.4535  0.2337
 2881SOL    MW411258   4.943   2.371   0.991 -1.3998 -0.4556  0.2593
 2882SOL     OW11259   5.089   3.217   0.229  0.3384 -0.2574 -0.2928
 2882SOL    HW211260   5.061   3.307   0.242  1.0316  0.2060 -1.8048
 2882SOL    HW311261   5.025   3.181   0.167 -0.1194 -0.9175  0.5445
 2882SOL    MW411262   5.077   3.224   0.223  0.2780  0.1138  0.2127
 2883SOL     OW11263   4.024   6.285   3.770 -0.3213  0.5610  0.0812
 2883SOL    HW211264   3.976   6.332   3.839  2.4090  2.1387  1.0814
 2883SOL    HW311265   4.115   6.289   3.798  0.7904  0.2840 -3.1085
 2883SOL    MW411266   4.030   6.292   3.783  0.1006  0.3532 -0.0686
 2884SOL     OW11267   4.568   0.269   3.903 -0.1777  0.0319  0.5600
 2884SOL    HW211268   4.520   0.292   3.983  0.2562  0.2746  0.7559
 2884SOL    HW311269   4.659   0.290   3.923 -0.0344 -0.1125  0.0755
 2884SOL    MW411270   4.574   0.275   3.916 -0.3705 -0.5348  0.0220
 2885SOL     OW11271   4.597   1.667   6.419 -0.1624  0.0819  0.8152
 2885SOL    HW211272   4.678   1.695   6.376 -1.0743  0.2113 -0.8868
 2885SOL    HW311273   4.566   1.745   6.465 -0.2443  0.5437 -0.0153
 2885SOL    MW411274   4.604   1.681   6.420  0.3185  0.0380  0.1268
 2886SOL     OW11275   5.034   5.700   6.164  0.0957  0.0352 -0.3347
 2886SOL    HW211276   5.109   5.652   6.199  0.1607  0.8444  0.6988
 2886SOL    HW311277   5.070   5.784   6.134 -0.1951 -0.0804 -1.0352
 2886SOL    MW411278   5.048   5.705   6.164  0.1139  0.1786  0.1056
 2887SOL     OW11279   4.982   0.579   4.191  0.0255  0.1616  0.2119
 2887SOL    HW211280   4.893   0.590   4.158 -0.2601 -1.7041  0.2539
 2887SOL    HW311281   4.983   0.490   4.228  1.3869  0.7990  1.8504
 2887SOL    MW411282   4.971   0.569   4.192 -0.4618 -0.1317 -0.1606
 2888SOL     OW11283   0.536   2.332   4.785  0.3577  0.7024 -0.2643
 2888SOL    HW211284   0.459   2.353   4.838  0.4112 -0.0770  0.1377
 2888SOL    HW311285   0.501   2.310   4.698 -0.1453 -1.9364  0.5151
 2888SOL    MW411286   0.521   2.332   4.780 -0.1519 -0.4400 -0.5165
 2889SOL     OW11287   3.229   1.404   1.989  0.2239 -0.6744 -0.0288
 2889SOL    HW211288   3.198   1.423   1.900 -1.1740  0.5113  0.6683
 2889SOL    HW311289   3.261   1.488   2.021  0.1418 -0.9553  0.8032
 2889SOL    MW411290   3.229   1.418   1.981  0.1175  0.9044  0.0933
 2890SOL     OW11291   1.694   2.237   2.117  0.5317 -0.1936 -0.0331
 2890SOL    HW211292   1.780   2.217   2.080  0.8604 -0.6742  0.9474
 2890SOL    HW311293   1.709   2.316   2.170 -0.3335  1.6316 -2.3117
 2890SOL    MW411294   1.707   2.245   2.119 -0.5031 -0.1119  0.6605
 2891SOL     OW11295   0.960   3.476   3.159  0.2319 -0.2967  0.2267
 2891SOL    HW211296   1.046   3.435   3.146 -0.0720 -1.0105  0.4243
 2891SOL    HW311297   0.929   3.441   3.243  0.1114  0.6118  0.5809
 2891SOL    MW411298   0.967   3.466   3.169 -0.3429 -0.1709 -0.3359
 2892SOL     OW11299   6.389   5.223   1.394  0.5169 -0.2064 -0.1477
 2892SOL    HW211300   6.440   5.143   1.406 -0.6716 -1.3198 -1.9120
 2892SOL    HW311301   6.389   5.238   1.299 -1.1791  0.5668 -0.0752
 2892SOL    MW411302   6.396   5.215   1.383  0.1393  0.0589  0.1620
 2893SOL     OW11303   0.382   0.954   1.854  0.4180 -0.4407  0.2024
 2893SOL    HW211304   0.388   0.942   1.949  0.0204 -0.3394  0.2449
 2893SOL    HW311305   0.394   0.867   1.818  1.8166 -0.2972  0.2743
 2893SOL    MW411306   0.384   0.941   1.862  0.3093 -0.8543  0.0565
 2894SOL     OW11307   2.258   5.453   6.362 -0.1705  0.5500  0.0920
 2894SOL    HW211308   2.214   5.392   6.303 -0.1840 -0.7916  1.4246
 2894SOL    HW311309   2.195   5.524   6.375  0.1080  1.2817 -2.0281
 2894SOL    MW411310   2.244   5.455   6.356  0.1696 -0.2737 -0.3088
 2895SOL     OW11311   2.723   6.343   2.521  0.0357  0.1249  0.2997
 2895SOL    HW211312   2.693   6.419   2.470 -1.4556  0.4285  1.5532
 2895SOL    HW311313   2.688   6.358   2.608 -1.8865 -2.8897  0.1872
 2895SOL    MW411314   2.715   6.355   2.525  0.0766  0.4098  0.5251
 2896SOL     OW11315   1.878   0.828   2.624  0.3735 -0.5389 -0.0801
 2896SOL    HW211316   1.856   0.918   2.648  0.7375 -0.2898 -0.6725
 2896SOL    HW311317   1.842   0.775   2.695 -1.9134 -0.1314 -0.8746
 2896SOL    MW411318   1.871   0.833   2.637 -0.0802  0.4081 -0.3002
 2897SOL     OW11319   1.114   0.692   5.751 -0.0162 -0.1964  0.3501
 2897SOL    HW211320   1.155   0.606   5.743  2.6500  1.0136  0.1740
 2897SOL    HW311321   1.125   0.732   5.664 -0.8182  0.5141  0.5596
 2897SOL    MW411322   1.121   0.686   5.738  0.0605 -0.2588 -0.1221
 2898SOL     OW11323   3.176   5.837   3.273 -0.3001 -0.1598 -0.3717
 2898SOL    HW211324   3.247   5.898   3.252 -1.7379  1.3306 -1.1086
 2898SOL    HW311325   3.158   5.792   3.191  0.6538 -1.5024  0.1352
 2898SOL    MW411326   3.183   5.839   3.259  0.0811 -0.1147  0.0141
 2899SOL     OW11327   4.087   6.348   0.283 -0.5316  0.1433 -0.6457
 2899SOL    HW211328   4.031   6.361   0.206 -2.5095  0.6961  0.8385
 2899SOL    HW311329   4.083   6.431   0.330 -1.0650 -0.8439  1.1426
 2899SOL    MW411330   4.079   6.361   0.279 -0.6312  0.1125 -0.1826
 2900SOL     OW11331   4.897   0.605   2.446 -0.1379  0.0533  0.7744
 2900SOL    HW211332   4.952   0.590   2.523 -2.0130 -1.6424  1.9138
 2900SOL    HW311333   4.837   0.675   2.473 -1.5613 -1.3278  1.3938
 2900SOL    MW411334   4.896   0.612   2.460 -0.5152  0.1134 -0.0759
 2901SOL     OW11335   3.305   0.962   5.587 -0.0748 -1.0546  0.1474
 2901SOL    HW211336   3.330   0.880   5.629 -1.6162 -2.4366 -1.4500
 2901SOL    HW311337   3.296   0.939   5.494  1.0888  1.3468 -0.6251
 2901SOL    MW411338   3.307   0.948   5.580  0.2604  0.0063  0.3723
 2902SOL     OW11339   2.321   5.411   5.765 -0.3154  0.1724  0.7047
 2902SOL    HW211340   2.337   5.505   5.757 -1.2258  0.2404 -0.7702
 2902SOL    HW311341   2.402   5.370   5.733 -0.6170  0.4798 -0.4963
 2902SOL    MW411342   2.334   5.418   5.760  0.0468  0.1421 -0.1959
 2903SOL     OW11343   2.087   4.316   5.930  0.1983 -0.0549  0.3375
 2903SOL    HW211344   2.166   4.364   5.955 -0.4016 -0.0284  2.3499
 2903SOL    HW311345   2.019   4.383   5.923 -0.3060 -0.3934  1.6809
 2903SOL    MW411346   2.089   4.331   5.932 -0.3337  0.0235 -0.2145
 2904SOL     OW11347   4.589   2.474   5.911  0.0735  0.3510 -0.0082
 2904SOL    HW211348   4.508   2.461   5.960 -0.0672  2.4034  0.4063
 2904SOL    HW311349   4.560   2.502   5.824  0.3435 -1.7176 -0.8077
 2904SOL    MW411350   4.574   2.476   5.906 -0.5207 -0.0180 -0.3070
 2905SOL     OW11351   1.627   3.430   5.524 -0.5073 -0.0308  0.5421
 2905SOL    HW211352   1.598   3.464   5.609 -0.8177 -0.2916  0.5437
 2905SOL    HW311353   1.640   3.508   5.470  1.9284  0.3162  1.4960
 2905SOL    MW411354   1.625   3.445   5.528 -0.1599  0.2168 -0.1479
 2906SOL     OW11355   3.898   5.397   1.825  0.1979 -0.1034 -0.3270
 2906SOL    HW211356   3.903   5.488   1.797 -0.1907  0.3863  1.1375
 2906SOL    HW311357   3.827   5.360   1.772  0.3360  0.4427 -0.9110
 2906SOL    MW411358   3.889   5.404   1.814 -0.1399  0.1371 -0.2101
 2907SOL     OW11359   6.171   6.349   2.762  0.1323 -0.0103  0.1805
 2907SOL    HW211360   6.265   6.332   2.761 -0.0460 -1.4622  1.5636
 2907SOL    HW311361   6.137   6.285   2.826 -2.0502 -0.9284 -1.7535
 2907SOL    MW411362   6.179   6.338   2.771  0.1797  0.0465 -0.4530
 2908SOL     OW11363   2.576   6.083   1.953  0.1304 -0.0049  0.1344
 2908SOL    HW211364   2.517   6.114   1.884  0.6611 -1.2278 -0.9041
 2908SOL    HW311365   2.591   6.161   2.007  1.0145  1.4701 -2.0667
 2908SOL    MW411366   2.570   6.098   1.951  0.2479  0.0476  0.1356
 2909SOL     OW11367   2.032   1.011   2.096  0.1999  0.4995 -0.1857
 2909SOL    HW211368   2.121   0.986   2.071  0.0883  1.2800 -1.4750
 2909SOL    HW311369   2.018   1.095   2.053 -1.3996  0.0707 -0.5890
 2909SOL    MW411370   2.042   1.018   2.087 -0.7993  0.2496 -0.0874
 2910SOL     OW11371   2.825   0.643   0.768 -0.3061 -0.6969 -0.1294
 2910SOL    HW211372   2.893   0.659   0.834 -0.5144 -0.6981  0.0882
 2910SOL    HW311373   2.743   0.641   0.818 -0.4797 -0.5815 -0.4029
 2910SOL    MW411374   2.823   0.645   0.783  0.3298  0.0901 -0.4787
 2911SOL     OW11375   6.020   1.690   5.813  0.2803 -0.3157  0.6956
 2911SOL    HW211376   6.101   1.655   5.775  1.0773  0.7470  1.3636
 2911SOL    HW311377   5.951   1.636   5.776  1.3713 -1.8694  0.8363
 2911SOL    MW411378   6.021   1.678   5.803  0.3597 -0.0064 -0.0033
 2912SOL     OW11379   3.056   1.329   1.276  0.1692 -0.0597  0.0829
 2912SOL    HW211380   3.130   1.273   1.299  0.4352  0.5211  0.7168
 2912SOL    HW311381   3.008   1.281   1.210 -0.2217 -1.5257  1.3743
 2912SOL    MW411382   3.059   1.315   1.271  0.3698 -0.2887 -0.2434
 2913SOL     OW11383   4.633   4.526   5.484 -0.4967  0.9536  0.1717
 2913SOL    HW211384   4.581   4.447   5.469  1.7269 -0.6662  0.5082
 2913SOL    HW311385   4.704   4.498   5.541  0.2094  3.2921  0.5469
 2913SOL    MW411386   4.635   4.512   5.489 -0.5166 -0.4347  0.4591
 2914SOL     OW11387   1.584   0.747   3.354 -0.7273 -0.3468  0.1091
 2914SOL    HW211388   1.510   0.774   3.409  1.5391  1.5883  2.4640
 2914SOL    HW311389   1.590   0.816   3.287 -0.8219 -0.2655  0.1832
 2914SOL    MW411390   1.575   0.760   3.352 -0.0788  0.3115  0.5303
 2915SOL     OW11391   3.380   4.379   0.332  0.0605 -0.1643  0.1189
 2915SOL    HW211392   3.314   4.399   0.265 -1.1941  0.3196  1.4457
 2915SOL    HW311393   3.437   4.456   0.332 -1.0606  0.6998  0.8844
 2915SOL    MW411394   3.379   4.392   0.323  0.0957  0.0234  0.0413
 2916SOL     OW11395   2.119   5.436   1.889 -0.2875 -0.8016 -0.4218
 2916SOL    HW211396   2.137   5.391   1.807 -1.3370  0.4200 -1.3614
 2916SOL    HW311397   2.198   5.487   1.907  0.3779 -1.9365 -0.0656
 2916SOL    MW411398   2.132   5.437   1.881 -0.0399  0.2688 -0.6544
 2917SOL     OW11399   0.220   1.990   5.065 -0.1167  1.0500  0.1756
 2917SOL    HW211400   0.273   1.971   4.987 -0.2187  1.1154  0.0892
 2917SOL    HW311401   0.263   2.064   5.106 -1.2750  2.4374 -1.0040
 2917SOL    MW411402   0.233   1.997   5.060  0.4002  0.1427 -0.3009
 2918SOL     OW11403   1.233   5.524   2.660  0.1044 -0.5504 -0.2433
 2918SOL    HW211404   1.314   5.544   2.613  0.6157 -2.0290 -0.0251
 2918SOL    HW311405   1.166   5.521   2.591  0.5714 -1.1518 -0.6859
 2918SOL    MW411406   1.234   5.526   2.645 -0.0189 -0.1344 -0.2080
 2919SOL     OW11407   2.167   1.337   3.972  0.3893  0.7225 -0.1365
 2919SOL    HW211408   2.208   1.322   4.057 -0.8379  1.5063  0.6239
 2919SOL    HW311409   2.239   1.362   3.914  1.3903 -0.8257  0.3849
 2919SOL    MW411410   2.182   1.339   3.976 -0.7570 -0.2373  0.3355
 2920SOL     OW11411   4.139   1.264   1.881 -0.1233  0.1410  0.1710
 2920SOL    HW211412   4.087   1.338   1.852 -0.9119 -0.5877 -0.3386
 2920SOL    HW311413   4.230   1.294   1.874 -0.3683  0.6746 -1.1542
 2920SOL    MW411414   4.144   1.278   1.876 -0.4847 -0.3766 -0.1246
 2921SOL     OW11415   0.430   0.056   1.077 -0.0961  0.1259  0.6507
 2921SOL    HW211416   0.480   0.122   1.124  0.6196  0.3657 -0.4202
 2921SOL    HW311417   0.479  -0.025   1.091 -0.2752  0.0587  0.9003
 2921SOL    MW411418   0.443   0.054   1.085 -0.0450  0.0444 -0.3871
 2922SOL     OW11419   0.204   2.457   5.276  0.1067 -0.3053 -0.2409
 2922SOL    HW211420   0.116   2.451   5.240  0.4046 -2.3744 -0.8116
 2922SOL    HW311421   0.252   2.513   5.215 -1.2574  2.6055  1.2048
 2922SOL    MW411422   0.199   2.463   5.263  0.0814 -0.6681 -0.5086
 2923SOL     OW11423   3.457   3.073   3.166 -0.8411  0.3280 -0.5332
 2923SOL    HW211424   3.407   3.041   3.091  0.2925 -0.2975 -1.0383
 2923SOL    HW311425   3.520   3.004   3.185 -0.9041  0.6056  0.8165
 2923SOL    MW411426   3.459   3.060   3.159 -1.2302  0.3746  0.0594
 2924SOL     OW11427   2.353   0.627   4.664 -0.1563  0.1216 -0.3624
 2924SOL    HW211428   2.399   0.648   4.583  0.5871  1.4893  0.3877
 2924SOL    HW311429   2.270   0.675   4.658  0.4003  1.1870  0.1746
 2924SOL    MW411430   2.348   0.636   4.652 -0.4132  0.6584 -0.4325
 2925SOL     OW11431   2.719   1.528   2.457 -0.0529  0.2174  0.2327
 2925SOL    HW211432   2.659   1.465   2.498  1.2079 -1.2164 -0.0486
 2925SOL    HW311433   2.662   1.586   2.407 -1.5117  1.0242  2.6356
 2925SOL    MW411434   2.703   1.528   2.456  0.1055 -0.4778  0.1728
 2926SOL     OW11435   2.609   5.755   0.270  0.5041 -0.4178  0.0402
 2926SOL    HW211436   2.627   5.849   0.272 -1.1917  0.0300 -1.8689
 2926SOL    HW311437   2.613   5.728   0.361  1.0751  1.4778  0.6407
 2926SOL    MW411438   2.612   5.764   0.282 -0.4163  0.8671 -0.2810
 2927SOL     OW11439   5.337   6.245   2.741  0.0374 -0.3747 -0.8539
 2927SOL    HW211440   5.374   6.262   2.654 -1.5171  1.1164 -1.2751
 2927SOL    HW311441   5.404   6.276   2.802  0.6977 -0.4275 -1.5365
 2927SOL    MW411442   5.350   6.251   2.737  0.1703  0.5162  0.3352
 2928SOL     OW11443   3.460   3.057   5.733  0.4350 -0.5053  0.6486
 2928SOL    HW211444   3.466   3.014   5.647  0.5144 -1.3266  1.0590
 2928SOL    HW311445   3.368   3.048   5.758 -0.4743  2.8632 -0.9151
 2928SOL    MW411446   3.449   3.050   5.725 -0.1095 -0.4873 -0.0477
 2929SOL     OW11447   2.257   3.697   0.307  0.1775 -0.3735  0.2524
 2929SOL    HW211448   2.330   3.757   0.293 -2.0013  2.1062 -1.3022
 2929SOL    HW311449   2.220   3.723   0.391 -0.2572 -0.0934 -0.0211
 2929SOL    MW411450   2.262   3.708   0.316 -0.1944 -0.6468 -0.2934
 2930SOL     OW11451   0.700   2.656   4.322 -0.1730 -0.3979 -0.4025
 2930SOL    HW211452   0.721   2.657   4.229  0.8956 -0.4948 -0.1822
 2930SOL    HW311453   0.618   2.608   4.328 -0.8836  0.6512 -1.4067
 2930SOL    MW411454   0.692   2.649   4.311 -0.0745 -0.5926 -0.0473
 2931SOL     OW11455   4.201   0.042   5.911  0.2711  0.8544 -0.3806
 2931SOL    HW211456   4.162   0.124   5.940 -0.3515 -0.2017  2.0190
 2931SOL    HW311457   4.145  -0.026   5.948  1.0071 -0.6937 -1.9370
 2931SOL    MW411458   4.189   0.044   5.920  0.6520 -0.1230 -0.0915
 2932SOL     OW11459   4.918   2.405   6.295 -0.0676 -0.1548 -0.5018
 2932SOL    HW211460   4.970   2.327   6.311  2.4164  1.8212  1.9411
 2932SOL    HW311461   4.961   2.448   6.222  0.7911  0.6697  0.4687
 2932SOL    MW411462   4.930   2.400   6.287  0.1827  0.0617 -0.0492
 2933SOL     OW11463   5.820   5.333   1.308 -0.6436  0.3395  0.3834
 2933SOL    HW211464   5.795   5.404   1.249 -0.4563  1.3364  1.4550
 2933SOL    HW311465   5.737   5.293   1.334 -0.8931  1.2811  1.0902
 2933SOL    MW411466   5.805   5.337   1.304 -0.2748  0.5022 -0.5850
 2934SOL     OW11467   6.145   0.526   5.010  0.1754 -0.4746  0.4419
 2934SOL    HW211468   6.123   0.521   5.104 -0.5423  0.2674  0.3270
 2934SOL    HW311469   6.238   0.505   5.006 -0.0806 -1.8860  1.1690
 2934SOL    MW411470   6.154   0.522   5.022  0.5584 -0.0440 -0.7281
 2935SOL     OW11471   0.896   5.024   3.599 -0.0867 -0.0240 -0.3159
 2935SOL    HW211472   0.843   4.957   3.555 -0.3991 -0.7997  1.1962
 2935SOL    HW311473   0.971   4.976   3.634 -0.9034  0.1737  1.7987
 2935SOL    MW411474   0.899   5.009   3.598  0.5709  0.3749 -0.3545
 2936SOL     OW11475   3.316   4.262   4.872 -0.5767 -0.2182  0.2295
 2936SOL    HW211476   3.275   4.317   4.938 -0.4771  1.3931 -0.9959
 2936SOL    HW311477   3.247   4.247   4.807 -0.0639  0.0533 -0.3829
 2936SOL    MW411478   3.301   4.267   4.872  0.1731  0.5652 -0.2500
 2937SOL     OW11479   5.324   5.194   3.032 -0.1775 -0.3467  0.1370
 2937SOL    HW211480   5.376   5.116   3.012  0.0839 -0.7170  2.0254
 2937SOL    HW311481   5.267   5.167   3.104  1.4287  1.6923  2.3744
 2937SOL    MW411482   5.323   5.180   3.039  0.1206  0.4731  0.1618
 2938SOL     OW11483   6.242   1.153   1.338  0.0590  0.0514  0.0862
 2938SOL    HW211484   6.192   1.146   1.257  0.1511 -1.1139  0.1076
 2938SOL    HW311485   6.224   1.071   1.384  0.5468  0.4058  0.9380
 2938SOL    MW411486   6.233   1.141   1.334  0.4449 -0.7347  0.0564
 2939SOL     OW11487   6.099   4.599   2.341 -0.6319  0.2978  0.2291
 2939SOL    HW211488   6.055   4.518   2.367  0.7572  0.5386  4.0411
 2939SOL    HW311489   6.076   4.662   2.409  1.3528  1.9405 -0.5086
 2939SOL    MW411490   6.090   4.596   2.354 -0.5928  0.0582  0.9266
 2940SOL     OW11491   2.185   2.363   2.996 -0.1836 -0.0840 -0.4003
 2940SOL    HW211492   2.093   2.346   2.975 -0.4805 -0.3122  1.0116
 2940SOL    HW311493   2.183   2.402   3.083  1.1025 -0.5382 -0.1501
 2940SOL    MW411494   2.173   2.366   3.005 -0.6656  0.7858  0.1272
 2941SOL     OW11495   6.352   5.452   0.183  0.5753  0.3994 -0.1079
 2941SOL    HW211496   6.433   5.458   0.234 -0.6371 -1.2542  2.1940
 2941SOL    HW311497   6.299   5.526   0.215 -0.1456 -0.5794  1.0416
 2941SOL    MW411498   6.356   5.463   0.194 -0.1966 -0.1019  0.0873
 2942SOL     OW11499   1.961   5.228   2.791 -0.2707  0.2348  0.0444
 2942SOL    HW211500   1.929   5.142   2.819  2.1201 -0.7486  0.0103
 2942SOL    HW311501   1.930   5.288   2.858 -1.6649 -0.7011  0.2790
 2942SOL    MW411502   1.953   5.224   2.804  0.6703  0.3320  0.3143
 2943SOL     OW11503   2.374   2.373   2.142 -0.0102 -0.7444  0.5413
 2943SOL    HW211504   2.407   2.287   2.168  0.3575 -0.3417  1.4416
 2943SOL    HW311505   2.451   2.429   2.143 -0.1182 -0.5602 -0.7765
 2943SOL    MW411506   2.389   2.369   2.146  0.1061  0.2483 -0.3817
 2944SOL     OW11507   3.291   2.066   1.792  0.1387  0.5452  0.7536
 2944SOL    HW211508   3.353   1.996   1.770 -0.4435 -0.7446  2.9093
 2944SOL    HW311509   3.330   2.144   1.754  1.7243 -0.6534 -0.2472
 2944SOL    MW411510   3.304   2.067   1.784 -0.5918  0.6408 -0.1304
 2945SOL     OW11511   3.581   0.870   2.577 -1.0156 -0.2128  0.0106
 2945SOL    HW211512   3.674   0.846   2.577 -0.4707  1.7153 -1.0373
 2945SOL    HW311513   3.563   0.896   2.667 -0.2358  0.4335 -0.0069
 2945SOL    MW411514   3.591   0.870   2.589  0.0540  0.1833  0.1133
 2946SOL     OW11515   1.094   6.396   5.336  0.6611  0.5337  0.3986
 2946SOL    HW211516   1.029   6.410   5.404  1.8241 -2.1593  2.2197
 2946SOL    HW311517   1.050   6.342   5.271  0.3252  0.9468  0.2759
 2946SOL    MW411518   1.080   6.391   5.336  0.2211  0.1392  0.1639
 2947SOL     OW11519   5.000   0.071   1.335 -0.0781  0.2471 -0.1983
 2947SOL    HW211520   5.086   0.109   1.351  0.3121 -0.4376 -0.6498
 2947SOL    HW311521   4.941   0.123   1.390  0.6257  0.6728  0.1723
 2947SOL    MW411522   5.003   0.083   1.344 -0.3720 -0.8351 -0.1670
 2948SOL     OW11523   0.746   0.942   3.699 -0.3500  0.2493  0.1282
 2948SOL    HW211524   0.764   0.999   3.773 -0.0008 -1.8014  1.6986
 2948SOL    HW311525   0.709   0.863   3.737  0.5472 -1.1969 -1.7909
 2948SOL    MW411526   0.744   0.940   3.714  0.5726 -0.3041  0.8599
 2949SOL     OW11527   0.816   2.619   0.537 -0.0020 -0.2496  0.1186
 2949SOL    HW211528   0.770   2.582   0.461  0.4950  1.9196 -1.3185
 2949SOL    HW311529   0.750   2.671   0.581 -0.0960 -0.9267  0.8037
 2949SOL    MW411530   0.801   2.621   0.532  0.1451  0.5855 -0.2944
 2950SOL     OW11531   0.106   3.443   1.599  0.3466  0.1277 -0.4042
 2950SOL    HW211532   0.084   3.390   1.675  0.2246  1.0353  0.2133
 2950SOL    HW311533   0.188   3.406   1.566  0.3380 -0.3382  0.0905
 2950SOL    MW411534   0.114   3.431   1.604 -0.1526 -0.1005  0.2581
 2951SOL     OW11535   4.674   4.835   2.884 -0.0646 -0.0359 -0.5360
 2951SOL    HW211536   4.729   4.849   2.807  3.0390 -0.5819  1.4088
 2951SOL    HW311537   4.657   4.740   2.884  0.2698 -0.0977 -0.3624
 2951SOL    MW411538   4.679   4.824   2.873  0.3274  0.4864  0.5162
 2952SOL     OW11539   6.035   5.673   1.520  0.1029 -0.2828  0.6142
 2952SOL    HW211540   6.090   5.730   1.573  0.0541 -0.1498  0.5233
 2952SOL    HW311541   6.095   5.639   1.452  0.1828 -0.5118  0.7976
 2952SOL    MW411542   6.050   5.676   1.518 -0.4061  0.2576  0.7075
 2953SOL     OW11543   5.622   6.087   1.114  0.7919 -0.1483  0.0643
 2953SOL    HW211544   5.560   6.116   1.047  0.6296  0.2966  0.4048
 2953SOL    HW311545   5.630   6.161   1.174  0.9564 -0.5318  0.5250
 2953SOL    MW411546   5.615   6.101   1.113 -0.1049  0.2444  0.3585
 2954SOL     OW11547   3.831   3.205   6.124  0.4430 -0.1157 -0.5591
 2954SOL    HW211548   3.859   3.239   6.039 -1.7167  0.9704 -0.8999
 2954SOL    HW311549   3.780   3.127   6.103 -0.2456  0.2552 -0.2877
 2954SOL    MW411550   3.828   3.199   6.110  0.0111  0.5999  0.1681
 2955SOL     OW11551   4.631   2.124   3.594 -0.4759 -0.0348 -0.0201
 2955SOL    HW211552   4.586   2.169   3.522 -0.6761  0.2536  0.2818
 2955SOL    HW311553   4.638   2.191   3.663  1.1050  0.1596 -0.3377
 2955SOL    MW411554   4.626   2.139   3.594  0.1297 -0.9747 -0.3030
 2956SOL     OW11555   3.718   3.454   4.709 -0.0416 -0.1963  0.1734
 2956SOL    HW211556   3.799   3.501   4.691  0.5626 -1.3470 -0.1641
 2956SOL    HW311557   3.671   3.456   4.625 -0.4168  0.5369  0.3891
 2956SOL    MW411558   3.722   3.461   4.695  0.4528  0.3436  0.1600
 2957SOL     OW11559   6.226   0.220   5.640 -0.3186  0.1278  0.0877
 2957SOL    HW211560   6.186   0.220   5.553  0.7901  1.5524 -0.4669
 2957SOL    HW311561   6.271   0.136   5.646 -1.0329 -0.3007 -0.4029
 2957SOL    MW411562   6.227   0.209   5.629 -0.4966 -0.3099  0.3964
 2958SOL     OW11563   4.701   1.949   2.187  0.2719 -0.0124  0.0669
 2958SOL    HW211564   4.755   2.022   2.219  0.9362 -0.3282 -0.3195
 2958SOL    HW311565   4.764   1.886   2.153 -0.2073 -1.3694  1.5889
 2958SOL    MW411566   4.716   1.950   2.187  0.3336 -0.0001 -0.2857
 2959SOL     OW11567   3.342   4.883   0.315 -0.4684 -0.5360 -0.2852
 2959SOL    HW211568   3.355   4.958   0.373  0.3159 -1.0757  0.2478
 2959SOL    HW311569   3.403   4.898   0.243  0.5129 -1.2095  0.3809
 2959SOL    MW411570   3.351   4.895   0.313 -0.1748  0.1262  0.5817
 2960SOL     OW11571   5.423   1.914   1.488 -0.0542  0.1750  1.1666
 2960SOL    HW211572   5.402   1.986   1.430  0.9976 -0.2564  0.2215
 2960SOL    HW311573   5.397   1.835   1.440  0.0022 -0.1474  1.6500
 2960SOL    MW411574   5.417   1.913   1.474 -0.4315  0.3420 -0.1290
 2961SOL     OW11575   1.608   2.504   2.224 -0.0671 -0.1148  0.5971
 2961SOL    HW211576   1.532   2.450   2.245 -0.1477  0.5762  2.3250
 2961SOL    HW311577   1.606   2.514   2.129 -1.2091 -1.4170  0.4511
 2961SOL    MW411578   1.598   2.498   2.215 -0.2499  0.0506  0.9366
 2962SOL     OW11579   2.766   3.380   1.724 -0.0344 -0.1247 -0.2548
 2962SOL    HW211580   2.702   3.328   1.676  0.9886  0.6715 -2.6658
 2962SOL    HW311581   2.828   3.316   1.759  0.2942 -0.6893 -1.7694
 2962SOL    MW411582   2.766   3.365   1.722 -0.6248  0.2822  0.4959
 2963SOL     OW11583   2.343   6.290   3.667  0.3465  0.1214 -0.4907
 2963SOL    HW211584   2.357   6.310   3.574  0.3949  0.1577 -0.4755
 2963SOL    HW311585   2.317   6.198   3.668 -0.2108  0.2696 -0.5950
 2963SOL    MW411586   2.341   6.281   3.655  0.3586  0.1429  0.4352
 2964SOL     OW11587   1.432   2.185   6.394 -0.5518  0.0251  0.4098
 2964SOL    HW211588   1.468   2.171   6.307 -0.8733 -0.6152  0.3773
 2964SOL    HW311589   1.417   2.280   6.398 -1.0906 -0.0143 -0.4517
 2964SOL    MW411590   1.435   2.196   6.383  0.1673 -0.5025  0.4890
 2965SOL     OW11591   1.901   3.521   4.234  0.3408  0.3282 -0.0040
 2965SOL    HW211592   1.860   3.588   4.288  0.2093  0.6258 -0.4679
 2965SOL    HW311593   1.906   3.560   4.147  2.0354  0.5005  0.1336
 2965SOL    MW411594   1.896   3.535   4.230 -0.4335  0.5959  0.1759
 2966SOL     OW11595   4.593   5.885   4.659  0.2776 -0.4291 -0.5708
 2966SOL    HW211596   4.622   5.851   4.743  0.6651  1.4382  0.1061
 2966SOL    HW311597   4.503   5.853   4.650 -0.3194  0.5657  1.3109
 2966SOL    MW411598   4.585   5.876   4.669 -0.0109 -0.0935  0.6082
 2967SOL     OW11599   6.097   3.903   1.907  0.2156 -0.2937  0.2426
 2967SOL    HW211600   6.012   3.921   1.947  0.3598  1.9523 -0.3164
 2967SOL    HW311601   6.160   3.918   1.977  0.2434 -0.4242  0.2462
 2967SOL    MW411602   6.094   3.908   1.921 -0.1600 -0.0588  0.0707
 2968SOL     OW11603   3.917   3.967   1.682 -0.0322 -0.5986  1.4417
 2968SOL    HW211604   4.005   4.005   1.680  0.0242 -0.6479  2.6930
 2968SOL    HW311605   3.858   4.041   1.666  0.1700 -0.3349  1.9280
 2968SOL    MW411606   3.921   3.981   1.679 -0.4154 -0.4944 -0.2643
 2969SOL     OW11607   5.005   4.980   0.190  0.1122 -0.3598  0.3196
 2969SOL    HW211608   5.049   5.040   0.129 -1.2323 -1.3444 -1.7076
 2969SOL    HW311609   4.959   4.918   0.134 -1.4143 -1.1762  2.3686
 2969SOL    MW411610   5.005   4.980   0.175  0.1150 -0.0484  0.2425
 2970SOL     OW11611   1.361   3.296   4.334  0.6151 -0.2681 -0.1521
 2970SOL    HW211612   1.353   3.314   4.240  0.7377 -3.1190 -0.8004
 2970SOL    HW311613   1.292   3.349   4.374  0.0014  0.3634 -1.9243
 2970SOL    MW411614   1.351   3.306   4.327  0.1995 -0.1542 -0.1741
 2971SOL     OW11615   4.242   3.294   3.790  0.7173  0.1542 -0.2683
 2971SOL    HW211616   4.328   3.336   3.780  0.2684  1.0767 -0.3369
 2971SOL    HW311617   4.230   3.286   3.884  0.3241  1.2377 -0.2074
 2971SOL    MW411618   4.252   3.298   3.801 -0.2008  0.1285 -0.4516
 2972SOL     OW11619   2.986   4.886   1.685  0.3167  0.7253 -0.0094
 2972SOL    HW211620   2.920   4.950   1.709  0.0338  0.4895 -0.1475
 2972SOL    HW311621   2.989   4.826   1.760  0.2619  0.6502 -0.0661
 2972SOL    MW411622   2.978   4.886   1.698 -0.1493  0.1413 -0.0019
 2973SOL     OW11623   2.700   1.083   4.876  0.3627 -0.1385  0.2231
 2973SOL    HW211624   2.757   1.008   4.893 -1.4133 -1.9742 -1.3680
 2973SOL    HW311625   2.625   1.070   4.933  1.0987  1.8981  1.8088
 2973SOL    MW411626   2.698   1.072   4.886 -0.0303 -0.3497 -0.5383
 2974SOL     OW11627   2.896   3.879   0.831  0.0258  0.2660  0.2100
 2974SOL    HW211628   2.972   3.891   0.773  0.6415 -0.2588  0.8866
 2974SOL    HW311629   2.934   3.859   0.917 -0.8594  1.3400  0.8854
 2974SOL    MW411630   2.911   3.878   0.835  0.3032  0.0862 -0.6756
 2975SOL     OW11631   4.317   0.242   2.803 -0.2067  0.3156  0.5538
 2975SOL    HW211632   4.282   0.177   2.742 -0.9269  1.0652  0.1350
 2975SOL    HW311633   4.401   0.207   2.831 -0.3852 -0.5768 -0.0069
 2975SOL    MW411634   4.323   0.229   2.798  0.4920 -0.0304 -0.0953
 2976SOL     OW11635   3.998   0.840   3.971  0.0998 -0.2365  0.1865
 2976SOL    HW211636   4.045   0.920   3.997  0.4224 -0.8073  1.3935
 2976SOL    HW311637   3.911   0.850   4.008 -0.0925 -0.1111 -0.2976
 2976SOL    MW411638   3.993   0.852   3.979 -0.5445  0.2362  0.2115
 2977SOL     OW11639   4.613   2.132   5.304 -0.3755  0.6646  0.3682
 2977SOL    HW211640   4.524   2.168   5.313 -0.5170  0.1920  0.8989
 2977SOL    HW311641   4.642   2.162   5.217 -1.1679  0.5698  0.0596
 2977SOL    MW411642   4.605   2.141   5.293 -0.7669 -0.3371 -0.2219
 2978SOL     OW11643   2.609   3.723   2.940  0.0320  0.1496  0.0949
 2978SOL    HW211644   2.614   3.681   2.854 -3.0721  0.2322 -0.2662
 2978SOL    HW311645   2.658   3.804   2.931  0.5703 -0.3104 -1.2872
 2978SOL    MW411646   2.616   3.728   2.928 -0.0888  0.1921  0.0247
 2979SOL     OW11647   2.595   3.415   4.596 -0.3132 -0.5528 -0.2044
 2979SOL    HW211648   2.528   3.348   4.603  0.1001 -0.8958  0.6424
 2979SOL    HW311649   2.676   3.371   4.624  0.0903  0.1051 -0.3117
 2979SOL    MW411650   2.597   3.400   4.601  0.3453 -0.1561  0.3523
 2980SOL     OW11651   3.681   5.811   2.357  0.4082  0.4283  0.3085
 2980SOL    HW211652   3.623   5.772   2.422  0.0043  0.5416  0.0262
 2980SOL    HW311653   3.749   5.745   2.343  0.5313  0.4332  0.8894
 2980SOL    MW411654   3.682   5.797   2.363  0.0337 -0.3440  0.1947
 2981SOL     OW11655   4.676   5.482   3.893  0.2230  0.2465 -0.1438
 2981SOL    HW211656   4.768   5.508   3.902  0.4776 -0.5868 -0.2392
 2981SOL    HW311657   4.680   5.388   3.876 -0.6153  0.3477 -0.9389
 2981SOL    MW411658   4.689   5.473   3.892  0.1091  0.0537 -0.2488
 2982SOL     OW11659   2.228   1.388   2.143  0.1661  0.0181 -0.4923
 2982SOL    HW211660   2.245   1.313   2.200  0.4036 -0.1226 -0.7475
 2982SOL    HW311661   2.309   1.438   2.144  0.8121 -0.9175 -2.1057
 2982SOL    MW411662   2.241   1.385   2.151  0.3655 -0.3074  0.4097
 2983SOL     OW11663   0.617   2.325   5.126 -0.2034  0.4669 -0.5489
 2983SOL    HW211664   0.697   2.326   5.074  0.0680 -0.2476 -0.1614
 2983SOL    HW311665   0.578   2.239   5.108 -0.2050  0.2891  0.2609
 2983SOL    MW411666   0.622   2.314   5.117  0.0386 -0.0523  0.2295
 2984SOL     OW11667   2.268   0.024   2.051  0.6689  0.1218 -0.3454
 2984SOL    HW211668   2.192  -0.016   2.093  0.9190  0.5380  0.5151
 2984SOL    HW311669   2.284  -0.031   1.974 -0.2244 -0.2318 -0.2894
 2984SOL    MW411670   2.260   0.011   2.046 -0.0227 -0.2294 -0.2182
 2985SOL     OW11671   1.198   1.581   1.811  0.2053 -0.3503  0.6974
 2985SOL    HW211672   1.154   1.551   1.732  1.0871  0.4755 -0.1398
 2985SOL    HW311673   1.250   1.505   1.840  1.0854 -0.2073 -0.4241
 2985SOL    MW411674   1.199   1.567   1.805 -0.4980 -0.1155  1.1475
 2986SOL     OW11675   3.107   5.029   1.057 -0.6115 -0.1612 -0.4507
 2986SOL    HW211676   3.049   5.094   1.098 -0.5103  0.8469 -1.8641
 2986SOL    HW311677   3.061   4.946   1.070 -2.4140  0.6020 -1.4922
 2986SOL    MW411678   3.093   5.027   1.064 -0.7983 -0.1333  0.5910
 2987SOL     OW11679   4.209   4.417   5.166  0.4993 -0.4998 -0.2211
 2987SOL    HW211680   4.191   4.511   5.158  2.5701  0.1347  1.5592
 2987SOL    HW311681   4.253   4.408   5.250  0.6166 -3.0565 -0.4745
 2987SOL    MW411682   4.212   4.428   5.176 -0.1277 -0.1400  0.4427
 2988SOL     OW11683   1.657   6.023   6.405 -0.3501  0.0412  0.3843
 2988SOL    HW211684   1.631   6.087   6.339  0.3236 -2.3805 -2.4307
 2988SOL    HW311685   1.635   5.938   6.367 -0.2243 -1.5029  3.4695
 2988SOL    MW411686   1.651   6.020   6.391 -0.5108 -0.5443 -0.5811
 2989SOL     OW11687   3.053   4.739   3.810  1.0424  0.1489  0.0813
 2989SOL    HW211688   3.088   4.799   3.745 -0.1077  2.2035  1.2354
 2989SOL    HW311689   3.110   4.751   3.887  0.1851  0.5914  0.6678
 2989SOL    MW411690   3.065   4.749   3.812  0.3314  0.3095  0.0704
 2990SOL     OW11691   1.167   3.703   4.057 -0.3691 -0.9962 -0.1310
 2990SOL    HW211692   1.212   3.618   4.056 -1.2868 -1.5040 -1.8780
 2990SOL    HW311693   1.204   3.752   3.984 -0.2588 -0.0931  0.5109
 2990SOL    MW411694   1.178   3.698   4.048  0.8897 -0.1370 -0.5412
 2991SOL     OW11695   2.450   5.434   0.330 -0.5561 -0.1579 -0.0555
 2991SOL    HW211696   2.512   5.472   0.392  0.8868 -2.0109 -0.2555
 2991SOL    HW311697   2.405   5.509   0.291 -1.7614  1.1053  3.3810
 2991SOL    MW411698   2.452   5.449   0.333 -0.0713  0.1745 -0.1261
 2992SOL     OW11699   3.371   3.115   1.666 -0.2783  1.0151  0.2917
 2992SOL    HW211700   3.374   3.176   1.739 -0.0908  0.4726  0.7407
 2992SOL    HW311701   3.294   3.142   1.615 -0.0650  1.7671  0.3505
 2992SOL    MW411702   3.362   3.127   1.669  0.0667  0.7745  0.1515
 2993SOL     OW11703   1.531   4.782   3.651  0.4518  0.1872  0.0220
 2993SOL    HW211704   1.456   4.841   3.663 -0.4054 -0.9577  0.4094
 2993SOL    HW311705   1.551   4.750   3.738  2.5936  1.8593  0.2139
 2993SOL    MW411706   1.523   4.786   3.664  0.2701 -0.3461  0.7692
 2994SOL     OW11707   6.280   5.476   4.937  0.3082 -0.2179 -0.2465
 2994SOL    HW211708   6.298   5.384   4.918  0.4616 -0.0634 -0.8555
 2994SOL    HW311709   6.305   5.486   5.029 -0.3206 -0.9359  0.0166
 2994SOL    MW411710   6.286   5.465   4.947 -0.2425  0.1317 -0.4130
 2995SOL     OW11711   4.318   6.002   1.643 -0.1896  0.2374  0.2644
 2995SOL    HW211712   4.387   5.975   1.583 -1.4058  1.1934 -1.6631
 2995SOL    HW311713   4.270   5.922   1.663 -0.2218  0.0252 -0.6437
 2995SOL    MW411714   4.321   5.988   1.638 -0.6531  0.3116  0.3195
 2996SOL     OW11715   1.923   4.347   2.030  0.5561 -0.2194 -0.1925
 2996SOL    HW211716   2.017   4.336   2.048  0.9297  2.6511  0.0456
 2996SOL    HW311717   1.880   4.306   2.105  1.7252  0.7692  1.0781
 2996SOL    MW411718   1.930   4.340   2.042 -0.5554  0.2494  0.7174
 2997SOL     OW11719   4.595   4.421   3.808  0.0368 -0.0323  0.3416
 2997SOL    HW211720   4.625   4.395   3.721  0.1476  1.0973  0.0325
 2997SOL    HW311721   4.554   4.506   3.795 -0.5534 -0.1594  1.2884
 2997SOL    MW411722   4.593   4.429   3.795 -0.3479  0.0770  0.6504
 2998SOL     OW11723   4.482   3.448   3.742 -0.4852 -0.0902 -0.0218
 2998SOL    HW211724   4.560   3.393   3.741 -1.7405 -1.9887 -1.1520
 2998SOL    HW311725   4.496   3.512   3.673 -0.1822 -0.8103 -0.6372
 2998SOL    MW411726   4.494   3.449   3.733 -0.5876 -0.1489 -0.0474
 2999SOL     OW11727   4.411   1.899   6.248  0.0727  0.2031 -0.1255
 2999SOL    HW211728   4.363   1.846   6.311 -0.7333  0.8339 -0.2008
 2999SOL    HW311729   4.356   1.897   6.169  1.0406 -0.5401 -0.8024
 2999SOL    MW411730   4.397   1.892   6.246 -0.2202 -0.8921 -0.8319
 3000SOL     OW11731   4.193   2.797   2.637 -0.1242 -0.7455 -0.7113
 3000SOL    HW211732   4.173   2.820   2.547 -2.4844 -0.8489 -0.2884
 3000SOL    HW311733   4.214   2.704   2.634  1.6269 -0.3594 -1.3617
 3000SOL    MW411734   4.193   2.788   2.625  0.4342 -0.1586  0.1297
 3001SOL     OW11735   5.861   4.226   3.698  0.4973  0.9973  0.1571
 3001SOL    HW211736   5.949   4.257   3.721  0.5887 -0.1028  1.3722
 3001SOL    HW311737   5.827   4.187   3.778 -0.6644  0.3888 -0.6057
 3001SOL    MW411738   5.868   4.225   3.711 -0.5273  0.0319  0.1017
 3002SOL     OW11739   3.250   3.272   1.079 -0.0013  0.1300  0.2917
 3002SOL    HW211740   3.315   3.240   1.141 -0.5290 -0.5353  0.5121
 3002SOL    HW311741   3.179   3.208   1.083  0.0120  0.0068 -1.1010
 3002SOL    MW411742   3.249   3.259   1.088  0.4722 -0.1254  0.3107
 3003SOL     OW11743   2.337   1.565   6.003  0.3991  0.8208 -0.1927
 3003SOL    HW211744   2.354   1.497   5.939  1.5547  1.3393 -0.4647
 3003SOL    HW311745   2.263   1.533   6.054 -0.1121  0.1103 -1.3596
 3003SOL    MW411746   2.330   1.552   6.002 -0.5220 -0.1604 -0.2654
 3004SOL     OW11747   3.167   4.397   3.949  0.2316 -0.1683 -0.1946
 3004SOL    HW211748   3.196   4.330   4.010 -1.0404 -0.3530  0.2224
 3004SOL    HW311749   3.204   4.479   3.983  0.7424 -0.4771 -0.0079
 3004SOL    MW411750   3.176   4.399   3.962  0.2347 -0.2449  0.0800
 3005SOL     OW11751   0.171   5.800   4.234 -0.5755 -0.4298 -0.4795
 3005SOL    HW211752   0.080   5.831   4.240  0.0873  1.8781 -1.3690
 3005SOL    HW311753   0.201   5.797   4.325 -1.7882 -2.1154 -0.1004
 3005SOL    MW411754   0.163   5.804   4.247  0.0951 -0.4628 -0.3077
 3006SOL     OW11755   5.910   4.922   3.850 -0.0220  0.2592 -0.7230
 3006SOL    HW211756   5.957   4.970   3.918 -2.1557  0.9786  0.3346
 3006SOL    HW311757   5.861   4.989   3.802 -3.1411 -0.6815  0.8424
 3006SOL    MW411758   5.910   4.937   3.852  0.4272 -0.7392  0.1582
 3007SOL     OW11759   1.449   4.013   2.388  0.2355  0.0434  0.0378
 3007SOL    HW211760   1.512   3.951   2.425  0.9758  1.5630  1.4429
 3007SOL    HW311761   1.454   4.089   2.445 -0.7103  1.3767 -1.5716
 3007SOL    MW411762   1.458   4.015   2.400 -0.3434  0.0889  0.0139
 3008SOL     OW11763   5.653   3.655   2.708  0.3697  0.6088  0.4389
 3008SOL    HW211764   5.572   3.702   2.728 -0.3432  0.1264 -1.1321
 3008SOL    HW311765   5.627   3.589   2.644  1.9558  0.2409  0.1387
 3008SOL    MW411766   5.639   3.653   2.702  0.1124  0.1725 -0.1099
 3009SOL     OW11767   1.743   0.211   6.405 -0.2098 -0.0970  0.3058
 3009SOL    HW211768   1.701   0.295   6.425 -0.7491 -0.4684  0.7810
 3009SOL    HW311769   1.837   0.231   6.402 -0.0148  0.0094  3.4881
 3009SOL    MW411770   1.750   0.225   6.407 -0.2021  0.4136  0.0463
 3010SOL     OW11771   6.017   2.269   4.800 -0.5935 -0.4681 -0.1087
 3010SOL    HW211772   6.080   2.212   4.756 -0.0576 -1.0295  1.3221
 3010SOL    HW311773   6.038   2.261   4.893 -0.7772  1.7533  0.1885
 3010SOL    MW411774   6.028   2.261   4.806 -0.0612 -0.7591  0.2527
 3011SOL     OW11775   0.233   3.258   1.236 -0.9216  0.5634  0.0004
 3011SOL    HW211776   0.225   3.173   1.192  0.5008  0.2711  0.2699
 3011SOL    HW311777   0.171   3.315   1.190 -0.8972 -0.2583 -1.0791
 3011SOL    MW411778   0.224   3.254   1.224 -0.3470 -0.6308  0.3415
 3012SOL     OW11779   5.192   4.249   0.759  0.2774 -0.3904  0.1876
 3012SOL    HW211780   5.267   4.240   0.701 -0.9160  0.3796 -1.5498
 3012SOL    HW311781   5.194   4.170   0.814  1.0509 -1.5077 -1.3720
 3012SOL    MW411782   5.202   4.237   0.759 -0.2379 -0.4265  0.0943
 3013SOL     OW11783   5.444   3.865   5.476 -0.4089  0.2542  0.2189
 3013SOL    HW211784   5.358   3.842   5.440  1.0911 -3.1063 -1.8406
 3013SOL    HW311785   5.449   3.817   5.558 -0.8873  1.4016  0.9338
 3013SOL    MW411786   5.434   3.855   5.482 -1.0123 -0.1386 -0.5626
 3014SOL     OW11787   2.546   1.684   2.326  0.3779  0.3977  0.2619
 3014SOL    HW211788   2.542   1.618   2.256  0.2796 -0.2749  0.8893
 3014SOL    HW311789   2.602   1.753   2.290  1.3371 -0.5006 -0.0179
 3014SOL    MW411790   2.553   1.684   2.312 -0.5285 -0.1545 -0.1967
 3015SOL     OW11791   4.490   0.743   2.075 -0.5425 -0.3539  0.0625
 3015SOL    HW211792   4.420   0.774   2.017 -0.4805 -1.5103 -0.6505
 3015SOL    HW311793   4.568   0.745   2.020 -0.2649 -0.3769  0.4567
 3015SOL    MW411794   4.491   0.748   2.060  0.0352 -0.0175 -0.4511
 3016SOL     OW11795   4.837   6.390   6.040  0.4388  0.4001 -0.7045
 3016SOL    HW211796   4.763   6.371   6.098  1.0901 -1.7094 -0.4762
 3016SOL    HW311797   4.912   6.398   6.099  0.7650  0.2569 -1.0923
 3016SOL    MW411798   4.838   6.388   6.055  0.1983 -0.6552  0.1193
 3017SOL     OW11799   2.970   5.481   1.435  0.6388 -0.7539  0.0664
 3017SOL    HW211800   2.986   5.466   1.529 -0.8840 -0.4408  0.4024
 3017SOL    HW311801   2.876   5.469   1.425  0.4687  1.1845 -1.0630
 3017SOL    MW411802   2.960   5.477   1.446  0.0924  0.3072 -0.0150
 3018SOL     OW11803   5.791   2.534   1.014 -0.3006  0.5755  0.3210
 3018SOL    HW211804   5.817   2.496   1.097  1.4511  0.0791 -0.4047
 3018SOL    HW311805   5.858   2.505   0.952 -0.9211  1.8637 -1.0244
 3018SOL    MW411806   5.803   2.525   1.016  0.3786 -0.3896  0.3139
 3019SOL     OW11807   5.531   3.940   6.089  0.3632  0.2733  0.0009
 3019SOL    HW211808   5.622   3.970   6.090  0.3588  0.3053 -0.3783
 3019SOL    HW311809   5.494   3.982   6.012  0.2311 -0.3562 -0.2798
 3019SOL    MW411810   5.538   3.950   6.079  0.3745 -0.0741 -0.2303
 3020SOL     OW11811   1.479   3.056   3.528 -0.1109 -0.2749  0.1299
 3020SOL    HW211812   1.451   3.093   3.611  1.2890 -1.6822  1.2762
 3020SOL    HW311813   1.568   3.088   3.515 -0.5667  0.5391 -1.2345
 3020SOL    MW411814   1.487   3.065   3.537  0.3686  0.0118  0.9558
 3021SOL     OW11815   3.647   5.965   5.499 -0.6634  0.3158 -0.8981
 3021SOL    HW211816   3.697   5.922   5.430 -1.6911 -1.7560 -0.4428
 3021SOL    HW311817   3.567   5.996   5.455 -0.7268  0.1594 -0.8941
 3021SOL    MW411818   3.643   5.963   5.484  1.0120  0.6624 -0.4297
 3022SOL     OW11819   0.606   0.734   3.852 -0.1123  0.0919 -0.0807
 3022SOL    HW211820   0.514   0.743   3.827 -0.2094 -0.1764  0.1797
 3022SOL    HW311821   0.629   0.644   3.828  0.7618  0.8286 -2.3524
 3022SOL    MW411822   0.597   0.724   3.845 -0.0792 -0.5378  0.2501
 3023SOL     OW11823   0.642   5.500   3.509  0.1721  0.5634  0.4632
 3023SOL    HW211824   0.570   5.521   3.568 -1.4680  0.5752 -1.4582
 3023SOL    HW311825   0.634   5.405   3.494 -0.4295  0.8019 -0.9210
 3023SOL    MW411826   0.632   5.490   3.515  0.6332 -0.2905  0.4080
 3024SOL     OW11827   0.833   5.033   6.125 -0.3352 -0.0131 -0.0178
 3024SOL    HW211828   0.828   4.991   6.039  2.3030  1.8796 -1.2249
 3024SOL    HW311829   0.832   5.127   6.107  1.1368  0.4379  1.8897
 3024SOL    MW411830   0.832   5.040   6.111 -0.2456 -0.0441  0.0185
 3025SOL     OW11831   6.274   4.051   4.593  0.0307 -0.1167 -0.1244
 3025SOL    HW211832   6.214   4.115   4.555  0.9951  1.2515  0.5496
 3025SOL    HW311833   6.294   3.990   4.522 -0.2012  0.8813 -1.0695
 3025SOL    MW411834   6.269   4.052   4.579  0.4750  0.0650 -0.0592
 3026SOL     OW11835   3.711   2.422   2.242 -0.1579  0.2286 -0.0946
 3026SOL    HW211836   3.711   2.483   2.315 -0.8144 -0.0536  0.1449
 3026SOL    HW311837   3.674   2.341   2.278  0.5061 -0.2535 -0.4585
 3026SOL    MW411838   3.706   2.419   2.256 -0.5534  0.3819  0.2461
 3027SOL     OW11839   5.754   2.478   2.852  0.0645 -0.2748  0.3158
 3027SOL    HW211840   5.786   2.461   2.941  1.2062  0.7604  0.1353
 3027SOL    HW311841   5.768   2.572   2.840  0.3811 -0.4862 -1.1244
 3027SOL    MW411842   5.760   2.488   2.862 -0.5687 -0.2528 -0.3113
 3028SOL     OW11843   1.217   1.111   5.877 -0.0884 -0.0544 -0.0463
 3028SOL    HW211844   1.231   1.174   5.947  1.4273  1.1848 -1.4000
 3028SOL    HW311845   1.166   1.041   5.918  1.7168  0.0493  2.6045
 3028SOL    MW411846   1.212   1.110   5.892  0.3951  0.2909  0.4233
 3029SOL     OW11847   2.957   3.842   4.668  0.2187 -0.3361 -0.6540
 3029SOL    HW211848   3.007   3.865   4.747 -0.8834  0.3016 -0.1204
 3029SOL    HW311849   2.971   3.916   4.609 -0.9380  0.3775 -0.0787
 3029SOL    MW411850   2.966   3.855   4.671 -0.0914 -0.1594  0.0684
 3030SOL     OW11851   4.615   6.256   6.152 -0.4145  0.4589  0.0064
 3030SOL    HW211852   4.638   6.232   6.241 -0.7577 -0.0840 -0.0457
 3030SOL    HW311853   4.524   6.286   6.157 -0.5412  0.1232 -0.2059
 3030SOL    MW411854   4.606   6.257   6.164  0.3452  0.1260 -0.0146
 3031SOL     OW11855   3.968   4.349   3.054  0.5321 -0.5479 -0.0320
 3031SOL    HW211856   3.928   4.379   3.135  0.4250  0.8170 -0.5606
 3031SOL    HW311857   4.057   4.383   3.056  1.1477 -2.0791  0.3291
 3031SOL    MW411858   3.975   4.357   3.065  0.4480  0.2213 -0.0889
 3032SOL     OW11859   5.465   3.043   1.731 -0.3829 -0.0312 -0.1928
 3032SOL    HW211860   5.504   3.002   1.654  0.1005  0.6204 -0.2992
 3032SOL    HW311861   5.373   3.016   1.729 -0.4303  0.1855 -1.1245
 3032SOL    MW411862   5.458   3.034   1.721  0.9807 -0.3022  0.3983
 3033SOL     OW11863   4.931   2.964   1.589 -0.2346 -0.3233 -0.6827
 3033SOL    HW211864   4.925   3.056   1.563 -0.7795  0.7673  2.8229
 3033SOL    HW311865   4.840   2.934   1.595 -0.2466 -0.0390  1.2388
 3033SOL    MW411866   4.918   2.972   1.587  0.5035 -0.9284  0.7665
 3034SOL     OW11867   3.509   0.947   3.333  0.3164 -0.2521  0.0318
 3034SOL    HW211868   3.593   0.929   3.375  1.0841 -1.2108 -1.8225
 3034SOL    HW311869   3.517   1.036   3.299  1.0214 -0.7105 -1.0606
 3034SOL    MW411870   3.521   0.956   3.334 -0.1193  0.3029 -0.4217
 3035SOL     OW11871   5.434   3.687   2.420 -0.2749 -0.3108 -0.7943
 3035SOL    HW211872   5.461   3.774   2.450 -0.2376 -0.3536 -0.7014
 3035SOL    HW311873   5.349   3.672   2.462  0.4004 -0.9395  0.4084
 3035SOL    MW411874   5.426   3.696   2.430  0.6073 -0.7650 -0.1724
 3036SOL     OW11875   4.906   2.911   3.855 -0.3304 -0.0622 -0.5080
 3036SOL    HW211876   4.893   2.919   3.761  0.8440 -0.6899 -0.7427
 3036SOL    HW311877   4.826   2.947   3.893 -0.4471  1.0387 -1.7106
 3036SOL    MW411878   4.894   2.917   3.848  0.2259 -0.3241 -0.2578
 3037SOL     OW11879   2.310   2.198   1.495  0.5274  0.1709 -0.3664
 3037SOL    HW211880   2.268   2.181   1.411  0.1909  0.3594 -0.2353
 3037SOL    HW311881   2.262   2.271   1.533 -0.2756 -0.8509  0.6528
 3037SOL    MW411882   2.298   2.205   1.489  0.4638 -0.0311  0.3026
 3038SOL     OW11883   5.416   0.112   1.563 -0.0435 -0.1824  0.1452
 3038SOL    HW211884   5.451   0.024   1.575 -0.4016 -0.5829 -1.4580
 3038SOL    HW311885   5.323   0.104   1.585 -0.3676 -0.5526 -1.2550
 3038SOL    MW411886   5.408   0.099   1.568 -0.0375 -0.4811 -0.2138
 3039SOL     OW11887   4.855   2.914   2.988  0.0218  0.3392 -0.1419
 3039SOL    HW211888   4.803   2.990   2.961 -0.2476  0.0976 -0.3189
 3039SOL    HW311889   4.808   2.839   2.950  0.8230  0.1620 -0.8084
 3039SOL    MW411890   4.842   2.914   2.979  0.2116 -0.0266 -0.0637
 3040SOL     OW11891   0.581   3.189   5.244  0.6268 -0.4068  0.2081
 3040SOL    HW211892   0.575   3.114   5.304  0.0671 -2.4865 -2.2537
 3040SOL    HW311893   0.663   3.175   5.197  0.6643  0.7244 -0.0806
 3040SOL    MW411894   0.591   3.177   5.245  0.3984  0.7862 -0.4730
 3041SOL     OW11895   3.043   0.114   1.154 -0.1854  0.6307  0.0181
 3041SOL    HW211896   3.083   0.201   1.154 -0.0649  0.5922  1.3389
 3041SOL    HW311897   2.978   0.118   1.224 -1.1182  0.0635 -0.7854
 3041SOL    MW411898   3.039   0.126   1.163 -0.5589  0.4972 -0.6620
 3042SOL     OW11899   4.135   0.447   1.307 -0.4941 -0.0489  0.0855
 3042SOL    HW211900   4.197   0.374   1.313 -0.7551 -0.2489  0.3959
 3042SOL    HW311901   4.049   0.407   1.322 -0.7897  0.0981 -1.0897
 3042SOL    MW411902   4.132   0.432   1.310  0.2612 -0.1234 -0.1201
 3043SOL     OW11903   2.329   1.231   0.993 -0.0477 -0.1512 -0.1641
 3043SOL    HW211904   2.407   1.285   0.988 -0.3000  0.3069  0.6028
 3043SOL    HW311905   2.361   1.143   1.015  0.2131  0.1902  0.8761
 3043SOL    MW411906   2.343   1.226   0.995  0.0592 -0.1426  0.3125
 3044SOL     OW11907   2.625   3.770   2.590  0.2394 -0.2265 -0.1362
 3044SOL    HW211908   2.710   3.735   2.564  0.5129  1.1874 -1.2587
 3044SOL    HW311909   2.562   3.704   2.562  1.0153 -2.2509  2.4676
 3044SOL    MW411910   2.628   3.757   2.583  0.2217  0.1731 -0.1351
 3045SOL     OW11911   0.416   1.460   4.449 -0.1349  0.5508 -0.0756
 3045SOL    HW211912   0.474   1.517   4.499 -0.1557 -0.1396  0.7575
 3045SOL    HW311913   0.341   1.515   4.427 -0.4462  0.6814  1.2609
 3045SOL    MW411914   0.414   1.475   4.452 -0.0601 -0.1140 -0.0709
 3046SOL     OW11915   0.854   2.559   4.095  0.8005 -0.1013 -0.5414
 3046SOL    HW211916   0.848   2.463   4.104  0.0763 -0.1014 -0.9904
 3046SOL    HW311917   0.930   2.582   4.148 -0.2158 -0.7031  1.2760
 3046SOL    MW411918   0.863   2.549   4.103  0.3258  0.2825  0.1719
 3047SOL     OW11919   6.050   0.894   6.092  0.2069  0.2225  0.5906
 3047SOL    HW211920   6.076   0.846   6.171  0.9974 -0.6719 -0.1868
 3047SOL    HW311921   6.132   0.910   6.046 -0.1717  1.3606  0.2817
 3047SOL    MW411922   6.064   0.890   6.096  0.0138  0.2780  0.3584
 3048SOL     OW11923   0.804   4.275   4.187 -0.1112 -0.0467  0.4493
 3048SOL    HW211924   0.858   4.204   4.152  0.3947  0.9844 -0.9304
 3048SOL    HW311925   0.801   4.341   4.117 -0.3634  1.4084  1.7668
 3048SOL    MW411926   0.811   4.274   4.173 -0.1018 -0.6265  0.3418
 3049SOL     OW11927   4.585   4.294   2.286 -0.0274  0.1303  0.3959
 3049SOL    HW211928   4.522   4.279   2.356 -0.6147  2.4311  0.4652
 3049SOL    HW311929   4.666   4.255   2.317 -0.6498 -0.1800  1.6860
 3049SOL    MW411930   4.587   4.287   2.299 -0.2375 -0.7401  0.3648
 3050SOL     OW11931   3.454   0.729   1.554 -0.4100  0.1214 -0.5773
 3050SOL    HW211932   3.377   0.702   1.604 -0.1033  0.5587  0.1587
 3050SOL    HW311933   3.423   0.737   1.464 -1.1237 -0.1078 -0.3592
 3050SOL    MW411934   3.440   0.727   1.549 -0.0361 -0.2952  0.3633
 3051SOL     OW11935   6.126   5.074   0.141  0.1278  0.4714  0.2271
 3051SOL    HW211936   6.174   5.075   0.057  0.8304 -0.5223  0.6002
 3051SOL    HW311937   6.190   5.106   0.205  0.1914 -0.4962  0.6672
 3051SOL    MW411938   6.141   5.078   0.138 -0.4626 -0.0960  0.4649
 3052SOL     OW11939   5.771   2.199   2.004 -0.1805 -0.4858 -0.5853
 3052SOL    HW211940   5.758   2.121   2.058  0.5449  0.2994  0.7571
 3052SOL    HW311941   5.682   2.224   1.977 -0.4834 -1.3427 -0.4349
 3052SOL    MW411942   5.757   2.192   2.007 -0.4250 -0.3646  1.0791
 3053SOL     OW11943   0.444   3.933   4.047 -0.6757  0.1551 -0.5331
 3053SOL    HW211944   0.458   4.027   4.056 -2.7382  0.4169  0.4189
 3053SOL    HW311945   0.453   3.915   3.954  0.1242  1.2094 -0.6678
 3053SOL    MW411946   0.447   3.943   4.036  0.0348  0.5300 -0.0155
 3054SOL     OW11947   5.388   3.443   4.452 -0.8472 -0.0484 -0.6576
 3054SOL    HW211948   5.311   3.455   4.507  0.1532  1.1849  0.5627
 3054SOL    HW311949   5.460   3.427   4.513 -0.2792 -2.4189 -1.8084
 3054SOL    MW411950   5.388   3.443   4.467 -0.3018  0.1607 -0.2267
 3055SOL     OW11951   4.190   0.345   5.907  0.0828 -0.0620 -0.1491
 3055SOL    HW211952   4.122   0.377   5.848 -0.7581  0.9952  1.3376
 3055SOL    HW311953   4.272   0.362   5.861 -0.5876 -0.0136 -1.3508
 3055SOL    MW411954   4.192   0.352   5.893 -0.1295  0.0053  0.0675
 3056SOL     OW11955   3.479   1.890   5.274  0.3285  1.1207 -0.6712
 3056SOL    HW211956   3.392   1.885   5.313  1.3711  1.2600  1.8581
 3056SOL    HW311957   3.465   1.930   5.188 -2.1070  0.8146 -0.4708
 3056SOL    MW411958   3.466   1.895   5.268  0.3867  0.3784 -0.2091
 3057SOL     OW11959   5.945   1.229   1.751 -0.0745 -0.3124  0.0339
 3057SOL    HW211960   5.945   1.275   1.667 -2.3374 -0.5164 -0.1494
 3057SOL    HW311961   6.013   1.162   1.742  0.6779  0.5566 -1.0832
 3057SOL    MW411962   5.954   1.226   1.739  0.1484 -0.0806  0.0845
 3058SOL     OW11963   4.550   0.271   0.410 -0.0998 -0.5267  0.2809
 3058SOL    HW211964   4.514   0.327   0.478 -0.4563  0.1257 -0.4338
 3058SOL    HW311965   4.609   0.211   0.457  0.3176  0.4609  1.0545
 3058SOL    MW411966   4.553   0.271   0.425 -0.3558 -0.5417  0.3299
 3059SOL     OW11967   6.079   0.531   5.339 -0.0753  0.1158 -0.4294
 3059SOL    HW211968   5.991   0.507   5.368  0.3502  0.3732  1.2031
 3059SOL    HW311969   6.091   0.620   5.372  2.1734 -1.2479  2.9237
 3059SOL    MW411970   6.069   0.539   5.347 -0.3865 -0.1129  0.6995
 3060SOL     OW11971   5.576   2.579   5.547 -0.1863  0.2147  0.1589
 3060SOL    HW211972   5.589   2.668   5.514  2.8161 -0.2028 -0.0523
 3060SOL    HW311973   5.556   2.527   5.469 -1.4201  0.5903  0.2106
 3060SOL    MW411974   5.575   2.584   5.533 -0.1209 -0.2596 -0.7033
 3061SOL     OW11975   4.380   6.192   3.127 -0.3375  0.0870  0.4918
 3061SOL    HW211976   4.335   6.255   3.184  0.1116 -0.1836  1.1573
 3061SOL    HW311977   4.383   6.111   3.178 -1.0211 -0.5244 -0.4058
 3061SOL    MW411978   4.374   6.190   3.142 -0.5789  0.1465  0.8893
 3062SOL     OW11979   5.758   4.734   0.069 -0.0252  0.4679 -0.1117
 3062SOL    HW211980   5.743   4.771   0.157 -0.4339  2.7891 -1.0775
 3062SOL    HW311981   5.767   4.640   0.084 -1.8071  0.5730  2.2175
 3062SOL    MW411982   5.757   4.727   0.083 -0.1395  0.3704 -0.4842
 3063SOL     OW11983   2.680   4.484   2.436 -0.0658 -0.3987 -0.2312
 3063SOL    HW211984   2.773   4.507   2.436 -0.5074  1.6531 -1.4786
 3063SOL    HW311985   2.673   4.411   2.497  2.1582  0.2334  0.8736
 3063SOL    MW411986   2.691   4.478   2.444  0.0863  0.0325  0.4170
 3064SOL     OW11987   3.749   2.665   2.427  0.2190 -0.0788 -0.7078
 3064SOL    HW211988   3.789   2.739   2.380 -0.6165  0.6751 -0.2545
 3064SOL    HW311989   3.668   2.701   2.464 -0.7418 -1.4947 -1.3596
 3064SOL    MW411990   3.744   2.680   2.425 -0.2154  0.6430  0.1735
 3065SOL     OW11991   4.031   4.870   0.494 -0.3873  0.5050  0.1978
 3065SOL    HW211992   4.021   4.965   0.498 -0.7208  0.4492  0.8258
 3065SOL    HW311993   4.100   4.856   0.429 -1.2147  1.1104 -0.8433
 3065SOL    MW411994   4.039   4.881   0.486  0.1705 -0.8527  0.5819
 3066SOL     OW11995   4.917   3.883   4.259 -0.8310 -0.5794 -0.5503
 3066SOL    HW211996   4.871   3.964   4.280 -0.7512 -0.5998 -0.2933
 3066SOL    HW311997   4.914   3.878   4.164  3.1023  2.1191 -1.0644
 3066SOL    MW411998   4.911   3.893   4.249  0.1352  0.0541 -0.2000
 3067SOL     OW11999   4.175   2.189   1.446 -0.2959 -0.8971 -0.0974
 3067SOL    HW212000   4.211   2.236   1.370  2.4205 -1.1432  0.9053
 3067SOL    HW312001   4.089   2.228   1.460  0.8845  2.1887 -0.7002
 3067SOL    MW412002   4.169   2.200   1.438 -0.0912 -0.1276  0.4325
 3068SOL     OW12003   0.172   0.187   0.766 -0.2984 -0.4544 -0.2322
 3068SOL    HW212004   0.165   0.243   0.844 -1.4941 -0.8712 -0.0253
 3068SOL    HW312005   0.252   0.136   0.780  0.6496  0.9592 -0.2822
 3068SOL    MW412006   0.182   0.188   0.778 -0.4910  0.1396 -0.7024
 3069SOL     OW12007   1.327   3.254   0.001  0.6524 -0.1893  0.0464
 3069SOL    HW212008   1.408   3.203  -0.010  1.5661  1.3221 -0.6656
 3069SOL    HW312009   1.262   3.190   0.031  1.9929 -1.5413  0.2211
 3069SOL    MW412010   1.329   3.239   0.004 -0.5595 -0.2278  0.3560
 3070SOL     OW12011   2.640   0.373   6.118  0.3677 -0.0162  0.3614
 3070SOL    HW212012   2.577   0.314   6.077 -0.9367  1.6875 -0.1945
 3070SOL    HW312013   2.607   0.461   6.099  2.5155  0.9326  0.7179
 3070SOL    MW412014   2.627   0.377   6.110 -0.7537 -0.1995  0.6579
 3071SOL     OW12015   0.844   3.137   6.330 -0.5189 -0.2480 -0.3720
 3071SOL    HW212016   0.926   3.101   6.364  0.0018  0.5650 -0.7326
 3071SOL    HW312017   0.791   3.155   6.407 -0.5283 -1.1420 -0.1517
 3071SOL    MW412018   0.848   3.135   6.344 -0.4021  0.2324  0.1943
 3072SOL     OW12019   1.770   2.307   4.247 -0.5578  0.0832 -0.3821
 3072SOL    HW212020   1.676   2.324   4.256 -0.9944 -2.0736 -0.1940
 3072SOL    HW312021   1.775   2.216   4.219  1.4990  0.1147 -0.2709
 3072SOL    MW412022   1.758   2.297   4.245  0.3424  0.2140  0.0346
 3073SOL     OW12023   5.917   5.604   2.471 -0.1916  0.3049  0.4099
 3073SOL    HW212024   5.890   5.549   2.398 -1.7719  0.2833  0.9705
 3073SOL    HW312025   5.905   5.549   2.549 -1.6079  1.3304  0.9600
 3073SOL    MW412026   5.912   5.590   2.472  0.3455 -0.0784 -0.0287
 3074SOL     OW12027   4.091   3.543   5.878 -0.1017 -0.2845 -0.0099
 3074SOL    HW212028   4.121   3.510   5.794 -0.3614  1.5136 -0.8613
 3074SOL    HW312029   3.995   3.544   5.871 -0.0998  1.1625 -0.2765
 3074SOL    MW412030   4.082   3.539   5.866 -0.5743  0.3338  0.0621
 3075SOL     OW12031   6.228   2.987   5.982  0.3180  0.2200 -0.1947
 3075SOL    HW212032   6.193   2.951   5.900  0.4925 -0.6504  0.1009
 3075SOL    HW312033   6.323   2.985   5.971  0.3292  0.5090 -0.1430
 3075SOL    MW412034   6.236   2.982   5.970 -0.5863  0.3529 -0.2395
 3076SOL     OW12035   0.308   3.707   5.543 -0.0576 -0.2591 -0.4011
 3076SOL    HW212036   0.322   3.755   5.462 -0.7908  1.0539  0.2141
 3076SOL    HW312037   0.374   3.742   5.603  0.1535 -0.8567 -0.2794
 3076SOL    MW412038   0.318   3.718   5.540  0.3747  0.2210 -0.5783
 3077SOL     OW12039   0.031   5.467   1.619 -0.2944  0.1218 -0.2627
 3077SOL    HW212040   0.093   5.524   1.574 -0.4422  1.0312  0.6470
 3077SOL    HW312041   0.081   5.387   1.638 -0.0490 -0.0115 -1.4248
 3077SOL    MW412042   0.046   5.464   1.616 -0.0757  0.3491  0.1953
 3078SOL     OW12043   2.040  -0.002   0.765  0.2665 -0.1664 -0.3986
 3078SOL    HW212044   2.020  -0.030   0.676  1.1839 -0.7244 -0.4400
 3078SOL    HW312045   2.008   0.089   0.769 -0.3671 -0.3501 -1.0792
 3078SOL    MW412046   2.033   0.007   0.754 -0.1183 -0.1756  0.9349
 3079SOL     OW12047   3.285   3.012   0.027 -0.2735  0.0233 -0.0291
 3079SOL    HW212048   3.191   3.007   0.011 -0.3677 -0.5804  0.6838
 3079SOL    HW312049   3.295   2.999   0.121  0.7868 -4.1496 -0.5432
 3079SOL    MW412050   3.274   3.010   0.037 -0.1333  0.3181 -0.0414
 3080SOL     OW12051   3.689   4.784   1.985  1.0160 -0.2247  0.7424
 3080SOL    HW212052   3.735   4.838   2.049  0.0333  1.3771  0.1590
 3080SOL    HW312053   3.756   4.761   1.921  1.2110  1.4563  0.2888
 3080SOL    MW412054   3.704   4.788   1.985  0.1735  0.4925  0.6324
 3081SOL     OW12055   3.792   0.576   1.106  0.2564  0.6737  0.0756
 3081SOL    HW212056   3.818   0.607   1.019 -1.7316  0.6883 -0.5714
 3081SOL    HW312057   3.829   0.640   1.167 -0.3047  2.0117 -0.9462
 3081SOL    MW412058   3.800   0.589   1.103  0.3669 -0.4284  0.0085
 3082SOL     OW12059   1.469   1.451   4.997  0.0089 -0.1220 -0.0511
 3082SOL    HW212060   1.403   1.509   5.034  1.6442  1.1733  0.9499
 3082SOL    HW312061   1.508   1.501   4.926  1.6953  0.2103  1.0563
 3082SOL    MW412062   1.465   1.465   4.992 -0.1132 -1.0611  0.7987
 3083SOL     OW12063   5.487   6.269   2.489  0.4947  0.2425  0.3661
 3083SOL    HW212064   5.493   6.363   2.510 -0.9443  0.2588  0.7926
 3083SOL    HW312065   5.405   6.260   2.441 -0.5789 -1.1047  2.2909
 3083SOL    MW412066   5.477   6.280   2.485 -0.1772  0.1356  0.3696
 3084SOL     OW12067   5.507   2.242   1.927  0.3795 -0.0976  0.5291
 3084SOL    HW212068   5.506   2.335   1.951 -0.4282  0.3233 -0.9637
 3084SOL    HW312069   5.505   2.196   2.010 -0.5395  1.2486  1.3037
 3084SOL    MW412070   5.506   2.248   1.941  0.2065  0.0870 -0.7361
 3085SOL     OW12071   5.328   2.502   2.574  0.0960  0.7748  0.0661
 3085SOL    HW212072   5.306   2.584   2.530  0.8959  0.4618 -0.9403
 3085SOL    HW312073   5.267   2.438   2.537 -0.0855  0.7744  0.3636
 3085SOL    MW412074   5.317   2.504   2.563 -0.6469 -0.3182 -0.0815
 3086SOL     OW12075   4.704   4.347   4.913  0.1002  0.5188 -0.0261
 3086SOL    HW212076   4.637   4.386   4.970  0.7030 -1.1397  1.9557
 3086SOL    HW312077   4.658   4.279   4.865 -0.2923  1.5724 -1.2167
 3086SOL    MW412078   4.689   4.343   4.914  0.1469  0.2581  0.4172
 3087SOL     OW12079   5.181   2.083   4.652  0.5316 -0.7277 -0.6285
 3087SOL    HW212080   5.162   2.047   4.565  1.6768 -0.3866 -1.0441
 3087SOL    HW312081   5.170   2.177   4.642 -1.9191 -0.8388  0.3179
 3087SOL    MW412082   5.177   2.090   4.639  0.1973 -0.1199 -0.9254
 3088SOL     OW12083   6.286   4.906   5.589  0.3175 -0.1268  0.3562
 3088SOL    HW212084   6.202   4.887   5.549  0.9600 -1.7339 -0.3356
 3088SOL    HW312085   6.269   4.979   5.648 -1.5825 -0.5291  0.3664
 3088SOL    MW412086   6.273   4.913   5.592  0.1456  0.0754 -0.2552
 3089SOL     OW12087   6.356   0.771   4.370  0.1217 -0.2349  0.0098
 3089SOL    HW212088   6.287   0.819   4.324  0.7683 -0.8053 -1.6212
 3089SOL    HW312089   6.331   0.776   4.462 -2.5958 -1.1651 -0.5948
 3089SOL    MW412090   6.343   0.778   4.376 -0.5490  0.1666  0.9296
 3090SOL     OW12091   4.126   5.032   6.182  0.2141 -0.1685 -0.7089
 3090SOL    HW212092   4.217   5.035   6.152  0.3585 -0.8620 -0.3636
 3090SOL    HW312093   4.094   4.946   6.153 -0.2365 -0.0467 -0.5757
 3090SOL    MW412094   4.134   5.021   6.174  0.2484  0.2474  0.4183
 3091SOL     OW12095   3.422   5.572   1.142 -0.3302  0.3426  0.0541
 3091SOL    HW212096   3.392   5.656   1.107 -0.3901  0.5447  0.5875
 3091SOL    HW312097   3.344   5.532   1.179 -0.0020  0.7609  1.2248
 3091SOL    MW412098   3.408   5.577   1.142 -0.0251  0.4484  0.5582
 3092SOL     OW12099   4.233   5.376   0.390 -0.2512 -0.0335 -0.9614
 3092SOL    HW212100   4.302   5.384   0.456  0.9379  0.4612 -2.2089
 3092SOL    HW312101   4.182   5.300   0.418  0.7301 -0.3449  0.0790
 3092SOL    MW412102   4.236   5.367   0.402 -0.2641 -0.5227 -0.6729
 3093SOL     OW12103   5.036   1.921   2.009  0.0044  0.3762  0.3031
 3093SOL    HW212104   5.131   1.912   2.004  0.1186  1.7000 -0.4235
 3093SOL    HW312105   5.002   1.842   1.967  0.7595 -0.3234  0.9734
 3093SOL    MW412106   5.044   1.909   2.003  0.2294 -0.1579  0.2213
 3094SOL     OW12107   4.105   2.713   5.059 -0.3775  0.2474 -0.5892
 3094SOL    HW212108   4.050   2.776   5.011  0.4305  1.4223 -0.0142
 3094SOL    HW312109   4.122   2.755   5.143  1.7693  0.1455 -0.9150
 3094SOL    MW412110   4.100   2.727   5.064 -0.4392 -0.3694  0.7079
 3095SOL     OW12111   5.762   2.645   1.458 -0.3092  0.8807 -0.0237
 3095SOL    HW212112   5.759   2.733   1.420 -1.8024  0.1818 -1.6882
 3095SOL    HW312113   5.710   2.591   1.398  3.0859 -1.8458 -0.8792
 3095SOL    MW412114   5.755   2.649   1.445 -0.7069  0.3558 -0.1875
 3096SOL     OW12115   1.358   1.804   1.727 -0.2342  0.0327  0.0735
 3096SOL    HW212116   1.297   1.734   1.749 -1.6107  1.3233  0.5379
 3096SOL    HW312117   1.417   1.766   1.663 -1.9144 -1.0923 -0.8517
 3096SOL    MW412118   1.358   1.790   1.722  0.0252  0.1213 -0.0291
 3097SOL     OW12119   6.186   4.890   4.636  0.1950  0.3738 -0.1220
 3097SOL    HW212120   6.211   4.922   4.722  3.4536  1.2139 -1.2384
 3097SOL    HW312121   6.155   4.800   4.651  0.3107  0.6415  1.9278
 3097SOL    MW412122   6.185   4.882   4.649 -0.2680  0.3947 -0.0166
 3098SOL     OW12123   0.148   4.169   6.418  0.1640  0.0708  0.0412
 3098SOL    HW212124   0.138   4.233   6.489  0.2489  1.0937 -0.8305
 3098SOL    HW312125   0.065   4.174   6.370  1.1374  1.5384 -1.6034
 3098SOL    MW412126   0.136   4.178   6.421 -0.2724  0.5437 -0.1955
 3099SOL     OW12127   4.797   5.408   5.100 -0.0890  0.3074 -0.2974
 3099SOL    HW212128   4.848   5.455   5.167  2.4602 -3.0921  0.4033
 3099SOL    HW312129   4.739   5.351   5.151 -2.2043  1.6248 -1.1160
 3099SOL    MW412130   4.796   5.407   5.116 -0.1901  0.3346  0.0112
 3100SOL     OW12131   2.642   4.350   5.106  0.0869  0.3255  0.7278
 3100SOL    HW212132   2.614   4.283   5.044  0.2055  1.0721 -0.1492
 3100SOL    HW312133   2.563   4.398   5.128  0.1274  0.3583  0.8047
 3100SOL    MW412134   2.628   4.347   5.101  0.1626 -0.1601  0.2409
 3101SOL     OW12135   6.361   3.751   5.699  0.2615  0.0483 -0.2944
 3101SOL    HW212136   6.373   3.668   5.652 -2.8952 -0.9028  0.3291
 3101SOL    HW312137   6.325   3.810   5.633  0.9837  0.4360 -0.3471
 3101SOL    MW412138   6.358   3.748   5.684 -0.2312 -0.9796  0.6534
 3102SOL     OW12139   2.727   2.490   2.936  0.0699 -0.2018  0.4015
 3102SOL    HW212140   2.643   2.450   2.959 -0.0347  0.1589  0.6687
 3102SOL    HW312141   2.793   2.431   2.972 -0.0701 -0.4882  0.1898
 3102SOL    MW412142   2.725   2.477   2.944 -0.3280 -0.1870 -0.0349
 3103SOL     OW12143   2.046   5.813   0.950  0.0198 -0.5107  0.5552
 3103SOL    HW212144   2.126   5.762   0.938 -0.3180 -0.7360 -0.9537
 3103SOL    HW312145   2.047   5.877   0.879 -0.4551  0.4387  1.3622
 3103SOL    MW412146   2.057   5.815   0.939  0.3387 -0.0828  0.4485
 3104SOL     OW12147   4.349   4.919   2.695  0.4386 -0.1138 -0.1046
 3104SOL    HW212148   4.400   4.974   2.635 -0.1893  0.9969  0.3425
 3104SOL    HW312149   4.347   4.969   2.777 -0.4915 -0.6171  0.1905
 3104SOL    MW412150   4.355   4.933   2.698  0.1657  0.0407  0.5869
 3105SOL     OW12151   1.825   3.275   3.980 -0.3196  0.5292  0.4638
 3105SOL    HW212152   1.813   3.257   3.887  1.2754  1.4392  0.0408
 3105SOL    HW312153   1.814   3.370   3.988  0.9075  0.6552  0.9313
 3105SOL    MW412154   1.822   3.285   3.969  0.2832 -0.5098 -0.0442
 3106SOL     OW12155   5.227   3.397   0.461  0.1122 -0.1216 -0.2730
 3106SOL    HW212156   5.183   3.413   0.545  3.6745 -2.1901  2.2811
 3106SOL    HW312157   5.295   3.465   0.456  1.4612 -1.4174 -0.1896
 3106SOL    MW412158   5.230   3.408   0.472  0.0428  0.4657  0.0376
 3107SOL     OW12159   1.589   1.622   6.360 -0.2686  0.2033  0.1781
 3107SOL    HW212160   1.546   1.654   6.439 -0.7661  0.4077 -0.1762
 3107SOL    HW312161   1.545   1.540   6.340 -1.2769  0.9668 -0.8283
 3107SOL    MW412162   1.578   1.615   6.368 -0.3320 -0.7400 -0.4472
 3108SOL     OW12163   0.694   1.369   2.211  0.1001  0.1278  0.2985
 3108SOL    HW212164   0.649   1.447   2.245  1.3028  1.0918 -0.2329
 3108SOL    HW312165   0.629   1.328   2.153 -1.0802 -0.1426  1.7660
 3108SOL    MW412166   0.679   1.374   2.208 -0.3949  0.0477  0.1448
 3109SOL     OW12167   4.909   1.951   3.712  0.6590  0.2000  0.2140
 3109SOL    HW212168   4.873   1.929   3.626  1.7106 -1.9552  0.2614
 3109SOL    HW312169   4.884   1.877   3.768 -0.1666  1.6473  1.8537
 3109SOL    MW412170   4.901   1.938   3.708 -0.2363  0.1314 -0.4608
 3110SOL     OW12171   3.815   2.915   5.305  0.0055 -0.5921  0.3659
 3110SOL    HW212172   3.789   3.006   5.293  2.2418  0.6290  3.3761
 3110SOL    HW312173   3.765   2.886   5.381 -0.4927 -1.8194 -0.4104
 3110SOL    MW412174   3.805   2.923   5.314 -0.0297  0.2554  0.2727
 3111SOL     OW12175   2.927   4.476   6.102  0.1246  0.1875  0.0789
 3111SOL    HW212176   2.882   4.447   6.181 -1.7152  1.2299 -0.5244
 3111SOL    HW312177   3.000   4.529   6.134  1.1046 -1.6828  1.0836
 3111SOL    MW412178   2.931   4.479   6.117 -0.1444  0.2149 -1.3173
 3112SOL     OW12179   6.362   2.394   2.451  0.3119  0.4042 -0.0469
 3112SOL    HW212180   6.290   2.456   2.444  1.0524  1.3573  0.5284
 3112SOL    HW312181   6.367   2.352   2.365 -1.8181 -0.7360  0.3118
 3112SOL    MW412182   6.353   2.396   2.439  0.2962 -0.4463  0.4046
 3113SOL     OW12183   0.391   4.824   2.011 -0.0953  0.3661  0.1354
 3113SOL    HW212184   0.437   4.880   1.949  0.4661 -0.2227  0.0102
 3113SOL    HW312185   0.460   4.774   2.054 -0.5777 -0.1561  0.3169
 3113SOL    MW412186   0.406   4.825   2.008 -0.7296  0.4698 -0.4932
 3114SOL     OW12187   1.279   2.904   0.670  0.4034 -0.4099 -0.5186
 3114SOL    HW212188   1.193   2.885   0.633  0.3809 -0.4438 -0.4489
 3114SOL    HW312189   1.291   2.998   0.656  0.4826 -0.4611 -0.7937
 3114SOL    MW412190   1.270   2.914   0.663  0.1194  0.0434  0.1757
 3115SOL     OW12191   6.037   4.324   5.724  0.2914 -0.4713 -0.0526
 3115SOL    HW212192   5.943   4.306   5.732  0.2683 -1.8398 -2.4406
 3115SOL    HW312193   6.078   4.260   5.782 -0.2046 -1.1957 -0.4821
 3115SOL    MW412194   6.030   4.313   5.733 -0.1746  0.1476  0.4298
 3116SOL     OW12195   0.803   4.917   1.652 -0.3345 -0.3886 -0.0696
 3116SOL    HW212196   0.817   4.874   1.736 -0.1514 -0.6146 -0.2120
 3116SOL    HW312197   0.863   4.872   1.592 -0.4394 -0.2089 -0.3127
 3116SOL    MW412198   0.813   4.905   1.655  0.4094 -0.0704  0.2934
 3117SOL     OW12199   6.142   4.297   3.788 -0.5560  0.1229  0.0476
 3117SOL    HW212200   6.232   4.329   3.790  0.1109 -1.6211  2.1426
 3117SOL    HW312201   6.101   4.332   3.867 -0.8215 -1.3276  0.5958
 3117SOL    MW412202   6.148   4.306   3.798 -0.3049  0.3502  0.3674
 3118SOL     OW12203   0.309   6.316   1.682  0.0613 -0.0229 -0.5349
 3118SOL    HW212204   0.316   6.408   1.656 -0.8443  0.1072 -0.3487
 3118SOL    HW312205   0.367   6.308   1.758 -1.0661  0.7866  0.4400
 3118SOL    MW412206   0.318   6.327   1.689 -0.7619  0.5678 -0.1110
 3119SOL     OW12207   0.029   1.854   5.187  0.4319  0.0433  0.1883
 3119SOL    HW212208   0.011   1.796   5.112  0.4335  0.5612 -0.2192
 3119SOL    HW312209   0.099   1.912   5.157 -0.5298  1.1873  0.0736
 3119SOL    MW412210   0.036   1.854   5.173  0.0591  0.2738 -0.7572
 3120SOL     OW12211   2.075   2.949   6.009  0.3569 -0.2093 -0.3369
 3120SOL    HW212212   2.115   2.922   5.926  0.3680 -0.3764 -0.2775
 3120SOL    HW312213   2.146   2.994   6.055  0.3671 -0.1653 -0.3955
 3120SOL    MW412214   2.090   2.951   6.004  0.0539  0.0764  0.0539
 3121SOL     OW12215   3.601   3.507   2.738 -0.2129  0.1784  0.0845
 3121SOL    HW212216   3.544   3.432   2.716  0.1215 -0.1336  0.2677
 3121SOL    HW312217   3.556   3.550   2.810 -0.1400 -0.1657  0.3405
 3121SOL    MW412218   3.588   3.503   2.744 -0.1202  0.1121 -0.4104
 3122SOL     OW12219   1.426   5.155   6.072 -0.1997  0.2015  0.2539
 3122SOL    HW212220   1.422   5.168   6.167  0.7716 -0.0545  0.3412
 3122SOL    HW312221   1.395   5.237   6.035 -1.4011  0.0153  0.7763
 3122SOL    MW412222   1.421   5.167   6.079  0.1713  0.4446 -0.1461
 3123SOL     OW12223   5.283   5.689   3.433  0.2573 -0.3100 -0.6081
 3123SOL    HW212224   5.269   5.738   3.352 -0.6980 -0.2962 -0.4449
 3123SOL    HW312225   5.244   5.743   3.502 -0.5151 -1.1284 -0.3833
 3123SOL    MW412226   5.276   5.702   3.431 -0.0669  0.0443 -0.2150
 3124SOL     OW12227   3.661   0.420   0.307 -0.7212 -0.0444 -0.4148
 3124SOL    HW212228   3.668   0.497   0.251  0.8148 -0.8546 -1.4138
 3124SOL    HW312229   3.578   0.380   0.283 -0.5326  0.1531 -1.4364
 3124SOL    MW412230   3.651   0.425   0.296  0.0260  0.6056  0.5119
 3125SOL     OW12231   4.020   4.684   2.869  0.0044 -0.3542  0.4912
 3125SOL    HW212232   4.056   4.650   2.951 -0.2103 -1.4176  0.1582
 3125SOL    HW312233   4.012   4.778   2.884  1.7798 -0.2419  1.0091
 3125SOL    MW412234   4.024   4.692   2.882 -0.6585 -0.1258  0.0032
 3126SOL     OW12235   2.518   2.376   1.133  0.1871 -0.0832  0.2133
 3126SOL    HW212236   2.545   2.387   1.041  1.0909  1.5774  0.6257
 3126SOL    HW312237   2.600   2.364   1.180 -0.0140  1.6370  1.0831
 3126SOL    MW412238   2.532   2.376   1.127  0.7576  0.7688 -0.6465
 3127SOL     OW12239   3.716   6.407   4.877 -0.7754 -0.4063  0.0371
 3127SOL    HW212240   3.742   6.496   4.853 -1.4796 -0.1149  0.3302
 3127SOL    HW312241   3.719   6.358   4.794  0.6233 -0.3866  0.0452
 3127SOL    MW412242   3.720   6.412   4.863 -0.0693 -0.2976  0.4169
 3128SOL     OW12243   3.514   2.962   2.744  0.0505  0.2833 -0.0217
 3128SOL    HW212244   3.564   2.934   2.821  0.6157 -2.0472 -1.1383
 3128SOL    HW312245   3.438   3.007   2.780  0.3025 -0.7110  1.9067
 3128SOL    MW412246   3.511   2.964   2.759 -0.3221 -0.0370  0.3665
 3129SOL     OW12247   3.970   2.243   0.602  0.0872 -0.6091  0.0471
 3129SOL    HW212248   3.882   2.234   0.566 -0.4601 -2.7270  1.6834
 3129SOL    HW312249   4.027   2.203   0.536 -0.2394  0.1362 -0.7013
 3129SOL    MW412250   3.966   2.236   0.588  0.8038 -0.1645  0.5054
 3130SOL     OW12251   4.895   5.232   2.138 -0.1445  0.0398  0.0173
 3130SOL    HW212252   4.839   5.310   2.132  0.6708  0.5741 -0.9900
 3130SOL    HW312253   4.961   5.245   2.069  0.4112 -1.2182  0.2939
 3130SOL    MW412254   4.897   5.244   2.128  0.1111  0.1476  0.0535
 3131SOL     OW12255   2.991   2.181   4.725 -0.0029  0.2493 -0.1353
 3131SOL    HW212256   2.920   2.134   4.768 -1.1575  1.9969 -0.0489
 3131SOL    HW312257   3.023   2.243   4.791  0.1046  1.0139 -0.8885
 3131SOL    MW412258   2.986   2.183   4.740 -0.1384 -0.1495 -0.2296
 3132SOL     OW12259   3.782   0.487   5.068  0.0587 -0.0637 -0.1950
 3132SOL    HW212260   3.865   0.469   5.111 -0.7468 -1.7930  0.7398
 3132SOL    HW312261   3.739   0.551   5.124  0.5403  0.4734 -0.4282
 3132SOL    MW412262   3.787   0.493   5.081 -0.0233  0.7647 -0.0040
 3133SOL     OW12263   0.993   4.614   2.919 -0.2569  0.3501  0.2444
 3133SOL    HW212264   0.943   4.674   2.864 -1.5360  0.1201  1.1186
 3133SOL    HW312265   0.969   4.637   3.009  0.4973 -0.3993  0.6568
 3133SOL    MW412266   0.983   4.625   2.924  0.5785 -1.1645  0.3485
 3134SOL     OW12267   3.933   2.410   1.700 -0.0146  0.3012 -0.0397
 3134SOL    HW212268   3.865   2.388   1.765 -0.1957  0.6854 -0.0932
 3134SOL    HW312269   3.909   2.498   1.670  2.1426  1.7399  2.0996
 3134SOL    MW412270   3.921   2.419   1.705  0.0176  0.2056  0.3845
 3135SOL     OW12271   5.093   5.819   4.259 -0.6939 -0.1918  0.0452
 3135SOL    HW212272   5.002   5.839   4.279 -0.4741  0.8364  0.0936
 3135SOL    HW312273   5.139   5.831   4.343 -0.0233  2.5335 -0.6045
 3135SOL    MW412274   5.087   5.823   4.273  0.0641  0.0109  0.1299
 3136SOL     OW12275   2.244   1.478   1.362  0.8998  0.6096 -0.5619
 3136SOL    HW212276   2.244   1.383   1.347  2.4677  0.3366  0.8531
 3136SOL    HW312277   2.196   1.490   1.444 -0.2647  1.1864 -1.3015
 3136SOL    MW412278   2.238   1.467   1.371 -0.8097 -0.5527  0.3534
 3137SOL     OW12279   4.594   2.812   5.355 -0.4973  0.1671 -0.6330
 3137SOL    HW212280   4.593   2.906   5.370  0.9018  0.1408 -0.3135
 3137SOL    HW312281   4.526   2.778   5.412  0.5573  0.7406  1.0194
 3137SOL    MW412282   4.585   2.820   5.364  0.0931  0.0522  0.3162
 3138SOL     OW12283   2.460   3.966   1.240 -0.2711  0.8100  0.2126
 3138SOL    HW212284   2.384   3.917   1.209 -0.3893 -0.6911  2.6627
 3138SOL    HW312285   2.439   4.057   1.219 -0.8020  0.0811 -2.9512
 3138SOL    MW412286   2.447   3.972   1.233  0.2980  0.3299  0.2395
 3139SOL     OW12287   3.062   2.428   0.156 -0.4918 -0.4445  0.4068
 3139SOL    HW212288   3.119   2.502   0.178 -1.0214 -0.0170  0.3703
 3139SOL    HW312289   3.063   2.373   0.235  3.6884 -2.9586 -1.1119
 3139SOL    MW412290   3.070   2.431   0.170  0.4525 -0.2701  0.4968
 3140SOL     OW12291   0.880   4.847   6.310  0.4846  0.2844 -0.2213
 3140SOL    HW212292   0.844   4.912   6.249 -1.0414  0.1700  0.4913
 3140SOL    HW312293   0.893   4.895   6.391  0.0297 -0.1341  0.1016
 3140SOL    MW412294   0.877   4.862   6.312  0.5651  0.1086 -0.3244
 3141SOL     OW12295   6.200   6.062   5.341 -0.2646 -0.0117 -0.0985
 3141SOL    HW212296   6.277   6.030   5.293 -0.1738 -1.3241  0.8684
 3141SOL    HW312297   6.126   6.044   5.283  0.1235  1.2117 -1.0138
 3141SOL    MW412298   6.200   6.056   5.327 -0.8278  0.2062 -0.2592
 3142SOL     OW12299   5.412   0.867   3.148  0.2095 -0.1953  0.0959
 3142SOL    HW212300   5.380   0.945   3.102 -0.5470 -0.3857  0.2916
 3142SOL    HW312301   5.333   0.821   3.177  0.6596 -0.0632  1.6253
 3142SOL    MW412302   5.397   0.871   3.146 -0.1900 -0.2445  0.9652
 3143SOL     OW12303   1.573   4.352   0.340 -0.0893 -0.7915 -0.0271
 3143SOL    HW212304   1.494   4.366   0.392  0.1429 -0.7902  0.3272
 3143SOL    HW312305   1.550   4.384   0.253  0.3583  1.7041  0.6916
 3143SOL    MW412306   1.559   4.358   0.336  0.2631 -0.0058 -0.7148
 3144SOL     OW12307   4.393   2.980   3.354  0.2309  0.1528 -0.5768
 3144SOL    HW212308   4.434   3.065   3.338  1.4834 -0.2182  0.5229
 3144SOL    HW312309   4.461   2.916   3.337  0.1358 -0.4789  1.2078
 3144SOL    MW412310   4.407   2.983   3.350  0.0100  0.2271  0.3359
 3145SOL     OW12311   2.761   1.688   1.664 -0.0039 -0.7413 -0.6091
 3145SOL    HW212312   2.856   1.675   1.673 -0.0346 -2.0243 -1.9148
 3145SOL    HW312313   2.753   1.775   1.624  0.4852  0.4129  1.6119
 3145SOL    MW412314   2.773   1.698   1.660  0.6596 -0.1808  0.4307
 3146SOL     OW12315   4.834   4.830   0.757 -0.0764 -0.4296  0.4041
 3146SOL    HW212316   4.741   4.849   0.771 -0.0273 -0.7632  1.2269
 3146SOL    HW312317   4.836   4.743   0.717 -0.0925 -0.7109  1.0084
 3146SOL    MW412318   4.822   4.821   0.753  0.2109  0.1294 -0.0720
 3147SOL     OW12319   6.339   1.866   4.247 -0.1748  0.0318  0.3719
 3147SOL    HW212320   6.433   1.851   4.239 -0.4343 -1.3306 -0.5209
 3147SOL    HW312321   6.301   1.830   4.167 -1.8761 -4.1384  2.6487
 3147SOL    MW412322   6.346   1.859   4.236  0.7070 -0.3111 -0.0956
 3148SOL     OW12323   4.595   4.295   1.294 -0.1455 -0.0141  0.4277
 3148SOL    HW212324   4.627   4.373   1.248 -1.3290  0.2807  0.0777
 3148SOL    HW312325   4.566   4.328   1.379  0.0731 -0.2048  0.5765
 3148SOL    MW412326   4.596   4.310   1.299 -0.0043 -0.2683  0.7771
 3149SOL     OW12327   0.902   2.019   3.670  0.1550  0.2965  0.0805
 3149SOL    HW212328   0.909   2.063   3.755  2.0113  0.8285 -0.2968
 3149SOL    HW312329   0.875   2.087   3.609  0.3983  0.2862 -0.0386
 3149SOL    MW412330   0.900   2.033   3.674 -0.2230  0.9430 -0.0762
 3150SOL     OW12331   5.271   3.052   5.526 -0.3347 -0.5053 -0.2659
 3150SOL    HW212332   5.191   3.030   5.575  0.1945  1.2062  1.4928
 3150SOL    HW312333   5.241   3.111   5.457 -0.5682  0.5843  0.7341
 3150SOL    MW412334   5.256   3.057   5.523  0.0898 -0.4926 -0.3430
 3151SOL     OW12335   1.579   2.831   6.305 -0.7247  0.3509 -0.7320
 3151SOL    HW212336   1.670   2.807   6.288 -0.8284 -1.6156  1.1063
 3151SOL    HW312337   1.578   2.926   6.298  1.6486  0.4951  0.0032
 3151SOL    MW412338   1.591   2.840   6.302 -0.3456 -0.6533  0.0007
 3152SOL     OW12339   0.608   2.616   1.336 -0.1223  0.0286 -0.2840
 3152SOL    HW212340   0.622   2.667   1.416  2.1727 -0.2590 -0.4277
 3152SOL    HW312341   0.604   2.681   1.266 -0.4516  0.1742 -0.1361
 3152SOL    MW412342   0.609   2.631   1.337  0.2525 -0.5517 -0.5511
 3153SOL     OW12343   3.626   0.258   5.050  0.3638  0.0544  0.2241
 3153SOL    HW212344   3.681   0.335   5.060  0.6400 -0.1632  0.3953
 3153SOL    HW312345   3.576   0.253   5.131  0.7837 -0.2884  0.4622
 3153SOL    MW412346   3.627   0.267   5.062 -0.1140  0.1431  0.5855
 3154SOL     OW12347   2.164   1.151   4.557 -0.0504  0.0940  0.5311
 3154SOL    HW212348   2.239   1.127   4.612  0.0567  0.9601  0.7884
 3154SOL    HW312349   2.175   1.246   4.543 -0.5922  0.0529 -0.2011
 3154SOL    MW412350   2.175   1.161   4.562  0.4421 -0.5478 -0.1108
 3155SOL     OW12351   0.281   4.514   4.115 -0.7721 -0.4993 -0.3733
 3155SOL    HW212352   0.289   4.440   4.055  0.9480 -2.1649  1.6996
 3155SOL    HW312353   0.337   4.582   4.078 -1.6937 -0.5191 -1.8708
 3155SOL    MW412354   0.289   4.513   4.102 -0.2922 -0.8484  0.4049
 3156SOL     OW12355   5.677   5.381   5.372  0.3486 -0.3040  0.0240
 3156SOL    HW212356   5.699   5.301   5.419  1.2836 -1.3047 -2.0044
 3156SOL    HW312357   5.591   5.362   5.332 -0.8607  0.8568  1.9001
 3156SOL    MW412358   5.668   5.368   5.373  0.0912 -0.6771  0.1040
 3157SOL     OW12359   3.532   5.258   3.665  0.2798  0.6451  0.5045
 3157SOL    HW212360   3.537   5.293   3.576 -0.8433  0.3995  0.3305
 3157SOL    HW312361   3.621   5.266   3.699  1.2480 -1.1755 -1.3880
 3157SOL    MW412362   3.544   5.263   3.658 -0.3260 -0.2126 -0.2349
 3158SOL     OW12363   4.955   2.093   3.946 -0.0706  0.3138 -0.1607
 3158SOL    HW212364   4.991   2.180   3.931 -1.0557  0.5336 -1.4190
 3158SOL    HW312365   4.934   2.060   3.859 -0.2428 -0.9576  0.3402
 3158SOL    MW412366   4.957   2.100   3.933  0.3275 -0.5295  0.3147
 3159SOL     OW12367   1.926   2.128   1.156 -0.2067 -0.2921  0.4255
 3159SOL    HW212368   1.879   2.046   1.169 -0.9794  0.1578  0.5023
 3159SOL    HW312369   1.926   2.141   1.062 -0.0083 -0.4153  0.4064
 3159SOL    MW412370   1.920   2.119   1.145  0.1785 -0.8851 -0.5707
 3160SOL     OW12371   3.770   4.698   3.427  0.0183  0.4317 -0.4340
 3160SOL    HW212372   3.768   4.791   3.452 -1.5088  0.5270 -0.7981
 3160SOL    HW312373   3.755   4.698   3.333 -3.1066 -0.2423 -0.0566
 3160SOL    MW412374   3.767   4.711   3.418 -1.0794 -0.3334 -0.2410
 3161SOL     OW12375   3.776   5.307   3.792 -0.0272  0.3007  0.1561
 3161SOL    HW212376   3.774   5.242   3.862 -1.1442 -0.5267 -0.5976
 3161SOL    HW312377   3.760   5.391   3.836  0.5867 -0.0292  1.0359
 3161SOL    MW412378   3.773   5.310   3.807  0.0493 -0.2092 -0.6438
 3162SOL     OW12379   6.051   5.806   4.449 -0.2726  0.0142 -0.7888
 3162SOL    HW212380   5.956   5.818   4.442 -0.0754  0.6781 -3.9088
 3162SOL    HW312381   6.062   5.714   4.470 -1.6990 -1.0380 -4.0163
 3162SOL    MW412382   6.040   5.796   4.450  0.4455 -0.2052 -0.4836
 3163SOL     OW12383   5.511   4.367   5.724 -0.2003  0.3195 -0.1349
 3163SOL    HW212384   5.585   4.308   5.711 -0.3151 -0.2049  1.4251
 3163SOL    HW312385   5.547   4.440   5.774 -0.8363 -0.2014  1.1064
 3163SOL    MW412386   5.526   4.369   5.729  0.5823  0.7146 -0.0376
 3164SOL     OW12387   2.483   0.617   6.074  0.2742 -0.3056 -0.1725
 3164SOL    HW212388   2.419   0.630   6.143 -0.7603  1.2268 -1.3636
 3164SOL    HW312389   2.556   0.675   6.096 -0.1601  0.3628 -0.4897
 3164SOL    MW412390   2.484   0.626   6.086 -0.0350  0.4324 -0.0034
 3165SOL     OW12391   1.120   3.802   2.468  0.1632 -0.6149  0.1512
 3165SOL    HW212392   1.173   3.766   2.539 -0.4098 -2.5528 -0.3465
 3165SOL    HW312393   1.065   3.729   2.439 -1.4051  0.8042 -0.6312
 3165SOL    MW412394   1.119   3.788   2.473  0.5033 -0.7457 -0.0960
 3166SOL     OW12395   5.121   1.231   3.845 -0.2754  0.1580 -0.3566
 3166SOL    HW212396   5.166   1.207   3.926 -0.3967  1.4180  0.0953
 3166SOL    HW312397   5.129   1.326   3.840 -1.0829  0.1898 -1.3503
 3166SOL    MW412398   5.128   1.240   3.855  0.5823 -0.0043  0.5851
 3167SOL     OW12399   6.213   1.800   4.504 -0.2884 -0.7533 -0.1915
 3167SOL    HW212400   6.242   1.800   4.413 -0.7645 -2.6254 -0.3801
 3167SOL    HW312401   6.249   1.719   4.540  0.2287  0.1477  1.4178
 3167SOL    MW412402   6.222   1.789   4.497  0.6306  0.2270 -0.0696
 3168SOL     OW12403   0.814   2.387   4.473 -0.0892  0.6587  0.5991
 3168SOL    HW212404   0.799   2.295   4.451 -0.4290  1.0052 -0.6871
 3168SOL    HW312405   0.733   2.432   4.448  0.5933  1.5253 -0.1442
 3168SOL    MW412406   0.801   2.381   4.467 -0.3402  0.2545  0.8277
 3169SOL     OW12407   3.679   1.328   4.915 -0.1209  0.4037  0.1072
 3169SOL    HW212408   3.607   1.360   4.861 -0.6821  1.3731  1.3824
 3169SOL    HW312409   3.722   1.407   4.949  1.2942 -0.1582 -0.2771
 3169SOL    MW412410   3.675   1.342   4.912  0.0953 -0.1606  0.3514
 3170SOL     OW12411   4.862   5.534   0.092  0.2562 -0.8477  0.3940
 3170SOL    HW212412   4.771   5.537   0.060 -0.1757  1.2110  1.6261
 3170SOL    HW312413   4.906   5.605   0.045  0.1089  0.9030  2.7486
 3170SOL    MW412414   4.856   5.544   0.081  0.2798  0.0169  0.2684
 3171SOL     OW12415   1.684   0.224   6.126 -0.4362 -0.2401 -0.0814
 3171SOL    HW212416   1.724   0.212   6.212 -0.1016 -0.6499 -0.2916
 3171SOL    HW312417   1.748   0.274   6.076 -0.2664 -0.7151 -0.3502
 3171SOL    MW412418   1.698   0.229   6.130  0.2850  0.3362 -0.3581
 3172SOL     OW12419   5.729   2.807   1.902 -0.4154  0.1006 -0.4119
 3172SOL    HW212420   5.771   2.728   1.868 -0.3004 -0.1029  0.1959
 3172SOL    HW312421   5.730   2.868   1.828  3.8561  1.3000  0.4034
 3172SOL    MW412422   5.734   2.805   1.887  0.2896  0.3164  0.4199
 3173SOL     OW12423   5.391   4.516   2.139 -0.6136 -0.1533  0.5197
 3173SOL    HW212424   5.382   4.473   2.224  0.2319 -0.4905  0.4468
 3173SOL    HW312425   5.400   4.445   2.076  1.1159  0.0912  0.4347
 3173SOL    MW412426   5.391   4.501   2.142  0.6443 -0.2408  0.0221
 3174SOL     OW12427   6.323   4.428   2.292  0.1746  0.1413  0.1634
 3174SOL    HW212428   6.242   4.476   2.271  1.0233  2.0462  0.9622
 3174SOL    HW312429   6.370   4.487   2.351  2.5104 -0.5633 -0.9010
 3174SOL    MW412430   6.318   4.442   2.297 -0.0776 -0.2744  0.0745
 3175SOL     OW12431   2.240   2.883   4.999  0.0722  0.2721 -0.2483
 3175SOL    HW212432   2.201   2.968   4.979 -1.5279 -0.8580 -2.4058
 3175SOL    HW312433   2.176   2.839   5.055  0.7312  0.3287  0.5747
 3175SOL    MW412434   2.227   2.888   5.004  0.0418  0.2487 -0.4620
 3176SOL     OW12435   5.580   6.329   1.604  0.2279  0.5241  0.0094
 3176SOL    HW212436   5.660   6.380   1.618  1.2349 -1.1662  0.8235
 3176SOL    HW312437   5.568   6.281   1.686 -1.4023  0.4132 -0.2585
 3176SOL    MW412438   5.589   6.329   1.617  1.1033 -0.1269  0.1823
 3177SOL     OW12439   1.320   4.482   5.227  0.0275  0.2286  0.0032
 3177SOL    HW212440   1.280   4.396   5.232 -2.4298  1.2403 -0.7841
 3177SOL    HW312441   1.387   4.474   5.159  0.9371 -1.4109  1.0449
 3177SOL    MW412442   1.324   4.470   5.219  0.1495  0.1848  0.2980
 3178SOL     OW12443   4.646   1.884   4.689  0.2233  0.3096  0.1772
 3178SOL    HW212444   4.602   1.966   4.713 -0.9095  0.0095 -0.7775
 3178SOL    HW312445   4.651   1.887   4.594 -0.3515 -0.9741  0.0833
 3178SOL    MW412446   4.641   1.895   4.680 -0.1860 -0.0584 -0.0916
 3179SOL     OW12447   1.373   5.560   4.344 -0.8289  0.2397  0.5206
 3179SOL    HW212448   1.346   5.606   4.264 -1.2435  0.2497  0.6641
 3179SOL    HW312449   1.450   5.607   4.373  0.2602 -0.6946 -0.7128
 3179SOL    MW412450   1.380   5.572   4.337 -0.1862 -0.3641  0.2006
 3180SOL     OW12451   0.608   3.965   5.491  0.1804 -0.1067 -0.3644
 3180SOL    HW212452   0.572   3.919   5.415  0.1242 -0.3011 -0.2213
 3180SOL    HW312453   0.698   3.933   5.499  0.1146 -0.2567 -0.2143
 3180SOL    MW412454   0.615   3.955   5.482  0.0356 -0.1463 -0.5080
 3181SOL     OW12455   2.520   4.235   4.011  0.6027  0.1598 -0.5752
 3181SOL    HW212456   2.430   4.206   3.999  0.0243  2.0418 -1.1719
 3181SOL    HW312457   2.553   4.248   3.922  1.0370  0.6468 -0.3525
 3181SOL    MW412458   2.512   4.233   3.997  0.0013 -0.5190  0.4397
 3182SOL     OW12459   6.344   6.408   6.240 -0.4223 -0.4600 -0.1882
 3182SOL    HW212460   6.437   6.396   6.219  0.3280  0.4753  2.2796
 3182SOL    HW312461   6.305   6.321   6.230  0.5277 -0.7257 -1.9294
 3182SOL    MW412462   6.351   6.395   6.236 -0.8471 -0.1345  0.3143
 3183SOL     OW12463   5.791   1.750   2.493  0.2184  0.2585  0.4472
 3183SOL    HW212464   5.779   1.730   2.400 -0.5941  2.6179 -0.0432
 3183SOL    HW312465   5.881   1.780   2.500  0.8067 -1.4992  0.7900
 3183SOL    MW412466   5.801   1.752   2.482 -0.4735 -0.1589 -0.1024
 3184SOL     OW12467   4.542   5.571   5.006  0.5115  0.3536 -0.3463
 3184SOL    HW212468   4.567   5.495   4.954 -0.3414  1.5167 -2.5750
 3184SOL    HW312469   4.547   5.540   5.097 -0.4405 -2.5548 -1.1648
 3184SOL    MW412470   4.546   5.557   5.011 -0.3318 -0.1092 -0.3642
 3185SOL     OW12471   3.530   2.813   5.879  0.0121 -0.4590 -0.0320
 3185SOL    HW212472   3.448   2.808   5.928  0.7253 -0.9971  1.1556
 3185SOL    HW312473   3.525   2.896   5.831 -0.5901  0.2279  1.1887
 3185SOL    MW412474   3.518   2.823   5.879 -0.4259  0.4659  0.0529
 3186SOL     OW12475   4.929   2.299   1.326 -0.3053  0.0612 -0.1863
 3186SOL    HW212476   4.939   2.315   1.420 -0.1054 -1.2549  0.0391
 3186SOL    HW312477   4.841   2.262   1.318  0.3986 -1.6781 -0.2296
 3186SOL    MW412478   4.919   2.296   1.338  0.3362 -0.3521  0.3034
 3187SOL     OW12479   4.403   4.116   5.180  0.0164 -0.3463  0.1131
 3187SOL    HW212480   4.379   4.166   5.102 -0.3336  1.2839  1.2288
 3187SOL    HW312481   4.498   4.104   5.174  0.4032  1.9835  0.6387
 3187SOL    MW412482   4.412   4.121   5.169  0.6053 -0.0938 -0.5431
 3188SOL     OW12483   3.738   3.019   1.036  0.2862  0.2039  0.2993
 3188SOL    HW212484   3.717   3.014   0.943 -0.6891 -1.6218  0.5646
 3188SOL    HW312485   3.792   3.098   1.045 -1.6723  1.8610 -1.4036
 3188SOL    MW412486   3.742   3.029   1.025  0.2309 -0.4270 -0.0865
 3189SOL     OW12487   3.667   0.970   5.229  0.3024  0.2959  0.1912
 3189SOL    HW212488   3.615   1.025   5.170  1.5182  1.1738 -0.1028
 3189SOL    HW312489   3.721   1.032   5.278  1.4271 -0.6005  0.1316
 3189SOL    MW412490   3.667   0.985   5.228 -0.4340 -0.5531  0.3373
 3190SOL     OW12491   5.989   0.736   6.334  0.0124  0.2624  0.7541
 3190SOL    HW212492   5.994   0.661   6.275  0.1286 -0.1977  1.3355
 3190SOL    HW312493   6.029   0.705   6.416 -1.3819  0.4406  1.5405
 3190SOL    MW412494   5.995   0.722   6.337 -0.0047 -0.4488  0.1691
 3191SOL     OW12495   1.887   5.043   0.193  0.5692  0.3670 -0.3653
 3191SOL    HW212496   1.850   5.125   0.225 -0.8736 -0.3501 -0.1471
 3191SOL    HW312497   1.896   4.989   0.272 -0.8397 -0.5712 -0.8151
 3191SOL    MW412498   1.884   5.047   0.208  0.2183 -0.0367  0.0684
 3192SOL     OW12499   4.972   0.921   3.346  0.1495  0.4135  0.4553
 3192SOL    HW212500   4.953   0.921   3.440 -2.0177 -0.9354  0.1002
 3192SOL    HW312501   4.899   0.968   3.307  1.3465  1.4966 -0.5359
 3192SOL    MW412502   4.960   0.927   3.353  0.1735  0.1180  0.3111
 3193SOL     OW12503   5.621   2.214   1.648  0.2194  0.6917  0.0083
 3193SOL    HW212504   5.574   2.217   1.731 -1.2598 -0.4967 -0.7494
 3193SOL    HW312505   5.639   2.121   1.634 -1.0106  0.6638 -1.7568
 3193SOL    MW412506   5.617   2.202   1.657 -0.6502  0.1538 -0.1919
 3194SOL     OW12507   1.240   2.608   5.979  0.0172  0.2764 -0.5343
 3194SOL    HW212508   1.283   2.524   5.995  2.9739  2.0598  2.1510
 3194SOL    HW312509   1.147   2.591   5.990  0.5000 -2.6534 -0.2713
 3194SOL    MW412510   1.234   2.595   5.982  0.1302  0.0872 -0.1780
 3195SOL     OW12511   2.911   5.733   3.445 -0.0894  0.2211  0.0841
 3195SOL    HW212512   2.825   5.710   3.481  0.0668  0.5023  0.6526
 3195SOL    HW312513   2.928   5.820   3.480  0.5242  0.0778  0.1461
 3195SOL    MW412514   2.902   5.741   3.454  0.3308 -0.2153 -0.2416
 3196SOL     OW12515   5.526   0.937   5.853  0.1694 -0.4522  0.8196
 3196SOL    HW212516   5.596   0.988   5.814 -1.3737  1.7780  0.7472
 3196SOL    HW312517   5.551   0.930   5.946  0.1777  1.0131  0.9649
 3196SOL    MW412518   5.538   0.943   5.860  0.3216  0.1592 -0.2829
 3197SOL     OW12519   3.502   0.427   6.099  0.3482  0.0193 -0.3159
 3197SOL    HW212520   3.597   0.443   6.092  0.4987 -0.3714  0.6755
 3197SOL    HW312521   3.494   0.364   6.170 -0.8082  1.5011  0.9134
 3197SOL    MW412522   3.514   0.420   6.107 -0.2432  0.7064  0.3699
 3198SOL     OW12523   1.595   4.604   1.669 -0.9594 -0.4367  0.0598
 3198SOL    HW212524   1.630   4.578   1.755  0.5943  1.0552 -0.0787
 3198SOL    HW312525   1.554   4.524   1.635  1.2042 -1.9445  0.8193
 3198SOL    MW412526   1.594   4.590   1.676  0.1476 -0.0614 -0.3470
 3199SOL     OW12527   3.542   0.511   5.556 -0.4388 -0.0559 -0.3134
 3199SOL    HW212528   3.474   0.559   5.508  0.3524  2.5597  0.9780
 3199SOL    HW312529   3.623   0.557   5.535  0.5699 -1.5809  0.1065
 3199SOL    MW412530   3.543   0.524   5.547  0.3345  0.8334 -0.2459
 3200SOL     OW12531   5.685   1.427   4.165 -0.0246 -0.9509  0.8543
 3200SOL    HW212532   5.637   1.455   4.243  1.8442  0.7367  1.4899
 3200SOL    HW312533   5.754   1.369   4.199  0.7504 -0.2719  0.4736
 3200SOL    MW412534   5.688   1.423   4.180  0.1626 -0.4779  0.1797
 3201SOL     OW12535   0.452   4.056   6.057  0.1862  0.1637  0.1575
 3201SOL    HW212536   0.538   4.015   6.066 -0.3228 -0.9483  0.1131
 3201SOL    HW312537   0.442   4.072   5.963  0.2717  0.1527  0.1463
 3201SOL    MW412538   0.462   4.053   6.046  0.5079  0.0392 -0.0731
 3202SOL     OW12539   4.460   3.360   6.392 -0.2417  0.2279  0.4602
 3202SOL    HW212540   4.553   3.375   6.377 -0.1287 -0.7460  0.1203
 3202SOL    HW312541   4.457   3.296   6.464 -0.6740  0.9259  1.0857
 3202SOL    MW412542   4.472   3.354   6.400  0.1111  0.4086  0.0610
 3203SOL     OW12543   5.528   2.572   2.223  0.3540  1.0237 -0.1890
 3203SOL    HW212544   5.441   2.548   2.191  0.0735  1.4098  0.2752
 3203SOL    HW312545   5.558   2.496   2.273  0.3603  0.8244 -0.4914
 3203SOL    MW412546   5.521   2.559   2.225  0.0416  0.4667  0.0924
 3204SOL     OW12547   3.243   5.424   1.345 -0.6527  0.0744 -0.7779
 3204SOL    HW212548   3.153   5.441   1.375 -0.2924  0.5154  0.0672
 3204SOL    HW312549   3.299   5.461   1.413  0.1794 -0.4513 -1.1590
 3204SOL    MW412550   3.238   5.431   1.358  0.0662 -0.3150  0.6855
 3205SOL     OW12551   1.638   1.190   1.756 -0.0631  0.1437 -0.1144
 3205SOL    HW212552   1.729   1.167   1.738  0.5423  2.6846 -0.6959
 3205SOL    HW312553   1.636   1.205   1.851  0.0983  0.0329 -0.0930
 3205SOL    MW412554   1.650   1.189   1.766  0.0339  0.4251  0.4030
 3206SOL     OW12555   5.367   1.673   1.369  0.5423 -0.1331 -0.1496
 3206SOL    HW212556   5.312   1.656   1.446  0.6783  0.1690  0.0140
 3206SOL    HW312557   5.425   1.597   1.364  0.1108 -0.4581 -0.3273
 3206SOL    MW412558   5.368   1.661   1.378  0.0478  0.5854  0.4843
 3207SOL     OW12559   5.990   5.987   5.164 -0.3328  0.2872 -0.4356
 3207SOL    HW212560   5.943   5.908   5.137 -0.0323  0.6932 -2.3153
 3207SOL    HW312561   5.932   6.030   5.227 -0.8033 -1.0666  0.0824
 3207SOL    MW412562   5.976   5.983   5.169 -0.3402 -0.1849 -0.7527
 3208SOL     OW12563   5.460   0.111   0.687  0.4630  0.2400 -0.4129
 3208SOL    HW212564   5.537   0.168   0.677  0.2289  0.8318  0.8945
 3208SOL    HW312565   5.480   0.035   0.633  1.5452  0.8007 -0.8574
 3208SOL    MW412566   5.473   0.109   0.679 -0.5390  0.3255 -0.4879
 3209SOL     OW12567   3.008   0.087   6.081 -0.0188  0.2572  0.1390
 3209SOL    HW212568   2.959   0.109   6.160  0.2214  0.8951  0.1157
 3209SOL    HW312569   3.003  -0.008   6.076 -3.8307  0.3732 -1.4891
 3209SOL    MW412570   3.001   0.078   6.091  0.4987 -0.2229 -0.2401
 3210SOL     OW12571   3.934   2.734   5.820  0.0852 -0.1797  0.4153
 3210SOL    HW212572   3.869   2.664   5.820 -0.6853  0.4988 -0.3915
 3210SOL    HW312573   3.884   2.814   5.839  0.8516  0.2196  0.7960
 3210SOL    MW412574   3.919   2.736   5.822 -0.9467 -0.2722  0.3539
 3211SOL     OW12575   3.045   2.899   3.336  0.9075  0.3062  0.0200
 3211SOL    HW212576   3.011   2.813   3.361 -0.5234  0.6902 -0.5484
 3211SOL    HW312577   3.006   2.959   3.399 -0.6616  0.9344 -1.4754
 3211SOL    MW412578   3.036   2.895   3.348 -0.5502  0.1796  0.6074
 3212SOL     OW12579   6.050   3.319   6.409  0.4517 -0.1754 -0.5291
 3212SOL    HW212580   5.957   3.310   6.425  0.2324  1.4080 -0.7655
 3212SOL    HW312581   6.069   3.254   6.340 -0.7394  0.3633 -1.3927
 3212SOL    MW412582   6.041   3.309   6.402  0.0326 -0.0790  0.1756
 3213SOL     OW12583   4.975   3.510   5.072  0.3878  0.4224 -0.3336
 3213SOL    HW212584   5.041   3.545   5.013  1.3024  1.9666  1.4934
 3213SOL    HW312585   4.905   3.575   5.071 -0.2992 -0.3013 -0.8413
 3213SOL    MW412586   4.974   3.523   5.064 -0.1104  0.3908 -0.2698
 3214SOL     OW12587   2.263   2.768   3.394 -0.2947 -0.5601 -0.0253
 3214SOL    HW212588   2.312   2.776   3.476  0.4645  0.9137 -0.5891
 3214SOL    HW312589   2.171   2.774   3.421 -0.1189 -1.5095  0.8472
 3214SOL    MW412590   2.257   2.770   3.409  0.2795  0.4289  0.1637
 3215SOL     OW12591   0.879   4.571   5.932  0.3720 -0.1936 -0.0619
 3215SOL    HW212592   0.832   4.528   5.860 -0.5182  0.2053  0.2608
 3215SOL    HW312593   0.962   4.525   5.938 -0.4504 -1.7292  0.1016
 3215SOL    MW412594   0.884   4.559   5.924  0.3274 -0.0589 -0.2962
 3216SOL     OW12595   4.139   2.565   1.026 -0.0353 -0.3731  0.1662
 3216SOL    HW212596   4.130   2.471   1.012 -0.9343 -0.0687 -1.5372
 3216SOL    HW312597   4.122   2.604   0.941  0.2077  1.3564  0.8657
 3216SOL    MW412598   4.136   2.558   1.013 -0.0207  0.3849  0.0819
 3217SOL     OW12599   6.305   0.198   1.834  0.2889  0.1429  0.5778
 3217SOL    HW212600   6.371   0.266   1.847 -0.2792  0.5667  1.2935
 3217SOL    HW312601   6.222   0.240   1.858 -0.6310  0.4059 -2.5889
 3217SOL    MW412602   6.303   0.213   1.839  0.7809  0.0634 -0.4248
 3218SOL     OW12603   2.385   5.213   0.659  1.2063  0.3435 -0.2059
 3218SOL    HW212604   2.343   5.284   0.611 -0.9928 -0.2698  0.6811
 3218SOL    HW312605   2.356   5.226   0.750  1.2126 -1.3600  0.0581
 3218SOL    MW412606   2.376   5.224   0.665  0.3224 -0.0312  0.1306
 3219SOL     OW12607   3.851   0.314   1.972 -0.0710  0.1592  0.5294
 3219SOL    HW212608   3.832   0.292   1.881  1.9638 -0.5788  0.2419
 3219SOL    HW312609   3.805   0.246   2.023 -1.7906  0.9728  0.1410
 3219SOL    MW412610   3.842   0.302   1.967 -0.5929  0.3843  0.0736
 3220SOL     OW12611   5.188   6.002   2.772 -0.8627 -0.3085 -0.6427
 3220SOL    HW212612   5.233   6.086   2.765 -0.5263 -0.3567  0.6141
 3220SOL    HW312613   5.095   6.024   2.769 -0.7782  0.1052 -0.3450
 3220SOL    MW412614   5.182   6.016   2.771 -0.4540  0.8500  0.1062
 3221SOL     OW12615   3.205   4.076   5.138  0.7010 -0.2826  0.7128
 3221SOL    HW212616   3.208   4.171   5.126 -0.8213 -0.2290  0.5559
 3221SOL    HW312617   3.289   4.054   5.177  0.8423  1.2077  1.3133
 3221SOL    MW412618   3.216   4.086   5.141  1.2494  0.2275 -0.5163
 3222SOL     OW12619   4.697   6.414   0.799  0.2541  0.0745  0.7707
 3222SOL    HW212620   4.710   6.319   0.802 -0.9143 -0.1695 -0.7578
 3222SOL    HW312621   4.647   6.434   0.877  0.4948 -0.5661  1.0976
 3222SOL    MW412622   4.692   6.404   0.810 -0.1867 -0.7373  0.6157
 3223SOL     OW12623   4.100   1.842   3.561  0.2745  0.1961 -0.1932
 3223SOL    HW212624   4.181   1.790   3.563  0.0573 -0.1115  0.5906
 3223SOL    HW312625   4.118   1.917   3.617  0.3934  0.6930 -0.8872
 3223SOL    MW412626   4.113   1.845   3.568  0.6113  0.0105  1.0385
 3224SOL     OW12627   0.191   2.281   3.320  0.6782 -0.7866 -0.4380
 3224SOL    HW212628   0.183   2.210   3.383 -0.3425 -0.5106 -0.2400
 3224SOL    HW312629   0.281   2.274   3.287  1.1677 -1.0318  0.9105
 3224SOL    MW412630   0.202   2.271   3.324  0.3610  0.9850 -0.2124
 3225SOL     OW12631   5.753   5.518   1.103  0.2565  0.0619 -0.4298
 3225SOL    HW212632   5.701   5.597   1.092  1.1727  0.5885 -1.1748
 3225SOL    HW312633   5.842   5.545   1.081  0.6212 -1.1278 -0.4884
 3225SOL    MW412634   5.758   5.532   1.098 -0.6625  0.1678  0.1754
 3226SOL     OW12635   0.611   5.532   5.594 -0.2212  0.3554 -0.4992
 3226SOL    HW212636   0.671   5.469   5.555 -0.1487  0.5673 -0.7348
 3226SOL    HW312637   0.565   5.483   5.662  0.1215  0.1560 -0.4084
 3226SOL    MW412638   0.613   5.517   5.598  0.2840  0.3909 -0.3824
 3227SOL     OW12639   3.192   0.544   2.081  0.1672  0.1844 -0.1702
 3227SOL    HW212640   3.208   0.639   2.075 -1.8264  0.5390 -0.4435
 3227SOL    HW312641   3.246   0.506   2.012 -1.0170  1.4146 -1.8622
 3227SOL    MW412642   3.202   0.552   2.071 -0.3326 -0.0226 -0.5458
 3228SOL     OW12643   6.289   3.927   6.167 -0.0398 -0.0786 -0.5859
 3228SOL    HW212644   6.294   4.013   6.126 -0.0054 -0.1329 -0.6968
 3228SOL    HW312645   6.347   3.872   6.114  0.8851  0.1171  0.2047
 3228SOL    MW412646   6.297   3.931   6.154 -0.1455 -0.3329 -0.0236
 3229SOL     OW12647   5.149   6.060   4.071  0.1869  0.3000  0.2120
 3229SOL    HW212648   5.116   6.039   3.983 -1.3008  0.2867  0.7591
 3229SOL    HW312649   5.096   6.008   4.130  1.4136  0.0432  1.1316
 3229SOL    MW412650   5.138   6.050   4.067 -0.1476 -0.0163  0.1048
 3230SOL     OW12651   4.922   2.987   3.255  0.0462  0.2473 -0.8013
 3230SOL    HW212652   4.848   3.020   3.307  1.0245  0.4805  0.5108
 3230SOL    HW312653   4.883   2.956   3.174 -1.4241  0.8572 -0.3577
 3230SOL    MW412654   4.907   2.987   3.251  0.9782  0.0389 -0.4705
 3231SOL     OW12655   4.362   3.515   2.872 -0.3762  0.1829 -0.5492
 3231SOL    HW212656   4.329   3.436   2.829 -0.7880  0.8367 -1.4656
 3231SOL    HW312657   4.289   3.544   2.927 -0.6515  0.5807 -1.1231
 3231SOL    MW412658   4.348   3.508   2.874 -0.2437 -0.3458 -0.1192
 3232SOL     OW12659   2.499   1.832   4.800 -0.3171 -0.3705  0.0175
 3232SOL    HW212660   2.523   1.888   4.726  0.7969 -0.9987 -0.1261
 3232SOL    HW312661   2.561   1.759   4.796 -0.1799 -0.3823  1.6156
 3232SOL    MW412662   2.510   1.829   4.790 -0.4502 -0.4811  0.2753
 3233SOL     OW12663   1.291   1.281   1.839 -0.0098  0.0898  0.3939
 3233SOL    HW212664   1.340   1.345   1.786 -0.3185  1.2185  1.4157
 3233SOL    HW312665   1.346   1.269   1.917 -1.4212  1.6012  1.6999
 3233SOL    MW412666   1.305   1.288   1.843  0.3832  0.3999 -0.1112
 3234SOL     OW12667   1.509   1.234   3.213 -0.0033  0.3927 -0.0245
 3234SOL    HW212668   1.530   1.226   3.306 -2.7554 -1.2429  0.5671
 3234SOL    HW312669   1.414   1.225   3.209  0.1655 -1.4554 -3.1364
 3234SOL    MW412670   1.500   1.232   3.225 -0.0513  0.1476 -0.0373
 3235SOL     OW12671   5.839   3.618   3.635 -0.0679  0.3793 -0.4254
 3235SOL    HW212672   5.776   3.549   3.654  0.8805 -0.4857 -0.2994
 3235SOL    HW312673   5.793   3.699   3.653 -0.8303 -0.2651  0.5873
 3235SOL    MW412674   5.825   3.620   3.640 -0.6001 -0.5706 -0.0688
 3236SOL     OW12675   1.104   2.430   4.457  0.1604 -0.2790 -0.4420
 3236SOL    HW212676   1.112   2.518   4.492  1.1697 -0.8429  0.8369
 3236SOL    HW312677   1.012   2.422   4.431  0.4552  1.7882 -2.4679
 3236SOL    MW412678   1.093   2.440   4.458 -0.0650  1.2575  0.4551
 3237SOL     OW12679   0.876   0.040   4.858 -0.8936  0.6367  0.2300
 3237SOL    HW212680   0.858  -0.053   4.843  0.4363  0.2953  0.6590
 3237SOL    HW312681   0.840   0.058   4.945  1.8240 -0.3681  1.6538
 3237SOL    MW412682   0.869   0.030   4.867  0.2088  0.0578 -0.1903
 3238SOL     OW12683   5.264   5.129   6.047 -0.0524 -0.6154  0.1088
 3238SOL    HW212684   5.322   5.116   6.122  1.4586  0.2322 -0.8550
 3238SOL    HW312685   5.178   5.149   6.085 -0.1105 -3.2919  1.5740
 3238SOL    MW412686   5.260   5.130   6.062 -0.0770  0.0845  0.2385
 3239SOL     OW12687   2.528   0.771   3.034  0.0320  0.5157  0.7956
 3239SOL    HW212688   2.442   0.811   3.043 -0.1069 -0.0826  2.5605
 3239SOL    HW312689   2.517   0.683   3.070  1.6864  0.9102  2.4426
 3239SOL    MW412690   2.515   0.765   3.040 -0.5964 -0.1066 -0.3405
 3240SOL     OW12691   0.919   2.869   1.008 -0.0946  0.3530  0.3494
 3240SOL    HW212692   0.920   2.860   1.104  0.6637  1.2755  0.4411
 3240SOL    HW312693   1.008   2.844   0.981  0.1106  1.4090  0.0250
 3240SOL    MW412694   0.931   2.864   1.017 -0.1391  0.0728 -0.0220
 3241SOL     OW12695   5.596   0.288   5.041  0.0926  0.4595 -0.6163
 3241SOL    HW212696   5.561   0.209   5.081  0.1993  0.3545 -0.7310
 3241SOL    HW312697   5.686   0.266   5.018  0.1135  0.6038 -0.6781
 3241SOL    MW412698   5.603   0.275   5.043  0.0247  0.4325  0.4049
 3242SOL     OW12699   4.249   5.050   5.365 -0.2613 -0.5222  0.6114
 3242SOL    HW212700   4.221   5.011   5.448  0.5945 -1.5027  0.4581
 3242SOL    HW312701   4.345   5.048   5.369 -0.1356  2.3750  0.9570
 3242SOL    MW412702   4.258   5.044   5.377 -0.7107  0.0987  0.6483
 3243SOL     OW12703   5.992   1.567   1.359  0.7535 -0.4840 -0.2202
 3243SOL    HW212704   5.956   1.574   1.270 -1.0145  1.7407  0.5595
 3243SOL    HW312705   5.976   1.476   1.384 -0.9745 -0.5365 -1.3339
 3243SOL    MW412706   5.985   1.556   1.351 -0.4998 -0.6054 -0.3456
 3244SOL     OW12707   3.792   3.220   5.273 -0.2005  0.6953 -0.2565
 3244SOL    HW212708   3.845   3.208   5.194 -1.2341 -0.7018 -0.7602
 3244SOL    HW312709   3.724   3.281   5.247 -0.4948  0.2958 -0.4285
 3244SOL    MW412710   3.790   3.227   5.260 -0.0720 -0.0474 -0.2803
 3245SOL     OW12711   5.135   2.939   0.610 -0.2867 -0.0423  0.2102
 3245SOL    HW212712   5.108   2.949   0.518 -2.2800  1.8327  0.9022
 3245SOL    HW312713   5.205   3.003   0.621 -1.6258  1.4477  0.4956
 3245SOL    MW412714   5.140   2.949   0.599 -0.1341  0.9886  0.0400
 3246SOL     OW12715   6.052   0.469   4.563 -0.5941  0.3311  0.1417
 3246SOL    HW212716   6.128   0.468   4.505 -1.3664 -1.6970 -0.9410
 3246SOL    HW312717   5.977   0.480   4.505 -1.2396  0.6815  1.0188
 3246SOL    MW412718   6.052   0.470   4.548  0.7086  0.5313  0.0628
 3247SOL     OW12719   2.750   1.433   1.805  0.4355  0.2912  0.0735
 3247SOL    HW212720   2.796   1.457   1.886 -2.1064  0.6876  1.5125
 3247SOL    HW312721   2.734   1.517   1.761 -2.1864  0.6766  1.5469
 3247SOL    MW412722   2.754   1.447   1.810 -0.5867 -0.0817 -0.0752
 3248SOL     OW12723   1.706   6.072   4.147 -0.0742 -0.3890  0.0821
 3248SOL    HW212724   1.783   6.051   4.200  0.0907  0.9832  0.4290
 3248SOL    HW312725   1.651   6.124   4.205 -1.5743 -1.8234  0.0358
 3248SOL    MW412726   1.709   6.076   4.162  0.3975  0.1368 -0.3275
 3249SOL     OW12727   0.010   0.577   5.591  0.0921 -0.1642  0.1199
 3249SOL    HW212728   0.042   0.667   5.600  0.0067 -0.1142 -0.0609
 3249SOL    HW312729   0.032   0.535   5.673 -0.0057  0.0679  0.2655
 3249SOL    MW412730   0.017   0.583   5.603  0.2495  0.2887 -0.1815
 3250SOL     OW12731   1.161   3.861   4.728 -0.3364  0.3809 -0.0715
 3250SOL    HW212732   1.205   3.778   4.707  1.5787  1.0090  1.1726
 3250SOL    HW312733   1.097   3.873   4.657  0.4146 -1.3788 -1.1204
 3250SOL    MW412734   1.158   3.852   4.716  0.1751 -0.4420 -0.0541
 3251SOL     OW12735   3.194   2.805   1.895 -0.2917  0.2712 -0.8588
 3251SOL    HW212736   3.131   2.790   1.825 -1.2122 -1.4472  0.2550
 3251SOL    HW312737   3.145   2.852   1.963  0.1621  0.6161 -0.7666
 3251SOL    MW412738   3.180   2.809   1.895  0.3255  0.0917  0.0379
 3252SOL     OW12739   6.268   4.943   4.892 -0.2962 -0.0389 -0.0655
 3252SOL    HW212740   6.332   4.873   4.896 -1.3447 -1.0205 -0.0493
 3252SOL    HW312741   6.193   4.911   4.943 -0.4648  1.4459  0.6790
 3252SOL    MW412742   6.266   4.930   4.899  0.5612  0.1097  0.2142
 3253SOL     OW12743   2.811   5.933   1.964  0.0369  0.0813 -0.2181
 3253SOL    HW212744   2.739   5.995   1.961 -1.3248 -1.3477  1.0270
 3253SOL    HW312745   2.884   5.978   1.920 -0.9151  2.4457  0.4876
 3253SOL    MW412746   2.811   5.947   1.957 -0.2275  0.1631 -0.4392
 3254SOL     OW12747   2.242   2.496   1.442  0.0993  0.4218 -0.7651
 3254SOL    HW212748   2.295   2.557   1.391  0.0623  0.0097 -1.3114
 3254SOL    HW312749   2.152   2.520   1.422  0.0848  0.3494 -0.7878
 3254SOL    MW412750   2.237   2.507   1.433  0.0713  0.2608 -0.2376
 3255SOL     OW12751   1.873   5.807   5.374  0.3921  0.5443 -0.3173
 3255SOL    HW212752   1.901   5.717   5.355  0.8357  1.1000 -2.5350
 3255SOL    HW312753   1.856   5.807   5.468  2.0233 -1.4125  0.0457
 3255SOL    MW412754   1.874   5.795   5.384  0.2461 -0.0637  0.1996
 3256SOL     OW12755   0.314   1.460   3.585  0.3819  0.1582  0.2531
 3256SOL    HW212756   0.293   1.502   3.501 -0.1086  0.8995  0.7329
 3256SOL    HW312757   0.279   1.520   3.651 -1.4047 -1.5572  0.9749
 3256SOL    MW412758   0.307   1.474   3.582  0.1516 -0.4881  0.1889
 3257SOL     OW12759   1.650   3.468   6.420 -0.1100  0.2195 -0.1802
 3257SOL    HW212760   1.682   3.381   6.443  2.3692  1.6454  2.5182
 3257SOL    HW312761   1.725   3.512   6.381 -0.8406  1.5894 -0.1263
 3257SOL    MW412762   1.664   3.462   6.418  0.2406  0.3054 -0.5605
 3258SOL     OW12763   0.722   6.156   0.289  0.3510  0.0934 -0.3403
 3258SOL    HW212764   0.752   6.098   0.360  0.0481  3.0228  2.3894
 3258SOL    HW312765   0.802   6.189   0.249  0.6002  0.4982  0.4787
 3258SOL    MW412766   0.736   6.153   0.293 -0.0797  0.6321  0.0260
 3259SOL     OW12767   1.453   3.563   6.221 -0.3518  0.0018  0.1302
 3259SOL    HW212768   1.519   3.538   6.285 -1.9369 -1.3262  1.3472
 3259SOL    HW312769   1.421   3.480   6.187 -1.0273  0.6366 -0.8223
 3259SOL    MW412770   1.457   3.549   6.225 -0.6896  0.3252 -0.5058
 3260SOL     OW12771   0.406   3.394   2.127 -0.5701 -0.1743 -0.5696
 3260SOL    HW212772   0.441   3.352   2.048 -1.4495 -0.4962 -0.7925
 3260SOL    HW312773   0.366   3.322   2.176 -3.0912  0.5244 -1.4719
 3260SOL    MW412774   0.406   3.379   2.123  0.2176  0.0379  0.0615
 3261SOL     OW12775   0.652   3.595   1.708  0.2731  0.2425  0.4557
 3261SOL    HW212776   0.682   3.505   1.719  2.4530  0.9148  0.5412
 3261SOL    HW312777   0.578   3.588   1.647  2.0266 -1.4154 -1.6856
 3261SOL    MW412778   0.647   3.582   1.701  0.0320  0.0635 -0.0847
 3262SOL     OW12779   4.464   6.064   4.986  0.1545  0.0182 -0.0613
 3262SOL    HW212780   4.400   5.994   4.996  0.3021 -0.2455 -0.8581
 3262SOL    HW312781   4.412   6.145   4.987 -0.4056 -0.2620 -2.2317
 3262SOL    MW412782   4.449   6.066   4.987 -0.0907 -0.7306 -0.1871
 3263SOL     OW12783   2.810   4.292   2.807  0.4500 -0.3544 -0.3056
 3263SOL    HW212784   2.805   4.379   2.769 -0.8997 -0.4353 -0.3812
 3263SOL    HW312785   2.796   4.232   2.733  2.8599 -0.7362 -0.5346
 3263SOL    MW412786   2.807   4.295   2.792  0.5106  0.3050 -0.1378
 3264SOL     OW12787   3.852   0.704   1.984  0.0367 -0.4601 -0.0910
 3264SOL    HW212788   3.837   0.782   1.929 -1.0171 -1.2434 -0.9628
 3264SOL    HW312789   3.902   0.645   1.928  1.3213 -0.2315  0.7617
 3264SOL    MW412790   3.856   0.707   1.969  0.5120 -0.4815  0.1864
 3265SOL     OW12791   1.811   1.110   5.934 -0.0751  0.0936 -0.2703
 3265SOL    HW212792   1.818   1.156   5.850 -0.5152  0.5320 -0.0681
 3265SOL    HW312793   1.824   1.018   5.911  0.7063  0.2975 -0.6924
 3265SOL    MW412794   1.814   1.104   5.920  0.5195  0.0093 -0.1786
 3266SOL     OW12795   1.742   0.637   3.547 -0.3428 -0.5202  0.1408
 3266SOL    HW212796   1.762   0.543   3.542  1.2773 -0.2625  1.0081
 3266SOL    HW312797   1.706   0.658   3.460 -1.0587 -1.9860  0.0372
 3266SOL    MW412798   1.740   0.627   3.535  0.0001  0.2065  0.0056
 3267SOL     OW12799   3.575   6.229   3.397  0.2263  0.3169  0.5913
 3267SOL    HW212800   3.564   6.268   3.311 -2.5776 -0.4303  0.5287
 3267SOL    HW312801   3.597   6.138   3.380 -2.4245 -0.3927  0.5264
 3267SOL    MW412802   3.576   6.222   3.383 -0.7215  0.0912  0.4808
 3268SOL     OW12803   2.150   3.814   5.161  0.1207 -0.1027  0.2718
 3268SOL    HW212804   2.230   3.839   5.115 -0.7626 -1.2937 -2.0693
 3268SOL    HW312805   2.136   3.722   5.138 -2.4089  0.3073 -0.1639
 3268SOL    MW412806   2.159   3.805   5.152  0.2197  0.4610  0.4235
 3269SOL     OW12807   1.867   5.805   5.665  0.3284  0.1738 -0.7184
 3269SOL    HW212808   1.860   5.843   5.752 -1.2470  0.0428 -0.7538
 3269SOL    HW312809   1.842   5.713   5.677 -0.8180  0.3659 -1.4274
 3269SOL    MW412810   1.863   5.798   5.678 -0.3199 -0.1225  0.2082
 3270SOL     OW12811   1.540   1.336   2.751  0.4697  0.2283  0.7035
 3270SOL    HW212812   1.624   1.334   2.705  0.0652 -0.2012 -0.0316
 3270SOL    HW312813   1.550   1.406   2.816  1.3590  0.2475  0.5648
 3270SOL    MW412814   1.553   1.345   2.754  0.1277  0.5396 -0.1371
 3271SOL     OW12815   2.727   5.013   3.530  0.0532 -0.0612  0.1274
 3271SOL    HW212816   2.664   5.052   3.469 -0.1152 -0.0596  0.3000
 3271SOL    HW312817   2.687   5.025   3.616  1.0073  1.3569  0.4152
 3271SOL    MW412818   2.713   5.020   3.533 -0.1020  0.1644  0.3051
 3272SOL     OW12819   0.267   3.326   4.119 -0.0213  0.0611  0.4963
 3272SOL    HW212820   0.173   3.343   4.131 -0.1599  0.0356 -0.4871
 3272SOL    HW312821   0.270   3.256   4.054  0.6943  0.6825 -0.1572
 3272SOL    MW412822   0.255   3.319   4.112 -0.1363 -0.1444  0.0710
 3273SOL     OW12823   5.767   3.364   3.358 -0.2310  0.0954 -0.2574
 3273SOL    HW212824   5.787   3.456   3.345  0.7588  0.1923  1.5342
 3273SOL    HW312825   5.674   3.362   3.381  0.2316  0.9812  1.9992
 3273SOL    MW412826   5.758   3.376   3.359 -0.4120 -0.0537 -0.0304
 3274SOL     OW12827   2.471   3.393   0.009  0.0757  0.5739  0.2515
 3274SOL    HW212828   2.548   3.345  -0.023  1.7050  2.4809  1.0643
 3274SOL    HW312829   2.476   3.478  -0.037  0.6198  2.1322  2.9949
 3274SOL    MW412830   2.482   3.398  -0.002 -1.0004 -0.0010 -0.0831
 3275SOL     OW12831   3.502   5.872   6.344  0.4692  0.3708  0.2418
 3275SOL    HW212832   3.445   5.921   6.403 -0.2727  0.4178 -0.4872
 3275SOL    HW312833   3.442   5.819   6.292  0.9849  1.2096 -1.2728
 3275SOL    MW412834   3.487   5.872   6.345 -0.3540  0.0294 -0.2185
 3276SOL     OW12835   5.649   0.794   3.626 -0.0868 -0.0441  0.5503
 3276SOL    HW212836   5.635   0.888   3.622  0.6956  0.0602  0.1079
 3276SOL    HW312837   5.622   0.769   3.715  2.7252  1.1262  1.8693
 3276SOL    MW412838   5.644   0.803   3.637 -0.3298 -0.2905  0.5930
 3277SOL     OW12839   1.831   0.832   5.876 -0.0411  0.1125  0.2256
 3277SOL    HW212840   1.917   0.819   5.836 -0.8085  0.3985 -1.6299
 3277SOL    HW312841   1.812   0.749   5.919  1.2084  0.0920  0.7805
 3277SOL    MW412842   1.840   0.819   5.876 -0.0058  0.2469 -0.0009
 3278SOL     OW12843   6.137   4.498   4.455 -0.1052 -0.5797 -0.3655
 3278SOL    HW212844   6.225   4.488   4.493  0.5142  0.7473 -1.3765
 3278SOL    HW312845   6.152   4.536   4.369 -1.7344  0.6259 -0.1631
 3278SOL    MW412846   6.151   4.502   4.449 -0.1118  0.5010  0.2331
 3279SOL     OW12847   0.361   0.040   2.864 -0.3660 -0.1208 -0.3897
 3279SOL    HW212848   0.365   0.080   2.951 -0.9924 -0.2890 -0.2837
 3279SOL    HW312849   0.368  -0.054   2.881  0.0678 -0.1255 -0.5665
 3279SOL    MW412850   0.363   0.033   2.878 -0.1230  0.7143 -0.5038
 3280SOL     OW12851   5.394   6.214   3.619  0.5519  0.1502 -0.5328
 3280SOL    HW212852   5.455   6.222   3.545  0.3880  1.0543 -0.5725
 3280SOL    HW312853   5.448   6.181   3.691  0.9999  0.5531 -0.6806
 3280SOL    MW412854   5.409   6.211   3.619 -0.2324  0.2232  0.5768
 3281SOL     OW12855   1.272   0.139   6.341  0.3892 -0.6099 -0.3267
 3281SOL    HW212856   1.270   0.157   6.435  0.2507 -1.3152 -0.1903
 3281SOL    HW312857   1.200   0.077   6.327 -2.1471  2.3621 -1.5326
 3281SOL    MW412858   1.262   0.133   6.352 -0.0183  0.3217  0.0275
 3282SOL     OW12859   5.358   3.237   4.761  0.5214 -0.2743 -0.5139
 3282SOL    HW212860   5.338   3.232   4.855 -0.3791  0.6935 -0.6282
 3282SOL    HW312861   5.292   3.297   4.726  1.9271  0.7911 -1.4553
 3282SOL    MW412862   5.347   3.244   4.769 -0.0755  0.5247 -0.3210
 3283SOL     OW12863   3.444   2.358   5.619 -0.3909 -0.2202  0.3370
 3283SOL    HW212864   3.371   2.314   5.574 -0.4707 -0.8025  1.0072
 3283SOL    HW312865   3.476   2.422   5.556 -0.6689 -0.8298 -0.4464
 3283SOL    MW412866   3.438   2.361   5.605 -0.4129 -0.0292 -0.5759
 3284SOL     OW12867   3.706   1.127   1.485 -0.0979 -0.4721 -0.6736
 3284SOL    HW212868   3.664   1.130   1.572 -2.9942  0.8179 -1.9686
 3284SOL    HW312869   3.740   1.038   1.478 -0.2285 -0.7671  1.5681
 3284SOL    MW412870   3.705   1.116   1.496  0.1987  0.3856  0.1248
 3285SOL     OW12871   3.790   3.314   1.470  0.2933  0.4915  0.8182
 3285SOL    HW212872   3.725   3.284   1.407  0.1822  1.6034  0.3842
 3285SOL    HW312873   3.843   3.236   1.489  1.3726  0.4938 -1.8690
 3285SOL    MW412874   3.788   3.299   1.464 -0.4763  0.1355  0.1364
 3286SOL     OW12875   5.291   0.649   5.549  0.4283  0.3176  0.0358
 3286SOL    HW212876   5.271   0.739   5.522 -0.0197  0.4058  0.6463
 3286SOL    HW312877   5.217   0.598   5.518  1.2340 -0.0438 -1.3422
 3286SOL    MW412878   5.279   0.654   5.541 -0.3913  0.1236  0.1946
 3287SOL     OW12879   6.111   4.785   6.183 -0.1536  1.0493  0.6497
 3287SOL    HW212880   6.071   4.801   6.268 -0.0137 -1.0218  1.1573
 3287SOL    HW312881   6.191   4.837   6.184  0.1866  0.5360  2.0688
 3287SOL    MW412882   6.116   4.794   6.194 -0.1313 -0.3138  0.5910
 3288SOL     OW12883   1.067   1.538   6.258 -0.3287 -0.1128  0.1703
 3288SOL    HW212884   1.026   1.518   6.174 -1.7148 -0.3872  0.8843
 3288SOL    HW312885   1.161   1.545   6.238 -0.8004  1.8815 -1.7809
 3288SOL    MW412886   1.074   1.537   6.244 -0.3415  0.2835 -0.3610
 3289SOL     OW12887   0.122   4.341   0.217  0.6955 -0.7680 -0.5223
 3289SOL    HW212888   0.160   4.411   0.270 -0.2330  0.9078 -1.9847
 3289SOL    HW312889   0.070   4.289   0.279  0.6767  0.3699  0.4387
 3289SOL    MW412890   0.120   4.343   0.232  0.1234 -0.4279 -0.1030
 3290SOL     OW12891   3.353   0.225   2.149 -0.4596  0.3032 -0.9310
 3290SOL    HW212892   3.327   0.142   2.188  4.7378 -2.0159 -1.5893
 3290SOL    HW312893   3.330   0.217   2.057  1.1355 -1.0865 -1.2515
 3290SOL    MW412894   3.346   0.213   2.142  0.4808 -0.0770  0.2540
 3291SOL     OW12895   2.322   3.629   3.066 -0.2678  0.0205  0.1328
 3291SOL    HW212896   2.386   3.668   3.006  0.1883 -0.0296  0.5829
 3291SOL    HW312897   2.290   3.703   3.118 -0.6725  0.0658 -0.1757
 3291SOL    MW412898   2.326   3.644   3.065 -0.3546  0.2761  0.5202
 3292SOL     OW12899   5.804   1.472   4.879  0.4745  0.1083 -0.0505
 3292SOL    HW212900   5.805   1.376   4.880  1.5482  0.1115  0.8270
 3292SOL    HW312901   5.766   1.497   4.963 -0.2178  0.4650 -0.4587
 3292SOL    MW412902   5.799   1.462   4.890 -0.2447 -0.1776  0.1992
 3293SOL     OW12903   1.523   0.484   0.701 -0.5529 -0.2235  0.3161
 3293SOL    HW212904   1.549   0.404   0.745 -1.3799 -0.4142  0.4845
 3293SOL    HW312905   1.582   0.491   0.626 -0.6263 -1.1085  0.1688
 3293SOL    MW412906   1.534   0.475   0.697 -0.3979 -0.8726  0.2947
 3294SOL     OW12907   2.888   1.816   4.589  0.3675 -0.1812 -0.5806
 3294SOL    HW212908   2.897   1.831   4.683  2.4233 -0.7325 -0.6547
 3294SOL    HW312909   2.822   1.747   4.582  0.2516 -0.1910  0.4513
 3294SOL    MW412910   2.880   1.809   4.601  0.1553 -0.4188  0.3123
 3295SOL     OW12911   5.370   4.998   1.923 -0.5946  0.0674 -0.1132
 3295SOL    HW212912   5.279   4.981   1.949 -0.5639 -1.6967 -0.9906
 3295SOL    HW312913   5.393   4.923   1.867  1.4423  0.4153  0.1910
 3295SOL    MW412914   5.361   4.986   1.919  0.5179 -0.3290  0.1796
 3296SOL     OW12915   2.300   0.605   5.091  0.3426 -0.5099  0.3211
 3296SOL    HW212916   2.288   0.697   5.112  1.8771 -0.1684 -0.1925
 3296SOL    HW312917   2.220   0.580   5.045  1.0253  1.3503 -2.0592
 3296SOL    MW412918   2.288   0.614   5.088 -0.1640 -0.3474  0.3164
 3297SOL     OW12919   6.269   5.079   1.686 -0.0653 -0.6845 -0.0751
 3297SOL    HW212920   6.214   5.158   1.688 -0.8172 -1.1238 -1.5239
 3297SOL    HW312921   6.320   5.088   1.606  2.2036 -0.1946  1.3469
 3297SOL    MW412922   6.268   5.090   1.675 -0.4268 -0.2773 -0.1610
 3298SOL     OW12923   3.812   3.812   4.796 -0.0261  0.3473  0.0351
 3298SOL    HW212924   3.723   3.804   4.761 -0.3453  1.1883  0.6094
 3298SOL    HW312925   3.843   3.722   4.803 -0.0807  0.1202 -2.0023
 3298SOL    MW412926   3.804   3.799   4.792  0.5679 -0.5184  0.3650
 3299SOL     OW12927   5.690   1.518   6.378 -0.6353 -0.4718 -0.1892
 3299SOL    HW212928   5.752   1.583   6.344 -1.3193 -0.7022 -1.9925
 3299SOL    HW312929   5.624   1.570   6.425 -0.6948  0.0517 -0.8459
 3299SOL    MW412930   5.690   1.534   6.380 -0.5111 -0.2605  0.4966
 3300SOL     OW12931   4.835   3.556   3.981  0.1819 -0.3760 -0.4717
 3300SOL    HW212932   4.822   3.513   4.065 -0.2781  0.3306 -0.1649
 3300SOL    HW312933   4.747   3.585   3.955  0.4870  0.5151 -0.5722
 3300SOL    MW412934   4.822   3.554   3.989  0.1236 -0.1047  0.1569
 3301SOL     OW12935   1.379   6.299   5.136 -0.7089 -0.0656  0.3220
 3301SOL    HW212936   1.438   6.322   5.207  1.7379  2.4795 -2.2550
 3301SOL    HW312937   1.316   6.370   5.133 -0.8036 -0.1610 -0.0117
 3301SOL    MW412938   1.379   6.311   5.145  0.3869  0.1173 -0.0380
 3302SOL     OW12939   6.018   0.050   4.324  0.1024  0.3080 -0.0050
 3302SOL    HW212940   5.979   0.129   4.286  0.3360  0.7773  0.6917
 3302SOL    HW312941   6.068   0.011   4.253 -3.7142 -1.8291 -1.7963
 3302SOL    MW412942   6.019   0.055   4.310  0.5278  0.1163  0.1693
 3303SOL     OW12943   2.485   4.387   1.608 -0.2730 -0.0375  0.2751
 3303SOL    HW212944   2.496   4.292   1.610  0.2886 -0.0974 -2.4219
 3303SOL    HW312945   2.567   4.422   1.644  0.4520 -0.5961 -0.7903
 3303SOL    MW412946   2.497   4.379   1.613 -0.4389 -0.5130  0.0627
 3304SOL     OW12947   2.256   0.224   4.939  0.0146  0.1119 -0.1703
 3304SOL    HW212948   2.319   0.262   5.000  0.1647 -1.0544  0.4232
 3304SOL    HW312949   2.266   0.275   4.859  1.3251  0.2892  0.0912
 3304SOL    MW412950   2.266   0.236   4.937  0.3459  0.4319 -0.1230
 3305SOL     OW12951   6.374   2.619   0.091 -0.2700  0.5109 -0.2632
 3305SOL    HW212952   6.386   2.565   0.169 -1.2021 -1.1594 -1.2191
 3305SOL    HW312953   6.293   2.586   0.052 -0.2694  1.8896 -1.4828
 3305SOL    MW412954   6.365   2.607   0.096 -0.1186 -0.0118  0.2529
 3306SOL     OW12955   3.475   5.541   1.478 -0.4288  0.1615 -0.6627
 3306SOL    HW212956   3.533   5.613   1.451  1.3686 -0.8191  0.3490
 3306SOL    HW312957   3.455   5.560   1.570  0.8981 -1.0846 -0.0714
 3306SOL    MW412958   3.480   5.553   1.487 -0.1975  0.6316  0.3677
 3307SOL     OW12959   1.550   5.480   2.602  0.6381  0.1964  0.8237
 3307SOL    HW212960   1.644   5.462   2.596  0.3462 -1.1044 -0.4618
 3307SOL    HW312961   1.532   5.537   2.528  0.3915  0.3719  1.0168
 3307SOL    MW412962   1.560   5.485   2.592 -0.5926 -0.0324  0.0205
 3308SOL     OW12963   0.424   2.948   0.463 -0.0721 -0.5215 -0.2587
 3308SOL    HW212964   0.420   2.857   0.435  0.7193  0.0063 -2.2146
 3308SOL    HW312965   0.474   2.993   0.395  0.2810  1.2337  1.0709
 3308SOL    MW412966   0.430   2.942   0.451 -0.5281  0.3081  0.0081
 3309SOL     OW12967   3.329   0.393   3.801 -1.1152  0.1281  1.5979
 3309SOL    HW212968   3.378   0.473   3.780 -1.1211 -0.0055  1.0792
 3309SOL    HW312969   3.247   0.402   3.753 -1.6985  0.4487  2.6258
 3309SOL    MW412970   3.325   0.405   3.792 -0.0785  0.3340 -0.8852
 3310SOL     OW12971   4.192   6.041   5.210  0.3570 -0.1359  0.0106
 3310SOL    HW212972   4.198   6.098   5.133 -0.6211 -1.1787 -0.8757
 3310SOL    HW312973   4.128   6.083   5.267 -0.7202 -0.5521 -0.8568
 3310SOL    MW412974   4.184   6.054   5.207 -0.3634  0.9847 -0.8701
 3311SOL     OW12975   5.611   5.637   1.510  0.4828  0.2318  0.1911
 3311SOL    HW212976   5.594   5.659   1.602 -0.7606 -1.8212  0.5014
 3311SOL    HW312977   5.680   5.571   1.514  0.0523 -0.2523 -0.3033
 3311SOL    MW412978   5.618   5.631   1.523 -0.3846  0.1431 -0.1350
 3312SOL     OW12979   5.008   2.031   2.810  0.7162  0.3120  0.5050
 3312SOL    HW212980   5.008   2.023   2.714  0.8581  1.4903  0.3854
 3312SOL    HW312981   4.949   1.963   2.840  0.6527 -0.0626 -0.4256
 3312SOL    MW412982   5.000   2.021   2.801  0.3262  0.3950 -0.2457
 3313SOL     OW12983   1.405   2.553   1.195 -0.0128 -0.1678  0.3516
 3313SOL    HW212984   1.477   2.531   1.254 -0.0627 -1.1401  0.0640
 3313SOL    HW312985   1.435   2.631   1.148  0.4194  0.0480  0.9613
 3313SOL    MW412986   1.418   2.561   1.197 -0.1180 -0.5667  0.4318
 3314SOL     OW12987   3.187   0.126   2.482  0.8114 -0.3558  0.4247
 3314SOL    HW212988   3.266   0.078   2.507  1.4011  0.8181  0.8735
 3314SOL    HW312989   3.120   0.058   2.474  1.3741 -1.1507  2.0418
 3314SOL    MW412990   3.188   0.111   2.484 -0.2280  0.5847 -0.7306
 3315SOL     OW12991   5.492   3.584   6.307  0.4202  0.1089 -0.0065
 3315SOL    HW212992   5.506   3.675   6.334 -0.6564 -0.6005  3.3849
 3315SOL    HW312993   5.429   3.549   6.370 -0.0781 -2.7152 -1.8748
 3315SOL    MW412994   5.485   3.591   6.319 -0.2418  0.0294 -0.1636
 3316SOL     OW12995   0.049   4.744   1.096  0.4229 -0.1865 -0.2201
 3316SOL    HW212996   0.040   4.792   1.014  0.6815  0.6216  0.2173
 3316SOL    HW312997  -0.041   4.733   1.127  0.4356  2.0203  0.7987
 3316SOL    MW412998   0.036   4.749   1.089 -0.4420  0.0848 -0.2365
 3317SOL     OW12999   6.252   1.933   6.050 -0.3441  0.3088  0.2359
 3317SOL    HW213000   6.281   1.992   5.981 -0.0327 -0.5836 -0.4148
 3317SOL    HW313001   6.327   1.875   6.065 -1.0342 -0.6426  0.0665
 3317SOL    MW413002   6.266   1.933   6.043  0.1241  0.4476  0.7661
 3318SOL     OW13003   5.252   2.528   5.887 -0.4817 -0.2053  0.3819
 3318SOL    HW213004   5.304   2.484   5.820  2.1860  3.8492 -0.5535
 3318SOL    HW313005   5.316   2.556   5.952 -2.0618  1.5558  1.2677
 3318SOL    MW413006   5.267   2.526   5.887 -0.7991  0.1949  0.0057
 3319SOL     OW13007   0.851   0.537   1.112  0.1427  0.2573  0.0449
 3319SOL    HW213008   0.887   0.622   1.085 -2.6484  1.4711 -0.1449
 3319SOL    HW313009   0.835   0.547   1.206  0.8994 -0.5333  0.2744
 3319SOL    MW413010   0.854   0.550   1.121 -0.3746  0.1138 -0.3778
 3320SOL     OW13011   4.194   1.192   0.144  0.6977 -0.3111  0.2797
 3320SOL    HW213012   4.184   1.238   0.061  0.7365 -0.4301  0.2088
 3320SOL    HW313013   4.135   1.237   0.204  0.8381 -0.0818  0.2478
 3320SOL    MW413014   4.185   1.204   0.141 -0.5557  0.2856 -0.2097
 3321SOL     OW13015   4.163   0.592   2.018  0.1824 -0.1982 -0.2933
 3321SOL    HW213016   4.133   0.601   2.109 -1.6770 -1.1086 -0.7684
 3321SOL    HW313017   4.193   0.502   2.012 -0.9201 -0.5427 -0.8877
 3321SOL    MW413018   4.163   0.581   2.029  0.2143 -0.0297  0.1385
 3322SOL     OW13019   3.721   3.684   3.410 -0.2037 -0.2208 -0.5804
 3322SOL    HW213020   3.807   3.716   3.434 -0.8634  0.9365  0.3754
 3322SOL    HW313021   3.681   3.757   3.361 -0.7951 -0.5721 -0.6394
 3322SOL    MW413022   3.727   3.698   3.406  0.4854  0.1949  0.2215
 3323SOL     OW13023   2.065   3.712   1.425  0.0503 -0.3266 -0.0128
 3323SOL    HW213024   2.014   3.643   1.382  0.5793 -0.3662 -0.5934
 3323SOL    HW313025   2.085   3.677   1.512  2.6305 -2.1064 -1.1987
 3323SOL    MW413026   2.061   3.698   1.431  0.2534  0.3477 -0.7014
 3324SOL     OW13027   0.858   4.969   5.269 -0.1491  0.0875  0.2077
 3324SOL    HW213028   0.915   4.900   5.303 -1.0712 -0.5922  0.4131
 3324SOL    HW313029   0.918   5.028   5.224  0.7794 -0.3568  0.8016
 3324SOL    MW413030   0.874   4.968   5.268  0.1867 -0.1518  0.3520
 3325SOL     OW13031   6.235   3.893   3.691 -0.3290  0.5271  0.0272
 3325SOL    HW213032   6.266   3.803   3.681  0.7343  0.9630 -0.8118
 3325SOL    HW313033   6.140   3.888   3.680 -0.3411 -0.5534  0.5175
 3325SOL    MW413034   6.227   3.880   3.688 -0.1948 -0.5531  0.6123
 3326SOL     OW13035   4.983   4.011   6.332 -0.1296 -0.8516  0.6643
 3326SOL    HW213036   4.982   3.995   6.427 -1.0535  0.1769  0.8522
 3326SOL    HW313037   5.022   4.098   6.323 -1.0238 -0.4862  0.1927
 3326SOL    MW413038   4.988   4.020   6.344 -0.6244 -0.1832 -0.7026
 3327SOL     OW13039   4.814   4.847   0.397 -0.0313  0.0102  0.3570
 3327SOL    HW213040   4.868   4.786   0.448  0.6890  0.4300  0.1136
 3327SOL    HW313041   4.866   4.927   0.393 -0.4784  0.2723 -0.2718
 3327SOL    MW413042   4.828   4.849   0.403 -0.1607  0.7204 -0.3952
 3328SOL     OW13043   2.626   3.899   2.206 -0.6893  0.1664 -0.0798
 3328SOL    HW213044   2.665   3.883   2.292 -1.3561 -1.9130 -0.1288
 3328SOL    HW313045   2.695   3.876   2.143 -0.8202 -0.1001 -0.1253
 3328SOL    MW413046   2.641   3.894   2.209  0.2927  0.1435 -0.0124
 3329SOL     OW13047   3.368   5.555   3.098  0.2626 -0.0845  0.5881
 3329SOL    HW213048   3.428   5.625   3.073 -0.4618  0.5498  0.5918
 3329SOL    HW313049   3.314   5.540   3.021 -0.9430  0.8016  1.2173
 3329SOL    MW413050   3.369   5.562   3.085  0.5832  0.3202 -0.4889
 3330SOL     OW13051   5.290   4.213   1.657 -0.0676  0.5576 -0.6748
 3330SOL    HW213052   5.326   4.293   1.616  1.7986 -0.1875 -0.6101
 3330SOL    HW313053   5.289   4.149   1.586  1.2537 -0.1642 -0.0785
 3330SOL    MW413054   5.295   4.215   1.642 -0.0606 -0.4856  0.1777
 3331SOL     OW13055   5.338   1.556   0.553 -0.2674  0.0820  0.0291
 3331SOL    HW213056   5.393   1.529   0.480  0.3945 -0.5893  0.7537
 3331SOL    HW313057   5.351   1.488   0.619 -0.3652  0.9925  1.0129
 3331SOL    MW413058   5.347   1.543   0.552  0.0630  0.4067 -0.1696
 3332SOL     OW13059   0.937   1.650   4.984 -0.2653  0.1312  0.7617
 3332SOL    HW213060   0.926   1.694   4.899 -0.3011 -0.0211  0.6870
 3332SOL    HW313061   0.852   1.611   5.001  0.1120 -0.9339  0.2516
 3332SOL    MW413062   0.924   1.651   4.975  0.0925 -0.3220  0.3655
 3333SOL     OW13063   0.558   2.120   5.356 -0.6145 -0.2319 -0.1762
 3333SOL    HW213064   0.616   2.055   5.317 -0.8191  0.2281 -1.2715
 3333SOL    HW313065   0.546   2.090   5.446  0.2581 -1.0493 -0.3134
 3333SOL    MW413066   0.564   2.108   5.363  0.3249 -0.2330 -0.0110
 3334SOL     OW13067   2.437   4.998   0.103  0.2138 -0.0662  0.1501
 3334SOL    HW213068   2.518   4.990   0.053  1.2438 -0.7542  1.8606
 3334SOL    HW313069   2.444   5.083   0.147 -0.9316  0.7840 -1.2044
 3334SOL    MW413070   2.448   5.009   0.102 -0.1754  0.3838  0.6389
 3335SOL     OW13071   3.470   5.131   2.456  0.7108  0.3133  0.4583
 3335SOL    HW213072   3.495   5.058   2.399 -3.1425  0.8256 -2.3733
 3335SOL    HW313073   3.482   5.208   2.401 -0.3610  1.1740  1.4015
 3335SOL    MW413074   3.475   5.131   2.441 -0.4652  0.3498  0.6140
 3336SOL     OW13075   4.278   6.274   3.918  0.0829  0.2072  0.5149
 3336SOL    HW213076   4.364   6.315   3.907  0.0292  0.6003  1.4176
 3336SOL    HW313077   4.233   6.330   3.982 -0.1641 -1.0167  1.4434
 3336SOL    MW413078   4.283   6.287   3.925  0.4245  0.6740 -0.2707
 3337SOL     OW13079   1.188   2.887   4.067 -0.6457 -0.6664  0.2521
 3337SOL    HW213080   1.107   2.901   4.018 -0.4435 -1.8008 -0.4341
 3337SOL    HW313081   1.251   2.859   4.001  0.2255 -0.1092  0.8332
 3337SOL    MW413082   1.185   2.885   4.052 -0.2355 -0.4464  0.4483
 3338SOL     OW13083   3.815   5.861   5.301 -0.2847 -0.2473  0.5091
 3338SOL    HW213084   3.842   5.903   5.219 -1.0683 -1.1727 -0.2477
 3338SOL    HW313085   3.768   5.782   5.273 -3.1375  0.8818  1.7643
 3338SOL    MW413086   3.812   5.856   5.286  0.2893 -0.2995  0.1133
 3339SOL     OW13087   4.333   3.461   5.623 -0.0041  0.5659 -0.1769
 3339SOL    HW213088   4.361   3.450   5.714 -0.9440  0.5135  0.1149
 3339SOL    HW313089   4.414   3.458   5.573  0.5937  1.2332  0.7134
 3339SOL    MW413090   4.347   3.459   5.628 -0.0000  0.1483  0.9286
 3340SOL     OW13091   4.112   5.814   2.769  0.2456 -0.7159 -0.4277
 3340SOL    HW213092   4.066   5.766   2.700  1.8559 -0.5537 -1.6694
 3340SOL    HW313093   4.045   5.830   2.835 -0.9040 -2.5357 -1.0737
 3340SOL    MW413094   4.097   5.810   2.769 -0.1369 -0.1791 -0.1592
 3341SOL     OW13095   1.577   1.833   6.182 -0.0748 -0.1107 -0.3376
 3341SOL    HW213096   1.596   1.778   6.258 -0.0179  0.6274  0.1942
 3341SOL    HW313097   1.640   1.805   6.116 -0.0617 -0.6946 -0.0812
 3341SOL    MW413098   1.588   1.822   6.183 -0.7010 -0.8152  0.4754
 3342SOL     OW13099   1.811   2.684   2.461  0.3633  0.2378 -0.2101
 3342SOL    HW213100   1.777   2.612   2.515 -0.7459  1.0809  0.2457
 3342SOL    HW313101   1.865   2.736   2.520  1.7593 -0.5810 -0.7120
 3342SOL    MW413102   1.814   2.681   2.476  0.0574  0.3451  0.0981
 3343SOL     OW13103   6.189   5.455   5.389  0.1273  0.4721 -0.1524
 3343SOL    HW213104   6.167   5.395   5.460 -0.1132 -0.2907 -0.8597
 3343SOL    HW313105   6.108   5.465   5.340 -0.0806  2.0989  0.4611
 3343SOL    MW413106   6.176   5.448   5.392  0.1232 -0.4985  0.2994
 3344SOL     OW13107   1.967   6.357   0.113  0.1637 -0.1306  0.0812
 3344SOL    HW213108   1.984   6.321   0.025  1.5757  0.5982  0.0369
 3344SOL    HW313109   1.919   6.287   0.158  1.3032 -1.3905 -0.5835
 3344SOL    MW413110   1.963   6.343   0.107  0.0644  0.3280  0.0471
 3345SOL     OW13111   0.019   5.420   0.567  0.5501 -0.8976 -0.1838
 3345SOL    HW213112  -0.022   5.416   0.653  0.0944 -1.4402 -0.4233
 3345SOL    HW313113   0.022   5.513   0.546 -0.0497 -0.8193  0.0766
 3345SOL    MW413114   0.014   5.432   0.575  0.0309 -0.8191 -0.0281
 3346SOL     OW13115   3.705   2.152   3.025  0.2784  0.3375 -0.0715
 3346SOL    HW213116   3.717   2.211   3.100  1.7253  1.2796 -0.9874
 3346SOL    HW313117   3.710   2.064   3.063  2.0851  0.7778  0.8262
 3346SOL    MW413118   3.707   2.148   3.040 -0.0404 -0.2278  0.2591
 3347SOL     OW13119   2.688   5.959   4.390  0.0217  1.1569 -0.2126
 3347SOL    HW213120   2.755   5.950   4.322 -0.7096 -0.3550 -0.7728
 3347SOL    HW313121   2.622   6.016   4.351  0.6810  2.1685  0.1178
 3347SOL    MW413122   2.688   5.965   4.376  0.9180 -0.2189 -0.1339
 3348SOL     OW13123   2.008   3.282   2.036  0.3835 -0.3481  0.0172
 3348SOL    HW213124   1.991   3.223   2.109  0.6036  0.4786  0.7602
 3348SOL    HW313125   2.016   3.369   2.077 -0.7729  0.3275 -1.1228
 3348SOL    MW413126   2.007   3.286   2.051  0.2513  1.2197  0.4224
 3349SOL     OW13127   2.655   2.769   3.709  0.3164  0.5342 -0.2353
 3349SOL    HW213128   2.608   2.751   3.790 -0.8028  1.4083 -0.6771
 3349SOL    HW313129   2.724   2.831   3.734  0.8401 -0.2434  0.2874
 3349SOL    MW413130   2.658   2.775   3.723 -0.5648  0.6102  0.1722
 3350SOL     OW13131   4.881   5.599   1.322  0.3460  0.0127  0.3280
 3350SOL    HW213132   4.786   5.596   1.312  0.5702 -0.3777 -2.5954
 3350SOL    HW313133   4.897   5.674   1.380 -1.6956  0.8953 -0.1551
 3350SOL    MW413134   4.871   5.609   1.329 -0.0245  0.1948 -0.3149
 3351SOL     OW13135   5.088   6.023   4.890 -0.6329 -0.6605 -0.1088
 3351SOL    HW213136   4.996   6.049   4.884 -0.5753 -0.7913 -1.8699
 3351SOL    HW313137   5.131   6.066   4.816  0.9744  0.2605  1.2712
 3351SOL    MW413138   5.081   6.032   4.880  0.1385  0.4003 -0.7549
 3352SOL     OW13139   3.635   5.346   0.581 -0.6336 -0.1896 -1.0017
 3352SOL    HW213140   3.564   5.303   0.629  2.0211 -2.7469  1.0180
 3352SOL    HW313141   3.654   5.424   0.632 -2.3290  0.9166 -1.9579
 3352SOL    MW413142   3.628   5.350   0.594 -0.7055  0.4462  0.0707
 3353SOL     OW13143   4.597   6.063   4.093  0.0482 -0.1516  0.3328
 3353SOL    HW213144   4.621   5.971   4.097 -0.0580 -0.1559  0.8979
 3353SOL    HW313145   4.646   6.104   4.164 -0.8902  0.0008  0.9014
 3353SOL    MW413146   4.607   6.056   4.103 -0.4145 -0.2632 -0.1115
 3354SOL     OW13147   3.068   3.932   4.927  0.3289  0.2664 -0.0853
 3354SOL    HW213148   2.982   3.951   4.964  0.6137  1.6744 -0.1228
 3354SOL    HW313149   3.130   3.964   4.992  0.8825 -1.9395  0.5768
 3354SOL    MW413150   3.065   3.938   4.940 -0.0917  0.7265 -0.5270
 3355SOL     OW13151   2.212   3.052   1.564  0.4470 -0.4841  0.2454
 3355SOL    HW213152   2.174   3.139   1.574  1.2494  0.0643 -1.2799
 3355SOL    HW313153   2.174   3.001   1.636 -3.3580 -0.0596 -1.2411
 3355SOL    MW413154   2.202   3.056   1.575 -0.6460  0.4866 -0.5671
 3356SOL     OW13155   4.940   3.626   0.779 -0.0863 -0.3141  0.2782
 3356SOL    HW213156   4.919   3.714   0.809 -0.2883 -0.1836 -0.2326
 3356SOL    HW313157   5.000   3.639   0.706  0.8417 -0.6441  0.9596
 3356SOL    MW413158   4.945   3.639   0.773  0.1065 -0.2475 -0.0705
 3357SOL     OW13159   0.521   6.272   1.478  0.4320 -0.2734 -0.0528
 3357SOL    HW213160   0.448   6.316   1.521  0.5586 -1.1461  1.1067
 3357SOL    HW313161   0.599   6.316   1.511  0.4873  0.0050 -0.5320
 3357SOL    MW413162   0.522   6.284   1.488  1.0406  0.1004 -0.1163
 3358SOL     OW13163   3.940   4.250   4.014 -0.1950  0.1590 -0.4394
 3358SOL    HW213164   3.882   4.233   4.088  0.7108  0.1953  0.2877
 3358SOL    HW313165   3.886   4.300   3.953 -1.4476 -1.2149 -0.5204
 3358SOL    MW413166   3.925   4.254   4.016  0.0743 -0.2556 -0.7726
 3359SOL     OW13167   3.856   2.986   1.841 -0.8129 -0.0672 -0.5215
 3359SOL    HW213168   3.887   3.076   1.831  1.5346 -0.7798 -0.2132
 3359SOL    HW313169   3.910   2.935   1.781  0.3593 -1.7262  1.7548
 3359SOL    MW413170   3.867   2.991   1.832 -0.0582  0.7755 -0.1418
 3360SOL     OW13171   6.216   3.018   2.589 -0.2186 -0.2520 -0.5520
 3360SOL    HW213172   6.172   3.091   2.633 -2.2385 -0.8299 -1.5217
 3360SOL    HW313173   6.285   3.060   2.537  1.2794  0.5641  1.9149
 3360SOL    MW413174   6.220   3.033   2.588 -0.0520  0.0966  0.2733
 3361SOL     OW13175   5.773   5.118   3.714  0.7241 -0.2439  0.0115
 3361SOL    HW213176   5.789   5.206   3.747  0.9069  0.3459 -1.5571
 3361SOL    HW313177   5.703   5.084   3.769  1.4596  0.4235  1.4040
 3361SOL    MW413178   5.766   5.125   3.725 -0.6142 -0.6138  0.5701
 3362SOL     OW13179   2.565   3.573   1.209  0.1739 -0.3019 -0.1121
 3362SOL    HW213180   2.473   3.581   1.234  0.1884 -1.5249  0.3937
 3362SOL    HW313181   2.563   3.539   1.120  0.1396  2.6639 -1.3480
 3362SOL    MW413182   2.552   3.570   1.201 -0.5053 -0.7155  0.2640
 3363SOL     OW13183   0.249   6.043   4.671  0.8162 -0.0155 -0.0251
 3363SOL    HW213184   0.181   6.110   4.666  0.8760  0.0867  0.5174
 3363SOL    HW313185   0.300   6.055   4.590 -0.3864 -0.7288 -0.9244
 3363SOL    MW413186   0.247   6.053   4.659 -0.4418 -0.1811 -0.0575
 3364SOL     OW13187   2.950   4.558   2.393 -0.0886  0.7787 -0.6106
 3364SOL    HW213188   2.984   4.545   2.482 -0.5311  0.8149 -0.4345
 3364SOL    HW313189   2.955   4.653   2.380 -0.6877  0.8546 -0.3490
 3364SOL    MW413190   2.955   4.569   2.403 -0.3721  0.5540 -0.0608
 3365SOL     OW13191   4.012   0.498   1.825  0.5035  0.4524 -0.2064
 3365SOL    HW213192   4.065   0.526   1.900  0.3269  2.9324 -0.9194
 3365SOL    HW313193   3.963   0.423   1.858  1.7635  0.3274  1.5873
 3365SOL    MW413194   4.013   0.492   1.840  0.0863 -0.0851 -0.1203
 3366SOL     OW13195   1.444   1.435   0.634 -0.7659  0.1220  0.0414
 3366SOL    HW213196   1.499   1.493   0.686 -1.4171  2.2089 -1.4693
 3366SOL    HW313197   1.355   1.456   0.663 -1.4236  3.3344 -3.4885
 3366SOL    MW413198   1.439   1.446   0.645 -0.1028 -0.1095  0.6199
 3367SOL     OW13199   3.060   5.823   2.576  0.0843  0.4511  0.3917
 3367SOL    HW213200   3.047   5.755   2.509 -2.9315  0.1126  1.1665
 3367SOL    HW313201   3.049   5.905   2.528 -0.6186  0.2495  0.1877
 3367SOL    MW413202   3.057   5.825   2.561 -0.0974  0.4759 -0.2175
 3368SOL     OW13203   1.984   0.301   1.327 -0.5100 -0.0669  0.0494
 3368SOL    HW213204   1.955   0.389   1.354  0.3218 -0.1179  1.1939
 3368SOL    HW313205   1.914   0.243   1.356 -1.1408  0.2196 -0.8592
 3368SOL    MW413206   1.971   0.305   1.335 -0.1888  0.7604  0.1900
 3369SOL     OW13207   1.827   4.251   0.361 -0.0695 -0.0425  0.5667
 3369SOL    HW213208   1.751   4.308   0.363  0.1192  0.2488 -0.1520
 3369SOL    HW313209   1.885   4.291   0.296 -0.2815 -1.4785 -0.5655
 3369SOL    MW413210   1.825   4.264   0.352 -0.1672  1.0969  0.2736
 3370SOL     OW13211   2.089   0.506   2.515 -0.4551 -0.5294  0.4593
 3370SOL    HW213212   2.002   0.490   2.478 -0.0515  0.8163 -1.1840
 3370SOL    HW313213   2.148   0.452   2.462  0.1734  1.6685 -1.2313
 3370SOL    MW413214   2.085   0.496   2.503  0.4751 -0.0873  0.3231
 3371SOL     OW13215   0.568   1.858   2.352 -0.2262  0.4958  0.3773
 3371SOL    HW213216   0.643   1.889   2.403  0.6822 -1.0189  0.0103
 3371SOL    HW313217   0.577   1.763   2.351 -1.9771  0.3102  0.0358
 3371SOL    MW413218   0.579   1.850   2.358 -0.2026  0.6656  0.5602
 3372SOL     OW13219   0.522   0.832   5.511  0.0374  0.1760  1.1504
 3372SOL    HW213220   0.511   0.919   5.549 -0.2563  0.2629  0.8742
 3372SOL    HW313221   0.613   0.809   5.531 -0.5217 -0.4343  3.2138
 3372SOL    MW413222   0.533   0.841   5.518  0.1585 -0.4875  0.3510
 3373SOL     OW13223   3.031   1.639   3.536 -0.8631  0.4051 -0.3978
 3373SOL    HW213224   3.096   1.709   3.530 -3.2433  3.1982  2.5876
 3373SOL    HW313225   2.959   1.668   3.480 -1.9411  0.4820  0.9752
 3373SOL    MW413226   3.030   1.652   3.528 -0.4520  0.3064  0.1041
 3374SOL     OW13227   4.407   2.728   2.071  0.4682  0.0263 -0.4271
 3374SOL    HW213228   4.326   2.745   2.023  0.5195 -0.9668 -0.8954
 3374SOL    HW313229   4.402   2.784   2.149 -1.3516 -1.0968  0.3103
 3374SOL    MW413230   4.396   2.738   2.075 -0.0504 -0.3178 -0.3142
 3375SOL     OW13231   3.297   1.792   2.465  0.9389 -0.0164 -0.2093
 3375SOL    HW213232   3.214   1.822   2.501  0.8101  1.1612 -1.4323
 3375SOL    HW313233   3.279   1.703   2.433 -0.0953  0.5200 -1.1948
 3375SOL    MW413234   3.284   1.784   2.466  0.0024 -0.0091 -0.4015
 3376SOL     OW13235   0.910   5.814   5.292  0.1308  0.0889 -0.1778
 3376SOL    HW213236   0.854   5.822   5.215 -1.1647  0.8508  0.8021
 3376SOL    HW313237   0.850   5.795   5.363  1.1158  0.8579  0.9004
 3376SOL    MW413238   0.895   5.813   5.291  0.2487 -0.1483 -0.3689
 3377SOL     OW13239   6.296   0.954   4.917  0.7312  0.3232  0.7176
 3377SOL    HW213240   6.207   0.963   4.882  0.6649  1.2857  1.1178
 3377SOL    HW313241   6.353   0.974   4.842  0.6205  0.0184  0.5461
 3377SOL    MW413242   6.292   0.958   4.902  0.1987  0.2738 -0.9069
 3378SOL     OW13243   6.259   4.831   0.541  0.0649 -0.2468  0.2692
 3378SOL    HW213244   6.220   4.748   0.568 -0.2689 -0.1678  0.0276
 3378SOL    HW313245   6.308   4.810   0.461  2.0113 -0.7312  1.5121
 3378SOL    MW413246   6.260   4.817   0.534  0.3289 -0.3445 -0.0495
 3379SOL     OW13247   6.408   4.140   5.823 -0.1379  0.0092  0.3395
 3379SOL    HW213248   6.467   4.215   5.833  0.1465 -0.0695 -0.6564
 3379SOL    HW313249   6.441   4.076   5.886  0.9090 -0.0681 -0.2661
 3379SOL    MW413250   6.420   4.141   5.833 -0.4185 -0.4172 -0.0680
 3380SOL     OW13251   3.588   5.560   2.215 -0.4958  0.6911 -0.4003
 3380SOL    HW213252   3.597   5.644   2.260  0.6290  1.8391 -2.5917
 3380SOL    HW313253   3.604   5.580   2.123 -1.0144 -1.8105 -1.1231
 3380SOL    MW413254   3.591   5.573   2.209  0.0046 -0.0034 -0.3729
 3381SOL     OW13255   2.771   6.232   4.989 -0.4794 -0.1477  0.4506
 3381SOL    HW213256   2.723   6.308   4.956 -0.0925  0.1520  0.5804
 3381SOL    HW313257   2.808   6.191   4.911  3.8310  2.7780  0.6338
 3381SOL    MW413258   2.769   6.236   4.975 -0.0196  0.5585  0.2338
 3382SOL     OW13259   1.637   2.587   4.139  0.6648  0.3353  0.4868
 3382SOL    HW213260   1.627   2.675   4.101  0.2979 -0.1292 -0.5383
 3382SOL    HW313261   1.728   2.564   4.122  0.3319 -0.1381 -0.7496
 3382SOL    MW413262   1.647   2.596   4.132  0.0569 -0.0463  0.1415
 3383SOL     OW13263   2.436   2.451   2.432 -0.0286  0.1882  0.1437
 3383SOL    HW213264   2.475   2.502   2.361  1.6835 -1.4900 -0.2088
 3383SOL    HW313265   2.395   2.376   2.388  1.0226 -0.8549  0.8737
 3383SOL    MW413266   2.436   2.448   2.417 -0.3288  0.6736 -0.0727
 3384SOL     OW13267   0.539   4.685   2.418 -1.0738 -0.0072  0.0373
 3384SOL    HW213268   0.444   4.697   2.421 -1.1208 -0.2639 -0.3432
 3384SOL    HW313269   0.552   4.593   2.442 -1.1481 -0.8391 -2.7525
 3384SOL    MW413270   0.528   4.674   2.421 -0.1848 -0.1155 -0.7388
 3385SOL     OW13271   4.614   0.065   3.347  0.1962  0.2022 -0.4845
 3385SOL    HW213272   4.666   0.004   3.294 -0.7031  0.1080 -1.2714
 3385SOL    HW313273   4.524   0.037   3.334 -0.0672  0.2565  1.0079
 3385SOL    MW413274   4.609   0.053   3.339 -0.2353 -0.1954  0.4358
 3386SOL     OW13275   1.370   0.882   1.995 -0.3380 -0.2846 -0.4898
 3386SOL    HW213276   1.455   0.848   1.968 -0.3046 -0.5274 -0.0874
 3386SOL    HW313277   1.343   0.939   1.923 -0.0195 -0.5198 -0.7976
 3386SOL    MW413278   1.378   0.885   1.982 -0.1570  0.2108 -0.3020
 3387SOL     OW13279   3.863   5.951   4.049 -0.4373  0.1019  0.4347
 3387SOL    HW213280   3.928   6.010   4.088  0.7804  0.4140 -1.8705
 3387SOL    HW313281   3.914   5.898   3.987 -2.3994  0.4832 -1.6225
 3387SOL    MW413282   3.879   5.952   4.046 -0.2331  0.2118 -0.2921
 3388SOL     OW13283   2.795   4.561   1.438 -0.5106  0.4016  0.0711
 3388SOL    HW213284   2.797   4.539   1.531  1.0450  0.8074  0.1576
 3388SOL    HW313285   2.811   4.655   1.436  0.6118  0.2155 -0.6338
 3388SOL    MW413286   2.798   4.570   1.450  0.2534 -0.0179  0.0209
 3389SOL     OW13287   4.058   1.646   4.432 -0.0962  0.2264  0.2335
 3389SOL    HW213288   3.995   1.701   4.385  1.4769  1.8898 -0.0508
 3389SOL    HW313289   4.083   1.699   4.508  1.3127 -0.1730  0.0775
 3389SOL    MW413290   4.053   1.660   4.436  0.2392  0.1665  0.1370
 3390SOL     OW13291   1.483   3.645   5.337  0.1191 -0.2340 -0.0280
 3390SOL    HW213292   1.449   3.720   5.288 -1.2197  0.6524  2.0844
 3390SOL    HW313293   1.575   3.641   5.313  0.0752  1.7053 -0.7278
 3390SOL    MW413294   1.491   3.654   5.328  0.3036  0.0173  0.2814
 3391SOL     OW13295   4.817   4.451   1.551 -0.0224 -0.1877  0.0376
 3391SOL    HW213296   4.850   4.469   1.640 -0.6980  0.9574  0.0879
 3391SOL    HW313297   4.871   4.380   1.519  0.4566 -0.4004  1.2539
 3391SOL    MW413298   4.828   4.444   1.559 -0.4422  0.1567  0.2174
 3392SOL     OW13299   5.060   2.354   3.899  0.8904  0.9904 -0.2762
 3392SOL    HW213300   5.052   2.414   3.973 -2.6384 -0.4571  0.7659
 3392SOL    HW313301   5.022   2.402   3.825  0.3149  0.9421 -0.0241
 3392SOL    MW413302   5.054   2.368   3.899  0.3470  0.1301  0.0203
 3393SOL     OW13303   0.164   0.591   0.246 -0.3620  0.2687 -0.1329
 3393SOL    HW213304   0.143   0.678   0.211  0.2757  0.0409 -1.1059
 3393SOL    HW313305   0.221   0.552   0.181 -2.0214 -1.5842 -0.5616
 3393SOL    MW413306   0.169   0.598   0.233 -0.0766 -0.1179 -0.2784
 3394SOL     OW13307   4.433   4.903   2.066  0.2480  0.5417  0.6656
 3394SOL    HW213308   4.357   4.905   2.007  0.2156 -0.3182  0.6610
 3394SOL    HW313309   4.503   4.947   2.017  0.4005 -0.7106 -0.2835
 3394SOL    MW413310   4.432   4.909   2.051  0.2552  0.7043  0.3209
 3395SOL     OW13311   4.841   0.015   5.248  0.5163 -0.0871 -0.0639
 3395SOL    HW213312   4.849  -0.075   5.216 -0.4455  0.1474 -1.0068
 3395SOL    HW313313   4.928   0.053   5.233  0.9372 -0.8560  0.3666
 3395SOL    MW413314   4.854   0.008   5.242  0.0147  0.4449 -0.2969
 3396SOL     OW13315   1.315   3.856   5.857 -0.4875 -0.1845  0.6837
 3396SOL    HW213316   1.307   3.949   5.876 -0.8631 -0.3368  1.2920
 3396SOL    HW313317   1.383   3.825   5.917 -0.4744 -0.3355  0.5917
 3396SOL    MW413318   1.323   3.864   5.867  0.4896 -0.1019  0.1309
 3397SOL     OW13319   1.205   2.898   5.949  0.1657 -0.2597  0.0653
 3397SOL    HW213320   1.150   2.911   6.027 -0.5344  0.7717 -0.5615
 3397SOL    HW313321   1.237   2.809   5.957  2.3180  0.6159  2.9068
 3397SOL    MW413322   1.202   2.888   5.960 -0.0127 -0.7941 -0.6619
 3398SOL     OW13323   3.647   4.357   0.587 -0.2910 -0.3582  0.0341
 3398SOL    HW213324   3.667   4.423   0.653 -0.2660  1.1440 -1.4215
 3398SOL    HW313325   3.554   4.339   0.598  0.1203 -1.7280  1.8324
 3398SOL    MW413326   3.638   4.363   0.597 -0.2869 -0.7058 -0.1866
 3399SOL     OW13327   6.133   0.264   3.151 -0.0630  0.4073  0.1747
 3399SOL    HW213328   6.200   0.209   3.110 -0.0081 -0.9445  1.9616
 3399SOL    HW313329   6.170   0.352   3.150  1.0583 -0.0560 -0.2665
 3399SOL    MW413330   6.147   0.269   3.146 -0.7148 -0.6891  0.0118
 3400SOL     OW13331   0.998   2.614   0.264  0.3452 -0.5877 -0.2334
 3400SOL    HW213332   1.004   2.551   0.336 -0.3145 -0.3576  0.0334
 3400SOL    HW313333   0.944   2.571   0.199  1.1349 -0.8895 -0.7106
 3400SOL    MW413334   0.992   2.600   0.265 -0.5006 -0.3515  0.2417
 3401SOL     OW13335   1.305   2.171   0.202  0.1017 -0.6996 -0.0438
 3401SOL    HW213336   1.345   2.109   0.262  0.3686  0.1875  0.7225
 3401SOL    HW313337   1.342   2.150   0.116 -1.4000 -2.9604 -0.2249
 3401SOL    MW413338   1.315   2.160   0.198  0.1716 -0.3487 -0.0016
 3402SOL     OW13339   4.978   5.000   1.811 -0.7313 -0.1671 -0.4034
 3402SOL    HW213340   5.004   4.948   1.735  4.1993  1.1115  0.0620
 3402SOL    HW313341   4.969   5.089   1.778 -0.4418  0.0732  0.1405
 3402SOL    MW413342   4.980   5.005   1.796  0.5700 -0.5037 -0.0970
 3403SOL     OW13343   0.520   6.200   3.394  0.2033 -0.0255 -0.1038
 3403SOL    HW213344   0.465   6.176   3.469 -0.0902 -0.6472 -0.5127
 3403SOL    HW313345   0.473   6.166   3.318 -0.2351  1.8450 -0.7233
 3403SOL    MW413346   0.507   6.192   3.394  0.1777  0.0895 -0.4096
 3404SOL     OW13347   3.072   1.570   4.882 -0.6473 -0.3853 -0.4903
 3404SOL    HW213348   3.131   1.628   4.834 -0.4921  0.2311  0.4222
 3404SOL    HW313349   3.081   1.597   4.974 -0.5724 -1.8474 -0.0382
 3404SOL    MW413350   3.081   1.581   4.888 -0.2618  0.7370  0.1339
 3405SOL     OW13351   5.074   1.923   0.347  0.1606  0.0362  0.3097
 3405SOL    HW213352   5.006   1.857   0.335  0.4789 -0.3184  0.4369
 3405SOL    HW313353   5.042   2.000   0.301 -0.3250 -0.1324  0.3664
 3405SOL    MW413354   5.061   1.924   0.340 -0.3941 -0.0400 -0.1442
 3406SOL     OW13355   0.444   2.613   0.148  0.0543 -0.1721 -0.1617
 3406SOL    HW213356   0.367   2.561   0.172 -0.7952  1.3988  0.6512
 3406SOL    HW313357   0.409   2.686   0.097  1.1574 -0.0570 -0.7882
 3406SOL    MW413358   0.429   2.616   0.144  0.7223 -0.0042  0.0205
 3407SOL     OW13359   5.382   0.899   3.956  0.2441  0.1563  0.8810
 3407SOL    HW213360   5.364   0.956   3.881  0.9371 -1.6465 -0.7527
 3407SOL    HW313361   5.313   0.832   3.952  0.5496 -0.2108  1.5829
 3407SOL    MW413362   5.371   0.897   3.945 -0.3527  0.5940 -0.2124
 3408SOL     OW13363   1.155   0.087   4.883 -0.2193 -0.2052 -0.2282
 3408SOL    HW213364   1.188   0.077   4.793  1.6614  0.1673  0.3702
 3408SOL    HW313365   1.060   0.088   4.874 -0.0654  1.0353 -2.3566
 3408SOL    MW413366   1.147   0.086   4.870 -0.6335  0.2340 -0.1958
 3409SOL     OW13367   5.460   5.390   0.706 -0.1000  0.4670  0.3594
 3409SOL    HW213368   5.503   5.370   0.789 -0.2283 -1.3647  0.0325
 3409SOL    HW313369   5.367   5.381   0.724 -0.0736 -1.6004 -0.3274
 3409SOL    MW413370   5.454   5.386   0.719  0.2761  0.1162 -0.4133
 3410SOL     OW13371   4.734   0.249   5.109 -0.9288 -0.2672  0.0790
 3410SOL    HW213372   4.642   0.274   5.118 -0.6308  0.4525  1.3945
 3410SOL    HW313373   4.746   0.176   5.170 -0.8854 -1.1590 -0.9617
 3410SOL    MW413374   4.724   0.243   5.118  0.5663 -0.3210  0.5960
 3411SOL     OW13375   5.876   0.236   4.188  0.1663  0.5023  0.0683
 3411SOL    HW213376   5.884   0.316   4.241 -0.3113  1.0122 -0.6170
 3411SOL    HW313377   5.950   0.240   4.128  0.7756 -0.1367  0.7649
 3411SOL    MW413378   5.887   0.247   4.187  0.3135  0.1609  0.3895
 3412SOL     OW13379   1.779   1.104   2.719 -0.8444 -0.0608  0.3567
 3412SOL    HW213380   1.804   1.179   2.666 -0.8195 -0.0086  0.4428
 3412SOL    HW313381   1.772   1.138   2.808  0.7153 -0.4647  0.6704
 3412SOL    MW413382   1.782   1.118   2.724 -0.0146  0.0871 -0.1770
 3413SOL     OW13383   1.362   3.153   5.466 -0.0507 -0.1468 -0.5329
 3413SOL    HW213384   1.384   3.158   5.559 -1.8678  1.2975 -0.1345
 3413SOL    HW313385   1.295   3.085   5.460  0.6281 -0.8029 -0.9431
 3413SOL    MW413386   1.356   3.145   5.478  0.5174 -0.1285 -0.2534
 3414SOL     OW13387   3.557   3.684   4.429  0.6695 -0.4086  0.0043
 3414SOL    HW213388   3.641   3.691   4.383  1.7638  4.9458  2.1267
 3414SOL    HW313389   3.493   3.722   4.368  1.6867  4.2410  1.4015
 3414SOL    MW413390   3.560   3.690   4.415 -0.0122 -0.0078  0.5452
 3415SOL     OW13391   2.832   4.990   3.121 -0.2686  0.2663  0.4584
 3415SOL    HW213392   2.794   4.926   3.180 -0.5941  0.5517  0.5582
 3415SOL    HW313393   2.922   4.959   3.106 -1.0258 -1.3377 -1.0996
 3415SOL    MW413394   2.839   4.977   3.127 -0.2073  0.5998  0.7201
 3416SOL     OW13395   5.212   0.564   0.001 -0.3017 -0.0610 -0.9103
 3416SOL    HW213396   5.118   0.575  -0.012 -0.7685  1.5383  2.7345
 3416SOL    HW313397   5.230   0.476  -0.033 -3.1400 -0.5139 -1.5098
 3416SOL    MW413398   5.202   0.554  -0.005 -0.0064  0.2091  0.1227
 3417SOL     OW13399   0.659   2.940   4.173  0.0353 -0.6014 -0.4383
 3417SOL    HW213400   0.582   2.921   4.226  0.3440 -0.8573 -0.0791
 3417SOL    HW313401   0.623   2.972   4.090 -0.4634 -1.0408 -0.3990
 3417SOL    MW413402   0.644   2.942   4.169  0.2684 -0.1962  0.1109
 3418SOL     OW13403   5.877   2.925   4.283 -0.6060 -0.0773  0.3603
 3418SOL    HW213404   5.879   3.018   4.302  1.0980  0.1452 -0.6982
 3418SOL    HW313405   5.958   2.908   4.235 -2.9116 -1.2110 -3.5707
 3418SOL    MW413406   5.888   2.935   4.280  0.2267 -0.1921  0.2298
 3419SOL     OW13407   4.651   2.419   2.844 -0.3581 -0.2258 -0.0786
 3419SOL    HW213408   4.586   2.463   2.898  1.1005  0.4439  1.1790
 3419SOL    HW313409   4.650   2.328   2.874 -1.8265 -0.6183 -1.1914
 3419SOL    MW413410   4.642   2.412   2.855  0.1225 -0.0916  0.4452
 3420SOL     OW13411   0.647   2.525   1.819  0.1180 -0.1294 -0.2184
 3420SOL    HW213412   0.585   2.504   1.889  0.4279 -3.4699 -0.7905
 3420SOL    HW313413   0.692   2.604   1.850 -1.7687  0.2037  1.9447
 3420SOL    MW413414   0.645   2.533   1.832 -0.4894  0.3808  0.2675
 3421SOL     OW13415   4.070   6.115   0.481  0.0040  0.7772 -0.4236
 3421SOL    HW213416   4.072   6.192   0.425 -1.0249  0.8360 -0.3913
 3421SOL    HW313417   3.979   6.106   0.507 -0.2731 -1.5205 -1.8938
 3421SOL    MW413418   4.059   6.124   0.477 -0.1927  0.3357 -0.0192
 3422SOL     OW13419   1.719   4.611   5.695 -0.4808 -0.3465 -0.4962
 3422SOL    HW213420   1.718   4.673   5.622  1.3873  1.3135  0.7695
 3422SOL    HW313421   1.794   4.555   5.677  0.9385  1.0301  0.7864
 3422SOL    MW413422   1.729   4.612   5.683 -0.0986 -0.3701 -0.1071
 3423SOL     OW13423   1.727   1.964   5.323  0.5636 -0.0729 -0.1191
 3423SOL    HW213424   1.740   1.870   5.333  2.0284  0.1371  0.1362
 3423SOL    HW313425   1.746   1.982   5.231  1.0966  0.0869  0.0190
 3423SOL    MW413426   1.731   1.954   5.312  0.7731 -0.0300  0.5113
 3424SOL     OW13427   0.176   4.992   1.507 -0.4851  0.1161  0.1348
 3424SOL    HW213428   0.210   4.908   1.539  2.7460  0.9111 -0.8729
 3424SOL    HW313429   0.170   4.980   1.412  1.6090  1.4305 -0.2298
 3424SOL    MW413430   0.180   4.979   1.498 -0.1381  0.2188  0.1589
 3425SOL     OW13431   1.753   2.444   6.395  0.4873  0.6614  0.1884
 3425SOL    HW213432   1.677   2.459   6.451  0.3594  0.6341  0.0232
 3425SOL    HW313433   1.820   2.410   6.454  0.4102  0.8023  0.3572
 3425SOL    MW413434   1.752   2.441   6.410  0.0170  0.6383 -0.9840
 3426SOL     OW13435   2.541   1.798   4.127  0.2441  0.1350 -0.0404
 3426SOL    HW213436   2.531   1.834   4.215 -1.9465  2.0298 -0.9413
 3426SOL    HW313437   2.525   1.704   4.137 -0.0683  0.3317  1.5745
 3426SOL    MW413438   2.538   1.791   4.140  0.6145 -0.0215  0.5692
 3427SOL     OW13439   5.841   3.262   3.106 -0.5609 -0.0028 -0.6483
 3427SOL    HW213440   5.764   3.261   3.049 -1.4045  0.6856  0.4289
 3427SOL    HW313441   5.816   3.318   3.180  0.5407 -0.7395  0.3363
 3427SOL    MW413442   5.828   3.270   3.108  0.1990  0.7381  0.1806
 3428SOL     OW13443   0.750   2.622   0.952 -0.2509 -0.2821 -0.1244
 3428SOL    HW213444   0.811   2.693   0.929 -1.1162 -0.0739 -1.8889
 3428SOL    HW313445   0.767   2.554   0.888 -1.7234 -0.3025 -0.5228
 3428SOL    MW413446   0.761   2.623   0.941 -0.2882  0.1586 -0.3535
 3429SOL     OW13447   1.967   5.800   3.305  0.5310 -0.6147  0.4874
 3429SOL    HW213448   1.963   5.855   3.227 -0.8964 -1.1287  0.1591
 3429SOL    HW313449   2.040   5.741   3.290 -0.3349 -1.3762 -0.9423
 3429SOL    MW413450   1.976   5.799   3.293  0.7433  0.2524 -0.5934
 3430SOL     OW13451   6.045   1.695   0.378  0.8376 -0.1153  0.5128
 3430SOL    HW213452   6.063   1.787   0.360 -0.6704  0.1866  0.4106
 3430SOL    HW313453   6.086   1.649   0.305 -0.8837  0.7297 -1.0787
 3430SOL    MW413454   6.052   1.701   0.366  0.0490  0.5987  0.2240
 3431SOL     OW13455   2.338   4.035   5.314  0.0785  0.2797 -0.0062
 3431SOL    HW213456   2.432   4.040   5.300 -0.0078  1.5254 -0.2919
 3431SOL    HW313457   2.326   3.966   5.379  1.1007 -0.5307 -0.6551
 3431SOL    MW413458   2.349   4.026   5.321 -0.1063 -0.0613 -0.5385
 3432SOL     OW13459   0.904   5.726   6.014  0.7939 -0.1723  0.1903
 3432SOL    HW213460   0.854   5.732   6.095 -0.9714 -0.1553 -0.8353
 3432SOL    HW313461   0.967   5.798   6.019  0.3263  0.1803  1.2856
 3432SOL    MW413462   0.906   5.737   6.025  0.3342  0.5298  0.0075
 3433SOL     OW13463   0.083   2.948   4.542  0.0236  0.3623  0.7298
 3433SOL    HW213464   0.075   3.035   4.503  0.2686 -0.3664 -1.0378
 3433SOL    HW313465   0.130   2.963   4.624  0.8389  1.7954  0.0384
 3433SOL    MW413466   0.088   2.962   4.548 -0.3770 -0.3682  0.4847
 3434SOL     OW13467   2.066   3.976   3.334  0.4113  0.2183 -0.0505
 3434SOL    HW213468   1.996   3.993   3.271  0.6883  2.0537  0.0711
 3434SOL    HW313469   2.141   3.950   3.281 -0.3077 -1.7144 -0.1836
 3434SOL    MW413470   2.066   3.975   3.319  0.1301 -0.2549 -0.7935
 3435SOL     OW13471   5.462   1.538   2.893 -0.2289  0.0814  0.4835
 3435SOL    HW213472   5.487   1.446   2.890  0.1437  0.1218  1.6892
 3435SOL    HW313473   5.476   1.564   2.984  1.7048  1.8803 -0.2260
 3435SOL    MW413474   5.467   1.529   2.905 -0.8295  0.5266  0.1014
 3436SOL     OW13475   5.104   5.261   4.196 -0.1579 -0.3199 -0.2095
 3436SOL    HW213476   5.011   5.255   4.218  0.5484  0.1871  3.4789
 3436SOL    HW313477   5.127   5.173   4.165 -1.6162 -0.7665 -0.1063
 3436SOL    MW413478   5.095   5.248   4.195 -0.1508 -0.3879  0.1553
 3437SOL     OW13479   0.929   2.919   5.195  0.3499 -0.4465  0.1486
 3437SOL    HW213480   0.919   2.844   5.137  2.7583 -1.3534  0.7966
 3437SOL    HW313481   0.894   2.890   5.279 -1.0788  0.1027 -0.2186
 3437SOL    MW413482   0.923   2.906   5.198  0.5043 -0.5533 -0.0171
 3438SOL     OW13483   4.079   0.023   5.670  0.3311  0.3259 -0.5687
 3438SOL    HW213484   3.986   0.004   5.685  0.7397 -1.9433 -0.6256
 3438SOL    HW313485   4.116   0.032   5.758  0.3517 -0.3577 -0.5063
 3438SOL    MW413486   4.072   0.022   5.684 -0.0057 -0.5257 -0.1975
 3439SOL     OW13487   6.306   2.588   4.709  0.8389 -0.1780 -0.2462
 3439SOL    HW213488   6.241   2.562   4.643  0.2742 -0.0594  0.2620
 3439SOL    HW313489   6.263   2.656   4.760  1.1746 -0.4598  0.4283
 3439SOL    MW413490   6.292   2.593   4.707  0.3118 -0.0700 -0.2246
 3440SOL     OW13491   3.249   6.215   4.857 -0.0935 -0.7228 -0.1870
 3440SOL    HW213492   3.205   6.195   4.940 -0.5227 -1.5267 -0.5963
 3440SOL    HW313493   3.329   6.260   4.882 -1.9277  2.4245  0.5656
 3440SOL    MW413494   3.253   6.218   4.871 -0.2096  0.0025 -0.2753
 3441SOL     OW13495   5.408   5.256   3.964 -0.9338 -0.4644  0.1980
 3441SOL    HW213496   5.321   5.217   3.967 -0.6037 -1.1783  1.3964
 3441SOL    HW313497   5.466   5.182   3.945 -0.3373 -0.5802  2.1631
 3441SOL    MW413498   5.404   5.241   3.962  0.0071  0.0519 -0.6656
 3442SOL     OW13499   5.562   5.588   2.502 -0.5479  0.2589 -0.0787
 3442SOL    HW213500   5.475   5.626   2.490  0.0392  1.7870  0.2367
 3442SOL    HW313501   5.557   5.541   2.585 -0.8102  1.1444  0.4164
 3442SOL    MW413502   5.550   5.587   2.511  0.1636  0.0716  0.8117
 3443SOL     OW13503   6.182   3.108   0.385 -0.0530 -0.0891 -0.0410
 3443SOL    HW213504   6.193   3.042   0.317  1.4707 -0.1631  0.2518
 3443SOL    HW313505   6.166   3.058   0.465 -0.2586 -0.0466 -0.0532
 3443SOL    MW413506   6.181   3.093   0.387  0.4324 -0.0704 -0.0653
 3444SOL     OW13507   6.017   1.696   3.796 -0.1030  0.4971 -0.2521
 3444SOL    HW213508   5.987   1.606   3.806  0.4453  0.2015 -1.1535
 3444SOL    HW313509   6.012   1.713   3.702  2.3873  0.4428 -0.4589
 3444SOL    MW413510   6.013   1.686   3.785  0.5541 -0.1071 -0.4378
 3445SOL     OW13511   1.888   5.944   3.526 -0.7263 -0.5139  0.1082
 3445SOL    HW213512   1.917   5.923   3.437  1.8612  1.9556  0.2358
 3445SOL    HW313513   1.952   5.901   3.583 -0.0009  1.1226  0.5866
 3445SOL    MW413514   1.901   5.935   3.522  0.2504 -0.0452  0.7948
 3446SOL     OW13515   1.253   3.829   3.818  0.7971 -0.3104  0.1056
 3446SOL    HW213516   1.205   3.829   3.735  0.5705 -2.0379  0.1912
 3446SOL    HW313517   1.345   3.831   3.793  0.7621 -1.9422 -0.2684
 3446SOL    MW413518   1.259   3.829   3.804  0.3857 -0.0995 -0.2581
 3447SOL     OW13519   5.807   5.300   4.173  0.3087  0.5233  0.2139
 3447SOL    HW213520   5.866   5.233   4.208 -1.6483 -1.4613  0.0122
 3447SOL    HW313521   5.823   5.299   4.078 -0.6768 -0.7696  0.0266
 3447SOL    MW413522   5.817   5.291   4.165  0.3606 -0.7506  0.5842
 3448SOL     OW13523   3.543   1.754   4.283  0.2002 -0.0869  0.0377
 3448SOL    HW213524   3.550   1.834   4.335 -2.8294  0.5538 -0.3797
 3448SOL    HW313525   3.590   1.774   4.202  4.4834 -0.9041  1.9929
 3448SOL    MW413526   3.550   1.767   4.279 -0.4563 -0.3496 -0.6531
 3449SOL     OW13527   3.987   5.979   4.771  0.5271 -0.2528 -0.0889
 3449SOL    HW213528   4.029   5.903   4.731  0.7065  0.5955 -1.6065
 3449SOL    HW313529   4.038   6.054   4.740 -0.4089  0.5804  0.3090
 3449SOL    MW413530   3.999   5.979   4.761 -0.3944  0.1963 -0.2982
 3450SOL     OW13531   6.229   6.304   3.229 -0.6436  0.0903 -0.3425
 3450SOL    HW213532   6.162   6.358   3.271  1.8381  2.1113  1.3148
 3450SOL    HW313533   6.222   6.219   3.272 -1.0672  0.7844  0.9990
 3450SOL    MW413534   6.219   6.300   3.240  0.1795 -0.1918  0.2153
 3451SOL     OW13535   4.888   3.870   1.892  0.2764 -0.0669  0.6115
 3451SOL    HW213536   4.974   3.876   1.934  0.2944 -1.1137  0.7534
 3451SOL    HW313537   4.826   3.885   1.964  0.3330  0.9622  0.4570
 3451SOL    MW413538   4.891   3.873   1.907  0.4402  0.3197 -0.1231
 3452SOL     OW13539   1.332   2.264   1.162 -0.0452  0.6471  0.6938
 3452SOL    HW213540   1.329   2.359   1.171 -0.5228  0.8851 -1.3552
 3452SOL    HW313541   1.240   2.236   1.169 -0.0594  0.5087  0.0620
 3452SOL    MW413542   1.319   2.273   1.164  0.3296  0.3259 -0.1108
 3453SOL     OW13543   4.143   0.058   2.473 -0.1906  0.0162  0.2290
 3453SOL    HW213544   4.089   0.066   2.394 -0.2929  1.5398  0.4176
 3453SOL    HW313545   4.225   0.101   2.450  0.2698 -0.6785  0.5426
 3453SOL    MW413546   4.147   0.065   2.459 -0.1843 -0.6329  0.5595
 3454SOL     OW13547   1.432   3.203   3.750  0.0064 -0.2806 -0.2772
 3454SOL    HW213548   1.482   3.188   3.831  0.8661 -1.4900 -0.9961
 3454SOL    HW313549   1.347   3.162   3.767  0.0088 -0.0925  0.1977
 3454SOL    MW413550   1.427   3.196   3.763  0.3119 -0.3234  0.0747
 3455SOL     OW13551   5.909   4.161   3.227 -0.0531  0.1105  0.0164
 3455SOL    HW213552   5.855   4.158   3.306  1.8323  1.4950  1.4537
 3455SOL    HW313553   5.849   4.190   3.158 -1.7043 -0.9553  0.9199
 3455SOL    MW413554   5.894   4.164   3.228  0.3288 -0.7195 -0.6721
 3456SOL     OW13555   3.194   4.964   5.401  0.1627  0.1305  0.1244
 3456SOL    HW213556   3.278   5.008   5.394  0.8796 -1.3421 -1.2294
 3456SOL    HW313557   3.180   4.953   5.495  0.5485  2.0578  0.4415
 3456SOL    MW413558   3.203   4.968   5.412  0.4428 -0.0566 -0.4010
 3457SOL     OW13559   4.569   1.424   0.469  0.0443  0.4831  0.8340
 3457SOL    HW213560   4.528   1.338   0.454 -0.4880  1.0612 -1.3658
 3457SOL    HW313561   4.507   1.470   0.525 -0.3855 -0.0492  0.8081
 3457SOL    MW413562   4.556   1.419   0.474 -0.0838 -0.2474 -0.6928
 3458SOL     OW13563   5.197   4.281   4.362  0.2910 -0.2666 -0.4835
 3458SOL    HW213564   5.291   4.287   4.378  0.1261  1.0975  0.1331
 3458SOL    HW313565   5.181   4.345   4.293 -0.1560 -0.7104 -0.7987
 3458SOL    MW413566   5.207   4.290   4.355  0.1425  0.0492  0.1164
 3459SOL     OW13567   5.439   4.686   5.123  0.4579  0.0815 -0.8247
 3459SOL    HW213568   5.522   4.717   5.089 -0.3233  1.4173 -1.6130
 3459SOL    HW313569   5.434   4.594   5.096  2.2140 -0.4013  0.3602
 3459SOL    MW413570   5.449   4.678   5.115  0.2999 -0.3128 -0.6649
 3460SOL     OW13571   3.451   2.497   0.171  0.2316 -0.0089 -0.1509
 3460SOL    HW213572   3.400   2.442   0.111  0.3795  0.0343 -0.3156
 3460SOL    HW313573   3.497   2.559   0.114  0.1170  0.2426  0.0314
 3460SOL    MW413574   3.450   2.498   0.156  0.0387  0.5219 -0.2967
 3461SOL     OW13575   1.425   1.313   3.626  0.8540  0.0822  0.0504
 3461SOL    HW213576   1.351   1.325   3.566  0.8987 -1.6823 -0.4083
 3461SOL    HW313577   1.499   1.290   3.569  1.4244  0.4663  0.6190
 3461SOL    MW413578   1.425   1.312   3.610 -0.4977 -0.1411  1.1019
 3462SOL     OW13579   0.047   3.866   1.934 -0.4061 -0.2038 -0.8536
 3462SOL    HW213580   0.128   3.897   1.973 -1.0796  0.9747 -0.3215
 3462SOL    HW313581   0.054   3.770   1.935 -0.1720 -0.2214  1.7410
 3462SOL    MW413582   0.058   3.857   1.939 -0.0935  0.2645 -0.3196
 3463SOL     OW13583   3.564   3.815   4.682 -0.2370  0.2577  0.6054
 3463SOL    HW213584   3.492   3.797   4.743  0.4938 -0.2342  1.3630
 3463SOL    HW313585   3.546   3.759   4.607  1.2126 -2.7683  2.3047
 3463SOL    MW413586   3.552   3.805   4.680  0.4149 -0.1010 -0.4757
 3464SOL     OW13587   1.847   5.280   0.330 -0.3006  0.1002  0.3725
 3464SOL    HW213588   1.809   5.367   0.317 -0.1195  0.5380  2.4091
 3464SOL    HW313589   1.804   5.247   0.409  0.8656 -0.9316  0.6078
 3464SOL    MW413590   1.837   5.287   0.339  0.0695 -0.5359 -0.2638
 3465SOL     OW13591   5.575   3.374   4.640 -0.1342 -0.8037 -0.0784
 3465SOL    HW213592   5.505   3.337   4.693 -0.3320  1.4298  1.3761
 3465SOL    HW313593   5.632   3.418   4.703  0.6043  0.4658 -1.5458
 3465SOL    MW413594   5.574   3.375   4.655 -0.0713  0.2544  0.2399
 3466SOL     OW13595   5.066   2.044   2.282  0.3289 -0.4741  0.2821
 3466SOL    HW213596   5.039   1.980   2.215 -0.7036 -0.0219  0.2496
 3466SOL    HW313597   5.115   2.110   2.233 -2.2993  1.0538 -0.5047
 3466SOL    MW413598   5.069   2.044   2.267 -0.0815 -0.0073  0.3533
 3467SOL     OW13599   2.840   2.623   0.078  0.1024 -0.3430  0.3336
 3467SOL    HW213600   2.854   2.714   0.053 -1.3130 -0.4136 -0.8280
 3467SOL    HW313601   2.925   2.581   0.061  0.1809  0.3351 -1.1793
 3467SOL    MW413602   2.853   2.629   0.072  0.2667  0.3523  0.3539
 3468SOL     OW13603   3.225   1.260   0.514 -0.2946  0.1590 -0.2436
 3468SOL    HW213604   3.293   1.195   0.526  0.5343  1.2649  1.4915
 3468SOL    HW313605   3.143   1.212   0.528  0.2831 -0.5434  0.8501
 3468SOL    MW413606   3.223   1.245   0.517  0.2297 -0.2645  0.2334
 3469SOL     OW13607   4.911   4.915   4.333  0.4310 -0.4366  0.3148
 3469SOL    HW213608   4.825   4.918   4.292  0.6884 -1.0433 -0.2982
 3469SOL    HW313609   4.921   4.824   4.361  1.2395 -0.5918 -0.4462
 3469SOL    MW413610   4.901   4.904   4.331 -0.4434  0.1580  0.0153
 3470SOL     OW13611   2.069   1.582   0.937  0.7338  0.2579 -0.3909
 3470SOL    HW213612   2.028   1.659   0.899  1.7966  0.8646 -0.3580
 3470SOL    HW313613   2.079   1.604   1.030  0.1075 -0.3427 -0.1733
 3470SOL    MW413614   2.065   1.595   0.945  0.1130  0.3285 -0.6897
 3471SOL     OW13615   4.794   5.359   6.126 -0.5243  0.4804  0.4893
 3471SOL    HW213616   4.727   5.316   6.179 -0.9320 -1.1410 -1.2230
 3471SOL    HW313617   4.754   5.441   6.098 -1.3201  0.1090  0.5163
 3471SOL    MW413618   4.780   5.364   6.129 -0.1662  0.7577 -0.1790
 3472SOL     OW13619   3.829   4.071   1.255  0.3337  0.7667 -0.1135
 3472SOL    HW213620   3.887   4.070   1.332 -2.9325  0.4742  2.5601
 3472SOL    HW313621   3.850   3.989   1.209  0.7684 -0.2742  1.8227
 3472SOL    MW413622   3.840   4.060   1.259  0.1203  0.4219 -0.6532
 3473SOL     OW13623   3.762   2.651   4.522  0.1434  0.1359  0.2763
 3473SOL    HW213624   3.687   2.711   4.517  0.8713  1.3776  2.5454
 3473SOL    HW313625   3.737   2.587   4.589  0.3459 -0.6220 -0.3639
 3473SOL    MW413626   3.749   2.651   4.530 -0.2628  0.2056 -0.9717
 3474SOL     OW13627   3.775   4.969   1.444 -0.1500 -0.4336 -0.3067
 3474SOL    HW213628   3.827   4.897   1.481  0.7140  1.1653  1.7856
 3474SOL    HW313629   3.696   4.927   1.411  0.3461 -2.3521  0.7882
 3474SOL    MW413630   3.772   4.954   1.445  0.4413 -0.1574 -0.2903
 3475SOL     OW13631   1.137   0.252   5.400 -0.4952  0.1206  0.3169
 3475SOL    HW213632   1.153   0.273   5.308  2.6982 -0.0664  0.7022
 3475SOL    HW313633   1.116   0.159   5.401  0.2377 -0.0502 -0.1697
 3475SOL    MW413634   1.136   0.243   5.388 -0.0303 -0.2500  0.0338
 3476SOL     OW13635   6.423   3.933   0.631 -0.0787 -0.5231 -0.0491
 3476SOL    HW213636   6.484   3.892   0.692 -0.8797 -0.1605  1.0244
 3476SOL    HW313637   6.341   3.885   0.642 -0.6130  0.4070  0.1456
 3476SOL    MW413638   6.420   3.922   0.640 -0.5012 -0.3374 -0.3124
 3477SOL     OW13639   0.402   1.609   4.914 -0.1281 -0.6126  0.3306
 3477SOL    HW213640   0.311   1.588   4.892 -0.6824  0.5106  1.5085
 3477SOL    HW313641   0.402   1.625   5.008  1.1887 -0.0612  0.2628
 3477SOL    MW413642   0.390   1.608   4.923 -0.1638 -0.3724  0.2484
 3478SOL     OW13643   5.291   3.361   2.226  0.8693 -0.4591  0.2889
 3478SOL    HW213644   5.300   3.404   2.140  0.0727 -0.8045  0.0194
 3478SOL    HW313645   5.380   3.340   2.251  1.0150 -1.8754 -1.2541
 3478SOL    MW413646   5.304   3.364   2.218  0.0123  0.7281 -0.0238
 3479SOL     OW13647   0.219   1.794   6.235 -0.1396 -0.1181 -0.1144
 3479SOL    HW213648   0.243   1.868   6.290  1.8969  0.7003 -1.9265
 3479SOL    HW313649   0.289   1.789   6.170 -1.7738 -1.7755 -1.8878
 3479SOL    MW413650   0.232   1.803   6.234 -0.2175  0.4805 -0.5050
 3480SOL     OW13651   2.624   2.085   1.485 -0.1433  0.1102 -0.4692
 3480SOL    HW213652   2.592   2.080   1.575 -0.0989  2.6875 -0.2498
 3480SOL    HW313653   2.620   2.178   1.463  0.1663 -0.4127 -3.0328
 3480SOL    MW413654   2.620   2.096   1.494 -0.7013  0.4867  0.2278
 3481SOL     OW13655   2.737   1.757   6.147 -0.1659 -0.3366  0.4003
 3481SOL    HW213656   2.651   1.726   6.119  0.0541 -0.8204  0.2498
 3481SOL    HW313657   2.761   1.823   6.082 -0.1399 -0.6683  0.0722
 3481SOL    MW413658   2.729   1.762   6.135 -0.2062 -0.6902  0.4968
 3482SOL     OW13659   4.340   0.915   6.232  0.2896 -0.1345 -0.0816
 3482SOL    HW213660   4.391   0.953   6.302  0.0010 -1.9887  1.2204
 3482SOL    HW313661   4.265   0.974   6.222 -0.8307 -0.8929  2.7485
 3482SOL    MW413662   4.337   0.928   6.240  0.3319  0.4788 -0.2608
 3483SOL     OW13663   2.445   0.843   0.982  0.1032  0.1184 -0.3513
 3483SOL    HW213664   2.374   0.784   0.958 -0.6444  1.1301 -0.7160
 3483SOL    HW313665   2.521   0.786   0.994 -1.0005 -1.1206  1.1538
 3483SOL    MW413666   2.446   0.828   0.980 -0.3849  0.3154 -0.4929
 3484SOL     OW13667   0.995   2.635   1.803 -0.3845  0.1157 -0.0538
 3484SOL    HW213668   0.986   2.556   1.856 -3.9201 -1.6790 -2.8666
 3484SOL    HW313669   1.028   2.603   1.719 -1.3054  1.7048 -1.0556
 3484SOL    MW413670   0.998   2.620   1.799  0.2848  0.5676 -0.0854
 3485SOL     OW13671   5.177   5.349   0.691 -0.4679 -0.0696  0.1297
 3485SOL    HW213672   5.118   5.363   0.617  0.3029  0.0610 -0.4719
 3485SOL    HW313673   5.119   5.328   0.764 -1.2727  0.3166 -0.3846
 3485SOL    MW413674   5.162   5.348   0.691 -0.8425 -0.4885 -0.1753
 3486SOL     OW13675   3.232   4.876   1.876  0.5324  0.1447  0.0971
 3486SOL    HW213676   3.224   4.936   1.801  0.1911 -0.0998 -0.0620
 3486SOL    HW313677   3.322   4.888   1.906  0.9424 -0.3702 -0.8785
 3486SOL    MW413678   3.243   4.886   1.870 -0.4751 -0.8015 -0.1415
 3487SOL     OW13679   5.520   2.045   0.463  0.5062  0.2384 -0.2169
 3487SOL    HW213680   5.497   2.108   0.531  0.1246  1.0986 -1.1204
 3487SOL    HW313681   5.460   1.972   0.476  1.3068 -0.2178  1.1792
 3487SOL    MW413682   5.509   2.043   0.474 -0.6813  0.1050 -0.2363
 3488SOL     OW13683   3.055   4.864   4.681  0.0676 -0.0656  0.1554
 3488SOL    HW213684   2.963   4.840   4.687  0.0339 -0.5879 -1.7903
 3488SOL    HW313685   3.099   4.783   4.654  0.5951  0.9064 -2.1157
 3488SOL    MW413686   3.049   4.850   4.678  0.0197 -0.2439  0.3858
 3489SOL     OW13687   4.619   5.331   2.054 -0.2553 -0.9772 -0.7435
 3489SOL    HW213688   4.653   5.396   1.992 -2.5525  1.9476  0.7984
 3489SOL    HW313689   4.524   5.331   2.039 -0.6634 -1.5534  1.4722
 3489SOL    MW413690   4.611   5.340   2.044  0.0790  0.9539 -0.1334
 3490SOL     OW13691   0.943   1.486   3.213 -0.1201 -0.2420 -0.2228
 3490SOL    HW213692   0.857   1.451   3.190  0.2058  0.1149 -2.2264
 3490SOL    HW313693   0.971   1.435   3.289 -1.7386 -0.9150 -0.0474
 3490SOL    MW413694   0.936   1.475   3.220  0.0364 -0.4456 -0.1825
 3491SOL     OW13695   0.324   3.389   6.011 -0.7887 -0.6132 -0.1787
 3491SOL    HW213696   0.367   3.471   5.987  0.0002 -1.2294 -0.9270
 3491SOL    HW313697   0.231   3.411   6.015 -0.4412  0.7980  1.7180
 3491SOL    MW413698   0.317   3.403   6.008  0.0827 -0.3278 -0.3989
 3492SOL     OW13699   5.433   5.855   3.886 -0.2094 -0.1085  0.1560
 3492SOL    HW213700   5.463   5.787   3.826  1.3764 -0.3465  1.1611
 3492SOL    HW313701   5.484   5.933   3.861  1.1194 -0.4298  1.6691
 3492SOL    MW413702   5.444   5.857   3.875 -0.2658 -0.3990  0.6617
 3493SOL     OW13703   3.812   2.988   5.735  0.2132  0.2137 -0.2631
 3493SOL    HW213704   3.774   3.036   5.808  1.2599  0.7040 -0.0215
 3493SOL    HW313705   3.841   3.056   5.674  1.4713 -0.1085 -0.0435
 3493SOL    MW413706   3.811   3.004   5.737 -0.0021 -0.2043 -0.2841
 3494SOL     OW13707   4.918   1.385   2.779 -0.7419  0.0325  0.3618
 3494SOL    HW213708   4.913   1.379   2.874  0.4562 -0.4435  0.4006
 3494SOL    HW313709   5.008   1.361   2.757 -1.6231 -2.2730 -1.0718
 3494SOL    MW413710   4.929   1.381   2.788  0.6727  0.2093  0.5297
 3495SOL     OW13711   2.116   3.915   4.464 -0.2088 -0.1031  0.1253
 3495SOL    HW213712   2.150   3.979   4.526  1.6542 -0.4473 -0.4882
 3495SOL    HW313713   2.157   3.939   4.380  0.7943 -2.2629 -0.0554
 3495SOL    MW413714   2.126   3.927   4.461  0.2256 -0.5754 -0.4521
 3496SOL     OW13715   3.517   4.883   1.387  0.6791 -0.0576 -0.1139
 3496SOL    HW213716   3.473   4.863   1.470  0.5547  0.0998 -0.1416
 3496SOL    HW313717   3.445   4.903   1.327  0.7487 -0.5025 -0.3487
 3496SOL    MW413718   3.501   4.883   1.390  0.4710 -0.2740  0.2374
 3497SOL     OW13719   1.833   3.734   2.034 -0.0308 -0.8294 -0.1963
 3497SOL    HW213720   1.851   3.795   2.105 -1.5525 -1.3528  0.6823
 3497SOL    HW313721   1.815   3.790   1.958 -0.9692 -0.1594  0.4897
 3497SOL    MW413722   1.833   3.749   2.033 -0.0256  0.5422 -0.1175
 3498SOL     OW13723   3.543   5.923   5.027 -0.1350 -0.0236 -0.0017
 3498SOL    HW213724   3.598   5.926   4.949 -0.0492  0.6785  0.0706
 3498SOL    HW313725   3.553   6.011   5.066 -0.2898 -0.3156  0.7136
 3498SOL    MW413726   3.551   5.935   5.022 -0.5494  0.3038  0.4791
 3499SOL     OW13727   2.784   2.125   3.461  0.2666 -0.3628 -0.2624
 3499SOL    HW213728   2.726   2.162   3.527  0.6370 -0.3167  0.0430
 3499SOL    HW313729   2.731   2.058   3.416  0.6240 -1.8980  1.4831
 3499SOL    MW413730   2.770   2.121   3.463  0.0536 -0.5475 -0.5850
 3500SOL     OW13731   1.604   4.026   6.117  0.3323 -0.3676 -0.6509
 3500SOL    HW213732   1.581   4.050   6.028  0.5116 -0.1776 -0.6467
 3500SOL    HW313733   1.520   4.007   6.159  0.3783 -2.5318 -1.4322
 3500SOL    MW413734   1.590   4.027   6.111  0.6770  0.4459  0.4354
 3501SOL     OW13735   2.529   1.861   2.974  0.2335 -0.1310  1.2142
 3501SOL    HW213736   2.483   1.939   3.005  0.5365 -0.3986  2.3848
 3501SOL    HW313737   2.504   1.792   3.036  1.3969 -0.5242  1.2653
 3501SOL    MW413738   2.519   1.862   2.986 -0.5597 -0.0722 -0.4748
 3502SOL     OW13739   0.654   3.197   0.099  0.2690  0.3104 -0.6826
 3502SOL    HW213740   0.620   3.112   0.074  0.2566  0.7165 -2.1560
 3502SOL    HW313741   0.592   3.230   0.164 -0.7316 -0.0313 -1.4519
 3502SOL    MW413742   0.641   3.190   0.104 -0.0192 -0.0522 -0.0094
 3503SOL     OW13743   5.903   5.915   3.326 -0.5810 -0.3227  0.0451
 3503SOL    HW213744   5.956   5.861   3.385  0.9990 -1.5387 -2.3324
 3503SOL    HW313745   5.831   5.946   3.381  1.2501 -0.5969  2.8181
 3503SOL    MW413746   5.901   5.912   3.341 -0.5953 -0.6746  0.4463
 3504SOL     OW13747   4.374   1.666   4.344 -0.4313  0.6031 -0.6485
 3504SOL    HW213748   4.336   1.593   4.296  0.7704 -0.1458 -0.4946
 3504SOL    HW313749   4.386   1.633   4.433 -1.5039  1.5804 -0.1121
 3504SOL    MW413750   4.371   1.652   4.350 -0.0614  0.1595  0.2718
 3505SOL     OW13751   6.127   1.204   1.069 -0.2536 -0.0553  0.0257
 3505SOL    HW213752   6.175   1.171   0.993  0.5454 -0.2138  0.5867
 3505SOL    HW313753   6.161   1.293   1.082 -2.8479  1.3609 -1.8714
 3505SOL    MW413754   6.138   1.212   1.060  0.2403 -0.1767  0.3852
 3506SOL     OW13755   3.423   4.072   5.329 -0.3269 -0.1508 -0.0305
 3506SOL    HW213756   3.478   4.099   5.256 -1.3677  0.1068 -0.7468
 3506SOL    HW313757   3.483   4.067   5.404  0.2780  2.4337 -0.2352
 3506SOL    MW413758   3.438   4.075   5.329 -0.5316  0.3180  0.3198
 3507SOL     OW13759   5.406   4.836   0.986  0.0112  0.0825  0.0624
 3507SOL    HW213760   5.347   4.910   1.001  0.8812  1.1028 -1.3059
 3507SOL    HW313761   5.472   4.844   1.055 -0.4295  0.0085  0.4967
 3507SOL    MW413762   5.407   4.847   0.997 -0.2289 -0.0031  0.2512
 3508SOL     OW13763   5.994   4.153   2.199 -0.3466 -0.0511  0.4318
 3508SOL    HW213764   5.960   4.064   2.202 -2.0207  0.5736  1.1787
 3508SOL    HW313765   6.006   4.170   2.105 -1.2865 -0.6160  0.1897
 3508SOL    MW413766   5.991   4.144   2.187 -0.0952 -0.8759  0.4400
 3509SOL     OW13767   6.125   1.252   4.789 -0.0359 -0.8864  0.6645
 3509SOL    HW213768   6.208   1.285   4.754 -0.1104 -1.2419  0.1359
 3509SOL    HW313769   6.064   1.256   4.715 -0.7807  0.3348  1.3026
 3509SOL    MW413770   6.128   1.257   4.775  0.0516  0.1957  0.1128
 3510SOL     OW13771   3.586   3.658   3.634  0.1840  0.1285 -0.2180
 3510SOL    HW213772   3.637   3.682   3.556  1.3467  0.4719  0.6192
 3510SOL    HW313773   3.589   3.735   3.689 -3.2396  1.0100 -1.0731
 3510SOL    MW413774   3.593   3.671   3.631 -0.3591 -0.1093 -0.8075
 3511SOL     OW13775   5.181   5.623   4.656  0.3466  0.3301 -0.0690
 3511SOL    HW213776   5.196   5.593   4.566 -0.4993  0.6855 -0.3366
 3511SOL    HW313777   5.265   5.608   4.701  0.0876 -2.1401 -0.2715
 3511SOL    MW413778   5.194   5.617   4.650 -0.6862 -0.2347 -0.0466
 3512SOL     OW13779   0.493   1.096   5.581 -0.4025  0.0568 -0.0969
 3512SOL    HW213780   0.410   1.100   5.534 -0.6101 -0.6569  0.1977
 3512SOL    HW313781   0.534   1.181   5.564  0.3551 -0.7859 -3.0350
 3512SOL    MW413782   0.487   1.108   5.573 -0.1089  0.4950 -0.0559
 3513SOL     OW13783   3.870   5.230   3.372  0.5026  0.2216  0.0716
 3513SOL    HW213784   3.789   5.201   3.329  0.8841 -0.4837 -0.1858
 3513SOL    HW313785   3.922   5.266   3.300  0.3560  0.8325  0.2653
 3513SOL    MW413786   3.866   5.231   3.357  0.2330 -0.3503  0.1923
 3514SOL     OW13787   6.221   2.222   1.465 -0.6084  0.4473 -0.2409
 3514SOL    HW213788   6.173   2.144   1.496 -1.7438  1.6519  1.1930
 3514SOL    HW313789   6.213   2.219   1.370 -0.4625 -1.2774 -0.2306
 3514SOL    MW413790   6.213   2.211   1.457  0.2977 -0.0494 -0.1053
 3515SOL     OW13791   3.898   3.809   0.828  0.4365 -0.3196 -0.4875
 3515SOL    HW213792   3.873   3.761   0.907 -0.5522  0.6969 -0.1628
 3515SOL    HW313793   3.816   3.820   0.780  0.7602  0.4721 -0.8679
 3515SOL    MW413794   3.884   3.804   0.832 -0.1917  0.1721  0.4656
 3516SOL     OW13795   3.721   3.225   2.926 -0.2117 -0.1407  0.9575
 3516SOL    HW213796   3.781   3.216   2.999 -1.0296 -0.0468  1.6658
 3516SOL    HW313797   3.775   3.253   2.852  0.3558  1.5829  1.9875
 3516SOL    MW413798   3.736   3.227   2.926  0.6888 -0.6753  0.2971
 3517SOL     OW13799   5.631   5.487   6.332  0.0745 -0.4882  0.0364
 3517SOL    HW213800   5.690   5.526   6.397  2.2002 -1.8781 -0.9250
 3517SOL    HW313801   5.683   5.483   6.252 -1.2206 -2.1218 -0.7867
 3517SOL    MW413802   5.646   5.492   6.330  1.2935 -0.9526  0.5861
 3518SOL     OW13803   1.774   5.651   1.252  0.0129 -0.7966  0.0273
 3518SOL    HW213804   1.740   5.704   1.324 -2.2450 -2.5771  0.4052
 3518SOL    HW313805   1.777   5.711   1.177  0.4102  0.5729  1.1050
 3518SOL    MW413806   1.770   5.666   1.251  0.0204 -0.2624 -0.4548
 3519SOL     OW13807   1.907   1.434   0.787  0.3393 -0.5285 -0.2940
 3519SOL    HW213808   1.970   1.478   0.845 -0.4269 -0.1860  0.3088
 3519SOL    HW313809   1.915   1.479   0.703  1.1424 -0.7236 -0.3262
 3519SOL    MW413810   1.916   1.446   0.784  0.2547 -0.0096 -0.0670
 3520SOL     OW13811   4.703   1.817   2.587 -0.2438  0.3765 -0.2780
 3520SOL    HW213812   4.764   1.885   2.557  0.1007  0.6760  1.0530
 3520SOL    HW313813   4.759   1.746   2.619 -0.5912 -0.8943 -2.3238
 3520SOL    MW413814   4.718   1.817   2.587 -0.6528 -0.6051  0.8260
 3521SOL     OW13815   5.820   2.031   5.560  0.1848 -0.2657 -0.3352
 3521SOL    HW213816   5.750   2.089   5.589  1.4123  0.4629  1.3878
 3521SOL    HW313817   5.775   1.952   5.531 -1.3474 -0.0754  1.3156
 3521SOL    MW413818   5.805   2.028   5.560  1.2988  0.1213 -0.0586
 3522SOL     OW13819   3.895   6.353   0.078  0.4490 -0.1109 -0.1975
 3522SOL    HW213820   3.887   6.368  -0.017 -0.7839  0.0180 -0.0941
 3522SOL    HW313821   3.823   6.404   0.116  0.6797 -0.4919  0.7726
 3522SOL    MW413822   3.884   6.362   0.070  0.1562 -0.0726  0.2881
 3523SOL     OW13823   0.509   4.200   3.975  0.0268  0.4214 -0.3247
 3523SOL    HW213824   0.562   4.181   3.897  1.3527 -2.0346  1.0275
 3523SOL    HW313825   0.570   4.240   4.036 -0.2452 -0.2966  0.4374
 3523SOL    MW413826   0.524   4.203   3.973 -0.4038 -0.1794  0.1178
 3524SOL     OW13827   3.692   2.852   5.530  0.1463 -0.3023 -0.2025
 3524SOL    HW213828   3.731   2.887   5.610  0.9596 -0.1861 -0.6394
 3524SOL    HW313829   3.632   2.920   5.501  1.5612  0.6924 -0.9326
 3524SOL    MW413830   3.689   2.866   5.536  0.4012 -0.5015  0.5526
 3525SOL     OW13831   2.593   3.619   5.710 -0.4103 -0.0533  0.6477
 3525SOL    HW213832   2.591   3.677   5.634  1.2269  0.8911  1.2787
 3525SOL    HW313833   2.619   3.534   5.674  1.2332  0.5925  0.2514
 3525SOL    MW413834   2.596   3.616   5.695 -0.4830  0.0473 -0.1269
 3526SOL     OW13835   3.679   4.608   1.607  0.2385 -0.1501 -0.2148
 3526SOL    HW213836   3.748   4.542   1.608 -1.0758 -1.5629  0.0659
 3526SOL    HW313837   3.669   4.631   1.514  0.6576 -0.3893 -0.3211
 3526SOL    MW413838   3.687   4.603   1.595  0.3293 -0.1770 -0.5849
 3527SOL     OW13839   2.263   2.436   3.609  0.0927 -0.0716  0.2249
 3527SOL    HW213840   2.302   2.360   3.653  0.1916 -0.8418 -1.1393
 3527SOL    HW313841   2.276   2.508   3.670  1.3662 -0.8449  0.9094
 3527SOL    MW413842   2.270   2.435   3.623 -0.3480 -0.7599  0.0807
 3528SOL     OW13843   0.367   2.806   6.398 -0.2022  0.1222  0.3348
 3528SOL    HW213844   0.341   2.888   6.356 -2.7302 -0.0923  1.3245
 3528SOL    HW313845   0.358   2.740   6.330 -0.8426  0.2886  0.2505
 3528SOL    MW413846   0.362   2.808   6.384  0.2163  0.1470 -0.7024
 3529SOL     OW13847   4.216   3.264   6.061 -0.1200 -0.7718  0.2068
 3529SOL    HW213848   4.150   3.271   5.991  0.6204 -0.0497 -0.4480
 3529SOL    HW313849   4.222   3.171   6.080 -0.4438 -0.9642 -0.5993
 3529SOL    MW413850   4.208   3.253   6.054  0.4748  0.2554  0.2587
 3530SOL     OW13851   1.287   1.540   3.486 -0.0654 -0.0350 -0.1806
 3530SOL    HW213852   1.378   1.556   3.508  0.4317  1.0162 -2.6508
 3530SOL    HW313853   1.245   1.626   3.490 -1.1239 -0.5843  1.4679
 3530SOL    MW413854   1.293   1.553   3.489  0.5425  0.6106  0.0816
 3531SOL     OW13855   1.821   1.207   2.274 -0.2859 -0.3997 -0.2379
 3531SOL    HW213856   1.759   1.216   2.347  0.5907 -0.6210  0.5552
 3531SOL    HW313857   1.883   1.140   2.304 -0.6195 -1.3970 -1.6907
 3531SOL    MW413858   1.821   1.199   2.287 -0.0974 -0.0162 -0.1272
 3532SOL     OW13859   5.800   1.716   4.606 -0.3608  0.4459  0.6167
 3532SOL    HW213860   5.871   1.704   4.669 -0.5087  2.8103  1.3239
 3532SOL    HW313861   5.737   1.647   4.627  0.9813 -0.7042  1.0137
 3532SOL    MW413862   5.801   1.706   4.617  0.5530  0.2186  0.3485
 3533SOL     OW13863   0.850   0.576   6.329  0.2879 -0.5363 -0.5761
 3533SOL    HW213864   0.843   0.594   6.423  1.1561 -0.5947 -0.4991
 3533SOL    HW313865   0.761   0.554   6.303 -0.3239  1.1632 -0.1120
 3533SOL    MW413866   0.837   0.576   6.338  0.6694 -0.0590  0.0130
 3534SOL     OW13867   3.709   2.626   0.655 -0.2657  0.3319 -0.5471
 3534SOL    HW213868   3.715   2.587   0.568 -1.2954 -0.6319 -0.2016
 3534SOL    HW313869   3.646   2.572   0.702  1.2564 -0.0281  1.2486
 3534SOL    MW413870   3.702   2.614   0.650  0.3327 -0.1371 -0.1639
 3535SOL     OW13871   6.234   3.923   5.526  0.1933  0.0018  0.6855
 3535SOL    HW213872   6.199   3.860   5.464 -1.7381  1.6206  0.0246
 3535SOL    HW313873   6.222   4.008   5.484 -0.0533  1.0612  2.7343
 3535SOL    MW413874   6.228   3.926   5.512  0.0302  0.4231 -0.8309
 3536SOL     OW13875   3.021   2.466   1.936 -0.4306  0.0655 -0.0010
 3536SOL    HW213876   2.991   2.532   1.998  3.8923  1.3225  1.0357
 3536SOL    HW313877   3.048   2.392   1.989  0.2303 -0.1903 -0.6723
 3536SOL    MW413878   3.020   2.465   1.951 -0.4107 -0.4846  0.2280
 3537SOL     OW13879   0.038   2.264   3.100  0.2684 -0.6047  0.3582
 3537SOL    HW213880   0.097   2.293   3.170 -1.4553  1.5568  1.0185
 3537SOL    HW313881  -0.025   2.335   3.091 -1.0429 -1.9407 -1.7121
 3537SOL    MW413882   0.038   2.277   3.108 -0.1673  0.5557 -0.4634
 3538SOL     OW13883   2.880   5.403   2.945  0.0788 -0.2429 -0.6824
 3538SOL    HW213884   2.829   5.468   2.896 -0.5494  0.4025  0.7762
 3538SOL    HW313885   2.832   5.321   2.933  0.1155 -0.1660 -1.4018
 3538SOL    MW413886   2.866   5.401   2.937 -0.1011  0.4235  0.3860
 3539SOL     OW13887   4.516   3.488   0.811 -0.6131  0.1013  0.9109
 3539SOL    HW213888   4.456   3.564   0.806  0.4672  0.9643  0.6253
 3539SOL    HW313889   4.563   3.500   0.893 -2.2001 -1.6715  2.1475
 3539SOL    MW413890   4.514   3.500   0.821  0.9861  0.2674  0.5560
 3540SOL     OW13891   1.473   5.899   0.850  0.0540 -0.0037 -0.2085
 3540SOL    HW213892   1.400   5.960   0.860  0.8188  0.9010 -0.0657
 3540SOL    HW313893   1.552   5.953   0.858  0.7495 -0.9706 -0.3003
 3540SOL    MW413894   1.474   5.914   0.852  0.2865  0.0625 -0.3077
 3541SOL     OW13895   0.381   5.066   3.129  0.6245  0.0751  0.0026
 3541SOL    HW213896   0.364   4.973   3.111  0.7960 -0.0115  0.2762
 3541SOL    HW313897   0.349   5.079   3.218 -1.3964  0.8061 -0.7709
 3541SOL    MW413898   0.375   5.055   3.138 -0.1980 -0.1239 -0.3059
 3542SOL     OW13899   3.308   4.484   2.112  0.5603 -0.1005 -0.0372
 3542SOL    HW213900   3.230   4.539   2.105 -1.4720 -2.6852  0.5362
 3542SOL    HW313901   3.319   4.446   2.024  0.0659 -1.0709  0.3040
 3542SOL    MW413902   3.299   4.486   2.099 -0.1572  0.5027 -0.0399
 3543SOL     OW13903   3.609   0.528   4.562  0.0167 -0.7306 -0.2658
 3543SOL    HW213904   3.530   0.489   4.523 -0.5118  0.5261 -0.4933
 3543SOL    HW313905   3.600   0.622   4.545  1.2950 -0.5097  0.2066
 3543SOL    MW413906   3.597   0.535   4.554 -0.4495 -0.6220  0.1696
 3544SOL     OW13907   1.150   6.013   5.845  0.2059 -0.3653  0.1461
 3544SOL    HW213908   1.101   5.977   5.772 -0.0127  1.6319 -0.7439
 3544SOL    HW313909   1.224   6.059   5.804  0.7717 -0.2565  1.2509
 3544SOL    MW413910   1.154   6.014   5.830  0.2879  0.7983 -0.6466
 3545SOL     OW13911   4.497   2.297   1.504 -0.1586 -0.0860  0.3213
 3545SOL    HW213912   4.497   2.201   1.500  1.4313 -0.0833 -2.5293
 3545SOL    HW313913   4.410   2.323   1.475 -0.6509 -0.6392  1.2689
 3545SOL    MW413914   4.486   2.288   1.500  0.1309  0.5216 -0.3622
 3546SOL     OW13915   1.228   5.207   2.910 -0.3016  0.2193 -0.6451
 3546SOL    HW213916   1.141   5.245   2.903 -0.0421  0.7542 -1.0622
 3546SOL    HW313917   1.271   5.261   2.977 -0.6830 -0.8249  0.4824
 3546SOL    MW413918   1.222   5.219   2.918 -0.0113  0.1704  0.1020
 3547SOL     OW13919   1.034   1.576   1.152 -0.7057  0.2601 -0.3867
 3547SOL    HW213920   0.945   1.559   1.182 -0.6131 -2.6566 -1.4648
 3547SOL    HW313921   1.090   1.545   1.222 -0.4869  1.4258 -0.0181
 3547SOL    MW413922   1.030   1.570   1.165 -0.0039  0.3282  0.3277
 3548SOL     OW13923   0.476   0.764   6.120  0.5011  0.0583 -0.3238
 3548SOL    HW213924   0.527   0.774   6.200  1.7417  1.8597 -1.2736
 3548SOL    HW313925   0.536   0.722   6.059  0.2493  0.5489 -0.9163
 3548SOL    MW413926   0.490   0.760   6.123 -0.1908  0.3029  0.2321
 3549SOL     OW13927   3.010   3.667   1.353  0.0055 -0.1233  0.4633
 3549SOL    HW213928   3.036   3.631   1.438  0.1005 -1.1981 -0.0081
 3549SOL    HW313929   3.086   3.654   1.297 -0.0043  0.7142  0.2373
 3549SOL    MW413930   3.023   3.661   1.357  0.2216 -0.0431  0.0498
 3550SOL     OW13931   3.722   1.875   1.672 -0.2625 -0.2333  0.7907
 3550SOL    HW213932   3.716   1.969   1.655 -1.9721 -0.5513 -0.7344
 3550SOL    HW313933   3.734   1.836   1.585  0.6709 -1.4159  1.4255
 3550SOL    MW413934   3.723   1.882   1.658 -0.1842  0.1482 -0.4033
 3551SOL     OW13935   0.450   2.006   1.052  0.3037  0.5400  0.3551
 3551SOL    HW213936   0.527   2.008   0.996  1.6482  2.4166  2.1014
 3551SOL    HW313937   0.441   2.096   1.084 -1.7341  0.0458  1.3575
 3551SOL    MW413938   0.459   2.018   1.049  0.4082  0.2122 -0.1834
 3552SOL     OW13939   6.388   6.394   5.611 -0.4064  0.4441  0.3176
 3552SOL    HW213940   6.481   6.385   5.588 -0.1368  0.1603  1.4507
 3552SOL    HW313941   6.379   6.344   5.691 -1.6681  0.0610 -0.0508
 3552SOL    MW413942   6.399   6.387   5.618  0.1670 -0.8462 -0.5632
 3553SOL     OW13943   5.574   5.458   2.747  0.6594 -0.1515  0.1072
 3553SOL    HW213944   5.637   5.393   2.781  0.6150  0.4669  1.4420
 3553SOL    HW313945   5.498   5.406   2.723  0.4676 -0.5922  1.5372
 3553SOL    MW413946   5.573   5.442   2.748  0.4909 -0.2721  0.6843
 3554SOL     OW13947   1.106   2.084   1.214 -0.3731 -0.1234  0.1004
 3554SOL    HW213948   1.036   2.116   1.272 -0.3681  0.9798 -0.4775
 3554SOL    HW313949   1.059   2.051   1.138 -0.2713  1.7369 -0.8364
 3554SOL    MW413950   1.090   2.084   1.212  0.5194  0.4919  0.5041
 3555SOL     OW13951   3.919   4.800   1.115  0.4074  0.0349 -0.2663
 3555SOL    HW213952   3.976   4.874   1.136  2.5090 -0.6436 -3.0192
 3555SOL    HW313953   3.843   4.839   1.074  0.8100  0.7555 -0.3440
 3555SOL    MW413954   3.917   4.815   1.113  0.2765 -0.1347 -0.2189
 3556SOL     OW13955   3.975   2.730   3.535  0.2550  0.5165 -0.0090
 3556SOL    HW213956   3.885   2.753   3.515 -0.4092  1.4327  3.3015
 3556SOL    HW313957   4.024   2.812   3.525  0.6880  0.1014 -1.4580
 3556SOL    MW413958   3.970   2.744   3.531  0.0431 -0.1960 -0.4605
 3557SOL     OW13959   4.077   0.236   2.200  0.1525 -0.1644 -0.4242
 3557SOL    HW213960   4.015   0.308   2.211 -1.0834 -1.0791 -1.1031
 3557SOL    HW313961   4.047   0.191   2.121  0.9156 -1.4033 -0.0335
 3557SOL    MW413962   4.065   0.240   2.191  0.0563 -0.2130 -0.2281
 3558SOL     OW13963   0.831   1.873   0.156 -0.1655 -0.0403 -0.6932
 3558SOL    HW213964   0.858   1.799   0.103 -2.4460  0.0621 -2.1071
 3558SOL    HW313965   0.909   1.929   0.160  0.9191 -1.4240 -1.4651
 3558SOL    MW413966   0.845   1.871   0.150  0.6112 -0.1109  0.1063
 3559SOL     OW13967   6.301   2.099   0.196 -0.1612 -0.7333  0.1209
 3559SOL    HW213968   6.231   2.035   0.193 -0.7318 -0.2324  1.6029
 3559SOL    HW313969   6.370   2.057   0.249  1.0929 -1.5770 -2.0531
 3559SOL    MW413970   6.301   2.085   0.203  0.0981  0.1610  0.1681
 3560SOL     OW13971   3.684   4.729   4.775 -0.5970  0.2817  0.1501
 3560SOL    HW213972   3.617   4.743   4.708  0.0176 -0.8180 -0.7268
 3560SOL    HW313973   3.663   4.793   4.843 -1.9826  0.5840 -0.5160
 3560SOL    MW413974   3.672   4.739   4.775  0.2012 -0.2313  0.0922
 3561SOL     OW13975   3.019   0.553   1.788 -0.2255  0.7495  0.2494
 3561SOL    HW213976   3.074   0.608   1.843 -0.6898  0.3082  1.1818
 3561SOL    HW313977   2.929   0.580   1.808 -0.4054  0.5608 -0.2687
 3561SOL    MW413978   3.014   0.564   1.798 -0.6109  0.4595  1.3714
 3562SOL     OW13979   3.560   4.924   4.957  0.0148  0.0477 -0.1036
 3562SOL    HW213980   3.623   4.972   5.011  0.1259 -2.3846  2.1744
 3562SOL    HW313981   3.485   4.983   4.948  1.4389  1.9036 -0.4341
 3562SOL    MW413982   3.558   4.938   4.963 -0.6267  0.0747  0.2383
 3563SOL     OW13983   1.297   0.266   2.921 -0.0839 -0.6400 -0.0607
 3563SOL    HW213984   1.339   0.219   2.993  1.9838  2.0165  0.6240
 3563SOL    HW313985   1.359   0.260   2.849 -0.2901  0.0707 -0.3126
 3563SOL    MW413986   1.311   0.259   2.921 -0.4649  0.0082  0.1071
 3564SOL     OW13987   6.357   1.475   0.366 -0.2257  0.1018  0.1783
 3564SOL    HW213988   6.292   1.509   0.304 -0.3562 -2.4927 -1.2262
 3564SOL    HW313989   6.440   1.512   0.335 -0.4993  0.1339 -0.5477
 3564SOL    MW413990   6.359   1.485   0.354 -0.2124 -0.1176 -0.6242
 3565SOL     OW13991   6.179   5.848   0.586  0.4288  0.3481  0.1433
 3565SOL    HW213992   6.155   5.774   0.642 -2.4310  1.2073  0.2132
 3565SOL    HW313993   6.146   5.925   0.632 -0.8778  1.2080 -2.0456
 3565SOL    MW413994   6.171   5.849   0.599 -0.0497 -0.9396  0.2011
 3566SOL     OW13995   3.103   5.878   6.404  0.0683  0.3927  0.2031
 3566SOL    HW213996   3.089   5.793   6.446  1.9473 -0.1059 -0.0796
 3566SOL    HW313997   3.166   5.922   6.460  0.6404  0.7639 -0.7055
 3566SOL    MW413998   3.110   5.872   6.417 -0.5922  0.2422 -0.0184
 3567SOL     OW13999   3.038   4.226   2.495 -0.6484 -0.3182  0.3708
 3567SOL    HW214000   3.063   4.152   2.550  0.3812  0.0954  0.4702
 3567SOL    HW314001   3.005   4.292   2.557  1.0326  0.3651  0.5845
 3567SOL    MW414002   3.037   4.225   2.511 -0.9121 -0.1931 -0.3895
 3568SOL     OW14003   3.057   6.407   0.062  0.1802  0.3499  0.7162
 3568SOL    HW214004   3.150   6.395   0.044 -0.3070 -2.0304 -0.5338
 3568SOL    HW314005   3.045   6.502   0.057  2.4083  0.6809  0.3470
 3568SOL    MW414006   3.068   6.418   0.059 -0.0269  0.5167 -0.9453
 3569SOL     OW14007   1.585   4.675   2.530 -0.8499  0.6143 -0.9294
 3569SOL    HW214008   1.551   4.624   2.604  1.0690 -1.8900 -1.6396
 3569SOL    HW314009   1.618   4.755   2.570  0.3619 -0.7825  1.0266
 3569SOL    MW414010   1.585   4.679   2.545  0.9004  0.0105  0.0617
 3570SOL     OW14011   2.994   1.194   3.327 -0.5432  0.0837 -0.7364
 3570SOL    HW214012   3.031   1.273   3.365 -0.2509  0.0050 -0.8547
 3570SOL    HW314013   3.023   1.124   3.385  0.5702 -0.1376 -1.5280
 3570SOL    MW414014   3.002   1.195   3.340 -0.3000 -0.2142  0.0370
 3571SOL     OW14015   4.241   3.780   0.477 -0.6720 -0.3969 -0.1996
 3571SOL    HW214016   4.268   3.825   0.557 -1.6949  2.0408 -1.1296
 3571SOL    HW314017   4.151   3.752   0.493 -0.1810 -1.8383  0.2175
 3571SOL    MW414018   4.233   3.782   0.489 -0.3826  0.6734 -0.1388
 3572SOL     OW14019   6.057   2.120   2.840  0.2175  0.2195  0.1619
 3572SOL    HW214020   6.118   2.188   2.810  0.7907 -0.0877  0.5998
 3572SOL    HW314021   6.082   2.042   2.790  0.2352  0.0739  0.3936
 3572SOL    MW414022   6.069   2.118   2.830 -0.2366  0.3320 -0.0997
 3573SOL     OW14023   3.305   4.299   5.434 -0.3651 -0.3718 -0.3086
 3573SOL    HW214024   3.331   4.368   5.373 -0.5933 -0.2551 -0.2784
 3573SOL    HW314025   3.332   4.218   5.392 -0.6672 -0.3044 -0.6420
 3573SOL    MW414026   3.312   4.298   5.421 -0.6473  0.1200  0.2072
 3574SOL     OW14027   2.940   1.191   5.453  0.3495  0.2119  0.2103
 3574SOL    HW214028   2.909   1.273   5.492 -1.1581 -0.1839 -0.1099
 3574SOL    HW314029   3.015   1.218   5.400 -0.3632  1.4758 -0.2145
 3574SOL    MW414030   2.946   1.206   5.451  0.1401 -0.3262 -0.3891
 3575SOL     OW14031   2.831   4.222   5.275  0.3348  0.1131  0.1816
 3575SOL    HW214032   2.759   4.277   5.243 -0.0189 -0.1853  0.4639
 3575SOL    HW314033   2.902   4.284   5.292 -0.1732  0.5305  0.8121
 3575SOL    MW414034   2.831   4.238   5.273  0.3574 -0.5570  0.1934
 3576SOL     OW14035   0.254   1.770   5.532  0.2796 -0.4929 -0.2055
 3576SOL    HW214036   0.164   1.737   5.532  0.7762 -1.9001 -0.4505
 3576SOL    HW314037   0.246   1.860   5.501 -0.8914 -1.0868 -1.7450
 3576SOL    MW414038   0.241   1.777   5.528 -0.7222  0.4886  0.1737
 3577SOL     OW14039   1.671   1.233   2.033  0.2274 -0.4562  0.0055
 3577SOL    HW214040   1.709   1.202   2.115 -0.0062  1.6786  0.9894
 3577SOL    HW314041   1.582   1.259   2.056 -0.0778 -0.4651 -1.0895
 3577SOL    MW414042   1.664   1.232   2.046 -0.1006  0.3764  0.2976
 3578SOL     OW14043   5.337   3.240   1.560  0.1236  0.4466  0.1774
 3578SOL    HW214044   5.366   3.175   1.624  0.0306 -0.0875 -0.3071
 3578SOL    HW314045   5.277   3.296   1.608  0.5622  0.4556  0.7260
 3578SOL    MW414046   5.333   3.239   1.575 -0.5538  0.1917  0.0679
 3579SOL     OW14047   0.598   4.326   5.912  0.0485  0.4516  0.6090
 3579SOL    HW214048   0.591   4.303   6.004 -0.0874  0.4158  0.5887
 3579SOL    HW314049   0.541   4.265   5.866  2.5024 -1.6989  0.1549
 3579SOL    MW414050   0.590   4.315   5.918 -0.9441  0.3168  0.5059
 3580SOL     OW14051   5.856   1.808   5.260  0.0414 -0.4833 -0.1255
 3580SOL    HW214052   5.789   1.876   5.249 -0.3166 -0.9006 -0.5364
 3580SOL    HW314053   5.928   1.838   5.205  0.2011 -0.0367  0.3112
 3580SOL    MW414054   5.857   1.821   5.252 -0.2486  0.2956  0.2764
 3581SOL     OW14055   3.670   2.499   1.814 -0.1958  0.5902  0.0064
 3581SOL    HW214056   3.655   2.592   1.798  0.9145  1.1776  1.9239
 3581SOL    HW314057   3.607   2.476   1.883  0.2645  0.2366  0.3202
 3581SOL    MW414058   3.660   2.508   1.821  0.4145 -0.5468  0.3963
 3582SOL     OW14059   3.428   6.007   0.671  0.0204  0.2136  0.1368
 3582SOL    HW214060   3.423   5.963   0.585  0.3098 -0.6402  0.5432
 3582SOL    HW314061   3.497   5.960   0.718 -1.6216 -0.8259  1.6537
 3582SOL    MW414062   3.436   5.995   0.666  0.2014  0.3512 -1.2261
 3583SOL     OW14063   3.614   4.908   2.356 -0.6638 -0.4168 -0.1132
 3583SOL    HW214064   3.665   4.877   2.431  0.5713  1.1971 -0.2318
 3583SOL    HW314065   3.578   4.828   2.317  2.4130 -1.7521 -0.4613
 3583SOL    MW414066   3.616   4.893   2.361 -0.1667 -0.3336  0.2997
 3584SOL     OW14067   3.888   5.035   0.885 -0.2114 -0.5563 -0.0022
 3584SOL    HW214068   3.799   5.014   0.915 -0.7636  0.8380 -0.5804
 3584SOL    HW314069   3.875   5.082   0.802  1.1286 -1.3637 -0.7017
 3584SOL    MW414070   3.874   5.039   0.878  0.0763  0.2531 -0.1308
 3585SOL     OW14071   0.814   5.377   5.429  0.4278  0.2311 -0.0274
 3585SOL    HW214072   0.810   5.386   5.334  1.8510  1.1160 -0.0224
 3585SOL    HW314073   0.786   5.286   5.445 -0.8259  0.3751 -1.1806
 3585SOL    MW414074   0.810   5.366   5.418 -0.0806  0.2751 -0.7370
 3586SOL     OW14075   4.301   1.408   1.573 -0.1130  0.1687 -0.2361
 3586SOL    HW214076   4.331   1.400   1.663  2.5788  1.7595 -0.8761
 3586SOL    HW314077   4.223   1.464   1.578  0.4887  0.9314  1.0161
 3586SOL    MW414078   4.294   1.414   1.585  0.6095  0.6598  0.5301
 3587SOL     OW14079   2.996   4.622   3.387 -0.3194  0.1485  0.5182
 3587SOL    HW214080   3.063   4.690   3.379  0.0928 -0.0701  1.9903
 3587SOL    HW314081   2.913   4.669   3.378 -0.0171  0.7355  0.7887
 3587SOL    MW414082   2.994   4.637   3.385  0.2272  0.3678  0.2368
 3588SOL     OW14083   1.721   6.190   1.431  0.1727  0.0945 -0.4308
 3588SOL    HW214084   1.639   6.239   1.425 -0.5546 -1.0556 -0.2569
 3588SOL    HW314085   1.769   6.233   1.502 -1.2289 -0.4952  0.9618
 3588SOL    MW414086   1.716   6.202   1.440 -0.1005 -0.2747  0.2811
 3589SOL     OW14087   0.064   3.313   6.079 -0.0065 -0.6293  0.3034
 3589SOL    HW214088  -0.017   3.351   6.045  0.6510  0.0220 -0.6016
 3589SOL    HW314089   0.040   3.276   6.164 -1.1034  0.1203  0.3386
 3589SOL    MW414090   0.050   3.313   6.086 -0.1669 -0.1992  0.0065
 3590SOL     OW14091   3.503   6.170   1.986 -0.3606  0.2629 -0.0219
 3590SOL    HW214092   3.550   6.129   2.058  0.6045  0.6150 -0.4251
 3590SOL    HW314093   3.411   6.161   2.008 -0.0843  0.1232  1.1156
 3590SOL    MW414094   3.497   6.164   1.998  0.7408  0.5803 -0.4259
 3591SOL     OW14095   4.729   3.641   5.765 -0.6657 -0.0607  0.2440
 3591SOL    HW214096   4.653   3.694   5.789 -1.5520 -1.0099 -0.3649
 3591SOL    HW314097   4.775   3.694   5.700 -1.2490  0.1963  0.0317
 3591SOL    MW414098   4.725   3.655   5.759  1.0796  0.4761 -0.3668
 3592SOL     OW14099   3.797   1.152   4.211  0.2102 -0.3264  0.3765
 3592SOL    HW214100   3.707   1.184   4.207  0.4606  0.3126 -0.7862
 3592SOL    HW314101   3.816   1.144   4.304 -0.3047  1.7617  0.7184
 3592SOL    MW414102   3.788   1.155   4.223  0.1410 -0.0870 -0.1130
 3593SOL     OW14103   0.910   2.138   1.404 -0.3935 -0.0066  0.1568
 3593SOL    HW214104   0.876   2.228   1.403  1.2323  0.6529  0.6723
 3593SOL    HW314105   0.832   2.083   1.395 -1.2460  1.4621 -3.1268
 3593SOL    MW414106   0.895   2.143   1.403 -0.7729  0.0570  0.4137
 3594SOL     OW14107   0.359   2.536   1.692 -0.2204 -0.1988  0.8259
 3594SOL    HW214108   0.349   2.550   1.598  0.5220  1.8470  0.9865
 3594SOL    HW314109   0.415   2.459   1.699  0.0161 -0.1661 -0.4153
 3594SOL    MW414110   0.365   2.528   1.680 -0.4430 -0.1737  0.4196
 3595SOL     OW14111   5.667   1.944   3.358 -0.0752 -0.0520 -0.3441
 3595SOL    HW214112   5.731   1.895   3.307 -0.5849 -0.5102 -0.5468
 3595SOL    HW314113   5.597   1.881   3.375  0.2229 -0.0127  1.1939
 3595SOL    MW414114   5.666   1.929   3.354  0.3399 -0.2102  0.0712
 3596SOL     OW14115   5.892   0.242   2.962 -0.6628  0.4485  0.3955
 3596SOL    HW214116   5.890   0.149   2.941 -1.5697  0.7301 -0.8486
 3596SOL    HW314117   5.933   0.246   3.048 -1.7726 -1.2078  1.0445
 3596SOL    MW414118   5.897   0.231   2.971  0.7348  0.0990 -0.2096
 3597SOL     OW14119   1.935   4.104   1.833 -0.5963  0.2319  0.3067
 3597SOL    HW214120   1.999   4.057   1.886  0.0916 -0.0814 -0.7731
 3597SOL    HW314121   1.906   4.177   1.889 -0.0907 -0.2387  1.1968
 3597SOL    MW414122   1.940   4.108   1.848  0.5894 -0.2932 -0.3613
 3598SOL     OW14123   0.155   4.262   3.980  0.2756 -0.4963  0.4319
 3598SOL    HW214124   0.120   4.174   3.989  0.9966 -0.8384 -0.0502
 3598SOL    HW314125   0.209   4.259   3.901 -1.8949  1.1039 -1.2368
 3598SOL    MW414126   0.158   4.250   3.971  0.0326 -0.3208 -0.3934
 3599SOL     OW14127   2.272   2.156   4.200 -0.2405 -0.6519  0.0500
 3599SOL    HW214128   2.281   2.143   4.294 -0.6348  0.0061  0.1914
 3599SOL    HW314129   2.186   2.197   4.190 -0.2085 -0.7278 -0.5967
 3599SOL    MW414130   2.262   2.160   4.211  0.0362  0.0890  0.3687
 3600SOL     OW14131   0.975   5.310   4.339  0.6801  0.0893  0.2973
 3600SOL    HW214132   0.883   5.293   4.320  0.9714  0.9143 -2.1501
 3600SOL    HW314133   1.012   5.223   4.359 -0.3816 -0.3969  0.2154
 3600SOL    MW414134   0.968   5.296   4.339  0.4606 -0.2471  0.4980
 3601SOL     OW14135   5.559   3.477   5.021 -0.6664 -0.2528  0.8545
 3601SOL    HW214136   5.574   3.384   5.005  0.1005 -0.0409  0.2927
 3601SOL    HW314137   5.528   3.512   4.937  1.3976  0.4647  0.3360
 3601SOL    MW414138   5.557   3.470   5.008  0.0032  0.3490 -0.1132
 3602SOL     OW14139   3.114   0.677   6.215 -0.8799 -0.5061  0.1235
 3602SOL    HW214140   3.067   0.745   6.263 -1.0140 -1.6828  1.7669
 3602SOL    HW314141   3.075   0.677   6.128 -1.3589  1.0137  0.3109
 3602SOL    MW414142   3.103   0.686   6.210 -0.1376 -0.7915 -0.2216
 3603SOL     OW14143   0.357   4.550   5.546  0.1685  0.2290 -0.1098
 3603SOL    HW214144   0.446   4.581   5.559  0.9065 -2.3585  1.6721
 3603SOL    HW314145   0.365   4.475   5.487 -1.0179  0.6708 -0.8894
 3603SOL    MW414146   0.369   4.544   5.540 -0.2127 -0.7329  0.0706
 3604SOL     OW14147   2.600   1.907   3.386  0.6534 -0.1178 -0.2509
 3604SOL    HW214148   2.575   1.873   3.472  1.7355 -3.1471 -1.0254
 3604SOL    HW314149   2.524   1.957   3.356 -0.0678  0.2813  2.0542
 3604SOL    MW414150   2.587   1.909   3.394 -0.0911  0.4410  0.0053
 3605SOL     OW14151   0.298   1.050   4.086 -0.5902  0.6507 -0.1751
 3605SOL    HW214152   0.384   1.012   4.107 -0.4968  0.8009 -0.2875
 3605SOL    HW314153   0.313   1.144   4.083 -0.9654  0.7508  0.7687
 3605SOL    MW414154   0.311   1.057   4.088 -0.0004 -0.0496  0.2737
 3606SOL     OW14155   3.241   6.047   0.869  0.0270 -0.5990  0.1959
 3606SOL    HW214156   3.293   6.035   0.790 -1.1844  0.1753 -0.7617
 3606SOL    HW314157   3.157   6.004   0.849 -1.5854  2.4883 -0.3693
 3606SOL    MW414158   3.237   6.039   0.856 -0.3403  0.1240  0.7888
 3607SOL     OW14159   0.377   0.063   3.176 -0.0713 -0.7520 -0.3930
 3607SOL    HW214160   0.331   0.144   3.155 -0.6429 -0.9960 -0.1141
 3607SOL    HW314161   0.307  -0.002   3.183  0.3877 -1.2963 -0.7426
 3607SOL    MW414162   0.362   0.065   3.174 -0.3877 -0.0850  0.0686
 3608SOL     OW14163   0.098   0.968   4.751  0.1715  0.3443  0.0187
 3608SOL    HW214164   0.167   0.919   4.796 -1.2754 -1.2706  0.5707
 3608SOL    HW314165   0.121   1.060   4.765  1.5277 -0.1464  1.2568
 3608SOL    MW414166   0.110   0.974   4.759 -0.1561 -0.2431 -0.4369
 3609SOL     OW14167   3.666   1.467   0.207 -0.5040  0.1938 -0.3447
 3609SOL    HW214168   3.604   1.506   0.145  0.3012  2.1597  0.0160
 3609SOL    HW314169   3.642   1.374   0.210 -2.6036  0.6514 -1.1683
 3609SOL    MW414170   3.654   1.460   0.199 -0.0788  0.0470  0.4655
 3610SOL     OW14171   2.643   5.730   3.777  0.4999  0.0079 -0.6793
 3610SOL    HW214172   2.618   5.731   3.684 -0.1859  0.3091 -0.5009
 3610SOL    HW314173   2.701   5.806   3.786 -1.3511  1.4736 -0.3826
 3610SOL    MW414174   2.647   5.740   3.766  0.1333 -0.0060 -0.2113
 3611SOL     OW14175   5.566   5.084   3.364  0.3296 -0.1333 -0.3908
 3611SOL    HW214176   5.641   5.041   3.407  0.3358  0.2513 -0.0138
 3611SOL    HW314177   5.498   5.017   3.362  0.5525 -0.3626 -0.3803
 3611SOL    MW414178   5.567   5.069   3.369 -0.3784 -0.2280  0.2374
 3612SOL     OW14179   0.666   0.047   3.060 -0.0439 -0.3720 -0.1078
 3612SOL    HW214180   0.657   0.127   3.008  1.4653 -0.8665 -1.1959
 3612SOL    HW314181   0.595   0.053   3.125  0.4888  2.1990  0.3520
 3612SOL    MW414182   0.655   0.059   3.062  0.1507 -0.1214 -0.5242
 3613SOL     OW14183   1.630   4.046   2.172 -0.5833 -0.1744 -0.3564
 3613SOL    HW214184   1.570   4.013   2.239 -0.8386 -0.5821 -0.7797
 3613SOL    HW314185   1.625   3.981   2.101  0.0601 -0.0080 -0.5605
 3613SOL    MW414186   1.621   4.033   2.171  0.0796 -0.0957  0.5553
 3614SOL     OW14187   4.040   6.154   3.114 -1.0922  0.2387  0.3041
 3614SOL    HW214188   4.059   6.117   3.028 -1.8478 -0.8403  0.5781
 3614SOL    HW314189   4.012   6.079   3.167  1.9561  0.3315  2.3320
 3614SOL    MW414190   4.039   6.139   3.110  0.2389  0.1350  0.1580
 3615SOL     OW14191   5.322   0.185   5.392 -0.1560 -0.2319  0.2380
 3615SOL    HW214192   5.357   0.260   5.440  0.0024 -0.3325  0.2799
 3615SOL    HW314193   5.273   0.223   5.319  1.2118 -0.1102 -0.6504
 3615SOL    MW414194   5.320   0.200   5.389 -0.2635  0.1096 -0.1190
 3616SOL     OW14195   3.801   6.310   4.354  0.0443  0.1840  0.0600
 3616SOL    HW214196   3.817   6.395   4.314  1.0094  0.5132  1.0760
 3616SOL    HW314197   3.852   6.249   4.301 -1.0579  0.1376 -0.9816
 3616SOL    MW414198   3.810   6.313   4.342 -0.3362  0.4403  0.0032
 3617SOL     OW14199   4.142   2.872   5.282 -0.0483  0.3603 -0.4965
 3617SOL    HW214200   4.057   2.855   5.322 -1.3926  0.1875 -3.1850
 3617SOL    HW314201   4.150   2.968   5.282 -0.0557  0.3652  0.0709
 3617SOL    MW414202   4.132   2.883   5.287 -0.2330 -0.2886  0.0841
 3618SOL     OW14203   0.848   4.563   2.054  0.4463 -0.0880  0.1151
 3618SOL    HW214204   0.814   4.487   2.006  2.3470 -0.0518 -1.3797
 3618SOL    HW314205   0.939   4.542   2.074  0.5835  1.1917  1.0370
 3618SOL    MW414206   0.855   4.550   2.051  0.1875 -0.3539  0.0365
 3619SOL     OW14207   3.302   0.753   0.010 -0.2246  0.1084  0.0298
 3619SOL    HW214208   3.300   0.712   0.097 -0.8475  0.7981  0.3527
 3619SOL    HW314209   3.254   0.692  -0.046 -1.1755  0.4006  0.5144
 3619SOL    MW414210   3.295   0.740   0.014 -0.1742  0.2551  0.3641
 3620SOL     OW14211   5.249   1.411   1.472 -0.9188 -0.3413  0.0920
 3620SOL    HW214212   5.176   1.456   1.430 -0.4647  1.3892  1.0513
 3620SOL    HW314213   5.276   1.470   1.543 -0.4993 -2.3110  1.6616
 3620SOL    MW414214   5.243   1.425   1.476  0.5404 -0.1466  0.6785
 3621SOL     OW14215   2.882   5.646   0.323  0.7652 -0.1499  0.0467
 3621SOL    HW214216   2.813   5.709   0.300  0.4669  0.3628  2.0614
 3621SOL    HW314217   2.935   5.638   0.245 -1.0662  0.1363 -1.2917
 3621SOL    MW414218   2.880   5.653   0.310  0.9142 -0.2977 -0.6904
 3622SOL     OW14219   0.673   4.154   2.706  0.2320  0.7321 -0.0772
 3622SOL    HW214220   0.578   4.166   2.712  0.1137 -0.4626  0.7033
 3622SOL    HW314221   0.685   4.104   2.625  0.1087  0.1410  0.2632
 3622SOL    MW414222   0.662   4.149   2.696  0.8619 -0.1764  0.2372
 3623SOL     OW14223   0.401   1.848   6.009 -0.0555 -0.4797 -0.2025
 3623SOL    HW214224   0.342   1.895   5.949  0.6275 -1.0445 -1.3513
 3623SOL    HW314225   0.480   1.901   6.011 -0.3996  0.0317  0.9775
 3623SOL    MW414226   0.403   1.862   6.001  0.0889 -0.4455  0.3278
 3624SOL     OW14227   6.328   3.305   3.935  0.1556  0.2854  0.4240
 3624SOL    HW214228   6.333   3.212   3.912 -0.7149  0.1022  0.9526
 3624SOL    HW314229   6.379   3.349   3.867  1.0328 -0.6207  0.4678
 3624SOL    MW414230   6.336   3.299   3.923 -0.0357  0.2083  0.8021
 3625SOL     OW14231   5.438   2.985   4.980 -0.1956  0.0782 -0.0406
 3625SOL    HW214232   5.476   2.955   5.063  1.0512  2.5782  0.4018
 3625SOL    HW314233   5.345   3.001   5.000  0.0861  0.6126  0.8941
 3625SOL    MW414234   5.431   2.983   4.994  0.1082  0.0570  0.4993
 3626SOL     OW14235   5.302   2.550   4.214  0.2202 -0.4996 -0.4312
 3626SOL    HW214236   5.355   2.628   4.200 -0.9574  0.2803 -0.7099
 3626SOL    HW314237   5.307   2.534   4.309  0.9727 -0.4737 -0.4604
 3626SOL    MW414238   5.309   2.558   4.225  0.2468  0.2604 -0.3798
 3627SOL     OW14239   6.364   6.276   5.871 -0.1294  0.7723 -0.4219
 3627SOL    HW214240   6.290   6.276   5.932  0.7284 -1.1423  0.6835
 3627SOL    HW314241   6.441   6.260   5.926  0.7017 -0.7192 -1.9470
 3627SOL    MW414242   6.364   6.274   5.886 -0.0695  0.1195  0.5022
 3628SOL     OW14243   3.198   4.890   6.350 -0.2761 -0.4081 -0.4692
 3628SOL    HW214244   3.111   4.863   6.318  0.2006 -0.3898 -1.8601
 3628SOL    HW314245   3.187   4.982   6.373 -0.7050 -0.4895 -0.3391
 3628SOL    MW414246   3.185   4.898   6.349  0.4657  0.3234 -0.6852
 3629SOL     OW14247   2.463   3.078   0.175 -0.0843 -0.5192  0.4769
 3629SOL    HW214248   2.483   3.066   0.082  2.5596 -0.6197  0.9917
 3629SOL    HW314249   2.396   3.146   0.176  0.2604 -0.0805 -1.4913
 3629SOL    MW414250   2.457   3.086   0.163 -0.0882 -0.1942 -0.4848
 3630SOL     OW14251   0.734   6.333   0.893  0.9603 -0.4786 -0.0274
 3630SOL    HW214252   0.671   6.304   0.959  1.1560 -0.9616 -0.0456
 3630SOL    HW314253   0.736   6.428   0.902  0.3947 -0.4748  0.1246
 3630SOL    MW414254   0.726   6.342   0.903  0.2128 -0.2364  0.4287
 3631SOL     OW14255   1.305   2.858   2.144  1.0338 -0.3277  0.3409
 3631SOL    HW214256   1.278   2.770   2.170 -0.6029 -0.0388 -0.2644
 3631SOL    HW314257   1.276   2.914   2.216  1.0433 -0.1472  0.2046
 3631SOL    MW414258   1.298   2.854   2.157 -0.1515 -0.3121 -0.1404
 3632SOL     OW14259   6.182   6.363   0.175  0.4446 -0.0645 -0.4940
 3632SOL    HW214260   6.277   6.373   0.166  0.3588  1.7472  0.2736
 3632SOL    HW314261   6.170   6.325   0.262  0.4073  1.3954  0.1543
 3632SOL    MW414262   6.193   6.359   0.185  0.3099 -0.2728 -0.2475
 3633SOL     OW14263   5.051   6.060   3.789  0.1216 -0.0004 -0.0330
 3633SOL    HW214264   5.055   6.133   3.728 -0.3791 -0.0469 -0.1277
 3633SOL    HW314265   5.116   5.998   3.757  2.2209  1.3487  1.3236
 3633SOL    MW414266   5.060   6.061   3.777 -0.2405 -0.5913  0.1655
 3634SOL     OW14267   0.342   0.737   4.559  0.1277  0.3429  0.1349
 3634SOL    HW214268   0.247   0.723   4.558  0.3486 -1.4310  0.8116
 3634SOL    HW314269   0.357   0.794   4.634 -0.2767 -0.6548  1.0032
 3634SOL    MW414270   0.331   0.742   4.569  0.5657  0.2247  0.3352
 3635SOL     OW14271   1.787   0.356   5.252 -0.1061  0.3415 -0.3559
 3635SOL    HW214272   1.749   0.268   5.256  0.3620  0.1718  1.3749
 3635SOL    HW314273   1.849   0.352   5.179 -2.1602  0.1489 -2.2027
 3635SOL    MW414274   1.790   0.343   5.243 -0.2689 -0.1730 -0.5638
 3636SOL     OW14275   4.818   3.417   2.920 -0.4794  0.8527 -0.5826
 3636SOL    HW214276   4.809   3.511   2.903 -1.1714  1.2154  1.4497
 3636SOL    HW314277   4.889   3.412   2.984 -0.7597  0.0395 -0.3230
 3636SOL    MW414278   4.826   3.429   2.926  0.1475  0.6907  0.4881
 3637SOL     OW14279   5.612   0.053   4.444  0.2127 -0.4006  0.0333
 3637SOL    HW214280   5.547   0.016   4.505  0.5380 -1.1697 -0.0722
 3637SOL    HW314281   5.580   0.028   4.357 -1.1080  2.0581 -0.2616
 3637SOL    MW414282   5.599   0.045   4.441  0.2742  0.2076  0.5795
 3638SOL     OW14283   0.298   0.112   4.292  0.0342  0.3519 -0.2059
 3638SOL    HW214284   0.332   0.025   4.312 -0.1365  0.3867  0.2442
 3638SOL    HW314285   0.203   0.102   4.298 -0.0242  0.3783 -0.9537
 3638SOL    MW414286   0.290   0.099   4.296 -0.5494  0.0864 -0.2054
 3639SOL     OW14287   3.678   1.832   4.055 -0.0505 -0.0230 -0.0358
 3639SOL    HW214288   3.765   1.791   4.053 -0.0734 -0.4140  2.7501
 3639SOL    HW314289   3.696   1.924   4.072 -0.1516 -0.2380  1.3522
 3639SOL    MW414290   3.692   1.839   4.057 -0.0914  0.0949 -0.4685
 3640SOL     OW14291   6.406   4.427   3.827 -0.0103 -0.4657  0.0585
 3640SOL    HW214292   6.459   4.357   3.865  1.0808  0.2268 -0.1437
 3640SOL    HW314293   6.387   4.486   3.901  0.0970 -0.3440 -0.0118
 3640SOL    MW414294   6.410   4.426   3.842 -0.0583 -0.0384 -0.0329
 3641SOL     OW14295   2.521   2.716   5.631 -0.0176  0.5457 -0.4934
 3641SOL    HW214296   2.549   2.779   5.564 -0.0031  0.2522 -0.7680
 3641SOL    HW314297   2.512   2.633   5.583 -0.8110  0.5081 -0.2937
 3641SOL    MW414298   2.524   2.713   5.616  0.3328  0.3493  0.1181
 3642SOL     OW14299   5.053   0.886   0.009  0.1562  0.2327 -0.1193
 3642SOL    HW214300   5.022   0.830   0.080  1.4446  0.7920  0.9250
 3642SOL    HW314301   5.002   0.966   0.017  1.3258  0.8894  1.1704
 3642SOL    MW414302   5.042   0.889   0.019 -0.3267 -0.1815  0.1820
 3643SOL     OW14303   5.310   2.993   4.617  0.1124 -0.0944  0.6507
 3643SOL    HW214304   5.274   3.035   4.539  0.9504 -2.6171 -1.2534
 3643SOL    HW314305   5.346   3.065   4.669 -1.0150  1.7544 -0.9805
 3643SOL    MW414306   5.310   3.008   4.613 -0.3310 -0.2830  0.0389
 3644SOL     OW14307   0.346   4.021   1.154 -0.0670  0.5099 -0.1641
 3644SOL    HW214308   0.287   4.093   1.132 -1.4305 -0.3515  0.5838
 3644SOL    HW314309   0.311   3.984   1.234 -0.5982 -2.2681 -1.5443
 3644SOL    MW414310   0.334   4.026   1.161  0.0894  0.0003 -0.0071
 3645SOL     OW14311   4.515   5.709   6.157 -0.1219  0.1248 -0.0179
 3645SOL    HW214312   4.521   5.781   6.220  0.5837 -0.6932  0.8749
 3645SOL    HW314313   4.605   5.693   6.131 -0.4447  0.7283 -1.5925
 3645SOL    MW414314   4.528   5.717   6.162  0.6319 -0.5185 -0.0518
 3646SOL     OW14315   0.913   5.796   3.479  0.2186  0.5441 -0.0826
 3646SOL    HW214316   0.952   5.857   3.542  1.8795 -0.5346 -0.0209
 3646SOL    HW314317   0.820   5.819   3.480  0.1647  0.5941  2.7702
 3646SOL    MW414318   0.906   5.807   3.488  0.0743 -0.0967  0.4531
 3647SOL     OW14319   5.570   2.169   5.610 -1.1518  0.2398 -0.3481
 3647SOL    HW214320   5.513   2.091   5.609 -1.0430  0.1562 -1.6714
 3647SOL    HW314321   5.559   2.207   5.523  0.2089  0.6793 -0.3352
 3647SOL    MW414322   5.561   2.163   5.598 -0.4727  0.0233  0.2315
 3648SOL     OW14323   5.631   4.656   4.087  0.4570  0.1624  0.0223
 3648SOL    HW214324   5.704   4.611   4.045 -0.2849 -0.3516 -0.7426
 3648SOL    HW314325   5.661   4.747   4.097  0.5694  0.3612 -1.8792
 3648SOL    MW414326   5.644   4.662   4.083  0.2006 -1.1654 -0.6939
 3649SOL     OW14327   3.500   3.280   1.235 -0.6243 -0.1526  0.3711
 3649SOL    HW214328   3.516   3.220   1.307 -0.2999  0.6886  1.0161
 3649SOL    HW314329   3.505   3.367   1.274  2.6929  0.5204 -1.1656
 3649SOL    MW414330   3.503   3.284   1.250 -0.2544 -0.2474  0.3103
 3650SOL     OW14331   2.838   4.920   3.898 -0.1598 -0.2066 -0.3208
 3650SOL    HW214332   2.813   4.915   3.990 -0.7085  2.7077 -0.2153
 3650SOL    HW314333   2.913   4.862   3.890 -0.7525 -1.3523  1.6958
 3650SOL    MW414334   2.845   4.912   3.909  0.3531 -0.3986  0.1555
 3651SOL     OW14335   5.984   5.581   2.791  0.5435  0.2819 -0.4556
 3651SOL    HW214336   6.065   5.538   2.817 -0.1434 -1.3288 -0.8153
 3651SOL    HW314337   5.916   5.536   2.841 -0.3235  0.1088 -1.7198
 3651SOL    MW414338   5.986   5.569   2.801 -0.3942  0.0190 -0.0973
 3652SOL     OW14339   2.363   6.385   5.945  0.7536  0.3058  0.5671
 3652SOL    HW214340   2.342   6.308   5.998  0.4255 -0.3938 -0.5301
 3652SOL    HW314341   2.410   6.350   5.869 -1.5184  0.8124 -1.2061
 3652SOL    MW414342   2.366   6.370   5.942  0.0165 -0.3850  0.1308
 3653SOL     OW14343   3.881   3.163   5.547  0.2330 -0.2527 -0.0238
 3653SOL    HW214344   3.848   3.187   5.461  0.6672  0.5037  0.0145
 3653SOL    HW314345   3.976   3.174   5.541  0.3476 -0.9135  0.3320
 3653SOL    MW414346   3.889   3.167   5.535 -0.0047  0.1806  0.3352
 3654SOL     OW14347   5.451   2.919   2.196  0.0255  0.3472  0.2800
 3654SOL    HW214348   5.477   2.891   2.284 -1.3743 -0.1223  0.5689
 3654SOL    HW314349   5.373   2.972   2.210 -0.9952 -0.8189 -0.7624
 3654SOL    MW414350   5.444   2.923   2.209 -1.0510  0.2300 -0.5522
 3655SOL     OW14351   1.440   3.431   5.178  0.2122  0.6382  0.1564
 3655SOL    HW214352   1.472   3.367   5.242 -1.2394  0.6012  0.8976
 3655SOL    HW314353   1.450   3.515   5.222 -0.1083  0.6827  0.1468
 3655SOL    MW414354   1.445   3.433   5.193 -0.1040  0.0242  0.2375
 3656SOL     OW14355   2.513   6.018   6.332 -0.0552 -0.4978 -0.2283
 3656SOL    HW214356   2.511   6.074   6.410 -1.5974 -2.0349  0.9160
 3656SOL    HW314357   2.451   6.059   6.271 -2.3031 -1.6130  1.1684
 3656SOL    MW414358   2.505   6.031   6.334 -0.2507 -0.5005 -0.2900
 3657SOL     OW14359   2.486   6.013   3.462 -0.3523  0.2484  1.0936
 3657SOL    HW214360   2.422   6.026   3.532 -2.4396 -0.3060 -0.6333
 3657SOL    HW314361   2.434   5.991   3.385  1.8744  0.6428 -0.6218
 3657SOL    MW414362   2.471   6.012   3.461 -0.1156  0.2416  0.2818
 3658SOL     OW14363   3.314   3.723   4.823  0.0860 -0.0056 -0.0144
 3658SOL    HW214364   3.318   3.808   4.868  0.0398  0.8220 -1.5090
 3658SOL    HW314365   3.366   3.665   4.878  1.0817  1.2798  0.4764
 3658SOL    MW414366   3.322   3.727   4.836  0.4226 -0.2152  0.0951
 3659SOL     OW14367   3.832   2.822   4.205  0.4807  0.2840 -0.2499
 3659SOL    HW214368   3.809   2.884   4.136  1.8793 -0.1714 -1.1777
 3659SOL    HW314369   3.922   2.844   4.229 -0.3961  1.3391  2.4797
 3659SOL    MW414370   3.841   2.833   4.199 -0.2689  0.0948  0.1792
 3660SOL     OW14371   1.600   0.679   4.476 -0.2748 -0.3446  0.5686
 3660SOL    HW214372   1.530   0.684   4.542 -1.1237 -2.5264 -0.0866
 3660SOL    HW314373   1.558   0.703   4.394  0.0554 -0.4905  0.3560
 3660SOL    MW414374   1.586   0.683   4.474 -0.1890 -0.0548 -0.3262
 3661SOL     OW14375   4.445   4.244   6.354  0.0493  0.5547 -0.0067
 3661SOL    HW214376   4.431   4.338   6.365 -0.7264  0.3918  0.5216
 3661SOL    HW314377   4.539   4.231   6.369  0.6793  1.5625 -2.6217
 3661SOL    MW414378   4.456   4.254   6.358 -0.3062  0.6527  0.4844
 3662SOL     OW14379   1.816   1.251   2.953 -0.1391 -0.1886 -0.4745
 3662SOL    HW214380   1.899   1.283   2.916 -0.4466 -0.2664 -1.2646
 3662SOL    HW314381   1.793   1.315   3.020  0.9261 -0.5544  0.2660
 3662SOL    MW414382   1.824   1.264   2.957 -0.1005 -0.0925  0.1441
 3663SOL     OW14383   3.051   5.101   2.728  0.0447  0.5819 -0.2756
 3663SOL    HW214384   3.099   5.144   2.798  1.5430  2.5620 -2.3770
 3663SOL    HW314385   3.094   5.129   2.648 -0.6332 -2.7499 -2.0003
 3663SOL    MW414386   3.063   5.110   2.727  0.8386 -0.1126  0.2534
 3664SOL     OW14387   1.919   0.406   0.274 -0.0496  0.2803  0.3993
 3664SOL    HW214388   1.895   0.369   0.359 -0.3186  1.1210  0.7063
 3664SOL    HW314389   1.993   0.353   0.244  0.6783  0.5738  1.6189
 3664SOL    MW414390   1.926   0.395   0.281 -0.2156  0.2391 -0.3234
 3665SOL     OW14391   0.022   4.029   3.956 -0.1703  0.1425 -1.1079
 3665SOL    HW214392   0.015   4.037   3.861 -0.2367 -1.9747 -1.3274
 3665SOL    HW314393  -0.069   4.020   3.986 -0.1102  0.2078 -0.9025
 3665SOL    MW414394   0.009   4.029   3.947  0.0097 -0.0931 -0.2139
 3666SOL     OW14395   6.367   2.154   6.278 -0.0483  0.2812  0.3435
 3666SOL    HW214396   6.298   2.176   6.216 -0.8801  0.7594  1.4113
 3666SOL    HW314397   6.320   2.127   6.357  0.9944  0.8124  1.1588
 3666SOL    MW414398   6.351   2.153   6.280  0.0992  0.2807  0.2893
 3667SOL     OW14399   3.320   2.196   1.102  0.0761  0.1168  0.4454
 3667SOL    HW214400   3.313   2.136   1.175  1.0474 -0.7031 -0.1081
 3667SOL    HW314401   3.339   2.281   1.142  1.7287 -0.5284  1.1207
 3667SOL    MW414402   3.322   2.200   1.117 -0.2777 -0.9891  0.4755
 3668SOL     OW14403   1.715   0.461   0.077  0.6057  0.3218 -0.2288
 3668SOL    HW214404   1.793   0.472   0.132  2.4054 -1.1920 -2.3280
 3668SOL    HW314405   1.734   0.513  -0.001 -0.8737  0.5936 -0.4195
 3668SOL    MW414406   1.728   0.469   0.074  0.6015 -0.5391 -0.2569
 3669SOL     OW14407   0.418   6.271   3.855 -0.6617 -0.0262  0.5017
 3669SOL    HW214408   0.394   6.332   3.925 -1.5360 -0.2817  0.4364
 3669SOL    HW314409   0.490   6.315   3.809  0.6980 -0.3483  2.2179
 3669SOL    MW414410   0.425   6.285   3.858 -0.5807 -0.6582 -0.7846
 3670SOL     OW14411   5.247   2.567   0.305 -0.6098 -0.3439 -0.0196
 3670SOL    HW214412   5.324   2.517   0.331  1.2069  2.4791  0.5360
 3670SOL    HW314413   5.254   2.573   0.210 -0.8077 -1.0533 -0.0841
 3670SOL    MW414414   5.258   2.562   0.296  0.0109  0.4116  0.4439
 3671SOL     OW14415   5.623   2.408   5.305 -0.5895 -0.5591 -0.0060
 3671SOL    HW214416   5.697   2.348   5.305 -0.1227 -0.0055 -0.9695
 3671SOL    HW314417   5.547   2.354   5.324  0.0787 -1.1016  1.2488
 3671SOL    MW414418   5.623   2.393   5.308 -0.3095  0.3437  0.4609
 3672SOL     OW14419   0.492   2.562   3.234  0.0584  0.0297  0.4637
 3672SOL    HW214420   0.523   2.652   3.243  1.8538 -0.6373  1.4499
 3672SOL    HW314421   0.470   2.535   3.324 -2.7461  0.1911 -0.0854
 3672SOL    MW414422   0.493   2.570   3.247  0.0567 -0.1339  0.1471
 3673SOL     OW14423   0.156   3.085   5.107 -0.3648 -0.1461 -0.5024
 3673SOL    HW214424   0.248   3.100   5.085  0.7035 -0.1590  3.2095
 3673SOL    HW314425   0.119   3.172   5.117 -0.3393 -0.1333 -0.5180
 3673SOL    MW414426   0.163   3.098   5.106  0.3697  0.1366  0.1193
 3674SOL     OW14427   1.033   4.219   3.084 -0.3141  0.6648  0.0782
 3674SOL    HW214428   0.979   4.272   3.025  1.8294  0.9924 -1.7519
 3674SOL    HW314429   1.117   4.265   3.087  0.0063  0.0472  2.5789
 3674SOL    MW414430   1.037   4.232   3.077 -0.4018 -0.4284  0.1720
 3675SOL     OW14431   0.752   3.047   5.564  0.5876  0.0673 -0.6492
 3675SOL    HW214432   0.795   2.962   5.557 -0.7012 -0.7347  0.6283
 3675SOL    HW314433   0.818   3.110   5.533  2.6490 -1.0899  1.0619
 3675SOL    MW414434   0.767   3.044   5.559  1.0786  0.2636 -0.2281
 3676SOL     OW14435   1.243   1.212   3.152  0.2282  0.1927 -0.4569
 3676SOL    HW214436   1.194   1.161   3.087  0.1259 -0.4370  0.1026
 3676SOL    HW314437   1.209   1.301   3.142 -1.7731 -0.3953  0.5674
 3676SOL    MW414438   1.232   1.217   3.142  0.6161 -0.2377  0.4148
 3677SOL     OW14439   3.110   5.182   3.317 -0.6168  0.4498  0.3214
 3677SOL    HW214440   3.059   5.165   3.397 -1.5666  2.4175  0.1927
 3677SOL    HW314441   3.201   5.167   3.343 -0.9574  0.4363  1.6084
 3677SOL    MW414442   3.115   5.178   3.331 -0.2596 -0.2216  0.1500
 3678SOL     OW14443   1.890   1.853   3.433 -0.3700 -0.2935  0.2938
 3678SOL    HW214444   1.814   1.843   3.491 -0.6544 -0.3496 -0.0790
 3678SOL    HW314445   1.954   1.902   3.485 -0.1878 -1.2910  1.0413
 3678SOL    MW414446   1.888   1.858   3.447 -0.2179  0.2388  0.3979
 3679SOL     OW14447   6.347   6.272   0.689 -0.0466 -0.1051 -0.4398
 3679SOL    HW214448   6.335   6.366   0.697 -1.5496 -0.3387  0.5739
 3679SOL    HW314449   6.340   6.239   0.779  1.7641 -1.0678 -0.6027
 3679SOL    MW414450   6.344   6.280   0.702  0.2936  0.4345  0.0726
 3680SOL     OW14451   1.714   5.169   6.020 -0.1742  0.0379  0.4070
 3680SOL    HW214452   1.623   5.137   6.022 -0.0965 -0.1274  1.5143
 3680SOL    HW314453   1.764   5.104   6.069  0.5228  0.2245 -0.0363
 3680SOL    MW414454   1.708   5.156   6.026  0.0654  0.3635 -0.0114
 3681SOL     OW14455   1.314   2.831   2.548 -0.6175  0.4974  0.1494
 3681SOL    HW214456   1.390   2.889   2.542 -0.9609  0.9706  0.3236
 3681SOL    HW314457   1.350   2.743   2.536  0.0174  0.6826  0.6648
 3681SOL    MW414458   1.329   2.827   2.546  0.0903 -0.6803 -0.8167
 3682SOL     OW14459   5.257   1.101   2.415 -0.4688 -0.1529 -0.0462
 3682SOL    HW214460   5.197   1.161   2.372 -1.1476  2.0102  3.5269
 3682SOL    HW314461   5.203   1.054   2.479  0.9506 -0.9513  0.6172
 3682SOL    MW414462   5.242   1.102   2.418 -0.6804  0.0320 -0.5226
 3683SOL     OW14463   0.211   2.662   3.574  0.4930  0.0509  1.0187
 3683SOL    HW214464   0.295   2.621   3.557  0.7849  1.4761 -1.5399
 3683SOL    HW314465   0.158   2.643   3.496 -0.7233  1.1277  1.5289
 3683SOL    MW414466   0.215   2.654   3.561 -0.8712  0.1902  0.5599
 3684SOL     OW14467   2.223   6.167   2.145  0.1760 -0.1097  0.4497
 3684SOL    HW214468   2.191   6.162   2.055 -0.7914 -0.4450  0.8065
 3684SOL    HW314469   2.294   6.103   2.149  0.8943  0.6073 -0.3311
 3684SOL    MW414470   2.229   6.158   2.134  0.2701 -0.0064 -0.4858
 3685SOL     OW14471   3.287   0.633   4.608  0.3255  0.5950 -0.0979
 3685SOL    HW214472   3.360   0.662   4.664  0.4730  2.1094 -1.0259
 3685SOL    HW314473   3.329   0.584   4.537  0.3927  1.0085 -0.3443
 3685SOL    MW414474   3.302   0.630   4.606 -0.2449  0.3071 -0.1302
 3686SOL     OW14475   3.611   5.192   1.218 -0.0534  0.7677  0.4324
 3686SOL    HW214476   3.523   5.217   1.191  0.0992  2.5713  1.5171
 3686SOL    HW314477   3.608   5.190   1.314  1.5376  2.7361  0.5769
 3686SOL    MW414478   3.599   5.195   1.227 -0.1594 -0.0466  0.2230
 3687SOL     OW14479   3.302   5.053   4.929 -0.1306  0.1996  0.1741
 3687SOL    HW214480   3.288   5.115   4.857  0.2784 -0.3035 -0.3502
 3687SOL    HW314481   3.214   5.021   4.950 -0.5396  1.9169  1.3619
 3687SOL    MW414482   3.288   5.057   4.922  0.4717  0.1029 -0.2980
 3688SOL     OW14483   4.002   2.881   1.274  0.1809 -0.3233  0.1291
 3688SOL    HW214484   4.028   2.789   1.265  0.2701 -0.2832 -0.0300
 3688SOL    HW314485   3.929   2.879   1.336  1.0912 -0.3619  1.2533
 3688SOL    MW414486   3.996   2.868   1.281  0.4453 -0.6213  0.2062
 3689SOL     OW14487   3.349   5.180   1.294 -0.1663 -0.2506 -0.5876
 3689SOL    HW214488   3.316   5.267   1.317  0.9128 -0.0510  0.3146
 3689SOL    HW314489   3.415   5.161   1.361  2.3520 -0.1313 -2.8613
 3689SOL    MW414490   3.354   5.189   1.306 -0.0292 -0.5718  0.3538
 3690SOL     OW14491   4.638   5.899   5.638  0.4246 -0.2404  0.0675
 3690SOL    HW214492   4.565   5.946   5.678 -0.3776 -0.3841 -1.1924
 3690SOL    HW314493   4.597   5.836   5.579  1.5593 -0.4574 -0.5207
 3690SOL    MW414494   4.623   5.897   5.636  0.4185 -0.2025  0.5177
 3691SOL     OW14495   3.293   4.075   1.821  0.0683 -0.0699 -0.0406
 3691SOL    HW214496   3.329   4.061   1.734 -2.2069 -2.1454 -0.7730
 3691SOL    HW314497   3.198   4.075   1.808 -0.3195  0.7361  2.2972
 3691SOL    MW414498   3.285   4.073   1.808 -0.6089  0.4429 -0.0352
 3692SOL     OW14499   0.591   1.106   4.623  0.2222 -0.1062  0.2831
 3692SOL    HW214500   0.541   1.075   4.547  1.4022  0.9609 -0.9886
 3692SOL    HW314501   0.671   1.054   4.622  0.3072  0.0160  0.6909
 3692SOL    MW414502   0.595   1.095   4.613 -0.0794 -0.0453  0.0952
 3693SOL     OW14503   0.278   5.391   4.301  0.1130  0.9592  0.6915
 3693SOL    HW214504   0.280   5.419   4.393 -0.3223 -0.6610  1.2185
 3693SOL    HW314505   0.228   5.309   4.301 -1.6061  1.9009 -1.2723
 3693SOL    MW414506   0.271   5.384   4.313 -0.1281  0.1702  0.0799
 3694SOL     OW14507   0.059   4.992   3.491 -0.3929 -0.1897 -0.1078
 3694SOL    HW214508   0.097   4.908   3.515 -2.5936 -0.5893  2.3893
 3694SOL    HW314509   0.027   5.029   3.573 -1.2503  2.2248 -1.3998
 3694SOL    MW414510   0.060   4.986   3.505 -0.2226  0.1690  0.6675
 3695SOL     OW14511   4.980   0.440   3.331  0.3392  0.4188 -0.1738
 3695SOL    HW214512   5.048   0.432   3.398 -0.4298 -1.5036  0.4522
 3695SOL    HW314513   4.930   0.517   3.358  0.0312 -0.3198  1.5143
 3695SOL    MW414514   4.983   0.449   3.344  0.4067 -0.1255 -0.0299
 3696SOL     OW14515   0.153   0.486   2.415 -0.1191  0.1611  0.1537
 3696SOL    HW214516   0.150   0.408   2.361 -0.0760  0.3167 -0.0739
 3696SOL    HW314517   0.090   0.546   2.374  0.9213  0.8050 -0.5333
 3696SOL    MW414518   0.144   0.484   2.403  0.1253 -0.7250  0.1564
 3697SOL     OW14519   3.000   6.091   1.166 -0.1062 -0.2602 -0.6188
 3697SOL    HW214520   3.059   6.166   1.174 -1.4956  0.7027  1.3785
 3697SOL    HW314521   2.958   6.103   1.081  0.0641  0.9744 -0.5561
 3697SOL    MW414522   3.002   6.103   1.156 -0.3932 -0.6982 -0.8383
 3698SOL     OW14523   0.799   2.423   0.757 -0.2307 -0.3037 -0.3303
 3698SOL    HW214524   0.710   2.390   0.747  0.3391 -1.4768 -2.2048
 3698SOL    HW314525   0.809   2.486   0.685  0.8854 -1.3203 -1.1130
 3698SOL    MW414526   0.789   2.427   0.746  0.5444 -0.3112  0.5581
 3699SOL     OW14527   6.020   4.876   5.479  0.6458 -0.1922  0.6625
 3699SOL    HW214528   5.960   4.844   5.411 -0.7949 -0.5692  2.0572
 3699SOL    HW314529   5.967   4.937   5.530  1.3655 -0.7098  2.0811
 3699SOL    MW414530   6.005   4.880   5.476 -0.3964 -0.4308  0.1922
 3700SOL     OW14531   2.586   1.431   1.010  0.0202  0.0050  0.0306
 3700SOL    HW214532   2.590   1.524   0.989  0.3865 -0.0777 -0.2885
 3700SOL    HW314533   2.573   1.388   0.925 -0.2286 -0.2289  0.1839
 3700SOL    MW414534   2.584   1.437   0.996  0.9378  0.0295  0.3194
 3701SOL     OW14535   2.679   4.979   4.120 -0.5361 -0.2402  0.4481
 3701SOL    HW214536   2.594   4.952   4.153 -0.4688 -1.0455  0.0029
 3701SOL    HW314537   2.669   5.072   4.100 -1.3426 -0.3553  0.2807
 3701SOL    MW414538   2.667   4.987   4.122  0.3762 -0.3531  0.1275
 3702SOL     OW14539   1.183   2.934   5.509 -0.1146 -0.1559 -0.5876
 3702SOL    HW214540   1.177   2.925   5.413 -0.6502 -2.9059 -0.3835
 3702SOL    HW314541   1.232   2.856   5.536  0.8495  1.0662  1.3327
 3702SOL    MW414542   1.189   2.922   5.500  0.8206 -0.2401 -0.6776
 3703SOL     OW14543   0.292   6.401   0.452  0.1709 -0.6172  1.0696
 3703SOL    HW214544   0.358   6.334   0.437 -0.9490 -1.6731  0.7782
 3703SOL    HW314545   0.300   6.421   0.546  1.2400 -0.3345  0.9381
 3703SOL    MW414546   0.302   6.395   0.463 -0.0161 -0.0081  0.2834
 3704SOL     OW14547   3.111   2.596   4.519 -0.0926 -0.6573 -0.1314
 3704SOL    HW214548   3.167   2.590   4.441 -1.4616  0.0918 -1.2153
 3704SOL    HW314549   3.136   2.680   4.558  1.5097 -1.6081  1.0282
 3704SOL    MW414550   3.122   2.607   4.514  0.3550  0.2085 -0.0186
 3705SOL     OW14551   4.360   4.773   0.917 -0.1458  0.0337 -0.1872
 3705SOL    HW214552   4.434   4.802   0.864 -0.3232  0.3373 -0.2695
 3705SOL    HW314553   4.283   4.799   0.867 -0.3068 -0.5569 -0.2508
 3705SOL    MW414554   4.360   4.780   0.903  0.0186 -0.0640 -0.1913
 3706SOL     OW14555   2.782   5.898   5.316  0.0488  0.6233 -0.1901
 3706SOL    HW214556   2.748   5.928   5.232 -0.9284  1.6812  0.5433
 3706SOL    HW314557   2.799   5.978   5.365  2.6685  0.0968 -0.1178
 3706SOL    MW414558   2.780   5.912   5.311  0.2906  0.0104  0.3948
 3707SOL     OW14559   2.944   0.235   3.956  0.6471 -0.2551 -0.0501
 3707SOL    HW214560   2.874   0.176   3.983  0.8573 -0.2996  0.4222
 3707SOL    HW314561   3.011   0.177   3.918 -0.0064 -0.1089 -1.4787
 3707SOL    MW414562   2.944   0.219   3.955  0.1022  0.0779 -0.2501
 3708SOL     OW14563   5.616   3.357   2.243  0.0572 -0.1123  0.2910
 3708SOL    HW214564   5.706   3.384   2.224 -0.7441  2.2838 -0.4679
 3708SOL    HW314565   5.625   3.275   2.291  2.7312  0.9232  1.7642
 3708SOL    MW414566   5.629   3.350   2.247  0.1144  0.1710 -0.2254
 3709SOL     OW14567   3.050   1.033   4.905  0.0688  0.3163 -0.3461
 3709SOL    HW214568   3.009   1.043   4.991 -0.1651 -3.0637  0.0825
 3709SOL    HW314569   3.011   0.953   4.870  3.0608 -0.6200 -1.8362
 3709SOL    MW414570   3.039   1.024   4.912 -0.1010 -0.1932 -0.5897
 3710SOL     OW14571   5.681   5.009   1.530 -0.1858 -0.2222  0.0760
 3710SOL    HW214572   5.755   4.997   1.472  0.8177  0.3981  1.1689
 3710SOL    HW314573   5.664   5.103   1.528 -0.6727 -0.3047  0.1536
 3710SOL    MW414574   5.689   5.020   1.522 -0.3076 -0.1915  0.1849
 3711SOL     OW14575   5.650   3.925   4.331 -0.6627  0.2260  0.3735
 3711SOL    HW214576   5.682   3.883   4.252  3.6030  4.5263 -0.6793
 3711SOL    HW314577   5.572   3.972   4.303  1.3784  2.6012 -1.9029
 3711SOL    MW414578   5.644   3.926   4.317 -0.4231  0.4078 -0.0800
 3712SOL     OW14579   4.669   1.037   0.523  0.3257 -0.1042  0.4740
 3712SOL    HW214580   4.643   0.945   0.535 -1.8923  0.4790  0.5730
 3712SOL    HW314581   4.609   1.070   0.457  0.7460  1.4223  0.8298
 3712SOL    MW414582   4.657   1.029   0.516 -0.5193  0.0024 -0.1428
 3713SOL     OW14583   2.772   5.429   3.534 -0.1329 -0.1663  0.1876
 3713SOL    HW214584   2.763   5.374   3.456 -0.0300 -0.3577  0.3122
 3713SOL    HW314585   2.693   5.484   3.533  0.2224  0.3500 -0.4560
 3713SOL    MW414586   2.760   5.429   3.524 -0.2171  0.0762 -0.1855
 3714SOL     OW14587   2.604   1.683   5.741 -0.4168 -0.1446  0.0194
 3714SOL    HW214588   2.570   1.600   5.774 -1.2806 -0.0781 -0.6661
 3714SOL    HW314589   2.527   1.738   5.731 -0.1162  0.0391 -1.4980
 3714SOL    MW414590   2.589   1.679   5.744  0.4316  0.4096 -0.1248
 3715SOL     OW14591   5.256   5.620   5.478  0.5258 -0.0785  0.6051
 3715SOL    HW214592   5.211   5.536   5.482 -3.0534  1.6349  0.2559
 3715SOL    HW314593   5.248   5.656   5.566 -0.5099  1.0161  0.0991
 3715SOL    MW414594   5.249   5.614   5.490  0.1226 -0.7995 -0.4267
 3716SOL     OW14595   1.717   6.389   5.816 -0.6700  0.4232 -0.5278
 3716SOL    HW214596   1.745   6.452   5.749  5.2981  0.0378  1.0525
 3716SOL    HW314597   1.707   6.306   5.769 -0.5287  0.9391 -1.4825
 3716SOL    MW414598   1.719   6.386   5.801  0.0788 -0.7782  0.1689
 3717SOL     OW14599   0.189   0.492   5.380 -0.1087 -0.3890 -0.1878
 3717SOL    HW214600   0.113   0.453   5.336 -0.0947 -1.4465  0.6938
 3717SOL    HW314601   0.156   0.521   5.465  0.0037  1.0973 -0.6195
 3717SOL    MW414602   0.175   0.491   5.385 -0.6451 -0.1392  0.2702
 3718SOL     OW14603   4.413   2.916   2.253 -0.0747 -0.5066 -0.2433
 3718SOL    HW214604   4.467   2.865   2.314 -1.9304 -0.4864  1.5369
 3718SOL    HW314605   4.391   2.996   2.302 -1.1625 -0.2302 -1.1461
 3718SOL    MW414606   4.417   2.920   2.268 -0.2668 -0.3744 -0.5318
 3719SOL     OW14607   4.634   3.066   4.280  0.5068  0.2535 -0.4152
 3719SOL    HW214608   4.614   3.013   4.357 -0.6022 -0.9803 -1.5074
 3719SOL    HW314609   4.722   3.101   4.297  0.2454  0.0949  1.4266
 3719SOL    MW414610   4.643   3.064   4.292  0.2354  0.0294 -0.6824
 3720SOL     OW14611   5.952   5.853   5.908 -0.0748 -0.4192  0.2270
 3720SOL    HW214612   5.970   5.870   6.000  0.8549  0.5199 -0.1105
 3720SOL    HW314613   5.888   5.920   5.883 -0.9483 -1.1707  0.3707
 3720SOL    MW414614   5.946   5.864   5.917 -0.1865  0.4370  0.0846
 3721SOL     OW14615   1.593   0.484   1.685 -0.0090 -0.2975 -0.0662
 3721SOL    HW214616   1.618   0.463   1.775  0.3178 -0.6974 -0.2436
 3721SOL    HW314617   1.585   0.580   1.684 -0.5987 -0.3374  0.5292
 3721SOL    MW414618   1.595   0.494   1.696 -0.3335  0.1259 -0.2136
 3722SOL     OW14619   0.928   1.234   6.229 -0.0042 -0.0613  0.3466
 3722SOL    HW214620   0.930   1.204   6.138 -2.2305  0.1490  0.1942
 3722SOL    HW314621   0.898   1.158   6.278 -1.3531  0.5859  0.5455
 3722SOL    MW414622   0.924   1.220   6.223  0.2159  0.8178  0.0774
 3723SOL     OW14623   3.651   3.947   6.038  0.0953 -0.4285 -0.2964
 3723SOL    HW214624   3.657   3.888   6.113 -0.2882 -1.0807 -0.7709
 3723SOL    HW314625   3.733   3.996   6.039  0.9065 -1.7256 -0.5138
 3723SOL    MW414626   3.663   3.946   6.048 -0.4045 -0.3682 -0.2182
 3724SOL     OW14627   4.974   6.375   1.940 -0.2424 -0.3732 -0.3493
 3724SOL    HW214628   5.016   6.303   1.987  0.9729 -0.8000 -1.9649
 3724SOL    HW314629   4.884   6.346   1.926  0.2712 -1.6760 -1.1015
 3724SOL    MW414630   4.968   6.362   1.944  0.7792 -0.5023 -0.0130
 3725SOL     OW14631   1.256   1.855   1.180 -0.0001 -0.3514 -0.0624
 3725SOL    HW214632   1.175   1.804   1.180 -0.3921  0.2387 -1.4303
 3725SOL    HW314633   1.228   1.946   1.177  0.6681 -0.1527 -1.7711
 3725SOL    MW414634   1.242   1.860   1.179 -0.4099  0.4969 -0.3707
 3726SOL     OW14635   0.708   3.150   3.229 -0.2821  0.3160 -0.3233
 3726SOL    HW214636   0.760   3.209   3.284 -0.9857 -0.1227  0.8613
 3726SOL    HW314637   0.765   3.076   3.212  0.0248  0.5661 -0.3934
 3726SOL    MW414638   0.722   3.148   3.234  0.7683  0.0715  0.0850
 3727SOL     OW14639   5.582   2.890   5.199  0.0213  0.3707 -0.2257
 3727SOL    HW214640   5.580   2.823   5.267  0.5203  1.1239  0.5499
 3727SOL    HW314641   5.666   2.878   5.155  0.2830  0.7239  0.1689
 3727SOL    MW414642   5.592   2.879   5.202  0.1196  0.3634  0.2140
 3728SOL     OW14643   6.339   5.842   3.783  0.7759 -0.0430  0.3797
 3728SOL    HW214644   6.374   5.855   3.695  0.8489 -3.5607 -0.2508
 3728SOL    HW314645   6.394   5.774   3.821 -1.2502 -0.9460  1.8991
 3728SOL    MW414646   6.351   5.835   3.776  0.0968 -0.0634 -0.0353
 3729SOL     OW14647   0.268   0.369   5.016  0.1196 -0.3445  0.3428
 3729SOL    HW214648   0.257   0.287   4.969 -2.7022  0.5313 -0.7709
 3729SOL    HW314649   0.215   0.360   5.095  0.8844 -0.0522  0.9074
 3729SOL    MW414650   0.260   0.357   5.020 -0.2358 -0.1642 -0.1406
 3730SOL     OW14651   0.103   1.554   4.437 -0.2301 -0.1508  0.3524
 3730SOL    HW214652   0.084   1.637   4.394 -0.1618 -0.2740  0.0772
 3730SOL    HW314653   0.119   1.493   4.365  0.7955 -0.1459  0.5496
 3730SOL    MW414654   0.103   1.556   4.422 -0.0842  0.5918  0.2873
 3731SOL     OW14655   5.529   6.167   1.865  0.2273 -0.1593 -1.0876
 3731SOL    HW214656   5.438   6.145   1.848  0.2878 -0.9053 -0.4761
 3731SOL    HW314657   5.525   6.253   1.909 -0.2228 -0.4855 -0.4816
 3731SOL    MW414658   5.517   6.176   1.869  0.6238 -0.6318 -0.1496
 3732SOL     OW14659   6.127   3.125   1.060 -0.2585 -0.2592  0.1759
 3732SOL    HW214660   6.057   3.169   1.012  0.0326 -0.7936 -0.7688
 3732SOL    HW314661   6.087   3.100   1.144 -1.1994 -0.5387 -0.3410
 3732SOL    MW414662   6.112   3.127   1.065  0.2817 -0.1534 -0.2661
 3733SOL     OW14663   1.426   5.642   5.971  0.1075  0.6143 -0.7430
 3733SOL    HW214664   1.371   5.710   6.010 -0.5321  0.0151 -0.5647
 3733SOL    HW314665   1.510   5.685   5.954  0.3083  0.9792  1.0076
 3733SOL    MW414666   1.430   5.657   5.974  0.2200  0.0120 -0.2241
 3734SOL     OW14667   0.800   4.052   1.449 -0.0680 -0.1239  0.3934
 3734SOL    HW214668   0.776   3.972   1.496  0.4698  0.2087  1.2513
 3734SOL    HW314669   0.726   4.111   1.461 -0.2367 -0.2994  0.2151
 3734SOL    MW414670   0.787   4.049   1.457  0.3073 -0.1833 -0.0025
 3735SOL     OW14671   1.653   0.768   3.995 -0.4123 -0.5977  0.4993
 3735SOL    HW214672   1.573   0.767   3.942 -0.8454 -2.4438  1.1184
 3735SOL    HW314673   1.665   0.860   4.018 -1.7814 -0.1455 -0.4480
 3735SOL    MW414674   1.644   0.780   3.991  0.3576 -1.1684 -0.3843
 3736SOL     OW14675   1.372   5.261   5.657 -0.1722 -0.4989  0.1093
 3736SOL    HW214676   1.277   5.260   5.647 -0.1868 -0.3377  0.2323
 3736SOL    HW314677   1.396   5.170   5.675  0.0136 -1.1645 -2.9109
 3736SOL    MW414678   1.363   5.249   5.658  0.1626 -0.1234 -0.0432
 3737SOL     OW14679   5.148   0.998   0.285 -0.5176 -0.2116  0.0105
 3737SOL    HW214680   5.089   1.060   0.241 -1.9753 -1.3569  0.2761
 3737SOL    HW314681   5.188   1.049   0.355 -1.9216  0.3865  0.4209
 3737SOL    MW414682   5.146   1.013   0.288 -0.6186 -0.2721  0.1774
 3738SOL     OW14683   3.099   0.898   1.190 -0.0430 -0.5638  0.3800
 3738SOL    HW214684   3.171   0.961   1.201 -0.4782  1.0596 -4.1528
 3738SOL    HW314685   3.021   0.952   1.185 -1.1442 -1.9941  1.3311
 3738SOL    MW414686   3.098   0.914   1.191  0.3650  0.0139  0.9785
 3739SOL     OW14687   5.033   0.176   6.357  0.0099  0.0893 -0.2475
 3739SOL    HW214688   4.994   0.208   6.276  0.6430 -1.6389 -1.2734
 3739SOL    HW314689   5.043   0.082   6.344  2.2732  0.0986  0.9325
 3739SOL    MW414690   5.029   0.168   6.345 -0.4907 -0.0688 -0.3384
 3740SOL     OW14691   2.189   2.492   5.912 -0.5707  0.8075 -0.1645
 3740SOL    HW214692   2.249   2.566   5.904 -0.1727  0.2743 -2.6398
 3740SOL    HW314693   2.243   2.415   5.899 -1.4884  0.2359 -0.6948
 3740SOL    MW414694   2.204   2.492   5.909 -0.0754 -0.0904  0.2439
 3741SOL     OW14695   2.125   2.754   5.533  0.0828  0.0571 -0.2450
 3741SOL    HW214696   2.035   2.784   5.515  0.3668  1.3505  0.3829
 3741SOL    HW314697   2.180   2.810   5.479  0.7915  2.4494  2.6626
 3741SOL    MW414698   2.120   2.765   5.524  0.3160 -0.5151 -0.1905
 3742SOL     OW14699   1.615   6.262   0.263 -0.0721  0.5347 -0.5638
 3742SOL    HW214700   1.688   6.200   0.256 -0.7231 -0.2145 -0.8672
 3742SOL    HW314701   1.546   6.214   0.308 -1.1006  0.5414 -2.0506
 3742SOL    MW414702   1.615   6.248   0.268 -0.4099  0.3590 -0.1264
 3743SOL     OW14703   3.731   6.308   4.629 -0.4047 -0.1124 -0.5929
 3743SOL    HW214704   3.697   6.219   4.632  0.2028 -0.3382  0.0949
 3743SOL    HW314705   3.752   6.323   4.537 -2.8664  0.2628 -1.1633
 3743SOL    MW414706   3.729   6.298   4.618 -0.1196  0.2258 -0.0136
 3744SOL     OW14707   2.750   4.252   1.722 -0.6786 -0.1219 -0.6702
 3744SOL    HW214708   2.736   4.202   1.641 -2.2467  2.2875 -1.9822
 3744SOL    HW314709   2.838   4.290   1.711 -1.6367  1.8112 -2.2648
 3744SOL    MW414710   2.760   4.250   1.710  0.0206  0.0227 -0.3246
 3745SOL     OW14711   1.493   6.152   2.968 -0.6245  0.0379  0.3084
 3745SOL    HW214712   1.575   6.103   2.967 -0.3301  0.5105 -0.9803
 3745SOL    HW314713   1.489   6.194   2.882 -1.2836  1.5836  1.0510
 3745SOL    MW414714   1.503   6.151   2.956 -0.0348  0.1263  0.1714
 3746SOL     OW14715   5.104   3.551   0.193  0.1499 -0.6217 -0.0806
 3746SOL    HW214716   5.011   3.575   0.189  0.0133 -0.9008  1.0150
 3746SOL    HW314717   5.121   3.541   0.287  1.1498 -1.1173 -0.3120
 3746SOL    MW414718   5.094   3.553   0.205 -0.1808  0.5446  0.2482
 3747SOL     OW14719   5.666   4.365   4.500  0.8565  0.0984  0.5665
 3747SOL    HW214720   5.724   4.292   4.525  2.1812  1.0553  0.4069
 3747SOL    HW314721   5.721   4.421   4.445 -0.7245  0.2443 -0.9286
 3747SOL    MW414722   5.681   4.363   4.496  0.4198 -0.1938  0.1891
 3748SOL     OW14723   3.932   1.855   6.195  0.2685 -0.1442  0.2348
 3748SOL    HW214724   3.880   1.796   6.141 -0.1591  1.0421 -0.7169
 3748SOL    HW314725   3.872   1.886   6.262  1.1455 -2.6339  2.3103
 3748SOL    MW414726   3.917   1.852   6.197  0.3451  0.2901 -0.5750
 3749SOL     OW14727   2.038   2.797   5.188  0.0253  0.3142 -0.0255
 3749SOL    HW214728   1.970   2.731   5.202  0.0598  0.1076 -0.7835
 3749SOL    HW314729   1.995   2.865   5.135  0.4183  0.1528 -0.5635
 3749SOL    MW414730   2.023   2.798   5.183 -0.2851  0.4673  0.1186
 3750SOL     OW14731   4.205   3.772   4.642  0.2594  0.5787 -0.3230
 3750SOL    HW214732   4.196   3.852   4.590  0.1616  1.8563  1.5436
 3750SOL    HW314733   4.188   3.800   4.732  3.1336 -0.8984  0.8258
 3750SOL    MW414734   4.202   3.786   4.647 -0.2732  0.7537  0.4849
 3751SOL     OW14735   6.208   2.606   0.813  0.0766 -0.1085 -1.1033
 3751SOL    HW214736   6.275   2.575   0.874 -1.2985  0.7329  0.9339
 3751SOL    HW314737   6.194   2.698   0.838 -2.1619 -0.3902 -1.0994
 3751SOL    MW414738   6.215   2.614   0.824  0.3722 -0.1417  0.1035
 3752SOL     OW14739   4.529   0.052   2.824  0.0723 -0.2875 -0.2047
 3752SOL    HW214740   4.600   0.071   2.763  0.3608 -0.9733 -0.0917
 3752SOL    HW314741   4.556  -0.028   2.870 -0.7121 -0.4950 -0.0715
 3752SOL    MW414742   4.542   0.044   2.822  0.5475 -0.3794  0.1162
 3753SOL     OW14743   0.638   0.624   0.755  0.3758  0.1043  0.1042
 3753SOL    HW214744   0.589   0.601   0.676 -2.1458  0.2032  1.5136
 3753SOL    HW314745   0.679   0.708   0.735  0.5267 -0.3029 -1.3714
 3753SOL    MW414746   0.637   0.632   0.742  0.1906  0.2655 -0.0533
 3754SOL     OW14747   1.969   4.467   5.600  0.3732 -0.3806  0.2853
 3754SOL    HW214748   2.036   4.529   5.628 -0.6812  0.6970  0.5016
 3754SOL    HW314749   2.008   4.381   5.616  2.3737  0.1640 -1.1670
 3754SOL    MW414750   1.983   4.464   5.606  0.2984 -0.7170  0.2096
 3755SOL     OW14751   2.321   1.926   1.535  0.3727 -0.2727 -0.0939
 3755SOL    HW214752   2.340   2.020   1.540  0.0249 -0.2666  2.5251
 3755SOL    HW314753   2.389   1.891   1.478 -1.0305  1.8681 -3.3985
 3755SOL    MW414754   2.332   1.934   1.528 -0.4904  0.6568  0.9895
 3756SOL     OW14755   3.996   3.953   4.284 -0.5721 -0.0413  0.0071
 3756SOL    HW214756   3.956   3.894   4.347  0.6743 -0.8121  0.1157
 3756SOL    HW314757   3.978   3.914   4.199  0.1171 -0.5290  0.0704
 3756SOL    MW414758   3.989   3.940   4.281  0.1780  0.5103 -0.8338
 3757SOL     OW14759   4.917   6.092   2.811  0.4521  0.1854 -0.7794
 3757SOL    HW214760   4.939   6.137   2.892  2.8744 -0.2098 -1.1429
 3757SOL    HW314761   4.837   6.042   2.832 -0.2822  1.8653  0.6269
 3757SOL    MW414762   4.909   6.091   2.825 -0.2296 -0.0064 -0.0360
 3758SOL     OW14763   5.021   3.590   1.952 -0.0671  0.4155  0.0299
 3758SOL    HW214764   5.102   3.568   1.906  0.8893 -0.8135  2.1628
 3758SOL    HW314765   5.042   3.668   2.002 -0.9171  1.3778 -1.0390
 3758SOL    MW414766   5.034   3.597   1.952 -0.0670 -0.3229  0.2717
 3759SOL     OW14767   2.236   0.525   0.540 -0.8290  0.2360  0.6528
 3759SOL    HW214768   2.310   0.565   0.585  0.6384  2.0753 -2.9295
 3759SOL    HW314769   2.164   0.587   0.553  0.1547  1.8399 -1.0329
 3759SOL    MW414770   2.236   0.538   0.547  0.0587 -0.0989  0.2949
 3760SOL     OW14771   4.269   5.113   1.835  0.0142 -0.0045  0.1959
 3760SOL    HW214772   4.310   5.197   1.859  0.7229 -0.5943  1.1445
 3760SOL    HW314773   4.236   5.127   1.747  1.7544  0.7121 -0.3989
 3760SOL    MW414774   4.270   5.126   1.827  0.3797 -0.3061  0.4213
 3761SOL     OW14775   1.587   5.242   3.564 -0.3828  0.3183  0.3723
 3761SOL    HW214776   1.663   5.189   3.587  0.3663  1.4237  0.5452
 3761SOL    HW314777   1.575   5.301   3.639 -1.4061  0.1723  0.3444
 3761SOL    MW414778   1.595   5.243   3.577  1.1755 -0.2332  0.7900
 3762SOL     OW14779   1.955   6.324   2.847 -0.0784 -0.0423 -0.2706
 3762SOL    HW214780   1.985   6.235   2.827  2.0365 -0.0169  2.2105
 3762SOL    HW314781   1.953   6.327   2.943  0.8562  2.8357 -0.2479
 3762SOL    MW414782   1.959   6.313   2.857  0.0039  0.4437  0.2871
 3763SOL     OW14783   1.484   0.136   4.959  0.4412  0.0933 -0.0547
 3763SOL    HW214784   1.452   0.150   4.870 -1.6357  0.6714  0.7093
 3763SOL    HW314785   1.407   0.150   5.014  1.8298  0.4669  1.8963
 3763SOL    MW414786   1.470   0.140   4.955 -0.4833 -0.3012  0.4247
 3764SOL     OW14787   6.231   4.247   6.174 -0.0739  0.4390 -0.2299
 3764SOL    HW214788   6.320   4.213   6.176  0.2022  1.1250 -0.3136
 3764SOL    HW314789   6.241   4.340   6.194 -0.3460  1.3137 -3.5313
 3764SOL    MW414790   6.244   4.255   6.177 -0.7130 -0.0259  0.7433
 3765SOL     OW14791   5.952   3.493   0.882 -0.2937  0.1095 -0.0631
 3765SOL    HW214792   6.039   3.515   0.849 -0.2492 -0.6966 -0.5273
 3765SOL    HW314793   5.954   3.397   0.890 -0.6975  0.1922  1.1982
 3765SOL    MW414794   5.964   3.483   0.878  0.4126 -0.7568 -0.4685
 3766SOL     OW14795   3.620   4.117   0.897 -0.2766  0.5930  0.1271
 3766SOL    HW214796   3.604   4.030   0.934 -0.3476 -0.1716 -1.6249
 3766SOL    HW314797   3.710   4.114   0.866  0.4191  1.8565  1.8028
 3766SOL    MW414798   3.630   4.105   0.898 -0.1326  0.9620 -0.0136
 3767SOL     OW14799   4.399   6.316   2.558 -0.0353 -0.3244  0.1668
 3767SOL    HW214800   4.359   6.295   2.474  0.6779 -0.3515 -0.1773
 3767SOL    HW314801   4.325   6.331   2.618 -0.5526 -1.6772 -0.1120
 3767SOL    MW414802   4.384   6.315   2.555 -0.0785 -0.7375  0.0665
 3768SOL     OW14803   2.406   5.941   2.148  0.3661 -0.4242  0.2714
 3768SOL    HW214804   2.337   5.907   2.091 -0.2906 -1.1379  1.4300
 3768SOL    HW314805   2.473   5.975   2.089 -0.2290 -1.2356 -0.9035
 3768SOL    MW414806   2.405   5.941   2.133 -0.1529  0.2277 -0.3237
 3769SOL     OW14807   3.068   0.953   0.103  0.0935  0.5404 -0.0173
 3769SOL    HW214808   3.088   0.861   0.120  0.0831  0.8879  2.1072
 3769SOL    HW314809   3.150   0.991   0.073  1.2841  0.6816  3.0588
 3769SOL    MW414810   3.081   0.946   0.101  0.2405  0.0357  0.2512
 3770SOL     OW14811   1.505   2.121   1.390 -0.4106 -0.1658 -0.5373
 3770SOL    HW214812   1.573   2.073   1.437 -0.4054  0.5055  0.1636
 3770SOL    HW314813   1.423   2.089   1.426 -0.4430  3.1575  3.0535
 3770SOL    MW414814   1.503   2.111   1.401 -0.7335  0.1064 -0.1837
 3771SOL     OW14815   1.024   1.205   1.180 -0.0677 -0.5715  0.0078
 3771SOL    HW214816   1.023   1.212   1.276  1.0150 -0.9569  0.0514
 3771SOL    HW314817   0.952   1.262   1.152  0.6345  0.8448  0.9642
 3771SOL    MW414818   1.014   1.213   1.189  0.2065  0.2129  0.2073
 3772SOL     OW14819   0.735   2.836   0.308  0.3947 -0.5579 -0.8918
 3772SOL    HW214820   0.762   2.745   0.300 -0.7274 -0.7982 -2.2012
 3772SOL    HW314821   0.804   2.876   0.362  1.4045 -1.9472 -1.0832
 3772SOL    MW414822   0.748   2.829   0.314  1.0949  0.1065 -0.5994
 3773SOL     OW14823   5.330   2.546   2.850  0.1479 -0.2485  0.0072
 3773SOL    HW214824   5.244   2.565   2.886  0.1144  0.1531 -0.2728
 3773SOL    HW314825   5.312   2.518   2.760  0.1389 -2.2684  0.5739
 3773SOL    MW414826   5.316   2.545   2.843  0.2577  0.0659  0.4964
 3774SOL     OW14827   2.177   0.666   2.752  0.4610 -0.3531 -0.1343
 3774SOL    HW214828   2.256   0.716   2.730 -0.4504  0.4012 -1.9181
 3774SOL    HW314829   2.140   0.642   2.667  0.1858 -3.0401  0.6693
 3774SOL    MW414830   2.183   0.670   2.738  0.2712 -0.2847 -0.5272
 3775SOL     OW14831   0.092   5.875   2.674  0.0991 -0.0041 -0.6603
 3775SOL    HW214832   0.056   5.892   2.761 -0.6967  1.3472 -1.2115
 3775SOL    HW314833   0.042   5.801   2.641 -0.1931  0.0265 -0.2920
 3775SOL    MW414834   0.080   5.868   2.681 -0.1273  0.1529  0.4755
 3776SOL     OW14835   1.083   2.964   4.840  0.3116 -0.8186  0.0954
 3776SOL    HW214836   1.153   2.906   4.869  1.3100  0.7466  1.0038
 3776SOL    HW314837   1.014   2.906   4.809  1.8667 -2.4292 -0.4954
 3776SOL    MW414838   1.083   2.949   4.840  0.0027  0.2903 -0.3996
 3777SOL     OW14839   2.668   4.754   4.988 -0.0240 -0.3293  0.4854
 3777SOL    HW214840   2.595   4.794   5.035  2.2250  2.9753  1.5696
 3777SOL    HW314841   2.744   4.768   5.045  1.6658 -2.7823 -0.9766
 3777SOL    MW414842   2.668   4.761   5.002  0.0540 -0.2674 -0.7635
 3778SOL     OW14843   1.127   4.867   0.449  0.0157  0.0842  0.2262
 3778SOL    HW214844   1.183   4.858   0.526  0.3248 -1.4457 -0.1366
 3778SOL    HW314845   1.041   4.889   0.485  0.0268 -1.1400  1.0779
 3778SOL    MW414846   1.123   4.869   0.464 -0.3469 -0.4667 -0.0568
 3779SOL     OW14847   3.995   0.456   6.353  0.3752 -0.2102 -0.2230
 3779SOL    HW214848   4.046   0.536   6.340  1.9590 -0.2554  4.1997
 3779SOL    HW314849   4.060   0.387   6.365 -0.8806 -1.4084  0.0281
 3779SOL    MW414850   4.010   0.457   6.353  0.1797  0.0580  0.3105
 3780SOL     OW14851   2.302   0.890   5.181  1.0329  0.3049 -0.0705
 3780SOL    HW214852   2.238   0.961   5.186  0.7692  0.0142  0.7930
 3780SOL    HW314853   2.365   0.909   5.251  1.2615 -0.0184 -0.1857
 3780SOL    MW414854   2.302   0.902   5.191  0.2685 -0.3273 -0.1641
 3781SOL     OW14855   3.713   3.610   2.515  0.1968  0.6186  0.5037
 3781SOL    HW214856   3.770   3.680   2.547 -0.8207  0.9991  1.5884
 3781SOL    HW314857   3.656   3.591   2.589 -0.5769 -0.2770 -0.2999
 3781SOL    MW414858   3.713   3.617   2.529 -1.1289 -0.6515 -0.0551
 3782SOL     OW14859   2.522   4.025   2.689 -0.2209 -0.0655  0.1082
 3782SOL    HW214860   2.562   3.953   2.640 -0.3630 -0.4772  0.5900
 3782SOL    HW314861   2.435   4.035   2.650 -0.2143 -0.1761  0.0659
 3782SOL    MW414862   2.516   4.017   2.677  0.1202  0.2610 -0.3742
 3783SOL     OW14863   4.619   4.570   2.935 -0.0199 -0.6943  0.3138
 3783SOL    HW214864   4.556   4.539   2.869  0.5478  1.4565 -1.3759
 3783SOL    HW314865   4.683   4.499   2.942 -0.5433 -1.3255 -0.8818
 3783SOL    MW414866   4.619   4.556   2.927 -0.0762 -0.6267  0.2336
 3784SOL     OW14867   2.759   1.106   6.406  0.3562 -0.0906  0.0376
 3784SOL    HW214868   2.760   1.130   6.499  0.2274 -2.8286  0.8578
 3784SOL    HW314869   2.698   1.032   6.402  2.7270 -2.1398 -1.5743
 3784SOL    MW414870   2.751   1.099   6.418 -0.1660  0.2714 -0.5867
 3785SOL     OW14871   4.716   4.466   2.131  0.7942 -0.3053 -0.0806
 3785SOL    HW214872   4.663   4.401   2.177  1.7911 -0.4730  0.8586
 3785SOL    HW314873   4.664   4.546   2.134 -0.6206 -1.1120 -1.5812
 3785SOL    MW414874   4.702   4.468   2.137 -0.0357  0.4350 -0.8108
 3786SOL     OW14875   2.527   1.415   5.798 -0.1612 -0.3906 -0.1742
 3786SOL    HW214876   2.552   1.385   5.711  1.1533  1.0823 -0.3377
 3786SOL    HW314877   2.594   1.379   5.856 -1.5707 -2.2094  0.4435
 3786SOL    MW414878   2.539   1.406   5.794  0.5544 -0.1878 -0.2010
 3787SOL     OW14879   2.040   0.637   1.135 -0.1388  0.0241  0.2306
 3787SOL    HW214880   2.052   0.718   1.183  0.1922 -0.3442  0.7769
 3787SOL    HW314881   1.955   0.603   1.165  0.2535 -0.4111  0.8719
 3787SOL    MW414882   2.030   0.643   1.145 -0.3550  0.6775 -0.0085
 3788SOL     OW14883   2.581   5.811   4.122  0.0149 -0.7700  0.0886
 3788SOL    HW214884   2.668   5.784   4.150 -0.2143 -0.8745  0.7098
 3788SOL    HW314885   2.523   5.742   4.154 -0.6107  0.5358  1.9567
 3788SOL    MW414886   2.585   5.799   4.130  0.2886  0.1073 -0.4609
 3789SOL     OW14887   2.156   1.744   5.807 -0.5459  0.0620 -0.0595
 3789SOL    HW214888   2.209   1.729   5.885  1.6585  1.1620 -1.2520
 3789SOL    HW314889   2.208   1.708   5.735 -3.0380 -1.9807 -0.9933
 3789SOL    MW414890   2.170   1.737   5.808 -0.8262  0.2697 -0.1102
 3790SOL     OW14891   4.918   0.879   5.497  0.1801  0.4492  0.7863
 3790SOL    HW214892   4.847   0.940   5.517 -0.7055 -1.3530  3.7362
 3790SOL    HW314893   4.948   0.847   5.582  1.9545 -1.7224 -0.5264
 3790SOL    MW414894   4.912   0.883   5.511 -0.2249 -0.1153  0.6047
 3791SOL     OW14895   1.073   3.200   5.783  0.2128 -0.5394  0.3037
 3791SOL    HW214896   1.059   3.223   5.875  1.5877 -0.1525  0.4269
 3791SOL    HW314897   1.042   3.110   5.776 -0.5651 -0.3349  0.9717
 3791SOL    MW414898   1.067   3.191   5.794 -0.8168 -0.2433 -0.7425
 3792SOL     OW14899   4.987   6.210   2.540 -0.0762  0.0193 -0.4580
 3792SOL    HW214900   4.979   6.214   2.635 -3.1134  1.5971 -0.6344
 3792SOL    HW314901   4.925   6.142   2.514 -0.5798  0.7864 -1.3387
 3792SOL    MW414902   4.978   6.202   2.549 -0.1520 -0.2960  1.4322
 3793SOL     OW14903   4.784   0.892   4.574  0.3163  0.1547 -0.1483
 3793SOL    HW214904   4.873   0.864   4.594  0.3168 -0.6839 -1.2620
 3793SOL    HW314905   4.730   0.850   4.641  0.7423  0.6332  0.5044
 3793SOL    MW414906   4.789   0.883   4.586 -0.0422  0.5874  0.6696
 3794SOL     OW14907   1.749   4.663   6.151  0.1140  0.1249 -0.3598
 3794SOL    HW214908   1.725   4.746   6.109  0.2262 -0.1885 -1.0447
 3794SOL    HW314909   1.835   4.681   6.190  0.6550  0.0086 -1.4649
 3794SOL    MW414910   1.757   4.676   6.151 -0.3672  0.2957 -0.1041
 3795SOL     OW14911   0.438   4.659   0.270 -0.0982  0.1560  0.4325
 3795SOL    HW214912   0.454   4.609   0.190 -2.8415  0.3253 -0.3358
 3795SOL    HW314913   0.465   4.748   0.248 -0.0487  0.0359  0.0001
 3795SOL    MW414914   0.444   4.664   0.256  0.0564  1.0255 -0.3999
 3796SOL     OW14915   3.583   6.113   2.872  0.2063 -0.2607 -0.3783
 3796SOL    HW214916   3.542   6.101   2.786 -1.9773 -1.0062  0.6957
 3796SOL    HW314917   3.580   6.207   2.887 -0.4479 -0.2336 -0.6390
 3796SOL    MW414918   3.577   6.124   2.862  0.1635  0.2571 -0.5093
 3797SOL     OW14919   1.662   0.040   2.421 -0.1281  0.0726  0.4288
 3797SOL    HW214920   1.669   0.116   2.363  0.4965  0.2838  0.7759
 3797SOL    HW314921   1.704   0.068   2.503 -3.2178  0.7189  1.9479
 3797SOL    MW414922   1.668   0.054   2.424  0.0089  0.2773  0.0476
 3798SOL     OW14923   3.637   3.704   1.908 -0.5714  0.3980  0.0288
 3798SOL    HW214924   3.678   3.709   1.822 -1.1665 -2.0609 -0.4733
 3798SOL    HW314925   3.705   3.671   1.966 -1.2937 -2.2384 -0.4962
 3798SOL    MW414926   3.651   3.700   1.904  0.0769 -0.5677 -0.0483
 3799SOL     OW14927   2.176   5.513   4.893  0.0061  0.0529  0.4058
 3799SOL    HW214928   2.082   5.520   4.910  0.0117  0.4407  0.2897
 3799SOL    HW314929   2.215   5.579   4.951  0.2289 -0.2751  0.6356
 3799SOL    MW414930   2.169   5.523   4.903 -0.6090  0.3010  0.4690
 3800SOL     OW14931   1.944   0.672   3.082  0.3385  0.2049  0.0366
 3800SOL    HW214932   1.879   0.615   3.124  2.4688 -1.9900  0.5649
 3800SOL    HW314933   1.959   0.742   3.146 -0.7063  0.1572  0.3565
 3800SOL    MW414934   1.937   0.674   3.096  0.0490 -0.0370  0.1977
 3801SOL     OW14935   4.152   4.638   1.513  0.3260 -0.5808 -0.2108
 3801SOL    HW214936   4.189   4.714   1.468 -0.1923 -0.3210 -0.1995
 3801SOL    HW314937   4.145   4.571   1.444 -1.1559  0.0500 -0.7128
 3801SOL    MW414938   4.156   4.639   1.498 -0.2582 -0.0527  0.9462
 3802SOL     OW14939   5.600   0.224   4.098 -0.0859  0.4061 -0.0888
 3802SOL    HW214940   5.555   0.141   4.111 -2.0038  1.0883 -1.7715
 3802SOL    HW314941   5.684   0.214   4.143  0.1707 -2.7763 -1.1000
 3802SOL    MW414942   5.605   0.212   4.106 -0.0271 -0.1882 -0.1750
 3803SOL     OW14943   6.331   1.191   4.017  0.6588  0.0898 -0.0717
 3803SOL    HW214944   6.283   1.109   4.007  0.8583 -0.0032 -0.2805
 3803SOL    HW314945   6.341   1.223   3.928  0.2618  0.5287  0.0360
 3803SOL    MW414946   6.326   1.184   4.004 -0.0268 -0.0844 -0.0194
 3804SOL     OW14947   3.202   4.928   1.412  0.2510 -0.1369  0.7070
 3804SOL    HW214948   3.232   5.012   1.377 -1.3067  0.0433 -0.3248
 3804SOL    HW314949   3.181   4.876   1.335 -1.7067 -0.3287  1.3087
 3804SOL    MW414950   3.203   4.932   1.397 -0.3432  0.4568 -0.6540
 3805SOL     OW14951   5.606   3.486   3.965 -0.2937 -0.2264 -0.6683
 3805SOL    HW214952   5.535   3.491   4.029 -1.5726 -1.3179 -1.9357
 3805SOL    HW314953   5.610   3.574   3.926 -1.3860 -0.3053 -0.9970
 3805SOL    MW414954   5.597   3.498   3.968 -0.3823 -0.2858  0.0383
 3806SOL     OW14955   4.935   2.586   2.551  0.5688  0.6813 -0.6766
 3806SOL    HW214956   4.947   2.521   2.620 -1.7977  0.2207 -0.5859
 3806SOL    HW314957   4.959   2.669   2.591 -0.3905  0.3655  0.6016
 3806SOL    MW414958   4.939   2.588   2.565 -0.3435 -0.5628  0.5320
 3807SOL     OW14959   5.642   4.901   5.491  0.3589 -0.0086 -0.4349
 3807SOL    HW214960   5.639   4.917   5.397  0.6288 -1.5863 -0.7423
 3807SOL    HW314961   5.695   4.821   5.500  0.1432 -0.0119  1.0329
 3807SOL    MW414962   5.649   4.892   5.480 -0.5202 -0.2602 -0.2406
 3808SOL     OW14963   6.251   3.776   4.006 -0.3450 -0.3688 -0.4048
 3808SOL    HW214964   6.200   3.717   3.951 -1.9408 -0.5181  1.1303
 3808SOL    HW314965   6.227   3.864   3.977 -4.4722 -0.2405  2.4992
 3808SOL    MW414966   6.241   3.780   3.995  0.3627  0.0734  0.2420
 3809SOL     OW14967   3.889   5.542   4.076  0.1379 -0.3600 -0.5996
 3809SOL    HW214968   3.813   5.521   4.131  0.5922 -0.2401  0.0902
 3809SOL    HW314969   3.915   5.458   4.038  0.0738 -0.5228 -0.2889
 3809SOL    MW414970   3.882   5.528   4.079  0.1464 -0.0357  0.1977
 3810SOL     OW14971   6.302   4.875   2.565 -0.1706  0.1376  0.1826
 3810SOL    HW214972   6.254   4.843   2.641 -0.4804  0.9640  0.3362
 3810SOL    HW314973   6.390   4.893   2.598 -0.0970 -0.1922  0.1748
 3810SOL    MW414974   6.307   4.873   2.579  0.2146  0.4587  0.2744
 3811SOL     OW14975   1.299   3.288   2.339  0.5468 -0.5422  0.2474
 3811SOL    HW214976   1.278   3.197   2.321  1.5490 -0.4432 -1.5414
 3811SOL    HW314977   1.386   3.285   2.379  0.8650 -0.3181 -0.4323
 3811SOL    MW414978   1.308   3.276   2.342 -0.5500  0.0859  0.0120
 3812SOL     OW14979   1.595   4.449   4.668 -0.1237 -0.3491  0.0892
 3812SOL    HW214980   1.539   4.386   4.624  0.2104 -0.7367  0.2214
 3812SOL    HW314981   1.627   4.404   4.746  0.1774 -0.0466  0.1473
 3812SOL    MW414982   1.592   4.435   4.673 -0.0136 -0.1068  0.4307
 3813SOL     OW14983   4.743   0.926   5.192  0.3223 -0.0118  0.1788
 3813SOL    HW214984   4.701   1.010   5.173 -0.3531 -0.2424  0.5695
 3813SOL    HW314985   4.829   0.931   5.152 -0.4656  0.0830 -1.5795
 3813SOL    MW414986   4.748   0.938   5.184 -0.0743  0.0835 -0.0512
 3814SOL     OW14987   2.301   5.093   5.790  0.2121  0.0635  0.0221
 3814SOL    HW214988   2.391   5.060   5.796 -0.5658 -2.3913 -0.5603
 3814SOL    HW314989   2.280   5.090   5.697 -0.8769 -0.6227  0.2698
 3814SOL    MW414990   2.310   5.088   5.778  0.4899 -0.4320 -0.1085
 3815SOL     OW14991   2.245   1.524   2.845 -0.4831  0.0253  0.3208
 3815SOL    HW214992   2.184   1.452   2.828  0.6239 -1.0669  0.8144
 3815SOL    HW314993   2.303   1.524   2.770  1.9455 -2.2195  2.0101
 3815SOL    MW414994   2.244   1.514   2.833 -0.3082 -0.3243 -0.0898
 3816SOL     OW14995   4.561   0.128   6.408  0.5333 -0.0158  0.3142
 3816SOL    HW214996   4.592   0.203   6.458  0.8056  0.8897 -1.1441
 3816SOL    HW314997   4.524   0.166   6.328 -2.0397 -1.2327  0.8325
 3816SOL    MW414998   4.560   0.143   6.404  0.2329 -0.0806  0.2913
 3817SOL     OW14999   5.139   5.620   3.718  0.3806 -0.0968  0.1675
 3817SOL    HW215000   5.231   5.593   3.714  0.0914 -1.2253  0.6538
 3817SOL    HW315001   5.113   5.602   3.808 -0.2897  0.3309  0.0655
 3817SOL    MW415002   5.148   5.614   3.730  0.0198 -0.1020  0.0269
 3818SOL     OW15003   2.534   4.341   2.917  0.1482  0.3123 -0.1387
 3818SOL    HW215004   2.619   4.336   2.875 -0.5742  0.3889 -1.6868
 3818SOL    HW315005   2.527   4.431   2.948  1.0358  0.0255  0.9194
 3818SOL    MW415006   2.544   4.352   2.915  0.1214 -0.1368 -0.2525
 3819SOL     OW15007   2.594   3.510   4.328 -0.0712 -0.0322  0.0374
 3819SOL    HW215008   2.591   3.483   4.420 -0.4404  0.0286  0.0446
 3819SOL    HW315009   2.662   3.577   4.325 -1.3226  1.3283  0.6466
 3819SOL    MW415010   2.603   3.515   4.340  0.0417 -0.0111  0.0953
 3820SOL     OW15011   5.607   4.467   4.750  0.3617  0.4846 -0.2503
 3820SOL    HW215012   5.554   4.546   4.744 -0.7564 -0.3107 -1.4391
 3820SOL    HW315013   5.607   4.431   4.662  1.4085 -0.4861  0.1209
 3820SOL    MW415014   5.600   4.473   4.738  0.6419 -0.1827 -0.3395
 3821SOL     OW15015   5.232   6.231   2.361  0.1577 -0.0031 -0.4805
 3821SOL    HW215016   5.155   6.228   2.419  0.8390 -0.5760  0.4277
 3821SOL    HW315017   5.241   6.141   2.329  0.9522 -0.1438  0.1167
 3821SOL    MW415018   5.223   6.219   2.365  0.2994 -0.5378  0.4365
 3822SOL     OW15019   5.174   4.024   4.246  0.2057  0.2016 -0.0717
 3822SOL    HW215020   5.082   3.998   4.248  0.3833 -0.5300 -0.9725
 3822SOL    HW315021   5.179   4.098   4.306 -0.3694 -1.6691  2.4581
 3822SOL    MW415022   5.162   4.030   4.254  0.1318  0.1501  0.1235
 3823SOL     OW15023   4.026   6.039   1.540 -0.0125  0.3372  0.0648
 3823SOL    HW215024   4.088   6.086   1.595  0.9602  0.6603 -1.2871
 3823SOL    HW315025   4.079   5.995   1.474 -0.9494 -1.9170  0.6800
 3823SOL    MW415026   4.041   6.039   1.539  0.3228  0.3824  0.7481
 3824SOL     OW15027   6.006   0.171   1.650 -0.1462 -0.4985  0.3612
 3824SOL    HW215028   5.926   0.121   1.664 -0.3499 -0.2362  0.1427
 3824SOL    HW315029   6.065   0.109   1.606  0.8004 -1.5952  2.9817
 3824SOL    MW415030   6.003   0.156   1.646 -0.3105  0.4522 -0.1305
 3825SOL     OW15031   5.885   1.309   5.208  0.5163 -0.4261  0.0137
 3825SOL    HW215032   5.817   1.241   5.214 -0.0098  0.0819 -0.1505
 3825SOL    HW315033   5.931   1.304   5.292 -0.8692  0.4150  0.8657
 3825SOL    MW415034   5.882   1.299   5.220  0.2040 -0.1741  0.2715
 3826SOL     OW15035   5.045   2.530   5.280 -0.4033  0.3872 -0.0212
 3826SOL    HW215036   5.085   2.615   5.260 -1.0761  0.6721 -0.1705
 3826SOL    HW315037   4.970   2.551   5.334 -1.3272  0.0002 -1.1146
 3826SOL    MW415038   5.041   2.544   5.284 -0.3166  0.3685  0.1609
 3827SOL     OW15039   0.967   2.887   3.866  0.1109 -0.2123  0.1890
 3827SOL    HW215040   0.923   2.806   3.842  1.8481 -0.5976 -2.0058
 3827SOL    HW315041   0.921   2.955   3.816  0.0197 -0.1723  0.3290
 3827SOL    MW415042   0.955   2.886   3.856  0.1601  0.1144 -0.3351
 3828SOL     OW15043   1.221   0.230   2.473  0.4467 -1.0878 -0.0235
 3828SOL    HW215044   1.189   0.306   2.425  0.0223 -0.6317  0.9367
 3828SOL    HW315045   1.231   0.161   2.407  0.9722 -0.1595 -0.9305
 3828SOL    MW415046   1.218   0.231   2.458  0.5416  0.4932  0.2849
 3829SOL     OW15047   0.900   3.285   0.204 -0.6696  0.1353 -0.0119
 3829SOL    HW215048   0.833   3.217   0.199 -0.5710  0.1035 -1.8651
 3829SOL    HW315049   0.859   3.362   0.163  0.1870  0.3049 -0.5789
 3829SOL    MW415050   0.886   3.286   0.198  0.1492  0.1789  0.0201
 3830SOL     OW15051   1.874   1.090   0.856  0.1160 -0.0990 -0.8074
 3830SOL    HW215052   1.838   1.001   0.851  0.8950 -0.4179 -0.9120
 3830SOL    HW315053   1.798   1.146   0.873 -0.3417 -0.8194 -0.4380
 3830SOL    MW415054   1.859   1.085   0.858  0.1820  0.2421  0.2681
 3831SOL     OW15055   6.170   5.760   6.322  0.2765  0.2679 -0.0687
 3831SOL    HW215056   6.148   5.687   6.380  1.4060 -1.0239 -1.1774
 3831SOL    HW315057   6.228   5.721   6.256  0.4035  2.0463 -1.0688
 3831SOL    MW415058   6.175   5.745   6.321 -0.1685  0.1641 -0.4967
 3832SOL     OW15059   4.497   0.696   5.852 -0.0788 -0.3038 -0.0048
 3832SOL    HW215060   4.549   0.616   5.867  0.2235  0.0629  0.9648
 3832SOL    HW315061   4.514   0.718   5.761  1.8053  0.0207  0.3899
 3832SOL    MW415062   4.506   0.688   5.842  0.6493  0.3096 -0.6109
 3833SOL     OW15063   0.217   2.317   3.646  0.3521 -0.5194 -0.4728
 3833SOL    HW215064   0.202   2.233   3.603 -2.1903  0.2470 -1.3044
 3833SOL    HW315065   0.224   2.380   3.574 -2.4637  0.5739  0.0798
 3833SOL    MW415066   0.216   2.314   3.631  0.2177 -0.0090 -0.2815
 3834SOL     OW15067   5.559   5.665   4.173  0.0690 -0.0168  0.0141
 3834SOL    HW215068   5.474   5.706   4.155 -0.2603 -0.0510  1.4171
 3834SOL    HW315069   5.541   5.572   4.176  0.1514 -0.0252  0.2977
 3834SOL    MW415070   5.546   5.658   4.171 -0.3586 -0.2081 -0.0341
 3835SOL     OW15071   3.048   6.352   4.714 -0.0000  0.5730 -1.0411
 3835SOL    HW215072   3.062   6.438   4.674  0.5826  1.4430  0.9060
 3835SOL    HW315073   3.133   6.329   4.752 -0.5362 -0.1230 -0.2129
 3835SOL    MW415074   3.061   6.360   4.714  1.2614 -0.1071 -0.7093
 3836SOL     OW15075   5.482   5.832   5.791 -0.5513  0.1795  0.1781
 3836SOL    HW215076   5.563   5.787   5.765  0.4321  1.0041  1.6484
 3836SOL    HW315077   5.415   5.763   5.790  0.3220 -0.6881 -0.3608
 3836SOL    MW415078   5.484   5.817   5.788  0.4599 -0.3446 -0.4314
 3837SOL     OW15079   1.413   2.447   0.024 -0.1943 -0.1974 -0.0923
 3837SOL    HW215080   1.320   2.432   0.041 -0.1220  0.3564  0.8780
 3837SOL    HW315081   1.415   2.503  -0.054 -0.6298 -0.9682 -0.6658
 3837SOL    MW415082   1.401   2.452   0.016 -0.4656  0.1596 -0.4115
 3838SOL     OW15083   4.896   1.636   2.649  0.1408 -0.0721 -0.3890
 3838SOL    HW215084   4.908   1.601   2.561  0.4965 -1.0104  0.0179
 3838SOL    HW315085   4.913   1.562   2.707  1.7439  0.9744  0.5505
 3838SOL    MW415086   4.900   1.621   2.645  0.2239 -0.3134  0.1541
 3839SOL     OW15087   1.021   2.082   1.691  0.1063  0.5285  0.3285
 3839SOL    HW215088   0.957   2.142   1.653  0.3113  0.1994 -0.5556
 3839SOL    HW315089   1.104   2.129   1.684  0.1448  0.4642  0.3589
 3839SOL    MW415090   1.023   2.096   1.685  0.3572 -0.4660  0.2022
 3840SOL     OW15091   4.983   1.129   2.922 -0.5836 -0.4237  0.0015
 3840SOL    HW215092   4.907   1.103   2.869  1.1794 -1.5061 -2.1490
 3840SOL    HW315093   5.025   1.047   2.946 -0.7449  0.0996  2.3131
 3840SOL    MW415094   4.978   1.115   2.918 -0.2730  0.4004  0.1024
 3841SOL     OW15095   0.873   1.669   1.499 -0.4840 -0.0343  0.6630
 3841SOL    HW215096   0.854   1.624   1.417  0.8252  0.7998 -0.1316
 3841SOL    HW315097   0.818   1.625   1.564 -1.5394 -0.7182 -0.6468
 3841SOL    MW415098   0.863   1.657   1.497  0.3509  0.6416 -0.2113
 3842SOL     OW15099   2.954   1.303   5.095 -0.5229  0.2070 -0.1016
 3842SOL    HW215100   2.935   1.212   5.118  0.1695  0.3134  0.9884
 3842SOL    HW315101   2.983   1.300   5.004  1.9499 -1.0633  0.6386
 3842SOL    MW415102   2.955   1.291   5.086  0.4787  0.0668 -0.1646
 3843SOL     OW15103   2.883   4.421   0.865  0.3495  0.5532 -0.0199
 3843SOL    HW215104   2.814   4.354   0.856  0.0916  0.9412 -1.0679
 3843SOL    HW315105   2.862   4.465   0.948 -1.6871  1.7652 -1.0871
 3843SOL    MW415106   2.871   4.418   0.875 -0.1836 -0.1239  0.1611
 3844SOL     OW15107   0.305   5.883   1.993 -0.1140  0.3687 -0.0003
 3844SOL    HW215108   0.280   5.802   1.949 -0.2035  1.3426 -1.8544
 3844SOL    HW315109   0.222   5.927   2.013 -0.0541  0.2565  0.5031
 3844SOL    MW415110   0.291   5.878   1.990  0.3990  0.1576  0.1850
 3845SOL     OW15111   3.539   4.896   3.300  0.2213  0.3580  0.2656
 3845SOL    HW215112   3.482   4.884   3.224  1.8759 -4.8007 -0.5111
 3845SOL    HW315113   3.605   4.959   3.270 -0.0017 -0.4481 -2.1197
 3845SOL    MW415114   3.540   4.903   3.286 -0.5817 -0.1642 -0.1562
 3846SOL     OW15115   2.849   3.556   5.834  0.1448 -0.5706 -0.2088
 3846SOL    HW215116   2.917   3.606   5.789 -1.0183  1.2183 -0.1060
 3846SOL    HW315117   2.767   3.596   5.804 -0.7516 -0.8201  1.7335
 3846SOL    MW415118   2.847   3.568   5.824 -0.1715  0.5078  0.1332
 3847SOL     OW15119   5.529   1.247   4.026 -0.1085 -0.0975 -0.3513
 3847SOL    HW215120   5.438   1.264   4.049  0.2511 -0.2890  1.3332
 3847SOL    HW315121   5.579   1.310   4.077  0.7589 -0.6528 -0.4929
 3847SOL    MW415122   5.524   1.257   4.036 -0.2774 -0.0068  0.2814
 3848SOL     OW15123   1.988   0.986   3.770  0.1400  0.3684 -0.0040
 3848SOL    HW215124   1.937   0.906   3.782 -0.6379  1.0174  1.2418
 3848SOL    HW315125   2.046   0.990   3.846  1.4867  0.0669 -0.9942
 3848SOL    MW415126   1.989   0.976   3.782  0.1058 -0.1440 -0.1018
 3849SOL     OW15127   2.886   5.563   5.660  0.0200 -0.1072 -0.0849
 3849SOL    HW215128   2.861   5.521   5.578 -2.9712 -0.7051  0.9971
 3849SOL    HW315129   2.928   5.493   5.710 -0.3805 -0.4238 -0.1874
 3849SOL    MW415130   2.888   5.548   5.656  0.8280  0.0475 -0.3716
 3850SOL     OW15131   4.137   0.106   1.895 -0.4382 -0.2256  0.2461
 3850SOL    HW215132   4.207   0.041   1.886  0.2909  0.5884 -0.1901
 3850SOL    HW315133   4.060   0.055   1.922  0.3165 -1.1389  0.7517
 3850SOL    MW415134   4.136   0.090   1.897 -0.2579 -0.6543  0.5523
 3851SOL     OW15135   2.635   3.094   5.924 -0.0035  0.2414  0.2709
 3851SOL    HW215136   2.556   3.145   5.906 -0.6660 -1.0922 -0.7464
 3851SOL    HW315137   2.677   3.082   5.839  1.7834  1.6049  0.8837
 3851SOL    MW415138   2.630   3.099   5.911 -0.0932 -0.0634 -0.1010
 3852SOL     OW15139   3.139   0.600   1.522 -0.7163  0.1250  0.1153
 3852SOL    HW215140   3.077   0.672   1.508  0.1315  0.9083  0.3278
 3852SOL    HW315141   3.115   0.566   1.608 -0.7902  0.4903  0.2430
 3852SOL    MW415142   3.128   0.605   1.532 -0.3263 -0.0237  0.0191
 3853SOL     OW15143   3.232   3.825   3.176 -0.0742  0.0016  0.5091
 3853SOL    HW215144   3.205   3.734   3.181  2.2684 -0.9655 -2.1326
 3853SOL    HW315145   3.315   3.828   3.224  0.9784  0.1895 -1.2586
 3853SOL    MW415146   3.239   3.814   3.183 -0.2415 -0.0247  0.0553
 3854SOL     OW15147   1.902   5.113   3.222 -0.3231  0.1846  0.2621
 3854SOL    HW215148   1.938   5.028   3.247 -1.5973 -0.5989 -0.4761
 3854SOL    HW315149   1.979   5.165   3.198  0.3811 -1.1962 -0.6033
 3854SOL    MW415150   1.917   5.109   3.222 -0.5412  0.2171  0.0586
 3855SOL     OW15151   5.999   5.513   4.951  0.5355  0.1601 -0.0608
 3855SOL    HW215152   6.095   5.507   4.948  0.7932  2.0256  1.8379
 3855SOL    HW315153   5.977   5.502   5.043 -1.0905 -0.0899 -0.4457
 3855SOL    MW415154   6.009   5.511   4.963 -0.4206  0.1741  0.1742
 3856SOL     OW15155   2.135   3.564   6.236  0.3365  0.9655 -0.3319
 3856SOL    HW215156   2.187   3.640   6.264  0.3807  1.2673 -1.1918
 3856SOL    HW315157   2.047   3.583   6.269  0.8737  0.1065  1.7684
 3856SOL    MW415158   2.130   3.577   6.244 -0.7204 -0.0610  0.3925
 3857SOL     OW15159   4.107   6.133   2.700  0.2281  0.5539  0.0107
 3857SOL    HW215160   4.021   6.109   2.733 -0.1275  1.8129  0.0511
 3857SOL    HW315161   4.168   6.098   2.765 -0.1730 -1.0644 -0.4350
 3857SOL    MW415162   4.104   6.125   2.713 -0.1157 -0.0116  0.2323
 3858SOL     OW15163   3.675   3.376   5.618  0.1811  0.4939  0.3884
 3858SOL    HW215164   3.748   3.321   5.588 -1.3944 -1.2504 -0.4146
 3858SOL    HW315165   3.688   3.382   5.713  0.9388 -0.4491  0.3612
 3858SOL    MW415166   3.687   3.370   5.627  0.1554 -0.1853  1.0697
 3859SOL     OW15167   1.130   0.166   3.651 -0.5050 -0.3332 -0.1659
 3859SOL    HW215168   1.103   0.146   3.562  0.1031  1.9988 -0.9436
 3859SOL    HW315169   1.215   0.123   3.660 -1.2710 -1.9367 -0.0777
 3859SOL    MW415170   1.138   0.157   3.641 -0.2099 -0.1638 -0.2981
 3860SOL     OW15171   5.405   2.284   5.404 -0.2315 -0.3235  0.3686
 3860SOL    HW215172   5.349   2.359   5.425  0.8549  0.2256  1.4891
 3860SOL    HW315173   5.356   2.208   5.434 -0.5797  0.1101  0.9217
 3860SOL    MW415174   5.391   2.284   5.411 -0.2452 -0.1406 -0.2699
 3861SOL     OW15175   5.595   2.666   3.411  0.0064 -0.2917  0.2856
 3861SOL    HW215176   5.574   2.593   3.469 -1.7648  0.1439  0.2521
 3861SOL    HW315177   5.516   2.679   3.359  1.7262 -1.0804 -2.7519
 3861SOL    MW415178   5.582   2.658   3.412 -0.1336 -0.0789 -0.4493
 3862SOL     OW15179   5.288   4.209   2.596  0.1239  0.1212 -0.1127
 3862SOL    HW215180   5.240   4.130   2.573  1.0706 -0.9368  1.3522
 3862SOL    HW315181   5.279   4.266   2.520 -0.7744 -1.2981 -1.1108
 3862SOL    MW415182   5.281   4.206   2.583  0.4212  0.5992 -0.5252
 3863SOL     OW15183   5.309   1.180   0.947 -0.2052  0.5968 -0.4658
 3863SOL    HW215184   5.342   1.224   1.025  0.7848  0.9411 -1.0595
 3863SOL    HW315185   5.233   1.232   0.921 -1.2240 -0.1587  0.8716
 3863SOL    MW415186   5.303   1.193   0.954  0.2856 -0.6526  1.1033
 3864SOL     OW15187   4.646   6.258   5.859  0.1006  0.4177 -0.1132
 3864SOL    HW215188   4.586   6.183   5.856 -2.4447  2.3039  0.2526
 3864SOL    HW315189   4.668   6.267   5.951 -2.0385  1.8156  0.3383
 3864SOL    MW415190   4.641   6.249   5.871 -0.1053 -0.5096  0.1992
 3865SOL     OW15191   3.381   2.017   2.351 -0.3910 -0.1207  0.0384
 3865SOL    HW215192   3.386   2.067   2.432 -0.0135  0.3346 -0.2591
 3865SOL    HW315193   3.368   1.926   2.379 -1.2275  0.1490  0.5827
 3865SOL    MW415194   3.380   2.012   2.365  0.0637 -0.3591  0.4389
 3866SOL     OW15195   5.798   0.683   4.819 -0.0474 -0.2686 -0.2101
 3866SOL    HW215196   5.791   0.698   4.913  1.1665 -0.4758 -0.0652
 3866SOL    HW315197   5.741   0.607   4.802 -0.6486  0.0727  0.2616
 3866SOL    MW415198   5.790   0.675   4.829  0.2648 -0.3856 -0.2849
 3867SOL     OW15199   3.909   2.355   2.061  0.0096  0.0107  0.1536
 3867SOL    HW215200   3.882   2.305   1.984 -0.5227 -1.8151  1.4582
 3867SOL    HW315201   3.830   2.363   2.114  0.3966  1.1361  0.6041
 3867SOL    MW415202   3.895   2.350   2.058  0.0450  0.2129  0.3728
 3868SOL     OW15203   3.890   0.482   2.239  0.0038  0.1584 -0.4662
 3868SOL    HW215204   3.941   0.563   2.242 -0.4351  0.4090  0.4887
 3868SOL    HW315205   3.837   0.491   2.160  1.0572  0.1173 -1.1934
 3868SOL    MW415206   3.890   0.494   2.229 -0.2544 -0.5577 -0.2143
 3869SOL     OW15207   4.003   6.171   4.160 -0.6064 -0.6050 -0.5235
 3869SOL    HW215208   4.070   6.116   4.202 -1.1363  1.5140  3.6204
 3869SOL    HW315209   4.051   6.247   4.129 -0.6692 -0.6623 -0.7641
 3869SOL    MW415210   4.018   6.173   4.161 -0.5761 -0.0322 -0.3998
 3870SOL     OW15211   4.714   6.176   1.241 -0.1195  0.2210  0.4211
 3870SOL    HW215212   4.760   6.234   1.180 -0.9244 -1.2881 -1.7362
 3870SOL    HW315213   4.623   6.202   1.234 -0.3796 -0.7383  0.0216
 3870SOL    MW415214   4.708   6.187   1.232  0.2068  0.1958  0.1679
 3871SOL     OW15215   1.425   1.189   4.939 -0.3787 -0.3623 -0.1186
 3871SOL    HW215216   1.449   1.278   4.964 -0.3440 -1.0168  2.5613
 3871SOL    HW315217   1.360   1.199   4.870 -0.1073  1.7087 -0.1310
 3871SOL    MW415218   1.420   1.202   4.934 -0.1011 -0.3463  0.0891
 3872SOL     OW15219   1.056   1.146   3.803 -0.2592 -0.0363  0.4223
 3872SOL    HW215220   0.986   1.208   3.781 -0.8192 -0.9800 -0.5213
 3872SOL    HW315221   1.117   1.197   3.857 -1.4781  0.9023  0.9436
 3872SOL    MW415222   1.055   1.161   3.807  0.1769 -0.3743  0.4846
 3873SOL     OW15223   0.135   3.119   5.907  0.6577  0.3292  0.0503
 3873SOL    HW215224   0.134   3.173   5.986 -0.0935 -1.0448  1.0143
 3873SOL    HW315225   0.073   3.161   5.848 -0.2148  0.3168  0.9370
 3873SOL    MW415226   0.127   3.132   5.910 -0.5584 -0.1787 -0.0007
 3874SOL     OW15227   2.940   3.057   1.632 -0.6571  0.1942  0.2216
 3874SOL    HW215228   2.871   3.082   1.570 -1.2142  0.7293  1.0382
 3874SOL    HW315229   2.932   3.120   1.704 -0.3963 -0.7618  1.1116
 3874SOL    MW415230   2.930   3.069   1.633  0.0963  0.3356  0.0998
 3875SOL     OW15231   2.100   3.631   1.680 -0.1099  0.3418  0.2415
 3875SOL    HW215232   2.134   3.542   1.682 -0.7122  0.0539 -1.1365
 3875SOL    HW315233   2.119   3.667   1.767  0.3120 -1.0586  0.7398
 3875SOL    MW415234   2.107   3.624   1.692  0.4070  0.2077  0.2780
 3876SOL     OW15235   5.517   4.000   3.445 -0.0791  0.9623  0.3033
 3876SOL    HW215236   5.426   4.012   3.472 -0.5522  0.1638 -0.8527
 3876SOL    HW315237   5.514   4.000   3.349  0.8512 -0.8233  0.2265
 3876SOL    MW415238   5.504   4.001   3.436  0.0207 -0.8735 -0.7853
 3877SOL     OW15239   3.699   6.031   0.322  0.0431 -0.2146  0.0286
 3877SOL    HW215240   3.633   6.100   0.322 -1.7886 -1.8699 -0.1714
 3877SOL    HW315241   3.747   6.042   0.404 -1.1028  0.4763  0.6157
 3877SOL    MW415242   3.697   6.041   0.333  0.1746 -0.2934 -0.6104
 3878SOL     OW15243   1.970   4.772   3.883 -0.1802 -0.0597  0.0670
 3878SOL    HW215244   1.973   4.842   3.818  0.9859  0.0111  0.1697
 3878SOL    HW315245   2.007   4.695   3.839 -1.6183 -0.6794 -0.1031
 3878SOL    MW415246   1.975   4.771   3.869 -0.0941  0.6631 -0.1733
 3879SOL     OW15247   4.998   1.868   1.402 -0.4592  0.0722  0.5137
 3879SOL    HW215248   5.029   1.935   1.462  0.8082 -0.4901  0.5149
 3879SOL    HW315249   4.902   1.869   1.411 -0.2910 -0.1465  2.6843
 3879SOL    MW415250   4.989   1.877   1.411  0.1448 -0.0425 -0.1218
 3880SOL     OW15251   5.643   5.034   0.786  0.3957  0.4762 -0.6803
 3880SOL    HW215252   5.644   5.045   0.691  2.8293  0.8155 -0.6738
 3880SOL    HW315253   5.669   4.943   0.800 -2.0451 -0.2446 -0.3214
 3880SOL    MW415254   5.646   5.023   0.776  0.4075 -0.3659  0.7338
 3881SOL     OW15255   1.607   5.789   6.268  0.5379 -0.5794 -0.3092
 3881SOL    HW215256   1.643   5.821   6.185 -0.0621 -1.3392 -0.8800
 3881SOL    HW315257   1.558   5.710   6.244 -0.1079 -0.4993  0.6916
 3881SOL    MW415258   1.606   5.783   6.254 -0.8926 -0.1149  0.9586
 3882SOL     OW15259   4.291   0.528   2.744 -0.4135 -0.3218  0.2215
 3882SOL    HW215260   4.300   0.433   2.750  0.9548 -0.1327  1.8021
 3882SOL    HW315261   4.230   0.551   2.814  0.6185  0.0967  1.0113
 3882SOL    MW415262   4.284   0.518   2.754  0.4204 -0.1963  0.8721
 3883SOL     OW15263   5.014   1.024   6.006  0.0923  0.4075 -0.1362
 3883SOL    HW215264   4.931   1.023   6.054 -0.8136 -0.4984 -1.6518
 3883SOL    HW315265   5.026   1.116   5.981  0.8224  0.9854  2.1470
 3883SOL    MW415266   5.004   1.036   6.009 -0.2912 -0.2202 -0.4786
 3884SOL     OW15267   3.905   1.615   5.861 -0.8841  0.2509  0.8168
 3884SOL    HW215268   3.955   1.547   5.907 -1.5461 -0.4744  0.4839
 3884SOL    HW315269   3.972   1.668   5.818 -0.3424 -0.0103  1.3223
 3884SOL    MW415270   3.921   1.613   5.861  0.2109 -0.2712 -0.2954
 3885SOL     OW15271   4.706   1.037   2.074  0.3103  0.1095 -0.0911
 3885SOL    HW215272   4.728   0.946   2.055  0.2511  0.1446 -0.3299
 3885SOL    HW315273   4.692   1.039   2.168 -0.5507 -0.3147 -0.1973
 3885SOL    MW415274   4.707   1.025   2.084 -0.0642 -0.2571  0.3774
 3886SOL     OW15275   1.047   1.380   3.457  0.4256  0.1655  0.2295
 3886SOL    HW215276   1.098   1.299   3.456  1.5406  0.5630  4.4406
 3886SOL    HW315277   1.112   1.449   3.457 -0.4032  0.9698 -0.2732
 3886SOL    MW415278   1.062   1.378   3.457  0.2108 -0.2780  0.4622
 3887SOL     OW15279   4.758   2.417   4.077 -0.0688  0.7062 -0.4666
 3887SOL    HW215280   4.735   2.341   4.023  2.8531 -0.0843 -0.7746
 3887SOL    HW315281   4.787   2.483   4.015  0.5051  0.8787 -0.0246
 3887SOL    MW415282   4.758   2.416   4.062  0.0923 -0.3180 -0.6201
 3888SOL     OW15283   5.519   0.773   2.388 -1.1492  0.3360  0.8054
 3888SOL    HW215284   5.559   0.858   2.372 -0.1115 -0.3988 -0.6626
 3888SOL    HW315285   5.427   0.785   2.363 -0.6251  0.5672 -1.0835
 3888SOL    MW415286   5.512   0.786   2.383  0.0499 -0.0351 -0.3582
 3889SOL     OW15287   3.606   3.837   5.804 -0.2458 -0.4601  0.3239
 3889SOL    HW215288   3.629   3.871   5.890 -1.2056 -0.3898  0.5721
 3889SOL    HW315289   3.533   3.777   5.821  0.0429 -1.0142 -0.3551
 3889SOL    MW415290   3.599   3.834   5.817 -0.4022 -0.0899 -0.0240
 3890SOL     OW15291   1.990   5.807   4.422 -0.0406 -1.0186 -0.4345
 3890SOL    HW215292   1.983   5.901   4.411 -0.6086 -0.8923  0.7922
 3890SOL    HW315293   1.910   5.771   4.385 -0.4410 -0.8885  0.2869
 3890SOL    MW415294   1.979   5.814   4.416  0.1192  0.0280  0.2634
 3891SOL     OW15295   1.090   2.003   0.144  0.4987  0.5097  0.8686
 3891SOL    HW215296   1.158   1.942   0.114  1.1744  1.1957  0.9471
 3891SOL    HW315297   1.139   2.074   0.187 -0.2818  0.9415  1.0742
 3891SOL    MW415298   1.106   2.005   0.146 -0.0511 -0.9919 -0.1645
 3892SOL     OW15299   3.962   0.809   2.904  0.2084 -0.2158 -0.1467
 3892SOL    HW215300   3.899   0.878   2.882 -1.6959 -1.4400  1.2226
 3892SOL    HW315301   4.036   0.825   2.845 -0.8466  2.0073 -0.9830
 3892SOL    MW415302   3.964   0.820   2.893 -0.2582 -0.4225 -0.4670
 3893SOL     OW15303   1.629   2.342   0.605  0.0229  0.0472  0.4195
 3893SOL    HW215304   1.548   2.381   0.570 -0.1785  0.4906  1.3603
 3893SOL    HW315305   1.609   2.249   0.615 -0.7828  0.3390  1.7524
 3893SOL    MW415306   1.615   2.335   0.601  0.4796  0.0209  0.0506
 3894SOL     OW15307   1.768   4.687   4.608  0.0119  0.0120  0.0041
 3894SOL    HW215308   1.703   4.755   4.623 -0.8216 -1.2897  3.0445
 3894SOL    HW315309   1.719   4.605   4.616  1.5927 -0.9818 -0.0881
 3894SOL    MW415310   1.753   4.685   4.611 -0.2018 -0.2514 -0.7195
 3895SOL     OW15311   6.187   3.523   3.352  0.0666  0.1017  0.3876
 3895SOL    HW215312   6.249   3.557   3.286  0.1657  1.1430  0.9925
 3895SOL    HW315313   6.111   3.581   3.345 -0.1353 -0.1093  0.8274
 3895SOL    MW415314   6.185   3.535   3.342  0.8046 -0.0192  0.0547
 3896SOL     OW15315   4.225   3.095   1.902 -0.6439  0.7994  0.2352
 3896SOL    HW215316   4.196   3.006   1.924 -1.1929  0.5970 -1.1978
 3896SOL    HW315317   4.302   3.081   1.846  1.0782  1.3040  2.3340
 3896SOL    MW415318   4.231   3.081   1.897  0.8215  0.1613 -0.2397
 3897SOL     OW15319   0.324   1.000   0.846 -0.2875  0.1082  0.0231
 3897SOL    HW215320   0.257   0.953   0.796 -1.3129  1.4791  0.0210
 3897SOL    HW315321   0.353   1.070   0.787 -0.3189  0.7480  0.7476
 3897SOL    MW415322   0.319   1.003   0.832  0.0420 -0.5537  0.6937
 3898SOL     OW15323   1.118   2.310   3.789 -0.2584 -0.2719 -0.4272
 3898SOL    HW215324   1.036   2.306   3.838  0.1962 -0.5321  0.3256
 3898SOL    HW315325   1.141   2.218   3.773  1.3948 -0.3874  1.9719
 3898SOL    MW415326   1.110   2.297   3.793 -0.1370 -0.0354 -0.1434
 3899SOL     OW15327   4.406   4.936   1.664 -0.1178  0.5650 -0.1279
 3899SOL    HW215328   4.370   5.006   1.717  2.6863  0.7659  1.7307
 3899SOL    HW315329   4.380   4.855   1.709 -0.7057  0.5614 -0.4724
 3899SOL    MW415330   4.398   4.934   1.677 -0.8665  0.6835  0.3139
 3900SOL     OW15331   2.371   3.950   2.302  0.6984 -0.4166  1.1463
 3900SOL    HW215332   2.464   3.949   2.283  0.4363 -0.5555 -0.2623
 3900SOL    HW315333   2.340   4.035   2.271 -0.0601 -1.3386 -0.8221
 3900SOL    MW415334   2.379   3.961   2.295 -0.2094 -0.1642 -0.2699
 3901SOL     OW15335   1.583   5.606   4.665  0.0248 -0.0906  0.0582
 3901SOL    HW215336   1.503   5.557   4.650 -0.0056  0.2723 -1.0884
 3901SOL    HW315337   1.653   5.547   4.637  0.0201  0.3019 -0.8230
 3901SOL    MW415338   1.582   5.592   4.659  0.2783  0.6224 -0.1703
 3902SOL     OW15339   5.946   3.091   3.348 -0.2402 -0.5715  0.2668
 3902SOL    HW215340   6.007   3.160   3.372 -1.5733  0.5257  0.6555
 3902SOL    HW315341   5.922   3.111   3.257 -2.3921  0.9206  1.0907
 3902SOL    MW415342   5.951   3.102   3.339 -1.0783  0.7457 -0.3844
 3903SOL     OW15343   1.973   0.353   3.275 -0.4351  0.5498  0.2822
 3903SOL    HW215344   1.881   0.333   3.258 -0.1403 -1.2500  0.6304
 3903SOL    HW315345   2.020   0.309   3.205  0.2171  0.8925  0.4963
 3903SOL    MW415346   1.967   0.345   3.263  0.0362 -0.6886  0.0958
 3904SOL     OW15347   1.235   6.338   1.699 -0.4715  0.2416  0.0719
 3904SOL    HW215348   1.147   6.351   1.734 -0.4281 -2.9921  1.7839
 3904SOL    HW315349   1.280   6.285   1.765  1.7732 -0.7569 -2.0812
 3904SOL    MW415350   1.229   6.333   1.712 -0.5583  0.5593  0.0719
 3905SOL     OW15351   0.951   5.245   2.864  0.1380  0.5376  0.3775
 3905SOL    HW215352   0.955   5.280   2.953  1.7366  1.1500  0.1007
 3905SOL    HW315353   0.890   5.303   2.818  1.8042  2.3018  0.2494
 3905SOL    MW415354   0.944   5.258   2.870 -0.5655 -0.0831 -0.7281
 3906SOL     OW15355   1.178   1.301   3.994 -0.2253  0.3532 -0.0199
 3906SOL    HW215356   1.249   1.353   3.955  1.1302 -1.8505 -0.6269
 3906SOL    HW315357   1.216   1.263   4.072 -0.3435 -1.6833 -0.8996
 3906SOL    MW415358   1.192   1.303   3.999 -0.5669 -0.2919  0.3302
 3907SOL     OW15359   4.362   2.489   5.480  0.1978  0.0307  0.1690
 3907SOL    HW215360   4.366   2.428   5.406  0.8189 -0.1246  0.3259
 3907SOL    HW315361   4.282   2.465   5.527  1.0267 -1.4573  0.8977
 3907SOL    MW415362   4.352   2.478   5.476  0.3455 -0.3919 -0.4006
 3908SOL     OW15363   0.127   5.178   4.192 -0.0345 -0.1441  0.1958
 3908SOL    HW215364   0.199   5.116   4.197  0.8491  0.7991 -0.4042
 3908SOL    HW315365   0.128   5.210   4.102 -2.9078 -2.0352 -0.6127
 3908SOL    MW415366   0.137   5.174   4.181  0.1028 -0.5550 -0.6913
 3909SOL     OW15367   4.341   0.288   3.217 -0.1841 -0.4735 -0.2911
 3909SOL    HW215368   4.421   0.275   3.165  1.0720  0.1193  1.4025
 3909SOL    HW315369   4.358   0.367   3.268 -2.1343  0.0160 -0.3447
 3909SOL    MW415370   4.354   0.297   3.217 -0.5477  0.0151 -0.2264
 3910SOL     OW15371   5.629   5.673   4.472 -0.4358 -0.1435  0.1510
 3910SOL    HW215372   5.683   5.751   4.456  1.2202 -1.3673 -0.5634
 3910SOL    HW315373   5.574   5.666   4.394  0.3844 -0.4089 -0.4269
 3910SOL    MW415374   5.629   5.682   4.460  0.0544 -0.1628  0.0489
 3911SOL     OW15375   5.987   4.372   1.457  0.1372  0.3190  0.5178
 3911SOL    HW215376   5.966   4.447   1.513 -0.1496  0.8465 -0.2713
 3911SOL    HW315377   6.008   4.301   1.518 -1.3958  0.5113  1.3205
 3911SOL    MW415378   5.987   4.373   1.472 -0.5679  0.3811 -0.2805
 3912SOL     OW15379   4.158   0.702   6.415  0.2415 -0.0618  0.4384
 3912SOL    HW215380   4.097   0.730   6.346 -1.1183  0.6025  1.8503
 3912SOL    HW315381   4.244   0.718   6.378 -0.4577  1.0408 -0.8198
 3912SOL    MW415382   4.161   0.708   6.401 -0.1139 -0.1533  0.3399
 3913SOL     OW15383   4.078   5.164   0.494 -0.0621 -0.3525  0.0656
 3913SOL    HW215384   4.117   5.165   0.581  1.3265 -0.8330 -0.5179
 3913SOL    HW315385   3.989   5.196   0.507  0.0287 -0.6802  1.6932
 3913SOL    MW415386   4.071   5.169   0.507  0.0057 -0.2130 -0.0894
 3914SOL     OW15387   2.999   5.620   1.184 -0.3998 -0.2236 -0.0326
 3914SOL    HW215388   3.043   5.698   1.218 -1.5215 -0.7677  3.0389
 3914SOL    HW315389   3.000   5.558   1.258 -2.3256 -1.9111 -1.3039
 3914SOL    MW415390   3.005   5.622   1.198 -0.2558  0.4166 -0.3566
 3915SOL     OW15391   1.888   5.574   0.912 -0.0861  0.1549  0.1546
 3915SOL    HW215392   1.813   5.616   0.870  0.5713  1.5017  0.2739
 3915SOL    HW315393   1.958   5.640   0.908  0.3340 -0.0734  2.3613
 3915SOL    MW415394   1.887   5.588   0.906 -0.0908 -0.0277 -0.0648
 3916SOL     OW15395   3.459   4.750   2.831 -0.0049 -0.7327  0.0522
 3916SOL    HW215396   3.412   4.698   2.766 -0.0304  0.0049 -0.5355
 3916SOL    HW315397   3.544   4.707   2.839  0.5246 -0.0450 -1.5263
 3916SOL    MW415398   3.464   4.738   2.824 -0.0340  0.4270 -0.3367
 3917SOL     OW15399   1.892   3.653   0.583  0.2447 -0.5076 -0.0629
 3917SOL    HW215400   1.974   3.699   0.565 -0.6461  0.6472 -1.3505
 3917SOL    HW315401   1.901   3.623   0.674  0.9542  2.0610  0.7828
 3917SOL    MW415402   1.904   3.655   0.593  0.0450 -0.0059 -0.2098
 3918SOL     OW15403   0.450   2.605   0.771 -0.2988  0.1986 -0.1076
 3918SOL    HW215404   0.496   2.529   0.806  1.3836  1.4611  0.5579
 3918SOL    HW315405   0.503   2.632   0.696 -1.1213  0.4848 -0.6004
 3918SOL    MW415406   0.463   2.598   0.766  0.2170 -0.2719  0.2869
 3919SOL     OW15407   2.232   5.557   3.678 -0.0724 -0.2578 -0.4316
 3919SOL    HW215408   2.276   5.610   3.745 -0.3290 -0.7586  0.1516
 3919SOL    HW315409   2.302   5.507   3.637  0.4381  1.8761 -2.2901
 3919SOL    MW415410   2.247   5.557   3.682  0.0982  0.3210  0.0665
 3920SOL     OW15411   6.137   2.716   0.304 -0.0864  0.3505 -0.2255
 3920SOL    HW215412   6.202   2.661   0.346 -1.5829 -2.1983 -1.0594
 3920SOL    HW315413   6.090   2.758   0.376 -0.0217 -0.8169  0.5047
 3920SOL    MW415414   6.139   2.715   0.319 -0.1636 -0.8100 -0.6346
 3921SOL     OW15415   5.517   4.797   1.479  0.3640 -0.4785 -0.4481
 3921SOL    HW215416   5.563   4.878   1.495  1.0944 -1.1181  0.8312
 3921SOL    HW315417   5.579   4.742   1.431  0.3917 -0.7897 -0.0639
 3921SOL    MW415418   5.531   4.800   1.474  0.5361  0.3010 -0.6398
 3922SOL     OW15419   2.120   2.401   2.688  0.2590 -0.2516 -0.0255
 3922SOL    HW215420   2.167   2.478   2.656 -3.1465  1.9592 -0.1833
 3922SOL    HW315421   2.078   2.364   2.610  0.1471 -1.0161  0.3884
 3922SOL    MW415422   2.121   2.407   2.674 -0.3033  0.2419 -0.4906
 3923SOL     OW15423   6.351   1.126   1.791  0.3423 -0.5103  0.1865
 3923SOL    HW215424   6.310   1.209   1.815 -0.1087 -0.7787  0.3654
 3923SOL    HW315425   6.445   1.144   1.791  0.3672 -0.4486  1.9593
 3923SOL    MW415426   6.358   1.139   1.794 -0.5818 -0.2009  0.3377
 3924SOL     OW15427   1.341   5.483   0.177  0.1066 -0.1254  0.3377
 3924SOL    HW215428   1.301   5.561   0.139  1.4762  0.0712 -0.7691
 3924SOL    HW315429   1.359   5.508   0.268 -3.4930 -0.7120  1.4029
 3924SOL    MW415430   1.338   5.497   0.184  0.0751  0.3726  0.2755
 3925SOL     OW15431   1.376   3.425   4.787 -0.1321  0.1142  0.1249
 3925SOL    HW215432   1.441   3.477   4.834 -1.2739  1.0772  0.6903
 3925SOL    HW315433   1.298   3.428   4.843 -0.7750 -0.7199 -0.7010
 3925SOL    MW415434   1.375   3.433   4.801  0.0245 -0.6878  0.2527
 3926SOL     OW15435   3.564   3.682   2.959 -0.1311  0.1306 -0.3148
 3926SOL    HW215436   3.519   3.633   3.028 -0.9508  2.2735  0.7367
 3926SOL    HW315437   3.499   3.742   2.925  1.0134  0.9604 -1.1214
 3926SOL    MW415438   3.550   3.683   2.964 -0.1899 -0.2411 -0.1066
 3927SOL     OW15439   1.244   0.614   4.240  0.0394  0.1658 -0.0822
 3927SOL    HW215440   1.224   0.532   4.194 -0.4148 -1.3670  2.6149
 3927SOL    HW315441   1.173   0.622   4.304  1.9037  0.7821  2.0274
 3927SOL    MW415442   1.232   0.604   4.243  0.0647 -0.3245  0.0369
 3928SOL     OW15443   2.968   5.446   3.297  0.0608  0.5246  0.1430
 3928SOL    HW215444   2.960   5.507   3.370 -0.1869  0.4503  0.1771
 3928SOL    HW315445   2.974   5.360   3.338  1.7315  0.6110  0.1667
 3928SOL    MW415446   2.968   5.443   3.312 -0.6588  0.2732  0.0058
 3929SOL     OW15447   5.261   3.730   0.957 -0.5372  0.7129 -0.4598
 3929SOL    HW215448   5.182   3.682   0.934  0.9483 -1.0728 -2.2765
 3929SOL    HW315449   5.283   3.701   1.046 -0.7195 -0.5196 -0.8057
 3929SOL    MW415450   5.254   3.720   0.966 -0.1136 -0.0522 -0.0184
 3930SOL     OW15451   1.455   2.008   4.928 -0.0498  0.1681 -0.1754
 3930SOL    HW215452   1.471   2.019   4.834 -0.8015  0.9088 -0.2367
 3930SOL    HW315453   1.447   2.097   4.961 -0.3767 -0.1010  0.4858
 3930SOL    MW415454   1.456   2.021   4.920 -0.3067  0.0258  0.5887
 3931SOL     OW15455   4.682   5.336   5.601 -0.5223 -0.9391 -0.4495
 3931SOL    HW215456   4.743   5.323   5.528  0.8423  1.4190  0.1605
 3931SOL    HW315457   4.724   5.292   5.674 -1.7347 -3.0249 -0.9328
 3931SOL    MW415458   4.695   5.328   5.601  0.5420  0.1393 -0.3304
 3932SOL     OW15459   1.028   6.064   0.684  0.4614 -0.4270 -0.3841
 3932SOL    HW215460   1.080   6.143   0.701 -0.8547 -0.0186  2.2191
 3932SOL    HW315461   0.995   6.038   0.770 -1.1618 -2.4171 -1.5252
 3932SOL    MW415462   1.031   6.071   0.698 -0.5872 -0.1161  0.1792
 3933SOL     OW15463   6.084   5.309   0.472  0.4166  0.5516  1.0064
 3933SOL    HW215464   6.119   5.382   0.523  0.7784  0.0513  1.4843
 3933SOL    HW315465   6.151   5.292   0.406  0.1058  0.9715  0.5759
 3933SOL    MW415466   6.097   5.316   0.470 -0.1037  0.1096  0.5584
 3934SOL     OW15467   1.218   0.630   5.313  0.0727  0.1028 -0.4547
 3934SOL    HW215468   1.138   0.597   5.355  0.4767 -1.0030 -0.5225
 3934SOL    HW315469   1.285   0.566   5.336  0.8199  0.7114 -0.8881
 3934SOL    MW415470   1.216   0.617   5.322 -0.0645  0.0133 -0.0042
 3935SOL     OW15471   1.992   2.346   3.828  0.1463 -0.0022 -0.2819
 3935SOL    HW215472   1.922   2.324   3.767 -0.3409  0.3985  0.1219
 3935SOL    HW315473   1.983   2.441   3.842  0.1631 -0.1058  0.5057
 3935SOL    MW415474   1.982   2.356   3.822  0.3196 -0.0075 -0.2368
 3936SOL     OW15475   0.321   4.607   3.818 -0.6351  0.1462  0.2860
 3936SOL    HW215476   0.369   4.622   3.737 -0.8250 -1.3092 -0.1371
 3936SOL    HW315477   0.260   4.680   3.824 -0.6620  0.2476 -0.9319
 3936SOL    MW415478   0.319   4.618   3.808 -0.2701 -0.4317 -0.7173
 3937SOL     OW15479   4.100   0.953   5.938  0.2600 -0.2035 -0.1427
 3937SOL    HW215480   4.137   0.869   5.963  1.4357  0.3932  0.1945
 3937SOL    HW315481   4.019   0.931   5.891  0.2839 -1.4868  0.3864
 3937SOL    MW415482   4.094   0.939   5.935 -0.3784  0.3496  0.6624
 3938SOL     OW15483   0.272   3.072   3.397 -0.7584 -0.6942 -0.3855
 3938SOL    HW215484   0.225   3.025   3.328 -0.6103 -0.2667 -0.7819
 3938SOL    HW315485   0.208   3.080   3.468 -1.2747 -0.1820 -0.8948
 3938SOL    MW415486   0.257   3.067   3.397 -0.2409 -0.1874  0.4697
 3939SOL     OW15487   2.843   2.968   3.808 -0.1727  0.2061  0.1236
 3939SOL    HW215488   2.934   2.939   3.817 -0.6445 -1.6581 -0.5746
 3939SOL    HW315489   2.846   3.041   3.746  0.8939  0.5250  0.5294
 3939SOL    MW415490   2.855   2.974   3.801  0.4835 -0.3620 -0.1111
 3940SOL     OW15491   3.023   3.327   0.521  0.4113 -0.3781 -0.4208
 3940SOL    HW215492   3.029   3.234   0.499 -1.6406 -0.3961 -1.0394
 3940SOL    HW315493   3.112   3.360   0.505  0.9551 -2.0236 -1.0899
 3940SOL    MW415494   3.036   3.319   0.516 -0.7104  0.5407  0.1242
 3941SOL     OW15495   4.145   1.783   4.661  0.1291 -0.2317 -0.2009
 3941SOL    HW215496   4.162   1.695   4.695 -1.8770 -0.2399  0.9719
 3941SOL    HW315497   4.187   1.841   4.725 -1.8560 -0.3001  1.2482
 3941SOL    MW415498   4.153   1.779   4.674  0.4897 -0.5151 -0.8354
 3942SOL     OW15499   5.587   2.333   2.387 -0.0784 -0.0780 -0.3996
 3942SOL    HW215500   5.545   2.382   2.458  0.6079  0.5782 -0.4340
 3942SOL    HW315501   5.637   2.265   2.432 -1.4438 -1.1022 -0.3747
 3942SOL    MW415502   5.588   2.331   2.403 -0.0080  0.3844  0.0652
 3943SOL     OW15503   0.098   5.035   2.667  0.5558  0.8064 -0.2325
 3943SOL    HW215504   0.080   5.125   2.696 -0.0894  0.6016  0.0279
 3943SOL    HW315505   0.150   4.997   2.737 -1.3672  0.1726  0.9445
 3943SOL    MW415506   0.102   5.042   2.680  0.2996 -0.2310  0.3881
 3944SOL     OW15507   3.869   2.795   0.949 -0.6087  0.2625  0.3702
 3944SOL    HW215508   3.826   2.873   0.984 -2.5659 -1.4647  2.1295
 3944SOL    HW315509   3.962   2.809   0.965 -1.0507  1.6002  2.0747
 3944SOL    MW415510   3.875   2.807   0.956 -0.2168 -0.0781  0.4955
 3945SOL     OW15511   1.466   2.127   2.544 -0.1294  0.4723 -0.3712
 3945SOL    HW215512   1.414   2.050   2.519  1.2762 -0.5688 -0.1708
 3945SOL    HW315513   1.518   2.148   2.467 -2.6137  3.1323 -1.5085
 3945SOL    MW415514   1.466   2.120   2.531 -0.0096  0.3261 -0.2656
 3946SOL     OW15515   1.342   4.048   1.820 -0.4595  0.0470  0.0624
 3946SOL    HW215516   1.299   3.969   1.852 -2.3050  0.7574 -0.5448
 3946SOL    HW315517   1.376   4.091   1.898  2.1343 -2.1491  0.2673
 3946SOL    MW415518   1.341   4.043   1.834 -0.3098  0.1579 -0.2798
 3947SOL     OW15519   2.019   0.290   6.366  0.0545 -0.5448 -0.3821
 3947SOL    HW215520   2.068   0.284   6.448 -1.0240 -3.7162  0.1532
 3947SOL    HW315521   2.063   0.229   6.306  0.1450  0.8808 -1.8557
 3947SOL    MW415522   2.032   0.281   6.369 -0.5932 -0.3714 -0.4508
 3948SOL     OW15523   6.339   6.424   5.167 -0.1789  0.3966 -0.3473
 3948SOL    HW215524   6.431   6.447   5.175 -0.0096  0.6482 -2.4236
 3948SOL    HW315525   6.308   6.415   5.257  1.9641 -0.1406  0.3931
 3948SOL    MW415526   6.347   6.426   5.180  0.5473  0.0115 -0.2478
 3949SOL     OW15527   3.771   4.121   4.590 -0.4911  0.2604 -0.0833
 3949SOL    HW215528   3.818   4.190   4.542 -0.3078  0.4358  0.3456
 3949SOL    HW315529   3.685   4.119   4.549 -0.4889  0.7231 -0.1255
 3949SOL    MW415530   3.766   4.130   4.578  1.0526  0.3514 -0.2431
 3950SOL     OW15531   3.334   5.488   4.875  0.0296  0.5562 -0.6348
 3950SOL    HW215532   3.292   5.502   4.790 -0.4667  1.7741 -0.2103
 3950SOL    HW315533   3.347   5.576   4.910  0.1727  0.0680  0.5794
 3950SOL    MW415534   3.330   5.502   4.868  0.3567 -0.4041  0.1868
 3951SOL     OW15535   6.392   0.862   3.338 -0.0359  0.4419 -0.0843
 3951SOL    HW215536   6.298   0.876   3.343 -0.1475 -0.5233  0.9919
 3951SOL    HW315537   6.405   0.820   3.252 -0.3044  2.3445 -1.1021
 3951SOL    MW415538   6.381   0.858   3.327 -0.2752 -0.5153  0.0160
 3952SOL     OW15539   5.612   3.360   3.694 -0.1355 -0.7631 -0.4166
 3952SOL    HW215540   5.606   3.410   3.776 -0.2686 -0.1867 -0.7725
 3952SOL    HW315541   5.524   3.366   3.657  0.4369  0.7900 -1.6452
 3952SOL    MW415542   5.599   3.368   3.700  0.6534 -0.5448  0.4945
 3953SOL     OW15543   2.899   4.441   5.008  0.1758 -0.3768 -0.2243
 3953SOL    HW215544   2.814   4.402   5.031  0.0224  0.3374  0.4779
 3953SOL    HW315545   2.909   4.423   4.915 -1.2466  0.4200 -0.5685
 3953SOL    MW415546   2.889   4.434   4.999  0.0634 -0.4470 -0.1858
 3954SOL     OW15547   6.124   6.357   6.010  0.1289  1.1501 -0.2107
 3954SOL    HW215548   6.054   6.345   5.946  1.2670 -0.2627 -1.2712
 3954SOL    HW315549   6.155   6.447   5.995 -0.9290  1.5275 -0.2385
 3954SOL    MW415550   6.119   6.367   6.000 -0.0745 -0.1673  0.2646
 3955SOL     OW15551   3.092   1.889   1.557 -0.1006 -0.1172 -0.5175
 3955SOL    HW215552   3.070   1.960   1.617 -1.9252  0.8609 -2.2359
 3955SOL    HW315553   3.023   1.891   1.491  1.2112 -1.8571 -2.0402
 3955SOL    MW415554   3.080   1.899   1.556  0.4815 -0.5503  0.1550
 3956SOL     OW15555   5.104   1.837   5.950 -0.9701  0.5508  0.3765
 3956SOL    HW215556   5.112   1.785   5.871 -2.3295  1.0066 -0.1010
 3956SOL    HW315557   5.109   1.773   6.022 -1.3802 -0.0926 -0.1502
 3956SOL    MW415558   5.105   1.822   5.949 -0.5605 -0.4774 -0.0566
 3957SOL     OW15559   0.105   1.143   1.528 -0.2675 -0.2484 -0.4208
 3957SOL    HW215560   0.084   1.062   1.576  0.7913 -0.5468 -0.4483
 3957SOL    HW315561   0.070   1.129   1.440 -0.6945 -0.3934 -0.2318
 3957SOL    MW415562   0.097   1.130   1.523 -0.2097  0.1361 -0.4908
 3958SOL     OW15563   0.055   5.884   6.424 -0.3126  0.0572 -0.5469
 3958SOL    HW215564  -0.038   5.889   6.401 -0.2481  2.3027 -0.5663
 3958SOL    HW315565   0.056   5.840   6.509 -1.6556  1.9321  0.5270
 3958SOL    MW415566   0.042   5.879   6.432 -0.0774  0.4255  0.4547
 3959SOL     OW15567   0.464   5.663   6.168  0.4099  0.2303 -0.3746
 3959SOL    HW215568   0.406   5.737   6.186 -0.9163 -0.6378 -0.9208
 3959SOL    HW315569   0.533   5.700   6.113 -1.9120  0.5248 -3.3674
 3959SOL    MW415570   0.465   5.678   6.163 -0.6328  0.0169 -0.3488
 3960SOL     OW15571   3.157   2.554   1.062  0.2206  0.7017 -0.1767
 3960SOL    HW215572   3.221   2.577   0.995  0.8302 -2.6186 -0.9456
 3960SOL    HW315573   3.105   2.484   1.022 -1.5043  0.7938  1.7350
 3960SOL    MW415574   3.159   2.548   1.047  0.3379  0.2577 -1.0795
 3961SOL     OW15575   1.855   5.024   2.953 -0.0547 -0.0846 -0.1992
 3961SOL    HW215576   1.875   5.053   3.042 -0.6281  1.0231 -0.4127
 3961SOL    HW315577   1.761   5.038   2.943 -0.1016 -0.7498 -0.7940
 3961SOL    MW415578   1.845   5.030   2.963 -0.1181  0.4663  0.3200
 3962SOL     OW15579   2.891   3.325   0.991 -0.1736 -0.4031  0.1214
 3962SOL    HW215580   2.939   3.253   1.032  1.3860 -0.2487 -1.3450
 3962SOL    HW315581   2.943   3.403   1.009 -0.1523 -0.1339 -0.9977
 3962SOL    MW415582   2.904   3.326   0.999  0.2353 -0.2510 -0.1136
 3963SOL     OW15583   4.907   6.090   6.099  0.3670  0.2322  0.2529
 3963SOL    HW215584   4.881   6.177   6.071  0.7021  0.6194  1.1234
 3963SOL    HW315585   4.853   6.031   6.046 -0.8745  0.9826  0.6554
 3963SOL    MW415586   4.897   6.093   6.088 -0.1200 -0.2729  0.4637
 3964SOL     OW15587   0.991   4.043   6.343 -0.1704  0.6095 -0.2147
 3964SOL    HW215588   0.931   4.109   6.308  0.0734  0.3936 -1.0637
 3964SOL    HW315589   0.941   3.961   6.336  0.4761  0.3139 -1.6185
 3964SOL    MW415590   0.976   4.041   6.337  0.1479 -0.3900 -0.3170
 3965SOL     OW15591   5.681   2.944   4.068  1.0339  0.1107  0.6317
 3965SOL    HW215592   5.719   2.995   4.139  1.0250  1.3228 -0.1929
 3965SOL    HW315593   5.703   2.994   3.989  0.0792 -0.6061 -0.1081
 3965SOL    MW415594   5.689   2.957   4.067 -1.1206  0.2057  0.3014
 3966SOL     OW15595   0.567   1.935   0.576 -0.0324  0.1273  0.0190
 3966SOL    HW215596   0.553   1.969   0.487 -1.2853 -0.4843 -0.0488
 3966SOL    HW315597   0.643   1.878   0.568  0.2680  0.5868 -0.5130
 3966SOL    MW415598   0.575   1.932   0.563  0.0424 -0.1777  0.3105
 3967SOL     OW15599   5.017   5.205   6.156  0.3536 -0.0834 -0.4766
 3967SOL    HW215600   4.951   5.274   6.160  1.3521  0.9437 -1.3074
 3967SOL    HW315601   4.972   5.132   6.113 -0.3626  0.4676 -0.6812
 3967SOL    MW415602   5.002   5.204   6.151  0.3941 -0.3977 -0.6726
 3968SOL     OW15603   2.193   1.836   2.061 -0.0351 -0.7829 -0.1407
 3968SOL    HW215604   2.217   1.768   2.124 -0.7602 -1.7892 -0.9242
 3968SOL    HW315605   2.157   1.788   1.986 -1.8043  0.5182 -0.1838
 3968SOL    MW415606   2.192   1.820   2.059 -0.2679  0.6952 -0.2389
 3969SOL     OW15607   2.255   3.711   2.593  0.2892 -0.2201 -0.1873
 3969SOL    HW215608   2.238   3.727   2.686 -0.9405 -0.1604 -0.4007
 3969SOL    HW315609   2.262   3.615   2.587 -0.9679 -0.3371 -0.2081
 3969SOL    MW415610   2.254   3.700   2.605  0.2354  0.0640 -0.2376
 3970SOL     OW15611   4.433   1.468   3.282 -0.4343  0.2075  0.1372
 3970SOL    HW215612   4.366   1.530   3.254  0.2747  1.1305  0.4148
 3970SOL    HW315613   4.516   1.516   3.270  0.2522 -1.2102 -1.0311
 3970SOL    MW415614   4.435   1.483   3.277 -0.6914 -0.1013 -0.1290
 3971SOL     OW15615   5.816   5.444   6.097 -0.1747  0.0559  1.0633
 3971SOL    HW215616   5.876   5.395   6.041 -0.0874 -1.0439  2.0717
 3971SOL    HW315617   5.793   5.521   6.046 -0.8416 -1.3372 -0.8881
 3971SOL    MW415618   5.821   5.448   6.083  0.7298  0.6526  0.2490
 3972SOL     OW15619   4.410   1.130   4.526 -0.1508 -0.1101  0.8177
 3972SOL    HW215620   4.471   1.147   4.454 -0.5988  1.1249  0.7138
 3972SOL    HW315621   4.385   1.038   4.514 -1.6371  0.5310 -1.7291
 3972SOL    MW415622   4.415   1.120   4.515  0.2860  0.1435  0.0097
 3973SOL     OW15623   4.986   0.309   4.772 -0.3359  0.1474  0.0112
 3973SOL    HW215624   5.021   0.221   4.781 -1.2349 -0.3018 -0.7448
 3973SOL    HW315625   5.038   0.362   4.833  1.3351 -0.5590 -0.7385
 3973SOL    MW415626   4.997   0.305   4.782 -0.1232 -0.5949  0.1709
 3974SOL     OW15627   4.952   2.237   3.042 -0.3405  0.4923  0.8491
 3974SOL    HW215628   5.002   2.187   3.107  0.7501 -0.3087 -0.5505
 3974SOL    HW315629   4.983   2.204   2.958 -1.9883  1.2316 -0.0896
 3974SOL    MW415630   4.962   2.226   3.040 -0.0949 -0.7266  0.2947
 3975SOL     OW15631   2.411   5.484   5.372  0.3146  0.7029 -0.4006
 3975SOL    HW215632   2.338   5.519   5.423  0.6349  0.2475  0.3780
 3975SOL    HW315633   2.483   5.545   5.387  0.3036  0.7652 -0.5982
 3975SOL    MW415634   2.411   5.496   5.381  0.5271 -0.6366  0.1112
 3976SOL     OW15635   2.565   0.242   5.369 -0.1423 -0.1800 -0.2521
 3976SOL    HW215636   2.580   0.180   5.440  4.2956 -0.2784 -0.9838
 3976SOL    HW315637   2.582   0.327   5.407  1.3425 -0.1533 -0.9126
 3976SOL    MW415638   2.569   0.245   5.383 -0.1390 -0.0950 -0.0541
 3977SOL     OW15639   5.829   5.477   1.629 -0.1858  0.0124  0.1129
 3977SOL    HW215640   5.904   5.504   1.576  0.1901 -1.6129 -0.2407
 3977SOL    HW315641   5.867   5.422   1.698 -0.9035  0.4212  0.8493
 3977SOL    MW415642   5.844   5.473   1.631 -0.7721  0.4051 -0.4737
 3978SOL     OW15643   5.096   4.076   1.178  0.8537 -0.2697 -0.4675
 3978SOL    HW215644   5.058   4.163   1.172  1.0758 -0.1425 -0.0767
 3978SOL    HW315645   5.126   4.056   1.089 -0.4531 -0.5325 -0.8677
 3978SOL    MW415646   5.095   4.085   1.165 -0.0311 -0.4744  0.6720
 3979SOL     OW15647   6.417   0.825   3.815  0.4376 -0.4364  0.1105
 3979SOL    HW215648   6.452   0.878   3.887  0.0629  0.1624 -0.1379
 3979SOL    HW315649   6.330   0.798   3.846  0.0379  0.2996 -0.3305
 3979SOL    MW415650   6.410   0.828   3.829 -0.2381 -0.7046  0.6095
 3980SOL     OW15651   1.436   1.015   0.293 -0.2047  0.1097  0.3252
 3980SOL    HW215652   1.352   1.038   0.254 -0.6565 -1.5148  0.2669
 3980SOL    HW315653   1.446   0.921   0.276  1.9330  0.3923 -0.2320
 3980SOL    MW415654   1.426   1.006   0.286  0.1544  0.3241 -0.1576
 3981SOL     OW15655   0.888   3.671   4.103  0.1350  0.6293 -0.0643
 3981SOL    HW215656   0.866   3.594   4.050 -3.0536  2.3050 -1.4005
 3981SOL    HW315657   0.983   3.679   4.094  0.2253 -1.5269 -2.1410
 3981SOL    MW415658   0.898   3.662   4.095 -0.1779 -0.5954  0.2386
 3982SOL     OW15659   3.138   0.361   1.192 -0.5678 -0.1272  0.1793
 3982SOL    HW215660   3.229   0.363   1.220 -0.6124  2.7867  0.4337
 3982SOL    HW315661   3.130   0.433   1.129 -2.8996  0.3814  0.9512
 3982SOL    MW415662   3.149   0.371   1.187  0.2658 -0.0227 -0.6503
 3983SOL     OW15663   4.688   5.472   2.851  0.0379  0.3109 -0.0780
 3983SOL    HW215664   4.628   5.398   2.850  0.7552 -0.2812 -1.4941
 3983SOL    HW315665   4.642   5.542   2.804 -0.3497  0.5442  0.6338
 3983SOL    MW415666   4.674   5.472   2.845 -0.5769  0.1998  0.0203
 3984SOL     OW15667   3.462   1.275   6.063  0.2520  0.4041 -0.3862
 3984SOL    HW215668   3.498   1.296   5.977  2.1188 -0.5977  0.1079
 3984SOL    HW315669   3.448   1.180   6.061 -0.1900  0.4485  0.2376
 3984SOL    MW415670   3.464   1.265   6.051 -0.4006 -0.1140 -0.5396
 3985SOL     OW15671   4.186   5.746   1.709 -0.5146 -0.5845  0.2834
 3985SOL    HW215672   4.097   5.734   1.676 -0.3807 -1.5343  0.2352
 3985SOL    HW315673   4.175   5.769   1.801 -0.8644  1.3083 -0.2048
 3985SOL    MW415674   4.173   5.747   1.717 -0.0759 -0.0154  0.4319
 3986SOL     OW15675   2.764   2.956   2.629  0.1218 -0.3563  0.3833
 3986SOL    HW215676   2.738   3.019   2.696 -1.8100 -1.1959  0.4838
 3986SOL    HW315677   2.820   2.894   2.675 -1.7153 -1.3016  1.4395
 3986SOL    MW415678   2.768   2.956   2.644 -0.0254  0.1652 -0.5233
 3987SOL     OW15679   2.538   3.483   4.963 -0.3316 -0.0207  0.7540
 3987SOL    HW215680   2.582   3.567   4.950 -1.1986  0.6109  1.7089
 3987SOL    HW315681   2.586   3.422   4.908  1.0066  0.8740  0.8809
 3987SOL    MW415682   2.550   3.486   4.954  0.3072 -0.1445  0.4166
 3988SOL     OW15683   4.558   5.135   4.945  0.6888  0.2196  0.7434
 3988SOL    HW215684   4.627   5.074   4.971  0.4150 -0.7598 -0.7428
 3988SOL    HW315685   4.603   5.203   4.895  0.5546 -0.5868 -0.4956
 3988SOL    MW415686   4.573   5.136   4.942 -0.4051  0.2600 -0.3747
 3989SOL     OW15687   3.961   0.664   0.893 -0.1503 -0.3462  0.2002
 3989SOL    HW215688   4.005   0.702   0.817  0.3584  0.8130  1.0434
 3989SOL    HW315689   4.003   0.579   0.905  0.8359  0.1151  0.0972
 3989SOL    MW415690   3.972   0.657   0.884 -0.0859 -0.2851  0.4713
 3990SOL     OW15691   1.208   0.739   3.887 -0.0096 -0.1053 -0.6609
 3990SOL    HW215692   1.159   0.745   3.805 -1.1748 -1.1090 -0.0561
 3990SOL    HW315693   1.299   0.723   3.859 -0.5581 -1.4743 -1.7531
 3990SOL    MW415694   1.214   0.738   3.872  0.1105 -0.2186 -0.3697
 3991SOL     OW15695   5.797   0.939   6.330  0.0745 -0.0871 -0.1923
 3991SOL    HW215696   5.726   0.926   6.267 -0.0028 -0.2945 -0.0644
 3991SOL    HW315697   5.846   0.857   6.328 -0.6233 -0.5588  0.8808
 3991SOL    MW415698   5.794   0.927   6.322  0.5408  0.2237 -0.2325
 3992SOL     OW15699   6.289   5.926   0.950 -0.6313 -0.1071  0.3014
 3992SOL    HW215700   6.338   6.008   0.941  0.8791 -0.8869  0.9824
 3992SOL    HW315701   6.254   5.928   1.039  1.4676 -1.2218  1.2133
 3992SOL    MW415702   6.291   5.937   0.960 -0.1807 -0.4468  0.2181
 3993SOL     OW15703   3.189   2.192   0.783  0.1032 -0.3828 -0.3229
 3993SOL    HW215704   3.172   2.240   0.864  1.3966  1.2169 -0.9524
 3993SOL    HW315705   3.102   2.171   0.748 -0.4648  0.1281  0.7661
 3993SOL    MW415706   3.175   2.195   0.789 -0.1641  0.1344 -0.7092
 3994SOL     OW15707   6.148   0.937   4.281  0.0581  0.1161  0.3337
 3994SOL    HW215708   6.146   1.005   4.348 -1.2014  0.1240  0.3143
 3994SOL    HW315709   6.157   0.984   4.198 -1.1248  0.3197  0.2928
 3994SOL    MW415710   6.149   0.952   4.279  0.7911 -0.0252 -0.5082
 3995SOL     OW15711   2.469   2.131   2.184  0.4160 -0.4431 -0.2891
 3995SOL    HW215712   2.557   2.134   2.146 -0.0137  0.4440 -1.2704
 3995SOL    HW315713   2.483   2.134   2.278  1.4256 -0.0114 -0.4414
 3995SOL    MW415714   2.483   2.132   2.191  0.0648 -0.1989  0.3504
 3996SOL     OW15715   5.113   6.152   2.042  0.0127  0.2113  0.0665
 3996SOL    HW215716   5.182   6.113   2.095  1.1287 -1.2420 -2.3040
 3996SOL    HW315717   5.040   6.092   2.049 -0.1450  0.4669  0.6267
 3996SOL    MW415718   5.113   6.139   2.050  0.1400 -0.3107 -0.0600
 3997SOL     OW15719   3.947   2.504   3.238  0.0727  0.0349  0.4751
 3997SOL    HW215720   3.935   2.509   3.333 -0.6592  0.7455  0.3602
 3997SOL    HW315721   3.978   2.591   3.214 -0.1609 -0.0053  0.0125
 3997SOL    MW415722   3.950   2.516   3.248  0.3336 -0.3485  0.6518
 3998SOL     OW15723   3.857   5.611   0.492 -0.3736 -0.0533 -0.9132
 3998SOL    HW215724   3.793   5.683   0.491  0.2908  0.6495  1.1036
 3998SOL    HW315725   3.845   5.567   0.408 -1.4320  1.8672 -1.8458
 3998SOL    MW415726   3.847   5.615   0.481 -0.3621 -0.2231  0.1454
 3999SOL     OW15727   4.976   4.090   6.037  0.0971 -0.5743 -0.2962
 3999SOL    HW215728   4.904   4.143   6.070 -0.7149 -2.4209  1.0348
 3999SOL    HW315729   4.939   4.041   5.963  0.4028 -0.4284 -0.5469
 3999SOL    MW415730   4.962   4.090   6.032 -0.4823  0.4781 -0.6584
 4000SOL     OW15731   2.595   2.659   2.736 -0.4180 -0.5946  0.7437
 4000SOL    HW215732   2.524   2.604   2.769  0.8608 -1.8670  1.5062
 4000SOL    HW315733   2.675   2.619   2.772  0.7932  0.0118 -1.0967
 4000SOL    MW415734   2.596   2.646   2.745 -0.1311 -0.4827  0.4605
 4001SOL     OW15735   5.057   5.962   5.799 -0.7183 -0.2238  0.2563
 4001SOL    HW215736   5.108   5.975   5.879 -0.6525 -0.0358  0.1849
 4001SOL    HW315737   5.028   6.050   5.774 -2.8643 -0.5203  1.4630
 4001SOL    MW415738   5.060   5.976   5.806  0.1082  0.2465  0.3105
 4002SOL     OW15739   0.237   5.804   5.503 -0.2224 -0.3601  0.0114
 4002SOL    HW215740   0.219   5.720   5.546 -2.4571  0.1050  0.1239
 4002SOL    HW315741   0.153   5.850   5.506  0.4280  1.0623 -1.8580
 4002SOL    MW415742   0.223   5.799   5.509  0.2363  0.2861  0.3133
 4003SOL     OW15743   3.989   5.404   2.859  0.2555  0.1909 -0.0427
 4003SOL    HW215744   4.035   5.343   2.801 -1.0449 -0.3669 -0.5077
 4003SOL    HW315745   3.983   5.485   2.808 -0.1761 -0.0506 -0.3746
 4003SOL    MW415746   3.995   5.407   2.845 -0.0746  0.0264  0.1208
 4004SOL     OW15747   1.325   5.604   5.675  0.1553  0.2714  0.2351
 4004SOL    HW215748   1.364   5.636   5.756  0.8541 -0.9000  0.3783
 4004SOL    HW315749   1.251   5.551   5.703  1.2605 -1.3385  0.2087
 4004SOL    MW415750   1.320   5.601   5.689 -0.4024  0.2841 -0.2631
 4005SOL     OW15751   3.578   0.840   4.700 -0.3419  0.1687 -0.2057
 4005SOL    HW215752   3.648   0.899   4.727 -0.4177 -0.4028  1.3455
 4005SOL    HW315753   3.501   0.897   4.690  0.0853  0.6388 -0.8674
 4005SOL    MW415754   3.577   0.855   4.702 -0.0215 -0.2822 -0.3299
 4006SOL     OW15755   2.786   3.899   4.220  0.3367  0.3239 -0.0545
 4006SOL    HW215756   2.856   3.961   4.198  0.6291 -0.1512 -0.4951
 4006SOL    HW315757   2.705   3.947   4.203  0.5477  0.0530 -2.0817
 4006SOL    MW415758   2.784   3.913   4.215 -0.3826  0.5359  0.1848
 4007SOL     OW15759   6.154   4.149   5.918  0.3618  0.2761 -0.5611
 4007SOL    HW215760   6.164   4.190   6.004 -0.7166  0.7239 -0.6393
 4007SOL    HW315761   6.237   4.167   5.873  1.3695 -0.9103  0.7613
 4007SOL    MW415762   6.167   4.157   5.923  0.4313  1.1375 -0.0111
 4008SOL     OW15763   4.548   2.252   6.163 -0.0647 -0.3363 -0.1835
 4008SOL    HW215764   4.579   2.327   6.214  0.5353 -0.3950 -0.4570
 4008SOL    HW315765   4.461   2.233   6.199  0.2066 -0.1621  0.5903
 4008SOL    MW415766   4.540   2.259   6.175 -0.5832 -0.5261 -0.0670
 4009SOL     OW15767   0.535   0.536   0.499 -0.0266 -0.2374 -0.6378
 4009SOL    HW215768   0.564   0.448   0.476 -0.2885  0.1237 -2.4547
 4009SOL    HW315769   0.439   0.531   0.501 -0.0200 -0.3880  1.0481
 4009SOL    MW415770   0.526   0.524   0.497 -0.3608  0.3872 -0.4377
 4010SOL     OW15771   6.086   4.291   1.952  0.2578  0.0662 -0.3942
 4010SOL    HW215772   6.083   4.373   2.000  0.6298  0.3475 -0.8415
 4010SOL    HW315773   6.159   4.302   1.891 -0.1942 -0.2937 -1.0058
 4010SOL    MW415774   6.095   4.303   1.950 -0.2795 -0.5174  0.3700
 4011SOL     OW15775   0.982   1.579   2.411  0.2146 -0.7644 -0.3041
 4011SOL    HW215776   1.072   1.596   2.383  0.3302  4.3062  2.0037
 4011SOL    HW315777   0.930   1.587   2.330  1.4272  2.6543 -0.9149
 4011SOL    MW415778   0.987   1.583   2.396 -0.6054 -0.1403 -0.0174
 4012SOL     OW15779   4.977   4.049   3.361 -0.0776 -0.0389  0.7937
 4012SOL    HW215780   5.066   4.049   3.397 -0.6027 -0.5460  2.1268
 4012SOL    HW315781   4.920   4.066   3.436 -1.1760 -0.6650  0.1299
 4012SOL    MW415782   4.981   4.051   3.376  0.2435  0.7654  0.1210
 4013SOL     OW15783   2.720   2.647   0.984  0.1018  0.6230  0.0161
 4013SOL    HW215784   2.785   2.637   1.054 -0.9236  0.1749  0.9373
 4013SOL    HW315785   2.711   2.560   0.947  0.1706  0.7237 -0.2354
 4013SOL    MW415786   2.727   2.634   0.989  0.1224  0.1662 -0.2718
 4014SOL     OW15787   5.637   6.051   2.568 -0.3163  0.1636  0.0870
 4014SOL    HW215788   5.592   6.013   2.643 -2.7372  0.5617 -1.0648
 4014SOL    HW315789   5.590   6.132   2.549  0.7088  0.4607 -1.4159
 4014SOL    MW415790   5.625   6.057   2.575 -0.1447  0.0676  0.1555
 4015SOL     OW15791   4.639   2.563   0.503 -0.3261  0.0162  0.2421
 4015SOL    HW215792   4.604   2.543   0.590  1.5341 -1.0341  0.8026
 4015SOL    HW315793   4.730   2.534   0.507 -0.3398 -0.5447 -2.2354
 4015SOL    MW415794   4.646   2.557   0.515  0.0053 -0.2630 -0.7460
 4016SOL     OW15795   0.221   3.965   5.672  0.6843  0.4967  0.0125
 4016SOL    HW215796   0.170   3.954   5.752 -0.5797 -0.5125 -0.8662
 4016SOL    HW315797   0.200   3.887   5.620  3.2527 -0.0336 -0.3678
 4016SOL    MW415798   0.211   3.953   5.675 -1.1197 -0.3077 -0.4751
 4017SOL     OW15799   0.200   2.831   2.085  0.2412 -0.3250 -0.0221
 4017SOL    HW215800   0.239   2.812   2.000 -0.6106 -0.0997 -0.4763
 4017SOL    HW315801   0.123   2.774   2.090 -1.2474  1.5273 -0.5905
 4017SOL    MW415802   0.195   2.821   2.074  0.1905 -0.5236 -0.8909
 4018SOL     OW15803   1.354   3.857   0.371  0.0730  0.8625  0.3835
 4018SOL    HW215804   1.339   3.864   0.466  1.1786 -0.9842  0.7512
 4018SOL    HW315805   1.267   3.860   0.333 -0.4530  0.9029  1.5416
 4018SOL    MW415806   1.341   3.858   0.379 -0.2609  0.4253  0.7721
 4019SOL     OW15807   5.464   2.775   4.211  0.2005  0.2811 -0.0961
 4019SOL    HW215808   5.500   2.809   4.129 -0.7426  1.0098 -0.2282
 4019SOL    HW315809   5.540   2.750   4.262  0.7884 -1.7830 -1.8347
 4019SOL    MW415810   5.479   2.776   4.207 -0.0872  0.3835 -0.3009
 4020SOL     OW15811   2.814   1.627   3.788  0.2329 -0.2036  0.7724
 4020SOL    HW215812   2.769   1.585   3.715  0.5146 -0.5189  0.7763
 4020SOL    HW315813   2.745   1.672   3.836  0.1283  0.4701  0.0046
 4020SOL    MW415814   2.799   1.627   3.785 -0.8628 -0.1123 -0.3434
 4021SOL     OW15815   2.819   0.886   0.632 -0.0647 -0.4358  0.1604
 4021SOL    HW215816   2.803   0.933   0.714  0.8674 -0.1706  0.2034
 4021SOL    HW315817   2.835   0.796   0.660  1.9037 -0.0471  0.4745
 4021SOL    MW415818   2.819   0.880   0.647  0.0187 -0.8624  0.5664
 4022SOL     OW15819   5.305   6.332   6.360  0.1648 -0.5055  0.0859
 4022SOL    HW215820   5.375   6.377   6.312 -0.9570  0.4629 -0.7001
 4022SOL    HW315821   5.317   6.360   6.451  0.3812  0.2026 -0.1566
 4022SOL    MW415822   5.316   6.342   6.365  0.7463  0.4903 -0.0778
 4023SOL     OW15823   5.245   4.879   5.929 -0.0349  0.0106 -0.2311
 4023SOL    HW215824   5.207   4.854   6.014 -1.2680  0.1748 -0.7189
 4023SOL    HW315825   5.269   4.971   5.940 -0.3967  0.0943 -0.1367
 4023SOL    MW415826   5.243   4.888   5.942 -0.0434 -0.5680 -0.2565
 4024SOL     OW15827   1.569   2.404   1.375  0.1727 -0.7648 -0.7254
 4024SOL    HW215828   1.535   2.437   1.458 -0.1582  0.1017 -1.1823
 4024SOL    HW315829   1.541   2.313   1.371 -1.6744 -0.2313 -0.8275
 4024SOL    MW415830   1.561   2.397   1.385 -0.3939  0.1854  0.1188
 4025SOL     OW15831   2.794   3.261   6.062 -0.2321  0.1087 -0.5759
 4025SOL    HW215832   2.756   3.347   6.046  0.4461  0.2302 -1.6174
 4025SOL    HW315833   2.735   3.200   6.018 -0.6485  0.0493  0.0613
 4025SOL    MW415834   2.782   3.264   6.054 -0.5779 -0.2214 -0.4236
 4026SOL     OW15835   5.313   2.041   5.546  0.5155  0.0620 -0.6135
 4026SOL    HW215836   5.348   1.952   5.540 -2.4198 -1.1944 -0.5687
 4026SOL    HW315837   5.311   2.060   5.640  0.9420  0.1004 -0.6103
 4026SOL    MW415838   5.317   2.032   5.558  0.1025 -0.4456  0.7635
 4027SOL     OW15839   0.961   0.557   3.972 -0.6162 -0.4690  0.3082
 4027SOL    HW215840   1.017   0.615   3.921 -1.1146 -1.0242 -0.9284
 4027SOL    HW315841   0.932   0.490   3.909 -2.9536  0.0066  0.7678
 4027SOL    MW415842   0.965   0.556   3.957 -0.2033  0.1021 -0.0226
 4028SOL     OW15843   5.963   6.293   5.505  0.2520  0.1593  0.3387
 4028SOL    HW215844   5.962   6.328   5.594 -0.2572 -0.5499  0.6185
 4028SOL    HW315845   6.051   6.313   5.472  0.5341  0.1832  1.0939
 4028SOL    MW415846   5.974   6.300   5.512 -0.1990 -0.3640  0.1886
 4029SOL     OW15847   3.329   4.149   1.552  0.4885 -1.1443 -0.4290
 4029SOL    HW215848   3.351   4.075   1.496  2.3176  0.5020 -2.0354
 4029SOL    HW315849   3.404   4.208   1.545 -0.5029  0.4847  1.4883
 4029SOL    MW415850   3.342   4.147   1.544 -0.3280  0.2377  0.4434
 4030SOL     OW15851   0.343   1.254   0.748  0.2226 -0.6364  0.1586
 4030SOL    HW215852   0.281   1.285   0.681  0.2752  0.4385  0.5867
 4030SOL    HW315853   0.382   1.334   0.783  1.8740 -1.2930 -0.1067
 4030SOL    MW415854   0.340   1.268   0.744  0.8293 -0.0712  0.1750
 4031SOL     OW15855   5.268   4.608   4.530 -0.2781  0.2075  0.1108
 4031SOL    HW215856   5.230   4.690   4.500 -0.3050  0.0238 -0.3753
 4031SOL    HW315857   5.197   4.565   4.578 -0.0819  0.7266  0.8886
 4031SOL    MW415858   5.254   4.613   4.533 -0.4730  0.7237  0.0200
 4032SOL     OW15859   5.453   2.621   6.112  0.3575 -0.0362 -0.5842
 4032SOL    HW215860   5.529   2.675   6.088 -0.2952  2.1929  1.9062
 4032SOL    HW315861   5.492   2.538   6.139  1.7300  0.3601 -1.2030
 4032SOL    MW415862   5.468   2.617   6.113  0.3606 -0.1868  0.3001
 4033SOL     OW15863   1.337   4.526   2.458  0.0576  0.0448 -0.3891
 4033SOL    HW215864   1.370   4.462   2.521 -0.3442  0.0820 -0.1395
 4033SOL    HW315865   1.391   4.604   2.473 -0.9567  0.5382  0.8995
 4033SOL    MW415866   1.348   4.528   2.468  0.2478  0.4123  0.6247
 4034SOL     OW15867   0.482   4.117   5.024  0.2161  0.1182  0.5770
 4034SOL    HW215868   0.484   4.197   4.972  1.3314 -0.1156  0.2323
 4034SOL    HW315869   0.573   4.088   5.026 -0.1012 -0.8695  1.1266
 4034SOL    MW415870   0.494   4.124   5.018  0.1594  0.2203  0.0301
 4035SOL     OW15871   5.533   4.020   1.607 -0.8053  0.2140  0.4934
 4035SOL    HW215872   5.592   3.954   1.644 -1.7684 -0.4259  0.9307
 4035SOL    HW315873   5.552   4.099   1.658  0.0195  0.1616  0.2864
 4035SOL    MW415874   5.543   4.022   1.619  0.0696  0.5074  0.3127
 4036SOL     OW15875   5.757   2.483   0.145 -0.0742 -0.4446 -0.0687
 4036SOL    HW215876   5.673   2.526   0.133 -1.9665 -3.1002  2.2715
 4036SOL    HW315877   5.756   2.410   0.083  1.1358  0.2220 -0.9233
 4036SOL    MW415878   5.746   2.479   0.135  0.9596 -0.3940  0.1232
 4037SOL     OW15879   1.661   1.494   5.209  0.1561  0.1701  0.2092
 4037SOL    HW215880   1.654   1.422   5.271 -0.5130 -1.5032 -1.6995
 4037SOL    HW315881   1.603   1.469   5.137 -0.5687  2.9222 -0.2766
 4037SOL    MW415882   1.652   1.481   5.208  0.0410  0.1463 -0.1976
 4038SOL     OW15883   3.452   4.572   6.363 -0.2718 -0.0743 -0.0400
 4038SOL    HW215884   3.517   4.608   6.423 -0.9446  1.4576 -0.1936
 4038SOL    HW315885   3.494   4.494   6.327  2.2111  1.7263 -1.4059
 4038SOL    MW415886   3.466   4.567   6.366 -0.8880 -0.6356 -0.4733
 4039SOL     OW15887   0.263   2.995   1.760 -0.3098  0.5465  0.1275
 4039SOL    HW215888   0.320   3.004   1.684  0.2492  1.5979  0.6470
 4039SOL    HW315889   0.191   3.055   1.744 -0.1846  0.7807  0.4259
 4039SOL    MW415890   0.261   3.004   1.748  0.0168  0.1477  0.2858
 4040SOL     OW15891   3.972   3.618   0.206 -0.7065 -0.5230 -0.1794
 4040SOL    HW215892   3.990   3.711   0.214  0.0214 -0.7863  2.1217
 4040SOL    HW315893   3.877   3.612   0.194 -0.5908  0.5234 -2.0127
 4040SOL    MW415894   3.962   3.629   0.205 -1.0355 -0.4760  0.2691
 4041SOL     OW15895   5.958   5.481   5.763  0.4053 -1.2378 -0.4731
 4041SOL    HW215896   5.979   5.429   5.840  0.1765 -0.2935  0.2369
 4041SOL    HW315897   5.984   5.426   5.689  0.1193 -2.3740  0.2552
 4041SOL    MW415898   5.964   5.467   5.763 -0.1565 -0.4469  0.3425
 4042SOL     OW15899   4.961   4.285   5.004 -0.1883  0.2243 -0.4019
 4042SOL    HW215900   4.958   4.371   5.047 -0.1712  0.3628 -0.6729
 4042SOL    HW315901   4.869   4.268   4.980 -0.4936 -0.6995  1.3226
 4042SOL    MW415902   4.948   4.294   5.006 -0.2724 -0.1623 -0.5121
 4043SOL     OW15903   3.454   5.348   4.572 -0.6871 -0.2161 -0.1100
 4043SOL    HW215904   3.537   5.338   4.526 -0.4337  0.0783  0.2744
 4043SOL    HW315905   3.390   5.367   4.503 -0.1510  1.0976 -0.2645
 4043SOL    MW415906   3.456   5.349   4.557  0.1728  0.5045  0.4252
 4044SOL     OW15907   2.466   1.097   5.055  0.7652  0.3054  0.4119
 4044SOL    HW215908   2.494   1.141   5.136  1.8619 -0.1172  0.2854
 4044SOL    HW315909   2.448   1.007   5.082  1.0147  0.1955  0.2162
 4044SOL    MW415910   2.468   1.091   5.070  0.7959  0.1247  0.7771
 4045SOL     OW15911   0.219   2.084   1.421 -0.0274 -0.0909 -1.0240
 4045SOL    HW215912   0.205   2.174   1.390  0.5474  0.4426  0.2036
 4045SOL    HW315913   0.286   2.092   1.489 -1.4053 -1.1608  0.5300
 4045SOL    MW415914   0.226   2.097   1.426  0.1429  0.3513  0.1966
 4046SOL     OW15915   5.783   6.320   2.054  0.5905 -0.0204  0.3693
 4046SOL    HW215916   5.701   6.300   2.100  0.6352  0.8115  0.8274
 4046SOL    HW315917   5.817   6.235   2.028 -0.4278 -0.3788  0.1616
 4046SOL    MW415918   5.777   6.306   2.056 -0.5571 -0.1577 -0.2254
 4047SOL     OW15919   1.497   2.714   0.659  0.1077 -0.0745 -0.1307
 4047SOL    HW215920   1.433   2.784   0.660  1.3625  1.1241 -0.1228
 4047SOL    HW315921   1.470   2.655   0.729 -0.3396  1.0104  0.6413
 4047SOL    MW415922   1.485   2.715   0.668 -0.0933  0.2075 -0.7072
 4048SOL     OW15923   2.486   2.082   3.973  0.0096  0.6490 -0.4056
 4048SOL    HW215924   2.512   1.995   3.941 -1.0987  1.0739 -2.7165
 4048SOL    HW315925   2.462   2.068   4.064 -0.8327 -1.6388 -0.9004
 4048SOL    MW415926   2.487   2.069   3.981  0.0138 -0.2722 -0.3025
 4049SOL     OW15927   4.335   3.005   5.694  0.1351  0.2398  0.2128
 4049SOL    HW215928   4.338   2.938   5.626  1.2113  1.2591 -0.7938
 4049SOL    HW315929   4.424   3.010   5.727  0.2480  1.6447 -0.2293
 4049SOL    MW415930   4.347   2.997   5.689  0.0832 -0.1241  0.4060
 4050SOL     OW15931   2.867   2.456   4.276  0.4306 -0.3137 -0.0530
 4050SOL    HW215932   2.952   2.498   4.258 -0.1183  0.8431 -0.0264
 4050SOL    HW315933   2.890   2.380   4.328  1.4178  0.3490  0.5307
 4050SOL    MW415934   2.881   2.452   4.280  0.1027  0.1414  0.0723
 4051SOL     OW15935   4.073   2.832   0.070 -0.2589 -0.6015  0.0957
 4051SOL    HW215936   4.102   2.796  -0.014 -0.0544  0.8007 -0.4535
 4051SOL    HW315937   4.142   2.807   0.131 -0.8086 -2.3514  0.0553
 4051SOL    MW415938   4.086   2.824   0.067  0.5350  0.4132 -0.2661
 4052SOL     OW15939   5.782   1.944   4.215 -0.2689  0.0203  0.0577
 4052SOL    HW215940   5.842   2.003   4.169  1.8943 -1.7787  0.4280
 4052SOL    HW315941   5.773   1.869   4.157  0.2826 -1.0636  1.3369
 4052SOL    MW415942   5.789   1.942   4.201 -0.4055  0.9135 -0.5368
 4053SOL     OW15943   3.712   0.534   1.624 -0.0375  0.1185  0.2000
 4053SOL    HW215944   3.652   0.534   1.550 -0.0843  0.5491  0.2326
 4053SOL    HW315945   3.661   0.571   1.696  0.0163 -0.2685  0.4423
 4053SOL    MW415946   3.697   0.539   1.624 -0.9395 -0.4115 -0.2483
 4054SOL     OW15947   6.150   4.774   2.791 -0.3962 -0.2497  0.2090
 4054SOL    HW215948   6.174   4.830   2.864  0.3351 -0.0530 -0.1687
 4054SOL    HW315949   6.176   4.686   2.818 -0.3906 -0.2204  0.2995
 4054SOL    MW415950   6.157   4.770   2.804  0.6870 -0.0785 -0.2688
 4055SOL     OW15951   4.397   3.667   4.183  0.0417  0.8047  0.2831
 4055SOL    HW215952   4.384   3.762   4.192  0.7895  0.8493  0.8749
 4055SOL    HW315953   4.358   3.630   4.262 -1.6163  0.4771 -0.6370
 4055SOL    MW415954   4.390   3.675   4.194 -0.0721 -0.0332  0.2009
 4056SOL     OW15955   5.178   3.840   5.761  0.7358 -0.4668 -0.1989
 4056SOL    HW215956   5.174   3.823   5.855 -0.1943 -1.0030 -0.3209
 4056SOL    HW315957   5.188   3.935   5.754  0.8644 -0.4315  0.4415
 4056SOL    MW415958   5.179   3.850   5.772  0.2984  0.4454 -0.6696
 4057SOL     OW15959   0.658   2.944   3.667  0.0493 -0.4542 -0.4888
 4057SOL    HW215960   0.602   2.957   3.591 -0.5930  0.3631  0.1016
 4057SOL    HW315961   0.733   3.002   3.652 -0.8332  0.9331  0.2055
 4057SOL    MW415962   0.661   2.954   3.655  0.1191 -0.2955  0.1340
 4058SOL     OW15963   1.551   1.341   5.428 -0.0491 -0.0430 -0.0490
 4058SOL    HW215964   1.542   1.247   5.415 -2.7587 -0.0787  1.3535
 4058SOL    HW315965   1.541   1.353   5.522  0.4962  1.6476 -0.1717
 4058SOL    MW415966   1.549   1.330   5.439  0.1696 -0.1339 -0.0135
 4059SOL     OW15967   4.936   2.923   5.296  0.0263  0.2890 -0.3672
 4059SOL    HW215968   4.844   2.898   5.308 -0.0093  0.6349  0.1037
 4059SOL    HW315969   4.957   2.976   5.373  1.1485 -1.2758  0.4623
 4059SOL    MW415970   4.927   2.927   5.308 -0.3654 -0.5933 -0.5468
 4060SOL     OW15971   3.496   3.825   3.275  0.2548 -0.0501 -0.1715
 4060SOL    HW215972   3.524   3.878   3.200  0.6376  0.5924  0.4165
 4060SOL    HW315973   3.487   3.736   3.240  2.9402 -0.2887 -0.4283
 4060SOL    MW415974   3.498   3.820   3.260 -0.0600  0.0397  0.5150
 4061SOL     OW15975   0.536   2.328   0.761 -0.1582  0.3519 -0.1046
 4061SOL    HW215976   0.505   2.247   0.802 -0.0321  0.3223 -0.0660
 4061SOL    HW315977   0.488   2.333   0.678  0.6946 -0.3798 -0.6656
 4061SOL    MW415978   0.526   2.318   0.755 -0.7361  0.2360  0.3123
 4062SOL     OW15979   2.665   5.758   6.032 -0.2424 -0.7582  0.0286
 4062SOL    HW215980   2.571   5.749   6.043 -0.3405 -0.3931 -0.4756
 4062SOL    HW315981   2.693   5.810   6.108 -0.6232  0.1158 -0.4239
 4062SOL    MW415982   2.656   5.764   6.044  0.0308 -0.1662  0.4470
 4063SOL     OW15983   3.967   3.518   5.388  0.2265  0.8121  0.0149
 4063SOL    HW215984   3.874   3.543   5.384  0.6455  2.3508 -1.0159
 4063SOL    HW315985   3.976   3.450   5.321 -0.1631  0.5677  0.2026
 4063SOL    MW415986   3.956   3.512   5.378  0.0184 -0.5856 -0.6434
 4064SOL     OW15987   3.641   3.755   2.266 -0.0897 -1.0019 -0.4293
 4064SOL    HW215988   3.635   3.708   2.349 -0.8872  0.5740  0.4610
 4064SOL    HW315989   3.701   3.703   2.212  0.9658 -1.7118  1.3616
 4064SOL    MW415990   3.648   3.742   2.270  0.4425  0.1383 -0.0757
 4065SOL     OW15991   2.123   1.981   2.836 -0.6439  0.0965  0.2199
 4065SOL    HW215992   2.111   1.907   2.777 -0.5022  0.3082 -0.0744
 4065SOL    HW315993   2.199   2.028   2.802  0.3129 -0.5639  1.3876
 4065SOL    MW415994   2.132   1.978   2.824 -0.4871  0.1211  0.0683
 4066SOL     OW15995   4.217   5.771   1.996 -0.0515  0.4337 -0.7407
 4066SOL    HW215996   4.164   5.832   2.047 -0.5649  0.0494 -0.8001
 4066SOL    HW315997   4.274   5.729   2.060  0.0989  0.7580 -0.6575
 4066SOL    MW415998   4.218   5.773   2.011  0.2549 -0.3552 -0.1463
 4067SOL     OW15999   2.196   4.310   0.472 -0.3904 -0.1380  0.0704
 4067SOL    HW216000   2.265   4.376   0.470  1.5099 -2.0282  0.1409
 4067SOL    HW316001   2.131   4.345   0.533 -0.0966  2.2294 -0.8714
 4067SOL    MW416002   2.197   4.324   0.480  0.1013 -0.8484  0.6977
 4068SOL     OW16003   5.320   2.467   3.125  0.2207  0.1099  0.2530
 4068SOL    HW216004   5.355   2.468   3.036 -2.1919 -0.7629 -0.7686
 4068SOL    HW316005   5.308   2.375   3.146  0.8178  0.2998  1.5462
 4068SOL    MW416006   5.323   2.455   3.116  0.0046 -0.4607  0.1739
 4069SOL     OW16007   0.547   1.191   3.380  0.7313  0.1272 -0.2198
 4069SOL    HW216008   0.611   1.246   3.424  0.0385  1.0674 -0.3533
 4069SOL    HW316009   0.522   1.126   3.446  0.4921  0.8647  0.4396
 4069SOL    MW416010   0.552   1.190   3.395  0.2883 -0.0009  0.4671
 4070SOL     OW16011   4.262   0.213   6.187  0.7457  0.3500  0.2604
 4070SOL    HW216012   4.265   0.246   6.277  1.9526  1.0464 -0.0050
 4070SOL    HW316013   4.172   0.182   6.175  1.3693 -2.9975  2.8007
 4070SOL    MW416014   4.251   0.214   6.197  0.4471 -0.3678  0.2016
 4071SOL     OW16015   1.309   4.741   4.474  0.4729  0.5831  0.1752
 4071SOL    HW216016   1.387   4.752   4.420  0.3783  1.8651  0.2713
 4071SOL    HW316017   1.248   4.691   4.418  1.4815 -0.7890  0.2509
 4071SOL    MW416018   1.311   4.736   4.459  0.5039 -0.0928 -0.1400
 4072SOL     OW16019   1.398   5.212   0.796 -0.8369  0.1229 -0.6077
 4072SOL    HW216020   1.437   5.249   0.875  2.2054 -2.0264 -0.9322
 4072SOL    HW316021   1.418   5.276   0.727 -0.0517  0.1914 -0.3201
 4072SOL    MW416022   1.406   5.225   0.797 -0.0661  0.2686 -0.0808
 4073SOL     OW16023   6.048   2.391   3.795  0.0678  0.0650 -0.4805
 4073SOL    HW216024   6.030   2.482   3.774  0.4835  0.2042 -0.2462
 4073SOL    HW316025   6.141   2.379   3.773 -0.5758 -0.9960 -2.9346
 4073SOL    MW416026   6.058   2.401   3.789  0.6477  0.5326 -0.0605
 4074SOL     OW16027   2.044   4.883   5.923 -0.8327  0.1296  0.2801
 4074SOL    HW216028   2.062   4.969   5.885  0.0834 -0.2718 -0.2383
 4074SOL    HW316029   1.949   4.873   5.916 -0.6247 -0.6980 -3.7546
 4074SOL    MW416030   2.034   4.893   5.917 -0.0020  0.5254 -0.6788
 4075SOL     OW16031   3.427   0.935   1.728  0.3970  0.3435 -0.4543
 4075SOL    HW216032   3.460   0.880   1.657  0.9147 -0.2074  0.2072
 4075SOL    HW316033   3.355   0.984   1.688 -1.1139 -1.9389 -0.6714
 4075SOL    MW416034   3.422   0.934   1.713  0.2714 -0.5997  0.7876
 4076SOL     OW16035   2.025   1.942   5.154  0.3177 -0.4324 -0.0144
 4076SOL    HW216036   1.956   1.891   5.112 -0.1856  1.1714 -1.2337
 4076SOL    HW316037   2.067   1.990   5.082  0.3013  1.3916  1.1297
 4076SOL    MW416038   2.022   1.942   5.139  0.4388  0.3861 -0.0456
 4077SOL     OW16039   2.150   5.559   5.451 -0.3494  0.7476  0.8662
 4077SOL    HW216040   2.140   5.640   5.502  1.1931  0.1305  2.2429
 4077SOL    HW316041   2.121   5.490   5.510 -2.0593  0.2736 -0.4514
 4077SOL    MW416042   2.145   5.561   5.466  0.0458 -0.1941  0.3089
 4078SOL     OW16043   5.456   5.041   2.693  0.1912  0.1224 -0.1647
 4078SOL    HW216044   5.517   5.037   2.766 -0.1820 -0.7983  0.1146
 4078SOL    HW316045   5.510   5.032   2.615  0.2390 -4.2305  0.1326
 4078SOL    MW416046   5.471   5.039   2.692  0.0378  0.3134  0.0305
 4079SOL     OW16047   1.831   1.686   5.449  0.2899 -0.3039  0.9586
 4079SOL    HW216048   1.880   1.606   5.429  0.6948  0.3397 -0.7792
 4079SOL    HW316049   1.883   1.729   5.517  1.1454 -0.5624  0.4875
 4079SOL    MW416050   1.844   1.681   5.456 -0.7559 -0.8603 -0.1018
 4080SOL     OW16051   2.030   5.716   4.688 -1.0118 -0.5247 -0.0201
 4080SOL    HW216052   2.025   5.755   4.601 -2.4039  1.2598  0.8034
 4080SOL    HW316053   2.117   5.739   4.720 -0.9478 -0.1438 -0.4643
 4080SOL    MW416054   2.041   5.724   4.681  0.2171  0.1676  0.4969
 4081SOL     OW16055   4.176   1.944   1.249  0.2119  0.0659 -0.0487
 4081SOL    HW216056   4.178   1.977   1.160 -0.9583  1.1486  0.3040
 4081SOL    HW316057   4.187   2.021   1.304  1.7334 -0.6792  0.7647
 4081SOL    MW416058   4.177   1.958   1.245  0.2788 -0.2033 -0.0892
 4082SOL     OW16059   2.704   0.046   0.372 -0.1961  0.5028  0.2648
 4082SOL    HW216060   2.730   0.001   0.292 -3.3958 -1.4240  0.1320
 4082SOL    HW316061   2.664   0.127   0.342 -2.7788 -0.9042 -0.3400
 4082SOL    MW416062   2.702   0.051   0.357 -0.1109 -0.2642  0.2429
 4083SOL     OW16063   4.960   1.260   3.478  0.3194 -0.7090  0.2999
 4083SOL    HW216064   4.934   1.218   3.397  1.4550  0.7930 -0.9041
 4083SOL    HW316065   5.054   1.278   3.467 -0.1187  2.2619  0.5993
 4083SOL    MW416066   4.969   1.257   3.466  0.1301 -0.6705  0.3195
 4084SOL     OW16067   4.501   2.211   4.000  0.0033 -0.5729 -0.4875
 4084SOL    HW216068   4.546   2.234   4.081 -1.2236 -0.5567  0.2067
 4084SOL    HW316069   4.546   2.132   3.970  0.3991 -0.6413  0.2685
 4084SOL    MW416070   4.513   2.203   4.007 -0.3313  0.2912  0.6587
 4085SOL     OW16071   0.804   3.647   2.184 -0.1919 -0.7090 -0.3064
 4085SOL    HW216072   0.751   3.664   2.107 -1.3571 -0.9885  0.4003
 4085SOL    HW316073   0.740   3.643   2.256  0.8671 -0.3620  0.6797
 4085SOL    MW416074   0.788   3.649   2.184 -0.6981  0.3635  0.3042
 4086SOL     OW16075   0.804   1.331   2.903  0.2282  0.4575  0.1744
 4086SOL    HW216076   0.800   1.239   2.877 -1.6906  0.3025  0.8956
 4086SOL    HW316077   0.765   1.334   2.990 -0.0573  2.0003  0.0374
 4086SOL    MW416078   0.799   1.320   2.911  0.2934 -0.7751 -0.1221
 4087SOL     OW16079   3.726   5.322   4.478 -0.0015  0.4758  0.1781
 4087SOL    HW216080   3.712   5.383   4.405  0.7219  0.2663 -0.1417
 4087SOL    HW316081   3.704   5.236   4.443  0.5205  0.3510  0.1552
 4087SOL    MW416082   3.721   5.319   4.464 -0.3066  0.2486 -0.3204
 4088SOL     OW16083   2.276   3.310   6.252 -0.0873  0.2789 -0.0754
 4088SOL    HW216084   2.335   3.338   6.322  1.4883 -0.6138 -0.9872
 4088SOL    HW316085   2.226   3.389   6.230 -0.4940  0.6134  1.8991
 4088SOL    MW416086   2.277   3.324   6.258 -0.3644  0.2851  0.5342
 4089SOL     OW16087   5.799   5.881   4.385  1.1477 -0.2525  0.2126
 4089SOL    HW216088   5.814   5.891   4.291 -0.5612 -0.6117 -0.1210
 4089SOL    HW316089   5.764   5.965   4.413 -0.7370 -0.9262  0.0008
 4089SOL    MW416090   5.796   5.893   4.377 -0.4937 -0.0771  0.1675
 4090SOL     OW16091   4.888   3.231   3.966 -0.1123  0.0932  0.2849
 4090SOL    HW216092   4.900   3.263   4.055 -0.0883  2.2771 -0.4550
 4090SOL    HW316093   4.810   3.175   3.971 -0.8521  1.1802  1.4685
 4090SOL    MW416094   4.879   3.228   3.978  0.1483  0.3003 -0.2200
 4091SOL     OW16095   3.371   4.475   1.024 -0.2204  0.3447  0.2704
 4091SOL    HW216096   3.436   4.529   0.980  1.9926 -2.7886 -0.6966
 4091SOL    HW316097   3.295   4.477   0.967  0.2821  1.3745 -0.3808
 4091SOL    MW416098   3.370   4.482   1.011  0.4327  0.1569 -0.1300
 4092SOL     OW16099   5.523   0.708   5.704  0.1290 -0.1628  0.3948
 4092SOL    HW216100   5.513   0.781   5.765  1.7201 -0.6345  1.2744
 4092SOL    HW316101   5.433   0.686   5.679 -0.5044  0.7563  1.7129
 4092SOL    MW416102   5.510   0.715   5.709  0.0656 -0.1677 -0.6999
 4093SOL     OW16103   4.488   0.561   5.322 -0.2786  0.2588 -0.2565
 4093SOL    HW216104   4.537   0.641   5.300 -0.5656  0.8128  1.0105
 4093SOL    HW316105   4.554   0.492   5.327  0.0577  0.5388 -0.7772
 4093SOL    MW416106   4.503   0.563   5.320  0.3451 -0.2230 -0.1302
 4094SOL     OW16107   5.111   1.445   6.307  0.1633 -0.1399  0.1872
 4094SOL    HW216108   5.046   1.392   6.260  1.5528  0.4340 -2.5891
 4094SOL    HW316109   5.099   1.533   6.273  1.7596  0.1489  0.3231
 4094SOL    MW416110   5.101   1.450   6.296  0.0404 -0.1282  0.0406
 4095SOL     OW16111   3.404   3.196   5.280 -0.0087  1.0007  0.4230
 4095SOL    HW216112   3.336   3.200   5.212 -0.4684  0.3826  0.8359
 4095SOL    HW316113   3.369   3.248   5.352  0.5033  1.6994  0.1820
 4095SOL    MW416114   3.390   3.203   5.281 -0.4730  0.0936  0.4877
 4096SOL     OW16115   4.922   5.933   0.655 -0.5061  0.5865  0.4439
 4096SOL    HW216116   4.935   5.883   0.736 -1.0902  0.0630  0.2248
 4096SOL    HW316117   4.964   6.017   0.672 -1.4645  0.8531  1.6707
 4096SOL    MW416118   4.929   5.938   0.668  0.1316 -0.0442 -0.2207
 4097SOL     OW16119   2.657   3.487   6.173  0.4617  0.1691  0.1763
 4097SOL    HW216120   2.608   3.545   6.232  0.6699  1.1505 -0.6048
 4097SOL    HW316121   2.744   3.526   6.167  1.0536 -1.0097  0.7500
 4097SOL    MW416122   2.662   3.500   6.180  0.1594 -0.2904  0.5819
 4098SOL     OW16123   4.164   4.385   6.167 -0.3284  0.3245 -0.2775
 4098SOL    HW216124   4.209   4.462   6.203  1.0463  0.2094 -1.6334
 4098SOL    HW316125   4.082   4.380   6.216  0.8053  0.9726  1.8177
 4098SOL    MW416126   4.159   4.395   6.178  0.4541  0.5059  0.2085
 4099SOL     OW16127   2.761   5.576   3.151 -0.0842  0.9382  0.0889
 4099SOL    HW216128   2.792   5.559   3.062 -1.0345  1.3401 -0.3351
 4099SOL    HW316129   2.832   5.547   3.208 -0.3011 -1.3268 -0.7121
 4099SOL    MW416130   2.774   5.570   3.147  0.0919  0.4633 -0.0592
 4100SOL     OW16131   4.187   2.498   2.672 -0.7226  0.1673  0.0069
 4100SOL    HW216132   4.094   2.493   2.651 -0.9686  0.9763  0.8355
 4100SOL    HW316133   4.190   2.496   2.768  0.1598 -0.5413 -0.0237
 4100SOL    MW416134   4.175   2.497   2.682 -0.0522 -0.2637  0.0940
 4101SOL     OW16135   0.446   6.319   4.337 -0.2480 -0.0996 -0.4137
 4101SOL    HW216136   0.506   6.310   4.411 -1.0127 -1.3179  0.0832
 4101SOL    HW316137   0.502   6.335   4.262  0.5050  2.5525  0.5955
 4101SOL    MW416138   0.461   6.320   4.337  0.3694  0.6742  0.1834
 4102SOL     OW16139   3.616   4.017   1.927 -0.2707 -0.3239 -0.4798
 4102SOL    HW216140   3.570   3.935   1.907 -2.8680  1.5417 -2.9645
 4102SOL    HW316141   3.579   4.046   2.011 -2.1416  0.0349 -1.3737
 4102SOL    MW416142   3.605   4.010   1.936  0.1278 -0.2707  0.4416
 4103SOL     OW16143   5.541   0.500   4.076 -0.0355  0.0302  0.2256
 4103SOL    HW216144   5.478   0.509   4.146 -1.1579 -1.8796 -0.4492
 4103SOL    HW316145   5.582   0.414   4.091  0.0379 -0.2091 -1.1645
 4103SOL    MW416146   5.538   0.490   4.087 -0.5890  0.5913  0.2109
 4104SOL     OW16147   6.025   0.360   4.803  0.0134  0.2304 -0.0389
 4104SOL    HW216148   6.052   0.431   4.861 -1.0557  0.4586  0.1907
 4104SOL    HW316149   6.036   0.396   4.715  1.8047 -0.1756 -0.0276
 4104SOL    MW416150   6.030   0.374   4.799  0.0091  0.3109  0.0390
 4105SOL     OW16151   5.483   2.188   0.156 -0.3491 -0.2690  0.0293
 4105SOL    HW216152   5.477   2.267   0.210  0.6402  0.3511 -0.7213
 4105SOL    HW316153   5.550   2.209   0.091 -0.3792 -1.5813 -0.4531
 4105SOL    MW416154   5.491   2.201   0.154  0.2825 -0.2921 -0.6566
 4106SOL     OW16155   5.868   2.518   1.857 -0.3334 -0.2574 -0.6768
 4106SOL    HW216156   5.778   2.492   1.877  0.0030 -1.3099 -0.5121
 4106SOL    HW316157   5.894   2.462   1.785  0.8866 -1.4009  0.5990
 4106SOL    MW416158   5.860   2.507   1.850 -0.0235  0.0954  0.0444
 4107SOL     OW16159   2.107   5.700   2.668 -0.3044  0.5923  0.2694
 4107SOL    HW216160   2.117   5.795   2.657  1.3393  0.2809 -1.4291
 4107SOL    HW316161   2.196   5.666   2.659 -1.1453 -1.2939 -1.5057
 4107SOL    MW416162   2.120   5.708   2.665  0.2120 -0.0998  0.1083
 4108SOL     OW16163   5.075   3.338   4.193 -0.4885 -0.2739 -0.3702
 4108SOL    HW216164   5.102   3.414   4.244 -1.4689  0.1716 -0.4973
 4108SOL    HW316165   5.148   3.322   4.133  0.4418 -0.4756  0.7818
 4108SOL    MW416166   5.088   3.346   4.192 -0.1381  0.3722 -0.2856
 4109SOL     OW16167   6.006   3.680   0.505  0.1049 -0.3738 -0.4806
 4109SOL    HW216168   5.927   3.665   0.452  1.1866 -2.0680 -1.7275
 4109SOL    HW316169   6.037   3.592   0.527  1.3231  0.2695  0.4983
 4109SOL    MW416170   6.000   3.666   0.501 -0.0736  0.8881  0.1607
 4110SOL     OW16171   2.425   0.206   0.064 -0.6759  0.0967 -0.0140
 4110SOL    HW216172   2.467   0.220   0.149 -2.2723 -0.7660  0.9687
 4110SOL    HW316173   2.472   0.132   0.025 -0.5853 -0.1658  0.5890
 4110SOL    MW416174   2.437   0.198   0.070  0.0784 -0.2146 -0.0162
 4111SOL     OW16175   2.898   6.320   2.930  0.4264  0.1107  0.1226
 4111SOL    HW216176   2.935   6.408   2.919 -0.8249  0.5975 -0.4485
 4111SOL    HW316177   2.849   6.325   3.012  1.6775 -0.5710  0.9482
 4111SOL    MW416178   2.896   6.333   2.940  0.6438  0.5006  0.7441
 4112SOL     OW16179   2.111   2.345   5.508 -0.6907 -0.5145 -0.2579
 4112SOL    HW216180   2.064   2.404   5.566 -1.0029 -0.1682 -0.8482
 4112SOL    HW316181   2.081   2.258   5.532 -1.0262 -0.3530 -0.0812
 4112SOL    MW416182   2.101   2.342   5.519 -0.0864  0.1304  0.1351
 4113SOL     OW16183   3.647   1.329   1.079  0.2732 -0.1847 -0.2376
 4113SOL    HW216184   3.675   1.374   1.158 -0.9528 -0.0981  0.1692
 4113SOL    HW316185   3.679   1.384   1.007 -1.6952  1.7222  0.2410
 4113SOL    MW416186   3.655   1.342   1.080  0.2041 -0.3074  0.0663
 4114SOL     OW16187   1.847   1.466   1.923 -0.2351  0.8051  0.0079
 4114SOL    HW216188   1.873   1.462   2.015 -0.9881 -0.6388  0.1915
 4114SOL    HW316189   1.752   1.477   1.926 -0.5734 -1.4711 -0.5352
 4114SOL    MW416190   1.838   1.467   1.935  0.4962  0.3175  0.1741
 4115SOL     OW16191   3.801   0.277   1.701 -0.6780  0.3148  0.2748
 4115SOL    HW216192   3.886   0.251   1.667 -0.0580 -0.5743  2.3394
 4115SOL    HW316193   3.788   0.366   1.669  0.0583 -0.2707 -1.7581
 4115SOL    MW416194   3.810   0.285   1.693  0.1477 -0.0997 -0.0303
 4116SOL     OW16195   1.521   5.967   1.856 -0.7809  0.5427 -0.5283
 4116SOL    HW216196   1.450   5.968   1.920  1.4561 -0.7932  2.2271
 4116SOL    HW316197   1.524   5.877   1.824 -0.6546  0.7201 -1.0287
 4116SOL    MW416198   1.512   5.955   1.860 -0.2480  0.3959  0.1123
 4117SOL     OW16199   3.609   3.889   0.637  0.0877 -0.3605  0.4916
 4117SOL    HW216200   3.532   3.869   0.690 -0.4964 -0.7777 -0.4906
 4117SOL    HW316201   3.645   3.969   0.676 -0.4983 -0.4871  1.3174
 4117SOL    MW416202   3.603   3.897   0.649 -0.8106  0.3527 -0.1508
 4118SOL     OW16203   1.731   4.325   2.570  0.0717  0.0666 -0.6393
 4118SOL    HW216204   1.800   4.259   2.570  1.4564  1.4480 -1.1946
 4118SOL    HW316205   1.777   4.407   2.591 -1.3507  1.0659 -1.2992
 4118SOL    MW416206   1.746   4.327   2.573 -0.0781  0.4530 -0.3709
 4119SOL     OW16207   3.281   2.642   6.353 -0.0099 -0.2030  0.1598
 4119SOL    HW216208   3.206   2.686   6.314 -0.6840 -0.7420  0.8160
 4119SOL    HW316209   3.292   2.685   6.438  2.1160  1.7011 -0.9760
 4119SOL    MW416210   3.273   2.653   6.359 -0.3152  0.5580  0.1993
 4120SOL     OW16211   2.438   1.356   3.294 -0.0536 -0.3085  0.0250
 4120SOL    HW216212   2.480   1.374   3.210 -1.9791 -2.7236 -1.6145
 4120SOL    HW316213   2.484   1.280   3.329 -0.2230 -0.2324  0.4284
 4120SOL    MW416214   2.450   1.348   3.288 -0.1372 -0.2324  0.2322
 4121SOL     OW16215   3.937   4.562   3.628  0.1710  0.2303 -0.3393
 4121SOL    HW216216   3.937   4.609   3.712  1.6512  0.0678 -0.2142
 4121SOL    HW316217   3.887   4.618   3.569  1.1439  1.5625  0.0432
 4121SOL    MW416218   3.931   4.576   3.632  0.4752 -0.0688  0.3830
 4122SOL     OW16219   5.060   0.457   2.267  0.4023  0.2939  0.5205
 4122SOL    HW216220   5.054   0.371   2.308 -0.1753  0.2152  0.2832
 4122SOL    HW316221   5.012   0.515   2.326 -2.1696 -0.1672 -0.9293
 4122SOL    MW416222   5.053   0.453   2.280 -0.1816  0.5794  0.8862
 4123SOL     OW16223   3.362   0.848   3.784 -0.3708 -0.3183  0.2646
 4123SOL    HW216224   3.279   0.875   3.825 -1.0572 -0.1033 -1.2144
 4123SOL    HW316225   3.427   0.908   3.820 -1.4066  1.5885 -0.8688
 4123SOL    MW416226   3.359   0.859   3.794  0.3330  0.1060 -0.2135
 4124SOL     OW16227   4.536   5.921   1.452 -0.2087 -0.1349  0.0799
 4124SOL    HW216228   4.606   5.964   1.501 -1.2395  1.1297  0.4750
 4124SOL    HW316229   4.561   5.931   1.360 -0.2849  1.0760  0.1784
 4124SOL    MW416230   4.549   5.928   1.447 -1.0525  0.2433 -0.8239
 4125SOL     OW16231   3.737   6.218   2.489  0.4234  0.6713  0.0372
 4125SOL    HW216232   3.733   6.310   2.516  1.8921  0.2586  1.9305
 4125SOL    HW316233   3.830   6.203   2.470  0.3982 -0.6585  0.8181
 4125SOL    MW416234   3.749   6.228   2.490 -0.0115  0.1117 -0.4394
 4126SOL     OW16235   4.216   0.129   3.037  0.1443 -0.0447  0.0749
 4126SOL    HW216236   4.206   0.179   2.956 -0.9247 -0.6227 -0.1711
 4126SOL    HW316237   4.261   0.188   3.096 -0.3894  0.9263 -0.4666
 4126SOL    MW416238   4.221   0.143   3.034  0.3171 -0.1935  0.2777
 4127SOL     OW16239   1.908   5.658   6.210 -0.0310 -0.3696  0.2877
 4127SOL    HW216240   1.906   5.750   6.184  2.0919 -0.0981  0.8752
 4127SOL    HW316241   1.859   5.612   6.142  0.0249  1.0502 -0.7492
 4127SOL    MW416242   1.902   5.664   6.198 -0.6294  0.0533  0.2232
 4128SOL     OW16243   1.024   1.167   5.529 -0.2432 -0.1600 -0.5610
 4128SOL    HW216244   1.060   1.133   5.447  0.3001  0.2549 -0.5005
 4128SOL    HW316245   0.976   1.246   5.504 -0.3478 -0.2106 -0.5208
 4128SOL    MW416246   1.022   1.173   5.515 -0.2012  0.0639 -0.3980
 4129SOL     OW16247   1.328   1.019   1.768  0.0541 -0.2699  0.3210
 4129SOL    HW216248   1.308   1.112   1.775  1.8188  0.3824 -2.1794
 4129SOL    HW316249   1.253   0.982   1.721 -0.0296  0.1562  0.1149
 4129SOL    MW416250   1.316   1.026   1.763 -0.4020  0.3220  0.0919
 4130SOL     OW16251   1.668   4.418   6.263  0.0735  0.5648 -0.3161
 4130SOL    HW216252   1.686   4.506   6.230 -0.4802  0.5193 -0.7550
 4130SOL    HW316253   1.584   4.395   6.224 -1.3509  1.0676  2.2159
 4130SOL    MW416254   1.660   4.427   6.254 -0.3843 -0.2908  0.2409
 4131SOL     OW16255   2.072   5.260   4.770 -0.2487  0.5886 -0.0846
 4131SOL    HW216256   2.158   5.291   4.797 -0.5944  1.5205 -0.0112
 4131SOL    HW316257   2.086   5.219   4.685  0.3271  0.3606  0.1141
 4131SOL    MW416258   2.085   5.258   4.762  0.4979  0.4387 -0.0942
 4132SOL     OW16259   6.381   5.759   1.367 -0.2459 -0.5337  0.1898
 4132SOL    HW216260   6.370   5.791   1.457  0.4984  0.5552 -0.0776
 4132SOL    HW316261   6.476   5.757   1.355 -0.2472  2.9691 -1.7534
 4132SOL    MW416262   6.392   5.763   1.377 -0.6399 -0.9630  0.7045
 4133SOL     OW16263   4.559   0.540   6.169 -0.0631 -0.8379  0.5238
 4133SOL    HW216264   4.619   0.558   6.097 -1.0888 -0.7883 -0.3500
 4133SOL    HW316265   4.548   0.444   6.168  0.9641 -0.9857  1.5011
 4133SOL    MW416266   4.565   0.529   6.159 -0.3128 -0.5257 -0.0153
 4134SOL     OW16267   0.589   0.093   1.667  0.0301 -0.0921 -0.4468
 4134SOL    HW216268   0.679   0.072   1.644  0.2934  0.5379 -0.0098
 4134SOL    HW316269   0.574   0.179   1.629  0.0977  0.4517  0.7372
 4134SOL    MW416270   0.599   0.101   1.659  0.3464 -0.1363  0.4112
 4135SOL     OW16271   2.813   2.224   4.478 -0.9177  0.3711  0.0138
 4135SOL    HW216272   2.858   2.202   4.560  1.2481  0.7726 -1.0127
 4135SOL    HW316273   2.873   2.196   4.409 -2.1948  1.0883 -1.4522
 4135SOL    MW416274   2.827   2.217   4.480 -0.1829  0.2814  0.0510
 4136SOL     OW16275   4.247   1.283   5.872  0.6799 -0.2096  0.0393
 4136SOL    HW216276   4.294   1.200   5.871  0.9362 -0.0642  0.1385
 4136SOL    HW316277   4.315   1.350   5.875  0.4583 -0.0108  0.6544
 4136SOL    MW416278   4.262   1.280   5.872 -0.1667  0.4987 -0.1495
 4137SOL     OW16279   2.049   5.409   5.695  0.1180  0.5938  0.2068
 4137SOL    HW216280   2.135   5.414   5.738  1.2907  0.2612 -1.9717
 4137SOL    HW316281   2.015   5.323   5.721  0.1251  0.9830  1.6005
 4137SOL    MW416282   2.056   5.398   5.704 -0.5059  0.4846  0.2052
 4138SOL     OW16283   1.946   6.249   6.280  0.9098  0.4900  0.6245
 4138SOL    HW216284   1.894   6.170   6.261 -0.6075  1.6663 -0.4146
 4138SOL    HW316285   1.908   6.316   6.224  1.8118  2.1133  1.8720
 4138SOL    MW416286   1.934   6.247   6.270 -0.0373  0.2684 -0.3994
 4139SOL     OW16287   0.437   0.897   4.778  0.2204  0.2125 -0.3771
 4139SOL    HW216288   0.499   0.824   4.772  0.3521  0.4116 -1.6184
 4139SOL    HW316289   0.485   0.973   4.744 -0.3305  0.6081 -0.2878
 4139SOL    MW416290   0.451   0.897   4.773 -0.4539 -0.3464  0.0905
 4140SOL     OW16291   5.558   1.444   5.315 -0.5996 -0.6733 -0.2953
 4140SOL    HW216292   5.632   1.464   5.258 -0.3782 -0.4412  0.0715
 4140SOL    HW316293   5.515   1.528   5.330 -1.4919 -0.9353 -1.2529
 4140SOL    MW416294   5.562   1.458   5.309 -0.1735  0.0655 -0.3588
 4141SOL     OW16295   3.470   4.676   2.261 -0.3886  0.4200  0.7301
 4141SOL    HW216296   3.401   4.636   2.208  0.3252 -1.2171  0.9895
 4141SOL    HW316297   3.532   4.605   2.278  0.4369  1.4100  2.0494
 4141SOL    MW416298   3.469   4.661   2.256 -0.3554 -0.0428  0.7081
 4142SOL     OW16299   2.424   0.193   4.248  0.3354 -0.1863 -0.3601
 4142SOL    HW216300   2.495   0.129   4.255  0.5894  0.1768  0.5205
 4142SOL    HW316301   2.468   0.273   4.220  0.7284  0.7223  2.5431
 4142SOL    MW416302   2.439   0.195   4.245  0.5445 -0.5616 -0.4894
 4143SOL     OW16303   5.011   2.048   4.929 -0.3158  0.1665 -0.3696
 4143SOL    HW216304   5.038   2.129   4.972 -0.6782 -0.1513  0.4882
 4143SOL    HW316305   5.045   2.055   4.840 -0.3815  1.2729 -0.3138
 4143SOL    MW416306   5.019   2.059   4.923 -0.2318 -0.4895 -0.3807
 4144SOL     OW16307   1.584   0.262   0.853 -0.2098  0.2851  0.3046
 4144SOL    HW216308   1.641   0.316   0.907  0.7921 -0.9409  0.5106
 4144SOL    HW316309   1.496   0.278   0.888  0.2608  0.5153  1.4323
 4144SOL    MW416310   1.580   0.272   0.865 -0.9712 -0.4045 -0.0411
 4145SOL     OW16311   6.257   2.446   3.080 -0.8384  0.1409  0.1559
 4145SOL    HW216312   6.301   2.526   3.109  0.5727 -0.1239 -1.1463
 4145SOL    HW316313   6.205   2.474   3.004 -0.0601 -0.2166 -0.5250
 4145SOL    MW416314   6.256   2.460   3.074  0.1512 -0.0140 -0.5661
 4146SOL     OW16315   4.100   4.652   4.180  0.5668 -0.0910  0.4143
 4146SOL    HW216316   4.105   4.596   4.257  0.7877 -0.0335  0.4411
 4146SOL    HW316317   4.112   4.592   4.106 -0.0750 -0.2160  0.4001
 4146SOL    MW416318   4.102   4.637   4.180  0.3393  0.4702 -0.1695
 4147SOL     OW16319   2.174   5.413   1.162 -0.6103 -0.0004  0.0377
 4147SOL    HW216320   2.100   5.358   1.189 -1.3514 -0.0044 -1.8669
 4147SOL    HW316321   2.140   5.503   1.167 -0.3555  0.0800  0.3204
 4147SOL    MW416322   2.160   5.418   1.166  0.0608 -0.1281  0.2997
 4148SOL     OW16323   2.158   5.966   1.468  0.2266 -0.1471  0.2227
 4148SOL    HW216324   2.092   5.920   1.519  0.3143  1.0789  1.4977
 4148SOL    HW316325   2.124   5.963   1.378 -0.2803 -1.7226  0.4424
 4148SOL    MW416326   2.145   5.960   1.463 -0.5609 -0.3435  0.4859
 4149SOL     OW16327   2.345   0.789   5.900 -0.3107 -0.1778 -0.4677
 4149SOL    HW216328   2.299   0.822   5.978 -2.2447 -1.2600 -1.0643
 4149SOL    HW316329   2.416   0.735   5.935 -1.0635 -0.5344  0.5676
 4149SOL    MW416330   2.348   0.786   5.915  0.1695  0.5979  0.3509
 4150SOL     OW16331   4.092   3.090   0.178  0.3722  0.2653 -0.7617
 4150SOL    HW216332   4.010   3.116   0.218  0.7586 -0.6943  0.7047
 4150SOL    HW316333   4.074   3.006   0.137  0.4567  0.3634 -1.0018
 4150SOL    MW416334   4.079   3.083   0.178 -0.4846  0.5861 -0.6450
 4151SOL     OW16335   2.784   1.560   1.375  0.4823  0.4840  0.0756
 4151SOL    HW216336   2.789   1.656   1.376  0.8784  0.4612  0.6292
 4151SOL    HW316337   2.694   1.540   1.399 -0.3196  0.7520 -2.3712
 4151SOL    MW416338   2.773   1.570   1.378 -0.1767  0.9002 -0.2906
 4152SOL     OW16339   1.302   5.616   4.614 -0.5272 -0.1489 -0.5219
 4152SOL    HW216340   1.333   5.701   4.645 -0.2979 -0.3597 -0.1664
 4152SOL    HW316341   1.317   5.619   4.519 -1.1860  0.4775 -0.6129
 4152SOL    MW416342   1.308   5.628   4.605  0.0992  0.0280 -0.0620
 4153SOL     OW16343   4.593   1.051   4.806  1.0090 -0.0819 -0.1325
 4153SOL    HW216344   4.580   1.061   4.900 -0.1763  2.2363 -0.4627
 4153SOL    HW316345   4.596   0.957   4.791  0.2706 -0.4994  2.0929
 4153SOL    MW416346   4.592   1.040   4.816 -0.6954 -0.7929 -0.9834
 4154SOL     OW16347   0.366   1.204   3.163 -0.0341  0.0151  0.6009
 4154SOL    HW216348   0.410   1.212   3.248 -0.2678  0.1352  0.7113
 4154SOL    HW316349   0.420   1.142   3.114 -1.4391 -2.4024  1.8797
 4154SOL    MW416350   0.379   1.197   3.168  0.3315  0.2411 -0.3507
 4155SOL     OW16351   4.209   4.628   4.619 -0.1202 -0.2272 -0.5961
 4155SOL    HW216352   4.202   4.715   4.580 -2.2124 -0.1757 -0.2041
 4155SOL    HW316353   4.124   4.612   4.659  0.6703 -1.8953  0.5692
 4155SOL    MW416354   4.197   4.637   4.620 -0.1949  0.5092  0.0219
 4156SOL     OW16355   4.941   5.615   1.774 -0.1690 -0.0129  0.2921
 4156SOL    HW216356   4.958   5.708   1.784 -1.5337  0.3524 -0.5372
 4156SOL    HW316357   4.958   5.597   1.681 -1.8058 -0.1300 -0.0198
 4156SOL    MW416358   4.946   5.625   1.763 -0.0058 -0.3084  0.1690
 4157SOL     OW16359   0.541   3.842   0.111 -0.5265  0.2018 -0.1166
 4157SOL    HW216360   0.580   3.920   0.071 -0.4749 -0.6317 -1.7496
 4157SOL    HW316361   0.450   3.868   0.129 -0.5279  0.6240 -0.6995
 4157SOL    MW416362   0.534   3.856   0.108  0.0150  0.3322  0.3261
 4158SOL     OW16363   1.834   1.204   0.064  0.6288 -0.0240  0.3846
 4158SOL    HW216364   1.769   1.236   0.125  0.3876 -0.7586  0.5203
 4158SOL    HW316365   1.784   1.156  -0.002  0.7463  1.8120 -1.1221
 4158SOL    MW416366   1.819   1.202   0.063  0.2236 -0.2186  0.4026
 4159SOL     OW16367   2.155   4.093   4.673  0.2359 -0.4229  0.0747
 4159SOL    HW216368   2.233   4.075   4.726  0.6740  0.0040 -0.4128
 4159SOL    HW316369   2.175   4.175   4.628  0.1015 -1.0269 -1.1451
 4159SOL    MW416370   2.168   4.101   4.674  0.6249  0.0217 -0.3259
 4160SOL     OW16371   5.903   2.796   0.767 -0.4950 -0.0700  0.0868
 4160SOL    HW216372   5.870   2.709   0.742 -2.0390  0.4809  0.0642
 4160SOL    HW316373   5.823   2.847   0.784  0.2488  2.0042 -2.0857
 4160SOL    MW416374   5.888   2.791   0.766 -0.0345 -0.1769  0.2360
 4161SOL     OW16375   1.763   2.812   3.979 -0.2132  0.0176 -0.0241
 4161SOL    HW216376   1.837   2.863   4.014 -1.5637  2.7803 -0.8629
 4161SOL    HW316377   1.804   2.738   3.935  1.9648  0.6395  0.7975
 4161SOL    MW416378   1.778   2.809   3.978  0.0944 -0.5380 -0.3900
 4162SOL     OW16379   0.818   3.159   1.415 -0.5793 -0.1973  0.1849
 4162SOL    HW216380   0.775   3.147   1.331  1.0339 -1.7157 -0.4808
 4162SOL    HW316381   0.859   3.245   1.409 -0.7438 -0.1596 -0.4603
 4162SOL    MW416382   0.818   3.169   1.403 -0.4287  0.0677 -0.0868
 4163SOL     OW16383   4.496   4.642   2.198  0.5271  0.4710 -0.2030
 4163SOL    HW216384   4.506   4.669   2.289 -1.1924 -0.9176  0.4659
 4163SOL    HW316385   4.494   4.724   2.148  2.0609  1.2239  0.9071
 4163SOL    MW416386   4.497   4.656   2.203  0.0089 -0.5009 -0.5494
 4164SOL     OW16387   0.446   4.353   4.872  0.1181  0.3423  0.3435
 4164SOL    HW216388   0.370   4.411   4.875 -0.4604 -0.4437  1.4735
 4164SOL    HW316389   0.519   4.409   4.847 -0.3516  1.6373  1.7586
 4164SOL    MW416390   0.445   4.368   4.869  0.5526  0.3815 -0.2526
 4165SOL     OW16391   2.182   0.712   1.534  0.2476 -0.0429 -0.0301
 4165SOL    HW216392   2.101   0.759   1.553 -0.6204 -1.7457  0.7074
 4165SOL    HW316393   2.238   0.731   1.610  0.1156  0.2530 -0.0041
 4165SOL    MW416394   2.179   0.721   1.547 -0.1958  0.0395  0.1275
 4166SOL     OW16395   2.430   4.738   5.791 -0.6672 -0.1736  0.0908
 4166SOL    HW216396   2.447   4.804   5.724  0.0236 -1.3631 -0.9512
 4166SOL    HW316397   2.497   4.671   5.777 -0.3486 -0.3482  2.1506
 4166SOL    MW416398   2.441   4.738   5.780 -0.4011 -0.5591  0.1544
 4167SOL     OW16399   2.041   3.142   3.613  0.1340  0.4137 -0.1136
 4167SOL    HW216400   1.970   3.192   3.653  0.2606  1.5756 -1.2836
 4167SOL    HW316401   2.119   3.169   3.662 -0.4792 -2.8949  3.0226
 4167SOL    MW416402   2.042   3.153   3.625  0.0568 -0.5763  0.8527
 4168SOL     OW16403   5.212   2.022   4.378  0.1132 -0.3189 -0.1281
 4168SOL    HW216404   5.194   2.081   4.305 -0.6713  0.6259  0.8109
 4168SOL    HW316405   5.215   1.935   4.337  1.6241  0.3635 -1.5802
 4168SOL    MW416406   5.210   2.018   4.363 -0.4691 -0.0965 -0.5813
 4169SOL     OW16407   2.361   0.411   5.837 -0.6875 -0.0025 -0.0514
 4169SOL    HW216408   2.408   0.494   5.838  1.1420 -0.9765  0.4347
 4169SOL    HW316409   2.401   0.360   5.907 -1.0781 -1.6375 -0.9571
 4169SOL    MW416410   2.373   0.415   5.846  0.0144 -0.2304 -0.5163
 4170SOL     OW16411   2.072   4.651   1.426  0.0265 -0.1305 -0.1139
 4170SOL    HW216412   2.157   4.608   1.416  0.2307  0.6152 -1.9005
 4170SOL    HW316413   2.034   4.609   1.503  1.6208 -1.1219  0.1951
 4170SOL    MW416414   2.078   4.640   1.435  0.6675 -0.0586  0.3427
 4171SOL     OW16415   2.292   5.745   5.030  0.0969 -0.0827  0.1392
 4171SOL    HW216416   2.323   5.790   4.952 -0.2738 -1.2071 -0.6818
 4171SOL    HW316417   2.212   5.791   5.055  0.2298  0.2958 -0.1395
 4171SOL    MW416418   2.285   5.757   5.023  0.2745  0.0872  0.1673
 4172SOL     OW16419   3.583   0.580   3.075  1.0448 -0.5381 -0.0454
 4172SOL    HW216420   3.521   0.650   3.056 -1.7131 -3.1301 -1.4724
 4172SOL    HW316421   3.592   0.580   3.170  0.9514  1.5282  0.0119
 4172SOL    MW416422   3.576   0.589   3.085  0.7904  0.4804  0.2567
 4173SOL     OW16423   3.817   5.076   3.941  0.0062 -0.3160 -0.3722
 4173SOL    HW216424   3.771   5.021   3.877 -2.1825  2.2539 -1.2127
 4173SOL    HW316425   3.764   5.068   4.021 -1.2851  1.6369 -0.9581
 4173SOL    MW416426   3.804   5.068   3.943 -0.1628  0.0391 -0.9897
 4174SOL     OW16427   2.424   4.471   0.550 -0.1695  0.1564 -0.5455
 4174SOL    HW216428   2.387   4.557   0.570  0.9538  0.3455  0.9340
 4174SOL    HW316429   2.514   4.490   0.522 -0.0035 -0.5199 -0.4856
 4174SOL    MW416430   2.431   4.485   0.549 -0.4792 -0.3932  0.4360
 4175SOL     OW16431   2.138   0.120   6.189 -0.9986  0.0340  0.4010
 4175SOL    HW216432   2.192   0.199   6.194 -0.2535 -0.1959 -2.4557
 4175SOL    HW316433   2.200   0.049   6.210 -0.7095 -0.0631 -0.7506
 4175SOL    MW416434   2.154   0.121   6.193 -0.2161  0.2884 -0.2661
 4176SOL     OW16435   5.770   2.199   2.771  0.3384  0.0831  0.0078
 4176SOL    HW216436   5.764   2.293   2.782 -1.2341 -0.1037  0.9539
 4176SOL    HW316437   5.857   2.177   2.806  0.3600  1.0671  0.6132
 4176SOL    MW416438   5.781   2.208   2.777  0.0939  0.6691  0.2957
 4177SOL     OW16439   4.395   5.816   2.831  0.3927 -0.1708 -0.2593
 4177SOL    HW216440   4.398   5.757   2.906  1.7894 -0.8905 -0.8441
 4177SOL    HW316441   4.307   5.807   2.796  0.8638 -2.7211 -0.9413
 4177SOL    MW416442   4.384   5.807   2.836  0.4340 -0.1993 -0.3892
 4178SOL     OW16443   4.912   2.103   1.837  0.3331  0.1562 -0.3731
 4178SOL    HW216444   4.917   2.188   1.881  0.7398  0.2301 -0.5548
 4178SOL    HW316445   4.952   2.042   1.899 -1.2423 -0.1659  0.3717
 4178SOL    MW416446   4.918   2.106   1.851  0.2624 -0.3208 -0.0899
 4179SOL     OW16447   0.378   5.255   2.436 -0.4685 -0.1624 -0.1373
 4179SOL    HW216448   0.373   5.162   2.460  1.5099 -0.0285  0.9963
 4179SOL    HW316449   0.348   5.301   2.514  2.1556  0.1739  0.7926
 4179SOL    MW416450   0.373   5.249   2.449  0.1282  0.2285  0.4876
 4180SOL     OW16451   3.495   0.944   2.838  0.6246  0.0205 -0.2425
 4180SOL    HW216452   3.487   0.911   2.927  2.5121 -1.1064 -0.4515
 4180SOL    HW316453   3.492   1.039   2.848 -1.4336 -0.0828  0.7358
 4180SOL    MW416454   3.494   0.952   2.851  0.2211  0.0047 -0.2634
 4181SOL     OW16455   0.515   1.028   3.023  0.2103 -0.5745  0.5526
 4181SOL    HW216456   0.447   0.965   2.999 -0.4074  0.4106 -0.3389
 4181SOL    HW316457   0.584   1.015   2.959  0.4991 -0.9797  0.9385
 4181SOL    MW416458   0.515   1.018   3.012  0.0672 -0.4044  0.1777
 4182SOL     OW16459   3.300   1.493   5.263 -0.0331 -0.2055  0.0369
 4182SOL    HW216460   3.293   1.399   5.246 -0.3954 -0.0642 -0.6063
 4182SOL    HW316461   3.387   1.504   5.302  0.5699 -0.6317 -1.1326
 4182SOL    MW416462   3.311   1.482   5.266 -0.2588 -0.1653  0.3683
 4183SOL     OW16463   3.732   5.434   5.986 -0.9795  0.1748 -0.0390
 4183SOL    HW216464   3.749   5.354   6.036 -0.3325  1.0201  1.1367
 4183SOL    HW316465   3.812   5.447   5.934 -1.0292  0.1172 -0.1284
 4183SOL    MW416466   3.745   5.425   5.986  0.6445  0.1833 -0.3396
 4184SOL     OW16467   2.036   1.206   3.295 -0.1217 -0.0788  0.3518
 4184SOL    HW216468   2.118   1.196   3.246  0.1832 -0.5718  0.9439
 4184SOL    HW316469   2.056   1.169   3.381 -1.0223 -0.3636  0.4434
 4184SOL    MW416470   2.050   1.200   3.300 -0.2699  0.1591 -0.0150
 4185SOL     OW16471   5.680   5.814   2.399  0.5839  0.1102 -0.4794
 4185SOL    HW216472   5.692   5.870   2.475  1.0995  1.3972 -1.4729
 4185SOL    HW316473   5.666   5.726   2.435  0.3044  0.7812  1.0864
 4185SOL    MW416474   5.680   5.810   2.414 -0.5538  0.3054 -0.4513
 4186SOL     OW16475   3.583   1.521   5.355  0.3207  0.3222 -0.5710
 4186SOL    HW216476   3.623   1.573   5.285 -1.0767  1.5207 -0.5226
 4186SOL    HW316477   3.597   1.573   5.434  1.7368 -0.9405  0.0536
 4186SOL    MW416478   3.590   1.535   5.356  0.8855 -0.1685 -0.2362
 4187SOL     OW16479   0.955   5.460   6.351 -0.1168  0.5621  0.0369
 4187SOL    HW216480   0.892   5.389   6.337  1.2636 -0.5827 -0.7031
 4187SOL    HW316481   0.982   5.450   6.442 -0.0925  0.2638 -0.0009
 4187SOL    MW416482   0.950   5.449   6.361 -0.2203  0.1102  0.5768
 4188SOL     OW16483   3.273   3.636   4.577 -0.2417 -0.1742  1.0474
 4188SOL    HW216484   3.281   3.665   4.668  0.9565  0.0402  0.9007
 4188SOL    HW316485   3.300   3.712   4.525  2.5188 -1.2924  0.6380
 4188SOL    MW416486   3.278   3.650   4.582 -1.0439  0.6064  0.7392
 4189SOL     OW16487   5.840   4.761   3.621 -0.4054 -0.7122  0.3637
 4189SOL    HW216488   5.809   4.843   3.582 -1.8136 -1.6418 -0.5620
 4189SOL    HW316489   5.921   4.785   3.666 -1.2109  1.3407  0.8203
 4189SOL    MW416490   5.847   4.775   3.622 -0.3483  0.0867  0.5502
 4190SOL     OW16491   4.736   4.316   0.246 -0.2803  0.1503 -0.0699
 4190SOL    HW216492   4.662   4.367   0.279 -2.5938 -2.3986 -0.9600
 4190SOL    HW316493   4.725   4.316   0.151  0.1610 -1.1943 -0.1458
 4190SOL    MW416494   4.724   4.323   0.238 -0.4198  0.7428  0.1346
 4191SOL     OW16495   3.486   0.326   4.815 -0.0723  0.5634 -0.2556
 4191SOL    HW216496   3.505   0.266   4.743 -0.1334  0.0534  0.1513
 4191SOL    HW316497   3.547   0.302   4.885  0.4468  1.4968 -0.3681
 4191SOL    MW416498   3.496   0.315   4.815 -0.9354 -0.4935  0.2822
 4192SOL     OW16499   0.895   5.565   0.345  0.2082  0.5917 -0.4107
 4192SOL    HW216500   0.938   5.644   0.312 -0.0582  0.5800 -0.7870
 4192SOL    HW316501   0.951   5.493   0.314  0.3834  0.6218 -0.1714
 4192SOL    MW416502   0.908   5.566   0.337  0.2176 -0.2591 -0.1271
 4193SOL     OW16503   0.349   4.133   0.561 -0.2144 -0.3206  0.8802
 4193SOL    HW216504   0.341   4.111   0.653  0.5261 -0.4685  0.9109
 4193SOL    HW316505   0.290   4.072   0.516  0.3139 -1.0453  1.1479
 4193SOL    MW416506   0.340   4.122   0.567 -0.2027 -0.4134 -0.0896
 4194SOL     OW16507   4.869   1.542   5.027 -0.4902  0.0435  0.2761
 4194SOL    HW216508   4.855   1.632   4.997  1.2966  0.4636  0.5337
 4194SOL    HW316509   4.808   1.489   4.976  0.3762  1.0727 -1.9471
 4194SOL    MW416510   4.859   1.547   5.017 -0.0802  0.5411  0.2248
 4195SOL     OW16511   5.833   1.179   1.114  0.0604  0.2851 -0.2758
 4195SOL    HW216512   5.792   1.147   1.034 -0.9036 -0.4769  0.4962
 4195SOL    HW316513   5.922   1.201   1.088 -0.5475  1.0972 -1.7939
 4195SOL    MW416514   5.839   1.178   1.100 -0.1014  0.0501  0.1100
 4196SOL     OW16515   3.913   0.872   2.221 -0.8037  1.4003  0.0751
 4196SOL    HW216516   3.987   0.921   2.185 -0.0800  1.8387  2.0609
 4196SOL    HW316517   3.898   0.802   2.158  1.1020  1.4860 -0.5376
 4196SOL    MW416518   3.921   0.869   2.208  0.0357 -0.2206  0.2792
 4197SOL     OW16519   2.644   1.220   2.222 -0.2301  0.0371 -0.2814
 4197SOL    HW216520   2.689   1.181   2.147  2.2303  1.2961  0.4436
 4197SOL    HW316521   2.673   1.167   2.297  1.4619  1.8284  0.4132
 4197SOL    MW416522   2.654   1.208   2.222 -0.4316  0.3192 -0.2088
 4198SOL     OW16523   2.842   3.411   0.321  0.0584 -0.0784  0.5196
 4198SOL    HW216524   2.774   3.345   0.334  0.9362 -0.6176  2.6374
 4198SOL    HW316525   2.900   3.402   0.396  1.6721  1.3701 -0.4736
 4198SOL    MW416526   2.841   3.401   0.332  0.0579  0.3605 -0.1197
 4199SOL     OW16527   3.960   5.486   5.823 -0.3891  0.3531 -0.1051
 4199SOL    HW216528   3.962   5.446   5.736 -0.1835  0.4182 -0.1303
 4199SOL    HW316529   3.927   5.574   5.809 -1.9150 -0.1416  0.0863
 4199SOL    MW416530   3.956   5.492   5.810  0.0781 -0.6018  0.4586
 4200SOL     OW16531   2.645   5.914   1.133  0.2005  0.1077 -0.0215
 4200SOL    HW216532   2.554   5.939   1.144  0.3182  0.2801  0.5786
 4200SOL    HW316533   2.667   5.867   1.214  0.6651  0.1381 -0.1280
 4200SOL    MW416534   2.636   5.911   1.145 -0.1594  0.3760 -0.4415
 4201SOL     OW16535   4.290   3.290   4.697  0.4104  0.4219  0.1094
 4201SOL    HW216536   4.299   3.300   4.602  0.4439 -1.2302 -0.0846
 4201SOL    HW316537   4.215   3.231   4.708  1.3432 -0.6320  1.0349
 4201SOL    MW416538   4.281   3.283   4.686  0.0870 -0.3671  0.1124
 4202SOL     OW16539   4.190   5.407   1.116  0.0543 -0.0729 -0.0233
 4202SOL    HW216540   4.283   5.432   1.114  0.1048 -0.1510  0.7930
 4202SOL    HW316541   4.147   5.482   1.158 -0.5463  0.7911 -2.0651
 4202SOL    MW416542   4.197   5.420   1.121  0.5863 -0.3854  0.2221
 4203SOL     OW16543   5.093   4.271   6.393 -0.2255  0.1640 -0.7036
 4203SOL    HW216544   5.083   4.262   6.488 -1.7638  0.0201 -0.8479
 4203SOL    HW316545   5.187   4.266   6.378 -0.0157 -0.7233  0.7257
 4203SOL    MW416546   5.104   4.269   6.404  0.0835 -0.0680  0.3471
 4204SOL     OW16547   3.321   2.383   0.600  0.1785 -0.7353  0.0252
 4204SOL    HW216548   3.273   2.323   0.657 -0.5115 -0.3127 -0.1052
 4204SOL    HW316549   3.322   2.340   0.515  1.0187 -1.2638  0.2803
 4204SOL    MW416550   3.315   2.369   0.597  0.3597 -0.3239  0.0513
 4205SOL     OW16551   4.035   1.177   3.039  0.8793 -0.0081 -0.0399
 4205SOL    HW216552   3.989   1.214   2.963  1.0018  0.6631  0.2023
 4205SOL    HW316553   3.967   1.167   3.105  0.9353  0.2691  0.0629
 4205SOL    MW416554   4.020   1.181   3.038 -0.0872 -0.6267  0.5245
 4206SOL     OW16555   2.075   5.100   0.624 -0.0597 -0.4229 -0.7105
 4206SOL    HW216556   2.162   5.116   0.662  0.2179 -1.8719 -0.6554
 4206SOL    HW316557   2.017   5.161   0.668  0.9360  0.6202 -0.7885
 4206SOL    MW416558   2.079   5.110   0.635 -0.1377  0.6086 -0.4913
 4207SOL     OW16559   1.929   6.219   0.913 -0.4989 -0.4077 -0.4943
 4207SOL    HW216560   1.913   6.309   0.884  0.6636  0.7012  2.0430
 4207SOL    HW316561   1.906   6.218   1.005 -0.2205 -2.6645 -0.3826
 4207SOL    MW416562   1.924   6.231   0.921 -0.3029  0.2677 -0.1594
 4208SOL     OW16563   4.906   1.045   3.768  0.5522  0.2186  0.1673
 4208SOL    HW216564   4.834   1.059   3.829  0.0311  0.1376 -0.4263
 4208SOL    HW316565   4.958   1.126   3.774  0.0340  0.5649  0.0943
 4208SOL    MW416566   4.904   1.058   3.777 -0.0227  0.0412  0.3141
 4209SOL     OW16567   1.125   3.656   2.921  0.2854  0.2044  0.1407
 4209SOL    HW216568   1.107   3.717   2.993 -0.8718 -1.0835  0.9733
 4209SOL    HW316569   1.178   3.587   2.960  3.6366  1.6801 -1.2995
 4209SOL    MW416570   1.130   3.655   2.936 -0.1020 -0.1820  0.6996
 4210SOL     OW16571   5.372   4.231   3.675  0.0561 -0.0816  0.4854
 4210SOL    HW216572   5.420   4.161   3.719  0.9961  0.2647  0.0389
 4210SOL    HW316573   5.285   4.229   3.714  0.6110 -0.3323  1.7598
 4210SOL    MW416574   5.367   4.222   3.686 -0.5099 -0.0380 -0.1322
 4211SOL     OW16575   4.992   6.391   5.583  0.0425 -0.6585  0.1873
 4211SOL    HW216576   4.909   6.426   5.552  0.5317  0.1444 -0.2492
 4211SOL    HW316577   4.969   6.308   5.625 -1.0194 -0.2815  0.3808
 4211SOL    MW416578   4.978   6.385   5.585 -0.0268 -0.1011  0.4801
 4212SOL     OW16579   2.582   2.292   0.389  0.2134  0.8475  0.4589
 4212SOL    HW216580   2.644   2.348   0.342  0.8640 -0.5265 -0.4266
 4212SOL    HW316581   2.531   2.249   0.320  0.0867 -0.0191  1.0682
 4212SOL    MW416582   2.584   2.293   0.374 -0.2169 -0.5218 -0.2916
 4213SOL     OW16583   5.389   3.070   3.847 -0.1742  0.1210 -0.6470
 4213SOL    HW216584   5.437   3.028   3.776  1.0234 -0.0567  0.2301
 4213SOL    HW316585   5.438   3.150   3.865 -1.3470  0.9479 -1.0322
 4213SOL    MW416586   5.402   3.075   3.840 -0.0112  0.3805 -0.2133
 4214SOL     OW16587   0.898   2.539   4.682  0.5782 -0.1566 -0.6332
 4214SOL    HW216588   0.946   2.603   4.629  1.5034 -0.6947 -0.4643
 4214SOL    HW316589   0.860   2.479   4.618 -0.1722  0.4624 -0.7859
 4214SOL    MW416590   0.899   2.540   4.666  0.0986 -0.1189  0.1905
 4215SOL     OW16591   3.722   1.833   5.691  0.4835 -0.1712  0.0802
 4215SOL    HW216592   3.653   1.890   5.724  0.4223 -0.5920  0.6972
 4215SOL    HW316593   3.731   1.857   5.599 -1.1367 -0.7574 -0.2696
 4215SOL    MW416594   3.714   1.843   5.683 -0.3017 -0.0333  0.2440
 4216SOL     OW16595   3.368   3.784   2.194  0.4752 -0.4572  0.6070
 4216SOL    HW216596   3.374   3.878   2.177  0.1770 -0.7635 -1.4859
 4216SOL    HW316597   3.458   3.758   2.213  0.7851  0.0227 -0.1631
 4216SOL    MW416598   3.380   3.793   2.194 -0.2692  0.1424  0.6201
 4217SOL     OW16599   6.315   2.838   2.925  0.8164 -0.2730 -0.3956
 4217SOL    HW216600   6.299   2.830   2.831  1.5535 -1.8523 -0.4178
 4217SOL    HW316601   6.235   2.879   2.960 -0.4789 -1.8387 -1.4014
 4217SOL    MW416602   6.302   2.843   2.918  0.3035 -0.2669 -0.1086
 4218SOL     OW16603   3.018   2.622   2.380  0.0376 -0.0465 -0.7010
 4218SOL    HW216604   3.079   2.648   2.448  0.0615 -0.9279 -0.3709
 4218SOL    HW316605   3.016   2.526   2.384 -0.4995 -0.0838 -1.4621
 4218SOL    MW416606   3.026   2.613   2.389  0.3061  0.0724  0.6572
 4219SOL     OW16607   2.882   0.193   6.312  0.0349 -0.3974 -0.1957
 4219SOL    HW216608   2.795   0.154   6.316  0.0423 -0.5585 -1.2860
 4219SOL    HW316609   2.866   0.285   6.289  0.1425 -0.3415 -0.0529
 4219SOL    MW416610   2.869   0.200   6.310  0.4778 -0.3863 -0.4137
 4220SOL     OW16611   0.458   1.295   2.370  0.2950  0.4296  0.0867
 4220SOL    HW216612   0.394   1.233   2.407  0.1296  0.2714 -0.4594
 4220SOL    HW316613   0.543   1.258   2.395  0.1901  1.3121  1.9272
 4220SOL    MW416614   0.460   1.282   2.378 -0.0153 -0.1260  0.2941
 4221SOL     OW16615   5.335   2.236   5.090 -0.5960 -0.0388  0.6722
 4221SOL    HW216616   5.360   2.196   5.173  2.5711  1.7889  0.7604
 4221SOL    HW316617   5.334   2.164   5.028 -0.9393 -1.0995  1.8665
 4221SOL    MW416618   5.338   2.221   5.093  0.1463  0.1345 -0.0088
 4222SOL     OW16619   2.615   2.289   5.794  0.3187  0.3271 -0.1170
 4222SOL    HW216620   2.684   2.277   5.859  1.1207 -0.2781 -1.0461
 4222SOL    HW316621   2.535   2.305   5.845  0.8335 -0.6047  1.0184
 4222SOL    MW416622   2.613   2.289   5.809 -0.4352 -0.2017 -0.4987
 4223SOL     OW16623   3.144   6.275   0.780 -0.1388 -0.0827 -0.1635
 4223SOL    HW216624   3.217   6.326   0.744 -0.3045  0.1278 -0.2024
 4223SOL    HW316625   3.185   6.197   0.817  0.0562 -0.2126 -0.6410
 4223SOL    MW416626   3.159   6.271   0.780 -0.1712 -0.4474  0.5698
 4224SOL     OW16627   1.794   0.806   4.670  0.0695 -0.8494 -0.0311
 4224SOL    HW216628   1.791   0.713   4.689 -2.5393 -1.9144 -4.3119
 4224SOL    HW316629   1.718   0.843   4.714  1.3859 -0.4753  2.0975
 4224SOL    MW416630   1.784   0.799   4.678 -0.5628  0.5024  0.4881
 4225SOL     OW16631   1.001   3.249   4.814 -0.2084  0.3203  0.1175
 4225SOL    HW216632   1.012   3.154   4.817 -0.9265  0.2519  1.4192
 4225SOL    HW316633   0.906   3.262   4.819 -0.0312  1.1230  2.6638
 4225SOL    MW416634   0.990   3.238   4.815  0.1900 -0.2221  0.5778
 4226SOL     OW16635   3.143   5.127   0.072  0.4406  0.3542  0.6751
 4226SOL    HW216636   3.179   5.179   0.144  0.6797 -1.4052  1.8918
 4226SOL    HW316637   3.090   5.189   0.022 -1.3142  1.2921  3.4680
 4226SOL    MW416638   3.141   5.142   0.075 -0.6039  0.3030 -0.3420
 4227SOL     OW16639   4.979   0.329   4.292 -0.3843 -0.1160  0.0913
 4227SOL    HW216640   5.062   0.289   4.317 -0.2153  0.0192 -0.2598
 4227SOL    HW316641   4.932   0.339   4.375  0.9602  2.1787  0.6481
 4227SOL    MW416642   4.983   0.325   4.306  0.6200 -0.6791 -0.4093
 4228SOL     OW16643   1.320   5.538   0.800 -0.0665  0.2637  0.8399
 4228SOL    HW216644   1.273   5.621   0.790  1.5789  1.0473 -1.2172
 4228SOL    HW316645   1.254   5.477   0.831 -2.5139  1.3069 -1.8280
 4228SOL    MW416646   1.305   5.541   0.803  0.2665 -0.1853 -0.1180
 4229SOL     OW16647   5.008   2.134   6.336 -0.1774  0.3272  0.2464
 4229SOL    HW216648   5.031   2.041   6.334 -0.9879  0.0895  1.1993
 4229SOL    HW316649   4.933   2.142   6.277  0.6123  0.6012 -0.7401
 4229SOL    MW416650   5.001   2.123   6.328  0.4521 -0.0325  0.2386
 4230SOL     OW16651   4.687   2.571   5.204 -0.2680  0.0923  0.2075
 4230SOL    HW216652   4.677   2.648   5.261 -0.2498  0.2700 -0.0284
 4230SOL    HW316653   4.758   2.595   5.144  0.7265 -0.6637  1.0469
 4230SOL    MW416654   4.695   2.584   5.204 -0.0764 -0.0581 -0.0300
 4231SOL     OW16655   3.042   5.979   4.004  0.2796  0.6323  0.5109
 4231SOL    HW216656   3.071   6.001   4.093  1.6384 -1.6654  0.6947
 4231SOL    HW316657   3.096   6.033   3.947  2.4045 -0.8946  0.9895
 4231SOL    MW416658   3.053   5.989   4.008  0.4734 -0.2932  0.1339
 4232SOL     OW16659   3.616   3.457   4.116  0.1961 -0.0729  0.1949
 4232SOL    HW216660   3.567   3.539   4.119 -0.4554 -0.4458 -0.0320
 4232SOL    HW316661   3.618   3.434   4.023  0.6202 -0.1689  0.2263
 4232SOL    MW416662   3.610   3.465   4.104  0.0920  0.2696 -0.2929
 4233SOL     OW16663   1.828   4.233   2.279  0.3079 -0.2787 -0.1171
 4233SOL    HW216664   1.766   4.165   2.255 -1.2088  0.7937  0.6119
 4233SOL    HW316665   1.847   4.217   2.371 -0.9120  0.8680  0.3715
 4233SOL    MW416666   1.823   4.222   2.288  0.1593 -0.4083 -0.0634
 4234SOL     OW16667   0.248   1.083   2.450  0.2067 -0.3093 -0.7630
 4234SOL    HW216668   0.184   1.067   2.381 -1.0208 -1.3542  0.5729
 4234SOL    HW316669   0.198   1.123   2.522  1.3254  0.1391 -0.1983
 4234SOL    MW416670   0.233   1.086   2.450 -0.0395  0.2458  0.1893
 4235SOL     OW16671   3.635   5.880   2.089 -0.4073 -0.3691  0.6546
 4235SOL    HW216672   3.671   5.893   2.177  2.1669  0.0941 -0.3700
 4235SOL    HW316673   3.669   5.795   2.061  1.9756  1.0413 -1.1887
 4235SOL    MW416674   3.644   5.870   2.097 -0.5758  0.3154 -0.3812
 4236SOL     OW16675   2.060   2.410   0.939 -0.1426  0.5438 -0.1075
 4236SOL    HW216676   2.104   2.447   1.016  1.0116  3.2593 -1.9047
 4236SOL    HW316677   1.984   2.467   0.925 -1.7773 -1.4086  0.3593
 4236SOL    MW416678   2.056   2.423   0.947  0.2281 -0.1148 -0.2989
 4237SOL     OW16679   4.488   3.000   4.769 -0.8232 -0.2223  0.3149
 4237SOL    HW216680   4.579   3.007   4.739 -0.9618  0.8655  0.1016
 4237SOL    HW316681   4.467   2.907   4.760  1.2573 -1.1536  3.3351
 4237SOL    MW416682   4.498   2.988   4.764 -0.0716 -0.2604  0.6542
 4238SOL     OW16683   0.631   5.701   0.221  0.3751 -0.5171  0.2482
 4238SOL    HW216684   0.605   5.659   0.139 -0.8913 -0.9842  0.8692
 4238SOL    HW316685   0.707   5.755   0.197 -1.2898  1.1197 -1.7226
 4238SOL    MW416686   0.638   5.703   0.207 -0.3301 -0.2228 -0.4005
 4239SOL     OW16687   0.595   3.032   2.837  0.3091  0.1534  0.1850
 4239SOL    HW216688   0.582   2.941   2.863 -1.9230  0.2643 -0.3702
 4239SOL    HW316689   0.518   3.078   2.870 -0.7803  1.0235 -3.1561
 4239SOL    MW416690   0.583   3.026   2.845 -0.5306 -0.2283 -0.4460
 4240SOL     OW16691   3.312   6.031   4.659 -0.1595 -0.0108 -0.2924
 4240SOL    HW216692   3.284   6.056   4.747 -0.0298  1.2282 -0.5958
 4240SOL    HW316693   3.237   5.985   4.622 -0.2665 -0.4126  0.3951
 4240SOL    MW416694   3.299   6.028   4.666  0.0262  0.2452 -0.4725
 4241SOL     OW16695   5.097   2.522   1.247 -0.3756  0.5734  0.2524
 4241SOL    HW216696   5.056   2.438   1.269 -2.6021  1.4217 -0.4499
 4241SOL    HW316697   5.152   2.502   1.171 -3.4116  0.2571 -2.0604
 4241SOL    MW416698   5.099   2.508   1.240  0.4856  0.2321 -0.3319
 4242SOL     OW16699   6.237   3.546   4.684 -1.0827  0.3619 -0.5688
 4242SOL    HW216700   6.152   3.590   4.691 -1.7707 -0.9413 -0.5504
 4242SOL    HW316701   6.301   3.618   4.684 -1.9736  1.2755  2.3257
 4242SOL    MW416702   6.234   3.561   4.685  0.2277 -0.0542 -0.4305
 4243SOL     OW16703   3.040   0.815   4.510  0.3607  0.2086 -0.1804
 4243SOL    HW216704   3.116   0.799   4.455  0.8724  1.0366  0.2588
 4243SOL    HW316705   3.051   0.757   4.585  1.0644  1.0016  0.3435
 4243SOL    MW416706   3.051   0.805   4.512  1.1404 -0.0620 -0.9140
 4244SOL     OW16707   2.864   1.787   3.349 -0.0835  0.3743 -0.2117
 4244SOL    HW216708   2.780   1.831   3.336 -0.3376 -0.1133 -0.2368
 4244SOL    HW316709   2.924   1.858   3.373 -0.4072  0.7833 -0.5887
 4244SOL    MW416710   2.861   1.802   3.351 -0.1728 -0.4084  0.0836
 4245SOL     OW16711   3.640   2.244   4.410 -0.1831 -0.6535 -0.3830
 4245SOL    HW216712   3.718   2.256   4.356  1.1663 -1.8948  1.1786
 4245SOL    HW316713   3.605   2.159   4.383  0.4442 -1.2361  0.5736
 4245SOL    MW416714   3.646   2.234   4.399  0.7200  0.3954 -0.1786
 4246SOL     OW16715   2.147   0.885   0.381  0.5196 -0.0570 -0.1078
 4246SOL    HW216716   2.119   0.936   0.457  1.2721  0.0834  0.0789
 4246SOL    HW316717   2.090   0.808   0.382 -0.9695  0.9982 -0.6845
 4246SOL    MW416718   2.136   0.882   0.392 -0.1198  0.0872  0.0164
 4247SOL     OW16719   2.749   0.150   1.711 -0.2688 -0.1974  0.2192
 4247SOL    HW216720   2.702   0.206   1.649  2.0059  0.1132 -1.3610
 4247SOL    HW316721   2.830   0.197   1.729 -0.2480 -0.9587  2.4041
 4247SOL    MW416722   2.753   0.164   1.705  0.1321  0.0533  0.4145
 4248SOL     OW16723   5.616   0.025   5.981 -0.1550 -0.4721 -0.1960
 4248SOL    HW216724   5.564   0.058   5.908 -1.1779 -2.4967 -0.4407
 4248SOL    HW316725   5.701   0.067   5.971 -0.5402 -0.0636 -2.0607
 4248SOL    MW416726   5.620   0.035   5.970 -0.0428  0.9914 -0.3269
 4249SOL     OW16727   5.612   3.823   1.146 -0.5548 -0.5055 -0.0262
 4249SOL    HW216728   5.648   3.891   1.089 -0.5023 -0.2888  0.2612
 4249SOL    HW316729   5.616   3.743   1.093 -0.2751 -0.3564 -0.2365
 4249SOL    MW416730   5.617   3.822   1.131 -0.0958  0.1416  0.3209
 4250SOL     OW16731   3.061   5.569   4.763 -0.3072 -0.3143  0.0107
 4250SOL    HW216732   2.966   5.552   4.762 -0.0799 -2.1034  1.9255
 4250SOL    HW316733   3.080   5.588   4.855  0.9786  1.7327 -0.6206
 4250SOL    MW416734   3.051   5.570   4.775  0.2907  0.5634 -0.4385
 4251SOL     OW16735   3.795   1.010   2.794 -0.1427  0.0180 -0.2767
 4251SOL    HW216736   3.700   0.995   2.790  0.1236 -2.1553  0.3955
 4251SOL    HW316737   3.829   0.971   2.713  0.3392 -0.6829  0.2577
 4251SOL    MW416738   3.787   1.003   2.783 -0.4519  0.2046  0.2863
 4252SOL     OW16739   4.764   6.142   0.788  0.0401 -0.0968 -0.1363
 4252SOL    HW216740   4.701   6.096   0.732  0.4580 -1.6008  0.5846
 4252SOL    HW316741   4.847   6.137   0.740  0.0092  0.2514 -0.2289
 4252SOL    MW416742   4.767   6.135   0.774 -0.4978  0.3456  0.4684
 4253SOL     OW16743   2.462   3.530   2.139 -0.0757  0.2590 -0.2160
 4253SOL    HW216744   2.450   3.620   2.108  1.3054  0.2414 -0.8679
 4253SOL    HW316745   2.542   3.500   2.095  0.6740 -0.5639  1.6123
 4253SOL    MW416746   2.471   3.538   2.129  0.3605  0.3149 -0.2032
 4254SOL     OW16747   1.644   2.766   4.360 -0.9376  0.1870  0.4145
 4254SOL    HW216748   1.677   2.679   4.335 -2.1357 -0.1733  0.0195
 4254SOL    HW316749   1.604   2.752   4.446  0.8121  0.8525  1.3922
 4254SOL    MW416750   1.643   2.752   4.368  0.2673  0.2266 -0.2038
 4255SOL     OW16751   3.233   0.591   0.672 -0.2389  0.6951  0.0921
 4255SOL    HW216752   3.157   0.580   0.614 -0.2966  0.2916  0.2420
 4255SOL    HW316753   3.213   0.670   0.722  1.4420  3.2854 -2.9319
 4255SOL    MW416754   3.220   0.600   0.671 -0.4653 -0.2960  0.6508
 4256SOL     OW16755   0.370   3.905   4.910  0.4417  0.0677 -0.1867
 4256SOL    HW216756   0.405   3.986   4.947 -0.2567  1.8601 -3.1366
 4256SOL    HW316757   0.440   3.872   4.853  0.0620 -0.4255 -0.3822
 4256SOL    MW416758   0.384   3.911   4.908  0.0346 -0.1033  0.2374
 4257SOL     OW16759   4.350   2.216   0.756  0.1477 -0.0742  0.1961
 4257SOL    HW216760   4.301   2.295   0.735  0.7652  0.6785  1.5140
 4257SOL    HW316761   4.367   2.175   0.671 -3.6510 -0.9649 -0.3343
 4257SOL    MW416762   4.346   2.221   0.742 -0.1052 -0.0959 -0.2574
 4258SOL     OW16763   0.506   4.779   0.858 -0.5936 -0.9671 -0.2008
 4258SOL    HW216764   0.425   4.759   0.906  0.5071 -0.3352  2.0736
 4258SOL    HW316765   0.521   4.703   0.803 -1.7335 -1.9539  0.8038
 4258SOL    MW416766   0.497   4.767   0.857 -0.0696  0.6861  0.4472
 4259SOL     OW16767   4.554   2.274   4.291  0.0192  0.1179 -0.2468
 4259SOL    HW216768   4.586   2.363   4.273 -0.8937  0.8353  1.4456
 4259SOL    HW316769   4.625   2.232   4.340 -0.9067  1.2287  2.2379
 4259SOL    MW416770   4.568   2.280   4.295  0.3586  0.3170  0.5613
 4260SOL     OW16771   1.148   5.502   3.060  0.3194 -0.4409  0.1911
 4260SOL    HW216772   1.111   5.429   3.109 -1.9105  1.0946  0.9764
 4260SOL    HW316773   1.116   5.580   3.105  0.8860  1.0303 -1.8037
 4260SOL    MW416774   1.139   5.503   3.072  0.4205  0.2218  0.5826
 4261SOL     OW16775   5.994   0.901   0.526 -0.0708 -0.0148  0.7446
 4261SOL    HW216776   6.077   0.865   0.557 -0.0372  0.1390  0.8385
 4261SOL    HW316777   5.935   0.892   0.601 -0.5977 -1.5723  0.1738
 4261SOL    MW416778   5.997   0.895   0.540  0.9455  0.5292 -0.5150
 4262SOL     OW16779   6.059   4.652   4.683 -0.0073  0.3721 -0.6751
 4262SOL    HW216780   6.076   4.615   4.596 -0.7624  0.2130 -0.7646
 4262SOL    HW316781   6.110   4.598   4.743  0.6707  0.6017 -1.0331
 4262SOL    MW416782   6.068   4.640   4.679  0.4332 -0.4957  0.5733
 4263SOL     OW16783   1.994   1.457   3.670  0.0049  1.0863 -0.1982
 4263SOL    HW216784   1.934   1.445   3.596  1.3208  3.3352 -1.7511
 4263SOL    HW316785   1.952   1.411   3.742 -2.3260  0.4426 -1.8320
 4263SOL    MW416786   1.981   1.449   3.670 -0.0031 -0.0106 -0.2458
 4264SOL     OW16787   0.709   5.931   1.796  0.2203  0.0190 -0.1668
 4264SOL    HW216788   0.756   5.968   1.871 -0.1090 -0.4087  0.2532
 4264SOL    HW316789   0.714   5.837   1.809  0.2402 -0.0616 -0.7366
 4264SOL    MW416790   0.716   5.924   1.807  0.0827 -0.5984  0.5789
 4265SOL     OW16791   0.913   2.925   4.247 -0.3061  0.0181 -0.1455
 4265SOL    HW216792   0.954   2.844   4.215 -0.9690  0.5830 -2.6359
 4265SOL    HW316793   0.822   2.918   4.219 -0.2828  1.7736 -0.7420
 4265SOL    MW416794   0.906   2.913   4.239  0.9617 -0.4803  0.4284
 4266SOL     OW16795   1.201   1.545   2.767 -0.1951  0.0788 -0.2747
 4266SOL    HW216796   1.223   1.490   2.692  0.7991  1.9163 -1.3958
 4266SOL    HW316797   1.107   1.560   2.759 -0.4460 -1.2212 -0.0725
 4266SOL    MW416798   1.192   1.540   2.756 -0.2881  0.1829  0.5721
 4267SOL     OW16799   2.262   4.409   0.157  0.0632  0.2259 -0.5391
 4267SOL    HW216800   2.254   4.466   0.233  0.5532 -1.7467  1.0923
 4267SOL    HW316801   2.183   4.355   0.159 -0.1491  0.4610 -1.7410
 4267SOL    MW416802   2.251   4.409   0.168 -0.5121  0.9090  0.1316
 4268SOL     OW16803   4.197   1.882   6.044 -0.3687  0.4856  0.3048
 4268SOL    HW216804   4.153   1.965   6.022 -0.8129  0.1150 -0.2321
 4268SOL    HW316805   4.127   1.825   6.074 -0.2156 -0.0029 -0.2421
 4268SOL    MW416806   4.182   1.886   6.045 -0.2525 -0.6877  0.5492
 4269SOL     OW16807   1.363   4.489   0.455 -0.2677 -0.6240  0.0702
 4269SOL    HW216808   1.356   4.484   0.550 -1.1534 -0.5122  0.0187
 4269SOL    HW316809   1.274   4.507   0.425  0.0352 -0.4659 -0.7694
 4269SOL    MW416810   1.350   4.491   0.464  0.2240 -0.0303 -0.4072
 4270SOL     OW16811   5.812   3.903   5.263 -0.3796  0.5566  0.1975
 4270SOL    HW216812   5.814   3.974   5.328 -2.3094  0.6049  0.2674
 4270SOL    HW316813   5.834   3.946   5.181  3.5019  0.2427  0.9106
 4270SOL    MW416814   5.815   3.918   5.261 -0.2953  0.0804  0.4260
 4271SOL     OW16815   1.957   5.371   0.713  0.6446 -0.3441 -0.2922
 4271SOL    HW216816   2.003   5.407   0.637 -0.6974  1.0754 -0.5028
 4271SOL    HW316817   1.931   5.448   0.763 -1.9760 -0.9830 -0.5142
 4271SOL    MW416818   1.960   5.386   0.709 -0.4100  0.0272  0.0561
 4272SOL     OW16819   2.307   6.096   5.684 -0.0572 -0.4067 -0.0444
 4272SOL    HW216820   2.321   6.037   5.758  0.3525 -0.0308  0.1778
 4272SOL    HW316821   2.314   6.039   5.607 -0.0602 -0.7207  0.1862
 4272SOL    MW416822   2.310   6.081   5.683 -0.3713  0.4773 -0.0474
 4273SOL     OW16823   2.300   4.256   3.380  0.3256  0.1238  0.3779
 4273SOL    HW216824   2.248   4.266   3.300  0.0524  0.4985  0.6010
 4273SOL    HW316825   2.324   4.164   3.381 -1.5264 -0.3936  0.9995
 4273SOL    MW416826   2.297   4.245   3.370 -0.1311  0.8927 -0.1082
 4274SOL     OW16827   3.134   5.481   0.966 -0.7450  0.1982  0.4917
 4274SOL    HW216828   3.116   5.549   1.031 -0.2309  1.3289 -0.5024
 4274SOL    HW316829   3.208   5.515   0.916  1.6527 -2.4950  1.9148
 4274SOL    MW416830   3.141   5.495   0.968 -0.3735 -0.2932 -0.3283
 4275SOL     OW16831   0.809   2.209   3.491 -0.0506  0.0506  0.1586
 4275SOL    HW216832   0.733   2.189   3.435  1.5537 -0.1900 -2.0576
 4275SOL    HW316833   0.773   2.262   3.562 -2.1999  0.4434 -1.1344
 4275SOL    MW416834   0.794   2.213   3.493 -0.0289 -0.3278  0.2840
 4276SOL     OW16835   4.775   3.518   3.339 -0.0543 -0.1091 -0.0652
 4276SOL    HW216836   4.829   3.597   3.340 -0.0505 -0.0006  3.4123
 4276SOL    HW316837   4.685   3.550   3.330 -0.0930  0.3996  1.8233
 4276SOL    MW416838   4.770   3.533   3.338  0.1389  0.3683  0.2465
 4277SOL     OW16839   1.825   4.510   2.292  0.2557 -0.3414  0.1289
 4277SOL    HW216840   1.734   4.529   2.272  0.2473 -1.1661 -0.6992
 4277SOL    HW316841   1.832   4.414   2.287  1.2656 -0.2632 -0.3313
 4277SOL    MW416842   1.814   4.500   2.289 -0.0037  0.2430 -0.1246
 4278SOL     OW16843   2.444   4.871   6.231 -0.4955 -0.6090 -0.1812
 4278SOL    HW216844   2.402   4.840   6.311 -1.8084  1.2622 -0.0729
 4278SOL    HW316845   2.391   4.946   6.203  1.4435  0.4303 -1.3400
 4278SOL    MW416846   2.432   4.877   6.238  0.2713 -0.3419 -0.8548
 4279SOL     OW16847   1.916   4.191   5.258  0.4863  0.1751  0.0192
 4279SOL    HW216848   1.927   4.285   5.272  0.6321  0.2450 -0.5775
 4279SOL    HW316849   1.930   4.153   5.345 -5.1510  1.1276  1.6986
 4279SOL    MW416850   1.920   4.199   5.272  0.1581 -0.3043 -0.1011
 4280SOL     OW16851   3.400   5.937   0.412 -0.2429 -0.1769  0.5757
 4280SOL    HW216852   3.433   6.017   0.371  0.4760 -0.7987 -0.1038
 4280SOL    HW316853   3.305   5.946   0.409 -0.1733  0.5955  0.4038
 4280SOL    MW416854   3.392   5.949   0.406  0.2016  0.1753  0.0711
 4281SOL     OW16855   1.775   2.424   1.744 -0.0304 -0.1702  0.2652
 4281SOL    HW216856   1.826   2.502   1.723  0.6817 -0.9588 -1.0473
 4281SOL    HW316857   1.748   2.437   1.835 -0.7100  2.0140 -0.1850
 4281SOL    MW416858   1.778   2.436   1.753  0.0270 -0.2320 -0.4447
 4282SOL     OW16859   0.315   2.409   4.029 -0.1772  0.5270  0.3064
 4282SOL    HW216860   0.306   2.446   4.117 -1.9882 -0.4232  0.5799
 4282SOL    HW316861   0.241   2.446   3.980 -2.0954 -2.5026  0.5956
 4282SOL    MW416862   0.304   2.419   4.034  0.2933 -0.0112  0.3328
 4283SOL     OW16863   4.203   1.496   1.236 -0.4252  0.2434 -0.3883
 4283SOL    HW216864   4.282   1.549   1.250 -1.1960  1.6364 -1.1614
 4283SOL    HW316865   4.237   1.410   1.210  0.8470  1.1551 -1.9193
 4283SOL    MW416866   4.218   1.492   1.235  0.4241  1.0789 -0.1891
 4284SOL     OW16867   3.285   1.349   0.274 -0.4638 -0.1330 -0.2109
 4284SOL    HW216868   3.360   1.292   0.255  0.0161  0.6360 -0.6871
 4284SOL    HW316869   3.251   1.316   0.357  1.6125  0.7019  1.0594
 4284SOL    MW416870   3.290   1.337   0.282  0.3680  0.1482  0.1351
 4285SOL     OW16871   1.497   0.278   4.113 -0.8764 -0.2418  0.0312
 4285SOL    HW216872   1.548   0.348   4.072 -0.6175 -0.7648 -0.5501
 4285SOL    HW316873   1.406   0.304   4.099 -0.7835  0.1529  0.1343
 4285SOL    MW416874   1.492   0.291   4.106 -0.2488 -0.2052 -0.1640
 4286SOL     OW16875   0.412   6.198   2.812 -0.2956  0.0843  0.8294
 4286SOL    HW216876   0.487   6.204   2.754  0.2099 -0.3292  1.4208
 4286SOL    HW316877   0.345   6.153   2.760  0.1988 -0.4199  0.6081
 4286SOL    MW416878   0.413   6.193   2.798 -0.0087  0.9610  0.1850
 4287SOL     OW16879   4.487   3.924   5.609 -0.5385  0.1084 -0.5172
 4287SOL    HW216880   4.481   3.887   5.697 -2.2205  1.3965 -0.0276
 4287SOL    HW316881   4.541   3.862   5.560 -2.1966 -2.3628  0.5625
 4287SOL    MW416882   4.493   3.911   5.614  0.9101  0.0863 -0.2798
 4288SOL     OW16883   0.174   3.887   4.157  0.0552  0.5430  0.4319
 4288SOL    HW216884   0.264   3.919   4.148  0.0262  1.2120  2.2139
 4288SOL    HW316885   0.129   3.918   4.078  1.5331 -0.4243 -0.8524
 4288SOL    MW416886   0.180   3.895   4.145  0.1412  0.2214 -0.3368
 4289SOL     OW16887   5.233   1.132   0.521 -0.4119  0.2823 -0.2240
 4289SOL    HW216888   5.172   1.205   0.519 -0.2703  0.4228  0.2962
 4289SOL    HW316889   5.200   1.075   0.590 -1.8957 -1.3841 -2.2111
 4289SOL    MW416890   5.221   1.134   0.530 -0.2495 -0.1924  0.2644
 4290SOL     OW16891   1.680   5.179   5.201 -0.6290 -0.2845 -0.1507
 4290SOL    HW216892   1.711   5.218   5.283 -1.0543  1.5626 -0.8308
 4290SOL    HW316893   1.749   5.116   5.177  0.8495  1.0993  0.2513
 4290SOL    MW416894   1.694   5.175   5.209  0.4839  0.4390  0.1320
 4291SOL     OW16895   3.679   5.287   5.659  0.7070 -0.3818 -0.3024
 4291SOL    HW216896   3.599   5.255   5.701  0.4814  0.8473  0.2337
 4291SOL    HW316897   3.744   5.290   5.729  0.6797  0.4800 -0.3049
 4291SOL    MW416898   3.677   5.283   5.674  0.1024  0.0804  0.4816
 4292SOL     OW16899   4.339   4.500   5.596  0.2971 -0.2590  0.0273
 4292SOL    HW216900   4.421   4.485   5.643  0.9979 -1.2718 -1.4444
 4292SOL    HW316901   4.271   4.474   5.659  1.1907 -1.4538  0.5464
 4292SOL    MW416902   4.340   4.494   5.611  0.2089  0.3128  0.0842
 4293SOL     OW16903   1.257   1.852   0.753 -0.2239  0.9872 -0.0837
 4293SOL    HW216904   1.190   1.915   0.780 -0.6016  0.7995 -0.5857
 4293SOL    HW316905   1.312   1.841   0.831 -0.5024  1.4878  0.1881
 4293SOL    MW416906   1.256   1.859   0.767 -0.7562  0.1302 -0.0788
 4294SOL     OW16907   1.523   4.881   1.529  0.2295  0.6302 -0.1030
 4294SOL    HW216908   1.522   4.895   1.624 -0.5663  0.0368 -0.0127
 4294SOL    HW316909   1.490   4.792   1.518  3.1055 -0.4674 -0.7825
 4294SOL    MW416910   1.518   4.871   1.540 -0.2446 -0.2999  0.3921
 4295SOL     OW16911   4.281   5.235   0.168 -0.2823 -0.2225 -0.3344
 4295SOL    HW216912   4.294   5.148   0.207  2.6829  0.1029 -0.3263
 4295SOL    HW316913   4.253   5.290   0.241  2.2559 -0.2798  0.7928
 4295SOL    MW416914   4.279   5.231   0.183 -0.0768 -0.2089  0.1460
 4296SOL     OW16915   2.132   1.684   3.622  0.0188 -0.4628  0.0208
 4296SOL    HW216916   2.062   1.734   3.665 -0.0592 -0.1589 -0.4537
 4296SOL    HW316917   2.097   1.595   3.614  0.0395 -0.5280  0.5962
 4296SOL    MW416918   2.118   1.679   3.627  0.6854  0.3365  0.5247
 4297SOL     OW16919   4.415   3.029   2.677  0.0694 -0.2186  0.3275
 4297SOL    HW216920   4.371   2.948   2.701 -1.2915  0.3746 -0.0563
 4297SOL    HW316921   4.431   3.074   2.760 -2.2643  0.6418  0.3706
 4297SOL    MW416922   4.412   3.024   2.691 -0.5592  0.6594  0.6764
 4298SOL     OW16923   3.267   3.666   0.147 -0.7697 -0.1731  0.2860
 4298SOL    HW216924   3.305   3.690   0.062 -1.7299  1.3190  0.2403
 4298SOL    HW316925   3.226   3.581   0.131 -0.4163 -0.2003 -0.5787
 4298SOL    MW416926   3.267   3.658   0.133  0.3282 -0.6430  0.0999
 4299SOL     OW16927   0.261   1.759   1.654 -0.4245 -0.2181 -0.0088
 4299SOL    HW216928   0.182   1.806   1.628 -0.9868  0.4381  2.5919
 4299SOL    HW316929   0.235   1.667   1.655 -0.4738 -0.2381 -1.2803
 4299SOL    MW416930   0.247   1.753   1.650 -0.7017  0.6382  0.0000
 4300SOL     OW16931   0.433   4.453   1.174  0.1638  0.3308  0.4685
 4300SOL    HW216932   0.388   4.457   1.258 -0.4898  1.3671  0.0850
 4300SOL    HW316933   0.400   4.373   1.133 -2.7701  1.9473 -0.5594
 4300SOL    MW416934   0.423   4.443   1.180  0.4283 -0.0214  0.0576
 4301SOL     OW16935   3.101   2.357   4.913  0.5229  0.1415  0.6148
 4301SOL    HW216936   3.065   2.436   4.872  1.2886  0.2021  0.0369
 4301SOL    HW316937   3.187   2.384   4.945  0.5021 -0.2793  1.0311
 4301SOL    MW416938   3.108   2.371   4.912 -0.0172 -0.2816 -0.1337
 4302SOL     OW16939   1.743   5.025   1.424 -0.2653 -0.1255 -0.0693
 4302SOL    HW216940   1.817   4.966   1.411 -0.8877 -0.6265 -1.6038
 4302SOL    HW316941   1.683   4.976   1.481  0.1329 -0.1319  0.3467
 4302SOL    MW416942   1.745   5.010   1.430  0.3744 -0.0956 -0.2508
 4303SOL     OW16943   6.110   4.826   1.637  0.3340  0.1703  0.1634
 4303SOL    HW216944   6.033   4.811   1.691 -0.1445  0.4783 -0.4303
 4303SOL    HW316945   6.147   4.907   1.671  0.2128  0.1970  0.2323
 4303SOL    MW416946   6.105   4.835   1.649 -0.0277 -0.0452  0.1205
 4304SOL     OW16947   4.160   5.822   3.175  0.3270 -0.3434 -0.0253
 4304SOL    HW216948   4.132   5.779   3.255 -1.5008  1.5464  0.4229
 4304SOL    HW316949   4.219   5.892   3.204  0.7035 -0.4687 -0.4606
 4304SOL    MW416950   4.164   5.826   3.189 -0.1859  0.3496 -0.2209
 4305SOL     OW16951   5.706   1.910   1.841  0.3822  0.4529  0.0345
 4305SOL    HW216952   5.753   1.831   1.868  0.8173  0.1987 -1.3369
 4305SOL    HW316953   5.775   1.971   1.815  0.0461 -0.0241 -2.2609
 4305SOL    MW416954   5.721   1.907   1.841  0.4589  0.2154 -0.0655
 4306SOL     OW16955   4.716   5.298   0.515  0.1044 -0.2743 -0.0768
 4306SOL    HW216956   4.756   5.232   0.571  2.0869 -0.8608 -2.0486
 4306SOL    HW316957   4.722   5.262   0.427 -1.1185  1.4422 -0.9197
 4306SOL    MW416958   4.722   5.285   0.511  0.6580  1.2219  0.1955
 4307SOL     OW16959   5.592   0.730   3.900 -1.1201  0.3755 -0.2144
 4307SOL    HW216960   5.512   0.784   3.898 -1.6059 -0.3231  0.2997
 4307SOL    HW316961   5.573   0.660   3.961 -0.0172  0.3189  0.0873
 4307SOL    MW416962   5.579   0.728   3.907 -0.1052 -0.4131  0.0870
 4308SOL     OW16963   3.055   5.136   0.706  0.1331 -0.1485  0.1474
 4308SOL    HW216964   3.098   5.055   0.680  1.3566  0.9719 -1.5435
 4308SOL    HW316965   3.115   5.175   0.770  0.1519 -0.0017  0.0412
 4308SOL    MW416966   3.069   5.131   0.711  0.0029 -0.8912 -0.5613
 4309SOL     OW16967   1.341   2.371   6.046  0.1435  0.1046 -0.8428
 4309SOL    HW216968   1.284   2.319   6.103 -0.4697  0.3999 -1.1642
 4309SOL    HW316969   1.429   2.355   6.078  0.0018 -1.3568 -1.1116
 4309SOL    MW416970   1.345   2.362   6.058 -0.1557 -0.5670 -0.2208
 4310SOL     OW16971   1.529   3.924   1.389 -0.4987 -0.4261 -0.0549
 4310SOL    HW216972   1.533   3.923   1.485 -1.0421  1.2039  0.0124
 4310SOL    HW316973   1.593   3.990   1.363 -1.9338  0.7891 -0.6688
 4310SOL    MW416974   1.538   3.933   1.398 -0.1076  0.8766  0.9827
 4311SOL     OW16975   0.071   3.822   5.915  0.2448 -0.2883  0.6569
 4311SOL    HW216976   0.033   3.782   5.837 -0.7972 -0.3231  1.1626
 4311SOL    HW316977   0.087   3.748   5.975  3.1452 -0.5613 -0.3188
 4311SOL    MW416978   0.068   3.807   5.913  0.1149  0.5120  0.3438
 4312SOL     OW16979   1.778   0.107   0.509  0.0956 -0.2242  0.1882
 4312SOL    HW216980   1.797   0.014   0.523 -2.0508 -0.5406  1.3934
 4312SOL    HW316981   1.767   0.115   0.414  0.6118 -1.1251  0.0411
 4312SOL    MW416982   1.779   0.096   0.498  0.0730  0.6458  0.8453
 4313SOL     OW16983   1.202   3.759   6.285 -0.0515  0.2361 -0.4919
 4313SOL    HW216984   1.239   3.704   6.215  2.4568 -0.3453  1.1898
 4313SOL    HW316985   1.220   3.849   6.256  0.3569  0.0267 -0.9119
 4313SOL    MW416986   1.209   3.764   6.272  0.1856 -0.0571 -0.3259
 4314SOL     OW16987   3.409   3.579   3.194 -0.1729 -0.1603  0.2975
 4314SOL    HW216988   3.453   3.494   3.205 -1.1203 -0.6759  0.2210
 4314SOL    HW316989   3.321   3.565   3.229 -1.0788  0.1286 -1.7175
 4314SOL    MW416990   3.403   3.566   3.200  0.5305 -0.2287  0.2146
 4315SOL     OW16991   4.075   3.092   6.274  0.2058 -0.2859  0.2176
 4315SOL    HW216992   4.133   3.150   6.324  3.1401  0.6230 -3.7784
 4315SOL    HW316993   4.002   3.148   6.248  0.3915  0.1697  0.6529
 4315SOL    MW416994   4.073   3.107   6.277 -0.0187  1.0840  0.0075
 4316SOL     OW16995   1.899   3.045   1.888  0.2494 -0.1826 -0.0610
 4316SOL    HW216996   1.805   3.035   1.905  0.4388 -2.5030 -0.1028
 4316SOL    HW316997   1.917   3.136   1.912 -1.6586 -0.1551  1.6101
 4316SOL    MW416998   1.889   3.056   1.893 -0.1543  0.1344 -0.3698
 4317SOL     OW16999   5.731   1.095   0.508 -0.0491 -0.8863  1.2103
 4317SOL    HW217000   5.777   1.047   0.440  2.4924  1.3077  1.2282
 4317SOL    HW317001   5.647   1.119   0.468  1.6809  1.0360 -1.5565
 4317SOL    MW417002   5.726   1.092   0.494 -0.1892 -0.3675  0.1296
 4318SOL     OW17003   6.217   0.906   2.633 -0.5126  0.2605  0.1780
 4318SOL    HW217004   6.256   0.994   2.633 -0.9327  0.4645  1.4255
 4318SOL    HW317005   6.269   0.858   2.698 -1.3867  0.1094  0.7787
 4318SOL    MW417006   6.229   0.911   2.642 -0.3733  0.0132 -0.0432
 4319SOL     OW17007   5.606   6.216   5.622 -0.4655 -0.0052 -0.4157
 4319SOL    HW217008   5.588   6.301   5.583 -1.1969  0.5194  0.9886
 4319SOL    HW317009   5.537   6.205   5.688  0.0236 -1.3722 -0.1081
 4319SOL    MW417010   5.594   6.226   5.626 -0.2813  0.1670  0.2903
 4320SOL     OW17011   3.909   2.249   4.065  0.5021  0.2237  0.5398
 4320SOL    HW217012   3.892   2.342   4.076  1.3191  0.8864 -2.7963
 4320SOL    HW317013   3.985   2.244   4.008  0.3402 -2.4895  0.4057
 4320SOL    MW417014   3.917   2.260   4.059 -0.1734 -0.3397 -0.3327
 4321SOL     OW17015   1.104   3.609   0.686  0.6767  0.7095 -0.0332
 4321SOL    HW217016   1.058   3.539   0.731  1.7829  1.7017  2.9165
 4321SOL    HW317017   1.050   3.630   0.610 -0.2773 -2.4589 -0.3562
 4321SOL    MW417018   1.091   3.603   0.682  0.0925  0.0727  0.1699
 4322SOL     OW17019   2.501   5.733   2.857  0.1375  0.0002 -0.1934
 4322SOL    HW217020   2.444   5.660   2.878  0.0532  0.2297  0.3985
 4322SOL    HW317021   2.474   5.803   2.917  1.5582 -0.1364  0.6478
 4322SOL    MW417022   2.490   5.733   2.867  0.5627  0.2983 -0.5644
 4323SOL     OW17023   0.811   2.061   6.164 -0.2895  0.0414 -0.1942
 4323SOL    HW217024   0.881   1.996   6.151 -1.9062 -1.9796  0.7067
 4323SOL    HW317025   0.854   2.145   6.148  2.6556 -1.0053  1.4001
 4323SOL    MW417026   0.826   2.064   6.160 -0.1746 -0.6137  0.3359
 4324SOL     OW17027   0.787   2.598   3.115 -0.4227  0.0978 -0.3255
 4324SOL    HW217028   0.880   2.608   3.138 -0.2099  0.7661 -1.4041
 4324SOL    HW317029   0.741   2.614   3.198  0.3554  1.5979 -0.1393
 4324SOL    MW417030   0.793   2.602   3.129 -0.1261  0.3480 -0.4042
 4325SOL     OW17031   5.331   3.433   3.599 -0.0207  0.1883  0.1980
 4325SOL    HW217032   5.245   3.392   3.590  0.0883 -0.7279  2.4681
 4325SOL    HW317033   5.315   3.510   3.653  0.2384  1.5400 -1.5712
 4325SOL    MW417034   5.317   3.438   3.605 -0.0093  0.9009 -0.4615
 4326SOL     OW17035   6.122   5.545   0.618  0.2075  0.5276 -0.0238
 4326SOL    HW217036   6.032   5.567   0.643 -0.5679 -2.0721 -0.2828
 4326SOL    HW317037   6.171   5.547   0.700 -0.8789 -1.4377  0.7282
 4326SOL    MW417038   6.116   5.548   0.632 -0.4674  0.2094  0.0733
 4327SOL     OW17039   3.567   0.338   4.013  0.1233  0.0171  0.0680
 4327SOL    HW217040   3.508   0.269   4.043  1.3056 -0.8536  0.4881
 4327SOL    HW317041   3.614   0.366   4.091  1.1201 -0.1703 -0.4448
 4327SOL    MW417042   3.565   0.333   4.027 -0.3275  0.0378  0.4782
 4328SOL     OW17043   2.637   0.035   3.644  0.1133  0.1749 -0.1267
 4328SOL    HW217044   2.639  -0.060   3.630  0.6459  0.3284 -1.1522
 4328SOL    HW317045   2.678   0.047   3.729 -0.9359 -0.5921  0.5249
 4328SOL    MW417046   2.642   0.024   3.653 -0.1913 -0.2143  0.1870
 4329SOL     OW17047   3.014   3.905   0.580 -0.2528  0.6409  0.2268
 4329SOL    HW217048   3.041   3.848   0.508 -0.4781 -1.0689  1.4341
 4329SOL    HW317049   3.086   3.966   0.591 -0.6486  1.6185 -2.0854
 4329SOL    MW417050   3.027   3.905   0.572  0.1868 -0.1030  0.0012
 4330SOL     OW17051   0.866   4.903   0.518  0.4331 -0.3048 -0.8481
 4330SOL    HW217052   0.865   4.934   0.608  0.4787 -1.3051 -0.4829
 4330SOL    HW317053   0.805   4.829   0.518 -0.6593  0.5518 -1.9771
 4330SOL    MW417054   0.858   4.897   0.530 -0.1070 -0.0736 -0.0906
 4331SOL     OW17055   1.024   2.845   0.581 -0.4567 -0.1751  0.5635
 4331SOL    HW217056   0.991   2.757   0.561  0.0945 -0.3555  0.4357
 4331SOL    HW317057   0.949   2.890   0.620 -0.7092 -0.7424  0.7442
 4331SOL    MW417058   1.010   2.839   0.584 -0.0210 -0.0881 -0.7671
 4332SOL     OW17059   2.959   3.550   6.155 -0.3685 -0.0684  0.2032
 4332SOL    HW217060   3.022   3.507   6.213 -0.8357 -0.1970  0.6191
 4332SOL    HW317061   2.969   3.506   6.071  0.3373  0.1403  0.1741
 4332SOL    MW417062   2.969   3.539   6.152 -0.0798  0.4784  0.2132
 4333SOL     OW17063   0.033   2.141   5.542 -0.0303 -0.1713 -0.5872
 4333SOL    HW217064  -0.042   2.176   5.493 -0.6336  0.2326  0.6013
 4333SOL    HW317065  -0.002   2.123   5.629  0.7904 -1.8153 -0.5688
 4333SOL    MW417066   0.018   2.144   5.547  0.7619  0.4133 -0.1748
 4334SOL     OW17067   0.313   3.293   4.398  0.3948 -0.0501  0.0268
 4334SOL    HW217068   0.347   3.375   4.433  1.4700  0.1365 -1.3383
 4334SOL    HW317069   0.322   3.303   4.303 -0.8018 -1.1880 -0.2335
 4334SOL    MW417070   0.318   3.306   4.390 -0.3670 -0.0515 -0.0092
 4335SOL     OW17071   0.337   2.825   3.927 -0.0385 -0.5557  0.2992
 4335SOL    HW217072   0.359   2.917   3.945  0.0175 -0.8700  2.0663
 4335SOL    HW317073   0.250   2.829   3.886  0.9378  0.3770 -1.8415
 4335SOL    MW417074   0.328   2.838   3.924 -0.1321  0.0358  0.4813
 4336SOL     OW17075   2.449   2.685   5.222 -0.5312  0.0505  0.0412
 4336SOL    HW217076   2.543   2.668   5.229 -0.5381 -0.1293 -0.2606
 4336SOL    HW317077   2.408   2.620   5.279 -0.3912  1.3064  1.6407
 4336SOL    MW417078   2.456   2.674   5.230  0.6185 -0.3994  0.0590
 4337SOL     OW17079   5.187   3.157   0.897  0.4649 -0.4393 -0.3652
 4337SOL    HW217080   5.168   3.065   0.916 -1.0266 -0.1086 -0.1782
 4337SOL    HW317081   5.126   3.206   0.952  0.6162  0.6567 -1.1509
 4337SOL    MW417082   5.177   3.151   0.907 -0.2119 -0.5541  0.3725
 4338SOL     OW17083   6.401   0.170   1.061 -0.2464 -0.0886  0.2130
 4338SOL    HW217084   6.346   0.189   0.985 -0.4495 -0.7550  0.1876
 4338SOL    HW317085   6.342   0.126   1.123 -0.1970  0.8281  0.9377
 4338SOL    MW417086   6.386   0.167   1.059 -0.1137  0.7304  0.4631
 4339SOL     OW17087   1.362   1.088   1.021 -0.3390 -0.5911 -0.3779
 4339SOL    HW217088   1.335   1.077   1.112 -2.6231  0.2511 -0.8807
 4339SOL    HW317089   1.385   0.999   0.993 -1.6113 -1.2310  0.4703
 4339SOL    MW417090   1.361   1.075   1.029  0.1485  0.0068  0.0385
 4340SOL     OW17091   1.658   5.057   2.011  0.4798 -0.0717 -0.0133
 4340SOL    HW217092   1.745   5.042   1.973  0.6749  1.0304 -0.0371
 4340SOL    HW317093   1.601   4.996   1.964  1.0542 -0.0387 -0.7739
 4340SOL    MW417094   1.662   5.047   1.999  0.2747  0.7071  0.3077
 4341SOL     OW17095   5.919   0.788   5.863 -0.1011  0.3580 -0.0199
 4341SOL    HW217096   5.946   0.829   5.946 -0.2795  0.8031 -0.1788
 4341SOL    HW317097   5.989   0.811   5.802 -2.1490  4.0616 -1.2283
 4341SOL    MW417098   5.932   0.796   5.866  0.5293  0.4408 -0.1538
 4342SOL     OW17099   1.939   6.320   0.536 -0.4195 -0.2190  0.5080
 4342SOL    HW217100   1.991   6.320   0.457 -0.3609  0.5432  0.5463
 4342SOL    HW317101   1.908   6.229   0.544  0.7574 -0.6510  0.4071
 4342SOL    MW417102   1.942   6.308   0.527 -0.4943  0.6539  0.0285
 4343SOL     OW17103   3.319   4.726   0.535  0.3792  0.5257  0.6817
 4343SOL    HW217104   3.339   4.778   0.457  0.7299  1.8832  1.6473
 4343SOL    HW317105   3.378   4.760   0.602  2.3249 -2.6759  0.8001
 4343SOL    MW417106   3.329   4.737   0.534 -0.6804  0.0202 -0.4200
 4344SOL     OW17107   3.971   4.937   5.290 -0.1839  0.4551  0.1698
 4344SOL    HW217108   4.062   4.969   5.286 -0.5899  1.5845 -0.6091
 4344SOL    HW317109   3.928   4.995   5.353 -0.6573  0.7277 -0.3978
 4344SOL    MW417110   3.978   4.949   5.298  0.0352 -0.6846 -0.2532
 4345SOL     OW17111   4.456   6.301   4.628  0.0161  0.1197 -0.0270
 4345SOL    HW217112   4.538   6.254   4.614  0.4943  0.8701  0.1776
 4345SOL    HW317113   4.472   6.389   4.594 -0.6244  0.3453  0.2252
 4345SOL    MW417114   4.469   6.306   4.622  0.7263 -0.4586 -1.1201
 4346SOL     OW17115   3.677   4.856   6.358  0.5378 -0.1311  0.6527
 4346SOL    HW217116   3.607   4.868   6.294  1.0123 -0.6579  0.0205
 4346SOL    HW317117   3.747   4.913   6.328  1.4735 -1.7446 -0.3927
 4346SOL    MW417118   3.677   4.865   6.346 -0.5506  0.3040  0.4875
 4347SOL     OW17119   0.126   1.269   0.240  0.2222  1.0561 -0.1740
 4347SOL    HW217120   0.031   1.258   0.235  0.2970  0.1176  0.1081
 4347SOL    HW317121   0.161   1.180   0.225  1.0958  1.5682 -1.3364
 4347SOL    MW417122   0.118   1.256   0.237  0.6103  0.0820  1.2215
 4348SOL     OW17123   3.766   5.203   4.752 -0.6863 -0.3882  0.0449
 4348SOL    HW217124   3.743   5.252   4.673 -0.1445  1.6743  1.1034
 4348SOL    HW317125   3.686   5.204   4.805 -0.0867  1.2204  0.9659
 4348SOL    MW417126   3.752   5.209   4.748  0.4007  0.5199 -0.0316
 4349SOL     OW17127   3.582   6.093   1.718  0.0845 -0.0832  0.8144
 4349SOL    HW217128   3.653   6.029   1.723 -0.2025 -0.4479  0.3210
 4349SOL    HW317129   3.616   6.170   1.765  0.9223 -0.1516  0.3481
 4349SOL    MW417130   3.596   6.095   1.725 -0.3848  0.4584  0.0523
 4350SOL     OW17131   3.042   2.560   0.712 -0.1401  0.1428 -0.0967
 4350SOL    HW217132   3.045   2.642   0.761 -0.6568  0.8348 -1.1992
 4350SOL    HW317133   3.116   2.564   0.652 -0.1680 -0.1972 -0.1590
 4350SOL    MW417134   3.052   2.571   0.711  0.3279  0.5733  0.0895
 4351SOL     OW17135   2.300   0.881   6.394  0.0066  0.6409  0.4190
 4351SOL    HW217136   2.222   0.899   6.446  0.5535 -0.9083  1.8486
 4351SOL    HW317137   2.373   0.903   6.452  0.6310 -0.3511  0.0185
 4351SOL    MW417138   2.299   0.887   6.408  0.1483 -0.0413 -0.0355
 4352SOL     OW17139   1.745   6.410   4.038 -0.1131 -0.0371 -0.3052
 4352SOL    HW217140   1.822   6.451   4.000  0.5986 -0.2530  0.8593
 4352SOL    HW317141   1.671   6.450   3.992  0.6668  0.4496 -1.1701
 4352SOL    MW417142   1.745   6.420   4.027  0.3672 -0.0309  0.3708
 4353SOL     OW17143   3.710   0.189   3.558 -0.3583 -0.5613 -0.4919
 4353SOL    HW217144   3.644   0.258   3.557  1.5895  1.4219  0.5941
 4353SOL    HW317145   3.737   0.180   3.466 -1.1598 -0.4417 -0.7483
 4353SOL    MW417146   3.704   0.197   3.546 -0.3400 -0.0422 -0.3346
 4354SOL     OW17147   6.293   2.030   3.784  0.2440 -0.3033  0.0992
 4354SOL    HW217148   6.208   1.994   3.809  0.2220 -0.3623 -0.0615
 4354SOL    HW317149   6.327   2.068   3.865 -0.2747  0.3990  0.0014
 4354SOL    MW417150   6.286   2.030   3.798  0.2412  0.3245  0.1372
 4355SOL     OW17151   4.412   6.011   5.801 -0.7339  0.6978  0.7368
 4355SOL    HW217152   4.363   6.078   5.848  0.4766  0.5010  2.3465
 4355SOL    HW317153   4.386   5.929   5.843 -1.2285  0.2527 -0.3723
 4355SOL    MW417154   4.402   6.009   5.813 -0.6653  0.4610 -0.0695
 4356SOL     OW17155   0.659   3.646   6.200  0.0346  0.1229  0.1768
 4356SOL    HW217156   0.597   3.653   6.128  2.1118 -1.8982 -1.9893
 4356SOL    HW317157   0.636   3.564   6.244 -0.4259  0.6968  1.0179
 4356SOL    MW417158   0.648   3.636   6.196 -0.1795  0.4540 -0.2489
 4357SOL     OW17159   6.234   2.939   0.152  0.0511  0.4058  0.4115
 4357SOL    HW217160   6.329   2.938   0.141  0.1427 -0.3254  1.1611
 4357SOL    HW317161   6.213   2.850   0.181 -0.9326  0.4003 -0.3049
 4357SOL    MW417162   6.244   2.927   0.154 -0.3679  0.3075 -0.7697
 4358SOL     OW17163   0.711   4.512   1.221  0.1784  0.6444  0.0509
 4358SOL    HW217164   0.616   4.523   1.226  0.1305  0.7338 -0.9505
 4358SOL    HW317165   0.737   4.491   1.311 -1.0714 -1.6472 -0.0268
 4358SOL    MW417166   0.702   4.510   1.234 -0.3659  0.4157  0.0430
 4359SOL     OW17167   5.406   2.478   4.462  0.1835 -0.6487  0.2520
 4359SOL    HW217168   5.467   2.552   4.465  0.1931 -0.5843 -1.0510
 4359SOL    HW317169   5.358   2.484   4.545  0.5396  0.5161  0.3975
 4359SOL    MW417170   5.408   2.489   4.473  0.2508  0.2237  0.4762
 4360SOL     OW17171   2.351   3.079   6.118 -0.1323  0.0240  0.6642
 4360SOL    HW217172   2.406   3.033   6.181  0.8917  0.3672  0.0462
 4360SOL    HW317173   2.343   3.168   6.153 -0.0475  0.0557  0.6027
 4360SOL    MW417174   2.357   3.085   6.130  0.4574 -0.0869  0.6925
 4361SOL     OW17175   4.922   3.176   0.008  0.1569  0.2553  0.1012
 4361SOL    HW217176   4.948   3.095  -0.037  1.6643  0.6296  0.2248
 4361SOL    HW317177   4.829   3.165   0.027  0.2896 -1.3701 -0.0646
 4361SOL    MW417178   4.913   3.164   0.005 -0.2767  0.6974 -0.4589
 4362SOL     OW17179   2.447   4.797   0.311 -0.2482  0.2100 -0.0055
 4362SOL    HW217180   2.478   4.848   0.385  1.4628 -0.0115 -0.5350
 4362SOL    HW317181   2.464   4.852   0.234  0.2075 -0.5186 -0.4390
 4362SOL    MW417182   2.453   4.811   0.310 -0.3396 -0.2673  0.5948
 4363SOL     OW17183   1.296   4.345   3.061 -0.0513  0.5452 -0.3646
 4363SOL    HW217184   1.265   4.381   2.978 -1.4427  0.9717  0.3168
 4363SOL    HW317185   1.315   4.421   3.115 -0.4711  0.2734  0.1739
 4363SOL    MW417186   1.294   4.359   3.057  0.0541 -0.3975  0.3831
 4364SOL     OW17187   4.966   0.219   1.831 -0.2523 -0.3591 -0.1024
 4364SOL    HW217188   4.945   0.127   1.849 -0.8393 -0.3163 -0.5486
 4364SOL    HW317189   4.881   0.260   1.817  0.0786 -0.0184 -1.2064
 4364SOL    MW417190   4.952   0.212   1.832  0.1738  0.7743  0.3853
 4365SOL     OW17191   2.611   0.225   1.385  0.2941 -0.5632  0.0668
 4365SOL    HW217192   2.589   0.309   1.346  0.8698 -0.4035  0.0716
 4365SOL    HW317193   2.620   0.165   1.310 -0.6596 -0.7567  0.0997
 4365SOL    MW417194   2.610   0.228   1.370 -0.3035 -0.3765  0.4653
 4366SOL     OW17195   1.561   2.312   3.951 -0.2724 -0.1006 -0.8191
 4366SOL    HW217196   1.592   2.271   4.031  0.7881  2.4433  0.1786
 4366SOL    HW317197   1.632   2.369   3.924 -1.8648  1.5770 -1.7177
 4366SOL    MW417198   1.574   2.314   3.958  0.0776 -0.0673  0.3275
 4367SOL     OW17199   5.351   4.573   3.551  0.1705  0.2275 -0.5204
 4367SOL    HW217200   5.401   4.512   3.497  0.0732  0.9591 -1.4755
 4367SOL    HW317201   5.416   4.634   3.586  0.3354 -0.7196  0.8671
 4367SOL    MW417202   5.366   4.573   3.548 -0.7338  0.3215  0.2897
 4368SOL     OW17203   0.580   2.005   2.843 -0.5541  0.4294  0.0860
 4368SOL    HW217204   0.507   2.066   2.833 -1.5849 -0.7065  0.3029
 4368SOL    HW317205   0.658   2.056   2.823 -1.4484  1.5639 -0.6344
 4368SOL    MW417206   0.581   2.020   2.839  0.1401  0.0432  0.0330
 4369SOL     OW17207   1.374   2.725   5.347  0.0440  0.2175 -0.2689
 4369SOL    HW217208   1.461   2.762   5.363 -0.0554  1.0398 -1.4835
 4369SOL    HW317209   1.329   2.793   5.296 -1.9302  0.5949  1.8149
 4369SOL    MW417210   1.379   2.739   5.342  0.6451 -0.0038  0.1871
 4370SOL     OW17211   4.274   6.148   6.000 -0.3346 -0.0742  0.0078
 4370SOL    HW217212   4.292   6.083   6.068  0.7864  1.8824  1.6983
 4370SOL    HW317213   4.303   6.231   6.038 -3.2880  1.7361 -1.3494
 4370SOL    MW417214   4.280   6.151   6.014  0.0762  0.7929 -0.6797
 4371SOL     OW17215   5.120   2.944   2.901 -0.3109 -1.0522  0.4781
 4371SOL    HW217216   5.131   3.038   2.913 -2.9451 -0.1681 -2.5381
 4371SOL    HW317217   5.038   2.924   2.946 -0.6675 -1.4962 -0.3490
 4371SOL    MW417218   5.110   2.954   2.908  0.6276  0.5270 -0.2475
 4372SOL     OW17219   2.109   2.438   6.352  0.6316 -0.3975 -0.1870
 4372SOL    HW217220   2.096   2.477   6.439 -0.8638 -1.0770 -0.0711
 4372SOL    HW317221   2.101   2.511   6.292 -0.0495 -0.1635  0.1647
 4372SOL    MW417222   2.106   2.453   6.356 -0.7590 -0.0181 -0.8967
 4373SOL     OW17223   0.255   4.751   3.219  0.2225 -0.0368  0.6062
 4373SOL    HW217224   0.310   4.754   3.140  1.0883  0.2369  1.2022
 4373SOL    HW317225   0.253   4.658   3.243 -0.0814 -0.1267  0.2351
 4373SOL    MW417226   0.262   4.739   3.212 -0.0089  0.8224 -0.5089
 4374SOL     OW17227   0.812   1.808   0.580  0.1770  0.3408  0.1009
 4374SOL    HW217228   0.869   1.863   0.526 -0.7731  0.5665 -0.7234
 4374SOL    HW317229   0.842   1.823   0.670  0.1365  2.0224 -0.1236
 4374SOL    MW417230   0.823   1.817   0.585  0.4162  0.0708  0.2789
 4375SOL     OW17231   2.395   4.838   1.800  0.0739 -0.6281  0.0230
 4375SOL    HW217232   2.376   4.848   1.894 -1.7471 -1.0625 -0.2696
 4375SOL    HW317233   2.348   4.759   1.774 -1.7049  0.9229 -1.7975
 4375SOL    MW417234   2.386   4.829   1.809  0.2019  0.0590 -0.0666
 4376SOL     OW17235   5.442   0.937   2.011 -0.2720 -0.1442 -0.3413
 4376SOL    HW217236   5.429   1.032   2.010 -0.9934 -0.2215 -2.0435
 4376SOL    HW317237   5.409   0.908   1.926 -2.8936 -2.2765  1.2348
 4376SOL    MW417238   5.436   0.946   1.999 -0.3508  0.1677 -0.8050
 4377SOL     OW17239   3.295   0.035   3.214  0.0904 -0.6224  0.0373
 4377SOL    HW217240   3.223   0.060   3.156 -1.5440 -0.5515  1.9759
 4377SOL    HW317241   3.252  -0.005   3.289  1.8960  1.5459  2.3998
 4377SOL    MW417242   3.280   0.033   3.216 -1.0921 -0.6354 -0.0326
 4378SOL     OW17243   0.316   6.284   5.071  0.8317  1.3080  0.2566
 4378SOL    HW217244   0.305   6.200   5.116 -0.9242  1.2350 -0.2197
 4378SOL    HW317245   0.405   6.312   5.093  2.1154 -1.4488 -0.8860
 4378SOL    MW417246   0.326   6.277   5.080 -0.1769 -0.1836 -0.1128
 4379SOL     OW17247   0.300   0.118   4.860  0.0474  0.1853  0.9098
 4379SOL    HW217248   0.371   0.093   4.800 -1.2937  0.1718 -0.7378
 4379SOL    HW317249   0.277   0.036   4.904 -0.6401 -0.3830 -0.4450
 4379SOL    MW417250   0.307   0.104   4.858 -0.2985  0.5888 -0.1386
 4380SOL     OW17251   2.499   2.302   4.688 -0.1174 -0.2563 -0.2729
 4380SOL    HW217252   2.492   2.352   4.607 -0.2451 -0.3446 -0.3171
 4380SOL    HW317253   2.477   2.364   4.758 -1.5527 -0.5624 -0.4151
 4380SOL    MW417254   2.495   2.317   4.687 -0.0132 -0.0644 -0.2613
 4381SOL     OW17255   1.528   3.572   2.500 -0.7702  0.1743 -0.1557
 4381SOL    HW217256   1.454   3.605   2.551 -2.0604  0.6205 -2.2397
 4381SOL    HW317257   1.518   3.610   2.414  2.3405  0.8311 -0.3433
 4381SOL    MW417258   1.517   3.581   2.496 -0.5112 -0.3608 -0.1161
 4382SOL     OW17259   4.923   1.913   4.449  0.4160 -0.5197  0.4656
 4382SOL    HW217260   4.977   1.899   4.371 -1.1727 -0.9348 -0.5958
 4382SOL    HW317261   4.961   1.856   4.515  0.4833 -1.8195 -0.6566
 4382SOL    MW417262   4.935   1.904   4.447 -0.0105  0.2579  0.5401
 4383SOL     OW17263   0.724   1.387   3.488  0.1383 -0.2330 -0.0045
 4383SOL    HW217264   0.811   1.394   3.528 -0.3495 -0.9105  1.2177
 4383SOL    HW317265   0.694   1.477   3.479  0.2763 -0.0637  1.1575
 4383SOL    MW417266   0.732   1.400   3.492  0.3269 -0.6847  0.0585
 4384SOL     OW17267   4.738   4.059   1.509 -0.0101  0.3390 -0.1515
 4384SOL    HW217268   4.705   4.144   1.478  0.2290  0.6289  0.3688
 4384SOL    HW317269   4.750   4.071   1.603 -0.6797 -0.5108  0.0534
 4384SOL    MW417270   4.735   4.072   1.517 -0.2904  0.6453  0.4670
 4385SOL     OW17271   0.606   2.753   2.875  0.1798  0.7314  0.5731
 4385SOL    HW217272   0.598   2.770   2.969  1.7642  0.3740  0.7891
 4385SOL    HW317273   0.564   2.668   2.862 -2.0157  1.7510  0.5534
 4385SOL    MW417274   0.599   2.744   2.885  0.2806 -0.6553  0.5863
 4386SOL     OW17275   1.360   4.818   5.913  0.0839 -0.6776  0.0701
 4386SOL    HW217276   1.265   4.809   5.907  0.2114 -1.7392 -0.6331
 4386SOL    HW317277   1.378   4.818   6.007 -0.4161 -3.0475  0.2341
 4386SOL    MW417278   1.350   4.817   5.925  0.1232  0.0281  0.2547
 4387SOL     OW17279   0.587   4.726   4.947  0.1432  1.0336 -0.6560
 4387SOL    HW217280   0.604   4.661   4.878 -2.5153  0.4029 -0.8096
 4387SOL    HW317281   0.652   4.794   4.931  1.6272 -0.5552 -1.8420
 4387SOL    MW417282   0.598   4.726   4.936  0.0792 -0.3486  0.3491
 4388SOL     OW17283   3.890   5.016   6.322 -0.3969 -0.1008 -0.0256
 4388SOL    HW217284   3.979   5.032   6.290 -0.3156 -3.6170 -2.1474
 4388SOL    HW317285   3.899   5.011   6.417  1.8003 -0.6426 -0.1853
 4388SOL    MW417286   3.903   5.017   6.330 -0.4291  0.1886  0.2684
 4389SOL     OW17287   0.570   1.701   0.956 -0.5317 -0.0440  0.2290
 4389SOL    HW217288   0.661   1.720   0.934 -0.1741  0.6593  2.1064
 4389SOL    HW317289   0.519   1.764   0.905  0.1227  0.4544  0.1853
 4389SOL    MW417290   0.575   1.712   0.946  0.8365 -0.9221  0.8979
 4390SOL     OW17291   2.402   6.150   6.111 -0.3592 -0.5499 -0.3880
 4390SOL    HW217292   2.490   6.187   6.112  0.1967 -1.8030 -0.5796
 4390SOL    HW317293   2.357   6.194   6.183  0.1555  0.7066 -0.8087
 4390SOL    MW417294   2.408   6.160   6.121  0.3887  0.1275  0.1119
 4391SOL     OW17295   3.315   3.035   4.105  0.4343 -0.0194 -0.0163
 4391SOL    HW217296   3.250   3.092   4.146  1.2897 -0.1122  1.5197
 4391SOL    HW317297   3.379   3.018   4.173  1.0006 -1.6097 -0.8989
 4391SOL    MW417298   3.315   3.040   4.119  0.7846 -0.0359 -0.0068
 4392SOL     OW17299   4.211   0.190   5.462  0.6315  0.4716  0.9198
 4392SOL    HW217300   4.201   0.130   5.388  1.6741  0.7231  0.5562
 4392SOL    HW317301   4.161   0.150   5.533 -3.1531  1.7653 -0.7533
 4392SOL    MW417302   4.203   0.177   5.461  0.1491  0.4590  0.1635
 4393SOL     OW17303   0.439   4.907   3.392  0.0741  0.1952 -0.3472
 4393SOL    HW217304   0.366   4.858   3.354  0.7283  0.5440 -2.1751
 4393SOL    HW317305   0.497   4.840   3.428 -1.0903 -0.0831  1.1074
 4393SOL    MW417306   0.437   4.892   3.392  0.5005  0.4434  0.0412
 4394SOL     OW17307   1.447   0.304   2.691 -0.1428  0.1438  0.4152
 4394SOL    HW217308   1.469   0.391   2.659 -0.8497  0.3020  0.3455
 4394SOL    HW317309   1.403   0.262   2.617  0.2254 -0.2860  0.4356
 4394SOL    MW417310   1.444   0.310   2.677 -0.4177  0.3554  0.5687
 4395SOL     OW17311   3.622   6.194   1.400 -0.1498  0.1563  0.5966
 4395SOL    HW217312   3.543   6.179   1.348  1.5891 -0.9242 -1.8676
 4395SOL    HW317313   3.597   6.168   1.489 -2.9049  1.0479  0.1894
 4395SOL    MW417314   3.608   6.189   1.405 -0.1212 -0.0116  0.6157
 4396SOL     OW17315   0.902   0.502   5.106  0.1871 -0.4525 -0.1226
 4396SOL    HW217316   0.988   0.484   5.069  0.0886  2.2672 -1.9487
 4396SOL    HW317317   0.843   0.506   5.031 -1.2323 -0.6559  0.9250
 4396SOL    MW417318   0.905   0.500   5.091 -0.7055 -0.1313  0.7964
 4397SOL     OW17319   0.751   5.391   1.099 -0.1441  0.2434 -0.3308
 4397SOL    HW217320   0.822   5.328   1.098 -0.6197 -0.3104  0.0375
 4397SOL    HW317321   0.794   5.476   1.101  0.5049 -0.0656 -0.8035
 4397SOL    MW417322   0.766   5.394   1.099  0.4767  0.4865 -0.0623
 4398SOL     OW17323   0.544   5.293   3.932 -0.7852  0.0551  0.4338
 4398SOL    HW217324   0.627   5.271   3.889 -0.8987  0.9295 -0.2675
 4398SOL    HW317325   0.542   5.389   3.932 -0.8283  0.0923  2.3545
 4398SOL    MW417326   0.555   5.303   3.926 -0.2453  0.1714 -0.4485
 4399SOL     OW17327   1.041   1.635   5.275 -0.0041  0.7616 -0.5344
 4399SOL    HW217328   0.965   1.607   5.327  1.0001 -0.6226  0.2653
 4399SOL    HW317329   1.026   1.596   5.189 -0.1395  0.3901 -0.3443
 4399SOL    MW417330   1.029   1.626   5.270 -0.1259 -0.7361 -0.3467
 4400SOL     OW17331   0.991   4.918   2.361 -0.2733  0.3013  0.7194
 4400SOL    HW217332   0.965   4.979   2.430 -1.3535  0.9752 -0.2539
 4400SOL    HW317333   0.918   4.918   2.299 -0.9905 -3.0582  1.3506
 4400SOL    MW417334   0.978   4.926   2.362 -0.3120  0.2309 -0.3053
 4401SOL     OW17335   1.200   5.500   6.172 -0.8943 -0.3149  0.0021
 4401SOL    HW217336   1.121   5.509   6.225 -1.4853  0.4307 -0.9719
 4401SOL    HW317337   1.179   5.544   6.089  0.5771  0.0012 -0.2393
 4401SOL    MW417338   1.187   5.507   6.168 -0.4024 -0.1070 -0.0277
 4402SOL     OW17339   2.881   4.207   3.407 -0.2521  0.5923  0.4022
 4402SOL    HW217340   2.875   4.273   3.338 -0.1082 -0.2627 -0.4353
 4402SOL    HW317341   2.829   4.134   3.375  0.4790 -0.1330  0.8384
 4402SOL    MW417342   2.873   4.206   3.394  0.4706  0.0229 -0.0071
 4403SOL     OW17343   2.662   1.290   5.593 -0.0033 -0.2068  0.4383
 4403SOL    HW217344   2.704   1.369   5.558 -1.9880  0.4537 -0.6139
 4403SOL    HW317345   2.729   1.251   5.650  2.2825  0.3475 -1.6689
 4403SOL    MW417346   2.677   1.296   5.596  0.3803 -0.0201  0.1748
 4404SOL     OW17347   4.451   6.087   0.145  0.8911  0.4049 -0.1784
 4404SOL    HW217348   4.441   6.160   0.206  2.8973 -0.9278  1.9181
 4404SOL    HW317349   4.452   6.009   0.201  1.6564 -0.9952 -2.0376
 4404SOL    MW417350   4.450   6.086   0.161  0.3767  0.4916  0.1798
 4405SOL     OW17351   0.750   1.379   5.836  0.4504  0.0792  0.2154
 4405SOL    HW217352   0.690   1.305   5.850  0.1449  0.4282  0.7806
 4405SOL    HW317353   0.692   1.452   5.813  0.5268  0.7175  1.8888
 4405SOL    MW417354   0.734   1.379   5.835 -0.3384  0.4121  0.3125
 4406SOL     OW17355   2.060   4.821   0.725 -0.7699  0.1623 -0.3311
 4406SOL    HW217356   2.118   4.775   0.665  1.3046 -0.8029  2.2073
 4406SOL    HW317357   2.095   4.909   0.730 -0.7853  0.1690 -0.3418
 4406SOL    MW417358   2.072   4.826   0.718  0.2633  0.2913  0.5943
 4407SOL     OW17359   6.147   2.759   4.841  0.7165  0.1468  0.1631
 4407SOL    HW217360   6.139   2.834   4.782  1.5187  0.6822  0.7095
 4407SOL    HW317361   6.167   2.798   4.926  0.6068 -0.6662  0.5696
 4407SOL    MW417362   6.148   2.774   4.844 -0.6550 -0.2827 -0.0366
 4408SOL     OW17363   1.918   2.627   4.237  0.2107 -0.1623 -0.3579
 4408SOL    HW217364   1.900   2.718   4.216  0.9588  0.1033  0.1477
 4408SOL    HW317365   1.971   2.595   4.164 -0.6313 -0.3979 -0.8798
 4408SOL    MW417366   1.922   2.635   4.225 -0.3897 -0.1159 -0.2032
 4409SOL     OW17367   4.897   3.510   3.597  0.0148 -0.4999  0.0172
 4409SOL    HW217368   4.896   3.601   3.624  2.0205 -0.3403 -0.2778
 4409SOL    HW317369   4.840   3.507   3.521  1.5023  1.0033 -1.2482
 4409SOL    MW417370   4.890   3.521   3.590  0.5434  0.2463  0.2503
 4410SOL     OW17371   5.413   3.629   4.829  0.6469  0.3852  0.3557
 4410SOL    HW217372   5.318   3.639   4.831  0.5383 -0.6796  1.7317
 4410SOL    HW317373   5.445   3.711   4.790 -0.7622  1.2953  1.0597
 4410SOL    MW417374   5.405   3.641   4.824 -0.1620  0.1292 -0.2189
 4411SOL     OW17375   5.807   0.514   1.205  0.4327 -0.3716  0.4522
 4411SOL    HW217376   5.848   0.436   1.242  0.2598  0.7808  3.3784
 4411SOL    HW317377   5.855   0.587   1.244 -1.6573  0.9682  0.7021
 4411SOL    MW417378   5.819   0.514   1.215 -0.2731  0.3672  0.3344
 4412SOL     OW17379   6.048   2.916   1.819 -0.1354 -0.4571 -0.1633
 4412SOL    HW217380   5.965   2.941   1.778 -0.0423  0.5015  0.2234
 4412SOL    HW317381   6.074   2.836   1.772 -0.2632  0.3403 -1.6692
 4412SOL    MW417382   6.041   2.909   1.807 -0.5374 -0.0458 -0.2902
 4413SOL     OW17383   6.343   2.521   0.359 -0.0939 -0.2294  0.4208
 4413SOL    HW217384   6.324   2.514   0.452 -0.6110  3.1633  0.6764
 4413SOL    HW317385   6.294   2.448   0.319 -1.2502 -0.7282  2.6042
 4413SOL    MW417386   6.334   2.510   0.366 -0.7429 -0.0846 -0.2626
 4414SOL     OW17387   4.154   5.190   4.596  0.3308 -0.3252  0.3493
 4414SOL    HW217388   4.098   5.230   4.530 -0.0227 -1.2094  0.0982
 4414SOL    HW317389   4.144   5.246   4.673 -0.0284  0.1539 -0.0432
 4414SOL    MW417390   4.145   5.203   4.598 -0.2930  0.0673 -0.5764
 4415SOL     OW17391   0.872   5.840   1.277  0.6561 -0.4776 -0.7551
 4415SOL    HW217392   0.838   5.773   1.219 -1.9133  0.3039 -0.2649
 4415SOL    HW317393   0.833   5.822   1.362  2.3775 -0.1309  0.1677
 4415SOL    MW417394   0.862   5.829   1.281  0.9424 -0.3928  0.3416
 4416SOL     OW17395   6.292   1.156   2.563 -0.2586 -0.0491  0.4549
 4416SOL    HW217396   6.242   1.224   2.608  0.1212  1.2186 -0.9417
 4416SOL    HW317397   6.381   1.167   2.597 -0.3897 -0.5390  0.9731
 4416SOL    MW417398   6.297   1.166   2.573 -0.8908  0.0376  0.3558
 4417SOL     OW17399   2.057   1.920   0.219 -0.2424  0.0745  0.2044
 4417SOL    HW217400   1.987   1.919   0.154 -0.0285  0.1761 -0.0251
 4417SOL    HW317401   2.046   1.837   0.266  0.5130 -0.6839 -0.9210
 4417SOL    MW417402   2.046   1.909   0.217  0.4439 -0.0448  0.4819
 4418SOL     OW17403   5.926   1.364   0.201  0.3506 -0.6510 -0.3673
 4418SOL    HW217404   5.976   1.295   0.245 -0.6891 -0.9111  0.4756
 4418SOL    HW317405   5.952   1.358   0.109  2.7319  0.0229  0.1950
 4418SOL    MW417406   5.936   1.354   0.195 -0.2764  0.1305 -1.2592
 4419SOL     OW17407   3.411   3.355   5.651 -0.1165  0.0378  0.3655
 4419SOL    HW217408   3.399   3.261   5.663  1.1199  0.0719  2.4419
 4419SOL    HW317409   3.505   3.365   5.633 -0.1255  0.9043  0.7321
 4419SOL    MW417410   3.422   3.344   5.651 -0.2277 -0.1856 -0.2829
 4420SOL     OW17411   0.394   0.007   0.792  0.1563  0.3257  0.2006
 4420SOL    HW217412   0.325  -0.057   0.813  0.2675 -0.5962 -1.9728
 4420SOL    HW317413   0.441   0.020   0.875 -1.6571 -0.1901  1.3776
 4420SOL    MW417414   0.391   0.000   0.806 -0.0287  0.1577 -0.6317
 4421SOL     OW17415   4.747   0.516   1.771  0.3651 -0.6968  0.6285
 4421SOL    HW217416   4.832   0.554   1.749 -0.3028  0.1388 -0.6539
 4421SOL    HW317417   4.751   0.502   1.865  0.9890  1.7955  1.0487
 4421SOL    MW417418   4.759   0.519   1.780  0.4827  0.0698  0.3858
 4422SOL     OW17419   0.587   5.358   0.875 -0.1748 -0.0912  0.1916
 4422SOL    HW217420   0.512   5.411   0.902  0.9759  1.3502  0.6714
 4422SOL    HW317421   0.650   5.367   0.947  0.8223 -0.5353 -0.5942
 4422SOL    MW417422   0.586   5.366   0.888  0.7383 -0.0982 -0.2655
 4423SOL     OW17423   3.297   5.682   3.889  0.3201  0.5146  0.4496
 4423SOL    HW217424   3.203   5.669   3.879  0.5106 -0.2232 -0.5279
 4423SOL    HW317425   3.336   5.602   3.855  1.3153  0.9521  0.5243
 4423SOL    MW417426   3.290   5.670   3.883  0.2010  0.6416 -0.2434
 4424SOL     OW17427   2.031   2.441   4.774  0.2338  0.3774 -0.6968
 4424SOL    HW217428   1.984   2.361   4.753 -0.3562  0.7475 -0.8064
 4424SOL    HW317429   2.016   2.499   4.699  0.7607  0.5421 -0.6778
 4424SOL    MW417430   2.023   2.438   4.761  0.8103  0.0508 -0.4225
 4425SOL     OW17431   4.640   2.045   0.592 -0.3946 -0.2362  0.1371
 4425SOL    HW217432   4.687   2.043   0.509 -1.0443 -0.6667 -0.2251
 4425SOL    HW317433   4.551   2.071   0.569 -0.1376  1.4956  0.9290
 4425SOL    MW417434   4.635   2.048   0.578  0.0248  0.0177 -0.6531
 4426SOL     OW17435   5.565   4.886   6.297 -0.2253 -0.7157  1.3501
 4426SOL    HW217436   5.621   4.821   6.339  1.2636 -0.2685  0.1496
 4426SOL    HW317437   5.560   4.857   6.206  0.8365  1.0371  0.6835
 4426SOL    MW417438   5.572   4.873   6.291 -0.4082 -0.0671  0.5525
 4427SOL     OW17439   1.510   6.407   0.027  0.6896  0.4545 -0.0531
 4427SOL    HW217440   1.558   6.340   0.076 -0.7411 -0.9002 -0.4334
 4427SOL    HW317441   1.570   6.481   0.024  3.0252 -1.3381 -1.0146
 4427SOL    MW417442   1.524   6.408   0.033 -0.2395 -0.1694  0.1361
 4428SOL     OW17443   1.241   0.103   5.158 -0.0741  0.1269  0.1520
 4428SOL    HW217444   1.185   0.067   5.227  0.2538 -1.4742 -0.3962
 4428SOL    HW317445   1.186   0.102   5.080 -0.3127  1.5794  0.2675
 4428SOL    MW417446   1.226   0.098   5.157 -0.0263 -0.6463  0.1070
 4429SOL     OW17447   5.296   5.380   0.366 -0.1035  0.3152 -0.2742
 4429SOL    HW217448   5.201   5.373   0.358 -0.5409  2.4139  1.9688
 4429SOL    HW317449   5.320   5.315   0.432 -0.2762  0.9966  0.4784
 4429SOL    MW417450   5.287   5.371   0.374 -0.4754 -0.0681  0.1546
 4430SOL     OW17451   2.172   0.704   2.013  0.2161 -0.4456  0.2876
 4430SOL    HW217452   2.194   0.715   2.105 -0.0188  0.9527  0.2130
 4430SOL    HW317453   2.080   0.676   2.013  0.1997 -0.3898  0.4797
 4430SOL    MW417454   2.163   0.702   2.025 -0.2211  0.2345  0.4902
 4431SOL     OW17455   3.040   3.946   5.546  0.4745 -0.1898 -1.0901
 4431SOL    HW217456   3.122   3.976   5.586  0.0069  1.3083 -1.1930
 4431SOL    HW317457   2.976   4.013   5.570 -0.9514 -1.7572 -0.2928
 4431SOL    MW417458   3.043   3.959   5.554 -0.0908 -1.1705  0.5895
 4432SOL     OW17459   4.009   1.694   1.340  0.3745  0.1754  0.0577
 4432SOL    HW217460   4.049   1.772   1.301 -0.4270  0.2038 -0.7428
 4432SOL    HW317461   4.031   1.623   1.280  0.2360 -0.0247  0.2417
 4432SOL    MW417462   4.017   1.695   1.327  0.8297 -0.2870  0.4728
 4433SOL     OW17463   1.298   5.702   4.125  0.1738 -0.1397  0.1818
 4433SOL    HW217464   1.256   5.741   4.048  1.3690  0.2780 -0.2892
 4433SOL    HW317465   1.365   5.765   4.149 -0.0210 -0.3850  1.4377
 4433SOL    MW417466   1.301   5.716   4.118  0.4277 -0.1389 -0.0705
 4434SOL     OW17467   5.074   1.364   5.108 -0.6765  0.1571 -0.1025
 4434SOL    HW217468   5.007   1.430   5.128 -0.5776 -0.2921  1.8563
 4434SOL    HW317469   5.155   1.415   5.097 -0.6040  0.4031  1.3885
 4434SOL    MW417470   5.076   1.380   5.109 -0.5190 -0.1319  0.3612
 4435SOL     OW17471   4.745   0.074   5.517 -0.3720 -0.3850 -0.0530
 4435SOL    HW217472   4.655   0.047   5.533 -1.3292  2.4107 -0.1933
 4435SOL    HW317473   4.759   0.056   5.424 -2.4609  3.1856 -1.2378
 4435SOL    MW417474   4.735   0.068   5.507 -0.0135 -0.0762 -0.5061
 4436SOL     OW17475   2.560   5.225   2.708 -0.0375  0.1639 -0.4650
 4436SOL    HW217476   2.484   5.223   2.766 -0.9553 -1.8414 -1.6131
 4436SOL    HW317477   2.603   5.140   2.720  1.9757  1.1756  0.0257
 4436SOL    MW417478   2.556   5.213   2.717  0.1943  0.1304  0.1819
 4437SOL     OW17479   0.815   5.855   0.091 -0.5088 -0.0424 -0.6925
 4437SOL    HW217480   0.766   5.935   0.070 -1.0497 -0.1548  0.0727
 4437SOL    HW317481   0.829   5.812   0.007 -1.0396  0.4001 -1.0114
 4437SOL    MW417482   0.810   5.860   0.077 -0.6967 -0.0641  0.1100
 4438SOL     OW17483   2.668   2.384   2.569 -0.0835 -0.0084  0.0421
 4438SOL    HW217484   2.620   2.457   2.531 -0.4182 -0.7760 -1.0511
 4438SOL    HW317485   2.617   2.360   2.647  0.6137  1.5687  1.0343
 4438SOL    MW417486   2.655   2.390   2.575  0.2591 -0.3396  0.0479
 4439SOL     OW17487   3.704   2.913   0.189 -0.1680  0.1530  0.4184
 4439SOL    HW217488   3.724   2.982   0.126  0.2895 -1.2234 -1.0020
 4439SOL    HW317489   3.786   2.899   0.237  0.0348 -0.0862  0.0061
 4439SOL    MW417490   3.717   2.920   0.187 -0.5972  0.9189 -0.8407
 4440SOL     OW17491   1.548   3.249   2.485 -0.0982  0.0097 -0.2734
 4440SOL    HW217492   1.565   3.155   2.497  0.1792 -0.3374 -2.8000
 4440SOL    HW317493   1.633   3.285   2.460 -0.1604  0.9953  0.8963
 4440SOL    MW417494   1.562   3.241   2.483  0.4271  0.2302  0.2409
 4441SOL     OW17495   5.503   0.131   5.759 -0.1725  0.5091 -0.2314
 4441SOL    HW217496   5.454   0.206   5.792  0.3519  0.8162 -0.1507
 4441SOL    HW317497   5.436   0.073   5.722 -0.9011 -0.2062  2.0343
 4441SOL    MW417498   5.487   0.133   5.759  0.6225 -0.2288 -0.3528
 4442SOL     OW17499   4.203   2.831   1.891  0.2207 -0.5762 -0.0565
 4442SOL    HW217500   4.170   2.836   1.802 -0.2648  2.5178  0.1869
 4442SOL    HW317501   4.143   2.772   1.936  0.4157 -2.1045 -1.6724
 4442SOL    MW417502   4.191   2.824   1.886  0.3808  0.6443  0.0302
 4443SOL     OW17503   1.451   2.796   1.038 -0.2059 -0.7195  0.1088
 4443SOL    HW217504   1.465   2.783   0.944 -1.2626 -0.5358 -0.0932
 4443SOL    HW317505   1.361   2.829   1.044 -0.2236 -0.9305  1.2023
 4443SOL    MW417506   1.441   2.798   1.027  0.2094  0.4162  0.4796
 4444SOL     OW17507   0.613   0.837   1.668  0.1320 -0.6350 -0.0152
 4444SOL    HW217508   0.628   0.900   1.739  0.3265  0.8456 -1.3088
 4444SOL    HW317509   0.548   0.777   1.703 -1.0116  1.0387  0.8627
 4444SOL    MW417510   0.607   0.837   1.682 -0.0773  0.1072  0.2876
 4445SOL     OW17511   1.756   1.987   3.193  0.0573  0.2347 -0.9737
 4445SOL    HW217512   1.799   1.930   3.130 -0.6091 -1.3828 -0.0126
 4445SOL    HW317513   1.780   1.952   3.279  0.3064  1.9154 -0.3000
 4445SOL    MW417514   1.765   1.975   3.196 -0.4931  0.4019  0.4167
 4446SOL     OW17515   4.742   0.455   4.818  0.7820 -0.2030  0.3110
 4446SOL    HW217516   4.815   0.397   4.798 -0.1271 -1.2865  0.0360
 4446SOL    HW317517   4.749   0.472   4.912 -0.0220 -2.3615  0.8163
 4446SOL    MW417518   4.752   0.450   4.828  0.4116 -0.8038 -0.4501
 4447SOL     OW17519   2.006   1.472   5.486 -0.2091 -0.2840 -0.1521
 4447SOL    HW217520   2.100   1.455   5.476 -0.3349 -0.4964 -1.0652
 4447SOL    HW317521   1.997   1.502   5.576  0.7256 -0.3481 -0.0225
 4447SOL    MW417522   2.017   1.474   5.496 -0.1737  0.3471  0.2180
 4448SOL     OW17523   3.235   2.045   4.653  0.0043  0.0219  0.2724
 4448SOL    HW217524   3.156   2.083   4.692 -0.4631  0.5839 -1.1555
 4448SOL    HW317525   3.236   2.078   4.564  1.1316 -1.0827 -0.1591
 4448SOL    MW417526   3.224   2.054   4.647  0.0214 -0.5908  0.7198
 4449SOL     OW17527   0.171   1.491   1.709 -0.4426 -0.2153 -0.6797
 4449SOL    HW217528   0.195   1.489   1.802  1.1757  0.3487 -1.0447
 4449SOL    HW317529   0.091   1.542   1.706  0.1873  0.8710  0.2829
 4449SOL    MW417530   0.164   1.497   1.721 -0.4697 -0.0902  0.4064
 4450SOL     OW17531   0.955   2.264   2.635  0.0211  0.0120  0.0001
 4450SOL    HW217532   0.902   2.319   2.691  0.9200  2.6171 -1.5287
 4450SOL    HW317533   0.908   2.261   2.552 -0.1385 -1.8372  0.1028
 4450SOL    MW417534   0.942   2.271   2.631 -0.0277 -0.2178 -0.1054
 4451SOL     OW17535   5.802   3.987   5.804 -0.8267 -0.7076 -0.1121
 4451SOL    HW217536   5.894   3.962   5.792 -0.3745  1.4681 -2.1282
 4451SOL    HW317537   5.799   4.024   5.893  1.0119  1.6997 -0.9210
 4451SOL    MW417538   5.814   3.989   5.814  0.3614  0.4366 -0.2708
 4452SOL     OW17539   2.027   5.928   1.224 -0.3408 -0.2818  0.0885
 4452SOL    HW217540   2.047   5.880   1.144  1.4020  3.0361 -1.6991
 4452SOL    HW317541   1.935   5.954   1.214 -0.2527 -0.2385 -0.6794
 4452SOL    MW417542   2.017   5.925   1.212 -0.2939  0.3279  0.0967
 4453SOL     OW17543   2.139   1.517   1.611 -0.1058  0.3762 -0.0609
 4453SOL    HW217544   2.074   1.587   1.612 -2.0420 -1.2635  2.5095
 4453SOL    HW317545   2.215   1.553   1.656 -1.4051  0.6457  2.0279
 4453SOL    MW417546   2.140   1.531   1.617 -0.0061  0.0675  0.3711
 4454SOL     OW17547   3.042   0.209   3.395 -0.3482  0.1866  0.6479
 4454SOL    HW217548   3.121   0.246   3.357  0.4120 -1.8460  0.1361
 4454SOL    HW317549   3.051   0.227   3.489  0.3020  0.6966  0.4992
 4454SOL    MW417550   3.054   0.216   3.403  0.1460  0.4194  0.5004
 4455SOL     OW17551   4.788   4.264   0.910 -0.0358  0.0726 -0.1540
 4455SOL    HW217552   4.837   4.211   0.848  0.0119 -0.3343  0.2237
 4455SOL    HW317553   4.839   4.259   0.991  0.0447  0.8131 -0.1545
 4455SOL    MW417554   4.801   4.256   0.913 -0.4228 -0.1959 -0.0625
 4456SOL     OW17555   6.382   5.474   5.194  0.0511 -0.0597  0.3597
 4456SOL    HW217556   6.425   5.558   5.209 -0.2728  0.3859 -1.0096
 4456SOL    HW317557   6.310   5.471   5.256 -0.8247  1.3545 -0.5515
 4456SOL    MW417558   6.379   5.484   5.204  0.0473 -0.2892 -0.0148
 4457SOL     OW17559   6.072   2.865   5.294  0.0356 -0.2966 -0.1848
 4457SOL    HW217560   6.003   2.803   5.271 -0.1591 -0.6519  1.2793
 4457SOL    HW317561   6.117   2.882   5.211 -1.7556 -0.0825 -1.1617
 4457SOL    MW417562   6.069   2.859   5.280 -0.3608 -0.4023 -0.0270
 4458SOL     OW17563   6.180   4.557   4.169 -0.1552 -0.3530  0.4776
 4458SOL    HW217564   6.267   4.516   4.174 -0.7832 -1.7456  0.3436
 4458SOL    HW317565   6.198   4.644   4.134  1.2521 -0.3974  1.0016
 4458SOL    MW417566   6.194   4.563   4.165 -0.2477 -0.4203 -0.1770
 4459SOL     OW17567   6.034   5.694   1.874  0.4333 -0.3987  0.2637
 4459SOL    HW217568   5.967   5.632   1.848 -0.1470  0.5335 -0.5406
 4459SOL    HW317569   5.992   5.780   1.865  1.6011  0.1829  0.1356
 4459SOL    MW417570   6.020   5.697   1.870  0.2869 -0.4618 -0.2149
 4460SOL     OW17571   6.035   0.051   0.615 -0.0432 -0.1451 -0.0699
 4460SOL    HW217572   6.052   0.106   0.691  1.9121 -0.8387  0.0438
 4460SOL    HW317573   5.962   0.094   0.570 -0.2238  1.1175  1.3560
 4460SOL    MW417574   6.027   0.064   0.619  0.1974  0.0136 -0.0493
 4461SOL     OW17575   3.817   0.781   3.684 -0.0986 -0.0757 -0.6419
 4461SOL    HW217576   3.848   0.691   3.669  0.0860 -0.1326  0.0248
 4461SOL    HW317577   3.896   0.834   3.680 -0.2948  0.1509 -1.6900
 4461SOL    MW417578   3.832   0.776   3.682 -0.1444 -0.2502 -0.1213
 4462SOL     OW17579   1.702   0.495   4.059  0.6499 -0.0261 -0.7103
 4462SOL    HW217580   1.683   0.588   4.045 -0.4166 -0.1048  0.0789
 4462SOL    HW317581   1.733   0.490   4.149 -1.2666 -0.6719 -0.0321
 4462SOL    MW417582   1.703   0.507   4.069  0.3492  0.0887  0.1254
 4463SOL     OW17583   6.175   4.107   1.031 -0.0556  0.0274 -0.0291
 4463SOL    HW217584   6.168   4.109   0.936 -0.9229  1.8161  0.0186
 4463SOL    HW317585   6.114   4.176   1.060  0.2144 -0.4701  1.8079
 4463SOL    MW417586   6.166   4.116   1.022 -0.4489  0.5412 -0.7798
 4464SOL     OW17587   6.061   6.240   3.017  0.1153 -0.0395  0.1879
 4464SOL    HW217588   6.129   6.252   3.084  0.8928 -1.1370 -0.3727
 4464SOL    HW317589   5.985   6.206   3.065 -1.0401  3.6099  1.2747
 4464SOL    MW417590   6.060   6.237   3.032  0.1105  0.3478  1.0843
 4465SOL     OW17591   6.337   0.489   0.286  0.7776  0.2230  0.1815
 4465SOL    HW217592   6.348   0.407   0.335  0.3347 -0.2545 -0.5042
 4465SOL    HW317593   6.425   0.526   0.280  1.2143 -0.9112 -0.7131
 4465SOL    MW417594   6.350   0.483   0.292 -0.3055 -0.4005 -0.5425
 4466SOL     OW17595   5.313   5.478   0.999  0.2443  0.0300 -0.5212
 4466SOL    HW217596   5.383   5.415   0.981 -0.1741 -0.6819  0.2905
 4466SOL    HW317597   5.241   5.426   1.033 -0.6495  0.7746 -1.2176
 4466SOL    MW417598   5.313   5.463   1.001 -0.2183 -0.1597  0.2390
 4467SOL     OW17599   6.224   1.562   6.174  0.4283 -0.0119  0.5582
 4467SOL    HW217600   6.166   1.626   6.133  0.2162 -0.3680  0.2993
 4467SOL    HW317601   6.289   1.615   6.220  0.5773  0.3915 -0.1026
 4467SOL    MW417602   6.225   1.578   6.175 -0.1094  0.2297 -0.4419
 4468SOL     OW17603   4.479   3.155   1.371  0.1300  1.0217  0.6243
 4468SOL    HW217604   4.414   3.226   1.375 -0.0030  0.8783  1.2027
 4468SOL    HW317605   4.460   3.109   1.290 -2.1638 -0.5624  1.9232
 4468SOL    MW417606   4.468   3.159   1.361  0.0537 -0.9472 -0.4528
 4469SOL     OW17607   3.612   0.907   5.889  0.0285  0.5470 -0.0686
 4469SOL    HW217608   3.532   0.875   5.848 -0.8861  0.4039  1.6924
 4469SOL    HW317609   3.671   0.928   5.817 -1.3951  0.1177 -1.3903
 4469SOL    MW417610   3.609   0.906   5.874  0.3182  0.4433 -0.3044
 4470SOL     OW17611   3.343   0.514   5.112  0.3220 -0.0724  0.2992
 4470SOL    HW217612   3.383   0.537   5.028  0.4033 -1.3864 -0.0424
 4470SOL    HW317613   3.313   0.597   5.148  0.6123  0.5518 -0.8624
 4470SOL    MW417614   3.345   0.528   5.106 -0.1989  0.0139  0.0076
 4471SOL     OW17615   0.184   2.361   1.373 -0.3424 -0.1137 -0.3884
 4471SOL    HW217616   0.095   2.390   1.393 -0.7006  0.9011 -3.0619
 4471SOL    HW317617   0.239   2.436   1.396 -0.5026  0.2196 -1.0482
 4471SOL    MW417618   0.180   2.375   1.378 -0.2749 -0.6910 -0.2685
 4472SOL     OW17619   1.580   1.540   1.972  0.5592 -0.4189  0.4250
 4472SOL    HW217620   1.574   1.510   2.063 -0.2913 -0.8679  0.2276
 4472SOL    HW317621   1.527   1.619   1.969  0.8486 -0.2237  0.3886
 4472SOL    MW417622   1.572   1.546   1.984 -0.2300 -0.5165  0.1308
 4473SOL     OW17623   2.992   0.824   1.555  0.2272 -0.5234  0.4711
 4473SOL    HW217624   3.000   0.843   1.649  0.4319 -0.6016  0.4700
 4473SOL    HW317625   2.898   0.828   1.538  0.1051 -1.3726  0.8636
 4473SOL    MW417626   2.981   0.827   1.565 -0.0463  0.4734  0.4244
 4474SOL     OW17627   0.927   6.230   3.786 -0.0285 -0.1997 -0.2418
 4474SOL    HW217628   0.957   6.144   3.755 -1.2787 -0.8189  0.1939
 4474SOL    HW317629   0.868   6.260   3.717 -2.3241 -1.2982  1.1216
 4474SOL    MW417630   0.923   6.222   3.773  0.3628  0.2248  0.3139
 4475SOL     OW17631   5.433   4.224   0.636 -0.0811  0.5550  0.1257
 4475SOL    HW217632   5.418   4.239   0.543 -0.1068 -0.0191  0.0371
 4475SOL    HW317633   5.488   4.298   0.663  0.9174  0.0989 -0.6076
 4475SOL    MW417634   5.438   4.236   0.627  0.3420 -0.6612 -0.3481
 4476SOL     OW17635   5.922   4.756   0.426  0.6270 -0.2052 -0.4292
 4476SOL    HW217636   5.895   4.674   0.469  0.1453 -0.5078 -1.2927
 4476SOL    HW317637   5.842   4.790   0.386  0.9206  0.4587 -0.4676
 4476SOL    MW417638   5.908   4.749   0.426  0.0298 -0.4028 -0.0166
 4477SOL     OW17639   2.989   0.695   5.091 -0.0366  0.4063 -0.3985
 4477SOL    HW217640   2.898   0.671   5.078  0.1559 -0.4887 -0.1366
 4477SOL    HW317641   2.994   0.786   5.063 -0.6122 -0.0808 -2.2003
 4477SOL    MW417642   2.978   0.704   5.086  0.4016 -0.4949 -0.0846
 4478SOL     OW17643   3.803   4.336   0.117  0.0966 -0.6637 -0.2472
 4478SOL    HW217644   3.767   4.424   0.120  2.4849  0.3582  0.7053
 4478SOL    HW317645   3.794   4.302   0.206 -0.6405 -1.3345 -0.5649
 4478SOL    MW417646   3.797   4.343   0.129 -0.4089 -0.5490 -0.0507
 4479SOL     OW17647   2.485   1.778   1.353 -0.3287 -0.4568  0.3951
 4479SOL    HW217648   2.481   1.693   1.396  0.4670 -1.2018 -0.9139
 4479SOL    HW317649   2.489   1.758   1.259 -1.6934  1.0788 -0.0557
 4479SOL    MW417650   2.485   1.764   1.346  0.1258  0.1644  0.3586
 4480SOL     OW17651   5.179   3.435   4.632 -0.2971 -0.1585 -0.1156
 4480SOL    HW217652   5.117   3.367   4.604 -0.9677  0.5616 -0.3990
 4480SOL    HW317653   5.137   3.517   4.608  0.1388  0.3961  0.9673
 4480SOL    MW417654   5.165   3.437   4.625 -0.0216 -0.0528 -0.3531
 4481SOL     OW17655   5.885   5.848   2.795 -0.6331 -0.3410 -0.5732
 4481SOL    HW217656   5.811   5.852   2.856  0.4715  2.4400  0.7334
 4481SOL    HW317657   5.918   5.758   2.805 -1.4929 -0.4861  1.7507
 4481SOL    MW417658   5.879   5.836   2.805 -0.4667 -0.0092 -0.1373
 4482SOL     OW17659   4.076   5.677   1.100 -0.0506  0.1706  0.3709
 4482SOL    HW217660   4.144   5.718   1.154  0.4714  0.8260 -0.7661
 4482SOL    HW317661   3.994   5.700   1.144  0.4334 -1.9082  2.6621
 4482SOL    MW417662   4.074   5.685   1.113  0.5123 -0.7170 -0.2049
 4483SOL     OW17663   1.139   2.217   6.212 -0.3083  0.6924  0.3029
 4483SOL    HW217664   1.074   2.236   6.280  0.1791  2.4344  0.3188
 4483SOL    HW317665   1.167   2.127   6.231 -3.2166 -0.4350 -0.1688
 4483SOL    MW417666   1.134   2.208   6.223  0.5029 -0.0922 -0.3784
 4484SOL     OW17667   3.564   2.987   2.314  0.3567 -0.2104  0.4834
 4484SOL    HW217668   3.477   2.980   2.275  0.1467  0.8011  0.7442
 4484SOL    HW317669   3.624   2.982   2.239  0.1510 -1.8601  0.3846
 4484SOL    MW417670   3.561   2.985   2.299 -0.0704  0.3120  0.0025
 4485SOL     OW17671   0.872   3.612   1.522  0.0842 -0.6497 -0.1441
 4485SOL    HW217672   0.784   3.608   1.559  0.0666  0.6114 -0.0015
 4485SOL    HW317673   0.861   3.656   1.437  0.5982 -0.2244 -0.0001
 4485SOL    MW417674   0.859   3.617   1.516 -0.1884  0.4146  0.0041
 4486SOL     OW17675   6.129   5.910   2.957  0.0281 -0.2504  0.2723
 4486SOL    HW217676   6.044   5.886   2.921  0.2357  0.1917 -0.5401
 4486SOL    HW317677   6.126   5.880   3.048 -0.8603 -0.5478  0.1545
 4486SOL    MW417678   6.117   5.903   2.965  0.6905  0.6776  0.2621
 4487SOL     OW17679   3.169   1.032   2.690  0.3528  0.1287  0.6059
 4487SOL    HW217680   3.171   0.949   2.642  0.0968 -0.9242  2.3356
 4487SOL    HW317681   3.254   1.073   2.670  0.0428  0.0264 -1.1509
 4487SOL    MW417682   3.181   1.026   2.681  0.1983  0.2420  0.3585
 4488SOL     OW17683   2.546   2.364   1.446  0.5450 -0.4257 -0.5075
 4488SOL    HW217684   2.522   2.413   1.367 -0.4545  0.4098  0.2840
 4488SOL    HW317685   2.461   2.339   1.484  0.8756  1.9297  1.9917
 4488SOL    MW417686   2.531   2.367   1.440 -0.8036  0.4280  0.0264
 4489SOL     OW17687   5.833   4.409   0.394 -0.1848 -0.2695  0.4488
 4489SOL    HW217688   5.911   4.407   0.450  0.0151 -1.5564  0.1760
 4489SOL    HW317689   5.805   4.317   0.390  0.0868 -0.3135 -1.9338
 4489SOL    MW417690   5.840   4.396   0.401  0.5101  0.1444  0.5794
 4490SOL     OW17691   3.227   2.251   4.388 -0.5074  0.2261  0.7459
 4490SOL    HW217692   3.274   2.305   4.452 -1.2382  0.3384  1.2079
 4490SOL    HW317693   3.291   2.232   4.320  1.1919 -2.2414  2.8299
 4490SOL    MW417694   3.241   2.256   4.388  0.2384 -0.4564 -0.1713
 4491SOL     OW17695   0.634   3.736   2.684 -0.3854 -0.1906  0.2845
 4491SOL    HW217696   0.599   3.648   2.697 -2.1154  0.8667  4.4514
 4491SOL    HW317697   0.715   3.738   2.734 -0.6159  0.7176  0.6445
 4491SOL    MW417698   0.640   3.725   2.692  0.0190  0.2876 -0.8137
 4492SOL     OW17699   5.835   2.965   2.981 -0.6666  0.3065  0.6523
 4492SOL    HW217700   5.749   2.992   3.013 -1.0590 -0.0678 -0.0597
 4492SOL    HW317701   5.841   3.003   2.893  0.3811  1.3025  1.1297
 4492SOL    MW417702   5.824   2.974   2.973  0.2552 -0.2649 -0.0769
 4493SOL     OW17703   5.518   1.267   2.895  0.2786  0.2519 -0.0240
 4493SOL    HW217704   5.445   1.207   2.914  1.4161 -0.9389  0.7835
 4493SOL    HW317705   5.596   1.212   2.902  1.2401  1.3814 -1.3946
 4493SOL    MW417706   5.519   1.252   2.899 -0.4588 -0.1608 -0.7862
 4494SOL     OW17707   6.159   4.698   0.809 -0.5204  0.0431 -0.5428
 4494SOL    HW217708   6.116   4.781   0.834  0.6454  0.5288 -0.0780
 4494SOL    HW317709   6.169   4.651   0.891  1.6250  0.8263 -0.2796
 4494SOL    MW417710   6.155   4.703   0.823 -0.3778 -0.6609  0.0302
 4495SOL     OW17711   5.948   2.146   4.123 -0.3398 -0.1976 -0.1196
 4495SOL    HW217712   5.937   2.239   4.105  1.3214  0.1827  0.6088
 4495SOL    HW317713   6.031   2.140   4.170  0.3599 -2.2150 -1.4640
 4495SOL    MW417714   5.958   2.157   4.127 -0.0545 -0.5076 -0.0539
 4496SOL     OW17715   1.217   0.091   1.188  0.0596 -0.2025  0.4083
 4496SOL    HW217716   1.132   0.095   1.145  0.5220 -0.5912 -0.5725
 4496SOL    HW317717   1.273   0.150   1.137  0.1313  0.8627  1.6658
 4496SOL    MW417718   1.213   0.099   1.175  0.0416 -0.5614 -0.1658
 4497SOL     OW17719   1.182   5.071   3.228 -0.4168 -0.1179 -0.0299
 4497SOL    HW217720   1.189   4.985   3.187 -0.4404 -0.3544  0.4482
 4497SOL    HW317721   1.251   5.072   3.295 -0.8572 -0.0285  0.4274
 4497SOL    MW417722   1.192   5.060   3.232 -0.2673 -0.0500 -0.0215
 4498SOL     OW17723   4.147   1.104   2.488  0.5498 -0.1833  0.0863
 4498SOL    HW217724   4.134   1.198   2.502  1.0629 -0.2983  1.4748
 4498SOL    HW317725   4.142   1.093   2.393  0.8233  1.2976 -0.1251
 4498SOL    MW417726   4.145   1.115   2.477  0.0950  0.2693  0.0575
 4499SOL     OW17727   0.609   0.256   2.010  0.3053 -0.1157 -0.2433
 4499SOL    HW217728   0.661   0.292   2.081 -0.2767  1.2976 -0.5016
 4499SOL    HW317729   0.569   0.177   2.046 -0.2047  0.7286  1.1011
 4499SOL    MW417730   0.610   0.250   2.024 -0.1110 -0.3550  0.5297
 4500SOL     OW17731   6.046   1.967   0.966  0.4638  0.6461  0.5169
 4500SOL    HW217732   6.028   2.061   0.972 -0.1390  0.7405 -1.8982
 4500SOL    HW317733   6.020   1.943   0.877  2.0611 -1.4974  0.5479
 4500SOL    MW417734   6.040   1.977   0.955 -0.0429  0.1253 -0.4152
 4501SOL     OW17735   1.256   3.383   3.060 -0.0679  0.0178 -0.4803
 4501SOL    HW217736   1.266   3.346   2.972 -1.2065  0.5252 -0.8454
 4501SOL    HW317737   1.319   3.335   3.114  2.0629  1.0095 -1.9468
 4501SOL    MW417738   1.266   3.372   3.056  0.5376  0.5300  0.0289
 4502SOL     OW17739   4.220   3.517   4.844  0.1101  0.3040 -0.6628
 4502SOL    HW217740   4.283   3.589   4.838 -0.7575  1.0563 -1.0002
 4502SOL    HW317741   4.264   3.443   4.803  0.2101  1.2289 -2.3316
 4502SOL    MW417742   4.234   3.517   4.838 -1.3520 -0.3023  0.4512
 4503SOL     OW17743   4.169   2.707   6.264 -0.0868  0.1071 -0.4077
 4503SOL    HW217744   4.120   2.737   6.187 -0.7479  0.8260  0.2728
 4503SOL    HW317745   4.260   2.702   6.234 -0.4378 -0.3778 -1.4401
 4503SOL    MW417746   4.175   2.710   6.250  0.5108  0.1267  0.2151
 4504SOL     OW17747   1.324   3.442   4.063 -0.1646  0.3547  0.0988
 4504SOL    HW217748   1.383   3.500   4.112  0.8268 -0.3207 -0.2532
 4504SOL    HW317749   1.371   3.425   3.981 -0.5975 -0.6471  0.0467
 4504SOL    MW417750   1.338   3.447   4.058 -0.2750 -0.0184  0.0306
 4505SOL     OW17751   4.526   0.217   1.962  0.6451 -0.4150 -0.4353
 4505SOL    HW217752   4.505   0.126   1.942  1.3837 -0.8926  0.8025
 4505SOL    HW317753   4.442   0.258   1.982  0.3153 -0.8417 -0.9319
 4505SOL    MW417754   4.512   0.210   1.962  0.3047 -0.2390  0.4312
 4506SOL     OW17755   6.094   3.202   2.782 -0.1054  0.8359 -0.1875
 4506SOL    HW217756   6.058   3.258   2.851  0.2956  1.1381 -0.2210
 4506SOL    HW317757   6.187   3.226   2.777 -0.1847  1.0067 -1.0139
 4506SOL    MW417758   6.101   3.213   2.791  0.0698  0.1898  0.1709
 4507SOL     OW17759   1.492   0.743   6.328 -0.0732  0.1381  0.0445
 4507SOL    HW217760   1.518   0.651   6.320  1.5536  0.5693  0.0985
 4507SOL    HW317761   1.397   0.739   6.342 -0.6731 -1.3750 -3.3535
 4507SOL    MW417762   1.483   0.730   6.329  0.0879  0.0388 -0.0730
 4508SOL     OW17763   2.785   3.983   4.974 -0.3336 -0.1943 -0.4272
 4508SOL    HW217764   2.731   3.972   5.053  0.1180 -0.3342 -0.1324
 4508SOL    HW317765   2.739   4.048   4.922 -1.2540 -0.9416 -0.5892
 4508SOL    MW417766   2.772   3.990   4.978 -0.2783 -0.3021  0.3938
 4509SOL     OW17767   2.228   5.044   3.835  0.5658 -0.0191  0.0275
 4509SOL    HW217768   2.138   5.033   3.805  0.7143  1.9738 -1.3059
 4509SOL    HW317769   2.264   4.955   3.837 -0.8705 -0.6654 -1.2184
 4509SOL    MW417770   2.221   5.031   3.832  0.3975  0.4809  0.2479
 4510SOL     OW17771   1.311   4.896   1.164  0.0459 -0.3585  0.1675
 4510SOL    HW217772   1.355   4.812   1.153  1.3295  0.3421 -0.3799
 4510SOL    HW317773   1.373   4.960   1.127 -0.3079  0.9668  1.7464
 4510SOL    MW417774   1.325   4.893   1.158 -0.6860  0.5845 -0.1036
 4511SOL     OW17775   1.864   0.370   5.977 -0.3757  0.3739  0.1213
 4511SOL    HW217776   1.862   0.357   5.882  0.2653 -0.6750  0.2379
 4511SOL    HW317777   1.957   0.379   5.998 -0.6078  3.7971  0.2821
 4511SOL    MW417778   1.876   0.369   5.967  0.4134 -0.0094 -0.2049
 4512SOL     OW17779   0.167  -0.001   5.258 -0.0859  0.1452  0.4303
 4512SOL    HW217780   0.218  -0.049   5.192 -1.2375 -0.1771 -0.2462
 4512SOL    HW317781   0.214   0.082   5.269  0.0073  0.2981 -0.9629
 4512SOL    MW417782   0.180   0.003   5.251  0.5204  0.0367 -0.0297
 4513SOL     OW17783   2.457   4.011   2.005  0.0411  0.4705 -0.3571
 4513SOL    HW217784   2.533   3.981   2.054  1.2242  2.8439 -0.5660
 4513SOL    HW317785   2.397   4.043   2.072  0.0520  0.3277 -0.2792
 4513SOL    MW417786   2.459   4.012   2.020  0.1809 -0.3102  0.1086
 4514SOL     OW17787   1.554   5.319   2.826 -0.7498 -0.4345 -0.1407
 4514SOL    HW217788   1.560   5.371   2.746 -2.2779  0.0543  0.0234
 4514SOL    HW317789   1.488   5.364   2.878  0.0973 -0.8448  1.3385
 4514SOL    MW417790   1.546   5.332   2.822 -0.1075 -0.2718 -0.5081
 4515SOL     OW17791   2.837   2.721   4.437 -0.1919 -0.7073  0.2485
 4515SOL    HW217792   2.848   2.694   4.346  2.1315  0.2674  0.1695
 4515SOL    HW317793   2.918   2.694   4.480  0.1406  1.6539  1.2633
 4515SOL    MW417794   2.849   2.714   4.431 -0.2630 -0.5777  0.2310
 4516SOL     OW17795   2.620   0.592   5.765  0.1908  0.2796 -0.2242
 4516SOL    HW217796   2.694   0.532   5.758 -0.4344 -0.3908 -1.2776
 4516SOL    HW317797   2.661   0.678   5.779  1.1475 -0.1294 -0.3988
 4516SOL    MW417798   2.635   0.595   5.766  0.7101 -0.0604 -0.3033
 4517SOL     OW17799   2.566   2.944   5.465  0.0908  0.4840 -0.1983
 4517SOL    HW217800   2.477   2.916   5.446  0.6907 -1.0100 -1.0138
 4517SOL    HW317801   2.595   2.987   5.384  0.1227  1.0014  0.0783
 4517SOL    MW417802   2.558   2.946   5.452  0.8484 -0.5694 -0.0159
 4518SOL     OW17803   0.670   5.824   0.480  0.2167  0.0149 -0.3127
 4518SOL    HW217804   0.646   5.734   0.455  2.4382 -1.0389  1.0204
 4518SOL    HW317805   0.587   5.869   0.490 -1.0564 -2.3678  0.5757
 4518SOL    MW417806   0.656   5.818   0.478  0.1837 -0.0524  0.0116
 4519SOL     OW17807   4.121   0.757   5.343 -0.4020 -0.4150  0.8363
 4519SOL    HW217808   4.143   0.823   5.278 -0.9963 -1.1206 -0.1108
 4519SOL    HW317809   4.195   0.757   5.403 -1.1053  2.2634  1.8597
 4519SOL    MW417810   4.134   0.765   5.342  0.5819 -0.0631  0.5429
 4520SOL     OW17811   5.600   3.205   4.923  0.6409 -0.0784  0.8439
 4520SOL    HW217812   5.529   3.141   4.915 -0.0621  0.8673 -1.1721
 4520SOL    HW317813   5.677   3.161   4.888  0.2545  0.0177 -0.1473
 4520SOL    MW417814   5.601   3.191   4.917 -0.1104  0.6700  0.5962
 4521SOL     OW17815   5.966   1.866   0.725  0.4525 -0.0874 -0.3604
 4521SOL    HW217816   5.879   1.828   0.733  0.6109 -0.2048  1.1133
 4521SOL    HW317817   6.022   1.792   0.701  0.2989 -0.2074 -0.3495
 4521SOL    MW417818   5.962   1.851   0.723 -0.3296 -0.3921  0.3300
 4522SOL     OW17819   0.059   3.425   3.746 -0.6362 -0.2514  0.1220
 4522SOL    HW217820   0.148   3.459   3.755  0.0921 -2.2502  0.7728
 4522SOL    HW317821   0.006   3.503   3.727  1.2300  0.9724 -0.3192
 4522SOL    MW417822   0.063   3.440   3.745  0.4822  0.2408  0.4766
 4523SOL     OW17823   5.221   3.531   3.165 -0.1921  0.0151 -0.3731
 4523SOL    HW217824   5.288   3.464   3.151 -0.4963 -0.6394  1.1149
 4523SOL    HW317825   5.138   3.482   3.165 -0.3864  0.3145  1.1151
 4523SOL    MW417826   5.219   3.516   3.163 -0.3452  0.4348  0.5082
 4524SOL     OW17827   2.322   2.965   2.039  0.1649 -0.1873 -0.0237
 4524SOL    HW217828   2.327   3.041   2.097  2.7164  0.4274 -0.9232
 4524SOL    HW317829   2.274   2.997   1.962  0.5061  0.2699 -0.0502
 4524SOL    MW417830   2.316   2.979   2.037  0.5679 -0.0298 -0.3231
 4525SOL     OW17831   3.243   1.794   0.644 -0.0165 -0.5638 -0.5898
 4525SOL    HW217832   3.325   1.832   0.615 -0.5937  1.2966  0.0998
 4525SOL    HW317833   3.213   1.743   0.568  1.3332 -0.5738 -1.1447
 4525SOL    MW417834   3.250   1.792   0.630 -0.1274  0.5430 -0.3016
 4526SOL     OW17835   3.189   5.381   2.059  0.8239  0.2330 -0.2917
 4526SOL    HW217836   3.149   5.462   2.027  1.6910  0.6404 -0.3876
 4526SOL    HW317837   3.246   5.353   1.987  1.2806  0.0780  0.1272
 4526SOL    MW417838   3.191   5.388   2.045  0.5066 -0.7822 -0.2298
 4527SOL     OW17839   0.261   4.212   2.516  0.3979  0.3760  0.1977
 4527SOL    HW217840   0.175   4.255   2.519 -0.2372 -0.8888  0.4596
 4527SOL    HW317841   0.244   4.126   2.477  0.9516 -1.2103  3.1873
 4527SOL    MW417842   0.247   4.207   2.511  0.6028  0.2175 -0.2526
 4528SOL     OW17843   4.712   1.034   5.627 -0.7259 -0.1142  0.0864
 4528SOL    HW217844   4.743   1.084   5.702  1.2336 -0.8444 -0.1614
 4528SOL    HW317845   4.662   1.097   5.575 -1.0299  0.7282  1.3602
 4528SOL    MW417846   4.710   1.049   5.630  0.1014 -0.1431 -0.5169
 4529SOL     OW17847   1.865   2.743   4.836 -0.8041 -0.2881 -0.3338
 4529SOL    HW217848   1.895   2.817   4.889  0.6492  0.0095 -1.4971
 4529SOL    HW317849   1.942   2.716   4.786 -1.2155 -2.8068  0.2599
 4529SOL    MW417850   1.879   2.749   4.836 -0.3098  0.6294 -0.3605
 4530SOL     OW17851   4.265   6.067   3.572  0.1913 -0.0498 -0.0966
 4530SOL    HW217852   4.281   6.159   3.591 -1.5678  0.5976 -1.4363
 4530SOL    HW317853   4.306   6.019   3.644  0.9197  1.7774  0.7520
 4530SOL    MW417854   4.272   6.072   3.584 -0.1809 -0.3991  0.3803
 4531SOL     OW17855   2.246   0.367   5.446 -0.2928 -0.2143 -0.3277
 4531SOL    HW217856   2.194   0.319   5.381  0.3178 -1.1688 -0.1218
 4531SOL    HW317857   2.232   0.319   5.528 -0.0313  0.2303 -0.0192
 4531SOL    MW417858   2.237   0.355   5.448  0.0535  0.5525  0.3472
 4532SOL     OW17859   4.304   4.484   1.695 -0.0340  1.1477 -0.0158
 4532SOL    HW217860   4.263   4.520   1.617 -0.6680  2.0556  0.7019
 4532SOL    HW317861   4.315   4.560   1.753 -0.2193  0.3891  1.0458
 4532SOL    MW417862   4.300   4.499   1.693  0.3035 -0.1638 -0.0070
 4533SOL     OW17863   1.198   3.125   5.066 -0.0239 -0.0939 -0.3321
 4533SOL    HW217864   1.187   3.074   4.986  2.3424 -0.8983 -0.2229
 4533SOL    HW317865   1.289   3.154   5.064 -0.4219  1.4538  1.1948
 4533SOL    MW417866   1.209   3.122   5.055  0.4086  0.1674  0.0198
 4534SOL     OW17867   3.256   2.199   5.508 -0.5465 -0.3672 -0.0309
 4534SOL    HW217868   3.198   2.166   5.577 -0.6192 -1.0242 -0.4001
 4534SOL    HW317869   3.211   2.177   5.426 -1.6944  2.5974 -0.3110
 4534SOL    MW417870   3.242   2.192   5.506 -0.3021  0.3431 -0.4543
 4535SOL     OW17871   0.543   0.844   4.127 -0.5228  0.1065 -0.3714
 4535SOL    HW217872   0.624   0.840   4.178 -1.4156 -1.3594  1.0550
 4535SOL    HW317873   0.566   0.805   4.043  0.4354  0.4512 -0.2845
 4535SOL    MW417874   0.557   0.838   4.122 -0.0560  0.3170  0.1758
 4536SOL     OW17875   2.105   4.708   5.447  0.6355 -0.3370 -0.4564
 4536SOL    HW217876   2.161   4.633   5.428 -0.6894 -2.2076  2.3947
 4536SOL    HW317877   2.105   4.714   5.543 -1.9070  1.2376 -0.4764
 4536SOL    MW417878   2.112   4.699   5.457 -0.4240  0.7496 -0.2198
 4537SOL     OW17879   5.606   5.768   1.053  0.0094 -0.2611 -0.5431
 4537SOL    HW217880   5.583   5.818   0.975  0.0839  2.2192  0.9340
 4537SOL    HW317881   5.525   5.764   1.104  0.9292  2.0067  1.2286
 4537SOL    MW417882   5.593   5.774   1.049  0.4678 -0.2638  0.2181
 4538SOL     OW17883   5.093   3.661   0.539  0.2747  0.3149 -0.1441
 4538SOL    HW217884   5.005   3.698   0.530 -0.5207 -0.8784  1.9863
 4538SOL    HW317885   5.151   3.737   0.545 -0.6793  1.1186 -0.8389
 4538SOL    MW417886   5.089   3.676   0.538 -0.3933 -0.2949  0.1727
 4539SOL     OW17887   0.433   4.127   5.780 -0.4431  0.0290 -0.1645
 4539SOL    HW217888   0.346   4.097   5.754 -0.0079 -0.7393 -0.7792
 4539SOL    HW317889   0.476   4.152   5.698 -0.3496  1.1548  0.2133
 4539SOL    MW417890   0.427   4.126   5.766  0.8088 -0.2613  0.3445
 4540SOL     OW17891   3.568   1.556   3.652  0.1577 -0.0291  0.2808
 4540SOL    HW217892   3.580   1.490   3.721 -0.1688 -0.3926 -0.0010
 4540SOL    HW317893   3.476   1.581   3.659  0.5467  1.2243  1.1049
 4540SOL    MW417894   3.557   1.551   3.662 -0.1119  0.8694 -0.1078
 4541SOL     OW17895   2.031   1.039   0.616 -0.0938 -0.2339 -0.4464
 4541SOL    HW217896   2.079   1.119   0.639 -1.8992  0.4076  1.3648
 4541SOL    HW317897   1.945   1.050   0.655 -1.2131 -2.0742 -2.1588
 4541SOL    MW417898   2.026   1.051   0.624  0.1654  0.1945  0.0031
 4542SOL     OW17899   4.304   4.452   2.203 -0.0000 -0.2792 -0.0436
 4542SOL    HW217900   4.378   4.511   2.212 -0.2498 -0.0046  0.2310
 4542SOL    HW317901   4.336   4.381   2.146  0.2131  0.2617 -0.6068
 4542SOL    MW417902   4.318   4.450   2.196  0.0303  0.2100  0.0951
 4543SOL     OW17903   0.367   3.227   5.790 -0.1196 -0.4104 -0.6508
 4543SOL    HW217904   0.385   3.303   5.845  0.4798 -0.5442 -0.6527
 4543SOL    HW317905   0.294   3.183   5.832  0.6440 -0.7822  0.3187
 4543SOL    MW417906   0.360   3.231   5.803 -0.0886 -0.2154  0.4219
 4544SOL     OW17907   4.237   2.841   3.851  0.3329  0.1148  0.2615
 4544SOL    HW217908   4.279   2.762   3.815 -0.2205 -0.3801  0.7011
 4544SOL    HW317909   4.230   2.900   3.775 -1.2706 -1.1057 -0.5859
 4544SOL    MW417910   4.242   2.838   3.836  0.4058 -0.3888  0.7165
 4545SOL     OW17911   0.654   2.540   0.314 -0.0217  0.7778 -0.2288
 4545SOL    HW217912   0.574   2.561   0.266 -0.3415  0.0135 -0.0343
 4545SOL    HW317913   0.660   2.445   0.311 -0.4311  0.6526  1.8604
 4545SOL    MW417914   0.644   2.531   0.307  0.2743  0.4929 -0.7637
 4546SOL     OW17915   1.560   2.843   2.907 -0.2857  0.6764  0.5730
 4546SOL    HW217916   1.478   2.857   2.860 -0.7542  0.5988  1.3591
 4546SOL    HW317917   1.606   2.926   2.901  1.0882 -0.1498 -2.6867
 4546SOL    MW417918   1.555   2.856   2.900 -0.4142 -0.4150 -0.0979
 4547SOL     OW17919   6.326   1.309   3.756 -0.3279  0.2304  0.1524
 4547SOL    HW217920   6.408   1.265   3.735  0.1150  1.5877 -1.2242
 4547SOL    HW317921   6.308   1.363   3.679 -1.0165  2.1411  1.5617
 4547SOL    MW417922   6.334   1.311   3.743  0.0654  0.5581 -0.2870
 4548SOL     OW17923   0.091   0.245   2.752 -0.0347 -0.6784 -0.3247
 4548SOL    HW217924   0.000   0.221   2.769 -0.7044  1.6043 -0.3894
 4548SOL    HW317925   0.089   0.340   2.741  2.0895 -0.7654 -2.0839
 4548SOL    MW417926   0.079   0.254   2.752 -0.1327 -0.5926 -0.1283
 4549SOL     OW17927   1.239   1.592   5.469 -0.2340 -0.2003 -0.0107
 4549SOL    HW217928   1.328   1.613   5.440  0.2310  3.3845  3.2024
 4549SOL    HW317929   1.185   1.609   5.393  1.6110  0.2291 -1.3035
 4549SOL    MW417930   1.244   1.597   5.455 -0.1551  0.3080  0.0020
 4550SOL     OW17931   3.377   0.449   4.409 -0.0808 -0.3126 -0.7060
 4550SOL    HW217932   3.285   0.448   4.381 -0.1269 -1.2045 -0.5791
 4550SOL    HW317933   3.426   0.446   4.327 -0.1886 -0.8872 -0.7568
 4550SOL    MW417934   3.371   0.448   4.394  0.2485 -0.2773  0.2275
 4551SOL     OW17935   2.516   0.237   0.310  0.0084  0.1057  0.0383
 4551SOL    HW217936   2.544   0.325   0.332 -0.8900  0.1949  0.9330
 4551SOL    HW317937   2.455   0.213   0.381 -0.9556 -0.6389 -1.0051
 4551SOL    MW417938   2.512   0.245   0.322 -0.3261 -0.1892 -0.6474
 4552SOL     OW17939   6.249   0.402   0.891 -0.1447 -0.7378  0.0847
 4552SOL    HW217940   6.227   0.408   0.984  3.1765 -0.4154  0.9747
 4552SOL    HW317941   6.235   0.490   0.857 -0.1409 -0.5271  0.6112
 4552SOL    MW417942   6.244   0.414   0.899  0.2119  0.0267 -0.1607
 4553SOL     OW17943   1.590   3.962   5.241 -0.3752 -0.0135  0.1532
 4553SOL    HW217944   1.499   3.934   5.242 -0.9315  1.6924  0.8682
 4553SOL    HW317945   1.605   3.999   5.328  0.1527  2.1946 -0.7951
 4553SOL    MW417946   1.580   3.963   5.253  0.0620 -0.1326  0.5672
 4554SOL     OW17947   0.703   1.070   1.824  0.0584 -0.1091  0.2898
 4554SOL    HW217948   0.762   1.049   1.897 -1.6483 -0.1789  1.7361
 4554SOL    HW317949   0.624   1.103   1.867 -1.5336 -1.4327 -1.4946
 4554SOL    MW417950   0.701   1.072   1.840  0.1104 -0.2344  0.9806
 4555SOL     OW17951   0.272   2.282   0.913 -0.2953  0.6683  0.2696
 4555SOL    HW217952   0.271   2.239   0.828  1.5658  1.7977 -0.3871
 4555SOL    HW317953   0.261   2.375   0.893  1.4658  1.1003  1.0890
 4555SOL    MW417954   0.270   2.289   0.899 -0.1802 -0.6249 -0.2552
 4556SOL     OW17955   3.316   2.810   6.064 -0.1323  0.2155 -0.7776
 4556SOL    HW217956   3.368   2.789   6.141 -1.9765  0.2434  0.5620
 4556SOL    HW317957   3.286   2.900   6.079  0.3759  0.6260 -2.0892
 4556SOL    MW417958   3.319   2.819   6.076 -0.4348  0.7663 -0.1613
 4557SOL     OW17959   2.980   1.191   4.174 -0.2606 -0.0556  0.4195
 4557SOL    HW217960   2.927   1.138   4.114 -0.6662  1.4502 -0.6246
 4557SOL    HW317961   2.919   1.222   4.240 -0.0821 -0.6239  0.8612
 4557SOL    MW417962   2.965   1.188   4.175  0.0386  0.1026 -0.5263
 4558SOL     OW17963   5.479   4.015   3.803  0.2342  0.2179 -0.7504
 4558SOL    HW217964   5.435   3.944   3.849 -1.4505  2.1712  0.8280
 4558SOL    HW317965   5.566   4.019   3.842 -0.5965  0.7454  1.1601
 4558SOL    MW417966   5.484   4.006   3.814  1.1711  0.5862 -0.0719
 4559SOL     OW17967   5.638   1.624   1.061  0.4541  0.2432 -0.2736
 4559SOL    HW217968   5.631   1.643   1.155  0.8042 -1.8485  0.2203
 4559SOL    HW317969   5.550   1.600   1.034 -0.0223  2.4542 -0.9375
 4559SOL    MW417970   5.626   1.623   1.070 -0.6533 -0.1680  0.4913
 4560SOL     OW17971   5.720   1.109   0.864  0.1138  0.4571 -0.0767
 4560SOL    HW217972   5.775   1.059   0.803  0.7903 -0.2944  1.1096
 4560SOL    HW317973   5.749   1.199   0.854  0.7315  0.2370 -0.3183
 4560SOL    MW417974   5.731   1.114   0.854  0.0851  0.1216 -0.2009
 4561SOL     OW17975   1.082   2.119   5.423 -0.2198  0.3626  0.1088
 4561SOL    HW217976   1.093   2.186   5.490  0.0472  0.9021 -0.4685
 4561SOL    HW317977   1.004   2.070   5.451  0.1895  0.2430  1.0843
 4561SOL    MW417978   1.073   2.121   5.436  0.0714 -0.1979 -0.7210
 4562SOL     OW17979   0.010   3.387   4.173  0.6217 -0.4231  0.6572
 4562SOL    HW217980  -0.038   3.357   4.096 -2.6975  2.6559  1.2342
 4562SOL    HW317981  -0.033   3.345   4.247 -1.2011  2.1201  1.1664
 4562SOL    MW417982  -0.002   3.378   4.173  0.6662  0.0387 -0.0831
 4563SOL     OW17983   2.587   5.351   3.121  0.7387 -0.2413  0.3980
 4563SOL    HW217984   2.537   5.373   3.042  1.2403  0.0262  0.1475
 4563SOL    HW317985   2.655   5.418   3.126 -0.0476  0.5111  1.7696
 4563SOL    MW417986   2.589   5.362   3.111  0.8015  0.6320 -0.2481
 4564SOL     OW17987   2.450   0.755   4.148 -0.3121  0.2921 -0.2376
 4564SOL    HW217988   2.430   0.848   4.156 -0.9457  0.0265  1.7611
 4564SOL    HW317989   2.442   0.720   4.237  1.0590 -1.4559 -0.7235
 4564SOL    MW417990   2.446   0.762   4.161  0.0920 -0.1053 -0.1792
 4565SOL     OW17991   1.163   5.056   6.025 -0.2584 -0.5121 -0.0694
 4565SOL    HW217992   1.130   5.066   6.114  0.7624  0.4060  0.2289
 4565SOL    HW317993   1.254   5.087   6.030 -1.0090  2.3340 -2.0296
 4565SOL    MW417994   1.171   5.061   6.038 -0.9521 -0.4012  0.3987
 4566SOL     OW17995   3.787   6.340   3.125  0.0910 -0.3206 -0.7266
 4566SOL    HW217996   3.858   6.287   3.090  0.8697  0.8508 -0.9768
 4566SOL    HW317997   3.708   6.288   3.109  0.9337 -1.8983  0.0890
 4566SOL    MW417998   3.786   6.327   3.118 -0.3521  0.3718  0.2848
 4567SOL     OW17999   4.342   2.127   5.758  0.3134  0.1103  0.1706
 4567SOL    HW218000   4.425   2.152   5.800 -0.4563 -0.3839  2.0824
 4567SOL    HW318001   4.364   2.047   5.710  1.5594  1.4828 -1.6912
 4567SOL    MW418002   4.356   2.120   5.758  0.0969 -0.7115  0.4445
 4568SOL     OW18003   3.970   1.754   1.769  0.8563 -0.5946  0.4646
 4568SOL    HW218004   3.936   1.721   1.852  0.4934 -0.9290  0.1788
 4568SOL    HW318005   3.894   1.788   1.723  0.7578 -2.0946 -0.5320
 4568SOL    MW418006   3.956   1.754   1.774  0.5147 -0.4936 -0.4407
 4569SOL     OW18007   2.270   2.074   4.494 -0.3602 -0.5483  0.0018
 4569SOL    HW218008   2.217   2.020   4.551 -0.2202  1.3164  2.0261
 4569SOL    HW318009   2.360   2.044   4.507 -0.4672 -1.0487 -0.3621
 4569SOL    MW418010   2.275   2.063   4.503  0.1026 -0.3355  0.1284
 4570SOL     OW18011   4.682   0.692   1.440 -0.4407  0.5657 -0.0768
 4570SOL    HW218012   4.749   0.730   1.383 -1.0862  2.5786  0.4401
 4570SOL    HW318013   4.600   0.730   1.410 -0.9342  0.7714  1.4336
 4570SOL    MW418014   4.680   0.702   1.428  0.1339 -0.1516 -0.2693
 4571SOL     OW18015   0.634   3.873   1.658 -0.1121 -0.1045 -0.6603
 4571SOL    HW218016   0.540   3.888   1.664  0.0857  0.8621  0.4482
 4571SOL    HW318017   0.648   3.786   1.696 -0.5093 -0.1184 -0.5486
 4571SOL    MW418018   0.624   3.863   1.664 -0.3680 -0.4014  0.2134
 4572SOL     OW18019   0.515   3.331   0.293 -0.2416 -0.3585  0.2865
 4572SOL    HW218020   0.530   3.424   0.308  1.3012 -0.2309 -1.6570
 4572SOL    HW318021   0.437   3.327   0.237  0.7550 -0.0442 -1.1967
 4572SOL    MW418022   0.506   3.342   0.287 -0.6099 -0.1074  0.7077
 4573SOL     OW18023   3.209   1.929   4.341  0.0842 -0.2634  0.5841
 4573SOL    HW218024   3.208   1.861   4.408  1.0746 -1.1293 -0.2585
 4573SOL    HW318025   3.243   1.886   4.263 -1.0382  0.7220 -0.4929
 4573SOL    MW418026   3.213   1.915   4.340  0.4017  0.1182  0.4293
 4574SOL     OW18027   2.188   1.880   5.381 -0.5618  0.6604 -0.2176
 4574SOL    HW218028   2.134   1.900   5.304 -2.2246 -1.8931  0.1572
 4574SOL    HW318029   2.162   1.946   5.446 -1.8710  0.6275 -0.6816
 4574SOL    MW418030   2.177   1.892   5.380 -0.9226  0.0963 -0.1789
 4575SOL     OW18031   1.357   1.325   0.375 -0.1764  0.3378 -0.4463
 4575SOL    HW218032   1.399   1.364   0.452 -0.2191 -1.5428  0.5800
 4575SOL    HW318033   1.429   1.283   0.328 -0.6193 -1.8450  0.6778
 4575SOL    MW418034   1.372   1.325   0.379 -0.5898  0.0251  0.1269
 4576SOL     OW18035   1.491   0.057   3.928 -0.0538  0.4748 -0.8556
 4576SOL    HW218036   1.503   0.143   3.970  0.0605 -0.2375  0.6349
 4576SOL    HW318037   1.431   0.011   3.986  2.1894 -1.5270  0.0128
 4576SOL    MW418038   1.485   0.062   3.941  0.4290 -0.0630  0.0409
 4577SOL     OW18039   4.372   3.969   2.346  0.1007  0.0053  0.3862
 4577SOL    HW218040   4.294   4.018   2.372  0.2402  0.6589 -0.3954
 4577SOL    HW318041   4.428   3.969   2.424 -0.9488 -1.0462  1.1672
 4577SOL    MW418042   4.369   3.975   2.360  0.1900  0.3837  0.6582
 4578SOL     OW18043   2.001   2.825   2.608  0.1569  0.5805 -0.5110
 4578SOL    HW218044   1.990   2.754   2.672 -1.4760 -0.0200 -1.4128
 4578SOL    HW318045   2.092   2.818   2.581 -0.3023 -2.1603 -1.6541
 4578SOL    MW418046   2.012   2.815   2.613 -0.1376  0.4612 -0.0708
 4579SOL     OW18047   0.487   5.719   3.307  0.0056 -0.0525 -0.1933
 4579SOL    HW218048   0.533   5.783   3.253 -0.7483 -0.6013 -1.5510
 4579SOL    HW318049   0.551   5.692   3.373  1.1771  0.2029 -1.1829
 4579SOL    MW418050   0.501   5.724   3.309 -0.9769  0.2977 -0.4246
 4580SOL     OW18051   0.096   1.439   6.124 -0.4518  0.0906 -0.3636
 4580SOL    HW218052   0.191   1.432   6.135 -0.2916  1.2958 -0.8079
 4580SOL    HW318053   0.076   1.378   6.053  0.0268 -0.0339 -0.3938
 4580SOL    MW418054   0.106   1.430   6.116  0.0025 -0.3758  0.1263
 4581SOL     OW18055   2.664   2.528   6.106 -0.3838  0.4596 -0.3884
 4581SOL    HW218056   2.657   2.623   6.101 -1.7802  0.4135  0.2518
 4581SOL    HW318057   2.758   2.510   6.094 -0.0399  1.9339 -0.1006
 4581SOL    MW418058   2.676   2.538   6.104 -0.0198 -0.3005  0.0127
 4582SOL     OW18059   2.295   1.215   2.344 -0.1235 -0.4395  0.1452
 4582SOL    HW218060   2.343   1.133   2.350 -1.0248 -0.9324  0.9944
 4582SOL    HW318061   2.237   1.214   2.420 -1.1232  0.3484 -0.5757
 4582SOL    MW418062   2.294   1.204   2.355 -0.6012 -0.2129  0.0063
 4583SOL     OW18063   3.719   6.373   3.667 -0.3456 -0.0454 -0.0526
 4583SOL    HW218064   3.714   6.460   3.628 -2.1974  0.2701  0.7515
 4583SOL    HW318065   3.780   6.325   3.612  0.0096  1.4893 -1.0569
 4583SOL    MW418066   3.726   6.378   3.655  0.6564 -0.1528 -0.2046
 4584SOL     OW18067   6.399   2.478   5.154  0.1425  0.1106  0.3731
 4584SOL    HW218068   6.421   2.567   5.124 -0.8330 -0.1431 -1.2135
 4584SOL    HW318069   6.399   2.425   5.074 -1.0427 -0.9462  1.0446
 4584SOL    MW418070   6.402   2.483   5.139  0.7556 -0.3637 -0.1846
 4585SOL     OW18071   4.275   4.741   3.508 -0.9622  0.0841 -0.6709
 4585SOL    HW218072   4.215   4.709   3.441 -1.5161  0.3412 -0.3026
 4585SOL    HW318073   4.236   4.822   3.539 -0.3500  0.3325 -0.5240
 4585SOL    MW418074   4.262   4.747   3.503  0.3021 -0.0471 -0.3116
 4586SOL     OW18075   3.468   4.239   3.101  0.2075 -0.4393 -0.3470
 4586SOL    HW218076   3.433   4.256   3.014 -0.8204 -0.0124  0.1246
 4586SOL    HW318077   3.395   4.259   3.160  0.6731 -1.3508  0.5701
 4586SOL    MW418078   3.454   4.244   3.097 -0.3787 -0.1489 -0.6559
 4587SOL     OW18079   4.888   6.408   2.875 -0.4258  0.2057 -0.0532
 4587SOL    HW218080   4.895   6.498   2.908  0.1576 -0.5614  2.0787
 4587SOL    HW318081   4.976   6.372   2.887 -0.9980 -1.0619  0.3849
 4587SOL    MW418082   4.901   6.415   2.881  0.1144 -0.1399  0.3767
 4588SOL     OW18083   4.081   4.660   3.315  0.2489  0.0006  0.0305
 4588SOL    HW218084   4.008   4.601   3.335 -0.1582  0.7556  0.8445
 4588SOL    HW318085   4.040   4.732   3.268  0.8573 -0.6773 -1.6258
 4588SOL    MW418086   4.066   4.661   3.312  0.3007  0.0561  0.3263
 4589SOL     OW18087   1.177   5.906   4.294 -0.4306  0.0988  0.1676
 4589SOL    HW218088   1.221   5.827   4.261  0.4274  0.7534 -0.2907
 4589SOL    HW318089   1.213   5.918   4.382  2.0526  1.8440 -0.9646
 4589SOL    MW418090   1.188   5.897   4.301  0.0418  0.3670 -0.9080
 4590SOL     OW18091   5.768   3.633   1.910 -0.1879  0.5588 -0.1976
 4590SOL    HW218092   5.782   3.627   2.005 -1.8694  4.0685  0.4581
 4590SOL    HW318093   5.709   3.560   1.890  0.6947 -0.6320  1.3043
 4590SOL    MW418094   5.762   3.623   1.920 -0.0293  0.0573 -0.1212
 4591SOL     OW18095   5.045   3.568   1.022 -0.3811  0.5807 -0.1652
 4591SOL    HW218096   5.033   3.651   1.069  1.1086  0.6513  0.1498
 4591SOL    HW318097   5.005   3.583   0.936 -2.7701  0.5931  0.8592
 4591SOL    MW418098   5.038   3.581   1.017 -0.0198 -0.0092 -0.5622
 4592SOL     OW18099   3.739   3.035   2.105 -0.1506  0.3040  0.0477
 4592SOL    HW218100   3.711   3.122   2.075 -0.2121 -0.2733 -1.6858
 4592SOL    HW318101   3.752   2.985   2.024  1.9901 -0.6688  0.9070
 4592SOL    MW418102   3.737   3.040   2.090  1.0092  0.4610  0.0061
 4593SOL     OW18103   3.602   0.392   2.206 -0.3644  0.0212 -0.3456
 4593SOL    HW218104   3.612   0.487   2.202 -0.7311  0.1453  1.0713
 4593SOL    HW318105   3.512   0.376   2.177 -1.0328  0.3294  1.4548
 4593SOL    MW418106   3.592   0.402   2.202 -0.0325 -0.1343  0.7209
 4594SOL     OW18107   1.856   1.381   3.428 -0.1227 -0.1264 -0.0862
 4594SOL    HW218108   1.903   1.323   3.367 -1.3320 -0.0168 -1.1742
 4594SOL    HW318109   1.874   1.469   3.395  0.3615  0.0324  0.5803
 4594SOL    MW418110   1.865   1.385   3.416  0.6707  0.2816 -0.6928
 4595SOL     OW18111   0.987   0.613   3.106 -0.3733  0.3612  0.2911
 4595SOL    HW218112   1.024   0.672   3.172  0.7590  0.6174 -0.5345
 4595SOL    HW318113   1.057   0.550   3.089 -0.5543  0.4520 -0.8355
 4595SOL    MW418114   1.001   0.612   3.112 -0.5118 -0.2709 -0.2326
 4596SOL     OW18115   1.127   1.056   2.953  0.5453  0.3104 -0.2466
 4596SOL    HW218116   1.103   1.083   2.865  0.4115  1.4854  0.1357
 4596SOL    HW318117   1.189   0.983   2.940 -0.0978 -0.0743 -1.2818
 4596SOL    MW418118   1.132   1.050   2.940 -0.2091 -0.0929  0.1582
 4597SOL     OW18119   0.618   4.922   2.594  0.2498 -0.3663  0.9342
 4597SOL    HW218120   0.703   4.912   2.638  0.0700 -0.6263  1.2292
 4597SOL    HW318121   0.600   4.836   2.556 -0.1407 -0.4711  1.3492
 4597SOL    MW418122   0.627   4.910   2.595 -0.2356 -0.0483 -0.2009
 4598SOL     OW18123   1.942   4.762   2.316 -0.0545 -0.0080  0.7448
 4598SOL    HW218124   1.917   4.673   2.290  0.7332 -0.3026  0.9451
 4598SOL    HW318125   1.980   4.751   2.403 -2.3546  0.9089  1.9416
 4598SOL    MW418126   1.944   4.748   2.324 -0.1763 -0.0079  0.1848
 4599SOL     OW18127   2.626   1.155   4.633 -0.7291 -0.2618  0.2193
 4599SOL    HW218128   2.613   1.246   4.659  1.0960 -0.4012  1.8466
 4599SOL    HW318129   2.662   1.113   4.711  0.3720 -1.8992 -1.1109
 4599SOL    MW418130   2.629   1.162   4.646 -0.2262 -0.4755  0.6188
 4600SOL     OW18131   4.016   5.461   6.282 -0.1910  0.1301 -0.0616
 4600SOL    HW218132   4.035   5.413   6.201  2.0262  0.3535  0.2623
 4600SOL    HW318133   4.095   5.512   6.299 -0.9035  0.7023  1.8329
 4600SOL    MW418134   4.029   5.461   6.274 -0.0580 -0.1732 -0.2326
 4601SOL     OW18135   2.149   0.854   1.248  0.8460 -0.0973  0.1306
 4601SOL    HW218136   2.141   0.895   1.334  0.9961  2.0602 -0.8381
 4601SOL    HW318137   2.126   0.923   1.186  0.9690 -1.5401 -1.5860
 4601SOL    MW418138   2.145   0.868   1.251  0.1392 -0.5686  0.2322
 4602SOL     OW18139   3.128   1.075   2.955 -0.0470 -0.0391  0.1571
 4602SOL    HW218140   3.168   0.992   2.980  2.1871  1.2321  1.1781
 4602SOL    HW318141   3.117   1.070   2.860  0.0364 -1.4844  0.2091
 4602SOL    MW418142   3.132   1.063   2.946  1.0410 -0.0277 -0.4978
 4603SOL     OW18143   5.038   5.043   0.447 -0.1525 -0.1257 -0.3014
 4603SOL    HW218144   5.132   5.052   0.464  0.4646 -2.9200 -1.6380
 4603SOL    HW318145   5.027   5.070   0.356 -0.4626 -0.6204 -0.4193
 4603SOL    MW418146   5.049   5.048   0.437  0.0954  0.0985  0.2788
 4604SOL     OW18147   5.738   4.177   3.430 -0.5648  0.0359 -0.1341
 4604SOL    HW218148   5.657   4.128   3.442 -0.6562  0.1190 -0.4041
 4604SOL    HW318149   5.781   4.174   3.516 -0.8136 -0.0771 -0.0125
 4604SOL    MW418150   5.733   4.170   3.443 -0.4927 -1.0062  0.2089
 4605SOL     OW18151   0.836   0.765   2.339  0.1319 -0.4606  0.3476
 4605SOL    HW218152   0.921   0.801   2.366 -0.5098  1.3572  0.1242
 4605SOL    HW318153   0.845   0.752   2.244 -0.5319  2.0589 -0.1486
 4605SOL    MW418154   0.848   0.768   2.330  0.1241  0.0244 -0.4681
 4606SOL     OW18155   4.494   5.437   4.557  0.2915  0.8471 -0.2340
 4606SOL    HW218156   4.406   5.442   4.518  0.1320  1.0796  0.1529
 4606SOL    HW318157   4.551   5.478   4.492  0.0847  0.8648 -0.4058
 4606SOL    MW418158   4.490   5.443   4.543 -0.3664 -0.2129 -0.7675
 4607SOL     OW18159   4.990   5.389   0.502 -0.2208 -0.5478 -0.1359
 4607SOL    HW218160   4.983   5.468   0.448  0.7544 -0.7630 -0.6024
 4607SOL    HW318161   4.899   5.366   0.521 -0.5570  0.1267 -0.8187
 4607SOL    MW418162   4.977   5.397   0.497 -0.3760  0.0027 -0.3829
 4608SOL     OW18163   6.100   6.338   0.905  0.0882  0.2877  0.1946
 4608SOL    HW218164   6.123   6.430   0.888  2.1215  0.1482  1.8526
 4608SOL    HW318165   6.021   6.343   0.959 -0.3899  1.0148 -0.5489
 4608SOL    MW418166   6.093   6.351   0.910  0.3416  0.0388 -0.2983
 4609SOL     OW18167   2.405   4.221   6.264 -0.6418 -0.2271 -0.2141
 4609SOL    HW218168   2.363   4.307   6.265 -0.5341 -0.1580 -1.0187
 4609SOL    HW318169   2.354   4.168   6.325  0.2967  0.8689  1.6307
 4609SOL    MW418170   2.393   4.226   6.272  0.0949  0.5164  0.6986
 4610SOL     OW18171   1.818   6.395   6.073 -0.0669 -0.1952 -0.1405
 4610SOL    HW218172   1.804   6.488   6.089 -0.7596 -0.0280 -1.5426
 4610SOL    HW318173   1.773   6.378   5.991  0.6206 -1.6340 -0.2511
 4610SOL    MW418174   1.810   6.405   6.065 -0.8448 -0.1573 -0.0162
 4611SOL     OW18175   1.217   1.995   2.972  0.2887  0.4491 -0.2336
 4611SOL    HW218176   1.224   2.090   2.973 -0.3694  0.5062 -0.6341
 4611SOL    HW318177   1.124   1.978   2.990 -0.1514 -0.0314 -2.6560
 4611SOL    MW418178   1.206   2.005   2.975  0.3412  0.0844  0.5399
 4612SOL     OW18179   1.553   1.646   4.839  0.7007  0.2416 -0.7007
 4612SOL    HW218180   1.498   1.692   4.775  1.6841  1.4143 -0.7592
 4612SOL    HW318181   1.624   1.609   4.786  0.3935 -0.5829 -0.5350
 4612SOL    MW418182   1.555   1.647   4.823  0.3180  0.3987 -0.1287
 4613SOL     OW18183   5.968   1.969   5.795  0.0191  0.2301  0.4272
 4613SOL    HW218184   5.923   1.983   5.712  1.0996 -0.1156 -0.2413
 4613SOL    HW318185   5.969   1.874   5.806  2.4218  0.0623 -0.6683
 4613SOL    MW418186   5.962   1.958   5.786 -0.1790  0.6900 -0.0037
 4614SOL     OW18187   6.031   4.951   0.869 -0.1680  0.3563 -0.1675
 4614SOL    HW218188   6.042   4.988   0.781  1.5123 -2.3743 -1.2489
 4614SOL    HW318189   6.097   4.996   0.922 -0.6726  1.4852 -0.4626
 4614SOL    MW418190   6.041   4.962   0.864  0.1776  0.0637 -0.0569
 4615SOL     OW18191   2.155   1.672   1.202 -0.6019  0.0975  0.2419
 4615SOL    HW218192   2.185   1.606   1.264 -0.7875 -0.0883  0.1342
 4615SOL    HW318193   2.153   1.753   1.253  1.6515  0.4555 -0.1665
 4615SOL    MW418194   2.158   1.674   1.217 -0.2956  0.1800  0.6057
 4616SOL     OW18195   3.007   5.695   3.915  0.0759 -0.2224  0.7753
 4616SOL    HW218196   3.032   5.787   3.925  1.9570 -0.7073  0.9032
 4616SOL    HW318197   3.006   5.681   3.820  0.5842 -0.2647  0.7744
 4616SOL    MW418198   3.010   5.706   3.904  0.5127 -0.2578 -0.8009
 4617SOL     OW18199   5.202   3.235   5.328 -0.8240 -0.9674  0.0085
 4617SOL    HW218200   5.233   3.203   5.243 -1.3955 -1.8979  0.1388
 4617SOL    HW318201   5.108   3.250   5.315 -0.3468  2.0690 -0.4574
 4617SOL    MW418202   5.194   3.232   5.315 -0.1818  0.2030 -0.4469
 4618SOL     OW18203   6.023   2.567   3.496 -0.0096 -0.0456 -0.4049
 4618SOL    HW218204   5.998   2.603   3.581  1.3944 -1.6472  0.7666
 4618SOL    HW318205   5.941   2.531   3.461 -1.2276  3.1775 -1.1625
 4618SOL    MW418206   6.009   2.567   3.503  0.9438 -0.1704 -0.1736
 4619SOL     OW18207   5.063   5.327   4.971 -0.3877 -0.7460 -0.0690
 4619SOL    HW218208   4.978   5.367   4.955 -0.5904 -1.5059 -0.9917
 4619SOL    HW318209   5.043   5.240   5.003  0.0440 -0.8628 -0.1081
 4619SOL    MW418210   5.049   5.321   4.973  0.0427 -0.2383  0.4041
 4620SOL     OW18211   1.925   0.127   3.884  0.2787  0.1568 -0.0461
 4620SOL    HW218212   2.020   0.143   3.882  0.2283  0.6367  0.8559
 4620SOL    HW318213   1.906   0.086   3.800  1.4140 -0.6737  0.0868
 4620SOL    MW418214   1.935   0.124   3.873  0.1966  0.3293  0.5440
 4621SOL     OW18215   0.839   5.860   1.566 -0.4262  0.7590 -0.3505
 4621SOL    HW218216   0.796   5.881   1.649  0.1227  1.2836 -0.1965
 4621SOL    HW318217   0.897   5.787   1.587 -1.6343 -0.3397 -0.6823
 4621SOL    MW418218   0.841   5.853   1.580  0.1215 -0.0474  0.1034
 4622SOL     OW18219   4.081   3.957   2.702  0.2741 -0.5553 -0.1838
 4622SOL    HW218220   4.100   3.996   2.788  2.8699  2.2183 -1.8239
 4622SOL    HW318221   4.157   3.901   2.684 -0.5482 -1.6079 -0.4512
 4622SOL    MW418222   4.094   3.955   2.711  0.4193 -0.3153 -0.1403
 4623SOL     OW18223   4.828   0.328   4.531 -0.0783  0.4239 -0.5688
 4623SOL    HW218224   4.899   0.354   4.589 -0.7375 -0.5637  0.7596
 4623SOL    HW318225   4.839   0.233   4.521 -1.0862  0.2853 -0.4727
 4623SOL    MW418226   4.838   0.319   4.538 -0.0747 -0.4878 -0.0497
 4624SOL     OW18227   0.387   2.261   1.164  0.0516  0.1168  0.2545
 4624SOL    HW218228   0.338   2.284   1.085 -1.0966 -1.4279  0.4473
 4624SOL    HW318229   0.342   2.307   1.235 -0.1178 -0.0027  0.2263
 4624SOL    MW418230   0.374   2.270   1.163  0.2204  0.5161  0.0719
 4625SOL     OW18231   1.766   0.881   5.377 -0.2313 -0.6076 -0.0754
 4625SOL    HW218232   1.812   0.933   5.311  0.0860 -1.8288 -0.8360
 4625SOL    HW318233   1.736   0.803   5.331 -0.6428 -1.1468  1.0595
 4625SOL    MW418234   1.768   0.878   5.362  0.0332  0.2075  0.4136
 4626SOL     OW18235   4.164   2.248   2.090 -0.0842 -0.7012  0.6221
 4626SOL    HW218236   4.169   2.153   2.100  0.7993 -0.6261  1.0023
 4626SOL    HW318237   4.070   2.267   2.088 -0.2888 -1.4588  1.8274
 4626SOL    MW418238   4.152   2.238   2.091 -0.4269 -0.0173 -0.1193
 4627SOL     OW18239   2.826   6.146   0.958 -0.1947  0.1714 -0.3963
 4627SOL    HW218240   2.868   6.232   0.954 -0.4279  0.4976  2.3963
 4627SOL    HW318241   2.857   6.101   0.879  1.5293  2.0987 -0.9109
 4627SOL    MW418242   2.836   6.152   0.947 -0.1432 -0.7567 -0.4283
 4628SOL     OW18243   5.839   4.472   5.940  0.6576  0.1194 -0.1423
 4628SOL    HW218244   5.755   4.501   5.974  0.1471 -1.6415  0.1715
 4628SOL    HW318245   5.895   4.463   6.017  0.3772 -1.0794 -0.0697
 4628SOL    MW418246   5.836   4.475   5.954 -0.0798 -0.7741  0.5175
 4629SOL     OW18247   0.888   4.791   2.733  0.3668 -0.1787  0.6235
 4629SOL    HW218248   0.975   4.805   2.697  0.3330 -1.1115  0.1442
 4629SOL    HW318249   0.874   4.864   2.793  0.4378  1.4313 -1.2070
 4629SOL    MW418250   0.897   4.802   2.736 -0.1533 -0.3519 -0.0360
 4630SOL     OW18251   5.222   0.804   0.626  0.0225  0.1855 -0.0137
 4630SOL    HW218252   5.137   0.832   0.591  0.5001  0.9767 -0.5671
 4630SOL    HW318253   5.284   0.822   0.556  0.3083 -2.9745 -0.7031
 4630SOL    MW418254   5.219   0.810   0.613 -0.2669 -0.7076 -0.1456
 4631SOL     OW18255   4.733   2.543   4.580 -0.4592  0.6704  0.6297
 4631SOL    HW218256   4.778   2.600   4.643  1.0697 -0.7740  0.9143
 4631SOL    HW318257   4.652   2.518   4.625  1.0622 -1.1726  2.5721
 4631SOL    MW418258   4.728   2.547   4.594  0.1163 -0.1792 -0.0103
 4632SOL     OW18259   6.235   1.749   1.056  0.1120 -0.2616  0.1424
 4632SOL    HW218260   6.208   1.747   1.147  0.5551  0.0785  0.2906
 4632SOL    HW318261   6.186   1.822   1.017 -0.4752 -0.7433 -0.0286
 4632SOL    MW418262   6.225   1.758   1.063 -0.0192  0.0955 -0.4079
 4633SOL     OW18263   5.126   6.258   1.469 -0.0424 -0.1054  0.2563
 4633SOL    HW218264   5.105   6.347   1.494 -0.0585 -0.2288  0.6866
 4633SOL    HW318265   5.044   6.221   1.438  0.5239  0.9701 -2.8802
 4633SOL    MW418266   5.113   6.265   1.468 -0.1497 -0.2454 -0.3104
 4634SOL     OW18267   1.442   0.032   5.834 -0.1539  0.8855 -0.3132
 4634SOL    HW218268   1.535   0.011   5.823 -0.6455 -1.2236 -0.7930
 4634SOL    HW318269   1.440   0.093   5.907  1.8101  3.0271 -1.8735
 4634SOL    MW418270   1.454   0.038   5.842  0.1720 -0.8022  0.0690
 4635SOL     OW18271   1.188   5.804   3.898 -0.0316  0.9882 -0.0608
 4635SOL    HW218272   1.218   5.809   3.807 -1.1543  4.1053 -0.3443
 4635SOL    HW318273   1.093   5.794   3.893  0.1395 -3.4693  0.8907
 4635SOL    MW418274   1.180   5.803   3.886  0.1210 -0.1802  0.0192
 4636SOL     OW18275   2.276   3.173   0.974 -0.5080  0.1064 -0.3279
 4636SOL    HW218276   2.334   3.152   1.048 -1.5412  0.8656  0.7201
 4636SOL    HW318277   2.323   3.240   0.925  0.0659 -0.2001 -0.2056
 4636SOL    MW418278   2.290   3.179   0.977 -0.1735 -0.1167 -0.1404
 4637SOL     OW18279   0.031   4.435   5.354  0.7785 -0.0986  0.2753
 4637SOL    HW218280   0.001   4.505   5.412  4.5154 -0.3404  2.7954
 4637SOL    HW318281  -0.010   4.356   5.389  0.1172  0.2116  0.2246
 4637SOL    MW418282   0.021   4.434   5.366  0.4460  0.0546  0.5325
 4638SOL     OW18283   5.149   4.495   4.168  0.5934 -0.4122 -0.9031
 4638SOL    HW218284   5.077   4.538   4.214  2.1595  1.2224  0.1971
 4638SOL    HW318285   5.227   4.544   4.196  1.7966  0.0299 -4.5505
 4638SOL    MW418286   5.150   4.507   4.178 -0.4128 -0.4070  0.1190
 4639SOL     OW18287   6.312   4.380   0.542  0.5992 -0.8065 -0.8071
 4639SOL    HW218288   6.319   4.384   0.638  0.1054 -0.5320 -0.7799
 4639SOL    HW318289   6.345   4.294   0.519  0.3774 -1.0139 -0.3584
 4639SOL    MW418290   6.317   4.369   0.552 -0.2333 -0.1772 -0.1748
 4640SOL     OW18291   5.598   0.582   0.645 -0.0314  0.5538  0.0391
 4640SOL    HW218292   5.591   0.619   0.733  1.7808  1.3496 -0.0953
 4640SOL    HW318293   5.613   0.488   0.659  1.9274  0.9148  0.7079
 4640SOL    MW418294   5.599   0.574   0.658 -0.2179  0.3848  0.0393
 4641SOL     OW18295   0.432   2.692   5.602 -0.3452  0.0326 -0.0575
 4641SOL    HW218296   0.448   2.742   5.522  0.0246  0.1537  0.0907
 4641SOL    HW318297   0.506   2.712   5.658 -0.5715 -0.1058  0.2920
 4641SOL    MW418298   0.444   2.701   5.599 -0.2447  1.0105  0.6366
 4642SOL     OW18299   5.052   1.697   6.204  0.1092  0.3063 -0.1472
 4642SOL    HW218300   5.071   1.760   6.273 -0.4689  0.1050  0.2048
 4642SOL    HW318301   4.956   1.692   6.202 -0.0062  1.9262 -2.4213
 4642SOL    MW418302   5.042   1.705   6.213  0.4915  0.7007  0.1301
 4643SOL     OW18303   0.914   3.874   4.618  0.4707  0.2945  0.6709
 4643SOL    HW218304   0.834   3.885   4.669  0.3047 -1.3280  0.8305
 4643SOL    HW318305   0.927   3.779   4.614  1.7487  0.4763 -0.3524
 4643SOL    MW418306   0.905   3.863   4.624 -0.6406  0.3460 -0.0895
 4644SOL     OW18307   0.091   2.715   1.333 -0.3030  0.2102  0.2483
 4644SOL    HW218308   0.034   2.773   1.282  1.1114  0.5130 -1.0661
 4644SOL    HW318309   0.032   2.666   1.389 -1.7611  1.1827 -0.3861
 4644SOL    MW418310   0.076   2.716   1.333  0.2285 -0.1620 -0.8086
 4645SOL     OW18311   4.477   1.919   2.840  0.0602 -1.3443 -0.1296
 4645SOL    HW218312   4.482   1.990   2.775 -2.8653 -1.7975 -0.9888
 4645SOL    HW318313   4.446   1.963   2.920  0.2192 -1.3434 -0.0684
 4645SOL    MW418314   4.473   1.934   2.842  0.4264 -0.2157  0.0422
 4646SOL     OW18315   4.800   0.514   2.800  0.2965  0.3750 -0.1017
 4646SOL    HW218316   4.846   0.563   2.867 -0.0186  1.4850 -0.6771
 4646SOL    HW318317   4.712   0.501   2.836  0.5665 -0.3609  0.3233
 4646SOL    MW418318   4.794   0.519   2.814  1.0133  0.0898 -0.6223
 4647SOL     OW18319   0.020   0.797   0.138  0.4151 -0.0071  0.2204
 4647SOL    HW218320  -0.054   0.812   0.197 -0.3047 -1.3566 -0.3124
 4647SOL    HW318321  -0.013   0.819   0.051  0.6706 -0.5078 -0.0088
 4647SOL    MW418322   0.006   0.802   0.134  0.4838 -0.7129  0.1909
 4648SOL     OW18323   2.161   0.159   0.415 -0.2523  0.1963 -0.3698
 4648SOL    HW218324   2.172   0.064   0.410 -0.2416  0.1583  0.3315
 4648SOL    HW318325   2.114   0.174   0.497 -0.0642  0.8142 -0.3686
 4648SOL    MW418326   2.156   0.148   0.425 -0.0992 -0.2173  0.2087
 4649SOL     OW18327   4.050   2.347   0.258  0.0883  0.2878  0.0734
 4649SOL    HW218328   4.033   2.430   0.301 -0.6671  0.2345 -0.1043
 4649SOL    HW318329   4.138   2.322   0.286  1.3707  2.3511 -1.8199
 4649SOL    MW418330   4.060   2.354   0.267  0.4223  0.2712  0.0518
 4650SOL     OW18331   0.368   1.418   6.198  0.4023  0.0454  0.3773
 4650SOL    HW218332   0.367   1.456   6.285 -2.9911 -1.1174  1.0176
 4650SOL    HW318333   0.356   1.324   6.213 -0.7668 -0.1189 -1.2992
 4650SOL    MW418334   0.366   1.410   6.211 -0.0583  0.1544  0.4028
 4651SOL     OW18335   5.503   5.929   5.166 -0.5237  0.3383 -0.0963
 4651SOL    HW218336   5.508   5.854   5.226  1.5048  0.4241 -0.0798
 4651SOL    HW318337   5.411   5.956   5.169 -0.9919 -1.2187  1.0385
 4651SOL    MW418338   5.492   5.922   5.174  0.2366 -0.2662  0.0282
 4652SOL     OW18339   0.896   4.991   0.784 -0.3639 -0.1729  0.0560
 4652SOL    HW218340   0.839   5.066   0.770  1.3655  0.9011 -1.9324
 4652SOL    HW318341   0.977   5.028   0.820  1.5624 -0.4925 -3.4635
 4652SOL    MW418342   0.899   5.006   0.787 -0.1665  0.4558  0.2165
 4653SOL     OW18343   3.733   3.658   6.087 -0.4166 -0.2195  0.0232
 4653SOL    HW218344   3.757   3.627   6.000 -1.9082 -2.0532  0.2108
 4653SOL    HW318345   3.810   3.707   6.117 -0.1796  1.1929 -2.6214
 4653SOL    MW418346   3.746   3.660   6.079  0.2482  0.9707 -0.3808
 4654SOL     OW18347   6.146   2.188   1.878  0.1233  0.7579 -0.3258
 4654SOL    HW218348   6.065   2.143   1.852  1.5431 -2.2867  0.0329
 4654SOL    HW318349   6.146   2.185   1.973  0.4248  1.1627 -0.3122
 4654SOL    MW418350   6.136   2.182   1.887 -0.2546 -0.2371  0.4920
 4655SOL     OW18351   5.473   1.723   3.972  0.5450  0.1045 -0.0607
 4655SOL    HW218352   5.462   1.817   3.987  0.4192 -0.1943  1.8729
 4655SOL    HW318353   5.567   1.707   3.985  0.4698 -0.1312  0.2048
 4655SOL    MW418354   5.484   1.733   3.975 -0.7619 -0.3698  0.3648
 4656SOL     OW18355   3.470   1.231   3.634 -0.1551 -0.5953  0.2020
 4656SOL    HW218356   3.462   1.186   3.550 -0.2986  0.0610 -0.1459
 4656SOL    HW318357   3.381   1.236   3.667 -0.4096  1.0382 -0.6341
 4656SOL    MW418358   3.457   1.226   3.627  0.4038 -0.2126  0.1743
 4657SOL     OW18359   4.135   6.405   2.716  0.6724 -0.4115  0.2187
 4657SOL    HW218360   4.110   6.434   2.629  0.2974 -1.4063 -0.0130
 4657SOL    HW318361   4.139   6.309   2.710  2.3763 -0.4227  0.8267
 4657SOL    MW418362   4.132   6.396   2.704  0.4349 -0.3630  1.1942
 4658SOL     OW18363   0.996   5.602   1.573 -0.5431  0.2112 -0.2213
 4658SOL    HW218364   1.068   5.593   1.510 -1.6716 -3.1560 -1.2400
 4658SOL    HW318365   1.039   5.613   1.657  1.1555 -0.5166 -0.9417
 4658SOL    MW418366   1.011   5.603   1.576  0.3948 -0.0083  0.0170
 4659SOL     OW18367   0.493   2.734   4.902  0.2501 -0.2084 -0.4713
 4659SOL    HW218368   0.546   2.666   4.859 -0.5053 -1.4909  0.5549
 4659SOL    HW318369   0.504   2.717   4.995 -0.4544  0.7016 -0.2188
 4659SOL    MW418370   0.501   2.723   4.908 -0.1568  0.0825  0.5732
 4660SOL     OW18371   5.484   1.961   0.920  0.1179  0.0828  0.0891
 4660SOL    HW218372   5.524   1.985   1.004 -0.4147  0.7957  0.1500
 4660SOL    HW318373   5.416   1.897   0.943 -0.7653  1.0814  0.3513
 4660SOL    MW418374   5.480   1.956   0.935  0.3279  0.1196  0.3935
 4661SOL     OW18375   4.804   3.131   0.852 -0.6468  0.2618 -0.1735
 4661SOL    HW218376   4.723   3.128   0.800 -0.9552  2.3487  0.1125
 4661SOL    HW318377   4.785   3.193   0.922 -0.0161 -1.9869  2.1403
 4661SOL    MW418378   4.791   3.139   0.854  0.1946 -0.2862 -0.7220
 4662SOL     OW18379   5.260   6.369   1.807 -0.2757  0.2318 -0.8194
 4662SOL    HW218380   5.341   6.376   1.858 -0.2692 -0.9414 -0.6508
 4662SOL    HW318381   5.262   6.281   1.770 -0.8947  0.6275 -1.8274
 4662SOL    MW418382   5.271   6.359   1.809  0.9370  0.0813  0.0433
 4663SOL     OW18383   1.338   3.850   5.194 -0.7280 -0.2177  0.6109
 4663SOL    HW218384   1.312   3.906   5.121  1.2610 -1.7703 -1.4565
 4663SOL    HW318385   1.265   3.789   5.204 -2.8666  2.4373  2.8136
 4663SOL    MW418386   1.325   3.849   5.185 -0.1465  0.0845 -0.1070
 4664SOL     OW18387   6.097   0.385   2.849 -0.1019  0.1692  0.4153
 4664SOL    HW218388   6.105   0.474   2.882  0.5471 -0.1140  1.0308
 4664SOL    HW318389   6.022   0.349   2.896  0.5640 -0.0965  1.3059
 4664SOL    MW418390   6.088   0.392   2.860 -0.0297 -0.3891  0.0814
 4665SOL     OW18391   2.090   4.710   1.980 -0.0712 -0.0888  0.4524
 4665SOL    HW218392   1.999   4.739   1.990  0.4101  2.3701 -1.3686
 4665SOL    HW318393   2.140   4.765   2.041  0.2239 -1.7078  1.7470
 4665SOL    MW418394   2.084   4.721   1.989 -0.0803 -0.4468  0.2213
 4666SOL     OW18395   3.845   3.807   2.707  0.2162  0.3736  0.3424
 4666SOL    HW218396   3.918   3.867   2.691 -0.7644  1.3087 -0.7730
 4666SOL    HW318397   3.771   3.864   2.728  0.0260 -0.6048  2.6333
 4666SOL    MW418398   3.845   3.822   2.708 -0.0442 -0.7056  0.2591
 4667SOL     OW18399   0.834   0.988   4.685 -0.2433  0.1881 -0.0343
 4667SOL    HW218400   0.913   1.007   4.634 -0.5866  0.9915 -0.2848
 4667SOL    HW318401   0.818   0.894   4.672  0.6654  0.0208  0.0230
 4667SOL    MW418402   0.842   0.978   4.677 -0.3567  0.3044 -0.4624
 4668SOL     OW18403   1.026   0.833   0.147  0.3946  0.5456 -0.4278
 4668SOL    HW218404   0.987   0.862   0.064  1.3288  1.1854 -0.6604
 4668SOL    HW318405   1.079   0.907   0.176  1.0801 -0.1344  0.1020
 4668SOL    MW418406   1.028   0.847   0.140 -0.1315  0.1098  0.3470
 4669SOL     OW18407   3.050   6.189   0.519  0.1844  0.5145 -0.0947
 4669SOL    HW218408   3.056   6.252   0.447 -0.9069 -0.3062 -0.9571
 4669SOL    HW318409   3.101   6.227   0.589  1.9004  1.0270 -1.5425
 4669SOL    MW418410   3.058   6.202   0.518 -0.0702  0.3603  0.4754
 4670SOL     OW18411   2.831   1.146   4.430  0.2649 -0.0075 -0.1059
 4670SOL    HW218412   2.922   1.144   4.459  0.5054  0.3191 -0.8031
 4670SOL    HW318413   2.779   1.145   4.511  0.8841 -0.3298  0.2881
 4670SOL    MW418414   2.836   1.146   4.445  0.0336  0.3914 -0.8386
 4671SOL     OW18415   4.816   6.043   4.893  0.6508  0.2937  0.1690
 4671SOL    HW218416   4.766   5.981   4.946 -2.7266  2.4258 -0.2639
 4671SOL    HW318417   4.795   6.020   4.803  0.6016  1.1155 -0.0362
 4671SOL    MW418418   4.807   6.032   4.888  0.3495  0.3975  0.1927
 4672SOL     OW18419   4.014   4.223   6.363 -0.1359 -0.6905  0.3237
 4672SOL    HW218420   4.095   4.204   6.411  0.3983 -1.7386 -0.9376
 4672SOL    HW318421   3.953   4.254   6.430  1.5328  0.8874  1.1941
 4672SOL    MW418422   4.017   4.225   6.378 -0.0076  0.2018 -0.1124
 4673SOL     OW18423   2.302   4.699   6.417 -0.2857 -0.2940  0.1304
 4673SOL    HW218424   2.216   4.722   6.454 -0.2922 -1.4307  0.8492
 4673SOL    HW318425   2.320   4.612   6.451  1.0098 -0.2036 -0.2981
 4673SOL    MW418426   2.293   4.691   6.426 -0.2848 -0.5643  0.1595
 4674SOL     OW18427   5.787   0.612   6.042 -0.3499  0.2949 -0.1643
 4674SOL    HW218428   5.807   0.679   5.976 -0.2333  0.4166 -0.0031
 4674SOL    HW318429   5.870   0.569   6.059 -0.4731 -0.0731 -0.4653
 4674SOL    MW418430   5.801   0.615   6.035  0.1092  0.5990  0.3328
 4675SOL     OW18431   3.953   3.205   1.092  0.2339  0.0994 -0.1232
 4675SOL    HW218432   4.038   3.170   1.064  0.3934  1.1946 -1.1075
 4675SOL    HW318433   3.953   3.295   1.058 -0.6557  0.6448  1.2785
 4675SOL    MW418434   3.965   3.212   1.084  0.7862 -0.0640  0.2467
 4676SOL     OW18435   1.532   3.488   5.777 -0.1083  0.0613 -0.1230
 4676SOL    HW218436   1.591   3.428   5.822  0.9736  1.6997  0.7075
 4676SOL    HW318437   1.449   3.439   5.770  0.0585 -0.7320  2.5039
 4676SOL    MW418438   1.529   3.474   5.782  0.0655 -0.1666 -0.1026
 4677SOL     OW18439   3.286   5.128   4.265  0.1833 -0.4617 -0.0448
 4677SOL    HW218440   3.194   5.107   4.282 -0.1250  0.1137 -0.8701
 4677SOL    HW318441   3.293   5.221   4.286 -0.4746  0.5635 -3.6447
 4677SOL    MW418442   3.275   5.138   4.270  0.3381  0.3790  0.3056
 4678SOL     OW18443   6.138   1.008   1.675 -0.1142 -0.4435 -0.4656
 4678SOL    HW218444   6.098   0.955   1.744 -2.4614  1.3343 -0.3329
 4678SOL    HW318445   6.217   1.042   1.715 -0.3246 -1.1374  0.6037
 4678SOL    MW418446   6.143   1.005   1.690 -0.0992 -0.6818 -0.7602
 4679SOL     OW18447   0.567   3.925   2.254 -0.2168  0.1171  0.4159
 4679SOL    HW218448   0.548   3.841   2.295  2.8627 -0.3009  1.2841
 4679SOL    HW318449   0.483   3.957   2.223 -1.5481 -3.1024  0.3628
 4679SOL    MW418450   0.554   3.918   2.255  0.4541  0.3715  0.5388
 4680SOL     OW18451   0.764   1.557   1.249 -0.0809 -0.0972 -0.2332
 4680SOL    HW218452   0.748   1.464   1.269  1.3193 -0.0652  1.2618
 4680SOL    HW318453   0.683   1.601   1.276 -0.4724 -0.7865 -0.2408
 4680SOL    MW418454   0.751   1.550   1.255 -0.2228 -0.0964  0.1860
 4681SOL     OW18455   2.580   2.787   2.054 -0.3140  0.1117  0.6075
 4681SOL    HW218456   2.656   2.838   2.083 -0.2030  0.5165 -0.3645
 4681SOL    HW318457   2.513   2.852   2.035 -0.7769 -0.2225  1.0705
 4681SOL    MW418458   2.582   2.802   2.056 -0.0759 -0.0790  0.0699
 4682SOL     OW18459   4.970   0.927   5.056  0.2725  0.0495  0.3382
 4682SOL    HW218460   5.065   0.932   5.061  0.1992  0.7323  1.4427
 4682SOL    HW318461   4.946   0.983   4.982  0.8039 -1.4491 -1.0225
 4682SOL    MW418462   4.979   0.935   5.047 -0.1857 -0.6034  0.9567
 4683SOL     OW18463   6.201   5.353   1.640 -0.2612 -0.3832  0.2042
 4683SOL    HW218464   6.288   5.389   1.620  0.3510 -1.6111  0.5232
 4683SOL    HW318465   6.158   5.344   1.555 -1.0192  2.3954  0.1984
 4683SOL    MW418466   6.207   5.356   1.626 -0.1406 -0.0826  0.4940
 4684SOL     OW18467   5.958   5.676   2.168  0.3860  0.5062 -0.2065
 4684SOL    HW218468   5.952   5.681   2.073 -0.1808  1.7969 -0.1198
 4684SOL    HW318469   6.007   5.596   2.184 -0.6474 -0.4489 -1.5514
 4684SOL    MW418470   5.963   5.666   2.158  0.1228 -0.2713  0.3725
 4685SOL     OW18471   2.092   0.964   0.100  0.5542  0.0665  0.2872
 4685SOL    HW218472   2.001   0.941   0.078  0.3996 -0.1027  1.0839
 4685SOL    HW318473   2.099   0.948   0.194  0.1873  4.1191  1.1637
 4685SOL    MW418474   2.081   0.959   0.109  0.5539 -0.2529 -0.0617
 4686SOL     OW18475   6.186   0.018   1.485  0.0560  0.1745 -0.4248
 4686SOL    HW218476   6.177  -0.067   1.527 -1.0837  0.5662  0.1560
 4686SOL    HW318477   6.254   0.063   1.537  0.1125 -0.1026 -0.2581
 4686SOL    MW418478   6.194   0.013   1.498  0.2754  0.3985  0.5612
 4687SOL     OW18479   5.876   4.902   1.358 -0.3521  0.4097 -0.5942
 4687SOL    HW218480   5.941   4.832   1.367 -1.6834 -0.6000  3.2301
 4687SOL    HW318481   5.904   4.952   1.281  3.1280 -1.7555 -0.9299
 4687SOL    MW418482   5.888   4.899   1.349 -0.2512 -0.0401 -0.2196
 4688SOL     OW18483   0.553   5.777   1.483 -0.7218  0.1013  0.4832
 4688SOL    HW218484   0.632   5.805   1.530 -0.7604  1.8455 -0.4123
 4688SOL    HW318485   0.521   5.702   1.533  1.3449 -0.4938  1.0192
 4688SOL    MW418486   0.560   5.771   1.496  0.0812  0.3890 -0.0320
 4689SOL     OW18487   4.976   3.230   1.477  0.4479  1.2248 -0.1296
 4689SOL    HW218488   4.902   3.250   1.419  0.5242  1.4151 -0.1619
 4689SOL    HW318489   5.050   3.216   1.418 -0.0525 -1.3974 -0.2875
 4689SOL    MW418490   4.976   3.231   1.462  0.0242 -0.2791  0.3515
 4690SOL     OW18491   2.607   5.706   3.506  0.4801 -0.2743  0.6211
 4690SOL    HW218492   2.586   5.681   3.416 -2.1791  0.3783  0.9734
 4690SOL    HW318493   2.570   5.794   3.516 -0.2004 -0.7268  2.6233
 4690SOL    MW418494   2.599   5.714   3.496  0.1485  0.5719 -0.3157
 4691SOL     OW18495   0.341   4.833   4.967  0.8224 -0.2895 -0.0588
 4691SOL    HW218496   0.348   4.925   4.992  0.5478  0.9739 -3.9196
 4691SOL    HW318497   0.431   4.800   4.972  1.0868  0.4628  0.4159
 4691SOL    MW418498   0.354   4.841   4.971  0.5522  0.1931 -0.6129
 4692SOL     OW18499   0.504   4.312   2.195  0.4442  0.5590  0.3842
 4692SOL    HW218500   0.427   4.353   2.233 -0.3044 -0.6588  0.2492
 4692SOL    HW318501   0.470   4.258   2.124  1.3450 -0.4573  0.6961
 4692SOL    MW418502   0.489   4.310   2.191 -1.0697 -0.2920  0.1228
 4693SOL     OW18503   0.014   3.594   1.879  0.8968  0.3029 -0.4877
 4693SOL    HW218504   0.102   3.587   1.841  0.6151  0.8137 -1.2414
 4693SOL    HW318505   0.018   3.539   1.958  1.5562 -0.5998 -1.1224
 4693SOL    MW418506   0.026   3.586   1.885  0.4493 -0.1360 -0.3050
 4694SOL     OW18507   6.367   4.147   3.307  0.4104 -0.1954  0.7688
 4694SOL    HW218508   6.279   4.178   3.330  0.5311  0.8127 -0.0668
 4694SOL    HW318509   6.367   4.054   3.332 -1.7708 -0.9446 -1.5784
 4694SOL    MW418510   6.355   4.139   3.313  0.7591  0.2561 -0.5142
 4695SOL     OW18511   0.890   0.590   1.809  0.0111  0.1010  0.4963
 4695SOL    HW218512   0.878   0.659   1.745 -0.1675 -0.3346  0.0544
 4695SOL    HW318513   0.819   0.603   1.872  0.2375  0.5792  0.6618
 4695SOL    MW418514   0.879   0.601   1.809  0.1397  0.5032 -0.1180
 4696SOL     OW18515   2.018   1.617   3.303 -1.2085  0.1775  0.5279
 4696SOL    HW218516   2.026   1.699   3.353  1.6752 -1.0623  2.3363
 4696SOL    HW318517   2.106   1.599   3.272 -1.8580 -2.0015 -0.2344
 4696SOL    MW418518   2.031   1.626   3.306 -0.6281  0.1144 -0.1366
 4697SOL     OW18519   0.020   1.763   6.026  0.6740 -0.1876 -0.5317
 4697SOL    HW218520   0.000   1.675   6.059 -1.8558  0.6725  0.5053
 4697SOL    HW318521   0.091   1.794   6.082 -0.8306 -0.2960  1.5496
 4697SOL    MW418522   0.027   1.756   6.038 -0.4036  0.4871 -0.0342
 4698SOL     OW18523   5.858   4.497   4.334  0.7799 -0.6659 -0.1825
 4698SOL    HW218524   5.839   4.411   4.297 -1.5094 -1.3545  2.2654
 4698SOL    HW318525   5.927   4.480   4.398  1.9646 -0.2017 -1.2995
 4698SOL    MW418526   5.865   4.483   4.338  0.4130 -0.2876 -0.2245
 4699SOL     OW18527   1.099   4.624   5.180 -0.2355  0.1962 -0.4585
 4699SOL    HW218528   1.041   4.547   5.182  0.0116  0.0251  0.7545
 4699SOL    HW318529   1.187   4.588   5.188 -0.1805  0.6405  1.3110
 4699SOL    MW418530   1.103   4.609   5.182 -0.0632 -0.0474  0.5908
 4700SOL     OW18531   5.192   2.920   3.645  0.3079  0.1498  0.5490
 4700SOL    HW218532   5.181   2.981   3.717  2.0418 -0.1585  1.1179
 4700SOL    HW318533   5.272   2.872   3.666  1.4590  0.7373 -2.0646
 4700SOL    MW418534   5.201   2.921   3.657 -0.2345  0.1687  0.2716
 4701SOL     OW18535   3.629   3.355   1.694  0.3217  0.2947 -0.4126
 4701SOL    HW218536   3.669   3.330   1.777  0.7323 -1.3024 -1.0526
 4701SOL    HW318537   3.685   3.315   1.627  0.3337  2.0428 -1.4964
 4701SOL    MW418538   3.642   3.346   1.696 -0.1676  0.2724 -0.2361
 4702SOL     OW18539   5.372   1.166   4.885 -0.0576  0.3127 -0.2479
 4702SOL    HW218540   5.328   1.128   4.962  2.0414 -2.6905 -0.3309
 4702SOL    HW318541   5.356   1.103   4.815  1.2647  1.0423 -1.2441
 4702SOL    MW418542   5.364   1.152   4.886  0.6483  0.4997  0.5115
 4703SOL     OW18543   0.499   4.852   5.295  0.3936 -0.7412 -0.1688
 4703SOL    HW218544   0.583   4.862   5.340 -0.0919  0.6481  0.4973
 4703SOL    HW318545   0.479   4.940   5.263 -1.4767 -0.7061  0.9407
 4703SOL    MW418546   0.508   4.865   5.297  0.3390 -0.0770 -0.3955
 4704SOL     OW18547   4.458   1.912   3.658 -0.3129 -0.2294 -0.7052
 4704SOL    HW218548   4.464   1.891   3.751  0.6335 -0.4096 -0.7961
 4704SOL    HW318549   4.531   1.971   3.642 -0.9660  0.4670 -1.1639
 4704SOL    MW418550   4.468   1.917   3.668  0.0622  0.2001 -0.3393
 4705SOL     OW18551   5.973   4.423   6.190 -0.2600 -0.7513  0.5458
 4705SOL    HW218552   5.990   4.428   6.284 -0.9287  0.4160  0.6145
 4705SOL    HW318553   6.052   4.382   6.154 -0.1330 -1.5235  1.6373
 4705SOL    MW418554   5.986   4.418   6.197  0.6611 -0.3808 -0.4264
 4706SOL     OW18555   3.124   3.262   4.144 -0.2545 -0.0590  0.7850
 4706SOL    HW218556   3.061   3.327   4.111 -0.9759 -0.5445  1.1608
 4706SOL    HW318557   3.210   3.297   4.120 -0.7146 -0.1031 -1.1082
 4706SOL    MW418558   3.127   3.275   4.136 -0.6552 -0.0657  0.7315
 4707SOL     OW18559   6.338   5.667   6.102  0.3035 -0.1853 -0.0492
 4707SOL    HW218560   6.316   5.604   6.033  1.3213 -0.8377  0.2069
 4707SOL    HW318561   6.430   5.650   6.121  0.2208  0.4727  0.9825
 4707SOL    MW418562   6.347   5.656   6.095  0.1658  0.3815 -0.0244
 4708SOL     OW18563   3.203   1.224   5.302 -0.7730  0.0377 -0.8122
 4708SOL    HW218564   3.222   1.215   5.209 -0.8588  2.3546 -1.1082
 4708SOL    HW318565   3.261   1.160   5.345 -0.4148 -0.7419 -2.3974
 4708SOL    MW418566   3.213   1.214   5.296  0.1915  0.5056  1.0400
 4709SOL     OW18567   3.099   2.309   3.556 -0.6538 -0.0542  0.0745
 4709SOL    HW218568   3.016   2.317   3.603 -0.7318  2.1240 -0.3290
 4709SOL    HW318569   3.160   2.363   3.605  0.2124 -0.6620 -0.3164
 4709SOL    MW418570   3.096   2.317   3.568  0.0248 -0.2994  0.1067
 4710SOL     OW18571   5.302   3.464   0.036 -0.0418  0.1285 -0.1063
 4710SOL    HW218572   5.258   3.407  -0.027  0.0623  0.1707 -0.2186
 4710SOL    HW318573   5.234   3.489   0.098 -0.1540  0.1201 -0.2269
 4710SOL    MW418574   5.288   3.460   0.036  0.9371 -0.1488  0.1257
 4711SOL     OW18575   5.997   1.097   3.183  0.9406  0.2635  0.1366
 4711SOL    HW218576   5.909   1.111   3.149  0.8109  0.5448  0.5781
 4711SOL    HW318577   6.032   1.026   3.130  0.6246  0.4728 -0.3648
 4711SOL    MW418578   5.990   1.089   3.172 -0.3215 -0.4046 -0.2078
 4712SOL     OW18579   2.000   0.284   5.046  0.0247 -0.1733 -0.1727
 4712SOL    HW218580   1.926   0.230   5.016 -0.5722  0.0245  0.9093
 4712SOL    HW318581   2.077   0.242   5.008 -0.4770 -1.4898  0.2275
 4712SOL    MW418582   2.000   0.272   5.037  0.1230  0.3806  0.6547
 4713SOL     OW18583   2.063   0.551   4.975  0.2510  0.3404  0.4499
 4713SOL    HW218584   2.027   0.463   4.981  1.5508 -0.4036 -1.6008
 4713SOL    HW318585   2.046   0.590   5.061 -1.4434 -1.4511  0.9975
 4713SOL    MW418586   2.056   0.545   4.988  0.2323 -0.6495  0.3167
 4714SOL     OW18587   2.375   5.295   4.257  0.3000  0.5451 -0.2890
 4714SOL    HW218588   2.309   5.355   4.292  0.0823  0.4450 -0.5185
 4714SOL    HW318589   2.381   5.225   4.323 -1.8453 -0.8987 -1.4704
 4714SOL    MW418590   2.367   5.293   4.271  0.0742  0.1697 -0.0858
 4715SOL     OW18591   0.342   1.372   2.939  0.1454  0.1486 -0.2899
 4715SOL    HW218592   0.359   1.304   3.004  0.3297  0.1627 -0.3211
 4715SOL    HW318593   0.409   1.358   2.872 -0.2822 -0.1087 -0.6713
 4715SOL    MW418594   0.353   1.361   2.939 -0.0934  0.3117  0.4632
 4716SOL     OW18595   5.976   3.916   4.649  0.1250  0.1288  0.1578
 4716SOL    HW218596   5.972   3.977   4.723  1.6935  0.7372 -0.2126
 4716SOL    HW318597   6.057   3.939   4.604 -1.1290  0.2577 -2.1783
 4716SOL    MW418598   5.986   3.927   4.653  0.6072 -0.0655 -0.1850
 4717SOL     OW18599   6.428   4.353   2.628  0.4333  0.1491 -0.1864
 4717SOL    HW218600   6.430   4.439   2.586  1.4640  0.5618  0.6465
 4717SOL    HW318601   6.433   4.372   2.722 -2.4394 -0.7338  0.2313
 4717SOL    MW418602   6.429   4.367   2.635 -0.1149 -1.0215  0.6182
 4718SOL     OW18603   6.327   5.053   2.357  0.6251  0.6638 -0.1190
 4718SOL    HW218604   6.324   5.005   2.439 -0.2511 -1.4337 -1.3194
 4718SOL    HW318605   6.420   5.052   2.332  0.8171  0.8832  0.5643
 4718SOL    MW418606   6.339   5.047   2.364 -0.2980  0.1900  0.3943
 4719SOL     OW18607   4.649   0.324   3.490  0.3148  0.3784 -0.2810
 4719SOL    HW218608   4.658   0.242   3.442  2.5404  0.7393 -0.6221
 4719SOL    HW318609   4.616   0.386   3.426  0.0850  0.0900 -0.4417
 4719SOL    MW418610   4.646   0.321   3.476 -0.1213 -0.2713  0.5320
 4720SOL     OW18611   6.212   2.639   2.457  0.4340  0.1491 -0.2073
 4720SOL    HW218612   6.287   2.672   2.507 -1.6261  1.4025  2.2969
 4720SOL    HW318613   6.145   2.708   2.465 -0.8146 -0.5721 -2.9639
 4720SOL    MW418614   6.213   2.653   2.464 -0.9761  0.6405  0.1822
 4721SOL     OW18615   2.711   0.837   5.757 -0.0227 -0.5487  0.0609
 4721SOL    HW218616   2.623   0.870   5.772 -0.1184 -0.9956  0.5127
 4721SOL    HW318617   2.717   0.828   5.662  0.1699  1.1759 -0.1217
 4721SOL    MW418618   2.700   0.840   5.746 -0.7645  0.1679 -0.0184
 4722SOL     OW18619   2.714   0.445   3.956  0.4318 -0.0603 -0.3177
 4722SOL    HW218620   2.634   0.429   3.906 -1.8217  0.7443  2.7859
 4722SOL    HW318621   2.758   0.360   3.959 -0.9767 -0.8372 -0.9368
 4722SOL    MW418622   2.709   0.432   3.950  0.3423  0.0492  0.1083
 4723SOL     OW18623   4.702   5.096   2.650 -0.3704  0.2859  0.8147
 4723SOL    HW218624   4.616   5.075   2.613 -0.8567 -0.3183  2.2285
 4723SOL    HW318625   4.743   5.011   2.666 -0.4377  0.4893  2.2128
 4723SOL    MW418626   4.696   5.082   2.647 -0.4097 -0.3563  0.1981
 4724SOL     OW18627   0.546   5.330   3.193 -0.1338  0.6238 -0.3528
 4724SOL    HW218628   0.552   5.280   3.112  1.4602 -0.0225  0.1162
 4724SOL    HW318629   0.582   5.416   3.172  1.4346  0.0722 -0.0828
 4724SOL    MW418630   0.551   5.334   3.180  0.4534 -0.1287 -0.1238
 4725SOL     OW18631   6.418   0.755   5.053  0.2403  0.3288  0.9247
 4725SOL    HW218632   6.509   0.779   5.037  0.4493 -0.4216  0.9667
 4725SOL    HW318633   6.368   0.812   4.993  0.7727  0.2973  0.4377
 4725SOL    MW418634   6.424   0.766   5.043 -0.2872  0.3425 -0.0730
 4726SOL     OW18635   0.585   0.733   4.418  0.2838 -0.2943 -0.0826
 4726SOL    HW218636   0.502   0.715   4.462 -0.6803  0.2086 -1.6042
 4726SOL    HW318637   0.583   0.676   4.341  0.9261  0.3949 -0.6157
 4726SOL    MW418638   0.574   0.723   4.413 -0.1554 -0.1184  0.3003
 4727SOL     OW18639   1.782   4.127   4.584 -0.0830  0.6017  0.1268
 4727SOL    HW218640   1.818   4.040   4.600 -0.8432  0.1572 -0.5445
 4727SOL    HW318641   1.816   4.181   4.657  0.6380 -0.1695  0.3737
 4727SOL    MW418642   1.791   4.123   4.596  0.1130  0.1041 -0.3328
 4728SOL     OW18643   2.130   2.808   0.587  0.1313 -0.1841 -0.8108
 4728SOL    HW218644   2.036   2.811   0.607  0.7009  0.2003  2.1856
 4728SOL    HW318645   2.142   2.875   0.520 -1.4022  1.5791  0.5618
 4728SOL    MW418646   2.119   2.817   0.581  0.3849  0.0205  0.0029
 4729SOL     OW18647   1.632   1.519   3.240  0.5257 -0.6374  0.0815
 4729SOL    HW218648   1.583   1.580   3.186  1.7165 -0.6609 -1.0784
 4729SOL    HW318649   1.589   1.435   3.227 -0.6012 -0.2374  1.0230
 4729SOL    MW418650   1.620   1.516   3.231  0.5300 -0.4508 -0.0696
 4730SOL     OW18651   4.748   1.660   0.709 -0.3512 -0.9375 -0.2497
 4730SOL    HW218652   4.759   1.575   0.753  1.2179  0.2482  1.8491
 4730SOL    HW318653   4.789   1.647   0.623  2.8630 -1.5148  1.2027
 4730SOL    MW418654   4.755   1.647   0.703  0.1965 -0.5287 -0.2370
 4731SOL     OW18655   0.385   6.064   3.594 -0.5219 -0.1683  0.3374
 4731SOL    HW218656   0.362   5.976   3.565 -1.6949  0.0890  0.4666
 4731SOL    HW318657   0.304   6.100   3.630 -0.5325  1.6275 -1.3173
 4731SOL    MW418658   0.372   6.057   3.595  0.2664  0.3359 -0.2177
 4732SOL     OW18659   3.762   1.240   3.467 -0.4260 -0.6279 -0.7748
 4732SOL    HW218660   3.691   1.236   3.532 -1.1114 -0.0862 -1.4693
 4732SOL    HW318661   3.842   1.245   3.519 -0.9559 -0.3732  0.0379
 4732SOL    MW418662   3.763   1.240   3.482 -0.7119  0.5064 -0.1093
 4733SOL     OW18663   5.131   3.316   6.321  0.1119 -0.8257  0.2725
 4733SOL    HW218664   5.062   3.269   6.368 -0.5404  1.0532  1.2922
 4733SOL    HW318665   5.085   3.388   6.277  0.9564 -1.5717 -1.9423
 4733SOL    MW418666   5.116   3.319   6.321 -0.6117  0.4759 -0.3258
 4734SOL     OW18667   1.151   5.666   0.483 -0.6153  0.0218  0.2652
 4734SOL    HW218668   1.241   5.662   0.452 -0.4588  1.6521  0.4205
 4734SOL    HW318669   1.100   5.685   0.404 -0.5854  1.0349  0.4830
 4734SOL    MW418670   1.156   5.668   0.468 -0.1671 -0.6612 -0.0268
 4735SOL     OW18671   1.472   4.673   1.111  0.1771 -0.0706  0.2358
 4735SOL    HW218672   1.555   4.718   1.098  0.6627 -0.7808  0.7946
 4735SOL    HW318673   1.480   4.593   1.060 -0.4588  0.1961 -0.2972
 4735SOL    MW418674   1.484   4.669   1.103 -1.1767  0.2038  0.1274
 4736SOL     OW18675   1.650   4.087   5.480  0.3296  0.5202  0.1162
 4736SOL    HW218676   1.738   4.057   5.501  1.1313  0.9731 -2.3302
 4736SOL    HW318677   1.649   4.179   5.506  0.6855  0.6080 -0.1872
 4736SOL    MW418678   1.661   4.095   5.486  0.0666 -0.6666  0.2631
 4737SOL     OW18679   6.320   3.668   3.145  0.0421  0.0596 -0.2361
 4737SOL    HW218680   6.396   3.684   3.090 -0.0418  0.9308 -0.1159
 4737SOL    HW318681   6.323   3.737   3.212  1.0974 -1.9584  1.9359
 4737SOL    MW418682   6.330   3.679   3.147  0.3320 -0.3823 -0.3787
 4738SOL     OW18683   1.942   2.222   3.403  0.0023 -0.0403  0.1589
 4738SOL    HW218684   1.974   2.297   3.454 -0.4894  0.5109 -0.3190
 4738SOL    HW318685   1.912   2.261   3.321  1.5561 -0.9949 -0.9162
 4738SOL    MW418686   1.942   2.237   3.399 -0.7743  0.2574 -0.0734
 4739SOL     OW18687   4.684   0.260   1.702 -0.1275 -0.1215  0.5510
 4739SOL    HW218688   4.614   0.238   1.764  0.5515  0.7228  1.6742
 4739SOL    HW318689   4.689   0.355   1.705  1.3867 -0.1900  0.8888
 4739SOL    MW418690   4.675   0.269   1.711  0.1959  0.4222  1.6348
 4740SOL     OW18691   5.342   0.628   5.990  0.7148  0.1187  0.2611
 4740SOL    HW218692   5.419   0.625   6.046  0.8788  0.6895  0.0767
 4740SOL    HW318693   5.295   0.707   6.018 -1.3847 -1.7292  2.3922
 4740SOL    MW418694   5.346   0.638   6.001  0.1526  0.3269  0.3005
 4741SOL     OW18695   2.214   5.413   0.559  0.0181 -0.3828  0.1613
 4741SOL    HW218696   2.242   5.376   0.475  0.4616 -1.2479  0.6653
 4741SOL    HW318697   2.263   5.494   0.567 -0.2504 -0.1423 -0.5451
 4741SOL    MW418698   2.224   5.418   0.549  0.0689 -0.0472  0.0454
 4742SOL     OW18699   0.194   4.986   5.756  0.2211  0.1318 -0.1637
 4742SOL    HW218700   0.217   4.919   5.693 -1.4563 -0.0861 -0.6054
 4742SOL    HW318701   0.246   5.062   5.731  2.8218 -1.1913  0.8768
 4742SOL    MW418702   0.204   4.987   5.745 -0.1258  0.1723 -0.1294
 4743SOL     OW18703   6.105   3.027   6.352 -0.3972 -0.0687  0.3066
 4743SOL    HW218704   6.153   2.976   6.417  0.1385 -0.0339 -0.0574
 4743SOL    HW318705   6.074   2.961   6.289  1.5793  0.1519 -1.0007
 4743SOL    MW418706   6.107   3.011   6.352 -0.6004 -0.0786 -0.3804
 4744SOL     OW18707   5.708   0.964   2.027 -0.0830 -0.0840 -0.1427
 4744SOL    HW218708   5.714   1.048   1.982  0.2718 -0.3441 -0.5856
 4744SOL    HW318709   5.615   0.941   2.022 -0.4491  0.9320  1.1949
 4744SOL    MW418710   5.697   0.972   2.020 -0.3898 -0.0440 -0.5428
 4745SOL     OW18711   3.872   0.202   4.826 -0.3155  0.2243  0.2747
 4745SOL    HW218712   3.872   0.200   4.922  1.6656  0.0947  0.3110
 4745SOL    HW318713   3.858   0.295   4.805 -1.7963  0.1094  0.6306
 4745SOL    MW418714   3.870   0.214   4.836  0.6882 -0.2643  0.2701
 4746SOL     OW18715   5.548   3.837   4.694  0.5661  0.3104  0.0430
 4746SOL    HW218716   5.521   3.912   4.640  1.2723  0.6411  0.1343
 4746SOL    HW318717   5.622   3.870   4.744 -1.7219  0.8883  3.3395
 4746SOL    MW418718   5.554   3.851   4.693 -0.5046  0.4728  0.1651
 4747SOL     OW18719   1.665   4.556   5.323  0.2647  0.3666 -0.2153
 4747SOL    HW218720   1.760   4.542   5.324  0.3217  0.7750  0.7489
 4747SOL    HW318721   1.651   4.629   5.383 -0.7050  0.0576 -0.0510
 4747SOL    MW418722   1.676   4.564   5.331  0.4333 -0.0344 -1.4425
 4748SOL     OW18723   4.981   5.075   2.831 -0.5356  0.5541 -0.4087
 4748SOL    HW218724   5.054   5.130   2.804  2.3800 -1.2928  2.8248
 4748SOL    HW318725   4.929   5.131   2.889 -0.2751  1.2040 -0.7948
 4748SOL    MW418726   4.984   5.089   2.835  0.3351 -0.3881  0.5808
 4749SOL     OW18727   0.568   5.882   3.087  0.2589 -0.4366 -0.2393
 4749SOL    HW218728   0.525   5.967   3.083 -0.5091 -0.6639  1.9474
 4749SOL    HW318729   0.584   5.858   2.995  0.0922  1.8280 -0.9022
 4749SOL    MW418730   0.565   5.890   3.074  0.4786 -0.4213 -0.4273
 4750SOL     OW18731   3.742   5.569   2.776 -0.0743  0.0628 -0.5920
 4750SOL    HW218732   3.648   5.582   2.769 -0.4579 -2.2167 -0.3446
 4750SOL    HW318733   3.756   5.548   2.869  0.7067  0.5057 -0.6009
 4750SOL    MW418734   3.732   5.568   2.788  0.1669  0.3691 -0.0256
 4751SOL     OW18735   3.795   0.861   5.004  0.0062  0.0135  0.0427
 4751SOL    HW218736   3.757   0.892   5.086 -1.9338  0.8280 -1.0998
 4751SOL    HW318737   3.793   0.937   4.946 -0.9221 -1.1163 -1.4893
 4751SOL    MW418738   3.790   0.875   5.007 -0.4013  0.1025 -0.0203
 4752SOL     OW18739   2.501   6.078   4.234 -0.0956  0.1351 -0.0329
 4752SOL    HW218740   2.493   5.988   4.203 -2.5603  0.8521 -1.7170
 4752SOL    HW318741   2.412   6.111   4.237  0.7784  2.7516 -0.1289
 4752SOL    MW418742   2.488   6.071   4.231 -0.3549 -0.1035 -0.0291
 4753SOL     OW18743   0.160   5.805   5.876  0.0499  0.5237  0.7970
 4753SOL    HW218744   0.184   5.871   5.941  2.2521  0.1197  0.4770
 4753SOL    HW318745   0.224   5.735   5.888 -0.4927 -0.2841 -0.7233
 4753SOL    MW418746   0.172   5.805   5.886  0.0561 -0.4726 -0.0980
 4754SOL     OW18747   0.360   4.004   6.389  0.0023  0.4186  0.0530
 4754SOL    HW218748   0.318   3.978   6.307 -0.5581 -0.5811  0.6299
 4754SOL    HW318749   0.299   4.067   6.428 -0.3840 -0.0999  0.3060
 4754SOL    MW418750   0.346   4.009   6.384  0.6311 -0.0788 -0.3812
 4755SOL     OW18751   2.830   0.263   5.937  0.0625 -0.0805 -0.2579
 4755SOL    HW218752   2.789   0.296   6.016 -2.1534 -1.8780 -0.5422
 4755SOL    HW318753   2.889   0.194   5.968 -0.3087 -0.3386 -0.1208
 4755SOL    MW418754   2.833   0.258   5.951 -0.1134 -0.1783  0.2226
 4756SOL     OW18755   3.919   0.820   4.480 -0.6112 -0.2263  0.0343
 4756SOL    HW218756   3.918   0.748   4.543  1.2920 -0.9036 -0.6280
 4756SOL    HW318757   4.000   0.808   4.431 -0.8594  1.6613 -0.9531
 4756SOL    MW418758   3.930   0.809   4.482  0.2351 -0.0710  0.3570
 4757SOL     OW18759   5.710   4.882   4.519 -0.4395  0.3650  0.8167
 4757SOL    HW218760   5.790   4.935   4.520 -0.1494 -0.0727  1.1551
 4757SOL    HW318761   5.730   4.808   4.576 -0.7307 -0.2712  0.1033
 4757SOL    MW418762   5.723   4.880   4.527  0.3460 -0.4170  0.3174
 4758SOL     OW18763   4.568   3.698   3.584 -0.1431 -0.5833  0.0582
 4758SOL    HW218764   4.651   3.731   3.620  0.1969 -0.2407 -1.0189
 4758SOL    HW318765   4.511   3.775   3.581 -0.0667 -0.5465 -0.4280
 4758SOL    MW418766   4.571   3.712   3.589 -0.1077 -0.1013  0.9648
 4759SOL     OW18767   0.864   1.151   2.210 -0.4665 -0.2406  0.4118
 4759SOL    HW218768   0.950   1.194   2.213 -0.6804  0.6886 -2.8149
 4759SOL    HW318769   0.802   1.223   2.225 -0.7292  0.0056 -1.5940
 4759SOL    MW418770   0.867   1.166   2.213 -0.3800  0.1568 -0.2549
 4760SOL     OW18771   3.254   1.769   4.724  0.0134 -0.0052  0.5462
 4760SOL    HW218772   3.302   1.734   4.649 -0.4544 -1.3735  0.8559
 4760SOL    HW318773   3.238   1.861   4.702 -1.9526 -0.8550 -2.0100
 4760SOL    MW418774   3.258   1.776   4.711  0.7497  0.1965  0.0813
 4761SOL     OW18775   5.425   5.901   4.696 -0.2280 -0.8208  0.2304
 4761SOL    HW218776   5.389   5.986   4.722 -0.4250 -0.3197 -1.5792
 4761SOL    HW318777   5.519   5.909   4.715 -0.3364 -0.4454  0.6534
 4761SOL    MW418778   5.433   5.914   4.702 -0.2807  0.0461 -0.2139
 4762SOL     OW18779   1.109   0.941   1.585 -0.3803 -0.0466 -0.5306
 4762SOL    HW218780   1.106   1.029   1.547 -0.5532 -0.5821 -1.8153
 4762SOL    HW318781   1.019   0.909   1.578 -0.4718 -0.0835  0.5808
 4762SOL    MW418782   1.097   0.948   1.579  0.0193  0.0821  0.9294
 4763SOL     OW18783   3.518   2.012   5.735 -0.1669  0.3414  0.0095
 4763SOL    HW218784   3.438   1.967   5.709 -0.7205  1.2624  0.0572
 4763SOL    HW318785   3.539   2.069   5.661  0.7197 -0.2345 -0.2008
 4763SOL    MW418786   3.510   2.014   5.722  0.4202 -0.2679 -0.0007
 4764SOL     OW18787   6.058   4.671   0.192 -0.1385 -0.1636  0.0342
 4764SOL    HW218788   6.012   4.700   0.271 -0.4884  0.2550 -0.3127
 4764SOL    HW318789   6.037   4.738   0.127  1.6261  0.4751  0.0770
 4764SOL    MW418790   6.049   4.684   0.194  0.1783  0.0416 -0.1714
 4765SOL     OW18791   5.869   6.361   3.955  0.6760  0.1846 -0.7854
 4765SOL    HW218792   5.847   6.311   4.034  1.1708 -0.2958 -0.9492
 4765SOL    HW318793   5.938   6.422   3.983  1.6582 -0.7532 -1.0909
 4765SOL    MW418794   5.875   6.362   3.969 -0.1026 -0.0236  0.2063
 4766SOL     OW18795   3.012   5.955   5.988 -0.0179 -0.0264  0.0328
 4766SOL    HW218796   2.940   5.998   5.942  0.5515  1.2321  0.2747
 4766SOL    HW318797   3.064   5.914   5.919 -0.0985  0.4044 -0.2868
 4766SOL    MW418798   3.010   5.955   5.973 -0.0507 -0.1829  0.0675
 4767SOL     OW18799   1.364   1.830   5.119  0.1626 -0.5507  0.6149
 4767SOL    HW218800   1.398   1.890   5.052  2.0475 -0.6880  1.3880
 4767SOL    HW318801   1.280   1.869   5.144  0.5581  0.8518 -0.0932
 4767SOL    MW418802   1.357   1.843   5.113 -0.3742  0.0504 -0.4456
 4768SOL     OW18803   1.290   1.729   3.160  0.0193 -0.0132  0.0905
 4768SOL    HW218804   1.250   1.643   3.148 -0.9302  0.7577 -3.1309
 4768SOL    HW318805   1.216   1.790   3.163  0.7503  0.9064 -0.0387
 4768SOL    MW418806   1.275   1.726   3.159 -0.0280 -0.2506  0.4736
 4769SOL     OW18807   5.854   2.396   3.984 -0.2064  0.0497 -0.1634
 4769SOL    HW218808   5.917   2.401   3.912 -0.8824 -0.9197 -0.8454
 4769SOL    HW318809   5.773   2.430   3.948 -0.3987  0.1214  0.3287
 4769SOL    MW418810   5.852   2.401   3.970  0.1447 -0.0087 -0.0057
 4770SOL     OW18811   3.770   3.395   0.742  0.4011 -0.0835  0.1485
 4770SOL    HW218812   3.691   3.342   0.729  0.1310  0.6486 -1.5379
 4770SOL    HW318813   3.739   3.472   0.790  0.4524 -0.5938  1.0246
 4770SOL    MW418814   3.755   3.399   0.747 -0.2934 -0.3114 -0.1117
 4771SOL     OW18815   0.496   5.159   1.181 -0.3535 -0.3126  0.1707
 4771SOL    HW218816   0.442   5.112   1.244  1.9611 -1.0793  1.7316
 4771SOL    HW318817   0.558   5.094   1.149  0.8311  0.9104 -0.1205
 4771SOL    MW418818   0.497   5.144   1.185  0.3087  0.0262 -0.4265
 4772SOL     OW18819   0.555   5.175   4.678  0.2688  0.2501 -0.2928
 4772SOL    HW218820   0.484   5.164   4.614 -1.4648 -0.6227  1.6446
 4772SOL    HW318821   0.562   5.270   4.690 -0.2755  0.3633 -0.8296
 4772SOL    MW418822   0.546   5.186   4.671  0.0492 -0.3802  0.7552
 4773SOL     OW18823   5.703   5.202   6.268 -0.0616 -0.2216  0.2196
 4773SOL    HW218824   5.678   5.262   6.338 -0.2454 -0.4951  0.3890
 4773SOL    HW318825   5.793   5.226   6.247 -0.1849  0.2153  0.1801
 4773SOL    MW418826   5.712   5.213   6.275 -0.4282 -0.0862 -0.0463
 4774SOL     OW18827   2.415   2.850   0.777 -0.1067  0.4464  0.1727
 4774SOL    HW218828   2.477   2.911   0.739  1.9365 -1.2645  0.5368
 4774SOL    HW318829   2.405   2.781   0.711  2.1940 -1.7057  1.8858
 4774SOL    MW418830   2.422   2.849   0.763  0.2125 -0.2012  0.3734
 4775SOL     OW18831   0.535   4.150   4.678  0.1830  0.3786 -0.0622
 4775SOL    HW218832   0.587   4.087   4.727 -0.4893  0.2247  0.4574
 4775SOL    HW318833   0.540   4.231   4.730  3.5317  1.7564 -2.1623
 4775SOL    MW418834   0.542   4.152   4.691 -0.2556 -0.0864 -0.1373
 4776SOL     OW18835   2.600   0.912   0.093  0.0090 -0.6664  0.2736
 4776SOL    HW218836   2.536   0.910   0.164  0.2315  0.4813  0.5209
 4776SOL    HW318837   2.633   0.822   0.088 -0.5500 -0.9294  1.1208
 4776SOL    MW418838   2.596   0.900   0.102 -0.2344  0.3422 -0.0417
 4777SOL     OW18839   5.344   5.458   3.117  0.0436 -0.0880 -0.4193
 4777SOL    HW218840   5.296   5.453   3.200  1.3226  1.2964  0.4337
 4777SOL    HW318841   5.338   5.369   3.082  0.2990 -0.9737  1.6159
 4777SOL    MW418842   5.337   5.446   3.123 -0.6441 -0.3415 -0.5831
 4778SOL     OW18843   2.774   2.481   1.571  1.1779 -0.6757 -0.0149
 4778SOL    HW218844   2.691   2.446   1.540  0.9361  0.1064 -0.2940
 4778SOL    HW318845   2.757   2.505   1.662  0.4422  1.3765 -0.6295
 4778SOL    MW418846   2.760   2.480   1.579 -0.1911 -0.1237  0.5992
 4779SOL     OW18847   4.023   0.357   2.556 -0.1487 -0.5501  0.0628
 4779SOL    HW218848   4.037   0.279   2.610  1.0887  0.7198  1.6826
 4779SOL    HW318849   4.090   0.418   2.584 -1.2730  1.2440 -0.9442
 4779SOL    MW418850   4.034   0.355   2.567 -0.1132  0.1483 -0.1754
 4780SOL     OW18851   4.501   1.242   2.773  0.3354  0.1538  0.2152
 4780SOL    HW218852   4.508   1.276   2.684 -2.0867  0.7382  0.1898
 4780SOL    HW318853   4.581   1.192   2.785  0.6205 -0.1692 -2.3860
 4780SOL    MW418854   4.512   1.240   2.763  0.1773  0.8472  0.0995
 4781SOL     OW18855   4.698   3.150   6.060  0.1609 -0.7034  0.8986
 4781SOL    HW218856   4.605   3.138   6.081 -0.3006 -2.8187 -1.7297
 4781SOL    HW318857   4.700   3.229   6.006 -0.4809 -1.6566 -0.5895
 4781SOL    MW418858   4.686   3.159   6.055 -0.1013 -0.1983  0.1237
 4782SOL     OW18859   0.070   5.333   6.109 -0.3158  0.9578  0.1646
 4782SOL    HW218860   0.084   5.244   6.139  3.4346  1.4245  0.2999
 4782SOL    HW318861   0.064   5.326   6.013 -1.4678  0.4882  0.2538
 4782SOL    MW418862   0.071   5.321   6.100  0.5251 -0.0164  0.6509
 4783SOL     OW18863   0.917   0.867   5.358  0.2043  0.3119 -0.3104
 4783SOL    HW218864   0.857   0.938   5.338 -2.4128 -1.3174  1.2691
 4783SOL    HW318865   0.946   0.835   5.273 -1.2540  1.0700 -1.1157
 4783SOL    MW418866   0.913   0.872   5.344  0.5586  0.0559  0.4080
 4784SOL     OW18867   2.227   0.032   4.041  0.0030 -0.7197  0.2099
 4784SOL    HW218868   2.176  -0.027   3.985 -0.2838 -0.6730  0.4184
 4784SOL    HW318869   2.317   0.023   4.010 -0.1341 -0.7935 -0.1712
 4784SOL    MW418870   2.232   0.023   4.030  0.1674 -0.3151  0.7131
 4785SOL     OW18871   5.038   5.050   4.986  0.1963  0.6819 -0.1598
 4785SOL    HW218872   5.027   5.067   4.892 -0.4482  1.5434  0.0537
 4785SOL    HW318873   5.131   5.030   4.996  0.2137  0.2877 -1.0257
 4785SOL    MW418874   5.049   5.050   4.975  0.2206  0.3407  0.7198
 4786SOL     OW18875   5.499   5.713   5.397 -0.2408  0.0715 -0.1036
 4786SOL    HW218876   5.417   5.676   5.429  0.9518 -1.4770  1.3387
 4786SOL    HW318877   5.507   5.797   5.443 -1.0527  0.3055 -0.3683
 4786SOL    MW418878   5.489   5.719   5.407  0.1372 -0.6271  0.1339
 4787SOL     OW18879   1.545   1.735   2.657  0.2499 -0.8100  0.5292
 4787SOL    HW218880   1.631   1.741   2.699  0.4898  1.7800 -0.0997
 4787SOL    HW318881   1.483   1.766   2.723  0.0002 -1.2562  0.5047
 4787SOL    MW418882   1.548   1.740   2.671  0.0991 -0.1725  0.5355
 4788SOL     OW18883   0.206   5.617   2.822 -0.1233  0.4499  0.0444
 4788SOL    HW218884   0.235   5.662   2.902 -0.0714  0.6652 -0.0948
 4788SOL    HW318885   0.165   5.686   2.769 -1.4779  0.0453  0.5081
 4788SOL    MW418886   0.204   5.632   2.826  0.1158  0.2764  0.0222
 4789SOL     OW18887   1.331   2.541   1.825 -0.1841  0.9599 -0.2779
 4789SOL    HW218888   1.250   2.536   1.774  0.7867  1.1440 -1.9152
 4789SOL    HW318889   1.316   2.483   1.899 -2.4231  2.2466  0.3764
 4789SOL    MW418890   1.318   2.533   1.828 -0.5304 -0.6302  0.3857
 4790SOL     OW18891   3.881   1.611   0.715  0.0789 -0.5418  1.2568
 4790SOL    HW218892   3.829   1.678   0.760 -0.6551 -0.1610 -0.1178
 4790SOL    HW318893   3.950   1.589   0.778  0.7761  2.0062  1.4969
 4790SOL    MW418894   3.883   1.617   0.729 -0.0944  0.1544  0.4926
 4791SOL     OW18895   2.306   6.197   2.975  0.3852  0.6121  0.0281
 4791SOL    HW218896   2.299   6.241   2.890  2.0465  0.3971 -0.2594
 4791SOL    HW318897   2.358   6.119   2.957 -2.2091 -1.3749  0.5979
 4791SOL    MW418898   2.312   6.193   2.961  0.3638 -0.4204 -0.1901
 4792SOL     OW18899   4.581   5.609   0.089 -0.9479 -0.1979  0.0406
 4792SOL    HW218900   4.551   5.623   0.179 -1.2124  0.3826 -0.1327
 4792SOL    HW318901   4.584   5.697   0.051 -2.0823 -0.5468 -0.9055
 4792SOL    MW418902   4.577   5.623   0.096  0.1027  0.6433  0.0592
 4793SOL     OW18903   1.297   5.127   4.485 -0.1686 -0.1471  0.2788
 4793SOL    HW218904   1.294   5.190   4.413  1.1915 -1.0184 -0.5742
 4793SOL    HW318905   1.350   5.169   4.552  0.9388 -0.4638 -0.3854
 4793SOL    MW418906   1.303   5.141   4.484  0.5407 -0.8774 -0.8690
 4794SOL     OW18907   3.390   5.136   3.280 -0.1886  0.3893  0.1613
 4794SOL    HW218908   3.442   5.057   3.293 -1.2657 -0.5337 -0.9064
 4794SOL    HW318909   3.446   5.207   3.312  1.5976 -0.5775 -0.6486
 4794SOL    MW418910   3.404   5.135   3.286  0.7485 -0.1365  0.0650
 4795SOL     OW18911   3.870   4.048   3.340  0.0338 -0.0548 -0.0613
 4795SOL    HW218912   3.898   3.972   3.288  0.6876  0.3830 -0.3593
 4795SOL    HW318913   3.952   4.094   3.361 -0.4381  1.1736 -0.8176
 4795SOL    MW418914   3.885   4.044   3.336  0.1681 -0.1562 -0.1220
 4796SOL     OW18915   3.864   3.866   4.526 -0.0577  0.6218  0.2647
 4796SOL    HW218916   3.840   3.823   4.608 -1.3715 -0.5622 -0.7144
 4796SOL    HW318917   3.851   3.960   4.544  2.1485  0.6693  2.1830
 4796SOL    MW418918   3.859   3.873   4.539 -0.2783  0.4195  0.4520
 4797SOL     OW18919   3.099   5.863   4.914 -0.2989 -0.6390  0.5154
 4797SOL    HW218920   3.067   5.944   4.954  0.5468 -0.6751  1.3084
 4797SOL    HW318921   3.055   5.793   4.961 -0.1686 -0.6571  0.6123
 4797SOL    MW418922   3.089   5.865   4.926  0.6016  0.1243 -0.2105
 4798SOL     OW18923   0.572   6.164   6.076 -0.1096 -0.2725 -0.5718
 4798SOL    HW218924   0.508   6.114   6.127 -0.2298 -0.2874 -0.7351
 4798SOL    HW318925   0.585   6.244   6.126 -1.1618  0.2732 -1.1219
 4798SOL    MW418926   0.565   6.168   6.089  0.1404 -0.0911 -0.4805
 4799SOL     OW18927   2.101   4.417   3.193  0.0195  0.3953 -0.3880
 4799SOL    HW218928   2.050   4.373   3.124 -1.4268 -0.9255  1.4360
 4799SOL    HW318929   2.147   4.488   3.147  0.2454 -1.2852 -2.9512
 4799SOL    MW418930   2.100   4.421   3.178 -0.5081  0.5830  0.6745
 4800SOL     OW18931   4.599   4.230   3.130  0.0178  0.3301  0.0289
 4800SOL    HW218932   4.637   4.313   3.161 -0.6299  0.5065  0.3675
 4800SOL    HW318933   4.547   4.199   3.204 -0.3457 -0.0010 -0.3638
 4800SOL    MW418934   4.597   4.237   3.144  0.0979  0.4342 -0.2118
 4801SOL     OW18935   0.812   0.713   5.580  0.2881 -0.3255  0.0310
 4801SOL    HW218936   0.853   0.769   5.514  0.5258  0.4831  0.8456
 4801SOL    HW318937   0.876   0.709   5.651  0.8683 -2.7415 -0.5407
 4801SOL    MW418938   0.826   0.720   5.581  0.7756 -0.2988 -0.6073
 4802SOL     OW18939   4.336   5.514   3.573 -0.0523 -0.6206 -0.1094
 4802SOL    HW218940   4.365   5.584   3.515  1.5411 -1.7055 -0.7020
 4802SOL    HW318941   4.401   5.445   3.561 -2.9901 -3.3637 -1.6529
 4802SOL    MW418942   4.348   5.514   3.564 -0.3800 -0.2686 -0.2061
 4803SOL     OW18943   0.977   6.141   1.613  0.1642 -0.3720 -0.0479
 4803SOL    HW218944   1.063   6.109   1.639 -0.8026 -1.6847  1.8542
 4803SOL    HW318945   0.925   6.061   1.600 -1.2990  0.3810  0.9057
 4803SOL    MW418946   0.981   6.126   1.615  0.1571  0.9107  1.2074
 4804SOL     OW18947   0.611   2.106   4.921 -0.5264  0.5487 -0.4484
 4804SOL    HW218948   0.591   2.181   4.864  1.5878  0.1652 -1.7919
 4804SOL    HW318949   0.707   2.101   4.922 -0.5383 -0.6216  1.6784
 4804SOL    MW418950   0.621   2.115   4.914 -0.5742 -0.7784  0.5541
 4805SOL     OW18951   5.615   5.097   1.059  0.2147  0.1919  0.6419
 4805SOL    HW218952   5.610   5.066   0.969 -2.5297  2.8472 -0.2950
 4805SOL    HW318953   5.707   5.085   1.083  1.8053  1.9791 -3.5753
 4805SOL    MW418954   5.627   5.092   1.050  0.0554 -0.3537 -0.6008
 4806SOL     OW18955   3.708   5.767   0.115 -0.4334 -0.7365  0.0534
 4806SOL    HW218956   3.628   5.787   0.164 -0.6121 -0.3539 -0.3786
 4806SOL    HW318957   3.694   5.678   0.082 -0.9540 -0.4530 -0.5239
 4806SOL    MW418958   3.696   5.758   0.117  0.1381 -0.0021 -0.7448
 4807SOL     OW18959   3.820   1.333   2.100 -0.2887 -0.0622  0.3036
 4807SOL    HW218960   3.817   1.255   2.045  0.9889 -0.5612  0.8765
 4807SOL    HW318961   3.737   1.332   2.148 -0.1368 -1.3228  0.5998
 4807SOL    MW418962   3.809   1.322   2.099  0.1973 -0.1087 -0.1357
 4808SOL     OW18963   2.918   3.774   3.527 -0.0324  0.5406 -0.1333
 4808SOL    HW218964   2.995   3.725   3.497  0.3884  0.2434  1.3441
 4808SOL    HW318965   2.935   3.789   3.620 -1.7213  0.5665  0.1874
 4808SOL    MW418966   2.931   3.770   3.535 -0.4349  0.4137 -0.0094
 4809SOL     OW18967   4.331   0.058   0.112 -0.3742 -0.2648 -0.3037
 4809SOL    HW218968   4.306  -0.032   0.091  0.0893 -0.0630 -1.7932
 4809SOL    HW318969   4.414   0.072   0.067  0.9591  0.0780  2.0746
 4809SOL    MW418970   4.339   0.048   0.103 -0.1965  0.2554 -0.2901
 4810SOL     OW18971   2.649   1.719   1.006 -0.4902 -0.2677  0.3987
 4810SOL    HW218972   2.648   1.770   0.924 -2.2971  0.5504  0.8744
 4810SOL    HW318973   2.733   1.741   1.047  0.6579 -1.0290 -1.3856
 4810SOL    MW418974   2.660   1.729   1.000  0.5682 -0.0164 -0.0992
 4811SOL     OW18975   1.140   0.821   5.515  0.3054 -0.2929  0.1285
 4811SOL    HW218976   1.187   0.763   5.455  0.2590 -0.8274  0.5998
 4811SOL    HW318977   1.065   0.852   5.465 -0.5697 -1.9191  0.3736
 4811SOL    MW418978   1.136   0.818   5.501  0.4080  0.4302  0.2908
 4812SOL     OW18979   5.588   5.897   6.045 -0.6649  0.2609 -0.0719
 4812SOL    HW218980   5.583   5.987   6.012 -0.2670  0.2608 -0.1369
 4812SOL    HW318981   5.560   5.844   5.971 -1.7021  0.3734  0.2261
 4812SOL    MW418982   5.584   5.902   6.031  0.3477  0.0752  0.2504
 4813SOL     OW18983   4.460   5.908   0.369 -0.4298 -0.1916  0.3858
 4813SOL    HW218984   4.553   5.930   0.373 -0.1274 -1.2720 -0.1940
 4813SOL    HW318985   4.425   5.934   0.454  0.2042  1.0573  0.2881
 4813SOL    MW418986   4.468   5.914   0.381 -0.0780  0.2686 -0.6903
 4814SOL     OW18987   0.400   0.964   2.121  0.1965 -0.2210 -0.2626
 4814SOL    HW218988   0.375   1.054   2.142  1.2012 -0.2232  1.1480
 4814SOL    HW318989   0.489   0.955   2.156 -0.1148 -1.9464  0.2097
 4814SOL    MW418990   0.408   0.975   2.128 -0.2254  0.4758 -0.4462
 4815SOL     OW18991   3.861   1.155   3.245  0.6019  0.0536 -0.2611
 4815SOL    HW218992   3.800   1.172   3.317  1.3548  1.4654  0.0802
 4815SOL    HW318993   3.928   1.098   3.282  1.2910  1.2253  0.3496
 4815SOL    MW418994   3.862   1.150   3.260 -0.0476  0.2414  0.3131
 4816SOL     OW18995   2.540   3.436   3.090 -0.8714 -0.1451 -0.5497
 4816SOL    HW218996   2.487   3.357   3.096 -1.0713 -0.0306 -0.7822
 4816SOL    HW318997   2.477   3.508   3.087 -0.6910  0.2226  2.0438
 4816SOL    MW418998   2.525   3.435   3.091  0.5418 -0.2285 -0.0457
 4817SOL     OW18999   6.398   0.042   2.037  0.1014 -0.1039  0.3804
 4817SOL    HW219000   6.488   0.072   2.046 -0.2625  0.5742  2.1264
 4817SOL    HW319001   6.360   0.098   1.970  0.7247  0.1915  0.2683
 4817SOL    MW419002   6.405   0.053   2.029 -0.2257 -1.2582  0.0592
 4818SOL     OW19003   5.100   2.343   2.440 -0.0234 -0.0561  0.2933
 4818SOL    HW219004   5.068   2.253   2.435  0.2159 -0.1820  0.9532
 4818SOL    HW319005   5.064   2.386   2.362  0.5783 -0.9469 -0.4927
 4818SOL    MW419006   5.091   2.337   2.429 -0.4041  0.1115 -0.3317
 4819SOL     OW19007   3.870   1.829   4.371 -0.0284  0.2521  0.6151
 4819SOL    HW219008   3.851   1.783   4.290 -3.0887 -1.0124  1.9071
 4819SOL    HW319009   3.896   1.917   4.343  1.4227 -0.8319 -1.7457
 4819SOL    MW419010   3.871   1.835   4.357  0.0779 -0.8847 -0.5911
 4820SOL     OW19011   1.655   1.493   3.756 -0.2670 -0.2587  0.2171
 4820SOL    HW219012   1.656   1.403   3.789  0.2099 -0.1490  0.5121
 4820SOL    HW319013   1.613   1.487   3.670  1.2946 -1.0375 -0.5324
 4820SOL    MW419014   1.649   1.480   3.749  0.4102 -0.3108 -0.6175
 4821SOL     OW19015   2.728   3.292   3.952  0.3682  0.6447 -0.2618
 4821SOL    HW219016   2.670   3.368   3.953  1.9675  1.9320 -0.1463
 4821SOL    HW319017   2.758   3.284   4.042 -0.0399 -0.3693 -0.1997
 4821SOL    MW419018   2.724   3.301   3.964  0.2122  0.3860 -0.0666
 4822SOL     OW19019   3.678   4.927   1.041 -0.2147 -0.0922  0.3340
 4822SOL    HW219020   3.619   4.854   1.060 -1.1871  0.2189 -1.3230
 4822SOL    HW319021   3.649   4.997   1.101 -0.5391 -0.4368  0.5859
 4822SOL    MW419022   3.666   4.927   1.052  0.2757  0.1097  0.0961
 4823SOL     OW19023   3.411   0.738   0.528  0.0952 -0.3458 -0.0184
 4823SOL    HW219024   3.358   0.687   0.589  0.7263  0.4194  1.2080
 4823SOL    HW319025   3.499   0.738   0.567  0.1573  1.4884 -0.0659
 4823SOL    MW419026   3.416   0.731   0.541 -0.0615 -0.5989  0.1682
 4824SOL     OW19027   2.391   3.449   1.538  0.0055 -0.3824 -0.0780
 4824SOL    HW219028   2.378   3.485   1.450  2.1303  1.5057  0.2824
 4824SOL    HW319029   2.306   3.411   1.561 -2.2302  3.4434 -1.0405
 4824SOL    MW419030   2.378   3.449   1.529  0.7357  0.0802  0.5589
 4825SOL     OW19031   3.520   1.646   4.847  0.2674  0.3140 -0.3791
 4825SOL    HW219032   3.447   1.707   4.833 -0.2454 -0.3897 -0.8355
 4825SOL    HW319033   3.582   1.696   4.899  0.1219  1.4356 -1.2242
 4825SOL    MW419034   3.518   1.661   4.852  0.3666  0.4569 -0.1696
 4826SOL     OW19035   6.378   3.059   4.215  0.3401 -0.0109  0.0723
 4826SOL    HW219036   6.436   3.056   4.138  1.2046 -1.3776  0.7239
 4826SOL    HW319037   6.411   3.132   4.267  3.5033 -2.4082  1.8401
 4826SOL    MW419038   6.390   3.068   4.212  0.2016 -0.0270  0.1846
 4827SOL     OW19039   4.810   1.986   3.453  0.3391 -0.4603  0.2208
 4827SOL    HW219040   4.762   2.050   3.505  1.9192  0.5366  0.5207
 4827SOL    HW319041   4.749   1.961   3.383 -0.6399  0.6881  0.6275
 4827SOL    MW419042   4.796   1.991   3.450 -0.7547 -0.0097  0.2218
 4828SOL     OW19043   5.331   0.539   0.608  0.1357  0.1600  0.1292
 4828SOL    HW219044   5.289   0.623   0.586  2.1209  0.8566 -1.3151
 4828SOL    HW319045   5.409   0.564   0.658 -0.5086 -1.0253  1.8039
 4828SOL    MW419046   5.336   0.554   0.612  0.1183 -0.0852 -0.0994
 4829SOL     OW19047   3.139   5.844   1.207 -0.4336 -0.4723 -0.1970
 4829SOL    HW219048   3.074   5.912   1.193 -1.4122 -0.9110  1.8839
 4829SOL    HW319049   3.155   5.845   1.302  2.3605 -0.6092 -0.5786
 4829SOL    MW419050   3.133   5.853   1.218  0.3894  0.1705  0.7135
 4830SOL     OW19051   3.641   2.690   0.069  0.4111 -0.1402 -0.1312
 4830SOL    HW219052   3.721   2.639   0.085 -0.6534 -1.2128  2.0930
 4830SOL    HW319053   3.661   2.777   0.105  0.3379 -0.6185  1.0924
 4830SOL    MW419054   3.654   2.695   0.076 -0.1113 -0.3373  1.0540
 4831SOL     OW19055   1.140   3.261   0.467 -0.2342 -0.1162  0.1068
 4831SOL    HW219056   1.219   3.224   0.429  1.0600  1.2101  1.3450
 4831SOL    HW319057   1.115   3.330   0.406  0.0494 -0.0152  0.0995
 4831SOL    MW419058   1.147   3.266   0.454  0.1223  0.1168 -0.2558
 4832SOL     OW19059   1.590   0.040   1.668  0.2690 -0.0251  0.5691
 4832SOL    HW219060   1.518   0.086   1.712  0.4987  0.8808  0.0280
 4832SOL    HW319061   1.662   0.102   1.669  0.7630 -0.5822  0.2916
 4832SOL    MW419062   1.590   0.054   1.674  0.1882 -0.1448  0.0703
 4833SOL     OW19063   4.289   1.911   5.177  0.0770 -0.3736 -0.2714
 4833SOL    HW219064   4.359   1.923   5.113 -0.2534  0.5299 -0.4898
 4833SOL    HW319065   4.221   1.864   5.130  0.7943 -1.9002  0.1487
 4833SOL    MW419066   4.289   1.907   5.163 -0.3002  0.5761  0.5396
 4834SOL     OW19067   5.313   6.112   1.682 -0.1271 -0.3419  0.1864
 4834SOL    HW219068   5.305   6.023   1.717 -1.9007 -0.0558  0.6087
 4834SOL    HW319069   5.301   6.101   1.587 -0.0307 -0.5980  0.2037
 4834SOL    MW419070   5.310   6.098   1.674  0.0641  0.4600  0.0878
 4835SOL     OW19071   0.121   3.036   5.366 -0.4870 -0.8836 -0.6145
 4835SOL    HW219072   0.138   3.040   5.272 -0.5477 -0.3535 -0.6038
 4835SOL    HW319073   0.195   3.083   5.405 -0.6873 -0.7249 -0.4248
 4835SOL    MW419074   0.133   3.043   5.359 -0.2606  0.1506 -0.0643
 4836SOL     OW19075   1.776   2.876   3.469 -0.5991 -0.1735 -0.0672
 4836SOL    HW219076   1.748   2.891   3.559 -1.7418 -1.5224 -0.1751
 4836SOL    HW319077   1.772   2.962   3.428 -0.9201  0.2998  0.9311
 4836SOL    MW419078   1.772   2.889   3.475  0.0517  0.1176  0.1835
 4837SOL     OW19079   5.278   1.362   5.977  0.2262  0.0142 -0.0215
 4837SOL    HW219080   5.183   1.372   5.986  0.2749 -0.1148  0.6502
 4837SOL    HW319081   5.290   1.272   5.945  0.1001  0.2012 -0.6125
 4837SOL    MW419082   5.267   1.351   5.974 -0.2143  0.2851  0.2857
 4838SOL     OW19083   0.803   6.340   1.594  0.2543 -0.7914 -0.9611
 4838SOL    HW219084   0.854   6.260   1.605  0.6187 -0.2783  1.9005
 4838SOL    HW319085   0.864   6.402   1.553  1.4848 -0.6870  0.8990
 4838SOL    MW419086   0.818   6.338   1.590  0.3846  0.0464 -0.1437
 4839SOL     OW19087   5.230   2.263   4.215  0.2695  0.7606  0.1093
 4839SOL    HW219088   5.146   2.305   4.233  1.2765  2.3138  1.6411
 4839SOL    HW319089   5.282   2.332   4.173  1.5752  0.7137  1.5632
 4839SOL    MW419090   5.226   2.278   4.212  0.4813  0.1224  0.6280
 4840SOL     OW19091   3.316   2.021   0.255  0.2356 -0.2896  0.3084
 4840SOL    HW219092   3.379   1.985   0.193 -1.1501  0.2576 -1.4973
 4840SOL    HW319093   3.335   1.976   0.338  4.3683  1.3777  0.4710
 4840SOL    MW419094   3.327   2.010   0.258 -0.0640 -0.2097  0.1979
 4841SOL     OW19095   0.100   5.829   3.278 -0.2439  0.2463  0.5512
 4841SOL    HW219096   0.076   5.922   3.281 -1.1243  0.0516  0.1351
 4841SOL    HW319097   0.165   5.818   3.347  0.3777  1.3080  0.1570
 4841SOL    MW419098   0.105   5.840   3.288  0.4686 -0.4179 -0.3587
 4842SOL     OW19099   2.739   6.362   3.173  0.5541  0.7394 -0.2159
 4842SOL    HW219100   2.763   6.373   3.265 -0.0276  3.6370 -0.3212
 4842SOL    HW319101   2.644   6.360   3.173  0.5505  0.7438 -0.7438
 4842SOL    MW419102   2.730   6.363   3.185 -0.4634  0.3064  0.1189
 4843SOL     OW19103   0.902   5.882   4.191 -0.1381 -0.2239  0.2568
 4843SOL    HW219104   0.851   5.809   4.228 -0.1484 -1.5690 -2.2113
 4843SOL    HW319105   0.972   5.897   4.254 -1.7469 -0.4598  2.1869
 4843SOL    MW419106   0.904   5.874   4.204  0.9020  0.2417 -0.1473
 4844SOL     OW19107   0.298   2.635   6.192  0.7632 -0.5217 -0.2659
 4844SOL    HW219108   0.228   2.570   6.195  1.9300 -1.7866  1.5413
 4844SOL    HW319109   0.267   2.701   6.130 -1.7174 -1.3722 -0.0386
 4844SOL    MW419110   0.285   2.635   6.184 -0.1220 -0.2680 -0.3536
 4845SOL     OW19111   0.629   2.868   1.172 -0.0718  0.4462 -0.0970
 4845SOL    HW219112   0.649   2.962   1.167 -0.6987  0.5595 -0.8306
 4845SOL    HW319113   0.587   2.849   1.088 -0.1304 -0.4518  0.1300
 4845SOL    MW419114   0.626   2.878   1.160 -0.9482  1.0999 -0.4482
 4846SOL     OW19115   3.411   0.165   4.172 -0.0426  0.5669 -0.7986
 4846SOL    HW219116   3.316   0.176   4.181  0.1552  1.9151 -0.1376
 4846SOL    HW319117   3.432   0.091   4.228 -0.5037  1.3033  0.3977
 4846SOL    MW419118   3.401   0.157   4.180  0.1154  0.0902  0.1820
 4847SOL     OW19119   1.119   1.127   5.277  0.3880 -0.0504  0.1892
 4847SOL    HW219120   1.188   1.092   5.220  0.5127  1.4888 -0.6385
 4847SOL    HW319121   1.164   1.191   5.332 -0.2107  0.2902  0.2900
 4847SOL    MW419122   1.134   1.131   5.277  0.2010 -0.0549 -0.4331
 4848SOL     OW19123   1.401   3.195   0.327  0.0766  0.1565 -0.9222
 4848SOL    HW219124   1.398   3.259   0.256  0.0151 -1.2892 -2.2846
 4848SOL    HW319125   1.395   3.110   0.282  0.3650 -0.8066  0.8007
 4848SOL    MW419126   1.400   3.192   0.311  0.1066 -0.1485  0.6164
 4849SOL     OW19127   4.574   4.533   4.461  0.4755 -0.0907  0.2256
 4849SOL    HW219128   4.628   4.522   4.539 -0.6033 -2.4196  0.7354
 4849SOL    HW319129   4.638   4.538   4.389  1.4554  1.3960  1.1553
 4849SOL    MW419130   4.590   4.532   4.462  0.3650 -0.5697  0.2292
 4850SOL     OW19131   1.287   0.016   4.603  0.1629 -0.2642 -0.0256
 4850SOL    HW219132   1.263   0.027   4.511  0.4902 -1.3376 -0.2474
 4850SOL    HW319133   1.246  -0.066   4.629  1.1947 -0.6620  0.4029
 4850SOL    MW419134   1.278   0.007   4.595 -0.0282 -0.3940 -0.0843
 4851SOL     OW19135   5.682   1.795   2.938  0.0118  0.4174 -0.6298
 4851SOL    HW219136   5.636   1.878   2.946 -0.6374 -0.0718  1.2498
 4851SOL    HW319137   5.622   1.730   2.975  1.3285 -0.5663 -0.1204
 4851SOL    MW419138   5.668   1.797   2.944  0.0698 -0.4070  0.2915
 4852SOL     OW19139   1.687   1.959   0.769 -0.0797 -0.1939 -0.6975
 4852SOL    HW219140   1.752   2.005   0.822 -0.1575 -1.6927  0.7862
 4852SOL    HW319141   1.614   1.944   0.830 -0.1713 -1.9606 -1.2125
 4852SOL    MW419142   1.686   1.963   0.784  0.2879  0.1208 -0.8942
 4853SOL     OW19143   2.228   3.494   3.934 -0.0398  0.2469 -0.3706
 4853SOL    HW219144   2.160   3.559   3.951 -1.4977 -1.2001 -0.4626
 4853SOL    HW319145   2.226   3.481   3.839 -1.8912 -2.0533 -0.1121
 4853SOL    MW419146   2.219   3.501   3.924 -0.2190 -0.1361  1.0733
 4854SOL     OW19147   1.455   4.211   2.038 -0.7561  0.2683 -0.3579
 4854SOL    HW219148   1.501   4.243   1.961 -0.1407  0.5010  0.1002
 4854SOL    HW319149   1.521   4.162   2.087 -1.2275 -0.1640 -0.1434
 4854SOL    MW419150   1.470   4.209   2.034 -0.1118 -0.2784 -0.0183
 4855SOL     OW19151   5.231   4.991   2.318 -0.1081  0.2045  0.0391
 4855SOL    HW219152   5.208   5.000   2.226 -1.0662 -0.6205  0.1879
 4855SOL    HW319153   5.323   4.964   2.317 -0.3599 -0.6607 -0.7005
 4855SOL    MW419154   5.240   4.989   2.306  0.5373 -0.1400  1.0949
 4856SOL     OW19155   6.412   6.099   2.544 -0.4230  0.1573  0.1008
 4856SOL    HW219156   6.332   6.067   2.585 -0.7542  1.3790  0.4435
 4856SOL    HW319157   6.474   6.027   2.553 -1.3804 -0.6908  0.1091
 4856SOL    MW419158   6.410   6.086   2.550 -0.1001  0.0724 -0.1413
 4857SOL     OW19159   0.370   0.249   1.481 -0.6986 -0.2426 -0.0613
 4857SOL    HW219160   0.298   0.226   1.422 -1.1955  0.8464  0.0993
 4857SOL    HW319161   0.357   0.342   1.500 -0.0810 -0.3754  1.1160
 4857SOL    MW419162   0.359   0.258   1.476 -0.1628  0.6737  0.3412
 4858SOL     OW19163   5.553   0.153   1.005  0.2053 -0.6426 -0.0429
 4858SOL    HW219164   5.546   0.152   1.101  0.2176 -1.7303 -0.0359
 4858SOL    HW319165   5.540   0.062   0.980  0.2335 -0.3695 -1.0837
 4858SOL    MW419166   5.550   0.141   1.014 -0.2484  0.1440 -0.0289
 4859SOL     OW19167   2.416   4.552   3.843 -0.4737  0.5750  0.8289
 4859SOL    HW219168   2.456   4.553   3.756 -0.5507 -0.2893  0.7769
 4859SOL    HW319169   2.322   4.557   3.826 -0.4899  0.3800  0.8685
 4859SOL    MW419170   2.409   4.553   3.829 -0.2257 -0.1551  0.7179
 4860SOL     OW19171   2.414   3.297   5.498 -0.0135 -0.2360 -0.1247
 4860SOL    HW219172   2.401   3.291   5.403 -0.4097 -1.1332 -0.0297
 4860SOL    HW319173   2.355   3.367   5.526  0.6544  0.5464 -0.6299
 4860SOL    MW419174   2.404   3.305   5.489  0.0754  0.5219 -0.1079
 4861SOL     OW19175   0.025   1.992   2.068 -0.2276 -0.2622 -0.0821
 4861SOL    HW219176   0.092   1.963   2.006  0.1572 -0.7069  0.5284
 4861SOL    HW319177  -0.057   1.978   2.022 -0.0049 -1.5694 -0.1348
 4861SOL    MW419178   0.023   1.986   2.054  0.0561  0.4479 -0.7750
 4862SOL     OW19179   0.505   6.141   2.266 -0.5654  0.3923 -0.1486
 4862SOL    HW219180   0.583   6.135   2.321 -1.7265  0.9267  1.6144
 4862SOL    HW319181   0.512   6.066   2.207  2.0095  1.2239 -1.0948
 4862SOL    MW419182   0.516   6.131   2.265 -0.0921  0.2913  0.1885
 4863SOL     OW19183   0.005   6.380   0.071  0.4004 -0.0095 -0.3495
 4863SOL    HW219184   0.049   6.464   0.083 -0.5373  0.4335  0.1264
 4863SOL    HW319185  -0.025   6.381  -0.020  2.2040 -0.7427 -0.9849
 4863SOL    MW419186   0.007   6.392   0.061  0.1858 -0.1441 -0.3400
 4864SOL     OW19187   3.809   3.191   4.766  0.3005 -0.0190  0.4117
 4864SOL    HW219188   3.758   3.268   4.740  1.9560  0.6202 -1.1211
 4864SOL    HW319189   3.752   3.117   4.745 -0.0213  0.6729 -1.3364
 4864SOL    MW419190   3.795   3.191   4.759  0.0470 -0.2191 -0.3606
 4865SOL     OW19191   0.045   4.667   4.319 -0.2907  0.1016 -0.2564
 4865SOL    HW219192  -0.003   4.746   4.343 -1.1252 -0.6527  0.6482
 4865SOL    HW319193   0.043   4.665   4.224  1.5535  2.2430 -0.4326
 4865SOL    MW419194   0.039   4.677   4.310  0.5680 -0.2744 -0.2079
 4866SOL     OW19195   5.287   0.540   3.727  0.6349  0.1310  1.2132
 4866SOL    HW219196   5.369   0.503   3.760  0.3033  1.4885  3.7924
 4866SOL    HW319197   5.241   0.570   3.805 -3.0529 -1.8830  0.0449
 4866SOL    MW419198   5.292   0.539   3.741  0.5867 -0.7927 -0.1012
 4867SOL     OW19199   3.317   2.057   6.360 -0.3844  0.3410  0.0324
 4867SOL    HW219200   3.362   1.990   6.412 -1.7565 -0.1215  0.6603
 4867SOL    HW319201   3.282   2.118   6.425 -1.1906  0.3532 -0.4061
 4867SOL    MW419202   3.318   2.056   6.375  0.0263  0.1372  0.6260
 4868SOL     OW19203   4.583   3.878   4.920 -0.0202  0.8816 -0.0835
 4868SOL    HW219204   4.532   3.810   4.876  0.2887  0.9787 -0.6060
 4868SOL    HW319205   4.671   3.840   4.928  0.1323  1.1842 -0.3033
 4868SOL    MW419206   4.588   3.864   4.915 -0.3834 -0.0708  0.1239
 4869SOL     OW19207   3.996   5.617   2.049  0.0158  0.3462  0.8862
 4869SOL    HW219208   4.077   5.654   2.014  0.0311  1.1939  1.7779
 4869SOL    HW319209   4.016   5.524   2.061  1.3965  0.7859  2.4755
 4869SOL    MW419210   4.010   5.609   2.046  0.1305 -0.0922  0.1584
 4870SOL     OW19211   3.180   4.306   6.086 -0.2580 -0.3575 -0.5210
 4870SOL    HW219212   3.207   4.262   6.166 -0.5624  0.6224  0.1419
 4870SOL    HW319213   3.177   4.399   6.109 -1.8321 -0.2003 -1.2462
 4870SOL    MW419214   3.183   4.312   6.099  0.1548 -0.0840  0.3892
 4871SOL     OW19215   1.012   0.050   5.887 -0.2747 -0.3172 -0.0901
 4871SOL    HW219216   1.074   0.079   5.953  0.8109  0.3648 -1.3724
 4871SOL    HW319217   0.926   0.073   5.924  0.4170  3.4591 -0.4029
 4871SOL    MW419218   1.009   0.057   5.901 -0.3707 -0.1330  0.3340
 4872SOL     OW19219   1.412   0.547   2.522  0.1453  0.1192 -0.4173
 4872SOL    HW219220   1.497   0.589   2.531 -0.3967  1.1431  0.1167
 4872SOL    HW319221   1.391   0.555   2.430  0.8372 -0.5975 -0.6540
 4872SOL    MW419222   1.420   0.553   2.511 -0.1731  0.0753  0.1512
 4873SOL     OW19223   0.886   1.224   5.171 -0.0698 -0.8054 -0.6466
 4873SOL    HW219224   0.854   1.178   5.094  1.5232  0.1261 -1.9170
 4873SOL    HW319225   0.967   1.179   5.194  0.3297 -0.0485 -0.5368
 4873SOL    MW419226   0.892   1.212   5.164 -0.4142  0.0928  0.0679
 4874SOL     OW19227   1.501   6.271   2.331  0.4744 -0.4159  0.5035
 4874SOL    HW219228   1.561   6.341   2.353  0.0944 -0.3767  1.4624
 4874SOL    HW319229   1.434   6.274   2.399 -0.5352 -0.5532 -0.4488
 4874SOL    MW419230   1.500   6.281   2.343  0.4772 -0.0296  0.2189
 4875SOL     OW19231   6.249   2.326   5.471  0.6189 -0.4714 -0.3686
 4875SOL    HW219232   6.190   2.370   5.410 -0.5720 -0.7718  0.5187
 4875SOL    HW319233   6.250   2.383   5.548  1.6832 -0.3568 -0.4643
 4875SOL    MW419234   6.241   2.339   5.473 -0.0563 -0.9752  0.0749
 4876SOL     OW19235   1.975   0.708   0.686  0.8542 -0.6899  0.0905
 4876SOL    HW219236   1.952   0.715   0.593  0.0898  1.2136  0.3630
 4876SOL    HW319237   2.056   0.758   0.694  0.8226 -0.6953  0.4584
 4876SOL    MW419238   1.983   0.716   0.674 -0.1316  0.4186 -0.4033
 4877SOL     OW19239   4.908   2.020   2.522 -0.3727  0.2486 -0.0858
 4877SOL    HW219240   4.956   2.043   2.442 -0.9090  0.0784 -0.4623
 4877SOL    HW319241   4.889   2.104   2.564  0.6840  0.3010  0.3353
 4877SOL    MW419242   4.912   2.034   2.517 -0.2814  0.1316 -0.0105
 4878SOL     OW19243   0.980   0.729   2.086  0.9938 -0.0875 -0.0901
 4878SOL    HW219244   0.965   0.818   2.054 -0.0665  0.9795  3.0424
 4878SOL    HW319245   0.900   0.681   2.063 -0.1524  0.9124  1.6224
 4878SOL    MW419246   0.968   0.734   2.079  0.2489 -0.3352 -0.4451
 4879SOL     OW19247   1.962   5.273   3.540 -0.0321 -0.6973  0.0576
 4879SOL    HW219248   1.892   5.284   3.475  0.3169  0.0373 -0.2040
 4879SOL    HW319249   1.938   5.193   3.587 -0.1579 -1.4022 -1.1534
 4879SOL    MW419250   1.949   5.263   3.537  0.3978  0.0880 -0.1640
 4880SOL     OW19251   4.037   2.929   6.051  0.1212  0.2591  0.4434
 4880SOL    HW219252   3.941   2.930   6.053  0.0767 -1.0901 -0.0538
 4880SOL    HW319253   4.063   2.966   6.136 -0.7223  4.5050 -0.8927
 4880SOL    MW419254   4.028   2.934   6.063 -0.0768  0.1386  0.5980
 4881SOL     OW19255   3.063   0.219   0.440  0.0695  0.8778  0.2078
 4881SOL    HW219256   3.025   0.211   0.527  0.8637  1.4726  0.6285
 4881SOL    HW319257   3.139   0.276   0.452  3.0283 -2.6129  0.0800
 4881SOL    MW419258   3.068   0.225   0.453 -0.1160  0.5016  0.2868
 4882SOL     OW19259   4.792   3.417   4.252 -0.0798 -0.6835 -0.3773
 4882SOL    HW219260   4.747   3.499   4.273 -1.2278 -1.6655  1.2336
 4882SOL    HW319261   4.879   3.426   4.289  0.6180  0.6302 -2.1649
 4882SOL    MW419262   4.797   3.429   4.259 -1.0741 -0.0606 -0.0571
 4883SOL     OW19263   3.171   0.500   5.765  0.3218 -0.4476 -0.0877
 4883SOL    HW219264   3.217   0.436   5.819  0.5254 -0.0391  0.2300
 4883SOL    HW319265   3.187   0.584   5.809 -0.5217 -0.2687 -0.1051
 4883SOL    MW419266   3.179   0.503   5.778  0.2290  0.2232  0.1091
 4884SOL     OW19267   3.946   3.367   2.067 -0.1816  0.1562 -0.5404
 4884SOL    HW219268   4.029   3.387   2.022 -0.2965 -3.1514 -2.5208
 4884SOL    HW319269   3.973   3.337   2.154  0.6667 -0.1059 -0.8780
 4884SOL    MW419270   3.961   3.366   2.073  0.3441  0.5115  0.0032
 4885SOL     OW19271   5.607   1.786   4.391 -0.2514  0.3221 -0.2360
 4885SOL    HW219272   5.654   1.854   4.343  0.1472  0.5219  0.4208
 4885SOL    HW319273   5.658   1.773   4.470 -0.6440 -0.3349 -0.0832
 4885SOL    MW419274   5.620   1.794   4.395 -0.2606  0.1247  0.3568
 4886SOL     OW19275   4.837   5.250   4.254 -0.3285 -0.1176  0.5687
 4886SOL    HW219276   4.761   5.295   4.217 -0.5347 -1.6062 -0.9094
 4886SOL    HW319277   4.800   5.186   4.315 -0.3907 -1.5925 -0.9507
 4886SOL    MW419278   4.822   5.248   4.258 -0.4959 -0.1026  0.2083
 4887SOL     OW19279   1.582   0.467   4.817  0.0542 -0.2406  0.5496
 4887SOL    HW219280   1.663   0.519   4.817 -0.6871  0.9854 -0.9656
 4887SOL    HW319281   1.599   0.396   4.756 -0.6336  1.1682 -1.3965
 4887SOL    MW419282   1.595   0.465   4.809  0.3814  0.2955 -0.1350
 4888SOL     OW19283   2.242   1.339   3.665 -0.0358 -0.4832 -0.1752
 4888SOL    HW219284   2.297   1.393   3.608 -0.0701 -1.3369 -1.0438
 4888SOL    HW319285   2.153   1.372   3.651 -0.0024 -0.4727 -0.3644
 4888SOL    MW419286   2.238   1.351   3.656 -1.2496 -0.0298 -0.5219
 4889SOL     OW19287   5.383   4.407   2.405 -0.1110  0.0908 -0.0366
 4889SOL    HW219288   5.471   4.382   2.435 -0.1331 -0.0228 -0.0685
 4889SOL    HW319289   5.383   4.503   2.412 -0.0029  0.0882  0.0155
 4889SOL    MW419290   5.395   4.417   2.410 -0.4499  0.2744  0.5847
 4890SOL     OW19291   5.154   5.595   5.052 -0.2824 -0.1179  0.2815
 4890SOL    HW219292   5.149   5.503   5.029  0.3069 -0.6251  2.0172
 4890SOL    HW319293   5.248   5.613   5.059 -0.3942 -0.0732  2.3399
 4890SOL    MW419294   5.166   5.585   5.050 -0.4289 -0.2672 -0.4249
 4891SOL     OW19295   2.721   1.404   0.569 -0.0960 -0.3167  0.0179
 4891SOL    HW219296   2.685   1.348   0.637  0.8162 -1.7462 -0.6391
 4891SOL    HW319297   2.661   1.396   0.496  0.4716 -1.1065 -0.3680
 4891SOL    MW419298   2.709   1.396   0.569  0.1593 -0.2234  0.0430
 4892SOL     OW19299   0.632   5.650   2.088 -0.1856 -0.2799 -0.1017
 4892SOL    HW219300   0.668   5.629   2.002  1.1219  1.3845 -0.0095
 4892SOL    HW319301   0.577   5.575   2.110 -0.7475 -0.6444 -2.4800
 4892SOL    MW419302   0.629   5.637   2.080 -0.1468 -0.5170 -0.9778
 4893SOL     OW19303   5.059   1.271   0.207 -0.1205 -0.4352  0.1154
 4893SOL    HW219304   5.131   1.321   0.168  1.5357 -1.6034  1.5162
 4893SOL    HW319305   5.051   1.306   0.296 -1.2308 -0.4143  0.0232
 4893SOL    MW419306   5.067   1.283   0.214  0.0991  0.0825  0.6265
 4894SOL     OW19307   6.154   2.899   4.181  0.0604  0.0695  0.2954
 4894SOL    HW219308   6.189   2.814   4.208 -0.4255 -0.2215  0.0106
 4894SOL    HW319309   6.232   2.954   4.171  0.3574 -0.2538  0.7658
 4894SOL    MW419310   6.169   2.895   4.183  0.0289  0.0363  0.4721
 4895SOL     OW19311   1.379   5.093   3.451 -0.5011  0.4452  0.4943
 4895SOL    HW219312   1.358   5.038   3.526  0.2325  0.5889  0.8127
 4895SOL    HW319313   1.443   5.155   3.484 -2.4474  2.5374  0.5727
 4895SOL    MW419314   1.384   5.094   3.465 -0.0426 -0.3220  0.0747
 4896SOL     OW19315   6.151   4.719   3.583  0.5345  0.2774  0.0675
 4896SOL    HW219316   6.129   4.627   3.567  0.9269  0.2255 -0.1826
 4896SOL    HW319317   6.212   4.717   3.657  0.3978  0.3523  0.1830
 4896SOL    MW419318   6.156   4.707   3.591  0.4401 -0.4080 -0.5231
 4897SOL     OW19319   3.606   2.166   2.243 -0.5031  0.5403 -0.2969
 4897SOL    HW219320   3.547   2.097   2.274 -1.3644  0.6551 -1.6088
 4897SOL    HW319321   3.645   2.130   2.163 -1.6601  1.8743 -1.5147
 4897SOL    MW419322   3.603   2.152   2.237  0.0610 -0.3226 -0.1743
 4898SOL     OW19323   3.923   5.206   1.457  0.0149  0.6241  0.5240
 4898SOL    HW219324   3.918   5.226   1.364 -0.0260  0.9045  0.5852
 4898SOL    HW319325   3.872   5.126   1.468  2.1094 -0.8939 -0.1244
 4898SOL    MW419326   3.916   5.198   1.446 -0.1789  0.7959 -0.5823
 4899SOL     OW19327   3.455   1.999   0.932 -0.1898  0.0139  0.2024
 4899SOL    HW219328   3.373   1.964   0.897  0.4981 -1.4001 -0.0419
 4899SOL    HW319329   3.427   2.071   0.989 -1.6160 -0.5630  0.2808
 4899SOL    MW419330   3.440   2.004   0.935 -0.1097  0.8401  0.1577
 4900SOL     OW19331   2.482   3.658   3.692  0.5697 -0.0453  0.1393
 4900SOL    HW219332   2.482   3.639   3.598 -0.3273  1.4523 -0.1891
 4900SOL    HW319333   2.463   3.751   3.698  0.7001 -0.0940  1.8231
 4900SOL    MW419334   2.480   3.668   3.681 -0.3882 -0.2025 -0.7593
 4901SOL     OW19335   0.981   3.709   4.888 -0.1911  0.1138 -0.1473
 4901SOL    HW219336   1.033   3.767   4.833 -0.6089 -0.6529 -1.3952
 4901SOL    HW319337   0.946   3.643   4.828 -1.2388 -0.3583  0.9252
 4901SOL    MW419338   0.983   3.708   4.873  0.4512 -0.7924 -0.1522
 4902SOL     OW19339   4.916   1.160   4.236 -0.2839  0.2047 -0.0956
 4902SOL    HW219340   4.973   1.084   4.244 -1.0372 -0.4191 -0.5699
 4902SOL    HW319341   4.884   1.175   4.325 -1.3968 -1.0397 -0.2537
 4902SOL    MW419342   4.919   1.152   4.249 -0.2183  0.0768 -0.1445
 4903SOL     OW19343   4.859   0.616   0.547  0.6929  0.0766 -0.3292
 4903SOL    HW219344   4.881   0.604   0.639 -1.1554 -0.6831  0.0461
 4903SOL    HW319345   4.942   0.601   0.501  1.7066  0.7270  1.1969
 4903SOL    MW419346   4.873   0.612   0.553 -0.5368 -0.1187  0.0149
 4904SOL     OW19347   2.836   3.740   2.010 -0.1556 -0.4867 -0.3373
 4904SOL    HW219348   2.782   3.703   1.940 -0.6590 -0.1508 -0.1354
 4904SOL    HW319349   2.820   3.683   2.085 -1.2280  0.3392  0.0823
 4904SOL    MW419350   2.827   3.727   2.011 -0.1800 -0.3602  0.4598
 4905SOL     OW19351   3.125   1.396   4.552 -0.0565 -0.3101  0.2845
 4905SOL    HW219352   3.031   1.395   4.570  0.1951  0.7427  1.8890
 4905SOL    HW319353   3.161   1.326   4.606  0.2716  0.4679  1.1052
 4905SOL    MW419354   3.117   1.387   4.561  0.2598 -0.3702  0.2907
 4906SOL     OW19355   3.566   0.733   6.293 -0.0423 -0.2867  0.0787
 4906SOL    HW219356   3.501   0.706   6.359  1.6946 -2.0563  1.2041
 4906SOL    HW319357   3.529   0.705   6.210 -1.1460 -0.3567  0.5732
 4906SOL    MW419358   3.553   0.726   6.291  0.7389 -0.1387 -0.1835
 4907SOL     OW19359   4.209   1.903   0.176 -0.3603 -0.0447  0.2077
 4907SOL    HW219360   4.262   1.864   0.245 -1.2634 -1.1047  0.3216
 4907SOL    HW319361   4.270   1.959   0.128  0.8748 -1.2467  0.3090
 4907SOL    MW419362   4.224   1.905   0.179  0.4531 -0.2814  0.0015
 4908SOL     OW19363   1.295   3.418   1.513 -0.5169  1.0131 -0.0159
 4908SOL    HW219364   1.384   3.385   1.499  0.2427  2.4850  1.0716
 4908SOL    HW319365   1.266   3.446   1.426 -0.3074 -0.3365 -0.5480
 4908SOL    MW419366   1.303   3.417   1.499  0.3212 -0.2141 -0.4991
 4909SOL     OW19367   2.280   0.556   4.022 -0.2213  0.0331  1.2745
 4909SOL    HW219368   2.337   0.631   4.039  0.6742 -0.5089  0.8199
 4909SOL    HW319369   2.191   0.588   4.034  0.1862  0.9480  1.8719
 4909SOL    MW419370   2.276   0.570   4.026  0.0322  0.4336  0.2878
 4910SOL     OW19371   4.690   0.671   0.103  0.0267 -0.7583 -0.2979
 4910SOL    HW219372   4.606   0.690   0.059  0.6302  0.3014 -1.0243
 4910SOL    HW319373   4.702   0.577   0.090 -1.0966 -0.9501 -0.0876
 4910SOL    MW419374   4.680   0.661   0.095  0.1926  0.0161  0.3944
 4911SOL     OW19375   5.193   4.412   4.873 -0.1242 -0.2847 -0.4133
 4911SOL    HW219376   5.139   4.353   4.926  1.0917 -0.8072  0.2805
 4911SOL    HW319377   5.152   4.498   4.884  0.9623 -0.0257  2.7529
 4911SOL    MW419378   5.180   4.416   4.882  0.4622  0.2689  0.3574
 4912SOL     OW19379   1.660   0.243   3.294 -0.1526 -0.0550 -0.1356
 4912SOL    HW219380   1.620   0.260   3.379 -0.0217 -1.9710  0.3475
 4912SOL    HW319381   1.732   0.183   3.312  0.5985  0.3946 -1.4761
 4912SOL    MW419382   1.664   0.238   3.307  0.3327  1.2126  0.3976
 4913SOL     OW19383   3.024   5.627   0.089  0.7195  0.2299  0.1329
 4913SOL    HW219384   2.946   5.598   0.041  0.7739 -0.2196  0.3198
 4913SOL    HW319385   3.077   5.548   0.101  1.0913  0.4883  0.2228
 4913SOL    MW419386   3.021   5.613   0.084  0.2660 -0.0320 -0.1675
 4914SOL     OW19387   2.574   5.394   4.715  0.0863 -0.3993 -0.2052
 4914SOL    HW219388   2.576   5.338   4.637 -1.9118 -0.5341 -0.1997
 4914SOL    HW319389   2.488   5.434   4.714  0.0301 -0.3627  1.9226
 4914SOL    MW419390   2.563   5.392   4.705  0.3289 -0.4398 -0.0488
 4915SOL     OW19391   1.936   0.850   1.527  0.3553  0.6465  0.3614
 4915SOL    HW219392   1.851   0.850   1.483  0.8474  1.5710 -0.6112
 4915SOL    HW319393   1.927   0.914   1.597 -0.2612 -0.4556  1.3312
 4915SOL    MW419394   1.924   0.858   1.531  0.2749  0.5568 -0.3432
 4916SOL     OW19395   3.844   3.213   3.188  0.4015 -0.0868  0.0541
 4916SOL    HW219396   3.797   3.244   3.265  0.7473  1.1222 -0.2005
 4916SOL    HW319397   3.932   3.249   3.198  0.9464 -1.3211 -0.0741
 4916SOL    MW419398   3.850   3.221   3.199 -0.5776  0.0625 -0.2797
 4917SOL     OW19399   1.735   6.229   5.082  0.4628 -0.2935  0.1127
 4917SOL    HW219400   1.716   6.170   5.154  2.3890 -0.1639  0.7806
 4917SOL    HW319401   1.652   6.237   5.034 -1.1753  0.4705  2.8761
 4917SOL    MW419402   1.722   6.222   5.085 -0.1309  0.6961  0.3424
 4918SOL     OW19403   3.619   2.027   6.108  0.0110 -0.3318  0.3493
 4918SOL    HW219404   3.644   2.061   6.022  0.2136  1.4010  1.0567
 4918SOL    HW319405   3.531   1.991   6.095  0.2128 -0.5005 -0.6653
 4918SOL    MW419406   3.611   2.027   6.095 -0.8510  0.4040  0.5424
 4919SOL     OW19407   0.189   6.130   3.965 -0.5617 -0.3172 -0.0251
 4919SOL    HW219408   0.266   6.164   3.919 -1.5900  1.5566 -0.4896
 4919SOL    HW319409   0.191   6.175   4.049 -2.0235  1.0885 -0.6929
 4919SOL    MW419410   0.200   6.141   3.970 -0.4760  1.0554 -0.8617
 4920SOL     OW19411   5.121   1.067   2.055  0.3593  0.7024 -0.1456
 4920SOL    HW219412   5.141   1.117   1.976  1.9290  1.1479  0.4924
 4920SOL    HW319413   5.107   1.133   2.123 -3.1842  0.4229 -0.4158
 4920SOL    MW419414   5.122   1.082   2.054  0.1968  0.3047  0.0425
 4921SOL     OW19415   2.424   3.164   4.618 -0.1315  0.7202  0.0639
 4921SOL    HW219416   2.448   3.105   4.689  1.0024 -0.5273 -1.2984
 4921SOL    HW319417   2.465   3.127   4.540 -1.3003  2.0538 -1.2647
 4921SOL    MW419418   2.433   3.151   4.617  0.3836 -0.0758  0.2308
 4922SOL     OW19419   4.713   5.932   5.140  0.1724  0.1993 -0.3051
 4922SOL    HW219420   4.655   6.003   5.112 -1.0690 -0.5546  0.2354
 4922SOL    HW319421   4.706   5.867   5.070 -1.4084 -0.8418  0.7540
 4922SOL    MW419422   4.704   5.933   5.127  0.0176  0.7017  0.2515
 4923SOL     OW19423   2.308   2.700   2.998  0.2999 -0.1494 -0.2629
 4923SOL    HW219424   2.317   2.627   2.938 -0.4644 -0.5180  0.0543
 4923SOL    HW319425   2.393   2.743   2.997  0.1519  0.1637 -1.9873
 4923SOL    MW419426   2.320   2.696   2.990 -0.2740 -0.0697 -0.1385
 4924SOL     OW19427   4.769   1.691   6.134  0.3236 -0.2027 -0.1879
 4924SOL    HW219428   4.711   1.618   6.111 -0.7206  0.6931 -0.4639
 4924SOL    HW319429   4.731   1.767   6.090 -0.0462  0.9988  2.0254
 4924SOL    MW419430   4.756   1.691   6.125  0.6899  0.6747  0.0644
 4925SOL     OW19431   3.652   5.784   0.470 -0.3648  0.2951  0.0355
 4925SOL    HW219432   3.562   5.774   0.499 -0.6721 -1.3021 -1.3213
 4925SOL    HW319433   3.652   5.867   0.421 -0.6222  1.2421  1.5762
 4925SOL    MW419434   3.640   5.794   0.467  0.0112  0.2481  0.0517
 4926SOL     OW19435   3.645   2.074   0.745  0.5925 -0.1041  0.0212
 4926SOL    HW219436   3.659   2.169   0.747 -0.6209  0.0988  1.8763
 4926SOL    HW319437   3.588   2.057   0.821 -1.1255 -2.0058 -1.5854
 4926SOL    MW419438   3.639   2.085   0.756  0.1717 -0.0035  0.1471
 4927SOL     OW19439   2.124   3.159   2.965 -0.3179  1.0647 -0.3466
 4927SOL    HW219440   2.187   3.196   3.028 -0.3055  2.0385 -0.8998
 4927SOL    HW319441   2.067   3.103   3.017  2.5895 -2.0427 -0.1809
 4927SOL    MW419442   2.125   3.157   2.980 -0.4225 -0.3726  0.0677
 4928SOL     OW19443   3.583   2.963   0.424 -0.3271 -0.0138 -0.8731
 4928SOL    HW219444   3.617   2.947   0.336 -1.1281  1.5099 -1.5130
 4928SOL    HW319445   3.628   3.042   0.453 -0.6913 -0.0247 -0.2678
 4928SOL    MW419446   3.593   2.971   0.416 -0.4300 -0.5389  0.3514
 4929SOL     OW19447   4.907   2.196   4.195  0.1865 -0.4057 -0.0468
 4929SOL    HW219448   4.880   2.284   4.168  3.7891  1.2159  1.0050
 4929SOL    HW319449   4.927   2.151   4.113  1.4791  0.9953 -0.5581
 4929SOL    MW419450   4.906   2.202   4.181  0.1316 -0.2065 -0.2701
 4930SOL     OW19451   2.849   5.149   0.864 -0.4832  0.4908 -0.3600
 4930SOL    HW219452   2.928   5.128   0.814  0.5385 -0.4791  1.5445
 4930SOL    HW319453   2.782   5.164   0.797  0.2901 -2.6331 -2.0483
 4930SOL    MW419454   2.851   5.148   0.848 -0.6526 -0.0007 -0.3120
 4931SOL     OW19455   4.168   2.848   2.370  0.5804  0.2468  0.3971
 4931SOL    HW219456   4.259   2.839   2.342  0.1046  0.0618 -1.1708
 4931SOL    HW319457   4.120   2.872   2.291 -0.7306  0.4071  1.2039
 4931SOL    MW419458   4.174   2.850   2.356  0.3222 -0.7733 -0.3301
 4932SOL     OW19459   5.800   2.975   1.677 -0.1210  0.1111  0.7416
 4932SOL    HW219460   5.763   3.059   1.705 -1.7110 -0.3587  0.1401
 4932SOL    HW319461   5.796   2.977   1.581  3.0849  0.7326  0.4869
 4932SOL    MW419462   5.795   2.986   1.668  0.0920 -0.2632  0.2909
 4933SOL     OW19463   1.811   6.051   4.762 -0.5729  0.2693  0.1498
 4933SOL    HW219464   1.833   5.979   4.820 -0.0901 -0.0103 -0.3690
 4933SOL    HW319465   1.764   6.010   4.689  0.4795  0.3299 -0.5901
 4933SOL    MW419466   1.807   6.036   4.760 -0.3931  0.2252  0.3160
 4934SOL     OW19467   2.244   1.559   5.082 -0.1312  0.2379 -0.1932
 4934SOL    HW219468   2.214   1.636   5.130 -2.3288 -0.0723 -0.9719
 4934SOL    HW319469   2.265   1.593   4.995 -0.6765  0.0521 -0.4025
 4934SOL    MW419470   2.243   1.574   5.077  0.3175  0.3306 -0.6186
 4935SOL     OW19471   2.357   1.626   3.782 -0.2200 -0.0991 -0.3291
 4935SOL    HW219472   2.417   1.674   3.724  2.1716 -1.8918  0.5163
 4935SOL    HW319473   2.273   1.627   3.736  0.8305  1.1355 -2.3563
 4935SOL    MW419474   2.354   1.633   3.768  0.0039  0.2387 -0.0706
 4936SOL     OW19475   5.838   3.203   4.316  0.2982  0.0233 -0.0507
 4936SOL    HW219476   5.759   3.238   4.358  1.4513  0.4839  1.8650
 4936SOL    HW319477   5.858   3.265   4.246  0.4044  1.3704  1.1329
 4936SOL    MW419478   5.830   3.215   4.312 -0.4431 -0.4321  0.4508
 4937SOL     OW19479   4.588   0.267   3.077 -0.4377  0.5201  0.5569
 4937SOL    HW219480   4.584   0.202   3.007 -2.8680  0.4443  0.6749
 4937SOL    HW319481   4.660   0.237   3.133  0.0370 -0.7125 -0.6496
 4937SOL    MW419482   4.597   0.254   3.076  0.0089 -0.2717 -0.7306
 4938SOL     OW19483   2.363   0.158   4.524  0.6532 -0.3986 -0.2451
 4938SOL    HW219484   2.294   0.221   4.543  1.8636  1.0789 -0.5521
 4938SOL    HW319485   2.376   0.165   4.429  0.1949 -1.7723 -0.4226
 4938SOL    MW419486   2.356   0.167   4.514 -0.7754 -0.5289  0.0811
 4939SOL     OW19487   6.281   5.616   1.979  0.9360 -0.4420 -0.0178
 4939SOL    HW219488   6.197   5.643   1.943  0.8653 -0.6898 -0.0367
 4939SOL    HW319489   6.261   5.539   2.032  1.2536 -0.9176 -0.5779
 4939SOL    MW419490   6.267   5.609   1.981  0.1763  0.1641 -0.5112
 4940SOL     OW19491   4.397   2.972   4.436 -0.0303 -0.3337 -0.1604
 4940SOL    HW219492   4.315   3.019   4.420 -1.1262 -1.8495  0.7528
 4940SOL    HW319493   4.380   2.921   4.515  1.3734 -1.6575 -0.6814
 4940SOL    MW419494   4.384   2.972   4.444  0.0386  0.3317 -0.4222
 4941SOL     OW19495   1.322   4.808   4.742  0.3010  0.4334 -0.4678
 4941SOL    HW219496   1.404   4.857   4.733  0.9703 -0.4862  0.4693
 4941SOL    HW319497   1.296   4.790   4.652  1.4636  0.1990 -0.7732
 4941SOL    MW419498   1.329   4.812   4.729 -0.2641  0.0643 -0.1238
 4942SOL     OW19499   4.119   2.658   4.510 -0.1884  0.1490  0.4375
 4942SOL    HW219500   4.134   2.577   4.462  1.6597  0.8784 -0.2991
 4942SOL    HW319501   4.031   2.648   4.546 -0.6448 -1.4937 -0.9748
 4942SOL    MW419502   4.110   2.646   4.508  0.1308  0.7541 -1.2090
 4943SOL     OW19503   6.068   3.934   3.106  0.0265  0.6755  0.0964
 4943SOL    HW219504   5.982   3.973   3.087  0.1246 -0.2052 -2.5261
 4943SOL    HW319505   6.076   3.862   3.044  3.1177  1.3945 -0.4854
 4943SOL    MW419506   6.058   3.930   3.096 -0.1109 -0.0810  0.0236
 4944SOL     OW19507   0.868   0.512   3.530 -0.2709 -0.2220 -0.1873
 4944SOL    HW219508   0.913   0.502   3.446 -0.1224 -0.1862 -0.1108
 4944SOL    HW319509   0.786   0.557   3.508 -0.0922  0.0660 -0.2696
 4944SOL    MW419510   0.863   0.517   3.516 -0.5605  0.6154  0.0019
 4945SOL     OW19511   5.919   0.588   0.890  0.6294  0.4131  0.8593
 4945SOL    HW219512   5.937   0.546   0.974 -2.0263 -1.9609  0.4091
 4945SOL    HW319513   5.833   0.628   0.901 -0.5760 -1.4041 -1.0701
 4945SOL    MW419514   5.910   0.587   0.902  0.0516 -1.0155  0.1087
 4946SOL     OW19515   3.834   5.192   6.109 -0.1294 -0.2225  0.4727
 4946SOL    HW219516   3.814   5.137   6.185 -0.9379  3.8603  3.5598
 4946SOL    HW319517   3.930   5.192   6.104 -0.0348 -0.1016  1.9147
 4946SOL    MW419518   3.844   5.185   6.118 -0.2481  0.2529  0.3755
 4947SOL     OW19519   3.310   4.279   2.371 -0.3872  0.0904 -0.0228
 4947SOL    HW219520   3.316   4.341   2.298  1.1342  1.1483  0.9591
 4947SOL    HW319521   3.221   4.245   2.365 -1.2478  2.2703 -0.6805
 4947SOL    MW419522   3.299   4.282   2.360 -0.4824  0.1107  0.4341
 4948SOL     OW19523   6.381   1.011   0.438 -0.3245  0.4741 -0.6044
 4948SOL    HW219524   6.373   1.101   0.467 -1.3334  0.6277 -1.3245
 4948SOL    HW319525   6.330   0.960   0.501  1.2189  0.2234  0.5104
 4948SOL    MW419526   6.373   1.016   0.450  0.2474 -0.0755  0.3041
 4949SOL     OW19527   1.348   0.313   0.199 -0.9825 -0.3276  0.9845
 4949SOL    HW219528   1.370   0.238   0.255 -0.3930 -1.1780 -0.3405
 4949SOL    HW319529   1.404   0.384   0.231  0.4164 -1.2115  0.5543
 4949SOL    MW419530   1.358   0.312   0.211  0.2216  0.3462 -0.1228
 4950SOL     OW19531   4.910   3.704   1.429 -0.6226  0.3371  0.2214
 4950SOL    HW219532   4.831   3.745   1.465 -0.0733  2.5711 -0.9695
 4950SOL    HW319533   4.982   3.748   1.473 -0.0008 -0.1662 -0.2850
 4950SOL    MW419534   4.909   3.715   1.440  0.3580  0.1592 -0.3562
 4951SOL     OW19535   2.714   4.192   2.276  0.7910  0.0654 -0.3873
 4951SOL    HW219536   2.712   4.110   2.226  2.0835 -0.4578  0.3785
 4951SOL    HW319537   2.792   4.237   2.245  0.3697  0.7882 -0.4316
 4951SOL    MW419538   2.724   4.187   2.265  0.6879 -0.2355 -0.6293
 4952SOL     OW19539   1.035   5.124   5.131  0.1274  0.7819 -0.1561
 4952SOL    HW219540   0.995   5.195   5.082 -0.6464 -0.4813 -1.4292
 4952SOL    HW319541   1.076   5.068   5.064  0.1596 -0.3125  0.7406
 4952SOL    MW419542   1.035   5.126   5.116  0.0376 -0.1117  0.8021
 4953SOL     OW19543   4.336   6.011   3.968 -0.5093  0.0633 -0.0737
 4953SOL    HW219544   4.302   6.098   3.945  0.1149  0.5017  0.6045
 4953SOL    HW319545   4.427   6.027   3.993 -0.4575 -0.7534  0.2960
 4953SOL    MW419546   4.344   6.025   3.968 -0.1041 -0.5745 -0.0181
 4954SOL     OW19547   0.773   1.469   1.653 -0.2291  0.6181 -0.7402
 4954SOL    HW219548   0.757   1.462   1.747  0.9628  0.6581 -0.5146
 4954SOL    HW319549   0.732   1.392   1.615 -0.4147  0.4166 -0.1384
 4954SOL    MW419550   0.766   1.458   1.660  0.4130 -0.0045  0.5398
 4955SOL     OW19551   0.044   5.715   0.565 -0.1931 -0.5229  0.0649
 4955SOL    HW219552  -0.049   5.735   0.578 -0.3848  1.0508 -2.8994
 4955SOL    HW319553   0.082   5.721   0.652 -2.6449  0.0577  1.1786
 4955SOL    MW419554   0.037   5.718   0.578  0.0184  0.0885 -0.2080
 4956SOL     OW19555   5.201   3.527   5.697  0.9239 -0.3359 -0.1209
 4956SOL    HW219556   5.171   3.616   5.678  1.7892 -0.0136 -0.0132
 4956SOL    HW319557   5.244   3.498   5.616  0.5096 -0.7220 -0.2088
 4956SOL    MW419558   5.203   3.535   5.683 -0.4851 -0.0340  0.0875
 4957SOL     OW19559   2.213   3.442   2.168  0.4258  0.3411  0.2005
 4957SOL    HW219560   2.182   3.499   2.238 -0.2401 -0.5633  0.6710
 4957SOL    HW319561   2.305   3.464   2.157  1.3077 -1.3437  3.2346
 4957SOL    MW419562   2.221   3.452   2.176 -0.2270  0.1191  0.0855
 4958SOL     OW19563   3.343   4.574   4.045  0.1002  0.5012  0.4137
 4958SOL    HW219564   3.366   4.656   4.001 -0.6040 -0.1140 -1.1754
 4958SOL    HW319565   3.427   4.529   4.058  0.3363  0.7372 -0.2555
 4958SOL    MW419566   3.357   4.579   4.041 -0.3254 -0.3313 -0.1031
 4959SOL     OW19567   3.003   2.332   0.994 -0.0323 -0.1494  0.0453
 4959SOL    HW219568   2.941   2.305   0.926 -0.0551  2.4896 -1.0905
 4959SOL    HW319569   2.950   2.343   1.073 -0.4762 -0.6209 -0.1837
 4959SOL    MW419570   2.988   2.330   0.996  0.0058  0.5124  0.4284
 4960SOL     OW19571   1.390   5.903   0.145  0.0970  0.2151  0.5491
 4960SOL    HW219572   1.405   5.987   0.102  0.9458 -0.0651  0.2821
 4960SOL    HW319573   1.342   5.925   0.224 -0.4565  0.8601  0.0430
 4960SOL    MW419574   1.386   5.917   0.150 -0.1140 -0.3700  0.2954
 4961SOL     OW19575   0.221   2.374   5.544 -0.6128 -0.7325 -0.2823
 4961SOL    HW219576   0.165   2.298   5.528 -0.8844 -0.2802 -1.6578
 4961SOL    HW319577   0.212   2.427   5.465  0.1467  0.3741  0.3440
 4961SOL    MW419578   0.212   2.371   5.531 -0.2616 -0.0271 -0.0740
 4962SOL     OW19579   1.686   5.722   5.963  0.5061 -0.1631 -0.1211
 4962SOL    HW219580   1.718   5.658   5.900 -0.1505  0.2255 -0.8820
 4962SOL    HW319581   1.707   5.807   5.923  2.5178  0.1430  1.4559
 4962SOL    MW419582   1.693   5.725   5.949 -0.1745  1.1457 -0.2179
 4963SOL     OW19583   1.809   0.485   5.498  0.2206  0.0767 -0.7310
 4963SOL    HW219584   1.793   0.430   5.421 -1.3032  0.1998 -0.5296
 4963SOL    HW319585   1.727   0.483   5.547  0.4009  1.8898 -0.2857
 4963SOL    MW419586   1.796   0.477   5.494  0.0831 -0.3573 -0.0608
 4964SOL     OW19587   5.610   5.265   1.535  0.2098 -0.0571 -0.0424
 4964SOL    HW219588   5.655   5.347   1.557  0.7462 -0.0404 -1.1591
 4964SOL    HW319589   5.548   5.252   1.607  1.6710  0.1558  1.3263
 4964SOL    MW419590   5.608   5.274   1.548 -0.9484  0.3786  0.3000
 4965SOL     OW19591   5.385   4.675   2.470 -0.7557  0.4336 -0.2355
 4965SOL    HW219592   5.437   4.659   2.548 -1.2776  0.1878  0.0670
 4965SOL    HW319593   5.429   4.748   2.426 -0.4288  0.5349  0.2564
 4965SOL    MW419594   5.398   4.682   2.474  0.7065  0.3347 -0.6108
 4966SOL     OW19595   3.440   1.369   4.524  0.4241  0.1879  0.0121
 4966SOL    HW219596   3.410   1.455   4.494 -1.0764 -0.1562  0.4087
 4966SOL    HW319597   3.402   1.307   4.462  0.7805 -0.2476  0.2192
 4966SOL    MW419598   3.431   1.372   4.512 -0.7650 -0.6377 -0.4080
 4967SOL     OW19599   3.126   4.880   2.355  0.1367 -0.6099  0.0001
 4967SOL    HW219600   3.031   4.881   2.350  0.0876  0.6726  0.7160
 4967SOL    HW319601   3.153   4.816   2.289 -1.1827 -0.4019 -0.7744
 4967SOL    MW419602   3.117   4.871   2.346  0.0271  0.7674 -0.3250
 4968SOL     OW19603   0.476   4.778   6.134  0.2108 -0.7689 -0.3585
 4968SOL    HW219604   0.517   4.726   6.203 -1.1736 -0.4222  0.7849
 4968SOL    HW319605   0.491   4.729   6.054 -0.0113 -2.3228  0.5141
 4968SOL    MW419606   0.483   4.765   6.133  0.9225 -0.1225  0.1808
 4969SOL     OW19607   0.595   2.718   5.844 -0.4951 -0.0430  0.3777
 4969SOL    HW219608   0.558   2.777   5.909  1.3447  1.6338  0.0074
 4969SOL    HW319609   0.603   2.634   5.890 -0.9597  0.6038  1.7001
 4969SOL    MW419610   0.591   2.715   5.859 -0.2257  0.3451 -0.9585
 4970SOL     OW19611   5.036   3.352   5.931 -0.1986 -0.4814  0.3841
 4970SOL    HW219612   5.010   3.444   5.928 -0.0727 -0.4730 -0.9722
 4970SOL    HW319613   4.964   3.308   5.977  0.0899  0.3802  1.7331
 4970SOL    MW419614   5.023   3.358   5.937  0.4446 -0.0214  0.5112
 4971SOL     OW19615   1.106   5.852   1.096  0.2632 -0.3236  0.2244
 4971SOL    HW219616   1.020   5.834   1.136 -1.7765  0.3389 -3.3752
 4971SOL    HW319617   1.135   5.768   1.062 -0.5815 -0.0554 -1.2568
 4971SOL    MW419618   1.098   5.839   1.097  0.2200 -0.6215 -0.4087
 4972SOL     OW19619   6.149   0.949   3.393 -0.1748 -0.0349  0.0280
 4972SOL    HW219620   6.084   1.004   3.350 -0.1795 -0.5013 -0.5751
 4972SOL    HW319621   6.160   0.988   3.480  0.4579  1.3997 -0.6785
 4972SOL    MW419622   6.142   0.961   3.399  0.2898  0.2429 -0.2697
 4973SOL     OW19623   1.542   1.610   0.442 -0.5335 -0.9310 -0.4535
 4973SOL    HW219624   1.508   1.576   0.524  0.0781 -1.3827 -0.3776
 4973SOL    HW319625   1.612   1.671   0.469 -1.2249 -0.0541 -0.6043
 4973SOL    MW419626   1.547   1.614   0.456 -0.2046 -0.4124 -0.0370
 4974SOL     OW19627   3.921   4.350   5.159  0.7984 -0.0789  0.7857
 4974SOL    HW219628   4.009   4.382   5.179  1.1147 -0.7959  0.5821
 4974SOL    HW319629   3.924   4.325   5.067  0.2559  0.2827  0.6635
 4974SOL    MW419630   3.933   4.351   5.150  0.0599 -0.0917 -0.3751
 4975SOL     OW19631   2.579   1.560   5.480 -0.0693  0.0142  0.4227
 4975SOL    HW219632   2.574   1.642   5.529  0.1647  1.0725 -1.2585
 4975SOL    HW319633   2.632   1.581   5.403  1.1762 -2.0799  0.6268
 4975SOL    MW419634   2.585   1.573   5.477 -0.0736 -0.1016  0.7575
 4976SOL     OW19635   5.350   5.798   4.418 -0.1560 -0.0175 -0.7099
 4976SOL    HW219636   5.377   5.864   4.353 -1.3206 -0.5391 -1.7615
 4976SOL    HW319637   5.381   5.834   4.502  0.5095  1.1578 -1.4184
 4976SOL    MW419638   5.358   5.812   4.421  0.1790 -0.0330  0.0612
 4977SOL     OW19639   1.533   4.021   0.242  0.6344  0.1349  0.0561
 4977SOL    HW219640   1.562   4.084   0.308  0.9198 -1.4280  1.4983
 4977SOL    HW319641   1.480   3.958   0.291  0.3982 -0.7840 -1.3271
 4977SOL    MW419642   1.530   4.021   0.258 -0.3210 -0.0169  0.3050
 4978SOL     OW19643   5.684   0.891   1.468  0.5313  0.0695  0.1138
 4978SOL    HW219644   5.725   0.823   1.521  1.4233 -1.2825 -2.1744
 4978SOL    HW319645   5.592   0.865   1.462  0.8098 -0.8400 -0.5149
 4978SOL    MW419646   5.678   0.879   1.474  0.0473 -0.5722  0.5782
 4979SOL     OW19647   0.790   2.448   2.279  0.1237 -0.0486  0.5004
 4979SOL    HW219648   0.713   2.505   2.268  2.0559  2.8522  0.8023
 4979SOL    HW319649   0.785   2.388   2.205 -2.5568 -0.1789  0.6753
 4979SOL    MW419650   0.779   2.448   2.268  0.0315 -0.4255  0.2619
 4980SOL     OW19651   1.585   3.249   5.333 -0.0704  0.1702  0.0043
 4980SOL    HW219652   1.618   3.313   5.396 -3.0722  1.1035  0.7670
 4980SOL    HW319653   1.520   3.199   5.381 -1.9686  0.4443 -2.1055
 4980SOL    MW419654   1.581   3.251   5.347 -0.1190  0.1626  0.6723
 4981SOL     OW19655   2.657   4.222   2.571  0.3770 -1.0875  0.6203
 4981SOL    HW219656   2.603   4.150   2.604  1.0223 -1.2377  1.3803
 4981SOL    HW319657   2.665   4.204   2.477 -0.7371 -1.1526  0.5205
 4981SOL    MW419658   2.651   4.210   2.563  0.1459 -0.6841 -0.4817
 4982SOL     OW19659   3.446   1.209   5.578 -0.2763 -0.1584 -0.6251
 4982SOL    HW219660   3.506   1.217   5.503 -1.5299  1.8460 -1.4943
 4982SOL    HW319661   3.404   1.124   5.566  0.0397 -0.1603 -1.8566
 4982SOL    MW419662   3.448   1.199   5.566  0.5960 -0.0505  0.4896
 4983SOL     OW19663   3.691   5.492   4.237  0.0080  0.3487  0.1413
 4983SOL    HW219664   3.614   5.454   4.194  1.0813  0.2658 -1.7923
 4983SOL    HW319665   3.673   5.586   4.240 -0.6640  0.2124  0.7969
 4983SOL    MW419666   3.678   5.499   4.232 -0.2748 -0.2179  0.0758
 4984SOL     OW19667   6.071   4.358   5.432 -0.4096 -0.1163  0.3185
 4984SOL    HW219668   6.062   4.345   5.527 -0.5833  1.3052  0.5272
 4984SOL    HW319669   6.121   4.283   5.402  1.1952  0.2768  1.8455
 4984SOL    MW419670   6.076   4.347   5.441 -0.3008  0.9253  0.0418
 4985SOL     OW19671   1.136   5.447   5.422  0.0370  0.8650  0.5604
 4985SOL    HW219672   1.153   5.356   5.397  1.7852  0.3643  3.1049
 4985SOL    HW319673   1.090   5.485   5.347 -1.7223 -2.3684 -0.2016
 4985SOL    MW419674   1.132   5.440   5.409  0.0146  1.3240  0.2463
 4986SOL     OW19675   3.306   2.062   3.592  0.5052  0.0409  1.0694
 4986SOL    HW219676   3.244   2.134   3.607  0.2553 -0.1478  0.9320
 4986SOL    HW319677   3.301   2.010   3.672  2.0999  1.2210  2.0015
 4986SOL    MW419678   3.297   2.065   3.605  0.3017 -0.0023  0.2638
 4987SOL     OW19679   2.395   2.240   0.130 -0.1830  0.2310 -0.4660
 4987SOL    HW219680   2.300   2.229   0.140 -0.4166  1.9216 -0.6041
 4987SOL    HW319681   2.405   2.281   0.044  0.6249  0.6738 -0.1690
 4987SOL    MW419682   2.384   2.244   0.120 -0.1003  0.2733 -0.5031
 4988SOL     OW19683   3.227   2.582   5.765  0.3820  0.0492  0.1704
 4988SOL    HW219684   3.238   2.676   5.775 -0.3563  0.0651  0.8992
 4988SOL    HW319685   3.315   2.550   5.741  1.0440  0.7039  1.5992
 4988SOL    MW419686   3.240   2.590   5.763  0.3990  0.0928  0.0194
 4989SOL     OW19687   3.323   1.926   6.064  0.2463 -0.1229 -0.3067
 4989SOL    HW219688   3.254   1.896   6.006  0.1135 -1.8009  0.6556
 4989SOL    HW319689   3.284   2.000   6.111 -0.6254 -0.5468 -0.3472
 4989SOL    MW419690   3.309   1.932   6.063  0.0614 -0.1916  0.3908
 4990SOL     OW19691   1.265   0.504   1.159  0.2702 -0.0268 -0.3901
 4990SOL    HW219692   1.358   0.506   1.179  0.0000  0.2156  0.9418
 4990SOL    HW319693   1.222   0.490   1.244 -1.0446  2.6548 -0.5127
 4990SOL    MW419694   1.271   0.502   1.173 -0.5284  0.1051  0.5693
 4991SOL     OW19695   5.517   0.024   1.903 -0.1103 -0.3002  0.0240
 4991SOL    HW219696   5.536   0.072   1.823 -2.2061 -0.4053 -0.6072
 4991SOL    HW319697   5.512   0.091   1.971  2.5114 -0.2961  0.3026
 4991SOL    MW419698   5.519   0.039   1.901  0.2708 -0.7928  0.0639
 4992SOL     OW19699   2.828   4.157   5.537 -0.1571  0.0472 -0.0327
 4992SOL    HW219700   2.823   4.161   5.442 -1.7989 -0.4536  0.0050
 4992SOL    HW319701   2.895   4.221   5.560  0.1651  0.2765 -1.5071
 4992SOL    MW419702   2.836   4.166   5.528  0.0185 -0.2245  0.0321
 4993SOL     OW19703   4.671   2.690   2.187  0.8525 -0.2493  0.1314
 4993SOL    HW219704   4.665   2.740   2.268  1.5078 -1.9218  1.2686
 4993SOL    HW319705   4.582   2.691   2.152  0.7465  1.2494  0.3647
 4993SOL    MW419706   4.658   2.697   2.193 -0.1374 -0.0610 -0.3168
 4994SOL     OW19707   3.982   0.566   1.571 -0.2001  0.0076 -0.7140
 4994SOL    HW219708   3.887   0.560   1.567 -0.3349  0.1415  1.4585
 4994SOL    HW319709   4.004   0.552   1.663  1.8775  0.0859 -1.1477
 4994SOL    MW419710   3.973   0.564   1.582  0.4225 -0.2135 -0.2021
 4995SOL     OW19711   4.110   3.629   0.853  0.1318  0.0491 -0.2285
 4995SOL    HW219712   4.043   3.697   0.850  0.1689  0.1329  0.5933
 4995SOL    HW319713   4.088   3.571   0.780 -0.6499  0.2424 -0.1609
 4995SOL    MW419714   4.098   3.630   0.843  0.0243  0.5393  0.3932
 4996SOL     OW19715   3.445   1.693   6.171 -0.4662  0.1591  0.5079
 4996SOL    HW219716   3.424   1.776   6.127 -1.8395 -0.3961  0.0807
 4996SOL    HW319717   3.535   1.674   6.143 -0.5872  0.8693 -0.4188
 4996SOL    MW419718   3.454   1.702   6.161  0.1867 -0.1264  0.5789
 4997SOL     OW19719   1.998   0.072   1.786 -0.2606 -0.4895 -0.0636
 4997SOL    HW219720   2.078   0.124   1.799 -1.0830  0.7882  0.0274
 4997SOL    HW319721   1.990   0.021   1.866  0.0452 -0.0221  0.2774
 4997SOL    MW419722   2.008   0.072   1.798  0.1474 -0.3639  0.0269
 4998SOL     OW19723   4.828   3.647   0.200 -0.3310 -0.4390  0.3112
 4998SOL    HW219724   4.828   3.584   0.272  0.7509 -1.3153 -0.4256
 4998SOL    HW319725   4.792   3.599   0.126 -1.1165  0.3525  0.1595
 4998SOL    MW419726   4.823   3.632   0.200 -0.3286 -0.0654  0.0210
 4999SOL     OW19727   2.257   1.693   4.827  0.2160 -0.4543  0.0914
 4999SOL    HW219728   2.262   1.624   4.760 -0.7068  0.0120 -0.4625
 4999SOL    HW319729   2.343   1.735   4.824  0.2201 -0.5152 -0.7163
 4999SOL    MW419730   2.269   1.689   4.818 -0.2690  0.0708  0.0346
 5000SOL     OW19731   6.127   6.122   0.048 -0.0433  0.1143  0.3444
 5000SOL    HW219732   6.156   6.195   0.102 -1.0236  0.0497  0.9776
 5000SOL    HW319733   6.075   6.162  -0.021 -2.2932 -0.0781  1.8268
 5000SOL    MW419734   6.124   6.137   0.046 -0.0232  0.4643 -0.2476
 5001SOL     OW19735   0.059   4.736   1.493 -0.0794  1.1070 -0.0592
 5001SOL    HW219736  -0.001   4.691   1.553  0.5072  1.2300  0.6366
 5001SOL    HW319737   0.115   4.666   1.458 -0.9837  0.9095 -1.1506
 5001SOL    MW419738   0.059   4.721   1.496  0.0280 -0.4385 -0.5744
 5002SOL     OW19739   5.452   1.040   4.262  0.1311  0.1193 -0.5675
 5002SOL    HW219740   5.401   0.998   4.194 -1.3864  0.0988  0.5257
 5002SOL    HW319741   5.541   1.045   4.227  0.1127 -2.7716 -1.2789
 5002SOL    MW419742   5.457   1.035   4.249 -0.6078 -0.4932 -0.1122
 5003SOL     OW19743   1.598   5.424   1.438 -0.1713  0.1260  0.0965
 5003SOL    HW219744   1.530   5.473   1.390 -0.1393  0.4105  0.3376
 5003SOL    HW319745   1.648   5.380   1.369  0.1378  0.8710 -0.1734
 5003SOL    MW419746   1.596   5.425   1.422  0.1672 -0.4982  0.7635
 5004SOL     OW19747   0.287   1.033   5.372 -0.0267 -0.1142  0.2760
 5004SOL    HW219748   0.228   1.094   5.327  1.1064  1.1126  0.3734
 5004SOL    HW319749   0.339   0.994   5.302  1.0091  1.0045  0.3736
 5004SOL    MW419750   0.286   1.036   5.357  0.2408 -0.1032  0.0658
 5005SOL     OW19751   1.492   5.584   3.551  0.6413  0.4233 -0.7053
 5005SOL    HW219752   1.491   5.539   3.635 -0.2200 -0.7833 -1.3224
 5005SOL    HW319753   1.575   5.632   3.550  1.6495 -1.2128 -0.0263
 5005SOL    MW419754   1.503   5.584   3.562 -0.0620 -0.4394 -0.5633
 5006SOL     OW19755   3.547   3.138   3.963 -0.4270 -0.0084  0.2922
 5006SOL    HW219756   3.509   3.148   3.876 -0.5009 -0.6393  0.2439
 5006SOL    HW319757   3.473   3.150   4.023 -0.1741  1.4835  0.3204
 5006SOL    MW419758   3.532   3.141   3.960  0.4512  0.1624  0.2463
 5007SOL     OW19759   6.096   1.366   3.073  0.3143  0.2311  0.4702
 5007SOL    HW219760   6.091   1.418   3.153  1.1270  2.1966 -0.6887
 5007SOL    HW319761   6.073   1.277   3.101 -3.7087  1.5407  2.1087
 5007SOL    MW419762   6.092   1.361   3.087  0.0732 -0.1693 -0.5051
 5008SOL     OW19763   2.508   0.632   0.647 -0.3281  0.2974  0.1321
 5008SOL    HW219764   2.517   0.721   0.615 -1.0905 -0.0300 -1.0516
 5008SOL    HW319765   2.537   0.577   0.575 -2.6282 -0.4646 -0.3170
 5008SOL    MW419766   2.513   0.637   0.634  0.2120 -0.5866  0.4328
 5009SOL     OW19767   1.708   5.266   1.802  0.1509  0.0480 -0.3274
 5009SOL    HW219768   1.767   5.234   1.734  0.5423 -0.4805  0.2451
 5009SOL    HW319769   1.694   5.190   1.859  0.2496  0.6143  0.4734
 5009SOL    MW419770   1.714   5.252   1.801  0.6894 -0.2917  0.0702
 5010SOL     OW19771   5.966   4.697   5.807  0.0314 -0.0210 -0.0724
 5010SOL    HW219772   5.924   4.622   5.850  0.7470  0.2006  1.0776
 5010SOL    HW319773   6.048   4.661   5.772 -0.3722 -0.1166 -0.9233
 5010SOL    MW419774   5.972   4.682   5.808 -0.2839 -0.1717 -0.9705
 5011SOL     OW19775   2.172   5.131   2.634  0.1960  0.0768 -0.3523
 5011SOL    HW219776   2.196   5.211   2.586 -0.3030  0.3557 -0.1430
 5011SOL    HW319777   2.102   5.158   2.693  0.4457 -0.3842  0.1669
 5011SOL    MW419778   2.166   5.145   2.635  0.2275  0.4447 -0.4348
 5012SOL     OW19779   2.806   0.863   5.493  0.2136 -0.2553 -0.6671
 5012SOL    HW219780   2.754   0.908   5.427  0.0424  0.6294  0.0395
 5012SOL    HW319781   2.847   0.934   5.544 -0.3308 -0.8731  0.6909
 5012SOL    MW419782   2.805   0.878   5.491  0.4038 -0.7672 -0.0509
 5013SOL     OW19783   2.750   5.385   1.033  0.2539  0.6596  0.6813
 5013SOL    HW219784   2.784   5.337   0.958 -0.0034  0.9413  0.3791
 5013SOL    HW319785   2.673   5.432   0.998 -1.0030 -0.6773  1.5444
 5013SOL    MW419786   2.744   5.385   1.018  0.1726  0.5345 -0.5583
 5014SOL     OW19787   3.312   0.922   5.315  0.3551 -0.4399 -0.0720
 5014SOL    HW219788   3.218   0.902   5.315  0.4882 -1.1422 -1.1970
 5014SOL    HW319789   3.342   0.896   5.228  1.5474  0.0383  0.1790
 5014SOL    MW419790   3.303   0.916   5.303  0.1420  0.4946  0.1709
 5015SOL     OW19791   5.422   0.261   2.806  0.0724 -0.0254  0.4365
 5015SOL    HW219792   5.472   0.296   2.879 -0.4693 -0.7546  1.1852
 5015SOL    HW319793   5.335   0.246   2.842  0.2792 -2.1331  0.1864
 5015SOL    MW419794   5.417   0.264   2.820 -0.4476 -0.2239 -0.5538
 5016SOL     OW19795   1.014   0.232   3.089  0.1218  0.0062  0.0319
 5016SOL    HW219796   0.958   0.219   3.165  0.7810 -0.8110  0.3966
 5016SOL    HW319797   1.073   0.156   3.089  0.3915  0.1909 -1.0645
 5016SOL    MW419798   1.015   0.220   3.099  0.5308  0.0656  0.0174
 5017SOL     OW19799   4.291   4.853   4.042  0.2829  0.3460 -0.1535
 5017SOL    HW219800   4.253   4.779   4.090  0.0031  1.6103  1.6710
 5017SOL    HW319801   4.280   4.928   4.100  2.3635  1.4653 -1.0790
 5017SOL    MW419802   4.284   4.853   4.056  0.1433 -0.2029 -0.2658
 5018SOL     OW19803   2.350   3.444   0.264 -0.1319  0.5378  0.2154
 5018SOL    HW219804   2.391   3.454   0.177 -2.3826  0.1750 -0.9520
 5018SOL    HW319805   2.297   3.523   0.274  1.3409  1.3660  2.0460
 5018SOL    MW419806   2.349   3.456   0.254  0.2700  0.1462  0.4917
 5019SOL     OW19807   4.697   1.174   5.887 -0.3976 -0.3267  0.5074
 5019SOL    HW219808   4.635   1.101   5.897 -0.9932  0.3029  1.5989
 5019SOL    HW319809   4.690   1.223   5.969 -0.9144  1.6566 -0.6394
 5019SOL    MW419810   4.688   1.171   5.899  0.5050  0.3390 -0.0323
 5020SOL     OW19811   1.963   1.431   2.189  0.2528 -0.7204 -0.3322
 5020SOL    HW219812   2.058   1.427   2.183  0.2437  0.2534 -1.8380
 5020SOL    HW319813   1.936   1.341   2.208  1.3767 -1.5391 -2.2702
 5020SOL    MW419814   1.972   1.419   2.191  0.1837 -0.3533 -0.0288
 5021SOL     OW19815   1.489   4.579   5.887 -0.3656  0.0327  0.4911
 5021SOL    HW219816   1.460   4.669   5.901  1.1556  0.5527  0.4885
 5021SOL    HW319817   1.562   4.586   5.826 -1.2329 -1.3740 -0.7938
 5021SOL    MW419818   1.494   4.592   5.881 -0.2795  0.3990 -0.5380
 5022SOL     OW19819   6.029   2.410   6.368 -0.1174  0.2835 -0.3879
 5022SOL    HW219820   5.940   2.443   6.356 -0.2657 -0.0617 -0.2400
 5022SOL    HW319821   6.031   2.327   6.321  0.2711  0.5247 -0.7973
 5022SOL    MW419822   6.017   2.404   6.360  0.5281 -0.8696 -0.6990
 5023SOL     OW19823   3.462   5.915   1.338 -0.4236  0.4093 -0.0403
 5023SOL    HW219824   3.535   5.858   1.359 -0.7498  0.1339  0.3510
 5023SOL    HW319825   3.408   5.915   1.417  0.1010  2.0895  0.3531
 5023SOL    MW419826   3.464   5.907   1.351  0.0251 -0.5010  0.5557
 5024SOL     OW19827   4.788   5.655   6.065 -0.3171  0.0297 -0.5943
 5024SOL    HW219828   4.873   5.675   6.104 -1.8424  2.4992  1.7896
 5024SOL    HW319829   4.780   5.716   5.992  0.6729 -1.5676 -2.1333
 5024SOL    MW419830   4.798   5.666   6.061 -0.3108 -0.3794  0.4558
 5025SOL     OW19831   0.578   3.658   2.386  0.6970 -0.1319  0.7027
 5025SOL    HW219832   0.602   3.696   2.471 -0.1069  1.4473  0.2539
 5025SOL    HW319833   0.485   3.676   2.377  0.9250  0.4494 -0.8578
 5025SOL    MW419834   0.569   3.665   2.396 -0.1464  0.0126 -0.1691
 5026SOL     OW19835   4.860   1.352   5.717  0.5716  0.4349 -0.1469
 5026SOL    HW219836   4.847   1.447   5.722  1.2420  0.5303 -0.2119
 5026SOL    HW319837   4.771   1.316   5.713  0.2852  0.9976  0.9353
 5026SOL    MW419838   4.846   1.360   5.717  0.1188  0.5668 -0.0294
 5027SOL     OW19839   2.637   1.147   1.473 -0.2679  0.1051  0.4474
 5027SOL    HW219840   2.544   1.166   1.461 -0.2111 -0.2732 -0.7437
 5027SOL    HW319841   2.682   1.210   1.416  0.0627 -1.3305 -0.9767
 5027SOL    MW419842   2.631   1.158   1.464 -0.0955  0.3089 -0.2073
 5028SOL     OW19843   5.219   3.085   2.256 -0.4578  0.8326  0.5213
 5028SOL    HW219844   5.135   3.075   2.300  0.5791  1.5309  2.8138
 5028SOL    HW319845   5.234   3.180   2.253  0.0976  0.7326 -0.1716
 5028SOL    MW419846   5.210   3.096   2.261  0.0195 -0.5762 -0.1086
 5029SOL     OW19847   2.990   4.211   2.212 -0.9198 -0.1317  0.5977
 5029SOL    HW219848   2.990   4.119   2.188  1.4575 -0.3875  1.3436
 5029SOL    HW319849   3.004   4.211   2.307 -0.6396  0.9938  0.5685
 5029SOL    MW419850   2.992   4.199   2.221 -0.3679 -0.0524 -0.2899
 5030SOL     OW19851   5.916   1.833   1.167 -0.5559 -0.2000 -0.4905
 5030SOL    HW219852   5.921   1.882   1.248 -2.3989  0.0379 -0.4641
 5030SOL    HW319853   5.960   1.888   1.102  1.9843 -0.9281  0.5257
 5030SOL    MW419854   5.922   1.847   1.169  0.7515 -0.1990 -0.1080
 5031SOL     OW19855   4.453   0.305   5.153 -0.7783 -0.1139 -0.4628
 5031SOL    HW219856   4.362   0.326   5.175  0.0341  2.3814  0.8910
 5031SOL    HW319857   4.476   0.233   5.212 -0.9990  1.3107  1.4431
 5031SOL    MW419858   4.444   0.298   5.164  0.1086  0.1242 -0.7210
 5032SOL     OW19859   5.642   1.862   0.277  0.9122  0.5508 -0.0675
 5032SOL    HW219860   5.663   1.785   0.329 -0.1998  0.3138  0.0537
 5032SOL    HW319861   5.613   1.928   0.340  1.0380  0.7895 -0.2523
 5032SOL    MW419862   5.641   1.861   0.292 -0.4336  0.0134  0.1869
 5033SOL     OW19863   3.967   3.784   3.506  0.3222  0.7677  0.2058
 5033SOL    HW219864   4.024   3.860   3.490  0.8345  0.3806  0.1852
 5033SOL    HW319865   4.027   3.713   3.529 -0.2532  0.7552  1.7974
 5033SOL    MW419866   3.983   3.785   3.507 -0.1509  0.3688 -0.3845
 5034SOL     OW19867   5.826   0.066   5.342  0.0652  0.6029 -0.1843
 5034SOL    HW219868   5.894   0.060   5.274  0.1539  1.4182 -0.1764
 5034SOL    HW319869   5.852   0.001   5.407  0.1944  0.0851 -0.7423
 5034SOL    MW419870   5.839   0.056   5.342  0.4561 -0.5549  0.1380
 5035SOL     OW19871   2.656   6.191   3.588 -0.4001  0.0545 -0.2888
 5035SOL    HW219872   2.728   6.204   3.527 -0.4303 -0.2366 -0.3907
 5035SOL    HW319873   2.599   6.129   3.544 -0.3515 -0.2635  0.0914
 5035SOL    MW419874   2.658   6.184   3.574  0.2573  0.3721 -0.1717
 5036SOL     OW19875   0.769   0.169   3.875 -0.0721 -0.6150 -0.6961
 5036SOL    HW219876   0.840   0.212   3.827 -0.7057 -0.4289 -1.4809
 5036SOL    HW319877   0.697   0.232   3.872 -0.3739 -0.9297 -0.1637
 5036SOL    MW419878   0.769   0.183   3.868  0.4723  0.3570  0.6068
 5037SOL     OW19879   6.058   5.066   4.049  0.1301 -0.2375  0.2925
 5037SOL    HW219880   6.011   5.083   4.131  1.8537  0.2198  1.2390
 5037SOL    HW319881   6.113   5.144   4.037 -0.6286  0.0467 -1.7251
 5037SOL    MW419882   6.059   5.079   4.059 -0.4365  0.6447 -0.1686
 5038SOL     OW19883   3.170   3.119   3.688  0.0174 -0.6822  0.4261
 5038SOL    HW219884   3.163   3.108   3.593 -1.7388  3.0932 -0.0485
 5038SOL    HW319885   3.265   3.121   3.705  0.3680 -2.5351 -0.9687
 5038SOL    MW419886   3.182   3.118   3.678 -0.1616  0.1723  0.1647
 5039SOL     OW19887   3.564   4.012   5.568  0.6210  0.4444  0.6872
 5039SOL    HW219888   3.544   3.982   5.656  0.3620  0.5717  0.6744
 5039SOL    HW319889   3.633   4.077   5.579  0.5310  0.5197  0.8041
 5039SOL    MW419890   3.570   4.017   5.581  0.6566 -0.1188  0.4582
 5040SOL     OW19891   4.927   0.321   0.147 -0.4622  0.7365  0.0606
 5040SOL    HW219892   4.969   0.265   0.081 -0.8325  0.6070 -0.0680
 5040SOL    HW319893   4.993   0.331   0.215 -0.5660 -0.3026  0.3393
 5040SOL    MW419894   4.941   0.315   0.147 -0.1189  0.7307  0.0863
 5041SOL     OW19895   4.899   2.346   1.626 -0.5234 -0.4903  0.2823
 5041SOL    HW219896   4.954   2.358   1.703 -1.1385  2.2655  0.3934
 5041SOL    HW319897   4.815   2.384   1.650 -0.6064  0.8424 -1.8390
 5041SOL    MW419898   4.895   2.352   1.640 -0.7193 -0.3405  0.0260
 5042SOL     OW19899   5.788   1.585   3.322 -0.0361  0.4513 -0.4078
 5042SOL    HW219900   5.822   1.664   3.279  0.4908 -0.5527 -1.9403
 5042SOL    HW319901   5.746   1.536   3.251 -0.2214 -0.7161  0.4855
 5042SOL    MW419902   5.787   1.589   3.307  0.0951  0.6205 -0.1305
 5043SOL     OW19903   6.148   1.187   0.294 -0.1093  0.5029 -0.5766
 5043SOL    HW219904   6.196   1.192   0.376  1.2715 -0.7079 -1.2586
 5043SOL    HW319905   6.204   1.231   0.230 -0.7873  0.7107 -1.0479
 5043SOL    MW419906   6.161   1.193   0.296 -0.2513 -0.0605  1.1147
 5044SOL     OW19907   0.183   2.149   4.810 -0.0042 -0.6429 -0.8738
 5044SOL    HW219908   0.252   2.084   4.818 -0.7177 -1.5355 -1.6894
 5044SOL    HW319909   0.108   2.110   4.855 -0.5624 -0.5830 -1.7287
 5044SOL    MW419910   0.182   2.135   4.817 -0.4313  0.3898  0.1585
 5045SOL     OW19911   4.208   1.031   5.531 -0.3067  0.0046 -0.4921
 5045SOL    HW219912   4.269   0.970   5.573 -0.6736 -0.5215 -0.6968
 5045SOL    HW319913   4.125   0.982   5.527 -0.8367  0.8198  0.0735
 5045SOL    MW419914   4.205   1.016   5.536  0.3602  0.4812  0.3363
 5046SOL     OW19915   3.140   3.420   3.686 -0.5748  0.5331 -0.2660
 5046SOL    HW219916   3.163   3.481   3.616 -0.6354 -0.0314 -0.7909
 5046SOL    HW319917   3.190   3.341   3.666  0.7917  0.9329  1.3183
 5046SOL    MW419918   3.150   3.417   3.674  0.1940  1.2235 -0.0544
 5047SOL     OW19919   4.146   4.469   3.972  0.3872 -0.3347  0.1678
 5047SOL    HW219920   4.076   4.405   3.985  0.5881 -0.7488 -0.6679
 5047SOL    HW319921   4.226   4.417   3.966  0.9130  0.2023  2.0130
 5047SOL    MW419922   4.147   4.454   3.973 -0.5555  0.1954  0.0929
 5048SOL     OW19923   3.251   5.873   5.249 -0.2118 -0.2057 -0.0292
 5048SOL    HW219924   3.178   5.814   5.267  1.7337 -2.2042  2.0902
 5048SOL    HW319925   3.289   5.840   5.168 -1.1645  0.3309 -0.7001
 5048SOL    MW419926   3.247   5.861   5.241 -0.2678  0.5105 -0.3460
 5049SOL     OW19927   0.872   4.795   1.393 -0.4356 -0.6675 -0.3083
 5049SOL    HW219928   0.943   4.856   1.413 -0.7004  0.3438 -2.2250
 5049SOL    HW319929   0.917   4.715   1.364 -0.0659 -0.4372 -0.3827
 5049SOL    MW419930   0.887   4.793   1.392 -0.1638 -0.1610  0.5754
 5050SOL     OW19931   4.815   3.183   1.935 -0.1976 -0.0997 -0.3916
 5050SOL    HW219932   4.818   3.228   1.851 -1.7415  2.1980  0.6800
 5050SOL    HW319933   4.722   3.162   1.947  0.1438 -1.3247  0.3083
 5050SOL    MW419934   4.803   3.186   1.926 -0.1135  0.1149  0.1362
 5051SOL     OW19935   4.968   5.741   4.890  0.0388  0.1365 -0.4224
 5051SOL    HW219936   5.022   5.820   4.880  0.9882 -0.1527  1.8221
 5051SOL    HW319937   5.022   5.682   4.943 -2.6882  0.0972  2.6191
 5051SOL    MW419938   4.983   5.744   4.896 -0.2622  0.5328 -0.0314
 5052SOL     OW19939   2.944   0.947   2.359 -0.0554  0.4424 -0.3297
 5052SOL    HW219940   2.994   1.028   2.372 -0.0441  0.2959  0.6156
 5052SOL    HW319941   2.988   0.883   2.415 -0.6271  0.0235 -0.3549
 5052SOL    MW419942   2.957   0.949   2.368  0.2612 -0.1474  0.7514
 5053SOL     OW19943   5.473   3.993   0.755 -0.5473  0.2562  0.2528
 5053SOL    HW219944   5.536   4.020   0.823  0.8314  0.4339 -1.0379
 5053SOL    HW319945   5.459   4.073   0.704 -0.6106 -0.1696 -0.3973
 5053SOL    MW419946   5.480   4.007   0.757 -0.4599  0.4843  0.3981
 5054SOL     OW19947   2.976   0.793   4.781 -0.0549  0.6076  0.5362
 5054SOL    HW219948   2.882   0.782   4.768  0.2949 -0.1875 -1.6843
 5054SOL    HW319949   3.005   0.709   4.816 -0.0872  0.7168  0.8333
 5054SOL    MW419950   2.967   0.781   4.784 -0.8667  0.5379 -0.3505
 5055SOL     OW19951   1.843   2.070   2.628 -0.0194 -0.5494  0.3774
 5055SOL    HW219952   1.773   2.079   2.563  0.3604 -2.2544 -0.3245
 5055SOL    HW319953   1.812   2.120   2.704 -2.1753 -1.5318  0.2242
 5055SOL    MW419954   1.829   2.077   2.629  0.3571  0.3026  0.0029
 5056SOL     OW19955   0.864   2.106   4.402  1.1236 -0.0611  0.1561
 5056SOL    HW219956   0.793   2.049   4.372  1.0197  0.0694  0.1550
 5056SOL    HW319957   0.895   2.149   4.322  0.7895  0.3524  0.2459
 5056SOL    MW419958   0.859   2.104   4.388  0.1654  0.2641 -0.3768
 5057SOL     OW19959   4.780   2.069   5.709 -0.1808  0.0309  0.2060
 5057SOL    HW219960   4.811   2.139   5.651 -0.2113 -1.0405 -1.1439
 5057SOL    HW319961   4.703   2.107   5.753  0.5157  1.2515  0.4313
 5057SOL    MW419962   4.774   2.083   5.707 -0.1620 -0.0762 -0.0422
 5058SOL     OW19963   2.455   6.349   0.315  0.2280 -0.0836 -0.0158
 5058SOL    HW219964   2.527   6.411   0.326 -0.8405  1.2359 -0.2152
 5058SOL    HW319965   2.450   6.303   0.398  1.5443 -0.4826 -0.1344
 5058SOL    MW419966   2.464   6.351   0.327  1.0399 -0.2421  0.4076
 5059SOL     OW19967   0.628   5.848   5.719 -0.3999 -0.0148 -0.2325
 5059SOL    HW219968   0.640   5.837   5.625  0.3294 -0.4343 -0.1027
 5059SOL    HW319969   0.680   5.925   5.741  0.8873 -0.9323  0.0870
 5059SOL    MW419970   0.637   5.857   5.710  0.3361  0.6877 -0.4782
 5060SOL     OW19971   3.416   2.128   2.592  0.0852  0.2633  1.0155
 5060SOL    HW219972   3.451   2.208   2.554 -1.0382 -0.1761 -1.0608
 5060SOL    HW319973   3.391   2.153   2.681 -0.6247  2.3274  0.2957
 5060SOL    MW419974   3.417   2.142   2.599  0.2368 -0.2680  0.0984
 5061SOL     OW19975   2.542   2.766   1.624  0.0886  0.2751 -0.0805
 5061SOL    HW219976   2.622   2.761   1.678 -0.5436  0.4828  0.9020
 5061SOL    HW319977   2.495   2.685   1.644 -1.1785  1.3209  1.3770
 5061SOL    MW419978   2.547   2.755   1.634 -0.4365  0.3534  0.4575
 5062SOL     OW19979   1.945   5.345   2.067  0.1916 -0.1305 -0.1943
 5062SOL    HW219980   2.015   5.380   2.013  0.9079 -2.0672 -0.5872
 5062SOL    HW319981   1.873   5.408   2.056  0.1380 -0.6107 -3.7311
 5062SOL    MW419982   1.945   5.358   2.059 -0.1583 -0.5240 -0.8162
 5063SOL     OW19983   2.319   1.982   6.340 -0.0181  0.0708  0.5344
 5063SOL    HW219984   2.400   1.933   6.355 -1.0929 -2.3508 -1.0081
 5063SOL    HW319985   2.277   1.985   6.426  0.5265 -0.9586  0.8546
 5063SOL    MW419986   2.324   1.976   6.353  0.5805 -0.0359 -0.0171
 5064SOL     OW19987   4.313   3.996   1.050 -0.4734 -0.0308  0.1358
 5064SOL    HW219988   4.243   4.029   0.993  0.0430 -0.6634 -0.8859
 5064SOL    HW319989   4.394   4.023   1.006 -0.0647 -0.3177  0.7036
 5064SOL    MW419990   4.314   4.004   1.037 -0.0303  0.3055 -0.5717
 5065SOL     OW19991   5.428   5.589   3.702 -0.3393 -0.1671 -0.1231
 5065SOL    HW219992   5.469   5.503   3.709 -1.7498 -0.8926 -0.4086
 5065SOL    HW319993   5.499   5.647   3.673  0.5316 -1.3111 -0.3523
 5065SOL    MW419994   5.443   5.585   3.699 -0.1692 -0.1122 -0.1540
 5066SOL     OW19995   2.338   4.744   2.349 -0.2811  0.6179 -0.4273
 5066SOL    HW219996   2.421   4.775   2.386  0.4474 -3.2124  1.6809
 5066SOL    HW319997   2.271   4.790   2.401  0.7172 -1.2474  2.8182
 5066SOL    MW419998   2.340   4.754   2.361 -0.4348  0.2190 -0.8711
 5067SOL     OW19999   2.025   5.175   5.846  0.0151  0.4265  0.4460
 5067SOL    HW220000   1.996   5.232   5.917  0.5918  1.7178 -0.3249
 5067SOL    HW320001   2.120   5.185   5.844  0.1081 -0.4629  0.2037
 5067SOL    MW420002   2.034   5.184   5.855  0.7104 -0.1648 -0.7725
 5068SOL     OW20003   0.424   2.490   2.002 -0.4232 -0.4488  0.5668
 5068SOL    HW220004   0.393   2.572   1.964  0.4714 -0.1625  0.4124
 5068SOL    HW320005   0.464   2.517   2.085 -1.7540 -0.9786  1.4107
 5068SOL    MW420006   0.425   2.505   2.008 -0.8165 -0.7849  0.2275
 5069SOL     OW20007   4.642   3.826   0.357  0.0131  0.3976  0.4446
 5069SOL    HW220008   4.698   3.774   0.300  0.2608  1.6403 -0.5035
 5069SOL    HW320009   4.574   3.766   0.387  2.8392 -1.7436  3.2592
 5069SOL    MW420010   4.640   3.811   0.354  0.4600  0.3724  0.2166
 5070SOL     OW20011   6.250   5.366   3.501 -0.2042  0.1085  0.3723
 5070SOL    HW220012   6.297   5.447   3.477  1.0353 -0.4023  0.9634
 5070SOL    HW320013   6.227   5.326   3.417 -2.0942  1.7365  0.0470
 5070SOL    MW420014   6.253   5.372   3.486  0.1704  0.2135 -0.5979
 5071SOL     OW20015   0.394   2.877   1.366  0.1088 -0.0845  0.3284
 5071SOL    HW220016   0.427   2.903   1.452  0.5782  0.7810 -0.0905
 5071SOL    HW320017   0.469   2.888   1.308 -0.4894  0.4042 -0.3733
 5071SOL    MW420018   0.408   2.882   1.370 -0.3039  0.1822 -0.0038
 5072SOL     OW20019   4.707   4.913   1.309 -0.2021 -0.2290  0.4369
 5072SOL    HW220020   4.649   4.886   1.238  0.1454 -1.0136  0.4411
 5072SOL    HW320021   4.651   4.967   1.366  0.0964  2.5143 -1.6401
 5072SOL    MW420022   4.692   4.917   1.307  0.5137  0.3747  0.1784
 5073SOL     OW20023   4.424   3.438   1.710 -0.3891 -0.6974 -0.0844
 5073SOL    HW220024   4.481   3.364   1.726  0.5900  0.1026  0.2356
 5073SOL    HW320025   4.433   3.457   1.617 -0.1223 -0.5707 -0.0336
 5073SOL    MW420026   4.432   3.431   1.700  0.2840  0.0645  0.1767
 5074SOL     OW20027   4.766   3.189   2.334 -0.4156  0.2081  0.1493
 5074SOL    HW220028   4.847   3.240   2.338  0.3228 -0.9702  1.0238
 5074SOL    HW320029   4.749   3.164   2.425 -1.4271 -0.0652 -0.1047
 5074SOL    MW420030   4.774   3.192   2.346  0.4936 -0.2197  0.2216
 5075SOL     OW20031   0.148   3.068   1.477 -0.1008 -0.1486  0.2898
 5075SOL    HW220032   0.202   2.992   1.456 -0.0759  0.3440 -1.5517
 5075SOL    HW320033   0.205   3.144   1.464 -0.9300  0.3256 -0.7299
 5075SOL    MW420034   0.162   3.068   1.473  0.0685 -0.3924  0.6775
 5076SOL     OW20035   5.861   1.564   0.644 -0.0406  0.5628 -0.6969
 5076SOL    HW220036   5.840   1.489   0.589 -1.4157  0.5434 -0.2011
 5076SOL    HW320037   5.777   1.609   0.655 -0.1095 -0.1189  2.3909
 5076SOL    MW420038   5.847   1.560   0.638 -0.0384 -1.0043 -0.1556
 5077SOL     OW20039   4.088   4.574   2.078  0.0888 -0.7255  0.1615
 5077SOL    HW220040   4.178   4.558   2.105  0.4877 -0.8145 -1.1563
 5077SOL    HW320041   4.080   4.530   1.993 -0.7917  0.3916 -0.3646
 5077SOL    MW420042   4.099   4.566   2.070  0.3035  0.5911 -0.1603
 5078SOL     OW20043   5.752   4.586   3.171 -0.0579  0.9529  0.3938
 5078SOL    HW220044   5.733   4.544   3.256  0.0388  0.3597  0.1281
 5078SOL    HW320045   5.686   4.655   3.164 -2.3572 -1.1823 -0.5995
 5078SOL    MW420046   5.741   4.589   3.182 -0.0841 -0.3837 -0.0876
 5079SOL     OW20047   2.946   0.873   6.292 -0.0874  0.3710 -0.1208
 5079SOL    HW220048   2.996   0.943   6.249  0.3211  0.0774 -0.1251
 5079SOL    HW320049   2.933   0.905   6.382 -0.8102  0.9177 -0.4047
 5079SOL    MW420050   2.951   0.887   6.298 -0.0345 -0.2055 -0.1840
 5080SOL     OW20051   1.363   5.792   4.855 -0.2317 -0.1596 -0.2549
 5080SOL    HW220052   1.435   5.787   4.917  0.7809 -2.0638 -1.4739
 5080SOL    HW320053   1.302   5.724   4.883 -1.3759  1.1008  0.4662
 5080SOL    MW420054   1.364   5.782   4.867  0.4067  0.0026  0.0747
 5081SOL     OW20055   3.033   4.941   4.961 -0.1336  0.8031  0.6299
 5081SOL    HW220056   2.993   5.025   4.938 -0.4896  0.4690 -0.0122
 5081SOL    HW320057   3.052   4.900   4.877 -1.3757 -0.4180  0.9045
 5081SOL    MW420058   3.030   4.947   4.947 -0.2411 -0.4951 -0.1640
 5082SOL     OW20059   3.100   3.583   3.213  0.3639  0.4191  0.3646
 5082SOL    HW220060   3.062   3.568   3.126  0.9838  0.3468  0.1030
 5082SOL    HW320061   3.027   3.568   3.273 -0.4415  1.8235 -0.2021
 5082SOL    MW420062   3.086   3.579   3.209  0.0251 -0.2565  0.0108
 5083SOL     OW20063   4.663   3.465   4.881 -0.2800  0.0897 -0.6678
 5083SOL    HW220064   4.585   3.420   4.913  1.5953 -1.9875  1.3196
 5083SOL    HW320065   4.668   3.545   4.933  0.5186 -1.2889  1.4827
 5083SOL    MW420066   4.654   3.470   4.892 -0.1657 -0.3782 -0.2859
 5084SOL     OW20067   2.143   5.672   0.377  0.2069 -0.0208  0.4880
 5084SOL    HW220068   2.225   5.684   0.329 -1.0403  1.5078 -1.4462
 5084SOL    HW320069   2.118   5.582   0.359  0.0459  0.3521 -1.4551
 5084SOL    MW420070   2.150   5.662   0.368 -0.4648  0.1271  0.5915
 5085SOL     OW20071   3.048   4.278   2.972  0.3277  0.0752  0.1343
 5085SOL    HW220072   2.981   4.248   2.911  0.0073  0.5857  0.2245
 5085SOL    HW320073   3.050   4.211   3.040 -0.8145  0.5351  0.6571
 5085SOL    MW420074   3.039   4.265   2.973 -0.7365  0.5380 -0.3812
 5086SOL     OW20075   1.005   2.941   5.729 -0.4407  0.3005 -0.3510
 5086SOL    HW220076   1.069   2.926   5.798 -0.0528  2.2557 -0.2297
 5086SOL    HW320077   1.058   2.953   5.650 -0.8268 -0.8260 -0.7961
 5086SOL    MW420078   1.021   2.940   5.728 -0.3147  0.5725  0.5031
 5087SOL     OW20079   3.627   2.643   4.969 -0.4117  0.4246 -0.2059
 5087SOL    HW220080   3.540   2.678   4.951 -1.1901 -0.4938  1.5649
 5087SOL    HW320081   3.626   2.621   5.062  1.1433 -1.1687 -0.5001
 5087SOL    MW420082   3.615   2.644   4.979 -0.0923 -0.0528 -0.5681
 5088SOL     OW20083   5.371   6.402   4.617 -0.2162 -0.0882 -0.2395
 5088SOL    HW220084   5.349   6.470   4.681  0.5294 -0.4191  0.3942
 5088SOL    HW320085   5.368   6.321   4.667 -2.4121 -0.7337 -1.2780
 5088SOL    MW420086   5.368   6.401   4.632  0.1013 -0.2486 -0.0552
 5089SOL     OW20087   6.031   0.988   4.838 -0.1488  0.3732  0.1887
 5089SOL    HW220088   5.942   0.990   4.801  0.0184 -0.5459 -0.2849
 5089SOL    HW320089   6.062   1.078   4.830 -0.8100  0.5738 -0.2109
 5089SOL    MW420090   6.023   1.000   4.832 -1.0586  0.2848 -0.6055
 5090SOL     OW20091   5.807   5.853   0.598 -0.9708 -0.5687  0.0775
 5090SOL    HW220092   5.812   5.785   0.666  0.1971  0.7947  1.4291
 5090SOL    HW320093   5.843   5.811   0.520  0.4721 -1.3210  1.0882
 5090SOL    MW420094   5.813   5.838   0.597 -0.0399 -0.2720  0.5051
 5091SOL     OW20095   0.024   1.848   3.643  0.1209  0.2853  0.4041
 5091SOL    HW220096  -0.048   1.885   3.693 -0.6283  0.8372 -1.0244
 5091SOL    HW320097   0.068   1.924   3.604  1.4480 -0.0500  1.2087
 5091SOL    MW420098   0.020   1.863   3.644 -0.0146 -0.0530  0.7561
 5092SOL     OW20099   0.882   3.329   2.668  0.1456  0.1989  0.1032
 5092SOL    HW220100   0.959   3.348   2.615 -1.0754 -0.1160 -1.9191
 5092SOL    HW320101   0.808   3.359   2.614 -1.1651  0.2393  1.8355
 5092SOL    MW420102   0.882   3.336   2.654  0.3724 -0.7804  0.7386
 5093SOL     OW20103   2.769   6.334   1.458  0.6151  0.3991 -0.6612
 5093SOL    HW220104   2.808   6.247   1.448 -0.1870 -0.2889  1.5980
 5093SOL    HW320105   2.750   6.362   1.368  1.1450 -1.6206 -1.4665
 5093SOL    MW420106   2.772   6.326   1.445 -0.8078 -0.3777  0.0796
 5094SOL     OW20107   4.446   2.939   1.141  0.1720 -0.1914 -0.0272
 5094SOL    HW220108   4.461   2.964   1.050  0.3169 -0.6166 -0.1196
 5094SOL    HW320109   4.422   2.847   1.137 -1.6507  0.2423  0.1916
 5094SOL    MW420110   4.445   2.930   1.128 -0.1558 -0.1634  0.6143
 5095SOL     OW20111   4.046   1.005   1.922 -0.1619  0.3156 -0.1137
 5095SOL    HW220112   4.123   0.969   1.965 -0.5134 -0.3966 -0.0767
 5095SOL    HW320113   4.075   1.091   1.891  0.5914  0.1360  0.0599
 5095SOL    MW420114   4.060   1.012   1.924  0.0677 -0.3123 -0.4134
 5096SOL     OW20115   3.179   4.366   4.433 -0.1938  0.5710  0.3851
 5096SOL    HW220116   3.269   4.398   4.436  0.5867 -1.0589 -2.4519
 5096SOL    HW320117   3.183   4.279   4.473 -0.5421  0.5207  0.3151
 5096SOL    MW420118   3.191   4.359   4.439  0.2327  0.0894 -0.4152
 5097SOL     OW20119   2.112   2.524   2.272 -0.1147 -1.0363  0.5581
 5097SOL    HW220120   2.141   2.614   2.254 -2.9934  0.5323  2.9327
 5097SOL    HW320121   2.109   2.483   2.185  0.3330  1.4877 -0.7650
 5097SOL    MW420122   2.115   2.530   2.258 -0.4797 -0.0797 -0.3349
 5098SOL     OW20123   4.793   0.590   5.621 -0.4872 -0.2103 -0.1883
 5098SOL    HW220124   4.850   0.629   5.688 -0.2641 -1.7206  0.5515
 5098SOL    HW320125   4.766   0.506   5.659 -0.7135 -0.9135 -1.8394
 5098SOL    MW420126   4.797   0.584   5.635 -0.0910 -0.5191  0.5435
 5099SOL     OW20127   3.249   3.986   0.920  0.8221  0.3027 -0.2163
 5099SOL    HW220128   3.256   4.074   0.957 -3.4439  0.9727 -0.5864
 5099SOL    HW320129   3.233   3.999   0.827 -0.5275 -0.7825 -0.1714
 5099SOL    MW420130   3.248   3.999   0.913  0.3921  0.3975 -0.0711
 5100SOL     OW20131   5.690   2.661   3.985  0.0196  0.1158 -0.0119
 5100SOL    HW220132   5.693   2.729   4.052 -2.6188  0.5653 -0.2787
 5100SOL    HW320133   5.721   2.704   3.905 -0.6672  0.7242  0.0446
 5100SOL    MW420134   5.695   2.675   3.983 -0.1004 -0.4265  0.0936
 5101SOL     OW20135   6.389   4.132   0.453  0.1720 -0.1507  0.4983
 5101SOL    HW220136   6.397   4.058   0.512 -0.1223 -0.0355  0.6882
 5101SOL    HW320137   6.301   4.124   0.415  0.3237 -0.1742  0.1441
 5101SOL    MW420138   6.378   4.121   0.455  0.3885  0.0347  0.2920
 5102SOL     OW20139   1.115   3.464   0.251 -0.1993 -0.5081 -0.2686
 5102SOL    HW220140   1.067   3.400   0.199  0.7421 -1.7342  0.3148
 5102SOL    HW320141   1.168   3.512   0.187 -2.9382  1.7046 -1.1082
 5102SOL    MW420142   1.115   3.462   0.236 -0.4283  0.5282 -0.2941
 5103SOL     OW20143   3.057   4.628   0.202 -0.2020  0.5701  0.5168
 5103SOL    HW220144   3.044   4.596   0.292  1.9273  0.1868  0.7296
 5103SOL    HW320145   3.052   4.723   0.209  0.1180  0.5475  1.0729
 5103SOL    MW420146   3.054   4.636   0.215  0.1827  0.2612  0.0929
 5104SOL     OW20147   5.009   6.209   0.666  0.2559  0.0144 -0.5955
 5104SOL    HW220148   4.987   6.252   0.584 -0.5270  1.0163  0.1154
 5104SOL    HW320149   5.049   6.277   0.719  1.1310 -0.7212 -0.2747
 5104SOL    MW420150   5.012   6.223   0.662 -0.1589  0.4528  0.0596
 5105SOL     OW20151   4.709   1.055   3.971  0.5806 -0.7235  0.1320
 5105SOL    HW220152   4.705   1.138   4.018  1.4141 -0.3622 -0.4100
 5105SOL    HW320153   4.622   1.045   3.931  0.4149 -0.2174  0.3689
 5105SOL    MW420154   4.697   1.064   3.972 -0.0504  0.3133  0.3474
 5106SOL     OW20155   1.283   0.350   2.030  0.1841 -0.2522 -0.2659
 5106SOL    HW220156   1.277   0.434   1.984  0.6543 -0.6921 -1.1612
 5106SOL    HW320157   1.219   0.294   1.987  0.9231 -0.7957 -0.6895
 5106SOL    MW420158   1.274   0.354   2.018  0.3354  0.2879 -0.0587
 5107SOL     OW20159   3.125   0.162   4.254 -0.5536  0.0903  0.6755
 5107SOL    HW220160   3.055   0.100   4.233 -0.5070  0.1635  0.3010
 5107SOL    HW320161   3.175   0.119   4.322 -0.7295 -0.1338  0.6640
 5107SOL    MW420162   3.122   0.148   4.260 -0.0431 -0.0251 -0.2629
 5108SOL     OW20163   0.329   3.088   0.706 -0.3933  0.2665  0.1811
 5108SOL    HW220164   0.367   3.174   0.685 -1.1000 -0.0646 -2.8815
 5108SOL    HW320165   0.344   3.035   0.628 -1.0733 -2.0703  1.5196
 5108SOL    MW420166   0.336   3.092   0.693 -0.5548  0.3202 -0.5099
 5109SOL     OW20167   2.555   0.446   4.238  0.2472  0.1206 -0.6360
 5109SOL    HW220168   2.579   0.437   4.146 -1.3734  1.8903 -1.3080
 5109SOL    HW320169   2.623   0.399   4.286  1.2610 -0.6412 -2.7126
 5109SOL    MW420170   2.567   0.439   4.233 -0.1349 -0.0862  0.9058
 5110SOL     OW20171   3.386   4.202   1.184  0.5017 -0.1704 -0.1788
 5110SOL    HW220172   3.417   4.283   1.144  0.1547 -1.2069 -2.7200
 5110SOL    HW320173   3.296   4.223   1.211  0.5675  0.4084 -0.3837
 5110SOL    MW420174   3.378   4.216   1.182  0.7867  0.5290  0.5858
 5111SOL     OW20175   0.942   6.206   2.695  0.9382 -0.1129 -0.3946
 5111SOL    HW220176   0.912   6.239   2.610  0.5821 -0.4764 -0.4089
 5111SOL    HW320177   1.023   6.254   2.711  0.5375  0.6146 -0.5183
 5111SOL    MW420178   0.949   6.217   2.686 -0.0667 -0.3438  0.4902
 5112SOL     OW20179   2.239   4.621   1.782  0.1254  0.8006  0.2863
 5112SOL    HW220180   2.174   4.635   1.850 -2.1318 -2.3897 -0.9893
 5112SOL    HW320181   2.273   4.533   1.798  1.3576  0.9355 -1.2936
 5112SOL    MW420182   2.235   4.612   1.793 -0.5774  0.4255  0.0786
 5113SOL     OW20183   4.707   5.149   1.023  0.2617 -0.3662  0.7064
 5113SOL    HW220184   4.765   5.224   1.009 -1.1766  0.6171 -0.2321
 5113SOL    HW320185   4.687   5.151   1.117  0.5736  0.1678  0.7615
 5113SOL    MW420186   4.712   5.159   1.034 -0.0821  1.1024 -0.6950
 5114SOL     OW20187   3.186   4.521   2.995  0.0259  0.1667  0.4136
 5114SOL    HW220188   3.129   4.598   2.995  1.5866  1.4492 -1.7361
 5114SOL    HW320189   3.126   4.447   2.999 -1.5629  1.4321  2.0372
 5114SOL    MW420190   3.171   4.522   2.996  0.1599 -0.1843  0.1334
 5115SOL     OW20191   3.703   1.627   3.402  0.2041  0.1860  0.0756
 5115SOL    HW220192   3.637   1.695   3.390 -1.8560 -1.9517 -1.5577
 5115SOL    HW320193   3.681   1.586   3.485 -0.6045 -0.5509 -0.4865
 5115SOL    MW420194   3.692   1.631   3.411 -0.1531  0.3528  0.1974
 5116SOL     OW20195   4.204   4.691   5.122  0.0409  0.2172  0.4724
 5116SOL    HW220196   4.214   4.705   5.216 -0.5887  0.0487  0.5637
 5116SOL    HW320197   4.111   4.701   5.105  0.0929 -0.1522 -0.0692
 5116SOL    MW420198   4.193   4.694   5.132  0.8875  0.9884 -0.1254
 5117SOL     OW20199   0.427   0.421   3.104 -0.6568  0.6338 -0.7306
 5117SOL    HW220200   0.377   0.439   3.184 -0.9419 -0.7083 -0.5926
 5117SOL    HW320201   0.368   0.368   3.050  0.7563 -1.4278 -0.3437
 5117SOL    MW420202   0.413   0.417   3.108 -0.1524 -0.1057  0.2011
 5118SOL     OW20203   6.112   1.434   2.123 -0.2127 -0.1357 -0.0012
 5118SOL    HW220204   6.169   1.366   2.162  0.8427  0.3425 -0.6679
 5118SOL    HW320205   6.143   1.515   2.163  0.4979  0.2908 -1.3750
 5118SOL    MW420206   6.124   1.436   2.134 -0.0207  0.5269 -0.2924
 5119SOL     OW20207   2.674   4.240   1.010  0.4577  0.3410 -0.1635
 5119SOL    HW220208   2.582   4.224   1.030  0.3787  0.9207 -0.0583
 5119SOL    HW320209   2.715   4.252   1.095  0.2847  1.9252 -0.2709
 5119SOL    MW420210   2.667   4.239   1.024 -0.2548  0.3175  0.1561
 5120SOL     OW20211   1.699   2.987   0.676  0.3818  0.1250 -0.1167
 5120SOL    HW220212   1.664   2.966   0.763  0.5259 -3.1720 -0.7086
 5120SOL    HW320213   1.787   3.021   0.694 -0.4191  1.6669  1.0847
 5120SOL    MW420214   1.706   2.988   0.690  0.4902  0.4271 -0.8583
 5121SOL     OW20215   0.168   1.813   4.293 -0.5874 -0.3046 -0.3120
 5121SOL    HW220216   0.254   1.782   4.265 -0.7666 -2.5052  1.3099
 5121SOL    HW320217   0.186   1.893   4.341  0.2669  0.4906 -1.8697
 5121SOL    MW420218   0.182   1.819   4.295 -0.3207 -0.4824  0.4711
 5122SOL     OW20219   6.205   0.309   0.597 -0.5825  0.0519 -0.7123
 5122SOL    HW220220   6.122   0.357   0.599 -0.2686  0.6574 -1.6987
 5122SOL    HW320221   6.272   0.374   0.619 -0.3641 -0.4801  0.2892
 5122SOL    MW420222   6.203   0.324   0.601 -0.3304  0.3491 -0.3777
 5123SOL     OW20223   2.752   5.766   2.473  0.7783 -0.9180  0.3470
 5123SOL    HW220224   2.670   5.752   2.425  1.5113 -0.5958 -1.0690
 5123SOL    HW320225   2.796   5.682   2.471  1.4959 -0.5403 -0.9405
 5123SOL    MW420226   2.747   5.753   2.466  0.0458 -1.0877  0.0799
 5124SOL     OW20227   2.694   0.668  -0.003  0.0666 -0.5927 -0.0323
 5124SOL    HW220228   2.749   0.641   0.071 -1.5683  0.2836  1.6091
 5124SOL    HW320229   2.631   0.597  -0.014 -1.8403  0.7015  1.7722
 5124SOL    MW420230   2.693   0.655   0.006  0.6955 -0.0502  0.3300
 5125SOL     OW20231   1.373   3.725   1.062 -0.3150 -0.1689 -0.6089
 5125SOL    HW220232   1.370   3.680   0.978 -0.9080  1.3009 -1.4174
 5125SOL    HW320233   1.367   3.818   1.040 -0.3754  0.2637  1.0588
 5125SOL    MW420234   1.372   3.731   1.048  0.5397 -0.2156  0.0631
 5126SOL     OW20235   4.786   0.989   6.159 -0.2155  0.4616 -0.0294
 5126SOL    HW220236   4.817   0.906   6.195  0.8823  0.9878  0.3087
 5126SOL    HW320237   4.708   0.967   6.109  0.4766 -0.8870 -0.5599
 5126SOL    MW420238   4.780   0.975   6.157 -0.1016  0.2207 -0.3594
 5127SOL     OW20239   2.945   6.229   5.288  0.4276  0.1662  0.3561
 5127SOL    HW220240   2.868   6.281   5.265 -0.6763 -1.4921  0.0461
 5127SOL    HW320241   2.960   6.247   5.381 -0.1914  0.6969  0.3571
 5127SOL    MW420242   2.937   6.238   5.297  0.1469 -0.2098  0.1434
 5128SOL     OW20243   0.472   5.651   4.204 -0.4617 -0.4552 -0.6864
 5128SOL    HW220244   0.429   5.737   4.212  0.2585 -0.0883 -0.6238
 5128SOL    HW320245   0.404   5.588   4.226 -0.6120  0.1766  0.8122
 5128SOL    MW420246   0.457   5.654   4.208  0.8474 -0.3954  0.0584
 5129SOL     OW20247   4.108   4.012   0.842  0.0872  1.2006 -0.0821
 5129SOL    HW220248   4.041   3.946   0.827  0.8382 -0.4150  2.8533
 5129SOL    HW320249   4.063   4.082   0.890  0.2242  0.6277  0.9078
 5129SOL    MW420250   4.093   4.013   0.847  0.0079  0.4004 -0.1223
 5130SOL     OW20251   3.077   0.531   4.021 -0.2273 -0.4377 -0.0443
 5130SOL    HW220252   3.167   0.499   4.020 -0.3805 -1.0163 -2.6556
 5130SOL    HW320253   3.025   0.454   3.996 -1.0165  0.7317 -2.3021
 5130SOL    MW420254   3.082   0.517   4.018 -0.3685 -0.5748 -0.2064
 5131SOL     OW20255   5.914   3.327   5.994  0.0221  0.4623 -0.4019
 5131SOL    HW220256   5.939   3.260   6.057  2.0875 -0.7520 -2.3624
 5131SOL    HW320257   5.857   3.282   5.932  0.4372  0.8034 -1.0529
 5131SOL    MW420258   5.910   3.312   5.994  0.0259  0.0853  0.0965
 5132SOL     OW20259   0.764   4.149   6.191  0.7162  0.0774 -0.5869
 5132SOL    HW220260   0.695   4.208   6.160  1.0609  0.0441 -1.4633
 5132SOL    HW320261   0.719   4.087   6.247  0.3793  1.2951  0.5390
 5132SOL    MW420262   0.749   4.149   6.194  0.1454  0.4404 -0.4502
 5133SOL     OW20263   5.735   3.776   4.135  0.3361 -0.0918 -0.0015
 5133SOL    HW220264   5.798   3.708   4.161  2.3492  1.2743 -1.0448
 5133SOL    HW320265   5.746   3.783   4.041 -0.5533  1.0181 -0.0364
 5133SOL    MW420266   5.745   3.768   4.126  0.2817  0.4092  0.0993
 5134SOL     OW20267   1.257   1.758   0.502 -0.6444 -0.3163 -0.3372
 5134SOL    HW220268   1.258   1.762   0.597 -0.6627  0.6891 -0.3661
 5134SOL    HW320269   1.239   1.666   0.482  1.5665 -1.0009  0.5993
 5134SOL    MW420270   1.254   1.746   0.512  0.1828  0.5125  0.1365
 5135SOL     OW20271   1.292   5.339   1.934  0.4529  0.0990 -0.2983
 5135SOL    HW220272   1.373   5.347   1.984  0.6531  1.4888 -0.7974
 5135SOL    HW320273   1.301   5.256   1.887  0.4026 -1.0691  1.6384
 5135SOL    MW420274   1.304   5.329   1.934 -0.1535 -0.3491  0.8147
 5136SOL     OW20275   5.240   4.066   3.468  0.3095 -0.2611 -0.4112
 5136SOL    HW220276   5.253   4.108   3.382 -0.5994  0.8226 -0.0488
 5136SOL    HW320277   5.254   4.137   3.531 -0.6994 -0.6384  0.2570
 5136SOL    MW420278   5.244   4.081   3.465 -0.3032  0.6292 -0.0406
 5137SOL     OW20279   1.271   0.888   3.160  0.1637 -0.3691  0.3231
 5137SOL    HW220280   1.364   0.896   3.185  0.1069  0.3138  0.3489
 5137SOL    HW320281   1.273   0.848   3.073  0.5650  0.9128 -0.2888
 5137SOL    MW420282   1.284   0.884   3.152  0.3169 -0.5037 -0.4186
 5138SOL     OW20283   1.812   2.135   6.262  0.5399  0.2698 -0.0215
 5138SOL    HW220284   1.811   2.097   6.174  0.9162  2.4359 -1.0226
 5138SOL    HW320285   1.827   2.228   6.247  1.0186  0.6213  2.3796
 5138SOL    MW420286   1.814   2.142   6.248 -0.0506 -0.2831 -0.0707
 5139SOL     OW20287   6.176   5.613   0.321 -0.3952 -0.2104 -0.3250
 5139SOL    HW220288   6.157   5.547   0.388  0.6778 -0.1995  0.0031
 5139SOL    HW320289   6.093   5.660   0.310 -0.2835  0.6178  1.9212
 5139SOL    MW420290   6.162   5.611   0.329  0.1872  0.2744 -0.0286
 5140SOL     OW20291   6.079   2.597   5.953  0.0252  0.2957 -0.2428
 5140SOL    HW220292   6.171   2.601   5.978  0.1077 -1.5455 -0.1569
 5140SOL    HW320293   6.046   2.685   5.973  1.0705  0.1684  2.4935
 5140SOL    MW420294   6.087   2.609   5.959  0.3783  0.8627 -0.0193
 5141SOL     OW20295   3.688   1.541   4.191  0.3798  0.6456  0.1653
 5141SOL    HW220296   3.626   1.601   4.234 -0.7070 -1.3383  1.5443
 5141SOL    HW320297   3.711   1.478   4.259  0.1590 -1.4862 -1.6057
 5141SOL    MW420298   3.683   1.541   4.206 -0.1423 -0.0028  0.0985
 5142SOL     OW20299   3.981   5.392   3.153 -0.2064  0.3191  0.8316
 5142SOL    HW220300   4.046   5.450   3.193  0.6778  1.0198 -1.4447
 5142SOL    HW320301   3.991   5.407   3.059 -1.1628 -2.2561  0.2428
 5142SOL    MW420302   3.991   5.401   3.146 -0.0473 -0.2274 -0.0068
 5143SOL     OW20303   5.131   0.351   3.602 -0.1171 -0.3299  0.1879
 5143SOL    HW220304   5.042   0.361   3.637  0.1822 -0.5207  1.0215
 5143SOL    HW320305   5.178   0.429   3.633  0.3396 -0.8471  0.8168
 5143SOL    MW420306   5.125   0.363   3.610 -0.3450  0.4913  0.1552
 5144SOL     OW20307   1.164   3.866   3.544 -0.4148  0.2379 -0.8356
 5144SOL    HW220308   1.246   3.852   3.496  0.4130 -0.4463  0.6849
 5144SOL    HW320309   1.116   3.785   3.534 -0.0528 -0.0648 -0.1946
 5144SOL    MW420310   1.169   3.854   3.536  0.2481  0.7639  0.4269
 5145SOL     OW20311   2.682   3.240   6.341 -0.2915  0.1410  0.0225
 5145SOL    HW220312   2.681   3.148   6.315 -0.9793  0.2300 -0.2971
 5145SOL    HW320313   2.702   3.288   6.261 -0.9343  0.3238 -0.0375
 5145SOL    MW420314   2.684   3.234   6.327 -0.1377  0.6532  0.2622
 5146SOL     OW20315   4.336   1.921   3.075  0.0149  0.0106 -0.0167
 5146SOL    HW220316   4.282   1.993   3.108 -1.0488 -0.4063 -0.7584
 5146SOL    HW320317   4.315   1.847   3.131  0.7913  0.1683  0.4861
 5146SOL    MW420318   4.326   1.921   3.087 -0.3360  0.0366  0.0271
 5147SOL     OW20319   2.714   2.201   0.052 -0.3314 -0.3268  0.5342
 5147SOL    HW220320   2.636   2.257   0.056  1.5770  2.8376 -1.9208
 5147SOL    HW320321   2.702   2.139   0.124 -4.0526  1.3327  1.6210
 5147SOL    MW420322   2.702   2.200   0.062  0.2576  0.1142 -0.2135
 5148SOL     OW20323   4.942   5.616   3.947  0.1080 -0.5907 -0.3224
 5148SOL    HW220324   5.004   5.592   4.016 -0.5131 -1.1036  0.0663
 5148SOL    HW320325   4.939   5.712   3.949 -0.3197 -0.6149  0.7351
 5148SOL    MW420326   4.950   5.625   3.956 -0.3301  0.3368 -0.9593
 5149SOL     OW20327   2.174   1.216   1.223  0.1333  0.1582 -0.5828
 5149SOL    HW220328   2.246   1.224   1.160 -0.3095  2.0817 -0.8997
 5149SOL    HW320329   2.103   1.176   1.172  0.4500 -0.2662 -0.7020
 5149SOL    MW420330   2.174   1.212   1.208  0.6114  0.2666  0.0273
 5150SOL     OW20331   0.363   2.998   4.680 -0.0442 -0.0704 -0.2126
 5150SOL    HW220332   0.312   3.027   4.756  0.4848 -0.2363  0.2103
 5150SOL    HW320333   0.434   3.062   4.673  0.6119 -0.7405  0.1861
 5150SOL    MW420334   0.365   3.010   4.689  0.0166  0.5872 -0.0665
 5151SOL     OW20335   5.131   3.487   3.881 -0.1968 -0.3102  0.3043
 5151SOL    HW220336   5.044   3.467   3.914  0.1043 -0.7834  0.8257
 5151SOL    HW320337   5.188   3.423   3.923  0.3167 -0.4020 -0.4985
 5151SOL    MW420338   5.127   3.476   3.891 -0.4273 -0.4507  0.2669
 5152SOL     OW20339   2.653   2.474   2.184  0.3220  0.0030  0.2068
 5152SOL    HW220340   2.711   2.426   2.242 -0.2751  0.5000  1.2498
 5152SOL    HW320341   2.712   2.519   2.123  1.0954  1.0712  1.6854
 5152SOL    MW420342   2.668   2.474   2.183  0.0966  0.3999  0.3350
 5153SOL     OW20343   2.978   3.877   1.597  0.2002  0.5967  0.0726
 5153SOL    HW220344   2.915   3.878   1.525  0.5079 -2.4412 -0.3667
 5153SOL    HW320345   3.063   3.883   1.554  0.3446  2.6564  0.5319
 5153SOL    MW420346   2.981   3.878   1.582 -0.3317  0.1294 -0.1822
 5154SOL     OW20347   4.357   6.376   6.155  0.2893  0.4172  0.2415
 5154SOL    HW220348   4.330   6.468   6.160  0.8007  0.6698 -1.3075
 5154SOL    HW320349   4.325   6.338   6.237 -2.9358  1.1789 -0.5138
 5154SOL    MW420350   4.349   6.383   6.167  0.3243 -0.0351  0.2504
 5155SOL     OW20351   1.863   3.550   0.304 -0.2025  0.2360 -0.4568
 5155SOL    HW220352   1.785   3.588   0.265 -1.8321 -0.4018  1.9747
 5155SOL    HW320353   1.880   3.604   0.381  1.1140 -0.3163 -0.3304
 5155SOL    MW420354   1.855   3.562   0.309 -0.8219  0.8568 -0.5641
 5156SOL     OW20355   4.312   3.669   6.003 -0.2427 -0.2203 -0.4044
 5156SOL    HW220356   4.222   3.646   5.982 -1.0340  1.1788  1.2590
 5156SOL    HW320357   4.322   3.645   6.095  0.5097  1.2232 -0.0824
 5156SOL    MW420358   4.302   3.663   6.012  0.7211 -0.2455 -0.2025
 5157SOL     OW20359   5.597   2.341   1.388 -0.0598 -0.0297  0.0979
 5157SOL    HW220360   5.597   2.277   1.460 -1.8998 -0.4758 -0.2374
 5157SOL    HW320361   5.509   2.378   1.389 -0.3544 -0.5123 -2.3190
 5157SOL    MW420362   5.585   2.337   1.398 -0.1481 -0.4166  0.4517
 5158SOL     OW20363   5.718   3.043   1.042  0.0116 -0.2789 -0.7310
 5158SOL    HW220364   5.764   2.961   1.059  0.1206 -0.4386 -1.7451
 5158SOL    HW320365   5.687   3.035   0.952 -0.7633  0.4228 -0.5420
 5158SOL    MW420366   5.720   3.031   1.032  0.0651 -0.2954 -0.2507
 5159SOL     OW20367   4.426   2.714   6.146  0.0053 -0.1383  0.1457
 5159SOL    HW220368   4.412   2.620   6.137  0.7116 -0.2749  0.4232
 5159SOL    HW320369   4.389   2.751   6.066  1.4857 -0.8418 -0.9148
 5159SOL    MW420370   4.419   2.706   6.135 -0.8504 -0.3764 -0.5791
 5160SOL     OW20371   2.483   2.612   0.367 -0.2694  0.4349  0.0320
 5160SOL    HW220372   2.571   2.575   0.357 -0.3399  0.4068 -0.4883
 5160SOL    HW320373   2.456   2.634   0.278 -0.2991  1.5618  0.3043
 5160SOL    MW420374   2.491   2.610   0.354  0.7514 -0.0932 -0.1630
 5161SOL     OW20375   5.781   4.970   3.143  0.0368 -0.8145  0.0737
 5161SOL    HW220376   5.713   4.991   3.207  0.1538 -1.5967  0.4673
 5161SOL    HW320377   5.842   4.914   3.191  2.2463  1.7334  0.4345
 5161SOL    MW420378   5.780   4.965   3.158 -0.1944 -0.0375  0.3676
 5162SOL     OW20379   4.361   1.345   2.996  0.9702  0.7253 -0.2227
 5162SOL    HW220380   4.416   1.421   3.016  0.8799  0.4106  1.2982
 5162SOL    HW320381   4.401   1.307   2.917  1.4315  1.9289 -0.5956
 5162SOL    MW420382   4.374   1.350   2.988 -0.0605  0.4466 -0.4506
 5163SOL     OW20383   2.385   0.137   1.545  0.2615 -0.2454  0.3133
 5163SOL    HW220384   2.459   0.180   1.501 -0.8006  1.8906  0.4613
 5163SOL    HW320385   2.391   0.167   1.636  0.4080 -1.7886  0.8457
 5163SOL    MW420386   2.396   0.147   1.552  0.8810  0.0845  0.8948
 5164SOL     OW20387   2.812   6.111   0.645  0.1153  0.0188 -0.4549
 5164SOL    HW220388   2.769   6.191   0.677 -1.8249 -0.0317 -2.6484
 5164SOL    HW320389   2.892   6.143   0.602  0.4039  0.5328  0.4317
 5164SOL    MW420390   2.817   6.126   0.643  0.7802 -0.2848 -0.6840
 5165SOL     OW20391   4.011   3.602   0.478 -0.3028 -0.4761  0.4878
 5165SOL    HW220392   3.995   3.608   0.384 -1.9494  0.9301  0.8091
 5165SOL    HW320393   3.924   3.599   0.518  0.3476 -0.3205  2.0086
 5165SOL    MW420394   3.998   3.603   0.471 -0.0088  0.3355 -0.0713
 5166SOL     OW20395   1.465   2.510   0.468 -0.4393  0.7853 -0.9507
 5166SOL    HW220396   1.473   2.585   0.527 -0.9678 -0.5045  0.8405
 5166SOL    HW320397   1.512   2.537   0.389  4.0940  1.1295  1.4941
 5166SOL    MW420398   1.472   2.524   0.465 -0.3552 -0.8033 -0.2433
 5167SOL     OW20399   5.421   1.182   5.295  0.9233 -0.0345  0.0896
 5167SOL    HW220400   5.414   1.269   5.333 -1.0681 -0.8610  1.7388
 5167SOL    HW320401   5.444   1.124   5.368 -0.0207 -1.2145 -0.4965
 5167SOL    MW420402   5.423   1.186   5.309  0.2435 -0.1732 -0.2947
 5168SOL     OW20403   6.054   1.716   3.498  0.0606 -0.5123  0.0976
 5168SOL    HW220404   6.024   1.637   3.454 -0.2632 -1.2546  1.5882
 5168SOL    HW320405   5.983   1.778   3.488 -0.5578 -1.1101  0.6526
 5168SOL    MW420406   6.041   1.714   3.491  0.0777 -0.5594 -0.3375
 5169SOL     OW20407   5.103   4.217   3.725  0.0075  0.1784 -0.1578
 5169SOL    HW220408   5.111   4.235   3.818  1.5138  0.2451 -0.2650
 5169SOL    HW320409   5.094   4.303   3.684 -1.3464  0.1066 -0.0341
 5169SOL    MW420410   5.103   4.231   3.732  0.4522 -0.1553 -0.0598
 5170SOL     OW20411   4.214   5.188   0.723 -0.2499 -0.0302 -0.4091
 5170SOL    HW220412   4.153   5.228   0.785 -0.9425 -1.7505  0.0716
 5170SOL    HW320413   4.300   5.206   0.759 -0.3150  3.0989 -1.4876
 5170SOL    MW420414   4.217   5.196   0.736 -0.0459  0.2559  0.4607
 5171SOL     OW20415   3.462   3.508   1.992 -0.2557  0.2656 -0.2014
 5171SOL    HW220416   3.521   3.576   1.958  0.8141 -0.1163  0.7997
 5171SOL    HW320417   3.389   3.506   1.931  0.9011  0.5959 -1.6570
 5171SOL    MW420418   3.460   3.516   1.979  0.3308 -0.0360  0.3024
 5172SOL     OW20419   5.382   0.519   2.744 -0.1711  0.1679  0.0177
 5172SOL    HW220420   5.394   0.426   2.764 -1.5955 -0.3752 -1.4212
 5172SOL    HW320421   5.471   0.553   2.732  0.3462 -1.3666 -0.8428
 5172SOL    MW420422   5.395   0.512   2.745 -0.2305 -0.3489  0.3827
 5173SOL     OW20423   1.298   5.549   1.733 -0.5263 -0.0771  0.3160
 5173SOL    HW220424   1.275   5.484   1.668  0.5342  0.0331 -0.1927
 5173SOL    HW320425   1.315   5.499   1.813  1.6575 -0.6379 -0.4145
 5173SOL    MW420426   1.297   5.534   1.735  0.0960 -0.6583  0.1256
 5174SOL     OW20427   4.129   1.634   6.160  0.0620  0.3129  0.2925
 5174SOL    HW220428   4.089   1.562   6.110  1.1261 -1.4612  1.8881
 5174SOL    HW320429   4.054   1.687   6.189 -0.8221 -0.6766 -0.1111
 5174SOL    MW420430   4.114   1.631   6.157 -0.4719  0.2609  0.0254
 5175SOL     OW20431   5.908   3.318   5.559 -0.1110  0.0198  0.2397
 5175SOL    HW220432   5.828   3.332   5.510 -0.0792 -0.5740  0.0079
 5175SOL    HW320433   5.934   3.405   5.588 -1.4804  0.0973  1.3374
 5175SOL    MW420434   5.901   3.331   5.557  0.3627 -0.2553  0.3507
 5176SOL     OW20435   2.865   5.398   5.015 -0.7485  0.0974  0.2199
 5176SOL    HW220436   2.880   5.355   4.931 -1.8202 -0.4546  0.2946
 5176SOL    HW320437   2.774   5.379   5.036 -0.9216  1.4290  0.8263
 5176SOL    MW420438   2.855   5.390   5.006  0.6915 -0.5402 -0.0557
 5177SOL     OW20439   1.394   2.518   3.121  0.1462  0.1831 -0.3139
 5177SOL    HW220440   1.347   2.460   3.061 -2.2669  1.9127 -0.2521
 5177SOL    HW320441   1.480   2.478   3.130 -0.2541 -1.5349 -2.8919
 5177SOL    MW420442   1.399   2.505   3.114  0.1450  0.4468 -0.5215
 5178SOL     OW20443   4.340   1.137   3.678  0.1056  0.3700 -0.1090
 5178SOL    HW220444   4.414   1.190   3.647 -0.7835  2.7623  1.5675
 5178SOL    HW320445   4.300   1.103   3.598  0.5738  2.4804 -1.3162
 5178SOL    MW420446   4.345   1.139   3.663  0.5752 -1.0583  0.6241
 5179SOL     OW20447   1.652   3.664   0.172  0.2663 -0.1731 -0.4074
 5179SOL    HW220448   1.650   3.599   0.103 -1.0642 -0.8813  0.2507
 5179SOL    HW320449   1.573   3.646   0.224  0.5823  1.1068  0.5694
 5179SOL    MW420450   1.641   3.653   0.170  0.5966  0.7303  0.5435
 5180SOL     OW20451   3.223   6.127   2.659  0.3424  0.1519  0.0546
 5180SOL    HW220452   3.135   6.163   2.649 -0.7555 -2.4148 -0.5872
 5180SOL    HW320453   3.257   6.120   2.570  0.7525  0.1475  0.2079
 5180SOL    MW420454   3.216   6.131   2.646 -0.1775  0.2243 -0.5183
 5181SOL     OW20455   4.926   4.338   1.195 -0.2457 -0.0671  0.2715
 5181SOL    HW220456   4.964   4.351   1.282 -0.4345 -0.5439  0.4273
 5181SOL    HW320457   4.869   4.414   1.182  1.2134  0.9821 -0.2236
 5181SOL    MW420458   4.923   4.350   1.205 -0.4744  0.1929 -0.1801
 5182SOL     OW20459   2.589   4.200   4.864 -0.1074  0.2285  0.5419
 5182SOL    HW220460   2.647   4.188   4.789 -0.6291  0.6768  0.0549
 5182SOL    HW320461   2.521   4.134   4.854  0.8539 -0.9974  1.6786
 5182SOL    MW420462   2.588   4.190   4.853 -0.0216 -0.2328  0.3192
 5183SOL     OW20463   6.186   1.384   0.775  0.1826  0.1716  0.1932
 5183SOL    HW220464   6.095   1.357   0.789 -0.0098  1.0683  0.7218
 5183SOL    HW320465   6.220   1.404   0.862  0.7752  0.2048 -0.0380
 5183SOL    MW420466   6.178   1.383   0.788 -0.3633 -0.0561 -0.1009
 5184SOL     OW20467   2.609   1.834   5.331  0.1455 -0.3116 -0.2227
 5184SOL    HW220468   2.567   1.874   5.407  2.5892  1.1827  0.4310
 5184SOL    HW320469   2.546   1.846   5.260 -1.5681 -0.4179  1.1966
 5184SOL    MW420470   2.595   1.841   5.332 -0.6171  0.2328  0.1332
 5185SOL     OW20471   1.566   4.845   0.684 -0.2298  0.2942 -0.0993
 5185SOL    HW220472   1.596   4.881   0.600 -0.2047 -0.9213 -0.6389
 5185SOL    HW320473   1.647   4.820   0.729 -0.2424  0.9602  0.3054
 5185SOL    MW420474   1.581   4.847   0.679 -0.0044 -0.1088  0.3462
 5186SOL     OW20475   1.073   5.123   6.286  0.5878  0.2616  0.3200
 5186SOL    HW220476   0.994   5.150   6.238  0.8756  0.2109 -0.1932
 5186SOL    HW320477   1.040   5.086   6.368  0.0513 -0.1238 -0.0604
 5186SOL    MW420478   1.058   5.121   6.290  0.1808  0.6498 -0.2934
 5187SOL     OW20479   4.806   4.188   5.452 -0.6093 -0.4602 -0.4813
 5187SOL    HW220480   4.858   4.258   5.491  1.5919 -2.8751  1.2435
 5187SOL    HW320481   4.758   4.150   5.526 -0.1646 -2.0375 -0.9700
 5187SOL    MW420482   4.806   4.192   5.467 -0.6432 -0.7833  0.3787
 5188SOL     OW20483   1.233   0.665   6.377  0.1806 -0.0486 -0.1355
 5188SOL    HW220484   1.175   0.726   6.332  2.2299  0.3766 -2.4642
 5188SOL    HW320485   1.222   0.582   6.331 -0.5904 -0.7702  1.2628
 5188SOL    MW420486   1.224   0.662   6.365  0.1726  0.2839  0.4407
 5189SOL     OW20487   1.091   2.410   4.850  0.4555 -0.3530  0.5472
 5189SOL    HW220488   1.163   2.388   4.791 -0.6059 -1.3378 -0.4259
 5189SOL    HW320489   1.031   2.461   4.796 -0.6709 -1.5088  0.6537
 5189SOL    MW420490   1.092   2.414   4.835 -0.5951 -0.4535 -0.1037
 5190SOL     OW20491   1.666   1.941   0.296  0.2225 -0.1081  0.7605
 5190SOL    HW220492   1.579   1.976   0.314 -0.0822 -0.1178 -0.5853
 5190SOL    HW320493   1.693   1.985   0.215  2.3372  1.4424  2.1910
 5190SOL    MW420494   1.658   1.951   0.288 -0.0454 -0.5736  0.1234
 5191SOL     OW20495   1.973   5.181   6.318  0.0290 -0.2857 -0.8819
 5191SOL    HW220496   2.015   5.159   6.402 -0.8610 -0.3059 -0.4292
 5191SOL    HW320497   1.915   5.255   6.339  1.3542  1.1302 -1.9255
 5191SOL    MW420498   1.971   5.188   6.332  0.0378  0.3148 -0.3592
 5192SOL     OW20499   6.425   5.230   3.183 -0.0237  0.1821  0.2593
 5192SOL    HW220500   6.439   5.137   3.200 -1.7464 -0.4240 -1.3034
 5192SOL    HW320501   6.446   5.241   3.090 -1.1064  1.0545  0.0973
 5192SOL    MW420502   6.429   5.219   3.173 -0.3002  0.0953  0.1984
 5193SOL     OW20503   3.529   3.742   4.115 -0.8329  0.4723  0.0544
 5193SOL    HW220504   3.571   3.741   4.029  0.3080  0.5260  0.5877
 5193SOL    HW320505   3.436   3.729   4.097 -0.7587  1.5732 -1.2572
 5193SOL    MW420506   3.522   3.740   4.101 -0.3331 -0.0325 -0.5403
 5194SOL     OW20507   4.449   5.738   3.433 -0.0181 -0.9190  0.1659
 5194SOL    HW220508   4.488   5.705   3.352  0.8847  0.7170 -0.1079
 5194SOL    HW320509   4.523   5.748   3.492 -0.2804  0.4256  0.2869
 5194SOL    MW420510   4.464   5.735   3.430 -0.2054  0.1359 -0.1444
 5195SOL     OW20511   4.807   2.266   4.752 -0.1865 -0.3787 -0.7019
 5195SOL    HW220512   4.853   2.290   4.672  0.6348  0.7636  0.0814
 5195SOL    HW320513   4.732   2.325   4.756  0.1787  0.0741 -0.2853
 5195SOL    MW420514   4.804   2.277   4.742  0.1379 -0.0257  0.0071
 5196SOL     OW20515   3.632   0.686   2.231 -0.1636  0.4928  0.7282
 5196SOL    HW220516   3.614   0.768   2.185  1.8404  0.3964 -0.3380
 5196SOL    HW320517   3.690   0.711   2.303  1.8726 -0.1041 -0.5974
 5196SOL    MW420518   3.637   0.700   2.235 -0.1514 -0.2161 -0.4633
 5197SOL     OW20519   5.811   4.833   1.716  0.1349 -0.0240 -0.2254
 5197SOL    HW220520   5.822   4.741   1.691  0.8713  0.0902 -0.3518
 5197SOL    HW320521   5.752   4.869   1.650 -0.2959 -0.4487 -0.0740
 5197SOL    MW420522   5.805   4.826   1.704 -0.4750  0.0292  0.1885
 5198SOL     OW20523   5.330   5.841   1.756 -0.0531  0.1327  0.0692
 5198SOL    HW220524   5.286   5.834   1.840 -0.7627 -1.5890 -0.4124
 5198SOL    HW320525   5.403   5.780   1.761  0.9392  1.2648  0.0127
 5198SOL    MW420526   5.333   5.832   1.767 -0.5146  0.2261 -0.2241
 5199SOL     OW20527   4.383   1.109   5.299 -0.4309 -0.5541  0.6668
 5199SOL    HW220528   4.302   1.111   5.350 -0.8468 -0.5459  0.0230
 5199SOL    HW320529   4.414   1.019   5.308  0.4374 -0.1269  2.3394
 5199SOL    MW420530   4.376   1.097   5.307  0.0778 -0.3012 -0.2623
 5200SOL     OW20531   3.224   4.020   3.447 -0.4240 -0.2203 -0.0407
 5200SOL    HW220532   3.173   4.046   3.523 -0.2757  0.0521 -0.0334
 5200SOL    HW320533   3.309   3.994   3.482  0.0227  0.9397 -0.2031
 5200SOL    MW420534   3.228   4.020   3.461  0.5864  0.7424 -0.4838
 5201SOL     OW20535   5.908   2.119   1.803  0.2536  0.1122 -0.0751
 5201SOL    HW220536   5.916   2.178   1.727 -1.2931  0.6792  0.1503
 5201SOL    HW320537   5.867   2.174   1.870 -1.7483 -1.3291 -0.0371
 5201SOL    MW420538   5.903   2.134   1.802 -0.3024  0.3337 -0.1386
 5202SOL     OW20539   3.540   1.807   1.124 -0.0357  0.7504 -0.0993
 5202SOL    HW220540   3.482   1.733   1.142 -0.2534  0.3821 -2.1219
 5202SOL    HW320541   3.486   1.868   1.074  0.8593  1.1294 -0.6181
 5202SOL    MW420542   3.525   1.805   1.120 -0.2004  0.6061  0.4413
 5203SOL     OW20543   3.708   2.414   6.025 -0.0142 -0.4770  0.2318
 5203SOL    HW220544   3.687   2.458   5.943 -0.8162  2.0367  1.6722
 5203SOL    HW320545   3.803   2.413   6.028  0.0693  2.1801  0.5564
 5203SOL    MW420546   3.718   2.420   6.015  0.2816 -0.0535  0.9596
 5204SOL     OW20547   3.026   0.777   2.568 -0.1489 -0.3744  0.0128
 5204SOL    HW220548   2.987   0.813   2.648  1.8374  0.4175  0.6849
 5204SOL    HW320549   3.119   0.768   2.588  0.1302 -1.8798 -1.6230
 5204SOL    MW420550   3.033   0.780   2.581  0.1649  0.5068 -0.3623
 5205SOL     OW20551   4.343   2.985   6.412 -0.0760 -0.2475 -0.2521
 5205SOL    HW220552   4.252   2.957   6.422 -0.8209  0.9837 -2.6290
 5205SOL    HW320553   4.360   3.038   6.489 -2.1138  1.1640 -0.6783
 5205SOL    MW420554   4.333   2.988   6.423  0.0685  0.0700 -0.8778
 5206SOL     OW20555   1.597   3.133   4.772  0.5075  0.0588 -0.1367
 5206SOL    HW220556   1.560   3.155   4.857  2.6922  1.5889  0.5082
 5206SOL    HW320557   1.526   3.149   4.710 -0.2615  1.8059  1.1280
 5206SOL    MW420558   1.583   3.138   4.775  0.0932  0.1209  0.2716
 5207SOL     OW20559   5.586   5.266   0.482 -0.1711  0.2723 -0.0970
 5207SOL    HW220560   5.656   5.204   0.500 -0.1264 -0.1538 -1.6311
 5207SOL    HW320561   5.561   5.299   0.568  1.1080 -0.4360  0.5790
 5207SOL    MW420562   5.592   5.262   0.496 -1.4639  0.0412 -0.0594
 5208SOL     OW20563   2.095   0.737   5.769 -0.7834 -0.1178 -0.3715
 5208SOL    HW220564   2.118   0.721   5.677 -0.2887  0.2915 -0.3185
 5208SOL    HW320565   2.176   0.764   5.811 -0.6948 -1.6826  0.5256
 5208SOL    MW420566   2.108   0.738   5.762  0.5687  0.2228  0.3553
 5209SOL     OW20567   1.682   4.860   1.192  0.3787 -0.6263 -0.3738
 5209SOL    HW220568   1.677   4.915   1.270 -1.6271 -0.1213 -0.7949
 5209SOL    HW320569   1.643   4.913   1.123  0.6529 -1.6702 -1.3675
 5209SOL    MW420570   1.676   4.874   1.193 -0.0835  0.0667 -0.6466
 5210SOL     OW20571   4.683   0.500   5.871  0.7021 -0.1496 -0.7082
 5210SOL    HW220572   4.629   0.434   5.827  0.8162 -0.2136 -0.7498
 5210SOL    HW320573   4.763   0.454   5.896  0.1874 -0.4142  0.5541
 5210SOL    MW420574   4.686   0.485   5.869  0.0929 -0.0086  0.3402
 5211SOL     OW20575   0.853   1.014   6.374 -0.2715 -0.3049 -0.0318
 5211SOL    HW220576   0.908   0.952   6.328 -0.3209 -0.8232  0.5910
 5211SOL    HW320577   0.764   0.983   6.359 -0.4072  0.5378 -1.0473
 5211SOL    MW420578   0.848   1.002   6.366  0.4300 -0.0787 -0.5271
 5212SOL     OW20579   3.138   5.576   1.692  1.0944  0.1186 -0.3985
 5212SOL    HW220580   3.143   5.481   1.697  0.5827  0.0323 -1.3032
 5212SOL    HW320581   3.102   5.603   1.777 -0.5631 -0.6583 -0.7973
 5212SOL    MW420582   3.134   5.567   1.704  0.4116 -0.0372  0.4405
 5213SOL     OW20583   4.494   5.951   2.041 -0.2826 -0.5970  0.1750
 5213SOL    HW220584   4.505   5.978   2.132 -1.3924 -0.2114  0.2088
 5213SOL    HW320585   4.440   6.019   2.002  0.4539 -0.5827 -0.8731
 5213SOL    MW420586   4.489   5.963   2.048  0.6936  0.2076 -0.2754
 5214SOL     OW20587   1.925   3.075   2.244  0.0250  0.4831 -0.5476
 5214SOL    HW220588   1.969   3.049   2.325  0.8779  1.9167 -0.5187
 5214SOL    HW320589   1.927   2.996   2.189 -0.5589 -0.5023  0.7993
 5214SOL    MW420590   1.931   3.061   2.247  0.3923 -0.1689  0.2640
 5215SOL     OW20591   6.322   1.259   0.088  0.8745  0.0356 -0.1503
 5215SOL    HW220592   6.357   1.204   0.018 -0.6574  1.9890 -2.6313
 5215SOL    HW320593   6.270   1.325   0.043  0.0158  1.6121  2.8644
 5215SOL    MW420594   6.320   1.261   0.073  0.3373 -0.5023 -0.1095
 5216SOL     OW20595   4.880   2.564   5.519  0.0796 -0.3774 -0.2019
 5216SOL    HW220596   4.940   2.509   5.570 -1.3335 -0.9805  0.8691
 5216SOL    HW320597   4.799   2.513   5.513 -0.5859  0.7198 -0.9921
 5216SOL    MW420598   4.877   2.550   5.525  0.6106 -0.0040 -0.1059
 5217SOL     OW20599   4.876   4.550   0.884 -0.1748 -0.0568 -0.2810
 5217SOL    HW220600   4.967   4.533   0.859 -0.1085  0.7881 -0.6325
 5217SOL    HW320601   4.840   4.463   0.904  0.9220 -0.3329  0.6067
 5217SOL    MW420602   4.883   4.536   0.883 -0.1435  0.0681  0.4884
 5218SOL     OW20603   6.393   3.256   0.540  0.2402  0.2997 -0.1333
 5218SOL    HW220604   6.415   3.172   0.580  2.9168 -0.2306 -2.4091
 5218SOL    HW320605   6.303   3.245   0.510 -0.2001 -0.9202  1.4667
 5218SOL    MW420606   6.384   3.243   0.541  0.2894 -0.1792  0.5350
 5219SOL     OW20607   3.027   4.184   0.935 -0.0159  0.3899  0.2947
 5219SOL    HW220608   2.990   4.141   1.013  0.6199 -0.6002  0.0655
 5219SOL    HW320609   2.980   4.267   0.930 -0.9124 -0.0401  1.0573
 5219SOL    MW420610   3.016   4.189   0.945 -0.2392  0.1918  0.0397
 5220SOL     OW20611   2.733   3.091   2.869 -0.3111  0.2520 -0.0774
 5220SOL    HW220612   2.799   3.046   2.922 -0.9007 -1.3021 -0.6032
 5220SOL    HW320613   2.651   3.078   2.916 -0.7167 -0.4835 -0.9642
 5220SOL    MW420614   2.731   3.083   2.882  0.4188 -0.3306  0.0457
 5221SOL     OW20615   0.965   5.912   3.005 -0.1589  0.1649 -0.0865
 5221SOL    HW220616   0.899   5.977   2.980  0.1385  0.4973 -0.0149
 5221SOL    HW320617   1.046   5.944   2.965 -0.3569 -1.1391 -1.6532
 5221SOL    MW420618   0.967   5.925   2.996 -0.4038  0.3412 -0.1661
 5222SOL     OW20619   2.183   1.905   6.094  0.1862 -0.1614 -0.3236
 5222SOL    HW220620   2.198   1.922   6.187  1.3021 -1.5908 -0.2058
 5222SOL    HW320621   2.110   1.843   6.092 -0.5805  0.7349 -0.4729
 5222SOL    MW420622   2.175   1.899   6.106  0.1944  0.0105 -0.5249
 5223SOL     OW20623   5.548   5.964   0.597 -0.5964 -0.4550 -0.6256
 5223SOL    HW220624   5.508   5.946   0.512  1.3295 -0.6935 -1.5311
 5223SOL    HW320625   5.632   5.918   0.595  0.3809  1.1583  0.6134
 5223SOL    MW420626   5.554   5.956   0.586 -0.0794 -0.2674 -0.3357
 5224SOL     OW20627   1.974   6.127   5.431  0.3573 -0.0263  0.4424
 5224SOL    HW220628   1.982   6.203   5.374 -0.0475 -0.2837  0.0319
 5224SOL    HW320629   1.881   6.105   5.430  0.0399  0.9693  2.5488
 5224SOL    MW420630   1.963   6.134   5.423 -0.0632  0.6459  0.6688
 5225SOL     OW20631   6.010   4.438   5.066 -0.4257 -0.2216  0.1327
 5225SOL    HW220632   6.086   4.471   5.112 -0.8181  0.3907  0.3593
 5225SOL    HW320633   6.039   4.357   5.025  0.9463  0.9904 -1.4678
 5225SOL    MW420634   6.024   4.432   5.066  0.0583  0.2962  0.2436
 5226SOL     OW20635   4.418   6.251   1.589  0.2510  0.1714 -0.1981
 5226SOL    HW220636   4.374   6.167   1.601 -1.8113  1.1171 -0.6864
 5226SOL    HW320637   4.508   6.228   1.566 -0.1703 -1.8848  0.0136
 5226SOL    MW420638   4.424   6.237   1.587  0.2106  0.2472  1.1298
 5227SOL     OW20639   5.382   0.244   0.145 -0.1619  0.1400 -0.1156
 5227SOL    HW220640   5.468   0.253   0.105  0.0868 -0.3140  0.3015
 5227SOL    HW320641   5.394   0.275   0.235 -0.3066 -0.3846  0.0909
 5227SOL    MW420642   5.395   0.249   0.152  0.0601 -0.0889  0.9247
 5228SOL     OW20643   4.673   3.971   6.174 -1.0094 -0.2259  0.6174
 5228SOL    HW220644   4.768   3.969   6.163 -1.0425 -3.4800  0.1869
 5228SOL    HW320645   4.658   3.948   6.265 -1.4107  0.3914  0.7157
 5228SOL    MW420646   4.684   3.968   6.184 -0.3328 -0.0227 -0.6187
 5229SOL     OW20647   5.311   3.055   3.416 -0.0341 -0.2318 -0.0271
 5229SOL    HW220648   5.232   3.071   3.363 -0.6934  0.7869  1.2089
 5229SOL    HW320649   5.279   3.010   3.494  0.9487 -1.8450 -0.5100
 5229SOL    MW420650   5.296   3.051   3.419 -0.0905 -0.8008  0.0239
 5230SOL     OW20651   1.762   0.846   0.874 -0.1642  0.2527 -0.0274
 5230SOL    HW220652   1.832   0.790   0.842 -0.2661 -0.4143  0.8991
 5230SOL    HW320653   1.684   0.818   0.824  0.4805  2.0904 -2.2705
 5230SOL    MW420654   1.761   0.835   0.863  0.7973 -0.2964  0.0070
 5231SOL     OW20655   5.469   4.768   3.876 -0.2763 -0.5187  0.2185
 5231SOL    HW220656   5.527   4.733   3.944 -1.1467 -3.4449 -0.3936
 5231SOL    HW320657   5.510   4.742   3.794 -0.4466  0.9249 -0.3520
 5231SOL    MW420658   5.482   4.760   3.874 -0.1101 -0.1347  0.1413
 5232SOL     OW20659   3.664   5.471   0.093 -0.0712  0.6861  0.3490
 5232SOL    HW220660   3.745   5.470   0.143  0.1563  0.3821 -0.0282
 5232SOL    HW320661   3.689   5.501   0.006  0.0547 -1.6051 -0.4686
 5232SOL    MW420662   3.678   5.475   0.088  0.1187  0.0382 -0.1422
 5233SOL     OW20663   3.696   2.069   3.377  0.2601  0.8807  0.2494
 5233SOL    HW220664   3.785   2.049   3.350  0.4982  1.6447  0.4424
 5233SOL    HW320665   3.683   2.160   3.351 -0.7137  0.5612 -0.4166
 5233SOL    MW420666   3.706   2.078   3.370 -0.1897  0.6257  0.7028
 5234SOL     OW20667   0.443   0.882   2.438 -0.0741  0.0459 -0.3147
 5234SOL    HW220668   0.371   0.943   2.452 -1.2232 -1.5209  0.9101
 5234SOL    HW320669   0.500   0.927   2.375 -2.3055  1.1632 -1.6663
 5234SOL    MW420670   0.441   0.896   2.431 -0.2128  0.3770 -0.0958
 5235SOL     OW20671   4.898   2.849   0.106 -0.2974  0.5599 -0.0348
 5235SOL    HW220672   4.919   2.757   0.089 -0.1487  0.2062  1.8649
 5235SOL    HW320673   4.803   2.853   0.102 -0.4334 -0.1074  1.6517
 5235SOL    MW420674   4.888   2.838   0.103  0.2835 -0.5129 -0.3899
 5236SOL     OW20675   1.887   3.356   1.452 -0.4790  0.0063  0.6041
 5236SOL    HW220676   1.913   3.279   1.401 -0.5810 -0.6987  1.5804
 5236SOL    HW320677   1.872   3.424   1.387  2.9065  0.2404 -0.1560
 5236SOL    MW420678   1.889   3.355   1.437 -0.6082  0.1782  0.2871
 5237SOL     OW20679   2.888   2.516   2.650  0.6521  0.3778 -0.0274
 5237SOL    HW220680   2.807   2.478   2.616 -0.5065  2.0612  0.7390
 5237SOL    HW320681   2.911   2.459   2.724  2.4510 -2.4926 -2.5364
 5237SOL    MW420682   2.880   2.503   2.656  0.7775  0.1218  0.3393
 5238SOL     OW20683   5.064   5.339   5.670 -0.0273 -0.1043 -0.2937
 5238SOL    HW220684   5.017   5.394   5.732 -1.3808 -0.7664 -0.6986
 5238SOL    HW320685   5.156   5.365   5.680 -0.4511  1.1493  0.5848
 5238SOL    MW420686   5.070   5.350   5.679 -0.0618 -0.0797 -0.2094
 5239SOL     OW20687   1.462   1.051   2.745  0.8607 -0.1500 -0.1044
 5239SOL    HW220688   1.540   1.018   2.701  0.2683 -0.4771 -0.9349
 5239SOL    HW320689   1.488   1.137   2.780  1.4432 -0.0373 -0.8048
 5239SOL    MW420690   1.476   1.058   2.744  0.7097 -0.2806  0.0532
 5240SOL     OW20691   4.071   5.331   6.048 -0.5677 -0.3292  0.3532
 5240SOL    HW220692   4.163   5.310   6.065 -0.9011 -2.1684  0.0927
 5240SOL    HW320693   4.072   5.373   5.962 -0.0324 -1.1089 -0.0424
 5240SOL    MW420694   4.083   5.333   6.039 -0.5157 -0.0278 -0.6872
 5241SOL     OW20695   0.658   0.559   3.008 -0.2843 -0.4042 -0.2322
 5241SOL    HW220696   0.572   0.519   3.019  0.4140 -1.9144 -0.1063
 5241SOL    HW320697   0.715   0.511   3.067  0.4006  1.4985  0.7384
 5241SOL    MW420698   0.654   0.547   3.017 -0.0318  0.5893  0.2595
 5242SOL     OW20699   0.858   3.235   0.481  0.4628  0.3300  0.4069
 5242SOL    HW220700   0.834   3.248   0.389  1.1346  0.8783  0.2965
 5242SOL    HW320701   0.951   3.211   0.478  0.1874 -0.8385  0.8728
 5242SOL    MW420702   0.867   3.234   0.468  0.6629 -0.1539  0.3960
 5243SOL     OW20703   5.391   4.526   3.238  0.0601  0.2473 -0.3794
 5243SOL    HW220704   5.417   4.460   3.302 -1.0685  0.2944  0.1699
 5243SOL    HW320705   5.404   4.484   3.153  1.7070  0.2296 -0.1498
 5243SOL    MW420706   5.396   4.512   3.235 -0.3048 -0.0936 -0.0654
 5244SOL     OW20707   0.783   5.644   2.313 -0.2418  0.2991 -0.0344
 5244SOL    HW220708   0.828   5.727   2.330 -1.1551  0.5392  1.3001
 5244SOL    HW320709   0.734   5.659   2.232  0.8635  0.5193 -0.6806
 5244SOL    MW420710   0.783   5.657   2.304 -0.2334  0.3498 -0.0531
 5245SOL     OW20711   1.789   1.629   3.942  0.2399  0.2051 -0.4322
 5245SOL    HW220712   1.736   1.581   3.878  0.1324 -1.4536  0.8077
 5245SOL    HW320713   1.832   1.698   3.892 -1.6916  0.4939 -1.8182
 5245SOL    MW420714   1.787   1.632   3.927  0.0348  0.2695  0.1216
 5246SOL     OW20715   3.886   1.513   3.050 -0.0184  0.4169  0.2290
 5246SOL    HW220716   3.859   1.553   2.968 -0.2992  0.6775  0.4462
 5246SOL    HW320717   3.823   1.442   3.065 -0.1787  0.5923  0.3936
 5246SOL    MW420718   3.874   1.509   3.041 -0.3599  0.2159 -0.2227
 5247SOL     OW20719   1.279   1.105   2.516  0.4089  0.3111  0.2384
 5247SOL    HW220720   1.244   1.022   2.485 -0.6394  0.9239 -0.3004
 5247SOL    HW320721   1.312   1.086   2.604  1.1605 -0.8925 -0.2866
 5247SOL    MW420722   1.278   1.092   2.524  0.1378  0.0014  0.5166
 5248SOL     OW20723   4.478   1.320   3.529 -0.3305 -0.2910  0.1572
 5248SOL    HW220724   4.551   1.263   3.503  0.1202 -0.1502  1.0626
 5248SOL    HW320725   4.452   1.364   3.448 -0.2157 -1.2504 -0.4181
 5248SOL    MW420726   4.484   1.318   3.515  0.1981  0.1272  0.0872
 5249SOL     OW20727   2.050   6.371   5.900 -0.6948  0.5384 -0.1630
 5249SOL    HW220728   2.006   6.405   5.978 -0.2681  0.9262 -0.0886
 5249SOL    HW320729   2.137   6.411   5.902  0.7062 -2.2273  1.1724
 5249SOL    MW420730   2.056   6.381   5.911  0.3283 -0.9630 -0.1238
 5250SOL     OW20731   2.725   6.414   5.894 -0.1050  0.7803 -0.3135
 5250SOL    HW220732   2.798   6.428   5.834 -1.1079  1.5814 -1.4150
 5250SOL    HW320733   2.694   6.502   5.916 -0.7724  0.4597  0.0715
 5250SOL    MW420734   2.730   6.427   5.889 -0.1599 -0.5409  0.4271
 5251SOL     OW20735   0.182   4.781   0.535  0.4871 -0.2367  0.4166
 5251SOL    HW220736   0.125   4.790   0.612  1.1210  2.5627  0.6820
 5251SOL    HW320737   0.261   4.830   0.559  0.5682  0.9885 -2.0990
 5251SOL    MW420738   0.185   4.789   0.549 -0.3126 -0.3949  0.3042
 5252SOL     OW20739   4.705   3.127   3.517  0.6411  0.0275 -0.0017
 5252SOL    HW220740   4.650   3.059   3.557 -1.4045  1.5482 -0.0749
 5252SOL    HW320741   4.701   3.200   3.579 -2.3720  2.3617 -2.6636
 5252SOL    MW420742   4.698   3.128   3.531  0.4949 -0.3356  0.4538
 5253SOL     OW20743   1.793   6.348   4.770  0.3352  0.3671 -0.2442
 5253SOL    HW220744   1.721   6.347   4.708  0.3033  0.3239 -0.2061
 5253SOL    HW320745   1.823   6.257   4.774 -0.9744 -0.0415  1.3318
 5253SOL    MW420746   1.788   6.336   4.762  0.3124  0.0385 -0.1656
 5254SOL     OW20747   5.433   1.409   3.666 -0.2613  0.7037 -0.3585
 5254SOL    HW220748   5.361   1.427   3.727  0.6543  0.8586  0.7012
 5254SOL    HW320749   5.469   1.496   3.645 -0.1515  0.5999 -0.6056
 5254SOL    MW420750   5.428   1.423   3.671  0.5289 -0.1713  0.0960
 5255SOL     OW20751   0.548   6.227   5.344  0.1348  0.2956 -0.0687
 5255SOL    HW220752   0.540   6.150   5.288  1.0039 -0.3426  0.6443
 5255SOL    HW320753   0.467   6.229   5.395 -0.8328  1.0978 -1.5636
 5255SOL    MW420754   0.536   6.217   5.343  1.0300 -0.4026  0.4822
 5256SOL     OW20755   4.195   2.513   2.943  0.2635  0.3267 -0.3381
 5256SOL    HW220756   4.139   2.588   2.924  1.4755  1.2212 -0.4801
 5256SOL    HW320757   4.143   2.459   3.003 -1.1222  0.6238 -1.2246
 5256SOL    MW420758   4.181   2.516   2.949 -0.8652 -0.0529  0.3026
 5257SOL     OW20759   1.867   3.446   5.220 -0.0256  0.2244  0.2086
 5257SOL    HW220760   1.826   3.532   5.228 -2.1456 -0.6858 -0.2951
 5257SOL    HW320761   1.849   3.402   5.304 -1.2382 -0.6327 -0.4697
 5257SOL    MW420762   1.859   3.451   5.233  0.2519 -0.3940 -0.0679
 5258SOL     OW20763   2.144   5.141   4.099  0.0867 -0.2642 -0.5692
 5258SOL    HW220764   2.220   5.153   4.156  1.1037 -0.6865 -1.7812
 5258SOL    HW320765   2.179   5.100   4.020 -1.4666 -0.7721 -1.0425
 5258SOL    MW420766   2.158   5.137   4.096  0.5985  0.3409  0.0523
 5259SOL     OW20767   6.270   2.480   6.243  0.5082  0.1537 -0.4084
 5259SOL    HW220768   6.315   2.539   6.182  0.5058  0.0301 -0.5320
 5259SOL    HW320769   6.199   2.442   6.191 -0.2967  1.0159  0.0335
 5259SOL    MW420770   6.267   2.483   6.228 -0.2551  0.0987  0.1205
 5260SOL     OW20771   5.867   6.062   3.814 -0.7915 -0.3829 -0.4114
 5260SOL    HW220772   5.919   6.062   3.894  1.5871 -1.9101 -1.8267
 5260SOL    HW320773   5.886   6.146   3.773  0.3925 -0.7824 -0.7410
 5260SOL    MW420774   5.877   6.073   3.819 -0.1897  0.0698 -0.1387
 5261SOL     OW20775   3.383   0.907   0.836 -0.2714  0.2361  0.2035
 5261SOL    HW220776   3.296   0.868   0.829 -0.3052  0.1825  0.8416
 5261SOL    HW320777   3.441   0.832   0.854 -0.3926  0.5052  1.8408
 5261SOL    MW420778   3.380   0.892   0.837  0.3077 -0.5462 -1.1251
 5262SOL     OW20779   5.824   6.084   5.750  0.6669  0.4559 -0.1293
 5262SOL    HW220780   5.770   6.122   5.680 -0.6009 -0.8167  0.1134
 5262SOL    HW320781   5.902   6.051   5.705  0.5092  0.8997 -0.7359
 5262SOL    MW420782   5.827   6.084   5.735 -0.3672 -0.3471  0.3095
 5263SOL     OW20783   5.593   2.092   4.584 -0.0219 -0.3449 -0.0217
 5263SOL    HW220784   5.554   2.091   4.496  0.3173  1.6686 -0.2603
 5263SOL    HW320785   5.575   2.181   4.616  0.1185 -0.9489  1.8425
 5263SOL    MW420786   5.585   2.104   4.577 -0.3670  0.1838  0.1124
 5264SOL     OW20787   5.932   2.233   0.712  0.0861  0.0565 -0.3628
 5264SOL    HW220788   5.881   2.224   0.632  1.6153  1.6120 -1.5885
 5264SOL    HW320789   6.021   2.209   0.687  0.4764 -0.0598  1.0449
 5264SOL    MW420790   5.937   2.228   0.698 -0.4491 -0.3402 -0.2785
 5265SOL     OW20791   2.428   4.384   4.461  0.0420  0.5814  0.3997
 5265SOL    HW220792   2.511   4.391   4.508  0.8268  1.2406 -1.0416
 5265SOL    HW320793   2.430   4.454   4.397 -0.2846 -1.2044 -1.6895
 5265SOL    MW420794   2.439   4.394   4.459  0.1533 -0.4567 -0.8809
 5266SOL     OW20795   4.898   1.504   1.160 -0.2853 -0.5592 -0.4190
 5266SOL    HW220796   4.829   1.570   1.151 -0.1170 -0.2038  0.6674
 5266SOL    HW320797   4.852   1.421   1.150 -0.9062 -0.3281  0.3610
 5266SOL    MW420798   4.883   1.502   1.158 -0.7590 -0.4478 -0.1077
 5267SOL     OW20799   1.695   4.916   0.049  0.2794  0.4055  0.3033
 5267SOL    HW220800   1.763   4.940   0.112  1.7335  0.3738 -1.1742
 5267SOL    HW320801   1.735   4.933  -0.036 -0.2669 -2.8418 -0.7507
 5267SOL    MW420802   1.710   4.921   0.046  0.1681  0.0230  0.1129
 5268SOL     OW20803   4.221   4.084   4.793  0.4738 -0.1930  0.0269
 5268SOL    HW220804   4.182   4.000   4.816  1.8712 -0.6812  0.7435
 5268SOL    HW320805   4.240   4.125   4.877 -1.3025  1.4288 -0.2896
 5268SOL    MW420806   4.218   4.079   4.807  0.3463  0.5726 -0.0928
 5269SOL     OW20807   5.817   4.518   3.475 -0.1710  0.6228 -0.5228
 5269SOL    HW220808   5.898   4.478   3.506 -1.8312 -1.6986  1.1990
 5269SOL    HW320809   5.819   4.607   3.509  0.5222 -0.1955  1.7126
 5269SOL    MW420810   5.828   4.524   3.483  0.4327  0.4759 -0.1918
 5270SOL     OW20811   0.919   4.864   4.283  0.1280 -0.1598 -0.0982
 5270SOL    HW220812   0.894   4.880   4.192 -0.8525 -2.6335 -0.3353
 5270SOL    HW320813   0.967   4.943   4.309 -1.9094  1.7946 -1.8682
 5270SOL    MW420814   0.922   4.877   4.275  0.3355 -0.4514 -0.1411
 5271SOL     OW20815   4.818   6.415   2.397 -0.0236  0.4539 -0.3755
 5271SOL    HW220816   4.881   6.349   2.422 -1.1862 -0.6586 -0.2794
 5271SOL    HW320817   4.862   6.467   2.330  1.3307  0.3430  0.4110
 5271SOL    MW420818   4.832   6.413   2.391  0.3403  0.0523 -0.7257
 5272SOL     OW20819   4.340   1.458   2.110  0.0719 -0.3522 -0.2056
 5272SOL    HW220820   4.374   1.422   2.028  0.6157 -2.5796  0.9347
 5272SOL    HW320821   4.285   1.532   2.083 -0.3133 -1.4439 -2.6131
 5272SOL    MW420822   4.337   1.463   2.096 -0.2029 -0.0884  0.3021
 5273SOL     OW20823   0.276   0.399   1.986 -0.1315 -0.4405  0.0806
 5273SOL    HW220824   0.342   0.453   2.031 -0.2937  0.9589 -1.2762
 5273SOL    HW320825   0.248   0.336   2.052 -0.7594  1.8266  2.1595
 5273SOL    MW420826   0.281   0.398   2.001 -0.1094  0.0361 -0.5606
 5274SOL     OW20827   4.953   2.975   2.247 -0.0785 -0.2916  0.1092
 5274SOL    HW220828   4.933   2.926   2.167  0.4229 -0.2485 -0.0439
 5274SOL    HW320829   4.899   3.053   2.242  0.0128 -0.2513 -0.2264
 5274SOL    MW420830   4.943   2.979   2.236 -0.2182 -0.5112 -0.2435
 5275SOL     OW20831   0.434   1.484   0.274 -0.0233  0.2309 -0.1558
 5275SOL    HW220832   0.504   1.539   0.309  0.6771  0.1271 -1.3520
 5275SOL    HW320833   0.479   1.408   0.237 -0.7926  0.0110 -0.6673
 5275SOL    MW420834   0.449   1.481   0.274 -0.9096  0.3512 -0.1288
 5276SOL     OW20835   6.374   5.602   4.586  0.1791  0.4167  0.6746
 5276SOL    HW220836   6.295   5.562   4.622  0.6236 -1.6474 -0.4779
 5276SOL    HW320837   6.363   5.597   4.491  1.7338 -0.0102  0.4837
 5276SOL    MW420838   6.362   5.596   4.578  0.1185  0.4197  0.0138
 5277SOL     OW20839   0.755   3.794   5.020  0.1997 -0.0056  0.4107
 5277SOL    HW220840   0.710   3.726   5.070 -0.7224  0.3604  0.1013
 5277SOL    HW320841   0.844   3.761   5.010  0.3896 -0.1170  2.2089
 5277SOL    MW420842   0.761   3.780   5.025 -0.4779 -0.3492 -0.0969
 5278SOL     OW20843   3.182   4.361   5.095  0.5233  0.4393  0.6973
 5278SOL    HW220844   3.226   4.446   5.098  0.3451  0.6433 -1.1048
 5278SOL    HW320845   3.092   4.381   5.072  1.0675 -0.2961 -2.6147
 5278SOL    MW420846   3.176   4.374   5.092 -0.3453  0.0030 -0.0377
 5279SOL     OW20847   3.693   0.526   4.261  0.1256  0.5674 -0.4106
 5279SOL    HW220848   3.718   0.458   4.323 -0.4808  0.2715 -0.4839
 5279SOL    HW320849   3.757   0.520   4.190 -0.0593 -0.0677 -0.5225
 5279SOL    MW420850   3.705   0.516   4.260 -0.0680  0.1159  0.3226
 5280SOL     OW20851   3.930   6.129   5.743 -0.0090 -0.2760 -0.1372
 5280SOL    HW220852   3.900   6.168   5.660  1.0477  0.3478 -0.2477
 5280SOL    HW320853   3.985   6.056   5.716 -0.4852 -0.7015  0.0406
 5280SOL    MW420854   3.933   6.125   5.728 -1.0216  1.0143  0.2432
 5281SOL     OW20855   3.811   6.072   0.571 -0.2659 -0.2552 -0.0080
 5281SOL    HW220856   3.836   5.992   0.618  2.8179  1.6727  2.0128
 5281SOL    HW320857   3.773   6.129   0.638 -1.7034  0.3199 -1.2552
 5281SOL    MW420858   3.809   6.069   0.586  0.0751 -1.0056 -0.4564
 5282SOL     OW20859   2.326   5.213   2.842 -0.1757  0.6753  0.2408
 5282SOL    HW220860   2.311   5.156   2.918  1.5068 -0.0689  0.0733
 5282SOL    HW320861   2.269   5.178   2.774 -2.1783  1.7319  1.2851
 5282SOL    MW420862   2.317   5.201   2.843 -0.3733 -0.6249  0.9462
 5283SOL     OW20863   6.432   0.182   5.986 -0.6646 -0.0173  0.4758
 5283SOL    HW220864   6.343   0.153   5.968 -1.7663  3.6872 -0.9728
 5283SOL    HW320865   6.425   0.232   6.067 -0.1367  1.0133 -0.0905
 5283SOL    MW420866   6.419   0.185   5.994 -0.4702  0.5311  0.0627
 5284SOL     OW20867   2.009   3.155   5.646  0.1797 -0.1914  0.2116
 5284SOL    HW220868   2.094   3.113   5.636  0.8518  1.2949 -0.6198
 5284SOL    HW320869   2.003   3.178   5.739  1.6382  1.5263 -0.0638
 5284SOL    MW420870   2.019   3.153   5.657 -0.4584  0.3598 -0.5159
 5285SOL     OW20871   2.758   5.011   0.553 -0.0385 -0.2777 -0.0611
 5285SOL    HW220872   2.758   5.030   0.459 -0.5268 -1.1014 -0.2434
 5285SOL    HW320873   2.761   5.096   0.595  0.4871  0.0910 -0.8290
 5285SOL    MW420874   2.758   5.025   0.546  0.0398 -0.4883 -0.8851
 5286SOL     OW20875   1.759   1.473   5.975  0.0949  0.1849 -0.4177
 5286SOL    HW220876   1.762   1.500   6.067 -0.9161 -0.1142 -0.2868
 5286SOL    HW320877   1.676   1.508   5.943  0.8553  1.0891 -1.4835
 5286SOL    MW420878   1.748   1.481   5.983  0.4089  0.1267  0.4264
 5287SOL     OW20879   3.758   0.288   4.404 -0.2727  1.2577 -0.1188
 5287SOL    HW220880   3.848   0.278   4.435 -0.9233 -1.0549  1.2178
 5287SOL    HW320881   3.756   0.244   4.319 -0.2984  0.6449  0.1957
 5287SOL    MW420882   3.769   0.281   4.397 -0.0148  0.5872 -0.7175
 5288SOL     OW20883   6.305   4.617   1.687 -0.0456  0.4842  0.1161
 5288SOL    HW220884   6.332   4.628   1.778 -0.9536  0.3176  0.4134
 5288SOL    HW320885   6.228   4.673   1.678 -1.4058 -1.3220  0.1162
 5288SOL    MW420886   6.299   4.626   1.698  0.5169  0.6309 -0.5638
 5289SOL     OW20887   6.155   5.207   5.105  0.5117 -0.3124 -0.5499
 5289SOL    HW220888   6.162   5.278   5.168  0.5590 -1.3946  0.7085
 5289SOL    HW320889   6.244   5.173   5.096  0.3430 -0.7964 -0.4420
 5289SOL    MW420890   6.168   5.212   5.112  0.2715 -0.3196  0.0318
 5290SOL     OW20891   0.181   5.807   4.854 -0.1999  0.2766 -0.4095
 5290SOL    HW220892   0.267   5.811   4.895  1.2171 -1.1224 -2.9931
 5290SOL    HW320893   0.173   5.891   4.807 -0.1917  0.3401 -0.2979
 5290SOL    MW420894   0.191   5.819   4.853 -0.3188  0.0777 -0.1555
 5291SOL     OW20895   0.571   0.999   1.418  0.2445  0.3675  0.0419
 5291SOL    HW220896   0.580   0.940   1.493  2.0624  0.6034  0.0469
 5291SOL    HW320897   0.589   0.944   1.342  0.5879  0.6100 -0.0538
 5291SOL    MW420898   0.575   0.984   1.418  0.3095 -0.5686  0.2313
 5292SOL     OW20899   3.451   2.972   5.451 -0.5145 -0.5387 -0.4273
 5292SOL    HW220900   3.373   2.916   5.459  1.2131 -3.2116 -0.8593
 5292SOL    HW320901   3.437   3.022   5.371 -2.2964 -0.0069  0.1622
 5292SOL    MW420902   3.438   2.971   5.442 -0.1126  0.3294  0.6671
 5293SOL     OW20903   4.595   3.472   2.144  0.6642 -0.4020 -0.5699
 5293SOL    HW220904   4.598   3.546   2.082  1.3421  0.9707  1.0262
 5293SOL    HW320905   4.683   3.433   2.140  0.7821 -0.1668 -0.3219
 5293SOL    MW420906   4.607   3.477   2.135  0.0514 -0.1525 -0.1998
 5294SOL     OW20907   1.343   0.978   5.575  0.6377 -0.3031  0.0288
 5294SOL    HW220908   1.397   0.973   5.496 -1.3116  1.3605 -1.5441
 5294SOL    HW320909   1.267   0.923   5.556  1.4593 -2.2792  2.0344
 5294SOL    MW420910   1.340   0.970   5.562  0.1772 -0.0746 -0.0132
 5295SOL     OW20911   1.079   0.537   0.823  0.1792  0.3888  0.3960
 5295SOL    HW220912   1.001   0.500   0.783 -0.8419  2.1393  0.6710
 5295SOL    HW320913   1.149   0.521   0.760  0.1079 -2.8838  0.9336
 5295SOL    MW420914   1.078   0.530   0.810 -0.9938  0.1264 -0.1198
 5296SOL     OW20915   2.540   5.662   5.132  0.2778 -0.3447 -0.2645
 5296SOL    HW220916   2.445   5.673   5.128 -0.2904 -3.9936 -0.0749
 5296SOL    HW320917   2.563   5.690   5.221 -0.4182  1.2537 -0.5357
 5296SOL    MW420918   2.531   5.667   5.143  0.0973  0.3351 -0.5048
 5297SOL     OW20919   2.029   5.601   0.050 -0.2379  0.8140  0.0577
 5297SOL    HW220920   1.955   5.540   0.053 -0.0441  0.3500 -2.4791
 5297SOL    HW320921   2.017   5.649  -0.033  1.2569  2.1070  0.5359
 5297SOL    MW420922   2.017   5.600   0.039  0.6605  0.5806 -0.3785
 5298SOL     OW20923   5.899   1.328   1.507  0.3396  0.2621  0.1456
 5298SOL    HW220924   5.832   1.375   1.557 -0.3805 -0.4442 -0.1242
 5298SOL    HW320925   5.849   1.266   1.453  1.2215 -0.3657  0.0324
 5298SOL    MW420926   5.883   1.326   1.506  0.4542 -0.2152 -0.9456
 5299SOL     OW20927   4.206   2.488   3.492  0.6701 -0.7763  0.0871
 5299SOL    HW220928   4.228   2.395   3.500  0.1304 -0.8239  1.2557
 5299SOL    HW320929   4.231   2.526   3.577  3.0137  0.6367 -1.1461
 5299SOL    MW420930   4.212   2.481   3.505 -0.1571 -0.2035 -0.0562
 5300SOL     OW20931   6.065   3.483   5.281 -0.1210  0.4769  0.2256
 5300SOL    HW220932   6.001   3.479   5.209 -1.3948 -1.6587  1.3724
 5300SOL    HW320933   6.148   3.502   5.238 -0.7298 -1.2561 -1.9124
 5300SOL    MW420934   6.067   3.485   5.265  0.1806  0.2787  0.1689
 5301SOL     OW20935   0.685   1.385   3.167 -0.0216 -0.1443  0.0879
 5301SOL    HW220936   0.651   1.337   3.242 -2.1655 -1.7849 -1.8099
 5301SOL    HW320937   0.613   1.440   3.138  1.1264  1.2960 -0.1852
 5301SOL    MW420938   0.671   1.386   3.173  0.5117  0.4386  0.7538
 5302SOL     OW20939   2.604   2.180   6.216  0.6407  0.0254  0.2348
 5302SOL    HW220940   2.657   2.191   6.295 -1.3801  1.6533  1.4453
 5302SOL    HW320941   2.518   2.214   6.240 -0.4335 -0.7484 -2.2555
 5302SOL    MW420942   2.600   2.186   6.230 -0.2027  0.0731  0.1201
 5303SOL     OW20943   3.087   1.248   1.726 -0.7037 -0.2922 -0.5263
 5303SOL    HW220944   3.040   1.179   1.772 -1.2605  0.3041 -0.1882
 5303SOL    HW320945   3.019   1.301   1.686 -0.5204  1.8032  1.6815
 5303SOL    MW420946   3.072   1.246   1.727 -0.3774  0.6356 -0.2082
 5304SOL     OW20947   5.522   0.015   6.240  0.3233  0.5083  0.4017
 5304SOL    HW220948   5.529   0.032   6.146 -0.6523  0.1600  0.2525
 5304SOL    HW320949   5.575  -0.063   6.254  2.4588  1.9142  0.5896
 5304SOL    MW420950   5.530   0.007   6.229 -0.3498  1.2498 -0.0738
 5305SOL     OW20951   0.131   2.323   1.810 -0.2139 -0.7995  0.4239
 5305SOL    HW220952   0.092   2.398   1.766 -1.7115 -1.9018 -0.1950
 5305SOL    HW320953   0.068   2.252   1.798  2.5074 -3.0657 -1.7370
 5305SOL    MW420954   0.118   2.324   1.803  0.2760 -0.0696 -0.2532
 5306SOL     OW20955   2.953   2.872   0.208 -0.1181  0.3451 -0.1777
 5306SOL    HW220956   2.879   2.907   0.258 -0.8782  1.1595 -1.7856
 5306SOL    HW320957   3.008   2.829   0.273 -1.2329  1.0481  1.2914
 5306SOL    MW420958   2.951   2.871   0.223 -0.4070 -0.0658 -0.1171
 5307SOL     OW20959   4.442   3.067   6.160 -0.1576  0.4334 -0.2941
 5307SOL    HW220960   4.408   2.994   6.108 -0.0873  0.5836 -0.5513
 5307SOL    HW320961   4.418   3.045   6.250 -0.8703  0.4951 -0.4607
 5307SOL    MW420962   4.434   3.054   6.165  0.1242  0.2513  0.0575
 5308SOL     OW20963   4.350   1.838   1.624 -0.1106  0.0634  0.4477
 5308SOL    HW220964   4.272   1.788   1.601 -0.4852  0.0164  1.7608
 5308SOL    HW320965   4.418   1.772   1.639  0.3150  0.1187 -1.0641
 5308SOL    MW420966   4.349   1.823   1.623  0.0934  0.7334  0.0636
 5309SOL     OW20967   5.762   5.679   5.964 -0.2546 -0.4046 -0.3060
 5309SOL    HW220968   5.840   5.726   5.936  0.1779 -0.9057  0.0412
 5309SOL    HW320969   5.726   5.733   6.035  0.4154 -0.7436  0.3076
 5309SOL    MW420970   5.767   5.692   5.970 -0.0267 -0.1598 -0.4449
 5310SOL     OW20971   5.599   1.681   0.590 -0.0922  0.2593 -0.3638
 5310SOL    HW220972   5.602   1.735   0.669  0.8271  0.0023 -0.2069
 5310SOL    HW320973   5.512   1.642   0.591  0.6098 -1.4345  1.7043
 5310SOL    MW420974   5.588   1.683   0.600 -0.0977 -0.9462 -0.2978
 5311SOL     OW20975   6.216   1.837   0.092 -0.0118 -0.2204  0.1895
 5311SOL    HW220976   6.291   1.807   0.040 -0.5853 -2.3436  0.5217
 5311SOL    HW320977   6.155   1.871   0.027  0.5604  0.0565 -0.2186
 5311SOL    MW420978   6.218   1.838   0.076  0.4519 -0.2037 -0.2032
 5312SOL     OW20979   6.145   0.903   1.417  0.5566 -0.0156 -0.0186
 5312SOL    HW220980   6.057   0.878   1.389  0.6950 -0.6622  0.1093
 5312SOL    HW320981   6.134   0.941   1.504  0.3773  0.1378 -0.1076
 5312SOL    MW420982   6.132   0.905   1.425 -0.2166  0.0562 -0.0633
 5313SOL     OW20983   3.941   4.961   2.977  0.2921  0.1547  0.0184
 5313SOL    HW220984   3.900   5.048   2.979 -4.4640 -1.8018  1.4626
 5313SOL    HW320985   3.962   4.942   3.068  1.3213 -0.2539 -0.2900
 5313SOL    MW420986   3.938   4.970   2.989  0.7196  0.6527  0.1147
 5314SOL     OW20987   5.861   1.703   1.915 -0.4773 -0.2465 -0.1381
 5314SOL    HW220988   5.841   1.610   1.905  1.1450 -0.5960 -0.2726
 5314SOL    HW320989   5.940   1.718   1.864 -0.6995  1.2189 -0.1194
 5314SOL    MW420990   5.868   1.693   1.907 -0.2687  0.3958  0.0359
 5315SOL     OW20991   4.127   3.220   2.266 -0.3948  0.2116  0.1271
 5315SOL    HW220992   4.202   3.237   2.210 -0.6225  0.3082 -0.1534
 5315SOL    HW320993   4.164   3.184   2.346 -0.1503 -1.2130 -0.5932
 5315SOL    MW420994   4.142   3.217   2.269 -0.1486  0.2716  0.3392
 5316SOL     OW20995   0.109   5.704   5.246 -0.5591 -0.1615 -0.3970
 5316SOL    HW220996   0.066   5.779   5.204 -0.8948  0.7308  1.4570
 5316SOL    HW320997   0.143   5.738   5.328  0.6077 -1.7131 -0.1923
 5316SOL    MW420998   0.108   5.718   5.251 -0.1769 -0.2325 -0.4052
 5317SOL     OW20999   5.178   3.750   4.639  0.1841 -0.1413  0.4810
 5317SOL    HW221000   5.240   3.763   4.567 -0.7198  1.2867 -0.0994
 5317SOL    HW321001   5.100   3.798   4.611 -1.7750 -3.0869  0.4996
 5317SOL    MW421002   5.176   3.758   4.625 -0.4899  0.0566  0.1688
 5318SOL     OW21003   5.827   5.825   1.456  0.7668  0.0871  0.4899
 5318SOL    HW221004   5.900   5.764   1.469  0.8912 -0.3806 -1.8415
 5318SOL    HW321005   5.750   5.774   1.479  1.1163  0.5141  2.7635
 5318SOL    MW421006   5.827   5.810   1.461  0.0103  0.3402 -1.1074
 5319SOL     OW21007   4.869   0.644   6.004  0.4293 -0.0954 -0.0239
 5319SOL    HW221008   4.899   0.707   6.070  0.2650  0.5696 -0.5726
 5319SOL    HW321009   4.947   0.593   5.982  0.2917 -0.9699  1.3526
 5319SOL    MW421010   4.883   0.646   6.010  0.2045  0.4959  0.3825
 5320SOL     OW21011   4.211   0.685   5.929 -0.5007 -0.7557 -0.1824
 5320SOL    HW221012   4.206   0.630   6.008 -1.3206 -2.3583 -1.2921
 5320SOL    HW321013   4.302   0.678   5.900 -0.0961  0.1551  0.8064
 5320SOL    MW421014   4.222   0.677   5.936 -0.3210 -0.1723 -0.0802
 5321SOL     OW21015   4.721   1.813   1.435 -0.3233  0.0131 -0.2599
 5321SOL    HW221016   4.657   1.884   1.440 -1.8667 -1.3812  0.5278
 5321SOL    HW321017   4.746   1.797   1.526 -1.3202 -1.6083 -0.2538
 5321SOL    MW421018   4.716   1.821   1.448  0.2299  0.3232 -0.1176
 5322SOL     OW21019   5.614   1.713   5.941 -0.5862  0.0173  0.4935
 5322SOL    HW221020   5.589   1.651   6.010 -1.6621 -1.6925 -1.3246
 5322SOL    HW321021   5.532   1.734   5.898  0.3854 -1.8591 -2.5507
 5322SOL    MW421022   5.600   1.708   5.945  0.1839  0.1568  0.0732
 5323SOL     OW21023   1.636   4.806   2.223  0.7001  0.1845 -0.1096
 5323SOL    HW221024   1.645   4.757   2.304  0.6569  1.1616  0.4950
 5323SOL    HW321025   1.680   4.890   2.240 -0.1774  0.7956 -0.7534
 5323SOL    MW421026   1.643   4.811   2.236 -0.1975  0.3829 -0.4702
 5324SOL     OW21027   0.067   3.216   1.786 -0.2659  0.1825 -0.1283
 5324SOL    HW221028  -0.024   3.194   1.767 -0.6765  2.6208 -1.3748
 5324SOL    HW321029   0.083   3.180   1.874 -1.9295 -1.5188 -0.4597
 5324SOL    MW421030   0.057   3.208   1.795 -0.4658 -0.4602 -0.0424
 5325SOL     OW21031   3.070   3.832   5.301  0.1554  0.1759  0.0990
 5325SOL    HW221032   3.059   3.864   5.391  2.1472 -0.2330  0.5453
 5325SOL    HW321033   3.096   3.910   5.251  3.2879 -0.2535  0.8311
 5325SOL    MW421034   3.072   3.847   5.307 -0.0152  0.3228  0.2969
 5326SOL     OW21035   6.029   2.862   6.157  0.3864 -0.2872  0.3639
 5326SOL    HW221036   6.090   2.802   6.201  0.4395 -0.2613  0.3245
 5326SOL    HW321037   6.082   2.906   6.092  0.2375 -0.5539  0.0610
 5326SOL    MW421038   6.044   2.860   6.155  0.2443 -0.1568  0.2630
 5327SOL     OW21039   1.671   3.810   4.897 -0.2363 -0.4161 -0.4925
 5327SOL    HW221040   1.616   3.889   4.903 -0.3775 -0.4782 -0.9721
 5327SOL    HW321041   1.759   3.841   4.921 -0.5855 -0.4531  0.9466
 5327SOL    MW421042   1.675   3.825   4.901  0.0393  0.1739 -0.3020
 5328SOL     OW21043   0.095   1.006   4.479 -0.9244 -0.0229 -0.2039
 5328SOL    HW221044   0.069   0.927   4.432  0.8069 -0.9917  0.4061
 5328SOL    HW321045   0.116   0.977   4.567  3.4504  0.3127 -0.9267
 5328SOL    MW421046   0.094   0.992   4.484 -0.5110 -0.7352 -0.3811
 5329SOL     OW21047   5.502   5.389   4.189 -0.1141  0.2345 -0.3924
 5329SOL    HW221048   5.470   5.354   4.106  0.5539 -1.5811  0.0549
 5329SOL    HW321049   5.593   5.359   4.193 -0.3259 -0.2744  1.2688
 5329SOL    MW421050   5.510   5.381   4.178  0.5065 -0.2176  0.1369
 5330SOL     OW21051   5.759   1.704   4.045 -0.3279 -0.0238 -0.6761
 5330SOL    HW221052   5.774   1.619   4.088 -1.2411 -0.0007 -0.2947
 5330SOL    HW321053   5.774   1.686   3.952 -0.1317 -0.5120 -0.5568
 5330SOL    MW421054   5.763   1.690   4.039  0.5104 -1.1476  0.3028
 5331SOL     OW21055   4.093   2.314   3.091 -0.1435  0.7888 -0.0297
 5331SOL    HW221056   4.049   2.373   3.152 -1.3361 -0.1237  0.0333
 5331SOL    HW321057   4.027   2.298   3.022 -0.0743 -0.9269  0.2725
 5331SOL    MW421058   4.078   2.320   3.090 -0.2217  0.3225 -0.1575
 5332SOL     OW21059   0.977   2.560   6.060  0.4746  0.7642 -0.9194
 5332SOL    HW221060   0.957   2.585   6.150 -0.8861  0.6020 -1.1512
 5332SOL    HW321061   0.928   2.622   6.006  0.9970  0.6418 -1.5411
 5332SOL    MW421062   0.968   2.571   6.065 -0.1055 -0.6199 -0.0814
 5333SOL     OW21063   2.949   1.470   6.383 -0.1869  0.2262 -0.0126
 5333SOL    HW221064   2.963   1.556   6.344  0.3958  0.8477  1.5151
 5333SOL    HW321065   3.035   1.442   6.413 -0.3844 -0.8622 -0.3989
 5333SOL    MW421066   2.962   1.477   6.382  0.0988 -0.3637 -0.7924
 5334SOL     OW21067   4.329   0.573   1.133 -0.0404  0.3097  0.1289
 5334SOL    HW221068   4.269   0.596   1.204 -0.5319 -1.6063  0.3918
 5334SOL    HW321069   4.412   0.552   1.176 -0.5329 -1.5226  0.2506
 5334SOL    MW421070   4.332   0.574   1.148  0.1966 -0.0189 -0.1627
 5335SOL     OW21071   5.245   6.039   5.156 -0.0782  0.4517  0.5784
 5335SOL    HW221072   5.202   6.003   5.078 -0.8860  1.1796  0.6770
 5335SOL    HW321073   5.180   6.029   5.226  0.9771 -1.0596  1.4004
 5335SOL    MW421074   5.231   6.033   5.155 -0.0245  0.6106  0.0551
 5336SOL     OW21075   0.417   2.303   3.149 -0.3659 -0.3245  0.1070
 5336SOL    HW221076   0.489   2.251   3.183 -0.3336 -0.6731 -0.4737
 5336SOL    HW321077   0.450   2.393   3.147 -0.1695 -0.3905  0.4385
 5336SOL    MW421078   0.431   2.308   3.153 -0.6257  0.1733  0.1079
 5337SOL     OW21079   0.483   6.140   3.068  0.0366 -0.3178 -0.2415
 5337SOL    HW221080   0.575   6.162   3.053  0.3343 -2.2723 -1.6822
 5337SOL    HW321081   0.440   6.155   2.984 -0.3728 -1.9897 -0.3718
 5337SOL    MW421082   0.489   6.145   3.055 -0.1593 -0.2919 -0.0381
 5338SOL     OW21083   5.111   5.293   1.095  0.1039  0.3436  0.3762
 5338SOL    HW221084   5.038   5.310   1.036 -0.1012  2.8610  1.2285
 5338SOL    HW321085   5.121   5.198   1.094 -2.2239  0.0316 -0.8786
 5338SOL    MW421086   5.103   5.283   1.087  0.5480 -0.1816  0.0972
 5339SOL     OW21087   1.110   2.690   4.555  0.3607 -0.1766  0.5693
 5339SOL    HW221088   1.198   2.704   4.519 -0.3308  2.1530 -0.3886
 5339SOL    HW321089   1.065   2.773   4.541 -1.8950 -1.1925  1.3827
 5339SOL    MW421090   1.116   2.703   4.548 -0.5581 -0.2589  0.0109
 5340SOL     OW21091   2.217   2.800   4.230 -0.5245  0.0780  0.3440
 5340SOL    HW221092   2.307   2.774   4.253 -1.1944 -2.9294  0.0125
 5340SOL    HW321093   2.174   2.813   4.315  0.6257  3.5966  0.5289
 5340SOL    MW421094   2.223   2.798   4.244  0.3626 -0.1264 -0.0531
 5341SOL     OW21095   3.353   1.042   4.604  0.1485  0.3388  0.0347
 5341SOL    HW221096   3.375   1.033   4.512  0.7092  3.6647 -0.2657
 5341SOL    HW321097   3.258   1.054   4.605  0.3821  2.5712 -0.4154
 5341SOL    MW421098   3.343   1.042   4.592 -0.4704  0.0217  0.0910
 5342SOL     OW21099   5.150   1.880   3.980  0.2579 -0.4981 -0.3170
 5342SOL    HW221100   5.240   1.898   4.005 -0.7171 -0.3362  3.6574
 5342SOL    HW321101   5.107   1.965   3.978 -0.8960 -0.8360  3.2847
 5342SOL    MW421102   5.156   1.893   3.983 -0.1713 -0.3926 -0.1761
 5343SOL     OW21103   0.852   4.192   4.519 -0.6225 -0.2520 -0.4042
 5343SOL    HW221104   0.919   4.151   4.463  0.6178 -0.1374  0.9466
 5343SOL    HW321105   0.877   4.169   4.608 -0.0223  3.1363  0.4358
 5343SOL    MW421106   0.864   4.183   4.523  0.0855 -0.1620 -0.3980
 5344SOL     OW21107   1.276   2.990   4.317  0.4252  0.3474 -0.3384
 5344SOL    HW221108   1.241   2.949   4.238 -0.4172 -2.1869  1.2113
 5344SOL    HW321109   1.250   3.081   4.310 -1.9033 -0.3376 -1.7929
 5344SOL    MW421110   1.268   2.996   4.306  0.6228  0.3905 -0.0823
 5345SOL     OW21111   1.688   1.114   4.964 -0.0784  0.0413  0.2726
 5345SOL    HW221112   1.740   1.186   4.928 -0.2913  0.0208 -0.0811
 5345SOL    HW321113   1.597   1.140   4.948 -0.2632  0.7740  2.1992
 5345SOL    MW421114   1.683   1.127   4.957 -0.0735 -0.7859  0.5909
 5346SOL     OW21115   3.488   2.874   6.291  0.7978 -0.3802  0.2888
 5346SOL    HW221116   3.522   2.795   6.333 -0.2292 -1.3466 -0.6265
 5346SOL    HW321117   3.414   2.900   6.346 -0.7166 -1.8008 -0.9739
 5346SOL    MW421118   3.482   2.867   6.304 -0.6647  0.0438  0.2961
 5347SOL     OW21119   4.320   3.722   1.682  0.6302  0.4427 -0.0180
 5347SOL    HW221120   4.346   3.636   1.717  0.4616  0.9426  1.4168
 5347SOL    HW321121   4.399   3.756   1.641  1.0333  0.0931  0.4492
 5347SOL    MW421122   4.334   3.715   1.682 -0.0145 -0.1720 -0.3454
 5348SOL     OW21123   3.530   4.301   1.440  0.0294 -0.1814 -0.4703
 5348SOL    HW221124   3.481   4.276   1.361 -1.1656 -2.2962  0.8276
 5348SOL    HW321125   3.514   4.395   1.449 -3.6588 -0.6511 -0.3591
 5348SOL    MW421126   3.521   4.310   1.431  0.0190  0.3128 -0.4860
 5349SOL     OW21127   4.071   5.862   3.514  0.7235 -0.8107  0.0482
 5349SOL    HW221128   4.153   5.912   3.509  0.0857  0.1175 -2.8574
 5349SOL    HW321129   4.021   5.905   3.583  2.0009 -0.3836  0.7514
 5349SOL    MW421130   4.075   5.874   3.522 -0.0921  0.0188  0.3579
 5350SOL     OW21131   6.194   0.637   2.944 -0.3523  0.2935 -0.1278
 5350SOL    HW221132   6.157   0.715   2.985 -2.5074  0.4472 -2.1266
 5350SOL    HW321133   6.267   0.670   2.891 -1.0768  0.9547 -0.7441
 5350SOL    MW421134   6.198   0.652   2.942  0.0662 -0.4729 -0.2633
 5351SOL     OW21135   4.587   3.161   3.262 -0.0601 -0.1002  0.3202
 5351SOL    HW221136   4.634   3.174   3.345 -0.0337 -0.6394  0.3977
 5351SOL    HW321137   4.541   3.243   3.247 -0.8575 -0.3231  1.3793
 5351SOL    MW421138   4.587   3.173   3.271 -0.0372 -0.3972  0.7228
 5352SOL     OW21139   0.377   3.299   6.258  0.7988  0.0364 -0.6448
 5352SOL    HW221140   0.374   3.346   6.175  2.1015  2.1641  0.4178
 5352SOL    HW321141   0.466   3.312   6.290  0.7458 -1.9076  0.4860
 5352SOL    MW421142   0.389   3.307   6.252 -0.3440  0.1735 -0.4706
 5353SOL     OW21143   1.178   1.527   0.343 -0.0620  0.1190  0.1273
 5353SOL    HW221144   1.237   1.452   0.356  0.5875  0.8627  1.7725
 5353SOL    HW321145   1.093   1.487   0.326  0.5321 -0.9826 -0.4069
 5353SOL    MW421146   1.175   1.512   0.343 -0.1531 -0.1718  0.1038
 5354SOL     OW21147   3.372   0.338   1.335  0.1949  0.3298  0.4731
 5354SOL    HW221148   3.423   0.359   1.413  0.1030  0.1186  0.5935
 5354SOL    HW321149   3.396   0.247   1.314  1.8702  1.0760 -1.0477
 5354SOL    MW421150   3.382   0.328   1.343 -0.1646 -0.2318 -0.3465
 5355SOL     OW21151   3.640   3.973   2.813 -0.7365 -0.0022 -0.4957
 5355SOL    HW221152   3.574   3.990   2.746 -1.8164  0.2458  0.5836
 5355SOL    HW321153   3.674   4.060   2.836  0.0551 -0.1380 -1.1176
 5355SOL    MW421154   3.636   3.987   2.807 -0.9666 -0.4937 -0.2068
 5356SOL     OW21155   4.751   2.992   4.697  0.0753  0.3255 -0.4657
 5356SOL    HW221156   4.842   3.014   4.717 -0.5067  1.2274  1.4361
 5356SOL    HW321157   4.724   3.059   4.634  0.3723  0.8699 -0.0319
 5356SOL    MW421158   4.759   3.004   4.692  0.7647 -0.7068  0.0010
 5357SOL     OW21159   1.720   2.266   4.905 -0.1103 -0.3075 -0.0438
 5357SOL    HW221160   1.774   2.245   4.981 -0.9786 -0.0103  0.6690
 5357SOL    HW321161   1.770   2.231   4.830  1.8172  1.3007  0.4064
 5357SOL    MW421162   1.734   2.258   4.905  0.0546  0.7535  0.0941
 5358SOL     OW21163   5.136   0.092   1.618 -0.5006 -0.3970  0.3309
 5358SOL    HW221164   5.073   0.157   1.650 -0.0589  0.2274 -0.0368
 5358SOL    HW321165   5.160   0.042   1.695 -0.6960  0.0149  0.6631
 5358SOL    MW421166   5.131   0.094   1.632 -0.1306  0.4005 -0.0787
 5359SOL     OW21167   5.274   5.293   1.302 -0.0582 -0.0604  0.0263
 5359SOL    HW221168   5.294   5.374   1.349  1.9588  0.6710 -1.9295
 5359SOL    HW321169   5.215   5.320   1.231  0.6760 -0.2508 -0.6766
 5359SOL    MW421170   5.269   5.307   1.299 -0.0610 -0.0303 -0.0966
 5360SOL     OW21171   4.074   4.968   3.879 -0.3862  0.1010 -0.4832
 5360SOL    HW221172   4.132   4.952   3.954  0.2046  0.8876 -0.7494
 5360SOL    HW321173   4.003   5.020   3.915 -0.6067 -0.3407 -0.2769
 5360SOL    MW421174   4.073   4.973   3.894 -0.3688  0.3382  0.8484
 5361SOL     OW21175   2.192   0.150   3.411  0.0573 -0.0420  0.3483
 5361SOL    HW221176   2.164   0.172   3.500  1.2820 -0.0878  0.7718
 5361SOL    HW321177   2.260   0.214   3.390  1.0040 -1.0856  0.1364
 5361SOL    MW421178   2.198   0.161   3.420  0.7736 -0.3261 -0.4640
 5362SOL     OW21179   5.909   3.537   1.635  0.0962 -0.6282 -0.4044
 5362SOL    HW221180   5.950   3.594   1.699 -0.7759 -0.5740  0.1193
 5362SOL    HW321181   5.930   3.576   1.550 -0.4935  0.4835 -0.0544
 5362SOL    MW421182   5.917   3.550   1.632  0.0159  0.1732 -0.1281
 5363SOL     OW21183   1.628   5.664   0.128 -0.4981  0.4388 -0.7461
 5363SOL    HW221184   1.543   5.707   0.140 -1.6206 -1.7973  0.0224
 5363SOL    HW321185   1.626   5.631   0.038 -1.3374 -1.2175 -0.1819
 5363SOL    MW421186   1.616   5.665   0.118 -0.1323  0.0053 -0.0719
 5364SOL     OW21187   3.104   6.106   6.192 -0.3398 -0.1164 -0.0920
 5364SOL    HW221188   3.127   6.032   6.249 -3.7364 -0.0115  1.6343
 5364SOL    HW321189   3.077   6.065   6.110 -0.7110 -0.7064  0.3105
 5364SOL    MW421190   3.104   6.090   6.189 -0.2980  0.0288 -0.2847
 5365SOL     OW21191   1.412   6.232   3.617  0.5847  0.1148  0.6324
 5365SOL    HW221192   1.403   6.195   3.705 -0.2824 -1.4869 -0.0796
 5365SOL    HW321193   1.498   6.202   3.587  0.3849 -0.3477  0.5079
 5365SOL    MW421194   1.423   6.223   3.624  0.4508  0.1743  0.5187
 5366SOL     OW21195   1.551   5.914   3.757  0.4226  0.3857  0.4460
 5366SOL    HW221196   1.630   5.860   3.766 -0.5909 -1.3477 -0.5258
 5366SOL    HW321197   1.524   5.903   3.666 -1.5416  0.0182  1.0226
 5366SOL    MW421198   1.558   5.905   3.746  0.1971 -0.1603  0.3309
 5367SOL     OW21199   2.792   2.482   4.580  0.3231 -0.1111 -0.0935
 5367SOL    HW221200   2.771   2.409   4.521  1.7825 -1.7582  1.3108
 5367SOL    HW321201   2.792   2.559   4.524 -3.6112 -0.7271 -1.2386
 5367SOL    MW421202   2.790   2.482   4.565 -0.1228  0.2244 -0.9516
 5368SOL     OW21203   2.376   0.859   3.781 -0.3175 -0.0000  0.2267
 5368SOL    HW221204   2.327   0.912   3.844 -0.8614  1.2821 -1.2327
 5368SOL    HW321205   2.468   0.879   3.800 -0.4800  0.4570  0.5552
 5368SOL    MW421206   2.382   0.869   3.792 -0.4640 -0.2451 -0.2776
 5369SOL     OW21207   0.010   0.148   3.132  0.1232 -0.2083  0.0577
 5369SOL    HW221208  -0.013   0.113   3.046  2.3643  1.0732 -1.1596
 5369SOL    HW321209   0.031   0.071   3.185 -0.0699 -0.9605 -0.9401
 5369SOL    MW421210   0.010   0.134   3.128 -0.4278  0.2842 -0.5589
 5370SOL     OW21211   3.571   1.576   1.376  0.3342 -0.0428  0.1844
 5370SOL    HW221212   3.496   1.549   1.323  0.9609 -2.6880  0.4960
 5370SOL    HW321213   3.541   1.570   1.466  0.1481  1.5906  0.2614
 5370SOL    MW421214   3.557   1.572   1.381 -0.5887  0.2310 -0.5231
 5371SOL     OW21215   4.266   2.247   6.239  0.4321 -0.4548 -0.4410
 5371SOL    HW221216   4.247   2.306   6.312  0.1570 -0.6600 -0.3455
 5371SOL    HW321217   4.180   2.225   6.203  0.6149  0.4063 -1.4351
 5371SOL    MW421218   4.252   2.252   6.244 -0.1284 -0.1591 -0.6481
 5372SOL     OW21219   6.147   2.710   6.344  0.7011  0.0772 -0.1955
 5372SOL    HW221220   6.162   2.618   6.322  0.1985 -0.0402 -0.0839
 5372SOL    HW321221   6.067   2.708   6.398 -1.6329  0.9196 -3.3466
 5372SOL    MW421222   6.138   2.698   6.348 -0.4675  0.6368  0.1540
 5373SOL     OW21223   1.691   5.627   2.337 -0.0440  0.0065  0.5863
 5373SOL    HW221224   1.661   5.714   2.313 -0.7820 -0.4851 -0.3676
 5373SOL    HW321225   1.787   5.634   2.338  0.1456  0.0628 -2.9562
 5373SOL    MW421226   1.700   5.639   2.334  0.0601  0.1963 -0.4542
 5374SOL     OW21227   5.684   4.774   5.028  0.2137 -0.4760  0.2237
 5374SOL    HW221228   5.720   4.800   4.943  2.6479 -0.7764  1.1048
 5374SOL    HW321229   5.692   4.679   5.030 -0.9718 -0.5885  0.3373
 5374SOL    MW421230   5.690   4.765   5.017  0.4683 -0.4197 -0.2616
 5375SOL     OW21231   4.035   0.402   0.869 -0.1908  0.1417 -0.8264
 5375SOL    HW221232   4.022   0.359   0.785 -0.5071 -2.2189  0.3579
 5375SOL    HW321233   4.125   0.381   0.894 -0.0909  0.8368 -0.5580
 5375SOL    MW421234   4.045   0.394   0.862 -0.0014 -0.4318 -0.6245
 5376SOL     OW21235   2.699   4.512   4.513  0.7958 -0.1562  0.6255
 5376SOL    HW221236   2.732   4.444   4.454  0.1153 -0.8929  1.0694
 5376SOL    HW321237   2.726   4.484   4.600  1.4637  0.7296  0.7150
 5376SOL    MW421238   2.707   4.499   4.517  0.3543  0.1442 -0.4646
 5377SOL     OW21239   6.343   3.295   1.148 -0.2346 -0.2056 -0.4073
 5377SOL    HW221240   6.273   3.241   1.110 -1.2242  0.6557  0.1481
 5377SOL    HW321241   6.339   3.277   1.242  1.1141 -1.0695 -0.4952
 5377SOL    MW421242   6.333   3.286   1.155 -0.1613 -0.0255 -0.1834
 5378SOL     OW21243   1.345   0.164   1.735  0.1006  0.5922 -0.8023
 5378SOL    HW221244   1.286   0.238   1.725 -0.6613 -0.1074 -1.7073
 5378SOL    HW321245   1.309   0.096   1.677  1.6191  0.0419 -1.1605
 5378SOL    MW421246   1.333   0.165   1.726 -0.4626  0.2506 -0.3713
 5379SOL     OW21247   6.259   1.478   2.434 -0.0350  0.0210  0.0962
 5379SOL    HW221248   6.325   1.529   2.481  0.8615 -1.0047 -0.0222
 5379SOL    HW321249   6.209   1.544   2.385  2.8509  0.6746 -2.2852
 5379SOL    MW421250   6.261   1.494   2.433  0.2865  0.2212  0.1105
 5380SOL     OW21251   0.083   3.883   0.045 -0.0095 -0.4334 -0.1509
 5380SOL    HW221252   0.171   3.899   0.012  1.2778 -0.1887  3.1186
 5380SOL    HW321253   0.039   3.968   0.039  0.2439 -0.3484 -0.9542
 5380SOL    MW421254   0.089   3.896   0.040 -0.5929 -0.2326 -0.1598
 5381SOL     OW21255   4.225   5.903   6.159  0.1839 -0.3001  0.0246
 5381SOL    HW221256   4.217   5.855   6.241 -2.1744 -0.6752 -0.3508
 5381SOL    HW321257   4.152   5.871   6.105  1.4094  0.2353 -2.0654
 5381SOL    MW421258   4.214   5.892   6.162 -0.0133 -0.8625 -1.0281
 5382SOL     OW21259   3.533   1.203   4.179  0.6739 -0.3658  0.2020
 5382SOL    HW221260   3.458   1.201   4.239  0.4586 -0.1456 -0.0541
 5382SOL    HW321261   3.524   1.287   4.133 -0.7756 -1.6977 -2.1764
 5382SOL    MW421262   3.522   1.214   4.181  0.2375  0.1771  0.3255
 5383SOL     OW21263   1.323   0.723   0.219 -0.2622  0.6071 -0.0734
 5383SOL    HW221264   1.294   0.712   0.128  0.4789 -2.9272 -0.0058
 5383SOL    HW321265   1.246   0.705   0.271 -0.5145  1.9757  0.0773
 5383SOL    MW421266   1.309   0.719   0.214 -0.7067 -0.4426  0.1489
 5384SOL     OW21267   3.313   5.400   3.819  0.3615 -0.1181 -0.8822
 5384SOL    HW221268   3.368   5.356   3.754  3.0905  0.4385  0.8865
 5384SOL    HW321269   3.265   5.329   3.862  2.0188 -1.0501 -0.4649
 5384SOL    MW421270   3.314   5.385   3.816 -0.2504 -0.0833 -0.1121
 5385SOL     OW21271   5.603   2.476   0.797  0.2489 -0.2798 -0.0902
 5385SOL    HW221272   5.533   2.415   0.821 -0.4016  0.2182 -0.6747
 5385SOL    HW321273   5.659   2.480   0.874  0.4042 -1.7422 -0.0909
 5385SOL    MW421274   5.601   2.469   0.810  0.0280  0.1817  0.1857
 5386SOL     OW21275   1.848   0.365   0.562  0.0250 -0.8213  0.0822
 5386SOL    HW221276   1.805   0.280   0.564 -1.2433 -0.1907  1.9951
 5386SOL    HW321277   1.910   0.362   0.634 -0.5882  0.1325  0.6653
 5386SOL    MW421278   1.851   0.354   0.572 -0.2873 -0.0216  0.0141
 5387SOL     OW21279   3.296   0.958   0.365 -0.0226  0.3035 -0.1517
 5387SOL    HW221280   3.295   0.864   0.383 -3.1492  0.4299  0.9675
 5387SOL    HW321281   3.203   0.981   0.358  0.7116  3.0396 -2.0171
 5387SOL    MW421282   3.283   0.948   0.367 -0.3005 -0.4217  0.3580
 5388SOL     OW21283   2.292   2.893   5.311 -0.1926  0.2208  0.1379
 5388SOL    HW221284   2.205   2.875   5.275 -1.1380  1.0017  1.9426
 5388SOL    HW321285   2.347   2.823   5.275 -1.7832 -0.8969 -0.2294
 5388SOL    MW421286   2.288   2.881   5.301  0.3090 -0.7629 -0.4665
 5389SOL     OW21287   0.642   1.427   0.629  0.0306  0.0389 -0.0053
 5389SOL    HW221288   0.580   1.491   0.595  1.0315  1.3543  0.5342
 5389SOL    HW321289   0.622   1.422   0.722 -0.0650 -0.4715 -0.0519
 5389SOL    MW421290   0.631   1.435   0.637  0.2758 -0.0614 -0.3608
 5390SOL     OW21291   3.214   6.113   2.017  0.3499  0.8940  0.3211
 5390SOL    HW221292   3.238   6.024   2.042  0.4110  1.0603  0.8657
 5390SOL    HW321293   3.145   6.101   1.951  0.2003  0.4444  0.5524
 5390SOL    MW421294   3.208   6.099   2.012 -0.6166  0.1928  0.0710
 5391SOL     OW21295   5.402   3.832   1.331 -0.0415  0.1217 -0.3233
 5391SOL    HW221296   5.477   3.832   1.272  1.1779 -0.4176  1.1711
 5391SOL    HW321297   5.341   3.770   1.292  0.6503 -0.0802 -1.1100
 5391SOL    MW421298   5.404   3.824   1.318  0.2311  0.2310  0.4237
 5392SOL     OW21299   2.771   4.280   0.588  0.0373  0.2141  0.4720
 5392SOL    HW221300   2.745   4.248   0.502  0.9910 -0.7544  0.5178
 5392SOL    HW321301   2.711   4.236   0.649 -1.1706  1.5270  0.2653
 5392SOL    MW421302   2.760   4.270   0.585 -0.0418  0.5019  0.1772
 5393SOL     OW21303   3.990   0.622   4.686 -0.0613 -0.2418  0.0217
 5393SOL    HW221304   4.013   0.673   4.764  1.0508 -0.6311 -0.0387
 5393SOL    HW321305   3.918   0.566   4.714 -0.5623  0.5632  0.3929
 5393SOL    MW421306   3.984   0.622   4.700  0.3133 -0.4917  0.4550
 5394SOL     OW21307   3.731   1.205   5.760  0.4403  0.0097 -0.1311
 5394SOL    HW221308   3.636   1.215   5.754  0.0882 -2.5661  0.0051
 5394SOL    HW321309   3.766   1.290   5.732 -1.8675  1.0281 -0.1760
 5394SOL    MW421310   3.724   1.218   5.756 -0.2317  0.0378  0.3004
 5395SOL     OW21311   3.586   4.505   3.102  1.1085 -0.5015  0.0293
 5395SOL    HW221312   3.569   4.414   3.079  0.1893  0.0030 -1.4105
 5395SOL    HW321313   3.513   4.529   3.159 -0.8925  0.4040 -2.7045
 5395SOL    MW421314   3.574   4.496   3.107  0.4919 -0.5321  0.1248
 5396SOL     OW21315   2.311   2.437   0.799  0.2307 -0.8672  0.0133
 5396SOL    HW221316   2.319   2.507   0.734  1.3919  1.0037  2.0425
 5396SOL    HW321317   2.222   2.447   0.833  0.0941 -0.9703 -0.3038
 5396SOL    MW421318   2.300   2.447   0.795  0.5197 -0.0988 -0.2269
 5397SOL     OW21319   3.362   2.363   5.015  0.8403 -0.8755 -0.7266
 5397SOL    HW221320   3.412   2.313   5.078  0.5520 -0.7155 -0.3645
 5397SOL    HW321321   3.331   2.440   5.064  1.0207 -0.5026 -1.1882
 5397SOL    MW421322   3.364   2.367   5.030  0.7268 -0.2283  0.0665
 5398SOL     OW21323   3.582   3.446   3.839  0.6278 -0.0372 -0.2685
 5398SOL    HW221324   3.667   3.404   3.830  2.1025  2.7406 -0.2641
 5398SOL    HW321325   3.579   3.510   3.768 -0.9453  0.7432  0.4479
 5398SOL    MW421326   3.593   3.449   3.828  0.2879  0.1589  0.2559
 5399SOL     OW21327   4.036   0.742   3.161  0.1932 -0.2850  0.4292
 5399SOL    HW221328   4.129   0.725   3.148 -0.1554 -2.0072  0.0199
 5399SOL    HW321329   4.003   0.763   3.073 -0.0101 -0.7987  0.3794
 5399SOL    MW421330   4.044   0.743   3.148  0.3209  0.3789  0.3787
 5400SOL     OW21331   5.828   2.323   5.850  0.6599 -0.0988 -0.9298
 5400SOL    HW221332   5.871   2.297   5.768  0.8693  0.8336 -1.1270
 5400SOL    HW321333   5.786   2.243   5.881 -0.0997 -0.2871 -2.3563
 5400SOL    MW421334   5.828   2.309   5.843  0.1010 -0.0202  0.1746
 5401SOL     OW21335   1.883   2.924   4.285  0.2776 -0.2297  0.0452
 5401SOL    HW221336   1.948   2.913   4.354 -0.3513  0.3733  0.7463
 5401SOL    HW321337   1.799   2.909   4.327 -0.1181  0.1249 -0.5914
 5401SOL    MW421338   1.880   2.921   4.299 -0.5055  0.8128 -0.6456
 5402SOL     OW21339   5.857   1.450   1.115  0.1676 -0.4224 -0.8026
 5402SOL    HW221340   5.772   1.491   1.101 -0.5682 -1.0940  1.3504
 5402SOL    HW321341   5.837   1.366   1.156  1.8842 -0.4428  0.0628
 5402SOL    MW421342   5.843   1.444   1.118 -0.2624  0.3590  0.0847
 5403SOL     OW21343   2.889   1.261   5.770  0.4664 -0.4248  0.1578
 5403SOL    HW221344   2.897   1.332   5.834 -0.6564  0.3083 -0.4703
 5403SOL    HW321345   2.979   1.240   5.746  0.8194  1.3544 -0.2268
 5403SOL    MW421346   2.902   1.268   5.776  0.7620  0.9668  0.3821
 5404SOL     OW21347   0.928   5.306   4.953  0.0964  0.8137  0.0122
 5404SOL    HW221348   1.017   5.295   4.920  0.0285 -3.9312  0.6895
 5404SOL    HW321349   0.872   5.274   4.882 -0.8383  0.9789  0.6616
 5404SOL    MW421350   0.933   5.300   4.939 -0.7042 -0.1336 -0.7067
 5405SOL     OW21351   1.218   2.410   2.041  0.1616  0.2790 -0.2286
 5405SOL    HW221352   1.137   2.398   1.991  0.4902  0.8717 -0.9317
 5405SOL    HW321353   1.198   2.479   2.104  0.8943  2.5870 -2.3363
 5405SOL    MW421354   1.205   2.418   2.042 -0.1947 -0.0369 -0.7155
 5406SOL     OW21355   1.361   3.183   4.623  0.0207 -0.1938  0.1209
 5406SOL    HW221356   1.407   3.186   4.539  3.1387  1.1444  1.7535
 5406SOL    HW321357   1.368   3.272   4.658 -1.2254 -0.7164  1.8510
 5406SOL    MW421358   1.368   3.195   4.616 -0.7109  0.2245 -0.2339
 5407SOL     OW21359   5.443   5.205   1.738 -0.2561  0.5007  0.1594
 5407SOL    HW221360   5.355   5.243   1.733  0.4200  2.4258  1.8164
 5407SOL    HW321361   5.432   5.126   1.792 -0.8278  1.2589  1.1792
 5407SOL    MW421362   5.430   5.199   1.744  0.6067 -0.9736 -0.3621
 5408SOL     OW21363   2.987   2.267   5.161 -0.2933  0.1806 -0.9273
 5408SOL    HW221364   3.002   2.344   5.216 -1.4712  0.9269 -1.5915
 5408SOL    HW321365   3.002   2.298   5.072 -0.2895 -0.4918 -1.1650
 5408SOL    MW421366   2.991   2.281   5.157  0.7454  0.6080  0.1347
 5409SOL     OW21367   2.272   1.324   4.234 -0.5393 -0.0020  0.2386
 5409SOL    HW221368   2.310   1.410   4.214 -0.0091 -0.4736 -0.8668
 5409SOL    HW321369   2.341   1.278   4.280  0.8775 -1.3275 -2.8954
 5409SOL    MW421370   2.286   1.330   4.237  0.4463  0.6216  0.5543
 5410SOL     OW21371   1.776   2.222   5.457  0.0724  0.2189 -0.1096
 5410SOL    HW221372   1.766   2.135   5.418 -1.7446 -0.1363  1.0299
 5410SOL    HW321373   1.699   2.233   5.513 -0.2035  2.8957 -0.8425
 5410SOL    MW421374   1.765   2.212   5.459 -0.5828 -0.2604 -0.2854
 5411SOL     OW21375   5.332   1.103   3.011 -0.2400 -0.2521  0.1341
 5411SOL    HW221376   5.257   1.156   3.038 -0.6799 -0.6720 -0.2480
 5411SOL    HW321377   5.322   1.094   2.916  0.7588  0.3935 -0.0425
 5411SOL    MW421378   5.321   1.109   3.002 -0.6978  0.5909 -0.5121
 5412SOL     OW21379   3.711   2.342   3.263  0.0234 -0.0623  0.0213
 5412SOL    HW221380   3.787   2.399   3.278 -0.7063  0.6621  1.2224
 5412SOL    HW321381   3.636   2.398   3.284 -0.7868 -1.0775 -0.1270
 5412SOL    MW421382   3.711   2.357   3.268  0.5616 -0.3861  0.2418
 5413SOL     OW21383   1.234   2.118   3.232  0.2248 -0.2964  0.3420
 5413SOL    HW221384   1.162   2.180   3.245  0.6739  0.6311 -1.2707
 5413SOL    HW321385   1.212   2.074   3.150  1.8561  0.6036 -0.6402
 5413SOL    MW421386   1.222   2.121   3.223 -0.3931  0.4755 -0.4172
 5414SOL     OW21387   1.116   3.061   2.938  0.2224 -0.2400  0.1064
 5414SOL    HW221388   1.026   3.085   2.915  0.3940  1.0546  0.7060
 5414SOL    HW321389   1.170   3.128   2.895  0.6671  1.1706  2.6450
 5414SOL    MW421390   1.111   3.073   2.929  0.1878 -0.6188  0.3738
 5415SOL     OW21391   2.438   3.889   1.535  0.0427  0.1338 -0.0205
 5415SOL    HW221392   2.476   3.908   1.449  1.1284 -0.6356  0.2583
 5415SOL    HW321393   2.347   3.918   1.528 -0.1365 -0.6570 -1.7008
 5415SOL    MW421394   2.431   3.895   1.522 -0.4338  0.5158  0.0389
 5416SOL     OW21395   0.340   3.932   2.615 -0.1002  0.2675  0.2517
 5416SOL    HW221396   0.387   3.913   2.697 -0.5704  0.9761  0.6939
 5416SOL    HW321397   0.287   4.009   2.635 -2.4162 -1.2307  0.1261
 5416SOL    MW421398   0.339   3.940   2.628  0.7384 -0.1135  0.0014
 5417SOL     OW21399   0.507   0.020   2.123  0.0881 -0.0309 -0.4853
 5417SOL    HW221400   0.538  -0.063   2.088  1.9320 -0.0025  0.8852
 5417SOL    HW321401   0.472  -0.002   2.210  1.3903  0.6655  0.2601
 5417SOL    MW421402   0.507   0.006   2.130 -0.1453  0.2645 -1.0404
 5418SOL     OW21403   1.355   2.603   4.274 -0.3208  0.3501 -0.6791
 5418SOL    HW221404   1.385   2.650   4.352  1.2271 -0.5282 -0.6970
 5418SOL    HW321405   1.436   2.580   4.227 -1.1744  0.0845 -2.0848
 5418SOL    MW421406   1.370   2.606   4.278  0.2865 -0.2135 -0.2188
 5419SOL     OW21407   1.827   0.382   3.543  0.2868  0.2526  0.3418
 5419SOL    HW221408   1.916   0.395   3.511  0.5661 -1.1571  0.5065
 5419SOL    HW321409   1.833   0.398   3.637  0.5427 -0.5961  0.4784
 5419SOL    MW421410   1.839   0.386   3.551  0.3695 -0.2220  0.6070
 5420SOL     OW21411   2.444   3.051   1.757  0.0202  0.0325 -0.2439
 5420SOL    HW221412   2.449   2.958   1.734  0.2631  0.6794 -3.2504
 5420SOL    HW321413   2.351   3.071   1.756  0.0663  0.4329 -2.8433
 5420SOL    MW421414   2.432   3.041   1.754 -0.3732 -0.2536 -0.6465
 5421SOL     OW21415   2.549   3.494   3.949  0.2006 -0.7084  0.4708
 5421SOL    HW221416   2.546   3.538   3.864  0.6201 -0.9165  0.3473
 5421SOL    HW321417   2.458   3.485   3.975  0.1091  1.4516  1.1213
 5421SOL    MW421418   2.537   3.499   3.941 -0.5409  0.3251 -0.0032
 5422SOL     OW21419   1.257   1.890   4.467 -0.5014  0.2399  0.1472
 5422SOL    HW221420   1.252   1.984   4.448 -0.4954  0.3239  0.5627
 5422SOL    HW321421   1.168   1.858   4.448 -0.1638  0.0748 -1.3086
 5422SOL    MW421422   1.244   1.898   4.462  0.2128 -0.4331  0.3164
 5423SOL     OW21423   0.543   1.742   1.669  0.2999  0.4675  0.5937
 5423SOL    HW221424   0.566   1.664   1.720  2.6543  1.6538  1.4710
 5423SOL    HW321425   0.447   1.743   1.670  0.2172 -1.5557  1.8626
 5423SOL    MW421426   0.534   1.732   1.676 -0.1585  0.0870 -0.4765
 5424SOL     OW21427   5.321   0.237   0.879  0.2209 -0.2897 -0.2758
 5424SOL    HW221428   5.368   0.208   0.801  1.3461  0.2381  0.1961
 5424SOL    HW321429   5.365   0.193   0.952  0.2018  0.4613  0.2022
 5424SOL    MW421430   5.333   0.227   0.879  0.2419 -0.3129  0.2467
 5425SOL     OW21431   3.209   4.648   5.591 -0.1204  0.0836 -0.0773
 5425SOL    HW221432   3.154   4.609   5.523  0.5185  1.2821 -1.3266
 5425SOL    HW321433   3.168   4.732   5.610 -1.6233 -1.1499  2.7627
 5425SOL    MW421434   3.196   4.654   5.585 -0.2939  0.0966 -0.1512
 5426SOL     OW21435   5.495   0.462   1.836 -0.2315 -0.0115 -0.1928
 5426SOL    HW221436   5.442   0.441   1.913  1.1039  1.1237  1.0874
 5426SOL    HW321437   5.524   0.377   1.803 -0.7861 -0.5178  0.5778
 5426SOL    MW421438   5.492   0.448   1.842  0.4806 -0.2799  0.0658
 5427SOL     OW21439   3.085   6.181   3.091  0.0883 -0.3457 -0.4987
 5427SOL    HW221440   3.025   6.108   3.107  1.3905 -1.8916 -2.2823
 5427SOL    HW321441   3.064   6.210   3.002  0.5215  0.5464 -0.3200
 5427SOL    MW421442   3.074   6.175   3.081 -0.2756  0.0294  0.3903
 5428SOL     OW21443   1.653   0.680   2.507  0.3918 -0.0829 -0.2544
 5428SOL    HW221444   1.734   0.707   2.550 -0.2678  0.8983  0.4254
 5428SOL    HW321445   1.627   0.757   2.456 -0.2959 -0.2586 -0.1775
 5428SOL    MW421446   1.660   0.694   2.506 -0.0991 -0.5420 -0.2645
 5429SOL     OW21447   5.924   6.242   2.448  0.5237  0.0025  0.0753
 5429SOL    HW221448   5.986   6.285   2.388  0.2739 -0.9786 -0.9210
 5429SOL    HW321449   5.895   6.312   2.506 -0.6783  1.4965 -2.1498
 5429SOL    MW421450   5.929   6.257   2.448  0.0591 -0.1837 -0.1293
 5430SOL     OW21451   2.301   5.464   4.642  0.3746 -0.3111  0.0070
 5430SOL    HW221452   2.338   5.542   4.601  1.2090 -0.5466  0.2881
 5430SOL    HW321453   2.261   5.495   4.723 -0.9269  0.0953 -0.7614
 5430SOL    MW421454   2.300   5.478   4.647  0.1878  0.2920  0.1446
 5431SOL     OW21455   1.069   3.921   0.297 -0.3724  0.4393 -0.2710
 5431SOL    HW221456   1.087   4.001   0.248  0.0352  0.8794  0.5650
 5431SOL    HW321457   0.994   3.881   0.253 -1.0825  1.6824 -0.2320
 5431SOL    MW421458   1.062   3.927   0.284 -0.1055 -0.1271 -0.3900
 5432SOL     OW21459   5.371   5.302   2.633 -0.6580  0.2488  0.0884
 5432SOL    HW221460   5.294   5.310   2.688 -0.1563  2.4457  0.5871
 5432SOL    HW321461   5.400   5.212   2.644 -2.1553 -0.1329  1.2263
 5432SOL    MW421462   5.365   5.291   2.641  0.3061  0.2253 -0.5673
 5433SOL     OW21463   4.479   2.456   5.046 -0.2251 -0.0238  0.4397
 5433SOL    HW221464   4.533   2.503   5.109 -0.4357  0.0412  0.5729
 5433SOL    HW321465   4.409   2.417   5.098  0.4937 -1.3272  0.4774
 5433SOL    MW421466   4.476   2.457   5.061  0.1386  0.2176 -0.5147
 5434SOL     OW21467   0.996   0.940   0.633  0.1903 -0.3479 -0.0348
 5434SOL    HW221468   1.072   0.997   0.624  0.9226 -1.4603 -1.2918
 5434SOL    HW321469   0.977   0.911   0.544 -0.3742 -1.7721  0.5207
 5434SOL    MW421470   1.004   0.944   0.620 -0.1731 -0.1299 -0.3922
 5435SOL     OW21471   2.800   6.114   5.882  0.1742  0.0631 -0.2444
 5435SOL    HW221472   2.770   6.205   5.885  1.3289  0.4846 -0.8545
 5435SOL    HW321473   2.739   6.067   5.938  0.1988  1.4039  0.9779
 5435SOL    MW421474   2.788   6.120   5.890  0.0991  0.2066 -0.0063
 5436SOL     OW21475   3.869   2.932   3.192  0.1591 -0.0145 -0.0200
 5436SOL    HW221476   3.961   2.908   3.188  0.1458 -0.0477 -0.1533
 5436SOL    HW321477   3.869   3.028   3.189  0.1644 -0.0299 -0.6371
 5436SOL    MW421478   3.881   2.942   3.191 -0.0390 -0.5237 -0.9057
 5437SOL     OW21479   0.155   1.249   0.524  0.4017  0.3644 -0.0582
 5437SOL    HW221480   0.157   1.279   0.433  0.1726 -2.2461 -1.0109
 5437SOL    HW321481   0.063   1.247   0.547  0.3962  0.1200 -0.1002
 5437SOL    MW421482   0.143   1.252   0.515  0.2987  0.1042  0.4431
 5438SOL     OW21483   0.583   2.819   5.224 -0.9453  0.6460  0.0909
 5438SOL    HW221484   0.668   2.792   5.188 -1.0011 -0.0717  0.4907
 5438SOL    HW321485   0.523   2.750   5.199 -0.8840 -0.1413  1.9804
 5438SOL    MW421486   0.586   2.807   5.216  0.1964  0.2486  0.0359
 5439SOL     OW21487   1.594   5.422   5.613 -0.3399 -0.0163 -0.1671
 5439SOL    HW221488   1.511   5.376   5.627 -0.0327 -0.8544 -1.0812
 5439SOL    HW321489   1.569   5.501   5.565 -0.6888  0.0575  0.1301
 5439SOL    MW421490   1.580   5.427   5.609 -0.5194 -0.0578  0.1459
 5440SOL     OW21491   0.191   3.698   5.027 -0.0360 -0.0193 -0.1987
 5440SOL    HW221492   0.239   3.779   5.010 -1.9664  1.0858 -0.7263
 5440SOL    HW321493   0.122   3.723   5.089 -0.0105 -1.5156  0.4853
 5440SOL    MW421494   0.188   3.712   5.033  0.1756 -0.2474 -0.1402
 5441SOL     OW21495   5.366   2.082   5.818 -0.0231  0.6619  0.2437
 5441SOL    HW221496   5.341   2.003   5.865 -0.7387  0.0714 -1.0931
 5441SOL    HW321497   5.312   2.151   5.858  0.6636  0.5170  1.4683
 5441SOL    MW421498   5.355   2.081   5.830  0.4711 -0.0664  0.2620
 5442SOL     OW21499   1.357   6.021   5.148  0.5184  0.1878 -0.0294
 5442SOL    HW221500   1.410   6.013   5.069  1.7807  0.3298  0.7680
 5442SOL    HW321501   1.378   6.108   5.183  1.8828 -0.7850  1.7413
 5442SOL    MW421502   1.367   6.032   5.142  0.2166 -0.1925  0.1100
 5443SOL     OW21503   6.070   3.893   5.820 -0.0723 -0.6499  0.2647
 5443SOL    HW221504   6.130   3.903   5.746 -0.9356 -0.2060 -0.3876
 5443SOL    HW321505   6.077   3.975   5.868 -0.0691 -0.6506  0.2654
 5443SOL    MW421506   6.079   3.905   5.817 -0.1963  0.2364  0.2823
 5444SOL     OW21507   4.432   1.461   5.838 -0.0569  0.1658  0.2761
 5444SOL    HW221508   4.396   1.548   5.850  0.7904  0.3036  2.0140
 5444SOL    HW321509   4.460   1.459   5.746  0.6550  2.0101  0.4188
 5444SOL    MW421510   4.431   1.472   5.827 -0.0310  0.0043  0.1517
 5445SOL     OW21511   3.196   1.740   5.411  0.6776  0.1119  0.7304
 5445SOL    HW221512   3.243   1.665   5.446  1.6992 -0.0615 -0.8940
 5445SOL    HW321513   3.198   1.727   5.316 -2.0882  0.4440  0.5364
 5445SOL    MW421514   3.202   1.729   5.403 -0.1690 -0.0911 -0.8247
 5446SOL     OW21515   1.209   1.410   5.796  0.2919  0.3061 -0.1703
 5446SOL    HW221516   1.250   1.385   5.878  2.2836  1.6263 -0.6958
 5446SOL    HW321517   1.154   1.485   5.818 -0.1485 -0.1046  0.1510
 5446SOL    MW421518   1.207   1.416   5.810 -0.5378 -0.1376 -0.3160
 5447SOL     OW21519   4.708   1.725   1.175 -0.0476  0.4460  0.0475
 5447SOL    HW221520   4.679   1.786   1.107 -1.6218 -0.6143 -0.2796
 5447SOL    HW321521   4.708   1.777   1.255  1.6414  1.6589 -0.6941
 5447SOL    MW421522   4.704   1.740   1.176 -1.0766  0.3266  0.2045
 5448SOL     OW21523   3.152   6.224   1.436  0.6497  0.1511  0.2812
 5448SOL    HW221524   3.068   6.181   1.445 -0.6633  2.8294  2.9086
 5448SOL    HW321525   3.209   6.179   1.499  0.5261 -0.2848  0.0839
 5448SOL    MW421526   3.149   6.213   1.446  0.2544  0.0882  0.4968
 5449SOL     OW21527   1.987   2.425   5.270  0.2841  0.2396 -0.4427
 5449SOL    HW221528   2.027   2.393   5.351  1.7438  2.3048 -0.2717
 5449SOL    HW321529   2.061   2.434   5.210 -0.3260  1.5530 -1.0259
 5449SOL    MW421530   2.002   2.422   5.273 -0.2932 -0.3452 -0.2153
 5450SOL     OW21531   4.073   2.424   4.381 -0.9141  0.7181 -0.2139
 5450SOL    HW221532   4.004   2.437   4.316 -0.1113  2.7255 -0.7302
 5450SOL    HW321533   4.148   2.392   4.330 -0.9954 -0.0323  0.1206
 5450SOL    MW421534   4.074   2.421   4.366  0.6652  0.0014  0.0605
 5451SOL     OW21535   1.581   3.422   1.841 -0.1659  0.3667 -0.7689
 5451SOL    HW221536   1.647   3.372   1.793  0.6083  0.7116 -0.0839
 5451SOL    HW321537   1.616   3.430   1.929 -1.1406  0.5414 -0.3824
 5451SOL    MW421538   1.594   3.416   1.846 -0.8925 -0.2541  0.3694
 5452SOL     OW21539   4.991   3.256   4.545  0.4209 -0.2619  0.1182
 5452SOL    HW221540   4.970   3.205   4.467 -0.2766 -0.2473  0.2875
 5452SOL    HW321541   4.917   3.316   4.555  1.2164  0.7810 -0.0643
 5452SOL    MW421542   4.978   3.257   4.536  0.6434 -0.0500  0.0872
 5453SOL     OW21543   0.190   2.058   3.553  0.7356  0.0857 -0.5027
 5453SOL    HW221544   0.212   2.003   3.478  0.7860 -1.3189  0.4971
 5453SOL    HW321545   0.268   2.057   3.608  0.0069 -0.7144  0.5866
 5453SOL    MW421546   0.203   2.050   3.551  0.2736  0.5057 -0.2038
 5454SOL     OW21547   0.995   5.176   2.015 -0.1996 -0.3663 -0.2918
 5454SOL    HW221548   0.935   5.104   2.036  0.2824 -0.2766  1.5885
 5454SOL    HW321549   1.076   5.153   2.059  0.3016  0.8196 -0.5590
 5454SOL    MW421550   0.998   5.164   2.024  0.2071  0.0998 -0.1840
 5455SOL     OW21551   5.118   4.689   5.774 -0.6292 -0.3454  0.1729
 5455SOL    HW221552   5.161   4.758   5.824 -0.6856  0.3506 -0.7232
 5455SOL    HW321553   5.184   4.663   5.709 -1.4114  0.4653 -0.9684
 5455SOL    MW421554   5.133   4.695   5.772 -0.3013  0.4614  0.0670
 5456SOL     OW21555   6.059   3.628   5.917 -0.5350  0.0904 -0.0132
 5456SOL    HW221556   6.046   3.723   5.918 -2.6006 -0.1379  0.8358
 5456SOL    HW321557   6.007   3.596   5.991  2.3699 -1.4983  1.5171
 5456SOL    MW421558   6.050   3.637   5.927 -0.1363 -0.0657 -0.6129
 5457SOL     OW21559   3.013   5.742   5.312  0.5999 -0.2504  0.1716
 5457SOL    HW221560   2.939   5.802   5.316  0.7105 -0.1609  1.2768
 5457SOL    HW321561   3.045   5.738   5.402  1.9245 -0.2942 -0.2774
 5457SOL    MW421562   3.008   5.749   5.324  0.6174 -0.2140  0.0619
 5458SOL     OW21563   6.363   2.918   5.546  0.1506 -0.1981 -0.0545
 5458SOL    HW221564   6.442   2.960   5.512  0.4165  1.3025  2.1755
 5458SOL    HW321565   6.293   2.980   5.526 -0.0056 -0.2296  0.3947
 5458SOL    MW421566   6.364   2.932   5.539 -0.3867  0.1717 -0.1725
 5459SOL     OW21567   0.449   2.347   3.811  0.0749  0.0668  0.5190
 5459SOL    HW221568   0.379   2.322   3.751  0.4360  0.8323 -0.2584
 5459SOL    HW321569   0.405   2.392   3.883 -0.2209  0.9230 -0.1737
 5459SOL    MW421570   0.434   2.350   3.812 -0.0206 -0.1349  0.1284
 5460SOL     OW21571   5.096   0.653   0.385  0.2251  0.4983 -0.2699
 5460SOL    HW221572   5.172   0.666   0.329  0.5996  1.3798  0.4315
 5460SOL    HW321573   5.022   0.684   0.332  0.4059  0.1586 -0.7365
 5460SOL    MW421574   5.096   0.659   0.370 -0.2089 -0.3654 -0.3490
 5461SOL     OW21575   0.483   0.390   2.735 -0.1688 -0.3128 -0.0184
 5461SOL    HW221576   0.519   0.413   2.649 -1.9477  1.1940 -0.4440
 5461SOL    HW321577   0.420   0.320   2.717 -3.0868  2.2724 -0.6167
 5461SOL    MW421578   0.479   0.384   2.721  0.0753 -0.0620  0.1728
 5462SOL     OW21579   4.988   5.757  -0.002  0.0100  0.4826  0.3961
 5462SOL    HW221580   5.077   5.775   0.028  0.1591  0.2501  0.1032
 5462SOL    HW321581   4.997   5.746  -0.097  0.0993 -2.0179  0.6339
 5462SOL    MW421582   5.001   5.758  -0.011 -0.4576 -0.2728  0.6697
 5463SOL     OW21583   1.072   0.682   3.663 -0.4547 -0.1869  0.3124
 5463SOL    HW221584   1.122   0.608   3.629 -1.1073 -0.6833  0.4120
 5463SOL    HW321585   0.981   0.655   3.656 -0.8738  1.5312 -1.8303
 5463SOL    MW421586   1.067   0.669   3.658 -0.1376 -0.3924 -0.2871
 5464SOL     OW21587   1.876   1.080   5.169  0.4288  0.4726 -0.2495
 5464SOL    HW221588   1.820   1.104   5.095 -1.3331 -1.0557  0.5143
 5464SOL    HW321589   1.864   1.150   5.232 -1.1093 -0.1108  0.1341
 5464SOL    MW421590   1.867   1.093   5.167 -0.2534 -0.0414 -0.0762
 5465SOL     OW21591   5.147   2.904   1.388  0.0119  0.7081 -0.7251
 5465SOL    HW221592   5.091   2.884   1.313  1.3787 -0.3174 -1.5154
 5465SOL    HW321593   5.092   2.888   1.465 -0.6857 -0.5394 -1.4665
 5465SOL    MW421594   5.132   2.899   1.389  0.1719 -0.0219 -0.6646
 5466SOL     OW21595   3.696   4.913   0.494  0.4787 -0.1206  0.5298
 5466SOL    HW221596   3.745   4.831   0.487 -0.9471 -0.9810  0.3581
 5466SOL    HW321597   3.667   4.932   0.405  1.1662  0.8269  0.4894
 5466SOL    MW421598   3.699   4.905   0.482 -0.2150 -0.1393 -0.0910
 5467SOL     OW21599   4.533   1.666   2.763  0.0670  0.0264 -0.1947
 5467SOL    HW221600   4.583   1.682   2.683 -0.8809 -3.3505 -1.6678
 5467SOL    HW321601   4.516   1.753   2.799  3.6546  1.5198 -1.6121
 5467SOL    MW421602   4.538   1.680   2.757  0.5542 -0.2232  0.4327
 5468SOL     OW21603   5.464   2.729   0.755 -0.8329  0.0274  0.1183
 5468SOL    HW221604   5.411   2.708   0.678 -1.6697 -0.3045  0.7690
 5468SOL    HW321605   5.519   2.652   0.768 -0.0562  0.4309 -0.6465
 5468SOL    MW421606   5.464   2.716   0.746 -0.0711 -0.4032 -0.4317
 5469SOL     OW21607   3.730   1.073   4.806  0.0124  0.4550  0.2531
 5469SOL    HW221608   3.722   1.152   4.860 -0.6594  1.0858 -0.7474
 5469SOL    HW321609   3.789   1.099   4.735  1.5183 -0.6010  1.0512
 5469SOL    MW421610   3.737   1.087   4.804  0.8073  0.0472 -0.3119
 5470SOL     OW21611   6.082   6.089   4.933  0.0343 -0.7244  0.5242
 5470SOL    HW221612   6.051   6.046   5.013  0.4411  0.0707  1.1198
 5470SOL    HW321613   6.098   6.179   4.959  1.1116 -0.6798 -0.2221
 5470SOL    MW421614   6.080   6.095   4.947 -0.3113  0.5704  0.5712
 5471SOL     OW21615   0.611   2.005   5.969 -0.0054 -0.1782 -0.2931
 5471SOL    HW221616   0.667   2.033   6.041  1.5152  0.4888 -1.6820
 5471SOL    HW321617   0.564   2.084   5.942 -0.3288 -0.3524 -0.2470
 5471SOL    MW421618   0.612   2.019   5.975 -0.2263 -0.4137  0.3821
 5472SOL     OW21619   0.212   5.937   1.289 -0.7329 -0.6372 -0.2787
 5472SOL    HW221620   0.298   5.977   1.287 -1.6133  1.5684  1.8071
 5472SOL    HW321621   0.227   5.846   1.263  2.2729 -0.4388  0.4515
 5472SOL    MW421622   0.225   5.930   1.285 -0.3969  0.3479 -0.1844
 5473SOL     OW21623   3.410   1.671   4.525  0.3841 -0.0804 -0.2216
 5473SOL    HW221624   3.384   1.675   4.433 -1.4591  0.1503  0.2659
 5473SOL    HW321625   3.495   1.714   4.528  0.4539 -0.0609 -1.8125
 5473SOL    MW421626   3.417   1.677   4.513 -0.2359  0.4096 -0.5169
 5474SOL     OW21627   3.912   2.247   1.479  0.7808 -0.1282 -0.1473
 5474SOL    HW221628   3.935   2.288   1.562 -0.6738  1.5376 -0.4894
 5474SOL    HW321629   3.836   2.192   1.499 -0.3577  1.2241 -0.5088
 5474SOL    MW421630   3.905   2.245   1.492 -0.0501  0.0041 -0.2476
 5475SOL     OW21631   0.915   2.609   3.508 -0.4015 -0.2679 -0.1884
 5475SOL    HW221632   0.980   2.539   3.503 -0.3533 -0.1380 -2.7247
 5475SOL    HW321633   0.915   2.635   3.600  0.4604 -2.7401  0.5930
 5475SOL    MW421634   0.924   2.603   3.519  0.1653  0.0100 -0.5378
 5476SOL     OW21635   0.628   1.476   4.801  0.5550  0.5693  0.4199
 5476SOL    HW221636   0.653   1.433   4.883  1.2094 -1.4827 -0.7984
 5476SOL    HW321637   0.573   1.549   4.829  2.5259  1.3081  2.8411
 5476SOL    MW421638   0.624   1.480   4.816 -0.1208  0.6210  0.3553
 5477SOL     OW21639   0.327   3.735   2.410  0.6317  0.0587 -0.3252
 5477SOL    HW221640   0.253   3.766   2.357 -0.9018 -1.4802  0.7948
 5477SOL    HW321641   0.322   3.787   2.490  1.0536  0.2494 -0.4196
 5477SOL    MW421642   0.316   3.746   2.413 -0.3238 -0.3916 -0.3625
 5478SOL     OW21643   5.234   4.108   1.934 -0.1954  0.4017  0.2367
 5478SOL    HW221644   5.262   4.087   1.844  3.3063  1.6953  0.8644
 5478SOL    HW321645   5.154   4.160   1.922 -1.1318 -1.3599 -1.9476
 5478SOL    MW421646   5.227   4.112   1.920 -0.4909  0.3429  0.1769
 5479SOL     OW21647   0.328   3.402   3.059  0.1619  0.2831  0.5547
 5479SOL    HW221648   0.317   3.449   2.977  0.1266  0.1987  0.5109
 5479SOL    HW321649   0.389   3.455   3.110 -1.8845  1.7964  1.5777
 5479SOL    MW421650   0.335   3.415   3.055  0.0234  0.1109 -0.3870
 5480SOL     OW21651   2.471   5.966   3.008 -0.7040 -0.0349  0.2632
 5480SOL    HW221652   2.429   5.946   3.092 -1.3942 -0.2387 -0.1222
 5480SOL    HW321653   2.563   5.944   3.022 -1.1303 -1.8839  0.4012
 5480SOL    MW421654   2.478   5.960   3.021  0.3044  0.1573  0.4701
 5481SOL     OW21655   5.597   6.184   5.264  0.7718  0.0816 -0.2039
 5481SOL    HW221656   5.543   6.205   5.340  3.1353 -0.9555  1.8727
 5481SOL    HW321657   5.563   6.100   5.233  1.5272 -0.8981  1.5016
 5481SOL    MW421658   5.585   6.176   5.270 -0.1562 -0.2486  0.6002
 5482SOL     OW21659   3.515   2.266   5.212  0.0710 -0.0958 -0.2868
 5482SOL    HW221660   3.500   2.221   5.296 -0.2049  1.3237  0.4613
 5482SOL    HW321661   3.586   2.217   5.171  1.8830  0.5092  1.8738
 5482SOL    MW421662   3.522   2.254   5.218  0.2859  0.3084 -0.2990
 5483SOL     OW21663   2.894   3.845   2.425 -0.1271 -0.3177 -0.1491
 5483SOL    HW221664   2.957   3.875   2.490 -1.4854  1.1355  0.5811
 5483SOL    HW321665   2.943   3.841   2.343  1.0639  0.0798  0.5258
 5483SOL    MW421666   2.909   3.849   2.423  0.0542  0.1608 -0.1597
 5484SOL     OW21667   6.395   3.618   4.350 -0.1796 -0.1854 -0.2335
 5484SOL    HW221668   6.334   3.560   4.396 -0.4021 -0.3246 -0.6886
 5484SOL    HW321669   6.418   3.569   4.271 -0.3747  0.3552 -0.6263
 5484SOL    MW421670   6.390   3.604   4.346 -0.1899 -0.1109  0.1601
 5485SOL     OW21671   2.662   2.217   0.640  0.4621  0.1493  0.0650
 5485SOL    HW221672   2.592   2.169   0.684 -0.3730 -0.1623 -1.5070
 5485SOL    HW321673   2.627   2.234   0.552  1.6579  1.5946 -0.1707
 5485SOL    MW421674   2.648   2.213   0.634  0.4521  0.3895  0.0648
 5486SOL     OW21675   4.303   3.345   4.411  0.2965  0.1748  0.5922
 5486SOL    HW221676   4.275   3.437   4.405  1.6489  0.6652  1.4205
 5486SOL    HW321677   4.387   3.343   4.366 -0.5780 -1.0863 -1.0761
 5486SOL    MW421678   4.310   3.357   4.404 -0.0106 -0.2036 -0.5237
 5487SOL     OW21679   5.996   2.838   2.080  0.4235  0.0796 -0.0114
 5487SOL    HW221680   6.073   2.859   2.132  0.8555 -1.0328 -0.1889
 5487SOL    HW321681   6.020   2.861   1.990  0.1211  0.8259  0.0901
 5487SOL    MW421682   6.009   2.844   2.075  1.2945 -0.2490 -0.0321
 5488SOL     OW21683   5.042   0.394   5.656  0.2678 -0.5233 -0.3604
 5488SOL    HW221684   5.121   0.342   5.670  0.3393 -0.3567 -0.1338
 5488SOL    HW321685   5.055   0.435   5.571  0.2508 -0.8035 -0.5003
 5488SOL    MW421686   5.054   0.392   5.647 -0.4520  0.1148  0.1387
 5489SOL     OW21687   4.622   0.805   4.345  0.5748 -0.3631  0.4340
 5489SOL    HW221688   4.690   0.808   4.278  0.8651  1.4917  0.7530
 5489SOL    HW321689   4.668   0.823   4.427 -0.0028 -1.1143  0.9348
 5489SOL    MW421690   4.637   0.808   4.347 -0.1111  0.2365  0.6103
 5490SOL     OW21691   1.787   2.762   1.949  0.0379  0.2632 -0.3129
 5490SOL    HW221692   1.805   2.761   2.043  0.5487 -1.3773 -0.4061
 5490SOL    HW321693   1.867   2.796   1.910 -0.3805  1.4979 -0.1402
 5490SOL    MW421694   1.800   2.767   1.956  0.5540  0.1280  0.5868
 5491SOL     OW21695   3.700   2.164   5.042 -0.3523  0.2727 -0.1648
 5491SOL    HW221696   3.728   2.185   4.953  0.5220  0.7551  0.2046
 5491SOL    HW321697   3.782   2.163   5.092 -1.0009  1.7070  0.9697
 5491SOL    MW421698   3.715   2.166   5.037  0.1784  0.1473  0.3320
 5492SOL     OW21699   4.167   1.668   2.037  0.2282 -0.2335  0.2349
 5492SOL    HW221700   4.250   1.709   2.012  1.2472 -1.7349  0.9966
 5492SOL    HW321701   4.121   1.735   2.087  1.9245 -0.0242  1.6159
 5492SOL    MW421702   4.172   1.682   2.040  0.1232 -0.4469  0.0280
 5493SOL     OW21703   1.974   1.730   6.091  0.2366  0.5979  0.4911
 5493SOL    HW221704   1.944   1.676   6.164 -0.1271 -0.9755 -0.7805
 5493SOL    HW321705   1.904   1.723   6.026  0.4954  2.0796  0.0141
 5493SOL    MW421706   1.961   1.722   6.092 -0.2906  0.0105  0.1411
 5494SOL     OW21707   1.525   0.165   2.000  0.6731 -0.3199  0.3657
 5494SOL    HW221708   1.499   0.154   2.091  0.3970  1.0250  0.4721
 5494SOL    HW321709   1.455   0.218   1.961  1.6271  0.5713 -0.1800
 5494SOL    MW421710   1.512   0.170   2.007 -0.6572 -0.0648  0.1593
 5495SOL     OW21711   2.718   4.177   0.340  0.2644 -0.5073  0.1123
 5495SOL    HW221712   2.643   4.226   0.307  1.0314  0.0523 -0.8605
 5495SOL    HW321713   2.794   4.215   0.294  1.2686 -0.3661  1.8103
 5495SOL    MW421714   2.718   4.188   0.329 -1.0709  0.4489  0.0193
 5496SOL     OW21715   4.904   5.096   3.337  0.4751  0.2498 -0.3933
 5496SOL    HW221716   4.861   5.050   3.409 -0.5162  1.2421 -0.3262
 5496SOL    HW321717   4.873   5.052   3.258 -0.1035  0.4935 -0.3069
 5496SOL    MW421718   4.895   5.084   3.337  0.1476  0.1773  0.6276
 5497SOL     OW21719   0.501   2.435   4.360 -0.2667 -0.4318  0.2196
 5497SOL    HW221720   0.475   2.383   4.437 -0.0952 -1.8849 -0.6544
 5497SOL    HW321721   0.420   2.450   4.312 -0.2557 -0.2579  0.2552
 5497SOL    MW421722   0.487   2.430   4.364 -0.1846  0.3111 -0.5517
 5498SOL     OW21723   3.555   5.314   4.920  0.4527 -0.8889 -0.2701
 5498SOL    HW221724   3.469   5.350   4.895  0.3318  0.9577  2.3695
 5498SOL    HW321725   3.543   5.285   5.011  2.6773 -0.3450  0.2488
 5498SOL    MW421726   3.542   5.315   4.929  0.4525 -0.2356  0.0160
 5499SOL     OW21727   6.109   2.787   3.316  0.2512 -0.1758  0.1727
 5499SOL    HW221728   6.059   2.867   3.328 -0.5883 -0.3178 -1.9653
 5499SOL    HW321729   6.085   2.732   3.391 -2.4282 -0.0298 -0.4920
 5499SOL    MW421730   6.099   2.790   3.328  0.1579  0.2801  0.2173
 5500SOL     OW21731   2.522   2.859   2.947 -0.0476 -0.2434  0.0571
 5500SOL    HW221732   2.449   2.891   2.893  1.2475  2.3982 -0.3301
 5500SOL    HW321733   2.569   2.798   2.889 -1.0421 -0.7479 -0.2455
 5500SOL    MW421734   2.518   2.855   2.932  0.4841 -0.6088  0.0925
 5501SOL     OW21735   0.663   5.805   3.820  0.4555  0.0261 -0.1416
 5501SOL    HW221736   0.623   5.880   3.864 -0.4338  0.2685 -1.2963
 5501SOL    HW321737   0.756   5.812   3.840  0.3928  1.4555 -0.2305
 5501SOL    MW421738   0.670   5.816   3.828 -0.2208 -0.0455 -0.5451
 5502SOL     OW21739   1.109   0.805   0.904  0.1051 -0.4469 -0.1278
 5502SOL    HW221740   1.089   0.713   0.891  2.6426 -1.0673 -0.1557
 5502SOL    HW321741   1.072   0.849   0.828  0.2576 -1.6599 -0.9215
 5502SOL    MW421742   1.101   0.799   0.893  0.2632 -0.6268  0.0735
 5503SOL     OW21743   2.626   0.242   3.470 -0.0530 -0.3036  0.3862
 5503SOL    HW221744   2.692   0.230   3.401 -0.9289 -1.4426 -0.2911
 5503SOL    HW321745   2.639   0.168   3.529 -1.3053 -1.0597 -0.2560
 5503SOL    MW421746   2.637   0.231   3.469  0.3417 -0.2202  0.5934
 5504SOL     OW21747   4.405   1.037   0.961 -0.1599 -0.5470 -0.4117
 5504SOL    HW221748   4.387   0.969   0.896  1.5973 -0.2185 -1.3210
 5504SOL    HW321749   4.443   1.109   0.911  2.2333 -0.6764  1.0298
 5504SOL    MW421750   4.408   1.037   0.946 -1.2020 -0.4458  0.1378
 5505SOL     OW21751   0.246   0.452   6.250 -0.0674  0.0819 -0.8610
 5505SOL    HW221752   0.313   0.413   6.194  0.8700  0.9413 -0.3712
 5505SOL    HW321753   0.235   0.540   6.216 -0.2861  0.2471 -0.3688
 5505SOL    MW421754   0.254   0.458   6.238 -0.4486  0.0910 -0.2589
 5506SOL     OW21755   2.337   5.807   6.342 -0.0539  0.5361 -0.4003
 5506SOL    HW221756   2.249   5.844   6.335  0.4962  1.6887 -1.4631
 5506SOL    HW321757   2.396   5.882   6.337  1.0988 -0.4241 -2.7143
 5506SOL    MW421758   2.333   5.822   6.340 -0.6439  0.1778  0.5646
 5507SOL     OW21759   2.771   3.785   0.020 -0.4601 -0.6622 -0.4454
 5507SOL    HW221760   2.853   3.772  -0.027  1.0617 -1.6260  2.2571
 5507SOL    HW321761   2.792   3.763   0.111 -3.6019 -0.4113  0.4427
 5507SOL    MW421762   2.785   3.781   0.026  0.2610 -0.1051  0.1446
 5508SOL     OW21763   4.183   2.451   6.406 -0.0481  0.0943  0.2958
 5508SOL    HW221764   4.109   2.434   6.464 -0.8898 -1.4145 -1.1320
 5508SOL    HW321765   4.165   2.537   6.368 -1.7254 -0.7322 -0.8982
 5508SOL    MW421766   4.171   2.460   6.409  0.1907  0.0053 -0.3434
 5509SOL     OW21767   5.316   1.427   5.700  0.6354 -0.1710  0.2004
 5509SOL    HW221768   5.343   1.338   5.675 -2.5306 -1.6493  1.4468
 5509SOL    HW321769   5.304   1.422   5.795  0.6509  1.7307  0.3432
 5509SOL    MW421770   5.318   1.414   5.709  0.2392 -0.1571 -0.0766
 5510SOL     OW21771   2.415   0.965   2.388  0.0973 -0.0438 -0.4015
 5510SOL    HW221772   2.506   0.938   2.393 -0.3345 -2.5202 -3.1489
 5510SOL    HW321773   2.371   0.913   2.455  0.1222 -2.4649 -2.1133
 5510SOL    MW421774   2.421   0.954   2.398 -0.3737 -0.3469  0.6001
 5511SOL     OW21775   1.937   0.326   2.096  0.1820 -0.2729 -0.0568
 5511SOL    HW221776   1.950   0.318   2.190  0.7794 -0.5896 -0.1623
 5511SOL    HW321777   2.025   0.324   2.059  0.0159  0.7273 -0.5611
 5511SOL    MW421778   1.950   0.325   2.103 -0.8375  0.0598 -0.0826
 5512SOL     OW21779   1.643   1.764   1.362 -0.3156 -0.0791  0.2983
 5512SOL    HW221780   1.608   1.712   1.434  0.5124 -2.1771 -0.7112
 5512SOL    HW321781   1.732   1.730   1.349 -0.1735  0.7650 -1.1897
 5512SOL    MW421782   1.651   1.753   1.370 -0.8317 -0.6087  0.0748
 5513SOL     OW21783   0.706   3.287   4.785  0.1520  0.1055 -0.6177
 5513SOL    HW221784   0.661   3.237   4.717  0.8074  0.9925 -1.7263
 5513SOL    HW321785   0.675   3.377   4.774 -1.2890 -0.0306  1.5817
 5513SOL    MW421786   0.696   3.292   4.775 -0.4696  0.1796  0.2084
 5514SOL     OW21787   5.062   2.654   1.562  0.1535 -0.5796 -0.4699
 5514SOL    HW221788   5.142   2.635   1.611  0.0284  0.8604  0.3437
 5514SOL    HW321789   5.069   2.599   1.484  1.2547 -1.5339  0.2527
 5514SOL    MW421790   5.074   2.644   1.558 -0.2265 -0.4433 -0.4216
 5515SOL     OW21791   2.313   2.263   6.234  0.2368 -0.2507  0.1443
 5515SOL    HW221792   2.288   2.171   6.233  0.9067 -0.5105  2.5314
 5515SOL    HW321793   2.236   2.309   6.267  0.3595 -0.1332  0.2713
 5515SOL    MW421794   2.300   2.257   6.238  0.3339  0.0689  0.0372
 5516SOL     OW21795   2.850   5.763   0.975 -0.0600 -0.1748 -0.5463
 5516SOL    HW221796   2.891   5.707   1.040  0.4830  0.8781  0.0429
 5516SOL    HW321797   2.793   5.822   1.026  0.3406  0.6326 -1.0072
 5516SOL    MW421798   2.848   5.764   0.990  0.3879  0.1595 -0.8922
 5517SOL     OW21799   5.619   3.257   2.938 -0.1124 -0.0014  0.1968
 5517SOL    HW221800   5.598   3.174   2.896 -1.2195  0.0423  0.6101
 5517SOL    HW321801   5.647   3.314   2.866  0.4762 -0.6669 -0.1123
 5517SOL    MW421802   5.620   3.254   2.923 -0.5180  0.1339 -0.1430
 5518SOL     OW21803   2.678   0.231   0.695 -0.6450  0.2875 -0.8041
 5518SOL    HW221804   2.741   0.303   0.682 -0.7674  0.8546  1.4234
 5518SOL    HW321805   2.594   0.269   0.672 -0.9291  1.4345  1.7722
 5518SOL    MW421806   2.675   0.246   0.690  0.2882  0.0186 -0.0515
 5519SOL     OW21807   1.723   6.167   3.877  0.3364  0.5999  0.6642
 5519SOL    HW221808   1.731   6.255   3.914  0.0556  0.5685  0.8001
 5519SOL    HW321809   1.721   6.109   3.953  0.5703  0.4696  0.5733
 5519SOL    MW421810   1.724   6.171   3.892  0.1266 -0.1000 -0.3024
 5520SOL     OW21811   3.451   3.902   1.312  0.4362 -0.3327  0.7006
 5520SOL    HW221812   3.532   3.852   1.308 -0.4792 -1.8042 -0.9035
 5520SOL    HW321813   3.469   3.983   1.264  0.9225 -0.7266  0.2086
 5520SOL    MW421814   3.464   3.906   1.305  0.2924 -0.1850 -0.7664
 5521SOL     OW21815   3.933   1.696   0.029 -0.2472  0.0236  0.0410
 5521SOL    HW221816   3.932   1.608  -0.009  1.1082  0.3294 -0.7795
 5521SOL    HW321817   3.905   1.754  -0.042  0.2863  0.3964  0.1280
 5521SOL    MW421818   3.929   1.692   0.015 -0.2199  0.4708 -0.2626
 5522SOL     OW21819   6.121   5.664   3.805  0.4371 -0.4996  0.4120
 5522SOL    HW221820   6.128   5.627   3.893  0.8773  0.1427  0.6601
 5522SOL    HW321821   6.185   5.735   3.804  1.0294 -1.0144 -0.6975
 5522SOL    MW421822   6.130   5.669   3.816  0.1900 -0.3137  0.4526
 5523SOL     OW21823   4.000   4.499   4.762 -0.0455 -0.0699 -0.3692
 5523SOL    HW221824   3.990   4.578   4.815 -0.2881 -2.1212  2.9051
 5523SOL    HW321825   3.920   4.495   4.710 -0.5442  1.2635  0.2481
 5523SOL    MW421826   3.988   4.509   4.762 -0.1664  0.1914 -0.3628
 5524SOL     OW21827   5.877   5.917   1.863  0.7131 -0.1169  0.4154
 5524SOL    HW221828   5.790   5.898   1.898  0.7862  0.6717  1.0646
 5524SOL    HW321829   5.861   5.964   1.782  0.5409 -1.1820 -0.1814
 5524SOL    MW421830   5.863   5.921   1.857 -0.3675 -0.1704 -0.6134
 5525SOL     OW21831   1.252   3.695   1.586 -0.8778 -0.4149  0.4712
 5525SOL    HW221832   1.188   3.702   1.656  0.3186  0.1770  1.5399
 5525SOL    HW321833   1.284   3.605   1.591 -0.3405 -0.1953  1.1145
 5525SOL    MW421834   1.248   3.684   1.596  0.1199  0.1623 -0.2348
 5526SOL     OW21835   3.149   3.639   2.349  0.5952  0.3222 -0.1491
 5526SOL    HW221836   3.227   3.691   2.330  0.6622  0.7492  1.1497
 5526SOL    HW321837   3.128   3.595   2.267  2.2175  0.1779 -0.5168
 5526SOL    MW421838   3.156   3.640   2.336  0.1268  0.1780 -0.0884
 5527SOL     OW21839   5.645   0.355   0.178 -0.2865  0.2382 -0.4710
 5527SOL    HW221840   5.612   0.394   0.258 -1.9269 -0.6112 -0.6863
 5527SOL    HW321841   5.666   0.430   0.122 -0.0875  0.8279  0.3774
 5527SOL    MW421842   5.643   0.370   0.181 -0.5116  0.4356 -0.0860
 5528SOL     OW21843   1.593   0.718   1.911  0.1925  0.2231 -0.4271
 5528SOL    HW221844   1.669   0.765   1.946  2.5677 -1.9331 -2.2516
 5528SOL    HW321845   1.583   0.751   1.822 -1.2502  0.6984 -0.1038
 5528SOL    MW421846   1.602   0.728   1.904 -0.2079  0.3057  0.5764
 5529SOL     OW21847   1.853   2.844   5.560  0.3586 -0.4687  0.3209
 5529SOL    HW221848   1.900   2.924   5.585 -2.0705  1.3421 -0.6039
 5529SOL    HW321849   1.828   2.804   5.644  0.4536  0.4504  0.7949
 5529SOL    MW421850   1.856   2.849   5.575 -0.2210 -0.3463  0.0168
 5530SOL     OW21851   5.210   3.789   6.058 -0.3657 -0.0718 -0.2403
 5530SOL    HW221852   5.261   3.870   6.062  0.1232 -0.4415  1.9722
 5530SOL    HW321853   5.169   3.782   6.144  0.4712 -2.7135  0.0225
 5530SOL    MW421854   5.211   3.799   6.070 -0.4928 -0.2296  0.2064
 5531SOL     OW21855   3.733   5.383   2.529  0.2286  0.0739  0.2837
 5531SOL    HW221856   3.736   5.302   2.580  0.3771 -0.7872 -1.0459
 5531SOL    HW321857   3.715   5.451   2.593 -2.4218 -1.2968  1.1418
 5531SOL    MW421858   3.731   5.381   2.544  0.6106 -0.2599 -0.4682
 5532SOL     OW21859   2.536   3.796   0.277 -0.2287  0.0259  0.2170
 5532SOL    HW221860   2.526   3.829   0.366 -0.8404  0.2187  0.0811
 5532SOL    HW321861   2.551   3.874   0.223  1.1582 -0.1673  0.2728
 5532SOL    MW421862   2.537   3.811   0.282  0.1512  0.2587  0.0703
 5533SOL     OW21863   4.757   6.176   4.343  0.2209  0.4436 -0.0239
 5533SOL    HW221864   4.687   6.239   4.326 -1.0110 -0.0191  2.7254
 5533SOL    HW321865   4.833   6.210   4.297 -1.5786  1.3657 -2.5330
 5533SOL    MW421866   4.758   6.189   4.335 -0.0620 -0.1953 -0.0993
 5534SOL     OW21867   0.935   1.481   0.189  0.0407 -0.1170  0.2299
 5534SOL    HW221868   0.867   1.508   0.250  0.4822  0.2036  0.5847
 5534SOL    HW321869   0.887   1.450   0.112 -0.6262 -2.9220  1.6560
 5534SOL    MW421870   0.919   1.480   0.187 -0.2234  0.1348  0.8623
 5535SOL     OW21871   2.010   6.332   5.631 -0.3263  0.0021  0.3385
 5535SOL    HW221872   2.021   6.319   5.726  0.4487 -0.1542  0.2328
 5535SOL    HW321873   2.034   6.247   5.593 -2.1202 -0.4389  0.0800
 5535SOL    MW421874   2.014   6.319   5.639  0.1537  0.2498 -1.0985
 5536SOL     OW21875   2.977   5.090   5.819  0.2851  0.3128  0.2262
 5536SOL    HW221876   2.882   5.099   5.815  0.2181  0.2313  1.4086
 5536SOL    HW321877   3.010   5.160   5.763 -0.4792 -0.7561 -1.6660
 5536SOL    MW421878   2.969   5.100   5.811 -0.5068  0.2727  0.1456
 5537SOL     OW21879   4.245   3.307   1.082  0.0049  0.0407 -0.4051
 5537SOL    HW221880   4.252   3.395   1.119  3.6308 -1.3722  2.8793
 5537SOL    HW321881   4.231   3.250   1.158  0.9252 -2.4908 -2.0090
 5537SOL    MW421882   4.244   3.311   1.097 -0.1196  0.1863  0.4180
 5538SOL     OW21883   4.027   4.658   0.705  0.9731  0.2111  0.2790
 5538SOL    HW221884   4.108   4.630   0.747  1.2011 -0.4100 -0.5459
 5538SOL    HW321885   4.046   4.746   0.671  1.1934  0.2055  0.3876
 5538SOL    MW421886   4.040   4.666   0.706 -0.2436 -0.2108  0.3204
 5539SOL     OW21887   6.303   4.959   2.947  0.3239 -0.0643 -0.0826
 5539SOL    HW221888   6.246   4.991   3.017  1.0614  1.2236 -0.0319
 5539SOL    HW321889   6.383   4.931   2.991 -0.5616 -2.8238 -0.0386
 5539SOL    MW421890   6.306   4.960   2.962  0.4876 -0.4062  0.0999
 5540SOL     OW21891   2.896   1.398   4.699 -0.1505  0.0294  0.3782
 5540SOL    HW221892   2.806   1.394   4.728 -0.0834 -0.0804  0.5713
 5540SOL    HW321893   2.940   1.457   4.760 -0.2655  0.7061 -0.1810
 5540SOL    MW421894   2.890   1.405   4.711  0.4737 -0.0952 -0.4166
 5541SOL     OW21895   5.587   5.682   1.783  0.1500  0.4221  0.7555
 5541SOL    HW221896   5.604   5.611   1.844 -1.0484  0.4317  1.1352
 5541SOL    HW321897   5.611   5.761   1.832  0.0567  0.3673  0.8939
 5541SOL    MW421898   5.592   5.683   1.798  0.4281  0.2307  0.3977
 5542SOL     OW21899   1.159   1.429   4.789  0.3667  0.4783  0.3408
 5542SOL    HW221900   1.159   1.495   4.858  1.6494  0.0050  0.8217
 5542SOL    HW321901   1.231   1.455   4.731  1.4514 -0.9085  0.9904
 5542SOL    MW421902   1.169   1.441   4.790 -0.3436  0.9467 -0.0879
 5543SOL     OW21903   1.969   5.429   2.370 -0.4167 -0.1654 -0.3542
 5543SOL    HW221904   2.000   5.520   2.362  1.5225 -0.7931 -0.6523
 5543SOL    HW321905   1.967   5.397   2.279 -0.4508 -0.6071 -0.1977
 5543SOL    MW421906   1.973   5.437   2.357  0.0707 -0.0181 -0.3397
 5544SOL     OW21907   0.486   0.867   5.250 -0.6240  0.2307  0.3212
 5544SOL    HW221908   0.507   0.872   5.343 -0.1550  2.9562  0.1673
 5544SOL    HW321909   0.487   0.774   5.229 -0.0860 -0.4040  2.8753
 5544SOL    MW421910   0.489   0.856   5.259  0.0396 -0.2834 -0.4311
 5545SOL     OW21911   4.369   2.107   0.499  0.2342 -0.1682 -0.6579
 5545SOL    HW221912   4.280   2.074   0.487  0.3608 -0.2140 -1.5280
 5545SOL    HW321913   4.375   2.183   0.441  0.5068  0.3324  0.0148
 5545SOL    MW421914   4.358   2.113   0.489 -0.4173  0.1144 -0.2969
 5546SOL     OW21915   2.129   2.408   2.032  0.4959  0.1781  0.1468
 5546SOL    HW221916   2.091   2.323   2.009  1.7598 -0.3304 -0.1744
 5546SOL    HW321917   2.219   2.387   2.056  0.9517  1.4857 -0.3620
 5546SOL    MW421918   2.136   2.394   2.032  0.2191 -0.2506 -0.7340
 5547SOL     OW21919   6.025   0.125   5.149  0.3232 -0.3160 -0.1252
 5547SOL    HW221920   6.054   0.050   5.097 -1.5710 -0.5422 -0.9286
 5547SOL    HW321921   5.971   0.176   5.089 -1.2076 -0.1150  1.3721
 5547SOL    MW421922   6.022   0.122   5.134  0.6037  0.1161 -0.6163
 5548SOL     OW21923   1.133   0.174   0.819 -0.7954  0.0885  0.1180
 5548SOL    HW221924   1.157   0.211   0.734 -1.7293  0.5901  0.0582
 5548SOL    HW321925   1.112   0.082   0.800 -0.5924  0.0904 -0.1202
 5548SOL    MW421926   1.133   0.167   0.805  0.1113 -0.7332  0.2008
 5549SOL     OW21927   5.101   1.287   1.852  0.0567  0.4452 -0.2653
 5549SOL    HW221928   5.009   1.277   1.877 -0.9314  2.0141 -2.8113
 5549SOL    HW321929   5.113   1.224   1.780  1.2960 -0.4113  0.6446
 5549SOL    MW421930   5.090   1.277   1.846 -0.2017  0.6078  0.3213
 5550SOL     OW21931   0.606   0.831   2.654  0.4516 -0.7942 -0.2910
 5550SOL    HW221932   0.648   0.750   2.627  3.4583  0.6853 -0.4912
 5550SOL    HW321933   0.552   0.856   2.579 -1.7062 -3.2183  0.3169
 5550SOL    MW421934   0.604   0.824   2.641 -0.0593 -0.4358  0.4660
 5551SOL     OW21935   2.591   6.015   1.414 -0.3270  0.9011  0.2423
 5551SOL    HW221936   2.668   6.064   1.441 -0.3798  0.7643  0.6520
 5551SOL    HW321937   2.559   6.061   1.336  1.0653  0.0472 -0.8794
 5551SOL    MW421938   2.597   6.027   1.407  0.4311 -0.3032  0.4809
 5552SOL     OW21939   4.042   2.306   1.009  0.3551  0.2296 -0.7663
 5552SOL    HW221940   4.054   2.225   0.959  1.1086  1.1261 -2.0908
 5552SOL    HW321941   3.968   2.287   1.067  0.7952 -1.5455 -0.7206
 5552SOL    MW421942   4.033   2.293   1.010 -0.4631  0.3836  0.3688
 5553SOL     OW21943   0.688   5.168   2.678 -0.4181 -0.2120 -0.4414
 5553SOL    HW221944   0.642   5.093   2.642  0.8737 -1.2361 -0.0432
 5553SOL    HW321945   0.670   5.239   2.616 -2.3308 -0.5973 -0.3815
 5553SOL    MW421946   0.680   5.168   2.665  0.2193  0.2067  0.7681
 5554SOL     OW21947   4.728   1.484   1.819 -0.1445 -0.0444 -0.2822
 5554SOL    HW221948   4.747   1.466   1.726  1.5103  3.3590 -0.7521
 5554SOL    HW321949   4.760   1.406   1.865  0.6176 -1.1029 -2.4525
 5554SOL    MW421950   4.735   1.471   1.813 -0.0909 -0.7106 -0.1261
 5555SOL     OW21951   3.081   0.296   3.671  0.1564  0.0957  0.1787
 5555SOL    HW221952   3.097   0.213   3.715 -1.2616  0.2961  1.1278
 5555SOL    HW321953   2.997   0.326   3.705 -0.5795  0.7100 -1.9850
 5555SOL    MW421954   3.072   0.289   3.681 -0.0481  0.7143 -0.4069
 5556SOL     OW21955   0.114   3.997   2.363 -0.1895 -0.1102  0.1544
 5556SOL    HW221956   0.058   3.960   2.432  0.0055 -1.2743 -0.2970
 5556SOL    HW321957   0.053   4.046   2.307 -0.6509 -0.7868  0.0594
 5556SOL    MW421958   0.098   3.999   2.365  0.4327  0.1626  0.3262
 5557SOL     OW21959   4.765   4.969   5.057  0.4633 -0.3623 -0.5451
 5557SOL    HW221960   4.859   4.976   5.037  0.8702 -1.3681  0.8702
 5557SOL    HW321961   4.758   5.001   5.147 -0.0764 -2.8845  0.3794
 5557SOL    MW421962   4.777   4.974   5.066 -0.2669  0.4965 -0.5140
 5558SOL     OW21963   4.089   2.837   4.286 -0.1420  0.2080 -0.5209
 5558SOL    HW221964   4.088   2.924   4.324  0.8715 -0.2859  0.7257
 5558SOL    HW321965   4.115   2.779   4.358 -2.6117 -1.3917 -0.8064
 5558SOL    MW421966   4.093   2.841   4.300 -0.1013  0.1929  0.5303
 5559SOL     OW21967   1.610   2.559   1.955  0.5289  0.1650 -0.3069
 5559SOL    HW221968   1.664   2.638   1.959 -0.5788  0.9290  0.0053
 5559SOL    HW321969   1.540   2.581   1.894 -0.3168 -0.2351  0.5051
 5559SOL    MW421970   1.608   2.573   1.948 -0.0030  0.3050  0.3239
 5560SOL     OW21971   1.569   6.061   2.548  0.1945 -1.0918  0.0765
 5560SOL    HW221972   1.553   6.147   2.587  1.3908  0.0890 -1.8848
 5560SOL    HW321973   1.618   6.013   2.615  0.0684 -0.0187  0.9610
 5560SOL    MW421974   1.574   6.066   2.562  0.1392 -0.4452 -0.2542
 5561SOL     OW21975   1.563   1.474   2.256  0.3582  0.1389 -0.8648
 5561SOL    HW221976   1.493   1.529   2.293  0.7025  0.3831 -0.5575
 5561SOL    HW321977   1.642   1.503   2.302  0.4354 -1.1267 -0.1552
 5561SOL    MW421978   1.565   1.485   2.267 -0.4823  0.1228 -0.0744
 5562SOL     OW21979   6.152   5.186   3.704 -0.4244 -0.1636  1.1681
 5562SOL    HW221980   6.101   5.122   3.655 -1.4149  0.3353  1.5218
 5562SOL    HW321981   6.206   5.230   3.637 -0.4790 -0.6695  0.7862
 5562SOL    MW421982   6.153   5.183   3.689 -0.2946 -0.1708  0.7114
 5563SOL     OW21983   4.890   1.677   2.202 -0.1068  0.1762 -0.0951
 5563SOL    HW221984   4.795   1.665   2.213 -0.2068  1.3234  0.3090
 5563SOL    HW321985   4.902   1.680   2.107 -0.4164 -0.3938 -0.1582
 5563SOL    MW421986   4.879   1.675   2.191  0.5453  0.1976 -0.1458
 5564SOL     OW21987   5.838   2.450   4.665  0.5051  0.6070  0.7024
 5564SOL    HW221988   5.757   2.399   4.676  1.4500 -0.6190  2.4376
 5564SOL    HW321989   5.907   2.393   4.698  2.1687  1.5100 -1.0252
 5564SOL    MW421990   5.836   2.435   4.671 -0.0622 -0.1099 -0.1996
 5565SOL     OW21991   3.546   0.090   5.420  0.5475 -0.1297  0.5954
 5565SOL    HW221992   3.521   0.120   5.507 -0.6888 -0.2946  0.3186
 5565SOL    HW321993   3.501   0.149   5.360  0.2544 -0.8707  0.0613
 5565SOL    MW421994   3.537   0.101   5.424  0.3976  0.5257 -0.5295
 5566SOL     OW21995   2.018   4.923   1.348 -0.0131 -0.1604  0.0003
 5566SOL    HW221996   2.018   4.830   1.370  0.0417 -0.1136  0.2030
 5566SOL    HW321997   2.003   4.925   1.254  0.7319 -0.4070 -0.1300
 5566SOL    MW421998   2.016   4.911   1.339  0.4294  0.3976 -0.2313
 5567SOL     OW21999   5.574   1.428   1.934  0.0605 -0.2314 -0.0957
 5567SOL    HW222000   5.611   1.361   1.991 -1.7400 -0.7844  0.4780
 5567SOL    HW322001   5.495   1.458   1.980  0.1322  1.3901 -0.9411
 5567SOL    MW422002   5.569   1.423   1.948 -0.1732 -0.1511  0.9835
 5568SOL     OW22003   4.386   0.601   0.391  0.0114  0.1308 -0.5769
 5568SOL    HW222004   4.409   0.548   0.468  1.0349 -0.4825 -1.2732
 5568SOL    HW322005   4.383   0.538   0.319 -2.6080  0.4024 -0.7985
 5568SOL    MW422006   4.389   0.585   0.392  0.1007  0.1825  0.0210
 5569SOL     OW22007   5.348   5.399   5.969  1.0559  0.1440  0.0334
 5569SOL    HW222008   5.288   5.326   5.983  1.2729  0.3069  2.0079
 5569SOL    HW322009   5.435   5.360   5.976  1.1728  0.5763  1.1231
 5569SOL    MW422010   5.352   5.384   5.972 -0.1629 -0.5175  0.0679
 5570SOL     OW22011   4.911   1.661   1.928  0.2272  0.1553 -0.3412
 5570SOL    HW222012   4.840   1.605   1.897  0.0467 -0.1267  0.5475
 5570SOL    HW322013   4.990   1.620   1.894  0.0089  0.1219 -0.8193
 5570SOL    MW422014   4.912   1.648   1.919  0.4172  0.3815  0.4306
 5571SOL     OW22015   1.520   0.777   1.648  0.2006 -0.6835 -0.0534
 5571SOL    HW222016   1.546   0.805   1.561 -0.3354  0.1727  0.0584
 5571SOL    HW322017   1.428   0.752   1.639  0.3699 -1.3794  0.0898
 5571SOL    MW422018   1.511   0.777   1.636 -0.6221 -0.1401  0.8921
 5572SOL     OW22019   3.834   5.049   5.075  0.0987  0.3794 -0.3793
 5572SOL    HW222020   3.865   5.033   4.986  1.6113  1.1916 -0.0396
 5572SOL    HW322021   3.893   4.998   5.130 -1.1844 -0.5849  0.1553
 5572SOL    MW422022   3.846   5.040   5.071  0.0784  0.5254 -0.1091
 5573SOL     OW22023   2.117   3.110   2.450  0.3015  1.0690  0.0083
 5573SOL    HW222024   2.121   3.139   2.541  0.8190 -0.1448  0.4055
 5573SOL    HW322025   2.176   3.034   2.448 -0.1890  0.7091 -1.1929
 5573SOL    MW422026   2.125   3.104   2.462  0.2191  0.4689  0.5460
 5574SOL     OW22027   4.502   0.705   3.943  0.1499 -0.1434  0.4672
 5574SOL    HW222028   4.529   0.656   3.865  0.1057  0.4821  0.0487
 5574SOL    HW322029   4.490   0.795   3.912 -0.4141  0.0025  1.0763
 5574SOL    MW422030   4.504   0.710   3.928  0.3813  0.3210 -0.2096
 5575SOL     OW22031   6.162   0.199   5.926  0.2312 -0.5679  0.1905
 5575SOL    HW222032   6.093   0.257   5.958 -0.1608 -0.5360 -0.6797
 5575SOL    HW322033   6.167   0.217   5.832  1.3967 -0.6002  0.2244
 5575SOL    MW422034   6.154   0.209   5.918  0.0438  0.3936  0.4275
 5576SOL     OW22035   3.317   3.812   4.337 -0.5468  0.1815  0.3507
 5576SOL    HW222036   3.338   3.889   4.284 -0.2836  0.5034  0.9033
 5576SOL    HW322037   3.241   3.773   4.295  0.7683 -0.6603 -1.3628
 5576SOL    MW422038   3.310   3.817   4.325  1.2944  0.2132  0.4328
 5577SOL     OW22039   0.593   4.148   3.714  0.9113  0.1192 -0.0549
 5577SOL    HW222040   0.581   4.053   3.719 -1.8475  0.4409  1.5412
 5577SOL    HW322041   0.688   4.160   3.714  1.3490 -2.6201  0.6219
 5577SOL    MW422042   0.604   4.137   3.715 -0.6199 -0.3651  0.1456
 5578SOL     OW22043   0.641   1.608   1.944 -0.2358  0.2488  0.1662
 5578SOL    HW222044   0.693   1.593   2.023 -0.4006 -2.1650 -0.1017
 5578SOL    HW322045   0.552   1.626   1.977 -0.2966 -0.7107  0.5494
 5578SOL    MW422046   0.636   1.608   1.959 -0.5796 -0.1893  0.7387
 5579SOL     OW22047   3.462   4.684   3.755 -0.2637 -0.3074  0.2377
 5579SOL    HW222048   3.444   4.695   3.661  0.0210  0.2406  0.2450
 5579SOL    HW322049   3.448   4.771   3.793  1.6151 -0.0163  0.3643
 5579SOL    MW422050   3.458   4.697   3.747  0.0855  0.1286  0.3033
 5580SOL     OW22051   5.383   1.766   5.801 -0.1763  0.6983 -0.6166
 5580SOL    HW222052   5.421   1.778   5.714 -0.6778 -0.7600 -1.0651
 5580SOL    HW322053   5.300   1.720   5.785  0.4298 -0.9576  0.7174
 5580SOL    MW422054   5.377   1.761   5.788  0.2297 -0.0743 -0.1960
 5581SOL     OW22055   0.271   5.416   3.103 -0.5720  0.2968 -0.0381
 5581SOL    HW222056   0.343   5.397   3.163 -1.6980 -0.1589  1.2365
 5581SOL    HW322057   0.258   5.510   3.110 -0.4320  0.3034  0.1355
 5581SOL    MW422058   0.278   5.426   3.112 -0.4752  0.0595 -0.7537
 5582SOL     OW22059   5.603   2.998   0.082 -0.1370  0.2570  0.0303
 5582SOL    HW222060   5.566   3.086   0.075  0.2199  0.3499 -0.8490
 5582SOL    HW322061   5.581   2.969   0.170 -0.4532  1.1420  0.2476
 5582SOL    MW422062   5.595   3.006   0.092  0.3261 -0.0652  0.3162
 5583SOL     OW22063   2.355   0.969   2.106  0.3360  0.2962 -0.3057
 5583SOL    HW222064   2.361   0.885   2.059  1.0538  0.9507 -1.4208
 5583SOL    HW322065   2.358   0.944   2.199  0.1941 -0.9319 -0.6048
 5583SOL    MW422066   2.356   0.954   2.112 -0.1304 -0.4921  0.4650
 5584SOL     OW22067   0.911   0.880   3.456 -0.0340 -0.2223 -0.3839
 5584SOL    HW222068   0.830   0.905   3.410 -0.0840 -0.3486 -0.3653
 5584SOL    HW322069   0.883   0.869   3.547  0.1228  0.3192 -0.2633
 5584SOL    MW422070   0.896   0.882   3.462 -0.0517  0.0591  0.5737
 5585SOL     OW22071   3.920   1.697   4.085  0.7142  0.1652 -0.1677
 5585SOL    HW222072   3.883   1.609   4.099 -0.6634  0.4063 -1.9046
 5585SOL    HW322073   4.000   1.682   4.034 -0.5672 -0.0550 -2.2552
 5585SOL    MW422074   3.926   1.683   4.080 -0.1211  0.4150  0.2863
 5586SOL     OW22075   4.917   4.814   6.407  0.2860 -0.3658 -0.0185
 5586SOL    HW222076   4.835   4.857   6.383  1.3623  0.9281 -1.5929
 5586SOL    HW322077   4.898   4.720   6.399 -1.4359 -0.1585  1.1475
 5586SOL    MW422078   4.904   4.807   6.403 -0.1280  0.0737 -0.4640
 5587SOL     OW22079   2.792   2.539   3.643 -0.1594 -0.2781  0.4336
 5587SOL    HW222080   2.749   2.620   3.671  0.9427  0.2284  0.7177
 5587SOL    HW322081   2.877   2.541   3.686  0.6791 -0.5988 -1.1451
 5587SOL    MW422082   2.797   2.550   3.652 -0.1283  0.2522 -0.5556
 5588SOL     OW22083   2.806   3.506   3.099 -0.1712  0.0564 -0.0850
 5588SOL    HW222084   2.710   3.502   3.100 -0.1616 -0.2061  0.0480
 5588SOL    HW322085   2.827   3.563   3.026 -0.4355  0.2847  0.0122
 5588SOL    MW422086   2.796   3.513   3.090 -0.0301  0.3036  0.3983
 5589SOL     OW22087   6.286   1.090   5.281 -0.0601 -0.2825 -0.1125
 5589SOL    HW222088   6.306   0.999   5.260  0.6821 -0.2230  0.3148
 5589SOL    HW322089   6.323   1.140   5.208  1.9902 -0.1236  0.9556
 5589SOL    MW422090   6.294   1.084   5.269  0.0394  0.1119 -0.0010
 5590SOL     OW22091   2.084   2.164   6.000 -0.0904 -0.2887 -0.3977
 5590SOL    HW222092   2.141   2.193   5.929 -0.0424 -0.0659 -0.2671
 5590SOL    HW322093   2.113   2.075   6.019 -0.8210 -0.7737 -1.4106
 5590SOL    MW422094   2.095   2.156   5.993 -0.3316 -0.0063  0.1618
 5591SOL     OW22095   2.461   3.664   1.695  0.4361  0.0471 -0.3228
 5591SOL    HW222096   2.446   3.593   1.633  0.3301 -0.8000  0.6499
 5591SOL    HW322097   2.456   3.743   1.642  0.8267 -0.6755 -1.4782
 5591SOL    MW422098   2.458   3.665   1.680  0.1769 -0.6563 -0.3660
 5592SOL     OW22099   0.340   0.211   5.301 -0.2245 -0.1636 -0.5670
 5592SOL    HW222100   0.391   0.271   5.246 -1.6890  0.1029 -1.7021
 5592SOL    HW322101   0.307   0.266   5.372  2.8389 -0.7839  1.5410
 5592SOL    MW422102   0.343   0.226   5.303  0.2409 -0.3613 -0.2893
 5593SOL     OW22103   0.205   1.486   4.680  0.8806 -0.0113 -0.0819
 5593SOL    HW222104   0.156   1.505   4.601  1.9217  0.0637 -0.7246
 5593SOL    HW322105   0.284   1.441   4.650  1.5058  0.4049  0.8591
 5593SOL    MW422106   0.209   1.483   4.666  0.5017 -0.2880 -0.3335
 5594SOL     OW22107   0.050   3.326   0.886  0.0534  0.0891  0.4060
 5594SOL    HW222108   0.046   3.243   0.839  0.7249  0.1984  0.1440
 5594SOL    HW322109   0.027   3.304   0.976  0.1745 -0.3675  0.3259
 5594SOL    MW422110   0.046   3.312   0.892  0.2780 -0.0096  0.8136
 5595SOL     OW22111   1.804   4.270   0.657  0.3002 -0.2817  0.5739
 5595SOL    HW222112   1.712   4.264   0.632  0.1007 -0.5338  1.3376
 5595SOL    HW322113   1.852   4.247   0.578 -0.2733  0.5629 -0.0461
 5595SOL    MW422114   1.798   4.266   0.643 -0.8595  0.4018  0.3352
 5596SOL     OW22115   5.016   0.574   1.718  0.6483  0.8948 -0.3529
 5596SOL    HW222116   5.041   0.666   1.720  2.4342  0.4325  1.1734
 5596SOL    HW322117   5.067   0.533   1.789 -1.3771 -0.9520  0.1528
 5596SOL    MW422118   5.026   0.581   1.728  0.4533 -0.0243 -0.4170
 5597SOL     OW22119   1.115   0.313   4.594 -0.1575  0.3573 -0.5890
 5597SOL    HW222120   1.175   0.240   4.611 -1.3444 -0.1076  2.0952
 5597SOL    HW322121   1.161   0.367   4.529  2.7845 -0.4031  0.6795
 5597SOL    MW422122   1.129   0.310   4.587 -0.6431 -0.3632 -0.5025
 5598SOL     OW22123   1.278   5.776   5.253  0.6032  0.4310  0.1305
 5598SOL    HW222124   1.298   5.866   5.227 -1.8844  0.7732 -0.9085
 5598SOL    HW322125   1.234   5.785   5.338  1.9972  0.0013  0.9147
 5598SOL    MW422126   1.275   5.789   5.261 -1.2359 -0.6423 -0.2526
 5599SOL     OW22127   2.017   5.693   2.396  0.1560 -0.2445 -0.0457
 5599SOL    HW222128   2.035   5.685   2.490  0.0976  0.7360  0.0561
 5599SOL    HW322129   1.970   5.776   2.388  0.9888  0.1413 -1.0598
 5599SOL    MW422130   2.013   5.703   2.408  0.3660 -0.7272 -0.0837
 5600SOL     OW22131   3.797   4.120   0.682 -0.5312  1.0485  0.1927
 5600SOL    HW222132   3.754   4.200   0.654  1.7114  2.4372  0.4370
 5600SOL    HW322133   3.891   4.137   0.668  0.0780 -1.2173  1.0384
 5600SOL    MW422134   3.804   4.133   0.676 -0.0918  0.0150  0.4780
 5601SOL     OW22135   5.346   4.895   3.447 -0.0327  0.1699 -0.3783
 5601SOL    HW222136   5.287   4.941   3.506  0.1847 -0.9822  0.7740
 5601SOL    HW322137   5.291   4.827   3.407 -0.0776  0.6814 -1.2011
 5601SOL    MW422138   5.331   4.892   3.449  0.2472  0.0923  0.3711
 5602SOL     OW22139   5.415   5.152   6.287  0.6665 -0.1083 -0.2378
 5602SOL    HW222140   5.416   5.219   6.355  0.1793 -0.7753  0.4352
 5602SOL    HW322141   5.507   5.144   6.260  0.7301  0.8544 -0.3745
 5602SOL    MW422142   5.427   5.160   6.292 -0.1815 -0.1082  0.1274
 5603SOL     OW22143   5.365   2.796   5.491  0.0458  0.3050 -0.3862
 5603SOL    HW222144   5.320   2.880   5.482 -0.8495 -0.1271  0.0207
 5603SOL    HW322145   5.358   2.755   5.404 -1.2510 -0.2047 -0.0552
 5603SOL    MW422146   5.358   2.802   5.478  0.3477 -0.4424  0.6875
 5604SOL     OW22147   2.552   5.541   6.335 -0.3206  0.5182 -0.2992
 5604SOL    HW222148   2.560   5.635   6.351  0.4409  0.3516  0.3893
 5604SOL    HW322149   2.463   5.519   6.364  0.4924  0.5059  2.5083
 5604SOL    MW422150   2.541   5.551   6.341 -0.2432 -0.6292 -0.1564
 5605SOL     OW22151   4.426   3.030   0.413  0.2973  0.6196 -0.0372
 5605SOL    HW222152   4.356   3.062   0.470 -0.4116  0.4917 -0.8323
 5605SOL    HW322153   4.480   2.975   0.470 -1.0188 -0.3917  0.2614
 5605SOL    MW422154   4.424   3.027   0.428  0.2035 -0.3746 -0.5099
 5606SOL     OW22155   2.566   5.393   5.008  0.0250  0.1150 -0.3346
 5606SOL    HW222156   2.582   5.415   4.917 -0.3064  2.2928  0.0792
 5606SOL    HW322157   2.562   5.477   5.053 -0.5332 -0.8691  1.5798
 5606SOL    MW422158   2.568   5.407   5.002 -0.9423 -0.2859 -0.3043
 5607SOL     OW22159   3.669   1.164   0.482  0.0320  0.0813  0.3461
 5607SOL    HW222160   3.581   1.142   0.513  0.3647 -0.8283  0.6717
 5607SOL    HW322161   3.695   1.238   0.538  0.1266 -0.7287  1.4007
 5607SOL    MW422162   3.661   1.171   0.494  0.7696  0.5965  0.0406
 5608SOL     OW22163   4.075   0.705   0.437  0.3778  0.2242  0.7527
 5608SOL    HW222164   4.167   0.718   0.416  0.3113 -0.6461 -0.1223
 5608SOL    HW322165   4.028   0.747   0.365  0.0026  2.4271  2.1537
 5608SOL    MW422166   4.081   0.712   0.425 -0.4579  0.1263  0.0515
 5609SOL     OW22167   0.788   0.894   4.298 -0.3899  0.3888 -0.2824
 5609SOL    HW222168   0.741   0.978   4.294  0.2680  0.9846  2.4226
 5609SOL    HW322169   0.735   0.840   4.357  0.2653 -0.3673 -0.3757
 5609SOL    MW422170   0.775   0.898   4.305  0.0263 -0.3993 -0.2632
 5610SOL     OW22171   3.261   1.862   5.669 -0.0821 -0.6377 -0.1396
 5610SOL    HW222172   3.195   1.864   5.739 -0.9139 -0.4996 -0.9090
 5610SOL    HW322173   3.210   1.855   5.589  0.8237  0.2947 -0.8114
 5610SOL    MW422174   3.245   1.861   5.668  0.0364  0.2801 -0.1778
 5611SOL     OW22175   3.211   2.034   3.286 -0.0986  0.0026 -0.1245
 5611SOL    HW222176   3.259   2.030   3.369 -1.7691  0.8140  0.9164
 5611SOL    HW322177   3.194   2.127   3.272 -0.0650 -0.1453 -1.2783
 5611SOL    MW422178   3.215   2.046   3.295 -0.1338  0.0275  0.0261
 5612SOL     OW22179   5.578   5.167   4.790  0.4342  0.0399  0.2936
 5612SOL    HW222180   5.659   5.208   4.821  0.8142 -0.6207  0.1794
 5612SOL    HW322181   5.510   5.232   4.809  1.5487  3.1593 -4.4398
 5612SOL    MW422182   5.580   5.181   4.797  0.0078 -0.4866  0.0316
 5613SOL     OW22183   0.981   6.265   4.266  0.7398  0.0674 -0.1726
 5613SOL    HW222184   0.996   6.349   4.223  1.5618  0.4646  0.8443
 5613SOL    HW322185   0.970   6.203   4.194  0.6195  0.9501 -0.9409
 5613SOL    MW422186   0.982   6.268   4.251 -0.0356  0.4561  0.1333
 5614SOL     OW22187   0.443   4.918   3.691  0.0713 -0.7568  0.4232
 5614SOL    HW222188   0.462   4.834   3.649  2.6133  0.8448 -2.0628
 5614SOL    HW322189   0.421   4.976   3.618  1.0861  1.3478  1.6878
 5614SOL    MW422190   0.443   4.915   3.676  0.0756  0.2771  0.0564
 5615SOL     OW22191   0.129   1.235   4.800 -0.2179  0.2029 -0.7780
 5615SOL    HW222192   0.126   1.236   4.896 -2.7292  0.4009 -0.7999
 5615SOL    HW322193   0.207   1.286   4.778  0.8650 -0.5342  1.1393
 5615SOL    MW422194   0.139   1.242   4.810  0.6412  0.2919  0.0572
 5616SOL     OW22195   2.173   0.302   2.901 -0.1282 -0.2215 -0.2123
 5616SOL    HW222196   2.182   0.246   2.978 -1.1160 -0.4969 -0.2912
 5616SOL    HW322197   2.161   0.390   2.937 -0.0866 -0.2748 -0.0654
 5616SOL    MW422198   2.173   0.307   2.916  0.0806 -0.4326 -0.2922
 5617SOL     OW22199   1.472   0.022   6.139  0.2115  0.4039  0.2642
 5617SOL    HW222200   1.544   0.085   6.135 -0.8235  1.8631  2.5455
 5617SOL    HW322201   1.483  -0.021   6.224 -0.1273 -1.2642 -0.5093
 5617SOL    MW422202   1.483   0.025   6.150  0.5477 -0.2760 -0.0829
 5618SOL     OW22203   1.752   4.098   5.063 -0.0251  0.4017 -0.5829
 5618SOL    HW222204   1.810   4.144   5.124 -2.0056  1.8065  0.3364
 5618SOL    HW322205   1.685   4.059   5.119  1.1961 -3.2021 -1.3908
 5618SOL    MW422206   1.751   4.099   5.079  0.3815  0.2998 -0.0981
 5619SOL     OW22207   3.618   5.218   5.172 -0.0101  0.0524  0.0871
 5619SOL    HW222208   3.697   5.170   5.150  0.2122  0.5126 -0.1230
 5619SOL    HW322209   3.648   5.294   5.220 -0.2030  0.9464 -1.1601
 5619SOL    MW422210   3.632   5.221   5.175 -0.0202  0.0705 -0.2153
 5620SOL     OW22211   6.186   5.292   2.401 -0.2271 -0.2467 -0.2721
 5620SOL    HW222212   6.118   5.301   2.335 -0.3668 -2.2885 -0.4819
 5620SOL    HW322213   6.241   5.220   2.369  0.8456  0.0067  0.8946
 5620SOL    MW422214   6.184   5.284   2.388 -0.2524 -0.3888 -0.4933
 5621SOL     OW22215   4.675   5.525   1.860  0.3898  0.0003 -0.4194
 5621SOL    HW222216   4.761   5.561   1.839  0.7818 -0.8660 -0.3155
 5621SOL    HW322217   4.616   5.601   1.854  1.0449  0.4786 -1.1329
 5621SOL    MW422218   4.679   5.540   1.856  0.2755  0.1797 -0.0252
 5622SOL     OW22219   4.905   2.488   3.159  0.1537  0.3038 -0.3953
 5622SOL    HW222220   4.820   2.506   3.201  0.7460  1.7233  0.2650
 5622SOL    HW322221   4.892   2.405   3.113 -1.1673 -0.2307  0.8625
 5622SOL    MW422222   4.892   2.480   3.158 -0.4392 -0.2173 -0.0298
 5623SOL     OW22223   5.525   3.799   5.019  0.6398  0.6199  0.6781
 5623SOL    HW222224   5.514   3.717   4.970  0.7297  0.1974  1.3491
 5623SOL    HW322225   5.537   3.771   5.110  0.3959  1.3905  0.9583
 5623SOL    MW422226   5.525   3.785   5.025 -0.4626  0.0876  0.6243
 5624SOL     OW22227   5.232   3.684   2.685 -0.1582  0.0677 -0.4234
 5624SOL    HW222228   5.309   3.697   2.741 -0.0362  3.0564 -1.0876
 5624SOL    HW322229   5.184   3.612   2.726 -0.3965  2.3659  3.9724
 5624SOL    MW422230   5.236   3.676   2.698 -0.3886 -0.8800  0.0835
 5625SOL     OW22231   5.751   2.725   2.263  0.2546  0.1517  0.6762
 5625SOL    HW222232   5.801   2.747   2.184  0.1054 -1.1900  0.1830
 5625SOL    HW322233   5.678   2.671   2.231  1.1932 -1.9622  1.8803
 5625SOL    MW422234   5.748   2.721   2.248  0.5452  0.5741  1.3706
 5626SOL     OW22235   5.673   4.870   0.311 -0.1299 -0.6014  0.0843
 5626SOL    HW222236   5.595   4.854   0.365 -0.6016  1.5339  0.1169
 5626SOL    HW322237   5.644   4.931   0.243  1.1559 -0.9765 -0.8454
 5626SOL    MW422238   5.659   4.876   0.309  0.0646 -0.2072  0.0850
 5627SOL     OW22239   5.996   0.621   4.056  0.0687 -0.0105 -0.5189
 5627SOL    HW222240   5.949   0.555   4.004  0.9373 -2.7277  1.8864
 5627SOL    HW322241   5.931   0.688   4.074 -0.9388 -0.2323 -2.8850
 5627SOL    MW422242   5.981   0.621   4.051 -0.0939 -0.2111 -0.5218
 5628SOL     OW22243   3.467   3.934   3.543 -0.2336 -0.2040  0.6765
 5628SOL    HW222244   3.482   3.858   3.488 -0.8560 -0.1239  0.3948
 5628SOL    HW322245   3.504   4.007   3.494 -0.6988 -0.1481  0.4009
 5628SOL    MW422246   3.474   3.934   3.529 -0.3325  0.8403  0.4056
 5629SOL     OW22247   2.559   4.144   5.619 -0.5583  0.0087 -0.2458
 5629SOL    HW222248   2.648   4.164   5.589 -0.5162  0.2186  0.0119
 5629SOL    HW322249   2.502   4.187   5.556 -0.4810 -0.4051 -0.6031
 5629SOL    MW422250   2.563   4.152   5.607  0.1256  0.1092  0.0518
 5630SOL     OW22251   3.039   3.181   6.198  0.3535 -0.2659  0.2751
 5630SOL    HW222252   2.954   3.208   6.164  0.3615  0.4741  0.8229
 5630SOL    HW322253   3.019   3.129   6.275  0.3766 -0.7988 -0.0751
 5630SOL    MW422254   3.025   3.178   6.203  0.2618 -0.1090  0.0181
 5631SOL     OW22255   1.817   3.134   3.337 -0.3751  0.1397 -0.4145
 5631SOL    HW222256   1.754   3.176   3.278 -0.1243  0.4912 -0.4349
 5631SOL    HW322257   1.855   3.206   3.387  0.6951  0.0420 -1.0603
 5631SOL    MW422258   1.813   3.149   3.336  0.0198  0.2555 -0.3364
 5632SOL     OW22259   1.242   3.026   1.374  0.0775 -0.0452 -0.1707
 5632SOL    HW222260   1.251   3.005   1.467  1.3430 -1.1164 -0.5053
 5632SOL    HW322261   1.175   2.966   1.342 -0.9476  0.8771  0.1972
 5632SOL    MW422262   1.234   3.015   1.382 -0.0178 -0.2429  0.5528
 5633SOL     OW22263   2.295   3.363   5.060 -0.2185  0.2755  0.2154
 5633SOL    HW222264   2.372   3.401   5.018 -1.5201  1.7218 -0.9596
 5633SOL    HW322265   2.331   3.297   5.120  1.8145 -0.4389 -1.6522
 5633SOL    MW422266   2.310   3.359   5.063  0.3557  0.5022  0.0780
 5634SOL     OW22267   1.445   3.626   2.249 -0.5160 -0.5620  0.0195
 5634SOL    HW222268   1.356   3.595   2.234 -1.8124  1.3437  2.9727
 5634SOL    HW322269   1.443   3.718   2.223  1.4086 -1.0437 -2.2526
 5634SOL    MW422270   1.433   3.634   2.243 -0.5246 -0.2679  0.1363
 5635SOL     OW22271   1.748   3.321   4.995  0.5388 -0.2076 -0.3122
 5635SOL    HW222272   1.713   3.401   4.957  0.2256 -0.6588 -0.9917
 5635SOL    HW322273   1.778   3.347   5.082 -2.0203  0.0936  0.5466
 5635SOL    MW422274   1.747   3.335   5.001 -0.0077  0.3663 -0.7915
 5636SOL     OW22275   6.254   2.682   5.455 -0.2177  0.2305 -0.0703
 5636SOL    HW222276   6.289   2.759   5.499  0.0041  0.1913 -0.1748
 5636SOL    HW322277   6.194   2.716   5.389  0.3457  0.3441 -0.5308
 5636SOL    MW422278   6.250   2.696   5.452  0.7073  0.3885  0.1198
 5637SOL     OW22279   2.792   0.223   3.239 -0.3140 -0.4238 -0.1526
 5637SOL    HW222280   2.879   0.227   3.278 -0.1992 -0.4185 -0.4092
 5637SOL    HW322281   2.789   0.138   3.196 -1.2546 -1.4448  1.7609
 5637SOL    MW422282   2.803   0.212   3.239  0.1399  0.1828 -0.1693
 5638SOL     OW22283   4.212   6.374   0.586 -0.4339 -0.7112 -0.3691
 5638SOL    HW222284   4.263   6.428   0.526  0.4013 -1.8452 -0.7203
 5638SOL    HW322285   4.227   6.284   0.556 -0.7505 -1.2368  0.9746
 5638SOL    MW422286   4.221   6.369   0.574  0.7220 -0.5471  0.0844
 5639SOL     OW22287   2.913   2.315   0.719  0.1734 -0.0194  0.2468
 5639SOL    HW222288   2.823   2.293   0.692 -0.1787  1.2263  0.3595
 5639SOL    HW322289   2.918   2.410   0.710  1.0786  0.0692  1.4971
 5639SOL    MW422290   2.902   2.325   0.714  0.0909  0.0984 -0.0609
 5640SOL     OW22291   5.518   3.671   3.088 -0.5135 -0.1680  0.1963
 5640SOL    HW222292   5.499   3.598   3.147  0.7585  0.0664  0.9240
 5640SOL    HW322293   5.606   3.655   3.057 -0.9333  0.0575 -1.1661
 5640SOL    MW422294   5.527   3.659   3.092 -0.1924 -0.0616  0.0375
 5641SOL     OW22295   2.388   5.707   3.875 -0.1639  0.1537  0.0319
 5641SOL    HW222296   2.387   5.621   3.917  0.0102 -1.3252 -2.7358
 5641SOL    HW322297   2.470   5.708   3.825 -1.3338  0.8208 -1.9904
 5641SOL    MW422298   2.399   5.696   3.874 -0.3792 -0.8834 -0.0329
 5642SOL     OW22299   2.615   4.832   0.967 -0.0865 -0.2691  0.9231
 5642SOL    HW222300   2.676   4.825   0.893 -2.6089  2.0540 -1.6056
 5642SOL    HW322301   2.645   4.909   1.015  0.0884 -0.2888  0.8477
 5642SOL    MW422302   2.627   4.841   0.964  0.0203  0.2226 -0.1112
 5643SOL     OW22303   3.962   0.903   5.480 -0.4265  0.5850  0.8021
 5643SOL    HW222304   3.931   0.975   5.425 -1.6461 -0.2555  0.3353
 5643SOL    HW322305   4.012   0.847   5.420  1.0043  1.2858  1.2839
 5643SOL    MW422306   3.965   0.905   5.465  0.3759  0.2330 -0.2964
 5644SOL     OW22307   0.860   2.831   4.794 -0.5123 -0.8933 -0.1968
 5644SOL    HW222308   0.843   2.815   4.701  1.6026  1.1022 -1.0254
 5644SOL    HW322309   0.791   2.892   4.821 -0.2773 -0.3078 -0.8849
 5644SOL    MW422310   0.849   2.837   4.785 -0.7057  0.1222  0.4025
 5645SOL     OW22311   1.901   0.335   5.702  0.1289 -0.3798 -0.2422
 5645SOL    HW222312   1.870   0.383   5.625  0.2529  0.2117  0.0741
 5645SOL    HW322313   1.989   0.306   5.677  1.5699  2.6202  0.8156
 5645SOL    MW422314   1.909   0.338   5.688  0.5943 -0.0576  0.3910
 5646SOL     OW22315   2.950   0.284   0.914 -0.1765 -0.3103  0.0559
 5646SOL    HW222316   3.027   0.341   0.907  0.8615 -1.6423  0.0746
 5646SOL    HW322317   2.970   0.228   0.989 -1.2306 -0.5988  0.1230
 5646SOL    MW422318   2.963   0.284   0.923  0.3051  0.4856 -0.0252
 5647SOL     OW22319   4.218   0.945   2.981  0.1232  0.3971  0.6060
 5647SOL    HW222320   4.164   1.023   2.994 -1.0295 -0.3874  0.7347
 5647SOL    HW322321   4.282   0.970   2.915 -1.5493  0.8402 -0.9381
 5647SOL    MW422322   4.219   0.959   2.974 -0.7008 -0.2690 -0.2362
 5648SOL     OW22323   5.752   3.540   1.109  0.3055  0.1021 -0.1186
 5648SOL    HW222324   5.778   3.451   1.086  1.2309  0.2557  0.2784
 5648SOL    HW322325   5.765   3.591   1.030 -1.0078 -0.2481 -0.5949
 5648SOL    MW422326   5.757   3.535   1.096  0.0619  0.2203 -0.0607
 5649SOL     OW22327   4.089   6.221   1.738 -0.4053  0.0362 -0.1583
 5649SOL    HW222328   4.006   6.229   1.784  0.0272  2.2111  0.3492
 5649SOL    HW322329   4.084   6.286   1.668  0.1184 -1.1776 -1.3639
 5649SOL    MW422330   4.077   6.231   1.735 -0.0848  0.2955 -0.3432
 5650SOL     OW22331   5.496   3.247   0.088 -0.1886  0.4388 -0.4742
 5650SOL    HW222332   5.425   3.310   0.076  0.2239  1.1578  0.6746
 5650SOL    HW322333   5.569   3.283   0.038 -0.2939  0.2800 -0.7435
 5650SOL    MW422334   5.497   3.260   0.080  0.4616  0.2058  0.0640
 5651SOL     OW22335   3.240   0.765   1.847 -0.1104 -0.1167 -0.5352
 5651SOL    HW222336   3.239   0.781   1.942  0.1366 -0.0668 -0.5391
 5651SOL    HW322337   3.306   0.827   1.814 -0.0732 -0.2551 -0.7176
 5651SOL    MW422338   3.249   0.775   1.855  0.0797  0.5339 -0.0357
 5652SOL     OW22339   5.597   3.184   5.199  0.6367  0.3475 -0.5965
 5652SOL    HW222340   5.601   3.184   5.103  2.8363  0.0142 -0.5355
 5652SOL    HW322341   5.626   3.097   5.225  2.5431  1.2306  0.4086
 5652SOL    MW422342   5.601   3.173   5.190 -0.4024  0.1517 -0.3042
 5653SOL     OW22343   1.072   5.393   0.211  0.3302 -0.0795 -0.2105
 5653SOL    HW222344   1.161   5.429   0.213  0.8884 -1.3983 -0.4952
 5653SOL    HW322345   1.081   5.306   0.250 -0.5678 -0.7999 -1.5434
 5653SOL    MW422346   1.085   5.386   0.217  0.9772  0.0413 -0.2283
 5654SOL     OW22347   1.950   3.265   4.781  0.8584 -0.2324  0.1719
 5654SOL    HW222348   1.898   3.291   4.857 -2.0852 -0.5884 -1.5497
 5654SOL    HW322349   1.975   3.348   4.740  1.6351 -0.0513  0.9933
 5654SOL    MW422350   1.946   3.279   4.786  0.1209 -0.0781 -0.2531
 5655SOL     OW22351   4.072   1.285   4.732 -0.3346  0.1141  0.5855
 5655SOL    HW222352   4.086   1.261   4.823  1.3941 -0.2274  0.2674
 5655SOL    HW322353   3.997   1.345   4.734  0.5774  1.2981  2.4235
 5655SOL    MW422354   4.064   1.290   4.744 -0.0065  0.3638 -0.4233
 5656SOL     OW22355   5.575   5.086   2.099  0.1388  0.0034  0.2052
 5656SOL    HW222356   5.652   5.051   2.054 -0.0735 -0.8903  0.5084
 5656SOL    HW322357   5.501   5.042   2.058 -0.0975 -0.3557  0.9999
 5656SOL    MW422358   5.576   5.076   2.088  0.2846  0.7622 -0.5459
 5657SOL     OW22359   3.914   5.635   4.463  0.7487 -0.1158  0.3817
 5657SOL    HW222360   3.831   5.635   4.511  0.2572  1.8470 -0.3515
 5657SOL    HW322361   3.979   5.663   4.527  0.2865  1.3812  0.2445
 5657SOL    MW422362   3.911   5.639   4.478 -0.0332  0.2891 -0.1765
 5658SOL     OW22363   3.047   2.227   2.077  0.3499  0.0568 -0.1587
 5658SOL    HW222364   3.070   2.193   2.164  1.3922 -1.3508 -0.9397
 5658SOL    HW322365   2.999   2.155   2.035  1.3216  0.0522 -1.3277
 5658SOL    MW422366   3.044   2.213   2.083  0.2650  0.8340  0.4478
 5659SOL     OW22367   5.965   6.328   3.697 -0.2597 -0.2018  0.1691
 5659SOL    HW222368   5.942   6.352   3.786 -0.7159  2.3325 -0.5380
 5659SOL    HW322369   5.882   6.333   3.649  0.5721  2.9203 -1.1910
 5659SOL    MW422370   5.951   6.332   3.702 -0.4273  0.6007  0.0328
 5660SOL     OW22371   5.072   0.440   3.075 -0.2732 -0.1718 -0.1482
 5660SOL    HW222372   5.165   0.465   3.077 -0.2281 -0.1781 -1.2604
 5660SOL    HW322373   5.045   0.440   3.166  0.8265 -0.1657  0.1938
 5660SOL    MW422374   5.081   0.443   3.087 -0.4478 -0.5415 -0.4408
 5661SOL     OW22375   3.552   6.290   0.989  0.6818  0.2080  0.9696
 5661SOL    HW222376   3.621   6.346   1.025 -0.0879  0.7080  1.7214
 5661SOL    HW322377   3.532   6.229   1.060  1.5994 -1.1523  0.1168
 5661SOL    MW422378   3.559   6.289   1.003 -0.0773 -0.0841  0.0718
 5662SOL     OW22379   5.923   2.023   6.073  0.5237 -0.0715  0.3191
 5662SOL    HW222380   5.945   1.997   5.984 -0.0230  0.7349 -0.0618
 5662SOL    HW322381   5.837   1.985   6.089  0.6456 -0.2619  0.5194
 5662SOL    MW422382   5.915   2.015   6.064 -0.3205 -0.1139  0.0779
 5663SOL     OW22383   5.607   4.522   1.272  0.2591 -0.1617  0.0941
 5663SOL    HW222384   5.519   4.483   1.268  0.3136 -0.3242  0.4317
 5663SOL    HW322385   5.666   4.451   1.246  0.3718 -0.3659  0.8783
 5663SOL    MW422386   5.603   4.507   1.268  0.2606 -0.0000 -0.4856
 5664SOL     OW22387   4.375   3.156   2.416 -0.2934 -0.0546  0.5227
 5664SOL    HW222388   4.392   3.136   2.508 -1.1335  1.4972  1.0629
 5664SOL    HW322389   4.402   3.247   2.406  0.5032 -0.4302 -0.9905
 5664SOL    MW422390   4.381   3.165   2.427  0.8480 -0.2487  0.1319
 5665SOL     OW22391   5.853   4.632   3.906 -0.1069  0.2347 -0.2212
 5665SOL    HW222392   5.799   4.591   3.838 -1.1073  1.4794 -0.2072
 5665SOL    HW322393   5.862   4.723   3.877 -2.3369  1.3890  2.2899
 5665SOL    MW422394   5.847   4.638   3.893 -0.7420  0.0866 -0.0974
 5666SOL     OW22395   6.410   3.762   4.681  0.6164 -0.1378  0.4178
 5666SOL    HW222396   6.474   3.824   4.717 -0.8232  2.1146 -0.6833
 5666SOL    HW322397   6.448   3.735   4.598  0.5701  0.5421  0.1621
 5666SOL    MW422398   6.423   3.767   4.675 -0.3791  0.4652 -0.5881
 5667SOL     OW22399   5.054   0.562   2.669  0.0896  0.0366 -0.4605
 5667SOL    HW222400   5.132   0.509   2.655 -0.4575 -0.1012 -3.6061
 5667SOL    HW322401   4.986   0.499   2.695  0.6316 -0.0042  0.9928
 5667SOL    MW422402   5.055   0.547   2.671 -0.7844  0.1173 -0.7946
 5668SOL     OW22403   1.598   3.390   2.110  0.3131 -0.3734 -0.1177
 5668SOL    HW222404   1.551   3.448   2.170  0.3519 -0.4395 -0.0238
 5668SOL    HW322405   1.554   3.306   2.118  0.8202 -0.5958  0.4219
 5668SOL    MW422406   1.586   3.387   2.119  0.0205 -0.1786 -0.2445
 5669SOL     OW22407   6.427   6.209   5.025  0.0997  0.0399  0.5802
 5669SOL    HW222408   6.521   6.196   5.039  0.3295  0.6896 -0.2545
 5669SOL    HW322409   6.404   6.280   5.085  0.1993  0.0655  0.5901
 5669SOL    MW422410   6.437   6.216   5.035  0.0971 -0.3202  0.4929
 5670SOL     OW22411   3.461   2.377   4.561  0.2018 -0.7774 -0.3424
 5670SOL    HW222412   3.520   2.326   4.505  0.2937 -0.6049 -0.4050
 5670SOL    HW322413   3.512   2.391   4.642  0.5000 -0.0794 -0.6394
 5670SOL    MW422414   3.476   2.372   4.565 -0.7716  0.5695  0.6492
 5671SOL     OW22415   4.805   5.885   5.885  0.6048 -0.7414  0.5400
 5671SOL    HW222416   4.883   5.923   5.846  0.1795  0.4979  0.8556
 5671SOL    HW322417   4.748   5.866   5.811  0.5963 -0.2266  0.4095
 5671SOL    MW422418   4.808   5.887   5.870 -0.9861  0.2650 -0.2488
 5672SOL     OW22419   6.240   0.167   4.766 -0.0214  0.6427 -0.3554
 5672SOL    HW222420   6.154   0.210   4.759  0.8769  2.3404 -1.8470
 5672SOL    HW322421   6.259   0.140   4.677  1.6732  1.7424 -0.3640
 5672SOL    MW422422   6.231   0.169   4.753  0.3352  0.3325  0.0781
 5673SOL     OW22423   1.500   0.698   5.521 -0.5222  0.3161 -0.1828
 5673SOL    HW222424   1.558   0.750   5.575 -1.0790 -0.2368  0.9875
 5673SOL    HW322425   1.507   0.609   5.556 -0.6532 -0.1348 -1.2354
 5673SOL    MW422426   1.508   0.693   5.533  0.6449  0.7028 -0.2715
 5674SOL     OW22427   4.601   5.221   5.197 -0.1373 -0.0206 -0.4510
 5674SOL    HW222428   4.545   5.296   5.216  0.3841  0.7084 -1.7141
 5674SOL    HW322429   4.580   5.197   5.107  1.3171  0.0451 -0.8313
 5674SOL    MW422430   4.591   5.227   5.187 -0.0837 -0.6768 -0.4148
 5675SOL     OW22431   5.778   2.139   0.409  0.0725  0.0266  0.6787
 5675SOL    HW222432   5.765   2.233   0.412  0.0759  0.0846 -0.5347
 5675SOL    HW322433   5.691   2.101   0.423 -0.2799  0.2697 -0.6797
 5675SOL    MW422434   5.765   2.146   0.411  0.4393  0.5917  0.2834
 5676SOL     OW22435   1.177   2.981   3.207 -0.4548 -0.1860 -0.0287
 5676SOL    HW222436   1.156   3.006   3.117  0.7882  0.6864 -0.0975
 5676SOL    HW322437   1.218   2.896   3.200 -1.4702 -0.6852 -0.1469
 5676SOL    MW422438   1.179   2.973   3.195  0.2823 -0.0174 -0.3939
 5677SOL     OW22439   4.577   0.061   1.042 -0.1744  0.6981 -0.0933
 5677SOL    HW222440   4.642   0.118   1.084 -2.7645  3.0839  1.0157
 5677SOL    HW322441   4.585  -0.022   1.087  2.2101  0.8240 -0.1572
 5677SOL    MW422442   4.587   0.058   1.054  0.5594  0.5843 -0.4071
 5678SOL     OW22443   2.789   5.553   4.748  0.3431  0.1214  0.1157
 5678SOL    HW222444   2.750   5.630   4.789 -0.6317  1.3576 -2.8370
 5678SOL    HW322445   2.714   5.501   4.719  0.8378  0.4917 -2.0512
 5678SOL    MW422446   2.774   5.556   4.750 -0.3921  0.2457  0.1458
 5679SOL     OW22447   4.444   4.278   2.528 -1.1725  0.0236  0.4041
 5679SOL    HW222448   4.348   4.282   2.525 -1.3189 -1.8189  1.5818
 5679SOL    HW322449   4.464   4.197   2.575  0.9741  0.6554  0.6949
 5679SOL    MW422450   4.434   4.268   2.534  0.1499  0.0145 -0.5922
 5680SOL     OW22451   2.671   3.321   5.619 -0.2520  0.2354  0.0083
 5680SOL    HW222452   2.718   3.335   5.537 -0.7969 -1.4128 -0.6465
 5680SOL    HW322453   2.581   3.299   5.592 -0.4501 -0.3026  1.0262
 5680SOL    MW422454   2.665   3.320   5.604  0.1743  0.1324  0.6652
 5681SOL     OW22455   2.567   4.567   1.019  0.4787  0.1771  0.1099
 5681SOL    HW222456   2.577   4.658   0.993 -0.7321  0.4331  0.5048
 5681SOL    HW322457   2.539   4.522   0.940 -1.8521  0.7093  0.5632
 5681SOL    MW422458   2.565   4.573   1.005  0.2575 -0.0668  0.3685
 5682SOL     OW22459   0.680   3.344   6.206 -0.1083 -0.3664 -0.1552
 5682SOL    HW222460   0.651   3.306   6.123  0.1497 -0.3001 -0.2780
 5682SOL    HW322461   0.764   3.301   6.224  0.0259 -0.0942 -0.1286
 5682SOL    MW422462   0.687   3.333   6.198 -0.2603  0.4926 -0.1493
 5683SOL     OW22463   0.654   0.284   0.002 -0.6876 -0.3338  0.5651
 5683SOL    HW222464   0.711   0.333   0.060  0.1622 -0.1326 -0.4194
 5683SOL    HW322465   0.581   0.257   0.058 -0.8445  1.4496  1.2925
 5683SOL    MW422466   0.652   0.287   0.017 -0.0304  0.5028 -0.4809
 5684SOL     OW22467   3.529   2.394   2.021  0.3859  0.8334 -0.3935
 5684SOL    HW222468   3.580   2.402   2.102  1.6823 -1.4125 -0.8876
 5684SOL    HW322469   3.459   2.332   2.042  0.7325  0.2317 -0.9693
 5684SOL    MW422470   3.527   2.387   2.035  0.3843 -0.0926  0.2620
 5685SOL     OW22471   4.507   5.470   1.211 -0.9401  0.2002 -0.2791
 5685SOL    HW222472   4.537   5.501   1.126  0.1342  0.3237  0.1329
 5685SOL    HW322473   4.536   5.537   1.273  0.9884 -1.3172  0.5694
 5685SOL    MW422474   4.515   5.483   1.208  0.2541  0.2327 -0.0400
 5686SOL     OW22475   0.045   0.477   0.650 -0.6446  0.7565 -0.7221
 5686SOL    HW222476   0.066   0.430   0.730 -0.5931  0.8914 -0.6566
 5686SOL    HW322477   0.009   0.561   0.680 -1.0587  0.6244 -0.8326
 5686SOL    MW422478   0.043   0.482   0.664  0.3793 -0.3040  0.8589
 5687SOL     OW22479   2.433   0.225   6.023  0.4254  0.0963  0.6890
 5687SOL    HW222480   2.386   0.258   6.100 -3.1111  0.1642 -1.2694
 5687SOL    HW322481   2.407   0.133   6.017  1.7895 -0.2801  0.3248
 5687SOL    MW422482   2.423   0.217   6.032  0.2134 -0.5542  0.2665
 5688SOL     OW22483   5.109   3.144   3.799  0.1924  0.2694 -0.5929
 5688SOL    HW222484   5.178   3.139   3.865 -0.7179 -1.5703  0.3153
 5688SOL    HW322485   5.028   3.127   3.848 -0.7021  0.5555 -1.9153
 5688SOL    MW422486   5.108   3.141   3.814 -0.1323  0.0830  0.4616
 5689SOL     OW22487   4.341   6.378   3.347  0.1488  0.3758  0.0360
 5689SOL    HW222488   4.359   6.382   3.441 -1.1923 -1.7027  0.4513
 5689SOL    HW322489   4.264   6.432   3.334  0.6442  1.0901  0.0178
 5689SOL    MW422490   4.333   6.385   3.357 -0.1104  0.0215 -0.7012
 5690SOL     OW22491   1.475   2.039   4.300  0.1477  0.1235 -0.4438
 5690SOL    HW222492   1.447   2.126   4.329 -1.0196 -0.7549  1.2461
 5690SOL    HW322493   1.397   2.000   4.261  0.0002 -0.9571  0.8465
 5690SOL    MW422494   1.461   2.045   4.299 -0.4885  0.1960  0.2287
 5691SOL     OW22495   1.989   2.726   3.351 -0.5384  0.0757  0.0553
 5691SOL    HW222496   1.905   2.771   3.364 -0.0516  0.9213  0.3089
 5691SOL    HW322497   1.986   2.697   3.260 -2.1878 -2.1911  0.7353
 5691SOL    MW422498   1.977   2.728   3.340  0.2447 -0.3516 -0.0323
 5692SOL     OW22499   5.207   3.647   1.551  1.2207  0.1551 -0.2139
 5692SOL    HW222500   5.301   3.656   1.542  1.1568  1.6309  0.3501
 5692SOL    HW322501   5.179   3.726   1.597 -0.6986  1.3953 -3.2250
 5692SOL    MW422502   5.215   3.658   1.556 -0.2874  0.5218  0.1189
 5693SOL     OW22503   1.866   0.889   6.350 -0.1051 -0.0704 -0.4885
 5693SOL    HW222504   1.846   0.797   6.332  2.3078 -0.5137 -1.2456
 5693SOL    HW322505   1.841   0.935   6.270  1.2498 -0.5295 -1.2107
 5693SOL    MW422506   1.860   0.883   6.337  0.5337  0.8983  0.3833
 5694SOL     OW22507   2.745   5.638   0.738 -0.7115  0.1565  0.2045
 5694SOL    HW222508   2.825   5.591   0.714 -1.6381 -2.4109  1.7854
 5694SOL    HW322509   2.772   5.695   0.811 -0.1990 -0.3147  0.3906
 5694SOL    MW422510   2.759   5.639   0.745 -0.0635  0.3124 -0.4569
 5695SOL     OW22511   5.838   3.050   4.656 -0.2728 -0.0576 -0.4836
 5695SOL    HW222512   5.767   2.988   4.675  0.0031 -0.5957 -1.1545
 5695SOL    HW322513   5.915   3.011   4.696 -0.0185 -0.3713 -1.2486
 5695SOL    MW422514   5.839   3.036   4.664 -0.1267  0.0960  0.3889
 5696SOL     OW22515   5.341   1.878   0.156 -0.4719  0.1386  0.2493
 5696SOL    HW222516   5.407   1.940   0.188 -0.7396  0.3483  0.3962
 5696SOL    HW322517   5.297   1.847   0.235  0.0326 -0.6600  0.2197
 5696SOL    MW422518   5.344   1.882   0.171 -0.4046  0.0715  0.7557
 5697SOL     OW22519   1.547   5.405   3.786  0.1487 -0.1363 -0.3217
 5697SOL    HW222520   1.625   5.433   3.833  1.4805 -1.0789 -1.8650
 5697SOL    HW322521   1.475   5.428   3.844  1.5130  1.2715  0.9147
 5697SOL    MW422522   1.548   5.412   3.800 -0.0643  0.0087  0.6815
 5698SOL     OW22523   1.255   3.680   2.670 -0.5893 -0.4025 -0.3662
 5698SOL    HW222524   1.211   3.682   2.755 -0.0496 -1.5948 -0.0384
 5698SOL    HW322525   1.332   3.736   2.682 -0.5081 -0.5761 -0.0509
 5698SOL    MW422526   1.259   3.687   2.683  0.2755  0.3011  0.9199
 5699SOL     OW22527   6.184   4.546   1.050 -0.3415 -0.2876  0.1976
 5699SOL    HW222528   6.228   4.493   0.983  0.3684  1.6504 -0.9595
 5699SOL    HW322529   6.098   4.507   1.059 -0.9771  0.1404 -2.9085
 5699SOL    MW422530   6.179   4.534   1.043  0.0549 -0.3529  0.5340
 5700SOL     OW22531   2.955   5.173   3.565  0.0991  0.2177  0.0142
 5700SOL    HW222532   2.925   5.243   3.622 -0.8399 -1.7288  2.0569
 5700SOL    HW322533   2.876   5.125   3.541  0.7273 -0.2715 -1.1690
 5700SOL    MW422534   2.941   5.176   3.569 -0.7003 -0.5739 -0.0838
 5701SOL     OW22535   4.338   4.347   3.343 -0.0608  0.7176  0.6201
 5701SOL    HW222536   4.346   4.422   3.285 -1.6699 -0.1686 -0.8216
 5701SOL    HW322537   4.257   4.363   3.392  0.1186  0.3998  1.0264
 5701SOL    MW422538   4.328   4.359   3.342 -1.4258 -0.0976  0.1465
 5702SOL     OW22539   0.047   5.598   2.384  0.0072 -0.1425  0.4282
 5702SOL    HW222540  -0.005   5.597   2.465  0.4212  0.1339  0.7018
 5702SOL    HW322541   0.135   5.620   2.413  0.1609 -0.0551 -0.1023
 5702SOL    MW422542   0.051   5.601   2.399  0.2759  0.1964  0.6060
 5703SOL     OW22543   3.992   3.987   5.736  0.2271 -0.4379  0.3454
 5703SOL    HW222544   3.938   3.914   5.707 -1.1447  1.4332 -2.2911
 5703SOL    HW322545   4.072   3.980   5.683  0.1511 -0.1291  0.1859
 5703SOL    MW422546   3.996   3.977   5.725 -0.0663 -0.5125  0.4557
 5704SOL     OW22547   2.059   1.637   1.877  0.4578  0.1788  0.4985
 5704SOL    HW222548   2.040   1.687   1.798  0.9648 -2.7623 -1.6545
 5704SOL    HW322549   1.987   1.575   1.885  2.0825 -1.8545  0.2813
 5704SOL    MW422550   2.047   1.635   1.868 -0.5574  0.0042  0.1428
 5705SOL     OW22551   4.553   2.593   5.661  0.1181  0.8688  0.0765
 5705SOL    HW222552   4.516   2.528   5.601  2.0126 -0.4178  0.2210
 5705SOL    HW322553   4.516   2.676   5.632 -1.7216 -0.1306 -0.6473
 5705SOL    MW422554   4.543   2.595   5.650 -0.3045  0.0870  0.5142
 5706SOL     OW22555   4.831   5.553   0.792  0.4914 -0.2463  0.2685
 5706SOL    HW222556   4.888   5.625   0.816  0.0343  0.1502  0.1824
 5706SOL    HW322557   4.783   5.584   0.715  2.5247 -1.7868 -1.7794
 5706SOL    MW422558   4.832   5.566   0.785 -0.0103  0.3318  0.1150
 5707SOL     OW22559   4.823   4.243   4.097 -0.4070  0.0453  0.0393
 5707SOL    HW222560   4.911   4.247   4.059 -0.6285  0.4172 -0.4312
 5707SOL    HW322561   4.765   4.224   4.024 -0.8329  0.7367  0.1824
 5707SOL    MW422562   4.827   4.241   4.082  0.0599  0.4420  0.5019
 5708SOL     OW22563   2.066   1.303   2.826  0.1800 -0.2458  0.1893
 5708SOL    HW222564   2.072   1.301   2.731  0.5295  0.4625  0.1951
 5708SOL    HW322565   2.143   1.254   2.856  0.0041 -0.5753  0.1128
 5708SOL    MW422566   2.077   1.296   2.818  0.5239  0.1439  0.0230
 5709SOL     OW22567   4.915   0.762   6.243  0.0812  0.6482 -0.7427
 5709SOL    HW222568   4.985   0.801   6.295 -1.9753  1.3946  1.7319
 5709SOL    HW322569   4.880   0.692   6.298 -0.7853 -0.0176 -2.0939
 5709SOL    MW422570   4.919   0.758   6.257 -0.1583  0.0133 -0.2654
 5710SOL     OW22571   1.754   3.902   0.125 -0.0929 -0.5811 -0.1643
 5710SOL    HW222572   1.679   3.959   0.144 -0.4705 -0.6828 -1.3233
 5710SOL    HW322573   1.721   3.813   0.137 -0.0674 -0.6172 -0.3613
 5710SOL    MW422574   1.740   3.898   0.129 -0.3849 -0.0990 -0.2544
 5711SOL     OW22575   0.097   3.957   1.664  0.2212 -0.8049 -0.4260
 5711SOL    HW222576   0.069   3.921   1.748  2.0056 -0.1307  0.5227
 5711SOL    HW322577   0.086   3.885   1.602 -0.6578 -1.4744  0.4717
 5711SOL    MW422578   0.092   3.943   1.667  0.0494 -0.3618  0.1618
 5712SOL     OW22579   0.234   0.209   0.341 -0.2827  0.2974  0.3060
 5712SOL    HW222580   0.249   0.281   0.403 -0.6423  0.1541  0.5602
 5712SOL    HW322581   0.274   0.133   0.382 -0.2918  0.2568  0.2405
 5712SOL    MW422582   0.241   0.208   0.354 -0.2484 -0.3088 -0.1657
 5713SOL     OW22583   3.351   5.968   3.870  0.5419  0.2057  0.6828
 5713SOL    HW222584   3.376   5.991   3.959  0.6307 -2.1593  1.3339
 5713SOL    HW322585   3.333   5.874   3.873  0.5757  0.0397 -1.7931
 5713SOL    MW422586   3.352   5.958   3.882 -0.1998  0.1080  0.1173
 5714SOL     OW22587   4.742   4.609   2.493 -0.3944 -0.8052 -0.7326
 5714SOL    HW222588   4.835   4.621   2.512 -0.5575 -0.5430 -0.0875
 5714SOL    HW322589   4.711   4.696   2.467 -0.0222 -1.2723 -2.9648
 5714SOL    MW422590   4.750   4.622   2.492 -0.1258  0.0070  0.8870
 5715SOL     OW22591   2.393   1.592   1.698  0.1332 -0.4220  0.0713
 5715SOL    HW222592   2.395   1.679   1.737  1.2058 -0.0130 -0.8551
 5715SOL    HW322593   2.430   1.535   1.765 -1.6478 -0.4090  1.1491
 5715SOL    MW422594   2.398   1.596   1.712 -0.2009  0.3354  0.6911
 5716SOL     OW22595   4.522   2.227   1.862 -0.1477  0.2650 -0.6588
 5716SOL    HW222596   4.452   2.195   1.918 -0.5762  2.0055 -0.1167
 5716SOL    HW322597   4.511   2.322   1.862  2.0978  0.5924 -0.7153
 5716SOL    MW422598   4.512   2.236   1.869 -0.0029 -0.0189 -0.0757
 5717SOL     OW22599   4.217   4.525   0.848  0.1704 -0.0920 -0.7019
 5717SOL    HW222600   4.275   4.601   0.859 -1.1501  1.0173 -1.1574
 5717SOL    HW322601   4.155   4.531   0.920 -0.3168 -0.4009 -1.0898
 5717SOL    MW422602   4.217   4.536   0.859 -0.2752 -0.1810  0.0582
 5718SOL     OW22603   5.259   5.694   0.806 -0.1244  0.0499  0.0348
 5718SOL    HW222604   5.269   5.619   0.865  1.6021 -0.4289 -0.7952
 5718SOL    HW322605   5.241   5.655   0.721  1.8751  0.4607 -0.6337
 5718SOL    MW422606   5.258   5.679   0.803 -0.4473 -0.0425 -0.0503
 5719SOL     OW22607   6.149   6.337   2.288 -0.2956 -0.1847  0.1662
 5719SOL    HW222608   6.202   6.270   2.246  0.2014 -0.2703  0.9139
 5719SOL    HW322609   6.091   6.369   2.219  0.1022 -0.7299 -0.4264
 5719SOL    MW422610   6.148   6.333   2.273 -0.0910 -0.4139 -0.1325
 5720SOL     OW22611   2.854   4.827   1.422 -0.3816 -0.3023 -0.5094
 5720SOL    HW222612   2.917   4.848   1.491  1.2756  0.8657 -2.2780
 5720SOL    HW322613   2.789   4.897   1.427 -0.1884 -0.1390 -0.2333
 5720SOL    MW422614   2.853   4.839   1.432  0.0506 -0.2108 -0.0514
 5721SOL     OW22615   1.602   5.880   5.335  0.1125 -0.1315  0.1779
 5721SOL    HW222616   1.696   5.866   5.347  0.2422 -0.8679 -1.5000
 5721SOL    HW322617   1.562   5.800   5.367  0.0684  0.0600  0.6095
 5721SOL    MW422618   1.609   5.868   5.341 -0.4057 -0.4772  0.4079
 5722SOL     OW22619   4.154   4.061   3.997  0.0250  0.0334 -0.3719
 5722SOL    HW222620   4.217   4.133   3.996  0.4488 -0.3098  0.6019
 5722SOL    HW322621   4.068   4.104   3.995  0.2770  0.5317 -0.7049
 5722SOL    MW422622   4.151   4.076   3.997  0.0263  0.7204  0.1271
 5723SOL     OW22623   1.607   5.596   0.810 -0.5822 -0.1995  0.2208
 5723SOL    HW222624   1.514   5.618   0.809 -0.6585 -0.5286  0.1670
 5723SOL    HW322625   1.642   5.640   0.732 -0.5938  0.3370  0.5106
 5723SOL    MW422626   1.599   5.605   0.799  0.6047  0.1602  0.3418
 5724SOL     OW22627   3.958   2.599   0.295  0.8693  0.3968  0.5828
 5724SOL    HW222628   3.944   2.612   0.201  1.4914  0.2882  0.4757
 5724SOL    HW322629   3.876   2.559   0.325  1.0966 -0.6496 -0.1241
 5724SOL    MW422630   3.945   2.596   0.286  0.3417  0.7034 -0.1157
 5725SOL     OW22631   4.255   0.758   1.664  0.3943  0.2908  0.2364
 5725SOL    HW222632   4.276   0.850   1.646  0.6699 -0.1235 -1.7990
 5725SOL    HW322633   4.325   0.709   1.622 -0.9380 -0.9248 -0.6534
 5725SOL    MW422634   4.267   0.764   1.656  0.4004  0.3310  0.0352
 5726SOL     OW22635   3.918   0.921   2.550  0.3243  0.0221  0.4877
 5726SOL    HW222636   3.963   0.997   2.514 -0.3948  0.4124  0.3920
 5726SOL    HW322637   3.988   0.858   2.568  0.9225  0.6817  0.5198
 5726SOL    MW422638   3.933   0.922   2.548 -0.0855 -0.5032  0.3563
 5727SOL     OW22639   3.377   0.432   1.900  0.6413 -0.2854  0.2866
 5727SOL    HW222640   3.462   0.470   1.923  0.3451  0.6760 -0.1386
 5727SOL    HW322641   3.390   0.396   1.812  0.6714 -0.3524  0.3183
 5727SOL    MW422642   3.390   0.433   1.891 -0.3334 -0.1296 -0.1194
 5728SOL     OW22643   6.221   0.404   3.715  0.2514  0.7275  0.3109
 5728SOL    HW222644   6.180   0.325   3.681  0.3564  0.4553  0.7990
 5728SOL    HW322645   6.225   0.464   3.641 -0.9892  0.7482  0.2413
 5728SOL    MW422646   6.216   0.402   3.701  0.4087 -0.1806  0.2216
 5729SOL     OW22647   1.017   4.377   2.605 -0.0055  0.7809  0.0008
 5729SOL    HW222648   0.984   4.358   2.693  4.4162  0.9923  1.9886
 5729SOL    HW322649   1.027   4.291   2.564  1.1919  0.3484  1.1424
 5729SOL    MW422650   1.014   4.363   2.611 -0.2714 -0.6296  0.4254
 5730SOL     OW22651   0.091   2.822   0.973 -0.2108  0.2328  0.9122
 5730SOL    HW222652   0.146   2.885   1.020  0.2381  0.6937 -0.1871
 5730SOL    HW322653   0.125   2.736   0.998  3.2179  0.4736 -2.1165
 5730SOL    MW422654   0.102   2.819   0.983 -0.4701  0.9985 -0.2653
 5731SOL     OW22655   0.450   3.602   1.541 -0.1300  0.4154 -0.7164
 5731SOL    HW222656   0.393   3.561   1.606  0.3567  0.4111 -0.2819
 5731SOL    HW322657   0.483   3.529   1.488 -0.5461  0.4214 -0.9831
 5731SOL    MW422658   0.447   3.587   1.543  0.1236  0.3765  0.2341
 5732SOL     OW22659   2.925   6.283   6.275  0.4556  0.1153 -0.5243
 5732SOL    HW222660   2.961   6.343   6.341  1.2046  0.2415 -1.0337
 5732SOL    HW322661   2.994   6.216   6.264  0.8915  0.7878 -2.0869
 5732SOL    MW422662   2.939   6.282   6.282 -0.4589 -0.3636 -0.6471
 5733SOL     OW22663   1.301   2.839   2.822  0.6468 -0.1775 -0.0015
 5733SOL    HW222664   1.235   2.906   2.841  1.2471 -0.2163  2.5692
 5733SOL    HW322665   1.296   2.828   2.727 -3.2432 -0.4026  0.0496
 5733SOL    MW422666   1.291   2.847   2.812  0.0234 -0.3675  0.2296
 5734SOL     OW22667   3.134   4.960   3.644 -0.4460 -0.1261 -0.1309
 5734SOL    HW222668   3.083   5.041   3.645 -0.7520 -0.3107 -0.4870
 5734SOL    HW322669   3.218   4.984   3.682 -0.3417  0.4853 -0.7306
 5734SOL    MW422670   3.138   4.974   3.649  0.4259 -0.4705 -0.2810
 5735SOL     OW22671   4.503   5.166   0.811  0.6666 -0.1201 -0.8302
 5735SOL    HW222672   4.501   5.260   0.796  1.0789 -0.0127 -0.2221
 5735SOL    HW322673   4.563   5.154   0.884 -1.1298 -0.6483  0.6485
 5735SOL    MW422674   4.510   5.176   0.818  0.5461  0.2871 -0.0747
 5736SOL     OW22675   0.101   2.436   6.338 -0.2172 -0.1397  0.3550
 5736SOL    HW222676   0.072   2.512   6.389 -0.1371  0.3619 -0.3180
 5736SOL    HW322677   0.023   2.406   6.292  0.1649  0.9323 -1.1045
 5736SOL    MW422678   0.087   2.442   6.338  0.5455  0.0385  0.2885
 5737SOL     OW22679   2.274   3.888   5.791  0.0238  0.5065 -0.3932
 5737SOL    HW222680   2.329   3.832   5.847 -0.9676  0.8396  0.9855
 5737SOL    HW322681   2.194   3.837   5.779 -0.3032  1.0086 -0.3599
 5737SOL    MW422682   2.271   3.874   5.797  0.4851 -0.3924 -0.1590
 5738SOL     OW22683   3.721   3.403   3.371  0.4344  0.5999 -0.2399
 5738SOL    HW222684   3.708   3.498   3.372 -0.5517  0.4833 -0.3023
 5738SOL    HW322685   3.661   3.372   3.302 -2.5205 -0.4541  2.5394
 5738SOL    MW422686   3.711   3.412   3.362 -0.8607  0.0598  0.4124
 5739SOL     OW22687   4.684   4.769   4.887  0.1736  0.0716  0.3111
 5739SOL    HW222688   4.593   4.760   4.916  0.1194  0.1780  0.1787
 5739SOL    HW322689   4.726   4.824   4.954 -0.3722  1.7342 -0.6474
 5739SOL    MW422690   4.677   4.775   4.900  0.1166  0.1324 -0.2315
 5740SOL     OW22691   3.566   4.323   6.255 -0.8336 -0.0286  0.0342
 5740SOL    HW222692   3.605   4.248   6.301 -1.0637 -0.2709 -0.1670
 5740SOL    HW322693   3.518   4.285   6.182 -4.4799 -0.1078  2.2110
 5740SOL    MW422694   3.565   4.308   6.251 -0.2985  0.0736  0.3488
 5741SOL     OW22695   5.429   4.858   0.489 -0.4008  0.2660 -0.1805
 5741SOL    HW222696   5.374   4.805   0.432 -1.1881  0.4704  0.3737
 5741SOL    HW322697   5.435   4.807   0.570 -0.9981  0.9151  0.2831
 5741SOL    MW422698   5.422   4.844   0.492  0.2622  0.1638  0.0973
 5742SOL     OW22699   6.129   2.856   0.947  0.0802  0.3890 -0.4968
 5742SOL    HW222700   6.127   2.951   0.955  1.9514  0.4093  0.2387
 5742SOL    HW322701   6.060   2.836   0.883 -0.4497  2.1995 -0.5641
 5742SOL    MW422702   6.120   2.866   0.940  0.5766  0.1541  0.5233
 5743SOL     OW22703   4.279   2.392   5.225  0.1189 -0.5723 -0.8051
 5743SOL    HW222704   4.256   2.303   5.251 -0.9901 -0.3496 -0.9493
 5743SOL    HW322705   4.196   2.430   5.196  0.3289  0.9206  0.4298
 5743SOL    MW422706   4.265   2.385   5.224  0.5578 -0.2575 -0.3851
 5744SOL     OW22707   1.525   5.375   5.077 -0.1364  0.2004  0.4737
 5744SOL    HW222708   1.584   5.311   5.117  0.3087  1.6719  2.3169
 5744SOL    HW322709   1.471   5.407   5.150 -2.3766 -0.1714 -0.9252
 5744SOL    MW422710   1.525   5.371   5.092  0.0670  0.0522  0.1266
 5745SOL     OW22711   4.827   2.194   0.742 -0.5894 -0.0206 -0.3218
 5745SOL    HW222712   4.765   2.139   0.694 -0.5869  0.7682 -1.2598
 5745SOL    HW322713   4.775   2.268   0.773 -0.3945 -0.0489  0.0764
 5745SOL    MW422714   4.812   2.196   0.740 -0.1590 -0.1394 -0.4802
 5746SOL     OW22715   2.290   3.549   1.281  0.2662 -0.5871 -0.3049
 5746SOL    HW222716   2.230   3.501   1.223 -0.1323  0.0435 -0.4228
 5746SOL    HW322717   2.272   3.641   1.263  1.2138 -0.3887 -0.2704
 5746SOL    MW422718   2.280   3.554   1.271  0.1588 -0.5710  0.3418
 5747SOL     OW22719   4.358   1.203   0.550  0.0783  0.2245  0.0064
 5747SOL    HW222720   4.288   1.183   0.487  0.0008  0.1649  0.1107
 5747SOL    HW322721   4.390   1.117   0.577 -0.1966  0.2417  0.3922
 5747SOL    MW422722   4.353   1.189   0.545 -0.7976  0.5788  0.6496
 5748SOL     OW22723   3.650   4.399   1.827  0.5329 -0.2392 -0.1727
 5748SOL    HW222724   3.645   4.481   1.778 -0.0013  0.3696  0.8528
 5748SOL    HW322725   3.668   4.427   1.917  1.9077 -1.3393 -0.0787
 5748SOL    MW422726   3.652   4.413   1.833  0.2099 -0.9592  0.3462
 5749SOL     OW22727   5.764   0.116   6.363 -0.1891  0.6505  0.3236
 5749SOL    HW222728   5.676   0.111   6.326 -0.1323 -0.0476  0.2759
 5749SOL    HW322729   5.760   0.064   6.444  1.1671 -2.8862 -1.6508
 5749SOL    MW422730   5.752   0.109   6.369 -0.0166  0.0193 -0.2849
 5750SOL     OW22731   1.921   5.534   5.284 -0.1382  0.5901 -0.2761
 5750SOL    HW222732   2.002   5.512   5.332 -0.0453 -0.2429 -0.7981
 5750SOL    HW322733   1.855   5.475   5.320 -0.6481  1.5852  0.4774
 5750SOL    MW422734   1.923   5.524   5.295 -0.4498 -0.5411 -0.4111
 5751SOL     OW22735   1.899   0.397   2.849  0.6277 -0.0262  0.8005
 5751SOL    HW222736   1.868   0.486   2.832  0.4219 -0.5684 -2.3342
 5751SOL    HW322737   1.986   0.393   2.809  0.9422 -1.0573  1.5266
 5751SOL    MW422738   1.906   0.408   2.841  0.6118 -0.2696 -0.1821
 5752SOL     OW22739   3.836   3.640   2.115 -0.2857  0.5698 -0.1226
 5752SOL    HW222740   3.879   3.555   2.111 -1.0881  0.2126 -1.4006
 5752SOL    HW322741   3.894   3.698   2.064  0.0135  0.6971  0.3508
 5752SOL    MW422742   3.850   3.637   2.108  0.2973 -0.4694  0.0029
 5753SOL     OW22743   1.528   3.326   2.770 -0.1461  0.0907  0.1994
 5753SOL    HW222744   1.576   3.408   2.758  0.4932  0.1664  2.6757
 5753SOL    HW322745   1.535   3.281   2.686  1.8386  1.3640 -0.3831
 5753SOL    MW422746   1.535   3.331   2.757 -0.3277  0.2150  0.2705
 5754SOL     OW22747   4.285   5.211   5.093  0.5461  0.5037 -0.2785
 5754SOL    HW222748   4.297   5.297   5.053 -0.4795  0.5860 -0.4172
 5754SOL    HW322749   4.244   5.158   5.024 -0.9884  0.5625  0.5624
 5754SOL    MW422750   4.281   5.215   5.078  0.0766 -0.1673  0.2388
 5755SOL     OW22751   1.966   4.892   1.089  0.1997  0.3939  0.8492
 5755SOL    HW222752   1.878   4.859   1.108 -0.6777  0.7518 -2.1498
 5755SOL    HW322753   2.014   4.816   1.057 -0.1156  0.8355 -0.7562
 5755SOL    MW422754   1.961   4.878   1.087  0.0909  0.4648 -0.2239
 5756SOL     OW22755   6.299   5.217   0.324  0.1216  0.2369  0.5710
 5756SOL    HW222756   6.376   5.166   0.301  1.6170  1.5053  2.4127
 5756SOL    HW322757   6.299   5.291   0.263 -1.8904 -1.6423 -1.9148
 5756SOL    MW422758   6.309   5.220   0.313  0.6266  1.0137 -0.2184
 5757SOL     OW22759   4.551   2.765   2.440  0.7570  0.2037 -0.0986
 5757SOL    HW222760   4.526   2.673   2.449 -0.1861  0.2789 -1.5872
 5757SOL    HW322761   4.598   2.786   2.521  1.3235 -1.6899  0.0936
 5757SOL    MW422762   4.554   2.756   2.452  0.4188 -0.6794  0.3148
 5758SOL     OW22763   1.555   0.804   0.492  0.0879 -0.0735 -0.2604
 5758SOL    HW222764   1.602   0.722   0.512  0.1866 -0.0112 -0.2339
 5758SOL    HW322765   1.615   0.851   0.435 -1.2260 -1.3577 -2.8507
 5758SOL    MW422766   1.569   0.799   0.487 -0.1310  0.2287 -0.4026
 5759SOL     OW22767   1.180   0.896   4.433 -0.7950  0.7923  0.6754
 5759SOL    HW222768   1.196   0.892   4.339  0.4544  0.4003  0.8775
 5759SOL    HW322769   1.107   0.958   4.443 -1.9335 -0.2808 -0.6360
 5759SOL    MW422770   1.173   0.904   4.422  0.8027  0.1021 -0.2408
 5760SOL     OW22771   3.032   3.042   4.256 -0.4496  0.0679 -0.5561
 5760SOL    HW222772   2.954   3.057   4.310  0.2731  0.6562  0.3523
 5760SOL    HW322773   3.060   3.130   4.230  2.3749  0.3381  2.7059
 5760SOL    MW422774   3.025   3.056   4.259 -0.0393 -0.6845 -0.4588
 5761SOL     OW22775   1.403   2.794   3.154 -0.2262 -0.1632 -0.1322
 5761SOL    HW222776   1.453   2.826   3.079  0.4475 -0.9303 -0.0252
 5761SOL    HW322777   1.378   2.705   3.131 -2.6256  0.5801 -0.6821
 5761SOL    MW422778   1.406   2.787   3.141 -0.2736  0.2083  0.0425
 5762SOL     OW22779   1.359   2.366   5.290 -0.3189 -0.5269 -0.3243
 5762SOL    HW222780   1.452   2.345   5.296 -0.2134 -0.1193 -0.5042
 5762SOL    HW322781   1.344   2.430   5.360 -0.1056  0.6472 -1.3305
 5762SOL    MW422782   1.369   2.372   5.300 -0.2115  0.5513  0.6068
 5763SOL     OW22783   5.285   0.565   4.236 -0.0333  0.1570  0.8312
 5763SOL    HW222784   5.192   0.588   4.244  0.1820  2.5388 -1.6812
 5763SOL    HW322785   5.329   0.622   4.298 -0.1045  0.8134  0.2914
 5763SOL    MW422786   5.278   0.576   4.245  0.7864 -0.2315 -0.5482
 5764SOL     OW22787   3.756   4.198   1.638  0.2634 -0.4769 -0.0253
 5764SOL    HW222788   3.694   4.223   1.570  0.6827 -0.1124 -0.2826
 5764SOL    HW322789   3.727   4.246   1.715 -0.3174 -1.0270  0.1060
 5764SOL    MW422790   3.744   4.208   1.639 -0.9740 -0.0946  0.6906
 5765SOL     OW22791   3.647   6.107   3.735 -0.5216 -0.4358  0.1480
 5765SOL    HW222792   3.649   6.200   3.711 -2.3675 -0.2171  0.6328
 5765SOL    HW322793   3.627   6.107   3.829 -0.7291 -1.3300  0.1145
 5765SOL    MW422794   3.645   6.119   3.744  0.1393  0.1787 -0.0973
 5766SOL     OW22795   2.073   4.084   3.630  0.0659 -0.6921  0.1049
 5766SOL    HW222796   2.060   4.054   3.540 -1.7331 -0.4589  0.2588
 5766SOL    HW322797   2.155   4.134   3.626 -0.8279  0.7866 -1.8199
 5766SOL    MW422798   2.082   4.087   3.617  0.1040  0.3816  0.4936
 5767SOL     OW22799   6.167   4.061   3.974  0.1492 -0.1713 -0.0210
 5767SOL    HW222800   6.170   4.113   3.894 -0.0655  1.7201  1.1286
 5767SOL    HW322801   6.188   4.123   4.044  1.0004 -1.8905  1.3537
 5767SOL    MW422802   6.170   4.076   3.973 -0.3829 -0.1663 -0.7108
 5768SOL     OW22803   5.249   5.518   6.213 -0.2160 -0.6823  0.0600
 5768SOL    HW222804   5.322   5.579   6.219 -1.1040  0.4782 -0.3483
 5768SOL    HW322805   5.257   5.478   6.127  0.7736 -1.7125  0.6052
 5768SOL    MW422806   5.259   5.521   6.202  0.9359 -0.7756  1.1618
 5769SOL     OW22807   0.931   0.085   4.084  0.8002  0.3598  0.6169
 5769SOL    HW222808   0.868   0.128   4.027  1.3008 -1.0190 -1.1052
 5769SOL    HW322809   0.989   0.037   4.024  1.6558 -0.8156  2.2677
 5769SOL    MW422810   0.931   0.084   4.068 -0.1030 -0.1405 -0.3768
 5770SOL     OW22811   1.991   5.487   1.533 -0.5069  0.4634  0.3227
 5770SOL    HW222812   1.980   5.414   1.473  1.4238 -1.7021  2.4027
 5770SOL    HW322813   1.904   5.499   1.572 -1.9823  2.3609 -3.1161
 5770SOL    MW422814   1.978   5.479   1.530  0.1927 -0.0569  0.5036
 5771SOL     OW22815   0.719   5.779   4.876 -0.1860  0.0329  0.1171
 5771SOL    HW222816   0.727   5.686   4.855 -2.6559 -0.2544  0.2352
 5771SOL    HW322817   0.719   5.823   4.791  3.2573  0.2683  0.0764
 5771SOL    MW422818   0.720   5.772   4.862  0.1568 -0.2504 -0.0040
 5772SOL     OW22819   4.623   4.111   0.394  0.4629  0.5078 -0.2945
 5772SOL    HW222820   4.643   4.019   0.374 -1.6632  0.1482 -0.9867
 5772SOL    HW322821   4.661   4.160   0.322  0.8007  0.0893 -0.4062
 5772SOL    MW422822   4.631   4.105   0.382  0.1017  0.4999  0.0060
 5773SOL     OW22823   5.136   2.933   6.420 -0.0716 -0.0958 -0.5634
 5773SOL    HW222824   5.167   2.851   6.381  1.8802 -0.4030  1.4561
 5773SOL    HW322825   5.051   2.911   6.457 -0.9863 -0.3455 -2.6854
 5773SOL    MW422826   5.129   2.919   6.419 -0.6141  0.6278  0.1610
 5774SOL     OW22827   0.818   5.168   4.742  0.5322  0.5575 -0.4021
 5774SOL    HW222828   0.730   5.178   4.704  0.5823  2.5158 -0.1165
 5774SOL    HW322829   0.813   5.088   4.794 -0.6900 -0.0612 -1.4092
 5774SOL    MW422830   0.805   5.159   4.744  0.4740  0.6408  0.2198
 5775SOL     OW22831   1.136   1.162   6.375  0.3352  0.3564 -0.0916
 5775SOL    HW222832   1.209   1.158   6.314  0.3184  0.2635 -0.1058
 5775SOL    HW322833   1.064   1.201   6.325 -0.0635 -0.8677 -0.5172
 5775SOL    MW422834   1.136   1.167   6.360  0.4103  0.1532  0.1276
 5776SOL     OW22835   4.555   2.497   2.581 -0.6391  0.2786 -0.2505
 5776SOL    HW222836   4.540   2.418   2.529  0.5340  0.5713 -1.0771
 5776SOL    HW322837   4.597   2.465   2.661  0.2761  0.0978 -0.7918
 5776SOL    MW422838   4.558   2.482   2.585 -0.1765 -0.2907  0.5619
 5777SOL     OW22839   4.913   4.722   1.134 -0.1150  1.0475  0.1978
 5777SOL    HW222840   4.921   4.815   1.111 -0.5580  1.2131  0.6850
 5777SOL    HW322841   4.873   4.681   1.058 -0.5730  1.3848  0.2558
 5777SOL    MW422842   4.909   4.729   1.121 -0.3447  0.1757 -0.1512
 5778SOL     OW22843   1.348   0.986   5.158  0.6295  0.1551 -0.2238
 5778SOL    HW222844   1.383   0.900   5.136  0.0140 -0.0832 -0.3108
 5778SOL    HW322845   1.392   1.046   5.099  0.7443 -0.1599 -0.4613
 5778SOL    MW422846   1.358   0.983   5.147  0.0429  0.9994  0.0918
 5779SOL     OW22847   3.347   0.150   2.781  0.0167  0.1133  0.3923
 5779SOL    HW222848   3.361   0.077   2.720 -1.1184 -0.3238  0.6297
 5779SOL    HW322849   3.430   0.157   2.829  0.6109 -0.1250 -0.5728
 5779SOL    MW422850   3.360   0.141   2.779  0.0234 -0.6174  0.4040
 5780SOL     OW22851   5.439   6.029   4.286 -0.0646 -0.2618  0.0823
 5780SOL    HW222852   5.360   6.075   4.316 -0.6198 -1.3507  0.3404
 5780SOL    HW322853   5.443   6.048   4.192  0.1331  0.9046  0.3144
 5780SOL    MW422854   5.429   6.037   4.277 -0.0131 -0.2088 -0.3691
 5781SOL     OW22855   3.948   0.035   0.667 -0.6870 -0.1525  0.0004
 5781SOL    HW222856   4.025   0.012   0.614 -2.4066 -0.4276 -2.5788
 5781SOL    HW322857   3.942   0.131   0.659 -0.2052 -0.0464  0.8394
 5781SOL    MW422858   3.957   0.045   0.659  0.1331  0.7102 -0.6608
 5782SOL     OW22859   3.390   2.448   1.189  0.3073  0.3241 -0.7968
 5782SOL    HW222860   3.394   2.480   1.280 -0.2237 -0.7231 -0.3909
 5782SOL    HW322861   3.302   2.471   1.160 -0.1000 -0.8086 -0.4801
 5782SOL    MW422862   3.379   2.456   1.197  0.0166 -0.2954 -0.1912
 5783SOL     OW22863   1.478   3.180   5.020 -0.1728 -0.1482 -0.3092
 5783SOL    HW222864   1.537   3.135   5.080 -0.5313  0.1217  0.2550
 5783SOL    HW322865   1.496   3.273   5.033 -0.4188 -0.0816 -0.4377
 5783SOL    MW422866   1.488   3.186   5.030 -0.6925 -0.0173  0.1734
 5784SOL     OW22867   1.499   4.421   2.204  0.1740  0.5088  0.2751
 5784SOL    HW222868   1.474   4.336   2.169  0.5146 -0.1153  1.4997
 5784SOL    HW322869   1.438   4.436   2.277 -0.9263  2.0624 -0.8814
 5784SOL    MW422870   1.487   4.412   2.209 -0.0867  0.0764  0.1298
 5785SOL     OW22871   3.964   1.430   2.365  0.2599  0.4643 -0.1632
 5785SOL    HW222872   4.024   1.381   2.309  1.3166  1.1567  0.3260
 5785SOL    HW322873   3.996   1.414   2.454  1.2680  2.7907 -0.0323
 5785SOL    MW422874   3.976   1.421   2.370 -0.5306  0.1319  0.0078
 5786SOL     OW22875   3.443   3.233   6.401 -0.7425 -0.2435 -0.1739
 5786SOL    HW222876   3.412   3.152   6.442 -1.0482  0.5207  1.1721
 5786SOL    HW322877   3.375   3.297   6.421 -0.1534  0.5230 -0.5839
 5786SOL    MW422878   3.430   3.230   6.409  0.0082  0.1624  0.4160
 5787SOL     OW22879   2.535   4.635   1.950 -0.5878  0.2151  0.1426
 5787SOL    HW222880   2.601   4.610   2.015  0.2003  2.1740  0.1688
 5787SOL    HW322881   2.466   4.677   2.001 -1.6558 -1.3320  0.0475
 5787SOL    MW422882   2.535   4.637   1.966  0.1712 -0.4996  0.1650
 5788SOL     OW22883   4.933   6.350   1.106  0.5500  0.7119 -0.4937
 5788SOL    HW222884   4.939   6.412   1.034 -0.8604  0.3276 -0.9923
 5788SOL    HW322885   4.947   6.402   1.185  0.7716  1.3970 -0.9849
 5788SOL    MW422886   4.935   6.365   1.107  0.2481 -0.5898  0.1497
 5789SOL     OW22887   0.200   3.654   6.170 -0.2696 -0.0452 -0.6524
 5789SOL    HW222888   0.130   3.636   6.233 -0.7900 -0.2095 -1.2626
 5789SOL    HW322889   0.272   3.598   6.198  0.1783  1.1972  0.8670
 5789SOL    MW422890   0.200   3.644   6.182 -0.1674 -0.1771 -0.1722
 5790SOL     OW22891   4.160   2.084   3.214  0.0166  0.0487  0.2467
 5790SOL    HW222892   4.132   2.166   3.175  0.1030 -0.2018 -0.3614
 5790SOL    HW322893   4.080   2.045   3.249  0.1134  0.7979  1.3347
 5790SOL    MW422894   4.146   2.089   3.214 -0.0810 -0.0271  0.8631
 5791SOL     OW22895   3.075   1.098   4.573  0.4109  0.2271  0.4363
 5791SOL    HW222896   3.075   1.004   4.559 -0.4223  0.3519 -0.5010
 5791SOL    HW322897   3.039   1.109   4.661  0.5836 -0.3221  0.5806
 5791SOL    MW422898   3.070   1.087   4.583 -0.1782 -0.2174 -0.3254
 5792SOL     OW22899   4.240   6.250   5.573  0.2459  0.0205 -0.2056
 5792SOL    HW222900   4.219   6.165   5.609 -0.5642 -0.1315 -0.9948
 5792SOL    HW322901   4.176   6.310   5.612  1.6308  0.5381  1.3635
 5792SOL    MW422902   4.229   6.247   5.583 -0.6334  0.3875 -0.7627
 5793SOL     OW22903   5.749   3.694   2.190 -0.3328 -0.4246  0.4140
 5793SOL    HW222904   5.656   3.673   2.194 -0.6392  0.8875  0.5057
 5793SOL    HW322905   5.774   3.711   2.281  0.1055 -1.1873  0.4444
 5793SOL    MW422906   5.740   3.693   2.203 -0.0162 -0.3962 -0.8980
 5794SOL     OW22907   3.488   4.883   0.694  0.0267 -0.5224 -0.1201
 5794SOL    HW222908   3.531   4.823   0.755 -2.2647 -0.9066  1.2237
 5794SOL    HW322909   3.557   4.909   0.633  2.2484 -0.7652  2.1279
 5794SOL    MW422910   3.503   4.879   0.694 -0.3240 -0.0933 -0.4198
 5795SOL     OW22911   5.702   3.863   3.601  0.1395 -0.3004 -0.2913
 5795SOL    HW222912   5.628   3.909   3.560  0.3836  0.6237  0.2667
 5795SOL    HW322913   5.779   3.913   3.573  0.2837  0.5901  1.5668
 5795SOL    MW422914   5.702   3.876   3.592 -0.1319 -0.3220  0.9913
 5796SOL     OW22915   2.516   1.518   4.187 -0.6950 -0.0671 -0.1815
 5796SOL    HW222916   2.591   1.474   4.226  0.3820  2.3914  0.7277
 5796SOL    HW322917   2.515   1.489   4.096  0.7446 -0.9127  0.0480
 5796SOL    MW422918   2.525   1.508   4.180  0.1294  0.2256 -0.3470
 5797SOL     OW22919   5.874   5.160   5.086 -0.3624 -0.0477  0.1605
 5797SOL    HW222920   5.845   5.228   5.026  0.3125 -0.8301 -1.1038
 5797SOL    HW322921   5.969   5.169   5.088 -0.3470 -0.2752  0.8308
 5797SOL    MW422922   5.883   5.170   5.079  0.5080 -0.8869 -0.1354
 5798SOL     OW22923   1.500   0.718   4.229 -0.0483 -0.2873  0.2624
 5798SOL    HW222924   1.549   0.719   4.147  2.5426 -1.3093  1.6873
 5798SOL    HW322925   1.427   0.658   4.212  0.8939 -1.1267 -1.0534
 5798SOL    MW422926   1.496   0.710   4.216 -0.6660  0.6229  0.2096
 5799SOL     OW22927   4.250   1.051   1.646 -0.0263 -0.4771  0.1493
 5799SOL    HW222928   4.217   1.089   1.564  0.7800  1.5901  0.7083
 5799SOL    HW322929   4.215   1.108   1.714  0.4767 -1.3237  1.1318
 5799SOL    MW422930   4.241   1.064   1.644  0.2169  0.1577 -0.0969
 5800SOL     OW22931   0.561   1.301   2.789  0.0327  0.6622 -0.0724
 5800SOL    HW222932   0.641   1.338   2.826 -0.2008  1.9206 -0.7526
 5800SOL    HW322933   0.589   1.220   2.747  1.5982  2.4281 -2.7996
 5800SOL    MW422934   0.575   1.295   2.788 -0.5747 -0.3325 -0.0634
 5801SOL     OW22935   2.861   0.099   5.270  0.2044  0.2543  0.5527
 5801SOL    HW222936   2.918   0.069   5.199 -0.3746  1.2564 -0.3717
 5801SOL    HW322937   2.789   0.036   5.271  1.3592 -1.1301  1.8523
 5801SOL    MW422938   2.859   0.087   5.261  0.5679 -0.4382  0.4387
 5802SOL     OW22939   5.395   4.132   6.341 -0.1216  0.2028 -0.5867
 5802SOL    HW222940   5.343   4.137   6.261  0.4372  0.5533 -0.9345
 5802SOL    HW322941   5.407   4.038   6.356 -0.9363  0.1137 -0.4416
 5802SOL    MW422942   5.390   4.120   6.333 -0.3355  0.0791 -0.3993
 5803SOL     OW22943   1.936   1.825   2.410  0.7149 -0.2032  0.2070
 5803SOL    HW222944   1.850   1.852   2.441  0.5143 -1.7077  1.1195
 5803SOL    HW322945   1.998   1.867   2.470  0.5179 -0.2637  0.4550
 5803SOL    MW422946   1.933   1.834   2.422  0.2686  0.0233  0.2508
 5804SOL     OW22947   2.675   4.084   0.775 -0.8892  0.2249  0.6226
 5804SOL    HW222948   2.700   4.126   0.857  0.8906  1.0168 -0.2779
 5804SOL    HW322949   2.747   4.025   0.755 -1.9824 -1.0536  0.3348
 5804SOL    MW422950   2.687   4.082   0.783 -0.1029 -0.3219 -0.2626
 5805SOL     OW22951   4.753   1.719   0.427  0.5195 -0.0668 -0.1135
 5805SOL    HW222952   4.743   1.809   0.396  0.6420  0.0703  0.2457
 5805SOL    HW322953   4.746   1.666   0.348  1.4169  0.3147 -0.4605
 5805SOL    MW422954   4.750   1.724   0.412 -0.7135  0.6131 -0.4274
 5806SOL     OW22955   3.796   4.439   6.127  0.1798 -0.6965  0.2222
 5806SOL    HW222956   3.828   4.388   6.053 -2.0677 -1.5838 -0.2052
 5806SOL    HW322957   3.734   4.381   6.171  0.5182  0.2730  2.0952
 5806SOL    MW422958   3.792   4.424   6.123 -0.7663  0.0309 -0.2707
 5807SOL     OW22959   5.596   2.984   3.180  0.0876 -0.1133  0.0376
 5807SOL    HW222960   5.503   2.972   3.165  0.3825 -1.7890 -0.6832
 5807SOL    HW322961   5.602   3.008   3.273 -0.9675 -1.5680  0.5217
 5807SOL    MW422962   5.585   2.985   3.191  0.1897 -0.2146  0.6275
 5808SOL     OW22963   4.131   1.296   2.180 -0.2019  0.4812 -0.6340
 5808SOL    HW222964   4.092   1.282   2.094  2.0518 -2.6497 -1.3513
 5808SOL    HW322965   4.210   1.347   2.163  1.1819 -1.6136 -0.7832
 5808SOL    MW422966   4.136   1.301   2.167 -0.3191 -0.0879  0.6306
 5809SOL     OW22967   3.214   3.923   0.218 -0.4162  0.5854  0.8143
 5809SOL    HW222968   3.297   3.965   0.243 -0.9495  3.1591 -1.3519
 5809SOL    HW322969   3.239   3.832   0.198  1.8272  1.1866  0.5298
 5809SOL    MW422970   3.229   3.916   0.219  0.6357 -0.6799  0.1961
 5810SOL     OW22971   0.249   2.549   4.554  0.1335 -0.1682  0.0902
 5810SOL    HW222972   0.183   2.607   4.517  0.2749 -1.2833 -2.0352
 5810SOL    HW322973   0.328   2.603   4.560 -0.7677  1.0562  2.2730
 5810SOL    MW422974   0.251   2.564   4.550 -0.7489 -0.2129  0.1560
 5811SOL     OW22975   3.226   3.173   5.081 -0.0163  0.0929 -0.1578
 5811SOL    HW222976   3.262   3.188   4.994  0.2556  0.3942  0.0021
 5811SOL    HW322977   3.236   3.079   5.096 -1.3595 -0.2138 -1.0175
 5811SOL    MW422978   3.232   3.163   5.072 -0.7928 -0.6985  0.5890
 5812SOL     OW22979   5.384   2.034   4.904  0.1560 -0.3153  0.1582
 5812SOL    HW222980   5.326   2.045   4.829 -0.8391  0.3855  1.0067
 5812SOL    HW322981   5.470   2.015   4.866  0.1545  2.1533 -1.2317
 5812SOL    MW422982   5.388   2.033   4.889  0.1966  0.0966 -0.0829
 5813SOL     OW22983   6.343   2.991   2.045 -0.3418  0.7595 -0.0116
 5813SOL    HW222984   6.268   3.051   2.040 -0.8892  0.1740  0.8640
 5813SOL    HW322985   6.307   2.912   2.085  0.4504 -0.0242 -0.8273
 5813SOL    MW422986   6.328   2.989   2.050  0.0418 -0.0633  0.2786
 5814SOL     OW22987   2.945   2.661   2.118  0.4571 -0.2935  0.2969
 5814SOL    HW222988   2.920   2.752   2.100  3.4972  0.2954 -1.8608
 5814SOL    HW322989   2.992   2.665   2.201  1.0716  0.2601 -0.0655
 5814SOL    MW422990   2.948   2.674   2.126 -0.2353  0.1799  0.4600
 5815SOL     OW22991   3.148   4.823   4.063 -0.3002  0.3948  0.0547
 5815SOL    HW222992   3.074   4.796   4.117  0.1192  0.4752  0.6890
 5815SOL    HW322993   3.214   4.853   4.126 -0.4711  2.2257 -0.5699
 5815SOL    MW422994   3.147   4.823   4.079 -0.6603 -0.2147  0.0704
 5816SOL     OW22995   2.626   2.188   2.840  0.4558  1.0668 -0.3219
 5816SOL    HW222996   2.541   2.153   2.869  0.3598  2.1278  0.7325
 5816SOL    HW322997   2.689   2.148   2.899  0.5442  1.2927 -0.2646
 5816SOL    MW422998   2.623   2.178   2.851  0.2499 -0.2483 -1.0074
 5817SOL     OW22999   2.772   5.998   5.618  0.3757 -0.8988 -0.1477
 5817SOL    HW223000   2.778   6.063   5.688 -0.4166 -0.3232 -0.5878
 5817SOL    HW323001   2.723   5.926   5.656  0.8299 -1.0278  0.1963
 5817SOL    MW423002   2.766   5.997   5.632 -0.2797  0.3628 -0.4400
 5818SOL     OW23003   4.479   3.426   3.177 -0.1482  0.2440 -0.5750
 5818SOL    HW223004   4.505   3.507   3.220 -0.0979  0.0028 -0.1446
 5818SOL    HW323005   4.433   3.454   3.097 -1.1914  0.7303  0.1737
 5818SOL    MW423006   4.476   3.440   3.172  0.0578 -0.3448  0.6279
 5819SOL     OW23007   4.430   0.792   1.380 -0.2796  0.2526  0.6590
 5819SOL    HW223008   4.337   0.781   1.364 -0.4789  1.2397  1.0226
 5819SOL    HW323009   4.437   0.879   1.421  0.8725  0.5108 -0.0329
 5819SOL    MW423010   4.419   0.802   1.384 -0.0321 -0.2716  0.2135
 5820SOL     OW23011   1.793   5.383   6.398 -0.4483 -0.1952  0.2258
 5820SOL    HW223012   1.714   5.376   6.451 -2.5948  1.0603 -2.5150
 5820SOL    HW323013   1.764   5.427   6.318  3.3800  1.7835 -0.3060
 5820SOL    MW423014   1.779   5.388   6.394  0.3682  0.3859  0.3959
 5821SOL     OW23015   5.376   0.295   0.419  0.4430  0.3658  0.5035
 5821SOL    HW223016   5.401   0.374   0.467 -0.3704  0.3691  0.9357
 5821SOL    HW323017   5.293   0.318   0.377  2.0045  1.0383 -2.5222
 5821SOL    MW423018   5.368   0.309   0.420  0.5636 -0.3188 -0.6727
 5822SOL     OW23019   2.282   4.472   6.251  0.0704  0.1250 -0.0079
 5822SOL    HW223020   2.259   4.555   6.209  0.8085  1.0826  1.4064
 5822SOL    HW323021   2.201   4.442   6.291 -0.3179 -0.1258 -0.9395
 5822SOL    MW423022   2.268   4.479   6.250 -0.2319  0.0515  0.8670
 5823SOL     OW23023   3.331   2.675   0.880  0.2400 -0.2533  0.2260
 5823SOL    HW223024   3.420   2.644   0.898 -0.1052 -2.5393 -1.4948
 5823SOL    HW323025   3.331   2.693   0.786 -0.7889  1.0285  0.4480
 5823SOL    MW423026   3.343   2.673   0.870 -0.0133 -0.2522 -0.3353
 5824SOL     OW23027   3.344   6.257   6.191  0.2736  0.0932  0.5628
 5824SOL    HW223028   3.279   6.198   6.151  0.8790 -0.4993  0.4349
 5824SOL    HW323029   3.340   6.336   6.138  0.8653 -0.5816 -0.5249
 5824SOL    MW423030   3.335   6.260   6.179 -0.1710 -0.1400 -0.0033
 5825SOL     OW23031   0.426   5.007   0.038  0.2313 -0.5565  0.3359
 5825SOL    HW223032   0.502   5.004   0.096  0.4814  0.7081  0.0922
 5825SOL    HW323033   0.461   5.032  -0.047 -0.6585  1.9914  0.6570
 5825SOL    MW423034   0.440   5.010   0.034  0.4378  0.1645  0.2999
 5826SOL     OW23035   0.498   5.720   4.641 -0.4754  0.0253 -0.1643
 5826SOL    HW223036   0.422   5.742   4.587 -1.1971 -1.2341  0.3074
 5826SOL    HW323037   0.558   5.675   4.581  0.1384  1.4028 -0.6461
 5826SOL    MW423038   0.496   5.717   4.626  0.7392 -0.2263  0.2874
 5827SOL     OW23039   3.692   0.709   3.908  0.7282  0.0664  0.2729
 5827SOL    HW223040   3.701   0.774   3.977  0.2321  1.3253 -0.8018
 5827SOL    HW323041   3.743   0.745   3.835  2.2264 -1.7890  0.3184
 5827SOL    MW423042   3.700   0.722   3.907 -0.4146 -0.5946 -0.0518
 5828SOL     OW23043   1.948   5.272   1.031  0.8877 -0.2225  0.1507
 5828SOL    HW223044   1.982   5.315   0.953 -0.8874 -0.4999 -0.8209
 5828SOL    HW323045   1.880   5.331   1.063  0.3511 -0.9708  0.4215
 5828SOL    MW423046   1.943   5.285   1.025 -0.2616  1.1235 -0.6824
 5829SOL     OW23047   2.612   5.738   4.864 -0.8770 -0.7312 -0.3823
 5829SOL    HW223048   2.591   5.698   4.949 -0.9697  3.6015  1.9072
 5829SOL    HW323049   2.529   5.772   4.833 -0.2945  0.6507 -0.4690
 5829SOL    MW423050   2.598   5.737   4.871 -0.3328 -0.6898  0.5415
 5830SOL     OW23051   5.872   1.350   0.834 -0.0337  0.1746 -0.0985
 5830SOL    HW223052   5.850   1.426   0.780  0.4191  0.7271  0.4789
 5830SOL    HW323053   5.875   1.384   0.923 -1.2344 -0.8145  0.3499
 5830SOL    MW423054   5.869   1.364   0.839 -0.2859 -0.3900  0.4756
 5831SOL     OW23055   5.492   1.169   1.824  0.8520  0.3631  0.1545
 5831SOL    HW223056   5.567   1.123   1.787  0.2474  0.4961 -1.2774
 5831SOL    HW323057   5.529   1.251   1.858  1.4330  0.1917 -0.0515
 5831SOL    MW423058   5.507   1.174   1.824 -0.1769  0.0935  0.1520
 5832SOL     OW23059   4.336   0.693   0.873 -0.2341  0.0673  0.1761
 5832SOL    HW223060   4.419   0.669   0.831 -1.3552  0.4813 -2.4846
 5832SOL    HW323061   4.344   0.658   0.962  2.7209  0.0008  0.0027
 5832SOL    MW423062   4.348   0.685   0.879 -0.3359  0.1947 -0.7781
 5833SOL     OW23063   6.309   3.263   5.395  0.3249 -0.0832 -0.5643
 5833SOL    HW223064   6.385   3.211   5.419 -0.1230 -0.1172  0.8816
 5833SOL    HW323065   6.292   3.318   5.472 -0.9590  0.0946 -0.9454
 5833SOL    MW423066   6.317   3.263   5.408 -0.2847 -0.5292 -0.0300
 5834SOL     OW23067   0.773   4.859   3.326  0.1526  0.6413  0.2490
 5834SOL    HW223068   0.727   4.882   3.244  1.6115 -0.1011 -0.8142
 5834SOL    HW323069   0.709   4.808   3.375  0.3238 -2.0066 -2.0101
 5834SOL    MW423070   0.758   4.855   3.321 -0.2457 -0.4783  0.2186
 5835SOL     OW23071   4.610   5.648   2.358  1.0908  1.2188 -0.4594
 5835SOL    HW223072   4.531   5.669   2.308  0.9190  1.0094 -0.2783
 5835SOL    HW323073   4.620   5.554   2.350 -0.9470  0.5608  2.7320
 5835SOL    MW423074   4.600   5.639   2.351 -0.4412  0.0159  0.4565
 5836SOL     OW23075   3.946   2.211   5.180 -1.0730 -0.1361 -0.2053
 5836SOL    HW223076   3.960   2.305   5.175  0.7186 -0.3502  0.2046
 5836SOL    HW323077   3.941   2.192   5.274 -0.6199 -0.5465 -0.2613
 5836SOL    MW423078   3.947   2.221   5.192 -0.5222  0.3290 -0.3441
 5837SOL     OW23079   1.506   0.462   6.261  0.5121 -0.1980  0.7405
 5837SOL    HW223080   1.427   0.434   6.307  0.3879 -0.3073  0.4660
 5837SOL    HW323081   1.540   0.382   6.220 -0.2105  0.1518 -0.6081
 5837SOL    MW423082   1.500   0.448   6.261 -0.1278 -0.2958  0.5940
 5838SOL     OW23083   1.859   2.373   0.445  0.1249 -0.5490 -0.0772
 5838SOL    HW223084   1.777   2.356   0.492  0.3051  2.0767  1.3904
 5838SOL    HW323085   1.928   2.357   0.510  0.5816 -0.0361 -0.4269
 5838SOL    MW423086   1.857   2.369   0.460 -0.3869 -0.4533  0.2820
 5839SOL     OW23087   1.229   5.244   2.621 -0.0374 -0.2670  0.3908
 5839SOL    HW223088   1.226   5.339   2.630  1.3253 -0.2633  1.0452
 5839SOL    HW323089   1.252   5.212   2.708  1.7787 -1.0216 -0.3047
 5839SOL    MW423090   1.232   5.252   2.633  0.1664 -0.2629 -0.0371
 5840SOL     OW23091   1.690   3.808   6.297  0.3012  0.2738  0.8411
 5840SOL    HW223092   1.660   3.870   6.231 -2.8156 -0.3987  1.4250
 5840SOL    HW323093   1.721   3.863   6.369 -1.4956  1.2208  0.9591
 5840SOL    MW423094   1.690   3.824   6.298  0.2678  0.1896 -0.0697
 5841SOL     OW23095   6.219   3.834   0.120  0.7103 -0.1949 -0.2311
 5841SOL    HW223096   6.211   3.738   0.117 -0.5387 -0.1403  0.6371
 5841SOL    HW323097   6.204   3.856   0.212  1.2828  0.8253 -0.3717
 5841SOL    MW423098   6.216   3.824   0.132 -0.5064  0.3139  0.9320
 5842SOL     OW23099   0.274   0.457   0.474  0.2835 -0.5955  0.0987
 5842SOL    HW223100   0.236   0.488   0.392 -0.5083 -1.0315  0.2908
 5842SOL    HW323101   0.211   0.484   0.541  0.2443 -1.4329  0.4120
 5842SOL    MW423102   0.261   0.465   0.472  0.5673  0.5987  0.4455
 5843SOL     OW23103   5.261   4.722   5.332  0.2274  0.3582  0.1122
 5843SOL    HW223104   5.328   4.702   5.266 -0.6823  0.9354 -1.0261
 5843SOL    HW323105   5.252   4.817   5.329 -0.0526  0.3587  0.8453
 5843SOL    MW423106   5.269   4.732   5.323 -0.3240  0.3045  0.4701
 5844SOL     OW23107   5.308   5.653   0.521 -0.1967  0.7141 -1.1119
 5844SOL    HW223108   5.312   5.577   0.463 -0.1939 -1.9775  2.0815
 5844SOL    HW323109   5.396   5.658   0.560 -1.2154 -0.2912  1.6005
 5844SOL    MW423110   5.320   5.644   0.519  0.0213 -0.0064 -0.0416
 5845SOL     OW23111   4.111   3.128   2.660  0.2081  0.9855  0.1850
 5845SOL    HW223112   4.103   3.221   2.637  1.4402  1.1319  0.2742
 5845SOL    HW323113   4.193   3.101   2.619 -0.7459 -0.4033 -0.8908
 5845SOL    MW423114   4.121   3.137   2.651  0.1259 -0.2860  0.4123
 5846SOL     OW23115   3.829   5.148   0.605 -0.3289 -0.0841  0.0844
 5846SOL    HW223116   3.796   5.072   0.557  0.0890  0.0554 -0.4293
 5846SOL    HW323117   3.767   5.218   0.587 -0.2017 -0.0478 -0.2099
 5846SOL    MW423118   3.817   5.147   0.597 -0.8818 -0.0882 -0.0153
 5847SOL     OW23119   3.043   2.746   6.264 -0.1413  0.1507  0.0249
 5847SOL    HW223120   3.001   2.814   6.212  1.4700  0.7362 -0.5945
 5847SOL    HW323121   3.006   2.664   6.231  0.3312  0.5490 -1.5919
 5847SOL    MW423122   3.033   2.744   6.253 -0.0356 -0.2397  0.3722
 5848SOL     OW23123   0.468   4.245   0.323 -0.0885 -0.2756  0.1385
 5848SOL    HW223124   0.391   4.241   0.267 -0.6615  0.1746  0.8697
 5848SOL    HW323125   0.442   4.195   0.401  1.0231 -1.6881 -0.3599
 5848SOL    MW423126   0.454   4.238   0.326 -0.2848 -0.5337 -0.5072
 5849SOL     OW23127   0.821   4.099   4.826  0.5089 -0.8094  0.2362
 5849SOL    HW223128   0.911   4.073   4.805 -0.0755 -2.3492 -0.5090
 5849SOL    HW323129   0.817   4.094   4.922  1.1969 -0.8216  0.2672
 5849SOL    MW423130   0.832   4.095   4.836 -0.2468 -0.0338 -0.8753
 5850SOL     OW23131   0.286   3.576   3.810  0.3061  0.9332  0.3346
 5850SOL    HW223132   0.220   3.640   3.839 -0.7135 -0.1746  0.5533
 5850SOL    HW323133   0.324   3.543   3.891  0.7259  1.1556  0.2280
 5850SOL    MW423134   0.282   3.580   3.825  0.6159  0.2180  0.4955
 5851SOL     OW23135   2.751   1.214   0.238  0.3168  0.2137 -0.2541
 5851SOL    HW223136   2.657   1.209   0.221  0.2620  0.8393 -0.1390
 5851SOL    HW323137   2.774   1.126   0.268 -0.2082  0.0239 -0.3939
 5851SOL    MW423138   2.742   1.202   0.240  0.9141 -0.0387  0.2372
 5852SOL     OW23139   6.099   3.252   1.524 -0.0255 -0.1139  0.2755
 5852SOL    HW223140   6.175   3.301   1.493  1.1160 -1.9090  0.1330
 5852SOL    HW323141   6.134   3.189   1.586 -1.4570 -0.7098  0.5135
 5852SOL    MW423142   6.114   3.250   1.528 -0.0336 -0.4144 -0.3618
 5853SOL     OW23143   1.601   4.880   4.704 -0.0403  0.2663 -0.1767
 5853SOL    HW223144   1.612   4.975   4.703 -1.9909  0.5563  0.1111
 5853SOL    HW323145   1.646   4.851   4.783  2.8611  0.5409 -1.6013
 5853SOL    MW423146   1.608   4.888   4.714  0.2716  0.0026  1.0445
 5854SOL     OW23147   4.332   2.202   4.556  0.0517 -0.3527 -0.2191
 5854SOL    HW223148   4.386   2.261   4.504  1.1460 -0.3173  0.9292
 5854SOL    HW323149   4.351   2.115   4.520 -0.1907 -0.2031 -0.7215
 5854SOL    MW423150   4.342   2.198   4.544 -0.1641 -0.7735 -0.6816
 5855SOL     OW23151   5.343   5.361   5.683 -0.0635  0.5225  0.2386
 5855SOL    HW223152   5.336   5.380   5.776 -1.4224  1.6770 -0.0513
 5855SOL    HW323153   5.431   5.388   5.659 -0.7326  3.4134  0.5849
 5855SOL    MW423154   5.353   5.367   5.692 -0.0619 -0.2734  0.0991
 5856SOL     OW23155   0.010   4.000   1.129 -0.5159 -0.1309 -0.2095
 5856SOL    HW223156  -0.082   4.029   1.129 -0.4268  0.1642 -0.4780
 5856SOL    HW323157   0.052   4.057   1.193 -0.0239  1.4090 -1.8244
 5856SOL    MW423158   0.003   4.012   1.137 -0.0278  0.1677 -0.3015
 5857SOL     OW23159   2.083   2.564   0.161  0.0686  0.1376  0.8547
 5857SOL    HW223160   2.125   2.509   0.228 -1.0445 -0.0187  1.4552
 5857SOL    HW323161   2.034   2.629   0.211 -0.6397  0.1319  0.1895
 5857SOL    MW423162   2.082   2.566   0.177  0.1762 -0.1581 -1.0152
 5858SOL     OW23163   0.753   1.180   0.516  0.4206 -0.9396 -0.0941
 5858SOL    HW223164   0.824   1.222   0.467 -0.1100 -0.2168 -0.2666
 5858SOL    HW323165   0.701   1.253   0.550 -0.4771 -1.4575 -0.3209
 5858SOL    MW423166   0.755   1.196   0.514 -0.4842  0.6481  0.0162
 5859SOL     OW23167   5.133   4.939   2.050  0.4696 -0.8771  0.4444
 5859SOL    HW223168   5.157   4.847   2.043 -1.0226 -1.2809  0.2139
 5859SOL    HW323169   5.072   4.954   1.978  0.5218  0.2341  0.6031
 5859SOL    MW423170   5.128   4.929   2.040 -0.0770  0.9053 -0.1781
 5860SOL     OW23171   4.961   4.272   4.525 -0.0288  0.0110  0.8494
 5860SOL    HW223172   4.890   4.242   4.468  0.9562 -3.0282  1.0043
 5860SOL    HW323173   5.033   4.292   4.466 -0.1947  0.6057  0.8408
 5860SOL    MW423174   4.961   4.271   4.510  0.5062  0.2065 -0.4877
 5861SOL     OW23175   2.661   0.441   1.626  0.1265 -0.4719 -0.2296
 5861SOL    HW223176   2.737   0.450   1.568 -0.0244 -0.5324 -0.4366
 5861SOL    HW323177   2.678   0.503   1.697  0.4005 -0.5299 -0.2426
 5861SOL    MW423178   2.673   0.450   1.628  0.2668 -0.0091 -0.1027
 5862SOL     OW23179   1.375   3.120   5.989  0.0425 -0.1509 -0.4835
 5862SOL    HW223180   1.333   3.181   6.050 -0.5004 -1.1282  0.1542
 5862SOL    HW323181   1.316   3.044   5.987  1.2575 -1.1344 -0.3710
 5862SOL    MW423182   1.361   3.118   5.997 -0.4722 -0.0699  0.9678
 5863SOL     OW23183   0.272   0.695   4.273  0.0747 -0.1936  0.1596
 5863SOL    HW223184   0.309   0.748   4.344  1.8679 -0.3120 -0.6101
 5863SOL    HW323185   0.349   0.666   4.224 -1.1074 -0.1247 -1.8272
 5863SOL    MW423186   0.287   0.698   4.276  0.6448  0.4336  0.3049
 5864SOL     OW23187   3.353   5.598   0.832 -0.0562  0.1862 -0.2359
 5864SOL    HW223188   3.430   5.546   0.853  1.0582  1.1326 -1.7881
 5864SOL    HW323189   3.363   5.678   0.884 -0.5717 -0.1302  0.3718
 5864SOL    MW423190   3.364   5.602   0.842  0.0636  1.0828  0.9021
 5865SOL     OW23191   5.647   4.077   1.358  0.3298 -0.0332  0.1612
 5865SOL    HW223192   5.610   4.068   1.446  1.8345 -0.5072  0.7822
 5865SOL    HW323193   5.714   4.008   1.353  0.1970 -0.0798 -1.3996
 5865SOL    MW423194   5.651   4.066   1.369 -0.0851 -0.0875  0.0333
 5866SOL     OW23195   4.133   0.514   3.707 -0.3481  0.0834  0.6730
 5866SOL    HW223196   4.095   0.427   3.698 -1.2328  0.3849  1.4284
 5866SOL    HW323197   4.101   0.562   3.631  0.8554 -0.4830 -0.2311
 5866SOL    MW423198   4.124   0.509   3.695  0.2943  0.5412 -0.4302
 5867SOL     OW23199   2.296   3.079   5.608  0.3449  0.5263 -0.0533
 5867SOL    HW223200   2.335   3.139   5.545 -0.8749  1.0588 -0.3220
 5867SOL    HW323201   2.318   3.116   5.693  1.0543  0.4052 -0.1765
 5867SOL    MW423202   2.304   3.092   5.611  0.2722 -0.3142 -0.0443
 5868SOL     OW23203   5.303   2.014   3.424  0.6061 -0.2918  0.4297
 5868SOL    HW223204   5.298   2.054   3.511 -2.5270  0.2604  0.1251
 5868SOL    HW323205   5.335   2.084   3.367 -0.0745  0.2503  0.7016
 5868SOL    MW423206   5.307   2.028   3.428 -0.1113 -0.5421  0.3445
 5869SOL     OW23207   1.226   2.166   4.457  0.1315 -0.2551  0.7644
 5869SOL    HW223208   1.178   2.157   4.375 -2.1756 -0.4378  2.0683
 5869SOL    HW323209   1.206   2.255   4.487 -0.3983 -0.7337  1.9001
 5869SOL    MW423210   1.217   2.177   4.451  0.1255  0.0196 -0.1683
 5870SOL     OW23211   1.388   2.954   0.192 -0.2427 -0.2405 -0.1361
 5870SOL    HW223212   1.472   2.912   0.171  0.2722  0.1356  1.0832
 5870SOL    HW323213   1.324   2.909   0.137  0.6050 -1.2527 -0.3220
 5870SOL    MW423214   1.391   2.942   0.182  0.4034 -0.0693  0.7231
 5871SOL     OW23215   0.747   6.231   3.548 -0.0239  0.0607 -0.6351
 5871SOL    HW223216   0.667   6.231   3.495 -0.1226  0.2579 -0.4898
 5871SOL    HW323217   0.818   6.244   3.485 -0.0107 -1.1748 -0.8969
 5871SOL    MW423218   0.746   6.233   3.533 -0.0600 -0.2631 -0.0328
 5872SOL     OW23219   1.218   4.021   5.017  0.5444  0.6131  0.1614
 5872SOL    HW223220   1.176   3.974   4.945  0.3379 -0.1691  0.7750
 5872SOL    HW323221   1.254   4.100   4.977 -0.0934  0.4859 -0.6772
 5872SOL    MW423222   1.217   4.025   5.002  0.4510 -0.1143  0.7306
 5873SOL     OW23223   2.800   4.394   6.345  0.3585  0.1226 -0.1637
 5873SOL    HW223224   2.730   4.459   6.350  0.9554  0.8261 -0.6936
 5873SOL    HW323225   2.758   4.316   6.309 -0.4389  0.0930  0.7835
 5873SOL    MW423226   2.786   4.392   6.341  0.0017  0.1511 -0.0155
 5874SOL     OW23227   1.040   5.179   1.712 -0.0862 -0.2081 -0.4035
 5874SOL    HW223228   1.013   5.165   1.803 -2.6103  1.7326 -0.7536
 5874SOL    HW323229   1.042   5.092   1.674  0.7938 -1.0460  1.3955
 5874SOL    MW423230   1.037   5.166   1.719  0.3505  0.3634 -0.0389
 5875SOL     OW23231   4.379   1.930   5.582 -0.4862 -0.3567 -0.4092
 5875SOL    HW223232   4.361   1.838   5.601  1.0651 -0.7980 -0.8563
 5875SOL    HW323233   4.472   1.931   5.557 -0.2436  1.4600  0.3998
 5875SOL    MW423234   4.389   1.918   5.581 -0.2381  0.0913  0.2095
 5876SOL     OW23235   2.223   5.149   2.313 -0.1207 -0.5225 -0.2541
 5876SOL    HW223236   2.261   5.164   2.226 -0.0095  1.3924  0.0961
 5876SOL    HW323237   2.134   5.121   2.295 -0.2747  0.3806 -1.0003
 5876SOL    MW423238   2.216   5.147   2.299 -0.6069  0.0567  0.4489
 5877SOL     OW23239   1.377   4.096   2.730  0.1395  0.0247 -0.1091
 5877SOL    HW223240   1.415   4.146   2.802  1.5931  0.7109 -1.2991
 5877SOL    HW323241   1.288   4.076   2.759  0.6638  0.3020  1.8491
 5877SOL    MW423242   1.370   4.100   2.743  0.3832  0.6711  0.2880
 5878SOL     OW23243   5.111   0.987   2.632  0.1469 -0.1460  0.3754
 5878SOL    HW223244   5.149   1.044   2.699 -0.0651 -0.9393  1.1936
 5878SOL    HW323245   5.121   0.898   2.668 -0.8868 -0.5035 -0.1838
 5878SOL    MW423246   5.117   0.983   2.646  0.0266 -0.1375 -0.5879
 5879SOL     OW23247   3.239   4.036   3.867 -0.6888 -0.4751 -0.0982
 5879SOL    HW223248   3.225   4.100   3.797  4.2526 -0.1016 -1.0899
 5879SOL    HW323249   3.216   3.952   3.827 -1.7587  0.1007 -0.7460
 5879SOL    MW423250   3.234   4.033   3.853 -0.0312 -0.2036  0.0620
 5880SOL     OW23251   4.547   0.986   6.424 -0.1277  0.0104  0.2436
 5880SOL    HW223252   4.509   1.073   6.421 -0.2874 -0.0803 -1.2494
 5880SOL    HW323253   4.642   1.001   6.423 -0.1387  0.1856 -1.3503
 5880SOL    MW423254   4.555   0.999   6.423 -0.3198 -0.3431  0.1525
 5881SOL     OW23255   1.815   1.644   0.183  0.0357 -0.1449 -0.6479
 5881SOL    HW223256   1.752   1.713   0.203  0.7192 -0.0282  1.4314
 5881SOL    HW323257   1.785   1.569   0.235 -0.0742 -1.0739 -2.0118
 5881SOL    MW423258   1.802   1.643   0.193 -0.3209 -0.4227  0.4737
 5882SOL     OW23259   0.563   1.347   3.803  0.2971 -0.3369 -0.4725
 5882SOL    HW223260   0.505   1.294   3.857  1.4386  0.1807  1.3578
 5882SOL    HW323261   0.517   1.357   3.720 -1.4753 -1.2745  0.3518
 5882SOL    MW423262   0.549   1.341   3.799  0.1408 -0.1491 -0.2892
 5883SOL     OW23263   2.397   0.538   1.690 -0.2275  0.5462  0.3661
 5883SOL    HW223264   2.415   0.632   1.685 -0.5325  0.5674 -0.7565
 5883SOL    HW323265   2.474   0.497   1.651 -0.1528  0.3312  0.7356
 5883SOL    MW423266   2.409   0.545   1.684 -0.1144 -0.3579  0.5812
 5884SOL     OW23267   1.196   4.808   5.613  0.1137  0.3419  0.0313
 5884SOL    HW223268   1.287   4.807   5.586  0.5093 -1.0783  1.2873
 5884SOL    HW323269   1.147   4.796   5.532  1.1333 -0.9790 -0.4139
 5884SOL    MW423270   1.201   4.807   5.599 -0.0360 -0.3614 -0.7269
 5885SOL     OW23271   3.791   3.616   4.270  0.4630  0.0512 -0.1167
 5885SOL    HW223272   3.740   3.539   4.246  0.9323 -0.3200  0.0716
 5885SOL    HW323273   3.824   3.650   4.187  1.1982 -0.6087 -0.0958
 5885SOL    MW423274   3.788   3.610   4.256  0.4423 -0.2125 -0.2847
 5886SOL     OW23275   5.866   5.825   1.168  1.0792  0.0134  0.3373
 5886SOL    HW223276   5.775   5.820   1.139  1.0486  3.3947 -0.6702
 5886SOL    HW323277   5.860   5.836   1.263  0.3815  0.6378  0.2315
 5886SOL    MW423278   5.853   5.826   1.177 -0.5483 -0.6815  0.4481
 5887SOL     OW23279   1.522   1.839   3.316 -0.4093  0.0155 -0.2458
 5887SOL    HW223280   1.602   1.865   3.270  0.0094  0.0183  0.4644
 5887SOL    HW323281   1.463   1.809   3.247 -0.0331  0.6214 -0.8413
 5887SOL    MW423282   1.525   1.838   3.301 -0.2444  0.0998 -0.1943
 5888SOL     OW23283   2.214   3.201   0.218  0.2608  0.1685 -0.7876
 5888SOL    HW223284   2.239   3.290   0.246 -1.8264  1.1234 -1.7503
 5888SOL    HW323285   2.178   3.161   0.297 -1.7338  1.3615 -1.0199
 5888SOL    MW423286   2.213   3.208   0.232 -0.0428 -1.1909 -0.0855
 5889SOL     OW23287   4.548   6.142   5.322 -0.1939 -0.3616  0.2254
 5889SOL    HW223288   4.520   6.195   5.248  0.0055 -0.6665 -0.0714
 5889SOL    HW323289   4.536   6.052   5.292  0.6612 -0.4942  0.2608
 5889SOL    MW423290   4.543   6.137   5.308 -0.1135 -0.5595  0.1437
 5890SOL     OW23291   2.822   0.571   3.622 -0.6581  0.2029  0.0169
 5890SOL    HW223292   2.759   0.526   3.678 -0.9464  1.2240  0.5402
 5890SOL    HW323293   2.881   0.615   3.683 -0.5515  0.7665 -0.4842
 5890SOL    MW423294   2.822   0.571   3.637  0.2693 -0.4455 -0.5376
 5891SOL     OW23295   4.298   4.640   2.546 -0.0300 -0.0379 -0.3070
 5891SOL    HW223296   4.340   4.706   2.601  0.6362 -1.9027  1.5189
 5891SOL    HW323297   4.370   4.584   2.517 -0.5014  0.3366 -2.3658
 5891SOL    MW423298   4.313   4.641   2.549  0.2722  0.1034 -0.0634
 5892SOL     OW23299   2.896   0.455   1.448 -0.5726  0.0425 -0.1033
 5892SOL    HW223300   2.897   0.364   1.418 -0.6295  0.3658 -1.1310
 5892SOL    HW323301   2.988   0.481   1.451 -0.6074  0.3834 -1.2520
 5892SOL    MW423302   2.908   0.446   1.444  0.2526 -0.1038 -0.1512
 5893SOL     OW23303   6.045   2.244   3.099 -0.6590 -0.1740  0.1154
 5893SOL    HW223304   6.128   2.292   3.093 -0.0021 -1.1568  1.0820
 5893SOL    HW323305   6.040   2.195   3.017  0.3215 -1.0330  0.5461
 5893SOL    MW423306   6.056   2.244   3.088  0.3932 -0.2562 -0.1630
 5894SOL     OW23307   2.127   5.401   4.421 -0.2736 -0.1079 -0.1392
 5894SOL    HW223308   2.179   5.424   4.499 -1.6410 -0.8454  1.0460
 5894SOL    HW323309   2.102   5.310   4.435 -1.1400 -0.0325 -1.1000
 5894SOL    MW423310   2.130   5.392   4.433 -0.1193  0.0631 -0.1705
 5895SOL     OW23311   3.819   5.711   1.192 -0.2911  0.0888  0.6613
 5895SOL    HW223312   3.772   5.781   1.147  1.5029 -1.5350 -4.4640
 5895SOL    HW323313   3.761   5.635   1.185  1.3416 -1.0887 -2.7453
 5895SOL    MW423314   3.805   5.710   1.185 -0.2709  0.5210  0.3983
 5896SOL     OW23315   2.194   5.635   3.247 -0.5111 -0.2420 -0.2233
 5896SOL    HW223316   2.172   5.590   3.165 -1.5377 -1.5169  0.7136
 5896SOL    HW323317   2.286   5.613   3.261 -0.1426  0.5003 -1.3269
 5896SOL    MW423318   2.203   5.626   3.238 -0.3185  0.1662  0.2068
 5897SOL     OW23319   5.950   3.574   5.653  0.3431 -0.2360 -1.4461
 5897SOL    HW223320   6.002   3.591   5.731 -1.5439  0.2588 -0.2150
 5897SOL    HW323321   5.963   3.651   5.598 -0.6477  0.8570 -0.2183
 5897SOL    MW423322   5.959   3.586   5.656  0.9351  0.3855 -0.2345
 5898SOL     OW23323   3.140   5.787   1.506 -0.4702 -0.0705  0.3712
 5898SOL    HW223324   3.045   5.793   1.503 -0.4110  1.5867  0.8214
 5898SOL    HW323325   3.158   5.717   1.568 -1.4387  1.8258  2.9668
 5898SOL    MW423326   3.130   5.779   1.514 -0.2257 -0.1656  0.1070
 5899SOL     OW23327   4.627   3.516   1.055  0.7429 -0.7024  0.0175
 5899SOL    HW223328   4.659   3.607   1.061 -0.3391 -0.2839 -0.3087
 5899SOL    HW323329   4.705   3.463   1.067  1.3348  0.2690  0.6515
 5899SOL    MW423330   4.642   3.521   1.057  0.6643 -0.8469 -0.6183
 5900SOL     OW23331   4.846   4.374   2.972  0.6054 -0.1160  0.7930
 5900SOL    HW223332   4.812   4.342   2.889 -0.6216  2.0878  0.3656
 5900SOL    HW323333   4.874   4.296   3.019  2.7783 -1.3463 -2.2677
 5900SOL    MW423334   4.845   4.360   2.967 -0.6490  0.2250  0.0753
 5901SOL     OW23335   0.399   0.598   2.349  0.1594 -0.4279 -0.3508
 5901SOL    HW223336   0.389   0.687   2.381  1.2566 -0.7903  1.1192
 5901SOL    HW323337   0.314   0.558   2.363  0.0253  0.0341  0.1995
 5901SOL    MW423338   0.387   0.604   2.355  0.6555  0.1239 -0.4586
 5902SOL     OW23339   2.789   2.872   5.126 -0.1968  0.2118  0.0862
 5902SOL    HW223340   2.823   2.889   5.038 -1.4806  1.0650 -0.2587
 5902SOL    HW323341   2.793   2.956   5.171 -1.1505  0.1594  0.2824
 5902SOL    MW423342   2.794   2.885   5.120  0.3005 -0.2685  0.0826
 5903SOL     OW23343   2.901   2.949   3.027 -0.0936 -0.6542 -0.4316
 5903SOL    HW223344   2.930   2.986   3.111 -1.1996 -1.6171  0.3991
 5903SOL    HW323345   2.864   2.864   3.049  0.4385 -1.3492 -2.0363
 5903SOL    MW423346   2.900   2.943   3.041  0.8184  0.1261 -0.4868
 5904SOL     OW23347   2.598   6.017   0.480 -0.3155 -0.0954 -0.2862
 5904SOL    HW223348   2.679   6.042   0.525  0.7146 -1.6261 -1.2142
 5904SOL    HW323349   2.542   6.095   0.487  1.4745  1.2488 -0.1812
 5904SOL    MW423350   2.601   6.031   0.487  0.4792  0.2359  0.5945
 5905SOL     OW23351   3.128   2.860   3.806 -0.2926 -0.2883 -0.4402
 5905SOL    HW223352   3.107   2.879   3.898  1.6542 -0.3450  0.0483
 5905SOL    HW323353   3.128   2.945   3.763 -1.2439 -0.2637 -0.4166
 5905SOL    MW423354   3.125   2.874   3.813  0.1767 -0.3712 -0.0248
 5906SOL     OW23355   1.796   0.498   4.319 -0.9901 -0.0717 -0.2662
 5906SOL    HW223356   1.789   0.584   4.360 -2.0056  0.8204 -2.2332
 5906SOL    HW323357   1.723   0.448   4.355 -0.5357 -0.0677  0.7002
 5906SOL    MW423358   1.786   0.503   4.329 -0.0330 -0.4027 -0.3917
 5907SOL     OW23359   0.980   1.297   4.374 -0.2105 -0.4082  0.2228
 5907SOL    HW223360   0.901   1.304   4.427 -0.0012 -1.9547  0.7919
 5907SOL    HW323361   0.948   1.292   4.284 -0.9192 -2.6601  0.5394
 5907SOL    MW423362   0.965   1.298   4.369  0.2409  0.0458  0.0668
 5908SOL     OW23363   3.053   4.049   0.035  0.4399  0.2662 -0.5950
 5908SOL    HW223364   3.009   4.117   0.085  0.5170 -0.8415  1.0441
 5908SOL    HW323365   3.101   3.998   0.100 -2.2867 -3.4370 -1.1735
 5908SOL    MW423366   3.054   4.051   0.050 -0.4136 -0.1075  0.6455
 5909SOL     OW23367   4.632   1.437   6.060 -0.3328 -0.0645 -0.0816
 5909SOL    HW223368   4.606   1.445   5.968 -0.5988  2.0754  0.1242
 5909SOL    HW323369   4.551   1.452   6.109 -0.3784 -2.0639  0.5410
 5909SOL    MW423370   4.618   1.440   6.054  0.0110  0.3117  0.1761
 5910SOL     OW23371   0.159   6.416   2.370  0.1977 -0.6745  0.5970
 5910SOL    HW223372   0.206   6.435   2.451  0.8987  1.4387 -0.2339
 5910SOL    HW323373   0.174   6.323   2.354  2.3752 -0.5151  1.4472
 5910SOL    MW423374   0.167   6.406   2.379 -0.2462 -0.1995  0.1033
 5911SOL     OW23375   0.115   5.181   4.723  0.0859  0.2060  0.1325
 5911SOL    HW223376   0.112   5.085   4.726 -0.4331  0.1132 -1.7142
 5911SOL    HW323377   0.148   5.207   4.809 -1.1691 -1.5468  1.2094
 5911SOL    MW423378   0.119   5.172   4.734 -0.0022 -0.1640  0.1231
 5912SOL     OW23379   4.905   5.530   3.577 -0.1523  0.3279  0.0989
 5912SOL    HW223380   4.994   5.536   3.610 -0.3401  0.0806  0.6553
 5912SOL    HW323381   4.910   5.471   3.502  0.3255  1.1198 -0.5164
 5912SOL    MW423382   4.917   5.523   3.572 -0.2589  0.2499 -0.3328
 5913SOL     OW23383   2.266   0.192   1.288  0.2516  0.2765 -0.1306
 5913SOL    HW223384   2.294   0.165   1.376 -2.1774 -3.6184 -0.3210
 5913SOL    HW323385   2.184   0.239   1.303 -0.3795 -0.7511 -0.2830
 5913SOL    MW423386   2.259   0.195   1.302  0.6809 -0.1878  0.0642
 5914SOL     OW23387   1.039   2.420   5.279 -0.0896  0.7381 -0.2155
 5914SOL    HW223388   0.970   2.377   5.329  0.2326  0.4043 -0.0480
 5914SOL    HW323389   1.108   2.353   5.272  0.4903  1.2770  0.1969
 5914SOL    MW423390   1.039   2.405   5.285  0.5762 -0.4465  0.5390
 5915SOL     OW23391   2.610   0.005   4.241  0.1326 -0.5401 -0.0021
 5915SOL    HW223392   2.682   0.023   4.301  0.1626 -0.1431 -0.1569
 5915SOL    HW323393   2.554  -0.057   4.288  0.3565 -0.5284  0.2790
 5915SOL    MW423394   2.613  -0.001   4.255  0.5294 -0.2978 -0.1383
 5916SOL     OW23395   4.135   3.105   4.405 -0.0284 -0.3058 -0.1741
 5916SOL    HW223396   4.106   3.099   4.496 -0.6033  0.2054 -0.3121
 5916SOL    HW323397   4.172   3.193   4.398 -3.0053  1.0050 -1.2364
 5916SOL    MW423398   4.136   3.116   4.416 -0.1628  0.1411  0.2889
 5917SOL     OW23399   0.526   1.642   3.865  0.1454  0.2392 -0.1821
 5917SOL    HW223400   0.432   1.658   3.856  0.2283  1.6391  0.9749
 5917SOL    HW323401   0.534   1.547   3.874 -1.3900  0.2322  1.8172
 5917SOL    MW423402   0.515   1.632   3.865  0.1445  0.3106 -0.0450
 5918SOL     OW23403   6.024   1.989   3.887  0.1717 -0.0006  0.0136
 5918SOL    HW223404   6.010   2.019   3.976  1.5095 -0.0629  0.2684
 5918SOL    HW323405   5.987   1.901   3.885  0.3313 -0.0806  0.5712
 5918SOL    MW423406   6.017   1.981   3.898 -0.2653 -0.1263  0.2860
 5919SOL     OW23407   3.285   2.297   6.149  0.4860 -0.2600 -0.3809
 5919SOL    HW223408   3.233   2.358   6.096  0.2000 -0.2865 -0.1282
 5919SOL    HW323409   3.273   2.212   6.106  0.4817 -0.2304 -0.4389
 5919SOL    MW423410   3.277   2.294   6.136 -0.0668  0.5638 -0.2876
 5920SOL     OW23411   3.507   5.715   2.890  0.3299  0.1147 -0.3175
 5920SOL    HW223412   3.569   5.770   2.937  0.5156  0.7131 -1.2559
 5920SOL    HW323413   3.437   5.774   2.863  0.4002 -0.1514 -1.1033
 5920SOL    MW423414   3.506   5.730   2.893  0.2580  0.3090 -0.2677
 5921SOL     OW23415   5.097   0.727   4.421 -0.2546  0.1908 -0.2432
 5921SOL    HW223416   5.011   0.708   4.385 -0.5944 -0.0542  0.6740
 5921SOL    HW323417   5.079   0.779   4.500  0.4030 -0.3071  0.2443
 5921SOL    MW423418   5.083   0.731   4.427 -0.0419  0.1863 -0.8073
 5922SOL     OW23419   2.969   4.095   5.822  0.2559 -0.0231 -0.1830
 5922SOL    HW223420   3.046   4.039   5.821 -0.1632 -0.8255  2.5658
 5922SOL    HW323421   2.895   4.035   5.809 -0.0192  0.5866 -1.7069
 5922SOL    MW423422   2.969   4.079   5.820 -0.5536  0.2577  0.0225
 5923SOL     OW23423   5.900   2.289   1.595 -0.0917  0.0244  0.0147
 5923SOL    HW223424   5.806   2.294   1.579 -0.4046  0.2544  1.7214
 5923SOL    HW323425   5.937   2.362   1.546 -0.6998 -0.4585 -1.2004
 5923SOL    MW423426   5.892   2.299   1.586  0.1264  0.0148  0.5782
 5924SOL     OW23427   3.505   1.017   3.962 -0.1634  0.2466 -0.1025
 5924SOL    HW223428   3.499   1.070   4.042 -1.0931  0.3605 -0.2337
 5924SOL    HW323429   3.594   1.032   3.930  0.2944  0.0262  1.0210
 5924SOL    MW423430   3.516   1.026   3.968  0.2757 -0.4698  0.4592
 5925SOL     OW23431   3.787   2.853   1.443  0.3789 -0.3825 -0.1822
 5925SOL    HW223432   3.744   2.936   1.462  0.1868 -0.3465 -0.7500
 5925SOL    HW323433   3.748   2.824   1.361  0.7275 -0.8413 -0.1908
 5925SOL    MW423434   3.776   2.860   1.435  0.4529 -1.0814  0.0814
 5926SOL     OW23435   1.924   4.036   6.367 -0.1846  0.5129  0.3129
 5926SOL    HW223436   1.973   3.971   6.316 -1.0765 -0.0661  0.1677
 5926SOL    HW323437   1.890   3.987   6.442 -1.5823  0.5717 -0.2435
 5926SOL    MW423438   1.926   4.021   6.370 -0.0452  0.3484 -0.5739
 5927SOL     OW23439   2.711   5.691   4.505 -0.0735 -0.0381  0.1660
 5927SOL    HW223440   2.749   5.654   4.585  1.2419  0.2733 -0.2953
 5927SOL    HW323441   2.733   5.784   4.509 -1.9629  0.4469  0.5209
 5927SOL    MW423442   2.719   5.698   4.516  0.8091 -0.0159  0.2367
 5928SOL     OW23443   1.727   1.547   4.660  0.3395 -0.2551  0.1206
 5928SOL    HW223444   1.816   1.582   4.668 -0.7694  2.4575  1.7939
 5928SOL    HW323445   1.705   1.558   4.568  0.7765  1.7663  0.2129
 5928SOL    MW423446   1.736   1.553   4.649 -0.0111  0.4385  0.2074
 5929SOL     OW23447   1.492   1.732   3.874 -0.7282  0.1094  0.2947
 5929SOL    HW223448   1.440   1.652   3.873 -4.5855  2.3709  0.6602
 5929SOL    HW323449   1.530   1.735   3.962 -0.3158 -1.3721  0.1921
 5929SOL    MW423450   1.490   1.722   3.885 -0.4650 -0.2875  0.2614
 5930SOL     OW23451   2.607   0.416   3.688  0.1490  0.4475  0.1468
 5930SOL    HW223452   2.622   0.349   3.621  0.7685 -0.5095  1.2167
 5930SOL    HW323453   2.539   0.472   3.650  0.0106 -0.4561 -1.0050
 5930SOL    MW423454   2.600   0.415   3.674  0.2303  0.2037  0.6368
 5931SOL     OW23455   5.211   3.197   1.332 -0.5845  0.0979 -0.0715
 5931SOL    HW223456   5.201   3.103   1.323  1.6226 -0.0806 -1.5511
 5931SOL    HW323457   5.270   3.208   1.407  0.2605  0.1924 -0.7355
 5931SOL    MW423458   5.217   3.186   1.341 -0.3731 -0.0138 -0.3226
 5932SOL     OW23459   3.797   0.665   5.501  1.0486 -0.0013  0.6087
 5932SOL    HW223460   3.746   0.701   5.428 -2.2366  0.3159  2.8366
 5932SOL    HW323461   3.855   0.737   5.527  0.6276  0.6788 -0.2680
 5932SOL    MW423462   3.798   0.680   5.495 -0.3826 -0.5922 -0.0921
 5933SOL     OW23463   4.279   4.292   0.736  0.7386 -0.0772 -0.1146
 5933SOL    HW223464   4.325   4.318   0.656  1.7388 -1.5101 -0.0325
 5933SOL    HW323465   4.251   4.375   0.775  1.6764  0.7312 -1.1069
 5933SOL    MW423466   4.282   4.307   0.731 -0.1758  0.2101  0.3091
 5934SOL     OW23467   3.692   3.576   5.408  0.1565 -0.3808  0.2564
 5934SOL    HW223468   3.692   3.515   5.483  0.1405 -0.3931  0.2463
 5934SOL    HW323469   3.657   3.524   5.336 -1.1762  0.0252  0.5705
 5934SOL    MW423470   3.687   3.561   5.409  0.2745 -0.0515  0.4247
 5935SOL     OW23471   0.528   5.559   1.667 -0.4336 -0.2784 -0.4514
 5935SOL    HW223472   0.480   5.575   1.749  1.6222 -1.1666  1.0239
 5935SOL    HW323473   0.520   5.464   1.654 -1.1395 -0.0812 -1.5789
 5935SOL    MW423474   0.521   5.548   1.676  0.4295  0.4373  0.4409
 5936SOL     OW23475   2.285   4.896   5.346  0.2174  0.1291 -0.0095
 5936SOL    HW223476   2.233   4.826   5.387  1.4076 -0.9855 -0.3276
 5936SOL    HW323477   2.251   4.902   5.257  0.6049 -0.5901 -0.2137
 5936SOL    MW423478   2.273   4.887   5.339  0.0390  0.0243  0.0616
 5937SOL     OW23479   1.204   2.519   0.833 -0.0163  0.3856 -0.3297
 5937SOL    HW223480   1.292   2.485   0.844 -0.0500  0.3606 -0.1359
 5937SOL    HW323481   1.150   2.466   0.891 -0.2030  0.2246 -0.6488
 5937SOL    MW423482   1.208   2.507   0.842  0.5730  0.2518  0.4690
 5938SOL     OW23483   4.028   1.945   5.530  0.0038  0.6204  0.5855
 5938SOL    HW223484   4.102   1.913   5.478 -0.2285  0.9281  0.0619
 5938SOL    HW323485   3.950   1.921   5.479 -0.1676  2.2546  0.0303
 5938SOL    MW423486   4.027   1.938   5.516 -0.7707  0.4420  0.0302
 5939SOL     OW23487   0.845   0.738   1.324 -0.3065 -0.6167  0.2060
 5939SOL    HW223488   0.904   0.796   1.276 -0.8531 -0.2735 -0.0636
 5939SOL    HW323489   0.759   0.752   1.283 -0.6360 -0.8745  0.7908
 5939SOL    MW423490   0.841   0.748   1.312 -0.0095 -0.0705  0.3121
 5940SOL     OW23491   6.038   2.569   1.452  0.1335 -0.1476 -0.5706
 5940SOL    HW223492   5.945   2.591   1.449  0.4162  1.0610 -2.2484
 5940SOL    HW323493   6.060   2.548   1.361  1.6356  0.2648 -0.3259
 5940SOL    MW423494   6.028   2.569   1.439  0.2203 -0.0141  0.8118
 5941SOL     OW23495   0.374   0.614   5.162  0.5834 -0.2192 -0.4668
 5941SOL    HW223496   0.343   0.552   5.096 -0.8165 -0.1092  0.0365
 5941SOL    HW323497   0.330   0.586   5.243  1.7449  0.0467  0.2759
 5941SOL    MW423498   0.364   0.602   5.164  0.5080 -0.2148 -0.1904
 5942SOL     OW23499   4.520   6.017   2.308 -0.5994  0.2974 -0.7909
 5942SOL    HW223500   4.476   5.990   2.389 -0.9173 -0.6103 -1.2441
 5942SOL    HW323501   4.609   6.039   2.335 -1.1798  1.6897  0.0709
 5942SOL    MW423502   4.526   6.016   2.322 -0.6865 -0.1206 -0.1500
 5943SOL     OW23503   4.613   1.739   5.268 -0.3709  0.3074 -0.2026
 5943SOL    HW223504   4.694   1.692   5.287  0.2128  1.1529 -0.5462
 5943SOL    HW323505   4.604   1.802   5.340 -1.0971 -0.2535  0.2070
 5943SOL    MW423506   4.622   1.741   5.280  0.4381 -0.0458  0.1499
 5944SOL     OW23507   3.279   3.716   0.558  0.6993  0.7717 -0.4721
 5944SOL    HW223508   3.235   3.682   0.636  1.9108 -2.9395 -1.1908
 5944SOL    HW323509   3.209   3.724   0.493  0.3105 -0.3117 -0.2049
 5944SOL    MW423510   3.264   3.712   0.559  0.5517 -0.1567 -0.3536
 5945SOL     OW23511   1.002   2.075   1.986  0.4873 -0.5756 -0.0447
 5945SOL    HW223512   1.091   2.107   1.999  0.7170 -0.9976 -0.5678
 5945SOL    HW323513   0.982   2.094   1.895 -0.1508 -0.0196  0.2003
 5945SOL    MW423514   1.011   2.082   1.976 -0.1908  0.2592  0.0995
 5946SOL     OW23515   4.918   3.897   2.498  0.7142 -0.3170 -0.4527
 5946SOL    HW223516   4.861   3.840   2.446  0.0389 -0.4851  0.4490
 5946SOL    HW323517   4.858   3.949   2.550  1.3823 -0.1975  0.2084
 5946SOL    MW423518   4.903   3.896   2.498  0.3801  0.2993 -1.0617
 5947SOL     OW23519   4.789   0.283   5.669  0.5037 -0.2072 -0.2839
 5947SOL    HW223520   4.882   0.306   5.665  0.2654  0.7541 -0.7513
 5947SOL    HW323521   4.777   0.220   5.598  0.5957  0.5067 -0.9563
 5947SOL    MW423522   4.800   0.278   5.659 -0.2176 -0.3639  0.0610
 5948SOL     OW23523   1.424   5.018   5.167  0.0359 -0.1361  0.1365
 5948SOL    HW223524   1.500   5.075   5.162 -0.8035  0.9919 -0.2504
 5948SOL    HW323525   1.352   5.076   5.192 -0.8558 -1.0222 -0.2851
 5948SOL    MW423526   1.424   5.033   5.170 -0.3353  0.7904 -0.3165
 5949SOL     OW23527   1.009   4.511   1.309 -0.1801 -0.1543 -0.8588
 5949SOL    HW223528   1.058   4.492   1.229  0.8674 -1.3648  0.0223
 5949SOL    HW323529   1.069   4.562   1.362  0.1079 -1.4731  0.1460
 5949SOL    MW423530   1.024   4.515   1.305 -0.3515 -0.0892 -0.2353
 5950SOL     OW23531   0.503   6.209   0.465  0.1487 -0.0009  0.0800
 5950SOL    HW223532   0.493   6.114   0.471 -0.4627  0.1275  1.7900
 5950SOL    HW323533   0.563   6.222   0.392 -0.3433 -1.6523 -0.6798
 5950SOL    MW423534   0.510   6.198   0.456  0.6057 -0.2359  0.0443
 5951SOL     OW23535   1.335   1.159   1.526  0.2045 -0.2563  0.1797
 5951SOL    HW223536   1.341   1.242   1.574  0.1501  0.0429 -0.3229
 5951SOL    HW323537   1.355   1.092   1.591 -0.7053  0.0790  0.8391
 5951SOL    MW423538   1.338   1.161   1.541  0.1732  0.2519 -0.1169
 5952SOL     OW23539   1.452   1.924   5.806 -0.3331  0.1188  0.6576
 5952SOL    HW223540   1.420   2.013   5.821 -0.9840  0.0826 -0.4149
 5952SOL    HW323541   1.427   1.904   5.716  1.3597 -0.5002  0.2708
 5952SOL    MW423542   1.445   1.933   5.796  0.0132 -0.2823 -0.5899
 5953SOL     OW23543   2.788   0.656   2.256  0.1889  0.3473  0.3096
 5953SOL    HW223544   2.836   0.603   2.320  0.8593 -1.2575 -1.4462
 5953SOL    HW323545   2.750   0.726   2.308  1.7069 -0.1914  2.2840
 5953SOL    MW423546   2.789   0.658   2.271 -0.0481 -0.3685  0.2185
 5954SOL     OW23547   1.427   5.393   4.814  0.6348 -0.0367 -0.0886
 5954SOL    HW223548   1.445   5.383   4.907 -0.0851 -0.7050 -0.0094
 5954SOL    HW323549   1.464   5.313   4.774 -1.7033 -1.2738  0.0356
 5954SOL    MW423550   1.435   5.381   4.821 -0.1981  0.7427 -0.4940
 5955SOL     OW23551   1.191   5.073   2.173  0.1362  0.0132 -0.4024
 5955SOL    HW223552   1.136   5.029   2.238  0.8435 -1.7585 -0.9193
 5955SOL    HW323553   1.261   5.010   2.155  0.0441  0.4766 -2.7470
 5955SOL    MW423554   1.193   5.059   2.179 -0.4276  0.4186 -0.7691
 5956SOL     OW23555   1.848   0.618   2.262 -0.0705  0.1376 -0.1074
 5956SOL    HW223556   1.783   0.571   2.210  1.2845 -0.9109 -0.9391
 5956SOL    HW323557   1.838   0.584   2.350  0.7689 -1.6744 -0.6599
 5956SOL    MW423558   1.838   0.608   2.266  0.0353  0.3120  0.0630
 5957SOL     OW23559   3.731   2.937   2.932 -0.2157  0.6720 -0.2211
 5957SOL    HW223560   3.718   3.032   2.928  0.1607  0.6983 -0.9499
 5957SOL    HW323561   3.760   2.921   3.022 -0.2365  1.2517 -0.1062
 5957SOL    MW423562   3.733   2.948   2.943  0.8030 -0.0451  0.2802
 5958SOL     OW23563   5.003   4.220   1.470 -0.0417 -0.2577  0.2724
 5958SOL    HW223564   4.975   4.128   1.471  1.1021 -0.6255  0.8611
 5958SOL    HW323565   5.096   4.216   1.447 -0.6117  0.9782 -2.6071
 5958SOL    MW423566   5.011   4.207   1.467 -0.3009  0.4884 -0.1238
 5959SOL     OW23567   1.041   2.345   1.013 -0.3174 -0.2997  0.4606
 5959SOL    HW223568   1.017   2.413   1.076 -1.1536 -0.6584  0.5534
 5959SOL    HW323569   0.963   2.290   1.007  0.2960 -1.1781  0.2964
 5959SOL    MW423570   1.027   2.347   1.021 -0.4586  0.1766 -0.2104
 5960SOL     OW23571   0.339   5.162   4.514 -0.0697 -0.5123  0.0555
 5960SOL    HW223572   0.269   5.157   4.579 -2.0400  1.5870 -1.7087
 5960SOL    HW323573   0.331   5.081   4.464 -1.5696 -0.1668 -0.3374
 5960SOL    MW423574   0.328   5.151   4.516 -0.0593  0.3000 -0.0270
 5961SOL     OW23575   5.984   5.273   0.022  0.0300 -0.6421 -0.3280
 5961SOL    HW223576   6.035   5.199   0.057  0.6939  0.1122  0.3538
 5961SOL    HW323577   6.028   5.295  -0.060  0.9113  0.0843  0.3188
 5961SOL    MW423578   5.997   5.266   0.016  0.7460  0.1901 -0.4297
 5962SOL     OW23579   5.792   1.605   0.330 -0.7158 -0.0519  0.5533
 5962SOL    HW223580   5.819   1.556   0.253 -0.6253 -0.0919  0.6109
 5962SOL    HW323581   5.873   1.641   0.366 -0.5347 -1.4917  1.6482
 5962SOL    MW423582   5.806   1.603   0.325 -0.3096  0.1277  0.4829
 5963SOL     OW23583   6.404   1.471   1.429  0.1541 -0.1922 -0.3799
 5963SOL    HW223584   6.431   1.381   1.440  0.2513 -0.3782 -1.9112
 5963SOL    HW323585   6.478   1.514   1.387 -0.7301  0.0033 -1.8379
 5963SOL    MW423586   6.417   1.465   1.425 -0.5370 -0.9007 -0.1055
 5964SOL     OW23587   2.981   2.769   2.762  0.3152 -0.2316  0.4625
 5964SOL    HW223588   2.987   2.689   2.709  4.1950  0.3345 -0.2690
 5964SOL    HW323589   2.997   2.740   2.852  0.3384 -0.4448  0.3902
 5964SOL    MW423590   2.984   2.755   2.767  0.5696 -0.3095  0.1572
 5965SOL     OW23591   0.639   0.461   1.336 -0.3275 -0.5902 -0.5418
 5965SOL    HW223592   0.673   0.430   1.420  1.1108  0.0017 -0.8577
 5965SOL    HW323593   0.567   0.519   1.359  0.1055 -0.3678  0.2997
 5965SOL    MW423594   0.634   0.465   1.350  0.4276 -0.1121 -0.2345
 5966SOL     OW23595   4.354   4.720   1.822 -0.1194  0.8222  0.0358
 5966SOL    HW223596   4.415   4.718   1.896 -2.4525 -3.9239  2.2497
 5966SOL    HW323597   4.279   4.770   1.854 -1.2710 -1.5119  1.2195
 5966SOL    MW423598   4.352   4.726   1.836 -0.7188  0.5654  0.1973
 5967SOL     OW23599   3.188   5.518   2.596 -0.3078 -0.0507  0.0969
 5967SOL    HW223600   3.169   5.524   2.502  0.0973  5.6013  0.0260
 5967SOL    HW323601   3.281   5.495   2.600 -0.7309 -2.1247 -0.6783
 5967SOL    MW423602   3.197   5.515   2.584 -0.4126  0.0384  0.0187
 5968SOL     OW23603   4.664   3.383   5.878  0.5369  0.2492 -0.1776
 5968SOL    HW223604   4.571   3.405   5.885  0.6573  0.5367  0.5888
 5968SOL    HW323605   4.702   3.454   5.827 -0.0154 -0.9123 -2.3376
 5968SOL    MW423606   4.657   3.395   5.872  0.0358 -0.4494 -0.3338
 5969SOL     OW23607   3.514   2.498   3.367  0.0712 -0.2330  0.2622
 5969SOL    HW223608   3.567   2.559   3.418 -2.7666  0.6437  2.4622
 5969SOL    HW323609   3.507   2.421   3.422 -0.8173 -0.3588 -0.0051
 5969SOL    MW423610   3.520   2.496   3.381  0.3339 -0.5122  0.0057
 5970SOL     OW23611   3.499   2.285   3.563  0.9536  0.2268 -0.2525
 5970SOL    HW223612   3.566   2.255   3.624 -0.6102 -0.1454  1.3739
 5970SOL    HW323613   3.440   2.210   3.552 -0.1684  1.0667 -0.2144
 5970SOL    MW423614   3.500   2.271   3.570 -0.4019  0.3345  0.0384
 5971SOL     OW23615   1.805   4.510   2.976 -0.0319 -0.1771 -0.3564
 5971SOL    HW223616   1.853   4.589   2.953  0.5055  0.4171  2.4770
 5971SOL    HW323617   1.866   4.438   2.955  0.5759  0.3368 -0.3821
 5971SOL    MW423618   1.820   4.511   2.970 -0.0219  0.1592 -0.1834
 5972SOL     OW23619   3.656   5.424   5.402 -0.1052  0.8251 -0.1373
 5972SOL    HW223620   3.643   5.377   5.485  1.1802 -1.2031 -1.0168
 5972SOL    HW323621   3.571   5.464   5.384 -0.7590  0.2941  1.5518
 5972SOL    MW423622   3.643   5.423   5.411 -0.0531 -0.3362 -0.7714
 5973SOL     OW23623   2.327   1.042   1.665 -0.4095 -0.0774 -0.2487
 5973SOL    HW223624   2.351   1.093   1.742 -1.2350 -0.5394  0.3355
 5973SOL    HW323625   2.245   0.999   1.690 -0.3389 -0.7583 -1.1441
 5973SOL    MW423626   2.319   1.043   1.679 -0.3237 -0.6579 -1.1167
 5974SOL     OW23627   0.156   4.573   2.137 -0.3429  0.3187 -0.2712
 5974SOL    HW223628   0.225   4.574   2.070 -0.5826  0.0370 -0.5250
 5974SOL    HW323629   0.197   4.532   2.213 -0.0908  0.5751 -0.2673
 5974SOL    MW423630   0.171   4.568   2.138  0.3151  0.7302 -0.2216
 5975SOL     OW23631   0.889   1.432   5.425  0.1778 -0.2606  0.1144
 5975SOL    HW223632   0.895   1.484   5.505  1.8399  0.1957 -0.2723
 5975SOL    HW323633   0.839   1.486   5.364  0.9964  0.4409  0.0590
 5975SOL    MW423634   0.883   1.446   5.427  0.2579 -0.1790 -0.2076
 5976SOL     OW23635   1.186   2.935   1.640  0.1439  0.4526 -0.3592
 5976SOL    HW223636   1.153   2.891   1.718 -1.1774  0.4003 -0.9212
 5976SOL    HW323637   1.187   3.028   1.663  1.3330  0.3005  0.2595
 5976SOL    MW423638   1.182   2.942   1.653 -0.2115  0.1894 -0.1327
 5977SOL     OW23639   6.064   3.873   0.963  0.3831  0.0913  0.7935
 5977SOL    HW223640   6.056   3.809   1.034 -1.0924  1.5890  2.0768
 5977SOL    HW323641   6.106   3.949   1.004  0.4850  0.6014 -0.2221
 5977SOL    MW423642   6.069   3.875   0.978  0.2018 -0.3264  0.0638
 5978SOL     OW23643   5.735   1.105   3.085 -0.3060 -0.2952  0.1440
 5978SOL    HW223644   5.742   1.042   3.014  2.1657 -1.1126  1.0097
 5978SOL    HW323645   5.700   1.054   3.159  1.0344 -0.5577  0.6396
 5978SOL    MW423646   5.732   1.090   3.086  0.4786  0.3742  0.4107
 5979SOL     OW23647   0.428   4.480   0.037  0.6164  0.9410  0.5418
 5979SOL    HW223648   0.481   4.547  -0.007  1.9695 -0.4112  0.0558
 5979SOL    HW323649   0.337   4.504   0.015  1.1885  0.9815 -2.0403
 5979SOL    MW423650   0.423   4.492   0.028 -0.6508 -0.2766  0.4450
 5980SOL     OW23651   1.506   0.131   0.583  0.0992  0.2072  0.1941
 5980SOL    HW223652   1.597   0.122   0.554 -0.2536 -1.1557 -0.5670
 5980SOL    HW323653   1.510   0.124   0.679  1.0978  3.1398  0.4505
 5980SOL    MW423654   1.518   0.129   0.592 -0.1508  0.4425 -0.0553
 5981SOL     OW23655   0.797   4.425   1.524 -0.3306  0.1678 -0.4007
 5981SOL    HW223656   0.744   4.505   1.531 -0.0211  0.4804 -1.5114
 5981SOL    HW323657   0.733   4.356   1.507 -0.6687  0.0502  1.1806
 5981SOL    MW423658   0.782   4.427   1.523  0.1955 -0.0864 -0.1930
 5982SOL     OW23659   0.426   1.359   1.706  0.1990 -0.5867 -0.2483
 5982SOL    HW223660   0.416   1.303   1.629 -1.3650  0.2213 -0.6730
 5982SOL    HW323661   0.346   1.412   1.708  0.5364 -0.0826  1.5324
 5982SOL    MW423662   0.415   1.359   1.696  0.1090 -0.1631 -0.4458
 5983SOL     OW23663   3.575   4.307   4.793  0.5083 -0.3314 -0.3950
 5983SOL    HW223664   3.483   4.291   4.813  0.6551 -2.6394 -1.2231
 5983SOL    HW323665   3.610   4.220   4.772  2.0548  0.8796 -3.4108
 5983SOL    MW423666   3.568   4.293   4.793 -0.4330  0.2975  0.4688
 5984SOL     OW23667   3.324   1.581   5.745 -0.0880 -0.3496 -0.0358
 5984SOL    HW223668   3.279   1.522   5.684  0.8709  0.3399 -1.4562
 5984SOL    HW323669   3.287   1.667   5.727  0.2158 -0.1369  0.3580
 5984SOL    MW423670   3.313   1.584   5.734 -0.3663 -0.3927  0.2069
 5985SOL     OW23671   4.134   1.056   0.407 -0.1213  0.1859 -0.1373
 5985SOL    HW223672   4.102   1.141   0.377 -0.1834 -0.2523 -1.3855
 5985SOL    HW323673   4.188   1.024   0.335  1.1052 -0.2002  0.9102
 5985SOL    MW423674   4.136   1.063   0.393 -0.0107 -0.7465  0.2457
 5986SOL     OW23675   0.318   3.175   5.516  0.2584 -0.4900  0.2880
 5986SOL    HW223676   0.320   3.161   5.611 -0.8101 -2.1707  0.1120
 5986SOL    HW323677   0.398   3.134   5.485  0.0907 -0.8844  0.3693
 5986SOL    MW423678   0.329   3.168   5.525 -0.0401  0.4304  0.0956
 5987SOL     OW23679   2.217   4.649   0.310 -0.1782  0.5410  0.0917
 5987SOL    HW223680   2.189   4.713   0.244  1.9685  0.8452 -0.6013
 5987SOL    HW323681   2.305   4.677   0.335  0.1303 -1.1592  1.0807
 5987SOL    MW423682   2.224   4.661   0.305  0.6525 -0.5183 -0.5644
 5988SOL     OW23683   3.785   4.582   5.577  0.7272 -0.2041  0.4905
 5988SOL    HW223684   3.742   4.620   5.654  0.4307  0.8957 -0.2026
 5988SOL    HW323685   3.718   4.525   5.539 -0.1637  1.4773 -0.5663
 5988SOL    MW423686   3.770   4.579   5.583  0.1477  0.1754  0.6708
 5989SOL     OW23687   1.020   0.292   4.282 -0.0643  0.1324  0.5566
 5989SOL    HW223688   0.940   0.241   4.271 -1.2779  1.9617  0.4817
 5989SOL    HW323689   0.992   0.383   4.274  2.3080  0.8243 -1.3408
 5989SOL    MW423690   1.006   0.297   4.279  0.8479  0.0501  0.1953
 5990SOL     OW23691   2.354   5.670   0.179  0.3865  0.1770 -0.1942
 5990SOL    HW223692   2.440   5.709   0.194 -0.3150  2.2138 -1.1432
 5990SOL    HW323693   2.314   5.725   0.112 -2.8586  1.2635  2.3437
 5990SOL    MW423694   2.360   5.682   0.172  0.1239 -0.0014 -0.2788
 5991SOL     OW23695   5.881   4.961   5.868 -0.6762  0.1132  0.1579
 5991SOL    HW223696   5.815   4.953   5.937 -0.6635 -0.7800  0.0802
 5991SOL    HW323697   5.911   4.871   5.854  0.8023  0.5361  0.4325
 5991SOL    MW423698   5.876   4.948   5.875 -0.1017  0.3959 -0.3234
 5992SOL     OW23699   0.918   2.675   6.328 -0.5344  0.1271  0.2068
 5992SOL    HW223700   0.904   2.590   6.370 -0.7748  1.9311  4.2549
 5992SOL    HW323701   0.831   2.715   6.326  0.0395  1.5856  1.7712
 5992SOL    MW423702   0.905   2.669   6.333 -0.2229  0.3352 -0.0504
 5993SOL     OW23703   1.834   6.114   0.185  0.1659  0.4559  0.0560
 5993SOL    HW223704   1.766   6.075   0.130 -0.3452  0.6179  0.5649
 5993SOL    HW323705   1.898   6.044   0.197 -0.0526  0.2119 -0.1840
 5993SOL    MW423706   1.834   6.099   0.179  0.0758 -0.4947 -0.1356
 5994SOL     OW23707   4.065   4.181   0.583 -0.4657  0.2519 -0.2740
 5994SOL    HW223708   4.048   4.270   0.550 -0.2010  1.2302  2.0716
 5994SOL    HW323709   4.132   4.192   0.650  0.4310 -1.9215 -0.7130
 5994SOL    MW423710   4.072   4.194   0.587  0.1984 -0.4610  0.1674
 5995SOL     OW23711   1.975   3.362   0.702 -0.2271  0.4082  0.1108
 5995SOL    HW223712   2.051   3.414   0.674 -1.7895  2.5919 -0.3038
 5995SOL    HW323713   1.962   3.386   0.793  0.0035 -0.5475  0.4064
 5995SOL    MW423714   1.983   3.372   0.710 -0.5648  0.3026  0.2712
 5996SOL     OW23715   0.132   0.016   4.633  0.1135  0.0984 -0.0548
 5996SOL    HW223716   0.077  -0.049   4.676  0.4184  0.6988  1.2944
 5996SOL    HW323717   0.209   0.023   4.689  1.4930 -0.5528 -1.7637
 5996SOL    MW423718   0.135   0.008   4.646 -0.5655 -0.6693  0.2593
 5997SOL     OW23719   0.819   3.493   5.536  0.2400 -0.4333  0.0074
 5997SOL    HW223720   0.826   3.562   5.469  2.1481 -0.5636 -0.0021
 5997SOL    HW323721   0.855   3.416   5.494  2.2087 -0.3372  1.3769
 5997SOL    MW423722   0.825   3.492   5.522 -1.1216  0.2041 -0.0645
 5998SOL     OW23723   4.021   0.005   5.014 -0.5816 -0.2207  0.2505
 5998SOL    HW223724   3.948   0.041   5.063  0.7345  1.1457  1.3135
 5998SOL    HW323725   4.072   0.081   4.986  0.1649 -1.0996 -0.9121
 5998SOL    MW423726   4.018   0.020   5.017 -0.0145  0.1309  0.3413
 5999SOL     OW23727   0.142   3.252   0.337  0.1593  0.6472 -0.4622
 5999SOL    HW223728   0.074   3.250   0.405  0.2433 -0.9249 -0.3713
 5999SOL    HW323729   0.224   3.259   0.386  0.2586 -1.0688 -0.3162
 5999SOL    MW423730   0.144   3.252   0.353 -0.1945 -0.4910  0.2072
 6000SOL     OW23731   0.381   1.221   1.467  0.1304 -0.1379 -0.0391
 6000SOL    HW223732   0.292   1.192   1.489  0.7453 -1.0534  1.3690
 6000SOL    HW323733   0.420   1.148   1.420 -0.0917  0.5655 -1.3603
 6000SOL    MW423734   0.374   1.208   1.464 -0.0754 -0.0777  0.1274
 6001SOL     OW23735   3.751   5.762   4.267 -0.3832 -0.1566 -0.7225
 6001SOL    HW223736   3.816   5.726   4.328 -0.7009 -1.9001 -1.3488
 6001SOL    HW323737   3.800   5.822   4.212 -0.1267  1.6947  1.3673
 6001SOL    MW423738   3.766   5.765   4.268  0.2461  0.0218  0.8332
 6002SOL     OW23739   6.167   0.947   2.359  0.2362  0.3025 -0.0106
 6002SOL    HW223740   6.102   1.015   2.375  0.3041  0.0477  1.5372
 6002SOL    HW323741   6.198   0.922   2.446 -0.3495 -2.2610 -0.4572
 6002SOL    MW423742   6.163   0.953   2.373 -0.4486  0.3520  0.0996
 6003SOL     OW23743   0.170   3.145   2.044  0.4508  0.2360 -0.7369
 6003SOL    HW223744   0.111   3.071   2.059 -0.9423  1.4098 -0.1836
 6003SOL    HW323745   0.235   3.138   2.113  0.8471 -0.9566 -1.2159
 6003SOL    MW423746   0.171   3.135   2.055 -0.5858 -0.1674  0.8363
 6004SOL     OW23747   2.326   4.242   5.522 -0.3553 -0.3700 -0.0927
 6004SOL    HW223748   2.316   4.325   5.475  3.7885 -0.1380 -0.9078
 6004SOL    HW323749   2.305   4.175   5.457 -1.9532 -0.0379  0.0382
 6004SOL    MW423750   2.322   4.244   5.507 -0.9519 -0.6175 -0.0840
 6005SOL     OW23751   2.505   3.291   1.968 -0.3883 -0.7345 -0.4409
 6005SOL    HW223752   2.443   3.364   1.968 -1.3537 -1.4919  1.7014
 6005SOL    HW323753   2.476   3.236   1.895  0.5639  1.1026 -2.3207
 6005SOL    MW423754   2.493   3.294   1.958  0.5444 -0.0791  0.1815
 6006SOL     OW23755   5.471   4.916   5.708 -0.5364 -0.1309  0.2311
 6006SOL    HW223756   5.404   4.848   5.706  0.1353 -0.8048  0.3196
 6006SOL    HW323757   5.531   4.892   5.638  0.9299 -0.9271  1.6853
 6006SOL    MW423758   5.470   4.904   5.699  0.8368  0.5846  0.2023
 6007SOL     OW23759   0.228   5.064   6.021 -0.3694  0.1104  0.5417
 6007SOL    HW223760   0.235   5.052   5.926  0.6556 -0.3774  0.6646
 6007SOL    HW323761   0.318   5.053   6.053 -0.2872  2.6339  1.3230
 6007SOL    MW423762   0.241   5.061   6.012  0.1343  0.3198 -0.1720
 6008SOL     OW23763   4.091   3.870   0.134 -0.5971 -0.0209 -0.0031
 6008SOL    HW223764   4.180   3.882   0.102 -0.0099  0.6608  1.7419
 6008SOL    HW323765   4.079   3.939   0.199 -2.4254 -0.0693 -0.2279
 6008SOL    MW423766   4.101   3.880   0.139 -0.6183 -0.3583 -0.0252
 6009SOL     OW23767   1.098   4.761   2.562  0.1138  0.3559 -0.2018
 6009SOL    HW223768   1.051   4.803   2.490 -1.4128  1.9797  1.6464
 6009SOL    HW323769   1.186   4.799   2.559  0.0334  0.5019 -1.0756
 6009SOL    MW423770   1.104   4.771   2.552  0.3854  0.3247 -0.4679
 6010SOL     OW23771   2.209   1.869   0.641  0.0431  0.0082 -0.0559
 6010SOL    HW223772   2.264   1.914   0.578  3.6023 -1.0872  2.0168
 6010SOL    HW323773   2.202   1.929   0.715 -0.2085 -0.5144  0.3508
 6010SOL    MW423774   2.215   1.883   0.642  0.4983  0.1107 -0.2766
 6011SOL     OW23775   1.261   0.706   1.554 -0.2954 -0.6029 -0.0510
 6011SOL    HW223776   1.210   0.787   1.549 -0.9322 -0.7522  2.6078
 6011SOL    HW323777   1.292   0.692   1.465 -0.9258  2.0697 -0.7819
 6011SOL    MW423778   1.258   0.715   1.542 -0.3281  0.4282  0.7609
 6012SOL     OW23779   4.851   5.900   3.912  0.2727 -0.1246 -0.0909
 6012SOL    HW223780   4.784   5.887   3.845  0.0726 -0.4341  0.1642
 6012SOL    HW323781   4.916   5.956   3.871  0.0454 -0.1373 -0.4709
 6012SOL    MW423782   4.851   5.905   3.898  0.0115 -0.0233  0.8110
 6013SOL     OW23783   2.547   1.423   4.671 -0.1183 -0.1169 -0.6801
 6013SOL    HW223784   2.523   1.409   4.763  0.9608 -0.0647 -0.3718
 6013SOL    HW323785   2.464   1.432   4.625 -0.6598  0.6490  0.4144
 6013SOL    MW423786   2.533   1.422   4.677 -0.2637 -0.0643 -0.7586
 6014SOL     OW23787   4.925   5.294   5.403  0.0770 -0.2541 -0.5097
 6014SOL    HW223788   4.978   5.310   5.482  0.3461 -0.3723 -0.6665
 6014SOL    HW323789   4.913   5.200   5.401  0.3738 -0.2865 -0.8055
 6014SOL    MW423790   4.931   5.284   5.413  0.5071  0.1599  0.3147
 6015SOL     OW23791   2.044   3.853   6.189 -0.2698 -1.0573 -0.0694
 6015SOL    HW223792   1.993   3.783   6.147 -0.5796 -0.5848 -0.5036
 6015SOL    HW323793   2.072   3.909   6.116  0.0831 -0.7981  0.2590
 6015SOL    MW423794   2.041   3.851   6.174  0.1161  0.5247 -0.7697
 6016SOL     OW23795   2.125   5.220   0.349  0.0984  0.3877 -0.4284
 6016SOL    HW223796   2.032   5.240   0.338  0.1250  0.6541 -0.1938
 6016SOL    HW323797   2.132   5.186   0.438  0.1538 -0.0744 -0.6088
 6016SOL    MW423798   2.113   5.218   0.359  0.1742 -0.1315 -0.4890
 6017SOL     OW23799   4.532   3.676   2.719  0.1283  0.6069  0.1117
 6017SOL    HW223800   4.569   3.734   2.785 -1.1486  1.6885 -0.0963
 6017SOL    HW323801   4.506   3.598   2.768  1.7530  0.2062  0.4093
 6017SOL    MW423802   4.534   3.673   2.734  0.0848  0.1182  0.5423
 6018SOL     OW23803   1.439   3.389   1.180  0.5973 -0.3962  0.1481
 6018SOL    HW223804   1.470   3.354   1.264 -0.4424 -0.0724  0.6891
 6018SOL    HW323805   1.510   3.371   1.119  2.8390  2.2240  1.7427
 6018SOL    MW423806   1.452   3.382   1.183 -0.5850  0.4080  0.0380
 6019SOL     OW23807   4.558   2.038   3.174  0.1752 -0.0073 -0.1515
 6019SOL    HW223808   4.470   2.025   3.138  0.9794  0.2812 -2.4179
 6019SOL    HW323809   4.585   1.951   3.204 -0.2599 -0.4506 -1.0105
 6019SOL    MW423810   4.550   2.024   3.173  0.5057 -0.2599  0.0284
 6020SOL     OW23811   1.824   4.972   6.223  0.0267  0.1778 -0.2783
 6020SOL    HW223812   1.869   5.046   6.264 -1.9984  0.1600  2.1625
 6020SOL    HW323813   1.894   4.909   6.205  1.7234  2.3250 -1.8555
 6020SOL    MW423814   1.839   4.973   6.226  0.4304  0.4146  0.2582
 6021SOL     OW23815   4.347   2.352   0.334 -0.2952 -0.1576  0.2843
 6021SOL    HW223816   4.389   2.370   0.250  1.5747 -0.3723  1.1386
 6021SOL    HW323817   4.341   2.438   0.377 -0.0993 -0.2276  0.4517
 6021SOL    MW423818   4.352   2.366   0.329  0.1850  0.2923 -0.1091
 6022SOL     OW23819   4.870   1.163   1.508  0.2691 -0.1682  0.6181
 6022SOL    HW223820   4.794   1.109   1.486  0.7884  0.2732 -2.7408
 6022SOL    HW323821   4.833   1.247   1.532 -0.3960  0.3670 -1.9968
 6022SOL    MW423822   4.855   1.167   1.508  0.1249 -0.6660 -0.1437
 6023SOL     OW23823   0.164   0.180   0.058  0.1361  0.1411  0.1822
 6023SOL    HW223824   0.207   0.210   0.138  0.3218  0.4024 -0.0135
 6023SOL    HW323825   0.080   0.226   0.057 -0.2301 -0.4889  0.6457
 6023SOL    MW423826   0.158   0.190   0.069  0.2859 -0.5538 -0.2801
 6024SOL     OW23827   6.126   2.582   2.875 -0.1834  0.2777  0.6903
 6024SOL    HW223828   6.055   2.572   2.811  0.2145  1.8760 -0.0299
 6024SOL    HW323829   6.086   2.630   2.948  0.1608  1.2342  0.2570
 6024SOL    MW423830   6.111   2.587   2.876  0.2285 -0.3692  0.0271
 6025SOL     OW23831   1.258   1.131   4.204 -0.7868 -0.1537  0.0691
 6025SOL    HW223832   1.349   1.101   4.215  0.0763  2.6175  1.3669
 6025SOL    HW323833   1.215   1.059   4.158  2.4046 -1.0232 -1.9236
 6025SOL    MW423834   1.265   1.118   4.200 -0.2883  0.3984  0.0191
 6026SOL     OW23835   2.072   0.649   6.173  0.4171 -0.5889  0.2604
 6026SOL    HW223836   2.077   0.589   6.099 -0.6020 -1.2042  0.6626
 6026SOL    HW323837   2.091   0.735   6.136  0.5481 -0.9714 -0.5850
 6026SOL    MW423838   2.075   0.652   6.159 -0.3330 -0.0819 -0.4905
 6027SOL     OW23839   6.216   0.476   2.010  0.0400  0.1399 -0.1053
 6027SOL    HW223840   6.197   0.558   1.964  1.0154  0.4384  0.0068
 6027SOL    HW323841   6.148   0.416   1.980 -0.3240  0.8082 -0.6640
 6027SOL    MW423842   6.204   0.479   2.000 -0.0684 -0.3856 -0.1171
 6028SOL     OW23843   3.895   4.354   2.394 -0.2449 -0.2157 -0.8304
 6028SOL    HW223844   3.907   4.293   2.467  1.5518 -0.4948 -1.3258
 6028SOL    HW323845   3.894   4.299   2.316  1.3908  0.3407 -1.2836
 6028SOL    MW423846   3.896   4.339   2.393 -0.0086 -0.1477  0.8139
 6029SOL     OW23847   5.059   2.531   4.122  0.8296  0.6396 -0.5527
 6029SOL    HW223848   5.147   2.541   4.158  1.2007 -0.4616 -1.1039
 6029SOL    HW323849   5.057   2.589   4.046  1.2476  0.3179 -0.8140
 6029SOL    MW423850   5.070   2.540   4.117  0.5530  0.4320  0.0536
 6030SOL     OW23851   2.228   0.518   1.323 -0.4826  0.1355  0.5175
 6030SOL    HW223852   2.225   0.589   1.387 -0.5336  0.3237  0.3066
 6030SOL    HW323853   2.164   0.543   1.257 -0.3272  0.0102  0.3193
 6030SOL    MW423854   2.219   0.531   1.323  0.0777  0.5159  0.0227
 6031SOL     OW23855   2.881   3.501   3.362 -0.0633 -0.3260  0.2586
 6031SOL    HW223856   2.825   3.542   3.429  0.8270  3.0689 -0.8900
 6031SOL    HW323857   2.842   3.526   3.279  0.8576 -1.4430 -0.5443
 6031SOL    MW423858   2.868   3.510   3.360  0.1593 -0.1511  0.2168
 6032SOL     OW23859   5.257   1.032   1.364  0.2126 -0.5416  0.0293
 6032SOL    HW223860   5.183   1.091   1.347  0.8851 -0.0491 -1.4020
 6032SOL    HW323861   5.308   1.076   1.431 -1.3816 -1.4591  1.9361
 6032SOL    MW423862   5.254   1.045   1.370 -0.6611  0.2013  0.1734
 6033SOL     OW23863   0.658   1.603   4.521  0.0850 -0.2647  0.3791
 6033SOL    HW223864   0.727   1.667   4.502 -2.4060  2.6113  0.3031
 6033SOL    HW323865   0.661   1.592   4.616 -0.2397  0.9867  0.5515
 6033SOL    MW423866   0.667   1.610   4.531 -0.2362 -0.0409  0.5446
 6034SOL     OW23867   4.897   2.524   2.294 -0.3355 -0.0172  0.0903
 6034SOL    HW223868   4.817   2.549   2.247 -0.3461 -0.1015  0.0638
 6034SOL    HW323869   4.885   2.559   2.382 -0.3899 -0.0062  0.0785
 6034SOL    MW423870   4.885   2.532   2.299 -0.2216 -0.1885 -0.2213
 6035SOL     OW23871   4.722   4.666   3.287 -0.2573  0.1161  0.0695
 6035SOL    HW223872   4.682   4.717   3.357 -0.8366 -0.8789  0.4734
 6035SOL    HW323873   4.760   4.732   3.229 -0.3558  0.9797  0.9567
 6035SOL    MW423874   4.722   4.682   3.289 -0.1589  0.2589  0.2659
 6036SOL     OW23875   0.329   2.593   1.428  0.2348  0.2195 -0.0647
 6036SOL    HW223876   0.417   2.613   1.397  0.0765 -0.1146 -0.7494
 6036SOL    HW323877   0.275   2.667   1.398  0.1071 -0.0381 -0.4783
 6036SOL    MW423878   0.333   2.605   1.420  0.2273  0.1310  0.3730
 6037SOL     OW23879   1.704   0.623   5.169  0.3820 -0.2402 -0.0045
 6037SOL    HW223880   1.792   0.655   5.150  0.1691 -0.6042 -1.8730
 6037SOL    HW323881   1.716   0.530   5.190  0.6766  0.2798  2.3810
 6037SOL    MW423882   1.717   0.615   5.169  0.0175  0.2738  0.2862
 6038SOL     OW23883   5.686   2.984   5.708  0.2026  0.9643  0.5047
 6038SOL    HW223884   5.722   2.922   5.771  0.5438 -0.5673 -1.1061
 6038SOL    HW323885   5.594   2.992   5.731 -0.0433 -0.8287  0.2512
 6038SOL    MW423886   5.679   2.977   5.719 -0.4501 -0.1701 -0.6954
 6039SOL     OW23887   1.058   6.029   3.604 -0.1861  0.0604 -0.4007
 6039SOL    HW223888   1.073   6.078   3.523  1.2786  0.8870  0.3294
 6039SOL    HW323889   1.142   5.985   3.621 -1.1317 -1.9000 -0.4663
 6039SOL    MW423890   1.071   6.029   3.596  0.0975 -0.8240 -0.1933
 6040SOL     OW23891   1.279   2.087   3.708 -0.1549 -0.1269 -0.1562
 6040SOL    HW223892   1.287   2.082   3.612 -0.7210  0.8154 -0.2713
 6040SOL    HW323893   1.368   2.100   3.739  0.0518 -0.5821 -0.5394
 6040SOL    MW423894   1.292   2.088   3.699 -0.2094  0.4166 -0.7370
 6041SOL     OW23895   6.411   0.385   6.170 -0.2310 -0.2041  0.0916
 6041SOL    HW223896   6.506   0.393   6.176 -0.0801 -0.1659 -1.8431
 6041SOL    HW323897   6.385   0.352   6.257  1.4260  0.5851  0.9456
 6041SOL    MW423898   6.420   0.381   6.183 -0.0260  0.7307  0.0071
 6042SOL     OW23899   0.439   0.601   2.077 -0.2154  0.3706 -0.3122
 6042SOL    HW223900   0.356   0.637   2.049  0.1465  1.3204 -0.2144
 6042SOL    HW323901   0.431   0.594   2.173  0.5790  2.6396  0.0036
 6042SOL    MW423902   0.427   0.605   2.086  0.0457  0.4748 -0.2863
 6043SOL     OW23903   1.217   1.469   2.145  0.2186  0.2906 -0.1274
 6043SOL    HW223904   1.138   1.469   2.092  0.6752  1.3547 -0.8389
 6043SOL    HW323905   1.235   1.561   2.163  0.5205 -0.0046  1.2241
 6043SOL    MW423906   1.209   1.481   2.140  0.1796 -0.5776  0.0674
 6044SOL     OW23907   2.648   5.290   6.412 -0.8350 -0.3386  0.3576
 6044SOL    HW223908   2.659   5.385   6.402 -1.1436 -0.0053  2.6656
 6044SOL    HW323909   2.556   5.278   6.434 -1.4197 -1.4871 -2.2557
 6044SOL    MW423910   2.637   5.301   6.413 -0.6706  0.1100  0.1327
 6045SOL     OW23911   0.877   0.849   4.040 -0.5220  0.1835 -0.1641
 6045SOL    HW223912   0.831   0.873   4.120  0.4597 -2.2247  1.2310
 6045SOL    HW323913   0.831   0.772   4.008 -0.3696  0.6088 -1.4574
 6045SOL    MW423914   0.865   0.842   4.047 -0.5864  0.4488  0.1861
 6046SOL     OW23915   4.218   1.219   1.175 -0.4465  0.0033  0.0263
 6046SOL    HW223916   4.166   1.224   1.095  0.5453  0.9110 -0.5926
 6046SOL    HW323917   4.301   1.179   1.147 -0.9678 -1.9733  1.1071
 6046SOL    MW423918   4.222   1.214   1.161  0.2465 -0.0986 -0.5291
 6047SOL     OW23919   3.287   2.126   2.863  0.5414  0.0207  0.3981
 6047SOL    HW223920   3.262   2.033   2.868  0.1810  0.0386 -0.8697
 6047SOL    HW323921   3.214   2.173   2.904  0.7988 -0.2522  1.1945
 6047SOL    MW423922   3.274   2.120   2.869 -0.0809 -0.1411  0.1884
 6048SOL     OW23923   2.606   3.791   3.225 -0.1912 -1.0771 -0.0263
 6048SOL    HW223924   2.550   3.863   3.198  0.6287 -0.2172  0.4844
 6048SOL    HW323925   2.629   3.746   3.144 -1.2059 -1.1472 -0.2884
 6048SOL    MW423926   2.601   3.795   3.211 -0.1619 -0.3456  0.3374
 6049SOL     OW23927   5.645   4.505   1.553 -0.2881 -0.1415 -0.0042
 6049SOL    HW223928   5.552   4.523   1.564 -0.5628 -0.8840 -1.0216
 6049SOL    HW323929   5.655   4.480   1.461  1.1191  1.1334 -0.2544
 6049SOL    MW423930   5.634   4.504   1.542  0.1723  0.9548  0.4870
 6050SOL     OW23931   1.299   3.322   6.167 -0.1671 -0.6954  0.8202
 6050SOL    HW223932   1.283   3.301   6.259 -1.8024 -1.3554  0.4107
 6050SOL    HW323933   1.214   3.311   6.124 -0.7296  4.3283  0.0715
 6050SOL    MW423934   1.286   3.318   6.174  0.0687 -0.5689  0.1699
 6051SOL     OW23935   5.136   4.817   6.179 -0.0187 -0.5609 -0.0502
 6051SOL    HW223936   5.166   4.871   6.252  0.7499 -0.0659 -0.7154
 6051SOL    HW323937   5.081   4.750   6.220  1.1610 -0.8732  1.0847
 6051SOL    MW423938   5.132   4.815   6.194  0.8302  0.1018 -0.2992
 6052SOL     OW23939   2.681   2.971   1.242  0.2678  0.2776  0.5273
 6052SOL    HW223940   2.716   2.976   1.153  0.5404 -0.0612  0.6121
 6052SOL    HW323941   2.728   3.040   1.290 -0.0821  0.6470  0.3455
 6052SOL    MW423942   2.692   2.981   1.237  0.0851 -0.3722 -0.0992
 6053SOL     OW23943   6.038   5.570   0.993  0.1005  0.3040  0.1800
 6053SOL    HW223944   6.108   5.600   0.935  0.3634  1.4911  1.0865
 6053SOL    HW323945   6.080   5.559   1.078 -0.7201  0.6297  0.6431
 6053SOL    MW423946   6.053   5.572   0.997 -0.3810 -0.3222 -0.0443
 6054SOL     OW23947   4.582   1.555   4.067  0.5227 -0.1277 -0.2813
 6054SOL    HW223948   4.533   1.627   4.027  2.0515  0.4355 -1.2370
 6054SOL    HW323949   4.515   1.497   4.102 -0.7820  1.2979 -0.2968
 6054SOL    MW423950   4.567   1.557   4.066 -0.3196  0.8921  0.1859
 6055SOL     OW23951   5.575   5.675   3.394 -0.2825 -0.0861  0.2781
 6055SOL    HW223952   5.587   5.625   3.313  0.6980  0.0980  0.3052
 6055SOL    HW323953   5.490   5.646   3.426 -0.0979 -1.1440 -0.1289
 6055SOL    MW423954   5.565   5.665   3.387 -0.0635 -0.2879 -0.1977
 6056SOL     OW23955   0.019   1.905   2.790  0.0799  0.2495  0.1168
 6056SOL    HW223956   0.042   1.895   2.698  0.2495  0.3016  0.1528
 6056SOL    HW323957   0.037   1.997   2.810  0.1823  0.2030  0.2402
 6056SOL    MW423958   0.024   1.916   2.781  0.0349 -0.1188  0.6299
 6057SOL     OW23959   1.829   2.908   1.620  0.3223 -0.4158  0.2673
 6057SOL    HW223960   1.867   2.963   1.688 -1.5096 -1.2886  2.0806
 6057SOL    HW323961   1.735   2.928   1.621 -0.0605 -1.9500 -0.5462
 6057SOL    MW423962   1.822   2.918   1.629 -0.5662  0.5685  0.2941
 6058SOL     OW23963   6.433   4.940   6.161 -0.2718 -0.7227  0.4572
 6058SOL    HW223964   6.497   4.986   6.107 -1.4784  0.8965  0.3226
 6058SOL    HW323965   6.482   4.871   6.204  1.2702 -0.3702 -0.6669
 6058SOL    MW423966   6.448   4.937   6.160 -0.5438 -0.0641 -0.3883
 6059SOL     OW23967   1.550   6.334   5.367  1.0728  0.2541  0.0807
 6059SOL    HW223968   1.527   6.384   5.445  3.5255  0.4586  0.7483
 6059SOL    HW323969   1.599   6.395   5.312  1.8932 -0.7005 -0.2808
 6059SOL    MW423970   1.553   6.349   5.370  0.8007 -0.2898 -0.4904
 6060SOL     OW23971   4.279   2.780   0.250  0.4573  0.1142 -0.0440
 6060SOL    HW223972   4.333   2.841   0.300  0.7460 -0.1766  0.0017
 6060SOL    HW323973   4.256   2.712   0.313  1.2276 -0.5095 -0.4243
 6060SOL    MW423974   4.283   2.779   0.265 -0.1167 -0.6604 -0.2401
 6061SOL     OW23975   2.645   0.917   3.793  0.0353  0.1486 -0.8524
 6061SOL    HW223976   2.673   0.844   3.848 -0.5668  0.8274  0.3811
 6061SOL    HW323977   2.684   0.898   3.707  2.3133 -0.1420  0.1670
 6061SOL    MW423978   2.654   0.905   3.789 -0.3041 -0.1023  0.0878
 6062SOL     OW23979   4.418   4.927   3.793  0.1857  0.0036 -0.2396
 6062SOL    HW223980   4.366   4.933   3.873  1.7125  1.5374  0.7244
 6062SOL    HW323981   4.368   4.978   3.728  0.6020  1.8189  0.7834
 6062SOL    MW423982   4.404   4.935   3.795  0.3358  0.0980 -0.2964
 6063SOL     OW23983   4.921   4.250   0.672  0.6520 -0.0607  0.3706
 6063SOL    HW223984   4.906   4.296   0.590 -2.3541 -1.6091 -0.0786
 6063SOL    HW323985   5.013   4.266   0.692  1.7359 -0.2110 -3.6735
 6063SOL    MW423986   4.931   4.258   0.664 -0.8602 -0.1216 -0.3092
 6064SOL     OW23987   1.489   1.066   3.729  0.0811  0.3154 -0.9616
 6064SOL    HW223988   1.538   1.038   3.652  0.8699 -0.3396 -0.2297
 6064SOL    HW323989   1.459   1.155   3.707  0.0834  0.0511 -2.1105
 6064SOL    MW423990   1.491   1.074   3.716  0.1984 -0.4542  0.2910
 6065SOL     OW23991   0.893   4.684   1.055  0.5881 -0.2372  0.0392
 6065SOL    HW223992   0.826   4.749   1.037  1.1745  0.6546  0.9860
 6065SOL    HW323993   0.854   4.627   1.121  0.2735 -0.5367 -0.3986
 6065SOL    MW423994   0.879   4.685   1.062 -0.1383  0.0505 -0.1579
 6066SOL     OW23995   2.089   0.910   2.893 -0.0910  0.2525 -0.2743
 6066SOL    HW223996   2.028   0.959   2.949  0.2125 -1.2021  1.4103
 6066SOL    HW323997   2.035   0.844   2.850 -0.1106  0.5762 -0.7557
 6066SOL    MW423998   2.074   0.908   2.895 -0.0123 -0.1221  0.0436
 6067SOL     OW23999   2.103   1.126   5.504 -0.2521  0.5227  0.1277
 6067SOL    HW224000   2.020   1.147   5.547  0.0431  1.5440  0.2235
 6067SOL    HW324001   2.103   1.030   5.499 -1.5514  0.5089 -0.1162
 6067SOL    MW424002   2.092   1.116   5.509 -0.2440 -1.1885  0.1458
 6068SOL     OW24003   4.936   2.591   0.499  0.5154 -0.1389 -0.0288
 6068SOL    HW224004   4.946   2.679   0.463 -1.2075  1.0278  2.1029
 6068SOL    HW324005   5.001   2.585   0.569  1.3131 -0.9825 -0.8102
 6068SOL    MW424006   4.946   2.602   0.503 -0.2625 -0.1330  0.1374
 6069SOL     OW24007   3.991   5.727   3.884  0.1478 -0.6106 -0.4195
 6069SOL    HW224008   3.950   5.662   3.941  0.6938 -1.3079 -0.8069
 6069SOL    HW324009   3.923   5.751   3.822 -0.4978  0.2563  0.5886
 6069SOL    MW424010   3.977   5.722   3.883  0.1329 -0.0897  0.6428
 6070SOL     OW24011   3.912   2.092   4.759  0.0604 -0.1441 -0.6526
 6070SOL    HW224012   3.823   2.080   4.727  0.0128 -1.7471 -0.0448
 6070SOL    HW324013   3.960   2.130   4.685 -1.0244  0.3837 -1.1084
 6070SOL    MW424014   3.907   2.095   4.745  0.0523 -0.2664  0.1030
 6071SOL     OW24015   6.238   1.051   0.817  0.1503  0.3443  0.5002
 6071SOL    HW224016   6.175   1.088   0.755  1.9748  0.1305 -1.5879
 6071SOL    HW324017   6.317   1.103   0.806  0.1954  1.2100  3.7346
 6071SOL    MW424018   6.240   1.062   0.808  0.0745  0.3048 -0.1467
 6072SOL     OW24019   2.249   1.731   2.317 -0.2544  0.2016 -0.5990
 6072SOL    HW224020   2.345   1.732   2.326 -0.2542 -0.3322 -0.5015
 6072SOL    HW324021   2.222   1.818   2.348  0.0636 -0.2477  1.0740
 6072SOL    MW424022   2.258   1.743   2.322 -0.8987 -0.6656  0.0602
 6073SOL     OW24023   0.763   2.810   4.536 -0.2321  0.5612 -0.0349
 6073SOL    HW224024   0.738   2.762   4.456 -1.1667  2.8829 -1.2155
 6073SOL    HW324025   0.838   2.863   4.510  0.6927 -0.0771  1.2149
 6073SOL    MW424026   0.770   2.810   4.522  0.4119 -0.7176  0.0664
 6074SOL     OW24027   4.623   4.107   4.775  0.5473  0.0009 -0.4863
 6074SOL    HW224028   4.601   4.042   4.841 -0.0497 -0.9684 -1.5983
 6074SOL    HW324029   4.718   4.101   4.766  0.3419 -2.4196 -2.1714
 6074SOL    MW424030   4.633   4.098   4.782  0.0191 -0.1969 -0.7207
 6075SOL     OW24031   2.109   3.670   1.945 -0.4275 -0.2820 -0.4443
 6075SOL    HW224032   2.024   3.676   1.988 -1.0771  1.9825 -1.8360
 6075SOL    HW324033   2.172   3.697   2.012 -1.0470  0.0349  0.0229
 6075SOL    MW424034   2.106   3.674   1.959  0.2651  0.1943  0.6194
 6076SOL     OW24035   3.476   5.393   4.099  0.2357  0.1016 -0.3505
 6076SOL    HW224036   3.512   5.431   4.019 -1.3405  0.4411 -0.9476
 6076SOL    HW324037   3.382   5.409   4.092  0.0162 -0.2835  1.3593
 6076SOL    MW424038   3.468   5.400   4.087 -0.4460 -0.1757 -0.0274
 6077SOL     OW24039   3.343   4.522   5.281  0.2862 -0.1080 -0.0432
 6077SOL    HW224040   3.423   4.532   5.229  0.8000 -0.4430  0.6535
 6077SOL    HW324041   3.297   4.605   5.271  1.6324  0.8062  1.0126
 6077SOL    MW424042   3.348   4.534   5.273 -0.0799  0.3341 -0.2714
 6078SOL     OW24043   3.795   3.287   3.904  0.3575 -0.4455 -0.0047
 6078SOL    HW224044   3.814   3.239   3.824  0.8313 -2.1710  1.1027
 6078SOL    HW324045   3.718   3.245   3.941  1.0281 -0.6876  1.2021
 6078SOL    MW424046   3.788   3.275   3.899  0.0825 -0.1694  0.4633
 6079SOL     OW24047   0.403   1.298   4.033 -0.3538 -0.3917  0.4538
 6079SOL    HW224048   0.480   1.300   4.091 -0.4402 -2.0199  0.6714
 6079SOL    HW324049   0.346   1.367   4.067  0.5548  0.1537  0.9264
 6079SOL    MW424050   0.406   1.307   4.045  0.1777  0.7203 -0.4107
 6080SOL     OW24051   0.755   1.325   4.547 -0.1958  0.2973  0.1053
 6080SOL    HW224052   0.697   1.252   4.571  2.0090 -1.9650 -1.0519
 6080SOL    HW324053   0.695   1.395   4.520 -2.4733 -0.1793  3.3648
 6080SOL    MW424054   0.739   1.325   4.546  0.3331  0.2712  0.5269
 6081SOL     OW24055   5.525   2.316   6.175  0.2832 -0.3072 -0.3068
 6081SOL    HW224056   5.430   2.307   6.170  0.3228 -0.6356 -0.4615
 6081SOL    HW324057   5.555   2.304   6.086  0.5310 -0.9429 -0.1430
 6081SOL    MW424058   5.516   2.313   6.163  0.4526  0.9044 -0.1777
 6082SOL     OW24059   4.672   3.653   4.613 -0.0981  0.5193 -0.0724
 6082SOL    HW224060   4.683   3.662   4.519  0.9008  0.3171  0.0170
 6082SOL    HW324061   4.705   3.566   4.634 -1.9926 -0.1727  0.2356
 6082SOL    MW424062   4.678   3.643   4.604 -0.3077 -0.3362 -0.5396
 6083SOL     OW24063   5.666   3.114   2.328  0.0889 -0.6605  0.6880
 6083SOL    HW224064   5.598   3.047   2.337  1.3186 -1.8053  2.0532
 6083SOL    HW324065   5.720   3.084   2.254  0.5879 -1.1633  1.2435
 6083SOL    MW424066   5.664   3.101   2.319 -0.2405 -0.2863 -0.3612
 6084SOL     OW24067   2.175   0.228   5.683 -0.5423 -0.1133  0.5201
 6084SOL    HW224068   2.239   0.158   5.669 -0.3158 -0.6135  3.5484
 6084SOL    HW324069   2.218   0.289   5.742 -0.6133  2.9349 -2.2618
 6084SOL    MW424070   2.189   0.226   5.689 -0.0122 -0.3582  0.2857
 6085SOL     OW24071   0.469   2.564   5.122 -0.2258 -0.0110 -0.3631
 6085SOL    HW224072   0.420   2.531   5.046  2.5819 -0.1308 -2.2844
 6085SOL    HW324073   0.547   2.509   5.126 -0.8686 -0.9523  3.6052
 6085SOL    MW424074   0.472   2.553   5.113  0.2188  0.3794 -0.2491
 6086SOL     OW24075   1.497   3.697   1.762  0.1866  0.6612  0.0986
 6086SOL    HW224076   1.524   3.607   1.779  0.0189  0.8900  1.7983
 6086SOL    HW324077   1.424   3.689   1.701  1.5737 -0.1859 -1.5449
 6086SOL    MW424078   1.491   3.684   1.756 -0.4883  0.3907  0.3379
 6087SOL     OW24079   4.247   0.866   0.203 -0.5290 -0.1329  0.3273
 6087SOL    HW224080   4.343   0.857   0.197 -0.5771  0.3166 -1.5299
 6087SOL    HW324081   4.213   0.802   0.141 -1.3651  0.8014 -0.2040
 6087SOL    MW424082   4.255   0.856   0.194  0.4745  0.6659 -0.4777
 6088SOL     OW24083   1.738   2.629   2.911 -0.1472  0.2577  0.3307
 6088SOL    HW224084   1.726   2.572   2.987 -0.4265 -0.4691 -0.2422
 6088SOL    HW324085   1.672   2.697   2.921  1.3257  1.5398  1.9416
 6088SOL    MW424086   1.728   2.630   2.922  0.3447  0.1580  0.1225
 6089SOL     OW24087   4.221   5.892   0.567 -0.1281  0.7560 -0.5057
 6089SOL    HW224088   4.197   5.806   0.531  0.7181 -0.0125  0.6868
 6089SOL    HW324089   4.172   5.955   0.514  1.5249 -0.2463 -3.4386
 6089SOL    MW424090   4.211   5.889   0.555  0.1863  0.2247  0.0915
 6090SOL     OW24091   4.894   6.137   6.414 -0.6178 -0.7205  0.4883
 6090SOL    HW224092   4.895   6.073   6.343 -1.2769 -0.8756  0.6106
 6090SOL    HW324093   4.807   6.177   6.409 -0.4352 -0.2713  0.8003
 6090SOL    MW424094   4.883   6.134   6.404 -0.6957 -0.2512 -0.1037
 6091SOL     OW24095   0.849   3.170   2.881 -0.0663  0.1714 -0.2356
 6091SOL    HW224096   0.784   3.101   2.866  1.2726 -0.8141 -1.9722
 6091SOL    HW324097   0.859   3.212   2.795  1.5144  0.3332 -0.0025
 6091SOL    MW424098   0.842   3.166   2.868 -0.0456  0.3895  0.0365
 6092SOL     OW24099   5.771   5.063   0.519  0.5936 -0.1986  0.9142
 6092SOL    HW224100   5.747   4.996   0.455  0.1066  1.1238 -0.3398
 6092SOL    HW324101   5.866   5.055   0.528  0.6612 -0.4172  0.0344
 6092SOL    MW424102   5.781   5.053   0.512 -0.0501 -0.3838 -0.7369
 6093SOL     OW24103   2.405   0.769   2.615 -0.3843 -0.5157  0.4307
 6093SOL    HW224104   2.488   0.766   2.662  1.0297  0.9133 -1.8096
 6093SOL    HW324105   2.418   0.714   2.538 -0.4830  1.8029 -1.3457
 6093SOL    MW424106   2.418   0.762   2.611  0.6074  0.8623 -0.3614
 6094SOL     OW24107   2.456   3.063   3.507 -0.4518  0.4505  0.5159
 6094SOL    HW224108   2.518   3.035   3.440 -0.2148 -0.2464  1.0201
 6094SOL    HW324109   2.370   3.041   3.470 -0.2642 -1.3595  1.0547
 6094SOL    MW424110   2.453   3.057   3.493  0.3210 -0.0407  0.8011
 6095SOL     OW24111   5.284   1.962   1.707  0.5184  0.4664  0.2601
 6095SOL    HW224112   5.201   1.983   1.664  0.6526  1.3073  0.3871
 6095SOL    HW324113   5.340   1.932   1.636 -0.4271 -1.9427  0.4203
 6095SOL    MW424114   5.280   1.961   1.692  0.6846  0.7977  0.0874
 6096SOL     OW24115   6.246   5.296   4.019 -0.5586  0.0004  0.1015
 6096SOL    HW224116   6.264   5.263   4.107  0.0171  0.0941  0.0262
 6096SOL    HW324117   6.332   5.296   3.976 -0.2088  3.0361  0.5742
 6096SOL    MW424118   6.260   5.292   4.025  0.6087  0.2301  0.4844
 6097SOL     OW24119   2.845   3.930   3.298  0.2383  0.0688  0.0249
 6097SOL    HW224120   2.764   3.886   3.272  1.3664 -2.1431  0.0750
 6097SOL    HW324121   2.876   3.882   3.374  1.2161  1.3851  0.5020
 6097SOL    MW424122   2.838   3.918   3.304  0.0773  0.3052  0.0735
 6098SOL     OW24123   1.812   5.557   5.763 -0.1245  0.4427 -0.0184
 6098SOL    HW224124   1.897   5.527   5.731  0.1451  1.0933  0.0826
 6098SOL    HW324125   1.749   5.501   5.717  0.3887 -0.8490  0.7904
 6098SOL    MW424126   1.815   5.546   5.752  0.0220 -0.6022 -0.3444
 6099SOL     OW24127   4.019   2.711   2.855 -0.5241 -0.4672  0.1325
 6099SOL    HW224128   3.931   2.715   2.819 -1.7166  1.3988  2.8986
 6099SOL    HW324129   4.074   2.754   2.789 -1.9759 -0.1733 -0.9311
 6099SOL    MW424130   4.015   2.717   2.841 -0.7801  0.4843 -0.0145
 6100SOL     OW24131   2.659   5.272   4.449  0.0701 -0.2573  0.5233
 6100SOL    HW224132   2.677   5.332   4.377  0.1057  0.3023  0.9915
 6100SOL    HW324133   2.673   5.185   4.412  0.4522  0.0396 -0.0408
 6100SOL    MW424134   2.663   5.268   4.435 -0.0463  0.2896 -0.5644
 6101SOL     OW24135   6.258   0.650   1.355 -0.6635 -0.6544 -0.4889
 6101SOL    HW224136   6.349   0.665   1.328 -1.4074  0.3810 -2.5998
 6101SOL    HW324137   6.225   0.737   1.377 -0.5723 -1.2646  2.4986
 6101SOL    MW424138   6.266   0.663   1.354 -0.2545  0.3709 -0.0078
 6102SOL     OW24139   3.914   6.031   3.695 -0.2043 -0.1268  0.1043
 6102SOL    HW224140   3.964   6.102   3.735 -1.1537 -0.2176  1.5333
 6102SOL    HW324141   3.823   6.060   3.698 -0.6134 -1.3968  0.7501
 6102SOL    MW424142   3.909   6.044   3.701  0.5181 -0.1784  0.0675
 6103SOL     OW24143   4.842   0.511   5.104  0.7202  0.2589 -0.0867
 6103SOL    HW224144   4.807   0.424   5.125 -0.6439  0.4055 -1.4735
 6103SOL    HW324145   4.838   0.560   5.186  0.0198 -0.5318  0.3665
 6103SOL    MW424146   4.836   0.506   5.117  0.3853  0.0154  0.4066
 6104SOL     OW24147   6.353   3.525   5.532 -0.1396 -0.1943 -0.4790
 6104SOL    HW224148   6.443   3.501   5.552  0.0464  1.2579  0.5914
 6104SOL    HW324149   6.349   3.530   5.437  0.6858 -1.0374 -0.5663
 6104SOL    MW424150   6.364   3.523   5.522  0.2325  0.1313 -0.2422
 6105SOL     OW24151   4.765   2.614   3.869  0.3435  0.3439  0.0569
 6105SOL    HW224152   4.718   2.696   3.885  0.9421  0.3649  2.0406
 6105SOL    HW324153   4.799   2.623   3.780  0.1485  2.1222  0.1164
 6105SOL    MW424154   4.763   2.626   3.860 -0.0838  0.0887 -0.8985
 6106SOL     OW24155   1.259   2.131   2.100  0.0012  0.1846  0.3074
 6106SOL    HW224156   1.210   2.113   2.181  1.0059  2.6470  1.5999
 6106SOL    HW324157   1.238   2.222   2.080  1.3968  0.2503 -1.0172
 6106SOL    MW424158   1.250   2.141   2.108  0.1749 -0.8598  0.3652
 6107SOL     OW24159   0.737   5.670   4.266 -0.1706 -0.0505  0.2987
 6107SOL    HW224160   0.760   5.593   4.215 -0.7846  1.0915 -1.8261
 6107SOL    HW324161   0.641   5.671   4.266 -0.1694  0.8254  0.1049
 6107SOL    MW424162   0.727   5.660   4.259 -0.1060  0.3487 -0.2224
 6108SOL     OW24163   3.942   0.814   1.721 -0.0656  0.7739 -0.3473
 6108SOL    HW224164   3.993   0.873   1.776 -1.0673  0.2020  1.2547
 6108SOL    HW324165   4.006   0.771   1.665  1.4015 -0.7967  2.3789
 6108SOL    MW424166   3.957   0.816   1.721 -0.1107  0.1299 -0.9045
 6109SOL     OW24167   0.943   0.345   3.749 -0.1351 -0.3252 -0.0264
 6109SOL    HW224168   0.911   0.390   3.670  1.1076  2.6291  0.9975
 6109SOL    HW324169   1.024   0.302   3.721  0.0623  0.3283 -0.4948
 6109SOL    MW424170   0.949   0.345   3.735 -0.6549  0.0594 -0.5195
 6110SOL     OW24171   0.650   4.999   1.974  0.5698  0.0175  0.4073
 6110SOL    HW224172   0.630   4.982   1.882 -0.3501 -2.2967  0.9807
 6110SOL    HW324173   0.600   5.078   1.995  0.9193  0.6647 -1.0890
 6110SOL    MW424174   0.641   5.007   1.965  0.3261  0.0350 -0.0048
 6111SOL     OW24175   3.454   2.131   4.804  0.0129 -0.7055 -0.8577
 6111SOL    HW224176   3.379   2.110   4.748 -1.9486 -0.1258  1.3877
 6111SOL    HW324177   3.429   2.213   4.847  3.1153  0.9501 -1.9196
 6111SOL    MW424178   3.441   2.139   4.802  0.3526  0.0596 -0.4692
 6112SOL     OW24179   1.968   6.090   5.985  0.0490 -0.3769 -0.2406
 6112SOL    HW224180   1.968   6.174   5.939  0.6791 -0.3770 -0.2503
 6112SOL    HW324181   2.017   6.031   5.927 -0.2620 -0.7083 -0.1654
 6112SOL    MW424182   1.975   6.093   5.971  0.7716 -0.0193  0.4620
 6113SOL     OW24183   0.021   2.567   3.386 -0.2342 -0.1165 -0.0466
 6113SOL    HW224184  -0.042   2.502   3.417 -0.1440  0.5831  1.7286
 6113SOL    HW324185  -0.031   2.630   3.336 -0.7968 -0.0753  0.5716
 6113SOL    MW424186   0.006   2.567   3.383  0.0742 -0.1084 -0.4124
 6114SOL     OW24187   3.162   2.072   5.280 -0.4713  0.0606  0.0882
 6114SOL    HW224188   3.103   2.021   5.336  0.3470  0.4561  1.3434
 6114SOL    HW324189   3.106   2.138   5.240 -0.6361  1.6121  2.6805
 6114SOL    MW424190   3.147   2.074   5.282  0.5435 -0.4137 -0.5946
 6115SOL     OW24191   3.326   2.224   2.087 -0.0117  0.2568  0.3791
 6115SOL    HW224192   3.346   2.243   2.179  1.2997  0.7907  0.0065
 6115SOL    HW324193   3.231   2.236   2.080  0.0674  1.7224  1.3284
 6115SOL    MW424194   3.316   2.228   2.098 -0.6455 -0.2762 -0.2241
 6116SOL     OW24195   3.628   4.447   2.430  0.6741  0.7869  0.0595
 6116SOL    HW224196   3.600   4.467   2.519 -0.5490 -0.2650 -0.0665
 6116SOL    HW324197   3.720   4.424   2.438  0.5970  0.8083  1.0334
 6116SOL    MW424198   3.636   4.447   2.443  0.0236  0.0849  0.4618
 6117SOL     OW24199   0.463   3.313   1.092 -0.5136 -0.0831  0.3266
 6117SOL    HW224200   0.389   3.312   1.152  0.1742  1.5632  1.2823
 6117SOL    HW324201   0.454   3.395   1.044  0.1349 -0.3488 -0.2652
 6117SOL    MW424202   0.452   3.324   1.093 -1.2456  0.3823 -0.1207
 6118SOL     OW24203   3.475   3.410   3.493  0.1529 -0.3334 -0.5017
 6118SOL    HW224204   3.568   3.406   3.470  0.5779 -0.4876  1.1442
 6118SOL    HW324205   3.468   3.484   3.554 -1.0145  0.3765 -1.4395
 6118SOL    MW424206   3.486   3.420   3.498  0.3729  0.0947  0.2644
 6119SOL     OW24207   2.014   4.746   6.257 -0.2619 -0.4860  0.0960
 6119SOL    HW224208   2.101   4.746   6.217  0.3894 -2.3550  1.3603
 6119SOL    HW324209   2.029   4.769   6.349 -1.4783  1.7717 -0.1952
 6119SOL    MW424210   2.027   4.749   6.264 -0.5367  0.5434 -0.1163
 6120SOL     OW24211   2.903   0.817   2.066  0.6137 -0.1043  0.2486
 6120SOL    HW224212   2.887   0.738   2.118  0.2637 -0.0785  0.1788
 6120SOL    HW324213   2.881   0.889   2.125  1.6548 -0.0306  0.5721
 6120SOL    MW424214   2.898   0.816   2.081  0.4541 -0.1736  0.1913
 6121SOL     OW24215   1.612   0.311   2.298  0.6627 -0.5257 -0.0929
 6121SOL    HW224216   1.608   0.368   2.221 -0.3773  0.9903  1.0301
 6121SOL    HW324217   1.521   0.285   2.313  0.6511  0.2767  1.3773
 6121SOL    MW424218   1.600   0.315   2.289 -0.5684 -0.0482  0.6988
 6122SOL     OW24219   4.696   6.152   4.615 -0.0775 -0.5369  0.1221
 6122SOL    HW224220   4.644   6.072   4.627 -2.0526  0.4223 -1.3817
 6122SOL    HW324221   4.711   6.156   4.520 -0.0290  0.8697  0.1746
 6122SOL    MW424222   4.691   6.142   4.604 -0.1427 -0.2141 -0.1799
 6123SOL     OW24223   4.926   2.576   0.077 -0.3452 -0.0301 -0.0503
 6123SOL    HW224224   4.979   2.527   0.139  1.0629  1.1448 -0.2724
 6123SOL    HW324225   4.912   2.516   0.005  1.4332 -0.1292 -0.3664
 6123SOL    MW424226   4.931   2.562   0.076  0.6506  0.0768  0.2016
 6124SOL     OW24227   5.926   4.010   4.074 -0.0538  0.1040 -0.8521
 6124SOL    HW224228   6.013   4.026   4.037  0.6056  0.1074  0.6232
 6124SOL    HW324229   5.935   3.927   4.120 -0.9619 -0.0967 -1.0243
 6124SOL    MW424230   5.939   4.001   4.075  0.3888  0.7687 -0.2536
 6125SOL     OW24231   4.312   6.121   1.888  0.5468  0.0651  0.3808
 6125SOL    HW224232   4.220   6.145   1.882  0.5983  0.1888  0.0607
 6125SOL    HW324233   4.334   6.087   1.801  1.0830  1.0519  0.1219
 6125SOL    MW424234   4.303   6.120   1.876  0.1740 -0.5037  0.4463
 6126SOL     OW24235   0.828   1.090   3.964 -0.0829 -0.7835 -0.3680
 6126SOL    HW224236   0.858   1.005   3.996  1.3812 -0.0796  0.2557
 6126SOL    HW324237   0.903   1.124   3.915 -1.1308 -0.4120 -1.7603
 6126SOL    MW424238   0.842   1.083   3.962 -0.0563 -0.2829 -0.1091
 6127SOL     OW24239   4.816   2.790   5.738 -0.1244 -0.0563  0.2565
 6127SOL    HW224240   4.818   2.731   5.663  0.0335 -1.5164  1.3579
 6127SOL    HW324241   4.902   2.831   5.740  1.1842 -2.6576  1.6072
 6127SOL    MW424242   4.827   2.788   5.728 -0.5248 -0.2893  0.1529
 6128SOL     OW24243   5.748   0.869   5.574 -0.5075  0.1141  0.5050
 6128SOL    HW224244   5.704   0.787   5.594 -0.5684  0.0728  0.2144
 6128SOL    HW324245   5.823   0.871   5.634 -1.9430  1.0982  2.3412
 6128SOL    MW424246   5.752   0.858   5.584  0.0231  0.0870  0.5357
 6129SOL     OW24247   4.377   1.613   5.410  0.4970  0.3266 -0.3167
 6129SOL    HW224248   4.425   1.585   5.488  1.4094  1.0956 -0.5799
 6129SOL    HW324249   4.446   1.637   5.347 -0.2343  0.7563 -0.9672
 6129SOL    MW424250   4.393   1.612   5.412  0.7922 -0.0994 -0.5895
 6130SOL     OW24251   4.273   1.593   2.694 -0.5777 -0.2826 -0.9837
 6130SOL    HW224252   4.369   1.592   2.691 -0.5653 -1.2116 -0.8487
 6130SOL    HW324253   4.252   1.560   2.782 -1.0118 -0.9792 -1.3364
 6130SOL    MW424254   4.283   1.588   2.705  0.1536  0.3627 -0.3816
 6131SOL     OW24255   5.302   1.437   2.135 -0.1091 -0.6261  0.7864
 6131SOL    HW224256   5.342   1.516   2.170  1.0778 -0.9213  0.1507
 6131SOL    HW324257   5.351   1.365   2.176 -1.7777 -1.1031  2.0951
 6131SOL    MW424258   5.313   1.438   2.145  0.1853 -0.1304  0.5323
 6132SOL     OW24259   5.373   2.649   5.262  0.2809 -0.3878  0.3637
 6132SOL    HW224260   5.418   2.584   5.208  1.6040  0.8638 -0.1142
 6132SOL    HW324261   5.297   2.675   5.211 -1.0870 -2.5486  1.1883
 6132SOL    MW424262   5.369   2.644   5.248  0.2305  0.2431  0.1819
 6133SOL     OW24263   2.388   2.464   2.846 -0.1419  0.4253 -0.1302
 6133SOL    HW224264   2.350   2.468   2.759  0.9825  3.0542 -0.6025
 6133SOL    HW324265   2.318   2.429   2.901 -1.1054 -0.6522 -1.9369
 6133SOL    MW424266   2.374   2.460   2.842 -0.2623 -0.1870  0.1822
 6134SOL     OW24267   3.273   3.820   2.894  0.0926 -0.1469  0.8934
 6134SOL    HW224268   3.248   3.728   2.885 -2.4462  0.6038 -0.8104
 6134SOL    HW324269   3.270   3.836   2.988  2.1268 -2.1231  1.3891
 6134SOL    MW424270   3.269   3.810   2.905 -0.5114  0.2270 -0.4048
 6135SOL     OW24271   3.350   3.006   0.295  0.2969 -0.0605 -0.0370
 6135SOL    HW224272   3.287   3.013   0.367 -0.3190  0.4508 -0.6127
 6135SOL    HW324273   3.431   2.977   0.337  0.1680  0.9699  0.9812
 6135SOL    MW424274   3.352   3.003   0.310 -0.0655 -0.5156 -0.3719
 6136SOL     OW24275   4.113   2.885   1.642 -0.5039  0.0594  0.6075
 6136SOL    HW224276   4.186   2.895   1.581 -1.2174  0.1381 -0.2694
 6136SOL    HW324277   4.079   2.797   1.624  0.2935 -0.5719  2.0737
 6136SOL    MW424278   4.118   2.875   1.631 -0.6559 -0.1700 -0.3284
 6137SOL     OW24279   0.568   1.590   2.313  0.4279  0.2616  0.0778
 6137SOL    HW224280   0.589   1.571   2.405  0.2432  1.0748  0.3003
 6137SOL    HW324281   0.487   1.542   2.297  2.2179 -2.7481 -0.7288
 6137SOL    MW424282   0.560   1.581   2.323 -0.5854  0.2706  0.2765
 6138SOL     OW24283   4.350   3.735   0.863  0.3562  0.1050  0.0162
 6138SOL    HW224284   4.270   3.682   0.856 -0.8011  1.9682 -2.7164
 6138SOL    HW324285   4.347   3.771   0.951 -0.9944 -1.0921  0.5025
 6138SOL    MW424286   4.339   3.733   0.874 -0.5765 -0.0974 -0.6977
 6139SOL     OW24287   1.585   2.551   0.215  0.2635 -0.0085  0.5867
 6139SOL    HW224288   1.514   2.523   0.158  0.5346 -1.9623  1.1562
 6139SOL    HW324289   1.605   2.640   0.186 -1.0226 -0.1753 -0.9324
 6139SOL    MW424290   1.578   2.559   0.203 -0.0242 -0.0543 -0.4151
 6140SOL     OW24291   1.413   4.638   1.386 -0.0375 -0.3145  0.4794
 6140SOL    HW224292   1.450   4.648   1.298 -0.1891 -0.0810  0.4395
 6140SOL    HW324293   1.445   4.554   1.416 -2.7600 -2.1257 -1.1759
 6140SOL    MW424294   1.422   4.628   1.378 -0.2006 -0.0907 -0.6181
 6141SOL     OW24295   6.382   3.150   6.275  0.0707 -0.3444 -0.1235
 6141SOL    HW224296   6.382   3.201   6.355  0.0918 -0.1775 -0.2300
 6141SOL    HW324297   6.294   3.160   6.239 -0.3745 -1.5297  0.5842
 6141SOL    MW424298   6.370   3.158   6.281 -0.2169 -0.2010  0.4264
 6142SOL     OW24299   2.110   2.012   3.457 -0.3605  0.4197 -0.2957
 6142SOL    HW224300   2.167   2.006   3.380  0.8472 -0.4052  0.6381
 6142SOL    HW324301   2.050   2.084   3.436  0.4446  0.7257 -1.6783
 6142SOL    MW424302   2.109   2.021   3.444 -0.0697 -0.7448 -0.6307
 6143SOL     OW24303   2.756   3.826   5.249 -0.4529  0.3729  0.0993
 6143SOL    HW224304   2.726   3.736   5.238  0.7469  0.0206 -0.4724
 6143SOL    HW324305   2.851   3.819   5.255 -0.3839  1.5490  0.7232
 6143SOL    MW424306   2.764   3.813   5.248 -0.6655  0.4052  0.0286
 6144SOL     OW24307   1.223   4.483   6.214  0.3817  0.1667 -0.0623
 6144SOL    HW224308   1.254   4.529   6.292 -0.6426 -0.4432  0.7283
 6144SOL    HW324309   1.165   4.546   6.171 -1.1453 -0.3851  1.1023
 6144SOL    MW424310   1.219   4.498   6.219 -0.2832  0.3562  0.3421
 6145SOL     OW24311   4.236   3.740   3.212  0.4490 -0.5948  0.0629
 6145SOL    HW224312   4.284   3.786   3.143  0.4615 -0.4205  0.1853
 6145SOL    HW324313   4.151   3.784   3.214  1.3525  1.2759  2.0043
 6145SOL    MW424314   4.231   3.752   3.203 -0.1805 -0.8084 -0.0780
 6146SOL     OW24315   4.666   4.926   6.345  0.1791  0.0973 -0.2183
 6146SOL    HW224316   4.658   4.932   6.441  2.2874  1.4034 -0.0686
 6146SOL    HW324317   4.689   5.015   6.317 -0.4872 -0.2493 -1.9680
 6146SOL    MW424318   4.668   4.939   6.354 -0.2562  1.0421 -0.5713
 6147SOL     OW24319   2.632   6.373   2.786  0.5487  0.4258  0.0032
 6147SOL    HW224320   2.609   6.457   2.827  0.7692  0.4438  0.0913
 6147SOL    HW324321   2.708   6.342   2.836 -0.9425 -0.9850  1.5277
 6147SOL    MW424322   2.639   6.380   2.798 -0.0066  0.6236  0.0601
 6148SOL     OW24323   5.283   2.546   0.022 -0.3757  0.4672 -0.3329
 6148SOL    HW224324   5.255   2.458  -0.001  2.1683 -0.7931  1.0352
 6148SOL    HW324325   5.267   2.597  -0.058 -0.3474 -1.6072 -1.7519
 6148SOL    MW424326   5.278   2.541   0.008 -0.1708 -0.3577 -0.1338
 6149SOL     OW24327   4.801   0.838   4.142  0.4887 -0.6964  0.0107
 6149SOL    HW224328   4.855   0.806   4.070  1.0316  1.6233 -0.6959
 6149SOL    HW324329   4.755   0.913   4.106  1.0291  0.7452  2.1435
 6149SOL    MW424330   4.802   0.843   4.128  0.7545 -0.4458 -0.2425
 6150SOL     OW24331   2.298   4.519   5.393  0.1023  0.1009 -0.1091
 6150SOL    HW224332   2.309   4.497   5.300 -1.3642  1.6411 -0.6835
 6150SOL    HW324333   2.386   4.543   5.422  0.1955  2.0798 -1.8096
 6150SOL    MW424334   2.311   4.519   5.384 -0.3691 -0.0818  0.1499
 6151SOL     OW24335   0.304   1.959   3.093  0.2559  0.6157  0.2761
 6151SOL    HW224336   0.339   1.996   3.012  0.3509  0.4508  0.2408
 6151SOL    HW324337   0.262   1.877   3.066  0.3335  0.5337  0.4016
 6151SOL    MW424338   0.303   1.953   3.079  0.4891 -0.7481  0.0778
 6152SOL     OW24339   5.681   2.178   0.921  0.0098  0.3241  0.8007
 6152SOL    HW224340   5.747   2.127   0.874 -0.2040 -0.0408  0.8992
 6152SOL    HW324341   5.669   2.133   1.004  1.3744  1.7141  1.8152
 6152SOL    MW424342   5.688   2.165   0.925 -0.2315 -0.5147  0.5577
 6153SOL     OW24343   5.843   2.833   5.879  0.4371  0.1706  0.8827
 6153SOL    HW224344   5.823   2.829   5.973 -0.6495 -0.1896  0.6429
 6153SOL    HW324345   5.819   2.747   5.845  1.4653  0.0611  0.3806
 6153SOL    MW424346   5.837   2.821   5.887 -0.0241  0.3825  0.0785
 6154SOL     OW24347   6.258   3.550   2.503 -0.5999 -0.3801 -0.0709
 6154SOL    HW224348   6.186   3.503   2.546 -0.8097 -0.9111 -0.9762
 6154SOL    HW324349   6.215   3.607   2.439 -0.2715  0.1345  0.1556
 6154SOL    MW424350   6.243   3.551   2.500  0.2917 -0.1743  0.3579
 6155SOL     OW24351   0.496   1.000   3.589 -1.0359  0.0524  0.1161
 6155SOL    HW224352   0.443   1.016   3.667 -0.5507  3.5480 -0.1069
 6155SOL    HW324353   0.581   0.972   3.622 -1.2692  0.1344  0.7838
 6155SOL    MW424354   0.500   0.999   3.603  0.5614  0.0019  0.0301
 6156SOL     OW24355   5.643   3.271   0.344  0.3655 -0.5155  0.2316
 6156SOL    HW224356   5.624   3.200   0.405 -1.2984  0.7381  1.2622
 6156SOL    HW324357   5.573   3.265   0.278  0.7186 -0.3516 -0.1637
 6156SOL    MW424358   5.631   3.261   0.343  0.1099  0.5521  0.3282
 6157SOL     OW24359   5.801   2.463   3.384  0.3638  0.4286 -0.2941
 6157SOL    HW224360   5.728   2.441   3.442 -1.4008  0.2879 -2.4300
 6157SOL    HW324361   5.838   2.378   3.361  1.9208  0.5412  1.5468
 6157SOL    MW424362   5.796   2.449   3.389 -0.5487  0.4299  0.1148
 6158SOL     OW24363   6.019   5.001   2.226 -0.1104  0.8892  0.0618
 6158SOL    HW224364   6.102   4.965   2.256 -0.3799 -0.8033 -1.0616
 6158SOL    HW324365   5.965   5.007   2.305  1.0442  2.0540  0.8120
 6158SOL    MW424366   6.023   4.997   2.240  0.1421 -0.0388  0.1356
 6159SOL     OW24367   3.766   0.040   2.559 -0.6469 -0.0379 -0.2819
 6159SOL    HW224368   3.767   0.067   2.651 -0.0521  0.7341 -0.5099
 6159SOL    HW324369   3.748   0.120   2.510 -0.0101 -0.2561 -0.8944
 6159SOL    MW424370   3.764   0.054   2.565  0.3061  0.4955 -0.0200
 6160SOL     OW24371   1.614   4.321   4.925 -0.6193  0.3354 -0.0719
 6160SOL    HW224372   1.663   4.279   4.996  0.3005 -0.2224 -1.0044
 6160SOL    HW324373   1.600   4.410   4.956 -0.3118  0.0808  0.8476
 6160SOL    MW424374   1.619   4.327   4.939 -0.1313  0.1230 -0.3893
 6161SOL     OW24375   6.044   5.322   5.990  0.2383 -0.0256  0.5858
 6161SOL    HW224376   6.078   5.232   5.990  0.1530 -0.0654 -0.1888
 6161SOL    HW324377   6.094   5.367   6.058 -1.6060 -1.3553  2.9699
 6161SOL    MW424378   6.055   5.316   5.999  0.6175 -0.2962  0.5574
 6162SOL     OW24379   4.043   3.392   0.666  0.3799 -0.4557 -0.1455
 6162SOL    HW224380   4.042   3.450   0.589  1.1601 -1.3755 -0.8717
 6162SOL    HW324381   3.954   3.398   0.701  0.3289  0.8567 -0.4382
 6162SOL    MW424382   4.031   3.401   0.660  0.2526 -0.2226 -0.0374
 6163SOL     OW24383   0.582   2.129   3.965 -0.3484 -0.4575 -0.4345
 6163SOL    HW224384   0.578   2.169   4.051 -2.3070 -1.2547 -0.1056
 6163SOL    HW324385   0.542   2.193   3.906  0.4324 -0.1684 -0.6633
 6163SOL    MW424386   0.577   2.143   3.968  0.1727  0.1677  0.0965
 6164SOL     OW24387   2.918   5.556   2.325 -0.3845 -0.9218  0.1609
 6164SOL    HW224388   2.877   5.525   2.244  0.8959 -0.4845 -0.7003
 6164SOL    HW324389   2.937   5.477   2.375 -0.0296 -1.3086 -0.5639
 6164SOL    MW424390   2.915   5.542   2.321 -0.0052 -1.0184 -0.3042
 6165SOL     OW24391   1.249   1.893   5.589  0.0116  0.7032  0.4710
 6165SOL    HW224392   1.260   1.970   5.534 -1.0256 -0.8131 -2.0688
 6165SOL    HW324393   1.249   1.819   5.527 -0.9089 -1.1793  2.5564
 6165SOL    MW424394   1.251   1.893   5.573  0.0808 -0.4065 -0.3141
 6166SOL     OW24395   1.189   2.987   2.347  0.3155  0.0056 -0.2030
 6166SOL    HW224396   1.132   3.036   2.406 -2.3023 -0.2071 -2.3744
 6166SOL    HW324397   1.236   2.927   2.404 -1.8883 -0.0258  1.7357
 6166SOL    MW424398   1.188   2.985   2.362 -0.0065  0.3526 -0.2879
 6167SOL     OW24399   6.122   1.367   2.671 -0.0883  0.1931 -0.0574
 6167SOL    HW224400   6.148   1.445   2.721 -2.5312  1.9404 -1.3362
 6167SOL    HW324401   6.119   1.397   2.581 -1.5677 -1.2536 -0.5310
 6167SOL    MW424402   6.125   1.382   2.666  0.1981  0.2838 -0.1438
 6168SOL     OW24403   3.580   3.395   5.212 -0.3959 -0.3394 -0.0824
 6168SOL    HW224404   3.505   3.336   5.225 -1.0325  0.8241  2.0853
 6168SOL    HW324405   3.556   3.447   5.136 -0.5891 -1.6736 -0.9806
 6168SOL    MW424406   3.567   3.394   5.204  0.3075 -0.2481 -0.1492
 6169SOL     OW24407   1.761   1.434   1.444 -0.1428 -0.3135 -0.1045
 6169SOL    HW224408   1.771   1.495   1.370  0.7765 -0.1653  0.1331
 6169SOL    HW324409   1.702   1.366   1.411  0.8762 -0.6766 -1.2620
 6169SOL    MW424410   1.754   1.433   1.430 -0.1613  0.7202  0.0691
 6170SOL     OW24411   2.369   4.456   5.130  0.3822  0.5053 -0.6069
 6170SOL    HW224412   2.318   4.386   5.090  1.0190  0.7872 -1.9791
 6170SOL    HW324413   2.361   4.529   5.068  0.4153  1.3725  0.3885
 6170SOL    MW424414   2.361   4.457   5.116 -0.3904  0.7503 -0.2077
 6171SOL     OW24415   1.576   5.980   1.329  0.4295  0.3057  0.6100
 6171SOL    HW224416   1.613   5.916   1.389  0.1419  0.9535  1.4933
 6171SOL    HW324417   1.627   6.060   1.345  0.5988  0.3851 -0.2790
 6171SOL    MW424418   1.588   5.982   1.339 -0.2271  0.5597  0.9866
 6172SOL     OW24419   2.437   2.650   4.636  0.0534 -0.2252  0.4605
 6172SOL    HW224420   2.346   2.679   4.630  0.9692  2.7223 -2.0493
 6172SOL    HW324421   2.446   2.586   4.565  0.0739 -0.0474  0.3016
 6172SOL    MW424422   2.426   2.645   4.626  0.2475 -0.0940 -0.0216
 6173SOL     OW24423   5.652   4.941   4.172 -0.6748 -0.1085 -0.0126
 6173SOL    HW224424   5.734   4.970   4.211 -0.2433 -1.3010 -0.0107
 6173SOL    HW324425   5.584   4.988   4.221 -0.0933 -0.6344  1.3453
 6173SOL    MW424426   5.654   4.951   4.183 -0.2008  0.2222  0.2013
 6174SOL     OW24427   4.144   5.991   5.650  0.1341  0.3611  0.0100
 6174SOL    HW224428   4.173   5.911   5.606  0.2868  1.1399 -1.3298
 6174SOL    HW324429   4.195   5.992   5.732  1.6140  0.1145 -0.8717
 6174SOL    MW424430   4.155   5.980   5.655  0.3313  0.4536 -0.3608
 6175SOL     OW24431   1.995   5.919   3.050  0.3849  0.6133 -0.0216
 6175SOL    HW224432   2.013   5.972   2.973 -0.6499 -2.4006 -2.5664
 6175SOL    HW324433   1.988   5.830   3.016 -1.4139 -0.7224  3.4046
 6175SOL    MW424434   1.996   5.914   3.036  0.1082 -0.0425 -0.4948
 6176SOL     OW24435   0.244   4.726   2.403  0.1648  0.0819 -0.6054
 6176SOL    HW224436   0.215   4.719   2.312  0.2683 -1.0811 -0.5559
 6176SOL    HW324437   0.271   4.818   2.412 -1.4388  0.6401 -1.2499
 6176SOL    MW424438   0.244   4.737   2.392 -0.5235 -0.4248 -0.8010
 6177SOL     OW24439   3.458   3.282   2.664  0.2380  0.7602  0.0904
 6177SOL    HW224440   3.519   3.224   2.618  1.5425  3.5516 -2.0482
 6177SOL    HW324441   3.401   3.316   2.595 -1.8324  0.4935  1.6021
 6177SOL    MW424442   3.459   3.279   2.648 -0.0422 -0.0685  0.1308
 6178SOL     OW24443   4.856   0.389   3.689  0.4585 -0.3663  0.7393
 6178SOL    HW224444   4.827   0.351   3.772 -2.2808  2.7003  1.4036
 6178SOL    HW324445   4.789   0.362   3.626 -0.8903  2.1143  0.9790
 6178SOL    MW424446   4.843   0.380   3.691 -0.6611  0.5632 -0.0626
 6179SOL     OW24447   2.808   3.691   0.272 -0.1885 -0.4241  0.1623
 6179SOL    HW224448   2.729   3.725   0.314  0.2978  0.9897  0.0016
 6179SOL    HW324449   2.800   3.596   0.278 -1.2140 -0.2862  1.4194
 6179SOL    MW424450   2.797   3.683   0.278 -0.3642  0.6874 -0.0283
 6180SOL     OW24451   1.932   2.639   1.641  0.4807  0.1122 -0.0907
 6180SOL    HW224452   1.916   2.732   1.627  0.5596  0.2178  0.4801
 6180SOL    HW324453   1.944   2.602   1.554  0.7235  0.6873 -0.2992
 6180SOL    MW424454   1.931   2.646   1.628 -0.5911 -0.2511 -0.3085
 6181SOL     OW24455   3.435   1.362   4.806 -0.3991  0.2001  0.0075
 6181SOL    HW224456   3.424   1.367   4.711  0.3844 -1.6100 -0.2159
 6181SOL    HW324457   3.458   1.451   4.832  2.6680  0.1361 -1.9740
 6181SOL    MW424458   3.437   1.375   4.797  0.2893  0.0413 -0.3014
 6182SOL     OW24459   2.336   4.064   4.892  0.4950 -0.0544  0.5939
 6182SOL    HW224460   2.358   3.978   4.926  0.8183 -0.8586 -1.5154
 6182SOL    HW324461   2.276   4.101   4.956  1.2910 -1.3343  2.1386
 6182SOL    MW424462   2.331   4.058   4.905  0.1700  0.4224 -0.0800
 6183SOL     OW24463   4.353   3.181   0.181 -0.6570  0.0155  0.1524
 6183SOL    HW224464   4.394   3.115   0.237 -1.3546 -0.8889 -0.3541
 6183SOL    HW324465   4.260   3.155   0.179 -0.9126  0.9291 -0.1852
 6183SOL    MW424466   4.346   3.169   0.188 -0.1045 -0.0413 -0.4927
 6184SOL     OW24467   3.870   0.308   5.447 -0.2889 -0.2667 -0.0438
 6184SOL    HW224468   3.866   0.247   5.374 -0.2490  1.1023 -1.2254
 6184SOL    HW324469   3.886   0.393   5.407 -4.4742  1.3169  1.1293
 6184SOL    MW424470   3.872   0.311   5.432  0.3535  0.2710 -0.4479
 6185SOL     OW24471   4.197   1.310   3.225 -0.4069  0.5169  0.1608
 6185SOL    HW224472   4.277   1.331   3.177  0.6447 -1.8045  0.7412
 6185SOL    HW324473   4.136   1.278   3.157 -0.1276  0.4351 -0.0533
 6185SOL    MW424474   4.199   1.308   3.210 -0.3012  0.5704  0.3004
 6186SOL     OW24475   5.956   5.050   4.571 -0.0486 -0.3095 -0.3602
 6186SOL    HW224476   5.923   5.052   4.661  0.8860 -0.6049  0.0004
 6186SOL    HW324477   6.025   4.984   4.573  0.7506  0.4898 -1.0331
 6186SOL    MW424478   5.960   5.041   4.583  0.3600  0.0075 -0.4615
 6187SOL     OW24479   0.377   4.776   1.360 -0.4530 -0.3535  0.0015
 6187SOL    HW224480   0.321   4.838   1.313  0.9941  0.4171 -0.7822
 6187SOL    HW324481   0.462   4.782   1.316  0.9049  0.1438  2.4455
 6187SOL    MW424482   0.381   4.785   1.348 -0.7692  0.4164 -0.7726
 6188SOL     OW24483   1.194   4.217   1.141  0.3915 -0.6292 -0.5407
 6188SOL    HW224484   1.193   4.311   1.124  0.3100 -0.3767  0.7761
 6188SOL    HW324485   1.129   4.204   1.210  1.3542 -1.4522  0.2457
 6188SOL    MW424486   1.185   4.227   1.148  0.3474 -0.1485  0.5491
 6189SOL     OW24487   3.563   0.147   4.589  0.5005  0.0482 -0.0391
 6189SOL    HW224488   3.624   0.199   4.536  0.4909 -1.1140 -1.2252
 6189SOL    HW324489   3.609   0.065   4.605 -0.0915 -0.1848  0.5156
 6189SOL    MW424490   3.577   0.143   4.584 -0.1930  0.2788 -0.4156
 6190SOL     OW24491   5.683   6.273   0.710 -0.2141 -0.1589 -0.2333
 6190SOL    HW224492   5.747   6.236   0.650 -0.6921  0.7417 -1.3435
 6190SOL    HW324493   5.598   6.245   0.676 -0.5059  0.6163 -0.1779
 6190SOL    MW424494   5.680   6.265   0.697 -0.0033  0.2669  0.0914
 6191SOL     OW24495   0.369   1.620   5.202 -0.0525  0.3293 -0.6308
 6191SOL    HW224496   0.380   1.663   5.287  1.3759 -0.4790 -0.3699
 6191SOL    HW324497   0.281   1.583   5.205  0.2041 -0.2396  0.7866
 6191SOL    MW424498   0.359   1.621   5.214  0.4675  0.1391  0.0947
 6192SOL     OW24499   0.754   5.114   0.368  0.5709  0.0503 -0.2012
 6192SOL    HW224500   0.786   5.185   0.425  0.7061 -0.3492  0.2298
 6192SOL    HW324501   0.777   5.034   0.415  0.8273 -0.2958 -0.9008
 6192SOL    MW424502   0.762   5.113   0.382  0.2131 -0.7789  0.1982
 6193SOL     OW24503   0.949   6.391   1.824  0.9621 -0.3032  0.2030
 6193SOL    HW224504   0.940   6.484   1.846  2.6487  0.1483 -0.8222
 6193SOL    HW324505   0.904   6.381   1.740 -0.4339 -0.7502  0.9767
 6193SOL    MW424506   0.942   6.402   1.816 -0.5785 -0.2747 -0.4093
 6194SOL     OW24507   4.195   2.048   0.974 -0.0500  0.0467  0.2249
 6194SOL    HW224508   4.134   1.995   0.923  0.5818 -0.5547  0.0765
 6194SOL    HW324509   4.261   2.077   0.911  0.4995 -0.3426  0.6108
 6194SOL    MW424510   4.196   2.045   0.959 -0.2194  0.8107 -0.1604
 6195SOL     OW24511   5.342   3.730   3.616 -0.6124  0.4518  0.3317
 6195SOL    HW224512   5.400   3.804   3.602 -0.7416  0.4113 -0.4606
 6195SOL    HW324513   5.284   3.729   3.540 -1.4627  0.3102  0.9570
 6195SOL    MW424514   5.342   3.739   3.605  0.1662  0.5898  0.2169
 6196SOL     OW24515   2.664   4.166   6.279  0.3304  0.0415 -0.3567
 6196SOL    HW224516   2.656   4.102   6.350  0.8589  0.0520 -0.2811
 6196SOL    HW324517   2.576   4.203   6.270  0.0213 -0.6788 -0.3880
 6196SOL    MW424518   2.651   4.162   6.288  0.1675 -0.1360 -0.2525
 6197SOL     OW24519   0.391   0.356   3.475  0.2924 -0.2389 -0.3884
 6197SOL    HW224520   0.440   0.276   3.457  0.8906 -0.3935  1.6257
 6197SOL    HW324521   0.324   0.329   3.538  0.0030  0.6911 -0.2782
 6197SOL    MW424522   0.389   0.342   3.481  0.0650 -0.3223  0.4424
 6198SOL     OW24523   0.050   0.912   4.089 -0.0780 -0.0943 -0.2835
 6198SOL    HW224524   0.054   0.823   4.124  0.5229  0.5948  1.5234
 6198SOL    HW324525   0.141   0.942   4.090 -0.3797  0.8465 -0.0298
 6198SOL    MW424526   0.063   0.904   4.093 -0.2702  0.1567 -0.2276
 6199SOL     OW24527   4.306   2.914   5.978 -0.0762  0.3204 -0.2826
 6199SOL    HW224528   4.211   2.912   5.989 -0.3161  2.6570 -1.2375
 6199SOL    HW324529   4.319   2.921   5.884  1.1812 -2.0796 -0.3501
 6199SOL    MW424530   4.295   2.915   5.967  0.4069  0.1603 -0.3240
 6200SOL     OW24531   5.656   5.752   3.653 -0.2069  0.3658  0.4335
 6200SOL    HW224532   5.750   5.762   3.672 -0.7384  0.1735  3.7239
 6200SOL    HW324533   5.653   5.719   3.563  2.8230  1.1416 -0.0615
 6200SOL    MW424534   5.668   5.749   3.643 -0.3091  0.1854 -0.2398
 6201SOL     OW24535   5.671   1.949   1.578  0.5747  0.1847  0.1532
 6201SOL    HW224536   5.581   1.938   1.546  1.3485 -0.7039 -1.8913
 6201SOL    HW324537   5.670   1.913   1.667 -1.1588  0.5386  0.3135
 6201SOL    MW424538   5.659   1.943   1.585 -0.2559 -0.6924  0.0436
 6202SOL     OW24539   3.509   0.070   0.061 -0.8985 -0.0639  0.1470
 6202SOL    HW224540   3.513   0.123  -0.019  1.0924  0.0231  0.2610
 6202SOL    HW324541   3.577   0.108   0.118 -0.7259 -1.5574  0.9749
 6202SOL    MW424542   3.518   0.082   0.058  0.0760  0.0480  0.3026
 6203SOL     OW24543   0.203   4.688   6.117  0.3027 -0.4257  0.0875
 6203SOL    HW224544   0.178   4.664   6.207  0.8684  1.7008  0.8848
 6203SOL    HW324545   0.298   4.701   6.122  0.2512  0.3349 -0.6487
 6203SOL    MW424546   0.212   4.687   6.130 -0.0467  0.2763 -0.2528
 6204SOL     OW24547   2.161   4.353   4.542  0.1992 -0.2077 -0.3230
 6204SOL    HW224548   2.249   4.372   4.508 -0.1793  1.1037 -0.6181
 6204SOL    HW324549   2.158   4.396   4.627 -0.4851  0.6360 -0.7555
 6204SOL    MW424550   2.173   4.361   4.549 -0.4705  0.3540  0.0140
 6205SOL     OW24551   1.086   0.000   3.869  0.5631  0.9589  0.1224
 6205SOL    HW224552   1.082   0.063   3.797  2.3444  0.2044 -0.6886
 6205SOL    HW324553   1.052  -0.081   3.832  0.9962  0.7030  0.2767
 6205SOL    MW424554   1.081  -0.002   3.855 -0.7301 -0.0947  0.0400
 6206SOL     OW24555   0.097   4.771   5.870  0.3090  0.5121  0.2360
 6206SOL    HW224556   0.112   4.861   5.841  0.7118  0.4288  0.1768
 6206SOL    HW324557   0.125   4.770   5.961  3.3417 -0.2865 -0.5913
 6206SOL    MW424558   0.103   4.783   5.878  0.5429  0.3181 -0.0898
 6207SOL     OW24559   3.336   5.722   4.383 -0.0731 -0.3210 -0.5538
 6207SOL    HW224560   3.310   5.666   4.309  0.6111 -0.0795 -0.9793
 6207SOL    HW324561   3.400   5.782   4.346  1.5399 -1.2622  0.6105
 6207SOL    MW424562   3.341   5.722   4.368 -0.2416  0.4708 -0.6327
 6208SOL     OW24563   5.024   6.136   1.726  0.6496 -0.3112  0.0231
 6208SOL    HW224564   5.028   6.210   1.786  0.4697 -0.9267  0.7999
 6208SOL    HW324565   5.069   6.168   1.647 -2.5160  1.9310 -1.1171
 6208SOL    MW424566   5.031   6.150   1.723 -0.2639 -0.1092 -0.8472
 6209SOL     OW24567   3.777   6.421   5.686 -0.4516  0.4794 -0.1752
 6209SOL    HW224568   3.779   6.388   5.776 -1.6822 -1.0928 -0.6802
 6209SOL    HW324569   3.724   6.500   5.690 -1.3318 -0.1221  0.3407
 6209SOL    MW424570   3.770   6.427   5.698  0.0134 -0.0840  0.7320
 6210SOL     OW24571   4.745   3.079   1.348  0.4532  0.7262  0.2561
 6210SOL    HW224572   4.740   2.984   1.352  2.2631  0.5875  0.0662
 6210SOL    HW324573   4.655   3.109   1.363 -0.3961 -1.0349 -1.0355
 6210SOL    MW424574   4.733   3.070   1.351 -0.4279  0.0004  0.2856
 6211SOL     OW24575   0.487   3.574   5.037  0.2112  0.1876  0.3018
 6211SOL    HW224576   0.493   3.551   5.130  2.7490  0.5588  0.3097
 6211SOL    HW324577   0.394   3.592   5.022 -0.3195 -0.3186  2.6549
 6211SOL    MW424578   0.476   3.574   5.047 -0.4461 -0.1144  0.2041
 6212SOL     OW24579   2.091   6.030   0.799 -0.0346  0.0250  0.0147
 6212SOL    HW224580   2.177   6.028   0.840  0.3761  1.7270 -0.7072
 6212SOL    HW324581   2.051   6.112   0.829 -1.0495 -0.3124 -0.3579
 6212SOL    MW424582   2.097   6.040   0.808  0.3182  0.1345 -0.4958
 6213SOL     OW24583   5.628   6.083   3.048 -0.1677  0.4128  0.2933
 6213SOL    HW224584   5.608   6.018   2.980  1.9860 -0.8163  0.7426
 6213SOL    HW324585   5.591   6.046   3.128 -0.0042  0.3515  0.3395
 6213SOL    MW424586   5.620   6.070   3.050  0.2118 -0.7444  0.0093
 6214SOL     OW24587   1.841   1.599   1.226  0.8457  0.0047 -0.1437
 6214SOL    HW224588   1.818   1.547   1.149  1.2078 -1.8411  0.9112
 6214SOL    HW324589   1.937   1.598   1.228  0.8362 -0.3838  0.5656
 6214SOL    MW424590   1.851   1.592   1.216 -0.1301  0.1676  0.1910
 6215SOL     OW24591   4.289   1.916   4.848 -0.1788  0.1092 -0.6518
 6215SOL    HW224592   4.354   1.982   4.823  0.2526 -1.0066 -2.7312
 6215SOL    HW324593   4.232   1.960   4.910  0.9805  1.9520 -0.8211
 6215SOL    MW424594   4.290   1.930   4.853  0.0603  0.4619 -0.4728
 6216SOL     OW24595   2.613   0.854   2.804 -0.0421 -0.4953 -0.1184
 6216SOL    HW224596   2.707   0.837   2.814 -0.0512  0.6912  2.7701
 6216SOL    HW324597   2.573   0.817   2.882 -1.5861  1.4917  0.1046
 6216SOL    MW424598   2.620   0.847   2.815 -0.2631  0.7861 -0.3572
 6217SOL     OW24599   2.534   6.100   5.320 -0.0939  0.1579 -0.3137
 6217SOL    HW224600   2.451   6.140   5.295 -0.3203  0.7739  1.3152
 6217SOL    HW324601   2.556   6.043   5.246 -2.6944 -1.1600 -0.1936
 6217SOL    MW424602   2.526   6.097   5.307  0.2177 -0.1650 -0.3597
 6218SOL     OW24603   5.254   1.546   2.503  0.1354 -0.5141  0.1792
 6218SOL    HW224604   5.220   1.618   2.556 -1.0829  1.1269 -2.6038
 6218SOL    HW324605   5.349   1.551   2.512 -0.0096 -0.2258  1.9846
 6218SOL    MW424606   5.262   1.556   2.512  0.2225 -0.4112 -0.1557
 6219SOL     OW24607   5.184   4.702   3.305 -0.0005 -0.3292 -0.1685
 6219SOL    HW224608   5.120   4.671   3.368  0.1708  1.7377  1.1275
 6219SOL    HW324609   5.238   4.626   3.284 -0.3065 -1.1547  1.9038
 6219SOL    MW424610   5.183   4.688   3.310 -0.0539  0.1731 -0.0140
 6220SOL     OW24611   3.101   6.091   4.275 -0.5479  0.6215 -0.1284
 6220SOL    HW224612   3.069   6.010   4.314  0.4319  0.7011  0.8716
 6220SOL    HW324613   3.165   6.125   4.337 -1.1362  2.3192 -0.3932
 6220SOL    MW424614   3.105   6.085   4.288  0.0601  0.2058 -0.2141
 6221SOL     OW24615   2.392   0.949   3.519 -0.1311  0.6159 -0.6043
 6221SOL    HW224616   2.302   0.982   3.523 -0.2372  0.2676  0.0514
 6221SOL    HW324617   2.412   0.925   3.609  0.9557  1.5555 -0.5785
 6221SOL    MW424618   2.383   0.950   3.531  0.0951 -0.1107  0.2352
 6222SOL     OW24619   5.588   3.830   5.739 -0.0632  0.1821  0.1157
 6222SOL    HW224620   5.620   3.743   5.715 -0.7619 -0.4756  1.4385
 6222SOL    HW324621   5.666   3.878   5.765  0.3952  0.1432 -1.1344
 6222SOL    MW424622   5.602   3.825   5.740 -0.1123 -0.3737  0.3240
 6223SOL     OW24623   4.281   3.762   2.655 -0.5093  0.5752 -0.2813
 6223SOL    HW224624   4.366   3.749   2.698  0.5636  2.4776 -1.6570
 6223SOL    HW324625   4.284   3.703   2.580  0.2689  1.6409 -1.1329
 6223SOL    MW424626   4.293   3.752   2.651 -0.4734 -0.5830  0.0947
 6224SOL     OW24627   4.550   4.579   1.416  0.0586  0.3402 -0.3495
 6224SOL    HW224628   4.588   4.549   1.498  0.8242 -0.7987 -1.0795
 6224SOL    HW324629   4.532   4.672   1.429  0.8139  0.3279  0.8616
 6224SOL    MW424630   4.553   4.587   1.428 -0.3235 -0.2339 -0.2866
 6225SOL     OW24631   0.741   5.218   3.737  0.1197 -0.1276 -0.2441
 6225SOL    HW224632   0.785   5.301   3.757 -1.8501  0.7442  0.6783
 6225SOL    HW324633   0.800   5.175   3.675  2.2528  0.9587  0.9078
 6225SOL    MW424634   0.755   5.223   3.731 -0.6193 -0.0556  0.2076
 6226SOL     OW24635   2.974   1.939   5.425 -0.0407  0.1107 -0.4417
 6226SOL    HW224636   2.985   1.848   5.450 -1.5434 -0.5361 -1.9398
 6226SOL    HW324637   2.937   1.981   5.502  1.3885 -0.3294  0.5212
 6226SOL    MW424638   2.971   1.933   5.438  0.1857 -0.8301  0.5036
 6227SOL     OW24639   1.505   0.768   5.031  0.0214 -0.2702  0.4553
 6227SOL    HW224640   1.577   0.721   5.073 -0.4905 -1.4349  0.0756
 6227SOL    HW324641   1.543   0.807   4.953  0.5196  0.2054  0.9268
 6227SOL    MW424642   1.519   0.767   5.026  0.1656 -0.0964  0.4253
 6228SOL     OW24643   5.072   2.264   0.660 -0.1909 -0.6446  0.1858
 6228SOL    HW224644   4.980   2.242   0.672 -1.2993  2.0782 -2.2053
 6228SOL    HW324645   5.084   2.345   0.710  0.4692 -0.1642 -0.7200
 6228SOL    MW424646   5.061   2.272   0.669 -0.7267 -0.0443  0.2481
 6229SOL     OW24647   1.829   4.625   0.206 -0.3428  0.2449 -0.8405
 6229SOL    HW224648   1.816   4.538   0.169 -1.0117 -0.2011  0.3657
 6229SOL    HW324649   1.749   4.673   0.184 -0.0976  0.4706 -1.2562
 6229SOL    MW424650   1.816   4.620   0.198  0.5281 -0.1655 -0.3365
 6230SOL     OW24651   1.882   5.073   5.513  0.3171 -0.4612  0.6168
 6230SOL    HW224652   1.890   4.996   5.457  0.1903 -0.0120 -0.0290
 6230SOL    HW324653   1.971   5.105   5.522  0.6057 -1.6041  2.2314
 6230SOL    MW424654   1.895   5.067   5.507 -0.1980  0.0202  0.3306
 6231SOL     OW24655   0.762   1.586   4.129 -0.2377  0.4113 -0.8030
 6231SOL    HW224656   0.801   1.633   4.203 -1.2381  3.6452 -2.1164
 6231SOL    HW324657   0.820   1.512   4.114  1.2185  0.8991  1.7987
 6231SOL    MW424658   0.775   1.583   4.137  0.2700  0.0261  0.7052
 6232SOL     OW24659   0.310   4.973   4.264 -0.1657 -0.7235 -0.0659
 6232SOL    HW224660   0.326   4.880   4.277  0.7772 -0.4764  0.6669
 6232SOL    HW324661   0.380   5.001   4.205 -0.0644 -0.3595  0.2223
 6232SOL    MW424662   0.322   4.965   4.258 -0.0318 -0.3656  0.5969
 6233SOL     OW24663   1.360   5.159   6.333  0.0626 -0.7217 -0.0525
 6233SOL    HW224664   1.268   5.165   6.308 -0.6208 -0.5662  2.2303
 6233SOL    HW324665   1.372   5.066   6.355  0.2824 -0.6400  0.1765
 6233SOL    MW424666   1.349   5.147   6.333  0.0772 -0.6966 -0.0675
 6234SOL     OW24667   1.648   3.225   3.153  0.1191  0.3471 -0.8260
 6234SOL    HW224668   1.555   3.217   3.174  0.3021  0.1864 -0.0536
 6234SOL    HW324669   1.655   3.189   3.065 -0.5523  0.3775 -0.9002
 6234SOL    MW424670   1.637   3.219   3.144  0.0962  0.5826  0.1045
 6235SOL     OW24671   6.297   4.074   6.422  0.0262  0.3286 -0.0666
 6235SOL    HW224672   6.293   3.980   6.438  1.7364 -0.0884 -1.7036
 6235SOL    HW324673   6.236   4.089   6.350  0.0363  0.3987 -0.0608
 6235SOL    MW424674   6.289   4.064   6.415  0.2502  0.4644 -0.3611
 6236SOL     OW24675   4.332   3.941   0.692 -0.1852 -0.4828  0.2040
 6236SOL    HW224676   4.333   3.875   0.761 -1.5865 -0.4204  0.3281
 6236SOL    HW324677   4.256   3.996   0.713 -0.4476 -0.2606 -1.1895
 6236SOL    MW424678   4.322   3.940   0.704 -0.3270 -0.7111 -0.0229
 6237SOL     OW24679   5.717   2.177   5.001 -0.1206 -0.2997  0.2074
 6237SOL    HW224680   5.700   2.123   4.924  1.4523 -0.5996  0.0277
 6237SOL    HW324681   5.739   2.263   4.966 -2.3698  0.4463  0.4833
 6237SOL    MW424682   5.718   2.181   4.987 -0.8590  0.0623 -0.1259
 6238SOL     OW24683   4.716   3.156   4.989  0.6110 -0.0680 -0.3349
 6238SOL    HW224684   4.634   3.187   4.950 -0.2643 -1.0552  0.6413
 6238SOL    HW324685   4.739   3.078   4.938  0.1560 -0.6146  0.2736
 6238SOL    MW424686   4.708   3.150   4.977 -1.2635  0.5176 -0.1759
 6239SOL     OW24687   0.017   0.785   5.952 -0.4814 -0.6332 -0.3119
 6239SOL    HW224688  -0.021   0.697   5.950 -0.5569 -0.6773  1.3411
 6239SOL    HW324689  -0.058   0.844   5.943 -0.4167 -0.7243 -1.5484
 6239SOL    MW424690   0.002   0.781   5.951 -0.2635 -0.1273  0.9423
 6240SOL     OW24691   1.210   4.657   0.807  0.4842  0.3305  0.3061
 6240SOL    HW224692   1.199   4.734   0.750  0.4186 -0.7766 -1.2345
 6240SOL    HW324693   1.264   4.597   0.756  0.1402 -0.8476  1.2898
 6240SOL    MW424694   1.216   4.659   0.793 -0.4672 -0.6585  0.1914
 6241SOL     OW24695   6.121   4.545   2.068  0.1295 -0.1572  0.6179
 6241SOL    HW224696   6.203   4.575   2.027  1.6854 -2.9342  1.4787
 6241SOL    HW324697   6.120   4.588   2.153 -0.6229  1.7828 -0.3064
 6241SOL    MW424698   6.132   4.555   2.074  0.2832 -0.3843 -0.3433
 6242SOL     OW24699   2.853   4.830   2.278  0.4558  0.1779  0.4085
 6242SOL    HW224700   2.823   4.863   2.193  0.4768 -1.2425 -0.1694
 6242SOL    HW324701   2.773   4.809   2.326  0.4578 -1.5594 -0.3053
 6242SOL    MW424702   2.839   4.832   2.273  0.1649  0.1012 -0.5781
 6243SOL     OW24703   4.773   5.109   4.503 -0.3717  0.1314  0.5571
 6243SOL    HW224704   4.698   5.062   4.541  0.0050 -1.4906 -0.5902
 6243SOL    HW324705   4.828   5.040   4.466  1.5096  1.3149  1.0055
 6243SOL    MW424706   4.771   5.093   4.503  1.0283 -0.1185 -0.3901
 6244SOL     OW24707   6.259   1.437   1.040  0.1506 -0.3978 -0.2197
 6244SOL    HW224708   6.214   1.518   1.064 -0.2397 -0.5321 -0.4786
 6244SOL    HW324709   6.348   1.447   1.074  0.5503  0.7562 -1.5286
 6244SOL    MW424710   6.265   1.449   1.047  0.1849 -1.1049 -0.2543
 6245SOL     OW24711   3.483   1.311   1.878 -0.1233  0.0220 -0.4708
 6245SOL    HW224712   3.497   1.401   1.846 -0.1921  0.6047  1.0593
 6245SOL    HW324713   3.392   1.311   1.908  0.4581  0.0615  1.3819
 6245SOL    MW424714   3.473   1.323   1.878 -0.2890 -0.3470 -0.2462
 6246SOL     OW24715   0.957   4.706   3.177 -0.4236 -0.2377 -0.6461
 6246SOL    HW224716   0.919   4.774   3.232 -0.7363 -0.6755 -0.3201
 6246SOL    HW324717   1.043   4.741   3.152  0.1102 -0.4316  0.8729
 6246SOL    MW424718   0.963   4.720   3.181 -0.5643  0.1750  0.0891
 6247SOL     OW24719   2.452   1.228   6.209 -0.2692  0.0611  0.1690
 6247SOL    HW224720   2.502   1.309   6.219 -1.7769  1.1447 -0.5186
 6247SOL    HW324721   2.517   1.162   6.187  0.8390  1.4832 -1.0855
 6247SOL    MW424722   2.467   1.230   6.207  0.0761 -0.2985 -0.2495
 6248SOL     OW24723   3.677   2.127   4.044 -0.2498 -0.1122  0.1640
 6248SOL    HW224724   3.659   2.160   3.956  0.3195  0.2294  0.1678
 6248SOL    HW324725   3.766   2.156   4.063 -0.7661  0.8218  1.3197
 6248SOL    MW424726   3.686   2.135   4.035 -0.0175  0.2783  0.0099
 6249SOL     OW24727   5.008   5.336   0.204  0.2116 -0.0047 -0.8037
 6249SOL    HW224728   5.043   5.277   0.138 -1.1265 -2.9309  0.9027
 6249SOL    HW324729   4.980   5.413   0.155  0.2633 -1.5720 -3.4784
 6249SOL    MW424730   5.009   5.339   0.189  0.2167  0.1525 -0.3846
 6250SOL     OW24731   5.596   5.347   2.368  0.1970  0.7083 -0.4964
 6250SOL    HW224732   5.584   5.408   2.441 -0.3935  0.0939 -0.0674
 6250SOL    HW324733   5.514   5.351   2.319 -0.0461 -0.0965 -0.1780
 6250SOL    MW424734   5.584   5.356   2.371 -0.1733 -0.2398 -0.0838
 6251SOL     OW24735   2.015   3.803   3.007 -0.2177 -0.2380  0.0673
 6251SOL    HW224736   1.962   3.748   3.064  2.2058 -0.7061  1.9952
 6251SOL    HW324737   2.095   3.821   3.056  1.0034  1.3411 -2.2619
 6251SOL    MW424738   2.018   3.798   3.021  0.1877 -0.3897  0.7199
 6252SOL     OW24739   0.659   0.256   0.440  0.1106 -0.9108 -0.7597
 6252SOL    HW224740   0.742   0.304   0.444  0.9922 -2.4166  0.6247
 6252SOL    HW324741   0.665   0.192   0.512 -2.7236 -0.3592  0.1053
 6252SOL    MW424742   0.671   0.254   0.450  0.0760 -0.2252 -0.1386
 6253SOL     OW24743   2.391   3.171   5.848  0.0188  0.3227 -0.3686
 6253SOL    HW224744   2.363   3.136   5.932 -0.7026  0.0920 -0.6904
 6253SOL    HW324745   2.391   3.266   5.860  0.5125  0.2709  0.0664
 6253SOL    MW424746   2.387   3.179   5.860 -0.1393  0.2613 -0.0057
 6254SOL     OW24747   4.509   6.350   5.514  0.3471 -0.3179  0.4873
 6254SOL    HW224748   4.423   6.324   5.545 -0.3740 -0.0826 -1.2135
 6254SOL    HW324749   4.540   6.276   5.462  0.9945 -0.2355  0.7435
 6254SOL    MW424750   4.502   6.337   5.511  0.1896  0.3078  0.7814
 6255SOL     OW24751   0.049   0.293   4.710  0.2024 -0.4672  0.4820
 6255SOL    HW224752  -0.044   0.277   4.730 -0.2046  0.6551 -0.3875
 6255SOL    HW324753   0.085   0.207   4.693 -0.1435 -1.1743  2.9313
 6255SOL    MW424754   0.041   0.280   4.710  0.2433 -0.5920  0.2807
 6256SOL     OW24755   6.356   5.853   1.804  0.1128 -0.3940 -0.2700
 6256SOL    HW224756   6.441   5.845   1.761  0.5235 -1.0566  0.6286
 6256SOL    HW324757   6.344   5.769   1.849 -0.3759  0.2014  0.7437
 6256SOL    MW424758   6.366   5.841   1.804  0.4938  0.3733  0.7810
 6257SOL     OW24759   5.631   4.072   2.766 -0.6162 -0.3081  0.7109
 6257SOL    HW224760   5.647   4.165   2.750 -1.0020 -0.2829  0.4599
 6257SOL    HW324761   5.718   4.035   2.782 -0.0532 -0.5001 -2.2426
 6257SOL    MW424762   5.644   4.079   2.766  0.7113 -0.3541 -0.5706
 6258SOL     OW24763   1.913   4.477   5.330  0.3070 -0.4241 -0.2291
 6258SOL    HW224764   1.933   4.490   5.423  0.0460  0.4010 -0.2850
 6258SOL    HW324765   1.972   4.536   5.284  1.6158 -2.0052 -0.7101
 6258SOL    MW424766   1.924   4.486   5.337 -0.0096 -0.3711  0.2433
 6259SOL     OW24767   0.281   0.090   2.612  0.5439 -0.9262  0.5313
 6259SOL    HW224768   0.195   0.124   2.638 -0.3992 -3.7813  1.5330
 6259SOL    HW324769   0.327   0.077   2.695 -0.1186 -4.2233  0.5357
 6259SOL    MW424770   0.275   0.093   2.627 -0.3471 -0.7149  0.1394
 6260SOL     OW24771   2.511   1.957   6.046  0.3689  0.3392  0.5073
 6260SOL    HW224772   2.534   2.029   6.105  0.4543 -0.3657  1.3536
 6260SOL    HW324773   2.415   1.958   6.043  0.3861  1.6154 -0.9349
 6260SOL    MW424774   2.501   1.967   6.053  0.2174  0.1611  0.5922
 6261SOL     OW24775   3.589   2.067   1.278  0.4547  0.2893  0.2811
 6261SOL    HW224776   3.513   2.105   1.323  0.2908 -1.1555  1.2944
 6261SOL    HW324777   3.568   1.974   1.269  2.0100 -0.0999  0.4009
 6261SOL    MW424778   3.577   2.060   1.283 -0.5397 -0.5467  0.2269
 6262SOL     OW24779   5.031   0.010   3.205  0.0644  0.3355  0.4629
 6262SOL    HW224780   5.094  -0.006   3.275  1.3543 -0.0922 -0.7295
 6262SOL    HW324781   5.062  -0.045   3.133 -0.9286  1.1250 -0.5986
 6262SOL    MW424782   5.044   0.001   3.205 -1.1364 -0.2242  0.2031
 6263SOL     OW24783   0.669   3.724   4.487  0.3124  0.4768  0.4729
 6263SOL    HW224784   0.743   3.685   4.441 -0.4555 -1.4056  0.7265
 6263SOL    HW324785   0.670   3.816   4.461  1.0697 -0.0889 -1.7259
 6263SOL    MW424786   0.679   3.731   4.478 -0.0672  0.7301  0.2807
 6264SOL     OW24787   5.994   6.070   1.214  0.2563 -0.2686 -0.2161
 6264SOL    HW224788   5.935   5.999   1.189  1.4367 -1.4414  0.1837
 6264SOL    HW324789   6.078   6.026   1.230  1.4135  1.4049 -1.3664
 6264SOL    MW424790   5.997   6.055   1.213  0.0208 -0.1909  0.0376
 6265SOL     OW24791   0.608   0.466   6.222  0.1102  0.0411  0.2109
 6265SOL    HW224792   0.671   0.426   6.161 -1.0190 -1.3207 -0.1190
 6265SOL    HW324793   0.599   0.402   6.292  0.2634  0.9385  1.0641
 6265SOL    MW424794   0.615   0.453   6.223 -0.5423 -0.6346 -0.4486
 6266SOL     OW24795   3.771   4.214   2.905 -0.0183 -0.0527 -0.2744
 6266SOL    HW224796   3.819   4.229   2.824 -1.2308  1.4502 -0.7660
 6266SOL    HW324797   3.820   4.262   2.972 -1.0825  1.9964 -0.8857
 6266SOL    MW424798   3.784   4.222   2.903  0.4244 -0.0077  1.1255
 6267SOL     OW24799   5.869   1.426   3.805  0.4481 -0.1340 -0.3672
 6267SOL    HW224800   5.919   1.408   3.884  0.0994 -0.4594 -0.2171
 6267SOL    HW324801   5.790   1.372   3.813 -1.0459  2.0033  0.4861
 6267SOL    MW424802   5.865   1.416   3.816 -0.5406  0.1057 -0.3313
 6268SOL     OW24803   1.758   5.218   0.571  0.5305  0.5747 -0.4164
 6268SOL    HW224804   1.745   5.164   0.649 -0.2104  1.4007  0.0412
 6268SOL    HW324805   1.826   5.281   0.596 -0.5323  1.5876 -0.0374
 6268SOL    MW424806   1.765   5.219   0.584  0.0654  0.1455 -0.3325
 6269SOL     OW24807   5.066   1.266   5.498 -0.3081 -0.0514 -0.4046
 6269SOL    HW224808   5.015   1.276   5.578 -0.7230  0.5407 -0.7376
 6269SOL    HW324809   5.133   1.201   5.520 -0.3314  0.2079  0.4595
 6269SOL    MW424810   5.068   1.259   5.512 -0.0447  0.0837 -0.0712
 6270SOL     OW24811   1.958   2.218   2.867  0.1653 -0.2023 -0.0461
 6270SOL    HW224812   2.004   2.134   2.880  1.3036  0.3545 -0.3545
 6270SOL    HW324813   2.003   2.258   2.793 -1.2784  0.0799 -0.8066
 6270SOL    MW424814   1.970   2.212   2.859  0.3583  0.3028 -0.3892
 6271SOL     OW24815   5.818   3.368   1.386  0.2473 -0.0864  0.3714
 6271SOL    HW224816   5.860   3.368   1.472 -0.0680  2.4362  0.6062
 6271SOL    HW324817   5.827   3.458   1.355 -3.1537  0.1368 -0.4168
 6271SOL    MW424818   5.825   3.380   1.393 -0.6701  0.1043  0.3088
 6272SOL     OW24819   2.126   4.676   5.726  0.4091  0.8915 -0.3902
 6272SOL    HW224820   2.216   4.694   5.755  0.6092 -0.0761 -0.3847
 6272SOL    HW324821   2.072   4.730   5.784  0.7207 -1.7428  2.6167
 6272SOL    MW424822   2.131   4.686   5.738 -0.4327 -0.2042  0.1652
 6273SOL     OW24823   5.673   3.569   5.725  1.0183 -0.1130  0.1640
 6273SOL    HW224824   5.768   3.580   5.732  0.9314  1.7441 -0.8977
 6273SOL    HW324825   5.642   3.575   5.816  1.8475 -0.0350  0.4519
 6273SOL    MW424826   5.682   3.572   5.738  0.0292 -0.1539 -0.2019
 6274SOL     OW24827   0.663   3.092   2.569 -0.3001  0.0152 -0.2400
 6274SOL    HW224828   0.645   3.063   2.658  1.2905  0.4236  0.2439
 6274SOL    HW324829   0.630   3.182   2.565 -1.3500 -0.3558 -0.4289
 6274SOL    MW424830   0.656   3.100   2.580 -0.0676  0.4413  0.6936
 6275SOL     OW24831   0.979   4.103   5.748 -0.0196 -0.1055 -0.1499
 6275SOL    HW224832   0.962   4.073   5.837  1.2865  0.8669  0.4597
 6275SOL    HW324833   1.073   4.091   5.736  0.0644  1.1560 -0.8670
 6275SOL    MW424834   0.989   4.097   5.758  0.1150 -0.0337  0.3922
 6276SOL     OW24835   2.248   4.054   2.534 -0.0334 -0.2527 -0.2320
 6276SOL    HW224836   2.259   4.145   2.508  1.6707 -0.5604 -0.6655
 6276SOL    HW324837   2.296   4.003   2.469  0.2903 -1.3556  0.8164
 6276SOL    MW424838   2.256   4.059   2.522  0.2442  0.2400 -0.2266
 6277SOL     OW24839   4.088   0.111   4.671 -0.2825  0.0733 -0.3449
 6277SOL    HW224840   4.024   0.142   4.735  1.0646 -1.2946  1.8242
 6277SOL    HW324841   4.075   0.016   4.670 -1.6837  0.1778 -3.8087
 6277SOL    MW424842   4.078   0.102   4.679  0.2876  0.0831 -0.4501
 6278SOL     OW24843   3.021   1.970   3.489  0.1806 -0.5134  0.1126
 6278SOL    HW224844   2.956   2.040   3.492  1.0426  0.3274 -0.2177
 6278SOL    HW324845   3.081   1.996   3.418  1.3158 -0.8564  0.9174
 6278SOL    MW424846   3.021   1.983   3.480  0.3146  0.2479 -0.2026
 6279SOL     OW24847   2.067   5.804   3.694 -0.3953 -0.2146  0.3428
 6279SOL    HW224848   2.019   5.800   3.777  0.0245  0.0622  0.6062
 6279SOL    HW324849   2.107   5.717   3.686 -0.6775 -0.3410  0.2796
 6279SOL    MW424850   2.066   5.792   3.704  0.8917 -0.7351 -0.0913
 6280SOL     OW24851   0.248   2.761   5.334  0.6383  0.1345  0.0848
 6280SOL    HW224852   0.233   2.855   5.349 -1.0563  0.0159 -0.7075
 6280SOL    HW324853   0.206   2.718   5.408  1.2741 -0.0277  0.3600
 6280SOL    MW424854   0.241   2.768   5.346  0.0256 -0.3526 -0.0757
 6281SOL     OW24855   2.886   4.005   1.126  0.2920  0.0436 -0.3020
 6281SOL    HW224856   2.950   3.935   1.116 -1.4285 -1.8362  0.9572
 6281SOL    HW324857   2.804   3.967   1.093 -0.7150  1.4281  0.5006
 6281SOL    MW424858   2.883   3.991   1.120 -0.3144  0.1450 -0.4876
 6282SOL     OW24859   3.490   2.893   3.531 -0.5457  0.4402  0.2120
 6282SOL    HW224860   3.439   2.819   3.564  0.4844 -0.7407 -0.7582
 6282SOL    HW324861   3.425   2.949   3.489 -1.2340 -0.3140  0.2345
 6282SOL    MW424862   3.474   2.891   3.530 -0.2022  0.0733 -0.4313
 6283SOL     OW24863   0.798   4.612   0.135 -0.2502 -0.3111  0.1893
 6283SOL    HW224864   0.753   4.606   0.051  0.6543  1.8115 -0.5297
 6283SOL    HW324865   0.745   4.560   0.195 -1.7563 -0.6441 -1.3611
 6283SOL    MW424866   0.785   4.605   0.132 -0.3755 -0.5545  0.4116
 6284SOL     OW24867   1.582   3.874   5.649  0.0938  0.0220  0.4665
 6284SOL    HW224868   1.608   3.962   5.621 -2.1144  0.8402  0.6894
 6284SOL    HW324869   1.551   3.887   5.739  3.0814 -1.7339  1.9033
 6284SOL    MW424870   1.581   3.888   5.657  0.2366  0.5631  0.1985
 6285SOL     OW24871   0.643   1.828   4.945 -0.7428 -0.0044 -0.0346
 6285SOL    HW224872   0.635   1.923   4.955 -1.1269  0.0428 -0.6775
 6285SOL    HW324873   0.712   1.817   4.879 -0.8250 -0.1595 -0.0957
 6285SOL    MW424874   0.651   1.839   4.937 -0.3885 -0.3148 -0.0624
 6286SOL     OW24875   1.716   0.339   1.941 -0.3970 -0.2812 -0.3777
 6286SOL    HW224876   1.785   0.319   2.005 -0.7695  0.1612  0.1703
 6286SOL    HW324877   1.647   0.276   1.958 -0.2956 -0.4705 -0.6641
 6286SOL    MW424878   1.716   0.328   1.951 -0.0069 -0.0980 -0.1628
 6287SOL     OW24879   3.018   6.084   1.832  0.4569 -0.2390 -0.6228
 6287SOL    HW224880   2.959   6.153   1.801 -0.8982 -2.0380 -2.3466
 6287SOL    HW324881   3.083   6.075   1.762  0.8369 -0.4821 -0.2404
 6287SOL    MW424882   3.019   6.092   1.819  0.0884  0.2672  0.4052
 6288SOL     OW24883   0.338   0.524   1.465 -0.4071 -0.3219  0.3122
 6288SOL    HW224884   0.313   0.559   1.380  0.3327  1.2059  0.6786
 6288SOL    HW324885   0.309   0.591   1.528 -0.6386 -1.2628  1.2311
 6288SOL    MW424886   0.331   0.538   1.462  0.9531 -0.0581 -0.0581
 6289SOL     OW24887   3.049   3.445   2.706  0.1103 -0.0315  0.6116
 6289SOL    HW224888   2.992   3.404   2.771 -0.0054  0.6117  0.9238
 6289SOL    HW324889   3.069   3.374   2.644 -1.9198 -0.0052 -0.1487
 6289SOL    MW424890   3.044   3.430   2.706 -0.6509  0.2639 -0.1937
 6290SOL     OW24891   3.963   2.741   3.811  0.1509 -0.1664  0.4304
 6290SOL    HW224892   3.964   2.719   3.718 -0.1051  0.5200  0.2569
 6290SOL    HW324893   4.047   2.784   3.827  1.2046 -2.3367  1.0559
 6290SOL    MW424894   3.974   2.744   3.801  0.2095  0.1196 -0.3127
 6291SOL     OW24895   4.465   3.203   2.888  0.5399  0.0645  0.3352
 6291SOL    HW224896   4.542   3.175   2.937  1.2957 -0.6269 -1.1620
 6291SOL    HW324897   4.501   3.245   2.810 -0.5947 -0.4025 -0.4663
 6291SOL    MW424898   4.480   3.205   2.884  0.4739 -0.8857 -0.8051
 6292SOL     OW24899   0.980   2.369   1.895  0.2806  0.5802  0.6000
 6292SOL    HW224900   0.935   2.359   1.811  0.8013 -0.5949  0.4329
 6292SOL    HW324901   0.910   2.370   1.960 -0.1236  1.4312  0.1744
 6292SOL    MW424902   0.965   2.368   1.892  0.2723  0.7427 -0.2463
 6293SOL     OW24903   5.449   2.787   1.942 -0.1800 -0.0325 -0.6566
 6293SOL    HW224904   5.539   2.808   1.916 -0.9167  0.7352 -2.8215
 6293SOL    HW324905   5.441   2.820   2.032  1.3245  1.0110 -0.8801
 6293SOL    MW424906   5.460   2.794   1.951 -0.0089  0.3295  0.0039
 6294SOL     OW24907   1.244   3.895   2.229 -0.4443  0.3813  0.0283
 6294SOL    HW224908   1.183   3.892   2.303  0.9582  0.5783  1.2444
 6294SOL    HW324909   1.311   3.959   2.255 -0.7367  1.6477 -2.0984
 6294SOL    MW424910   1.245   3.903   2.242  0.5852 -0.0747 -0.0434
 6295SOL     OW24911   0.872   3.682   2.813 -0.3708  0.0172  0.3047
 6295SOL    HW224912   0.833   3.599   2.841  0.2487 -0.1569  0.6677
 6295SOL    HW324913   0.961   3.680   2.849 -0.8356  1.5104  1.6296
 6295SOL    MW424914   0.879   3.671   2.821  0.1916  0.4786  0.0294
 6296SOL     OW24915   4.993   1.118   0.730  0.5912 -0.4967  0.2128
 6296SOL    HW224916   4.931   1.088   0.663 -3.3583  0.0024  3.2868
 6296SOL    HW324917   4.968   1.070   0.809  2.1720  1.9773  2.3630
 6296SOL    MW424918   4.982   1.107   0.732  0.5163 -0.5614  0.2445
 6297SOL     OW24919   3.412   5.897   1.801 -0.0704 -0.1281 -0.2273
 6297SOL    HW224920   3.464   5.976   1.786  0.4215 -0.3495  0.2482
 6297SOL    HW324921   3.398   5.895   1.896 -0.0900 -0.6033 -0.2377
 6297SOL    MW424922   3.417   5.907   1.811 -0.4351 -0.2403  0.4946
 6298SOL     OW24923   4.291   0.851   1.922  0.3104 -0.4077 -0.3600
 6298SOL    HW224924   4.288   0.826   1.830 -0.5863 -0.0735 -0.4267
 6298SOL    HW324925   4.235   0.788   1.967 -2.8812  1.9502 -0.6838
 6298SOL    MW424926   4.284   0.840   1.915  0.5267  0.3596 -0.1813
 6299SOL     OW24927   4.018   3.808   2.402  0.0694 -0.4937 -0.1455
 6299SOL    HW224928   4.004   3.767   2.488  0.8113  0.6592  0.5559
 6299SOL    HW324929   3.942   3.866   2.391 -0.0497 -0.6773 -0.2936
 6299SOL    MW424930   4.006   3.810   2.412  0.4816  0.5450  0.0223
 6300SOL     OW24931   6.428   1.544   0.781  0.2468 -0.0448  0.2699
 6300SOL    HW224932   6.348   1.522   0.733  1.6226 -2.3536 -1.1582
 6300SOL    HW324933   6.492   1.564   0.713  1.2591  0.4602  1.3317
 6300SOL    MW424934   6.426   1.544   0.766 -0.3131  0.4621  0.0582
 6301SOL     OW24935   6.332   0.110   0.756  0.1988  0.4467  0.0875
 6301SOL    HW224936   6.283   0.177   0.710 -0.2135 -0.1419 -0.3445
 6301SOL    HW324937   6.424   0.130   0.737  0.2917  2.5074  2.1924
 6301SOL    MW424938   6.338   0.121   0.747  0.2550 -0.1059 -0.7381
 6302SOL     OW24939   1.950   1.950   4.415  0.0359 -0.6588 -0.7740
 6302SOL    HW224940   2.015   1.939   4.345  0.6258 -0.7402 -0.2179
 6302SOL    HW324941   2.000   1.945   4.496 -1.0458 -3.9598 -0.1713
 6302SOL    MW424942   1.965   1.948   4.416 -0.7134  0.4037  0.4796
 6303SOL     OW24943   3.480   3.057   0.838 -0.0196  0.4165  0.2463
 6303SOL    HW224944   3.457   3.122   0.771 -0.3161 -0.5043 -0.5570
 6303SOL    HW324945   3.498   2.977   0.790 -0.7115 -0.4075  1.2911
 6303SOL    MW424946   3.479   3.055   0.823 -0.3149  0.8489  0.2751
 6304SOL     OW24947   2.817   5.411   2.069  0.0690 -0.1090 -0.1411
 6304SOL    HW224948   2.830   5.357   1.991 -0.6958 -1.9718  0.9375
 6304SOL    HW324949   2.744   5.468   2.047  0.1268 -0.3298 -0.9399
 6304SOL    MW424950   2.809   5.411   2.056  0.0408 -0.1366  0.3784
 6305SOL     OW24951   3.811   1.881   0.787 -0.4311  0.0506 -0.4370
 6305SOL    HW224952   3.820   1.861   0.880 -0.3570  0.3808 -0.3720
 6305SOL    HW324953   3.751   1.956   0.785 -0.6719 -0.1482 -0.6727
 6305SOL    MW424954   3.804   1.888   0.799  0.2073  0.3219  0.0459
 6306SOL     OW24955   5.333   1.427   4.772 -0.1552  0.0621 -0.4463
 6306SOL    HW224956   5.333   1.331   4.765 -2.0867  0.1107 -2.0152
 6306SOL    HW324957   5.339   1.444   4.866  1.3151 -1.5478 -0.1876
 6306SOL    MW424958   5.334   1.417   4.783  0.2427  0.4296  0.2983
 6307SOL     OW24959   0.795   5.437   5.156 -0.9651  0.3778 -0.2088
 6307SOL    HW224960   0.830   5.389   5.081  2.8169  0.3012  1.3720
 6307SOL    HW324961   0.860   5.506   5.173 -3.0781  2.1413  1.3757
 6307SOL    MW424962   0.809   5.440   5.148  0.0895  0.3234  0.1054
 6308SOL     OW24963   5.824   5.591   0.709  0.1480 -0.4628  0.4054
 6308SOL    HW224964   5.823   5.499   0.735 -1.6271 -0.4915  0.3421
 6308SOL    HW324965   5.746   5.601   0.653 -0.3131  1.3080  1.3012
 6308SOL    MW424966   5.813   5.580   0.705 -0.6658  0.0595 -0.1455
 6309SOL     OW24967   1.699   6.113   5.408 -1.1879 -0.3411 -0.1390
 6309SOL    HW224968   1.637   6.185   5.397 -2.4557 -1.5001 -0.8330
 6309SOL    HW324969   1.654   6.036   5.374  0.7019 -1.2173 -0.8469
 6309SOL    MW424970   1.685   6.113   5.402  0.2623  0.2398  0.0333
 6310SOL     OW24971   0.440   1.653   2.783 -0.2442 -0.2555  0.3956
 6310SOL    HW224972   0.498   1.713   2.829  0.3471 -0.1536 -0.4665
 6310SOL    HW324973   0.412   1.701   2.705 -0.1708 -0.9072 -0.0372
 6310SOL    MW424974   0.444   1.667   2.779 -0.1957  0.4704 -0.2408
 6311SOL     OW24975   3.177   4.294   3.356 -0.2819 -0.0733 -0.2306
 6311SOL    HW224976   3.081   4.293   3.350 -0.3707 -0.5462  1.1688
 6311SOL    HW324977   3.202   4.202   3.361  0.2302  0.0646 -0.2384
 6311SOL    MW424978   3.167   4.282   3.356 -0.5323 -0.4377 -0.1427
 6312SOL     OW24979   2.688   2.653   2.475 -0.2677  0.1402 -0.3677
 6312SOL    HW224980   2.778   2.636   2.449 -0.3137  0.1088 -0.5085
 6312SOL    HW324981   2.694   2.679   2.567 -0.0726  0.5816 -0.5063
 6312SOL    MW424982   2.701   2.654   2.484  0.4111 -0.0221 -0.4205
 6313SOL     OW24983   2.559   1.342   3.013 -0.3644  0.3585 -0.4757
 6313SOL    HW224984   2.580   1.251   2.994  0.8076  0.8098 -1.5099
 6313SOL    HW324985   2.582   1.389   2.933 -0.1989  1.6654  0.3054
 6313SOL    MW424986   2.565   1.336   3.000 -0.4957  1.2269  0.4715
 6314SOL     OW24987   2.651   0.119   3.939 -0.0733 -0.0258  0.3011
 6314SOL    HW224988   2.604   0.036   3.935  0.8337 -0.5235 -2.5442
 6314SOL    HW324989   2.583   0.185   3.952 -0.9965 -1.0586  0.8967
 6314SOL    MW424990   2.636   0.117   3.940  0.3214 -0.1930  0.5041
 6315SOL     OW24991   4.303   2.959   3.093  0.3149  0.6576  0.6612
 6315SOL    HW224992   4.279   3.043   3.054  1.5806  0.9322  0.4426
 6315SOL    HW324993   4.350   2.982   3.173 -0.8302  0.1159  1.5302
 6315SOL    MW424994   4.306   2.973   3.098 -0.8379 -0.2304 -0.3390
 6316SOL     OW24995   2.397   4.904   4.990 -0.1619 -0.1628  0.5670
 6316SOL    HW224996   2.407   4.949   4.906  1.2055 -0.2045  0.6803
 6316SOL    HW324997   2.303   4.904   5.006 -0.3234  1.1577 -0.2406
 6316SOL    MW424998   2.386   4.910   4.981 -0.5604 -0.0259 -0.5327
 6317SOL     OW24999   5.097   4.293   0.253  0.0492  0.3867  0.0472
 6317SOL    HW225000   5.172   4.256   0.300  0.8572  0.4515 -1.1450
 6317SOL    HW325001   5.041   4.328   0.322  1.6298  1.2913  0.9338
 6317SOL    MW425002   5.100   4.293   0.268 -0.4162  0.0284  0.0518
 6318SOL     OW25003   0.556   0.348   5.159 -0.1894  0.5095  0.6020
 6318SOL    HW225004   0.545   0.426   5.213 -0.0650  0.3904  0.7994
 6318SOL    HW325005   0.527   0.375   5.072 -1.2906  0.4475  0.9237
 6318SOL    MW425006   0.551   0.362   5.155 -0.0636  0.1973 -0.0668
 6319SOL     OW25007   0.556   5.923   2.095 -0.0255 -0.5740 -0.1328
 6319SOL    HW225008   0.466   5.921   2.061  0.5034  0.6872 -1.7663
 6319SOL    HW325009   0.581   5.831   2.101 -1.3932 -0.9364  0.2752
 6319SOL    MW425010   0.548   5.910   2.091 -0.2775  0.0564 -0.6010
 6320SOL     OW25011   4.648   0.808   0.955 -0.2951  0.0229 -0.1658
 6320SOL    HW225012   4.558   0.818   0.985 -0.4276 -0.4901 -0.3901
 6320SOL    HW325013   4.695   0.772   1.031 -0.2602  0.3618 -0.0250
 6320SOL    MW425014   4.643   0.805   0.969 -0.0852 -0.2866  0.8568
 6321SOL     OW25015   3.036   0.993   0.520  0.7749  0.2049  0.4707
 6321SOL    HW225016   2.967   0.957   0.576  0.3751  1.7317  1.0203
 6321SOL    HW325017   3.109   0.932   0.529  0.0989 -0.5161  1.2542
 6321SOL    MW425018   3.037   0.980   0.528 -0.1433 -0.2104  0.2532
 6322SOL     OW25019   1.877   0.121   3.429  0.6574 -0.3350  0.1121
 6322SOL    HW225020   1.856   0.202   3.476  0.0772 -0.7563  0.6035
 6322SOL    HW325021   1.971   0.127   3.411  0.6063  0.4724  0.0875
 6322SOL    MW425022   1.887   0.132   3.433 -0.4958  0.0389  0.4026
 6323SOL     OW25023   3.395   5.019   2.756  0.7821  0.2109 -0.5058
 6323SOL    HW225024   3.444   4.937   2.761  1.9409  0.8513 -1.0820
 6323SOL    HW325025   3.390   5.039   2.663 -1.4860 -0.3437 -0.5707
 6323SOL    MW425026   3.401   5.011   2.744  0.3888  0.3759  0.0381
 6324SOL     OW25027   3.994   0.143   6.148  0.0569  0.8459 -0.2565
 6324SOL    HW225028   3.927   0.167   6.084  0.5193 -0.7172 -1.3983
 6324SOL    HW325029   3.955   0.073   6.199  0.3108  0.8890 -0.0004
 6324SOL    MW425030   3.980   0.137   6.146  0.5870  0.2920  0.0130
 6325SOL     OW25031   1.197   0.427   1.419  0.8814 -0.3682  0.9257
 6325SOL    HW225032   1.255   0.421   1.495  2.0149 -0.2498  0.1008
 6325SOL    HW325033   1.178   0.336   1.396  1.6536 -0.4443  0.5467
 6325SOL    MW425034   1.202   0.414   1.426  0.2798 -0.3701  0.5380
 6326SOL     OW25035   6.367   0.824   5.309 -0.7712 -0.0328  0.2095
 6326SOL    HW225036   6.426   0.800   5.380 -1.4220 -0.5542  0.5834
 6326SOL    HW325037   6.411   0.794   5.229 -0.3321 -0.0100  0.4428
 6326SOL    MW425038   6.381   0.817   5.308 -0.2416  0.5253 -0.0634
 6327SOL     OW25039   3.378   4.351   1.835  0.6523 -0.0577 -0.1661
 6327SOL    HW225040   3.361   4.258   1.819  0.8016 -0.1701  0.3133
 6327SOL    HW325041   3.473   4.359   1.829  0.8809 -0.4087  2.1604
 6327SOL    MW425042   3.388   4.340   1.832 -0.0556 -0.3199 -0.1860
 6328SOL     OW25043   6.391   3.249   5.723 -0.5038 -0.1442  0.6255
 6328SOL    HW225044   6.414   3.342   5.725 -0.4513 -0.1772  2.2517
 6328SOL    HW325045   6.296   3.247   5.737 -0.4546 -0.3488  0.9418
 6328SOL    MW425046   6.382   3.261   5.725 -0.1039  0.5399  0.3565
 6329SOL     OW25047   3.711   2.671   3.494  0.0565  0.1427 -0.1208
 6329SOL    HW225048   3.755   2.602   3.543  2.2897  2.5342  1.5567
 6329SOL    HW325049   3.681   2.732   3.562 -0.4402  1.5579 -1.5663
 6329SOL    MW425050   3.713   2.670   3.510 -0.0754  0.2895 -0.4230
 6330SOL     OW25051   4.042   5.808   5.962 -0.4975  0.3797  1.0048
 6330SOL    HW225052   4.121   5.755   5.950 -1.4962 -0.9888  0.1948
 6330SOL    HW325053   3.988   5.788   5.886 -1.3266  1.8721  1.1566
 6330SOL    MW425054   4.045   5.798   5.950 -0.5795  0.0083  0.0141
 6331SOL     OW25055   2.641   1.061   6.108  0.3884  0.0395 -0.3328
 6331SOL    HW225056   2.681   1.083   6.024 -1.5405  1.2550 -1.0029
 6331SOL    HW325057   2.673   0.973   6.128  1.7491  0.1726 -1.7797
 6331SOL    MW425058   2.651   1.053   6.100  0.0696 -0.3090 -0.1311
 6332SOL     OW25059   2.476   1.375   4.955 -0.4694  0.6450 -0.7157
 6332SOL    HW225060   2.468   1.282   4.975  1.7171  0.2260 -1.4869
 6332SOL    HW325061   2.442   1.419   5.032 -1.4195 -0.7834 -0.2783
 6332SOL    MW425062   2.471   1.369   4.968 -0.0702  0.1406  0.2544
 6333SOL     OW25063   0.130   5.358   2.257 -0.3221 -0.3697  0.0311
 6333SOL    HW225064   0.106   5.435   2.307 -0.5558 -1.8636  2.3648
 6333SOL    HW325065   0.114   5.382   2.166 -0.8043  2.1388  0.7158
 6333SOL    MW425066   0.125   5.371   2.252  0.0697  0.1831  0.3721
 6334SOL     OW25067   3.609   2.399   1.576 -0.1989 -0.5493 -0.5709
 6334SOL    HW225068   3.546   2.469   1.554  1.9936  1.3569 -1.1689
 6334SOL    HW325069   3.640   2.422   1.664  0.2780 -0.9827 -0.6218
 6334SOL    MW425070   3.605   2.411   1.585 -0.1873  0.0429  0.0250
 6335SOL     OW25071   1.484   4.751   3.031  0.7407  0.2791  0.1708
 6335SOL    HW225072   1.502   4.691   2.958  0.0381 -0.1308  0.3295
 6335SOL    HW325073   1.453   4.694   3.102 -2.2297  1.0200 -0.4216
 6335SOL    MW425074   1.482   4.735   3.031 -0.4671 -0.0354  0.4278
 6336SOL     OW25075   5.644   0.307   3.429  0.6145 -0.3568  0.1935
 6336SOL    HW225076   5.676   0.371   3.365  1.2089  0.0548  0.8843
 6336SOL    HW325077   5.550   0.302   3.412  0.4581  1.0877  0.4303
 6336SOL    MW425078   5.636   0.315   3.419  0.4851  0.0525 -0.4080
 6337SOL     OW25079   3.510   2.013   4.365  0.0598  0.3914  0.4099
 6337SOL    HW225080   3.453   2.025   4.440 -0.7116  1.0785 -0.2571
 6337SOL    HW325081   3.455   2.035   4.289  1.3741  1.7138 -0.2196
 6337SOL    MW425082   3.495   2.018   4.365  0.3190 -0.2669 -0.4102
 6338SOL     OW25083   1.934   2.356   6.149 -0.1147 -0.4551 -0.4256
 6338SOL    HW225084   1.987   2.300   6.092  0.6699  0.8485 -1.0125
 6338SOL    HW325085   1.989   2.372   6.225  0.8616  1.7684 -1.5021
 6338SOL    MW425086   1.948   2.350   6.151 -0.1140 -0.0672  0.3408
 6339SOL     OW25087   1.790   0.840   2.091  0.4039  0.2557  0.1065
 6339SOL    HW225088   1.830   0.762   2.131 -1.2808 -1.0192 -0.5510
 6339SOL    HW325089   1.864   0.895   2.067  1.7775 -1.7657 -0.6465
 6339SOL    MW425090   1.805   0.837   2.093 -0.1988 -0.0010 -0.6077
 6340SOL     OW25091   3.289   4.386   2.613  0.6546 -0.3093 -0.5378
 6340SOL    HW225092   3.285   4.332   2.535  2.3735  0.1443 -0.9888
 6340SOL    HW325093   3.334   4.466   2.585  2.8061 -0.7952  1.2202
 6340SOL    MW425094   3.294   4.390   2.599 -0.0304 -0.0029  0.6707
 6341SOL     OW25095   3.659   4.328   5.392 -0.2359 -0.2447 -0.7123
 6341SOL    HW225096   3.614   4.297   5.313 -1.8746  0.3044 -0.0305
 6341SOL    HW325097   3.589   4.345   5.455  0.9403  0.6372  0.4159
 6341SOL    MW425098   3.644   4.326   5.390  0.4349 -0.2288  0.0619
 6342SOL     OW25099   3.562   3.332   0.957 -0.1223 -0.1644  0.0413
 6342SOL    HW225100   3.565   3.311   1.051  1.8567  0.9676  0.2856
 6342SOL    HW325101   3.563   3.246   0.914  2.4157 -0.7740  1.0657
 6342SOL    MW425102   3.563   3.318   0.964 -0.3366  0.0234  0.0854
 6343SOL     OW25103   0.221   5.540   4.954  0.3486 -0.7645  0.5591
 6343SOL    HW225104   0.285   5.507   4.891 -2.0650 -2.5916 -1.0903
 6343SOL    HW325105   0.200   5.628   4.922  1.0389 -0.6748  0.3359
 6343SOL    MW425106   0.227   5.547   4.942 -0.4182  0.0015 -0.2444
 6344SOL     OW25107   2.281   5.623   2.258  0.3568  0.0813  0.5363
 6344SOL    HW225108   2.198   5.657   2.291  0.0142  1.0636 -1.2385
 6344SOL    HW325109   2.347   5.684   2.292 -0.1009  1.7388 -1.3137
 6344SOL    MW425110   2.279   5.636   2.267  0.0478 -0.0039 -0.0360
 6345SOL     OW25111   3.017   3.506   1.643 -0.3048  0.3887 -0.3596
 6345SOL    HW225112   3.054   3.419   1.626  0.2220  0.5996 -0.3267
 6345SOL    HW325113   2.932   3.489   1.683  0.6470 -0.1534  1.5611
 6345SOL    MW425114   3.011   3.492   1.646  0.9368 -0.0598 -0.0303
 6346SOL     OW25115   6.138   1.577   4.223  0.4206 -0.0640 -0.5552
 6346SOL    HW225116   6.063   1.583   4.282  0.4550 -0.0295 -0.5152
 6346SOL    HW325117   6.195   1.512   4.264  0.2447 -0.3570 -0.7709
 6346SOL    MW425118   6.135   1.569   4.236  0.0960  0.2020 -0.3068
 6347SOL     OW25119   4.649   3.053   3.918  0.2569  0.1115 -0.1310
 6347SOL    HW225120   4.598   3.032   3.839  1.5407  0.6447 -1.1303
 6347SOL    HW325121   4.585   3.046   3.989 -0.5751 -2.0338 -0.9831
 6347SOL    MW425122   4.634   3.049   3.917  0.0276  0.1300  0.2880
 6348SOL     OW25123   4.034   1.314   0.332  0.2411  0.0379  0.0052
 6348SOL    HW225124   4.109   1.370   0.351  0.2654  0.0328 -0.0759
 6348SOL    HW325125   3.960   1.355   0.378  0.5414 -0.6529  1.1706
 6348SOL    MW425126   4.034   1.327   0.341  0.1240 -0.4703  0.0308
 6349SOL     OW25127   5.121   1.739   3.740  0.1851  0.2497 -0.3758
 6349SOL    HW225128   5.059   1.800   3.700 -1.4501 -0.0673  1.5450
 6349SOL    HW325129   5.146   1.780   3.823 -0.3774 -1.3132  0.6103
 6349SOL    MW425130   5.116   1.753   3.745 -0.2011 -0.1155 -0.1528
 6350SOL     OW25131   3.172   0.280   1.551  0.6359 -0.3060  0.0612
 6350SOL    HW225132   3.185   0.295   1.458  0.7511 -1.3357 -0.1062
 6350SOL    HW325133   3.147   0.187   1.557  0.2554 -0.1554  1.0133
 6350SOL    MW425134   3.170   0.269   1.540 -0.6746 -0.2121 -0.2750
 6351SOL     OW25135   1.125   3.664   5.143  0.2562 -0.3789 -0.5504
 6351SOL    HW225136   1.075   3.685   5.063  0.3639  1.4128 -0.1853
 6351SOL    HW325137   1.164   3.579   5.125 -0.0112 -0.1726 -2.2742
 6351SOL    MW425138   1.123   3.655   5.130  0.7837  0.0737 -0.5028
 6352SOL     OW25139   6.342   6.306   4.055  0.0325  0.3400  0.2221
 6352SOL    HW225140   6.279   6.276   4.121  0.1623  0.0019  0.1897
 6352SOL    HW325141   6.354   6.232   3.996  0.1224  0.5523 -0.0313
 6352SOL    MW425142   6.335   6.292   4.056 -0.8255 -0.4620 -0.2250
 6353SOL     OW25143   2.198   1.825   3.935  0.0250  0.2529 -0.1392
 6353SOL    HW225144   2.283   1.792   3.905 -0.3252  1.6034 -2.9142
 6353SOL    HW325145   2.142   1.747   3.934  0.8216 -0.3470  0.1338
 6353SOL    MW425146   2.202   1.810   3.931  0.2530 -0.0892  0.0497
 6354SOL     OW25147   3.766   0.098   2.162 -0.0448 -0.2897 -0.1832
 6354SOL    HW225148   3.773   0.133   2.251  1.1175 -3.7432  1.2499
 6354SOL    HW325149   3.677   0.063   2.157 -1.3354  2.7779 -1.7426
 6354SOL    MW425150   3.755   0.098   2.173  0.3950  0.0670 -0.2224
 6355SOL     OW25151   0.034   2.688   4.458 -0.0576  0.5211 -0.1319
 6355SOL    HW225152   0.058   2.778   4.480  0.9420 -0.2070  2.0875
 6355SOL    HW325153  -0.033   2.665   4.522 -2.5939  0.5836 -2.5919
 6355SOL    MW425154   0.028   2.697   4.469  0.2554 -0.3899 -0.3510
 6356SOL     OW25155   2.902   2.751   5.354 -1.0005 -0.3322 -0.3041
 6356SOL    HW225156   2.933   2.833   5.392  1.9441 -0.9026 -1.2205
 6356SOL    HW325157   2.870   2.776   5.267 -0.7007 -0.0617 -0.3381
 6356SOL    MW425158   2.902   2.765   5.347  0.1258 -0.0095 -0.0855
 6357SOL     OW25159   2.512   1.245   4.357  0.0283  0.2409  0.1336
 6357SOL    HW225160   2.591   1.298   4.341  0.9216 -1.3052 -0.8887
 6357SOL    HW325161   2.529   1.203   4.441  0.9891 -1.2039 -0.7503
 6357SOL    MW425162   2.525   1.247   4.366  0.1248 -0.2136 -0.3284
 6358SOL     OW25163   5.553   1.075   5.541 -0.1733 -0.0579 -0.0314
 6358SOL    HW225164   5.603   1.156   5.537 -2.0966  1.6418  4.1251
 6358SOL    HW325165   5.618   1.006   5.531  1.9073  1.9423 -1.2756
 6358SOL    MW425166   5.568   1.077   5.539 -0.5297 -0.1024  0.3419
 6359SOL     OW25167   5.699   2.397   0.555  0.1028  0.0292 -0.0789
 6359SOL    HW225168   5.737   2.483   0.536 -1.6425  0.5540 -1.4356
 6359SOL    HW325169   5.676   2.402   0.648 -1.0997  1.5547 -0.4052
 6359SOL    MW425170   5.701   2.409   0.565 -0.9028  0.3070  0.1527
 6360SOL     OW25171   1.341   2.311   4.721  0.2357  0.1183  0.4569
 6360SOL    HW225172   1.371   2.300   4.811 -2.0396 -0.5672  1.1981
 6360SOL    HW325173   1.374   2.233   4.676  1.2924  0.4109  0.6961
 6360SOL    MW425174   1.350   2.299   4.727  0.3958  0.0107  0.5661
 6361SOL     OW25175   3.987   6.282   4.762  0.1365  0.2630 -0.1025
 6361SOL    HW225176   3.911   6.286   4.703 -0.5297 -0.7519  0.6406
 6361SOL    HW325177   3.964   6.340   4.834  0.1791  0.1597 -0.0058
 6361SOL    MW425178   3.974   6.290   4.764 -0.3377 -0.2050 -0.3037
 6362SOL     OW25179   4.252   1.502   5.164  0.3006 -0.2217  0.5148
 6362SOL    HW225180   4.278   1.537   5.249 -1.4062  1.4502  0.4137
 6362SOL    HW325181   4.179   1.444   5.183  1.4254 -1.7404  0.3895
 6362SOL    MW425182   4.246   1.499   5.177  0.0663 -0.3246 -0.3447
 6363SOL     OW25183   0.766   2.234   1.090  0.6226  0.4480 -0.1109
 6363SOL    HW225184   0.722   2.293   1.029 -1.0552 -0.2682  0.3419
 6363SOL    HW325185   0.726   2.252   1.175 -1.9833 -3.0457 -0.3432
 6363SOL    MW425186   0.755   2.244   1.093  0.3021 -0.0546  0.2021
 6364SOL     OW25187   4.172   3.505   1.959 -0.0490 -0.0121  0.1431
 6364SOL    HW225188   4.170   3.564   2.035  0.5805 -1.1147  1.0541
 6364SOL    HW325189   4.251   3.453   1.972  1.3560  1.2606 -2.4587
 6364SOL    MW425190   4.182   3.506   1.971  0.5037  0.3614 -0.0123
 6365SOL     OW25191   5.743   4.481   5.050  0.0905 -0.1278  0.2296
 6365SOL    HW225192   5.715   4.419   4.983 -0.8447  0.0541  0.4441
 6365SOL    HW325193   5.838   4.473   5.051 -0.0230 -1.7747  0.4538
 6365SOL    MW425194   5.752   4.471   5.042  0.2094  0.3032 -0.2202
 6366SOL     OW25195   2.702   5.047   1.458  0.2778 -0.0184 -0.0191
 6366SOL    HW225196   2.786   5.092   1.445 -0.4856  1.7844  0.8914
 6366SOL    HW325197   2.637   5.117   1.447 -0.9489 -0.7554  2.1326
 6366SOL    MW425198   2.705   5.062   1.455 -0.2059 -0.1803  0.0399
 6367SOL     OW25199   2.947   4.829   1.161 -0.5443  0.1687 -0.4510
 6367SOL    HW225200   2.913   4.751   1.118 -1.1394  0.3425 -0.3082
 6367SOL    HW325201   2.914   4.823   1.251 -1.6777  1.2143 -0.7694
 6367SOL    MW425202   2.938   4.818   1.167 -0.4232 -0.1424 -0.5167
 6368SOL     OW25203   5.641   6.261   4.700  0.6181 -0.7844  0.1061
 6368SOL    HW225204   5.717   6.205   4.687  1.5301  0.6412 -1.0001
 6368SOL    HW325205   5.670   6.327   4.764 -0.3415 -1.3382  1.1584
 6368SOL    MW425206   5.655   6.262   4.707  0.7005  0.1186 -0.3342
 6369SOL     OW25207   2.936   3.470   4.086  0.3252  0.3353  0.3693
 6369SOL    HW225208   2.846   3.444   4.101  0.3575 -0.0050 -0.0150
 6369SOL    HW325209   2.937   3.504   3.996  0.4720  0.8178  0.5488
 6369SOL    MW425210   2.924   3.471   4.076 -0.2775 -0.5021  0.2463
 6370SOL     OW25211   6.062   2.505   4.939 -0.0150 -0.1359  0.6735
 6370SOL    HW225212   6.093   2.594   4.922 -0.1665  0.2200  2.0974
 6370SOL    HW325213   6.095   2.453   4.866 -0.1856  1.1381 -0.3587
 6370SOL    MW425214   6.070   2.510   4.927 -0.6310 -0.2876  0.2177
 6371SOL     OW25215   1.785   3.690   4.399 -0.0649 -0.2315 -1.1484
 6371SOL    HW225216   1.705   3.741   4.386  0.1789  1.0772  1.6487
 6371SOL    HW325217   1.787   3.673   4.493  2.7941 -0.4568 -1.1600
 6371SOL    MW425218   1.775   3.695   4.410  0.2813  0.3416 -0.2752
 6372SOL     OW25219   2.272   2.886   2.568  0.1936 -0.3382  0.1166
 6372SOL    HW225220   2.286   2.918   2.657 -1.2457  0.3928  0.1080
 6372SOL    HW325221   2.352   2.911   2.521  0.6713 -0.1091  1.0345
 6372SOL    MW425222   2.284   2.894   2.573  0.0977 -0.1181  0.3261
 6373SOL     OW25223   6.377   5.035   3.742 -0.0961 -0.4844  0.1751
 6373SOL    HW225224   6.287   5.066   3.746 -0.6471 -1.9571 -0.3090
 6373SOL    HW325225   6.427   5.101   3.791 -1.4489  0.2355  0.6410
 6373SOL    MW425226   6.372   5.048   3.749 -0.0266  0.6825 -0.3491
 6374SOL     OW25227   2.809   1.083   2.037 -0.0136  0.3271  0.2571
 6374SOL    HW225228   2.792   1.110   1.946  1.8892  1.2013  0.1100
 6374SOL    HW325229   2.880   1.140   2.066  0.2594 -0.7794  1.8956
 6374SOL    MW425230   2.816   1.094   2.028 -0.2578  0.7451  0.2701
 6375SOL     OW25231   3.342   1.624   2.154  0.4207  0.4045 -0.4111
 6375SOL    HW225232   3.306   1.582   2.232  1.4456 -1.8535 -1.0786
 6375SOL    HW325233   3.319   1.716   2.164 -3.8613 -0.5297  0.1072
 6375SOL    MW425234   3.334   1.630   2.166  0.7216  0.2312 -0.4061
 6376SOL     OW25235   5.846   3.571   6.077 -0.3535  0.3073 -0.2787
 6376SOL    HW225236   5.761   3.585   6.036  0.4787  1.3142 -1.7811
 6376SOL    HW325237   5.869   3.481   6.055 -1.5328 -0.3934  1.1973
 6376SOL    MW425238   5.838   3.561   6.069 -0.6950  0.3737  0.3571
 6377SOL     OW25239   6.111   5.576   4.067  0.0695  0.1269 -0.4031
 6377SOL    HW225240   6.022   5.588   4.101  0.1130  0.5192 -0.4246
 6377SOL    HW325241   6.126   5.482   4.073  1.0769  0.3935  3.1544
 6377SOL    MW425242   6.101   5.565   4.072  0.5302 -0.2002 -0.7031
 6378SOL     OW25243   1.916   1.050   1.723  0.1680 -0.3271 -0.6115
 6378SOL    HW225244   1.928   1.087   1.811 -1.2585 -1.3839  0.0716
 6378SOL    HW325245   1.939   1.121   1.664  1.4577  0.3172  0.6050
 6378SOL    MW425246   1.921   1.064   1.727 -0.5115 -0.0818  1.0719
 6379SOL     OW25247   1.916   4.875   5.321  0.4969  0.0590 -0.2387
 6379SOL    HW225248   1.984   4.809   5.333 -1.3804 -1.6878  1.4325
 6379SOL    HW325249   1.914   4.890   5.226  1.2438 -1.9973 -0.6305
 6379SOL    MW425250   1.925   4.868   5.310 -0.1979  0.0877 -0.7086
 6380SOL     OW25251   5.574   4.634   5.804 -0.2033  0.0685 -0.0162
 6380SOL    HW225252   5.563   4.705   5.867 -1.4213  1.0311 -1.2348
 6380SOL    HW325253   5.654   4.656   5.757 -0.9901  1.1298 -0.9274
 6380SOL    MW425254   5.583   4.646   5.806  0.4591  0.3386  0.2984
 6381SOL     OW25255   0.251   5.772   4.501  0.4376 -0.4943  0.3641
 6381SOL    HW225256   0.223   5.691   4.543  1.4926 -0.5099  1.0762
 6381SOL    HW325257   0.225   5.841   4.563 -1.3101 -0.1600 -0.6581
 6381SOL    MW425258   0.244   5.771   4.515 -1.2213 -0.6780  0.5913
 6382SOL     OW25259   4.388   1.952   4.412  0.3122  0.0941 -0.5820
 6382SOL    HW225260   4.367   1.866   4.447 -1.3129  0.4351 -0.6632
 6382SOL    HW325261   4.475   1.941   4.372  0.9078 -1.0398  0.9309
 6382SOL    MW425262   4.397   1.940   4.412  0.0760  0.3242  0.4011
 6383SOL     OW25263   5.252   2.265   0.030 -0.0713  0.4827  0.4232
 6383SOL    HW225264   5.311   2.212   0.083  0.2075  0.3531 -0.0109
 6383SOL    HW325265   5.185   2.204   0.000  0.1675  0.4044  0.0450
 6383SOL    MW425266   5.251   2.250   0.033 -0.5915 -0.2857 -0.0939
 6384SOL     OW25267   2.347   2.018   3.611  0.1568  0.6244 -0.4145
 6384SOL    HW225268   2.259   2.010   3.575  0.8377 -0.6526 -1.9345
 6384SOL    HW325269   2.339   2.082   3.681 -2.8997 -2.4175  2.4213
 6384SOL    MW425270   2.334   2.025   3.615  0.2675 -0.0241  0.3605
 6385SOL     OW25271   0.780   0.170   0.889  0.1351 -0.1628 -0.2931
 6385SOL    HW225272   0.868   0.189   0.920  0.2901  1.1203 -1.3970
 6385SOL    HW325273   0.725   0.235   0.933 -0.2633 -0.9434  0.3726
 6385SOL    MW425274   0.784   0.181   0.899 -0.7868  0.4102  0.2313
 6386SOL     OW25275   2.915   4.273   0.155 -0.0578  0.0203 -0.1421
 6386SOL    HW225276   2.880   4.312   0.075  0.9081  1.1002 -0.0660
 6386SOL    HW325277   2.944   4.348   0.207  3.1321 -0.7960 -0.5754
 6386SOL    MW425278   2.914   4.288   0.151 -0.1092  0.2404 -0.2889
 6387SOL     OW25279   1.013   1.910   0.406 -0.5852  0.5300 -0.5142
 6387SOL    HW225280   1.079   1.851   0.443 -1.6470 -0.1942  0.3015
 6387SOL    HW325281   1.045   1.931   0.318  0.4283 -0.2670 -0.3482
 6387SOL    MW425282   1.026   1.905   0.399 -0.0217  0.1295 -0.1559
 6388SOL     OW25283   1.165   2.144   0.715  0.4007 -0.2800  0.4134
 6388SOL    HW225284   1.227   2.136   0.787  0.5948  0.3928  0.3249
 6388SOL    HW325285   1.208   2.201   0.652  0.4359 -1.2550 -0.4732
 6388SOL    MW425286   1.179   2.150   0.716  0.2498 -0.7877 -0.5317
 6389SOL     OW25287   6.153   2.024   3.388  0.3046 -0.1566  0.6720
 6389SOL    HW225288   6.164   1.935   3.421 -0.1965 -1.2155 -1.7874
 6389SOL    HW325289   6.241   2.050   3.359  0.3051 -0.1409  0.6864
 6389SOL    MW425290   6.166   2.016   3.389 -0.1216 -0.2568  0.1696
 6390SOL     OW25291   3.407   0.127   3.770  0.1154  0.2057  0.2446
 6390SOL    HW225292   3.471   0.123   3.698 -0.8872 -1.4373 -0.6089
 6390SOL    HW325293   3.394   0.221   3.785 -3.1171  1.0253 -5.0062
 6390SOL    MW425294   3.414   0.139   3.762  0.3932  0.5276 -0.1274
 6391SOL     OW25295   2.093   4.595   0.882 -0.7164 -0.3632  0.1149
 6391SOL    HW225296   2.086   4.535   0.808 -0.7399 -0.1043 -0.0976
 6391SOL    HW325297   2.083   4.682   0.842  0.9626 -0.1111  0.1658
 6391SOL    MW425298   2.090   4.599   0.867  0.0847 -0.8428  0.1864
 6392SOL     OW25299   4.026   0.476   0.246  0.0334 -0.0257  0.1684
 6392SOL    HW225300   4.041   0.546   0.309 -1.2126 -0.4233  0.9468
 6392SOL    HW325301   3.999   0.521   0.166  0.5620  0.4374  0.2492
 6392SOL    MW425302   4.024   0.491   0.244 -0.3363  0.5026 -0.0780
 6393SOL     OW25303   2.784   1.527   3.305  0.3257  0.3160  0.0653
 6393SOL    HW225304   2.805   1.620   3.314 -2.0114  1.1612 -1.9323
 6393SOL    HW325305   2.858   1.490   3.257 -0.3752  2.0901 -2.5929
 6393SOL    MW425306   2.797   1.534   3.300 -0.3496  0.9261 -0.7983
 6394SOL     OW25307   5.543   2.664   1.657 -0.0240  0.2716  0.3652
 6394SOL    HW225308   5.612   2.667   1.590 -0.2627 -0.6126  0.0624
 6394SOL    HW325309   5.495   2.746   1.645 -0.9109 -0.4624 -1.4978
 6394SOL    MW425310   5.546   2.675   1.646  1.1259 -0.1293  0.2813
 6395SOL     OW25311   5.356   2.790   3.900  0.3085 -0.3223  0.3340
 6395SOL    HW225312   5.355   2.884   3.879 -1.9744 -0.4081 -0.2195
 6395SOL    HW325313   5.389   2.748   3.821 -1.3921 -0.1396 -0.5172
 6395SOL    MW425314   5.360   2.797   3.887  0.4162  0.7120  0.0044
 6396SOL     OW25315   3.965   1.856   2.242  0.2408  0.2806 -0.3428
 6396SOL    HW225316   3.926   1.931   2.287 -0.2605 -0.4649  0.4907
 6396SOL    HW325317   3.893   1.793   2.233  0.3169  0.3946 -2.2175
 6396SOL    MW425318   3.950   1.858   2.246 -0.1896  0.1029 -0.3959
 6397SOL     OW25319   1.237   0.360   4.115 -0.1638  0.1899 -0.0506
 6397SOL    HW225320   1.230   0.350   4.020 -1.7257 -3.1258  0.2356
 6397SOL    HW325321   1.149   0.339   4.147  0.7576 -0.6288  2.1686
 6397SOL    MW425322   1.224   0.356   4.107 -0.0994  0.2603  0.0800
 6398SOL     OW25323   3.419   0.598   2.513 -0.4187 -0.9806  0.1517
 6398SOL    HW225324   3.511   0.589   2.488 -0.6373  0.2204 -1.2077
 6398SOL    HW325325   3.374   0.527   2.467 -0.7271  0.8478 -2.6305
 6398SOL    MW425326   3.425   0.588   2.504  0.3188  0.2521  0.5290
 6399SOL     OW25327   3.424   1.943   5.002 -0.0903 -0.1543 -0.3785
 6399SOL    HW225328   3.438   2.014   4.938 -1.5775  0.9935  0.5072
 6399SOL    HW325329   3.329   1.931   5.003 -0.3069  0.9953  2.7171
 6399SOL    MW425330   3.413   1.951   4.993 -0.0268  0.1506 -0.8275
 6400SOL     OW25331   3.375   1.609   0.261 -0.8053  0.4657  0.3623
 6400SOL    HW225332   3.355   1.518   0.281  0.7995  0.3628  1.8051
 6400SOL    HW325333   3.441   1.634   0.327 -0.9001  2.5366 -0.2494
 6400SOL    MW425334   3.381   1.601   0.273  0.0855 -0.2601 -0.4319
 6401SOL     OW25335   3.069   0.241   0.098  0.2947 -0.3615 -0.3871
 6401SOL    HW225336   3.045   0.251   0.190 -0.3430 -1.2032 -0.4512
 6401SOL    HW325337   2.989   0.262   0.050  0.1914 -1.3956 -0.6817
 6401SOL    MW425338   3.055   0.245   0.104  0.3088  0.0151  0.3902
 6402SOL     OW25339   5.422   4.347   1.933  0.0590 -0.2960  0.2188
 6402SOL    HW225340   5.356   4.278   1.938 -1.1237  0.6599 -1.2699
 6402SOL    HW325341   5.467   4.332   1.850  2.8462 -1.8183  1.8615
 6402SOL    MW425342   5.419   4.336   1.923 -0.1764  0.2332  0.5732
 6403SOL     OW25343   4.400   4.723   4.946 -0.2326  0.0099  0.2437
 6403SOL    HW225344   4.388   4.648   4.889  0.5178 -0.0405  0.1410
 6403SOL    HW325345   4.326   4.719   5.007  0.9169 -2.1071  1.6644
 6403SOL    MW425346   4.389   4.713   4.947 -0.4413 -0.1729 -0.3666
 6404SOL     OW25347   1.136   2.819   6.278 -0.3265  0.6061  0.5366
 6404SOL    HW225348   1.200   2.750   6.258 -0.8736 -0.1565  1.3638
 6404SOL    HW325349   1.054   2.772   6.294 -0.5432  1.3873  1.8443
 6404SOL    MW425350   1.134   2.804   6.277 -0.0871 -0.1681  0.5459
 6405SOL     OW25351   0.626   1.541   2.599 -0.5699  0.2764 -0.3951
 6405SOL    HW225352   0.608   1.447   2.605 -0.9306  0.3305 -0.5604
 6405SOL    HW325353   0.577   1.579   2.672 -0.1036  0.2953 -0.0897
 6405SOL    MW425354   0.617   1.534   2.609  0.1698  0.3672 -0.3313
 6406SOL     OW25355   2.533   0.126   2.087  0.3541  0.2857  0.6531
 6406SOL    HW225356   2.438   0.117   2.077  0.3192  0.1373  1.1019
 6406SOL    HW325357   2.545   0.171   2.170  0.6953 -0.3011  0.9301
 6406SOL    MW425358   2.522   0.131   2.096  0.1321  0.4516 -0.3457
 6407SOL     OW25359   2.109   1.890   4.198 -0.3699  0.5222  0.1027
 6407SOL    HW225360   2.157   1.973   4.194 -0.7167  0.7536  0.6171
 6407SOL    HW325361   2.119   1.853   4.111  0.7250  0.5688  0.1959
 6407SOL    MW425362   2.116   1.896   4.186 -0.1545  0.6566  0.1576
 6408SOL     OW25363   0.781   5.515   4.772 -0.1491 -0.0511  0.0288
 6408SOL    HW225364   0.873   5.535   4.753 -0.6142  1.7649 -0.5142
 6408SOL    HW325365   0.733   5.544   4.694 -1.3984  1.1510  1.1792
 6408SOL    MW425366   0.787   5.522   4.759 -0.3982  0.2633  0.3870
 6409SOL     OW25367   4.691   5.661   2.641  0.3458  0.1577 -0.0479
 6409SOL    HW225368   4.643   5.641   2.561 -0.1805  0.9833  0.0456
 6409SOL    HW325369   4.762   5.597   2.643 -0.7185 -1.0705 -0.2008
 6409SOL    MW425370   4.694   5.650   2.631 -0.5043 -0.3309  0.0521
 6410SOL     OW25371   4.914   3.168   0.437  0.6450  0.2105 -0.1239
 6410SOL    HW225372   4.978   3.171   0.366  1.3646 -0.2261  0.4871
 6410SOL    HW325373   4.831   3.191   0.396  0.7483 -1.5233 -1.4368
 6410SOL    MW425374   4.912   3.171   0.422  0.0114 -0.3242 -0.0083
 6411SOL     OW25375   5.909   1.325   0.483 -0.5224  0.7675 -0.1160
 6411SOL    HW225376   5.892   1.363   0.396 -3.1604  1.2502  0.5262
 6411SOL    HW325377   5.848   1.252   0.490 -1.0730  1.3355  1.6629
 6411SOL    MW425378   5.899   1.321   0.472 -0.4191  0.1718 -0.1468
 6412SOL     OW25379   3.558   5.174   2.086 -0.5211 -0.1908 -0.5826
 6412SOL    HW225380   3.649   5.185   2.061  0.1937 -1.1370  1.3509
 6412SOL    HW325381   3.527   5.100   2.034  0.0956 -0.4421 -0.5990
 6412SOL    MW425382   3.566   5.166   2.076  0.2283  0.6621  1.1244
 6413SOL     OW25383   5.221   5.331   1.724 -0.3242 -0.1904  0.1937
 6413SOL    HW225384   5.188   5.361   1.639 -0.6836  1.2308  0.8118
 6413SOL    HW325385   5.147   5.339   1.784 -0.4120 -2.2509  0.4596
 6413SOL    MW425386   5.207   5.336   1.721 -0.1458 -0.3659  0.2386
 6414SOL     OW25387   2.779   0.704   0.286 -0.0169 -0.0617  0.1595
 6414SOL    HW225388   2.769   0.799   0.278 -1.3545 -0.1086  0.8396
 6414SOL    HW325389   2.873   0.688   0.280  0.2048  1.2864 -0.1564
 6414SOL    MW425390   2.790   0.714   0.284 -0.1613 -0.6163  0.4949
 6415SOL     OW25391   4.142   0.716   1.380 -0.0764 -0.4659  0.0814
 6415SOL    HW225392   4.140   0.622   1.367 -0.5497 -0.5364  0.6129
 6415SOL    HW325393   4.145   0.727   1.475 -0.2823  0.0588  0.0313
 6415SOL    MW425394   4.142   0.705   1.391  0.0516 -0.3916  0.0630
 6416SOL     OW25395   5.404   0.425   2.123 -0.1502 -0.8160  0.9022
 6416SOL    HW225396   5.337   0.492   2.112 -1.2235 -1.8336  0.9502
 6416SOL    HW325397   5.478   0.470   2.163  0.1739  0.8903 -1.4022
 6416SOL    MW425398   5.405   0.440   2.127  0.3595 -0.0289  0.3825
 6417SOL     OW25399   3.436   1.213   3.328 -0.2042 -0.6079 -0.1130
 6417SOL    HW225400   3.495   1.287   3.315  2.0184 -2.1434  0.6478
 6417SOL    HW325401   3.370   1.222   3.259  1.5411  0.5831 -1.7264
 6417SOL    MW425402   3.435   1.224   3.318  0.4500  0.1245 -0.0758
 6418SOL     OW25403   1.461   6.116   0.466 -0.3328 -0.2794 -0.3324
 6418SOL    HW225404   1.371   6.095   0.440  0.0891 -1.7628 -0.7010
 6418SOL    HW325405   1.451   6.172   0.542 -1.5722  0.4143 -0.9668
 6418SOL    MW425406   1.448   6.121   0.472  0.0689  0.0313  0.2872
 6419SOL     OW25407   6.329   5.671   2.608 -0.3947  0.1585 -0.0462
 6419SOL    HW225408   6.277   5.744   2.573 -1.2375  0.2653  1.3416
 6419SOL    HW325409   6.264   5.611   2.643  0.3897 -0.1300  0.9443
 6419SOL    MW425410   6.314   5.673   2.608  0.7936 -0.4044 -0.9450
 6420SOL     OW25411   1.944   5.484   3.718  0.2634  0.1369  0.5828
 6420SOL    HW225412   1.930   5.397   3.680 -1.5040  0.0540  1.3138
 6420SOL    HW325413   2.036   5.504   3.699  0.2194 -1.0810 -1.2267
 6420SOL    MW425414   1.954   5.475   3.710  0.6039  0.4377 -0.0370
 6421SOL     OW25415   4.174   4.293   5.753  0.2301  0.1480  0.6290
 6421SOL    HW225416   4.213   4.251   5.830 -1.4458 -0.5733  1.1339
 6421SOL    HW325417   4.232   4.269   5.680  1.7345  0.6701  1.5928
 6421SOL    MW425418   4.187   4.285   5.754  0.0445 -0.1364 -0.1222
 6422SOL     OW25419   0.844   4.856   2.118 -0.7371  0.1196  0.2632
 6422SOL    HW225420   0.772   4.898   2.071 -1.4522  0.3187  1.4955
 6422SOL    HW325421   0.851   4.769   2.079  1.6514  1.6704 -3.2854
 6422SOL    MW425422   0.836   4.850   2.107  0.0121 -0.0099  0.3693
 6423SOL     OW25423   5.628   1.274   3.451  0.2415  0.5229 -0.2861
 6423SOL    HW225424   5.611   1.352   3.504 -1.7620 -0.7868  1.1331
 6423SOL    HW325425   5.722   1.258   3.462  0.5254  2.2295  0.0644
 6423SOL    MW425426   5.638   1.282   3.460 -0.6501 -0.2966 -0.2878
 6424SOL     OW25427   3.028   0.952   3.452  0.3406  0.0687 -0.1108
 6424SOL    HW225428   3.118   0.920   3.462  0.2286 -0.0377  0.5367
 6424SOL    HW325429   2.975   0.873   3.444  0.0710  0.0769  1.4316
 6424SOL    MW425430   3.033   0.938   3.452  0.1087 -0.3965  0.2074
 6425SOL     OW25431   5.953   2.220   1.011 -0.0174 -0.1457  0.0208
 6425SOL    HW225432   5.916   2.250   0.928  0.2527  0.0496 -0.0309
 6425SOL    HW325433   5.880   2.225   1.073  0.1252  1.0035  0.1056
 6425SOL    MW425434   5.938   2.224   1.008 -0.5958 -0.4328 -0.4051
 6426SOL     OW25435   0.011   4.585   2.476 -0.2994 -0.1305  0.0154
 6426SOL    HW225436  -0.038   4.665   2.495 -0.8132 -0.7928  1.6451
 6426SOL    HW325437   0.103   4.614   2.473 -0.4281  0.4454  1.1198
 6426SOL    MW425438   0.017   4.600   2.478 -0.3523  0.2755 -0.2777
 6427SOL     OW25439   2.025   0.335   4.369  0.0774 -0.1911  0.5113
 6427SOL    HW225440   2.110   0.377   4.354  0.6270 -1.1889  0.7899
 6427SOL    HW325441   1.962   0.391   4.323  0.8249  0.7986  0.6667
 6427SOL    MW425442   2.028   0.348   4.361 -0.1727  0.5888 -0.5787
 6428SOL     OW25443   0.162   5.688   6.260  0.1139 -0.7690  0.3182
 6428SOL    HW225444   0.129   5.777   6.274  2.9909  0.5830 -0.6607
 6428SOL    HW325445   0.092   5.631   6.292 -1.8221  1.8204  1.0480
 6428SOL    MW425446   0.148   5.692   6.266  0.5407 -0.3457  0.1272
 6429SOL     OW25447   5.322   3.149   4.384  0.0914  0.2811 -0.0277
 6429SOL    HW225448   5.315   3.244   4.384  1.5341  0.4171  0.1689
 6429SOL    HW325449   5.411   3.132   4.414 -0.5504 -1.1705  1.1609
 6429SOL    MW425450   5.333   3.159   4.388  0.0362  0.2639  0.9441
 6430SOL     OW25451   1.319   0.336   3.841  0.0343 -0.0000  0.2403
 6430SOL    HW225452   1.403   0.371   3.811 -0.6222  0.9467 -0.5649
 6430SOL    HW325453   1.301   0.261   3.784 -0.7059  1.1539 -1.1185
 6430SOL    MW425454   1.327   0.331   3.830 -0.3486 -0.1471  0.3530
 6431SOL     OW25455   1.081   1.460   1.606  0.8018 -0.0308  0.3876
 6431SOL    HW225456   1.093   1.503   1.521 -0.4519 -3.2884 -1.5946
 6431SOL    HW325457   0.987   1.464   1.622  0.5613 -2.3352 -0.1297
 6431SOL    MW425458   1.070   1.467   1.597 -0.3124  0.7814  0.6475
 6432SOL     OW25459   2.701   0.067   0.928  0.0703 -0.9071  0.2742
 6432SOL    HW225460   2.794   0.044   0.928  0.4152  0.3671  1.4143
 6432SOL    HW325461   2.698   0.153   0.885 -0.5232 -0.7575  0.6049
 6432SOL    MW425462   2.713   0.075   0.922 -0.0996  0.1087 -0.3541
 6433SOL     OW25463   4.068   1.966   0.725 -0.4810  0.4749  0.1295
 6433SOL    HW225464   3.979   1.931   0.727 -0.8346  1.3644  0.5183
 6433SOL    HW325465   4.057   2.060   0.708  0.4231  0.4786 -0.5525
 6433SOL    MW425466   4.055   1.974   0.723  0.0064 -0.1329 -0.1415
 6434SOL     OW25467   4.619   1.969   1.023 -0.2214 -0.1617 -0.2179
 6434SOL    HW225468   4.607   1.937   0.934  3.6030 -1.1516 -0.5656
 6434SOL    HW325469   4.704   2.014   1.021 -1.2945  2.2733  2.3474
 6434SOL    MW425470   4.629   1.971   1.011  0.0711 -0.2693 -0.5156
 6435SOL     OW25471   2.732   1.144   1.759  0.1508 -0.0458 -0.5995
 6435SOL    HW225472   2.749   1.238   1.767  1.2644 -0.3003  0.2034
 6435SOL    HW325473   2.725   1.129   1.664 -0.1205  0.8540 -0.7314
 6435SOL    MW425474   2.733   1.154   1.747  0.2813 -0.2210  0.3842
 6436SOL     OW25475   4.536   2.979   3.667  0.4524  0.6609  0.3090
 6436SOL    HW225476   4.443   2.985   3.644  0.5472  0.3566 -0.1766
 6436SOL    HW325477   4.554   2.885   3.665  1.1505  0.7895 -1.1972
 6436SOL    MW425478   4.526   2.967   3.663  0.1719 -0.0586 -0.1938
 6437SOL     OW25479   0.245   2.010   5.410  0.7148  0.5395  0.0357
 6437SOL    HW225480   0.159   2.050   5.429  0.9340  1.1186 -0.1753
 6437SOL    HW325481   0.291   2.076   5.359  1.0174 -0.0725 -0.4859
 6437SOL    MW425482   0.239   2.024   5.406  0.1709 -0.0961  0.0987
 6438SOL     OW25483   2.780   5.141   2.914  0.1996 -0.6301 -0.2260
 6438SOL    HW225484   2.764   5.077   2.844 -0.6243 -1.8999  1.0514
 6438SOL    HW325485   2.774   5.089   2.995 -3.1703  1.4505  1.0570
 6438SOL    MW425486   2.777   5.125   2.916 -1.0940  0.8575 -0.5134
 6439SOL     OW25487   2.047   5.626   1.294 -0.3118 -0.1343  0.4167
 6439SOL    HW225488   1.959   5.626   1.255 -0.6359  0.8979  1.1233
 6439SOL    HW325489   2.036   5.578   1.376 -0.9199  2.4299  1.9432
 6439SOL    MW425490   2.034   5.620   1.299 -0.6045 -0.1646  0.4356
 6440SOL     OW25491   5.202   5.699   5.739 -0.1154  0.3808 -0.0874
 6440SOL    HW225492   5.136   5.640   5.774  0.2719  0.2844  0.4875
 6440SOL    HW325493   5.175   5.786   5.771  0.8374  0.1647  1.4132
 6440SOL    MW425494   5.189   5.703   5.748 -0.1555 -0.0134  0.1085
 6441SOL     OW25495   2.498   1.435   0.374 -0.1079  0.0926 -0.1817
 6441SOL    HW225496   2.445   1.437   0.453  0.6902  1.7539  0.3834
 6441SOL    HW325497   2.454   1.495   0.314 -0.3352 -0.6223 -0.7317
 6441SOL    MW425498   2.485   1.443   0.376  0.1477  0.0836  0.3034
 6442SOL     OW25499   2.458   4.100   1.729 -0.0297 -0.3629 -0.0801
 6442SOL    HW225500   2.499   4.032   1.782 -0.4451 -1.4546 -1.1189
 6442SOL    HW325501   2.446   4.060   1.643 -1.6875  0.4863 -0.2886
 6442SOL    MW425502   2.462   4.086   1.725 -0.0299 -0.6691 -0.7222
 6443SOL     OW25503   0.318   5.395   2.653 -0.4997  0.2931 -0.4344
 6443SOL    HW225504   0.318   5.311   2.700 -0.6972 -0.0407 -1.0267
 6443SOL    HW325505   0.296   5.460   2.721  0.5077 -0.0177  0.2136
 6443SOL    MW425506   0.315   5.393   2.668 -0.0757 -0.0289 -0.1832
 6444SOL     OW25507   3.460   1.850   1.733  0.4510 -0.4383  0.1236
 6444SOL    HW225508   3.445   1.825   1.642  1.9095 -0.6456 -0.0885
 6444SOL    HW325509   3.556   1.849   1.743  0.3204 -0.6373  1.7163
 6444SOL    MW425510   3.471   1.847   1.723 -0.1251  0.0057 -0.2354
 6445SOL     OW25511   3.305   1.206   4.335 -0.9882 -0.1043  0.3684
 6445SOL    HW225512   3.238   1.274   4.341 -0.3146  0.5612  0.4307
 6445SOL    HW325513   3.256   1.124   4.339 -1.6306  0.3244  2.7000
 6445SOL    MW425514   3.290   1.204   4.336 -0.1944  0.2441  0.2568
 6446SOL     OW25515   2.473   0.827   1.698  0.8300 -0.4591 -0.5354
 6446SOL    HW225516   2.417   0.901   1.678 -0.6763 -1.6168 -0.7865
 6446SOL    HW325517   2.508   0.845   1.785 -1.8719 -0.7694  0.7174
 6446SOL    MW425518   2.470   0.839   1.707 -0.6653 -0.3966 -0.3796
 6447SOL     OW25519   1.601   0.552   2.138  0.4746  0.0554  0.3072
 6447SOL    HW225520   1.524   0.595   2.175 -0.9664 -0.7260 -1.6034
 6447SOL    HW325521   1.615   0.596   2.054  1.3860 -0.6242  0.0873
 6447SOL    MW425522   1.593   0.564   2.132  0.4116 -0.1135 -0.0815
 6448SOL     OW25523   0.620   2.200   4.245 -0.2884  0.8837  0.4523
 6448SOL    HW225524   0.608   2.126   4.303  0.9722  0.7965  0.6300
 6448SOL    HW325525   0.580   2.274   4.291 -0.8467  0.4807  0.6240
 6448SOL    MW425526   0.613   2.200   4.259 -0.3541 -0.2365  0.4528
 6449SOL     OW25527   0.608   3.549   4.770 -0.1476  0.5679  0.2506
 6449SOL    HW225528   0.600   3.561   4.865  0.1792  0.3799  0.3040
 6449SOL    HW325529   0.532   3.593   4.734 -0.8262 -0.2430  0.6664
 6449SOL    MW425530   0.597   3.556   4.778  0.5471 -0.4100 -0.6395
 6450SOL     OW25531   4.178   1.207   1.443 -0.2208  0.0893 -0.9526
 6450SOL    HW225532   4.234   1.272   1.484 -0.1337 -0.2869 -0.4535
 6450SOL    HW325533   4.204   1.205   1.351  0.6971 -0.1989 -0.6937
 6450SOL    MW425534   4.189   1.215   1.437  0.0649  0.6436 -0.0992
 6451SOL     OW25535   5.889   6.248   1.442 -0.5095 -0.2055  0.0385
 6451SOL    HW225536   5.862   6.188   1.511 -1.8920 -0.1490 -0.4307
 6451SOL    HW325537   5.918   6.192   1.370 -1.4404 -0.3274 -0.2560
 6451SOL    MW425538   5.889   6.233   1.442  0.2513 -0.1172  0.0988
 6452SOL     OW25539   0.312   0.405   5.824 -0.5637  0.1983  0.6249
 6452SOL    HW225540   0.233   0.381   5.775 -1.5709  2.8032  0.8066
 6452SOL    HW325541   0.354   0.472   5.769 -0.6052  1.6602  2.2973
 6452SOL    MW425542   0.307   0.411   5.810  0.0676 -0.1280 -0.0717
 6453SOL     OW25543   3.521   0.451   0.670  0.0745  0.2022 -0.1083
 6453SOL    HW225544   3.503   0.521   0.732 -0.0174 -0.4187  0.5776
 6453SOL    HW325545   3.612   0.464   0.644  0.5165 -0.2811  1.1467
 6453SOL    MW425546   3.530   0.462   0.675  0.2337 -0.2785  0.1300
 6454SOL     OW25547   5.999   3.399   2.935 -0.5899 -0.5713  0.3142
 6454SOL    HW225548   5.949   3.355   3.004 -0.8446  1.9013  1.8424
 6454SOL    HW325549   6.023   3.483   2.973  1.0038  0.1016 -1.9558
 6454SOL    MW425550   5.996   3.404   2.949 -0.1140  0.2959  0.4911
 6455SOL     OW25551   3.395   3.487   1.593  0.4498  0.2711 -0.2318
 6455SOL    HW225552   3.395   3.579   1.619  0.0092 -0.3153  2.1338
 6455SOL    HW325553   3.468   3.449   1.642 -1.5721 -1.2889  1.8011
 6455SOL    MW425554   3.404   3.494   1.603 -0.4866 -0.3298  0.3350
 6456SOL     OW25555   1.350   2.215   5.801 -0.1404  0.4679 -0.4871
 6456SOL    HW225556   1.361   2.253   5.888 -0.4865  0.7903 -0.5834
 6456SOL    HW325557   1.427   2.245   5.752 -0.3536  0.9575 -0.5305
 6456SOL    MW425558   1.362   2.224   5.806  0.3925  0.0544 -0.1716
 6457SOL     OW25559   1.265   2.330   4.171  0.1213  0.7192 -0.6058
 6457SOL    HW225560   1.302   2.380   4.098  0.0480 -0.0342 -1.1639
 6457SOL    HW325561   1.240   2.397   4.235  1.7505  1.3042 -0.5306
 6457SOL    MW425562   1.267   2.345   4.170 -0.4299 -0.0030 -1.1398
 6458SOL     OW25563   5.925   3.147   2.440 -0.0961  0.2836 -0.2696
 6458SOL    HW225564   5.955   3.058   2.458  1.7967  1.1604  1.3087
 6458SOL    HW325565   5.830   3.140   2.434 -0.1423 -1.5665  1.6699
 6458SOL    MW425566   5.916   3.135   2.442 -0.1960  0.1060 -0.0013
 6459SOL     OW25567   6.159   4.571   5.275  0.5555 -0.2920  0.4260
 6459SOL    HW225568   6.118   4.497   5.320  1.1439  0.2001  1.8452
 6459SOL    HW325569   6.227   4.600   5.335  2.2193 -0.3483 -1.3457
 6459SOL    MW425570   6.162   4.565   5.289  0.2073 -0.8959  0.9959
 6460SOL     OW25571   4.014   0.941   3.339  0.5556  0.0344  0.0648
 6460SOL    HW225572   4.102   0.971   3.365  0.6203  0.1398 -0.2697
 6460SOL    HW325573   4.030   0.876   3.271  0.3429  1.1983 -1.1495
 6460SOL    MW425574   4.028   0.936   3.334 -0.2319 -0.2899 -0.2819
 6461SOL     OW25575   6.228   3.837   0.402  0.1631 -0.1819  0.0025
 6461SOL    HW225576   6.158   3.778   0.431 -0.7881  0.5097 -0.8046
 6461SOL    HW325577   6.308   3.796   0.433 -0.6070 -0.8817  1.1629
 6461SOL    MW425578   6.229   3.824   0.410 -0.0443  0.0737  0.9447
 6462SOL     OW25579   3.272   4.649   4.973 -0.2131  0.0328 -0.2143
 6462SOL    HW225580   3.365   4.662   4.987 -0.2568  1.1192 -0.7696
 6462SOL    HW325581   3.230   4.697   5.045 -0.3754 -2.8018  1.7517
 6462SOL    MW425582   3.278   4.657   4.984 -0.1123  0.1542 -0.2461
 6463SOL     OW25583   4.223   2.065   3.684  0.1294  0.3197  0.3391
 6463SOL    HW225584   4.308   2.024   3.668 -0.8715 -1.4365 -0.8015
 6463SOL    HW325585   4.233   2.108   3.770  2.5915  1.4665 -0.4223
 6463SOL    MW425586   4.235   2.065   3.693 -0.4324 -0.0310  0.1438
 6464SOL     OW25587   3.956   4.453   1.842  0.3329  0.3655 -0.3481
 6464SOL    HW225588   3.888   4.393   1.872 -1.9833  2.9548 -0.0500
 6464SOL    HW325589   4.010   4.400   1.783  0.4194 -2.8054  2.3055
 6464SOL    MW425590   3.954   4.438   1.838 -0.1113 -0.1456  0.6239
 6465SOL     OW25591   1.742   2.043   4.119 -0.2870  0.2835 -0.3131
 6465SOL    HW225592   1.793   1.996   4.053 -0.7224 -1.9865  0.8790
 6465SOL    HW325593   1.661   1.993   4.127 -1.0881  1.6629  0.5125
 6465SOL    MW425594   1.738   2.030   4.111 -0.6658 -0.8504  0.5916
 6466SOL     OW25595   1.248   6.318   6.042 -0.6425  0.0724 -0.4294
 6466SOL    HW225596   1.329   6.367   6.059  0.6527 -1.6851 -1.2609
 6466SOL    HW325597   1.184   6.356   6.103  0.6077  1.9188 -0.1755
 6466SOL    MW425598   1.250   6.330   6.052 -0.0757 -0.1283  0.5163
 6467SOL     OW25599   6.158   1.841   3.136 -0.0960 -0.3839  0.3291
 6467SOL    HW225600   6.234   1.797   3.096  0.2508 -1.4226  2.0326
 6467SOL    HW325601   6.192   1.926   3.165 -0.1977  0.1206 -0.9620
 6467SOL    MW425602   6.173   1.847   3.134  0.7639  0.0844  0.1910
 6468SOL     OW25603   0.507   0.751   3.232  0.3435 -0.4542  0.3333
 6468SOL    HW225604   0.554   0.834   3.242  0.5808 -0.7234  1.6008
 6468SOL    HW325605   0.489   0.745   3.138  1.0324  0.6382  0.1130
 6468SOL    MW425606   0.511   0.761   3.221  0.0447  0.1332 -0.0619
 6469SOL     OW25607   1.532   2.817   5.700  0.3051  0.1392  0.1338
 6469SOL    HW225608   1.521   2.912   5.712  1.2267 -0.0948  4.4146
 6469SOL    HW325609   1.443   2.782   5.705  0.0353  0.7095 -0.5700
 6469SOL    MW425610   1.519   2.825   5.703  0.1048  0.3396 -0.3920
 6470SOL     OW25611   3.874   0.958   5.777  0.1664  0.0111  0.0592
 6470SOL    HW225612   3.896   0.943   5.686  2.0966 -0.2475  0.5204
 6470SOL    HW325613   3.870   1.054   5.786 -1.5368  0.0387 -0.5731
 6470SOL    MW425614   3.876   0.969   5.766  0.1754  0.3449  0.3290
 6471SOL     OW25615   1.782   0.133   4.970 -0.0981  0.5616 -0.0115
 6471SOL    HW225616   1.695   0.171   4.955 -0.8521  0.2447  2.8901
 6471SOL    HW325617   1.783   0.053   4.918 -1.5731  0.5710 -0.0846
 6471SOL    MW425618   1.771   0.127   4.961 -1.1039  0.1091 -0.1614
 6472SOL     OW25619   5.090   0.945   4.243  0.1766  0.0970 -0.2389
 6472SOL    HW225620   5.094   0.893   4.323  0.2635  0.8480  0.2587
 6472SOL    HW325621   5.037   0.893   4.183 -0.2804 -0.2729  0.4724
 6472SOL    MW425622   5.083   0.931   4.246  0.0276 -0.1289  0.3937
 6473SOL     OW25623   1.930   4.052   5.499  0.1711 -0.2304  0.4779
 6473SOL    HW225624   1.967   3.964   5.491 -0.7478 -0.6580  0.7272
 6473SOL    HW325625   1.992   4.099   5.555  1.0782 -0.4662 -0.3020
 6473SOL    MW425626   1.943   4.046   5.505 -0.9956 -0.4304 -0.5121
 6474SOL     OW25627   3.164   0.376   2.653 -0.0390  0.0716  0.1880
 6474SOL    HW225628   3.234   0.311   2.655  2.7797  2.9361  1.8178
 6474SOL    HW325629   3.159   0.402   2.561  0.8365 -0.3865 -0.0013
 6474SOL    MW425630   3.172   0.371   2.641  0.4788  0.4457 -0.6205
 6475SOL     OW25631   0.714   5.224   4.380  0.4002  0.0516 -0.5267
 6475SOL    HW225632   0.660   5.257   4.308 -0.3521  2.3769  0.9777
 6475SOL    HW325633   0.699   5.130   4.380 -0.1211  0.0635 -2.9323
 6475SOL    MW425634   0.705   5.216   4.371 -0.5639  0.2787  0.0745
 6476SOL     OW25635   0.461   1.780   4.205 -0.1396  0.0019 -0.9859
 6476SOL    HW225636   0.516   1.733   4.143  2.0554  2.7013 -1.2663
 6476SOL    HW325637   0.418   1.848   4.153 -0.2384  0.7080 -0.0122
 6476SOL    MW425638   0.463   1.783   4.190 -0.1502  0.2789 -0.3033
 6477SOL     OW25639   3.225   1.046   1.577  0.6616  0.1562 -0.3696
 6477SOL    HW225640   3.175   1.103   1.635 -2.4224 -0.8519 -1.8368
 6477SOL    HW325641   3.169   0.969   1.565  3.2251 -1.7378 -1.0724
 6477SOL    MW425642   3.211   1.043   1.583  0.0756  0.5089  0.0644
 6478SOL     OW25643   4.040   2.206   4.552  0.4481  0.5285  0.0668
 6478SOL    HW225644   4.132   2.183   4.570  0.8340  0.6254 -1.5971
 6478SOL    HW325645   4.046   2.288   4.502 -0.7385  2.4267  2.7825
 6478SOL    MW425646   4.053   2.214   4.548  0.3290 -0.4815  0.5132
 6479SOL     OW25647   2.852   0.764   3.174 -0.3376  0.0415 -0.1192
 6479SOL    HW225648   2.899   0.732   3.251  0.7689  0.4893 -0.5867
 6479SOL    HW325649   2.797   0.691   3.147 -1.7268  0.2763  1.8265
 6479SOL    MW425650   2.850   0.750   3.181 -0.2315 -0.5594  0.5007
 6480SOL     OW25651   3.032   1.223   2.135 -0.5226 -0.1950 -0.2108
 6480SOL    HW225652   3.000   1.295   2.190 -1.5554 -0.8628  0.0789
 6480SOL    HW325653   3.078   1.267   2.063 -0.9128  0.7453  0.1002
 6480SOL    MW425654   3.034   1.238   2.133 -0.0379 -0.5105  0.4444
 6481SOL     OW25655   1.770   1.772   0.533 -0.8221 -0.3125 -0.3815
 6481SOL    HW225656   1.848   1.746   0.484 -0.0753  0.0019  0.6149
 6481SOL    HW325657   1.748   1.859   0.499 -0.0595  0.0844  0.1232
 6481SOL    MW425658   1.777   1.780   0.522  0.4460  0.7224  0.3481
 6482SOL     OW25659   4.742   4.996   5.604  0.4534  0.3837  0.0772
 6482SOL    HW225660   4.730   4.910   5.563 -1.1752 -1.1691  3.4105
 6482SOL    HW325661   4.668   5.048   5.573  0.9924  0.3664 -1.3140
 6482SOL    MW425662   4.731   4.991   5.594 -0.1318  0.7273  0.5101
 6483SOL     OW25663   5.204   0.660   3.976  0.1778 -0.0224  0.3040
 6483SOL    HW225664   5.233   0.619   4.058 -0.0367  0.6624  0.7299
 6483SOL    HW325665   5.109   0.667   3.985  0.1570  0.0718  0.0056
 6483SOL    MW425666   5.195   0.655   3.988 -0.2620  0.0775  0.5970
 6484SOL     OW25667   4.536   0.515   2.886  0.4786  0.1335  0.4686
 6484SOL    HW225668   4.455   0.528   2.836  1.0578  0.6070 -0.3964
 6484SOL    HW325669   4.520   0.438   2.939 -0.0140 -0.6810 -0.8104
 6484SOL    MW425670   4.523   0.507   2.886  0.0836 -0.3245  0.1617
 6485SOL     OW25671   4.829   1.324   2.226 -0.7423 -0.1876  0.2289
 6485SOL    HW225672   4.844   1.391   2.293 -2.1839 -0.4982  0.9176
 6485SOL    HW325673   4.790   1.251   2.274 -1.2571 -0.6429 -0.8523
 6485SOL    MW425674   4.826   1.323   2.241 -0.1767 -0.2662  0.0277
 6486SOL     OW25675   4.264   2.298   1.202 -0.7500  0.2460 -0.2184
 6486SOL    HW225676   4.345   2.266   1.162 -0.2862 -0.8454  1.4707
 6486SOL    HW325677   4.197   2.285   1.135  0.3415  0.5781 -1.4200
 6486SOL    MW425678   4.266   2.292   1.188  0.2949  0.0446 -0.6031
 6487SOL     OW25679   6.297   4.172   2.413 -0.1348 -0.0964 -0.5609
 6487SOL    HW225680   6.341   4.209   2.490  0.5553 -2.4035  0.2441
 6487SOL    HW325681   6.287   4.246   2.354  0.1785  1.5770  1.3479
 6487SOL    MW425682   6.302   4.187   2.416 -0.0891  0.4279 -0.4267
 6488SOL     OW25683   3.247   6.279   1.170  0.5302  1.1277 -0.2962
 6488SOL    HW225684   3.225   6.315   1.256  2.0374  0.2078  0.5267
 6488SOL    HW325685   3.251   6.355   1.112 -0.7895  1.7339  0.3544
 6488SOL    MW425686   3.244   6.294   1.174  0.4856 -0.1434 -1.0559
 6489SOL     OW25687   0.215   1.735   2.936  0.5623  0.4749 -0.1195
 6489SOL    HW225688   0.162   1.790   2.879 -0.8099 -0.5522  0.1109
 6489SOL    HW325689   0.289   1.708   2.882 -1.0747 -1.0633 -1.6863
 6489SOL    MW425690   0.218   1.739   2.921 -0.2839 -0.8359  0.2977
 6490SOL     OW25691   2.904   4.421   4.096  0.1861 -0.5856 -0.0015
 6490SOL    HW225692   2.958   4.405   4.018  0.0504 -2.0504  0.1626
 6490SOL    HW325693   2.820   4.451   4.061  0.2842 -0.7617 -0.3975
 6490SOL    MW425694   2.900   4.423   4.081  0.6842  0.0733 -0.2472
 6491SOL     OW25695   0.101   4.373   5.914  0.1022  0.0158 -0.0147
 6491SOL    HW225696   0.026   4.432   5.917  0.1500  0.1233 -0.6520
 6491SOL    HW325697   0.172   4.428   5.881  0.5373 -0.0085  0.8579
 6491SOL    MW425698   0.101   4.388   5.910  0.0118  0.6955  0.0165
 6492SOL     OW25699   0.541   1.622   1.412 -0.2027 -0.2278  0.0439
 6492SOL    HW225700   0.529   1.698   1.356 -0.9133 -0.5552 -0.2613
 6492SOL    HW325701   0.533   1.656   1.501  1.1742  0.3345 -0.0246
 6492SOL    MW425702   0.539   1.637   1.417  0.4494 -0.6680  0.5025
 6493SOL     OW25703   3.488   3.567   5.847 -0.1810  0.1073  0.6498
 6493SOL    HW225704   3.470   3.495   5.786 -0.7035  0.6146  0.1999
 6493SOL    HW325705   3.480   3.527   5.934 -0.2769 -0.4225  0.4023
 6493SOL    MW425706   3.484   3.552   5.850 -0.1088  0.0365  0.0949
 6494SOL     OW25707   1.015   3.745   1.724 -0.6274 -0.0976  0.0783
 6494SOL    HW225708   0.995   3.838   1.709  0.2495  0.0982  0.0530
 6494SOL    HW325709   0.968   3.699   1.655  0.8711  0.5457 -1.4617
 6494SOL    MW425710   1.007   3.752   1.713  0.4477 -0.1260  0.5697
 6495SOL     OW25711   2.470   3.147   4.208  0.0351 -0.6642 -0.1903
 6495SOL    HW225712   2.498   3.101   4.129 -0.1942 -0.0682 -0.6248
 6495SOL    HW325713   2.382   3.178   4.188  0.2022  0.0004  0.0765
 6495SOL    MW425714   2.462   3.145   4.195  0.0556  0.6124 -0.6590
 6496SOL     OW25715   1.950   1.215   1.941 -0.3568  0.8101 -0.1309
 6496SOL    HW225716   1.885   1.285   1.940  0.5302  1.6672  0.4299
 6496SOL    HW325717   2.030   1.256   1.910 -0.2165 -0.3941 -1.4201
 6496SOL    MW425718   1.952   1.230   1.937  0.1581  0.5078 -0.1691
 6497SOL     OW25719   3.726   2.287   2.559  0.4951 -0.0588  0.3183
 6497SOL    HW225720   3.793   2.356   2.559 -1.2228  1.6859 -0.2327
 6497SOL    HW325721   3.762   2.219   2.616  1.2829  2.2682  2.7969
 6497SOL    MW425722   3.740   2.287   2.567  0.5386  0.4566 -0.8800
 6498SOL     OW25723   2.364   1.161   1.407 -0.1551  0.7084 -0.4068
 6498SOL    HW225724   2.340   1.121   1.491  0.0365 -0.1257 -0.7390
 6498SOL    HW325725   2.282   1.166   1.358 -0.2484  1.0998 -0.2179
 6498SOL    MW425726   2.350   1.157   1.412  0.6068  0.9276 -0.0021
 6499SOL     OW25727   2.764   5.896   6.244 -0.4285 -0.0806  0.1409
 6499SOL    HW225728   2.844   5.892   6.296 -0.3492  3.1738  0.4765
 6499SOL    HW325729   2.708   5.959   6.290 -1.4774  0.8306 -2.2039
 6499SOL    MW425730   2.767   5.904   6.257 -0.2376 -0.6822  0.3229
 6500SOL     OW25731   5.086   6.395   4.884  0.4929  0.0156 -0.1810
 6500SOL    HW225732   5.051   6.365   4.800 -3.8627 -0.8025  1.6760
 6500SOL    HW325733   5.138   6.321   4.916  0.2837 -0.5622 -1.1168
 6500SOL    MW425734   5.088   6.381   4.877  0.2911 -0.2077  0.6281
 6501SOL     OW25735   5.547   2.033   2.924 -0.2448  0.5328  0.4057
 6501SOL    HW225736   5.588   2.081   2.997 -0.4964 -0.5487  1.2899
 6501SOL    HW325737   5.594   2.062   2.847 -0.1185  1.8954  0.9592
 6501SOL    MW425738   5.558   2.043   2.924 -0.0748  0.4813  0.6657
 6502SOL     OW25739   5.257   1.752   5.075  0.5594  0.3703 -0.0748
 6502SOL    HW225740   5.170   1.772   5.111  0.4689 -0.7802  0.3728
 6502SOL    HW325741   5.252   1.782   4.984 -0.6360 -0.5355 -0.3349
 6502SOL    MW425742   5.245   1.759   5.067  0.0379 -0.0593 -0.3558
 6503SOL     OW25743   1.216   5.973   0.382 -0.3075 -0.3093 -0.4873
 6503SOL    HW225744   1.186   6.060   0.355  1.2203 -0.2415 -2.0936
 6503SOL    HW325745   1.139   5.917   0.369 -0.2036  0.0613 -3.4043
 6503SOL    MW425746   1.202   5.977   0.377 -0.1774  0.4200  0.4305
 6504SOL     OW25747   3.429   0.366   1.638 -0.1769 -0.1624 -0.3101
 6504SOL    HW225748   3.344   0.340   1.602 -0.5627 -0.8080  1.0056
 6504SOL    HW325749   3.483   0.288   1.630 -0.5244 -0.6005  1.2043
 6504SOL    MW425750   3.425   0.352   1.633 -0.4405 -0.1132 -0.1887
 6505SOL     OW25751   0.135   3.994   4.416 -0.1106 -0.1595 -0.1734
 6505SOL    HW225752   0.173   4.081   4.428 -1.7820  0.5000  0.6621
 6505SOL    HW325753   0.161   3.969   4.327  1.1447  0.7875 -0.1024
 6505SOL    MW425754   0.143   4.002   4.405  0.0234  0.4123  0.0918
 6506SOL     OW25755   2.014   4.634   5.134 -0.0990  0.0169  0.1054
 6506SOL    HW225756   2.015   4.720   5.093  1.4655 -0.4087 -0.8193
 6506SOL    HW325757   1.994   4.573   5.062  1.8468 -0.6555  0.0745
 6506SOL    MW425758   2.011   4.637   5.119  0.8850  0.1262 -0.4092
 6507SOL     OW25759   0.057   1.452   6.418 -0.0469  0.3778  0.1369
 6507SOL    HW225760   0.015   1.388   6.475 -0.2825  0.9559  0.6208
 6507SOL    HW325761   0.025   1.430   6.330 -1.5908  0.9549  0.5216
 6507SOL    MW425762   0.047   1.441   6.414  0.1641 -0.2818 -0.0686
 6508SOL     OW25763   2.150   4.569   4.167  0.4707 -0.0070  0.4548
 6508SOL    HW225764   2.095   4.584   4.244 -1.3628  0.7163 -0.9161
 6508SOL    HW325765   2.171   4.657   4.135 -1.6023 -0.1684 -1.6930
 6508SOL    MW425766   2.146   4.583   4.173  0.6002  0.0595  0.5374
 6509SOL     OW25767   3.367   0.062   0.983 -0.1466  0.5467 -0.3420
 6509SOL    HW225768   3.411   0.147   0.974  0.0378  0.4910  0.0087
 6509SOL    HW325769   3.438  -0.002   0.986 -0.2238  0.4766  0.4585
 6509SOL    MW425770   3.382   0.065   0.983 -0.4188  0.3628  0.2568
 6510SOL     OW25771   5.030   5.102   4.708  0.4394  0.1318 -0.0326
 6510SOL    HW225772   5.088   5.085   4.634  1.5293  2.6577  0.1343
 6510SOL    HW325773   5.012   5.196   4.703 -2.0810 -0.2235  1.0725
 6510SOL    MW425774   5.035   5.112   4.698 -0.5339  0.4383 -0.2810
 6511SOL     OW25775   5.766   3.549   4.802  0.1532 -0.0120 -0.3132
 6511SOL    HW225776   5.849   3.526   4.761  0.5548 -0.0995  0.5394
 6511SOL    HW325777   5.765   3.645   4.803  0.5723 -0.0099  0.3186
 6511SOL    MW425778   5.777   3.559   4.797 -0.2275  0.1398  0.3401
 6512SOL     OW25779   5.844   6.177   3.196  0.6153 -0.5531 -0.5060
 6512SOL    HW225780   5.770   6.154   3.140 -0.5104 -0.2480  0.7880
 6512SOL    HW325781   5.864   6.096   3.244 -1.5461  0.2480  2.0281
 6512SOL    MW425782   5.837   6.163   3.195  0.1690  0.6890 -0.4137
 6513SOL     OW25783   2.536   5.492   0.866 -0.6870  0.1536  0.1904
 6513SOL    HW225784   2.525   5.565   0.926  0.6963 -0.3801  1.1445
 6513SOL    HW325785   2.605   5.521   0.806 -2.6860  1.0537 -1.8087
 6513SOL    MW425786   2.544   5.506   0.866  0.3670  0.2373  0.0649
 6514SOL     OW25787   2.454   1.049   0.761  0.1389 -0.3647 -0.4027
 6514SOL    HW225788   2.484   1.000   0.684 -1.4206 -1.5948 -0.2760
 6514SOL    HW325789   2.435   0.982   0.826 -1.8261  0.4096 -0.1294
 6514SOL    MW425790   2.456   1.034   0.759 -0.6021 -0.1351 -0.5208
 6515SOL     OW25791   1.018   4.106   3.348 -0.1755 -0.0291 -0.0499
 6515SOL    HW225792   1.039   4.183   3.401  1.1103  0.3295 -1.0190
 6515SOL    HW325793   1.037   4.133   3.258  0.4396 -1.5178 -0.3996
 6515SOL    MW425794   1.023   4.120   3.343 -0.2573  0.3432  0.3616
 6516SOL     OW25795   0.880   2.922   3.214  0.4847  0.4273  0.0189
 6516SOL    HW225796   0.905   2.898   3.125  0.7190 -1.7047  0.5883
 6516SOL    HW325797   0.963   2.929   3.261  0.3414  0.9974  0.1892
 6516SOL    MW425798   0.894   2.920   3.208  0.7033  0.1381 -0.0007
 6517SOL     OW25799   1.395   0.083   3.665  0.4731  0.0440  0.4950
 6517SOL    HW225800   1.419  -0.009   3.656  2.2422  0.2231  2.5177
 6517SOL    HW325801   1.403   0.102   3.759 -0.3468  2.1258  0.2119
 6517SOL    MW425802   1.399   0.074   3.676 -0.0174 -1.0982  0.4401
 6518SOL     OW25803   5.867   4.638   1.953 -0.3879 -0.0023 -0.5426
 6518SOL    HW225804   5.942   4.589   1.987  1.7289  2.1095 -1.8406
 6518SOL    HW325805   5.851   4.706   2.019 -2.5143 -1.5732  0.6636
 6518SOL    MW425806   5.875   4.641   1.966 -0.3829  0.2770 -0.5295
 6519SOL     OW25807   1.528   3.836   4.620 -0.0670  0.2221  0.4061
 6519SOL    HW225808   1.520   3.883   4.703  0.2228  0.7801  0.1214
 6519SOL    HW325809   1.472   3.759   4.631 -0.2327  0.4242  1.0232
 6519SOL    MW425810   1.519   3.832   4.632 -0.1193  0.1009 -0.4423
 6520SOL     OW25811   5.678   5.337   3.432 -0.0831 -0.0751 -0.6544
 6520SOL    HW225812   5.653   5.278   3.362 -0.8223  0.0279 -0.4886
 6520SOL    HW325813   5.595   5.359   3.476  0.0683  1.5651 -1.1009
 6520SOL    MW425814   5.663   5.332   3.429 -0.1116 -0.6551  0.8992
 6521SOL     OW25815   3.249   2.880   5.143 -0.2783  0.7362 -0.0892
 6521SOL    HW225816   3.159   2.856   5.119 -0.4982  1.4857 -0.0507
 6521SOL    HW325817   3.258   2.850   5.234  0.1789 -1.0888 -0.6921
 6521SOL    MW425818   3.238   2.873   5.152  0.0798  0.3483  0.3636
 6522SOL     OW25819   0.302   0.631   1.200 -0.1182 -0.0629  0.1450
 6522SOL    HW225820   0.335   0.682   1.126  1.5409 -0.2789  0.6834
 6522SOL    HW325821   0.236   0.687   1.240  1.1796  1.4322  0.3174
 6522SOL    MW425822   0.298   0.645   1.196 -0.2054  0.3692 -0.3403
 6523SOL     OW25823   0.178   2.175   4.112 -0.5984  0.4174  0.2742
 6523SOL    HW225824   0.086   2.176   4.085 -0.9342 -2.2015  1.0450
 6523SOL    HW325825   0.213   2.259   4.082 -2.8022  0.7761 -1.5416
 6523SOL    MW425826   0.171   2.186   4.105  0.2020  0.5263  0.5322
 6524SOL     OW25827   0.449   1.655   0.617  0.1007  0.4396 -0.1202
 6524SOL    HW225828   0.499   1.722   0.571 -1.0440  0.4352 -1.4380
 6524SOL    HW325829   0.434   1.691   0.704  1.0813  1.0763 -0.1979
 6524SOL    MW425830   0.453   1.668   0.622  0.5618  0.6746  0.3622
 6525SOL     OW25831   5.393   4.412   2.761 -0.1593  0.0339 -0.4222
 6525SOL    HW225832   5.382   4.355   2.685  0.0309  0.7734 -1.0104
 6525SOL    HW325833   5.455   4.479   2.733 -0.0992  0.3282  0.3796
 6525SOL    MW425834   5.400   4.414   2.747 -0.0524 -0.5455  0.2916
 6526SOL     OW25835   4.629   5.455   3.316 -0.3842  0.3782 -0.6072
 6526SOL    HW225836   4.591   5.414   3.393  2.1316 -3.2723 -1.0093
 6526SOL    HW325837   4.723   5.439   3.325  0.0803  0.4874 -3.9951
 6526SOL    MW425838   4.637   5.447   3.327  0.0894  0.3392 -0.2389
 6527SOL     OW25839   0.591   1.583   5.729 -0.0290 -0.0360 -0.1262
 6527SOL    HW225840   0.635   1.661   5.763  0.1554 -0.7497  1.3723
 6527SOL    HW325841   0.515   1.572   5.787 -0.0681 -0.9440 -0.3368
 6527SOL    MW425842   0.587   1.592   5.741 -0.2262  0.2397  0.1096
 6528SOL     OW25843   3.302   6.241   4.466 -1.2003 -0.1237 -0.3774
 6528SOL    HW225844   3.315   6.215   4.557 -1.6589  0.0142 -0.2740
 6528SOL    HW325845   3.303   6.336   4.467 -1.2256 -0.1212 -0.5120
 6528SOL    MW425846   3.304   6.250   4.478 -0.5465 -0.1110 -0.7344
 6529SOL     OW25847   4.874   3.854   0.555  0.7545  0.0289 -0.2294
 6529SOL    HW225848   4.782   3.848   0.529  0.4541  1.7069  0.3130
 6529SOL    HW325849   4.907   3.931   0.510  2.1205 -0.9453 -0.9720
 6529SOL    MW425850   4.866   3.863   0.546  0.1545 -0.3383 -0.5891
 6530SOL     OW25851   4.321   4.242   3.648 -0.4257 -0.3214  0.9250
 6530SOL    HW225852   4.247   4.192   3.682  0.2159 -1.4493  0.7126
 6530SOL    HW325853   4.284   4.326   3.624 -1.3719 -0.3687  2.1080
 6530SOL    MW425854   4.307   4.246   3.650  0.4414  0.8818  0.3704
 6531SOL     OW25855   4.210   1.980   2.094  0.5549  0.4982  0.1512
 6531SOL    HW225856   4.188   1.979   2.187 -0.3689  0.7045 -0.0601
 6531SOL    HW325857   4.306   1.970   2.092  0.4413 -1.1024  1.0729
 6531SOL    MW425858   4.220   1.978   2.106 -0.1333  0.3960  0.1704
 6532SOL     OW25859   2.719   2.013   2.612 -0.1885  0.0065  0.7881
 6532SOL    HW225860   2.695   2.074   2.681  0.1309 -0.0536  0.9523
 6532SOL    HW325861   2.804   2.042   2.582  0.3295 -0.8135  1.4052
 6532SOL    MW425862   2.727   2.025   2.617  0.2575 -0.3363 -0.8938
 6533SOL     OW25863   2.890   6.241   3.414 -0.5565 -0.1079 -0.4754
 6533SOL    HW225864   2.977   6.280   3.409 -0.5876 -0.1254 -1.2600
 6533SOL    HW325865   2.888   6.177   3.343 -1.2460 -0.0344 -0.5318
 6533SOL    MW425866   2.901   6.237   3.404  0.1809 -0.3624  0.2892
 6534SOL     OW25867   3.845   6.086   0.091 -0.1163  0.1312  0.1570
 6534SOL    HW225868   3.822   6.177   0.074  1.0267  0.3013 -0.5734
 6534SOL    HW325869   3.798   6.064   0.172 -0.8403  1.1816  0.0429
 6534SOL    MW425870   3.836   6.095   0.100 -0.5380 -0.3303  0.6935
 6535SOL     OW25871   5.229   2.734   6.236  0.2653  0.4502  0.0187
 6535SOL    HW225872   5.310   2.726   6.185 -0.4060  0.3448 -1.0763
 6535SOL    HW325873   5.164   2.685   6.185 -0.1520 -0.7995  1.6575
 6535SOL    MW425874   5.231   2.726   6.222  0.1003 -0.0322  0.0416
 6536SOL     OW25875   1.045   4.001   4.371 -0.4297 -0.2590  0.2539
 6536SOL    HW225876   1.127   3.957   4.353  0.2818  0.8752  0.6203
 6536SOL    HW325877   1.004   3.948   4.439 -1.4082 -2.4629 -1.8991
 6536SOL    MW425878   1.050   3.989   4.378 -0.4154  0.6517 -0.4350
 6537SOL     OW25879   5.267   5.640   2.558 -0.1657 -0.5118  0.2173
 6537SOL    HW225880   5.238   5.611   2.644  1.3856  2.5917  1.9427
 6537SOL    HW325881   5.246   5.733   2.556  0.2632 -0.3862 -2.6220
 6537SOL    MW425882   5.260   5.648   2.569 -0.3949  0.4550  0.1899
 6538SOL     OW25883   1.018   4.767   5.404  0.4760  0.1170  0.2941
 6538SOL    HW225884   1.042   4.719   5.324 -0.5157  2.2622 -1.3987
 6538SOL    HW325885   0.937   4.725   5.433 -0.0563  0.3371 -0.8099
 6538SOL    MW425886   1.011   4.755   5.397  0.3705  0.7255 -0.3586
 6539SOL     OW25887   0.739   3.893   4.002 -1.0076  0.6425 -0.2381
 6539SOL    HW225888   0.777   3.818   4.047 -0.4578  0.5851 -0.7996
 6539SOL    HW325889   0.645   3.887   4.020 -0.8270  0.4906  0.7098
 6539SOL    MW425890   0.732   3.883   4.011 -0.7643 -0.2407  0.9067
 6540SOL     OW25891   0.125   2.089   6.097  0.0789  0.1197  0.1845
 6540SOL    HW225892   0.046   2.109   6.146 -0.3657 -0.8616 -0.1104
 6540SOL    HW325893   0.197   2.124   6.150 -0.6163  2.2336 -0.1820
 6540SOL    MW425894   0.124   2.096   6.110  0.4363 -0.0789  0.3305
 6541SOL     OW25895   6.231   0.924   5.896 -0.1173 -0.3315  0.2145
 6541SOL    HW225896   6.212   0.891   5.808 -0.6781  1.3175 -0.3228
 6541SOL    HW325897   6.280   1.005   5.881  0.0727 -0.2050  1.4282
 6541SOL    MW425898   6.235   0.930   5.882 -0.0400  0.3435  0.2409
 6542SOL     OW25899   6.381   1.704   5.431 -0.1183 -0.7421 -0.4735
 6542SOL    HW225900   6.414   1.754   5.357  0.0678 -0.7866 -0.4211
 6542SOL    HW325901   6.288   1.727   5.437  0.2479  0.6380  0.3836
 6542SOL    MW425902   6.373   1.714   5.422  0.4866 -0.0167 -0.3069
 6543SOL     OW25903   4.220   0.752   3.824 -0.1008  0.6852  0.2266
 6543SOL    HW225904   4.159   0.802   3.878  0.9780  1.3075  0.8979
 6543SOL    HW325905   4.179   0.666   3.814 -0.8530  0.9330  1.0758
 6543SOL    MW425906   4.207   0.747   3.830 -0.3311  0.4854 -0.2131
 6544SOL     OW25907   0.880   1.747   3.314 -0.1625  0.1943  0.6737
 6544SOL    HW225908   0.907   1.659   3.287 -0.2106  0.4944 -0.3894
 6544SOL    HW325909   0.937   1.768   3.388 -0.8935 -1.1518  1.6545
 6544SOL    MW425910   0.891   1.738   3.321  0.1070 -0.7829  0.0883
 6545SOL     OW25911   6.316   2.862   1.210 -0.0175  0.0529 -0.4105
 6545SOL    HW225912   6.234   2.876   1.258 -0.0529  2.3577 -1.0259
 6545SOL    HW325913   6.290   2.859   1.118  0.5774  0.7271 -0.6065
 6545SOL    MW425914   6.302   2.863   1.204 -0.1252  0.2461  0.3452
 6546SOL     OW25915   2.515   6.315   1.595  0.6140 -0.0410  0.4099
 6546SOL    HW225916   2.484   6.405   1.583 -0.3686 -0.5450 -1.2949
 6546SOL    HW325917   2.609   6.321   1.582  0.5433  0.7266  0.1721
 6546SOL    MW425918   2.523   6.328   1.591 -0.0050 -0.4083 -0.5623
 6547SOL     OW25919   3.314   6.302   0.038 -0.0683  0.2095  0.0178
 6547SOL    HW225920   3.318   6.294  -0.057 -0.7813  0.3736 -0.0271
 6547SOL    HW325921   3.388   6.359   0.060  0.4084 -0.2507 -0.3816
 6547SOL    MW425922   3.325   6.309   0.029 -0.4529  0.1023  0.1132
 6548SOL     OW25923   2.602   3.404   2.782  0.2781  0.4017 -1.0090
 6548SOL    HW225924   2.588   3.446   2.867  0.7066 -0.0841 -0.6897
 6548SOL    HW325925   2.688   3.362   2.790 -0.1859 -0.6391 -1.2722
 6548SOL    MW425926   2.611   3.404   2.794 -0.3735  0.0702 -0.2643
 6549SOL     OW25927   2.787   5.656   2.851 -0.7625  0.1051 -0.2160
 6549SOL    HW225928   2.845   5.727   2.824 -1.3793  0.3071 -1.0426
 6549SOL    HW325929   2.699   5.693   2.846 -1.3368 -1.3594 -3.0369
 6549SOL    MW425930   2.783   5.670   2.846 -0.1016 -0.3313 -0.2719
 6550SOL     OW25931   5.417   1.187   4.478  0.1368  0.3772  0.0542
 6550SOL    HW225932   5.339   1.242   4.478 -0.8805 -0.9181  2.1073
 6550SOL    HW325933   5.414   1.139   4.396 -1.1865  0.4492  0.0505
 6550SOL    MW425934   5.407   1.188   4.467  0.0262  0.2048 -0.0069
 6551SOL     OW25935   6.145   2.962   0.645 -0.3257 -0.3079 -0.6562
 6551SOL    HW225936   6.201   2.889   0.620  0.0349 -0.6538  1.0506
 6551SOL    HW325937   6.056   2.927   0.640 -0.1124 -1.1832  0.9957
 6551SOL    MW425938   6.141   2.948   0.641  0.1446  0.4379  0.1132
 6552SOL     OW25939   3.258   3.629   5.306  0.3117 -0.6787 -0.4207
 6552SOL    HW225940   3.186   3.693   5.313  0.2942 -0.7159 -0.2562
 6552SOL    HW325941   3.331   3.670   5.352  0.0933 -1.0737  0.2851
 6552SOL    MW425942   3.258   3.643   5.313  0.2327 -0.0806 -0.3469
 6553SOL     OW25943   4.555   0.271   6.127 -1.0953  0.0314  0.6018
 6553SOL    HW225944   4.637   0.266   6.077 -0.9382 -2.4006  1.0091
 6553SOL    HW325945   4.487   0.249   6.064 -0.9599 -2.3862  1.2222
 6553SOL    MW425946   4.557   0.268   6.112  0.0555 -0.4526 -0.1533
 6554SOL     OW25947   6.417   4.344   4.294  0.2628 -0.3721  0.0295
 6554SOL    HW225948   6.449   4.392   4.370  2.5600 -0.1184 -1.0199
 6554SOL    HW325949   6.494   4.331   4.239 -0.9135 -2.4027 -1.2848
 6554SOL    MW425950   6.431   4.349   4.296 -0.2897 -0.4655 -0.4036
 6555SOL     OW25951   0.541   1.438   0.910  0.0736 -1.1860 -0.0708
 6555SOL    HW225952   0.555   1.528   0.939 -1.2848 -0.0050 -2.7050
 6555SOL    HW325953   0.471   1.405   0.966  0.8780 -0.7857  1.2037
 6555SOL    MW425954   0.533   1.446   0.921  0.7235 -1.2523 -0.6167
 6556SOL     OW25955   1.945   5.661   2.881  0.3088 -0.3648 -0.0069
 6556SOL    HW225956   1.872   5.601   2.863 -1.1634  0.8847  1.3865
 6556SOL    HW325957   1.996   5.663   2.800 -0.2065 -2.6197 -0.4495
 6556SOL    MW425958   1.942   5.654   2.868  0.7427 -0.2057 -0.3587
 6557SOL     OW25959   3.328   0.423   3.060 -0.2442 -0.3207 -0.5568
 6557SOL    HW225960   3.420   0.441   3.041 -0.1916  0.4878  0.3806
 6557SOL    HW325961   3.328   0.395   3.152 -1.0348  0.5538 -0.2779
 6557SOL    MW425962   3.341   0.421   3.070 -0.1081  0.6252  0.1277
 6558SOL     OW25963   5.655   1.926   6.121  0.2620  0.4915  0.0560
 6558SOL    HW225964   5.587   1.945   6.186  0.5728 -1.2793  0.9722
 6558SOL    HW325965   5.614   1.865   6.061  0.4112  1.0651 -0.6449
 6558SOL    MW425966   5.640   1.921   6.122  0.2671  0.4062  0.2525
 6559SOL     OW25967   4.179   4.109   2.100  0.2252 -0.1329 -0.2503
 6559SOL    HW225968   4.097   4.154   2.082  0.9719  0.9166 -1.2285
 6559SOL    HW325969   4.247   4.173   2.076  1.3268 -0.9343  0.6049
 6559SOL    MW425970   4.177   4.124   2.095  0.0384  0.4634  0.2792
 6560SOL     OW25971   2.536   1.316   0.757  0.4616  0.1253 -0.2203
 6560SOL    HW225972   2.470   1.361   0.703 -2.0363  0.6909  3.0264
 6560SOL    HW325973   2.509   1.224   0.754 -1.0129  0.4392  1.6154
 6560SOL    MW425974   2.523   1.310   0.749 -0.0432  0.2314 -0.1183
 6561SOL     OW25975   1.708   3.081   2.910 -0.5228 -0.1121 -1.0290
 6561SOL    HW225976   1.732   3.095   2.819  1.9702 -1.8603 -0.7316
 6561SOL    HW325977   1.790   3.092   2.959 -1.8531  1.1539  1.0889
 6561SOL    MW425978   1.722   3.084   2.905 -1.2353  0.6631 -0.9264
 6562SOL     OW25979   5.119   0.791   0.890 -0.0741 -0.3854  0.0662
 6562SOL    HW225980   5.163   0.797   0.805  0.3861 -0.5220  0.2917
 6562SOL    HW325981   5.188   0.810   0.954 -0.0202 -1.8701  0.4855
 6562SOL    MW425982   5.134   0.794   0.887 -0.2808  0.6191 -0.4532
 6563SOL     OW25983   0.594   1.969   4.634  0.1560 -0.2259  0.0228
 6563SOL    HW225984   0.676   1.980   4.682 -0.2035 -0.2335  0.6407
 6563SOL    HW325985   0.540   1.914   4.690  0.0609 -0.9880 -0.7977
 6563SOL    MW425986   0.598   1.963   4.648  0.5780 -0.2732 -0.4702
 6564SOL     OW25987   3.292   5.742   3.491  0.4112  0.2555 -0.0199
 6564SOL    HW225988   3.293   5.651   3.461  1.7276  0.2952 -0.1556
 6564SOL    HW325989   3.249   5.789   3.420  0.2758 -0.1737 -0.2283
 6564SOL    MW425990   3.287   5.736   3.477 -0.6251  0.4519  0.0410
 6565SOL     OW25991   5.108   4.740   2.839 -0.0871  0.4061 -0.1685
 6565SOL    HW225992   5.058   4.755   2.760  0.6727 -0.9126 -0.9380
 6565SOL    HW325993   5.199   4.760   2.814  0.2831 -0.8516  0.0826
 6565SOL    MW425994   5.114   4.744   2.825  0.1070  0.4306 -0.6894
 6566SOL     OW25995   5.068   3.585   4.343  0.4702 -0.1487  0.4344
 6566SOL    HW225996   5.019   3.651   4.391  0.0459 -0.8946  1.0390
 6566SOL    HW325997   5.144   3.633   4.309 -0.7816  1.0959 -0.7764
 6566SOL    MW425998   5.072   3.600   4.345  0.0095 -0.1982  0.8108
 6567SOL     OW25999   1.972   0.939   4.123 -0.2996  0.2680  0.1443
 6567SOL    HW226000   2.012   0.950   4.209  0.9363 -1.0197 -0.2225
 6567SOL    HW326001   1.883   0.973   4.133 -0.8025 -1.4377  2.4290
 6567SOL    MW426002   1.965   0.945   4.135 -0.7794  0.1145  0.0704
 6568SOL     OW26003   6.431   1.499   3.242  0.2626 -0.2929  0.1601
 6568SOL    HW226004   6.407   1.572   3.298 -1.3700 -0.2085 -0.5799
 6568SOL    HW326005   6.399   1.422   3.289  1.5216 -0.5138  0.6960
 6568SOL    MW426006   6.424   1.498   3.255  0.1744  0.2865 -0.3780
 6569SOL     OW26007   0.357   2.406   0.550  0.0127 -0.3979  0.1639
 6569SOL    HW226008   0.353   2.497   0.523  3.6436 -0.1427 -0.0324
 6569SOL    HW326009   0.327   2.357   0.473 -0.0914  0.5858 -0.4395
 6569SOL    MW426010   0.353   2.411   0.536 -0.6393  0.1673  0.7697
 6570SOL     OW26011   3.063   5.530   4.477  0.5043 -0.0494 -0.2300
 6570SOL    HW226012   3.070   5.532   4.572 -1.7709  0.4460 -0.0307
 6570SOL    HW326013   3.063   5.622   4.451 -2.1504 -0.0235 -0.3629
 6570SOL    MW426014   3.064   5.542   4.486  0.7015 -0.0483  0.2632
 6571SOL     OW26015   1.348   1.358   2.561  0.9926  0.6942 -0.7834
 6571SOL    HW226016   1.314   1.269   2.557 -0.5449  1.1974  0.1117
 6571SOL    HW326017   1.416   1.355   2.629 -0.1816  0.5255  0.4166
 6571SOL    MW426018   1.353   1.346   2.570 -0.0569  0.4172  0.2062
 6572SOL     OW26019   2.792   4.578   2.793  0.3559  0.0841 -0.3183
 6572SOL    HW226020   2.857   4.621   2.738  0.7914 -2.3388 -1.8310
 6572SOL    HW326021   2.709   4.619   2.768  0.9024  1.0597 -0.5864
 6572SOL    MW426022   2.789   4.589   2.783  0.1072  0.0462  1.0923
 6573SOL     OW26023   4.824   1.280   1.947 -0.5790 -1.0267  0.2645
 6573SOL    HW226024   4.786   1.195   1.967  2.5895 -2.4388  0.8323
 6573SOL    HW326025   4.840   1.320   2.033  1.9496 -1.8530  0.2625
 6573SOL    MW426026   4.821   1.274   1.961 -0.0227  0.2312  0.1574
 6574SOL     OW26027   2.943   1.739   6.313 -0.5322 -0.1311  0.1579
 6574SOL    HW226028   2.980   1.826   6.327 -2.5769  0.4846  2.5357
 6574SOL    HW326029   2.863   1.755   6.263 -0.8297 -0.6685  0.4590
 6574SOL    MW426030   2.937   1.753   6.308 -0.0325 -0.0256 -0.4441
 6575SOL     OW26031   5.432   1.928   6.278 -0.1547 -0.0381 -0.2779
 6575SOL    HW226032   5.405   1.916   6.369 -0.0869  3.0209  0.2650
 6575SOL    HW326033   5.419   1.843   6.237  1.7070 -2.1083  3.0197
 6575SOL    MW426034   5.427   1.915   6.284  0.3152 -0.2588  0.2355
 6576SOL     OW26035   1.769   5.638   3.537 -0.3190  0.0336  0.1563
 6576SOL    HW226036   1.779   5.732   3.522 -1.8824  0.1956 -0.0802
 6576SOL    HW326037   1.834   5.617   3.603  1.5464  0.8439 -1.3259
 6576SOL    MW426038   1.779   5.648   3.543 -0.4850  1.3103  0.7106
 6577SOL     OW26039   2.489   0.680   4.422  0.1827 -0.0299  0.1649
 6577SOL    HW226040   2.574   0.723   4.414 -0.9383  2.4938  0.7381
 6577SOL    HW326041   2.507   0.588   4.402  2.9767  0.4366  0.0529
 6577SOL    MW426042   2.503   0.674   4.418 -0.2205 -0.1032 -0.1910
 6578SOL     OW26043   3.495   4.185   6.026 -0.5901  0.8718  0.3585
 6578SOL    HW226044   3.549   4.229   5.960  2.8412  0.4335  2.6425
 6578SOL    HW326045   3.540   4.102   6.042 -1.8539  0.5317  2.5292
 6578SOL    MW426046   3.508   4.180   6.019  0.3661 -0.0705  0.2795
 6579SOL     OW26047   5.050   2.013   5.434 -0.5024 -0.0084  0.0483
 6579SOL    HW226048   5.127   2.034   5.487 -0.1399 -0.3961 -0.3201
 6579SOL    HW326049   4.986   2.081   5.458 -0.3853 -0.2321  1.0536
 6579SOL    MW426050   5.052   2.025   5.444  0.9337  0.2994 -0.7246
 6580SOL     OW26051   0.200   1.785   0.109 -0.5257  0.2253  0.0681
 6580SOL    HW226052   0.253   1.850   0.063 -1.4742  0.9914  0.0295
 6580SOL    HW326053   0.221   1.702   0.065 -0.9218  0.8360 -1.3378
 6580SOL    MW426054   0.210   1.783   0.097  0.1397  0.2853 -0.1864
 6581SOL     OW26055   4.356   4.994   0.302  0.0044 -0.1915 -0.1042
 6581SOL    HW226056   4.446   4.984   0.270 -0.1494 -1.5836 -0.1620
 6581SOL    HW326057   4.357   4.957   0.390 -0.5441 -0.3552 -0.1621
 6581SOL    MW426058   4.368   4.988   0.309 -0.4198  0.1948 -0.7534
 6582SOL     OW26059   1.383   4.451   0.731 -0.3793  0.4420  0.1274
 6582SOL    HW226060   1.434   4.449   0.812  1.8296  1.6108 -1.1427
 6582SOL    HW326061   1.362   4.359   0.713  0.0452  0.0742  1.4324
 6582SOL    MW426062   1.387   4.439   0.739  0.2398 -0.5752  0.0492
 6583SOL     OW26063   4.477   2.213   1.048 -0.2183 -0.1098 -0.3250
 6583SOL    HW226064   4.518   2.129   1.026  0.2556  0.3078 -1.0614
 6583SOL    HW326065   4.479   2.264   0.967  2.3283  1.7657  0.7612
 6583SOL    MW426066   4.483   2.209   1.035 -0.1418 -0.2866  0.1349
 6584SOL     OW26067   2.085   0.591   5.526 -0.3102  0.0996  0.0287
 6584SOL    HW226068   1.993   0.572   5.511 -0.4965 -0.5037  1.7215
 6584SOL    HW326069   2.131   0.510   5.507 -0.4184 -0.3111  1.3991
 6584SOL    MW426070   2.079   0.578   5.522 -0.3924  0.7322  0.3952
 6585SOL     OW26071   6.237   3.109   1.707 -0.1453 -0.1218  0.0178
 6585SOL    HW226072   6.167   3.067   1.756  0.5725 -0.0550  1.1505
 6585SOL    HW326073   6.278   3.038   1.657  0.6219 -0.6909  1.3846
 6585SOL    MW426074   6.233   3.094   1.707  0.6242  0.3270  0.1155
 6586SOL     OW26075   3.111   1.866   5.898 -0.2853  0.1726 -0.3583
 6586SOL    HW226076   3.023   1.905   5.909 -0.6391 -0.6051 -0.3875
 6586SOL    HW326077   3.102   1.778   5.934  0.7541  0.4143  0.5268
 6586SOL    MW426078   3.098   1.860   5.905  0.1555  0.6961 -0.0398
 6587SOL     OW26079   5.506   2.089   4.313  0.1583 -0.2224  0.1669
 6587SOL    HW226080   5.417   2.113   4.338  0.0104 -1.1379  0.5569
 6587SOL    HW326081   5.546   2.171   4.284 -0.5114  0.3639  0.8749
 6587SOL    MW426082   5.500   2.103   4.312 -0.6751  0.1898 -0.3709
 6588SOL     OW26083   5.270   6.384   5.705 -0.1992 -0.1480  0.4229
 6588SOL    HW226084   5.289   6.293   5.728 -0.5196 -0.1034  0.8824
 6588SOL    HW326085   5.185   6.380   5.661 -0.4546 -0.0119  0.8997
 6588SOL    MW426086   5.261   6.372   5.702  0.2631 -0.2560 -0.5619
 6589SOL     OW26087   2.065   5.700   0.667 -0.0474 -0.2988 -0.3523
 6589SOL    HW226088   2.104   5.694   0.580 -0.3348 -2.0600 -0.3803
 6589SOL    HW326089   2.140   5.706   0.727  0.1493  1.8431 -0.7279
 6589SOL    MW426090   2.080   5.700   0.664 -0.3231  0.1982 -0.0262
 6590SOL     OW26091   1.105   2.775   3.396 -0.3413 -0.0474 -0.1197
 6590SOL    HW226092   1.179   2.784   3.456  0.3697 -3.5550 -0.2907
 6590SOL    HW326093   1.039   2.727   3.445 -1.0776 -0.0807 -1.1050
 6590SOL    MW426094   1.106   2.770   3.410 -0.0995  0.1045 -0.1615
 6591SOL     OW26095   4.736   0.465   1.018  0.7699  0.3880 -0.3782
 6591SOL    HW226096   4.806   0.507   0.968  0.6703 -0.6854 -1.4504
 6591SOL    HW326097   4.781   0.416   1.086  0.9230  1.6052  0.4176
 6591SOL    MW426098   4.751   0.464   1.020 -0.1538  0.2472  0.5633
 6592SOL     OW26099   5.611   3.016   0.520  0.1209 -0.2866  0.1143
 6592SOL    HW226100   5.601   2.955   0.447  1.0664 -0.8408  0.4250
 6592SOL    HW326101   5.522   3.046   0.539 -0.2161 -0.6586 -0.8139
 6592SOL    MW426102   5.598   3.012   0.512  0.1104 -0.0099  0.3031
 6593SOL     OW26103   4.019   0.229   4.443 -0.7193  0.1049  0.5981
 6593SOL    HW226104   4.066   0.311   4.426 -4.2112  2.1087 -0.2066
 6593SOL    HW326105   4.050   0.202   4.530  0.6992  2.1579  0.8099
 6593SOL    MW426106   4.029   0.236   4.452  0.1531 -0.1928  0.0240
 6594SOL     OW26107   4.005   0.993   0.060  0.4294 -0.2321  0.2203
 6594SOL    HW226108   4.092   1.016   0.093  0.6130 -1.1954  0.4560
 6594SOL    HW326109   3.956   1.075   0.062  0.9683  0.0893  1.2608
 6594SOL    MW426110   4.010   1.007   0.065 -0.4978 -0.7709 -0.7372
 6595SOL     OW26111   3.558   3.330   3.159  0.1026  0.1443  0.4229
 6595SOL    HW226112   3.603   3.335   3.075  0.0654  1.5794  0.4589
 6595SOL    HW326113   3.522   3.242   3.162 -1.1675  0.5034 -1.7466
 6595SOL    MW426114   3.559   3.319   3.148  0.1996 -0.3948 -0.4012
 6596SOL     OW26115   1.818   1.360   2.585  0.0081 -0.3329  0.3524
 6596SOL    HW226116   1.820   1.412   2.505  0.3495  1.3192  1.4077
 6596SOL    HW326117   1.845   1.420   2.655  0.1937 -1.8527  1.6554
 6596SOL    MW426118   1.822   1.374   2.584 -0.2877 -0.2887  0.0502
 6597SOL     OW26119   1.224   1.600   5.028  0.4406  0.4438  0.6160
 6597SOL    HW226120   1.132   1.623   5.015  0.3191 -0.7076 -0.9688
 6597SOL    HW326121   1.268   1.683   5.043 -0.6808  1.1505  0.1233
 6597SOL    MW426122   1.217   1.614   5.028 -0.3304  0.4828  0.8125
 6598SOL     OW26123   5.386   4.293   5.242 -0.3263 -0.5651  0.3149
 6598SOL    HW226124   5.307   4.243   5.223 -1.0881  0.6244  0.3118
 6598SOL    HW326125   5.400   4.348   5.165 -0.6067  0.6399  1.0952
 6598SOL    MW426126   5.378   4.294   5.230  0.1807  0.3566  0.2480
 6599SOL     OW26127   5.840   2.487   6.091 -0.4076  0.6309  0.4543
 6599SOL    HW226128   5.805   2.426   6.025 -0.2903 -0.4116  1.3155
 6599SOL    HW326129   5.927   2.509   6.059 -0.9604  1.4412 -0.5551
 6599SOL    MW426130   5.847   2.482   6.078  0.6094  0.1484 -0.2429
 6600SOL     OW26131   1.709   1.003   4.462 -0.3543  0.5707  0.1067
 6600SOL    HW226132   1.739   1.070   4.523 -1.1388  0.5389  0.5367
 6600SOL    HW326133   1.733   0.920   4.503  1.3299  0.5657 -0.7901
 6600SOL    MW426134   1.716   1.001   4.475  0.6142  0.8588  0.3843
 6601SOL     OW26135   6.129   3.652   1.815  0.5570  0.3397 -0.9156
 6601SOL    HW226136   6.224   3.640   1.817  0.6340  0.9695 -0.0410
 6601SOL    HW326137   6.115   3.740   1.851 -0.4173 -0.1222 -0.1052
 6601SOL    MW426138   6.139   3.662   1.820 -0.3935  0.3074  0.4730
 6602SOL     OW26139   3.156   4.913   5.677 -0.1904 -0.1383 -0.7242
 6602SOL    HW226140   3.234   4.913   5.732 -0.3860 -0.3700 -0.4414
 6602SOL    HW326141   3.093   4.966   5.725 -0.1263  0.2516 -1.0702
 6602SOL    MW426142   3.158   4.920   5.691  0.2586 -0.1509 -0.2827
 6603SOL     OW26143   1.532   5.307   2.071 -0.4718 -0.3876 -0.3341
 6603SOL    HW226144   1.552   5.216   2.052 -1.1109 -0.4499 -0.7618
 6603SOL    HW326145   1.535   5.313   2.167 -1.3000 -1.0778 -0.2498
 6603SOL    MW426146   1.535   5.296   2.082 -0.0005 -0.1972  0.4781
 6604SOL     OW26147   4.062   0.195   1.630 -0.5817  0.2368  0.5946
 6604SOL    HW226148   4.091   0.167   1.717 -1.2635 -0.7538  0.5070
 6604SOL    HW326149   4.060   0.115   1.579 -0.0697  0.8313 -0.3859
 6604SOL    MW426150   4.066   0.181   1.635  0.1272 -0.1405  0.1573
 6605SOL     OW26151   5.752   3.315   2.670 -0.0070  0.5618  0.5088
 6605SOL    HW226152   5.838   3.354   2.656  0.7634 -0.7845  1.2712
 6605SOL    HW326153   5.691   3.377   2.631  1.3400  1.2778 -0.5487
 6605SOL    MW426154   5.755   3.328   2.663 -0.2715  0.0288 -0.2035
 6606SOL     OW26155   6.141   3.584   6.290  0.0174 -0.1119 -0.6559
 6606SOL    HW226156   6.080   3.594   6.217 -0.9625 -1.3041 -0.0319
 6606SOL    HW326157   6.099   3.520   6.348  1.3674 -0.1499  0.3241
 6606SOL    MW426158   6.128   3.577   6.288  0.5162 -0.1554 -0.0341
 6607SOL     OW26159   3.322   1.146   6.404  0.2174  0.1714  0.1107
 6607SOL    HW226160   3.417   1.137   6.409  0.2256 -0.3283 -0.7282
 6607SOL    HW326161   3.305   1.238   6.421  0.8178  0.1716  0.7333
 6607SOL    MW426162   3.332   1.157   6.407 -0.1085  0.0266 -0.2325
 6608SOL     OW26163   2.823   3.466   1.268  0.1588 -0.1537  0.1747
 6608SOL    HW226164   2.873   3.545   1.289  0.0287 -0.1147  0.3410
 6608SOL    HW326165   2.733   3.496   1.258  0.1114 -0.2788  0.2173
 6608SOL    MW426166   2.818   3.480   1.269 -0.2663  0.0269  0.2633
 6609SOL     OW26167   4.625   1.482   3.696 -0.1382 -0.3855 -0.0021
 6609SOL    HW226168   4.704   1.495   3.643 -0.2384  0.8954  0.1409
 6609SOL    HW326169   4.572   1.422   3.644  0.7268 -0.9117 -0.3091
 6609SOL    MW426170   4.629   1.476   3.682 -0.5042 -0.0591  0.2347
 6610SOL     OW26171   1.024   3.403   1.670  1.0121  0.3564  0.3058
 6610SOL    HW226172   1.031   3.426   1.578 -0.1895 -0.1735  0.0699
 6610SOL    HW326173   1.092   3.336   1.683  0.3314 -0.5241 -0.5247
 6610SOL    MW426174   1.034   3.397   1.660  0.0298 -0.1257  0.4894
 6611SOL     OW26175   6.378   1.675   1.662  0.1002 -0.1442 -0.6509
 6611SOL    HW226176   6.375   1.765   1.630 -1.1157  0.3245  0.7002
 6611SOL    HW326177   6.364   1.682   1.756  1.1975 -1.6663 -0.3328
 6611SOL    MW426178   6.376   1.687   1.670 -0.4578 -0.1081  0.6287
 6612SOL     OW26179   1.285   2.730   5.710 -0.0709  0.5533 -0.2393
 6612SOL    HW226180   1.249   2.685   5.787  1.1457 -0.4813 -0.2430
 6612SOL    HW326181   1.289   2.662   5.643  0.3036  1.0769 -0.7507
 6612SOL    MW426182   1.281   2.715   5.712  0.1929 -0.0591 -0.1282
 6613SOL     OW26183   1.640   1.237   3.482  0.2801 -0.0887 -0.2085
 6613SOL    HW226184   1.711   1.296   3.455  1.7222 -1.8444 -0.4118
 6613SOL    HW326185   1.684   1.157   3.510 -1.6006 -0.9485  0.4579
 6613SOL    MW426186   1.656   1.234   3.482  0.5561  0.1069  0.1656
 6614SOL     OW26187   3.148   5.224   3.009  0.0947  0.1300  0.3980
 6614SOL    HW226188   3.168   5.229   3.102  0.8868 -1.1288  0.3204
 6614SOL    HW326189   3.066   5.272   2.999 -0.7173 -0.8552  1.9778
 6614SOL    MW426190   3.140   5.231   3.020  0.2788 -0.5098  0.5019
 6615SOL     OW26191   3.985   5.705   5.467  1.0459  0.1676  0.3407
 6615SOL    HW226192   3.996   5.625   5.415  0.8535 -0.6969  1.5644
 6615SOL    HW326193   3.937   5.765   5.410 -2.0403 -1.8782  0.5506
 6615SOL    MW426194   3.980   5.702   5.453  0.0005  0.0892  0.1308
 6616SOL     OW26195   5.818   3.628   3.363 -0.1882 -0.3750 -0.5345
 6616SOL    HW226196   5.725   3.650   3.371 -0.5979 -1.3516 -2.1816
 6616SOL    HW326197   5.845   3.608   3.452 -1.3261  0.7893  0.1057
 6616SOL    MW426198   5.809   3.628   3.376 -0.0243 -0.7573  0.0245
 6617SOL     OW26199   3.565   1.206   0.239 -0.1770 -0.6219 -0.0185
 6617SOL    HW226200   3.580   1.122   0.196  2.7596 -0.4017  0.3642
 6617SOL    HW326201   3.607   1.198   0.324 -1.0618  0.7996  0.5923
 6617SOL    MW426202   3.573   1.194   0.244  0.5913  0.5315 -0.2174
 6618SOL     OW26203   1.775   0.565   1.206 -0.3982 -0.5674 -0.2048
 6618SOL    HW226204   1.781   0.571   1.301 -2.3551 -0.8652 -0.0181
 6618SOL    HW326205   1.725   0.643   1.180 -1.0572 -1.1781 -0.8232
 6618SOL    MW426206   1.769   0.576   1.215  0.5976 -0.1751  0.3931
 6619SOL     OW26207   3.117   4.231   1.281 -0.1976  0.1733  0.2714
 6619SOL    HW226208   3.106   4.324   1.302 -0.5915 -0.0049  0.8959
 6619SOL    HW326209   3.089   4.185   1.361  2.9160 -0.4093  1.1613
 6619SOL    MW426210   3.112   4.237   1.295 -0.2095 -0.5500  0.3694
 6620SOL     OW26211   4.104   2.585   2.021  0.1000  0.4080 -0.3812
 6620SOL    HW226212   4.158   2.517   1.979  0.1845 -0.9115  1.7253
 6620SOL    HW326213   4.016   2.547   2.021 -0.4892  1.6577 -1.9032
 6620SOL    MW426214   4.099   2.571   2.015  0.3228 -0.0486  0.0438
 6621SOL     OW26215   5.056   2.815   2.657  0.2377 -0.6658  0.1403
 6621SOL    HW226216   5.071   2.851   2.744 -1.1567  0.4474 -0.0354
 6621SOL    HW326217   5.002   2.881   2.613 -2.9455 -3.1591 -0.0555
 6621SOL    MW426218   5.051   2.829   2.663  0.2217 -0.1371  0.3033
 6622SOL     OW26219   3.463   3.516   0.547 -0.4629 -0.3744 -0.2335
 6622SOL    HW226220   3.471   3.517   0.451  0.4101  0.3998 -0.1664
 6622SOL    HW326221   3.428   3.602   0.569  0.4923 -0.0889  0.2224
 6622SOL    MW426222   3.459   3.528   0.537  0.0477 -0.0511  0.0773
 6623SOL     OW26223   4.518   0.343   4.661  0.1434 -0.0232 -0.4450
 6623SOL    HW226224   4.589   0.356   4.724  2.3925 -1.8640 -2.4034
 6623SOL    HW326225   4.452   0.292   4.709  1.7682 -1.3253  0.4970
 6623SOL    MW426226   4.518   0.338   4.676 -0.6111 -0.4347  0.0146
 6624SOL     OW26227   4.075   1.722   5.674  0.6324  0.1265 -1.2609
 6624SOL    HW226228   4.041   1.667   5.604 -1.1176  0.9951 -1.1829
 6624SOL    HW326229   4.051   1.811   5.647  0.5893  0.5387  0.0601
 6624SOL    MW426230   4.067   1.727   5.662  0.3897 -0.3639  0.7112
 6625SOL     OW26231   1.828   0.505   1.485  0.5502  0.5137 -0.1341
 6625SOL    HW226232   1.768   0.445   1.528 -0.0989  1.5227  0.4136
 6625SOL    HW326233   1.886   0.536   1.556 -1.9337  3.9222  0.6703
 6625SOL    MW426234   1.828   0.501   1.500  0.6879  0.4391 -0.1039
 6626SOL     OW26235   2.670   0.860   2.427 -0.6213  0.0010  0.0988
 6626SOL    HW226236   2.751   0.907   2.409 -0.0993 -1.3015 -1.0989
 6626SOL    HW326237   2.690   0.807   2.504 -0.2198 -0.5427 -0.3695
 6626SOL    MW426238   2.683   0.859   2.435  0.2185 -0.5753  0.1343
 6627SOL     OW26239   1.995   2.900   6.383 -0.2817  0.3154  0.0275
 6627SOL    HW226240   1.984   2.897   6.478  1.3825 -0.0081  0.2413
 6627SOL    HW326241   1.976   2.990   6.360 -1.5340  0.2027  0.5343
 6627SOL    MW426242   1.991   2.911   6.392 -0.5541 -0.0455  0.6861
 6628SOL     OW26243   5.414   2.276   0.921  0.0460  0.4748 -0.3005
 6628SOL    HW226244   5.496   2.229   0.906 -0.1284  0.2375 -0.5332
 6628SOL    HW326245   5.351   2.207   0.942 -0.1094  0.6490 -0.1912
 6628SOL    MW426246   5.417   2.261   0.922 -0.9416 -1.1961 -0.0808
 6629SOL     OW26247   3.223   3.677   5.935 -0.2392 -0.1669 -0.0461
 6629SOL    HW226248   3.158   3.691   5.866 -0.3954 -0.4751  0.0372
 6629SOL    HW326249   3.305   3.663   5.888 -0.7206 -2.6074 -0.2860
 6629SOL    MW426250   3.225   3.677   5.920 -0.2839 -0.1100 -0.1072
 6630SOL     OW26251   0.131   5.345   5.372 -0.4521  0.7202 -0.2062
 6630SOL    HW226252   0.102   5.258   5.399 -0.1635  0.8693  0.5975
 6630SOL    HW326253   0.067   5.371   5.306 -1.7025  0.7006  0.9452
 6630SOL    MW426254   0.119   5.337   5.367 -0.3872 -0.3743  0.0115
 6631SOL     OW26255   2.667   6.343   5.330 -0.1993 -0.4589 -0.3878
 6631SOL    HW226256   2.659   6.382   5.417 -0.8311  0.6841 -0.9381
 6631SOL    HW326257   2.625   6.257   5.338 -0.8407 -0.0902  0.2714
 6631SOL    MW426258   2.660   6.337   5.342 -0.1083  0.3075 -0.3337
 6632SOL     OW26259   1.011   4.334   1.692 -0.2757  0.2977 -0.0735
 6632SOL    HW226260   1.078   4.296   1.635 -1.5781 -1.6709 -0.3725
 6632SOL    HW326261   0.938   4.354   1.634 -0.5471  1.0182  0.4882
 6632SOL    MW426262   1.010   4.332   1.677 -0.6285  0.2559  0.5919
 6633SOL     OW26263   1.591   2.413   6.157  0.1153 -0.2948 -0.3645
 6633SOL    HW226264   1.657   2.399   6.225  0.0643 -1.9143 -0.6135
 6633SOL    HW326265   1.634   2.470   6.093  1.0304 -0.7719 -0.1842
 6633SOL    MW426266   1.605   2.419   6.158  0.1723 -0.4475  0.1419
 6634SOL     OW26267   5.893   0.493   1.854 -0.3613 -0.0296  0.0605
 6634SOL    HW226268   5.861   0.543   1.929 -0.2369  0.7905 -0.4280
 6634SOL    HW326269   5.910   0.405   1.890  0.6998  0.6200  1.2269
 6634SOL    MW426270   5.891   0.488   1.869 -0.5265 -0.5609  0.6877
 6635SOL     OW26271   4.100   0.281   5.010 -0.3033 -0.7952 -0.1018
 6635SOL    HW226272   4.185   0.293   4.967 -0.1750 -0.6907  0.1724
 6635SOL    HW326273   4.091   0.358   5.067 -1.3156  0.0077 -1.3030
 6635SOL    MW426274   4.110   0.293   5.012 -0.2330 -0.2485  0.7840
 6636SOL     OW26275   5.336   5.144   0.211  0.2525 -0.3715  0.1788
 6636SOL    HW226276   5.338   5.142   0.307 -1.1966  0.6094  0.2661
 6636SOL    HW326277   5.343   5.237   0.190  1.6638 -0.6547 -0.7389
 6636SOL    MW426278   5.338   5.156   0.221 -0.0666  0.2174 -0.5633
 6637SOL     OW26279   4.227   5.852   6.424  0.3533 -0.0218  0.1936
 6637SOL    HW226280   4.203   5.933   6.470 -0.7902  0.5096 -1.2777
 6637SOL    HW326281   4.205   5.783   6.486 -0.9085  0.6888  0.5790
 6637SOL    MW426282   4.221   5.854   6.438  0.0671 -0.2723 -0.1428
 6638SOL     OW26283   4.436   5.644   0.345  0.7523 -0.0581 -0.1296
 6638SOL    HW226284   4.438   5.740   0.350  2.5011  0.0308 -1.5104
 6638SOL    HW326285   4.449   5.615   0.435  0.5339  0.9965  0.2554
 6638SOL    MW426286   4.438   5.653   0.358  0.1891 -0.3559  0.0622
 6639SOL     OW26287   5.879   5.035   4.283  0.4256 -0.2504 -0.4746
 6639SOL    HW226288   5.926   4.953   4.298 -1.9132 -1.5219  0.3206
 6639SOL    HW326289   5.878   5.078   4.369  0.4805 -0.0167 -0.5894
 6639SOL    MW426290   5.885   5.030   4.297  0.0016  0.0684 -0.8397
 6640SOL     OW26291   3.116   2.074   2.337  0.3668 -0.4288 -0.5229
 6640SOL    HW226292   3.208   2.047   2.328  0.7048  0.2055  0.8060
 6640SOL    HW326293   3.087   2.034   2.419  0.3617  1.7229  0.5931
 6640SOL    MW426294   3.125   2.066   2.347  0.0121  0.5248  0.1155
 6641SOL     OW26295   1.284   4.209   1.577  0.0045 -0.2298  0.1941
 6641SOL    HW226296   1.241   4.148   1.516 -0.8029  0.4916  0.0252
 6641SOL    HW326297   1.300   4.156   1.655  2.0552 -1.4804 -0.9880
 6641SOL    MW426298   1.280   4.194   1.579  0.4268  0.4171  0.4251
 6642SOL     OW26299   1.710   3.906   0.500  0.1329  0.7549 -0.7231
 6642SOL    HW226300   1.768   3.926   0.427  0.2809  1.9202 -0.3095
 6642SOL    HW326301   1.737   3.820   0.531  1.2998  1.0597 -0.8645
 6642SOL    MW426302   1.721   3.897   0.495 -0.1865 -0.1816  0.4743
 6643SOL     OW26303   5.690   6.295   3.557  0.2711 -0.1943  0.3035
 6643SOL    HW226304   5.696   6.346   3.476  0.5028  0.1111  0.5051
 6643SOL    HW326305   5.689   6.204   3.528  1.4855 -0.1292 -0.0016
 6643SOL    MW426306   5.691   6.290   3.542 -0.0999 -0.5215  0.4489
 6644SOL     OW26307   1.115   2.507   1.597 -0.2720  0.0587 -0.6824
 6644SOL    HW226308   1.159   2.546   1.521  0.2685  1.7562  0.4470
 6644SOL    HW326309   1.146   2.417   1.599  2.4283  0.9104 -0.5040
 6644SOL    MW426310   1.125   2.501   1.587 -0.2665 -0.0627  0.0941
 6645SOL     OW26311   3.529   0.205   3.195  0.6088  0.2328  0.0912
 6645SOL    HW226312   3.446   0.165   3.221  0.1540  0.5852 -0.7701
 6645SOL    HW326313   3.535   0.188   3.101  2.4803 -1.5279  0.4420
 6645SOL    MW426314   3.519   0.197   3.186  0.2959 -0.6035  0.3090
 6646SOL     OW26315   0.058   6.180   2.975 -0.0549  0.3334  0.0409
 6646SOL    HW226316   0.044   6.088   2.954 -0.2499  0.4058 -0.1454
 6646SOL    HW326317   0.069   6.223   2.890 -0.8157  0.6213  0.0783
 6646SOL    MW426318   0.057   6.174   2.961 -0.3566 -0.3681 -0.0043
 6647SOL     OW26319   2.372   0.557   3.409  0.5698  0.0503  0.3724
 6647SOL    HW226320   2.357   0.553   3.503  2.8177 -3.4021  0.7729
 6647SOL    HW326321   2.443   0.620   3.398  1.8839 -1.1918  1.3605
 6647SOL    MW426322   2.379   0.565   3.420 -0.4491 -0.1080 -0.0617
 6648SOL     OW26323   1.004   5.211   3.394 -0.4037 -0.2655 -0.5987
 6648SOL    HW226324   0.945   5.140   3.420 -0.9300 -0.0891 -1.2783
 6648SOL    HW326325   1.060   5.172   3.326  0.2492 -0.4219  0.0159
 6648SOL    MW426326   1.004   5.196   3.388 -0.3041 -0.3754  0.1964
 6649SOL     OW26327   5.776   2.702   4.810  0.0772  0.4222 -0.1843
 6649SOL    HW226328   5.681   2.691   4.797 -0.3487  3.7348 -0.8348
 6649SOL    HW326329   5.815   2.652   4.738 -1.1963 -0.5157 -0.2663
 6649SOL    MW426330   5.769   2.694   4.799 -0.0876  0.2913  0.1450
 6650SOL     OW26331   3.035   2.238   1.302  0.5159 -0.4367  0.6766
 6650SOL    HW226332   3.126   2.222   1.278  1.1284  0.2563  2.3966
 6650SOL    HW326333   3.038   2.260   1.395 -1.3244  0.3838  0.5865
 6650SOL    MW426334   3.047   2.239   1.311  0.1560 -0.0013  0.4920
 6651SOL     OW26335   3.067   4.923   0.240 -0.0362 -0.0820 -0.3789
 6651SOL    HW226336   3.158   4.906   0.265  0.2060  0.8903 -0.5352
 6651SOL    HW326337   3.074   4.976   0.160 -0.7525 -0.5504 -0.7595
 6651SOL    MW426338   3.080   4.928   0.232  0.5710  0.1430 -0.1157
 6652SOL     OW26339   0.817   3.397   3.647  0.4613  0.3889 -0.0914
 6652SOL    HW226340   0.851   3.486   3.655 -0.7301  0.6823  3.4860
 6652SOL    HW326341   0.722   3.407   3.644  0.3484 -0.7322 -0.8910
 6652SOL    MW426342   0.809   3.410   3.648 -0.0330 -0.3115 -0.1408
 6653SOL     OW26343   4.707   4.496   4.200  0.0410 -0.3219 -0.1491
 6653SOL    HW226344   4.644   4.537   4.140 -1.3050 -2.1198 -0.0522
 6653SOL    HW326345   4.741   4.421   4.152  0.8093 -0.3749  0.4585
 6653SOL    MW426346   4.703   4.492   4.186 -0.2530  0.3770 -0.1389
 6654SOL     OW26347   0.642   5.837   3.553  0.1005 -0.1309 -0.1121
 6654SOL    HW226348   0.656   5.841   3.648  3.9343  0.8633 -0.5228
 6654SOL    HW326349   0.580   5.908   3.534 -1.8411 -1.2451  1.6956
 6654SOL    MW426350   0.636   5.847   3.563  0.3286 -0.0405 -0.1338
 6655SOL     OW26351   0.882   3.924   5.562 -0.3504 -0.2266 -0.2802
 6655SOL    HW226352   0.906   3.990   5.627 -0.3183  1.2248 -1.6976
 6655SOL    HW326353   0.930   3.846   5.588  0.1357  0.4959  1.0824
 6655SOL    MW426354   0.892   3.923   5.574  0.4251 -0.6336  0.2626
 6656SOL     OW26355   0.508   0.291   3.954 -0.3759  0.3378 -0.1090
 6656SOL    HW226356   0.431   0.237   3.973  0.9754 -2.0943 -1.1850
 6656SOL    HW326357   0.556   0.294   4.037 -0.7905  0.4595  0.1303
 6656SOL    MW426358   0.504   0.284   3.967 -0.6980 -0.2678 -1.1514
 6657SOL     OW26359   5.268   0.258   4.317  0.2708  0.8169  0.5494
 6657SOL    HW226360   5.301   0.343   4.288  0.2695  0.7828  0.4449
 6657SOL    HW326361   5.286   0.256   4.411  1.9537  0.1861  0.2513
 6657SOL    MW426362   5.275   0.269   4.325  0.7589  0.5114 -0.2636
 6658SOL     OW26363   5.909   3.844   0.707 -0.1015 -0.3175 -0.2193
 6658SOL    HW226364   5.972   3.842   0.779  0.1384 -1.4819 -0.4339
 6658SOL    HW326365   5.954   3.798   0.635 -0.5038  0.4351 -0.9656
 6658SOL    MW426366   5.923   3.837   0.707 -0.5788 -0.2732 -0.4272
 6659SOL     OW26367   1.792   0.870   0.326 -0.5901  0.3709  0.3695
 6659SOL    HW226368   1.731   0.874   0.252  0.6145 -0.0222 -0.6915
 6659SOL    HW326369   1.825   0.960   0.335 -0.2171  0.2757 -0.0330
 6659SOL    MW426370   1.788   0.883   0.317 -0.9623 -0.3323 -0.1560
 6660SOL     OW26371   5.803   6.179   0.934  0.0312  0.4278 -0.1132
 6660SOL    HW226372   5.741   6.148   1.000 -0.0903  1.8903  0.5159
 6660SOL    HW326373   5.748   6.219   0.866  0.1739 -0.7528 -0.9612
 6660SOL    MW426374   5.788   6.180   0.934  0.2897 -0.3582  0.2059
 6661SOL     OW26375   2.191   0.908   6.121 -0.6831 -0.1789 -0.6057
 6661SOL    HW226376   2.242   0.918   6.202 -0.6090 -0.7157 -0.5866
 6661SOL    HW326377   2.154   0.995   6.106  1.0274  0.4898 -1.1615
 6661SOL    MW426378   2.193   0.921   6.130  0.0268  0.0414  0.8587
 6662SOL     OW26379   1.412   0.309   5.546 -0.2099 -0.3939  0.3279
 6662SOL    HW226380   1.385   0.221   5.522 -3.1520  0.7781 -1.1872
 6662SOL    HW326381   1.435   0.351   5.462  1.5716  0.2201  1.0610
 6662SOL    MW426382   1.412   0.303   5.532  0.7246 -0.1043 -0.4968
 6663SOL     OW26383   3.286   2.355   0.001  0.1218 -0.3028 -0.2724
 6663SOL    HW226384   3.212   2.408   0.031 -0.5431 -1.7109  0.7144
 6663SOL    HW326385   3.271   2.344  -0.093 -0.1491  0.5653 -0.3453
 6663SOL    MW426386   3.274   2.361  -0.007  0.3241 -0.5004  0.0853
 6664SOL     OW26387   4.600   0.327   2.594 -0.1611  0.0441 -0.3526
 6664SOL    HW226388   4.672   0.266   2.609 -0.9483 -0.9966 -0.7452
 6664SOL    HW326389   4.620   0.367   2.509  0.5667  0.6710  0.0924
 6664SOL    MW426390   4.612   0.324   2.585  0.3839 -0.0451 -0.3223
 6665SOL     OW26391   1.065   1.809   1.968  0.7256  0.6760 -0.1647
 6665SOL    HW226392   1.048   1.904   1.962 -1.7952  0.3861  0.8598
 6665SOL    HW326393   1.098   1.785   1.882  0.6773  2.3783 -0.7051
 6665SOL    MW426394   1.067   1.819   1.956  0.7142 -0.4982  0.2750
 6666SOL     OW26395   3.742   0.589   2.512  0.2778 -0.4101 -0.2016
 6666SOL    HW226396   3.810   0.568   2.449  1.4822 -0.7638  1.1639
 6666SOL    HW326397   3.707   0.504   2.539 -2.2697 -0.2198 -2.4191
 6666SOL    MW426398   3.746   0.575   2.507  0.2636 -0.3919 -0.2858
 6667SOL     OW26399   1.199   4.461   2.829  0.1479 -0.7309  0.1046
 6667SOL    HW226400   1.138   4.528   2.858  2.3734  2.7171 -2.3822
 6667SOL    HW326401   1.164   4.431   2.745 -0.6280 -2.5257  1.0191
 6667SOL    MW426402   1.186   4.466   2.822 -0.3352  0.0540  0.0672
 6668SOL     OW26403   0.173   1.451   4.125 -0.0464 -0.3720  0.1480
 6668SOL    HW226404   0.141   1.366   4.154  0.6843 -0.5110  0.5904
 6668SOL    HW326405   0.110   1.480   4.059 -1.5321 -0.2292  1.5949
 6668SOL    MW426406   0.161   1.444   4.120  0.1375  0.6585 -0.1700
 6669SOL     OW26407   3.758   4.584   5.119 -0.8175  0.6625  0.4514
 6669SOL    HW226408   3.822   4.518   5.146 -1.8558 -0.3084  0.6410
 6669SOL    HW326409   3.748   4.640   5.196 -1.6147 -0.3518  1.1106
 6669SOL    MW426410   3.765   4.583   5.133  0.5923 -0.3888  0.2717
 6670SOL     OW26411   4.993   5.884   1.823 -0.0319 -0.2308  0.5289
 6670SOL    HW226412   5.044   5.858   1.899 -0.8549  1.0936  1.5774
 6670SOL    HW326413   5.017   5.976   1.808 -0.3136 -0.3067 -0.4412
 6670SOL    MW426414   5.002   5.893   1.831  0.0476 -0.0349 -0.0856
 6671SOL     OW26415   4.374   4.306   4.964 -0.6273 -0.0344 -0.4419
 6671SOL    HW226416   4.375   4.356   4.882 -0.1338 -0.0986 -0.4785
 6671SOL    HW326417   4.314   4.354   5.021 -1.6126 -0.4311 -1.1126
 6671SOL    MW426418   4.366   4.319   4.960  0.3068 -0.0281 -0.3289
 6672SOL     OW26419   3.359   4.906   5.872  0.4606 -0.5959 -0.4494
 6672SOL    HW226420   3.444   4.862   5.885  0.8341  0.4584  0.8667
 6672SOL    HW326421   3.308   4.882   5.949  0.9742  1.8874  0.7639
 6672SOL    MW426422   3.364   4.897   5.884 -0.5173 -0.4481  0.0632
 6673SOL     OW26423   1.043   3.569   3.743 -0.4418 -0.2845 -0.4337
 6673SOL    HW226424   0.996   3.542   3.821 -2.0945  0.4015 -1.1498
 6673SOL    HW326425   1.046   3.665   3.749  1.3984 -0.3213 -0.1320
 6673SOL    MW426426   1.037   3.578   3.754 -0.1782  0.4620 -0.5524
 6674SOL     OW26427   5.431   4.038   4.145 -0.9408 -0.0594 -0.1964
 6674SOL    HW226428   5.349   4.071   4.181 -0.6750  0.5697 -0.1663
 6674SOL    HW326429   5.463   4.107   4.087 -0.1204 -0.0283  0.2662
 6674SOL    MW426430   5.425   4.051   4.142  0.0836 -0.0926  0.2051
 6675SOL     OW26431   5.557   0.059   0.405 -0.2571  0.2315  0.0745
 6675SOL    HW226432   5.511  -0.024   0.389  0.2809 -0.1226  0.3437
 6675SOL    HW326433   5.488   0.120   0.431 -0.4350 -0.6514  1.8527
 6675SOL    MW426434   5.541   0.056   0.406  0.4139 -0.4561  0.2234
 6676SOL     OW26435   1.551   1.588   3.516 -0.5128 -0.0775 -0.2840
 6676SOL    HW226436   1.592   1.673   3.531  1.9433 -1.3312  0.7184
 6676SOL    HW326437   1.593   1.554   3.437 -0.5361 -0.8741  0.0346
 6676SOL    MW426438   1.562   1.595   3.508  0.3480  0.4705  0.9494
 6677SOL     OW26439   3.614   4.804   5.989 -0.3976  0.5948  0.2012
 6677SOL    HW226440   3.629   4.720   5.946 -2.1829 -0.7109  1.9491
 6677SOL    HW326441   3.554   4.784   6.061 -0.9171  3.3857  0.6635
 6677SOL    MW426442   3.608   4.790   5.993 -0.6916  0.0642  0.8762
 6678SOL     OW26443   2.550   1.138   3.406 -0.1708 -0.0160  0.3468
 6678SOL    HW226444   2.622   1.099   3.356 -0.5309  0.1870 -0.3423
 6678SOL    HW326445   2.501   1.062   3.438 -0.6601 -0.1528 -0.6839
 6678SOL    MW426446   2.553   1.123   3.403  0.0486  0.0945 -0.8949
 6679SOL     OW26447   1.747   3.730   5.261 -0.7303  0.0877  0.2429
 6679SOL    HW226448   1.835   3.751   5.293  0.0556  0.2805 -1.8692
 6679SOL    HW326449   1.701   3.814   5.260 -1.3576 -0.1741  2.3771
 6679SOL    MW426450   1.752   3.744   5.265 -0.1353 -0.1620  0.0702
 6680SOL     OW26451   0.735   3.012   0.785  0.0183 -0.3323 -0.6017
 6680SOL    HW226452   0.748   2.983   0.875 -1.4867  0.9046  0.0654
 6680SOL    HW326453   0.729   3.107   0.790 -2.4115 -0.3368 -1.6146
 6680SOL    MW426454   0.736   3.021   0.797  0.8391  0.3343  0.3847
 6681SOL     OW26455   3.805   4.945   2.163 -0.0345 -0.2859  0.0536
 6681SOL    HW226456   3.774   5.026   2.123 -0.8164 -0.0577  1.0813
 6681SOL    HW326457   3.747   4.931   2.237  1.4817 -0.5856  1.2380
 6681SOL    MW426458   3.793   4.954   2.167  0.3021  0.1857  0.2759
 6682SOL     OW26459   3.821   2.247   6.408  0.0184  0.1363  0.5671
 6682SOL    HW226460   3.888   2.219   6.346  0.4012  0.5115  0.8046
 6682SOL    HW326461   3.750   2.281   6.354 -0.0033 -0.3065  0.3121
 6682SOL    MW426462   3.821   2.247   6.393 -0.2685  0.2310 -0.2936
 6683SOL     OW26463   2.474   1.139   1.896  0.3999 -0.0520  0.1311
 6683SOL    HW226464   2.452   1.078   1.966  1.5365 -0.3167  0.2701
 6683SOL    HW326465   2.557   1.106   1.860  0.6299  0.9695 -0.3061
 6683SOL    MW426466   2.482   1.126   1.900  0.1010 -0.3581  0.7777
 6684SOL     OW26467   6.356   2.128   1.711  0.0301 -0.1512 -0.0651
 6684SOL    HW226468   6.339   2.193   1.642  0.0999  0.6907  0.6978
 6684SOL    HW326469   6.285   2.142   1.774  0.0284 -0.8444  0.0878
 6684SOL    MW426470   6.344   2.139   1.710  0.2641  0.9334  0.3537
 6685SOL     OW26471   6.231   0.894   1.041 -0.1618 -0.1577 -0.1320
 6685SOL    HW226472   6.324   0.871   1.049  0.0634  1.1724  1.7535
 6685SOL    HW326473   6.229   0.959   0.971  0.4158  0.1573  0.1327
 6685SOL    MW426474   6.243   0.899   1.033 -0.0746 -0.7691 -0.0949
 6686SOL     OW26475   5.370   1.677   5.319  0.6086  0.4945  0.6297
 6686SOL    HW226476   5.285   1.642   5.346  0.8829 -0.1503  0.6569
 6686SOL    HW326477   5.349   1.739   5.249  0.1675 -0.1665  0.1673
 6686SOL    MW426478   5.356   1.681   5.313 -0.2420 -0.2818  0.6627
 6687SOL     OW26479   0.335   0.451   0.091 -0.4026  0.2278  0.3350
 6687SOL    HW226480   0.424   0.478   0.068 -0.5119 -0.2015 -0.6165
 6687SOL    HW326481   0.292   0.437   0.007 -1.4361  0.6260  0.7811
 6687SOL    MW426482   0.341   0.453   0.077 -0.3536  0.1627 -0.2460
 6688SOL     OW26483   2.143   1.900   4.659  0.1613  0.6190  0.0983
 6688SOL    HW226484   2.212   1.851   4.705  0.6903  1.0356 -0.2355
 6688SOL    HW326485   2.109   1.961   4.725  0.6651  0.9628  0.0438
 6688SOL    MW426486   2.148   1.901   4.674 -0.1148  0.1652 -0.5659
 6689SOL     OW26487   1.052   4.917   1.065  0.3856  0.0948 -0.0467
 6689SOL    HW226488   1.131   4.897   1.116 -0.7421 -0.1728  1.6989
 6689SOL    HW326489   1.002   4.835   1.066 -0.2103  0.4467 -0.5514
 6689SOL    MW426490   1.056   4.903   1.072  0.5266 -0.0747 -0.3322
 6690SOL     OW26491   4.937   3.624   5.967 -0.1317 -0.2587  0.1415
 6690SOL    HW226492   4.981   3.709   5.962  0.2286 -0.5379 -2.5813
 6690SOL    HW326493   4.850   3.640   5.930 -0.8090 -0.6890  1.4696
 6690SOL    MW426494   4.931   3.637   5.962 -0.1781  0.1856  0.4028
 6691SOL     OW26495   3.282   0.048   6.027  0.3377  0.1815 -0.1038
 6691SOL    HW226496   3.253  -0.026   5.973  2.3187 -0.0546 -0.9367
 6691SOL    HW326497   3.202   0.083   6.065 -0.9401 -0.7853 -1.7653
 6691SOL    MW426498   3.268   0.043   6.025  0.1099  0.8822 -0.3106
 6692SOL     OW26499   2.099   3.826   0.491 -0.4238  0.1175 -0.5185
 6692SOL    HW226500   2.043   3.867   0.424  0.2284  0.3755 -0.9225
 6692SOL    HW326501   2.169   3.889   0.504 -0.7702  0.2567  0.7395
 6692SOL    MW426502   2.101   3.840   0.484  0.0137 -0.6116 -0.3709
 6693SOL     OW26503   0.010   1.142   6.262 -0.2626  0.0621  0.1202
 6693SOL    HW226504   0.105   1.149   6.267 -0.1741 -1.4513  0.8910
 6693SOL    HW326505  -0.011   1.162   6.171  0.6025  2.1894  0.3331
 6693SOL    MW426506   0.020   1.146   6.251  0.3505 -0.4364  0.2210
 6694SOL     OW26507   5.069   5.704   5.304 -0.2269 -0.1509 -0.0875
 6694SOL    HW226508   5.102   5.678   5.218 -2.5474 -2.2099 -0.4695
 6694SOL    HW326509   5.138   5.680   5.364  2.1018  2.6892 -1.3728
 6694SOL    MW426510   5.082   5.698   5.300  0.1292 -0.0819 -0.9778
 6695SOL     OW26511   3.947   1.928   3.352  0.0234  0.0325  0.7248
 6695SOL    HW226512   3.946   1.842   3.309  0.7339 -0.1664  1.1007
 6695SOL    HW326513   4.007   1.918   3.425 -0.6322  0.5810  1.3520
 6695SOL    MW426514   3.955   1.915   3.356  0.2303  0.8022  0.4377
 6696SOL     OW26515   5.279   5.002   1.392  0.2174  0.3324 -0.3443
 6696SOL    HW226516   5.307   5.092   1.377  0.9970  0.2564  0.5242
 6696SOL    HW326517   5.361   4.954   1.405 -0.1678 -0.5738 -1.1153
 6696SOL    MW426518   5.294   5.007   1.392  0.1511 -0.1363  0.7640
 6697SOL     OW26519   5.784   4.712   4.709  0.5772  0.0029 -0.7939
 6697SOL    HW226520   5.747   4.624   4.706 -0.5674  0.4212  0.2589
 6697SOL    HW326521   5.878   4.698   4.713  0.3953 -1.1810 -0.2667
 6697SOL    MW426522   5.791   4.698   4.709  0.1556  0.0834  0.5703
 6698SOL     OW26523   2.447   2.651   0.098 -0.0787  0.1946  0.0860
 6698SOL    HW226524   2.369   2.673   0.047 -2.2942 -1.1557  2.6364
 6698SOL    HW326525   2.495   2.589   0.042 -1.7768 -0.3291 -0.8761
 6698SOL    MW426526   2.443   2.646   0.084 -0.0475  0.5458  0.0706
 6699SOL     OW26527   1.640   3.141   6.102 -0.2644  0.3453  0.1681
 6699SOL    HW226528   1.556   3.123   6.062 -0.8733  0.8116  1.2004
 6699SOL    HW326529   1.692   3.062   6.086 -1.1273 -0.2234  0.1120
 6699SOL    MW426530   1.636   3.128   6.095 -0.1857 -0.0552 -0.0543
 6700SOL     OW26531   5.280   1.390   1.190 -0.0903  0.7199  0.0257
 6700SOL    HW226532   5.193   1.349   1.188  0.1925  0.1254 -0.3466
 6700SOL    HW326533   5.296   1.407   1.283 -0.3370  0.2523  0.1593
 6700SOL    MW426534   5.270   1.387   1.202  0.4578 -0.7977 -0.3124
 6701SOL     OW26535   1.949   1.810   0.845 -0.0497 -0.1633 -0.4827
 6701SOL    HW226536   2.018   1.874   0.862 -1.5391  1.6141 -0.9288
 6701SOL    HW326537   1.896   1.849   0.776 -0.7658 -2.0939 -1.0849
 6701SOL    MW426538   1.951   1.823   0.838  0.0970 -0.0274 -0.3121
 6702SOL     OW26539   6.035   0.479   5.881 -0.2643  0.3984  0.3641
 6702SOL    HW226540   6.124   0.455   5.906  0.3909  0.0620 -2.0359
 6702SOL    HW326541   6.032   0.574   5.888  0.1049  0.3720  0.9208
 6702SOL    MW426542   6.046   0.488   5.885  0.2045 -0.3240  0.2952
 6703SOL     OW26543   4.016   4.947   3.247 -0.5224  0.2246  0.1070
 6703SOL    HW226544   4.097   4.996   3.264 -1.1684  0.7632  1.8743
 6703SOL    HW326545   3.969   4.950   3.330 -1.9166 -0.9370 -0.6022
 6703SOL    MW426546   4.021   4.954   3.260 -0.1512 -0.0291  0.0629
 6704SOL     OW26547   1.014   2.959   4.518 -0.2160 -0.8188 -0.1461
 6704SOL    HW226548   1.059   3.041   4.538 -1.7656 -0.2113  1.1976
 6704SOL    HW326549   1.028   2.945   4.425  1.9762 -0.2448  0.0483
 6704SOL    MW426550   1.021   2.968   4.509  0.6311  0.1143  0.0268
 6705SOL     OW26551   5.652   4.131   0.976 -0.3067 -0.1798  0.2349
 6705SOL    HW226552   5.735   4.116   1.022  0.2206  3.8024  0.9551
 6705SOL    HW326553   5.593   4.162   1.044 -1.4097  0.0477 -0.7982
 6705SOL    MW426554   5.656   4.133   0.991  0.1820 -0.2832 -0.0476
 6706SOL     OW26555   0.464   0.238   5.630 -0.1046  0.3079 -0.2446
 6706SOL    HW226556   0.419   0.300   5.687  1.0938 -0.7712  2.0039
 6706SOL    HW326557   0.488   0.166   5.688  2.1496 -0.3660 -1.8965
 6706SOL    MW426558   0.461   0.237   5.645 -0.0065  0.0613  0.2236
 6707SOL     OW26559   2.314   5.729   1.279 -0.1703  0.3116  0.3219
 6707SOL    HW226560   2.227   5.710   1.314 -1.0275  0.0480 -1.7539
 6707SOL    HW326561   2.375   5.703   1.348 -1.6446 -2.1108  0.8493
 6707SOL    MW426562   2.311   5.723   1.293  0.2796 -0.4439 -0.4155
 6708SOL     OW26563   4.831   0.683   3.397  0.0918  0.0903 -0.2765
 6708SOL    HW226564   4.850   0.671   3.490 -1.6797 -1.0730 -0.0124
 6708SOL    HW326565   4.888   0.755   3.370  1.3544 -0.1824  1.4593
 6708SOL    MW426566   4.841   0.691   3.406  0.3774  0.2686 -0.4192
 6709SOL     OW26567   4.485   1.568   4.586  0.4419  0.0906 -0.2687
 6709SOL    HW226568   4.463   1.483   4.623  0.2333  0.4409  0.4162
 6709SOL    HW326569   4.565   1.552   4.535 -0.0708 -0.6885 -0.8526
 6709SOL    MW426570   4.493   1.555   4.584  0.2777  0.0635 -0.1054
 6710SOL     OW26571   6.198   1.389   5.930  0.4612 -0.3998  0.3608
 6710SOL    HW226572   6.244   1.445   5.867 -0.1586 -0.3515 -0.0641
 6710SOL    HW326573   6.188   1.444   6.008 -2.0544  0.9461 -0.7622
 6710SOL    MW426574   6.203   1.404   5.932  0.0774 -0.4574  0.2340
 6711SOL     OW26575   5.656   2.927   0.793  0.4785  0.0588  0.1083
 6711SOL    HW226576   5.647   2.976   0.712  2.6319 -0.4880 -0.5190
 6711SOL    HW326577   5.591   2.857   0.786  2.3342 -1.5959 -2.4388
 6711SOL    MW426578   5.647   2.924   0.782  0.3055  0.2776 -0.0949
 6712SOL     OW26579   3.897   0.290   3.033 -0.3975 -0.9565  0.0766
 6712SOL    HW226580   3.865   0.380   3.022  0.2176 -0.6113  0.9899
 6712SOL    HW326581   3.859   0.261   3.116 -0.8607 -1.6697 -0.3710
 6712SOL    MW426582   3.888   0.298   3.043  0.2223  0.1464 -0.0132
 6713SOL     OW26583   4.658   4.411   2.684 -0.4264  0.1065 -0.3032
 6713SOL    HW226584   4.683   4.475   2.617  0.1035  0.8419  0.5799
 6713SOL    HW326585   4.584   4.365   2.645 -0.7390  1.1593 -1.0161
 6713SOL    MW426586   4.652   4.414   2.670 -0.0508 -0.3167 -0.5545
 6714SOL     OW26587   5.547   3.391   1.433 -0.0360 -0.6141 -0.0845
 6714SOL    HW226588   5.497   3.340   1.496 -0.1130 -0.9850 -0.4448
 6714SOL    HW326589   5.638   3.370   1.451  0.1296  1.1728  1.5572
 6714SOL    MW426590   5.552   3.382   1.444 -0.1246  0.2329 -0.2439
 6715SOL     OW26591   3.016   5.319   5.222 -0.4335  0.5899  0.6501
 6715SOL    HW226592   3.104   5.323   5.187 -0.8070 -0.5264 -0.4989
 6715SOL    HW326593   2.960   5.350   5.151 -1.3150 -2.8413 -0.3566
 6715SOL    MW426594   3.020   5.323   5.208  0.1246  0.4042  0.0463
 6716SOL     OW26595   1.663   6.151   5.682 -0.1768 -0.4678 -0.4174
 6716SOL    HW226596   1.694   6.128   5.594  0.5348 -0.7680 -0.0904
 6716SOL    HW326597   1.574   6.115   5.686 -1.3842  2.0638 -2.0509
 6716SOL    MW426598   1.655   6.143   5.671 -0.1931  0.8736 -0.7735
 6717SOL     OW26599   4.775   2.702   1.568 -0.1196 -0.1348  0.1952
 6717SOL    HW226600   4.772   2.612   1.598  0.1033  0.2336  1.3839
 6717SOL    HW326601   4.868   2.726   1.573 -0.2510  0.3389  0.4574
 6717SOL    MW426602   4.787   2.693   1.572 -0.9484  0.0130  0.8426
 6718SOL     OW26603   0.934   2.890   1.482 -0.7432 -0.6202  0.2618
 6718SOL    HW226604   1.006   2.907   1.543  0.6212 -0.2817 -1.3616
 6718SOL    HW326605   0.910   2.977   1.449  0.2379 -0.9389 -1.4654
 6718SOL    MW426606   0.940   2.904   1.486 -0.0834 -0.1452  0.1746
 6719SOL     OW26607   0.646   0.474   3.786 -0.2530  0.4403 -0.1828
 6719SOL    HW226608   0.597   0.483   3.704 -1.4673  0.8258  0.5624
 6719SOL    HW326609   0.594   0.413   3.838 -0.1494  1.1671  0.7860
 6719SOL    MW426610   0.633   0.467   3.782  0.4125  0.1784 -0.1329
 6720SOL     OW26611   6.073   1.863   5.111  0.0455 -0.0976 -0.1449
 6720SOL    HW226612   6.017   1.914   5.052  0.8629 -0.4618 -1.2865
 6720SOL    HW326613   6.143   1.923   5.136  1.4243 -0.7667 -2.0820
 6720SOL    MW426614   6.075   1.878   5.106 -0.4767  0.2875 -0.1655
 6721SOL     OW26615   4.756   3.470   6.402  0.5332  1.1067  0.3640
 6721SOL    HW226616   4.772   3.380   6.431  0.1630  1.4385  1.6613
 6721SOL    HW326617   4.820   3.485   6.332 -0.8672 -0.9079 -1.5044
 6721SOL    MW426618   4.766   3.460   6.396  0.0504  0.1223  0.3372
 6722SOL     OW26619   2.697   4.006   2.896 -0.6211 -0.1996  0.1274
 6722SOL    HW226620   2.662   4.061   2.966 -1.6924 -0.5304 -0.1349
 6722SOL    HW326621   2.638   4.021   2.822  0.1579 -0.3002 -0.5235
 6722SOL    MW426622   2.685   4.016   2.896 -0.3729  0.5069  0.5299
 6723SOL     OW26623   0.799   4.305   1.065 -0.0056 -0.4224  0.3724
 6723SOL    HW226624   0.826   4.329   0.976  1.2467 -0.2694  0.7853
 6723SOL    HW326625   0.764   4.386   1.102  0.3225 -0.2609  0.3293
 6723SOL    MW426626   0.798   4.319   1.058 -0.5059 -0.3267 -0.2149
 6724SOL     OW26627   2.972   1.106   3.685  0.6385  0.3722 -0.1238
 6724SOL    HW226628   2.986   1.062   3.601  1.2106  1.2440 -0.4984
 6724SOL    HW326629   2.878   1.121   3.689  0.1843 -2.1362  0.6740
 6724SOL    MW426630   2.962   1.102   3.675 -0.3201 -0.3490 -0.3836
 6725SOL     OW26631   0.542   5.034   6.187  0.0067 -0.8045 -0.0090
 6725SOL    HW226632   0.635   5.038   6.167  0.1305  0.5321  0.7420
 6725SOL    HW326633   0.517   4.943   6.169  2.1920 -2.1875  3.0987
 6725SOL    MW426634   0.551   5.023   6.182 -0.2208  0.3544  0.0435
 6726SOL     OW26635   1.982   1.318   6.275  0.0176 -0.3713  0.3488
 6726SOL    HW226636   2.067   1.357   6.296 -0.2724 -0.3799  1.5625
 6726SOL    HW326637   1.942   1.298   6.359 -1.3626 -0.0228 -0.1848
 6726SOL    MW426638   1.988   1.321   6.289  0.1471  0.0442  0.0821
 6727SOL     OW26639   4.078   3.010   4.936  0.2547  0.3186 -0.0987
 6727SOL    HW226640   4.161   2.983   4.975 -0.4359 -1.2475  0.3421
 6727SOL    HW326641   4.047   3.081   4.992  1.0358  0.5591  0.0387
 6727SOL    MW426642   4.085   3.016   4.949 -0.0007 -0.1240  0.5293
 6728SOL     OW26643   2.056   3.210   6.414  0.1655 -0.2112  0.1030
 6728SOL    HW226644   2.109   3.194   6.492 -0.9426  0.8829  1.1234
 6728SOL    HW326645   2.116   3.253   6.353  0.8870 -0.5113  0.5863
 6728SOL    MW426646   2.071   3.214   6.416 -0.3530  0.1062 -0.5721
 6729SOL     OW26647   3.653   5.600   3.279  0.1452 -0.2784 -0.1847
 6729SOL    HW226648   3.732   5.608   3.333  0.1163 -0.5540 -0.0988
 6729SOL    HW326649   3.686   5.568   3.195  0.2851  0.9278 -0.5956
 6729SOL    MW426650   3.668   5.597   3.275  0.1008  0.2532 -0.6826
 6730SOL     OW26651   0.965   6.288   1.261  0.6828 -0.4317  0.1740
 6730SOL    HW226652   1.041   6.283   1.319 -0.1617 -0.3948  1.3183
 6730SOL    HW326653   0.938   6.380   1.266  1.2795 -0.1579 -1.2033
 6730SOL    MW426654   0.972   6.300   1.269 -0.1301 -0.0941  0.1920
 6731SOL     OW26655   0.065   0.051   3.897 -0.4776 -0.5381 -0.3893
 6731SOL    HW226656   0.051   0.145   3.886  0.1655 -0.5662 -1.6366
 6731SOL    HW326657  -0.005   0.023   3.956 -0.8201  0.6725 -0.1917
 6731SOL    MW426658   0.054   0.059   3.904  0.3481  0.2891 -0.5431
 6732SOL     OW26659   5.744   0.058   3.352  0.4151 -0.1394 -0.0323
 6732SOL    HW226660   5.836   0.076   3.337  0.6078 -1.1698 -0.1497
 6732SOL    HW326661   5.711   0.135   3.397  1.5961 -0.2284  1.0226
 6732SOL    MW426662   5.752   0.070   3.356 -0.1106 -0.1188 -0.4909
 6733SOL     OW26663   4.109   5.177   2.718  0.4377  0.0916 -0.1039
 6733SOL    HW226664   4.150   5.130   2.791 -0.1193 -0.9178 -0.4258
 6733SOL    HW326665   4.058   5.111   2.672 -1.3768  1.2601  0.1434
 6733SOL    MW426666   4.108   5.162   2.722  0.1486  0.0098 -1.1909
 6734SOL     OW26667   1.686   3.596   2.771 -0.0341  0.0097 -0.0116
 6734SOL    HW226668   1.713   3.561   2.856 -0.2171 -1.0648 -0.3841
 6734SOL    HW326669   1.618   3.660   2.792  1.6472  1.6276  0.8233
 6734SOL    MW426670   1.681   3.600   2.785  0.0378 -0.2842 -0.3560
 6735SOL     OW26671   5.736   1.974   2.254 -0.0379 -0.1243 -0.5066
 6735SOL    HW226672   5.728   1.973   2.349  0.0119 -0.6688 -0.5062
 6735SOL    HW326673   5.650   2.001   2.223 -0.5978 -1.6343 -0.3558
 6735SOL    MW426674   5.724   1.977   2.262 -0.1782 -0.0259  0.3082
 6736SOL     OW26675   1.328   4.630   0.012  0.2145 -0.0115  0.1015
 6736SOL    HW226676   1.364   4.718   0.011 -1.1180  0.5546 -1.0875
 6736SOL    HW326677   1.238   4.641   0.044  0.1332 -0.9763  0.2426
 6736SOL    MW426678   1.321   4.643   0.016  0.1369  0.2303 -0.0499
 6737SOL     OW26679   2.780   4.808   3.328  0.4203  0.1759  0.3862
 6737SOL    HW226680   2.698   4.759   3.321 -0.6190  2.0081 -1.4828
 6737SOL    HW326681   2.773   4.856   3.410 -2.4977  3.6468 -1.6141
 6737SOL    MW426682   2.769   4.808   3.338  0.0660  0.7366 -0.1620
 6738SOL     OW26683   6.016   0.740   2.211  0.5597  0.1579  0.0514
 6738SOL    HW226684   6.055   0.826   2.221  1.1070 -0.2756  2.1461
 6738SOL    HW326685   6.088   0.679   2.228 -0.3751 -0.6653  1.2411
 6738SOL    MW426686   6.031   0.743   2.214 -0.0154 -0.4757 -0.2331
 6739SOL     OW26687   0.373   1.111   4.449 -0.0974 -0.0358  0.0084
 6739SOL    HW226688   0.359   1.205   4.461  0.7028  0.1261 -0.2895
 6739SOL    HW326689   0.285   1.074   4.453 -0.8027  1.0685 -2.7834
 6739SOL    MW426690   0.360   1.119   4.451 -0.1811  0.5638 -0.5275
 6740SOL     OW26691   1.191   3.951   1.476 -0.0308  0.6588  0.0412
 6740SOL    HW226692   1.234   3.874   1.513  0.6652  0.9394 -0.1673
 6740SOL    HW326693   1.117   3.968   1.534  0.1703  0.1965  0.4346
 6740SOL    MW426694   1.186   3.943   1.489 -0.1924  0.2246  0.4533
 6741SOL     OW26695   5.230   6.424   6.002 -0.3740 -0.0269 -0.8488
 6741SOL    HW226696   5.287   6.500   6.015  1.2644 -0.8330 -2.7342
 6741SOL    HW326697   5.218   6.420   5.907  0.0794 -2.4099 -0.8647
 6741SOL    MW426698   5.236   6.434   5.991  0.3103 -0.3929 -0.3152
 6742SOL     OW26699   1.718   5.937   2.989 -0.3557 -0.3515  0.2290
 6742SOL    HW226700   1.695   5.852   2.952 -1.3745 -0.0490  0.1139
 6742SOL    HW326701   1.810   5.930   3.012 -0.7280 -1.9504  1.4692
 6742SOL    MW426702   1.727   5.925   2.987  0.5935  0.6087 -0.4365
 6743SOL     OW26703   4.678   5.027   4.006 -0.1491 -0.1122 -0.1780
 6743SOL    HW226704   4.669   4.960   4.074  1.2988  0.5134  0.6817
 6743SOL    HW326705   4.590   5.063   3.995 -1.2476 -2.8479 -1.4766
 6743SOL    MW426706   4.666   5.023   4.013  0.3115 -0.2266  0.3554
 6744SOL     OW26707   3.423   3.748   6.358 -0.2570 -0.2141 -0.0979
 6744SOL    HW226708   3.442   3.822   6.416 -1.8714  0.0042  0.1805
 6744SOL    HW326709   3.381   3.788   6.281  1.2328 -0.5784 -1.1536
 6744SOL    MW426710   3.420   3.763   6.355  0.2978 -0.3709  0.4390
 6745SOL     OW26711   6.014   4.417   0.048  0.2064 -0.8927 -0.1201
 6745SOL    HW226712   6.082   4.365   0.090 -0.3389 -1.0942  0.5307
 6745SOL    HW326713   6.025   4.505   0.084 -1.1071 -1.3550  1.5225
 6745SOL    MW426714   6.025   4.422   0.058  0.5550  0.6252 -0.0154
 6746SOL     OW26715   5.618   6.174   5.984 -0.5263  0.1392 -0.5346
 6746SOL    HW226716   5.678   6.135   5.921 -0.5734  0.4867 -0.7958
 6746SOL    HW326717   5.621   6.268   5.965 -0.8377  0.2019 -0.2785
 6746SOL    MW426718   5.626   6.182   5.973  0.3830 -0.1067 -0.5756
 6747SOL     OW26719   4.695   2.722   6.204 -0.3914  0.6079 -0.3218
 6747SOL    HW226720   4.744   2.712   6.122 -2.1254 -1.1662 -1.2227
 6747SOL    HW326721   4.603   2.714   6.178 -0.9919 -0.0940  1.8076
 6747SOL    MW426722   4.689   2.720   6.190  0.1454  0.5266  0.1762
 6748SOL     OW26723   3.992   0.327   0.598  0.8809 -0.0669 -0.2710
 6748SOL    HW226724   3.924   0.394   0.594  0.9664  0.0277 -0.1225
 6748SOL    HW326725   4.004   0.300   0.507 -0.9325 -1.6684 -0.0899
 6748SOL    MW426726   3.985   0.332   0.585  0.0866 -0.3223  0.5866
 6749SOL     OW26727   5.289   1.816   1.099  0.0311 -0.2581 -0.2703
 6749SOL    HW226728   5.268   1.738   1.046  1.9053 -1.3383  0.4809
 6749SOL    HW326729   5.293   1.784   1.189 -0.7630  1.0764  0.2751
 6749SOL    MW426730   5.287   1.801   1.103 -0.0525  0.0350  0.1324
 6750SOL     OW26731   1.489   4.425   0.078 -0.0546 -0.4198 -0.3629
 6750SOL    HW226732   1.435   4.502   0.061  0.9670  0.1304 -1.1894
 6750SOL    HW326733   1.557   4.428   0.012  1.0278 -1.0697  0.6827
 6750SOL    MW426734   1.491   4.436   0.067  0.3351 -0.3182  0.0298
 6751SOL     OW26735   4.059   3.606   6.380 -0.2268  0.1895 -0.0889
 6751SOL    HW226736   4.104   3.521   6.373  2.4755  1.5222 -0.1797
 6751SOL    HW326737   4.033   3.611   6.472  1.0485 -0.0805  0.3069
 6751SOL    MW426738   4.062   3.595   6.391  0.2942 -0.1141 -0.6542
 6752SOL     OW26739   2.655   3.570   1.894  0.3955 -0.2036  0.1641
 6752SOL    HW226740   2.607   3.627   1.834  0.0928 -0.1991  0.4065
 6752SOL    HW326741   2.684   3.497   1.839 -3.0355 -2.1407  0.6360
 6752SOL    MW426742   2.653   3.568   1.879 -0.0739 -0.5290 -0.0903
 6753SOL     OW26743   4.738   3.095   2.587  0.7816  0.2553  0.1482
 6753SOL    HW226744   4.714   3.009   2.622 -0.1868  0.0764 -0.9064
 6753SOL    HW326745   4.699   3.157   2.648 -0.5874 -0.0566 -0.3695
 6753SOL    MW426746   4.729   3.092   2.599  0.4303  0.6320 -0.7610
 6754SOL     OW26747   5.957   0.908   1.066 -0.8495 -0.3922  0.1920
 6754SOL    HW226748   6.051   0.888   1.071 -1.0231 -1.3645 -0.2850
 6754SOL    HW326749   5.949   0.994   1.108  0.4290  0.2627 -0.8505
 6754SOL    MW426750   5.969   0.917   1.072 -0.2331  0.0409  0.0456
 6755SOL     OW26751   3.231   2.560   3.388  0.5947  0.2690 -0.3024
 6755SOL    HW226752   3.252   2.598   3.474  0.0147 -0.7466  0.3090
 6755SOL    HW326753   3.315   2.528   3.355  0.4850 -1.4848  0.9780
 6755SOL    MW426754   3.245   2.561   3.395  0.3509  0.4380  0.0904
 6756SOL     OW26755   4.472   3.974   2.605 -0.0847  0.3204 -0.1041
 6756SOL    HW226756   4.405   3.906   2.613 -0.3423  0.7301  1.5620
 6756SOL    HW326757   4.553   3.931   2.634  0.1514  0.1789 -0.9436
 6756SOL    MW426758   4.474   3.959   2.609  0.8478  0.0735  0.2632
 6757SOL     OW26759   2.984   4.665   4.226 -0.3818  0.6647  0.1287
 6757SOL    HW226760   3.063   4.642   4.275 -1.3815 -0.3565  1.3286
 6757SOL    HW326761   2.971   4.592   4.166 -1.9285 -0.6099  1.8987
 6757SOL    MW426762   2.993   4.653   4.224 -0.5958  0.1075 -0.1612
 6758SOL     OW26763   1.672   1.168   0.464 -0.2733 -0.4768  0.1795
 6758SOL    HW226764   1.618   1.145   0.388 -0.6773  1.6854 -0.2524
 6758SOL    HW326765   1.753   1.118   0.452 -0.8443 -1.1709 -0.9607
 6758SOL    MW426766   1.675   1.158   0.452 -0.2170 -0.1591  0.6673
 6759SOL     OW26767   6.195   1.620   2.801 -0.0127  0.8852  0.3136
 6759SOL    HW226768   6.161   1.707   2.785 -1.4065  0.3027  0.0071
 6759SOL    HW326769   6.259   1.632   2.872 -1.0006  1.9817  1.0539
 6759SOL    MW426770   6.199   1.633   2.809 -0.0650 -0.8240 -0.6950
 6760SOL     OW26771   5.974   5.322   1.817 -0.5446 -0.6014  0.2517
 6760SOL    HW226772   6.063   5.323   1.782 -0.2721 -0.6224  0.9235
 6760SOL    HW326773   5.975   5.253   1.884 -0.9841 -0.4048  0.4688
 6760SOL    MW426774   5.986   5.313   1.822 -0.0872 -0.6149  0.1163
 6761SOL     OW26775   3.905   4.775   0.210 -0.6292 -0.0995 -0.0609
 6761SOL    HW226776   3.885   4.864   0.180 -2.1503 -0.0375  0.9971
 6761SOL    HW326777   3.997   4.778   0.235 -0.0874  0.6012 -1.9272
 6761SOL    MW426778   3.914   4.787   0.209 -0.2765 -0.4949 -0.5367
 6762SOL     OW26779   4.470   2.536   1.876  0.1877  0.6857 -0.4933
 6762SOL    HW226780   4.455   2.626   1.904 -1.3223  0.1599  0.4972
 6762SOL    HW326781   4.388   2.510   1.834 -0.7930 -1.3626  2.4472
 6762SOL    MW426782   4.457   2.544   1.874  0.0398  0.2397  0.7321
 6763SOL     OW26783   6.250   2.047   5.791  0.7978 -0.1120 -0.6540
 6763SOL    HW226784   6.234   2.141   5.797  1.7825 -0.0042  0.5850
 6763SOL    HW326785   6.162   2.008   5.790  0.3707  0.7151  0.8754
 6763SOL    MW426786   6.236   2.054   5.791 -0.2386 -0.4422  0.4616
 6764SOL     OW26787   4.874   6.349   4.693  0.1201 -0.3639  0.1569
 6764SOL    HW226788   4.856   6.397   4.774 -0.1562 -1.4024  0.7278
 6764SOL    HW326789   4.800   6.289   4.684  0.4148 -0.6220 -0.5958
 6764SOL    MW426790   4.861   6.347   4.702 -0.4712 -1.0668 -0.7163
 6765SOL     OW26791   1.239   5.326   3.509 -0.3685  0.0382 -0.2470
 6765SOL    HW226792   1.150   5.312   3.477 -1.5297  0.7695  2.3534
 6765SOL    HW326793   1.284   5.242   3.494 -1.6663 -0.5401 -1.0504
 6765SOL    MW426794   1.233   5.313   3.503 -0.0394 -0.2463  0.7582
 6766SOL     OW26795   5.835   3.989   2.400 -0.2723 -0.3132 -0.4722
 6766SOL    HW226796   5.929   3.993   2.379 -0.4141 -0.1312 -1.0931
 6766SOL    HW326797   5.829   3.926   2.472  0.2734 -0.7114 -0.7698
 6766SOL    MW426798   5.847   3.981   2.406  0.7442  0.2292  0.2101
 6767SOL     OW26799   5.858   0.077   1.385  0.4636 -0.3212 -0.1429
 6767SOL    HW226800   5.882  -0.015   1.401  0.3205 -0.2110  0.7843
 6767SOL    HW326801   5.779   0.071   1.331  1.0584 -0.7191 -0.9936
 6767SOL    MW426802   5.851   0.064   1.380 -0.0854  0.1394  0.2114
 6768SOL     OW26803   1.648   3.317   0.999 -0.6005 -0.2669 -0.5709
 6768SOL    HW226804   1.620   3.336   0.909 -0.5336  0.0385 -0.5283
 6768SOL    HW326805   1.648   3.221   1.004  2.4264 -0.4670 -1.8809
 6768SOL    MW426806   1.644   3.306   0.988 -0.3461  0.0019 -0.2273
 6769SOL     OW26807   4.137   5.124   4.190 -0.4160 -0.2700  0.3521
 6769SOL    HW226808   4.083   5.046   4.202 -1.5217  0.3579 -0.3505
 6769SOL    HW326809   4.106   5.185   4.257 -0.8486  0.2204 -0.2814
 6769SOL    MW426810   4.126   5.122   4.200 -0.6952 -0.4290 -0.0021
 6770SOL     OW26811   2.953   2.688   0.482 -0.2947  0.4606  0.3070
 6770SOL    HW226812   2.891   2.637   0.430  1.2399 -1.4033  0.1806
 6770SOL    HW326813   2.945   2.652   0.571  1.3935 -0.7028  0.0514
 6770SOL    MW426814   2.944   2.677   0.487  0.4118 -0.1716  0.5446
 6771SOL     OW26815   5.547   3.675   3.401 -0.1041  0.1507  0.6036
 6771SOL    HW226816   5.504   3.714   3.325 -0.4310 -2.7578 -0.8104
 6771SOL    HW326817   5.483   3.685   3.472 -0.5610  1.2594  0.0684
 6771SOL    MW426818   5.533   3.682   3.401 -0.0192  0.3912 -0.2785
 6772SOL     OW26819   0.459   3.467   3.982 -0.2673  0.1224 -0.7188
 6772SOL    HW226820   0.494   3.530   4.045  0.1388 -0.8037  0.0095
 6772SOL    HW326821   0.403   3.409   4.034  2.0403 -2.2295 -0.6080
 6772SOL    MW426822   0.457   3.468   3.997  0.3656  0.6457  0.4285
 6773SOL     OW26823   0.684   5.536   4.498 -0.0194 -0.5188 -0.5891
 6773SOL    HW226824   0.723   5.578   4.422  0.4389  0.9690  0.4267
 6773SOL    HW326825   0.681   5.443   4.475 -3.4337  0.1854 -3.9868
 6773SOL    MW426826   0.689   5.529   4.485 -0.6178  0.4628 -0.1465
 6774SOL     OW26827   1.496   3.640   4.172 -0.5936  0.1610  0.4887
 6774SOL    HW226828   1.528   3.723   4.207 -1.0825  0.8183 -0.5866
 6774SOL    HW326829   1.561   3.613   4.108 -2.1927  1.6398 -1.9031
 6774SOL    MW426830   1.509   3.647   4.168 -0.4929 -0.3815  0.2067
 6775SOL     OW26831   2.274   3.433   2.556  0.0021  0.3472  0.9351
 6775SOL    HW226832   2.290   3.359   2.614 -1.4754  0.5908  1.7056
 6775SOL    HW326833   2.180   3.431   2.538  0.5658 -0.4958 -2.6041
 6775SOL    MW426834   2.264   3.423   2.561  0.1367  0.0787 -0.4767
 6776SOL     OW26835   0.900   2.045   2.822 -0.0683 -0.5684  0.3424
 6776SOL    HW226836   0.927   2.102   2.750  0.5466 -0.2810  0.7830
 6776SOL    HW326837   0.909   1.956   2.788 -1.2252 -0.4098 -0.4180
 6776SOL    MW426838   0.905   2.041   2.808  0.1833 -0.2874  0.2078
 6777SOL     OW26839   2.859   3.037   0.451  0.1760 -0.2595  0.0610
 6777SOL    HW226840   2.821   2.958   0.489 -0.8514  0.6415  0.9833
 6777SOL    HW326841   2.784   3.092   0.429  0.7697 -0.4302 -2.6983
 6777SOL    MW426842   2.844   3.034   0.453  0.1024  0.4649 -0.3564
 6778SOL     OW26843   3.296   1.509   2.654  0.2546  0.3446  0.4841
 6778SOL    HW226844   3.364   1.577   2.655 -0.8440  1.5067 -0.3660
 6778SOL    HW326845   3.287   1.484   2.746 -1.1311  3.2964  1.2863
 6778SOL    MW426846   3.304   1.515   2.666 -0.9463 -0.5322  0.0184
 6779SOL     OW26847   5.159   3.416   1.711 -0.2655  0.6304  0.1288
 6779SOL    HW226848   5.180   3.478   1.642  0.4618 -0.9375 -1.1323
 6779SOL    HW326849   5.063   3.414   1.713 -0.3050  0.6299 -0.9484
 6779SOL    MW426850   5.149   3.424   1.702 -0.4740  0.3114  0.4658
 6780SOL     OW26851   4.659   3.331   2.723 -0.5958 -0.1842  0.1548
 6780SOL    HW226852   4.726   3.362   2.784  2.1335 -4.0066 -0.5163
 6780SOL    HW326853   4.669   3.388   2.646  1.5573 -0.3009  0.2948
 6780SOL    MW426854   4.669   3.343   2.721 -0.1755 -0.5823  0.4013
 6781SOL     OW26855   4.333   1.033   2.669  0.8308 -0.3599 -0.1662
 6781SOL    HW226856   4.378   1.114   2.693 -1.1302  0.3717  1.3779
 6781SOL    HW326857   4.266   1.061   2.606  0.3875 -0.8547  0.0851
 6781SOL    MW426858   4.330   1.048   2.664  0.0883 -0.3740  0.5146
 6782SOL     OW26859   2.345   2.637   0.612  0.0513  0.2833 -0.0312
 6782SOL    HW226860   2.266   2.687   0.591 -0.4988 -0.3893  0.3750
 6782SOL    HW326861   2.398   2.641   0.533 -0.6823  0.2052 -0.5324
 6782SOL    MW426862   2.342   2.644   0.599  0.3672 -0.0382 -0.3027
 6783SOL     OW26863   5.039   2.319   3.346  0.0470  0.7133  0.0287
 6783SOL    HW226864   4.979   2.363   3.286 -0.4089 -0.4550 -0.4216
 6783SOL    HW326865   5.021   2.225   3.332  2.6503  0.2500 -0.8866
 6783SOL    MW426866   5.028   2.312   3.336 -0.6979 -0.6664  0.0196
 6784SOL     OW26867   0.684   2.808   6.270 -0.5281  0.5307  0.2003
 6784SOL    HW226868   0.640   2.723   6.268 -0.0156  0.2703 -0.3384
 6784SOL    HW326869   0.654   2.849   6.351 -2.0438  0.5097 -0.3096
 6784SOL    MW426870   0.674   2.802   6.280 -0.0136 -0.0393 -0.2385
 6785SOL     OW26871   3.239   2.878   5.804  0.1780 -1.3029 -0.5868
 6785SOL    HW226872   3.244   2.868   5.899 -0.6142 -1.1913 -0.5213
 6785SOL    HW326873   3.146   2.896   5.787  0.3819 -0.9315 -1.3444
 6785SOL    MW426874   3.227   2.879   5.814 -0.1102  0.5384  0.0931
 6786SOL     OW26875   3.158   6.131   3.783  0.0202  0.1133  0.2146
 6786SOL    HW226876   3.222   6.062   3.801 -0.3817  0.1203  1.7639
 6786SOL    HW326877   3.211   6.203   3.748  0.7499 -0.1620  0.7236
 6786SOL    MW426878   3.173   6.131   3.781 -0.5046  0.3664  0.2283
 6787SOL     OW26879   0.476   1.557   3.114  0.1146  0.3057  0.1565
 6787SOL    HW226880   0.441   1.506   3.040 -0.0951 -1.1726  1.2360
 6787SOL    HW326881   0.503   1.640   3.074  0.6817 -0.7036 -1.7405
 6787SOL    MW426882   0.475   1.561   3.099  0.1353  0.6391  1.0645
 6788SOL     OW26883   4.438   3.610   0.387  0.5052  0.5451  0.5661
 6788SOL    HW226884   4.361   3.663   0.408  0.5591  0.2308  1.6349
 6788SOL    HW326885   4.452   3.624   0.293 -0.6278  0.8903  0.4314
 6788SOL    MW426886   4.430   3.619   0.377  0.6109  0.3537  0.0797
 6789SOL     OW26887   1.950   3.655   3.965  0.3247 -0.0373  0.4888
 6789SOL    HW226888   1.958   3.634   3.872 -2.7033 -1.9475  0.5225
 6789SOL    HW326889   1.968   3.749   3.970  1.5183 -0.0750 -1.8327
 6789SOL    MW426890   1.953   3.664   3.954 -0.1269 -0.6409 -0.3834
 6790SOL     OW26891   0.798   0.195   3.284  0.2144 -0.0047 -0.4094
 6790SOL    HW226892   0.726   0.168   3.340  1.9656 -1.2243  1.3907
 6790SOL    HW326893   0.776   0.159   3.198 -0.7395 -1.4196  0.3815
 6790SOL    MW426894   0.786   0.186   3.280  0.1899  0.5931  0.0733
 6791SOL     OW26895   0.084   2.854   2.335 -0.4189 -0.0291 -0.7241
 6791SOL    HW226896   0.066   2.944   2.361 -1.3638 -0.4236  0.0509
 6791SOL    HW326897   0.115   2.861   2.244 -1.9924  0.9523 -1.2222
 6791SOL    MW426898   0.086   2.866   2.326 -0.5485 -0.5309 -0.1492
 6792SOL     OW26899   0.151   5.809   1.642  0.0861  0.2276 -0.3508
 6792SOL    HW226900   0.184   5.887   1.596 -1.1985  0.9822 -0.0259
 6792SOL    HW326901   0.195   5.736   1.598 -0.1899  1.0019 -1.9988
 6792SOL    MW426902   0.161   5.810   1.630 -0.0044  0.9355  0.1028
 6793SOL     OW26903   3.052   3.701   5.679 -0.8591 -0.7812 -0.6007
 6793SOL    HW226904   3.068   3.782   5.630 -0.1244 -1.9506 -2.3706
 6793SOL    HW326905   3.102   3.634   5.633  1.4873 -1.6698  2.8784
 6793SOL    MW426906   3.060   3.703   5.666 -0.1943 -0.0330  0.6593
 6794SOL     OW26907   3.036   4.730   0.866  0.3733 -0.1025  0.2114
 6794SOL    HW226908   3.065   4.796   0.803  1.9944  0.5259  1.5637
 6794SOL    HW326909   3.097   4.657   0.855 -0.7682 -0.9932 -0.5357
 6794SOL    MW426910   3.048   4.729   0.856 -0.0859  0.0035  1.1331
 6795SOL     OW26911   2.337   1.709   5.591  0.2848  0.3356 -0.0879
 6795SOL    HW226912   2.334   1.618   5.561  0.8868  0.6378 -1.1230
 6795SOL    HW326913   2.323   1.761   5.512 -1.1502  1.1525  0.6664
 6795SOL    MW426914   2.335   1.704   5.577  0.5482  0.0756  0.4299
 6796SOL     OW26915   3.566   3.105   1.425  0.4014 -0.3329 -0.4264
 6796SOL    HW226916   3.508   3.045   1.378 -1.5710  0.1516  1.2331
 6796SOL    HW326917   3.530   3.109   1.513  1.8021  1.5770  0.1299
 6796SOL    MW426918   3.553   3.097   1.430  0.1544 -0.2078  0.6811
 6797SOL     OW26919   2.547   0.168   2.957  0.8907  0.0476  0.6149
 6797SOL    HW226920   2.507   0.195   2.875  0.7117  1.2379  1.0684
 6797SOL    HW326921   2.636   0.203   2.953  1.6156 -1.7476  0.0317
 6797SOL    MW426922   2.553   0.176   2.946  0.1148  0.3577  0.0982
 6798SOL     OW26923   5.766   1.128   1.382 -0.1158 -0.1110 -0.3553
 6798SOL    HW226924   5.772   1.138   1.287  1.7775 -0.9061 -0.3587
 6798SOL    HW326925   5.739   1.038   1.395 -0.6857  0.0888 -0.1312
 6798SOL    MW426926   5.763   1.118   1.371  0.0221  0.5761 -0.2573
 6799SOL     OW26927   5.991   3.079   1.303 -0.2900 -0.1003  0.1582
 6799SOL    HW226928   6.044   3.010   1.342  1.6991  0.4606 -1.3990
 6799SOL    HW326929   5.994   3.151   1.366  1.4639  0.1849 -0.2115
 6799SOL    MW426930   5.998   3.079   1.317 -0.1150  0.1769  0.2229
 6800SOL     OW26931   3.567   4.639   0.898  0.8769  0.4228 -0.3868
 6800SOL    HW226932   3.597   4.622   0.988 -0.9023 -1.3006 -0.0231
 6800SOL    HW326933   3.624   4.586   0.843  1.6498  1.0868 -0.2390
 6800SOL    MW426934   3.579   4.630   0.903 -0.0090 -0.4160  0.3419
 6801SOL     OW26935   3.422   5.026   4.538  0.0737  0.1527 -0.4543
 6801SOL    HW226936   3.328   5.042   4.527 -0.0587  0.7243  1.1780
 6801SOL    HW326937   3.426   4.946   4.591  0.3314  1.8539  2.3300
 6801SOL    MW426938   3.410   5.017   4.544  0.0881 -0.1137 -0.6130
 6802SOL     OW26939   0.516   3.470   5.646 -0.0976  0.8771 -0.9457
 6802SOL    HW226940   0.541   3.530   5.576  0.7811 -0.5682 -1.9030
 6802SOL    HW326941   0.600   3.441   5.684 -0.4811 -0.1553 -0.8591
 6802SOL    MW426942   0.531   3.474   5.642 -0.1668  0.1938 -0.0568
 6803SOL     OW26943   1.254   3.553   5.509 -0.5314  0.1656  0.3526
 6803SOL    HW226944   1.338   3.586   5.477 -0.6168  0.6321  0.6127
 6803SOL    HW326945   1.208   3.630   5.542 -1.8018  0.2002 -1.3919
 6803SOL    MW426946   1.259   3.567   5.509 -0.2771 -0.1960  0.2744
 6804SOL     OW26947   0.751   3.362   5.796 -0.3403  0.0986  0.6311
 6804SOL    HW226948   0.796   3.346   5.713 -0.5662  1.0133  0.3218
 6804SOL    HW326949   0.722   3.275   5.824  1.7219 -0.5411  0.9244
 6804SOL    MW426950   0.753   3.349   5.789 -0.2607  0.1576  0.0294
 6805SOL     OW26951   4.785   4.566   6.361 -0.3934  0.5654 -0.1272
 6805SOL    HW226952   4.738   4.567   6.278  0.5240  0.5541 -0.6617
 6805SOL    HW326953   4.869   4.525   6.341  0.0294  0.9847  0.7038
 6805SOL    MW426954   4.790   4.561   6.348 -0.3935  0.5916 -0.1925
 6806SOL     OW26955   6.104   4.086   0.460 -0.4013  0.0695 -0.0976
 6806SOL    HW226956   6.127   3.994   0.446 -0.7918 -0.1840  0.9062
 6806SOL    HW326957   6.012   4.092   0.436 -0.1500  0.4222 -1.0688
 6806SOL    MW426958   6.095   4.075   0.455  0.5135  0.1178  0.2623
 6807SOL     OW26959   4.390   4.516   6.325  0.5228 -0.1969  0.0451
 6807SOL    HW226960   4.323   4.562   6.375  0.2575 -0.2152 -0.2934
 6807SOL    HW326961   4.435   4.584   6.276 -0.4143 -0.3829 -1.0982
 6807SOL    MW426962   4.387   4.531   6.325 -0.5168  0.2223  0.3134
 6808SOL     OW26963   0.557   2.845   3.138 -0.8421 -0.3041 -0.5184
 6808SOL    HW226964   0.499   2.920   3.125  0.5758  0.9509 -0.0050
 6808SOL    HW326965   0.572   2.842   3.232  0.5507 -0.0454 -0.6998
 6808SOL    MW426966   0.552   2.855   3.149  0.5432 -1.2107 -0.1108
 6809SOL     OW26967   2.274   3.760   0.772 -0.2617 -0.1151 -0.8475
 6809SOL    HW226968   2.362   3.763   0.810 -0.5814 -1.3935  0.0785
 6809SOL    HW326969   2.253   3.667   0.769 -2.6677  0.2199  1.5992
 6809SOL    MW426970   2.283   3.748   0.776  0.2156 -0.1624 -0.0337
 6810SOL     OW26971   2.793   3.308   2.488 -0.0320 -0.3038  0.5649
 6810SOL    HW226972   2.708   3.289   2.449  1.1929 -0.7665 -2.2085
 6810SOL    HW326973   2.788   3.399   2.514 -1.2448 -0.2018  0.0307
 6810SOL    MW426974   2.781   3.317   2.486  0.2197  0.3871 -0.4650
 6811SOL     OW26975   5.265   6.129   5.501 -1.0162 -0.1227  0.2178
 6811SOL    HW226976   5.248   6.210   5.453 -1.1484 -0.2507  0.0452
 6811SOL    HW326977   5.190   6.073   5.481 -0.9185 -0.2939  0.3222
 6811SOL    MW426978   5.253   6.132   5.492 -0.2328 -0.4089 -0.1679
 6812SOL     OW26979   2.885   0.202   2.620 -0.0941 -0.7208 -0.1580
 6812SOL    HW226980   2.968   0.249   2.616  0.6326 -1.5945  2.5964
 6812SOL    HW326981   2.857   0.196   2.528  1.6746  1.6097 -0.9583
 6812SOL    MW426982   2.892   0.207   2.607 -0.4833 -0.6356  0.2710
 6813SOL     OW26983   2.539   3.005   4.006  0.1337  1.1131  0.1436
 6813SOL    HW226984   2.578   3.047   3.930 -1.0833  0.8240 -0.6620
 6813SOL    HW326985   2.447   2.991   3.982 -0.2412  0.8682  1.5945
 6813SOL    MW426986   2.532   3.009   3.993  0.1123  0.2055  0.1146
 6814SOL     OW26987   2.941   4.786   6.271  0.4509 -0.5298 -0.0121
 6814SOL    HW226988   2.899   4.785   6.357 -1.6554  2.1087 -0.8570
 6814SOL    HW326989   2.873   4.755   6.210  1.0091  0.1142 -0.9957
 6814SOL    MW426990   2.926   4.782   6.274 -0.0588  0.1087 -0.4110
 6815SOL     OW26991   2.671   6.275   6.138 -0.1839  0.2695  0.6021
 6815SOL    HW226992   2.685   6.335   6.065  2.1837  0.1521  0.8858
 6815SOL    HW326993   2.758   6.262   6.175 -0.9464 -1.7785  1.8066
 6815SOL    MW426994   2.684   6.281   6.133  0.2246 -0.2621 -0.0229
 6816SOL     OW26995   2.166   5.957   5.341  0.3020  0.0570  0.2612
 6816SOL    HW226996   2.106   6.023   5.375  2.5667  2.9867 -1.0425
 6816SOL    HW326997   2.120   5.919   5.266 -1.0998 -0.0246  1.1252
 6816SOL    MW426998   2.152   5.960   5.336 -0.1035 -0.5054 -0.0334
 6817SOL     OW26999   3.630   2.651   0.947  0.1248 -0.0959  0.3847
 6817SOL    HW227000   3.716   2.677   0.912  0.2796 -1.1067 -0.0240
 6817SOL    HW327001   3.642   2.560   0.974 -0.5594  0.0576  1.2427
 6817SOL    MW427002   3.643   2.643   0.946  0.5253  0.0021 -0.4915
 6818SOL     OW27003   3.966   3.738   4.075 -0.1800  0.2314 -0.4493
 6818SOL    HW227004   4.036   3.674   4.058 -0.8042 -0.1329 -1.7668
 6818SOL    HW327005   3.920   3.745   3.992 -2.6582 -0.6398  0.7702
 6818SOL    MW427006   3.969   3.731   4.062 -0.3727  0.3532  0.0699
 6819SOL     OW27007   4.960   5.337   4.554  0.1216 -0.4776  0.1655
 6819SOL    HW227008   4.901   5.271   4.517 -0.0982  1.2416 -2.9272
 6819SOL    HW327009   5.047   5.309   4.528  0.1953 -0.4154  0.3414
 6819SOL    MW427010   4.963   5.325   4.546 -0.0361 -0.1630  0.0277
 6820SOL     OW27011   3.254   4.660   1.205 -0.4048  0.6331  0.2351
 6820SOL    HW227012   3.172   4.628   1.242 -0.2391 -0.2679 -0.1689
 6820SOL    HW327013   3.285   4.589   1.150  0.7136  0.9183  0.4774
 6820SOL    MW427014   3.247   4.647   1.203 -0.0032  0.4019 -0.1145
 6821SOL     OW27015   3.349   4.875   4.254 -0.0964 -0.4301  0.2525
 6821SOL    HW227016   3.413   4.865   4.183 -0.5960 -0.3545 -0.2235
 6821SOL    HW327017   3.344   4.969   4.269 -0.8492 -0.3441 -0.4399
 6821SOL    MW427018   3.357   4.886   4.246 -0.6867  0.0766  0.0798
 6822SOL     OW27019   4.706   1.162   3.550  0.4705 -0.2489  0.2570
 6822SOL    HW227020   4.705   1.073   3.514  0.4287  0.1748 -0.8388
 6822SOL    HW327021   4.798   1.189   3.544  0.5320 -0.3157  0.8520
 6822SOL    MW427022   4.718   1.154   3.544 -0.2357 -0.5229  0.3736
 6823SOL     OW27023   0.344   2.747   1.870  0.0502 -0.1355  0.2449
 6823SOL    HW227024   0.367   2.688   1.798  0.3913  0.5006 -0.1767
 6823SOL    HW327025   0.338   2.833   1.829  1.5905  0.4579  1.1926
 6823SOL    MW427026   0.346   2.750   1.855  0.7325  0.7632  0.0253
 6824SOL     OW27027   4.405   1.792   4.079 -0.7591  0.5034  0.1755
 6824SOL    HW227028   4.324   1.785   4.027 -1.0540 -1.5194  0.8205
 6824SOL    HW327029   4.375   1.786   4.170  0.0810 -0.0281  0.4238
 6824SOL    MW427030   4.390   1.790   4.084 -0.2148 -0.3518 -0.3948
 6825SOL     OW27031   6.321   1.921   0.745 -0.0600  0.1098  0.3561
 6825SOL    HW227032   6.343   1.915   0.838  0.5549  0.4736  0.2417
 6825SOL    HW327033   6.294   1.833   0.720 -0.4425  0.0594  0.9299
 6825SOL    MW427034   6.320   1.909   0.754  0.4767 -0.0564  0.2117
 6826SOL     OW27035   5.209   3.790   5.356  0.1164  0.4112  0.2879
 6826SOL    HW227036   5.172   3.876   5.373 -1.2505 -0.4562  2.0463
 6826SOL    HW327037   5.144   3.729   5.391  0.2030 -1.4358 -2.4433
 6826SOL    MW427038   5.196   3.793   5.363 -0.5926  0.4798  0.1240
 6827SOL     OW27039   1.115   4.062   2.844  0.3887 -0.1764  0.1720
 6827SOL    HW227040   1.089   4.122   2.914 -0.6139 -0.3969  0.0082
 6827SOL    HW327041   1.033   4.019   2.818  1.3441 -3.3415  1.8464
 6827SOL    MW427042   1.100   4.064   2.850  0.2076  0.1791  0.3518
 6828SOL     OW27043   5.180   0.089   3.676  0.6477  0.4916  0.2666
 6828SOL    HW227044   5.262   0.082   3.724  1.0074  2.5238  0.0034
 6828SOL    HW327045   5.160   0.182   3.675 -1.1213  0.1456 -0.6012
 6828SOL    MW427046   5.188   0.100   3.682  0.2637 -0.0877  0.3440
 6829SOL     OW27047   5.484   1.796   5.544 -0.4831  0.1625 -0.1218
 6829SOL    HW227048   5.580   1.788   5.544 -0.6199 -2.3613 -0.8183
 6829SOL    HW327049   5.458   1.764   5.458 -2.0141 -0.2661  0.4694
 6829SOL    MW427050   5.494   1.791   5.533 -0.2437 -0.6959 -0.0315
 6830SOL     OW27051   0.150   1.637   1.258 -0.2940 -0.2965  0.6062
 6830SOL    HW227052   0.197   1.720   1.247 -0.6767 -0.1824 -0.3552
 6830SOL    HW327053   0.213   1.578   1.299  0.0845  0.3862  1.0140
 6830SOL    MW427054   0.165   1.640   1.262  0.3063  0.1846 -0.3362
 6831SOL     OW27055   3.892   3.106   3.704 -0.0592  0.1994  0.1045
 6831SOL    HW227056   3.980   3.071   3.712 -0.1906  0.0024  0.7354
 6831SOL    HW327057   3.855   3.061   3.628  0.0413 -0.4581  0.4415
 6831SOL    MW427058   3.899   3.095   3.695 -0.3758 -0.5134 -0.5222
 6832SOL     OW27059   2.770   1.453   6.007  0.4236 -0.3833 -0.8002
 6832SOL    HW227060   2.848   1.499   5.976  1.0911 -1.5947 -0.9627
 6832SOL    HW327061   2.804   1.381   6.060 -0.6131 -0.5008 -0.2653
 6832SOL    MW427062   2.785   1.450   6.010 -0.7838 -0.3419  0.1141
 6833SOL     OW27063   5.754   2.089   2.527  0.5525  0.9476  0.5229
 6833SOL    HW227064   5.763   2.139   2.608 -0.6461  1.1920  0.5234
 6833SOL    HW327065   5.700   2.014   2.550  0.7456  0.6711  0.0954
 6833SOL    MW427066   5.748   2.086   2.541  0.1772 -0.1164 -0.2053
 6834SOL     OW27067   4.731   3.797   1.110 -0.1691  0.3382 -0.2038
 6834SOL    HW227068   4.694   3.885   1.126  0.2273  0.5655 -0.5266
 6834SOL    HW327069   4.821   3.803   1.141 -0.7860 -0.6466  1.9484
 6834SOL    MW427070   4.738   3.810   1.116  0.5998  0.1236 -0.1751
 6835SOL     OW27071   0.413   5.855   0.195 -0.1700 -0.2775 -0.0855
 6835SOL    HW227072   0.498   5.812   0.200  0.2147  0.4382 -0.3253
 6835SOL    HW327073   0.429   5.934   0.143 -1.1206 -0.4794 -0.7175
 6835SOL    MW427074   0.426   5.859   0.188 -0.6682 -0.3665  0.2837
 6836SOL     OW27075   2.884   1.851   1.119 -1.2057  0.0003 -0.7523
 6836SOL    HW227076   2.922   1.888   1.040  1.7944 -1.0324  0.0952
 6836SOL    HW327077   2.925   1.765   1.128 -0.6760  0.4583  2.3791
 6836SOL    MW427078   2.894   1.844   1.110  0.3613 -0.2468 -0.3699
 6837SOL     OW27079   3.281   5.081   1.680  0.5950 -0.5339  0.3727
 6837SOL    HW227080   3.220   5.155   1.673 -0.4104 -1.2720  1.0845
 6837SOL    HW327081   3.358   5.118   1.724  0.6922  0.4163 -0.5541
 6837SOL    MW427082   3.283   5.096   1.685  0.0104  0.2645 -0.1767
 6838SOL     OW27083   3.414   2.285   0.352  0.5039 -0.6739  0.3009
 6838SOL    HW227084   3.450   2.341   0.283 -1.9643  2.5314  1.3736
 6838SOL    HW327085   3.390   2.204   0.307  2.9615 -0.4291 -1.6435
 6838SOL    MW427086   3.416   2.282   0.337 -0.2111  0.3659  0.3014
 6839SOL     OW27087   0.699   1.879   1.958  0.1603 -0.1478  0.0237
 6839SOL    HW227088   0.680   1.921   1.874 -0.9888  0.3909  0.5338
 6839SOL    HW327089   0.686   1.786   1.943 -3.9763  0.1776  0.5202
 6839SOL    MW427090   0.695   1.873   1.945 -0.0736 -0.4456  0.3552
 6840SOL     OW27091   1.057   0.090   0.199 -0.1179 -0.0019 -0.1975
 6840SOL    HW227092   1.056   0.176   0.157  1.5347 -0.1204 -0.5653
 6840SOL    HW327093   1.014   0.104   0.284  1.4323  1.5853  0.4031
 6840SOL    MW427094   1.051   0.103   0.205  0.0695 -0.2038  0.4244
 6841SOL     OW27095   2.403   1.525   3.522  0.2423  0.3886  0.8702
 6841SOL    HW227096   2.399   1.487   3.434 -1.3500  0.0545  1.0560
 6841SOL    HW327097   2.381   1.617   3.510 -3.0312 -0.2192  1.1730
 6841SOL    MW427098   2.400   1.532   3.509  0.0738  0.5743  0.1235
 6842SOL     OW27099   3.823   1.694   0.276  0.2063  0.5816  0.2651
 6842SOL    HW227100   3.778   1.615   0.246 -0.8170  1.6784 -1.2428
 6842SOL    HW327101   3.876   1.721   0.201  0.0073  1.7062  0.5191
 6842SOL    MW427102   3.824   1.687   0.262  0.0252 -0.3115 -0.1796
 6843SOL     OW27103   5.058   6.108   0.983 -0.1852 -0.5755  0.2781
 6843SOL    HW227104   5.084   6.193   1.017  0.6357 -0.3191 -0.9305
 6843SOL    HW327105   5.086   6.045   1.050 -0.2594  0.0549  0.9038
 6843SOL    MW427106   5.065   6.111   0.996  0.0148  0.0368 -0.0443
 6844SOL     OW27107   0.131   1.169   2.693 -0.1023 -0.1644  0.9886
 6844SOL    HW227108   0.094   1.248   2.734 -2.5843 -1.4864  1.4793
 6844SOL    HW327109   0.155   1.113   2.767  0.6514 -0.3285  0.6305
 6844SOL    MW427110   0.129   1.172   2.709 -0.0222  0.0039 -0.0757
 6845SOL     OW27111   3.648   5.685   5.164  0.1575 -0.8569 -0.2055
 6845SOL    HW227112   3.624   5.763   5.114 -1.6733 -1.2070  0.0522
 6845SOL    HW327113   3.687   5.626   5.100  0.3548 -0.2384 -0.6577
 6845SOL    MW427114   3.650   5.688   5.149  0.2579  0.4085 -0.3989
 6846SOL     OW27115   2.989   4.571   5.445  0.4898  0.9635 -0.7137
 6846SOL    HW227116   2.956   4.603   5.528 -0.9240  0.1970 -0.9450
 6846SOL    HW327117   2.910   4.555   5.392  1.1435 -1.5699 -1.0695
 6846SOL    MW427118   2.974   4.573   5.449  0.4734  0.0885 -0.2298
 6847SOL     OW27119   4.653   6.185   2.678  0.6166  0.7492 -0.5165
 6847SOL    HW227120   4.573   6.237   2.672  0.5323  0.6938  0.0706
 6847SOL    HW327121   4.682   6.197   2.768  1.0979  0.5103 -0.6370
 6847SOL    MW427122   4.646   6.194   2.689  0.1547  0.8246  0.3709
 6848SOL     OW27123   2.233   2.385   4.480  0.1164  0.0660  0.4913
 6848SOL    HW227124   2.214   2.292   4.481 -1.8991  0.3056 -2.2134
 6848SOL    HW327125   2.147   2.426   4.467  0.9556  2.3128  1.5134
 6848SOL    MW427126   2.219   2.378   4.479  0.3509 -0.1224 -0.7784
 6849SOL     OW27127   1.881   3.406   3.355  0.4896  0.2214 -0.4700
 6849SOL    HW227128   1.913   3.475   3.413  1.4591  0.3454 -1.1322
 6849SOL    HW327129   1.938   3.410   3.278  0.7828 -1.5140 -0.3915
 6849SOL    MW427130   1.893   3.416   3.353  0.0401 -0.3259 -0.4160
 6850SOL     OW27131   5.823   3.336   4.061  0.2007 -0.3610  0.9951
 6850SOL    HW227132   5.748   3.386   4.029  0.6791 -0.4211 -0.2700
 6850SOL    HW327133   5.890   3.347   3.994  0.2898 -2.7840  0.6088
 6850SOL    MW427134   5.822   3.344   4.048 -0.5430 -0.1878  0.4807
 6851SOL     OW27135   2.652   4.610   0.276 -0.1434  0.3080 -0.3795
 6851SOL    HW227136   2.687   4.596   0.364 -1.5634 -0.8039  0.0446
 6851SOL    HW327137   2.570   4.657   0.289 -0.3693  0.1376 -1.0983
 6851SOL    MW427138   2.646   4.614   0.289 -0.3938  0.2216  0.0004
 6852SOL     OW27139   1.152   1.067   0.210  0.5402 -0.2694  0.0490
 6852SOL    HW227140   1.104   1.116   0.277  3.8529  1.5626  1.3333
 6852SOL    HW327141   1.132   1.113   0.128 -0.8716 -0.4052  0.2893
 6852SOL    MW427142   1.143   1.080   0.208 -0.1682 -0.2622 -0.2187
 6853SOL     OW27143   5.804   4.182   0.120 -0.4227  0.0892  0.2802
 6853SOL    HW227144   5.861   4.259   0.115  0.4906 -0.3647  2.6896
 6853SOL    HW327145   5.719   4.217   0.145 -0.5853  0.5177 -0.8335
 6853SOL    MW427146   5.801   4.197   0.122 -0.8900  0.1852 -0.4190
 6854SOL     OW27147   3.750   4.751   5.333  0.3321  0.3726  0.1226
 6854SOL    HW227148   3.806   4.829   5.340 -2.6915  2.5220  3.7533
 6854SOL    HW327149   3.745   4.717   5.422 -3.8672  0.2760  0.0516
 6854SOL    MW427150   3.757   4.757   5.345  0.5710  0.3450  0.1315
 6855SOL     OW27151   4.118   3.280   3.188 -0.3870 -0.3741  0.8152
 6855SOL    HW227152   4.110   3.372   3.163  0.7195 -0.1775  1.1191
 6855SOL    HW327153   4.137   3.234   3.106 -0.4430 -0.2635  0.7396
 6855SOL    MW427154   4.119   3.286   3.174  0.0338 -0.1845 -0.0676
 6856SOL     OW27155   2.071   6.123   2.400  0.0273  0.2819 -0.2093
 6856SOL    HW227156   2.015   6.200   2.411  0.4187  0.6121 -0.4883
 6856SOL    HW327157   2.112   6.135   2.314 -0.0069 -0.3026 -0.3063
 6856SOL    MW427158   2.069   6.135   2.390 -0.8229  0.0961  0.6355
 6857SOL     OW27159   1.750   5.967   5.886  0.0462  0.4434  0.3839
 6857SOL    HW227160   1.823   6.016   5.924 -1.2446  1.9453  1.0788
 6857SOL    HW327161   1.712   6.028   5.822 -0.8406 -0.1437  0.3373
 6857SOL    MW427162   1.755   5.982   5.883  0.0572  0.1090 -0.4102
 6858SOL     OW27163   4.004   1.727   5.321  0.7143 -0.2524  0.4650
 6858SOL    HW227164   4.078   1.747   5.263  0.2578  0.6562  0.1875
 6858SOL    HW327165   4.026   1.642   5.359  2.2660  0.3533  0.9750
 6858SOL    MW427166   4.017   1.718   5.318 -0.3390 -0.1257  0.4204
 6859SOL     OW27167   5.522   4.286   4.047 -0.2624 -0.4604 -0.6007
 6859SOL    HW227168   5.489   4.344   3.979  1.0319  0.8071 -0.2076
 6859SOL    HW327169   5.509   4.335   4.128  3.6297  0.7519 -0.5209
 6859SOL    MW427170   5.516   4.300   4.049  0.2102  0.2691  0.2227
 6860SOL     OW27171   2.725   5.702   1.314 -0.7624 -0.0972  0.0659
 6860SOL    HW227172   2.643   5.673   1.352 -0.1285 -0.6639  1.0553
 6860SOL    HW327173   2.768   5.621   1.284 -0.6830  0.2164 -0.7127
 6860SOL    MW427174   2.720   5.687   1.315 -0.3898  0.0371  0.6801
 6861SOL     OW27175   2.972   0.803   4.101 -0.2879 -0.1852 -0.3449
 6861SOL    HW227176   2.881   0.785   4.079  0.1045 -0.7615 -1.5425
 6861SOL    HW327177   3.011   0.717   4.116  0.1153  0.0449 -0.0602
 6861SOL    MW427178   2.965   0.790   4.100  0.0970 -0.7104  0.0829
 6862SOL     OW27179   2.447   5.869   2.597  0.1472  0.0023 -0.6597
 6862SOL    HW227180   2.471   5.954   2.634  1.0414 -0.2315 -0.6678
 6862SOL    HW327181   2.466   5.806   2.667 -0.1369 -0.2337 -0.7913
 6862SOL    MW427182   2.453   5.872   2.611  0.4769  0.1220 -0.1959
 6863SOL     OW27183   3.430   3.174   1.945 -0.0928  0.0940  0.4487
 6863SOL    HW227184   3.438   3.083   1.918  0.0068  0.5073 -0.9715
 6863SOL    HW327185   3.516   3.212   1.931 -0.7030  0.9763 -1.2812
 6863SOL    MW427186   3.442   3.167   1.940  0.5748  0.1434  0.1402
 6864SOL     OW27187   5.644   0.934   3.287 -0.1516 -1.2752  0.3962
 6864SOL    HW227188   5.603   0.943   3.374 -2.3192 -0.5448 -0.6292
 6864SOL    HW327189   5.572   0.911   3.229  0.6391  1.2022 -1.7445
 6864SOL    MW427190   5.629   0.932   3.291 -0.3594 -0.0939  0.3390
 6865SOL     OW27191   6.367   2.536   2.767 -0.1205  0.3509 -0.0461
 6865SOL    HW227192   6.285   2.541   2.816  0.4718  1.2570  0.9025
 6865SOL    HW327193   6.377   2.623   2.728  0.3482  0.2176 -0.2320
 6865SOL    MW427194   6.357   2.549   2.768 -0.1130  0.1578 -0.1485
 6866SOL     OW27195   4.486   0.863   5.352  0.1753  0.5301  0.2252
 6866SOL    HW227196   4.506   0.813   5.431 -1.3188  0.2057  0.4180
 6866SOL    HW327197   4.572   0.890   5.319  0.8343  0.7452  1.9968
 6866SOL    MW427198   4.500   0.860   5.358 -0.7601  0.0212 -0.1197
 6867SOL     OW27199   4.137   4.439   1.268  0.6314 -0.4799  0.4042
 6867SOL    HW227200   4.055   4.392   1.286  1.2293 -1.6917  0.0506
 6867SOL    HW327201   4.201   4.370   1.252  1.2282  0.4491 -1.4865
 6867SOL    MW427202   4.134   4.424   1.268  0.0929 -0.4789  0.4579
 6868SOL     OW27203   2.651   1.083   2.968  0.0360  0.3904  0.3165
 6868SOL    HW227204   2.677   1.065   3.058 -0.1231 -1.4660  0.0418
 6868SOL    HW327205   2.632   0.996   2.931  0.8125  1.0370 -1.7210
 6868SOL    MW427206   2.652   1.069   2.975 -0.1187  0.2007  0.2505
 6869SOL     OW27207   4.747   4.567   4.719 -0.3933  0.1568  0.2779
 6869SOL    HW227208   4.735   4.636   4.784 -0.1810 -0.5256  1.0551
 6869SOL    HW327209   4.752   4.486   4.770 -1.3102 -0.5183 -0.6582
 6869SOL    MW427210   4.746   4.566   4.734 -0.1258 -0.3212 -0.5536
 6870SOL     OW27211   5.873   3.085   0.556 -0.8743 -0.5816  0.1016
 6870SOL    HW227212   5.780   3.062   0.551 -0.9025 -0.2138 -2.1036
 6870SOL    HW327213   5.884   3.153   0.489  1.0982 -1.0559 -0.1080
 6870SOL    MW427214   5.862   3.091   0.546  0.0094 -0.6427  0.3549
 6871SOL     OW27215   4.748   1.364   3.932 -0.5226 -0.2254 -1.2211
 6871SOL    HW227216   4.703   1.434   3.979  0.8001  0.5458 -1.0373
 6871SOL    HW327217   4.716   1.370   3.842 -1.2697 -0.1263 -0.9489
 6871SOL    MW427218   4.738   1.374   3.927 -0.3139  0.4616 -0.1665
 6872SOL     OW27219   5.739   3.725   0.883  0.0508  0.3555  0.0636
 6872SOL    HW227220   5.666   3.677   0.844 -0.2794  0.8049  0.1245
 6872SOL    HW327221   5.798   3.743   0.810 -0.0173  0.2122 -0.0278
 6872SOL    MW427222   5.737   3.721   0.868  0.4825  0.0695  0.3027
 6873SOL     OW27223   0.893   0.115   5.494  1.0050  0.5703  0.3265
 6873SOL    HW227224   0.861   0.149   5.410  0.6719  0.9784  0.6219
 6873SOL    HW327225   0.837   0.039   5.512  0.9468  0.6038  0.2844
 6873SOL    MW427226   0.882   0.109   5.485 -0.2976 -0.2828  0.3163
 6874SOL     OW27227   2.654   4.155   1.439 -0.1296  0.5997 -0.1324
 6874SOL    HW227228   2.696   4.069   1.434 -0.4566  0.1565  2.8707
 6874SOL    HW327229   2.582   4.150   1.376 -0.6193 -1.6713  0.5018
 6874SOL    MW427230   2.650   4.143   1.430  0.3269  0.0106 -0.0013
 6875SOL     OW27231   4.952   3.804   3.995 -0.1301 -0.7850 -0.2024
 6875SOL    HW227232   5.037   3.807   3.952 -0.2397  0.8697 -0.3677
 6875SOL    HW327233   4.932   3.711   4.002  1.4360 -1.1864 -0.6469
 6875SOL    MW427234   4.961   3.792   3.991 -0.0172  0.0937 -0.2095
 6876SOL     OW27235   5.648   3.907   0.373  0.3770  0.5302  0.2951
 6876SOL    HW227236   5.644   3.919   0.278 -1.6466  1.9740  0.4825
 6876SOL    HW327237   5.669   3.815   0.385 -0.9447 -0.0876 -1.5999
 6876SOL    MW427238   5.650   3.897   0.362 -0.2522  0.3278  0.7794
 6877SOL     OW27239   3.424   1.543   0.951 -0.3581 -0.0441  0.0153
 6877SOL    HW227240   3.388   1.507   1.033 -0.2627 -1.6630 -0.6239
 6877SOL    HW327241   3.357   1.523   0.885  0.1457  0.0897 -0.5396
 6877SOL    MW427242   3.410   1.536   0.953  0.4230 -0.4314 -0.5012
 6878SOL     OW27243   4.436   3.268   4.922 -0.3404  0.6804 -0.4191
 6878SOL    HW227244   4.374   3.297   4.989 -0.5973  0.3412 -0.5105
 6878SOL    HW327245   4.385   3.262   4.842  0.0417  1.4073 -0.7220
 6878SOL    MW427246   4.421   3.271   4.920 -0.0281  0.2072  1.0660
 6879SOL     OW27247   4.622   4.853   2.363  0.1588 -0.1174 -0.0823
 6879SOL    HW227248   4.577   4.936   2.378 -0.1643 -0.2295 -0.4209
 6879SOL    HW327249   4.706   4.879   2.325 -0.2793  0.0183 -0.9684
 6879SOL    MW427250   4.627   4.868   2.360  0.0227  0.1350 -0.0437
 6880SOL     OW27251   4.155   3.230   5.659 -0.2705 -0.0716 -0.5539
 6880SOL    HW227252   4.206   3.151   5.676 -1.0511 -0.3744  0.5419
 6880SOL    HW327253   4.220   3.300   5.658  0.4825 -0.7434 -1.9343
 6880SOL    MW427254   4.170   3.229   5.661  0.2255  0.3360  0.3427
 6881SOL     OW27255   3.788   3.950   2.372 -0.4451 -0.4256 -0.5165
 6881SOL    HW227256   3.719   4.014   2.390 -0.8952 -1.2276  0.7918
 6881SOL    HW327257   3.742   3.871   2.347 -0.0164 -0.9347  0.2436
 6881SOL    MW427258   3.773   3.948   2.371 -0.6478 -0.4568 -0.4671
 6882SOL     OW27259   5.240   2.187   2.689  0.2144  0.4133  0.8440
 6882SOL    HW227260   5.219   2.137   2.769  0.0823  0.4804  0.8522
 6882SOL    HW327261   5.291   2.126   2.636 -1.5370 -0.4084  0.0225
 6882SOL    MW427262   5.244   2.172   2.693  0.1430  0.0883 -0.0370
 6883SOL     OW27263   3.797   2.243   1.171  0.2126 -0.0056  0.0909
 6883SOL    HW227264   3.750   2.179   1.225  0.8292 -0.4278  0.1344
 6883SOL    HW327265   3.827   2.309   1.233 -0.3260  0.2679  0.0622
 6883SOL    MW427266   3.795   2.243   1.186 -0.7655  0.0067 -0.6463
 6884SOL     OW27267   3.776   1.402   0.838 -0.1935 -0.0234  0.0422
 6884SOL    HW227268   3.811   1.468   0.779 -0.9320 -0.4170 -0.8704
 6884SOL    HW327269   3.806   1.318   0.802 -1.0132 -0.2935 -0.0498
 6884SOL    MW427270   3.784   1.399   0.826  0.3677 -0.2943 -0.4017
 6885SOL     OW27271   0.121   0.970   2.876 -0.2958 -0.0338  0.2861
 6885SOL    HW227272   0.080   1.003   2.956  1.4847  1.3790  0.6914
 6885SOL    HW327273   0.195   0.917   2.907 -0.7448 -1.0916 -0.4178
 6885SOL    MW427274   0.126   0.967   2.891 -0.0085 -0.4060 -0.1657
 6886SOL     OW27275   3.034   0.669   1.040 -0.0628  0.4320 -0.1181
 6886SOL    HW227276   2.955   0.637   1.086 -0.8457  1.4591 -0.7065
 6886SOL    HW327277   3.063   0.743   1.093  0.6705 -0.1057  0.2386
 6886SOL    MW427278   3.027   0.675   1.053  0.0106  0.1290 -0.6824
 6887SOL     OW27279   2.626   1.673   2.762 -0.4411  0.3225  0.1220
 6887SOL    HW227280   2.610   1.721   2.844  3.2597  0.4917  0.9150
 6887SOL    HW327281   2.702   1.717   2.723 -1.1450 -0.7387 -2.6641
 6887SOL    MW427282   2.634   1.685   2.768 -0.0101  0.4568 -0.1928
 6888SOL     OW27283   1.532   6.418   0.879 -0.3288  0.2111 -0.2770
 6888SOL    HW227284   1.565   6.508   0.877 -1.7430  0.7471 -1.0633
 6888SOL    HW327285   1.487   6.410   0.963 -1.3488  0.6914 -0.7643
 6888SOL    MW427286   1.531   6.429   0.890  0.0004 -0.9547 -0.0518
 6889SOL     OW27287   1.389   2.140   0.894 -0.1271 -1.1027 -0.0161
 6889SOL    HW227288   1.405   2.059   0.942  2.1371 -0.8823 -0.2896
 6889SOL    HW327289   1.374   2.206   0.962  0.2751 -1.3316  0.2994
 6889SOL    MW427290   1.389   2.138   0.909 -0.2559  0.5006  0.7876
 6890SOL     OW27291   5.349   4.180   4.760  0.0208  0.0172  0.7586
 6890SOL    HW227292   5.416   4.179   4.829 -0.1529  2.2519  1.0210
 6890SOL    HW327293   5.305   4.264   4.771  0.4902  0.8053 -2.5723
 6890SOL    MW427294   5.352   4.191   4.771  0.3031  0.1421 -0.4110
 6891SOL     OW27295   2.173   4.293   1.133 -0.6288  0.5214  0.2698
 6891SOL    HW227296   2.109   4.364   1.141 -2.3550 -1.1475  3.0431
 6891SOL    HW327297   2.120   4.214   1.118  1.2099 -0.3553 -2.6044
 6891SOL    MW427298   2.157   4.292   1.132 -0.3962 -0.1290 -0.3227
 6892SOL     OW27299   1.380   0.815   0.991  0.4087  0.0973  0.3643
 6892SOL    HW227300   1.287   0.796   0.975  0.3371 -0.3499  1.2436
 6892SOL    HW327301   1.423   0.796   0.908 -0.5414  2.2537 -0.7202
 6892SOL    MW427302   1.373   0.810   0.978  0.4339 -0.3986  0.0595
 6893SOL     OW27303   5.967   2.489   0.802  0.1806 -0.4217  0.2107
 6893SOL    HW227304   6.057   2.498   0.834  1.0402 -0.1192 -2.1356
 6893SOL    HW327305   5.965   2.403   0.761 -0.1255  0.2085 -1.1218
 6893SOL    MW427306   5.979   2.479   0.801 -0.3311  0.7499  0.1581
 6894SOL     OW27307   5.144   0.362   0.723  0.0658  0.0385 -0.3318
 6894SOL    HW227308   5.190   0.305   0.783  0.3027  0.6501  0.0804
 6894SOL    HW327309   5.212   0.415   0.682 -0.1494  0.0383 -0.6985
 6894SOL    MW427310   5.159   0.362   0.726  0.3756 -0.2437 -0.0680
 6895SOL     OW27311   4.007   3.525   1.753 -0.1006  0.4951  0.4281
 6895SOL    HW227312   3.972   3.436   1.760  0.9473 -0.2608 -2.2983
 6895SOL    HW327313   4.081   3.527   1.813  1.9427 -1.7106 -1.7897
 6895SOL    MW427314   4.012   3.513   1.762  0.5802 -0.0150  0.0389
 6896SOL     OW27315   2.646   3.186   0.400 -0.2640 -0.0972  0.0125
 6896SOL    HW227316   2.581   3.148   0.341 -0.2282 -0.6874  0.3428
 6896SOL    HW327317   2.597   3.248   0.453 -0.0157  1.6506 -1.6770
 6896SOL    MW427318   2.631   3.189   0.399 -0.0742  0.2321  0.4294
 6897SOL     OW27319   4.014   1.002   3.694 -0.1794 -0.2388  0.4573
 6897SOL    HW227320   4.063   1.017   3.775  1.5249 -0.6380 -0.4549
 6897SOL    HW327321   3.992   1.090   3.663 -2.7124 -0.0934  2.3641
 6897SOL    MW427322   4.018   1.016   3.700 -0.2485 -0.0482 -0.0545
 6898SOL     OW27323   2.283   1.170   0.026  0.1685 -0.1542  0.1955
 6898SOL    HW227324   2.210   1.116  -0.005  0.8038 -0.1807 -1.3285
 6898SOL    HW327325   2.343   1.174  -0.048  2.8074 -1.9470  2.0399
 6898SOL    MW427326   2.281   1.163   0.012 -0.1417  0.0275 -0.2237
 6899SOL     OW27327   3.286   0.082   4.470 -0.3244 -0.9157 -0.1699
 6899SOL    HW227328   3.226   0.132   4.525 -1.2385 -0.5876 -1.3959
 6899SOL    HW327329   3.373   0.116   4.492 -0.6781 -0.6874  0.9294
 6899SOL    MW427330   3.290   0.093   4.480  0.9599  0.0637  0.4687
 6900SOL     OW27331   2.134   5.217   5.055  0.3101  0.2253 -0.3073
 6900SOL    HW227332   2.077   5.276   5.005 -0.0828 -0.3406 -0.5284
 6900SOL    HW327333   2.130   5.250   5.145 -0.0930  0.3908 -0.3856
 6900SOL    MW427334   2.126   5.229   5.060 -0.1939 -0.0509  0.4168
 6901SOL     OW27335   6.181   0.670   0.826  0.3953 -0.1919  0.5332
 6901SOL    HW227336   6.199   0.718   0.907  1.3428 -0.3104  0.4113
 6901SOL    HW327337   6.087   0.651   0.829  0.3089  0.3260  1.3145
 6901SOL    MW427338   6.171   0.674   0.837 -0.3804 -0.4069  0.8960
 6902SOL     OW27339   2.992   5.783   2.164  0.5780  0.0776  0.1874
 6902SOL    HW227340   2.920   5.846   2.165  0.9211  0.4770  0.0399
 6902SOL    HW327341   2.967   5.718   2.229  1.3969  1.7375  2.3029
 6902SOL    MW427342   2.979   5.783   2.173  0.3191  0.2941 -0.3893
 6903SOL     OW27343   1.651   6.190   6.184 -0.0645 -0.3497  0.2348
 6903SOL    HW227344   1.701   6.266   6.155 -0.2981  0.6640  2.3336
 6903SOL    HW327345   1.572   6.192   6.130 -0.1070  0.9550  0.3102
 6903SOL    MW427346   1.647   6.200   6.173  0.0252 -0.3695  0.1538
 6904SOL     OW27347   4.209   3.980   4.464  0.1180  0.0400  0.4171
 6904SOL    HW227348   4.132   3.941   4.422  0.0259 -1.3523  1.7730
 6904SOL    HW327349   4.192   4.074   4.463 -1.8616 -0.2638  1.1262
 6904SOL    MW427350   4.196   3.987   4.458 -0.0129  0.3569  0.2176
 6905SOL     OW27351   1.954   1.513   5.768  0.2659  0.0080  0.3901
 6905SOL    HW227352   1.882   1.524   5.830  0.2741  0.9272  0.2561
 6905SOL    HW327353   2.022   1.572   5.801  0.2125  0.6202 -0.5565
 6905SOL    MW427354   1.953   1.522   5.781  0.2570  0.7032  0.2570
 6906SOL     OW27355   4.548   1.854   0.747 -0.4155  0.0390  0.0955
 6906SOL    HW227356   4.588   1.907   0.679  1.1811  1.4464  2.0170
 6906SOL    HW327357   4.595   1.771   0.744  2.1723  1.2984  1.6298
 6906SOL    MW427358   4.559   1.850   0.737  0.0158  0.0477  0.4325
 6907SOL     OW27359   6.373   5.901   4.555  0.2506 -0.2775 -0.1004
 6907SOL    HW227360   6.378   5.805   4.553 -0.0850 -0.3017 -2.4509
 6907SOL    HW327361   6.306   5.920   4.620 -2.1120 -1.8396 -1.8751
 6907SOL    MW427362   6.365   5.890   4.563 -0.3105 -0.2732 -0.4423
 6908SOL     OW27363   1.797   4.745   1.525  0.8681  0.2180 -0.2147
 6908SOL    HW227364   1.813   4.651   1.523 -0.5305 -0.0517  0.0936
 6908SOL    HW327365   1.707   4.754   1.556 -0.4053  1.4667 -3.6623
 6908SOL    MW427366   1.787   4.734   1.529 -0.1265  0.0072  0.2100
 6909SOL     OW27367   2.560   2.017   4.602 -0.2937  0.4105  0.4788
 6909SOL    HW227368   2.614   1.993   4.527 -1.2961 -1.9380  0.4267
 6909SOL    HW327369   2.568   2.113   4.608  0.2290  0.6158 -2.2878
 6909SOL    MW427370   2.568   2.027   4.593  0.3705  0.0323 -0.6228
 6910SOL     OW27371   1.585   5.055   2.889  0.5138 -0.0810  0.1885
 6910SOL    HW227372   1.565   5.061   2.982 -1.0557 -0.5399 -0.0880
 6910SOL    HW327373   1.555   5.138   2.852 -1.9790 -1.1710 -0.3925
 6910SOL    MW427374   1.579   5.067   2.896  0.0221 -0.5296  0.3998
 6911SOL     OW27375   2.269   0.004   5.557 -0.3238 -0.2982  0.3029
 6911SOL    HW227376   2.186  -0.041   5.570 -1.1467  0.9979 -0.2897
 6911SOL    HW327377   2.286  -0.005   5.463  0.0275 -0.2323  0.3584
 6911SOL    MW427378   2.260  -0.003   5.546 -0.5879  0.0604  0.3362
 6912SOL     OW27379   1.956   2.163   2.000 -0.4524  0.1095 -0.2205
 6912SOL    HW227380   1.974   2.095   2.065  0.4132  1.0257  0.5178
 6912SOL    HW327381   1.971   2.119   1.916  0.1995 -0.5811  0.2415
 6912SOL    MW427382   1.960   2.148   1.997 -0.4571 -0.8175 -0.7062
 6913SOL     OW27383   4.989   4.924   2.428  0.4138  0.1331  0.3803
 6913SOL    HW227384   4.996   4.831   2.408  2.4039 -0.1355  1.9878
 6913SOL    HW327385   5.074   4.960   2.404  0.3119  1.1641  1.4706
 6913SOL    MW427386   5.001   4.916   2.422 -0.9212 -0.4098  0.4376
 6914SOL     OW27387   2.925   0.025   5.709 -0.4543 -0.1121  1.0029
 6914SOL    HW227388   2.945   0.108   5.666  1.0559 -0.5441  0.8253
 6914SOL    HW327389   2.960  -0.042   5.651 -3.4191 -1.0570  0.1154
 6914SOL    MW427390   2.932   0.027   5.696 -0.1283 -0.1957  0.3630
 6915SOL     OW27391   0.180   3.739   3.398 -0.3768 -0.0897 -0.0518
 6915SOL    HW227392   0.263   3.782   3.419  0.0605 -0.8826 -0.1284
 6915SOL    HW327393   0.186   3.653   3.441 -2.1672  0.7387  2.0254
 6915SOL    MW427394   0.192   3.733   3.407 -0.3953  0.6348  0.5955
 6916SOL     OW27395   0.244   6.176   0.794 -0.5270 -0.1466  0.2868
 6916SOL    HW227396   0.224   6.102   0.736  1.6804 -0.0214 -0.7219
 6916SOL    HW327397   0.198   6.156   0.876 -1.9743 -1.3876 -0.7844
 6916SOL    MW427398   0.235   6.164   0.797 -0.0672  0.1889 -0.1925
 6917SOL     OW27399   3.458   0.610   3.697 -0.1737 -0.4934  0.1090
 6917SOL    HW227400   3.549   0.592   3.724 -0.5386 -0.4837  1.3915
 6917SOL    HW327401   3.436   0.691   3.741 -0.6763 -0.2665 -0.5492
 6917SOL    MW427402   3.467   0.618   3.706 -0.2033 -0.5141 -0.8357
 6918SOL     OW27403   3.769   0.666   5.861  0.4962  0.1425  0.2472
 6918SOL    HW227404   3.815   0.696   5.782 -0.5877  2.0463  0.2694
 6918SOL    HW327405   3.730   0.746   5.898 -1.3402 -1.1046  1.1850
 6918SOL    MW427406   3.770   0.681   5.855 -0.2751  0.2388  0.3981
 6919SOL     OW27407   0.302   2.194   0.378 -0.9358 -0.0907 -0.8356
 6919SOL    HW227408   0.383   2.151   0.354 -0.1824  0.5517  0.4140
 6919SOL    HW327409   0.233   2.134   0.351  0.0088 -1.2475 -0.7385
 6919SOL    MW427410   0.304   2.181   0.371  0.4102  0.0500  0.1047
 6920SOL     OW27411   3.255   1.419   0.005 -0.3192  0.0997 -0.4578
 6920SOL    HW227412   3.343   1.454  -0.004 -0.1891 -0.3545 -1.0046
 6920SOL    HW327413   3.243   1.405   0.099  0.1933  0.1474 -0.3856
 6920SOL    MW427414   3.265   1.422   0.016  0.2877 -0.1546  0.1626
 6921SOL     OW27415   0.154   2.934   2.946  0.1748 -0.0351 -0.0406
 6921SOL    HW227416   0.067   2.896   2.952  0.5629 -0.8701  0.5409
 6921SOL    HW327417   0.197   2.886   2.876  0.3911 -0.0910  0.1295
 6921SOL    MW427418   0.148   2.923   2.938 -0.8410  0.5529 -0.3475
 6922SOL     OW27419   5.852   3.943   2.064 -0.0801  0.2821 -0.3571
 6922SOL    HW227420   5.761   3.954   2.034  0.4166  0.7034 -1.7886
 6922SOL    HW327421   5.861   3.848   2.076 -0.0416 -0.0336 -2.5496
 6922SOL    MW427422   5.841   3.932   2.062 -0.3402 -0.2352  0.3415
 6923SOL     OW27423   0.338   2.339   2.440  0.1884  0.4291  0.2897
 6923SOL    HW227424   0.275   2.406   2.416  2.5696  2.5315 -0.6080
 6923SOL    HW327425   0.343   2.282   2.363  1.9548  2.4587 -1.2342
 6923SOL    MW427426   0.331   2.340   2.426 -0.1225  0.5433 -0.5699
 6924SOL     OW27427   3.266   5.328   5.114 -0.4007  0.1914  0.3882
 6924SOL    HW227428   3.264   5.378   5.033  1.4773  0.7990  0.6584
 6924SOL    HW327429   3.299   5.242   5.088 -0.1339  0.2730  0.4562
 6924SOL    MW427430   3.270   5.323   5.100 -0.1868  0.4563 -0.3234
 6925SOL     OW27431   4.457   4.633   3.139 -0.9659 -0.5509  0.0847
 6925SOL    HW227432   4.524   4.629   3.207  0.6161 -2.1386 -1.4406
 6925SOL    HW327433   4.504   4.614   3.058 -2.8951  0.5460 -1.3891
 6925SOL    MW427434   4.472   4.630   3.137  0.1233 -0.2950 -0.2667
 6926SOL     OW27435   2.720   0.603   2.617 -0.4174 -0.0970 -0.2145
 6926SOL    HW227436   2.742   0.594   2.710  1.5924  2.2913 -0.3744
 6926SOL    HW327437   2.802   0.588   2.571 -1.1785 -0.2803 -1.5800
 6926SOL    MW427438   2.734   0.600   2.624  0.3341  0.2677  0.1033
 6927SOL     OW27439   0.917   4.034   5.997  0.8813 -0.7022 -0.4893
 6927SOL    HW227440   0.858   4.091   6.047  1.2447  0.2741 -1.1374
 6927SOL    HW327441   0.867   3.954   5.984  0.0051 -0.2035 -0.3190
 6927SOL    MW427442   0.903   4.031   6.002  0.4247 -0.1761 -0.2785
 6928SOL     OW27443   0.644   4.878   4.628  0.3637 -0.2090  0.2898
 6928SOL    HW227444   0.639   4.890   4.533  1.2441 -0.7081  0.1681
 6928SOL    HW327445   0.609   4.959   4.664 -2.2591 -0.9224 -0.4118
 6928SOL    MW427446   0.639   4.890   4.620  0.1150 -0.0178 -0.1825
 6929SOL     OW27447   5.164   6.362   2.950  0.7364  0.2890  0.4957
 6929SOL    HW227448   5.225   6.339   2.880  0.0886  2.0421 -0.6990
 6929SOL    HW327449   5.166   6.458   2.953 -2.9713  0.5180 -0.5506
 6929SOL    MW427450   5.173   6.372   2.941  0.6047  0.1228 -0.4431
 6930SOL     OW27451   0.320   2.682   0.467  0.1418  0.1802  0.2348
 6930SOL    HW227452   0.242   2.686   0.411 -0.0752  1.7620  0.6028
 6930SOL    HW327453   0.287   2.698   0.555  0.3018 -3.4532  1.1161
 6930SOL    MW427454   0.305   2.685   0.471  0.0482  0.2966  0.7049
 6931SOL     OW27455   0.815   6.289   2.076 -0.0901 -0.1097  0.4616
 6931SOL    HW227456   0.728   6.318   2.047  0.5769  0.7992 -0.7311
 6931SOL    HW327457   0.870   6.299   1.998  0.9595 -1.2477  1.0333
 6931SOL    MW427458   0.811   6.294   2.062  0.6781  0.4211 -0.8078
 6932SOL     OW27459   5.042   4.362   5.454  0.1421 -0.1070 -0.0637
 6932SOL    HW227460   5.138   4.368   5.452  0.0679  0.9933 -0.6928
 6932SOL    HW327461   5.012   4.453   5.453 -0.9095 -0.4228  0.7702
 6932SOL    MW427462   5.051   4.375   5.454  0.6273  0.4048 -0.0428
 6933SOL     OW27463   2.895   2.897   4.843  0.1926 -0.0502 -0.2795
 6933SOL    HW227464   2.823   2.866   4.788  0.3774 -0.0870 -0.5005
 6933SOL    HW327465   2.948   2.820   4.860 -0.3762 -0.2374  0.7458
 6933SOL    MW427466   2.892   2.883   4.838 -0.0109 -0.9848 -0.9265
 6934SOL     OW27467   0.861   2.791   5.917  0.6373 -1.1521  0.2027
 6934SOL    HW227468   0.890   2.835   5.837 -1.3101  0.2545  0.2031
 6934SOL    HW327469   0.766   2.781   5.906  0.3349 -1.0512  2.2744
 6934SOL    MW427470   0.852   2.795   5.905  0.0145  0.0882 -0.2955
 6935SOL     OW27471   4.468   1.660   4.865 -0.2967  0.0511  0.0847
 6935SOL    HW227472   4.393   1.712   4.894  0.8726  2.1152 -0.3696
 6935SOL    HW327473   4.475   1.678   4.772 -0.9731 -2.5067 -0.5397
 6935SOL    MW427474   4.459   1.669   4.857  0.5748  0.1429  0.1989
 6936SOL     OW27475   2.980   3.001   5.458  0.1679  0.5911  0.0324
 6936SOL    HW227476   2.930   3.015   5.538 -0.5034 -0.4056 -0.1876
 6936SOL    HW327477   3.007   3.088   5.431  0.5290  0.9399  1.4146
 6936SOL    MW427478   2.977   3.014   5.465  0.5375 -0.0234  0.3716
 6937SOL     OW27479   1.819   0.624   6.322 -0.7738 -0.2121  0.2386
 6937SOL    HW227480   1.910   0.617   6.295 -0.4309 -1.0058  1.5431
 6937SOL    HW327481   1.769   0.614   6.241  0.2319 -1.6365 -0.2375
 6937SOL    MW427482   1.824   0.622   6.308  0.6580  0.1884  0.0934
 6938SOL     OW27483   3.359   0.149   5.639 -0.6610 -0.2185 -0.0887
 6938SOL    HW227484   3.291   0.186   5.583  1.0535  0.2108 -2.0084
 6938SOL    HW327485   3.351   0.196   5.722 -0.3532  2.5315 -1.5100
 6938SOL    MW427486   3.349   0.160   5.643  0.0030 -0.4720  0.3569
 6939SOL     OW27487   5.299   3.919   1.716 -0.5253 -0.0592 -0.0568
 6939SOL    HW227488   5.333   3.867   1.789 -2.3909 -1.2315  0.0319
 6939SOL    HW327489   5.376   3.940   1.664  0.3038 -3.3563 -0.3669
 6939SOL    MW427490   5.314   3.915   1.719  0.0881 -0.2732 -0.1780
 6940SOL     OW27491   2.701   0.835   4.734  0.5277 -0.0668 -0.0287
 6940SOL    HW227492   2.711   0.819   4.640 -0.2077 -0.2530 -0.0784
 6940SOL    HW327493   2.640   0.767   4.763 -1.6112  1.7792  0.0183
 6940SOL    MW427494   2.695   0.824   4.725  0.1188 -0.2098  0.3720
 6941SOL     OW27495   4.272   5.662   3.820 -0.1385 -0.3694 -0.9501
 6941SOL    HW227496   4.260   5.597   3.750 -0.8479 -1.8010  0.4292
 6941SOL    HW327497   4.184   5.690   3.843 -0.1481 -1.8064  1.0152
 6941SOL    MW427498   4.259   5.657   3.813  0.8263 -0.1378 -0.5685
 6942SOL     OW27499   4.498   5.476   5.280  0.1749 -0.2562  0.3768
 6942SOL    HW227500   4.406   5.501   5.272  0.8234  1.7643 -2.3113
 6942SOL    HW327501   4.529   5.523   5.357 -0.3815  1.5724 -0.4609
 6942SOL    MW427502   4.490   5.485   5.289 -0.3045  0.0760 -0.8425
 6943SOL     OW27503   3.684   5.138   2.682 -0.2379  0.0779 -0.6616
 6943SOL    HW227504   3.601   5.103   2.713  0.3952 -0.3928  0.5662
 6943SOL    HW327505   3.723   5.067   2.630 -0.7205  0.4076 -1.4958
 6943SOL    MW427506   3.678   5.124   2.679 -0.1968 -0.1753  0.0679
 6944SOL     OW27507   3.613   5.878   1.085  0.4076 -0.4721  0.4993
 6944SOL    HW227508   3.628   5.973   1.089  0.9098 -0.3703 -2.0338
 6944SOL    HW327509   3.520   5.868   1.102  0.3149  0.5113  0.6259
 6944SOL    MW427510   3.603   5.889   1.087 -0.1196 -0.6305 -0.4228
 6945SOL     OW27511   1.008   1.851   6.081 -0.1680 -0.1428  0.1216
 6945SOL    HW227512   0.968   1.780   6.130 -0.8425  0.2606  0.1740
 6945SOL    HW327513   1.092   1.865   6.123 -0.4072 -0.3246  0.6695
 6945SOL    MW427514   1.013   1.844   6.093 -0.1524  0.0836 -0.0395
 6946SOL     OW27515   0.392   3.902   3.488 -0.0930  0.5122  0.2151
 6946SOL    HW227516   0.478   3.930   3.457 -0.9442  1.4471 -1.4501
 6946SOL    HW327517   0.342   3.984   3.494 -0.7237  0.0424  1.6620
 6946SOL    MW427518   0.396   3.917   3.485 -0.8551 -0.1240 -0.0135
 6947SOL     OW27519   2.061   4.257   1.626  0.1510  0.4966 -0.5094
 6947SOL    HW227520   2.021   4.188   1.680  0.4236  0.9234  0.2448
 6947SOL    HW327521   2.128   4.296   1.682  0.3808  1.0099 -1.1291
 6947SOL    MW427522   2.064   4.253   1.641 -0.5063 -0.1192  0.1248
 6948SOL     OW27523   3.388   3.970   4.902 -0.1017  0.0998 -0.0730
 6948SOL    HW227524   3.421   3.947   4.989 -0.2083  0.6442  0.1105
 6948SOL    HW327525   3.379   4.065   4.903  1.6463  0.3421 -1.2885
 6948SOL    MW427526   3.391   3.979   4.913  0.7408 -0.4226  0.1488
 6949SOL     OW27527   5.919   1.207   6.362 -0.0405  0.2112  0.1647
 6949SOL    HW227528   5.936   1.115   6.342  0.6612  0.5911 -1.0510
 6949SOL    HW327529   5.838   1.205   6.413  0.8436 -1.2100  1.6425
 6949SOL    MW427530   5.911   1.194   6.366 -0.6740  0.7671 -0.0921
 6950SOL     OW27531   5.466   5.879   0.846  0.1547  0.2807 -0.8920
 6950SOL    HW227532   5.499   5.910   0.762 -0.5812 -0.2394 -1.3761
 6950SOL    HW327533   5.389   5.827   0.825  0.4899 -0.6335  0.0239
 6950SOL    MW427534   5.460   5.876   0.832  0.1622 -0.2095 -0.2182
 6951SOL     OW27535   3.924   1.275   2.781 -0.2871  0.2829 -0.0670
 6951SOL    HW227536   3.881   1.189   2.785  0.9159 -0.4123 -1.1626
 6951SOL    HW327537   3.864   1.329   2.729 -1.1624  0.1947  0.8213
 6951SOL    MW427538   3.910   1.271   2.775 -0.2638  1.0318 -0.1175
 6952SOL     OW27539   2.214   3.785   3.681 -0.0279  0.5023  0.1866
 6952SOL    HW227540   2.235   3.692   3.677  2.3733  0.8953  1.3472
 6952SOL    HW327541   2.187   3.808   3.593  0.6041 -1.0405 -0.4459
 6952SOL    MW427542   2.214   3.776   3.669 -0.4558  0.3715 -0.0004
 6953SOL     OW27543   1.667   3.392   4.283 -0.5984  0.2977 -0.4839
 6953SOL    HW227544   1.754   3.422   4.254 -0.1191 -0.4980  0.0791
 6953SOL    HW327545   1.606   3.449   4.237  0.1813  0.0993 -1.8294
 6953SOL    MW427546   1.671   3.404   4.273  0.2518 -0.0618 -0.3618
 6954SOL     OW27547   4.287   4.188   5.990 -0.0616 -0.3166 -0.4959
 6954SOL    HW227548   4.233   4.110   5.990  0.8133 -0.9605  0.9301
 6954SOL    HW327549   4.239   4.251   6.044 -0.3984 -0.1271 -1.0099
 6954SOL    MW427550   4.274   4.186   5.997 -0.2334  0.0015 -0.1884
 6955SOL     OW27551   0.883   0.437   0.447 -0.1785  0.1308  0.2092
 6955SOL    HW227552   0.941   0.361   0.438  0.4240  0.3125  2.0441
 6955SOL    HW327553   0.867   0.443   0.542 -2.6485  0.5147 -0.1668
 6955SOL    MW427554   0.889   0.428   0.459 -0.5227 -0.1410  0.2616
 6956SOL     OW27555   2.912   1.640   5.727  0.9130 -0.0973  0.0783
 6956SOL    HW227556   2.929   1.592   5.808  0.3755  2.6714  1.9670
 6956SOL    HW327557   2.820   1.666   5.734  1.2363  1.3621 -0.7339
 6956SOL    MW427558   2.902   1.637   5.739 -0.3411 -0.3274 -0.1034
 6957SOL     OW27559   0.779   4.951   4.940  0.0754  0.3663 -0.3511
 6957SOL    HW227560   0.778   4.961   5.035 -0.9864  1.3852 -0.4429
 6957SOL    HW327561   0.862   4.908   4.921  0.5045  0.5509  0.9974
 6957SOL    MW427562   0.790   4.947   4.950  0.4825 -0.0716  0.6437
 6958SOL     OW27563   4.862   2.106   1.011 -0.4035 -0.4298  0.4690
 6958SOL    HW227564   4.917   2.028   1.012 -0.5177 -0.5712 -1.5397
 6958SOL    HW327565   4.840   2.119   0.919 -1.3434  1.3094  0.9016
 6958SOL    MW427566   4.866   2.098   0.999 -0.3158 -0.6354  0.2162
 6959SOL     OW27567   3.411   0.809   3.076  0.2863  0.1346  0.0823
 6959SOL    HW227568   3.410   0.833   3.169 -1.9227 -0.9825  0.4262
 6959SOL    HW327569   3.320   0.785   3.057  0.8179 -0.2531 -2.2252
 6959SOL    MW427570   3.399   0.809   3.086  0.2760 -0.6318  0.1371
 6960SOL     OW27571   6.381   4.487   3.551  0.6596  0.1243 -0.1066
 6960SOL    HW227572   6.393   4.457   3.641 -1.0644 -0.4834 -0.0455
 6960SOL    HW327573   6.446   4.437   3.500  0.6950 -0.5641  0.6047
 6960SOL    MW427574   6.391   4.476   3.556 -0.0318  0.0128  0.3993
 6961SOL     OW27575   5.047   2.924   0.958  0.0095  0.0835  0.2283
 6961SOL    HW227576   4.969   2.958   0.914 -1.2270  0.2616  2.3951
 6961SOL    HW327577   5.014   2.886   1.040  1.9968 -1.5304  0.3759
 6961SOL    MW427578   5.032   2.923   0.963 -0.1146  0.2219 -0.8735
 6962SOL     OW27579   5.728   0.946   2.859  0.1789 -0.0480  0.1439
 6962SOL    HW227580   5.775   0.863   2.855  0.3977 -0.0305  1.6619
 6962SOL    HW327581   5.653   0.934   2.801  0.9260 -0.8179 -0.6915
 6962SOL    MW427582   5.724   0.934   2.851  0.1077  0.2196  0.5594
 6963SOL     OW27583   4.944   0.581   0.830 -0.2837 -0.2109  0.3986
 6963SOL    HW227584   5.015   0.517   0.828  1.0475  1.1940  0.8838
 6963SOL    HW327585   4.981   0.658   0.874 -2.7361 -0.1430  2.6213
 6963SOL    MW427586   4.958   0.583   0.835 -0.0206  0.5912 -0.1675
 6964SOL     OW27587   6.253   1.356   1.888  0.0605 -0.4714 -0.0159
 6964SOL    HW227588   6.190   1.379   1.956  0.3041  1.0177 -0.2689
 6964SOL    HW327589   6.211   1.385   1.806  0.8159  0.0186 -0.2430
 6964SOL    MW427590   6.239   1.363   1.886 -0.0157 -0.0094 -0.2122
 6965SOL     OW27591   1.351   1.388   6.036  0.0718  0.1779 -0.1668
 6965SOL    HW227592   1.436   1.401   5.994  1.5752 -1.4415  2.1146
 6965SOL    HW327593   1.340   1.466   6.091 -0.2022  0.6228 -0.8317
 6965SOL    MW427594   1.361   1.400   6.038  0.3782 -0.4584  0.0187
 6966SOL     OW27595   0.318   2.206   5.203  0.1511 -0.2402  0.4580
 6966SOL    HW227596   0.266   2.279   5.238 -2.9042 -2.4848  1.0144
 6966SOL    HW327597   0.405   2.218   5.242  0.0658  3.5039 -0.1738
 6966SOL    MW427598   0.322   2.217   5.213  0.3072 -0.1079  0.3003
 6967SOL     OW27599   5.097   1.370   0.490 -0.3391 -0.0750  0.3254
 6967SOL    HW227600   5.126   1.438   0.550 -1.3278  0.6893 -0.0387
 6967SOL    HW327601   5.001   1.376   0.492 -0.3905 -0.2387 -1.0866
 6967SOL    MW427602   5.088   1.379   0.498 -0.5432 -0.3377  0.1153
 6968SOL     OW27603   0.190   2.447   0.234  0.1129 -0.0171  0.1517
 6968SOL    HW227604   0.131   2.461   0.308 -0.9724  0.4484 -0.7767
 6968SOL    HW327605   0.174   2.356   0.208  0.1396 -0.0292  0.1770
 6968SOL    MW427606   0.180   2.437   0.240 -0.1453 -0.3641 -0.5558
 6969SOL     OW27607   4.045   0.995   4.694  0.1909 -0.3337  0.1380
 6969SOL    HW227608   4.031   1.090   4.686  1.6268 -0.1176 -0.1018
 6969SOL    HW327609   4.012   0.959   4.612 -2.1072 -0.2918  0.9885
 6969SOL    MW427610   4.039   1.003   4.682  0.0630 -0.4835  0.6263
 6970SOL     OW27611   1.351   5.304   4.244  0.1932  0.1560  0.2734
 6970SOL    HW227612   1.439   5.267   4.243 -0.3277 -1.1922  1.6446
 6970SOL    HW327613   1.362   5.390   4.286  0.6385 -0.6525  1.8802
 6970SOL    MW427614   1.364   5.311   4.249 -0.0812 -0.0712  0.2107
 6971SOL     OW27615   1.214   5.961   4.563  0.2504  0.0602 -0.4723
 6971SOL    HW227616   1.150   5.923   4.623 -0.0514  0.5531 -0.4662
 6971SOL    HW327617   1.284   5.993   4.620  0.5209 -0.5096 -0.4810
 6971SOL    MW427618   1.215   5.960   4.579  0.4490 -0.8387  0.4311
 6972SOL     OW27619   5.078   4.615   3.895 -0.0856  0.6138 -0.5939
 6972SOL    HW227620   4.985   4.634   3.894  0.4740  3.8277 -1.3599
 6972SOL    HW327621   5.097   4.588   3.985 -1.7525 -0.5221 -0.5353
 6972SOL    MW427622   5.068   4.614   3.907  0.4966 -0.1671  0.1422
 6973SOL     OW27623   0.568   1.263   0.127 -0.4148  0.2681 -0.0219
 6973SOL    HW227624   0.622   1.316   0.070 -0.4537  0.1456 -0.1736
 6973SOL    HW327625   0.630   1.205   0.172 -0.2822  1.0058  0.7616
 6973SOL    MW427626   0.583   1.262   0.126 -0.4573 -0.1620  0.7945
 6974SOL     OW27627   5.284   0.884   2.246  0.5202  0.1390  0.0548
 6974SOL    HW227628   5.300   0.922   2.159 -0.9595 -0.2188 -0.3961
 6974SOL    HW327629   5.287   0.959   2.305 -0.7843  0.7659 -0.6229
 6974SOL    MW427630   5.287   0.899   2.242  0.0085 -0.0173  0.0857
 6975SOL     OW27631   2.319   3.500   1.859 -0.1751 -0.3898  0.0944
 6975SOL    HW227632   2.360   3.579   1.825 -1.2635  0.1690  0.0465
 6975SOL    HW327633   2.238   3.530   1.902  0.4320 -1.2175  1.9570
 6975SOL    MW427634   2.313   3.514   1.860  0.0235  0.4729 -0.2251
 6976SOL     OW27635   6.416   0.946   2.018  0.3162 -0.2580 -0.3570
 6976SOL    HW227636   6.396   1.024   1.966  0.4900 -1.2458 -1.9611
 6976SOL    HW327637   6.503   0.920   1.988 -0.0131 -1.4442 -0.3243
 6976SOL    MW427638   6.425   0.953   2.007  0.5772 -0.3007  0.0017
 6977SOL     OW27639   3.853   5.829   0.698  0.1451  0.4074  0.7495
 6977SOL    HW227640   3.903   5.841   0.779  2.6475 -0.8492 -0.4777
 6977SOL    HW327641   3.863   5.736   0.677  0.8361  0.9668 -1.7326
 6977SOL    MW427642   3.861   5.818   0.706 -0.0148  0.1231  0.3279
 6978SOL     OW27643   3.250   3.329   3.338  0.3707 -0.1402 -0.0211
 6978SOL    HW227644   3.186   3.392   3.372  0.4638  0.3127 -0.6599
 6978SOL    HW327645   3.332   3.354   3.381  0.4225  0.2354 -0.3245
 6978SOL    MW427646   3.252   3.341   3.348  0.1833 -0.5407  0.0452
 6979SOL     OW27647   5.520   0.916   2.658  0.3061 -0.2801  0.3124
 6979SOL    HW227648   5.573   0.952   2.587 -2.7458  1.7182 -1.1661
 6979SOL    HW327649   5.483   0.836   2.623 -0.1558  0.0131  0.1202
 6979SOL    MW427650   5.522   0.910   2.644  0.2623  0.1215 -0.4871
 6980SOL     OW27651   0.518   3.494   5.312 -0.1912 -0.5419  0.1215
 6980SOL    HW227652   0.557   3.407   5.297 -0.2997 -0.3106 -1.7346
 6980SOL    HW327653   0.593   3.551   5.326 -0.0593 -0.7447  0.2508
 6980SOL    MW427654   0.533   3.490   5.312  0.2711  0.4718 -0.7016
 6981SOL     OW27655   0.648   4.111   1.833 -0.3686 -0.4667  0.8354
 6981SOL    HW227656   0.695   4.064   1.902 -0.7335 -1.0784  0.6842
 6981SOL    HW327657   0.621   4.042   1.773  0.1617  0.0914 -0.0527
 6981SOL    MW427658   0.650   4.095   1.834  0.4732  0.2799 -0.6363
 6982SOL     OW27659   0.442   6.231   5.844  0.0577  0.1052 -0.4419
 6982SOL    HW227660   0.501   6.231   5.920  0.9426  1.1146 -1.1095
 6982SOL    HW327661   0.424   6.138   5.828  1.9530 -0.2633 -0.5974
 6982SOL    MW427662   0.447   6.219   5.852 -0.1426  0.5036 -0.4545
 6983SOL     OW27663   1.917   6.351   1.553 -0.4314  0.0056  0.1195
 6983SOL    HW227664   1.929   6.412   1.626 -0.1651  1.9101 -1.4215
 6983SOL    HW327665   2.006   6.325   1.529 -0.3679  0.8386 -0.6345
 6983SOL    MW427666   1.930   6.356   1.559 -0.2397  0.0984 -0.4798
 6984SOL     OW27667   2.675   4.148   4.592  0.2608 -0.4424 -0.0232
 6984SOL    HW227668   2.596   4.121   4.545 -0.6422  2.9943 -0.7297
 6984SOL    HW327669   2.747   4.119   4.537 -0.7331  1.4939 -2.5352
 6984SOL    MW427670   2.674   4.141   4.579  0.0772 -0.8596  0.1273
 6985SOL     OW27671   0.296   2.097   2.600  0.2469 -0.1417  0.4263
 6985SOL    HW227672   0.262   2.133   2.682 -2.4104 -1.3914 -0.0127
 6985SOL    HW327673   0.300   2.172   2.540 -1.3891  0.1627  0.6588
 6985SOL    MW427674   0.292   2.112   2.603 -0.2834 -0.8277  0.1888
 6986SOL     OW27675   0.119   6.153   3.656  0.2578 -0.5623 -0.3885
 6986SOL    HW227676   0.098   6.146   3.749 -2.0758 -0.6072 -0.8666
 6986SOL    HW327677   0.141   6.246   3.644 -2.7749  0.2419 -0.3548
 6986SOL    MW427678   0.119   6.165   3.667  0.0935 -0.0804 -0.6402
 6987SOL     OW27679   1.439   3.552   3.500 -0.2635  0.5909  0.9525
 6987SOL    HW227680   1.451   3.600   3.419  0.7063  0.5481  1.0576
 6987SOL    HW327681   1.345   3.536   3.505 -0.2223 -0.5338 -0.8174
 6987SOL    MW427682   1.428   3.556   3.490  0.2411 -0.1427  0.2725
 6988SOL     OW27683   1.327   1.019   2.234  0.3886 -0.3833 -0.1383
 6988SOL    HW227684   1.329   0.981   2.147 -0.1704  0.3330 -0.4725
 6988SOL    HW327685   1.419   1.032   2.257  0.5320 -0.3476 -0.7236
 6988SOL    MW427686   1.339   1.016   2.226 -0.5179 -0.1028  0.5107
 6989SOL     OW27687   2.985   2.099   2.822 -0.0379  0.3981  0.4087
 6989SOL    HW227688   2.990   2.186   2.860 -1.5355  0.2856  0.9300
 6989SOL    HW327689   2.972   2.041   2.897 -1.7247  0.0329 -0.1303
 6989SOL    MW427690   2.984   2.103   2.837 -0.2888 -0.1991  0.1434
 6990SOL     OW27691   2.029   0.836   5.455  0.4254 -0.6730 -0.0430
 6990SOL    HW227692   1.935   0.850   5.450  0.3300 -1.3446 -0.1626
 6990SOL    HW327693   2.039   0.747   5.488  1.0306 -0.2060  1.1003
 6990SOL    MW427694   2.018   0.826   5.459  0.8790 -0.7366 -0.6400
 6991SOL     OW27695   2.886   0.184   1.394  0.4494  0.0075  0.4672
 6991SOL    HW227696   2.791   0.180   1.402  0.3218  0.3152 -0.7541
 6991SOL    HW327697   2.918   0.121   1.459 -0.6462 -1.3879 -0.2884
 6991SOL    MW427698   2.878   0.175   1.403 -0.4299 -0.5935 -0.2572
 6992SOL     OW27699   2.347   6.284   2.466  0.3991 -0.3415  0.2191
 6992SOL    HW227700   2.340   6.248   2.554 -2.0403 -0.8449 -0.1314
 6992SOL    HW327701   2.278   6.241   2.416  1.1893  0.5399 -1.7535
 6992SOL    MW427702   2.337   6.273   2.471 -0.0101  0.1697  0.9757
 6993SOL     OW27703   2.239   4.725   6.100 -0.2988  0.0667  0.2927
 6993SOL    HW227704   2.320   4.766   6.128 -0.3216 -0.6894  1.5682
 6993SOL    HW327705   2.201   4.786   6.037  0.9998  0.6637  0.0586
 6993SOL    MW427706   2.244   4.738   6.096 -0.0178  0.4116  0.2412
 6994SOL     OW27707   2.848   1.890   4.302  0.2992  0.3505  0.0519
 6994SOL    HW227708   2.874   1.813   4.251  0.7550  0.9222 -0.6182
 6994SOL    HW327709   2.843   1.859   4.392 -0.2442 -0.6246 -0.2972
 6994SOL    MW427710   2.851   1.876   4.307 -0.5134 -0.3632  0.1433
 6995SOL     OW27711   3.486   5.498   0.372  0.2339 -0.0958 -0.1802
 6995SOL    HW227712   3.556   5.469   0.430 -1.1160 -0.3947  1.3838
 6995SOL    HW327713   3.420   5.535   0.431 -0.9183  0.2091 -1.5946
 6995SOL    MW427714   3.486   5.499   0.388 -0.7827 -0.1607  0.2011
 6996SOL     OW27715   6.163   0.472   1.134  0.0661 -0.0299  0.3264
 6996SOL    HW227716   6.168   0.550   1.189 -3.1171  1.7992 -1.6661
 6996SOL    HW327717   6.107   0.412   1.183 -0.0954  0.2550  0.4907
 6996SOL    MW427718   6.156   0.474   1.148  0.3263 -0.3017  0.0303
 6997SOL     OW27719   2.895   4.396   3.209  0.3515  0.1983  0.1364
 6997SOL    HW227720   2.943   4.475   3.233  1.9519 -1.3085  2.3909
 6997SOL    HW327721   2.945   4.359   3.137 -0.0228  0.8914 -0.4854
 6997SOL    MW427722   2.908   4.402   3.203  0.3644  0.3779  0.2191
 6998SOL     OW27723   1.500   1.791   2.101  0.6473  0.0770  0.0541
 6998SOL    HW227724   1.593   1.770   2.098  0.9952  1.4724  0.2123
 6998SOL    HW327725   1.494   1.879   2.064 -0.5945  0.0486  0.1435
 6998SOL    MW427726   1.512   1.800   2.096 -0.7328  0.1732  0.2564
 6999SOL     OW27727   3.898   3.311   4.146  0.3594 -1.1066 -0.1274
 6999SOL    HW227728   3.979   3.355   4.125 -0.3527 -0.9113 -2.7695
 6999SOL    HW327729   3.860   3.287   4.061 -2.6629 -0.5860  0.9274
 6999SOL    MW427730   3.904   3.313   4.132  0.3804  0.0593  0.3945
 7000SOL     OW27731   2.101   3.622   4.401 -0.1063  0.0702  0.1992
 7000SOL    HW227732   2.066   3.711   4.405 -0.1856  0.0120  1.0313
 7000SOL    HW327733   2.052   3.580   4.330 -0.7196  0.4244  0.4057
 7000SOL    MW427734   2.090   3.628   4.393 -0.0104  0.8508 -0.4013
 7001SOL     OW27735   3.812   4.303   3.687  0.7221 -0.5479  0.0978
 7001SOL    HW227736   3.717   4.312   3.697  0.4854 -2.5213 -0.0233
 7001SOL    HW327737   3.842   4.392   3.669 -1.4367 -0.2350 -2.6113
 7001SOL    MW427738   3.803   4.316   3.686 -0.1668  0.2334 -0.6676
 7002SOL     OW27739   5.025   4.068   0.470  0.5790  0.8429 -0.3219
 7002SOL    HW227740   4.981   4.126   0.532 -2.1515 -1.1173 -0.2019
 7002SOL    HW327741   5.023   4.116   0.387 -0.2287  1.5359  0.0786
 7002SOL    MW427742   5.019   4.082   0.467  0.0101  0.4328 -0.5978
 7003SOL     OW27743   2.561   2.995   2.458  0.4040  0.3556  0.4133
 7003SOL    HW227744   2.545   2.925   2.395  0.3317  0.6345  0.1225
 7003SOL    HW327745   2.640   2.966   2.506  1.5626  1.0038 -1.0376
 7003SOL    MW427746   2.570   2.982   2.456 -0.0826  0.0532 -0.6372
 7004SOL     OW27747   3.250   2.511   1.770 -0.2736  0.3344 -0.5152
 7004SOL    HW227748   3.178   2.517   1.833 -0.2295  0.0281 -0.4316
 7004SOL    HW327749   3.223   2.565   1.697 -0.0240  1.2483  0.0588
 7004SOL    MW427750   3.237   2.519   1.769  0.1098  0.4072  0.2550
 7005SOL     OW27751   3.683   1.289   3.044  0.1858  0.4066 -0.1372
 7005SOL    HW227752   3.633   1.257   2.969  1.7505  0.8382 -1.4160
 7005SOL    HW327753   3.722   1.211   3.083  1.0916  0.3650 -1.0849
 7005SOL    MW427754   3.681   1.275   3.039  0.1833  0.3761  0.1321
 7006SOL     OW27755   2.041   4.788   4.813 -0.2047  0.4116 -0.4177
 7006SOL    HW227756   2.062   4.851   4.744  0.1843 -1.8362 -2.4866
 7006SOL    HW327757   2.079   4.706   4.783  0.2849 -0.6489  2.6930
 7006SOL    MW427758   2.049   4.785   4.800 -0.4153 -0.6811  1.3455
 7007SOL     OW27759   5.467   5.634   4.722 -0.1125 -0.3657 -0.3301
 7007SOL    HW227760   5.451   5.728   4.717  1.3266 -0.1285 -1.0906
 7007SOL    HW327761   5.503   5.611   4.636  0.5159 -1.3995  0.1875
 7007SOL    MW427762   5.470   5.643   4.710 -0.1533 -0.2190  0.1241
 7008SOL     OW27763   0.790   3.509   0.067  0.0588  0.1385  0.5641
 7008SOL    HW227764   0.704   3.474   0.092 -0.0080  0.1468  0.3555
 7008SOL    HW327765   0.792   3.597   0.103 -0.0707  0.1813  0.4683
 7008SOL    MW427766   0.779   3.516   0.075  0.2389 -0.2094 -0.3008
 7009SOL     OW27767   4.785   1.271   1.072 -0.4401  0.2879 -0.2138
 7009SOL    HW227768   4.778   1.176   1.065  0.2565  0.2972 -1.2255
 7009SOL    HW327769   4.710   1.296   1.127 -0.3453 -0.8771  0.4937
 7009SOL    MW427770   4.774   1.262   1.079 -0.0657  0.2368 -0.3890
 7010SOL     OW27771   1.555   4.126   0.680  0.0694 -0.3591 -0.1256
 7010SOL    HW227772   1.469   4.153   0.712  0.2057 -0.2931  0.1875
 7010SOL    HW327773   1.536   4.060   0.613 -0.1886 -1.2229  0.7787
 7010SOL    MW427774   1.541   4.121   0.675  0.2114  0.1788  0.8349
 7011SOL     OW27775   0.322   2.269   6.200 -0.7992 -0.1622  0.0669
 7011SOL    HW227776   0.248   2.291   6.256 -0.2008 -0.7117  1.1052
 7011SOL    HW327777   0.313   2.327   6.124 -2.1088 -0.0131  0.3126
 7011SOL    MW427778   0.311   2.279   6.197  0.4939 -0.3655  0.2119
 7012SOL     OW27779   2.457   2.490   3.429  0.0498 -0.3617 -0.0041
 7012SOL    HW227780   2.379   2.489   3.485 -0.8258  0.4251 -1.1474
 7012SOL    HW327781   2.487   2.581   3.433  0.0416 -0.3257 -0.7069
 7012SOL    MW427782   2.451   2.502   3.437 -0.1314 -0.1941  0.8044
 7013SOL     OW27783   0.704   2.025   5.654 -0.0984 -0.1325  0.5728
 7013SOL    HW227784   0.728   1.969   5.728  0.6580 -0.4522  0.0936
 7013SOL    HW327785   0.608   2.022   5.652 -0.1622  0.3452  1.8922
 7013SOL    MW427786   0.695   2.017   5.663  0.1114 -0.5357  0.1310
 7014SOL     OW27787   1.724   6.309   3.278  0.1239 -0.2380  1.0018
 7014SOL    HW227788   1.642   6.298   3.230  0.0909 -1.9695  1.4207
 7014SOL    HW327789   1.697   6.335   3.366  0.0752  0.1359  0.8797
 7014SOL    MW427790   1.710   6.311   3.283 -0.2454  0.1208  0.0421
 7015SOL     OW27791   5.804   1.371   2.315  0.3445 -0.3466 -0.1194
 7015SOL    HW227792   5.802   1.388   2.409  0.8431 -0.3649 -0.1028
 7015SOL    HW327793   5.799   1.458   2.275  0.3670 -0.3253 -0.0759
 7015SOL    MW427794   5.803   1.385   2.322 -0.0040  0.3080 -0.0465
 7016SOL     OW27795   2.630   4.480   4.091  0.2116  0.4764 -0.6889
 7016SOL    HW227796   2.596   4.390   4.091  1.0338  0.1508 -0.9594
 7016SOL    HW327797   2.595   4.519   4.012  0.1178  0.2835 -0.7447
 7016SOL    MW427798   2.621   4.473   4.081  0.4929  0.0158  0.1551
 7017SOL     OW27799   3.080   5.755   5.586 -0.4532  0.6659 -0.0837
 7017SOL    HW227800   2.996   5.711   5.596 -0.1242  0.0578  0.0807
 7017SOL    HW327801   3.145   5.684   5.588  0.1212  1.1962  0.6615
 7017SOL    MW427802   3.078   5.739   5.588  0.8374 -0.1874  0.2929
 7018SOL     OW27803   3.711   5.648   4.672  0.5393 -0.1317 -0.0425
 7018SOL    HW227804   3.622   5.635   4.639  0.1415 -0.0408  0.9694
 7018SOL    HW327805   3.713   5.604   4.757  1.3009  0.3153  0.1884
 7018SOL    MW427806   3.700   5.640   4.679 -0.0563 -0.1180 -0.2869
 7019SOL     OW27807   4.536   0.843   0.285  0.2222 -0.0403 -0.3968
 7019SOL    HW227808   4.604   0.813   0.225  2.1271 -0.2363  1.7587
 7019SOL    HW327809   4.489   0.764   0.310  0.2043 -0.1248 -0.6967
 7019SOL    MW427810   4.539   0.829   0.280  0.4056  1.0371 -0.5785
 7020SOL     OW27811   3.322   3.396   3.968 -0.0122  0.0550  0.1256
 7020SOL    HW227812   3.409   3.397   3.927  0.6075 -0.4467  1.3723
 7020SOL    HW327813   3.261   3.405   3.895  1.0257 -1.3278 -0.9705
 7020SOL    MW427814   3.326   3.397   3.953  0.2723  0.1181 -0.2324
 7021SOL     OW27815   3.750   4.238   0.364 -0.1405 -0.1518 -0.1684
 7021SOL    HW227816   3.715   4.287   0.438  0.0548 -0.2070 -0.0384
 7021SOL    HW327817   3.713   4.150   0.372  0.0249 -0.2105 -0.0305
 7021SOL    MW427818   3.741   4.233   0.375  0.0042 -0.5858  0.7398
 7022SOL     OW27819   0.846   4.002   0.969  0.7419  0.1830 -0.0045
 7022SOL    HW227820   0.793   4.043   0.901  1.4206 -0.4360 -0.9390
 7022SOL    HW327821   0.887   4.075   1.015 -1.5409  0.7209  1.3136
 7022SOL    MW427822   0.845   4.017   0.966 -0.2498 -0.3936  0.2634
 7023SOL     OW27823   4.644   4.028   1.240  0.3900 -0.5893  0.1681
 7023SOL    HW227824   4.640   4.124   1.241  0.1770 -0.5957  0.0087
 7023SOL    HW327825   4.668   4.004   1.329  0.1564 -0.3981  0.2840
 7023SOL    MW427826   4.646   4.037   1.252 -0.0139  0.1211  0.1078
 7024SOL     OW27827   0.735   4.903   0.991 -0.4378  0.0508  0.5100
 7024SOL    HW227828   0.796   4.931   0.922  1.6252 -2.2398  1.2320
 7024SOL    HW327829   0.663   4.862   0.943 -0.6696  1.3589 -0.3267
 7024SOL    MW427830   0.734   4.901   0.976 -0.2151 -0.4079  0.6866
 7025SOL     OW27831   3.179   3.779   3.784  0.2203  0.1126  0.9075
 7025SOL    HW227832   3.190   3.736   3.869 -0.8151  2.9088  2.5565
 7025SOL    HW327833   3.089   3.811   3.783  0.1849  0.1474 -1.2980
 7025SOL    MW427834   3.169   3.777   3.795 -0.0112  0.0699 -0.3682
 7026SOL     OW27835   3.796   1.442   0.480  0.0361  0.5577 -0.2125
 7026SOL    HW227836   3.833   1.500   0.547 -1.1641  2.6685 -1.2847
 7026SOL    HW327837   3.714   1.484   0.454 -0.6397 -1.3756 -1.4432
 7026SOL    MW427838   3.790   1.455   0.486  0.5505  0.0682  0.3422
 7027SOL     OW27839   0.257   0.051   1.979  0.3168  0.3173  0.4291
 7027SOL    HW227840   0.343   0.033   2.019  1.0470 -0.4578 -1.3766
 7027SOL    HW327841   0.277   0.095   1.897 -0.9620 -0.5154 -0.3700
 7027SOL    MW427842   0.271   0.054   1.973 -0.3825  0.0792 -0.4913
 7028SOL     OW27843   0.937   3.013   6.072 -0.1972 -0.5167 -0.1040
 7028SOL    HW227844   0.898   3.010   6.159 -0.7305 -2.0059 -0.3665
 7028SOL    HW327845   0.906   2.934   6.028 -0.0068  0.2303 -1.6840
 7028SOL    MW427846   0.928   3.002   6.077 -0.1997 -1.1397  0.3093
 7029SOL     OW27847   4.368   1.540   0.628 -0.1661 -0.2838  0.2660
 7029SOL    HW227848   4.361   1.633   0.652 -1.6207  0.3879 -2.3666
 7029SOL    HW327849   4.307   1.496   0.688  0.4958  0.4480  1.5113
 7029SOL    MW427850   4.359   1.546   0.639  0.0140  0.7396 -0.2988
 7030SOL     OW27851   3.538   1.136   1.274  0.6834 -0.3000 -0.0845
 7030SOL    HW227852   3.591   1.144   1.353  0.0625  1.8260  0.1839
 7030SOL    HW327853   3.584   1.188   1.208 -0.2118  0.2412 -0.3100
 7030SOL    MW427854   3.551   1.144   1.276  0.4775 -0.0540  0.0788
 7031SOL     OW27855   0.015   4.782   0.785 -0.0319  0.2321  0.0701
 7031SOL    HW227856   0.061   4.700   0.804  1.0273  0.5217 -1.0364
 7031SOL    HW327857  -0.077   4.759   0.790  0.1241 -1.9238 -3.2713
 7031SOL    MW427858   0.009   4.768   0.788  0.1115 -0.4404 -1.3068
 7032SOL     OW27859   1.530   3.492   3.791  0.0246  0.1448 -0.0904
 7032SOL    HW227860   1.511   3.414   3.740  1.6522  0.5583 -1.4397
 7032SOL    HW327861   1.481   3.562   3.748 -2.1932 -0.2149  1.6803
 7032SOL    MW427862   1.521   3.491   3.779  0.1222  1.0397 -0.4542
 7033SOL     OW27863   3.597   4.928   0.192 -0.5737  0.4819  0.3576
 7033SOL    HW227864   3.589   5.022   0.209 -1.0870  0.4202  0.4821
 7033SOL    HW327865   3.630   4.922   0.103 -0.6312  0.7776  0.3164
 7033SOL    MW427866   3.601   4.940   0.183 -0.4697  0.3970 -0.3897
 7034SOL     OW27867   4.993   2.386   1.889  0.6349  0.3028  0.0319
 7034SOL    HW227868   5.071   2.335   1.866  0.6035  1.1393 -2.1196
 7034SOL    HW327869   5.025   2.475   1.903  0.2510  0.3657  0.5242
 7034SOL    MW427870   5.008   2.391   1.888 -0.2510  0.0684  0.4245
 7035SOL     OW27871   1.369   4.782   5.034  0.0814 -0.0290 -0.7857
 7035SOL    HW227872   1.337   4.820   4.952 -1.1175  0.2507 -0.2164
 7035SOL    HW327873   1.381   4.857   5.092  1.5921 -0.1606 -0.9099
 7035SOL    MW427874   1.366   4.797   5.031  0.6058  0.5144  0.2749
 7036SOL     OW27875   5.203   1.334   4.410 -0.3394  0.7791 -0.0602
 7036SOL    HW227876   5.231   1.424   4.401 -0.1645  0.7911  0.5328
 7036SOL    HW327877   5.107   1.338   4.412 -0.3330  0.9392 -0.1768
 7036SOL    MW427878   5.194   1.346   4.409 -0.0646 -0.6601 -0.6274
 7037SOL     OW27879   5.707   1.254   2.076 -0.0825 -0.2967  0.2847
 7037SOL    HW227880   5.720   1.263   2.170  0.6771 -1.0687  0.2734
 7037SOL    HW327881   5.780   1.302   2.036  0.9501 -1.8949  0.1537
 7037SOL    MW427882   5.719   1.261   2.083 -0.1101 -0.4745 -0.0374
 7038SOL     OW27883   5.842   2.799   1.075 -0.0509 -0.0982  0.3621
 7038SOL    HW227884   5.805   2.723   1.028 -0.1073 -1.2570  2.1893
 7038SOL    HW327885   5.936   2.792   1.062 -0.1301  0.2709 -0.5186
 7038SOL    MW427886   5.849   2.788   1.067 -0.2511  0.3212 -0.0226
 7039SOL     OW27887   3.010   2.319   2.992 -0.3302 -0.0301 -0.0781
 7039SOL    HW227888   3.039   2.320   3.083  0.0487  0.4749 -0.2007
 7039SOL    HW327889   3.032   2.406   2.959 -0.5931 -0.1638 -0.6132
 7039SOL    MW427890   3.016   2.330   3.000 -0.2467  0.7775 -0.1193
 7040SOL     OW27891   2.371   0.985   4.725 -0.1562  0.5925 -0.5953
 7040SOL    HW227892   2.453   0.987   4.675  0.8180  0.2043  0.8909
 7040SOL    HW327893   2.391   0.928   4.800 -1.6340  0.9116  0.0708
 7040SOL    MW427894   2.385   0.977   4.728  0.0926  0.2269 -0.6220
 7041SOL     OW27895   5.975   5.711   4.779  0.4247 -0.0476 -0.0148
 7041SOL    HW227896   5.992   5.646   4.847 -0.6496  0.8568  1.1589
 7041SOL    HW327897   6.048   5.773   4.786 -0.7511  1.2349  1.8390
 7041SOL    MW427898   5.987   5.711   4.789 -0.2183  0.2308  0.1459
 7042SOL     OW27899   0.338   0.795   3.448  0.0740 -0.1874  0.6385
 7042SOL    HW227900   0.381   0.761   3.369 -0.9168  0.1441 -0.0646
 7042SOL    HW327901   0.406   0.846   3.492  0.8307 -0.9045  0.3530
 7042SOL    MW427902   0.353   0.797   3.443  0.6536  0.1142 -0.0203
 7043SOL     OW27903   1.259   2.520   5.534  0.0489 -0.1723 -0.1088
 7043SOL    HW227904   1.232   2.434   5.566  0.5854 -0.2003  0.2828
 7043SOL    HW327905   1.180   2.557   5.495 -0.5007 -0.3463  0.7980
 7043SOL    MW427906   1.245   2.514   5.533 -0.0834 -0.4199  0.4777
 7044SOL     OW27907   3.248   5.243   4.713  0.5795 -0.1456 -0.3054
 7044SOL    HW227908   3.330   5.268   4.669  0.3059 -1.1509 -1.4520
 7044SOL    HW327909   3.213   5.173   4.658 -0.5862 -0.3630  0.6959
 7044SOL    MW427910   3.255   5.237   4.700  0.3528 -0.2992 -0.6106
 7045SOL     OW27911   0.691   2.272   0.244  0.5146 -0.6994 -0.1238
 7045SOL    HW227912   0.743   2.269   0.164 -0.6472 -2.0710 -0.8601
 7045SOL    HW327913   0.747   2.229   0.309  0.6939 -1.3202 -0.6774
 7045SOL    MW427914   0.706   2.266   0.242 -0.0469  0.1271  0.1941
 7046SOL     OW27915   3.526   5.585   3.638  0.2346 -0.1524 -0.4390
 7046SOL    HW227916   3.507   5.527   3.564  0.3433 -0.0275 -0.5673
 7046SOL    HW327917   3.527   5.673   3.599  2.5286 -0.2580 -0.7439
 7046SOL    MW427918   3.524   5.589   3.623 -0.6075  0.0379  0.4707
 7047SOL     OW27919   3.805   1.077   2.014  0.6178  0.5213 -0.3582
 7047SOL    HW227920   3.891   1.037   2.005  0.6588  0.4128  0.4777
 7047SOL    HW327921   3.766   1.070   1.927  0.1209 -2.4435  0.0116
 7047SOL    MW427922   3.811   1.071   2.001 -0.1786 -0.6455  0.1169
 7048SOL     OW27923   4.424   5.878   5.267  0.5269  0.1697 -0.3638
 7048SOL    HW227924   4.348   5.936   5.273  0.6589  0.1810  1.7354
 7048SOL    HW327925   4.415   5.837   5.181 -1.0384  1.2634 -0.7797
 7048SOL    MW427926   4.413   5.880   5.256 -0.3383 -0.3401  0.1246
 7049SOL     OW27927   3.110   0.942   3.875 -0.2207 -0.2481 -0.2969
 7049SOL    HW227928   3.073   1.005   3.813  0.5595  0.6487  0.1285
 7049SOL    HW327929   3.033   0.904   3.919 -0.6948  1.8495  0.8371
 7049SOL    MW427930   3.095   0.945   3.873  0.7797 -0.1899 -0.4373
 7050SOL     OW27931   1.199   5.737   1.398  0.0142  0.3711  0.1452
 7050SOL    HW227932   1.237   5.794   1.464  2.5262 -0.9608  0.0145
 7050SOL    HW327933   1.179   5.794   1.324 -0.2776  1.4672  1.0593
 7050SOL    MW427934   1.202   5.752   1.397  0.1411 -0.2385  0.5479
 7051SOL     OW27935   6.136   0.813   5.672  0.1944 -0.5418 -0.0778
 7051SOL    HW227936   6.175   0.725   5.666 -1.1342 -1.1886  0.4361
 7051SOL    HW327937   6.110   0.834   5.583 -1.3374 -1.5751  0.0817
 7051SOL    MW427938   6.138   0.804   5.660 -0.3467 -0.2089 -0.3090
 7052SOL     OW27939   1.711   2.554   4.976  0.2390 -0.3164  0.0811
 7052SOL    HW227940   1.722   2.470   4.933 -0.3177 -0.7352  0.7430
 7052SOL    HW327941   1.769   2.613   4.928 -2.3538 -0.0941 -3.0578
 7052SOL    MW427942   1.720   2.551   4.964  0.6111  0.5973  0.5702
 7053SOL     OW27943   2.062   2.035   1.782 -0.2777  0.0389  0.0359
 7053SOL    HW227944   2.060   2.095   1.707 -1.4847  0.3049  0.2628
 7053SOL    HW327945   2.145   1.989   1.773  0.6023  1.6242 -0.2373
 7053SOL    MW427946   2.072   2.037   1.771  0.0225  0.6622  0.2356
 7054SOL     OW27947   6.103   1.112   3.641 -0.3798 -0.0982 -0.0961
 7054SOL    HW227948   6.178   1.157   3.680 -1.1221  0.9960  0.1488
 7054SOL    HW327949   6.083   1.042   3.703  0.0097  0.0444  0.2003
 7054SOL    MW427950   6.110   1.109   3.655 -0.6151  0.3110  0.2203
 7055SOL     OW27951   1.088   5.068   5.542 -0.4758 -0.0494 -1.1208
 7055SOL    HW227952   1.132   4.991   5.577 -0.3429 -0.1050 -1.4091
 7055SOL    HW327953   1.067   5.120   5.619 -0.2359 -0.1986 -0.9520
 7055SOL    MW427954   1.091   5.065   5.557  0.4529 -0.4836 -0.2692
 7056SOL     OW27955   1.330   4.264   4.895 -0.2969 -0.0764 -0.1987
 7056SOL    HW227956   1.363   4.337   4.842  0.5062  0.0445  0.4494
 7056SOL    HW327957   1.405   4.204   4.902 -0.8138 -0.7551 -0.3515
 7056SOL    MW427958   1.344   4.266   4.889  0.2760  0.3085  0.0803
 7057SOL     OW27959   3.502   4.029   4.516 -0.2871 -0.0268 -0.4179
 7057SOL    HW227960   3.516   3.971   4.590 -1.3073  1.4214  0.9596
 7057SOL    HW327961   3.530   3.977   4.440  0.9033 -1.5077  0.9484
 7057SOL    MW427962   3.508   4.014   4.515 -0.5250  0.0507 -0.7251
 7058SOL     OW27963   2.178   5.969   2.625 -0.0413  0.6655 -0.3265
 7058SOL    HW227964   2.184   5.998   2.534 -0.2439 -1.8410 -1.1982
 7058SOL    HW327965   2.269   5.953   2.651 -0.0734  0.0762 -0.5608
 7058SOL    MW427966   2.191   5.971   2.617  0.6781  0.0139 -0.2481
 7059SOL     OW27967   0.898   2.158   0.739 -0.4275  0.0333 -0.6163
 7059SOL    HW227968   0.992   2.152   0.722 -0.1945 -0.1398  0.6835
 7059SOL    HW327969   0.883   2.252   0.753 -0.2330 -0.0638  0.3012
 7059SOL    MW427970   0.909   2.170   0.739 -0.7646  0.0470  0.1084
 7060SOL     OW27971   2.253   2.236   5.774  0.3161 -0.5962  0.0546
 7060SOL    HW227972   2.276   2.151   5.736 -2.4986 -1.7069  0.5983
 7060SOL    HW327973   2.206   2.282   5.705  0.6417 -0.0232  0.2040
 7060SOL    MW427974   2.250   2.231   5.760 -0.1869 -0.3905  0.1023
 7061SOL     OW27975   3.316   1.405   2.967 -0.2254  0.3703  0.1967
 7061SOL    HW227976   3.285   1.360   3.045 -4.0752  1.8626 -0.2248
 7061SOL    HW327977   3.371   1.476   3.000 -3.0699  1.9929  1.8690
 7061SOL    MW427978   3.319   1.409   2.981 -0.4917 -0.1653  0.0671
 7062SOL     OW27979   3.873   0.779   1.291 -0.3722 -0.4769 -0.0353
 7062SOL    HW227980   3.961   0.774   1.330 -0.9150  0.7667  1.4487
 7062SOL    HW327981   3.816   0.804   1.363 -1.4861  1.6642 -1.5428
 7062SOL    MW427982   3.877   0.782   1.306  0.0542  0.1067 -0.6152
 7063SOL     OW27983   0.860   1.907   2.180  0.1150 -0.0121  0.5081
 7063SOL    HW227984   0.946   1.946   2.165  0.7506 -0.9843  1.4460
 7063SOL    HW327985   0.812   1.921   2.098  1.1016  0.6824  0.0313
 7063SOL    MW427986   0.865   1.914   2.167  1.0661  0.1101  0.4503
 7064SOL     OW27987   1.091   0.389   2.237 -0.2448  0.7293  0.6536
 7064SOL    HW227988   1.099   0.484   2.242 -0.0110  0.7712 -0.2374
 7064SOL    HW327989   1.163   0.363   2.179 -0.1706 -0.0110  1.0730
 7064SOL    MW427990   1.102   0.398   2.230 -0.1184 -0.1901 -0.7600
 7065SOL     OW27991   1.275   0.802   0.508  0.0822 -0.0003  0.1467
 7065SOL    HW227992   1.247   0.889   0.534  0.2540  0.0803  0.0655
 7065SOL    HW327993   1.370   0.809   0.497  0.2283 -0.4220  1.0230
 7065SOL    MW427994   1.284   0.814   0.510  0.2844 -0.8236 -0.5464
 7066SOL     OW27995   0.999   5.575   2.165 -0.2414 -0.0080  0.1887
 7066SOL    HW227996   1.032   5.486   2.176  1.5472  0.8122  2.2206
 7066SOL    HW327997   0.913   5.574   2.207 -0.3945 -0.8608 -0.1304
 7066SOL    MW427998   0.992   5.563   2.172  0.3571 -0.2394  0.3523
 7067SOL     OW27999   2.527   1.467   2.160 -0.5787 -0.4788 -0.2709
 7067SOL    HW228000   2.536   1.374   2.177  1.7390 -0.5534 -1.5808
 7067SOL    HW328001   2.519   1.474   2.065 -1.2452  0.6402 -0.1607
 7067SOL    MW428002   2.527   1.456   2.150  0.0869 -0.1159 -0.0571
 7068SOL     OW28003   0.866   3.969   2.752 -0.8392 -0.3491 -0.0327
 7068SOL    HW228004   0.853   3.875   2.737 -3.6212 -0.4269  2.0456
 7068SOL    HW328005   0.781   4.009   2.735  0.4155  1.9547 -1.4051
 7068SOL    MW428006   0.853   3.962   2.748 -0.0826 -0.4958 -0.0818
 7069SOL     OW28007   0.174   0.810   5.538 -0.4739  0.4176  0.3022
 7069SOL    HW228008   0.207   0.877   5.479 -0.0061  0.7035  0.8720
 7069SOL    HW328009   0.214   0.831   5.623  1.0030 -1.5276  0.1404
 7069SOL    MW428010   0.184   0.822   5.542 -0.3574 -0.7444  0.5313
 7070SOL     OW28011   1.421   5.221   1.503 -0.1688  0.2850  0.0913
 7070SOL    HW228012   1.474   5.285   1.456 -0.7001  0.4177 -0.3426
 7070SOL    HW328013   1.475   5.142   1.505  0.5493  0.7774  0.7545
 7070SOL    MW428014   1.435   5.219   1.497 -0.5687 -0.1909  0.2891
 7071SOL     OW28015   5.545   2.619   1.227 -0.4495 -0.4420 -0.0736
 7071SOL    HW228016   5.478   2.595   1.162 -2.1068  1.1422  0.9592
 7071SOL    HW328017   5.617   2.654   1.175 -2.1789  1.8546 -1.1316
 7071SOL    MW428018   5.545   2.620   1.212 -0.5982  0.0485 -0.7601
 7072SOL     OW28019   2.668   2.731   1.364  0.4935 -0.2686  0.4596
 7072SOL    HW228020   2.635   2.752   1.452 -0.8135  0.0379 -0.0898
 7072SOL    HW328021   2.668   2.815   1.318  0.5293 -0.5436 -0.0394
 7072SOL    MW428022   2.663   2.745   1.370 -0.0240  0.0893  0.3347
 7073SOL     OW28023   6.080   4.160   1.602 -0.7590  0.1278 -0.7946
 7073SOL    HW228024   6.009   4.101   1.628 -1.2279  0.7140 -0.7527
 7073SOL    HW328025   6.115   4.193   1.685  0.3337 -1.0457 -0.7537
 7073SOL    MW428026   6.076   4.156   1.617 -0.7621 -0.3087 -0.3606
 7074SOL     OW28027   4.165   5.138   1.581 -0.5456  0.8427 -0.6085
 7074SOL    HW228028   4.223   5.143   1.505 -0.6211 -1.7958 -0.9408
 7074SOL    HW328029   4.085   5.182   1.552 -0.1407  0.9635 -1.5911
 7074SOL    MW428030   4.162   5.145   1.567 -0.5232  0.1096 -0.0104
 7075SOL     OW28031   3.748   0.844   0.876  0.8217 -0.5066  0.3371
 7075SOL    HW228032   3.744   0.884   0.963  1.2725  3.5054 -1.2670
 7075SOL    HW328033   3.832   0.800   0.873  1.0432 -0.2231  1.7653
 7075SOL    MW428034   3.758   0.844   0.887  0.3900  0.5568  0.1417
 7076SOL     OW28035   2.973   2.463   5.818 -0.2263 -0.1376  0.1055
 7076SOL    HW228036   2.900   2.523   5.836  0.6361  0.6805  1.0608
 7076SOL    HW328037   3.049   2.521   5.810  0.2798 -0.9465 -1.1679
 7076SOL    MW428038   2.973   2.479   5.819  0.3135  0.9947 -0.0829
 7077SOL     OW28039   1.055   4.175   0.892  0.9397 -0.6857  0.5077
 7077SOL    HW228040   1.107   4.188   0.972  3.2628  2.0316 -1.2494
 7077SOL    HW328041   1.120   4.166   0.822 -1.0280 -1.8910 -1.2683
 7077SOL    MW428042   1.070   4.176   0.894  0.2864  0.6530 -0.5061
 7078SOL     OW28043   5.290   2.039   6.083 -0.1135 -0.0980 -0.1756
 7078SOL    HW228044   5.219   1.982   6.054 -1.3605  0.7448  1.0848
 7078SOL    HW328045   5.321   2.000   6.164  1.5533 -0.9735 -1.1725
 7078SOL    MW428046   5.285   2.026   6.090 -0.2948  0.0388  0.6406
 7079SOL     OW28047   4.100   1.091   6.208  0.2415  0.5953 -0.1595
 7079SOL    HW228048   4.084   1.051   6.123  3.5203  0.6398 -0.9443
 7079SOL    HW328049   4.042   1.044   6.268 -2.5917  0.9334 -2.3988
 7079SOL    MW428050   4.090   1.079   6.205 -0.3064  0.0981  0.5793
 7080SOL     OW28051   3.747   1.913   5.406 -0.3338  0.4568 -0.0808
 7080SOL    HW228052   3.747   1.847   5.337  0.4112 -0.2989  0.6244
 7080SOL    HW328053   3.666   1.962   5.392 -0.5025 -0.0865 -1.1031
 7080SOL    MW428054   3.736   1.911   5.395 -0.5849  0.2405  0.4176
 7081SOL     OW28055   3.095   2.344   2.430  0.2158 -0.6746  0.0449
 7081SOL    HW228056   3.142   2.291   2.494  1.0020  0.9644  0.9036
 7081SOL    HW328057   3.163   2.392   2.383 -0.4795  0.3249  0.0103
 7081SOL    MW428058   3.110   2.344   2.432 -0.6354 -0.6356 -0.1424
 7082SOL     OW28059   2.681   1.139   2.536  0.2173 -0.0669  0.3109
 7082SOL    HW228060   2.616   1.079   2.574 -1.5731  0.8661 -1.1006
 7082SOL    HW328061   2.631   1.218   2.516  2.1819  1.3188  0.6392
 7082SOL    MW428062   2.666   1.141   2.539 -0.2983 -0.1435  0.3692
 7083SOL     OW28063   6.405   1.822   5.736  0.0548 -0.5436 -0.0107
 7083SOL    HW228064   6.359   1.905   5.748  1.7551  0.7216 -1.5648
 7083SOL    HW328065   6.398   1.778   5.821 -0.8565  1.2149  0.8810
 7083SOL    MW428066   6.398   1.827   5.749  0.1475 -0.0975  0.3203
 7084SOL     OW28067   0.453   0.763   0.977  0.0505 -0.4205  0.0515
 7084SOL    HW228068   0.517   0.713   0.927  2.3502 -0.5203  2.8802
 7084SOL    HW328069   0.436   0.841   0.924  2.4481 -0.4559 -0.8679
 7084SOL    MW428070   0.459   0.767   0.964 -0.0521  0.0446  0.3590
 7085SOL     OW28071   3.625   6.372   1.765  0.3888 -0.2055  0.1586
 7085SOL    HW228072   3.557   6.374   1.833  0.3812 -1.0433  0.1916
 7085SOL    HW328073   3.591   6.428   1.696 -1.5586 -2.5118 -0.9094
 7085SOL    MW428074   3.611   6.379   1.765 -0.6036  0.0235 -0.6448
 7086SOL     OW28075   3.865   4.743   1.785 -0.3868  0.3619 -0.2827
 7086SOL    HW228076   3.798   4.714   1.723 -0.9273 -0.9079  0.8402
 7086SOL    HW328077   3.904   4.661   1.817 -0.2894  0.9691  1.2168
 7086SOL    MW428078   3.861   4.728   1.781 -0.6554 -0.1709  1.0833
 7087SOL     OW28079   4.215   5.296   3.792 -0.2736 -0.0880 -0.2573
 7087SOL    HW228080   4.288   5.348   3.760  0.5140 -0.4653  0.8536
 7087SOL    HW328081   4.148   5.303   3.724  0.0541  1.8339 -0.4359
 7087SOL    MW428082   4.216   5.304   3.779 -0.1889  0.1378  0.0571
 7088SOL     OW28083   4.533   4.149   4.190 -0.1843  0.0915 -0.5261
 7088SOL    HW228084   4.468   4.085   4.218  1.3856 -1.7459 -0.8251
 7088SOL    HW328085   4.554   4.123   4.100 -0.1112  1.5744 -0.9545
 7088SOL    MW428086   4.528   4.137   4.182 -0.0616  0.3123 -0.5268
 7089SOL     OW28087   1.700   0.517   3.234  0.2628  0.2934  0.0322
 7089SOL    HW228088   1.656   0.432   3.238  0.0116  0.2362 -2.3885
 7089SOL    HW328089   1.628   0.581   3.237  0.4093  0.4098  1.2545
 7089SOL    MW428090   1.684   0.514   3.235  0.4148 -0.4743  0.5298
 7090SOL     OW28091   4.468   4.907   3.060 -0.0044  0.1636  0.3104
 7090SOL    HW228092   4.461   4.820   3.098 -0.8667  0.9893  2.2336
 7090SOL    HW328093   4.530   4.898   2.988  0.2557 -1.9269  0.7419
 7090SOL    MW428094   4.475   4.895   3.056 -0.3561 -0.1013 -0.1666
 7091SOL     OW28095   5.365   0.255   6.031  0.5964 -0.5038 -0.1454
 7091SOL    HW228096   5.318   0.296   6.104  1.1694 -0.4307  0.1948
 7091SOL    HW328097   5.455   0.287   6.041  0.6696 -0.4587 -0.9163
 7091SOL    MW428098   5.371   0.265   6.042  0.2727 -0.4800 -0.2383
 7092SOL     OW28099   4.431   5.167   4.549 -0.1997  0.1546 -0.0449
 7092SOL    HW228100   4.342   5.186   4.581  0.2563 -0.0358  1.4141
 7092SOL    HW328101   4.474   5.252   4.545 -1.1526  0.6160 -3.2214
 7092SOL    MW428102   4.425   5.181   4.552  0.0819 -0.4715 -0.7958
 7093SOL     OW28103   5.932   1.121   2.382 -0.5891 -0.2966  0.1924
 7093SOL    HW228104   5.917   1.215   2.371 -1.3865 -0.6668 -2.8135
 7093SOL    HW328105   5.879   1.096   2.458  1.0382  1.9099  2.1826
 7093SOL    MW428106   5.923   1.130   2.390 -0.5843  0.1238 -0.1030
 7094SOL     OW28107   4.328   0.306   2.275  0.3510 -0.0471 -0.0969
 7094SOL    HW228108   4.240   0.269   2.264  1.0644 -1.7649 -0.3728
 7094SOL    HW328109   4.362   0.263   2.354  0.1581  2.2925  1.3511
 7094SOL    MW428110   4.321   0.295   2.284  0.2174 -0.7361 -0.4595
 7095SOL     OW28111   5.152   4.640   1.685 -0.4886  0.1431 -0.1952
 7095SOL    HW228112   5.228   4.662   1.740  0.5556  1.7281 -2.1170
 7095SOL    HW328113   5.117   4.725   1.658 -2.1342 -0.5869 -0.4319
 7095SOL    MW428114   5.158   4.654   1.689 -0.3803  0.6474  0.8575
 7096SOL     OW28115   3.350   1.490   1.230 -0.3858  0.2835  0.2093
 7096SOL    HW228116   3.307   1.411   1.197 -0.0905 -0.0706  0.6643
 7096SOL    HW328117   3.295   1.519   1.303 -0.4312  0.4368  0.1151
 7096SOL    MW428118   3.337   1.483   1.235 -0.1882  0.2531 -0.5153
 7097SOL     OW28119   2.110   5.636   4.202  0.8399  0.2062  0.3212
 7097SOL    HW228120   2.087   5.545   4.183  0.1738  0.3888  0.2471
 7097SOL    HW328121   2.040   5.668   4.259 -0.2592  1.3808 -1.5700
 7097SOL    MW428122   2.098   5.628   4.207 -0.1213  0.1383  0.3849
 7098SOL     OW28123   3.696   1.813   4.981 -0.5795 -0.1276 -0.2250
 7098SOL    HW228124   3.758   1.789   4.912 -0.7440 -0.6595 -0.1909
 7098SOL    HW328125   3.654   1.893   4.949  1.2952  1.2168  0.4750
 7098SOL    MW428126   3.699   1.820   4.968 -0.3534  0.0907 -0.1271
 7099SOL     OW28127   2.358   4.799   0.887  0.1112 -0.1065  0.2211
 7099SOL    HW228128   2.451   4.820   0.889 -0.0921  0.8321  0.5287
 7099SOL    HW328129   2.315   4.883   0.906 -0.8225 -0.3032 -0.9318
 7099SOL    MW428130   2.365   4.813   0.890 -0.2790 -1.0226 -0.0776
 7100SOL     OW28131   6.326   2.169   4.023  0.2817 -0.1122  0.1100
 7100SOL    HW228132   6.346   2.260   4.042  1.9018 -0.0611 -1.6143
 7100SOL    HW328133   6.275   2.140   4.099  1.6871  1.5644  1.8046
 7100SOL    MW428134   6.322   2.177   4.036 -0.5364  0.2579  0.1607
 7101SOL     OW28135   0.738   2.366   3.746 -0.2506 -0.0661 -0.6655
 7101SOL    HW228136   0.770   2.456   3.749 -0.6891  0.1137  2.0926
 7101SOL    HW328137   0.643   2.374   3.755 -0.2611 -0.7870  0.0091
 7101SOL    MW428138   0.729   2.379   3.748  0.0861 -0.0485  0.3809
 7102SOL     OW28139   6.273   4.487   4.814 -0.0341  0.2208  0.3057
 7102SOL    HW228140   6.325   4.503   4.893 -0.2097  0.4865  0.3672
 7102SOL    HW328141   6.338   4.471   4.746  0.3691  4.3802 -0.5338
 7102SOL    MW428142   6.288   4.487   4.816 -0.0503  0.5359  0.2257
 7103SOL     OW28143   2.146   3.105   4.578 -0.4046 -0.0127 -0.1258
 7103SOL    HW228144   2.091   3.180   4.555 -1.4894 -1.1045 -1.2075
 7103SOL    HW328145   2.235   3.140   4.577 -0.9265  1.3838 -0.0619
 7103SOL    MW428146   2.151   3.120   4.575  0.4843  0.4509  0.3688
 7104SOL     OW28147   2.557   1.490   6.176  0.1673  0.0560  0.0293
 7104SOL    HW228148   2.485   1.518   6.119 -0.1608 -2.5416 -0.9548
 7104SOL    HW328149   2.633   1.485   6.118  0.5037  0.1016  0.4619
 7104SOL    MW428150   2.557   1.493   6.161 -0.1165  0.4459  0.7158
 7105SOL     OW28151   1.095   0.047   2.162 -0.2526 -0.5686 -0.0267
 7105SOL    HW228152   1.015   0.091   2.135 -0.4385 -1.0512 -0.2729
 7105SOL    HW328153   1.128   0.006   2.082  0.5903  0.1559 -0.0752
 7105SOL    MW428154   1.089   0.047   2.148  0.2845  0.4437 -0.1086
 7106SOL     OW28155   5.051   1.583   0.665 -0.0805  0.4550  0.2155
 7106SOL    HW228156   5.004   1.606   0.745 -0.2541 -1.0259  0.5668
 7106SOL    HW328157   5.116   1.653   0.654 -1.3189  1.6916  0.5798
 7106SOL    MW428158   5.054   1.595   0.674  0.1052 -0.2497 -0.0104
 7107SOL     OW28159   2.250   0.636   0.925  0.1008  0.0036 -0.1464
 7107SOL    HW228160   2.214   0.677   0.847 -0.3851  0.9742  0.5685
 7107SOL    HW328161   2.175   0.620   0.981  0.3557 -1.3605 -0.1603
 7107SOL    MW428162   2.236   0.639   0.922  0.1044 -0.3468 -0.2272
 7108SOL     OW28163   6.210   6.195   3.624 -0.2378  0.0209 -0.1248
 7108SOL    HW228164   6.278   6.258   3.605 -0.3200  0.3679  0.7011
 7108SOL    HW328165   6.134   6.248   3.649 -0.2991 -0.3876  0.5989
 7108SOL    MW428166   6.209   6.210   3.625 -0.0096 -0.0083  0.1653
 7109SOL     OW28167   0.903   6.289   0.120  0.0508 -0.3253 -0.1557
 7109SOL    HW228168   0.875   6.336   0.041  0.0041 -2.3220 -1.4004
 7109SOL    HW328169   0.973   6.343   0.156 -1.3997  1.7575 -0.2806
 7109SOL    MW428170   0.909   6.302   0.114 -0.2815 -0.2741 -0.3941
 7110SOL     OW28171   2.691   1.214   3.636 -0.4586 -0.2362  0.6707
 7110SOL    HW228172   2.689   1.308   3.649  0.2042 -0.2692  1.0616
 7110SOL    HW328173   2.654   1.201   3.548 -0.2675  0.4123  0.4886
 7110SOL    MW428174   2.686   1.224   3.626 -0.8622 -0.3840 -0.2378
 7111SOL     OW28175   5.344   4.031   2.869  0.2293  0.3174 -0.2286
 7111SOL    HW228176   5.300   4.029   2.784  0.7965  1.0493 -0.5445
 7111SOL    HW328177   5.433   4.061   2.850 -0.1017  2.1221  0.8188
 7111SOL    MW428178   5.350   4.035   2.856  0.7266 -0.2179 -0.2048
 7112SOL     OW28179   0.977   0.351   2.821  0.2093  0.3842 -0.3014
 7112SOL    HW228180   0.996   0.264   2.786 -0.1855  1.0047 -2.1279
 7112SOL    HW328181   1.010   0.347   2.911  0.6168 -1.4965 -0.4801
 7112SOL    MW428182   0.984   0.339   2.829  0.0872  0.0947 -0.1498
 7113SOL     OW28183   3.804   0.137   3.301 -0.2035 -0.0185  0.3091
 7113SOL    HW228184   3.731   0.193   3.275 -1.1929 -0.9262  1.0366
 7113SOL    HW328185   3.795   0.059   3.246 -1.8257 -1.5898  2.6217
 7113SOL    MW428186   3.793   0.134   3.290  0.1053 -0.6033  0.6811
 7114SOL     OW28187   3.717   1.411   4.452 -0.6486 -0.4063  0.2166
 7114SOL    HW228188   3.756   1.449   4.530  0.2127  0.0649 -0.4179
 7114SOL    HW328189   3.627   1.393   4.476 -0.1187 -1.2778  1.6497
 7114SOL    MW428190   3.711   1.414   4.465 -0.1756 -0.5758  0.1342
 7115SOL     OW28191   6.346   2.313   3.763 -0.1330  0.1777  0.0260
 7115SOL    HW228192   6.324   2.222   3.782  0.9558 -0.1490 -0.2389
 7115SOL    HW328193   6.429   2.309   3.716  0.5271  1.3741  1.0184
 7115SOL    MW428194   6.354   2.300   3.759  0.2792  0.2925 -0.0410
 7116SOL     OW28195   6.219   0.108   4.500 -0.0231  0.1897  0.2784
 7116SOL    HW228196   6.294   0.093   4.442 -0.7503 -0.6835 -0.4677
 7116SOL    HW328197   6.143   0.086   4.446 -0.7988  0.7093  1.1387
 7116SOL    MW428198   6.219   0.103   4.485 -0.7295  0.4170  0.4749
 7117SOL     OW28199   2.632   2.860   0.556  0.5099 -0.5410  0.2590
 7117SOL    HW228200   2.675   2.781   0.589  0.9990 -0.0064  0.9309
 7117SOL    HW328201   2.615   2.841   0.464 -0.4774 -1.8972  0.6737
 7117SOL    MW428202   2.635   2.847   0.548  0.4479  0.3459  0.0513
 7118SOL     OW28203   0.818   0.274   5.244  0.0650  0.7203 -0.3446
 7118SOL    HW228204   0.863   0.349   5.205 -1.0038  1.6721  0.2050
 7118SOL    HW328205   0.728   0.303   5.254 -0.5927 -0.9976 -1.0137
 7118SOL    MW428206   0.812   0.288   5.240 -0.4639  0.5408 -0.2197
 7119SOL     OW28207   4.222   3.934   5.537 -0.0116  0.1822  0.2584
 7119SOL    HW228208   4.224   3.843   5.507 -2.4491  0.5010 -1.1695
 7119SOL    HW328209   4.312   3.953   5.564  0.4576 -2.7537  1.0088
 7119SOL    MW428210   4.235   3.925   5.536 -0.6112  0.3559  0.1481
 7120SOL     OW28211   3.529   1.547   1.665  0.1596  0.0261  0.0140
 7120SOL    HW228212   3.522   1.591   1.750 -0.6275 -0.0947  0.0161
 7120SOL    HW328213   3.623   1.531   1.654  0.1659 -1.0256  1.4003
 7120SOL    MW428214   3.540   1.551   1.675  0.1396  0.0465 -0.1666
 7121SOL     OW28215   3.996   2.546   4.035 -0.0765  0.6900 -0.1012
 7121SOL    HW228216   3.958   2.579   3.953 -2.0628  0.2784  0.6030
 7121SOL    HW328217   3.997   2.622   4.093  0.4084  0.7565 -0.1977
 7121SOL    MW428218   3.991   2.561   4.032  0.0591  0.0069  0.2053
 7122SOL     OW28219   5.567   3.317   0.694  0.5042  0.1175 -0.3946
 7122SOL    HW228220   5.548   3.295   0.785  1.5334 -0.0404 -0.2091
 7122SOL    HW328221   5.488   3.292   0.646 -0.9242  2.1528  0.7302
 7122SOL    MW428222   5.554   3.311   0.699 -0.0564 -0.4039  0.5877
 7123SOL     OW28223   3.304   4.013   5.926  0.1746 -0.2699  0.2649
 7123SOL    HW228224   3.286   3.977   6.013  0.6056  1.2109  0.9961
 7123SOL    HW328225   3.370   4.080   5.941 -1.9546  2.1918 -0.7369
 7123SOL    MW428226   3.310   4.017   5.940  0.2848  0.5822 -0.7310
 7124SOL     OW28227   1.861   3.595   1.270  0.4339  0.2906 -0.0055
 7124SOL    HW228228   1.766   3.610   1.274  0.5508  1.1824 -0.4890
 7124SOL    HW328229   1.888   3.635   1.188  1.5249  1.6982  0.9959
 7124SOL    MW428230   1.852   3.602   1.260 -0.2768  0.0466  0.3336
 7125SOL     OW28231   5.767   3.469   0.209 -0.3260  0.1794  0.0849
 7125SOL    HW228232   5.771   3.453   0.114 -0.7069  1.5180 -0.1723
 7125SOL    HW328233   5.715   3.396   0.243 -0.2095 -0.3004 -0.7360
 7125SOL    MW428234   5.761   3.457   0.201 -0.3441 -0.9784 -0.1168
 7126SOL     OW28235   0.421   3.562   4.437  0.1159 -0.2479  0.1923
 7126SOL    HW228236   0.359   3.630   4.462  0.5127  0.4262 -0.6082
 7126SOL    HW328237   0.500   3.582   4.487  0.9254  1.1282 -1.5493
 7126SOL    MW428238   0.423   3.574   4.447 -0.0531 -0.5032  0.3048
 7127SOL     OW28239   2.665   3.658   1.481  0.3130 -0.7633 -0.3462
 7127SOL    HW228240   2.598   3.645   1.415  0.3483 -0.5996 -0.4148
 7127SOL    HW328241   2.658   3.581   1.538 -0.3409 -0.4543  0.0059
 7127SOL    MW428242   2.656   3.646   1.480  0.4784  0.2017  0.2827
 7128SOL     OW28243   3.431   4.626   2.573  0.5394  0.3143 -0.0288
 7128SOL    HW228244   3.351   4.677   2.568  1.4831  1.9350  0.8092
 7128SOL    HW328245   3.484   4.657   2.499  0.8590  0.0889  0.1017
 7128SOL    MW428246   3.427   4.637   2.562  0.4161 -0.0422  0.4538
 7129SOL     OW28247   4.454   4.903   1.167 -0.0630 -0.7379  0.1061
 7129SOL    HW228248   4.421   4.985   1.132  1.8705  0.2555  0.4820
 7129SOL    HW328249   4.424   4.837   1.105  0.0682  0.5195 -1.3509
 7129SOL    MW428250   4.446   4.905   1.154  0.8184  0.0233  0.1966
 7130SOL     OW28251   4.964   3.036   5.551  0.2874 -0.2880 -0.0680
 7130SOL    HW228252   4.894   3.101   5.557 -0.4326 -1.0283 -0.2379
 7130SOL    HW328253   4.980   3.010   5.642 -0.2417 -0.7138 -0.0917
 7130SOL    MW428254   4.957   3.041   5.564  0.8588  0.5628 -0.0244
 7131SOL     OW28255   4.672   1.806   3.265 -0.3278 -0.5653 -0.0079
 7131SOL    HW228256   4.733   1.756   3.211 -0.8560  1.1797 -2.4188
 7131SOL    HW328257   4.661   1.754   3.344  1.1599 -2.8812 -1.2138
 7131SOL    MW428258   4.679   1.793   3.269 -0.1660  0.6033  0.0448
 7132SOL     OW28259   2.736   0.801   4.448 -1.0315  0.4436 -0.4918
 7132SOL    HW228260   2.697   0.865   4.388 -0.3916  0.5295 -0.8239
 7132SOL    HW328261   2.830   0.818   4.444 -0.7861 -0.9063 -1.0372
 7132SOL    MW428262   2.744   0.812   4.440  0.3427  0.0523 -0.3103
 7133SOL     OW28263   5.334   2.405   3.411 -0.0441 -0.0278  0.1239
 7133SOL    HW228264   5.384   2.379   3.333  0.5536  0.5308  0.3099
 7133SOL    HW328265   5.243   2.385   3.389  0.2997 -1.5873 -0.0213
 7133SOL    MW428266   5.329   2.399   3.398  0.0869  0.0767  0.7329
 7134SOL     OW28267   0.332   5.591   5.817 -0.0449 -0.0782 -0.1757
 7134SOL    HW228268   0.282   5.570   5.738 -0.2345 -0.6530  0.0949
 7134SOL    HW328269   0.313   5.519   5.877 -1.2705  1.2080  1.0426
 7134SOL    MW428270   0.323   5.579   5.814  0.0651  0.4683 -0.2565
 7135SOL     OW28271   4.349   5.381   6.073  0.0915  0.5619  0.2405
 7135SOL    HW228272   4.330   5.432   6.152  1.5586 -0.1289  1.0903
 7135SOL    HW328273   4.379   5.445   6.009  0.0028  0.9967  0.6313
 7135SOL    MW428274   4.350   5.396   6.075  0.1671  0.5077  0.1260
 7136SOL     OW28275   5.431   1.217   1.511 -0.3910 -0.2065  0.3166
 7136SOL    HW228276   5.439   1.192   1.603  1.3844  1.1344  0.6017
 7136SOL    HW328277   5.362   1.284   1.510 -0.8499 -0.6728  0.5606
 7136SOL    MW428278   5.423   1.223   1.523  0.3933 -0.3682  0.1785
 7137SOL     OW28279   4.090   3.863   4.878  0.1307  0.6215  0.6187
 7137SOL    HW228280   4.066   3.872   4.970  0.6242 -0.9644  0.9292
 7137SOL    HW328281   4.008   3.839   4.834 -0.2962  2.2171  0.4574
 7137SOL    MW428282   4.076   3.861   4.884  0.5377  0.3512 -0.5487
 7138SOL     OW28283   3.910   2.456   3.498  0.1523  0.2682  0.4495
 7138SOL    HW228284   3.978   2.510   3.538  0.5777  0.1249 -0.0808
 7138SOL    HW328285   3.928   2.368   3.530  0.4456  0.1664  0.0129
 7138SOL    MW428286   3.921   2.451   3.508 -0.5614  0.2252 -0.3856
 7139SOL     OW28287   3.690   1.916   0.311 -0.3484  0.2158 -0.5072
 7139SOL    HW228288   3.740   1.835   0.316 -1.7183 -0.6996 -0.9171
 7139SOL    HW328289   3.753   1.983   0.285  1.2573 -0.2617  1.8582
 7139SOL    MW428290   3.705   1.914   0.308 -0.4173 -0.2979 -0.3008
 7140SOL     OW28291   3.880   0.257   1.339 -0.1302 -0.4656  0.5735
 7140SOL    HW228292   3.879   0.282   1.247 -2.6675  2.0668  1.1340
 7140SOL    HW328293   3.966   0.216   1.353  1.1760  1.0136 -2.3775
 7140SOL    MW428294   3.891   0.255   1.329 -0.1930 -0.1732 -0.6396
 7141SOL     OW28295   4.466   0.346   5.792  0.1022  0.6300 -0.3687
 7141SOL    HW228296   4.429   0.368   5.706  2.5476  0.0586 -1.6579
 7141SOL    HW328297   4.470   0.250   5.792  0.2428  0.6357  0.3444
 7141SOL    MW428298   4.461   0.336   5.780 -0.0516  0.0584 -0.5171
 7142SOL     OW28299   0.593   1.393   4.223 -0.5528  0.1773 -0.0072
 7142SOL    HW228300   0.635   1.473   4.191  0.2086  0.2487  1.1108
 7142SOL    HW328301   0.546   1.420   4.302 -0.5700 -0.4137  0.1923
 7142SOL    MW428302   0.592   1.407   4.229  0.4355  0.2867 -0.3546
 7143SOL     OW28303   4.078   5.717   4.663 -0.0492 -0.4047  0.3599
 7143SOL    HW228304   4.060   5.688   4.753 -1.7192  1.1605  0.5957
 7143SOL    HW328305   4.173   5.716   4.656  0.0956 -4.1054  0.8746
 7143SOL    MW428306   4.088   5.713   4.674 -0.8646 -0.0687 -0.1728
 7144SOL     OW28307   0.823   2.152   3.078 -0.1694  0.2162 -0.1368
 7144SOL    HW228308   0.905   2.194   3.104 -0.3878 -0.5038  1.9275
 7144SOL    HW328309   0.847   2.098   3.003  1.5767 -0.8851  1.1220
 7144SOL    MW428310   0.837   2.150   3.072 -0.0013 -0.3561  1.0977
 7145SOL     OW28311   3.843   1.135   0.781  0.1292 -0.1988 -0.0512
 7145SOL    HW228312   3.932   1.117   0.750 -0.5540 -0.2601 -2.1249
 7145SOL    HW328313   3.821   1.059   0.835  1.7847  0.4446  1.6489
 7145SOL    MW428314   3.852   1.123   0.784  0.2261  0.0156  0.2588
 7146SOL     OW28315   3.794   2.868   5.014 -0.0317 -0.2692 -0.6590
 7146SOL    HW228316   3.749   2.784   5.002 -0.4553 -0.0248 -0.7619
 7146SOL    HW328317   3.804   2.877   5.109  0.1930 -0.5280 -0.6555
 7146SOL    MW428318   3.790   2.858   5.025  0.4723 -0.3947  0.2275
 7147SOL     OW28319   4.705   0.427   2.332  0.0757 -0.5298  0.2612
 7147SOL    HW228320   4.627   0.481   2.318 -0.3366 -1.1571  0.1233
 7147SOL    HW328321   4.766   0.485   2.379 -0.4119  0.0094  0.2406
 7147SOL    MW428322   4.703   0.442   2.336  0.1848 -0.1623  0.5632
 7148SOL     OW28323   3.021   5.406   4.141 -0.3100 -0.0281  0.1681
 7148SOL    HW228324   2.927   5.421   4.128 -0.1074  1.8234  0.5251
 7148SOL    HW328325   3.027   5.316   4.170 -2.3141  0.6740  3.2271
 7148SOL    MW428326   3.009   5.396   4.143  0.2019 -0.6609 -0.0489
 7149SOL     OW28327   0.573   2.347   6.400 -0.2399  0.3176  0.0900
 7149SOL    HW228328   0.533   2.387   6.477 -1.8432  0.9951 -1.0137
 7149SOL    HW328329   0.523   2.384   6.326  0.2469 -1.4203 -1.1706
 7149SOL    MW428330   0.561   2.357   6.400  0.7552 -0.4096 -0.2411
 7150SOL     OW28331   4.987   5.776   0.878  0.3859 -0.1766  0.0736
 7150SOL    HW228332   5.082   5.767   0.866  0.3489 -2.4167  0.8615
 7150SOL    HW328333   4.976   5.787   0.973 -0.1008  1.0159 -0.1155
 7150SOL    MW428334   4.998   5.776   0.889  0.0886  0.5711 -0.1949
 7151SOL     OW28335   3.173   2.989   2.714 -0.8245 -0.0392  0.1247
 7151SOL    HW228336   3.138   3.045   2.645 -1.5806 -0.8242 -0.1451
 7151SOL    HW328337   3.100   2.933   2.740  0.0027 -1.1552  0.1256
 7151SOL    MW428338   3.159   2.989   2.709  0.0297  0.3685 -0.2260
 7152SOL     OW28339   5.670   6.195   6.267  0.3624 -0.3701 -0.0093
 7152SOL    HW228340   5.665   6.190   6.172  0.2262 -1.2547  0.0377
 7152SOL    HW328341   5.590   6.154   6.298 -0.7547  2.0198  0.4796
 7152SOL    MW428342   5.659   6.189   6.259 -1.0111 -0.2071  0.1818
 7153SOL     OW28343   2.955   3.565   4.747  0.0276  0.1686 -0.4883
 7153SOL    HW228344   2.985   3.568   4.838 -0.1901  1.3201 -0.4431
 7153SOL    HW328345   2.955   3.656   4.718  0.5092 -0.2203 -1.7895
 7153SOL    MW428346   2.959   3.577   4.755  0.5056  0.9409 -0.1866
 7154SOL     OW28347   0.896   2.778   2.933  0.3201 -0.1513  0.8072
 7154SOL    HW228348   0.849   2.811   2.856  1.2900  0.3997  0.4352
 7154SOL    HW328349   0.834   2.718   2.975 -0.4712  0.0611 -0.0237
 7154SOL    MW428350   0.881   2.774   2.929  0.4937 -0.6500  0.2465
 7155SOL     OW28351   4.327   5.407   3.210 -0.2597 -0.0445 -0.3001
 7155SOL    HW228352   4.418   5.392   3.235 -0.8261 -0.3372  1.8171
 7155SOL    HW328353   4.299   5.324   3.170 -0.3668 -1.0616  1.7218
 7155SOL    MW428354   4.335   5.394   3.208  0.2872 -0.4125  0.0909
 7156SOL     OW28355   5.758   4.263   6.234  0.1988 -0.5833  0.3570
 7156SOL    HW228356   5.739   4.215   6.315  0.8388 -1.4899 -0.0164
 7156SOL    HW328357   5.833   4.318   6.256 -0.1441 -0.2139  0.6096
 7156SOL    MW428358   5.765   4.264   6.248  0.1609 -0.7090 -0.2180
 7157SOL     OW28359   4.590   1.787   5.856  0.2688 -0.0965 -0.2035
 7157SOL    HW228360   4.592   1.855   5.924  0.4108 -2.1642  1.9856
 7157SOL    HW328361   4.499   1.760   5.852  0.1676  0.3566 -1.2651
 7157SOL    MW428362   4.579   1.793   5.865 -0.2118  0.5560  0.5249
 7158SOL     OW28363   1.549   1.249   4.645 -0.1836  0.1641  0.4804
 7158SOL    HW228364   1.515   1.163   4.620  0.5130 -0.5751  1.9892
 7158SOL    HW328365   1.628   1.260   4.592 -0.6038  0.1646 -0.1617
 7158SOL    MW428366   1.555   1.239   4.635 -0.0409  0.1973  0.2988
 7159SOL     OW28367   5.634   1.961   4.829  0.3775 -0.0125  0.3730
 7159SOL    HW228368   5.632   1.971   4.734 -1.0481  0.5459  0.4432
 7159SOL    HW328369   5.726   1.940   4.849  0.9962  1.2626 -0.9708
 7159SOL    MW428370   5.646   1.960   4.819 -0.4260  0.3782  0.7411
 7160SOL     OW28371   1.036   5.179   5.789  0.8496 -0.5620  0.0732
 7160SOL    HW228372   1.054   5.273   5.781 -2.2748  0.1819  0.6612
 7160SOL    HW328373   1.080   5.153   5.870  1.9233  0.3186 -0.2056
 7160SOL    MW428374   1.044   5.188   5.799 -0.1957 -0.5665 -0.3993
 7161SOL     OW28375   6.319   3.583   1.159  0.3428  1.0168 -0.1966
 7161SOL    HW228376   6.342   3.490   1.157 -0.3121  0.8580 -0.6070
 7161SOL    HW328377   6.303   3.602   1.251 -1.2724  0.2656 -0.2860
 7161SOL    MW428378   6.320   3.573   1.171  0.2349  0.0470 -0.4063
 7162SOL     OW28379   0.941   4.446   0.612  0.1847  0.2369 -0.1221
 7162SOL    HW228380   0.952   4.480   0.701 -1.3314  0.1903  0.1094
 7162SOL    HW328381   0.869   4.499   0.575  0.1649 -0.3743 -0.9800
 7162SOL    MW428382   0.933   4.458   0.619  0.1366 -0.4569  0.3862
 7163SOL     OW28383   5.970   3.625   4.606 -0.6630 -0.5757  0.5635
 7163SOL    HW228384   5.958   3.718   4.623 -0.1393 -0.2784 -0.5769
 7163SOL    HW328385   5.907   3.605   4.537 -0.0821 -0.8155  0.0876
 7163SOL    MW428386   5.960   3.634   4.599 -0.3142 -0.0990 -0.3664
 7164SOL     OW28387   5.061   2.536   6.070 -0.1187  0.0760  0.1310
 7164SOL    HW228388   4.976   2.551   6.029 -0.4664  2.2615  1.4400
 7164SOL    HW328389   5.121   2.520   5.997 -1.2123  1.0157 -1.0263
 7164SOL    MW428390   5.058   2.536   6.055  0.1488 -0.2291 -0.5025
 7165SOL     OW28391   1.990   4.722   2.995 -0.3225 -0.2627  0.5130
 7165SOL    HW228392   1.983   4.758   2.906 -1.0861 -2.1052 -0.2168
 7165SOL    HW328393   1.922   4.768   3.044  0.2533  0.9400  0.2229
 7165SOL    MW428394   1.980   4.733   2.990  0.1507 -0.2505 -0.2553
 7166SOL     OW28395   2.727   2.460   1.851  0.2886 -0.2681  0.0241
 7166SOL    HW228396   2.807   2.414   1.876 -0.7484 -1.7403  0.8489
 7166SOL    HW328397   2.659   2.392   1.854 -0.9722  0.9090 -0.7411
 7166SOL    MW428398   2.728   2.445   1.855 -0.0306  0.5584 -0.0258
 7167SOL     OW28399   4.074   1.998   1.845 -0.1362  0.8035 -0.3172
 7167SOL    HW228400   4.119   1.997   1.930  0.8220  1.2868 -0.8023
 7167SOL    HW328401   4.039   1.910   1.835 -2.9823  1.5093  1.9677
 7167SOL    MW428402   4.076   1.986   1.855  0.4123  0.0038 -0.2523
 7168SOL     OW28403   3.264   5.553   5.525 -0.1651  0.3097 -0.2723
 7168SOL    HW228404   3.339   5.558   5.465  0.3637 -0.8817  0.2647
 7168SOL    HW328405   3.265   5.463   5.558 -1.8333  0.2746 -0.2373
 7168SOL    MW428406   3.274   5.542   5.521  0.5529  0.6349  0.3743
 7169SOL     OW28407   0.733   1.076   2.711  0.6050 -0.0285  0.3666
 7169SOL    HW228408   0.697   0.988   2.698  0.0568  0.1988  0.3225
 7169SOL    HW328409   0.826   1.061   2.728  0.4305 -0.6589  0.8527
 7169SOL    MW428410   0.740   1.062   2.712 -0.2876  0.3788  0.9386
 7170SOL     OW28411   0.313   5.801   3.506  0.2843  0.8025 -0.4450
 7170SOL    HW228412   0.350   5.736   3.566  0.4408  0.9553 -0.3769
 7170SOL    HW328413   0.339   5.771   3.419  0.3269  0.7554 -0.4157
 7170SOL    MW428414   0.321   5.788   3.503 -0.5453 -0.0903  0.4838
 7171SOL     OW28415   0.852   1.338   0.975  0.6528  0.2593  0.0334
 7171SOL    HW228416   0.906   1.391   0.917  0.5340 -0.6937 -0.9821
 7171SOL    HW328417   0.774   1.392   0.991  0.1976  0.1388 -1.5704
 7171SOL    MW428418   0.849   1.352   0.969  0.3221 -0.1022  0.1050
 7172SOL     OW28419   4.303   0.208   4.827  0.1249 -0.0208 -0.1521
 7172SOL    HW228420   4.343   0.126   4.858  0.0564 -0.7735 -1.9226
 7172SOL    HW328421   4.242   0.180   4.758  2.3471  1.6658 -3.0394
 7172SOL    MW428422   4.301   0.193   4.822 -0.4684  0.1328 -0.1796
 7173SOL     OW28423   0.911   3.834   3.794 -0.0461 -0.3405  0.3307
 7173SOL    HW228424   0.849   3.871   3.857 -1.0078  1.6513 -1.6594
 7173SOL    HW328425   0.861   3.765   3.749  0.9420 -2.4570  2.2695
 7173SOL    MW428426   0.896   3.830   3.796 -0.2605  0.1538  0.1563
 7174SOL     OW28427   1.105   4.564   0.418  0.0354  0.0837  0.1841
 7174SOL    HW228428   1.055   4.530   0.492  0.2730  1.5428  1.0565
 7174SOL    HW328429   1.114   4.658   0.436 -0.9704  0.7314 -2.3170
 7174SOL    MW428430   1.100   4.572   0.430 -0.0941 -0.1754 -0.2255
 7175SOL     OW28431   6.171   5.482   2.200  0.4899 -0.0432 -0.3918
 7175SOL    HW228432   6.124   5.405   2.168  0.9612 -0.7708  0.6023
 7175SOL    HW328433   6.233   5.447   2.265  0.6995  1.1764  0.0940
 7175SOL    MW428434   6.173   5.467   2.204  0.1521  0.1625  0.6565
 7176SOL     OW28435   4.443   6.195   1.155 -0.2504 -0.1629 -0.3681
 7176SOL    HW228436   4.421   6.272   1.207  1.3192  0.0613 -0.0067
 7176SOL    HW328437   4.400   6.210   1.071  0.3879  1.3156 -0.4505
 7176SOL    MW428438   4.434   6.207   1.151 -0.1567 -0.5215 -0.1520
 7177SOL     OW28439   3.720   3.860   5.186 -0.3294  0.5200  0.2493
 7177SOL    HW228440   3.784   3.868   5.256  0.0607 -0.0181 -0.0364
 7177SOL    HW328441   3.738   3.933   5.128  0.2049  0.2202  0.0318
 7177SOL    MW428442   3.731   3.871   5.188  0.0961 -0.1612  0.1613
 7178SOL     OW28443   2.326   5.921   4.065  0.2307 -0.3724 -0.5940
 7178SOL    HW228444   2.353   5.869   3.989  1.1051  2.2699 -2.2464
 7178SOL    HW328445   2.253   5.975   4.032  0.2717  0.4427  0.6040
 7178SOL    MW428446   2.320   5.922   4.050  0.6399 -0.2701  0.3528
 7179SOL     OW28447   4.566   2.299   2.376 -0.4123  0.6357 -0.3074
 7179SOL    HW228448   4.519   2.360   2.320  0.5286  0.2327 -1.5664
 7179SOL    HW328449   4.656   2.300   2.343  0.1031  0.1689  1.0132
 7179SOL    MW428450   4.571   2.307   2.365 -0.2306 -0.1733  0.2758
 7180SOL     OW28451   2.332   5.078   4.425 -0.0067  0.2378 -0.2961
 7180SOL    HW228452   2.243   5.101   4.451 -0.1059 -0.5614  0.0978
 7180SOL    HW328453   2.376   5.054   4.507  0.5943  0.7104 -0.4772
 7180SOL    MW428454   2.326   5.078   4.439  0.0966 -0.1536 -0.6029
 7181SOL     OW28455   4.734   0.379   2.051 -0.3475 -0.6145 -0.1912
 7181SOL    HW228456   4.650   0.343   2.022 -1.6388  3.0987 -1.6891
 7181SOL    HW328457   4.717   0.413   2.138 -0.7138  0.8294 -0.7952
 7181SOL    MW428458   4.720   0.379   2.058 -0.4493  0.1178  0.1434
 7182SOL     OW28459   5.788   4.664   5.596  0.3255  0.3152  0.2899
 7182SOL    HW228460   5.879   4.686   5.616  0.1024  2.4636 -0.7861
 7182SOL    HW328461   5.794   4.592   5.533  1.1645 -1.1873  1.9871
 7182SOL    MW428462   5.801   4.657   5.591 -0.0804 -0.1420 -0.0780
 7183SOL     OW28463   4.930   4.780   5.597 -0.0562 -0.0418 -0.2492
 7183SOL    HW228464   5.001   4.750   5.654  0.2219  2.1524  0.6719
 7183SOL    HW328465   4.940   4.727   5.518  1.0260 -1.5304  0.8175
 7183SOL    MW428466   4.941   4.769   5.594 -0.1813 -0.0262 -0.2030
 7184SOL     OW28467   0.232   2.523   4.273  0.0792  0.0208  0.7444
 7184SOL    HW228468   0.214   2.610   4.238 -2.0350 -0.9526 -0.8623
 7184SOL    HW328469   0.233   2.534   4.368  2.7712  2.2282  0.5764
 7184SOL    MW428470   0.230   2.536   4.281 -0.1705  0.2332  0.0064
 7185SOL     OW28471   4.919   4.682   3.504 -0.3155  0.1287 -0.2546
 7185SOL    HW228472   4.967   4.613   3.550  0.5400 -0.0452 -1.3760
 7185SOL    HW328473   4.872   4.636   3.434 -0.7957  0.5201 -0.1984
 7185SOL    MW428474   4.919   4.667   3.501  0.2210  0.9391 -0.0668
 7186SOL     OW28475   6.426   3.634   6.371 -0.0449  0.1545  0.5567
 7186SOL    HW228476   6.333   3.635   6.350 -0.2339 -2.3985  0.9333
 7186SOL    HW328477   6.444   3.721   6.408 -2.3760  0.5360  0.9304
 7186SOL    MW428478   6.416   3.646   6.373 -0.0724 -0.1983 -0.0572
 7187SOL     OW28479   3.350   0.304   5.878  0.0730  0.2473  0.1018
 7187SOL    HW228480   3.414   0.370   5.906  1.3113 -0.9480  0.2173
 7187SOL    HW328481   3.345   0.243   5.952  0.7244 -1.0351 -0.8713
 7187SOL    MW428482   3.358   0.305   5.892  0.1075 -0.7308  0.0537
 7188SOL     OW28483   3.667   5.482   1.232 -0.4579  0.2638  0.3371
 7188SOL    HW228484   3.677   5.387   1.231 -1.3575  0.1406  1.6253
 7188SOL    HW328485   3.575   5.497   1.210 -0.4551  0.8053  0.6743
 7188SOL    MW428486   3.656   5.472   1.229 -0.0479  0.5729  0.4467
 7189SOL     OW28487   3.609   4.269   5.787 -0.5831  0.0397  0.3468
 7189SOL    HW228488   3.532   4.290   5.734  0.0298  1.1262 -0.1536
 7189SOL    HW328489   3.680   4.262   5.724 -0.0488  0.2266  0.9196
 7189SOL    MW428490   3.608   4.271   5.772 -0.2032  0.6830  0.7765
 7190SOL     OW28491   0.955   0.329   6.236 -0.1864  0.4192  0.0253
 7190SOL    HW228492   1.035   0.362   6.195 -0.7713 -0.2460 -1.7645
 7190SOL    HW328493   0.918   0.405   6.281  0.3230  1.3094 -0.9980
 7190SOL    MW428494   0.960   0.343   6.237  0.6002 -0.4614 -0.6080
 7191SOL     OW28495   2.480   4.586   3.014  0.0597 -0.0504 -0.2733
 7191SOL    HW228496   2.558   4.618   3.058 -0.9119  0.6523  1.0071
 7191SOL    HW328497   2.407   4.622   3.065 -1.2157  2.3562 -3.4545
 7191SOL    MW428498   2.480   4.595   3.027  0.1425 -0.0154 -0.4156
 7192SOL     OW28499   6.229   4.449   1.323  0.6785 -0.1721  0.2078
 7192SOL    HW228500   6.151   4.406   1.359  1.1036 -0.3394  0.9499
 7192SOL    HW328501   6.205   4.470   1.233 -1.0539  1.8288  1.0490
 7192SOL    MW428502   6.215   4.446   1.316 -0.5415 -0.1612  0.0610
 7193SOL     OW28503   3.444   2.605   4.377  0.0236  0.4057 -0.0364
 7193SOL    HW228504   3.483   2.532   4.424 -0.3569  0.2296  0.0116
 7193SOL    HW328505   3.443   2.677   4.440  0.8876  0.6167 -0.2496
 7193SOL    MW428506   3.449   2.605   4.392  0.4410 -0.1939  0.1414
 7194SOL     OW28507   4.568   5.676   5.478 -0.3436  0.1044 -0.0458
 7194SOL    HW228508   4.590   5.717   5.394 -0.9682 -2.1372 -1.3815
 7194SOL    HW328509   4.475   5.696   5.491 -0.1584  0.7575  0.3168
 7194SOL    MW428510   4.559   5.684   5.469 -0.0330  0.6011  0.3404
 7195SOL     OW28511   2.903   1.469   5.497 -0.2105 -0.5253 -0.2942
 7195SOL    HW228512   2.885   1.541   5.436 -2.8078 -0.7678  0.0571
 7195SOL    HW328513   2.916   1.511   5.581 -0.2089 -0.3789 -0.3674
 7195SOL    MW428514   2.902   1.484   5.500  0.1181  0.3923  0.0486
 7196SOL     OW28515   1.342   6.113   4.183 -0.7319 -0.1131 -0.4156
 7196SOL    HW228516   1.285   6.056   4.234  0.6154 -2.1282 -1.0471
 7196SOL    HW328517   1.372   6.058   4.110  2.6955  0.4993  0.3538
 7196SOL    MW428518   1.338   6.098   4.180 -0.1815  0.3300  0.0570
 7197SOL     OW28519   0.196   0.758   2.058  0.2394  0.0310 -0.6778
 7197SOL    HW228520   0.144   0.721   2.130  2.2501 -2.8751 -0.5452
 7197SOL    HW328521   0.243   0.831   2.098 -1.0543  0.4956  0.0728
 7197SOL    MW428522   0.195   0.763   2.073 -0.2214 -0.5354 -0.0389
 7198SOL     OW28523   3.744   2.179   5.888 -0.0436  0.5119 -0.3352
 7198SOL    HW228524   3.736   2.259   5.941  0.4959  2.5632 -3.0952
 7198SOL    HW328525   3.734   2.209   5.797  1.0374 -2.4442 -1.5732
 7198SOL    MW428526   3.742   2.194   5.883  0.0216 -0.3374 -0.1214
 7199SOL     OW28527   5.708   2.737   3.152 -0.4268  0.2876  0.0525
 7199SOL    HW228528   5.666   2.697   3.229  0.6571 -0.4489  0.2877
 7199SOL    HW328529   5.674   2.826   3.150 -0.0728  0.5076  1.7426
 7199SOL    MW428530   5.698   2.743   3.162  0.7708 -0.4175  0.3464
 7200SOL     OW28531   1.686   1.577   4.384  0.2442  0.6038 -0.6197
 7200SOL    HW228532   1.761   1.613   4.337  0.3080  0.2076 -0.8271
 7200SOL    HW328533   1.653   1.507   4.327  1.1389 -0.7813  0.4912
 7200SOL    MW428534   1.691   1.573   4.370 -0.1970 -0.4300 -0.4825
 7201SOL     OW28535   2.398   1.800   1.049 -0.1653  0.3233  0.0295
 7201SOL    HW228536   2.482   1.759   1.028 -0.8402 -1.2280  0.2318
 7201SOL    HW328537   2.352   1.734   1.101 -0.9916  1.6768  1.0469
 7201SOL    MW428538   2.403   1.786   1.053 -0.3016 -0.5343  0.6906
 7202SOL     OW28539   5.107   0.074   5.159 -0.3842  0.5784  0.3119
 7202SOL    HW228540   5.116   0.012   5.086  1.8182  2.1358 -0.8563
 7202SOL    HW328541   5.143   0.028   5.234  1.4899  0.4729 -0.5945
 7202SOL    MW428542   5.113   0.060   5.159 -0.0941  0.2049 -0.2002
 7203SOL     OW28543   3.833   2.160   0.238 -0.0095 -0.4623  0.0640
 7203SOL    HW228544   3.915   2.209   0.244  0.9033 -1.6898 -1.5036
 7203SOL    HW328545   3.792   2.192   0.157 -0.3974 -0.8129  0.1160
 7203SOL    MW428546   3.838   2.171   0.228 -0.2024 -0.2314 -0.1182
 7204SOL     OW28547   0.658   5.335   2.438  0.0392  0.0305  0.3280
 7204SOL    HW228548   0.629   5.426   2.439 -1.5914 -0.4566  0.3203
 7204SOL    HW328549   0.579   5.284   2.419  0.7884 -1.4319  0.9047
 7204SOL    MW428550   0.644   5.340   2.435  0.4967  0.3037  0.7510
 7205SOL     OW28551   3.891   5.601   2.345  0.5746  0.4689 -0.2110
 7205SOL    HW228552   3.881   5.507   2.330 -0.6638  0.7639 -1.4576
 7205SOL    HW328553   3.951   5.629   2.276  0.6346  0.6651 -0.0793
 7205SOL    MW428554   3.898   5.592   2.334  0.8813 -0.1007  0.3321
 7206SOL     OW28555   3.367   5.302   2.828  0.2195 -0.2172 -0.3941
 7206SOL    HW228556   3.287   5.289   2.878  0.1567  0.7530 -0.2152
 7206SOL    HW328557   3.385   5.217   2.788 -0.2448 -0.7565  0.5172
 7206SOL    MW428558   3.359   5.289   2.829 -0.2620 -0.2298  0.0509
 7207SOL     OW28559   2.151   2.705   4.735  0.8096  0.0629 -0.2608
 7207SOL    HW228560   2.140   2.620   4.777  0.3551  0.6841  0.9270
 7207SOL    HW328561   2.176   2.765   4.806 -1.2489  1.4166 -0.5885
 7207SOL    MW428562   2.153   2.702   4.749  0.4250 -0.0774 -0.1452
 7208SOL     OW28563   3.250   5.159   3.958  0.5854  0.6127 -0.0727
 7208SOL    HW228564   3.154   5.155   3.958  0.5704  0.1742 -2.1001
 7208SOL    HW328565   3.273   5.175   4.050 -1.3957  0.1221  0.5555
 7208SOL    MW428566   3.240   5.160   3.970 -0.7730 -0.4531  0.0552
 7209SOL     OW28567   3.928   3.338   3.573 -0.4692 -0.0952 -0.1060
 7209SOL    HW228568   3.865   3.349   3.502  0.4395 -1.9297 -1.2687
 7209SOL    HW328569   3.907   3.253   3.612  2.0084 -1.3928 -1.3849
 7209SOL    MW428570   3.917   3.328   3.569  0.0131 -0.6428  0.0415
 7210SOL     OW28571   0.826   2.459   0.052  0.2324  0.2043  0.3120
 7210SOL    HW228572   0.735   2.440   0.028  0.1113 -0.7341  1.4361
 7210SOL    HW328573   0.874   2.381   0.024  0.3642 -0.1499  1.4751
 7210SOL    MW428574   0.820   2.446   0.045 -0.0818  0.2184 -0.5553
 7211SOL     OW28575   5.554   3.692   4.442 -0.3367 -0.3497  0.1447
 7211SOL    HW228576   5.574   3.772   4.393  0.8398 -1.1366 -0.7310
 7211SOL    HW328577   5.539   3.722   4.531  0.1771  0.8447 -0.1439
 7211SOL    MW428578   5.555   3.707   4.447  0.3173  0.1768 -0.0404
 7212SOL     OW28579   0.194   2.580   2.883 -0.2074 -0.5634 -0.5782
 7212SOL    HW228580   0.185   2.591   2.977 -0.2074  0.2294 -0.6612
 7212SOL    HW328581   0.112   2.540   2.855  0.0432 -1.4032 -0.1687
 7212SOL    MW428582   0.182   2.576   2.892 -0.5461  0.4481 -0.1778
 7213SOL     OW28583   0.229   3.946   6.158 -0.3496 -0.0878  0.5451
 7213SOL    HW228584   0.230   3.851   6.152  1.4935 -0.0956  0.4756
 7213SOL    HW328585   0.307   3.975   6.111 -2.5225  1.6986 -2.3295
 7213SOL    MW428586   0.239   3.938   6.151 -0.4249 -0.4224  0.2435
 7214SOL     OW28587   4.818   3.780   3.698 -0.6701  0.2424  0.4188
 7214SOL    HW228588   4.845   3.858   3.650 -2.0602  0.3185 -0.2842
 7214SOL    HW328589   4.855   3.791   3.786  1.2803  0.4654 -0.3845
 7214SOL    MW428590   4.827   3.792   3.703  0.1137  0.3502 -0.3322
 7215SOL     OW28591   1.978   0.273   0.780 -1.1669  0.2509 -0.1849
 7215SOL    HW228592   1.915   0.311   0.842 -0.1850 -0.2071  1.1277
 7215SOL    HW328593   2.063   0.305   0.810 -0.6397 -0.2044 -1.1512
 7215SOL    MW428594   1.981   0.282   0.792  0.0220  0.2664 -0.1005
 7216SOL     OW28595   0.905   2.420   1.440 -0.1212  0.6615 -0.4733
 7216SOL    HW228596   0.894   2.484   1.369 -0.6021  0.0719 -0.9455
 7216SOL    HW328597   0.968   2.461   1.499 -1.8863  2.4664  0.2907
 7216SOL    MW428598   0.912   2.434   1.438 -0.8133 -0.0018 -0.2074
 7217SOL     OW28599   3.031   5.109   6.094 -0.5687 -0.0856 -0.6930
 7217SOL    HW228600   3.083   5.033   6.121 -0.8821 -0.0966 -0.1127
 7217SOL    HW328601   3.003   5.088   6.005  0.3754 -0.0973 -1.0069
 7217SOL    MW428602   3.034   5.096   6.086 -0.3966  0.1365 -0.6758
 7218SOL     OW28603   0.439   3.837   0.617  0.9890 -0.5167 -0.3860
 7218SOL    HW228604   0.480   3.924   0.621  0.4354 -0.2904  1.0352
 7218SOL    HW328605   0.505   3.778   0.654 -0.2107  0.0041  2.9621
 7218SOL    MW428606   0.454   3.841   0.622  0.8805  0.5338  1.0533
 7219SOL     OW28607   0.737   1.797   5.844  0.0239  0.0258 -0.3459
 7219SOL    HW228608   0.683   1.866   5.881  0.7382  1.3673 -1.6982
 7219SOL    HW328609   0.824   1.835   5.838  0.5612 -1.1948 -0.5968
 7219SOL    MW428610   0.741   1.811   5.848  0.4430 -0.1202 -0.1329
 7220SOL     OW28611   3.993   6.150   2.440  0.2245 -0.0178  0.0021
 7220SOL    HW228612   4.039   6.151   2.524  0.3610 -1.4710 -0.0345
 7220SOL    HW328613   4.057   6.180   2.377  1.1041 -1.8157 -0.0148
 7220SOL    MW428614   4.007   6.154   2.443  0.9100 -0.5944  0.9317
 7221SOL     OW28615   3.102   0.494   2.925  0.3369 -0.5122  0.3058
 7221SOL    HW228616   3.187   0.474   2.965  0.9755 -0.0166 -0.7504
 7221SOL    HW328617   3.106   0.452   2.839 -0.7258 -0.9555  0.4567
 7221SOL    MW428618   3.114   0.486   2.919 -0.1577 -0.1786  0.1541
 7222SOL     OW28619   1.899   3.903   1.504  0.0363  0.3867 -0.0825
 7222SOL    HW228620   1.871   3.880   1.592 -0.3708 -1.1113 -0.5750
 7222SOL    HW328621   1.932   3.821   1.467  0.3673  1.0299 -1.2576
 7222SOL    MW428622   1.900   3.889   1.511 -0.5167 -0.0512 -0.1258
 7223SOL     OW28623   2.104   2.578   4.048 -0.2897 -0.0837  0.1477
 7223SOL    HW228624   2.159   2.502   4.066 -0.8632 -0.9049 -1.3576
 7223SOL    HW328625   2.135   2.646   4.108  2.4626 -0.4324 -0.7696
 7223SOL    MW428626   2.115   2.577   4.058  0.4321 -0.0132  0.1617
 7224SOL     OW28627   5.579   0.092   1.279 -0.4457 -0.3092 -0.3355
 7224SOL    HW228628   5.530   0.117   1.357 -0.0290 -1.2682  0.2501
 7224SOL    HW328629   5.587  -0.003   1.285 -1.7269 -0.6139 -2.3283
 7224SOL    MW428630   5.574   0.083   1.290 -0.7883 -0.0919 -0.0874
 7225SOL     OW28631   4.743   1.398   0.824 -0.3855  0.2044  0.3331
 7225SOL    HW228632   4.695   1.330   0.777 -1.0948  1.1948 -0.4182
 7225SOL    HW328633   4.762   1.360   0.909 -1.5878 -0.6026  0.2593
 7225SOL    MW428634   4.739   1.384   0.829  0.2333  0.2778 -0.1491
 7226SOL     OW28635   2.107   3.973   2.020 -0.1872  0.5482  0.0417
 7226SOL    HW228636   2.179   3.910   2.022  0.5393  1.3707  0.7161
 7226SOL    HW328637   2.147   4.056   2.043 -1.6416  0.7086  2.3359
 7226SOL    MW428638   2.122   3.975   2.024 -0.4246  0.1247 -0.4252
 7227SOL     OW28639   3.065   4.600   4.576 -0.5447 -0.2415  0.0929
 7227SOL    HW228640   2.996   4.662   4.553 -1.2616 -1.1481 -0.2724
 7227SOL    HW328641   3.091   4.561   4.493  0.2522 -0.0735  0.2600
 7227SOL    MW428642   3.059   4.603   4.562  0.1479 -0.1784  0.2763
 7228SOL     OW28643   2.564   0.379   4.919  0.3166  0.0541  0.3380
 7228SOL    HW228644   2.636   0.356   4.978 -0.1964 -1.1584  0.5075
 7228SOL    HW328645   2.499   0.420   4.976  0.9717  1.4348  0.1357
 7228SOL    MW428646   2.565   0.382   4.934  1.0548 -0.3537  0.2240
 7229SOL     OW28647   0.824   0.364   2.197 -0.2200  0.1055  0.2958
 7229SOL    HW228648   0.795   0.317   2.276  1.0621 -4.4526 -1.5949
 7229SOL    HW328649   0.916   0.384   2.213 -0.4325  0.8729  0.6039
 7229SOL    MW428650   0.832   0.360   2.210  0.2427 -0.2135  0.7977
 7230SOL     OW28651   5.981   3.617   4.282 -0.0487 -0.0644  0.3689
 7230SOL    HW228652   6.064   3.580   4.313 -1.0821 -0.7541  2.4921
 7230SOL    HW328653   5.914   3.558   4.316 -1.4460  0.4115 -1.3970
 7230SOL    MW428654   5.983   3.605   4.290 -0.4488 -0.2493 -0.6157
 7231SOL     OW28655   6.134   6.370   4.959  0.4301  0.0242  0.7115
 7231SOL    HW228656   6.159   6.426   4.886 -0.1210  0.3994  0.8067
 7231SOL    HW328657   6.211   6.371   5.016  1.0517 -0.6747 -0.0940
 7231SOL    MW428658   6.147   6.378   4.957 -1.1346 -0.7352 -0.2442
 7232SOL     OW28659   2.726   2.613   5.812 -0.0325  0.7177  0.1474
 7232SOL    HW228660   2.670   2.648   5.742  1.7430  2.2662 -0.6015
 7232SOL    HW328661   2.680   2.634   5.893 -1.2485  0.5637 -0.4856
 7232SOL    MW428662   2.713   2.621   5.813 -0.1756 -0.1715 -0.0030
 7233SOL     OW28663   1.212   0.053   4.341 -0.3199 -0.2492  0.6436
 7233SOL    HW228664   1.164   0.126   4.304  1.2351  0.8445  0.7029
 7233SOL    HW328665   1.237   0.000   4.265  0.5308  0.5342  0.3614
 7233SOL    MW428666   1.209   0.055   4.326  0.9408 -0.1359  0.3587
 7234SOL     OW28667   4.316   4.203   1.231  0.7635 -0.1995 -0.2225
 7234SOL    HW228668   4.311   4.131   1.168  1.6914  1.2246 -2.0460
 7234SOL    HW328669   4.410   4.218   1.243  0.5940 -0.1640  1.2029
 7234SOL    MW428670   4.328   4.196   1.224  0.7008  0.2900  0.0979
 7235SOL     OW28671   4.320   3.721   6.320 -0.7024 -0.2882 -0.3010
 7235SOL    HW228672   4.234   3.695   6.352 -0.8819 -0.1780 -0.6910
 7235SOL    HW328673   4.323   3.816   6.332 -1.0764 -0.1283 -1.3073
 7235SOL    MW428674   4.309   3.730   6.325 -0.0018  0.0458  0.0239
 7236SOL     OW28675   0.830   4.606   5.551 -0.0377 -0.3789  0.2503
 7236SOL    HW228676   0.893   4.542   5.583  0.8365  0.0321 -0.5873
 7236SOL    HW328677   0.772   4.556   5.494  0.5528 -0.4685 -0.2882
 7236SOL    MW428678   0.831   4.591   5.548 -0.9458 -0.4962 -0.4569
 7237SOL     OW28679   4.572   2.425   4.784  0.3515 -0.6228  0.0430
 7237SOL    HW228680   4.566   2.406   4.878  1.5504  1.0926  0.5212
 7237SOL    HW328681   4.485   2.455   4.760 -0.1016 -1.5405  0.4768
 7237SOL    MW428682   4.560   2.426   4.793 -0.6194  0.0560  0.2268
 7238SOL     OW28683   0.685   3.322   4.016  0.2276 -0.3200  0.7710
 7238SOL    HW228684   0.614   3.385   4.007 -0.7661 -1.6162 -1.0895
 7238SOL    HW328685   0.677   3.289   4.105 -1.7405 -0.6731  0.5021
 7238SOL    MW428686   0.675   3.326   4.026 -0.3978  0.3362 -0.5943
 7239SOL     OW28687   1.792   1.927   4.735 -0.1296  0.0961 -0.7413
 7239SOL    HW228688   1.737   1.909   4.658  1.1739  1.3963 -2.0341
 7239SOL    HW328689   1.836   1.845   4.753 -1.4768 -0.6009 -0.5082
 7239SOL    MW428690   1.790   1.914   4.727  0.3415  0.7776 -0.1738
 7240SOL     OW28691   2.268   3.830   6.347  1.0700  0.1327  0.3044
 7240SOL    HW228692   2.276   3.909   6.400 -1.2381 -0.0315  0.9863
 7240SOL    HW328693   2.187   3.841   6.298  0.5568 -1.8930  0.5961
 7240SOL    MW428694   2.258   3.842   6.347  0.1489 -0.7049 -0.7213
 7241SOL     OW28695   3.006   1.677   1.830  0.1465 -0.4452  0.5021
 7241SOL    HW228696   3.099   1.669   1.807 -0.2591 -1.0868 -1.0068
 7241SOL    HW328697   3.004   1.747   1.896  1.4217  1.3600 -1.2628
 7241SOL    MW428698   3.018   1.685   1.836  0.5526 -0.1747  0.4893
 7242SOL     OW28699   4.904   5.317   0.899 -0.3296  0.1019  0.0175
 7242SOL    HW228700   4.876   5.403   0.866  0.2529 -0.3667 -1.8489
 7242SOL    HW328701   4.888   5.258   0.825 -0.4142 -1.3482  1.1595
 7242SOL    MW428702   4.898   5.321   0.885 -0.2768 -0.1025  0.9262
 7243SOL     OW28703   3.822   0.225   5.923 -0.5378  0.3135 -0.5809
 7243SOL    HW228704   3.852   0.236   5.832  0.8086 -1.2411 -0.3676
 7243SOL    HW328705   3.811   0.314   5.955  0.4145  0.9169 -1.8245
 7243SOL    MW428706   3.824   0.238   5.915  0.5201 -0.0363  0.0160
 7244SOL     OW28707   0.052   4.938   3.156 -0.9012 -0.4170  0.5405
 7244SOL    HW228708   0.122   4.874   3.169  0.2832  1.1496  2.4221
 7244SOL    HW328709  -0.018   4.910   3.215  0.3646  0.9413  2.8430
 7244SOL    MW428710   0.052   4.926   3.166  0.1225 -0.2250 -0.4823
 7245SOL     OW28711   0.893   5.975   0.426 -0.1187  0.0417 -0.5397
 7245SOL    HW228712   0.941   6.013   0.499 -1.5957  1.7206 -0.3587
 7245SOL    HW328713   0.828   5.918   0.467  0.1626 -0.3634 -0.6509
 7245SOL    MW428714   0.891   5.972   0.441 -0.7659 -0.0933  0.2487
 7246SOL     OW28715   0.670   0.328   4.180  0.9181  0.2267  0.2228
 7246SOL    HW228716   0.704   0.265   4.244  2.7963  0.0749 -0.8348
 7246SOL    HW328717   0.736   0.397   4.178 -0.3758  1.4992  0.2667
 7246SOL    MW428718   0.683   0.329   4.188 -0.4372 -0.1711  0.6117
 7247SOL     OW28719   2.994   5.945   0.806 -0.5309 -0.1660 -0.0736
 7247SOL    HW228720   2.951   5.866   0.839  0.4229 -1.2017 -1.2148
 7247SOL    HW328721   2.933   5.981   0.742 -0.6505 -0.3979 -0.0899
 7247SOL    MW428722   2.980   5.940   0.802 -0.0798  0.0308 -0.8566
 7248SOL     OW28723   1.050   5.594   4.684  0.0338  0.0607 -0.2170
 7248SOL    HW228724   1.143   5.609   4.667  0.1908 -1.1714 -0.4862
 7248SOL    HW328725   1.029   5.512   4.639 -1.1898  0.3101 -0.1585
 7248SOL    MW428726   1.059   5.585   4.676 -0.1635  0.0957 -0.4152
 7249SOL     OW28727   4.583   4.826   3.488  0.1498 -0.4392  0.0041
 7249SOL    HW228728   4.627   4.841   3.571 -0.2368  0.8269 -0.0076
 7249SOL    HW328729   4.490   4.815   3.511  0.1051 -0.5371 -0.2152
 7249SOL    MW428730   4.576   4.826   3.502 -0.0921 -0.4348  0.0476
 7250SOL     OW28731   0.852   1.749   2.900 -0.5118 -0.2525 -0.4834
 7250SOL    HW228732   0.769   1.749   2.947 -1.3316  0.1429 -1.8556
 7250SOL    HW328733   0.849   1.670   2.846  0.0475 -0.2825 -0.4775
 7250SOL    MW428734   0.841   1.738   2.899 -0.1541 -0.1705  0.5862
 7251SOL     OW28735   1.352   4.570   2.028 -0.3262  0.3308 -0.3542
 7251SOL    HW228736   1.414   4.506   2.064 -2.2974 -0.8230  1.2067
 7251SOL    HW328737   1.376   4.653   2.068 -0.4032 -0.3068  1.0588
 7251SOL    MW428738   1.363   4.572   2.038  0.3390 -0.5758 -0.7844
 7252SOL     OW28739   0.339   4.988   2.506 -0.7102  0.2742 -0.4162
 7252SOL    HW228740   0.412   4.949   2.555 -1.2905 -1.6659 -1.0248
 7252SOL    HW328741   0.270   4.999   2.571 -1.1865 -1.5046 -0.5760
 7252SOL    MW428742   0.340   4.984   2.521  0.1213 -0.3705  0.3876
 7253SOL     OW28743   1.993   3.790   5.399 -0.3682 -0.3647  0.1622
 7253SOL    HW228744   2.001   3.703   5.438  0.5705 -0.1382  0.5015
 7253SOL    HW328745   2.059   3.790   5.328  0.5843  0.5081  1.0147
 7253SOL    MW428746   2.003   3.778   5.395  0.0906  0.4380  0.4191
 7254SOL     OW28747   1.086   4.956   1.510 -0.1502  0.1150  0.0883
 7254SOL    HW228748   1.135   4.874   1.514 -0.2179  0.1174  2.0865
 7254SOL    HW328749   1.132   5.007   1.443  2.0793 -0.2181  1.2449
 7254SOL    MW428750   1.099   4.952   1.502  0.2410  0.5692  0.5846
 7255SOL     OW28751   3.648   1.124   1.775 -0.3119 -0.1128  0.1872
 7255SOL    HW228752   3.585   1.052   1.780  0.0695 -0.3912  1.2569
 7255SOL    HW328753   3.599   1.201   1.806 -0.6446  0.0514 -0.7149
 7255SOL    MW428754   3.633   1.125   1.780 -0.3874  0.1110 -0.5629
 7256SOL     OW28755   3.592   4.200   2.203  0.6604 -0.3869 -0.0972
 7256SOL    HW228756   3.586   4.204   2.298 -0.3218  0.3478 -0.1728
 7256SOL    HW328757   3.601   4.292   2.175 -0.3466 -0.4671 -0.7649
 7256SOL    MW428758   3.592   4.213   2.212 -0.0525 -0.7366  0.4349
 7257SOL     OW28759   4.407   1.545   2.400  0.0911 -0.4458 -0.0759
 7257SOL    HW228760   4.329   1.598   2.417  0.6022  1.7418 -3.4572
 7257SOL    HW328761   4.390   1.504   2.315  2.3507 -0.3841 -0.6241
 7257SOL    MW428762   4.395   1.547   2.391  0.6693  0.1438  0.4285
 7258SOL     OW28763   4.805   1.210   3.246  0.9931 -0.7542 -0.0151
 7258SOL    HW228764   4.756   1.277   3.293  0.9619 -1.3656  0.8620
 7258SOL    HW328765   4.846   1.256   3.172 -0.5447 -0.1528 -0.5244
 7258SOL    MW428766   4.804   1.225   3.242  0.4225  0.2465  0.5031
 7259SOL     OW28767   5.266   6.422   0.188  0.0675  0.0869 -0.1748
 7259SOL    HW228768   5.296   6.510   0.163 -1.2662  0.6376  0.0499
 7259SOL    HW328769   5.179   6.415   0.149  0.6700 -1.6668 -1.2895
 7259SOL    MW428770   5.258   6.433   0.179 -0.5429  0.5831 -0.2412
 7260SOL     OW28771   2.380   5.429   3.984 -0.2300 -0.0945 -0.0060
 7260SOL    HW228772   2.399   5.494   4.052  2.1354  0.1993 -0.8734
 7260SOL    HW328773   2.370   5.347   4.032  0.2642  0.2977  0.7908
 7260SOL    MW428774   2.381   5.427   3.999 -0.7044 -0.0556 -0.2399
 7261SOL     OW28775   0.718   2.741   3.346  0.0453 -0.1534 -0.3870
 7261SOL    HW228776   0.779   2.809   3.318 -0.6169  2.5200  3.7303
 7261SOL    HW328777   0.762   2.697   3.418 -2.4464  1.6842  2.5401
 7261SOL    MW428778   0.732   2.745   3.352  0.5220  0.4308 -0.6337
 7262SOL     OW28779   2.717   1.945   0.169 -0.1545  0.9546  0.2277
 7262SOL    HW228780   2.770   1.869   0.192 -1.6746 -0.2117  0.0801
 7262SOL    HW328781   2.685   1.926   0.080 -0.6197  1.7239  0.2219
 7262SOL    MW428782   2.719   1.932   0.160  0.7982  0.3007  0.4963
 7263SOL     OW28783   5.686   4.976   5.204 -0.1159  0.1539  0.4104
 7263SOL    HW228784   5.759   5.033   5.182 -0.2551 -0.0897 -0.7512
 7263SOL    HW328785   5.683   4.911   5.133 -1.7353  0.4396  0.1643
 7263SOL    MW428786   5.695   4.975   5.192 -0.3089  0.2945 -0.7173
 7264SOL     OW28787   5.523   1.141   1.223 -0.2004 -0.3151  0.2402
 7264SOL    HW228788   5.432   1.126   1.249  0.2168 -0.8701  1.4419
 7264SOL    HW328789   5.570   1.154   1.306  0.3511  2.8880 -0.4490
 7264SOL    MW428790   5.517   1.141   1.238  0.3906 -0.1468 -0.2087
 7265SOL     OW28791   3.521   1.584   0.511  0.0993 -0.3245  0.1133
 7265SOL    HW228792   3.556   1.651   0.569  1.1878 -0.5334 -0.2802
 7265SOL    HW328793   3.527   1.503   0.562  0.6659 -0.4392 -0.1252
 7265SOL    MW428794   3.527   1.582   0.525 -0.2281 -0.1450  0.4210
 7266SOL     OW28795   1.023   0.680   4.416  0.9151 -0.1638  0.4853
 7266SOL    HW228796   0.946   0.711   4.465  1.2823  1.8489 -0.0888
 7266SOL    HW328797   1.084   0.754   4.418  1.6731 -0.6597 -1.4403
 7266SOL    MW428798   1.021   0.694   4.423 -0.2275  0.0892 -0.0330
 7267SOL     OW28799   1.854   3.499   2.207  0.4665  0.1549  0.2952
 7267SOL    HW228800   1.793   3.432   2.176 -1.0012  0.2510  2.6745
 7267SOL    HW328801   1.859   3.562   2.135 -3.0554  0.5968  0.2637
 7267SOL    MW428802   1.846   3.499   2.193 -0.3042 -0.0859 -0.0773
 7268SOL     OW28803   1.190   2.059   4.163 -0.4001  0.3893  0.0084
 7268SOL    HW228804   1.187   2.033   4.071 -1.8588  2.3861 -0.5817
 7268SOL    HW328805   1.213   2.152   4.161 -1.2191  0.6581  1.6052
 7268SOL    MW428806   1.193   2.068   4.150  0.4504 -0.0092 -0.3757
 7269SOL     OW28807   5.777   3.571   6.335 -0.2513 -0.6552 -0.4769
 7269SOL    HW228808   5.812   3.583   6.246  1.2429 -0.5517  0.0956
 7269SOL    HW328809   5.683   3.562   6.322 -0.2018  0.5024 -1.9698
 7269SOL    MW428810   5.769   3.571   6.321 -0.1328 -0.0517  0.1278
 7270SOL     OW28811   4.395   0.158   2.496  0.2760 -0.0882 -0.3917
 7270SOL    HW228812   4.451   0.205   2.558 -0.5623  0.8917 -0.3632
 7270SOL    HW328813   4.425   0.067   2.501  2.5302  0.5594 -1.1125
 7270SOL    MW428814   4.406   0.152   2.505 -0.1690 -0.1845 -0.2751
 7271SOL     OW28815   3.688   3.436   6.230  0.2489 -0.1262  0.2292
 7271SOL    HW228816   3.719   3.516   6.186  1.2330 -0.0404  1.0504
 7271SOL    HW328817   3.731   3.365   6.183 -1.2077 -0.2526 -0.9864
 7271SOL    MW428818   3.698   3.438   6.218  0.3813 -0.0264  0.1410
 7272SOL     OW28819   3.144   4.961   3.111 -0.1236  0.0002  0.0786
 7272SOL    HW228820   3.151   5.055   3.092 -1.6848  0.3527  1.1137
 7272SOL    HW328821   3.151   4.955   3.206  0.7404 -1.0455 -0.0241
 7272SOL    MW428822   3.146   4.973   3.121  0.4080  0.2695  0.0832
 7273SOL     OW28823   3.903   4.713   3.861  0.1600 -0.2148  0.2610
 7273SOL    HW228824   3.980   4.770   3.868  1.4149 -1.6960 -0.8911
 7273SOL    HW328825   3.829   4.773   3.865  1.2961  1.1881  2.4209
 7273SOL    MW428826   3.903   4.728   3.863  0.2806 -0.1006  0.4123
 7274SOL     OW28827   2.494   4.860   5.532  0.5721 -1.0263 -0.2875
 7274SOL    HW228828   2.566   4.914   5.502 -0.9427 -0.1358 -2.5889
 7274SOL    HW328829   2.419   4.887   5.479 -1.9511 -0.7191  3.0857
 7274SOL    MW428830   2.493   4.870   5.521  0.2620 -0.5112  0.3597
 7275SOL     OW28831   0.324   1.516   0.014  0.6439 -0.0431 -0.2823
 7275SOL    HW228832   0.369   1.489   0.094  1.4535 -3.2791 -1.6511
 7275SOL    HW328833   0.237   1.478   0.021  0.5579  0.0682 -0.7422
 7275SOL    MW428834   0.319   1.507   0.025  0.0991  0.7441 -0.8579
 7276SOL     OW28835   3.909   0.540   3.317  0.2193  0.6815  0.2888
 7276SOL    HW228836   3.939   0.601   3.249  0.2886  1.2112  0.7868
 7276SOL    HW328837   3.966   0.463   3.307 -1.2550 -0.2427 -1.7529
 7276SOL    MW428838   3.921   0.538   3.307 -0.7953  0.5140 -0.5047
 7277SOL     OW28839   0.731   0.602   2.047 -0.2161 -0.2760  0.0444
 7277SOL    HW228840   0.756   0.540   2.115 -1.3136 -0.0351  0.6931
 7277SOL    HW328841   0.636   0.608   2.054 -0.2090  0.8087 -0.5942
 7277SOL    MW428842   0.722   0.595   2.056 -0.0563  0.1891  0.2680
 7278SOL     OW28843   2.808   3.915   1.406  0.1528  0.0809 -0.4455
 7278SOL    HW228844   2.753   3.839   1.424  0.3654  0.4389  1.9881
 7278SOL    HW328845   2.855   3.892   1.326  0.5731 -2.5615  0.4934
 7278SOL    MW428846   2.807   3.902   1.398 -0.3363 -0.0779 -0.1551
 7279SOL     OW28847   3.909   2.823   0.626  0.4812  0.2480  0.6689
 7279SOL    HW228848   3.860   2.748   0.661  2.6034  0.0492  3.6719
 7279SOL    HW328849   3.865   2.900   0.663 -0.9147  0.4986 -1.3612
 7279SOL    MW428850   3.897   2.823   0.636 -0.8272 -0.1498  0.6362
 7280SOL     OW28851   6.173   1.672   2.255 -0.1602 -0.2646 -0.6976
 7280SOL    HW228852   6.116   1.742   2.224  0.3603  0.5333  0.0943
 7280SOL    HW328853   6.262   1.706   2.242  0.1431 -1.2564 -1.3835
 7280SOL    MW428854   6.178   1.685   2.249  0.9078 -0.0623  0.1965
 7281SOL     OW28855   2.442   1.822   1.868 -0.0922  0.3116 -0.5951
 7281SOL    HW228856   2.412   1.850   1.954  1.2482 -0.0188  0.0040
 7281SOL    HW328857   2.447   1.903   1.817  1.6808  0.9472  0.4763
 7281SOL    MW428858   2.439   1.836   1.872  0.3251  0.9418  0.1942
 7282SOL     OW28859   3.466   6.098   1.152 -0.2994  0.4697  1.0036
 7282SOL    HW228860   3.375   6.128   1.155 -0.4510  0.1798 -0.1111
 7282SOL    HW328861   3.471   6.029   1.218 -1.1524 -0.1979  0.3902
 7282SOL    MW428862   3.454   6.093   1.161  0.5486 -0.1067  0.3303
 7283SOL     OW28863   2.171   1.270   0.412  0.0554 -0.0373  0.4960
 7283SOL    HW228864   2.250   1.318   0.435  0.8699 -0.9226 -0.3468
 7283SOL    HW328865   2.146   1.305   0.326  0.7811 -1.2356 -0.2269
 7283SOL    MW428866   2.178   1.281   0.403 -0.6714 -0.3320  0.6838
 7284SOL     OW28867   4.494   3.396   2.385  0.3944  0.4442  0.1094
 7284SOL    HW228868   4.493   3.416   2.291 -1.0064 -2.5793 -0.6319
 7284SOL    HW328869   4.574   3.344   2.397  0.0190 -0.0859  0.3459
 7284SOL    MW428870   4.505   3.392   2.374  0.6112  0.1253 -0.1248
 7285SOL     OW28871   5.853   0.441   4.369  0.0908 -0.1090 -0.4101
 7285SOL    HW228872   5.815   0.525   4.343  1.3142  0.8298  0.7138
 7285SOL    HW328873   5.783   0.398   4.419 -0.2375  0.6652 -0.1858
 7285SOL    MW428874   5.838   0.446   4.372 -0.4967 -0.1005 -0.4437
 7286SOL     OW28875   6.193   6.201   0.409  0.1962  0.2583 -0.0934
 7286SOL    HW228876   6.288   6.201   0.421  0.2737 -3.0788  0.2111
 7286SOL    HW328877   6.173   6.112   0.378 -3.1306 -0.2051  2.7973
 7286SOL    MW428878   6.203   6.189   0.406 -0.3471  0.0315  0.8526
 7287SOL     OW28879   1.138   4.198   6.054  0.4714  0.2325  0.4749
 7287SOL    HW228880   1.174   4.172   6.138  0.5796  0.0858  0.3851
 7287SOL    HW328881   1.075   4.129   6.033  0.0814  0.5330  0.6708
 7287SOL    MW428882   1.135   4.185   6.062  0.1044 -0.3612  0.6690
 7288SOL     OW28883   6.274   0.202   4.108 -0.1751  0.1564  0.4106
 7288SOL    HW228884   6.280   0.297   4.100  0.9426  0.1281  0.6459
 7288SOL    HW328885   6.340   0.180   4.174  0.7043 -0.9305 -0.7888
 7288SOL    MW428886   6.284   0.212   4.116  0.2986 -0.4249  0.1517
 7289SOL     OW28887   6.284   2.220   4.703 -0.4785  0.0562  0.2021
 7289SOL    HW228888   6.316   2.130   4.693 -1.2545 -0.0499 -1.7482
 7289SOL    HW328889   6.284   2.256   4.614 -0.2037  2.0086  0.9280
 7289SOL    MW428890   6.289   2.213   4.690  0.3684  0.3082  0.3516
 7290SOL     OW28891   5.533   6.130   3.884  0.8650 -0.2024 -0.3518
 7290SOL    HW228892   5.612   6.132   3.937 -0.1041 -3.6866  1.5129
 7290SOL    HW328893   5.470   6.184   3.932  0.6685 -1.5111  0.9044
 7290SOL    MW428894   5.535   6.137   3.897 -0.2496 -0.4056 -0.1863
 7291SOL     OW28895   2.467   0.951   5.693  0.6494 -0.0837 -0.2599
 7291SOL    HW228896   2.428   1.037   5.678  0.0135 -0.5822 -1.6033
 7291SOL    HW328897   2.408   0.908   5.755 -0.0027 -0.1932 -0.9443
 7291SOL    MW428898   2.454   0.956   5.699  0.2844 -0.0428  0.7083
 7292SOL     OW28899   6.204   5.785   4.218  0.1557  0.1667  0.7411
 7292SOL    HW228900   6.189   5.709   4.162 -2.8541  2.6212 -2.1546
 7292SOL    HW328901   6.129   5.787   4.277  0.7048  0.3918  1.4510
 7292SOL    MW428902   6.192   5.775   4.219  0.1240 -0.0325  0.2758
 7293SOL     OW28903   3.010   3.047   0.012  0.8149  0.6882  0.1944
 7293SOL    HW228904   2.990   2.983   0.080  0.8795  0.0357 -0.3894
 7293SOL    HW328905   2.964   3.127   0.039 -1.4012 -0.3191 -0.3310
 7293SOL    MW428906   3.001   3.049   0.024  0.8600  0.2829 -0.2378
 7294SOL     OW28907   0.299   2.394   4.967  0.2133 -0.1621 -0.4535
 7294SOL    HW228908   0.216   2.393   4.920 -1.0662  1.9755  1.4998
 7294SOL    HW328909   0.308   2.306   5.003 -0.9972 -0.5495 -1.0509
 7294SOL    MW428910   0.289   2.382   4.966 -0.4975  0.0468 -0.2924
 7295SOL     OW28911   1.915   4.541   2.566 -0.3598  0.0648  0.2128
 7295SOL    HW228912   1.890   4.543   2.474  1.8959  4.2380 -0.6095
 7295SOL    HW328913   1.996   4.490   2.568  1.8456  3.1399 -1.1535
 7295SOL    MW428914   1.923   4.535   2.554 -0.4507 -0.5336  0.3345
 7296SOL     OW28915   5.120   3.445   2.843  0.1007 -0.0208  0.0378
 7296SOL    HW228916   5.057   3.460   2.773 -0.4130  0.3877  0.5747
 7296SOL    HW328917   5.198   3.412   2.798  0.0465  0.9540 -0.8145
 7296SOL    MW428918   5.122   3.443   2.828 -0.4932  0.6837 -0.1787
 7297SOL     OW28919   5.134   1.773   4.243  0.3209  0.1209  0.4737
 7297SOL    HW228920   5.132   1.814   4.157 -2.5992 -1.1108 -0.1637
 7297SOL    HW328921   5.178   1.689   4.229  0.8172  0.3830  0.4426
 7297SOL    MW428922   5.140   1.767   4.230 -0.0828 -0.5054  0.0782
 7298SOL     OW28923   2.451   0.499   3.110  0.4465 -0.2506  0.1332
 7298SOL    HW228924   2.365   0.533   3.085  0.4064 -0.0037  0.5910
 7298SOL    HW328925   2.431   0.418   3.158  0.5321 -0.8394 -0.7911
 7298SOL    MW428926   2.437   0.493   3.113 -0.6080  0.5709  0.6148
 7299SOL     OW28927   3.418   2.738   3.066  0.1905 -0.4209 -0.4345
 7299SOL    HW228928   3.344   2.798   3.062  0.8614  0.4077 -0.6507
 7299SOL    HW328929   3.475   2.775   3.134 -0.2609 -1.8381  0.7761
 7299SOL    MW428930   3.416   2.751   3.075  0.9940 -0.1044  0.2619
 7300SOL     OW28931   5.163   5.173   4.478  0.7445 -0.6646 -0.4519
 7300SOL    HW228932   5.244   5.220   4.498  0.8261 -0.6247 -0.8687
 7300SOL    HW328933   5.182   5.127   4.396  0.5098 -1.0486 -0.2916
 7300SOL    MW428934   5.176   5.173   4.470  0.5961 -0.0243 -0.3480
 7301SOL     OW28935   0.445   2.532   3.531  0.6019 -0.0575 -0.6739
 7301SOL    HW228936   0.502   2.588   3.584 -1.0693  0.2694  0.9042
 7301SOL    HW328937   0.465   2.443   3.560  0.9643 -0.0197 -0.8088
 7301SOL    MW428938   0.455   2.527   3.542 -0.1932  0.8481 -0.0045
 7302SOL     OW28939   3.339   1.739   3.436 -0.1363 -0.1664 -0.1515
 7302SOL    HW228940   3.317   1.669   3.375  1.4347 -0.5059 -0.3487
 7302SOL    HW328941   3.387   1.804   3.383 -1.2283  0.9034  0.1108
 7302SOL    MW428942   3.342   1.739   3.421 -0.1536 -0.2873 -0.4410
 7303SOL     OW28943   0.097   3.693   1.488 -0.0538 -0.2283  0.2072
 7303SOL    HW228944   0.102   3.616   1.545 -2.7394 -0.6648 -0.0310
 7303SOL    HW328945   0.153   3.671   1.413  0.2279 -1.3989  0.7367
 7303SOL    MW428946   0.105   3.680   1.485 -0.0427  0.3125  0.1822
 7304SOL     OW28947   6.340   4.592   5.944 -0.1212  0.0395  0.3104
 7304SOL    HW228948   6.406   4.661   5.932  0.0909 -0.0624  0.8529
 7304SOL    HW328949   6.343   4.572   6.037 -0.0360 -0.8509  0.1305
 7304SOL    MW428950   6.349   4.598   5.954  0.1197  0.1352 -0.2812
 7305SOL     OW28951   4.414   1.621   3.812 -0.1069  0.0409  0.6359
 7305SOL    HW228952   4.392   1.636   3.720  2.3052 -1.2641 -0.2547
 7305SOL    HW328953   4.490   1.562   3.809 -0.0266 -0.1344  3.4794
 7305SOL    MW428954   4.421   1.615   3.799 -0.1775 -0.2655  0.2814
 7306SOL     OW28955   1.298   1.821   0.042  0.0366  0.0229  0.0396
 7306SOL    HW228956   1.266   1.735   0.014 -2.3249  0.0127  2.3939
 7306SOL    HW328957   1.377   1.801   0.092  0.6321 -0.5416 -1.0767
 7306SOL    MW428958   1.304   1.807   0.045  0.4012 -0.1330 -0.1057
 7307SOL     OW28959   4.741   4.391   3.317  0.0530  0.4876 -0.2270
 7307SOL    HW228960   4.836   4.383   3.309  0.0523  0.8005 -0.5593
 7307SOL    HW328961   4.724   4.485   3.306 -0.4218  0.2574 -1.5326
 7307SOL    MW428962   4.751   4.403   3.315 -0.5505  0.4049  0.2442
 7308SOL     OW28963   4.535   4.064   3.621 -0.4399  0.6522 -0.5493
 7308SOL    HW228964   4.448   4.103   3.632  0.7588  3.2073  0.6407
 7308SOL    HW328965   4.548   4.012   3.701 -0.4340  1.2464 -0.1542
 7308SOL    MW428966   4.525   4.062   3.633  0.1499 -0.3095 -0.0346
 7309SOL     OW28967   0.177   6.331   6.236 -0.3577  0.0555 -0.0689
 7309SOL    HW228968   0.237   6.399   6.266 -0.9545  0.4286  0.2913
 7309SOL    HW328969   0.170   6.269   6.309 -0.1419 -0.1705 -0.2391
 7309SOL    MW428970   0.184   6.332   6.249 -0.3036 -0.0329  0.6168
 7310SOL     OW28971   4.961   2.155   0.212  0.2258  0.3345  0.6412
 7310SOL    HW228972   4.947   2.158   0.117 -0.1214  1.3996  0.7153
 7310SOL    HW328973   4.992   2.243   0.234 -1.8427  0.8154  1.8375
 7310SOL    MW428974   4.963   2.167   0.202 -0.3874  0.0466 -0.4035
 7311SOL     OW28975   2.414   3.824   0.546  0.3492 -0.3304 -0.3813
 7311SOL    HW228976   2.425   3.919   0.544 -2.2657  0.0453 -2.4593
 7311SOL    HW328977   2.352   3.808   0.618 -1.9443  0.0334 -2.1579
 7311SOL    MW428978   2.407   3.834   0.556  0.5587  0.6496 -0.1831
 7312SOL     OW28979   2.768   5.855   3.099  0.0936  0.6619  0.2725
 7312SOL    HW228980   2.749   5.765   3.122 -3.8492  0.4379 -2.8951
 7312SOL    HW328981   2.806   5.851   3.011 -1.0385  2.0610 -0.3308
 7312SOL    MW428982   2.771   5.843   3.091  0.0801  0.0227  0.7261
 7313SOL     OW28983   5.658   0.371   2.501 -0.3011 -0.4234 -0.7644
 7313SOL    HW228984   5.596   0.298   2.502  0.1372 -0.7970  0.2944
 7313SOL    HW328985   5.636   0.419   2.421  0.1570 -2.3618 -2.1240
 7313SOL    MW428986   5.647   0.368   2.491  0.2884  0.4030 -0.4218
 7314SOL     OW28987   5.642   2.006   1.161  0.4710  0.2625  0.1078
 7314SOL    HW228988   5.553   2.008   1.195  0.6945  2.2415  0.7090
 7314SOL    HW328989   5.670   1.915   1.170 -0.9369 -0.0779  1.3614
 7314SOL    MW428990   5.634   1.994   1.166  0.5184 -0.1151  0.1117
 7315SOL     OW28991   4.401   0.423   0.633  0.1241  0.2368 -0.3871
 7315SOL    HW228992   4.445   0.381   0.707 -1.8201  0.4179  0.9425
 7315SOL    HW328993   4.308   0.401   0.645 -0.6480  2.8650 -0.9930
 7315SOL    MW428994   4.394   0.414   0.645 -0.2648  0.0951 -0.4830
 7316SOL     OW28995   1.792   1.344   4.852  0.0350  0.3856  0.0658
 7316SOL    HW228996   1.750   1.409   4.795 -0.0520  0.8878  0.6944
 7316SOL    HW328997   1.872   1.387   4.882  0.1466  0.0702  0.2213
 7316SOL    MW428998   1.797   1.358   4.848  0.0285 -0.0729  0.0550
 7317SOL     OW28999   0.181   4.635   6.384  0.4825  0.1026  0.1771
 7317SOL    HW229000   0.161   4.728   6.389  2.1182  0.4270  1.5161
 7317SOL    HW329001   0.107   4.592   6.427 -0.4550  0.7170 -0.7652
 7317SOL    MW429002   0.168   4.642   6.390  0.4812  0.1825  0.0746
 7318SOL     OW29003   3.317   1.234   2.212 -0.1347  0.0628 -0.6545
 7318SOL    HW229004   3.229   1.271   2.209 -0.6696 -0.7840  2.0332
 7318SOL    HW329005   3.319   1.171   2.139 -2.3200 -1.0102  0.1291
 7318SOL    MW429006   3.306   1.230   2.202 -0.5389 -0.0302 -0.1147
 7319SOL     OW29007   1.727   5.388   1.180  0.4320  0.4218 -0.6566
 7319SOL    HW229008   1.646   5.363   1.136  1.0695  0.4702 -1.8926
 7319SOL    HW329009   1.726   5.483   1.182 -0.2771  0.4195  0.7917
 7319SOL    MW429010   1.716   5.397   1.175  0.5281  0.0194  0.9554
 7320SOL     OW29011   3.461   1.187   0.909 -0.0639 -0.1569 -0.6405
 7320SOL    HW229012   3.445   1.093   0.914 -0.3035 -0.0479  2.3276
 7320SOL    HW329013   3.539   1.201   0.961  0.5348  1.2240 -1.8287
 7320SOL    MW429014   3.469   1.176   0.916  0.2321 -0.0863  0.1284
 7321SOL     OW29015   5.424   0.827   1.757 -0.4821  0.2306 -0.2262
 7321SOL    HW229016   5.512   0.797   1.779 -1.5874 -3.7562 -0.5483
 7321SOL    HW329017   5.415   0.811   1.664 -2.1045 -1.2067  0.1280
 7321SOL    MW429018   5.434   0.821   1.748  0.0126  0.0665 -0.6156
 7322SOL     OW29019   0.107   5.591   1.003  0.0087  0.2024 -0.0719
 7322SOL    HW229020   0.155   5.520   0.960  0.3978 -0.5417  1.5253
 7322SOL    HW329021   0.128   5.669   0.950  1.8909 -0.3476 -0.2088
 7322SOL    MW429022   0.116   5.592   0.990 -0.1392 -0.8391  0.1935
 7323SOL     OW29023   1.894   1.809   3.027 -0.0307 -0.1542 -0.7847
 7323SOL    HW229024   1.980   1.831   3.063 -0.0793 -0.4991 -0.4410
 7323SOL    HW329025   1.873   1.725   3.068 -0.8277  0.2498 -0.3424
 7323SOL    MW429026   1.903   1.801   3.037  0.1891  0.6777 -0.4157
 7324SOL     OW29027   1.152   5.803   0.720  0.6010  0.6686 -0.0046
 7324SOL    HW229028   1.146   5.767   0.631 -1.1711 -1.2281  0.7961
 7324SOL    HW329029   1.135   5.896   0.710  2.6016  0.9273 -1.8581
 7324SOL    MW429030   1.149   5.810   0.707 -0.3858 -0.5769  0.5945
 7325SOL     OW29031   1.259   0.313   3.333  0.3437 -0.3272 -0.0000
 7325SOL    HW229032   1.181   0.261   3.354  2.0237 -2.0550  2.4521
 7325SOL    HW329033   1.315   0.252   3.285  0.4761  0.7463 -1.2676
 7325SOL    MW429034   1.256   0.298   3.329 -0.4414  0.5742 -0.0904
 7326SOL     OW29035   4.196   3.343   3.462 -0.4851  0.2425 -0.7472
 7326SOL    HW229036   4.186   3.318   3.370  1.7353 -2.5502 -0.3645
 7326SOL    HW329037   4.106   3.352   3.494 -1.4657 -2.8419 -2.2330
 7326SOL    MW429038   4.183   3.341   3.454  0.1602 -0.0287 -0.3396
 7327SOL     OW29039   4.362   1.009   5.793  0.1377 -0.1602  1.0120
 7327SOL    HW229040   4.407   0.960   5.862 -1.8334 -2.1934  0.9833
 7327SOL    HW329041   4.269   0.998   5.813 -0.4836 -0.3545 -1.6115
 7327SOL    MW429042   4.356   1.001   5.805  0.6864  0.1818 -0.9482
 7328SOL     OW29043   3.274   6.348   5.509 -0.0802 -0.2273 -0.3492
 7328SOL    HW229044   3.311   6.429   5.544 -0.3208  0.0681 -0.7645
 7328SOL    HW329045   3.344   6.310   5.456  0.3707 -0.8071  0.6457
 7328SOL    MW429046   3.288   6.354   5.506 -0.0290  0.0720 -0.4015
 7329SOL     OW29047   3.576   2.358   0.739  0.5070 -0.4107  0.0801
 7329SOL    HW229048   3.559   2.352   0.834 -1.0403 -0.6750 -0.1859
 7329SOL    HW329049   3.489   2.362   0.700  1.1224 -0.7738 -1.3736
 7329SOL    MW429050   3.563   2.358   0.747 -0.0404 -0.1753 -0.8012
 7330SOL     OW29051   1.678   3.964   1.110  0.4079  0.2576 -0.3295
 7330SOL    HW229052   1.673   3.921   1.025  2.1173 -0.0575 -0.3143
 7330SOL    HW329053   1.622   4.041   1.101 -0.8246 -0.6887 -1.1402
 7330SOL    MW429054   1.670   3.968   1.097  0.0026 -0.7774  0.2000
 7331SOL     OW29055   5.200   5.535   2.092 -0.0122  0.2219 -0.4795
 7331SOL    HW229056   5.148   5.524   2.172 -0.7871  0.5626 -0.9230
 7331SOL    HW329057   5.287   5.505   2.116  0.1062  1.5666  0.8898
 7331SOL    MW429058   5.204   5.529   2.106  0.2525  0.1775  0.4290
 7332SOL     OW29059   2.122   2.630   6.163 -0.3397 -0.1972 -0.4366
 7332SOL    HW229060   2.142   2.591   6.078 -0.7818 -2.1731  0.3291
 7332SOL    HW329061   2.070   2.708   6.142  0.0918 -0.2906 -1.9797
 7332SOL    MW429062   2.118   2.635   6.149 -0.4577  0.0888  0.2359
 7333SOL     OW29063   6.116   5.056   5.991 -0.5044 -0.0096  0.3963
 7333SOL    HW229064   6.126   4.980   6.048  0.9523 -1.1944 -1.3510
 7333SOL    HW329065   6.034   5.041   5.945  0.1535 -0.9457 -0.5029
 7333SOL    MW429066   6.107   5.044   5.993  0.5270  0.0198 -0.5146
 7334SOL     OW29067   2.962   6.257   2.652 -0.3800 -0.0230 -0.3857
 7334SOL    HW229068   2.891   6.304   2.609 -0.8648 -0.6125 -0.2341
 7334SOL    HW329069   2.947   6.271   2.745 -1.0513 -1.1996 -0.2931
 7334SOL    MW429070   2.951   6.265   2.659  0.5145 -0.0233  0.0181
 7335SOL     OW29071   4.115   0.513   2.958  0.4652 -0.3769  0.3574
 7335SOL    HW229072   4.023   0.542   2.959  0.3313 -0.3804 -2.6046
 7335SOL    HW329073   4.110   0.418   2.947  0.6903 -0.1617 -2.3090
 7335SOL    MW429074   4.102   0.505   2.957  0.2872  0.4193  0.0908
 7336SOL     OW29075   0.386   1.580   5.936  0.6874 -0.3494  0.2942
 7336SOL    HW229076   0.373   1.525   6.013  0.6502 -1.1380 -0.2586
 7336SOL    HW329077   0.385   1.669   5.969 -2.0344 -0.5080  0.8724
 7336SOL    MW429078   0.384   1.584   5.950  0.0197 -0.5987 -0.2663
 7337SOL     OW29079   4.675   2.848   2.694 -0.3441 -0.2297 -0.3393
 7337SOL    HW229080   4.596   2.879   2.740 -0.3610 -0.5291 -0.1654
 7337SOL    HW329081   4.702   2.770   2.743  0.4892  0.2920  0.0645
 7337SOL    MW429082   4.668   2.842   2.707 -0.3915 -0.0387  0.3965
 7338SOL     OW29083   0.822   0.725   4.603 -0.6353 -0.1066  1.1451
 7338SOL    HW229084   0.736   0.711   4.563 -0.8075  0.9147  1.1184
 7338SOL    HW329085   0.836   0.649   4.658 -1.2657 -0.6022  0.6336
 7338SOL    MW429086   0.813   0.713   4.605  0.5058  0.1027  0.5320
 7339SOL     OW29087   3.922   5.222   1.174 -0.0077  0.5761  0.0090
 7339SOL    HW229088   3.847   5.163   1.180  1.1786 -1.0047 -0.1507
 7339SOL    HW329089   3.998   5.164   1.167  1.1167  2.1284 -1.3999
 7339SOL    MW429090   3.922   5.207   1.174 -0.5741 -0.3057  0.3239
 7340SOL     OW29091   5.702   1.789   0.831  0.3814  0.0240  0.2125
 7340SOL    HW229092   5.650   1.864   0.858  1.9377  1.0399  0.5094
 7340SOL    HW329093   5.695   1.727   0.904 -2.2361 -0.8972 -0.7172
 7340SOL    MW429094   5.694   1.791   0.845  0.3143  0.0146  0.1823
 7341SOL     OW29095   3.752   0.853   1.535  0.0762 -0.1183 -0.3903
 7341SOL    HW229096   3.667   0.821   1.566 -0.1046  0.5987 -0.1222
 7341SOL    HW329097   3.811   0.841   1.609  0.6029 -2.0545 -1.0733
 7341SOL    MW429098   3.748   0.847   1.549 -0.2255 -0.0864 -0.8220
 7342SOL     OW29099   0.923   1.638   4.380 -0.4970  0.2088  0.1928
 7342SOL    HW229100   0.890   1.570   4.438 -3.0757  0.4012 -0.8928
 7342SOL    HW329101   1.005   1.602   4.345 -2.2899 -2.9295 -1.2000
 7342SOL    MW429102   0.930   1.625   4.383  0.1446 -0.8109 -0.1291
 7343SOL     OW29103   0.842   5.460   4.125  0.3681  0.2242 -0.0514
 7343SOL    HW229104   0.918   5.415   4.161  0.4739  0.7220  0.3627
 7343SOL    HW329105   0.852   5.451   4.030  1.3516  0.9260 -0.0302
 7343SOL    MW429106   0.853   5.453   4.117  0.1948 -0.0360 -0.8920
 7344SOL     OW29107   1.192   5.372   1.572 -0.0522 -0.0015  0.0116
 7344SOL    HW229108   1.276   5.326   1.567 -0.4324 -0.6371 -0.6248
 7344SOL    HW329109   1.134   5.311   1.616 -0.3598  0.1784 -0.1419
 7344SOL    MW429110   1.195   5.358   1.577 -0.0345  0.2697 -0.2767
 7345SOL     OW29111   6.016   0.711   4.656  0.0451  0.0032  0.0942
 7345SOL    HW229112   6.033   0.623   4.624  0.1686 -0.4631  1.3934
 7345SOL    HW329113   5.938   0.703   4.710 -0.4434  0.8673 -0.4488
 7345SOL    MW429114   6.008   0.698   4.659 -0.8954 -0.1970  0.1349
 7346SOL     OW29115   4.474   5.732   1.845  0.3171  0.1098  0.4642
 7346SOL    HW229116   4.379   5.725   1.833  0.3747 -0.4750  0.2893
 7346SOL    HW329117   4.485   5.792   1.918 -0.1769  0.4791  0.2415
 7346SOL    MW429118   4.463   5.739   1.853  0.5068  0.2001  0.2981
 7347SOL     OW29119   3.584   1.221   2.788  0.2826  0.3184  0.1771
 7347SOL    HW229120   3.514   1.211   2.723  0.2957  0.5996  0.1185
 7347SOL    HW329121   3.653   1.268   2.742  0.6029 -0.1471  0.1718
 7347SOL    MW429122   3.584   1.226   2.773  0.0209  0.5544  0.2698
 7348SOL     OW29123   3.049   0.021   1.567 -0.1960 -0.0938  0.2645
 7348SOL    HW229124   3.073  -0.058   1.520 -2.0243 -0.2046 -0.5950
 7348SOL    HW329125   3.063   0.001   1.659  1.6445 -0.5388 -0.0734
 7348SOL    MW429126   3.054   0.008   1.573 -0.1789  0.6226  0.7495
 7349SOL     OW29127   3.163   3.469   5.531  0.1887 -0.1080  0.5082
 7349SOL    HW229128   3.239   3.435   5.578  1.8136  0.8545 -1.3091
 7349SOL    HW329129   3.199   3.516   5.456 -2.0528  2.5568  0.8928
 7349SOL    MW429130   3.178   3.471   5.527  0.5585 -0.1407  0.1480
 7350SOL     OW29131   0.124   4.293   1.855  0.1608  0.5737 -0.1688
 7350SOL    HW229132   0.161   4.375   1.889  0.6128 -0.3412  1.6470
 7350SOL    HW329133   0.096   4.245   1.933  0.6598 -1.3695 -1.1368
 7350SOL    MW429134   0.125   4.298   1.870 -0.2397 -0.0296 -0.0475
 7351SOL     OW29135   5.138   0.342   5.193  0.2854  0.3304 -0.0369
 7351SOL    HW229136   5.137   0.250   5.168 -2.0784  0.0726  0.7358
 7351SOL    HW329137   5.128   0.390   5.111  0.9165 -0.1096 -0.3793
 7351SOL    MW429138   5.137   0.336   5.179  0.2478 -0.3299  0.6602
 7352SOL     OW29139   3.523   2.790   2.513 -0.3760 -0.1647  0.2925
 7352SOL    HW229140   3.531   2.852   2.441 -3.0269  0.7405  0.6962
 7352SOL    HW329141   3.544   2.842   2.591 -1.5254 -0.0445  0.5296
 7352SOL    MW429142   3.527   2.805   2.514  0.0090 -0.3473  0.8399
 7353SOL     OW29143   3.412   0.828   5.077  0.6383  0.2891  0.2174
 7353SOL    HW229144   3.383   0.882   5.003 -0.9551 -2.0326 -0.9442
 7353SOL    HW329145   3.463   0.758   5.038  0.1735 -0.7190  1.3434
 7353SOL    MW429146   3.415   0.826   5.062 -0.3795  0.1870  0.6882
 7354SOL     OW29147   2.866   1.277   6.204  0.2528  0.1291 -0.4309
 7354SOL    HW229148   2.891   1.338   6.273  1.2249  0.1102 -0.7604
 7354SOL    HW329149   2.824   1.204   6.251  0.0896  0.5335  0.0555
 7354SOL    MW429150   2.864   1.275   6.219  0.6724 -0.1554 -0.0338
 7355SOL     OW29151   0.054   1.059   1.254 -0.4065  0.3445  0.2529
 7355SOL    HW229152  -0.040   1.079   1.255 -0.2004  1.5762 -1.1404
 7355SOL    HW329153   0.086   1.098   1.173  1.2203 -0.5705  0.4069
 7355SOL    MW429154   0.046   1.067   1.243  0.3120 -0.5604 -0.0036
 7356SOL     OW29155   5.786   4.604   0.681  0.2521  0.4910  0.3744
 7356SOL    HW229156   5.821   4.529   0.729 -0.2384  1.0502  1.6301
 7356SOL    HW329157   5.769   4.670   0.748 -3.0363  0.3342 -0.1455
 7356SOL    MW429158   5.789   4.603   0.696  0.1633  0.9686  0.1646
 7357SOL     OW29159   3.862   6.074   2.849  0.3229  0.1990 -0.5151
 7357SOL    HW229160   3.766   6.078   2.842  0.2061 -0.0571  0.6818
 7357SOL    HW329161   3.878   6.004   2.912  1.2626  0.8736  0.0172
 7357SOL    MW429162   3.851   6.065   2.857 -0.4047 -0.2047  0.1282
 7358SOL     OW29163   1.498   2.480   0.835  0.0789  0.2490  0.2057
 7358SOL    HW229164   1.542   2.440   0.761 -0.6240 -0.3801  0.1210
 7358SOL    HW329165   1.552   2.456   0.911 -0.0378 -0.3897  0.0879
 7358SOL    MW429166   1.511   2.472   0.836  0.0479  0.2020 -0.4207
 7359SOL     OW29167   0.579   3.005   2.327  0.0028 -0.1342  0.2180
 7359SOL    HW229168   0.658   3.030   2.278  0.3176 -1.2941  0.1207
 7359SOL    HW329169   0.604   3.015   2.419  1.5891 -4.0415  0.3854
 7359SOL    MW429170   0.593   3.010   2.333  0.3254  0.3396 -0.5383
 7360SOL     OW29171   4.654   5.198   6.299  0.1463 -0.1302 -0.1967
 7360SOL    HW229172   4.657   5.241   6.385 -1.1239  2.0048 -1.1419
 7360SOL    HW329173   4.561   5.181   6.284  0.3941 -0.8144 -1.0049
 7360SOL    MW429174   4.642   5.202   6.308  0.0201 -0.3489 -0.6041
 7361SOL     OW29175   6.117   2.842   1.394  0.3023  0.3471 -0.5395
 7361SOL    HW229176   6.090   2.750   1.406 -1.2741  0.9955  1.5027
 7361SOL    HW329177   6.189   2.854   1.456 -0.9774  1.0011  0.9074
 7361SOL    MW429178   6.123   2.831   1.404  0.0319  0.4526  0.1212
 7362SOL     OW29179   0.167   1.664   0.594  0.3715 -0.1037 -0.4421
 7362SOL    HW229180   0.157   1.640   0.502  0.7134  0.5938 -0.6672
 7362SOL    HW329181   0.261   1.662   0.610  0.3363  0.0923 -0.2002
 7362SOL    MW429182   0.178   1.661   0.584  0.1112 -0.2564  0.5602
 7363SOL     OW29183   2.976   5.124   1.437  0.2848  0.1134  0.8905
 7363SOL    HW229184   2.988   5.148   1.345  2.6610  0.4861  1.2368
 7363SOL    HW329185   3.032   5.048   1.450 -0.6639 -0.4465  1.8585
 7363SOL    MW429186   2.985   5.117   1.427 -0.4484 -0.2140  0.5890
 7364SOL     OW29187   1.854   6.050   2.017  0.0694  0.3969  0.1679
 7364SOL    HW229188   1.814   6.021   1.935 -0.8539 -2.8822  1.6255
 7364SOL    HW329189   1.780   6.075   2.072  0.3490 -0.7860  1.1301
 7364SOL    MW429190   1.839   6.049   2.013  0.1279 -0.5110 -0.1363
 7365SOL     OW29191   0.939   3.399   1.371  0.0465  0.5257  0.5626
 7365SOL    HW229192   0.939   3.490   1.400 -1.4239  0.2983  1.3256
 7365SOL    HW329193   1.019   3.392   1.317  0.8026  1.9407  1.4277
 7365SOL    MW429194   0.950   3.410   1.367  0.0776  0.1930 -0.1730
 7366SOL     OW29195   6.347   6.201   0.980  0.4380 -0.1117 -0.4344
 7366SOL    HW229196   6.276   6.261   1.002 -0.8214 -1.7890  0.2034
 7366SOL    HW329197   6.426   6.244   1.014 -0.0495  2.2835 -2.0633
 7366SOL    MW429198   6.348   6.215   0.987 -0.0095  0.3873  0.1143
 7367SOL     OW29199   2.746   2.168   1.001  0.1511  0.7015  0.1643
 7367SOL    HW229200   2.751   2.241   1.063  3.0248 -1.4815  2.8251
 7367SOL    HW329201   2.692   2.103   1.046  1.4044 -0.5145 -0.0156
 7367SOL    MW429202   2.740   2.169   1.015 -0.3063 -0.1768 -0.0568
 7368SOL     OW29203   4.969   0.093   4.069  0.3624 -0.0017 -0.3786
 7368SOL    HW229204   5.063   0.107   4.081  0.3897 -0.5558  0.0840
 7368SOL    HW329205   4.963   0.024   4.003  0.2738  0.1235 -0.5038
 7368SOL    MW429206   4.980   0.086   4.062  0.4435  0.1702 -0.2915
 7369SOL     OW29207   4.395   0.626   4.178  0.0394  0.1253 -0.2089
 7369SOL    HW229208   4.452   0.659   4.247  0.3967  0.6936 -0.7596
 7369SOL    HW329209   4.444   0.641   4.097 -1.5598  2.2603 -0.8799
 7369SOL    MW429210   4.409   0.632   4.176  0.5282  0.1727  0.9565
 7370SOL     OW29211   0.807   1.048   4.961 -0.2227 -0.0942 -0.4908
 7370SOL    HW229212   0.785   0.958   4.987  0.2355 -0.2876 -0.7498
 7370SOL    HW329213   0.824   1.042   4.867  1.0524  0.0027 -0.2886
 7370SOL    MW429214   0.807   1.035   4.952  0.2698 -0.3799  0.2676
 7371SOL     OW29215   0.376   1.848   0.824 -0.5678 -0.0319  0.6693
 7371SOL    HW229216   0.299   1.829   0.877 -0.1337  2.7353  2.4736
 7371SOL    HW329217   0.356   1.933   0.783  0.4183 -0.6102 -1.1335
 7371SOL    MW429218   0.363   1.857   0.825 -1.3018  0.3577 -0.0392
 7372SOL     OW29219   1.539   5.650   5.476 -0.3490 -0.5116  0.4000
 7372SOL    HW229220   1.473   5.679   5.539 -0.2963 -2.5290  1.4713
 7372SOL    HW329221   1.491   5.595   5.415  0.0459 -0.5897  0.1566
 7372SOL    MW429222   1.524   5.647   5.477  0.0003  0.2270 -0.9914
 7373SOL     OW29223   0.519   2.098   2.068 -0.0917  0.6627 -0.6960
 7373SOL    HW229224   0.478   2.124   1.986 -0.2778  0.2439 -0.7369
 7373SOL    HW329225   0.565   2.016   2.048  0.3535  0.8686 -0.5282
 7373SOL    MW429226   0.520   2.090   2.055  0.0821 -0.4602  0.0432
 7374SOL     OW29227   2.604   0.359   2.610 -0.5572  0.0264 -0.4048
 7374SOL    HW229228   2.690   0.318   2.621 -0.6157  0.2534  1.2386
 7374SOL    HW329229   2.622   0.453   2.615 -0.4212  0.3460 -4.1285
 7374SOL    MW429230   2.618   0.366   2.612 -0.0375  0.6076  0.4792
 7375SOL     OW29231   4.906   5.219   3.941  0.1320  0.7262 -0.5382
 7375SOL    HW229232   4.937   5.258   4.022  1.6238  1.4125 -1.4040
 7375SOL    HW329233   4.853   5.144   3.969 -0.7243  1.8762  1.0825
 7375SOL    MW429234   4.903   5.214   3.955 -0.0665 -0.0764  0.3370
 7376SOL     OW29235   4.429   2.393   2.107  0.1338 -0.7689  0.5300
 7376SOL    HW229236   4.339   2.360   2.106  0.2966 -1.2895  1.5310
 7376SOL    HW329237   4.433   2.454   2.033 -0.3348 -2.5487 -1.0391
 7376SOL    MW429238   4.417   2.396   2.097 -0.2227 -0.5218 -0.0038
 7377SOL     OW29239   2.330   1.438   5.515  0.7666  0.4883  0.4153
 7377SOL    HW229240   2.346   1.348   5.542  0.8778  0.3279 -0.1672
 7377SOL    HW329241   2.417   1.476   5.501  0.7072  0.3488 -0.4005
 7377SOL    MW429242   2.344   1.431   5.516 -0.2523  0.0682  0.3495
 7378SOL     OW29243   5.399   5.109   5.543 -0.3123 -0.1519 -0.2085
 7378SOL    HW229244   5.433   5.053   5.613  0.8586 -0.4579 -0.9948
 7378SOL    HW329245   5.391   5.196   5.584  0.6989 -0.2417  0.2230
 7378SOL    MW429246   5.402   5.113   5.558  0.0190 -0.3040 -0.1175
 7379SOL     OW29247   0.007   6.214   4.747 -0.2510 -0.2938  0.3935
 7379SOL    HW229248  -0.017   6.208   4.840 -0.5658  0.3267  0.3566
 7379SOL    HW329249  -0.077   6.216   4.701 -0.1669  1.5805  0.2476
 7379SOL    MW429250  -0.007   6.213   4.753 -0.1548  0.1500  0.4998
 7380SOL     OW29251   2.471   2.325   1.868  0.2808 -0.6768  0.5446
 7380SOL    HW229252   2.417   2.386   1.817  0.2973 -0.7907  0.3870
 7380SOL    HW329253   2.466   2.358   1.957 -0.8662 -1.2394  0.7131
 7380SOL    MW429254   2.463   2.337   1.873 -0.3270  0.5205  0.3617
 7381SOL     OW29255   1.130   2.407   3.515 -0.3009 -0.2363  0.2564
 7381SOL    HW229256   1.221   2.412   3.486 -0.5882  1.6887 -0.4384
 7381SOL    HW329257   1.136   2.386   3.609  0.8681  0.0348  0.2611
 7381SOL    MW429258   1.143   2.405   3.524  0.2401  0.1729 -0.2808
 7382SOL     OW29259   6.076   3.642   2.099  0.3772  0.3556  0.2494
 7382SOL    HW229260   6.110   3.614   2.014 -1.2709 -0.7190 -0.0906
 7382SOL    HW329261   6.040   3.562   2.138 -0.5053  1.1865  1.1790
 7382SOL    MW429262   6.076   3.628   2.093 -0.0086  0.2381  0.3423
 7383SOL     OW29263   4.875   5.640   0.382 -0.2608 -0.3990  0.3704
 7383SOL    HW229264   4.934   5.713   0.400 -0.3559  0.4195 -2.1892
 7383SOL    HW329265   4.869   5.637   0.286 -2.1966 -2.2242  0.4676
 7383SOL    MW429266   4.882   5.649   0.371  0.5229 -0.0320  0.4076
 7384SOL     OW29267   0.361   1.799   2.555  0.1532 -0.1594  0.0129
 7384SOL    HW229268   0.428   1.822   2.491 -1.5266  0.2954 -1.6740
 7384SOL    HW329269   0.312   1.880   2.569  0.5697 -0.2008  2.0441
 7384SOL    MW429270   0.363   1.813   2.548  0.1548  0.4919 -0.0148
 7385SOL     OW29271   2.645   4.036   3.540 -0.2400 -0.5059 -0.2116
 7385SOL    HW229272   2.713   3.976   3.508  1.7254  1.2703  0.3821
 7385SOL    HW329273   2.600   3.987   3.608  1.6539 -1.2048  0.6274
 7385SOL    MW429274   2.648   4.022   3.544 -0.3054  0.3367 -0.0374
 7386SOL     OW29275   5.067   1.346   4.833 -0.0996 -0.1969 -0.0690
 7386SOL    HW229276   5.059   1.346   4.929 -2.2110  2.5372 -0.1032
 7386SOL    HW329277   5.157   1.374   4.816  0.7794 -2.1669  1.0319
 7386SOL    MW429278   5.078   1.350   4.844 -0.0148  0.3785 -0.6384
 7387SOL     OW29279   2.960   5.660   5.052  0.7508 -0.2862 -0.1680
 7387SOL    HW229280   2.928   5.570   5.043 -0.0617  0.0264 -0.6121
 7387SOL    HW329281   2.962   5.676   5.146 -1.8748  0.1434 -0.0984
 7387SOL    MW429282   2.956   5.650   5.063 -0.2431 -0.6422  0.3595
 7388SOL     OW29283   4.306   0.959   4.781 -0.2373  0.5001  0.2160
 7388SOL    HW229284   4.354   1.040   4.764  0.7709 -0.5106 -2.3545
 7388SOL    HW329285   4.218   0.975   4.748 -0.2853  0.8135  0.4964
 7388SOL    MW429286   4.301   0.972   4.775  0.2003  0.1992 -0.2813
 7389SOL     OW29287   5.801   5.281   2.799  0.2233  0.0081  0.1377
 7389SOL    HW229288   5.887   5.260   2.762  0.2882 -0.5153  0.5647
 7389SOL    HW329289   5.814   5.275   2.893 -0.9229 -2.8935  0.2133
 7389SOL    MW429290   5.814   5.277   2.806 -0.5115 -0.4011 -0.3493
 7390SOL     OW29291   5.197   3.201   2.986 -0.4909 -0.5859  0.4258
 7390SOL    HW229292   5.172   3.287   2.952 -0.4117 -1.2375 -1.3861
 7390SOL    HW329293   5.247   3.220   3.065 -0.4075  1.0277  0.0185
 7390SOL    MW429294   5.200   3.215   2.992 -0.3423  0.4204  0.0053
 7391SOL     OW29295   0.637   2.572   4.729 -0.2067  0.1158 -0.2865
 7391SOL    HW229296   0.728   2.563   4.700 -0.3069 -1.1436 -0.2701
 7391SOL    HW329297   0.614   2.485   4.762 -1.2627  0.5542  0.1689
 7391SOL    MW429298   0.646   2.559   4.730  0.4493 -0.2682  0.5782
 7392SOL     OW29299   0.464   2.514   2.862 -0.0990 -0.2314 -0.4074
 7392SOL    HW229300   0.371   2.512   2.887  0.1489  0.7565  0.6425
 7392SOL    HW329301   0.505   2.447   2.917  0.0353  0.2856  0.1320
 7392SOL    MW429302   0.457   2.505   2.872  0.3094 -0.2790  0.2878
 7393SOL     OW29303   1.719   1.856   1.721 -0.0366 -0.2197 -0.0543
 7393SOL    HW229304   1.721   1.945   1.685  0.3586 -0.7907 -1.5329
 7393SOL    HW329305   1.715   1.868   1.816 -0.6734  1.3691 -0.2579
 7393SOL    MW429306   1.719   1.869   1.729  0.1258 -0.4015 -0.4925
 7394SOL     OW29307   5.513   2.851   0.319 -0.0660 -0.1713  0.1211
 7394SOL    HW229308   5.420   2.864   0.304 -0.0380 -0.8176 -0.7119
 7394SOL    HW329309   5.531   2.763   0.286  0.7653 -0.2082  0.6247
 7394SOL    MW429310   5.503   2.841   0.313  0.0258 -0.2377  0.1660
 7395SOL     OW29311   3.581   1.868   2.876  0.0576 -0.3996 -0.3782
 7395SOL    HW229312   3.496   1.904   2.901 -0.0631 -1.5916  1.0118
 7395SOL    HW329313   3.562   1.814   2.799 -0.4044 -0.5040 -0.1929
 7395SOL    MW429314   3.568   1.866   2.869  0.0368 -0.2146  0.3487
 7396SOL     OW29315   5.038   3.248   3.543 -0.4889 -0.1322 -0.4881
 7396SOL    HW229316   5.069   3.213   3.627 -0.6164  1.0008  0.0532
 7396SOL    HW329317   4.984   3.324   3.567  2.7235  2.7866 -1.6639
 7396SOL    MW429318   5.035   3.253   3.557  0.7278  0.0474  0.8583
 7397SOL     OW29319   1.108   3.870   3.090  0.1461  0.3950  0.2234
 7397SOL    HW229320   1.107   3.929   3.015 -1.1695  0.4082  0.2228
 7397SOL    HW329321   1.174   3.906   3.148  1.3276  0.2787 -0.9973
 7397SOL    MW429322   1.116   3.882   3.088  0.5324 -0.0955 -0.4049
 7398SOL     OW29323   5.275   2.692   0.562  0.0341 -0.1974  0.7435
 7398SOL    HW229324   5.248   2.653   0.480 -0.6168 -1.8111  1.6846
 7398SOL    HW329325   5.221   2.771   0.571 -1.6939 -1.3379  0.7803
 7398SOL    MW429326   5.264   2.698   0.553  0.1796  0.0605  0.4006
 7399SOL     OW29327   1.057   2.799   1.274  0.6647  0.3633  0.2196
 7399SOL    HW229328   1.127   2.744   1.309  0.6646  0.5834  0.5669
 7399SOL    HW329329   1.006   2.825   1.350  0.5484  0.6790  0.0369
 7399SOL    MW429330   1.060   2.795   1.288 -0.6614 -0.3498 -0.1344
 7400SOL     OW29331   4.548   4.101   5.968 -0.1945 -0.5687  0.2217
 7400SOL    HW229332   4.584   4.054   6.043  0.3331 -0.7586 -0.1367
 7400SOL    HW329333   4.460   4.126   5.994  0.4415  0.5270  1.3994
 7400SOL    MW429334   4.541   4.098   5.981  0.1150  0.3351 -0.8028
 7401SOL     OW29335   5.204   4.858   3.920  0.6834 -0.4601 -0.2709
 7401SOL    HW229336   5.142   4.785   3.918 -1.4505  1.1704  1.6057
 7401SOL    HW329337   5.290   4.816   3.920 -0.4427 -2.9636  0.4634
 7401SOL    MW429338   5.207   4.842   3.920  0.3004 -0.2557 -0.3273
 7402SOL     OW29339   6.082   6.012   5.651  0.2540  0.0497  0.2801
 7402SOL    HW229340   6.152   5.999   5.716  0.2708 -0.7513  0.1144
 7402SOL    HW329341   6.127   6.043   5.573  0.1145  2.1264  0.9570
 7402SOL    MW429342   6.097   6.014   5.649 -0.4964  0.0393  0.4712
 7403SOL     OW29343   3.237   4.433   0.102 -0.2893  0.4183 -0.4103
 7403SOL    HW229344   3.298   4.486   0.051 -0.5850  2.1733  0.9769
 7403SOL    HW329345   3.169   4.494   0.131 -0.7693 -0.7459  1.0859
 7403SOL    MW429346   3.236   4.448   0.099 -0.0285 -0.3955 -0.4297
 7404SOL     OW29347   2.347   3.778   2.090  0.2646 -0.5707  0.5805
 7404SOL    HW229348   2.333   3.817   2.176  0.7818 -0.4779  0.6281
 7404SOL    HW329349   2.388   3.847   2.038 -0.5545 -0.4487  0.0852
 7404SOL    MW429350   2.351   3.792   2.095  0.1890 -0.4807  0.4184
 7405SOL     OW29351   3.967   1.471   1.902  0.2638 -0.0006 -0.1432
 7405SOL    HW229352   3.903   1.442   1.967 -2.7941  1.8619 -2.0141
 7405SOL    HW329353   4.023   1.533   1.949 -0.8519  0.1063  1.1088
 7405SOL    MW429354   3.966   1.476   1.917  0.4937 -0.4274  0.9497
 7406SOL     OW29355   3.819   1.628   2.225 -0.2941  0.3697  0.6046
 7406SOL    HW229356   3.743   1.620   2.282 -1.2310 -1.0781 -0.7748
 7406SOL    HW329357   3.873   1.552   2.246 -1.0496 -0.6418 -0.9573
 7406SOL    MW429358   3.816   1.617   2.235 -0.3034  0.4292  0.2474
 7407SOL     OW29359   2.687   2.570   5.313  0.3364 -0.0915  0.2846
 7407SOL    HW229360   2.737   2.645   5.344  0.4548  0.3859 -1.0137
 7407SOL    HW329361   2.665   2.521   5.393  3.7123 -0.8675  0.8992
 7407SOL    MW429362   2.691   2.573   5.328  0.6836 -0.5054 -0.3419
 7408SOL     OW29363   5.282   2.785   5.758 -0.0005  0.3257  0.7743
 7408SOL    HW229364   5.292   2.692   5.781  1.1537  0.0987 -0.5382
 7408SOL    HW329365   5.307   2.790   5.666 -1.0507  1.7891  0.5383
 7408SOL    MW429366   5.287   2.773   5.749  0.2558  0.1579  0.1303
 7409SOL     OW29367   5.685   5.664   5.700  0.1664 -0.2545  0.0093
 7409SOL    HW229368   5.753   5.712   5.653  0.8233 -0.1911  1.0123
 7409SOL    HW329369   5.721   5.650   5.787 -0.5090 -1.5292  0.0955
 7409SOL    MW429370   5.698   5.669   5.705  0.2158  0.4983 -0.5039
 7410SOL     OW29371   0.897   1.524   0.593  0.5400 -0.0531 -0.1875
 7410SOL    HW229372   0.900   1.619   0.601  2.6440 -0.1435  0.9908
 7410SOL    HW329373   0.807   1.500   0.613  0.2391  1.6115  0.6015
 7410SOL    MW429374   0.886   1.533   0.597 -0.3415  0.2618 -0.4177
 7411SOL     OW29375   4.341   3.269   2.083  0.1049 -0.3745 -0.3929
 7411SOL    HW229376   4.426   3.225   2.086  1.2340  1.4156 -2.5885
 7411SOL    HW329377   4.294   3.227   2.011 -0.6616 -0.9366  0.4099
 7411SOL    MW429378   4.346   3.258   2.074  0.5242 -0.3275 -0.4351
 7412SOL     OW29379   2.073   0.564   3.627  0.3787 -0.4514 -0.4649
 7412SOL    HW229380   2.019   0.628   3.673 -0.5051 -0.7115 -1.1041
 7412SOL    HW329381   2.076   0.596   3.537  2.9706  0.6350 -0.0864
 7412SOL    MW429382   2.066   0.577   3.621 -0.2545  0.7074  0.2439
 7413SOL     OW29383   4.187   4.786   0.228 -0.4610  0.1619 -0.7419
 7413SOL    HW229384   4.261   4.847   0.225 -0.3310  0.0611  0.1541
 7413SOL    HW329385   4.190   4.740   0.144  0.0182  0.7138 -1.0292
 7413SOL    MW429386   4.197   4.788   0.217  0.4785 -0.0496 -0.2702
 7414SOL     OW29387   5.541   3.330   5.943 -0.0015  0.1798  0.2364
 7414SOL    HW229388   5.534   3.265   6.012  0.8678 -0.1822 -0.0068
 7414SOL    HW329389   5.628   3.316   5.905 -0.3667  0.5318 -0.7674
 7414SOL    MW429390   5.551   3.320   5.947  0.1084 -0.0329 -0.0135
 7415SOL     OW29391   3.536   1.594   3.008 -0.1248 -0.5416 -0.5298
 7415SOL    HW229392   3.556   1.602   3.101 -0.5885 -1.3474 -0.3478
 7415SOL    HW329393   3.560   1.679   2.970  0.0196 -0.1937  0.3274
 7415SOL    MW429394   3.542   1.606   3.015  0.4163  0.0267  0.0046
 7416SOL     OW29395   2.378   3.827   4.555 -0.3121 -0.0922  0.0510
 7416SOL    HW229396   2.376   3.771   4.477 -2.5358  0.7991 -0.6186
 7416SOL    HW329397   2.387   3.916   4.521 -0.1947  0.2218  0.8729
 7416SOL    MW429398   2.379   3.831   4.540 -0.1120 -0.4822  0.2179
 7417SOL     OW29399   0.784   2.260   2.064  0.1722 -0.0205 -0.3432
 7417SOL    HW229400   0.692   2.242   2.046 -0.0095  1.1692 -0.7396
 7417SOL    HW329401   0.830   2.179   2.044 -0.6807 -0.3326 -1.0605
 7417SOL    MW429402   0.778   2.247   2.059 -0.1140 -0.6245  0.0715
 7418SOL     OW29403   6.277   3.234   3.133 -0.2410 -0.2284  0.4950
 7418SOL    HW229404   6.230   3.151   3.128  0.0350 -0.3722  0.2256
 7418SOL    HW329405   6.341   3.230   3.062 -0.8768  0.6350 -0.1444
 7418SOL    MW429406   6.280   3.223   3.123  0.1468  0.4479 -0.0225
 7419SOL     OW29407   6.385   3.292   1.426  0.0638  0.0246  0.1821
 7419SOL    HW229408   6.443   3.359   1.463  0.3146 -0.2313  0.2633
 7419SOL    HW329409   6.441   3.214   1.418  0.2001  0.2468 -1.3467
 7419SOL    MW429410   6.400   3.290   1.430  0.7989  0.7151  0.5373
 7420SOL     OW29411   5.022   4.631   0.512 -0.1460  0.1862 -0.4836
 7420SOL    HW229412   5.082   4.691   0.467 -2.1568  2.4562 -0.3529
 7420SOL    HW329413   5.053   4.629   0.602  0.4790  0.3042 -0.6936
 7420SOL    MW429414   5.034   4.639   0.518 -0.1679 -0.7537 -0.4587
 7421SOL     OW29415   5.595   1.521   4.690 -0.0256  0.0429  0.5115
 7421SOL    HW229416   5.644   1.495   4.768 -0.7034 -0.3137  0.8217
 7421SOL    HW329417   5.504   1.502   4.711 -0.0729 -1.6979 -1.0108
 7421SOL    MW429418   5.590   1.515   4.703 -0.7596 -0.1668 -0.1667
 7422SOL     OW29419   4.126   3.970   5.992 -0.1063 -0.0372  0.0059
 7422SOL    HW229420   4.061   4.008   6.051  0.2713  0.3972  0.1483
 7422SOL    HW329421   4.078   3.953   5.912 -0.7029 -0.9336  0.5370
 7422SOL    MW429422   4.111   3.973   5.989 -0.1663  0.4131  0.2434
 7423SOL     OW29423   3.841   5.602   3.475  0.5475  0.0541 -0.3518
 7423SOL    HW229424   3.870   5.517   3.508  0.4340 -0.2694 -1.0709
 7423SOL    HW329425   3.831   5.656   3.554 -1.6095 -1.2502  0.3699
 7423SOL    MW429426   3.843   5.598   3.490  0.2480 -0.6783  0.9064
 7424SOL     OW29427   6.213   0.015   1.189  0.4806  0.2971  0.2662
 7424SOL    HW229428   6.118   0.010   1.174  0.5852  0.4940 -0.5034
 7424SOL    HW329429   6.223   0.004   1.283 -0.5211  3.1954  0.8076
 7424SOL    MW429430   6.202   0.013   1.199  0.1480 -0.2936  0.1024
 7425SOL     OW29431   1.378   5.665   2.899  0.6266 -0.1797 -0.0520
 7425SOL    HW229432   1.388   5.689   2.991 -0.5181  0.3963 -0.0668
 7425SOL    HW329433   1.297   5.614   2.896  0.3540  0.2797 -0.8288
 7425SOL    MW429434   1.368   5.661   2.910  0.4322 -0.7427  0.0143
 7426SOL     OW29435   4.032   4.798   6.083 -0.6057 -0.4479  0.0780
 7426SOL    HW229436   4.108   4.741   6.079 -1.2164 -1.3552  0.8913
 7426SOL    HW329437   3.981   4.766   6.158 -0.3599  1.9638  1.3992
 7426SOL    MW429438   4.035   4.786   6.093 -0.0950 -0.2420  0.6017
 7427SOL     OW29439   1.960   3.078   0.701  0.7086 -0.2300 -0.2425
 7427SOL    HW229440   2.022   3.046   0.767 -1.0973 -1.5102  0.9332
 7427SOL    HW329441   1.969   3.173   0.704  1.7285 -0.3294  0.7815
 7427SOL    MW429442   1.970   3.086   0.710 -0.4966  0.1940 -0.3122
 7428SOL     OW29443   0.982   6.079   5.335 -0.3149  0.3492  0.3732
 7428SOL    HW229444   0.952   6.133   5.262 -1.2513  0.5348  0.8729
 7428SOL    HW329445   0.956   5.990   5.312  1.8999 -0.0635 -0.8035
 7428SOL    MW429446   0.975   6.074   5.323  0.3243 -0.3521  0.6020
 7429SOL     OW29447   4.622   3.247   1.651 -0.2419 -0.1238 -0.0609
 7429SOL    HW229448   4.604   3.261   1.558  0.4819  1.3761 -0.0007
 7429SOL    HW329449   4.699   3.301   1.669  0.0286 -0.9139  1.2672
 7429SOL    MW429450   4.630   3.256   1.641 -0.0083 -0.0238  0.2285
 7430SOL     OW29451   3.384   4.814   3.089  0.2025  0.5433 -0.3970
 7430SOL    HW229452   3.305   4.865   3.070 -0.3739 -0.3506 -0.4484
 7430SOL    HW329453   3.409   4.775   3.005  0.3233  0.3055 -0.2540
 7430SOL    MW429454   3.377   4.816   3.075  0.0833  0.1264  0.0856
 7431SOL     OW29455   1.675   2.115   1.632  0.6736 -0.4238  0.0008
 7431SOL    HW229456   1.717   2.200   1.642  1.6297 -0.9011  0.1484
 7431SOL    HW329457   1.594   2.122   1.683  0.1596  0.7608 -0.9214
 7431SOL    MW429458   1.670   2.127   1.640 -0.4056 -0.0673 -0.2794
 7432SOL     OW29459   3.264   3.668   4.024  0.8063 -0.6124 -0.4275
 7432SOL    HW229460   3.183   3.701   4.063  2.2397  0.2958  2.0516
 7432SOL    HW329461   3.263   3.574   4.041 -0.0578 -0.7375 -1.1177
 7432SOL    MW429462   3.253   3.660   4.032 -0.4966  0.1619 -0.7168
 7433SOL     OW29463   3.571   2.574   2.901 -0.5528  0.5106 -0.0611
 7433SOL    HW229464   3.537   2.485   2.910 -1.0179  0.7889  1.2381
 7433SOL    HW329465   3.542   2.618   2.981  0.9783  1.3986  0.0420
 7433SOL    MW429466   3.562   2.568   2.913 -0.4227 -0.2169  0.5904
 7434SOL     OW29467   4.325   3.934   4.185 -0.2095 -0.2979 -0.3986
 7434SOL    HW229468   4.285   3.933   4.272  0.9669  0.1549  0.1718
 7434SOL    HW329469   4.258   3.970   4.127 -0.5373  0.6846  0.5711
 7434SOL    MW429470   4.311   3.939   4.189 -0.2160  0.4911 -0.3438
 7435SOL     OW29471   0.296   5.271   5.692  0.2839  0.2488 -0.2819
 7435SOL    HW229472   0.381   5.285   5.733  1.5668 -0.1315 -2.6709
 7435SOL    HW329473   0.315   5.222   5.613 -2.1001  0.6873 -1.2017
 7435SOL    MW429474   0.310   5.266   5.687  0.7511  0.4097 -0.3589
 7436SOL     OW29475   5.400   2.971   6.322 -0.0856 -0.0827  0.4245
 7436SOL    HW229476   5.461   2.966   6.396  0.9753  1.6386 -0.2788
 7436SOL    HW329477   5.313   2.958   6.362  0.6635 -2.1747  1.4990
 7436SOL    MW429478   5.396   2.969   6.337  0.2579  0.1313  0.2510
 7437SOL     OW29479   5.215   2.235   1.861  0.4665 -0.0249 -0.0756
 7437SOL    HW229480   5.218   2.153   1.813 -0.1446 -1.4055  2.0888
 7437SOL    HW329481   5.305   2.266   1.862  0.9489 -1.3796  0.2006
 7437SOL    MW429482   5.227   2.229   1.855  0.3968 -0.8915  0.6349
 7438SOL     OW29483   2.442   5.266   1.840  0.4965  0.3685 -0.1546
 7438SOL    HW229484   2.360   5.275   1.792  1.4803  1.9594 -1.6831
 7438SOL    HW329485   2.449   5.346   1.892  1.7579  1.0124 -1.2458
 7438SOL    MW429486   2.432   5.277   1.840 -0.0341  0.1622  0.0079
 7439SOL     OW29487   2.922   2.505   6.177  0.0276 -0.1421 -0.0100
 7439SOL    HW229488   2.943   2.438   6.242 -1.4032 -0.1716  0.4596
 7439SOL    HW329489   2.995   2.502   6.115  1.1088 -0.5469  1.2438
 7439SOL    MW429490   2.934   2.496   6.177 -0.3766 -0.2069 -0.5892
 7440SOL     OW29491   2.236   3.918   4.224 -0.0635 -0.0969  0.2394
 7440SOL    HW229492   2.178   3.892   4.153  0.7846 -0.5743 -0.2998
 7440SOL    HW329493   2.266   3.836   4.262 -0.9175  0.1567  1.5073
 7440SOL    MW429494   2.232   3.904   4.219  0.4588  0.9541  0.0074
 7441SOL     OW29495   0.707   0.343   1.595  0.2135  0.3985 -0.0336
 7441SOL    HW229496   0.672   0.423   1.633  0.6700  0.5988 -0.0252
 7441SOL    HW329497   0.796   0.366   1.568 -0.1938  0.3657 -1.5388
 7441SOL    MW429498   0.714   0.357   1.596 -0.5247 -0.0159  0.3462
 7442SOL     OW29499   3.124   2.544   2.863 -0.0225 -0.8487  0.3534
 7442SOL    HW229500   3.195   2.558   2.800  1.1445  1.6136  2.0823
 7442SOL    HW329501   3.168   2.510   2.941 -0.9305 -0.5565  1.0084
 7442SOL    MW429502   3.140   2.541   2.865  0.3426  0.3758  0.2338
 7443SOL     OW29503   3.286   0.841   3.503 -0.0415 -0.8483  0.4095
 7443SOL    HW229504   3.360   0.877   3.454  0.2032 -0.5897  0.9584
 7443SOL    HW329505   3.320   0.827   3.591 -0.7100 -0.4924  0.7372
 7443SOL    MW429506   3.300   0.844   3.508 -0.3965  0.2550 -0.4675
 7444SOL     OW29507   3.684   2.503   3.834 -0.4924 -0.1569 -0.2884
 7444SOL    HW229508   3.675   2.485   3.927 -1.6198  0.2601 -0.3085
 7444SOL    HW329509   3.676   2.598   3.826  0.0134 -0.1452 -0.7740
 7444SOL    MW429510   3.682   2.513   3.845 -0.2395  0.0436 -0.3488
 7445SOL     OW29511   0.193   5.993   0.590  0.3852 -0.6606 -0.2757
 7445SOL    HW229512   0.135   6.043   0.532 -0.4867  1.0824  1.9530
 7445SOL    HW329513   0.135   5.930   0.632  0.5063 -0.2993  0.4434
 7445SOL    MW429514   0.177   5.991   0.587  0.3914 -0.2720  0.5790
 7446SOL     OW29515   5.238   2.274   1.412  0.2431 -0.0525 -0.0401
 7446SOL    HW229516   5.277   2.361   1.416 -2.4800  1.2384  0.9890
 7446SOL    HW329517   5.186   2.274   1.331 -0.8388 -0.1912  0.6371
 7446SOL    MW429518   5.236   2.285   1.402 -0.1961  0.3096  0.0064
 7447SOL     OW29519   5.415   3.349   3.136  0.6022 -0.5864  0.1604
 7447SOL    HW229520   5.434   3.304   3.218 -2.3585 -2.4815 -0.0310
 7447SOL    HW329521   5.473   3.308   3.071 -0.1032 -2.2310  0.5332
 7447SOL    MW429522   5.425   3.338   3.138 -0.5110  0.1978  0.3327
 7448SOL     OW29523   0.991   1.450   1.979 -0.3766 -0.3322 -0.8186
 7448SOL    HW229524   0.922   1.494   2.027  1.2184  0.4078  0.9362
 7448SOL    HW329525   1.021   1.515   1.915  0.0271  0.1009 -0.2020
 7448SOL    MW429526   0.986   1.465   1.977 -0.2159 -0.5866  0.5840
 7449SOL     OW29527   4.964   0.346   6.135  0.1820 -0.0087  0.7415
 7449SOL    HW229528   4.900   0.307   6.076 -0.0888 -0.6067  1.4082
 7449SOL    HW329529   5.033   0.379   6.078  0.7322 -2.0344  0.1411
 7449SOL    MW429530   4.964   0.345   6.120 -0.0668  0.7189  0.8406
 7450SOL     OW29531   5.001   1.315   6.005  0.7447 -0.2452  0.5546
 7450SOL    HW229532   4.940   1.351   6.069 -0.0445 -0.6140  0.0339
 7450SOL    HW329533   4.960   1.334   5.920  1.6345 -0.0026  0.1672
 7450SOL    MW429534   4.988   1.323   6.002  0.6214 -0.3282 -0.0949
 7451SOL     OW29535   6.397   5.978   4.287  0.2525  0.5050 -0.4906
 7451SOL    HW229536   6.352   5.906   4.242  0.9610 -0.5547  0.4253
 7451SOL    HW329537   6.395   5.954   4.379  2.7912  0.2957 -0.4066
 7451SOL    MW429538   6.391   5.965   4.293 -0.1933  0.0835 -0.3256
 7452SOL     OW29539   1.633   2.837   1.230 -0.2791  0.2225  0.5346
 7452SOL    HW229540   1.559   2.819   1.171 -0.2018 -0.9000  0.7584
 7452SOL    HW329541   1.703   2.781   1.198  0.0606  0.2991  1.1394
 7452SOL    MW429542   1.632   2.827   1.218  0.3995  0.3746  0.4487
 7453SOL     OW29543   5.850   4.270   4.193 -0.0567  1.4505  0.0732
 7453SOL    HW229544   5.889   4.327   4.126  1.4526  1.2975  0.8029
 7453SOL    HW329545   5.890   4.185   4.179  0.1412  1.3708  1.0679
 7453SOL    MW429546   5.860   4.266   4.182 -0.1899  0.5426  0.3259
 7454SOL     OW29547   4.963   4.329   2.132  0.3151  0.0042  0.5650
 7454SOL    HW229548   4.889   4.389   2.122  0.7448  0.3567 -0.7214
 7454SOL    HW329549   4.972   4.288   2.046 -0.2373 -2.2568  1.5193
 7454SOL    MW429550   4.955   4.331   2.119 -0.1717  0.4343  0.0759
 7455SOL     OW29551   3.676   3.757   1.327  0.0060 -0.1715  0.1343
 7455SOL    HW229552   3.640   3.670   1.304 -0.5685 -0.0432  0.5315
 7455SOL    HW329553   3.703   3.749   1.418 -0.8177  0.3104  0.4256
 7455SOL    MW429554   3.675   3.744   1.336  0.2614 -0.2512 -0.1168
 7456SOL     OW29555   4.189   4.346   2.451  0.1035  0.0185  0.0797
 7456SOL    HW229556   4.231   4.389   2.376 -0.4874 -0.5269 -0.5809
 7456SOL    HW329557   4.160   4.262   2.417  2.4909 -1.5555  1.7019
 7456SOL    MW429558   4.191   4.341   2.437 -0.3532  0.1252  0.5188
 7457SOL     OW29559   2.398   0.201   2.723  0.1273  0.0211 -0.5596
 7457SOL    HW229560   2.327   0.250   2.764 -0.3441 -0.0905 -1.2212
 7457SOL    HW329561   2.448   0.266   2.675 -0.4802 -0.1250 -1.4120
 7457SOL    MW429562   2.395   0.216   2.722  0.0580  0.6487 -0.4694
 7458SOL     OW29563   5.428   6.261   3.341  0.0516 -0.3301  0.2237
 7458SOL    HW229564   5.363   6.320   3.379  1.9373 -0.3780  3.9961
 7458SOL    HW329565   5.463   6.309   3.267 -2.2210  0.9027 -0.1410
 7458SOL    MW429566   5.424   6.275   3.337 -0.3947  0.4156  0.1177
 7459SOL     OW29567   4.288   2.594   0.432  0.1169  0.8679 -0.4836
 7459SOL    HW229568   4.371   2.601   0.479  0.0828 -1.6874  0.1186
 7459SOL    HW329569   4.224   2.576   0.500 -0.2277 -1.1067 -1.2778
 7459SOL    MW429570   4.291   2.593   0.447  1.2448  0.0074 -0.4129
 7460SOL     OW29571   4.261   1.988   2.386 -0.1978  0.3118 -0.3332
 7460SOL    HW229572   4.345   1.943   2.393 -0.8860 -0.8340  0.8964
 7460SOL    HW329573   4.284   2.081   2.381  1.1219  0.0435  0.3877
 7460SOL    MW429574   4.275   1.994   2.386 -0.0673  0.4340 -0.3980
 7461SOL     OW29575   0.395   2.154   1.826 -0.0862  0.5097  0.7450
 7461SOL    HW229576   0.341   2.233   1.817  2.0857  2.1024  0.5762
 7461SOL    HW329577   0.463   2.166   1.759 -0.2606 -2.0730  0.0100
 7461SOL    MW429578   0.397   2.166   1.816  0.4785 -0.3691  0.7269
 7462SOL     OW29579   5.117   0.916   3.618 -0.2685  0.4425 -0.4961
 7462SOL    HW229580   5.197   0.962   3.644  0.1545 -0.7305  0.3462
 7462SOL    HW329581   5.050   0.946   3.679  0.1621 -0.5248  0.4755
 7462SOL    MW429582   5.119   0.926   3.629 -0.7200  0.7682 -0.3459
 7463SOL     OW29583   5.598   3.151   4.465 -0.2015 -0.2969  0.1146
 7463SOL    HW229584   5.619   3.221   4.527  0.0577 -0.7294  0.5224
 7463SOL    HW329585   5.670   3.089   4.473  0.4853  0.2211 -1.5286
 7463SOL    MW429586   5.610   3.152   4.474 -0.1676 -0.4306  0.4067
 7464SOL     OW29587   5.944   6.319   5.786  0.0720  0.2444  0.5311
 7464SOL    HW229588   5.890   6.396   5.770 -0.2101  0.4591  2.3325
 7464SOL    HW329589   5.881   6.246   5.784  0.3591 -0.0062 -1.3137
 7464SOL    MW429590   5.928   6.319   5.783  0.0404 -0.2757  0.3871
 7465SOL     OW29591   4.711   3.551   2.561  0.3718 -0.2879  0.0621
 7465SOL    HW229592   4.716   3.607   2.483  0.0306 -1.6543 -0.9736
 7465SOL    HW329593   4.651   3.598   2.619 -1.4006 -0.4029 -1.5469
 7465SOL    MW429594   4.704   3.565   2.558 -0.6905 -0.8098  0.8417
 7466SOL     OW29595   3.728   0.151   0.238 -0.2269 -0.2558 -0.0630
 7466SOL    HW229596   3.728   0.241   0.270  0.0219  0.4342 -1.8790
 7466SOL    HW329597   3.718   0.098   0.317 -1.8176  1.3850  0.9317
 7466SOL    MW429598   3.726   0.156   0.253  0.0278 -0.2828  0.6896
 7467SOL     OW29599   0.296   3.560   2.836 -0.2190 -0.0842  0.4313
 7467SOL    HW229600   0.263   3.601   2.916  0.7918 -0.0536  0.8421
 7467SOL    HW329601   0.230   3.581   2.769 -0.4543  0.9519  0.9718
 7467SOL    MW429602   0.283   3.568   2.837  0.1665  0.1085  0.3921
 7468SOL     OW29603   5.944   5.427   5.226  0.0746 -0.1862  0.0552
 7468SOL    HW229604   5.893   5.351   5.250  0.6476 -0.0578  1.8120
 7468SOL    HW329605   5.887   5.502   5.245  0.0636 -0.1271 -0.2115
 7468SOL    MW429606   5.930   5.427   5.232  0.4085 -0.3044  0.0629
 7469SOL     OW29607   4.862   4.555   5.115 -0.6820  0.4222 -0.0821
 7469SOL    HW229608   4.766   4.557   5.126 -0.7861  2.0533 -0.9435
 7469SOL    HW329609   4.879   4.617   5.044  0.8475 -1.4651 -1.4895
 7469SOL    MW429610   4.851   4.564   5.107 -0.0448  0.1435 -0.2402
 7470SOL     OW29611   2.482   4.981   3.406 -0.2006  0.3025 -0.0885
 7470SOL    HW229612   2.428   4.902   3.408 -0.2205  0.3235  0.3345
 7470SOL    HW329613   2.455   5.031   3.483  0.8406  0.0298  0.4765
 7470SOL    MW429614   2.471   4.977   3.416  0.6443  0.0348  0.4075
 7471SOL     OW29615   5.340   3.078   2.613  0.5902 -0.5342  0.3114
 7471SOL    HW229616   5.254   3.038   2.603  0.6251 -0.9963  1.7017
 7471SOL    HW329617   5.391   3.044   2.539 -0.6624  0.5233 -1.1097
 7471SOL    MW429618   5.335   3.069   2.602 -0.1243 -0.1602 -0.3128
 7472SOL     OW29619   1.141   6.214   4.633 -0.1522  0.4077 -0.5362
 7472SOL    HW229620   1.165   6.137   4.582  1.0609  1.2083 -1.2326
 7472SOL    HW329621   1.061   6.247   4.592  0.1979  0.4069 -1.2235
 7472SOL    MW429622   1.133   6.208   4.621 -0.8311 -0.0227  0.1897
 7473SOL     OW29623   5.315   1.002   4.659 -0.2298  0.2807 -0.1447
 7473SOL    HW229624   5.360   1.053   4.592  0.8670 -0.4096  0.0285
 7473SOL    HW329625   5.380   0.936   4.685 -1.3508 -0.7378  0.1412
 7473SOL    MW429626   5.330   1.000   4.654  0.3110  0.7637  0.8643
 7474SOL     OW29627   4.773   0.096   2.648  0.8941  0.0689 -0.4838
 7474SOL    HW229628   4.802   0.057   2.565  0.2085 -2.1992  0.2691
 7474SOL    HW329629   4.816   0.043   2.715  0.0383  0.7442  0.6120
 7474SOL    MW429630   4.783   0.084   2.646  0.0164 -0.0846  0.3646
 7475SOL     OW29631   1.396   2.560   2.604  0.0458 -0.4320  0.1121
 7475SOL    HW229632   1.382   2.493   2.536 -2.9860 -0.6363  0.7687
 7475SOL    HW329633   1.343   2.530   2.677 -0.8054  2.2986  0.7209
 7475SOL    MW429634   1.387   2.547   2.604 -0.1670 -0.2059  0.8039
 7476SOL     OW29635   1.469   0.722   3.789  0.2092 -0.6090  0.4073
 7476SOL    HW229636   1.507   0.640   3.758  2.9378  0.6216  0.1586
 7476SOL    HW329637   1.446   0.770   3.709  0.9214 -0.1834  0.4418
 7476SOL    MW429638   1.471   0.718   3.774  0.7249 -0.3178 -0.2855
 7477SOL     OW29639   4.519   2.019   1.469  0.3114 -0.0754 -0.0837
 7477SOL    HW229640   4.449   1.964   1.505  1.4334 -0.8123  1.0625
 7477SOL    HW329641   4.583   2.026   1.540  1.9328 -0.3184 -1.4591
 7477SOL    MW429642   4.518   2.013   1.483  0.2260 -0.1320  0.1865
 7478SOL     OW29643   3.143   2.610   1.517 -0.6507 -0.1375 -0.2562
 7478SOL    HW229644   3.076   2.654   1.570 -0.8218 -0.3999 -0.2509
 7478SOL    HW329645   3.140   2.654   1.432 -0.4667  0.1986 -0.0884
 7478SOL    MW429646   3.134   2.621   1.513  0.1753 -0.5936  0.5193
 7479SOL     OW29647   0.510   6.355   4.807  0.9584 -0.0596  0.1773
 7479SOL    HW229648   0.539   6.341   4.717  0.3548 -3.0382  0.3092
 7479SOL    HW329649   0.514   6.268   4.847 -2.0851  0.4749  1.9968
 7479SOL    MW429650   0.514   6.341   4.801  0.2081 -0.2850  0.1458
 7480SOL     OW29651   3.279   6.365   3.989  0.1963 -0.3785 -0.0859
 7480SOL    HW229652   3.351   6.410   3.945  0.6210 -1.3815 -0.4463
 7480SOL    HW329653   3.264   6.416   4.069  1.4950 -0.3157  0.1395
 7480SOL    MW429654   3.287   6.377   3.994  0.3507  0.0277  0.5843
 7481SOL     OW29655   5.537   1.548   2.523 -0.1726  0.0214 -0.0144
 7481SOL    HW229656   5.627   1.535   2.491 -0.4492 -1.7875 -0.2162
 7481SOL    HW329657   5.547   1.598   2.604  1.0587 -0.4206  0.1341
 7481SOL    MW429658   5.550   1.553   2.529 -0.4178  0.0273  0.4878
 7482SOL     OW29659   4.812   4.458   5.673  0.2503  0.4717 -0.3318
 7482SOL    HW229660   4.886   4.407   5.707 -0.3187  0.8971  1.7013
 7482SOL    HW329661   4.824   4.545   5.710 -1.3769  0.4827  0.2568
 7482SOL    MW429662   4.823   4.463   5.683 -0.0243 -0.4317  0.5222
 7483SOL     OW29663   3.856   4.180   1.914 -0.1027 -0.0216 -0.2735
 7483SOL    HW229664   3.772   4.136   1.907 -0.1936  0.2112 -0.6497
 7483SOL    HW329665   3.920   4.115   1.886 -0.1722 -0.1339 -0.1747
 7483SOL    MW429666   3.854   4.166   1.909  0.0237  0.1331 -0.3629
 7484SOL     OW29667   4.992   4.981   1.299  0.1485  0.7947 -0.6778
 7484SOL    HW229668   5.041   4.980   1.381  1.1600  1.0075 -1.2661
 7484SOL    HW329669   4.907   4.941   1.321  0.2386  1.2554  0.5617
 7484SOL    MW429670   4.987   4.975   1.313  0.5044 -0.0948 -0.0737
 7485SOL     OW29671   2.882   1.014   5.126 -0.6549 -0.2570  0.0727
 7485SOL    HW229672   2.791   0.982   5.126 -0.4904 -0.9173 -2.2530
 7485SOL    HW329673   2.927   0.959   5.191 -1.8492  0.0064  1.1734
 7485SOL    MW429674   2.876   1.002   5.135 -0.2433 -0.2301 -0.4295
 7486SOL     OW29675   4.246   4.615   0.465  0.3371  0.0662 -0.2687
 7486SOL    HW229676   4.307   4.542   0.476 -0.1822 -0.4704 -0.8293
 7486SOL    HW329677   4.234   4.622   0.371  0.7766  1.2262 -0.2467
 7486SOL    MW429678   4.252   4.606   0.454  0.9141  0.1622 -0.4537
 7487SOL     OW29679   5.301   4.880   4.444 -0.0730 -0.4258 -0.3908
 7487SOL    HW229680   5.297   4.940   4.369  0.8262 -0.1548 -0.2312
 7487SOL    HW329681   5.366   4.919   4.502 -0.6827 -0.6975  0.4886
 7487SOL    MW429682   5.309   4.893   4.442 -0.2784  0.5033  0.6437
 7488SOL     OW29683   2.203   5.086   1.520  0.1072 -0.1886 -0.7825
 7488SOL    HW229684   2.149   5.021   1.476 -0.4999 -1.2587  1.3919
 7488SOL    HW329685   2.175   5.082   1.612  0.3129  2.8861 -0.4638
 7488SOL    MW429686   2.192   5.077   1.526  0.1689 -0.5152  0.1134
 7489SOL     OW29687   6.028   1.990   6.388  0.3064  0.1429  0.1628
 7489SOL    HW229688   5.993   1.977   6.300  2.9269  1.0748 -1.1213
 7489SOL    HW329689   5.950   2.004   6.443 -1.3913 -0.1561 -2.0160
 7489SOL    MW429690   6.013   1.990   6.384 -0.2748  0.1793  0.3706
 7490SOL     OW29691   3.319   5.519   2.284 -0.1757 -0.2779 -0.0872
 7490SOL    HW229692   3.289   5.460   2.214 -0.7843 -0.5764  0.4109
 7490SOL    HW329693   3.414   5.517   2.277 -0.2206  1.0708 -2.0299
 7490SOL    MW429694   3.327   5.511   2.274 -0.0744 -0.4540  0.7209
 7491SOL     OW29695   3.761   1.473   2.673  0.3286 -0.6684  0.2955
 7491SOL    HW229696   3.742   1.464   2.580  1.2753 -1.1533  0.1431
 7491SOL    HW329697   3.834   1.535   2.677  0.1186 -0.4410  0.7388
 7491SOL    MW429698   3.768   1.480   2.661 -0.4467 -0.1752 -0.1013
 7492SOL     OW29699   3.670   5.943   3.325 -0.3751 -0.3023 -0.1613
 7492SOL    HW229700   3.651   5.894   3.405  0.6132 -1.2807 -0.5112
 7492SOL    HW329701   3.764   5.961   3.329 -0.5268  0.6420 -0.5598
 7492SOL    MW429702   3.680   5.939   3.336  0.1070 -0.5196 -0.3598
 7493SOL     OW29703   5.013   4.543   4.607 -0.0341  0.1784  0.2404
 7493SOL    HW229704   4.924   4.561   4.637 -0.1119 -0.1325  0.2080
 7493SOL    HW329705   5.014   4.448   4.594  0.5456  0.0703  1.0199
 7493SOL    MW429706   5.001   4.532   4.609  0.4893  0.0954 -0.2653
 7494SOL     OW29707   3.212   1.232   3.160  0.0357 -0.1271 -0.1522
 7494SOL    HW229708   3.146   1.221   3.228  0.1327 -0.5366 -0.1177
 7494SOL    HW329709   3.173   1.190   3.083 -0.0709  0.3289 -0.3473
 7494SOL    MW429710   3.198   1.225   3.159  0.0850  0.0630 -0.4809
 7495SOL     OW29711   1.509   4.150   5.889  0.2077 -0.7993 -1.0513
 7495SOL    HW229712   1.591   4.191   5.863 -1.1790  1.2361 -2.5887
 7495SOL    HW329713   1.469   4.211   5.950 -0.9445 -0.8530 -1.7117
 7495SOL    MW429714   1.514   4.163   5.893 -0.6000 -0.1270 -0.2679
 7496SOL     OW29715   1.518   4.309   2.898  0.0134  0.2346  0.3417
 7496SOL    HW229716   1.586   4.376   2.902 -0.8636  1.1417  0.5374
 7496SOL    HW329717   1.449   4.342   2.956 -1.4234  0.3007 -1.3306
 7496SOL    MW429718   1.518   4.322   2.906  0.7414  0.1475 -0.6062
 7497SOL     OW29719   4.410   0.335   3.662  0.4553  0.8217 -0.1989
 7497SOL    HW229720   4.479   0.313   3.600 -0.3473 -1.9560 -0.2440
 7497SOL    HW329721   4.440   0.300   3.746 -1.2503 -1.4649 -0.4325
 7497SOL    MW429722   4.423   0.328   3.665  0.2960  0.7815  0.0863
 7498SOL     OW29723   4.133   1.175   4.974 -0.2773 -0.1378 -0.2587
 7498SOL    HW229724   4.143   1.095   5.027 -0.5219  0.3656  0.5628
 7498SOL    HW329725   4.216   1.221   4.984 -0.1547 -0.2610 -0.6931
 7498SOL    MW429726   4.145   1.170   4.982  0.2296  0.5751  1.0135
 7499SOL     OW29727   2.738   2.406   4.850  0.2077 -0.3651  0.5002
 7499SOL    HW229728   2.714   2.314   4.838 -0.9383  0.0856 -0.9527
 7499SOL    HW329729   2.733   2.444   4.763  3.1467  0.5626  0.6262
 7499SOL    MW429730   2.734   2.399   4.837  0.1570 -0.4031  0.4510
 7500SOL     OW29731   1.638   4.325   1.329 -0.0314 -0.3396 -0.1693
 7500SOL    HW229732   1.686   4.399   1.293  0.1887 -1.2521 -1.9149
 7500SOL    HW329733   1.703   4.255   1.336 -0.9625 -1.5590 -2.4792
 7500SOL    MW429734   1.653   4.325   1.325 -0.1253 -0.1565  0.5627
 7501SOL     OW29735   6.103   0.791   5.406  0.4847  0.0547  0.0567
 7501SOL    HW229736   6.045   0.853   5.361 -0.1122  1.2950  2.4061
 7501SOL    HW329737   6.184   0.793   5.355  0.0016  1.7566 -0.7021
 7501SOL    MW429738   6.106   0.799   5.393 -0.3120 -0.5135  0.3149
 7502SOL     OW29739   0.970   0.165   0.459 -0.1038  0.2312  0.0403
 7502SOL    HW229740   0.946   0.075   0.478 -0.5064  0.4403  0.5411
 7502SOL    HW329741   1.060   0.174   0.492  0.2878 -0.2440 -0.8590
 7502SOL    MW429742   0.979   0.155   0.466  0.4838 -0.5735  0.0491
 7503SOL     OW29743   5.644   0.704   1.849 -0.1785  0.2493  0.0344
 7503SOL    HW229744   5.716   0.699   1.786 -1.3802  1.1381 -1.5020
 7503SOL    HW329745   5.602   0.618   1.845  0.1132  0.1040  0.0823
 7503SOL    MW429746   5.648   0.692   1.840  0.1641 -0.0175 -0.2126
 7504SOL     OW29747   3.087   3.363   1.311  0.0976  0.4350  0.4410
 7504SOL    HW229748   2.996   3.373   1.281  0.3324  0.4498 -0.3042
 7504SOL    HW329749   3.133   3.331   1.233  1.3506  3.3541 -0.1305
 7504SOL    MW429750   3.081   3.360   1.296  0.3407  0.3674  0.7213
 7505SOL     OW29751   6.428   6.107   1.352  0.0631  0.0330  0.7023
 7505SOL    HW229752   6.445   6.199   1.329 -0.0031 -0.0644  0.2593
 7505SOL    HW329753   6.511   6.063   1.335 -0.3254 -0.2600 -0.5144
 7505SOL    MW429754   6.441   6.114   1.347 -0.3748  0.6438  0.3684
 7506SOL     OW29755   0.141   2.594   3.866  0.6005 -0.3451  0.1782
 7506SOL    HW229756   0.057   2.550   3.871  1.0072 -1.1191  0.3932
 7506SOL    HW329757   0.144   2.631   3.778  0.5584 -1.4053 -0.2892
 7506SOL    MW429758   0.131   2.593   3.855 -0.4463  0.1221 -0.2217
 7507SOL     OW29759   3.664   2.001   1.990 -0.7267 -0.3814 -0.1453
 7507SOL    HW229760   3.575   2.022   1.961 -0.5052 -1.1039 -1.3829
 7507SOL    HW329761   3.670   1.906   1.982  0.2318 -0.3157 -0.2728
 7507SOL    MW429762   3.653   1.991   1.985  0.2203 -0.6392  0.1675
 7508SOL     OW29763   4.879   1.522   3.557 -0.0006  0.1677  0.1603
 7508SOL    HW229764   4.916   1.435   3.563 -0.3124  0.0938  1.1622
 7508SOL    HW329765   4.939   1.571   3.501  0.5122 -0.5079  0.1224
 7508SOL    MW429766   4.892   1.517   3.550  0.5988  0.8002  0.1263
 7509SOL     OW29767   3.108   2.976   2.084 -0.3452 -0.3612  0.3086
 7509SOL    HW229768   3.132   3.066   2.062  1.0077 -0.4227  1.3764
 7509SOL    HW329769   3.013   2.979   2.098 -0.7940  0.3035 -2.2751
 7509SOL    MW429770   3.099   2.988   2.083 -0.6347  0.2123 -0.1499
 7510SOL     OW29771   0.651   3.720   1.954 -0.6921 -0.4861 -0.3858
 7510SOL    HW229772   0.671   3.670   1.875  0.3644 -1.8626  0.7001
 7510SOL    HW329773   0.557   3.709   1.966 -0.6231 -1.4397 -0.6737
 7510SOL    MW429774   0.641   3.712   1.945  0.7353 -0.6569 -0.2527
 7511SOL     OW29775   2.952   3.977   2.858  0.8621  0.9049 -0.0974
 7511SOL    HW229776   2.996   3.975   2.943  0.2650 -0.9892  0.2230
 7511SOL    HW329777   2.862   4.004   2.879  1.0840  1.8843 -0.3525
 7511SOL    MW429778   2.946   3.980   2.872  0.4896 -0.1689  0.3765
 7512SOL     OW29779   5.138   3.841   2.035  0.2761  0.2674 -0.0447
 7512SOL    HW229780   5.183   3.925   2.029  0.1834  0.3169 -0.0611
 7512SOL    HW329781   5.126   3.827   2.129 -1.6931  1.3595 -0.0730
 7512SOL    MW429782   5.142   3.850   2.047  0.4879 -0.0182  0.3204
 7513SOL     OW29783   6.239   2.903   5.062 -0.5008  0.1473  0.4372
 7513SOL    HW229784   6.321   2.862   5.091 -0.7383  0.3443  1.4309
 7513SOL    HW329785   6.253   2.997   5.077 -0.8759  0.1880  0.5460
 7513SOL    MW429786   6.252   2.910   5.068 -0.2142 -0.1270  0.6300
 7514SOL     OW29787   0.617   1.991   1.700  0.9136 -0.2232  0.3997
 7514SOL    HW229788   0.583   1.902   1.702 -0.6562  0.3281 -0.3607
 7514SOL    HW329789   0.679   1.992   1.627  0.6004 -0.5839  0.1287
 7514SOL    MW429790   0.621   1.980   1.690  0.2105 -0.0559  0.1341
 7515SOL     OW29791   1.797   5.069   0.822  0.2573  0.5789  0.1042
 7515SOL    HW229792   1.793   4.976   0.843 -0.1011  0.4661 -0.4388
 7515SOL    HW329793   1.809   5.113   0.907 -0.2171  0.0805  0.4307
 7515SOL    MW429794   1.798   5.063   0.836 -0.5920 -0.3017  0.5126
 7516SOL     OW29795   2.730   3.840   1.735 -0.3202  0.7492 -0.8710
 7516SOL    HW229796   2.696   3.839   1.646  0.1823  0.9906 -1.0707
 7516SOL    HW329797   2.819   3.806   1.727 -0.0300  1.4256 -0.5716
 7516SOL    MW429798   2.737   3.836   1.722 -0.2125  0.0167  0.3130
 7517SOL     OW29799   4.326   5.415   1.521  0.0290  0.4139 -0.1668
 7517SOL    HW229800   4.417   5.417   1.552  0.3596 -0.9600 -0.9738
 7517SOL    HW329801   4.274   5.405   1.600  0.7193 -0.8641  0.1583
 7517SOL    MW429802   4.331   5.414   1.535 -0.1603 -0.0204  0.0490
 7518SOL     OW29803   4.110   4.445   2.738  0.0152 -0.1476  0.1687
 7518SOL    HW229804   4.098   4.535   2.767  0.3294 -0.0666  0.0492
 7518SOL    HW329805   4.135   4.452   2.646  2.7049 -0.1851  0.8058
 7518SOL    MW429806   4.112   4.457   2.730  0.3587 -0.0787 -0.2408
 7519SOL     OW29807   0.574   4.657   2.133  0.3107 -0.0033 -0.0096
 7519SOL    HW229808   0.578   4.657   2.229  1.1223 -1.7322 -0.0100
 7519SOL    HW329809   0.658   4.620   2.105 -0.4314 -0.7585 -1.3409
 7519SOL    MW429810   0.586   4.652   2.142 -0.5784  0.4584  0.4328
 7520SOL     OW29811   1.991   1.475   0.506  0.7455 -0.2490 -0.7681
 7520SOL    HW229812   1.914   1.448   0.456  1.1093 -3.1969  0.0439
 7520SOL    HW329813   2.052   1.401   0.499  2.6062  1.0596  0.4396
 7520SOL    MW429814   1.989   1.462   0.498 -0.8044  1.0288  0.2626
 7521SOL     OW29815   3.023   0.704   3.760 -0.3843 -0.3083  0.2332
 7521SOL    HW229816   3.073   0.784   3.744  0.8127 -1.0185  0.2886
 7521SOL    HW329817   3.051   0.675   3.847 -3.2428  0.9250  1.7155
 7521SOL    MW429818   3.033   0.711   3.769 -0.4559  0.0975  0.7911
 7522SOL     OW29819   0.889   5.933   2.698 -0.0868  0.2560 -0.0942
 7522SOL    HW229820   0.953   5.867   2.724  0.3310  0.8215  0.3284
 7522SOL    HW329821   0.939   6.015   2.692 -0.2974  0.3031 -2.0063
 7522SOL    MW429822   0.904   5.935   2.701  0.0731  0.3856 -0.2748
 7523SOL     OW29823   6.029   3.881   4.298  0.1246 -0.6412  0.6071
 7523SOL    HW229824   6.121   3.887   4.271 -0.7209  0.7171 -2.2871
 7523SOL    HW329825   6.007   3.789   4.287  0.5874 -0.6029 -0.7473
 7523SOL    MW429826   6.038   3.870   4.293 -0.7847  0.3179  0.1929
 7524SOL     OW29827   2.761   2.508   0.327  0.3303 -0.1692  0.5798
 7524SOL    HW229828   2.779   2.554   0.245 -0.0263 -0.3199  0.4157
 7524SOL    HW329829   2.843   2.465   0.349  0.3179 -0.4345  0.1042
 7524SOL    MW429830   2.774   2.509   0.319 -0.3023  0.3082 -0.5615
 7525SOL     OW29831   4.749   0.105   0.538 -0.1728 -0.3618  0.0064
 7525SOL    HW229832   4.840   0.132   0.550 -0.4389  0.8693 -0.6436
 7525SOL    HW329833   4.720   0.076   0.625 -0.0223  1.9463  0.8805
 7525SOL    MW429834   4.757   0.105   0.551 -0.9362 -0.4715 -0.2604
 7526SOL     OW29835   0.178   3.949   4.720 -0.1375  1.0303 -0.1745
 7526SOL    HW229836   0.221   4.014   4.665 -0.3416  1.7269  0.4646
 7526SOL    HW329837   0.240   3.933   4.791  1.1982 -1.6776 -1.8079
 7526SOL    MW429838   0.192   3.956   4.722  0.6545  0.8048  0.5616
 7527SOL     OW29839   5.667   1.036   2.291 -0.0461 -0.7130 -0.0728
 7527SOL    HW229840   5.746   1.076   2.328 -0.7866  1.1789 -0.3972
 7527SOL    HW329841   5.690   1.019   2.199 -0.6083  1.8427 -0.7709
 7527SOL    MW429842   5.681   1.039   2.284 -0.0498  0.1216 -0.7905
 7528SOL     OW29843   2.952   5.997   3.601 -0.4393 -0.0444  0.6594
 7528SOL    HW229844   3.033   6.027   3.642 -0.0923 -0.3833  0.2260
 7528SOL    HW329845   2.914   6.076   3.564 -0.7706  0.2765  1.6406
 7528SOL    MW429846   2.958   6.012   3.602  0.0698  1.0935 -0.6390
 7529SOL     OW29847   2.036   4.546   1.153 -0.0560 -1.0746 -0.0130
 7529SOL    HW229848   2.090   4.589   1.220  2.1536 -2.8863 -0.5139
 7529SOL    HW329849   2.074   4.575   1.070 -2.5650  0.8855 -0.5972
 7529SOL    MW429850   2.048   4.556   1.151 -0.2181 -0.3450 -0.0062
 7530SOL     OW29851   4.365   5.769   0.932  0.2145  0.2266  0.4236
 7530SOL    HW229852   4.290   5.713   0.912  1.7350 -1.7165 -0.2492
 7530SOL    HW329853   4.348   5.850   0.886 -1.6138 -0.0416  0.5721
 7530SOL    MW429854   4.353   5.772   0.923  0.0095 -0.3643 -0.5812
 7531SOL     OW29855   2.980   5.286   6.337 -0.3548  0.4197 -0.0721
 7531SOL    HW229856   2.997   5.256   6.247 -1.5622 -1.7636  0.3587
 7531SOL    HW329857   2.930   5.366   6.326  0.1898  0.6187 -1.3477
 7531SOL    MW429858   2.976   5.292   6.323 -0.1558 -0.0345 -0.0141
 7532SOL     OW29859   1.513   0.402   1.215  0.7679  0.0347  0.0355
 7532SOL    HW229860   1.597   0.446   1.226  2.1299 -2.5129  0.5425
 7532SOL    HW329861   1.488   0.376   1.304  0.7446 -1.4479 -0.3822
 7532SOL    MW429862   1.521   0.404   1.228 -0.0682 -0.4134  0.2228
 7533SOL     OW29863   1.833   1.687   5.068 -0.0119  0.7530  0.2027
 7533SOL    HW229864   1.784   1.639   5.135 -0.0230  1.6282  0.8405
 7533SOL    HW329865   1.767   1.740   5.024 -0.2723 -0.9318 -1.5586
 7533SOL    MW429866   1.818   1.688   5.071 -0.4180 -0.0545  0.2379
 7534SOL     OW29867   2.295   0.920   3.086  0.6089 -0.2269  0.3700
 7534SOL    HW229868   2.238   0.916   3.009 -0.2671  0.3962  0.9567
 7534SOL    HW329869   2.294   1.012   3.112  2.6498 -0.0216 -0.1344
 7534SOL    MW429870   2.287   0.932   3.079 -0.3733  0.1695  0.8246
 7535SOL     OW29871   6.116   3.159   4.381  0.7316 -0.2012 -0.3167
 7535SOL    HW229872   6.125   3.075   4.334  1.2377 -1.2820  1.6092
 7535SOL    HW329873   6.023   3.163   4.405  0.8745 -0.6899  0.3697
 7535SOL    MW429874   6.105   3.148   4.378 -0.0922 -0.4129 -0.1109
 7536SOL     OW29875   1.815   0.384   0.979  0.4616 -0.2569  0.0304
 7536SOL    HW229876   1.788   0.454   1.039 -0.6755  0.3288 -1.0977
 7536SOL    HW329877   1.846   0.314   1.036 -1.2143 -0.0023  1.3405
 7536SOL    MW429878   1.815   0.384   0.994  0.3034  0.0162  0.7667
 7537SOL     OW29879   3.839   4.604   2.207 -0.4008  0.2368 -0.0226
 7537SOL    HW229880   3.860   4.544   2.278 -0.6525  0.0036 -0.1420
 7537SOL    HW329881   3.920   4.611   2.157 -0.4205 -0.1525 -0.1141
 7537SOL    MW429882   3.853   4.597   2.210  0.7116  0.6476 -0.6009
 7538SOL     OW29883   1.250   2.642   1.407  0.1905 -0.2311  0.1365
 7538SOL    HW229884   1.300   2.598   1.338 -0.5668 -0.3944 -0.3265
 7538SOL    HW329885   1.305   2.716   1.434  0.8516 -0.6392 -0.0738
 7538SOL    MW429886   1.264   2.646   1.401  0.3164 -0.4543 -0.2032
 7539SOL     OW29887   2.494   1.369   2.506 -0.0902 -0.0706 -0.0149
 7539SOL    HW229888   2.437   1.322   2.445 -1.1311  0.9630  0.1123
 7539SOL    HW329889   2.447   1.450   2.524  1.2263  0.6111  0.4774
 7539SOL    MW429890   2.480   1.374   2.500 -0.1092  0.1602  0.0406
 7540SOL     OW29891   1.523   1.747   0.166 -0.1357 -0.2230  0.2253
 7540SOL    HW229892   1.502   1.697   0.245 -0.3887  0.1416  0.3915
 7540SOL    HW329893   1.572   1.822   0.198  0.4095 -0.4571 -0.0442
 7540SOL    MW429894   1.527   1.750   0.180  0.0912  0.1058 -0.2193
 7541SOL     OW29895   2.856   1.128   2.762  0.1048  0.0813  0.3364
 7541SOL    HW229896   2.800   1.147   2.687 -1.3774 -2.5710  0.6927
 7541SOL    HW329897   2.800   1.140   2.839  0.8540  0.1487  0.8952
 7541SOL    MW429898   2.841   1.132   2.762  0.4878  0.1893  0.3229
 7542SOL     OW29899   0.615   1.939   4.359 -0.2710 -0.1898  0.2008
 7542SOL    HW229900   0.549   1.886   4.313 -0.3796 -0.0795  0.2305
 7542SOL    HW329901   0.591   1.934   4.451 -1.0158  0.9337  0.0846
 7542SOL    MW429902   0.603   1.931   4.365  0.3640 -0.0602 -0.1163
 7543SOL     OW29903   1.234   1.544   0.072  0.6355 -0.0619  0.0161
 7543SOL    HW229904   1.181   1.472   0.036  0.4380  0.3921 -0.6197
 7543SOL    HW329905   1.208   1.550   0.163  1.2953 -1.3877  0.3165
 7543SOL    MW429906   1.224   1.535   0.079  0.0020  0.7549 -0.0735
 7544SOL     OW29907   2.288   3.198   2.261  0.4681  0.3514  0.0110
 7544SOL    HW229908   2.270   3.287   2.230 -1.0936  0.2968  0.6760
 7544SOL    HW329909   2.224   3.183   2.330  0.4223 -1.4503 -0.3831
 7544SOL    MW429910   2.277   3.208   2.266 -0.1165 -0.1028 -0.0201
 7545SOL     OW29911   4.806   1.734   3.870  0.1349 -0.0568  0.0741
 7545SOL    HW229912   4.870   1.677   3.828  1.0602 -0.1754  1.5599
 7545SOL    HW329913   4.810   1.710   3.963 -0.1251  1.7609  0.5943
 7545SOL    MW429914   4.815   1.723   3.877  0.5332 -0.2351  0.7209
 7546SOL     OW29915   0.284   5.702   3.107  0.1282 -0.5450 -0.4099
 7546SOL    HW229916   0.217   5.753   3.154  1.0171 -0.6072  0.9799
 7546SOL    HW329917   0.367   5.739   3.136  0.7221 -1.1756 -1.2805
 7546SOL    MW429918   0.286   5.713   3.117 -0.2708  0.1707  0.3148
 7547SOL     OW29919   2.093   5.918   0.007 -0.1321  0.3362  0.1843
 7547SOL    HW229920   2.043   5.940  -0.072 -0.1907  0.4408  0.2496
 7547SOL    HW329921   2.028   5.884   0.068  0.2045 -1.6763 -0.5125
 7547SOL    MW429922   2.078   5.917   0.004 -0.3325 -0.1105 -0.2736
 7548SOL     OW29923   0.519   4.293   6.201 -0.0001 -0.2751  0.0153
 7548SOL    HW229924   0.498   4.332   6.286 -1.4209 -1.2198  0.1385
 7548SOL    HW329925   0.485   4.203   6.207  0.2973 -0.4991 -1.3828
 7548SOL    MW429926   0.512   4.286   6.213  0.5859 -0.4453  0.3170
 7549SOL     OW29927   3.928   5.444   5.355  0.6498 -0.4505 -0.0907
 7549SOL    HW229928   3.832   5.444   5.364  0.6299  0.5570 -0.2065
 7549SOL    HW329929   3.944   5.393   5.276  0.3290 -2.0730  0.8296
 7549SOL    MW429930   3.917   5.437   5.346  0.3209  1.0740 -0.4623
 7550SOL     OW29931   4.378   1.254   5.054 -0.4744 -0.5694 -0.1176
 7550SOL    HW229932   4.388   1.344   5.084 -1.3461 -0.6597  0.4923
 7550SOL    HW329933   4.365   1.203   5.134  0.3473 -1.2992 -0.4272
 7550SOL    MW429934   4.378   1.259   5.069 -0.7388 -0.3356  0.9235
 7551SOL     OW29935   5.915   0.298   2.592 -0.1894  0.1310 -0.4066
 7551SOL    HW229936   5.827   0.304   2.553 -0.6058 -0.9313  0.3186
 7551SOL    HW329937   5.902   0.326   2.683  1.0614  4.1748 -1.2598
 7551SOL    MW429938   5.901   0.303   2.599  0.4374 -0.3079 -0.3416
 7552SOL     OW29939   0.857   1.348   3.775  0.0737  0.4211  0.1981
 7552SOL    HW229940   0.763   1.334   3.785 -0.4296  2.7439 -0.6919
 7552SOL    HW329941   0.877   1.420   3.835  1.0362  0.7627 -0.5098
 7552SOL    MW429942   0.847   1.355   3.784 -0.4370 -0.3184 -0.3779
 7553SOL     OW29943   3.447   5.170   0.720 -0.2345 -0.3376  0.5445
 7553SOL    HW229944   3.477   5.080   0.738 -0.6532 -0.5243  0.3206
 7553SOL    HW329945   3.387   5.190   0.791  1.8789  0.7816  2.1471
 7553SOL    MW429946   3.443   5.161   0.732 -0.7215  0.0793  0.1647
 7554SOL     OW29947   4.823   0.645   5.351  0.2360  0.1446 -0.3277
 7554SOL    HW229948   4.849   0.737   5.352  0.1224  0.1808  0.4225
 7554SOL    HW329949   4.807   0.624   5.443 -0.9949 -0.2658 -0.6146
 7554SOL    MW429950   4.824   0.654   5.363 -0.0930 -0.4358 -0.0883
 7555SOL     OW29951   0.617   5.610   2.541  0.2441 -0.2139  0.0202
 7555SOL    HW229952   0.562   5.687   2.529  0.0505 -0.3963 -0.2987
 7555SOL    HW329953   0.690   5.622   2.481 -0.4777 -0.9008 -1.0393
 7555SOL    MW429954   0.619   5.621   2.531  0.3408 -0.1957  0.2348
 7556SOL     OW29955   6.302   5.220   4.810  0.4238 -0.5895  0.0563
 7556SOL    HW229956   6.383   5.216   4.759  0.1834 -2.2830 -0.2411
 7556SOL    HW329957   6.292   5.133   4.847 -0.4955  0.0211  1.3230
 7556SOL    MW429958   6.311   5.208   4.808  0.0234 -0.2346  0.0610
 7557SOL     OW29959   4.623   6.101   3.638  0.3321 -0.5219  0.0805
 7557SOL    HW229960   4.552   6.043   3.666  0.5144 -0.5535  0.4747
 7557SOL    HW329961   4.640   6.076   3.547 -0.6861  0.0030 -0.2688
 7557SOL    MW429962   4.616   6.090   3.630 -0.0797  0.0755 -0.4303
 7558SOL     OW29963   5.810   3.118   6.181 -0.1108 -0.5184  0.1433
 7558SOL    HW229964   5.843   3.029   6.189 -1.0875 -0.8637  0.4096
 7558SOL    HW329965   5.724   3.108   6.141  0.2513  0.3964 -0.9117
 7558SOL    MW429966   5.803   3.105   6.177  0.0309 -0.3688  0.4809
 7559SOL     OW29967   5.937   3.108   0.171  0.1584 -0.3054  0.5676
 7559SOL    HW229968   5.991   3.102   0.092 -0.6570  0.7354 -0.0922
 7559SOL    HW329969   5.932   3.017   0.202  0.4609 -0.7519 -0.5977
 7559SOL    MW429970   5.944   3.095   0.165  0.4994  0.5059 -0.2317
 7560SOL     OW29971   4.518   2.757   3.894  0.2247 -0.5978  0.1730
 7560SOL    HW229972   4.485   2.831   3.946  0.2047 -0.6090  0.1756
 7560SOL    HW329973   4.478   2.680   3.934  0.1663 -0.6018  0.1064
 7560SOL    MW429974   4.509   2.757   3.906 -0.4143 -0.5544 -0.1565
 7561SOL     OW29975   0.313   5.504   3.398 -0.1286  0.3069  0.3221
 7561SOL    HW229976   0.375   5.553   3.344 -0.9390  1.9333  0.8059
 7561SOL    HW329977   0.367   5.444   3.449  0.7850 -0.1874 -1.1634
 7561SOL    MW429978   0.328   5.502   3.398  0.0842  0.0457  0.3479
 7562SOL     OW29979   2.558   2.574   3.905 -0.3155  0.5148  0.1851
 7562SOL    HW229980   2.584   2.483   3.888  0.1313  0.4761  1.0334
 7562SOL    HW329981   2.464   2.575   3.890 -0.1972  0.1143 -0.6656
 7562SOL    MW429982   2.549   2.562   3.901 -0.5736  0.1845  0.0252
 7563SOL     OW29983   3.280   3.007   2.300 -0.3457  0.0740 -0.0473
 7563SOL    HW229984   3.239   2.942   2.357 -0.0370 -0.4019 -0.3592
 7563SOL    HW329985   3.224   3.010   2.223 -0.1501 -0.1118 -0.1997
 7563SOL    MW429986   3.267   2.998   2.297 -0.3517  0.5436  0.4549
 7564SOL     OW29987   1.159   1.587   4.217 -0.2283  0.1989 -0.6357
 7564SOL    HW229988   1.123   1.618   4.134 -0.3628 -0.9278 -1.0255
 7564SOL    HW329989   1.222   1.654   4.244 -0.0225  0.4685 -1.7602
 7564SOL    MW429990   1.163   1.600   4.210 -0.3852 -0.6027 -0.1864
 7565SOL     OW29991   2.729   3.286   4.230 -0.0689  0.6617  0.1850
 7565SOL    HW229992   2.703   3.369   4.270 -1.3947  0.5229 -0.3245
 7565SOL    HW329993   2.646   3.240   4.215  0.4605  0.2075 -1.5990
 7565SOL    MW429994   2.715   3.290   4.233  0.6685 -0.1757  0.1828
 7566SOL     OW29995   5.271   4.839   4.934  0.1800  0.0496  0.2466
 7566SOL    HW229996   5.321   4.810   5.010 -1.1051 -2.8173  0.1227
 7566SOL    HW329997   5.312   4.794   4.860 -0.0548  0.9527 -0.4551
 7566SOL    MW429998   5.283   4.829   4.934 -0.0283  0.0976  0.6471
 7567SOL     OW29999   3.827   4.014   3.651  0.3507  0.1278 -0.1382
 7567SOL    HW230000   3.828   4.107   3.672  1.1746  0.0111  0.3914
 7567SOL    HW330001   3.841   4.010   3.557  2.0052  0.4999  0.0619
 7567SOL    MW430002   3.829   4.026   3.642  0.3141 -0.7019  0.2419
 7568SOL     OW30003   2.980   2.938   2.374  0.0762  0.1348 -0.0574
 7568SOL    HW230004   2.944   2.879   2.440  0.3839 -0.6007 -0.5200
 7568SOL    HW330005   2.987   3.023   2.417  0.5150 -0.3921  0.9350
 7568SOL    MW430006   2.976   2.941   2.388 -0.4392 -0.1694 -0.4550
 7569SOL     OW30007   4.937   4.533   1.812  0.2059  0.2024 -0.0482
 7569SOL    HW230008   4.898   4.593   1.875  0.5719  0.6070 -0.1997
 7569SOL    HW330009   5.014   4.580   1.778 -0.4553  0.3471 -1.4188
 7569SOL    MW430010   4.942   4.547   1.816 -0.4853  0.2083 -0.6251
 7570SOL     OW30011   3.546   2.553   5.243 -0.1735  0.4918  0.0494
 7570SOL    HW230012   3.542   2.457   5.235 -0.0786  0.2889  1.8413
 7570SOL    HW330013   3.459   2.583   5.217 -0.3788 -0.1334 -0.0025
 7570SOL    MW430014   3.534   2.544   5.239  0.0084 -0.3528  0.3201
 7571SOL     OW30015   0.455   2.203   4.542  0.5261  0.1832  0.0557
 7571SOL    HW230016   0.487   2.121   4.579  1.0292  1.7353  3.4956
 7571SOL    HW330017   0.364   2.185   4.519  0.9243 -1.5920 -0.2337
 7571SOL    MW430018   0.447   2.190   4.544 -0.1622  0.4978 -0.0907
 7572SOL     OW30019   3.494   6.303   3.119 -0.2564  0.1113 -0.6082
 7572SOL    HW230020   3.436   6.372   3.151  0.4219 -0.2319  1.5155
 7572SOL    HW330021   3.448   6.221   3.140  1.2757 -0.2045  1.9470
 7572SOL    MW430022   3.480   6.301   3.126 -0.4840 -0.7906  0.4642
 7573SOL     OW30023   3.406   5.162   5.793 -0.8072  0.1001 -0.3773
 7573SOL    HW230024   3.353   5.208   5.858  1.0423 -0.0195  1.3350
 7573SOL    HW330025   3.409   5.071   5.824  0.8962  0.2406  0.0148
 7573SOL    MW430026   3.400   5.156   5.806 -0.3879 -0.2640  0.7116
 7574SOL     OW30027   2.728   2.293   3.201  0.2715 -0.2985  0.7181
 7574SOL    HW230028   2.780   2.222   3.163  0.3599 -0.5171  1.2306
 7574SOL    HW330029   2.727   2.273   3.295  1.4331  1.1344  1.0597
 7574SOL    MW430030   2.735   2.281   3.209  0.1176  0.0543 -0.0088
 7575SOL     OW30031   6.249   2.659   4.269 -0.4720 -0.1150 -0.1127
 7575SOL    HW230032   6.334   2.674   4.312 -0.6599  1.5851 -0.2831
 7575SOL    HW330033   6.192   2.631   4.340 -0.4527  1.4369  0.5546
 7575SOL    MW430034   6.253   2.657   4.284  0.6572  0.4261 -0.0510
 7576SOL     OW30035   0.163   1.430   2.235  0.1759 -0.6898  0.1634
 7576SOL    HW230036   0.072   1.401   2.228 -0.3921  1.2204 -1.2607
 7576SOL    HW330037   0.162   1.497   2.303  0.3930 -0.3076 -0.1995
 7576SOL    MW430038   0.151   1.435   2.243 -0.5160 -0.2072 -0.9004
 7577SOL     OW30039   6.071   0.634   0.152 -0.0607 -0.0468 -0.2120
 7577SOL    HW230040   6.152   0.584   0.141  0.2643  0.3971  0.1342
 7577SOL    HW330041   6.100   0.719   0.186 -0.7706 -0.2937  1.0463
 7577SOL    MW430042   6.086   0.638   0.155 -0.4199  0.2359 -0.1696
 7578SOL     OW30043   1.545   2.985   4.197 -0.0698 -0.0084  0.1271
 7578SOL    HW230044   1.451   2.982   4.218  0.2635  0.2339  1.7991
 7578SOL    HW330045   1.575   2.896   4.212 -0.5625 -0.9682 -3.5209
 7578SOL    MW430046   1.537   2.973   4.202  0.5460 -0.0003  0.0337
 7579SOL     OW30047   3.925   4.238   2.658 -0.0619 -0.8254 -0.2020
 7579SOL    HW230048   3.967   4.155   2.636  0.8563 -0.1914 -0.9233
 7579SOL    HW330049   3.995   4.292   2.695 -0.4411 -0.0737 -0.5368
 7579SOL    MW430050   3.940   4.234   2.660 -0.5445  0.2475  0.8945
 7580SOL     OW30051   3.302   1.276   5.038  0.3885  0.3482  0.2926
 7580SOL    HW230052   3.326   1.343   4.975 -0.8783  0.9830  0.4603
 7580SOL    HW330053   3.306   1.194   4.989 -3.3601  1.0667 -1.5616
 7580SOL    MW430054   3.305   1.274   5.024  0.1017 -0.2528  0.6737
 7581SOL     OW30055   6.274   3.955   2.098 -0.0594  0.0565 -0.1918
 7581SOL    HW230056   6.331   3.935   2.024 -0.6502 -0.9104 -0.3991
 7581SOL    HW330057   6.297   3.890   2.164 -1.2890 -0.7179 -0.4886
 7581SOL    MW430058   6.284   3.944   2.097  0.8005  0.2219  0.0517
 7582SOL     OW30059   1.123   4.830   1.907 -0.3921  0.5318  0.1704
 7582SOL    HW230060   1.047   4.782   1.875 -2.2011  1.8623  2.1842
 7582SOL    HW330061   1.120   4.820   2.002  2.9992 -0.7862  0.2822
 7582SOL    MW430062   1.113   4.823   1.915  0.4970  0.0514 -0.8516
 7583SOL     OW30063   2.748   5.029   6.140 -0.0032  0.4110  0.4189
 7583SOL    HW230064   2.839   5.041   6.167 -0.4811  0.4047  2.1281
 7583SOL    HW330065   2.727   5.109   6.092  1.1273  0.0581 -0.7526
 7583SOL    MW430066   2.758   5.041   6.137  0.0212  0.2345  0.1749
 7584SOL     OW30067   4.756   3.393   4.632 -0.1653  0.4893 -0.1155
 7584SOL    HW230068   4.731   3.417   4.721 -0.5390  1.3707 -0.4423
 7584SOL    HW330069   4.696   3.323   4.608  3.0832 -3.4754  2.0793
 7584SOL    MW430070   4.745   3.387   4.640 -0.0395  0.0313 -0.6334
 7585SOL     OW30071   5.153   1.338   2.644 -0.2641 -0.0750 -0.0270
 7585SOL    HW230072   5.207   1.397   2.592  0.1103 -0.2797  0.1219
 7585SOL    HW330073   5.155   1.255   2.596 -3.8111  0.9107 -2.2863
 7585SOL    MW430074   5.160   1.335   2.631  0.2656  0.5882  0.1657
 7586SOL     OW30075   1.654   2.811   0.142  0.0420  0.1430 -0.0105
 7586SOL    HW230076   1.654   2.828   0.048 -0.0330  0.6745  0.0839
 7586SOL    HW330077   1.742   2.835   0.170  0.4598 -1.1522 -0.1393
 7586SOL    MW430078   1.666   2.816   0.133  0.0122  0.5238  0.0625
 7587SOL     OW30079   1.344   0.838   2.889  0.5298  0.2308 -0.3320
 7587SOL    HW230080   1.312   0.798   2.808  0.0929  1.0555 -0.5774
 7587SOL    HW330081   1.408   0.903   2.859  3.4796 -2.1964  0.1804
 7587SOL    MW430082   1.348   0.841   2.874 -1.0903  0.2007 -0.2834
 7588SOL     OW30083   0.052   0.842   1.608  0.3880  0.3259  0.2611
 7588SOL    HW230084  -0.040   0.819   1.598  0.7889 -1.2211 -0.1771
 7588SOL    HW330085   0.084   0.782   1.675  0.9616  1.2063  0.7883
 7588SOL    MW430086   0.044   0.831   1.616  0.1635 -0.0394  0.5424
 7589SOL     OW30087   3.947   1.693   3.736  0.2353  0.4463 -0.3299
 7589SOL    HW230088   3.856   1.724   3.745 -0.1581 -1.0518  1.4714
 7589SOL    HW330089   3.980   1.740   3.659 -1.6178  2.0716 -0.2356
 7589SOL    MW430090   3.939   1.704   3.727 -0.2670 -0.1452  0.4044
 7590SOL     OW30091   2.413   5.120   3.176  0.6426 -0.5639 -0.5226
 7590SOL    HW230092   2.475   5.191   3.161  0.0666  0.3436  1.1116
 7590SOL    HW330093   2.433   5.089   3.264 -1.7784  0.4301  0.4785
 7590SOL    MW430094   2.424   5.126   3.185 -0.3774  0.3220  0.4997
 7591SOL     OW30095   2.385   4.196   0.974  0.5014 -0.3745  0.1115
 7591SOL    HW230096   2.324   4.235   1.038 -0.2012  1.2516 -1.4606
 7591SOL    HW330097   2.353   4.107   0.962 -2.6272  0.8082 -1.7233
 7591SOL    MW430098   2.373   4.190   0.981 -0.2782  0.2137 -0.1897
 7592SOL     OW30099   0.824   0.081   6.361  0.5733 -0.0918  0.1490
 7592SOL    HW230100   0.854   0.155   6.308 -1.1321 -1.3638 -2.8537
 7592SOL    HW330101   0.771   0.120   6.430  1.1750  1.5606 -0.2789
 7592SOL    MW430102   0.821   0.096   6.363  0.1328 -0.0894  0.1633
 7593SOL     OW30103   2.786   5.969   3.818 -0.2099  0.7876 -0.1405
 7593SOL    HW230104   2.842   5.989   3.893  0.6731  0.0847 -0.5837
 7593SOL    HW330105   2.839   5.992   3.742 -0.2569 -0.4964 -0.5835
 7593SOL    MW430106   2.800   5.974   3.818 -0.0591  0.0373 -0.3440
 7594SOL     OW30107   2.240   2.923   1.341 -0.2849 -0.7437 -0.1658
 7594SOL    HW230108   2.283   2.838   1.336 -0.5143 -0.7922 -1.5092
 7594SOL    HW330109   2.256   2.952   1.431 -0.5712 -2.3897  0.4512
 7594SOL    MW430110   2.248   2.916   1.352  0.7563 -0.5322 -0.2568
 7595SOL     OW30111   1.558   4.653   3.893 -0.4759 -0.6474  0.3189
 7595SOL    HW230112   1.487   4.651   3.957  1.2316  1.1202  2.4557
 7595SOL    HW330113   1.636   4.675   3.945  0.6982  3.2191 -2.6095
 7595SOL    MW430114   1.559   4.656   3.908  0.0421 -0.4203  0.1031
 7596SOL     OW30115   3.013   3.339   5.143 -0.1354 -0.2500 -0.0198
 7596SOL    HW230116   3.039   3.422   5.104 -0.8453 -0.0993 -0.1841
 7596SOL    HW330117   3.079   3.276   5.113 -0.3797 -0.0307 -1.0342
 7596SOL    MW430118   3.025   3.341   5.134  0.1011  0.2326  0.0535
 7597SOL     OW30119   2.968   2.947   6.085  0.1243  0.0234 -0.0329
 7597SOL    HW230120   2.978   2.943   5.990  2.6257  0.5879  0.1321
 7597SOL    HW330121   2.998   3.035   6.108 -1.7780  0.3988  1.1757
 7597SOL    MW430122   2.974   2.958   6.076 -0.5067  0.3460 -0.0902
 7598SOL     OW30123   1.432   5.333   3.078 -0.4748  0.0869  0.1167
 7598SOL    HW230124   1.445   5.407   3.137  2.0773 -0.1809  0.0005
 7598SOL    HW330125   1.441   5.256   3.134 -4.4369 -0.2968  0.5111
 7598SOL    MW430126   1.435   5.332   3.093 -0.3896 -0.6560  0.1194
 7599SOL     OW30127   1.142   5.727   2.391  0.6401 -0.1387 -0.0889
 7599SOL    HW230128   1.151   5.671   2.315 -0.6481 -0.7482  0.1912
 7599SOL    HW330129   1.081   5.681   2.449 -0.8679  1.7387 -0.0607
 7599SOL    MW430130   1.135   5.714   2.389 -0.2879  0.6535 -0.6586
 7600SOL     OW30131   4.147   4.148   5.366 -0.5423  0.3321 -0.1592
 7600SOL    HW230132   4.192   4.084   5.422  0.2086 -0.3462 -1.4986
 7600SOL    HW330133   4.143   4.227   5.420 -1.1634 -0.7103  1.4052
 7600SOL    MW430134   4.153   4.150   5.381 -0.0277 -0.3874 -0.0542
 7601SOL     OW30135   5.867   4.028   1.104 -0.6802  0.0030  0.0630
 7601SOL    HW230136   5.915   3.974   1.043  0.5906  1.8881 -0.6982
 7601SOL    HW330137   5.895   3.998   1.191  0.8892  0.1862 -0.3531
 7601SOL    MW430138   5.877   4.017   1.108 -0.3052  0.1504  0.4447
 7602SOL     OW30139   5.329   4.330   5.962  0.3799  0.6552  0.0284
 7602SOL    HW230140   5.343   4.348   5.869 -0.2007  1.4245  0.0829
 7602SOL    HW330141   5.415   4.343   6.002  0.4579  1.1051 -0.2814
 7602SOL    MW430142   5.343   4.334   5.955  0.1846 -0.0916  0.0837
 7603SOL     OW30143   2.878   0.512   6.266 -0.3061  0.0211  0.6347
 7603SOL    HW230144   2.814   0.571   6.306 -2.3575 -0.0444 -2.2559
 7603SOL    HW330145   2.950   0.569   6.240  0.5253  0.2328  3.0874
 7603SOL    MW430146   2.880   0.527   6.268  0.1245 -0.3679 -0.2668
 7604SOL     OW30147   1.339   2.459   3.919 -0.4747 -0.5438 -0.2095
 7604SOL    HW230148   1.420   2.411   3.936 -0.0304  0.1031 -0.4579
 7604SOL    HW330149   1.277   2.393   3.891  0.6612 -0.7660 -2.4079
 7604SOL    MW430150   1.342   2.444   3.918 -0.0822 -0.3738  0.5480
 7605SOL     OW30151   4.724   0.783   1.915 -0.1459 -0.3640 -0.3945
 7605SOL    HW230152   4.731   0.802   1.821 -0.0286  0.5098 -0.2168
 7605SOL    HW330153   4.814   0.766   1.943  0.0294  0.9127 -0.1366
 7605SOL    MW430154   4.737   0.783   1.906 -0.3913 -0.0741 -0.4236
 7606SOL     OW30155   2.989   2.131   4.293 -0.1623 -0.0886 -0.5715
 7606SOL    HW230156   3.083   2.117   4.304  0.1294  1.1998 -1.1209
 7606SOL    HW330157   2.952   2.044   4.283  1.2549 -0.5567 -2.2389
 7606SOL    MW430158   2.997   2.118   4.293  0.4343  0.1406  0.1573
 7607SOL     OW30159   4.426   0.857   3.300 -0.4433 -0.0790  0.1238
 7607SOL    HW230160   4.396   0.809   3.223 -1.5842  0.2207  0.3540
 7607SOL    HW330161   4.404   0.799   3.374  1.1486 -0.6126  0.2047
 7607SOL    MW430162   4.419   0.843   3.300 -0.4893  0.7230 -0.0303
 7608SOL     OW30163   2.265   1.632   3.143  0.0098  0.0188 -0.6620
 7608SOL    HW230164   2.251   1.570   3.072  1.7278  1.7092 -2.6230
 7608SOL    HW330165   2.361   1.635   3.153 -0.0489  1.9608 -0.3214
 7608SOL    MW430166   2.276   1.624   3.135  0.0038  0.0648 -0.1695
 7609SOL     OW30167   3.977   2.465   6.018 -0.0147 -0.2396 -0.0391
 7609SOL    HW230168   4.023   2.502   5.943  0.3693  0.2123  0.4142
 7609SOL    HW330169   3.955   2.540   6.072 -1.2902 -0.4534 -0.2400
 7609SOL    MW430170   3.980   2.480   6.015 -0.4561 -0.7582 -0.4862
 7610SOL     OW30171   6.003   5.067   1.922  0.0254 -0.2687 -0.4952
 7610SOL    HW230172   6.043   5.069   2.008  0.5541  0.3191 -0.7419
 7610SOL    HW330173   5.921   5.020   1.934  0.2978 -0.5608  0.2364
 7610SOL    MW430174   5.998   5.061   1.935  0.7003 -0.5987  0.2260
 7611SOL     OW30175   4.552   4.122   0.944 -0.7654  0.0964  0.4786
 7611SOL    HW230176   4.536   4.102   0.852  1.0001 -1.3537  0.4225
 7611SOL    HW330177   4.625   4.183   0.944  0.1672 -0.9667  0.8971
 7611SOL    MW430178   4.559   4.127   0.932  0.7125  0.1040 -0.2625
 7612SOL     OW30179   3.087   1.524   3.814  0.5942  0.8602  0.3178
 7612SOL    HW230180   3.159   1.574   3.776  1.5187 -1.2935 -0.9327
 7612SOL    HW330181   3.012   1.541   3.756  0.5270  1.7464  0.6423
 7612SOL    MW430182   3.086   1.533   3.801  0.0690  0.5389  0.7997
 7613SOL     OW30183   2.848   0.470   0.568  0.0189 -0.0135 -0.1869
 7613SOL    HW230184   2.831   0.540   0.631 -1.5035  0.6577 -1.2748
 7613SOL    HW330185   2.776   0.476   0.505  1.1637 -1.0135 -1.6803
 7613SOL    MW430186   2.836   0.480   0.568  0.5953 -0.2616 -1.1651
 7614SOL     OW30187   2.513   1.086   1.174  0.5678  0.0789 -0.4399
 7614SOL    HW230188   2.569   1.161   1.194 -2.2176  2.8463 -1.9051
 7614SOL    HW330189   2.458   1.076   1.252  0.6630 -0.1186 -0.4002
 7614SOL    MW430190   2.513   1.095   1.186  0.6428  0.2921 -0.1472
 7615SOL     OW30191   5.808   0.826   4.065  0.0106  0.1095 -0.7525
 7615SOL    HW230192   5.795   0.915   4.098  1.0415  0.2931 -0.8108
 7615SOL    HW330193   5.735   0.812   4.004 -1.1242  0.2741  0.5393
 7615SOL    MW430194   5.797   0.836   4.061  0.0364  0.0409  0.2595
 7616SOL     OW30195   3.132   4.701   2.111  0.0979  0.3740 -0.3167
 7616SOL    HW230196   3.043   4.726   2.138  0.5612  0.0796  1.6140
 7616SOL    HW330197   3.149   4.756   2.034 -1.7170  0.4753 -0.7097
 7616SOL    MW430198   3.122   4.712   2.104 -0.0021 -0.4770 -0.5171
 7617SOL     OW30199   0.929   5.336   3.132 -1.0206  0.2293 -0.2512
 7617SOL    HW230200   0.943   5.290   3.215  0.1970 -0.6230 -0.8940
 7617SOL    HW330201   0.889   5.419   3.157  2.2248  1.4259  1.5529
 7617SOL    MW430202   0.926   5.340   3.146 -0.2193 -0.1741 -0.2737
 7618SOL     OW30203   2.688   5.500   4.267 -0.0613 -0.4691  0.2355
 7618SOL    HW230204   2.738   5.550   4.331  0.6364 -1.3426  0.3885
 7618SOL    HW330205   2.719   5.532   4.182 -0.0918 -0.1871  0.3281
 7618SOL    MW430206   2.698   5.511   4.264 -0.4344  0.0594 -0.4884
 7619SOL     OW30207   4.379   2.990   4.047  0.2324  0.0908 -0.7170
 7619SOL    HW230208   4.391   2.912   4.101  1.0945 -0.0553 -1.1191
 7619SOL    HW330209   4.312   2.964   3.984 -1.2249  0.4451  0.6017
 7619SOL    MW430210   4.371   2.976   4.046 -0.1610  0.9675  0.5216
 7620SOL     OW30211   4.468   5.516   5.845 -0.1525 -0.1771 -0.1580
 7620SOL    HW230212   4.561   5.500   5.830  0.1041  1.2516 -0.2061
 7620SOL    HW330213   4.424   5.467   5.775  0.4787 -1.6660  0.4436
 7620SOL    MW430214   4.475   5.508   5.833 -0.1660 -0.2883  0.2038
 7621SOL     OW30215   3.551   1.200   5.124 -0.2520  0.8791 -0.3254
 7621SOL    HW230216   3.600   1.237   5.050 -0.4819  0.6854 -0.5769
 7621SOL    HW330217   3.463   1.237   5.116 -0.4477  0.3875 -0.5047
 7621SOL    MW430218   3.546   1.210   5.113 -0.0557  0.2905  0.3968
 7622SOL     OW30219   1.922   1.816   3.784 -0.3599 -0.2863  0.0968
 7622SOL    HW230220   1.970   1.898   3.797 -0.7820  0.0187 -0.2210
 7622SOL    HW330221   1.837   1.843   3.748 -0.9767 -0.7735  1.1277
 7622SOL    MW430222   1.917   1.830   3.781 -0.4047  0.1281 -0.2559
 7623SOL     OW30223   1.488   1.537   2.964  0.1342  0.4692  0.1197
 7623SOL    HW230224   1.406   1.490   2.952 -0.3475  1.7025 -1.8302
 7623SOL    HW330225   1.463   1.630   2.964  1.3310  0.8466  1.4459
 7623SOL    MW430226   1.474   1.543   2.963  0.9584  0.6896  0.1618
 7624SOL     OW30227   6.074   5.289   5.576 -0.1322  0.2689  0.2713
 7624SOL    HW230228   5.986   5.253   5.564  0.2191 -0.8659  0.9292
 7624SOL    HW330229   6.109   5.241   5.651  0.7478  1.3003  0.5491
 7624SOL    MW430230   6.067   5.278   5.584  0.1631  0.7196  0.0535
 7625SOL     OW30231   4.848   1.542   5.331  0.4665 -0.2747 -0.0358
 7625SOL    HW230232   4.877   1.548   5.240  1.5588  0.3175  0.3240
 7625SOL    HW330233   4.828   1.449   5.344 -0.7479 -0.1906 -1.1653
 7625SOL    MW430234   4.850   1.530   5.321 -0.0671 -0.4787 -0.0735
 7626SOL     OW30235   6.274   1.437   3.508 -0.1183  0.0525 -0.2777
 7626SOL    HW230236   6.198   1.456   3.453  0.7848 -1.6239 -2.2391
 7626SOL    HW330237   6.334   1.510   3.494 -0.4823  0.3293 -0.3959
 7626SOL    MW430238   6.272   1.449   3.499 -0.1016 -0.3175  0.5070
 7627SOL     OW30239   4.315   2.595   3.734  0.2321  0.4312  0.0084
 7627SOL    HW230240   4.408   2.609   3.715  0.3102 -0.1552 -0.0598
 7627SOL    HW330241   4.315   2.536   3.810 -0.0733  2.2476  1.5103
 7627SOL    MW430242   4.328   2.589   3.742 -0.7835  0.1707  0.2811
 7628SOL     OW30243   2.956   1.465   2.971 -0.0285 -0.1895 -0.3485
 7628SOL    HW230244   3.022   1.396   2.981 -0.8376 -0.7779  1.2764
 7628SOL    HW330245   2.951   1.479   2.877  2.8477  0.3250 -0.5362
 7628SOL    MW430246   2.964   1.458   2.960  0.3013 -0.3851 -0.0594
 7629SOL     OW30247   0.281   4.185   4.560 -0.2215  0.4555 -0.2107
 7629SOL    HW230248   0.279   4.277   4.535 -0.3788  0.0432 -1.8213
 7629SOL    HW330249   0.367   4.173   4.601 -0.1354  1.2844 -0.1463
 7629SOL    MW430250   0.292   4.195   4.562  0.7034 -0.6632  0.1043
 7630SOL     OW30251   1.013   3.677   5.656 -0.3611 -0.4709  0.1798
 7630SOL    HW230252   1.025   3.669   5.750 -1.4589  0.9168  0.4768
 7630SOL    HW330253   0.946   3.612   5.634 -0.1627 -0.7386  0.3680
 7630SOL    MW430254   1.006   3.667   5.665 -0.3523 -0.0238 -0.0393
 7631SOL     OW30255   0.076   1.199   3.278  0.0075  0.7195  0.0979
 7631SOL    HW230256   0.148   1.241   3.230 -0.4947  1.2953 -0.1693
 7631SOL    HW330257   0.118   1.160   3.355  0.2385  3.8600  1.7776
 7631SOL    MW430258   0.091   1.200   3.282 -0.1958  0.0908 -0.0817
 7632SOL     OW30259   2.577   2.447   5.549  0.3053 -0.4707  0.0820
 7632SOL    HW230260   2.596   2.399   5.629  0.6636 -0.5742 -0.0673
 7632SOL    HW330261   2.538   2.382   5.491 -2.4860  0.1252  1.0801
 7632SOL    MW430262   2.574   2.432   5.552  0.6595 -0.4237 -0.5129
 7633SOL     OW30263   0.600   6.305   2.629  0.1342  0.4552  0.0756
 7633SOL    HW230264   0.650   6.267   2.556  1.2772  0.7256  0.6939
 7633SOL    HW330265   0.652   6.380   2.658  0.3930 -0.4056  2.0107
 7633SOL    MW430266   0.613   6.310   2.623  0.2074  0.0147 -0.0365
 7634SOL     OW30267   1.756   6.045   1.707 -0.5854  0.2928  0.8963
 7634SOL    HW230268   1.756   5.997   1.624 -0.7262  0.9774  0.4900
 7634SOL    HW330269   1.671   6.026   1.746 -0.5485  0.0318  0.8523
 7634SOL    MW430270   1.745   6.036   1.701 -0.6543  0.1461  0.5626
 7635SOL     OW30271   1.799   1.550   2.368  0.3248 -0.4658  0.5354
 7635SOL    HW230272   1.860   1.501   2.312  0.2219  0.2070 -0.1851
 7635SOL    HW330273   1.849   1.628   2.395 -0.0646 -0.1245  0.2872
 7635SOL    MW430274   1.814   1.554   2.364 -0.0610  0.1459 -0.1202
 7636SOL     OW30275   4.390   6.261   0.867  0.4632 -0.0556  0.3219
 7636SOL    HW230276   4.339   6.341   0.856  0.1141 -0.5533 -2.3009
 7636SOL    HW330277   4.328   6.190   0.855  1.0471 -0.7315  1.1481
 7636SOL    MW430278   4.375   6.262   0.864  0.2614  0.1655 -0.3992
 7637SOL     OW30279   5.787   2.026   0.103  0.3022 -0.2194 -0.3709
 7637SOL    HW230280   5.808   2.096   0.164 -0.9877  0.4781 -0.6808
 7637SOL    HW330281   5.742   1.960   0.156  1.8834 -1.0377  0.0033
 7637SOL    MW430282   5.784   2.026   0.118 -1.2322 -0.1662  0.3318
 7638SOL     OW30283   1.050   2.892   0.258  0.1152 -0.0094 -0.0567
 7638SOL    HW230284   1.033   2.801   0.237  2.2171 -0.4253 -0.2123
 7638SOL    HW330285   1.083   2.890   0.348  2.4933  0.2335 -0.8572
 7638SOL    MW430286   1.052   2.880   0.267 -0.3846 -0.2111 -0.4573
 7639SOL     OW30287   4.181   1.024   2.208  0.6088  0.6601 -0.5044
 7639SOL    HW230288   4.270   1.012   2.241 -0.0869  1.6284  1.9130
 7639SOL    HW330289   4.177   1.116   2.182  0.2835  0.6271 -0.5808
 7639SOL    MW430290   4.192   1.034   2.209 -0.2503 -0.2030 -0.3185
 7640SOL     OW30291   3.248   3.072   4.438 -0.0719  0.0015 -0.3139
 7640SOL    HW230292   3.246   3.140   4.505  1.1363 -0.9091  0.6966
 7640SOL    HW330293   3.156   3.055   4.418 -0.4104  1.1527  0.2044
 7640SOL    MW430294   3.236   3.079   4.444  0.2548  0.6462  1.0316
 7641SOL     OW30295   4.826   6.043   3.120 -0.5363 -0.1097 -0.2501
 7641SOL    HW230296   4.797   5.987   3.048 -1.1922 -0.8003  0.5366
 7641SOL    HW330297   4.871   5.984   3.181 -2.6087 -0.1345  1.3607
 7641SOL    MW430298   4.828   6.028   3.119  0.1097 -0.0139  0.4377
 7642SOL     OW30299   6.379   5.956   5.129 -0.2068  0.5572  0.1673
 7642SOL    HW230300   6.390   5.896   5.055 -1.9978  0.1932  0.1601
 7642SOL    HW330301   6.358   6.040   5.089 -0.4659  0.5263  0.2355
 7642SOL    MW430302   6.378   5.959   5.114  0.0115  0.3114 -0.0327
 7643SOL     OW30303   1.087   4.078   3.865  0.6730 -0.0474  0.3555
 7643SOL    HW230304   1.098   3.984   3.851  1.3077 -0.4523  3.0677
 7643SOL    HW330305   1.055   4.086   3.955 -1.5000  2.2583 -0.4964
 7643SOL    MW430306   1.084   4.067   3.875  0.5054  0.1817  0.1317
 7644SOL     OW30307   5.270   0.139   4.815  0.3931  0.0709  0.1616
 7644SOL    HW230308   5.204   0.072   4.831  0.0621  0.0619 -1.0958
 7644SOL    HW330309   5.341   0.119   4.876  0.6257 -1.8772 -0.6542
 7644SOL    MW430310   5.271   0.128   4.825  0.3182  0.3449 -0.0706
 7645SOL     OW30311   2.394   0.343   5.170  0.0129 -0.1827 -0.3254
 7645SOL    HW230312   2.355   0.428   5.149 -0.9780 -0.6432 -0.4266
 7645SOL    HW330313   2.385   0.334   5.265  0.1067 -0.1767 -0.3160
 7645SOL    MW430314   2.388   0.353   5.180  0.3104  0.2846 -0.2070
 7646SOL     OW30315   3.397   4.094   0.393  0.0021  0.5928  0.0299
 7646SOL    HW230316   3.350   4.094   0.476 -1.9600 -0.2276 -1.0104
 7646SOL    HW330317   3.398   4.185   0.366 -0.2899  0.7241  0.4473
 7646SOL    MW430318   3.391   4.106   0.401 -0.1756 -0.0962  0.1232
 7647SOL     OW30319   4.994   5.458   2.300  0.4193  0.1571  0.4597
 7647SOL    HW230320   5.046   5.428   2.375  2.3905 -1.4579 -1.4221
 7647SOL    HW330321   4.966   5.378   2.256 -0.8937  1.0679 -0.4473
 7647SOL    MW430322   4.997   5.444   2.304  0.1562  0.3256 -0.3504
 7648SOL     OW30323   2.044   6.076   1.759  0.2721  0.8915  0.1882
 7648SOL    HW230324   2.077   6.147   1.704 -0.8213  1.7799  0.6374
 7648SOL    HW330325   1.956   6.058   1.725 -0.4874  1.5628  1.6891
 7648SOL    MW430326   2.037   6.083   1.748 -0.3587  0.1105  0.3667
 7649SOL     OW30327   0.368   2.169   2.895 -0.3499  0.2504  0.3698
 7649SOL    HW230328   0.399   2.220   2.970  0.2100 -0.3772  0.5802
 7649SOL    HW330329   0.273   2.177   2.898 -0.2188  2.8585 -0.7388
 7649SOL    MW430330   0.360   2.176   2.906  0.1650  0.3728 -0.4040
 7650SOL     OW30331   2.243   6.283   6.292 -0.8203 -0.4984 -0.1866
 7650SOL    HW230332   2.151   6.255   6.290 -1.0630  0.0827  1.4578
 7650SOL    HW330333   2.274   6.258   6.379  0.8854 -1.5450 -1.0347
 7650SOL    MW430334   2.235   6.276   6.304  0.3324 -0.2148 -0.0229
 7651SOL     OW30335   2.790   0.321   5.123 -0.7399 -0.0300  0.5363
 7651SOL    HW230336   2.736   0.384   5.172 -2.3105 -2.0567  1.5450
 7651SOL    HW330337   2.795   0.244   5.179 -1.2825 -1.8876 -1.7878
 7651SOL    MW430338   2.784   0.319   5.137  0.6014  0.1835 -0.3975
 7652SOL     OW30339   0.999   0.915   1.160 -0.1377 -0.0648 -0.0561
 7652SOL    HW230340   1.005   1.010   1.151  1.2340 -0.2901 -1.9707
 7652SOL    HW330341   1.050   0.880   1.087  0.0894 -2.2894  1.0803
 7652SOL    MW430342   1.006   0.923   1.149 -0.2139  0.2882  0.1386
 7653SOL     OW30343   5.842   0.209   4.951  0.3761 -0.2406  0.7481
 7653SOL    HW230344   5.906   0.268   4.910  1.1399 -0.4963  1.5305
 7653SOL    HW330345   5.837   0.134   4.892  2.5202 -1.2531  1.7258
 7653SOL    MW430346   5.850   0.207   4.938 -0.2159  0.6857  0.0560
 7654SOL     OW30347   5.653   4.267   5.292  0.2001 -0.5346  0.3618
 7654SOL    HW230348   5.658   4.202   5.363  0.6019 -2.2318 -1.1537
 7654SOL    HW330349   5.560   4.280   5.277  0.1061  0.0152  1.3209
 7654SOL    MW430350   5.642   4.260   5.300 -0.1711  0.5712 -0.4556
 7655SOL     OW30351   6.334   2.692   3.178 -0.4076  0.1923  0.2000
 7655SOL    HW230352   6.256   2.721   3.224 -1.6502 -0.7555 -1.2418
 7655SOL    HW330353   6.353   2.761   3.115 -1.1044 -0.3286 -0.6023
 7655SOL    MW430354   6.327   2.705   3.176  0.1990 -1.0056  0.1341
 7656SOL     OW30355   2.505   5.114   5.165  0.1849 -0.1033  0.5910
 7656SOL    HW230356   2.475   5.041   5.111  0.8073 -0.3067  0.5109
 7656SOL    HW330357   2.519   5.186   5.103  2.0893 -0.6975  0.2655
 7656SOL    MW430358   2.503   5.114   5.150  0.4966  0.1292  0.1128
 7657SOL     OW30359   2.723   0.725   4.002 -0.0149 -0.2067  0.3000
 7657SOL    HW230360   2.735   0.631   3.989  0.6174 -0.2765  1.2429
 7657SOL    HW330361   2.636   0.733   4.041 -0.3711 -0.3318 -0.4701
 7657SOL    MW430362   2.713   0.714   4.006  0.6147  0.0144  0.1538
 7658SOL     OW30363   6.201   3.338   0.208 -0.0696  0.0941  0.7869
 7658SOL    HW230364   6.193   3.256   0.257  0.7659 -0.0035  0.7743
 7658SOL    HW330365   6.155   3.322   0.126 -0.1280 -0.2735  0.8907
 7658SOL    MW430366   6.194   3.325   0.204 -0.3705  0.5084  0.0284
 7659SOL     OW30367   5.474   0.653   3.401 -0.2151  0.6769  0.1811
 7659SOL    HW230368   5.546   0.680   3.457 -0.7955 -0.0514  1.3037
 7659SOL    HW330369   5.395   0.668   3.453 -0.9402  1.8761 -1.1788
 7659SOL    MW430370   5.473   0.659   3.415  0.0685 -0.2926  0.0013
 7660SOL     OW30371   0.676   3.414   2.494  0.1282 -0.2921  0.1428
 7660SOL    HW230372   0.636   3.482   2.440  0.2602 -0.0828  0.3084
 7660SOL    HW330373   0.623   3.414   2.575  0.4309 -0.0432  0.3451
 7660SOL    MW430374   0.664   3.423   2.498 -0.6878  0.0944 -0.3482
 7661SOL     OW30375   0.848   4.595   2.374  0.0939 -0.9702 -0.1898
 7661SOL    HW230376   0.801   4.647   2.310 -1.8711 -1.1635  1.0183
 7661SOL    HW330377   0.825   4.504   2.353  0.1697 -1.0889  0.2247
 7661SOL    MW430378   0.839   4.590   2.363 -0.4555 -0.3040  0.2333
 7662SOL     OW30379   4.206   4.530   3.088 -0.0901  0.5697 -0.4797
 7662SOL    HW230380   4.160   4.563   3.166 -0.0789  0.6307 -0.4989
 7662SOL    HW330381   4.284   4.585   3.081 -0.3568  0.9106 -0.8370
 7662SOL    MW430382   4.210   4.541   3.097  0.2702 -0.7117  0.1716
 7663SOL     OW30383   6.044   4.512   0.585 -0.1823 -0.1159 -0.1069
 7663SOL    HW230384   6.137   4.507   0.563  0.1564  0.4577  1.1168
 7663SOL    HW330385   6.037   4.587   0.643 -1.2267 -0.8429  0.7363
 7663SOL    MW430386   6.055   4.521   0.589  0.5675 -0.2295  0.2214
 7664SOL     OW30387   3.999   2.158   6.170  0.3966  0.4315 -0.4074
 7664SOL    HW230388   4.019   2.194   6.084 -0.8201 -0.2669 -1.0016
 7664SOL    HW330389   3.999   2.063   6.157  2.9357  0.1497  0.9875
 7664SOL    MW430390   4.002   2.150   6.157 -0.0601 -0.6526 -0.0294
 7665SOL     OW30391   1.246   3.261   2.799  1.0998 -0.5886 -0.6235
 7665SOL    HW230392   1.211   3.328   2.740 -0.3229  0.4755  1.3256
 7665SOL    HW330393   1.341   3.268   2.789  0.9444 -1.3538 -3.6808
 7665SOL    MW430394   1.254   3.271   2.790  0.3517 -0.5360 -0.4159
 7666SOL     OW30395   5.170   5.797   1.530  0.0431  0.6315  0.4899
 7666SOL    HW230396   5.203   5.880   1.496  0.9965  0.1264  0.1386
 7666SOL    HW330397   5.218   5.784   1.612  1.8442 -0.7680 -0.6874
 7666SOL    MW430398   5.181   5.806   1.536  0.4988  0.2901  0.0164
 7667SOL     OW30399   6.183   2.542   5.694  0.1451  0.0598 -0.2540
 7667SOL    HW230400   6.211   2.611   5.635  1.3965 -0.7917 -0.6923
 7667SOL    HW330401   6.131   2.587   5.761  1.2766  1.4719 -0.2864
 7667SOL    MW430402   6.180   2.557   5.695 -0.7778 -0.4974 -0.8729
 7668SOL     OW30403   5.514   5.935   2.222  0.0843 -0.5144 -0.1277
 7668SOL    HW230404   5.566   5.882   2.283 -0.8232 -0.7896  0.4327
 7668SOL    HW330405   5.545   6.025   2.237 -1.2579 -0.3319  1.9919
 7668SOL    MW430406   5.525   5.940   2.232 -0.6846  0.2070 -0.0210
 7669SOL     OW30407   0.879   2.128   3.922 -0.6548 -0.0953 -0.3387
 7669SOL    HW230408   0.787   2.154   3.912 -0.6061 -0.5346 -2.6230
 7669SOL    HW330409   0.875   2.038   3.954 -0.9837  0.2636  0.6518
 7669SOL    MW430410   0.867   2.119   3.925 -0.1376  0.0940  0.1632
 7670SOL     OW30411   2.235   1.460   4.631  0.1162 -0.1411  0.3081
 7670SOL    HW230412   2.181   1.516   4.576  1.6538  1.1796  0.0722
 7670SOL    HW330413   2.176   1.429   4.700 -1.5441 -0.8791 -1.3914
 7670SOL    MW430414   2.220   1.463   4.633  0.1508 -0.9773  0.1727
 7671SOL     OW30415   4.416   2.473   4.521 -0.4628  0.0469  0.1594
 7671SOL    HW230416   4.390   2.559   4.553  1.0579 -0.0479  1.7882
 7671SOL    HW330417   4.467   2.491   4.443  1.8054  0.8598  1.7424
 7671SOL    MW430418   4.419   2.487   4.515 -0.2228  0.2023  0.2857
 7672SOL     OW30419   2.677   0.454   2.031 -0.2506  0.0591 -0.5656
 7672SOL    HW230420   2.668   0.409   2.114  2.3128  1.5375  0.6259
 7672SOL    HW330421   2.612   0.413   1.974  1.2860 -4.5769  0.5951
 7672SOL    MW430422   2.667   0.443   2.034  0.3400  0.0347 -0.0418
 7673SOL     OW30423   3.070   5.818   4.386  0.0074 -0.1754 -0.3266
 7673SOL    HW230424   3.164   5.805   4.398 -0.2113 -1.4636  0.1038
 7673SOL    HW330425   3.038   5.843   4.473 -0.3849 -1.9859  0.0795
 7673SOL    MW430426   3.078   5.820   4.399 -0.3875  0.0738 -0.7774
 7674SOL     OW30427   3.870   1.139   5.346  0.8517 -0.3670  0.2255
 7674SOL    HW230428   3.798   1.181   5.393  0.5374 -1.3419  0.6468
 7674SOL    HW330429   3.924   1.211   5.315  1.7802  0.3361  3.1941
 7674SOL    MW430430   3.868   1.154   5.348 -0.0346 -0.4482 -0.1252
 7675SOL     OW30431   4.675   4.124   5.686  0.0777  0.0663 -0.7067
 7675SOL    HW230432   4.635   4.161   5.765  0.2810 -2.0159  0.4387
 7675SOL    HW330433   4.603   4.080   5.641  0.6809 -2.6815  0.7605
 7675SOL    MW430434   4.660   4.123   5.691 -0.2079  0.1087  0.0539
 7676SOL     OW30435   4.917   5.250   1.323 -0.0079 -0.3414 -0.0463
 7676SOL    HW230436   4.960   5.290   1.248  0.8036 -0.6675  0.2402
 7676SOL    HW330437   4.951   5.160   1.326  0.8690 -0.0008  1.3865
 7676SOL    MW430438   4.927   5.243   1.314 -0.5971 -0.0424 -0.2336
 7677SOL     OW30439   4.833   4.064   3.107  0.4783 -0.5526 -0.6984
 7677SOL    HW230440   4.764   4.125   3.131  0.3859 -0.9037 -0.0386
 7677SOL    HW330441   4.891   4.062   3.183  1.3430 -0.1025 -1.3202
 7677SOL    MW430442   4.832   4.072   3.120  0.5779 -0.1704  0.0636
 7678SOL     OW30443   3.102   6.265   5.892  0.0943 -0.1476  0.0929
 7678SOL    HW230444   3.156   6.191   5.865  2.1174  1.3533 -0.2969
 7678SOL    HW330445   3.049   6.286   5.815 -0.2313 -0.9722  0.0928
 7678SOL    MW430446   3.102   6.258   5.879  0.4592  0.5100 -0.6831
 7679SOL     OW30447   1.354   4.844   2.178 -0.3846 -0.1195  0.3176
 7679SOL    HW230448   1.317   4.821   2.264 -0.2496 -0.6265  0.2476
 7679SOL    HW330449   1.448   4.840   2.191 -0.3525 -1.0729 -0.0601
 7679SOL    MW430450   1.361   4.840   2.191  0.1216  0.3508  0.4567
 7680SOL     OW30451   3.920   6.023   3.336  0.7291  0.2746 -0.2719
 7680SOL    HW230452   3.969   5.983   3.408 -1.0046 -0.4657  0.5783
 7680SOL    HW330453   3.896   6.110   3.369 -2.6360 -1.1127  1.4538
 7680SOL    MW430454   3.923   6.029   3.350  0.0596  0.3954  0.2774
 7681SOL     OW30455   3.558   4.231   5.150  0.2896  0.2717 -0.7489
 7681SOL    HW230456   3.623   4.208   5.083  1.5739  2.4650 -0.3408
 7681SOL    HW330457   3.527   4.318   5.124 -0.2134  0.5660  0.7696
 7681SOL    MW430458   3.562   4.240   5.137 -0.1516  0.3693 -0.0155
 7682SOL     OW30459   1.586   4.120   4.381  0.3006 -0.3669  0.6480
 7682SOL    HW230460   1.613   4.194   4.327  0.4229 -1.8043 -1.3478
 7682SOL    HW330461   1.657   4.110   4.444  0.0033  1.5474  1.3757
 7682SOL    MW430462   1.599   4.129   4.382 -0.7052  0.5851 -0.0676
 7683SOL     OW30463   0.047   0.772   1.018  0.7573 -0.0795 -0.4172
 7683SOL    HW230464   0.093   0.776   0.934 -0.1431 -2.0517 -1.0605
 7683SOL    HW330465   0.056   0.681   1.046 -1.1389 -0.0714  0.3478
 7683SOL    MW430466   0.055   0.760   1.010  0.2752  0.4853 -0.6463
 7684SOL     OW30467   6.415   4.509   4.549  0.3324  0.4281 -1.2500
 7684SOL    HW230468   6.438   4.570   4.479  0.0811  1.9959 -0.0128
 7684SOL    HW330469   6.494   4.503   4.602 -0.3707  1.6674  0.0148
 7684SOL    MW430470   6.429   4.516   4.547 -0.9949  0.5327  0.0450
 7685SOL     OW30471   2.116   6.409   4.926 -0.1608  0.3418  0.0757
 7685SOL    HW230472   2.098   6.410   4.832  0.7754 -0.5079 -0.1212
 7685SOL    HW330473   2.182   6.477   4.939  0.4104 -0.1823 -0.0389
 7685SOL    MW430474   2.122   6.418   4.915 -0.5265  0.7307 -0.2352
 7686SOL     OW30475   4.271   0.336   1.952 -0.0304 -0.2057 -0.0821
 7686SOL    HW230476   4.201   0.271   1.959  0.6885 -1.0726 -0.6959
 7686SOL    HW330477   4.298   0.332   1.860  1.9504 -1.1033  0.4942
 7686SOL    MW430478   4.265   0.327   1.941  0.1972 -0.3604  0.6185
 7687SOL     OW30479   1.471   0.603   5.892 -0.2919 -0.2536  0.4996
 7687SOL    HW230480   1.405   0.565   5.950 -0.9625  0.6498  0.3352
 7687SOL    HW330481   1.439   0.691   5.872  1.3316  0.5081  1.0421
 7687SOL    MW430482   1.458   0.609   5.897 -0.0794 -0.1330 -0.1352
 7688SOL     OW30483   5.582   4.077   2.291 -0.0016  0.0313 -0.3893
 7688SOL    HW230484   5.565   4.054   2.200 -0.0871  1.0231 -0.6421
 7688SOL    HW330485   5.671   4.046   2.308  0.0879  0.0220 -0.8701
 7688SOL    MW430486   5.592   4.070   2.281  0.4653  0.0911 -0.6018
 7689SOL     OW30487   5.357   1.977   5.245 -0.1359  0.2613 -0.1852
 7689SOL    HW230488   5.290   1.994   5.310  0.8651 -0.9097  1.2332
 7689SOL    HW330489   5.310   1.939   5.171 -1.0521 -0.4111  0.7190
 7689SOL    MW430490   5.342   1.974   5.244  0.5181  0.2556  0.5951
 7690SOL     OW30491   5.697   1.314   5.506  0.6813  0.0093 -0.4640
 7690SOL    HW230492   5.735   1.383   5.561  1.8320 -0.1332 -1.0597
 7690SOL    HW330493   5.646   1.361   5.440  1.6527  0.3183 -1.0130
 7690SOL    MW430494   5.695   1.329   5.505  0.2107  0.0487  0.1188
 7691SOL     OW30495   2.315   2.116   2.655 -0.0400  0.0766 -0.3842
 7691SOL    HW230496   2.386   2.151   2.602 -0.3079 -0.5757 -1.1995
 7691SOL    HW330497   2.259   2.069   2.592  0.0476 -1.3814  0.5652
 7691SOL    MW430498   2.317   2.114   2.640  0.0632  0.1247 -0.5378
 7692SOL     OW30499   5.555   6.346   2.897 -0.4990 -0.2807  0.0416
 7692SOL    HW230500   5.558   6.258   2.934 -0.5463 -0.5532 -0.5848
 7692SOL    HW330501   5.645   6.363   2.867 -0.8392 -0.8089 -1.3768
 7692SOL    MW430502   5.567   6.337   2.898 -0.0900  0.2057  0.0440
 7693SOL     OW30503   1.007   2.282   3.257  0.2093  0.3251 -0.3459
 7693SOL    HW230504   0.963   2.286   3.342  0.5090 -1.1553 -0.0977
 7693SOL    HW330505   1.024   2.374   3.235 -1.6946  0.8545  0.2084
 7693SOL    MW430506   1.004   2.295   3.265 -0.3314  0.3656 -0.1781
 7694SOL     OW30507   3.080   4.505   1.390 -0.1648 -0.3409  0.3249
 7694SOL    HW230508   3.120   4.514   1.476  1.3631 -0.4782 -0.3442
 7694SOL    HW330509   2.987   4.521   1.405  0.3643  1.8680  1.6271
 7694SOL    MW430510   3.073   4.508   1.403  0.5951 -0.4230  0.5150
 7695SOL     OW30511   5.003   4.339   3.240 -0.3456  0.3587 -0.0111
 7695SOL    HW230512   5.065   4.272   3.267 -1.0726 -0.0553  0.6723
 7695SOL    HW330513   5.057   4.407   3.199  0.7014  0.5340  1.5719
 7695SOL    MW430514   5.018   4.339   3.238 -0.0258  0.4019 -0.0521
 7696SOL     OW30515   4.593   0.779   5.594  0.1781 -0.2101  0.5070
 7696SOL    HW230516   4.669   0.721   5.592  1.2343  1.1553 -0.0409
 7696SOL    HW330517   4.629   0.866   5.610 -1.1487  0.6606 -0.9891
 7696SOL    MW430518   4.608   0.782   5.596  0.4716 -0.1637 -0.2809
 7697SOL     OW30519   1.313   1.713   4.681 -0.4402 -0.2380 -0.4058
 7697SOL    HW230520   1.324   1.627   4.640 -0.5646 -0.4580  0.0142
 7697SOL    HW330521   1.275   1.767   4.612  3.0079  0.5268 -1.8780
 7697SOL    MW430522   1.309   1.709   4.666  0.2037 -0.0731  0.0946
 7698SOL     OW30523   6.269   3.489   5.078 -0.1069 -0.0562  0.3222
 7698SOL    HW230524   6.276   3.580   5.047 -0.6796  0.3108  1.2267
 7698SOL    HW330525   6.339   3.443   5.031  0.6544  0.9957  0.3719
 7698SOL    MW430526   6.280   3.495   5.068  0.1656 -0.2536 -0.4903
 7699SOL     OW30527   4.341   0.458   5.555  0.2480 -0.4870 -0.0935
 7699SOL    HW230528   4.389   0.494   5.480  0.7108 -1.6829 -0.3863
 7699SOL    HW330529   4.286   0.390   5.517 -0.8446  0.0834  0.4101
 7699SOL    MW430530   4.340   0.454   5.540  0.1242  0.3426  0.5038
 7700SOL     OW30531   1.277   3.218   0.751 -0.4535  0.2980  0.0561
 7700SOL    HW230532   1.344   3.263   0.700 -0.1500  0.1680  0.3378
 7700SOL    HW330533   1.198   3.269   0.737  0.1261  1.5656  1.2477
 7700SOL    MW430534   1.276   3.230   0.743  0.6762 -0.0258 -0.2148
 7701SOL     OW30535   0.439   3.541   0.940 -0.5095 -0.2431  0.2398
 7701SOL    HW230536   0.431   3.504   0.852  0.2789 -1.0459  0.4852
 7701SOL    HW330537   0.486   3.623   0.929 -1.5631  0.3146 -0.2260
 7701SOL    MW430538   0.444   3.547   0.927 -0.4399 -0.3287  0.0805
 7702SOL     OW30539   4.190   1.307   5.598 -0.3254  0.0881  0.3784
 7702SOL    HW230540   4.186   1.312   5.694  1.6435  1.0266  0.4571
 7702SOL    HW330541   4.219   1.217   5.580 -2.7421 -0.7973  0.5051
 7702SOL    MW430542   4.193   1.296   5.608 -0.3657 -0.3397  0.7082
 7703SOL     OW30543   5.836   2.195   5.298 -0.2957  0.4574 -0.8918
 7703SOL    HW230544   5.908   2.150   5.341 -1.1906  0.6134  0.8545
 7703SOL    HW330545   5.764   2.132   5.297 -0.7253  0.9354 -0.8740
 7703SOL    MW430546   5.836   2.181   5.304 -0.1946 -0.3429 -0.4142
 7704SOL     OW30547   5.186   3.936   3.103  0.0714  0.8358 -0.0396
 7704SOL    HW230548   5.245   3.957   3.031 -0.6985  0.3871 -0.8115
 7704SOL    HW330549   5.130   3.866   3.069  0.5326 -0.3152  1.4170
 7704SOL    MW430550   5.187   3.929   3.089  0.4239 -0.3127  0.0409
 7705SOL     OW30551   4.341   2.995   5.031  0.2437  0.1908 -0.0583
 7705SOL    HW230552   4.351   2.901   5.045 -0.3761  0.4257  2.4206
 7705SOL    HW330553   4.396   3.014   4.954  0.4401 -2.1449 -0.5741
 7705SOL    MW430554   4.350   2.985   5.022 -0.0811 -0.4451 -0.5878
 7706SOL     OW30555   0.719   6.332   5.531  0.3433 -0.4158  0.0803
 7706SOL    HW230556   0.772   6.265   5.573  0.6245  0.3343  0.9542
 7706SOL    HW330557   0.673   6.286   5.461  0.2088 -1.5969  0.9274
 7706SOL    MW430558   0.720   6.317   5.527  0.5426 -0.2132 -0.4713
 7707SOL     OW30559   0.019   4.177   5.520  0.3127 -0.1368 -0.0774
 7707SOL    HW230560  -0.016   4.130   5.596  2.7453 -0.2325  1.1058
 7707SOL    HW330561   0.114   4.165   5.527  0.6642  0.3412 -2.8535
 7707SOL    MW430562   0.027   4.169   5.531 -0.0905  0.1216  0.3097
 7708SOL     OW30563   0.689   3.148   1.143  0.1653  0.1286 -0.1933
 7708SOL    HW230564   0.633   3.220   1.112  0.5135 -0.0368 -1.2755
 7708SOL    HW330565   0.755   3.139   1.074  0.0238 -1.3511 -0.1585
 7708SOL    MW430566   0.690   3.156   1.129  0.3679 -0.0514 -0.4183
 7709SOL     OW30567   1.768   2.338   4.539 -0.1771 -0.1531  0.1748
 7709SOL    HW230568   1.686   2.384   4.561  1.1904  3.0064 -0.7181
 7709SOL    HW330569   1.755   2.307   4.449 -0.7225 -0.5118  0.3748
 7709SOL    MW430570   1.755   2.340   4.530 -0.4776 -0.4282 -0.5865
 7710SOL     OW30571   5.798   3.494   4.417  0.6566  0.6316  0.5429
 7710SOL    HW230572   5.829   3.440   4.490 -0.4715  1.5913  1.7815
 7710SOL    HW330573   5.705   3.507   4.435  0.2534  0.5754 -1.3002
 7710SOL    MW430574   5.790   3.488   4.429  0.3389 -0.3212 -0.4420
 7711SOL     OW30575   5.195   6.367   5.397  0.1044 -0.0600 -0.3059
 7711SOL    HW230576   5.120   6.361   5.456 -1.1357 -2.3839 -1.9557
 7711SOL    HW330577   5.238   6.449   5.421 -1.3810  0.0084  2.5135
 7711SOL    MW430578   5.191   6.377   5.408  0.0697  0.2632  0.1310
 7712SOL     OW30579   1.501   2.096   6.112  0.2408 -0.3190 -0.4025
 7712SOL    HW230580   1.558   2.151   6.059  0.9084 -0.4428  0.1724
 7712SOL    HW330581   1.545   2.011   6.114 -0.2489 -0.5763 -0.4136
 7712SOL    MW430582   1.514   2.092   6.105 -0.2686  0.0941  0.0335
 7713SOL     OW30583   0.384   3.661   2.015  0.6683  0.6232 -0.3588
 7713SOL    HW230584   0.350   3.742   2.052 -0.8480  0.3906 -1.1465
 7713SOL    HW330585   0.372   3.596   2.085 -1.4563  0.3532 -0.8995
 7713SOL    MW430586   0.378   3.663   2.029 -0.0868 -0.0723 -0.0855
 7714SOL     OW30587   0.133   2.973   4.865 -0.3258 -0.4470  0.6695
 7714SOL    HW230588   0.156   2.883   4.887  1.8594  0.1030  0.8579
 7714SOL    HW330589   0.125   3.017   4.950 -0.2836 -0.2264  0.5594
 7714SOL    MW430590   0.135   2.967   4.879  0.4174 -0.2646  0.3569
 7715SOL     OW30591   1.929   5.641   1.861 -0.2207 -0.3866  0.1426
 7715SOL    HW230592   1.990   5.567   1.868 -0.2808 -0.3014  1.9001
 7715SOL    HW330593   1.846   5.600   1.839  0.0296 -0.7050 -0.2368
 7715SOL    MW430594   1.926   5.625   1.859  0.1211  0.1626 -0.3483
 7716SOL     OW30595   2.624   3.686   4.610 -0.0373 -0.0923 -0.2182
 7716SOL    HW230596   2.538   3.728   4.599  0.4263  0.5619 -1.5973
 7716SOL    HW330597   2.606   3.592   4.601 -0.8801 -0.1391  1.5194
 7716SOL    MW430598   2.610   3.679   4.607 -0.6105  0.3010  0.2567
 7717SOL     OW30599   5.149   1.651   5.720  0.0720 -0.4958  0.3270
 7717SOL    HW230600   5.081   1.675   5.657  0.8953  2.0475  0.2700
 7717SOL    HW330601   5.197   1.580   5.677  0.2542  0.7856 -1.7562
 7717SOL    MW430602   5.147   1.645   5.706 -0.1195  0.4324  0.4164
 7718SOL     OW30603   5.826   4.088   5.485 -0.1230 -0.1100 -0.0100
 7718SOL    HW230604   5.825   4.010   5.539 -1.8674 -0.5128 -0.5656
 7718SOL    HW330605   5.811   4.161   5.546  0.4523 -0.3053  0.3675
 7718SOL    MW430606   5.824   4.088   5.500  0.3047 -0.0802 -0.2016
 7719SOL     OW30607   2.218   0.835   0.702  0.1559  0.1292  0.0948
 7719SOL    HW230608   2.310   0.841   0.677  0.2201  1.2243  0.5712
 7719SOL    HW330609   2.183   0.923   0.688 -0.1726  0.4241  2.4333
 7719SOL    MW430610   2.225   0.847   0.697  0.1634  0.4247 -0.2788
 7720SOL     OW30611   6.405   4.106   3.709  0.4457 -0.4855 -0.3226
 7720SOL    HW230612   6.351   4.027   3.699 -1.2269  0.7518 -1.7575
 7720SOL    HW330613   6.474   4.097   3.644  0.4949 -0.9375 -0.2107
 7720SOL    MW430614   6.407   4.095   3.700  0.3330  0.0776  0.7995
 7721SOL     OW30615   4.404   3.886   3.042  0.2039 -0.4899  0.0619
 7721SOL    HW230616   4.492   3.870   3.077  1.1941 -0.9788 -2.4017
 7721SOL    HW330617   4.419   3.945   2.968 -1.8797  1.3792  1.0324
 7721SOL    MW430618   4.418   3.892   3.037 -0.6162 -0.3307 -0.6264
 7722SOL     OW30619   0.316   4.310   3.749  0.3001 -0.1548 -0.2522
 7722SOL    HW230620   0.412   4.301   3.750  0.2755 -0.4069  0.9426
 7722SOL    HW330621   0.301   4.402   3.726  0.8315 -0.0851 -0.3342
 7722SOL    MW430622   0.327   4.321   3.746  0.1073  0.4707  0.0204
 7723SOL     OW30623   3.755   4.479   4.675 -0.5774 -0.0170 -0.3952
 7723SOL    HW230624   3.724   4.567   4.697  2.1614  0.8197  0.4123
 7723SOL    HW330625   3.697   4.420   4.725 -2.1378  1.3012 -0.5635
 7723SOL    MW430626   3.743   4.483   4.685 -0.8205  0.3707  0.3580
 7724SOL     OW30627   1.369   6.070   6.146 -0.0265 -0.3204 -0.1795
 7724SOL    HW230628   1.318   6.127   6.089 -1.9089 -1.5899  0.1180
 7724SOL    HW330629   1.347   6.099   6.235  0.2788 -0.4702 -0.0518
 7724SOL    MW430630   1.359   6.081   6.150 -0.0361 -0.5797  0.8145
 7725SOL     OW30631   4.364   2.086   0.036  0.7973 -0.0805 -0.6238
 7725SOL    HW230632   4.353   2.074  -0.058 -0.6765 -1.4500 -0.3254
 7725SOL    HW330633   4.397   2.175   0.046  1.5861 -0.1447 -2.4585
 7725SOL    MW430634   4.367   2.096   0.025  0.2292  0.1809  0.1714
 7726SOL     OW30635   1.991   2.451   3.531 -0.0305  0.2853  0.6163
 7726SOL    HW230636   1.989   2.535   3.486 -0.9745 -0.3701 -0.6077
 7726SOL    HW330637   2.083   2.439   3.555  0.1731  1.4956  0.5028
 7726SOL    MW430638   2.003   2.461   3.529 -0.5848 -0.3543  0.0257
 7727SOL     OW30639   1.243   0.444   5.977  0.6982  0.7977 -0.2987
 7727SOL    HW230640   1.157   0.486   5.979 -0.9783 -2.3344  0.0907
 7727SOL    HW330641   1.255   0.418   5.886  0.3276 -0.3953 -0.0208
 7727SOL    MW430642   1.233   0.446   5.965 -0.3596  0.3618 -0.0423
 7728SOL     OW30643   3.195   3.341   0.807 -0.1701 -0.2688  0.1608
 7728SOL    HW230644   3.212   3.311   0.896  0.3832 -1.5780 -0.3559
 7728SOL    HW330645   3.146   3.269   0.766 -0.8366  0.5156 -0.4508
 7728SOL    MW430646   3.191   3.328   0.813 -0.5560  0.0395 -0.4546
 7729SOL     OW30647   4.403   0.330   4.108  0.1724 -0.5362 -0.5100
 7729SOL    HW230648   4.408   0.421   4.137  1.7598 -1.0783  1.1185
 7729SOL    HW330649   4.314   0.321   4.075  0.0069  1.6184 -0.7985
 7729SOL    MW430650   4.392   0.341   4.108 -0.6017 -0.3828 -0.3570
 7730SOL     OW30651   6.101   2.876   5.756  0.3836 -0.0536  0.2828
 7730SOL    HW230652   6.101   2.938   5.683  1.9112  0.9264  1.0598
 7730SOL    HW330653   6.014   2.884   5.794  0.0209  0.4317 -0.6100
 7730SOL    MW430654   6.090   2.885   5.751  0.7783 -0.6062 -0.1036
 7731SOL     OW30655   1.790   3.784   5.999 -0.8306  0.2866 -0.4149
 7731SOL    HW230656   1.700   3.774   6.030 -0.6961  0.9127  0.1911
 7731SOL    HW330657   1.800   3.877   5.982  0.3212  0.5829  1.5402
 7731SOL    MW430658   1.780   3.795   6.001 -0.2382  0.0449 -0.6055
 7732SOL     OW30659   5.855   5.088   5.601  0.0834 -0.5665 -0.1109
 7732SOL    HW230660   5.778   5.049   5.560 -0.8409  0.6630  0.4077
 7732SOL    HW330661   5.859   5.048   5.688  0.4481 -1.1449 -0.3879
 7732SOL    MW430662   5.845   5.078   5.607 -0.0833 -0.5337  0.1330
 7733SOL     OW30663   4.320   2.766   5.481 -0.0996  0.3005  0.6065
 7733SOL    HW230664   4.270   2.799   5.407 -0.3248  1.3341  1.2000
 7733SOL    HW330665   4.324   2.671   5.467 -1.7579  0.2460  0.2703
 7733SOL    MW430666   4.314   2.758   5.469 -0.2024 -0.0722  0.0524
 7734SOL     OW30667   0.653   5.771   5.433 -0.3487  0.0943  0.2108
 7734SOL    HW230668   0.642   5.695   5.491  0.7454  0.5636  1.0475
 7734SOL    HW330669   0.571   5.773   5.383 -1.4714 -0.1553  1.9269
 7734SOL    MW430670   0.641   5.761   5.434  0.4367 -0.0287 -0.3854
 7735SOL     OW30671   2.813   4.300   1.230 -0.6384  0.3094 -0.5292
 7735SOL    HW230672   2.902   4.273   1.253 -0.9188 -1.2753 -1.1787
 7735SOL    HW330673   2.757   4.253   1.291 -1.1902 -1.2333 -2.1513
 7735SOL    MW430674   2.817   4.290   1.241  0.0720 -0.4812  0.0135
 7736SOL     OW30675   5.786   0.626   2.097 -0.2223  0.0863  0.6326
 7736SOL    HW230676   5.733   0.688   2.046  1.4212  0.5405 -0.5845
 7736SOL    HW330677   5.861   0.677   2.127  0.3276 -0.9290  1.0189
 7736SOL    MW430678   5.789   0.641   2.095  1.2498 -0.2225 -0.3762
 7737SOL     OW30679   4.446   2.344   0.062  0.2783  0.2111  0.8163
 7737SOL    HW230680   4.520   2.399   0.036 -0.6333  0.4436 -1.5305
 7737SOL    HW330681   4.370   2.401   0.053 -0.6363 -1.2190 -1.1651
 7737SOL    MW430682   4.446   2.359   0.057 -0.0723 -0.0222 -0.4049
 7738SOL     OW30683   5.020   6.012   5.344 -0.1446  0.4800 -0.0059
 7738SOL    HW230684   4.955   6.035   5.410  1.1693  1.4992  1.0143
 7738SOL    HW330685   5.018   5.916   5.340 -1.8804  0.5002 -0.2281
 7738SOL    MW430686   5.011   6.002   5.352  0.3525 -0.6874  0.5024
 7739SOL     OW30687   4.102   2.992   3.405  0.2598 -0.5477 -0.4409
 7739SOL    HW230688   4.090   3.065   3.344  0.2548 -1.5507 -1.6693
 7739SOL    HW330689   4.191   2.963   3.391  0.1752 -0.9604 -0.1481
 7739SOL    MW430690   4.112   2.998   3.395  0.7226 -0.2984 -0.1427
 7740SOL     OW30691   3.063   3.532   1.010  0.0339 -0.4361  0.2828
 7740SOL    HW230692   3.038   3.621   1.033 -0.5750 -0.5117 -0.0700
 7740SOL    HW330693   3.094   3.537   0.920  2.3794 -0.1504  1.0282
 7740SOL    MW430694   3.064   3.544   1.001  0.0596  0.0409 -0.1881
 7741SOL     OW30695   5.404   5.926   0.313  0.2468  0.2761  0.1271
 7741SOL    HW230696   5.381   5.844   0.268  0.4725  0.1768  0.1947
 7741SOL    HW330697   5.326   5.981   0.302 -0.0563 -0.0889  0.4176
 7741SOL    MW430698   5.390   5.922   0.306 -0.0023 -0.0561  0.1775
 7742SOL     OW30699   6.007   6.113   2.014  0.1945  0.2928 -0.3369
 7742SOL    HW230700   5.980   6.035   1.967  0.0861 -0.2375  0.5951
 7742SOL    HW330701   6.103   6.107   2.016  0.1389 -0.4100  0.7179
 7742SOL    MW430702   6.016   6.102   2.008 -0.3175  0.0863  0.7544
 7743SOL     OW30703   4.534   3.306   4.221  0.0053  0.4543 -0.3046
 7743SOL    HW230704   4.549   3.211   4.227 -0.0921  0.4848  0.6024
 7743SOL    HW330705   4.620   3.344   4.237 -0.3134  0.5479  1.4374
 7743SOL    MW430706   4.547   3.298   4.224  0.1448  0.3022 -0.1505
 7744SOL     OW30707   2.309   2.979   2.825 -0.1422  0.0124 -0.2281
 7744SOL    HW230708   2.246   3.010   2.890 -0.3504  0.3627 -0.5864
 7744SOL    HW330709   2.354   3.058   2.796 -2.5179  0.4840 -3.1078
 7744SOL    MW430710   2.307   2.994   2.830  0.1583  0.2155 -0.1277
 7745SOL     OW30711   4.048   2.691   5.556 -0.3164 -0.3127 -0.1449
 7745SOL    HW230712   4.002   2.742   5.623 -1.4858  0.2345 -1.3176
 7745SOL    HW330713   4.141   2.711   5.569 -0.5008 -0.3424  1.3864
 7745SOL    MW430714   4.054   2.700   5.567  0.4280 -0.1323  0.6723
 7746SOL     OW30715   6.139   2.947   4.636  0.6412  0.0071  0.4915
 7746SOL    HW230716   6.114   3.010   4.569  1.6268  0.8796  0.9210
 7746SOL    HW330717   6.194   2.997   4.697  1.2343 -1.2050  0.9831
 7746SOL    MW430718   6.143   2.962   4.635  0.9806 -0.6905  0.0520
 7747SOL     OW30719   1.706   2.465   3.713 -0.4900 -0.5655  0.2110
 7747SOL    HW230720   1.722   2.410   3.636  0.7097  0.8729 -0.6095
 7747SOL    HW330721   1.621   2.506   3.696 -0.5609 -0.8031 -0.0136
 7747SOL    MW430722   1.697   2.463   3.701 -0.0204 -0.0011 -0.2001
 7748SOL     OW30723   0.217   4.140   3.551  0.0878  0.5189  0.1009
 7748SOL    HW230724   0.177   4.200   3.489  2.1037  0.8745 -0.9368
 7748SOL    HW330725   0.226   4.190   3.631 -2.2481  0.1536  0.6800
 7748SOL    MW430726   0.213   4.154   3.553 -0.0562 -0.1752  0.3193
 7749SOL     OW30727   4.427   3.849   5.153 -0.2083 -0.1281 -0.0824
 7749SOL    HW230728   4.486   3.861   5.078 -0.2279 -1.0258 -0.2557
 7749SOL    HW330729   4.386   3.934   5.166  0.8857  0.4234 -0.1687
 7749SOL    MW430730   4.429   3.862   5.145 -0.2534 -0.5478  0.4401
 7750SOL     OW30731   6.198   2.209   1.174  0.4285 -0.3736 -0.5225
 7750SOL    HW230732   6.278   2.204   1.122 -0.3178  2.0484 -2.0941
 7750SOL    HW330733   6.130   2.233   1.110 -1.0593  0.1161  1.1531
 7750SOL    MW430734   6.199   2.211   1.159  0.2245 -0.4202 -0.4966
 7751SOL     OW30735   5.506   0.825   4.748 -0.2487  0.0470 -0.3422
 7751SOL    HW230736   5.464   0.741   4.769 -0.2942  0.0783 -0.3080
 7751SOL    HW330737   5.508   0.872   4.831  1.7165 -0.7657  0.1453
 7751SOL    MW430738   5.501   0.820   4.762  0.6680  0.3262  0.1343
 7752SOL     OW30739   3.297   4.308   5.825  0.1755  0.2821  0.0572
 7752SOL    HW230740   3.208   4.305   5.788  0.4953  2.8444 -1.1137
 7752SOL    HW330741   3.284   4.294   5.919 -1.2174 -1.3797 -0.3359
 7752SOL    MW430742   3.283   4.306   5.833  0.2052  0.0957 -0.5032
 7753SOL     OW30743   3.229   5.795   2.309 -0.5801 -0.5321 -0.7184
 7753SOL    HW230744   3.152   5.805   2.253 -0.6180 -0.6179 -0.6815
 7753SOL    HW330745   3.258   5.705   2.295  1.1812  0.2584 -2.8826
 7753SOL    MW430746   3.223   5.785   2.300  0.6362  0.1050  0.1069
 7754SOL     OW30747   2.719   1.866   2.196  0.8433  0.1304  0.0510
 7754SOL    HW230748   2.741   1.958   2.183  0.8064  0.1626  0.2167
 7754SOL    HW330749   2.721   1.828   2.108 -3.3992  1.2061 -0.7120
 7754SOL    MW430750   2.723   1.873   2.183 -0.8346  0.1817 -0.3968
 7755SOL     OW30751   5.814   5.352   3.871 -0.0205 -0.0907 -0.2858
 7755SOL    HW230752   5.769   5.429   3.906 -0.6056 -0.2060 -0.7598
 7755SOL    HW330753   5.883   5.388   3.815  2.1213  0.1452  2.2721
 7755SOL    MW430754   5.817   5.367   3.868 -0.1881 -1.0518  0.2516
 7756SOL     OW30755   1.239   5.224   1.062 -0.1126  0.1204 -0.0769
 7756SOL    HW230756   1.210   5.203   1.150  0.1235  1.9710  0.5024
 7756SOL    HW330757   1.163   5.266   1.021 -0.3168 -0.9912 -0.8828
 7756SOL    MW430758   1.225   5.227   1.068 -0.0212 -0.1131  0.0234
 7757SOL     OW30759   0.497   3.844   5.706 -0.2629  0.4370  0.5039
 7757SOL    HW230760   0.437   3.910   5.741 -1.2427  0.3084 -0.8370
 7757SOL    HW330761   0.541   3.888   5.633  0.6014  0.2309  0.8907
 7757SOL    MW430762   0.495   3.859   5.701  0.3262  0.7623  0.3537
 7758SOL     OW30763   1.417   1.393   1.145 -0.6645 -0.0007  0.5113
 7758SOL    HW230764   1.359   1.384   1.070  1.3478 -0.4146 -1.0933
 7758SOL    HW330765   1.430   1.488   1.154  0.6728  0.0006 -1.0225
 7758SOL    MW430766   1.411   1.404   1.136 -0.1238 -0.5824 -0.4653
 7759SOL     OW30767   0.799   0.476   5.820 -0.0766  0.7930  0.2376
 7759SOL    HW230768   0.857   0.427   5.762  0.6359  1.3122  0.4932
 7759SOL    HW330769   0.783   0.418   5.894 -1.4944 -0.1190 -0.7375
 7759SOL    MW430770   0.804   0.462   5.822 -0.0023  0.3136 -0.4523
 7760SOL     OW30771   0.790   2.421   2.761 -0.1839 -0.4549 -0.5574
 7760SOL    HW230772   0.752   2.401   2.847  0.1269  0.0618 -0.2985
 7760SOL    HW330773   0.714   2.439   2.706 -0.3532  0.0029 -0.1864
 7760SOL    MW430774   0.775   2.420   2.765 -0.2412  0.4333  0.4103
 7761SOL     OW30775   1.360   2.382   2.415 -0.4315  0.6865  0.0648
 7761SOL    HW230776   1.265   2.372   2.415 -0.5170  1.4617  0.2419
 7761SOL    HW330777   1.392   2.304   2.461 -1.0383  0.9185  0.8916
 7761SOL    MW430778   1.351   2.370   2.421 -0.0891 -0.2865  0.3558
 7762SOL     OW30779   6.081   3.351   1.806 -0.1388 -0.3824  0.0219
 7762SOL    HW230780   6.086   3.340   1.711  0.4144  0.5206 -0.0668
 7762SOL    HW330781   6.076   3.446   1.819 -1.2623 -0.5434  0.8611
 7762SOL    MW430782   6.081   3.362   1.795  0.2168 -0.4884  0.2070
 7763SOL     OW30783   6.422   5.875   2.942 -0.3445 -0.0394 -0.3123
 7763SOL    HW230784   6.326   5.877   2.937 -0.4166 -2.3802 -3.8796
 7763SOL    HW330785   6.443   5.785   2.967  0.9101  0.0616 -0.9206
 7763SOL    MW430786   6.412   5.863   2.944 -0.5809 -0.1760 -0.5878
 7764SOL     OW30787   4.741   3.913   2.127 -0.1605 -0.4642  0.1946
 7764SOL    HW230788   4.662   3.921   2.073  0.0663  1.7492  0.1326
 7764SOL    HW330789   4.741   3.991   2.182  3.0935  0.8367 -1.3575
 7764SOL    MW430790   4.730   3.924   2.127  0.0264  0.0898 -0.8563
 7765SOL     OW30791   0.427   0.435   4.714 -0.1590 -0.2178  0.2927
 7765SOL    HW230792   0.387   0.378   4.780 -1.3067  1.4439  1.1060
 7765SOL    HW330793   0.360   0.445   4.646  0.2744 -0.3571 -0.1587
 7765SOL    MW430794   0.413   0.429   4.714 -0.1816  0.2471 -0.5307
 7766SOL     OW30795   2.859   3.579   2.520 -0.0316  0.0414 -0.0722
 7766SOL    HW230796   2.909   3.555   2.599  1.9184  1.7463 -0.6736
 7766SOL    HW330797   2.892   3.666   2.498 -4.3337  2.0265  0.2488
 7766SOL    MW430798   2.870   3.588   2.528 -0.3791  0.0828  0.5090
 7767SOL     OW30799   4.641   1.906   5.487 -0.0898 -0.1333 -0.0039
 7767SOL    HW230800   4.657   1.949   5.571  1.5086 -1.7422  0.5709
 7767SOL    HW330801   4.628   1.978   5.425  0.2701  1.1134  1.3250
 7767SOL    MW430802   4.642   1.922   5.489  0.1655  0.0824  0.0042
 7768SOL     OW30803   4.480   4.490   6.035 -0.2602  0.6509  0.0727
 7768SOL    HW230804   4.539   4.548   6.083  0.9691  0.5049 -1.1940
 7768SOL    HW330805   4.433   4.442   6.103  0.5180  1.3325  1.1238
 7768SOL    MW430806   4.482   4.491   6.050  0.1587 -0.3391  0.1954
 7769SOL     OW30807   4.793   2.245   2.641 -0.4466 -0.0875  0.5177
 7769SOL    HW230808   4.713   2.202   2.673 -1.1611  0.6382 -0.2559
 7769SOL    HW330809   4.770   2.278   2.554  0.3048  1.2155  0.7824
 7769SOL    MW430810   4.779   2.244   2.634 -0.2873  0.4440  0.3593
 7770SOL     OW30811   3.338   5.816   1.012  0.0195 -0.2249  0.0646
 7770SOL    HW230812   3.317   5.882   0.947  0.7740  1.4079  1.3970
 7770SOL    HW330813   3.279   5.835   1.085  2.0050  0.7379  1.5230
 7770SOL    MW430814   3.328   5.827   1.013  0.3400 -0.2135 -0.2076
 7771SOL     OW30815   3.945   2.839   4.765  0.1881  0.3749  0.0057
 7771SOL    HW230816   3.982   2.898   4.830  1.1185 -0.3522  0.1552
 7771SOL    HW330817   3.863   2.809   4.804 -0.5832  1.9577 -0.3046
 7771SOL    MW430818   3.939   2.843   4.778 -0.2168 -0.1371  0.4468
 7772SOL     OW30819   1.108   5.377   0.561  0.2504 -0.4430 -0.1418
 7772SOL    HW230820   1.190   5.332   0.541  0.4936  0.1178 -0.4147
 7772SOL    HW330821   1.124   5.469   0.539 -0.5422 -0.3723 -0.4705
 7772SOL    MW430822   1.121   5.383   0.555  0.0276  0.2780  0.1320
 7773SOL     OW30823   2.416   4.459   5.982 -0.5093 -0.0010 -0.4109
 7773SOL    HW230824   2.424   4.552   5.960  1.5222  0.3490  1.4299
 7773SOL    HW330825   2.380   4.458   6.071 -0.0949 -0.9415 -0.2374
 7773SOL    MW430826   2.413   4.471   5.991 -0.0346 -0.6074  0.1041
 7774SOL     OW30827   1.829   3.234   0.327  0.2359  0.0386  0.6451
 7774SOL    HW230828   1.776   3.222   0.406  0.2463  0.4671  0.7221
 7774SOL    HW330829   1.858   3.325   0.332 -0.8067  0.4478 -0.5111
 7774SOL    MW430830   1.826   3.245   0.338  0.2024 -0.2707  0.1621
 7775SOL     OW30831   2.407   0.598   2.385 -0.3033 -0.0379  0.1978
 7775SOL    HW230832   2.455   0.617   2.304  0.3381 -1.0824  0.3200
 7775SOL    HW330833   2.372   0.509   2.372 -0.7372  0.0352  0.8172
 7775SOL    MW430834   2.408   0.589   2.372 -0.1406 -0.5908 -0.6120
 7776SOL     OW30835   0.211   4.560   4.751 -0.3305 -0.3724 -0.1217
 7776SOL    HW230836   0.186   4.625   4.817 -0.1529 -0.5791  0.1510
 7776SOL    HW330837   0.297   4.590   4.719  1.7996 -2.5954  2.9152
 7776SOL    MW430838   0.219   4.573   4.755  0.1272  0.3107 -0.1406
 7777SOL     OW30839   5.426   3.005   5.837 -0.3430 -0.3833  0.4811
 7777SOL    HW230840   5.360   2.936   5.828  1.2364 -1.9539  0.3481
 7777SOL    HW330841   5.378   3.086   5.822 -2.5962 -1.3131  2.1683
 7777SOL    MW430842   5.411   3.006   5.833 -0.4166 -0.4236 -0.3169
 7778SOL     OW30843   3.776   5.450   1.528 -0.5388 -0.1327  0.4518
 7778SOL    HW230844   3.825   5.369   1.515 -1.1684 -0.4349 -0.0749
 7778SOL    HW330845   3.724   5.460   1.449  0.6889  1.6108 -0.1911
 7778SOL    MW430846   3.776   5.440   1.516 -0.0376  0.1800 -0.1120
 7779SOL     OW30847   2.405   3.127   1.219 -0.2406  0.0530  0.6918
 7779SOL    HW230848   2.343   3.065   1.257  0.4710 -0.7324  0.6110
 7779SOL    HW330849   2.489   3.081   1.222  0.3459  1.1032  0.8238
 7779SOL    MW430850   2.408   3.112   1.224  0.7560 -0.5953  0.6394
 7780SOL     OW30851   3.312   2.449   2.282  0.8455  0.3793 -0.6822
 7780SOL    HW230852   3.325   2.521   2.221  1.3283  1.0040  0.1348
 7780SOL    HW330853   3.368   2.470   2.357  1.0620 -0.8892 -0.4573
 7780SOL    MW430854   3.321   2.461   2.284 -0.4000 -0.4005  0.2003
 7781SOL     OW30855   1.089   1.820   1.568 -0.1221 -0.0656 -0.2624
 7781SOL    HW230856   1.009   1.769   1.558  0.1550 -0.6186  0.2805
 7781SOL    HW330857   1.059   1.909   1.583 -0.6182 -0.1470 -0.7556
 7781SOL    MW430858   1.075   1.825   1.569 -0.7680 -0.1595  0.4275
 7782SOL     OW30859   4.781   0.859   1.667 -0.1438 -0.2135 -0.1015
 7782SOL    HW230860   4.853   0.883   1.608 -0.6875 -0.7720 -1.0294
 7782SOL    HW330861   4.758   0.770   1.640 -2.2619  0.5382 -0.9512
 7782SOL    MW430862   4.788   0.850   1.655  0.0847 -0.2599 -0.1036
 7783SOL     OW30863   5.755   1.535   5.134 -0.4803 -0.5648  0.0996
 7783SOL    HW230864   5.810   1.464   5.168 -0.3346 -1.4465 -1.8571
 7783SOL    HW330865   5.784   1.613   5.181  1.1911 -1.3359  0.3975
 7783SOL    MW430866   5.766   1.536   5.145 -0.1310 -0.7497 -0.3956
 7784SOL     OW30867   3.422   4.695   3.471 -0.0811 -0.0007  0.5218
 7784SOL    HW230868   3.376   4.629   3.417  0.3415  0.6313 -0.6433
 7784SOL    HW330869   3.473   4.746   3.408 -0.3826  1.4406  1.3950
 7784SOL    MW430870   3.422   4.693   3.455 -0.2719  0.8897  0.1269
 7785SOL     OW30871   1.824   3.714   3.212 -0.7090  0.2354 -0.1932
 7785SOL    HW230872   1.754   3.775   3.236  0.0334  0.7871  0.6356
 7785SOL    HW330873   1.869   3.695   3.295  0.6563  0.5626 -0.8284
 7785SOL    MW430874   1.821   3.719   3.226  0.5530  0.2605  0.0439
 7786SOL     OW30875   2.315   4.232   3.669 -0.0843  0.3323  0.3699
 7786SOL    HW230876   2.330   4.235   3.574 -0.0602 -0.0084  0.3614
 7786SOL    HW330877   2.401   4.248   3.707  0.1276 -0.6091  0.3251
 7786SOL    MW430878   2.328   4.234   3.661 -0.2173  0.0849  0.1105
 7787SOL     OW30879   0.702   0.797   5.054 -0.4517 -0.4609  0.6566
 7787SOL    HW230880   0.688   0.757   5.140 -0.6957 -1.1938  0.2825
 7787SOL    HW330881   0.617   0.788   5.010 -0.0925 -0.8433  0.0329
 7787SOL    MW430882   0.689   0.791   5.060 -0.2014 -0.4759  0.2776
 7788SOL     OW30883   2.181   0.294   0.167 -0.4020  0.3610  0.1729
 7788SOL    HW230884   2.192   0.243   0.246 -0.6338 -1.7539 -1.0910
 7788SOL    HW330885   2.252   0.265   0.109 -0.2761  1.7914 -0.4388
 7788SOL    MW430886   2.192   0.284   0.170 -0.4943 -0.4729 -0.2421
 7789SOL     OW30887   3.959   5.753   0.232 -0.0174 -0.4097 -0.1371
 7789SOL    HW230888   3.866   5.762   0.208  0.2084 -1.0125 -1.3210
 7789SOL    HW330889   3.981   5.838   0.271 -0.7877  0.1521 -0.8582
 7789SOL    MW430890   3.950   5.766   0.234 -0.0452  0.0133  0.6288
 7790SOL     OW30891   1.877   5.799   0.184  0.4575 -0.4525  0.1934
 7790SOL    HW230892   1.939   5.732   0.155  0.3260  0.4162 -2.3169
 7790SOL    HW330893   1.791   5.768   0.155  0.5156  1.2241 -2.0100
 7790SOL    MW430894   1.874   5.786   0.177 -0.1898 -0.5472  0.0250
 7791SOL     OW30895   4.365   5.984   3.309  0.1210 -0.7553 -0.0661
 7791SOL    HW230896   4.369   5.901   3.356 -0.3559 -0.3582  0.6884
 7791SOL    HW330897   4.323   6.044   3.370 -0.8350 -0.3145 -1.1162
 7791SOL    MW430898   4.360   5.981   3.323 -0.0259  0.2780 -0.5428
 7792SOL     OW30899   2.574   3.346   3.446  0.0569 -0.1416  0.1881
 7792SOL    HW230900   2.490   3.305   3.465  0.2834 -0.0113  1.5243
 7792SOL    HW330901   2.551   3.420   3.389 -0.3985 -1.7197 -1.8037
 7792SOL    MW430902   2.560   3.351   3.441 -0.0172  0.1793  0.4839
 7793SOL     OW30903   4.915   2.228   5.520  0.1769  0.0068  0.4622
 7793SOL    HW230904   4.843   2.280   5.485 -1.0664 -1.7871  0.2256
 7793SOL    HW330905   4.963   2.288   5.577  0.0394  1.9579 -1.3414
 7793SOL    MW430906   4.912   2.243   5.523 -0.0466 -0.4381  0.0731
 7794SOL     OW30907   0.465   4.567   5.177 -0.4021  0.0077  0.3015
 7794SOL    HW230908   0.441   4.652   5.215  0.9606  0.5649 -0.0042
 7794SOL    HW330909   0.483   4.587   5.085  0.5515 -0.4804  0.3683
 7794SOL    MW430910   0.464   4.581   5.170  0.0554 -0.0788  0.1240
 7795SOL     OW30911   0.049   2.753   5.129  0.0744 -0.4627 -0.4057
 7795SOL    HW230912   0.111   2.766   5.058 -0.7263  0.0707 -1.0249
 7795SOL    HW330913   0.104   2.747   5.208  0.8367  2.4258 -0.5960
 7795SOL    MW430914   0.065   2.754   5.130 -0.3706 -0.0758 -0.2077
 7796SOL     OW30915   5.128   3.818   2.300 -0.1208 -0.4031 -0.0747
 7796SOL    HW230916   5.061   3.842   2.363  0.9954 -0.7182  1.2912
 7796SOL    HW330917   5.150   3.727   2.321  1.9169  0.2035  0.6908
 7796SOL    MW430918   5.122   3.809   2.311 -0.7015  0.7067 -0.1610
 7797SOL     OW30919   4.782   6.050   2.474 -0.1018 -0.4216  0.1504
 7797SOL    HW230920   4.836   5.978   2.508  2.5848  0.8726 -1.0664
 7797SOL    HW330921   4.756   6.100   2.552  1.0185 -0.7286  0.7413
 7797SOL    MW430922   4.786   6.047   2.489 -0.3721 -0.2230  0.5794
 7798SOL     OW30923   4.049   6.352   0.927  0.4696  0.2863  0.6612
 7798SOL    HW230924   4.122   6.411   0.949 -0.3341  0.9082  1.7772
 7798SOL    HW330925   4.020   6.382   0.841  0.3232  1.2986  1.0429
 7798SOL    MW430926   4.055   6.364   0.919 -0.3254  0.3215 -0.1304
 7799SOL     OW30927   5.085   3.766   6.304  0.1128  0.4931  0.0968
 7799SOL    HW230928   5.146   3.780   6.377 -1.1098  1.0634  1.0396
 7799SOL    HW330929   5.044   3.851   6.290  0.6435  0.5070 -1.5905
 7799SOL    MW430930   5.088   3.779   6.312 -0.1510 -0.5313  0.2718
 7800SOL     OW30931   4.368   4.361   2.872 -0.3279 -0.2240  0.1280
 7800SOL    HW230932   4.343   4.333   2.960  0.2628  0.1863  0.4395
 7800SOL    HW330933   4.290   4.403   2.837 -0.4595 -0.0663  0.5995
 7800SOL    MW430934   4.355   4.363   2.879 -0.4179  0.1072  0.0361
 7801SOL     OW30935   2.709   0.881   1.550  0.0502  0.1613  0.6186
 7801SOL    HW230936   2.640   0.860   1.613 -1.0726 -0.1834 -0.6850
 7801SOL    HW330937   2.684   0.965   1.513 -1.3551 -1.2650 -1.9876
 7801SOL    MW430938   2.697   0.889   1.553 -0.0138 -0.1549 -0.3590
 7802SOL     OW30939   3.759   0.976   1.119 -0.3092 -0.3836 -0.3926
 7802SOL    HW230940   3.792   1.061   1.148 -1.4625  0.2196 -0.7907
 7802SOL    HW330941   3.810   0.912   1.169 -0.9847  0.5694  1.6332
 7802SOL    MW430942   3.770   0.979   1.130  0.5247  0.0086  0.6378
 7803SOL     OW30943   3.913   1.222   1.163  0.7757  0.3483 -0.5191
 7803SOL    HW230944   3.847   1.290   1.156  0.9487  0.7144  1.0116
 7803SOL    HW330945   3.956   1.238   1.247  1.3480 -1.1744 -0.4752
 7803SOL    MW430946   3.910   1.233   1.173 -0.1298 -0.3348  0.1080
 7804SOL     OW30947   4.956   1.016   1.219  0.2648 -0.2855 -0.3390
 7804SOL    HW230948   4.902   1.003   1.140 -1.5520 -2.1611  1.0901
 7804SOL    HW330949   4.967   1.111   1.225  1.8864 -0.0939 -3.6765
 7804SOL    MW430950   4.950   1.027   1.209  0.2842  0.0460  0.0320
 7805SOL     OW30951   4.635   5.225   3.133  0.4050 -0.2312 -0.7406
 7805SOL    HW230952   4.715   5.244   3.086  0.1089  1.8076 -0.5266
 7805SOL    HW330953   4.619   5.303   3.186 -2.2351 -0.1089 -1.5362
 7805SOL    MW430954   4.643   5.237   3.134  0.1052  0.3864 -0.5183
 7806SOL     OW30955   3.625   4.463   2.092 -0.4509 -0.4939  0.1222
 7806SOL    HW230956   3.688   4.518   2.139 -1.4843 -0.1845  1.1897
 7806SOL    HW330957   3.561   4.525   2.057 -0.9689 -0.9129  0.3114
 7806SOL    MW430958   3.625   4.478   2.094  0.0879  0.0074 -0.3099
 7807SOL     OW30959   2.351   0.480   1.944  0.0092  0.2798  0.4434
 7807SOL    HW230960   2.367   0.496   1.851  1.1595  1.7727  0.8681
 7807SOL    HW330961   2.276   0.534   1.965 -0.3549 -0.1848  0.3699
 7807SOL    MW430962   2.344   0.489   1.934 -0.8245  0.0583  0.3032
 7808SOL     OW30963   4.912   4.966   3.580  0.0987 -0.0526  0.5017
 7808SOL    HW230964   5.001   4.999   3.567  0.0079 -0.4282 -1.3993
 7808SOL    HW330965   4.917   4.874   3.554 -0.9419  0.0373 -0.0351
 7808SOL    MW430966   4.924   4.958   3.575  0.5411  0.0464  0.0475
 7809SOL     OW30967   0.787   5.455   2.713  0.0767 -0.1954 -0.1062
 7809SOL    HW230968   0.705   5.490   2.677  0.4212  0.1394 -0.5692
 7809SOL    HW330969   0.799   5.504   2.795  0.0580  0.0957 -0.2749
 7809SOL    MW430970   0.778   5.466   2.719 -0.3073 -0.1295  0.1675
 7810SOL     OW30971   1.146   3.429   2.585 -0.2329  0.0060  0.2170
 7810SOL    HW230972   1.158   3.523   2.597  1.1395 -0.3123  1.5195
 7810SOL    HW330973   1.213   3.403   2.522  0.0092 -0.2412  0.5681
 7810SOL    MW430974   1.156   3.438   2.578  0.1197 -0.1596  0.1920
 7811SOL     OW30975   5.965   0.449   0.635 -0.3196 -0.3313  0.2989
 7811SOL    HW230976   5.925   0.507   0.699  0.2130  0.8936 -0.4301
 7811SOL    HW330977   5.927   0.476   0.551  2.3396  1.2832 -0.5128
 7811SOL    MW430978   5.955   0.460   0.632 -0.2412  0.0402  0.4591
 7812SOL     OW30979   1.847   1.520   3.076  0.4863 -0.2374 -0.0833
 7812SOL    HW230980   1.916   1.524   3.142 -0.2656 -0.6179  0.7657
 7812SOL    HW330981   1.766   1.528   3.127 -0.2643 -3.3074 -0.5524
 7812SOL    MW430982   1.845   1.521   3.092 -0.0492  0.0568 -0.9330
 7813SOL     OW30983   6.406   5.918   5.540  0.2059 -0.1846 -0.0636
 7813SOL    HW230984   6.353   5.840   5.522 -0.6582  0.2213  0.6496
 7813SOL    HW330985   6.369   5.985   5.483  0.8617 -0.2506 -0.5775
 7813SOL    MW430986   6.394   5.917   5.530 -0.1939 -0.1845  0.0502
 7814SOL     OW30987   2.044   3.212   2.709  0.2032  0.2804 -0.1145
 7814SOL    HW230988   2.078   3.196   2.797  1.1704 -0.1261 -0.5528
 7814SOL    HW330989   1.983   3.140   2.693  2.3451 -1.4663 -0.9484
 7814SOL    MW430990   2.040   3.201   2.719  0.1025 -0.1160  0.2296
 7815SOL     OW30991   0.750   5.661   1.794 -0.4227  0.7644  0.2433
 7815SOL    HW230992   0.829   5.607   1.789 -0.0442  1.4286 -1.4673
 7815SOL    HW330993   0.684   5.614   1.743 -0.7098  0.9056  0.4782
 7815SOL    MW430994   0.752   5.648   1.787  0.0183 -0.4829  0.7806
 7816SOL     OW30995   3.517   1.641   1.917 -0.5473 -0.1088 -0.8658
 7816SOL    HW230996   3.466   1.642   1.998 -1.4698 -2.3697 -1.3486
 7816SOL    HW330997   3.476   1.706   1.861 -1.4910 -0.3104 -0.4206
 7816SOL    MW430998   3.505   1.650   1.920  0.3744 -0.1445  1.0585
 7817SOL     OW30999   2.974   3.678   2.939  0.0590  0.2029  0.1426
 7817SOL    HW231000   3.056   3.646   2.901  0.9114  1.8443  0.5039
 7817SOL    HW331001   2.979   3.773   2.930 -1.2569  0.4107  1.2889
 7817SOL    MW431002   2.985   3.686   2.933  0.4930 -0.3118  0.3792
 7818SOL     OW31003   4.290   3.260   4.076  0.6097 -0.2930  0.6979
 7818SOL    HW231004   4.366   3.276   4.134  1.1627  0.6512 -0.2422
 7818SOL    HW331005   4.308   3.176   4.035  0.6223 -0.5759  1.2722
 7818SOL    MW431006   4.303   3.251   4.078  0.1942 -0.1176 -0.4435
 7819SOL     OW31007   4.053   5.929   2.153  0.4050 -0.0274  0.1823
 7819SOL    HW231008   3.979   5.935   2.093  1.5154 -0.2976 -1.3074
 7819SOL    HW331009   4.015   5.910   2.238 -1.2231 -0.0796 -0.5266
 7819SOL    MW431010   4.038   5.927   2.156 -0.0073 -0.3349  0.5384
 7820SOL     OW31011   1.000   5.355   4.604 -0.3694  0.1849  0.3532
 7820SOL    HW231012   1.011   5.341   4.511  1.8430 -1.5001  0.7954
 7820SOL    HW331013   0.931   5.293   4.630 -0.4118  0.0793 -0.0062
 7820SOL    MW431014   0.992   5.345   4.596  0.0090 -0.1023 -0.0200
 7821SOL     OW31015   4.052   5.687   4.928  0.3362  0.3225 -0.5011
 7821SOL    HW231016   3.981   5.711   4.987  1.6896  0.2222  1.2447
 7821SOL    HW331017   4.036   5.595   4.908 -0.7965  0.6702 -1.3153
 7821SOL    MW431018   4.040   5.678   4.933 -0.2452 -0.3724 -0.5973
 7822SOL     OW31019   3.035   4.045   3.126  0.0083  0.4800 -0.1299
 7822SOL    HW231020   3.111   3.992   3.153  0.2378 -0.1448 -1.8495
 7822SOL    HW331021   2.965   4.016   3.183  0.4743 -0.7649 -0.1387
 7822SOL    MW431022   3.036   4.034   3.137 -0.6057  0.6745 -0.3970
 7823SOL     OW31023   5.189   5.919   1.152 -0.0828  0.4927 -0.7084
 7823SOL    HW231024   5.199   5.961   1.237  0.9442  2.1718 -1.5928
 7823SOL    HW331025   5.256   5.851   1.150  0.4442  0.9993 -0.4759
 7823SOL    MW431026   5.199   5.916   1.163  0.5569 -0.1693 -0.0349
 7824SOL     OW31027   5.798  -0.003   1.760 -0.0931 -0.2877  0.5303
 7824SOL    HW231028   5.756  -0.032   1.842  0.1494  0.4511  0.9261
 7824SOL    HW331029   5.885  -0.044   1.763 -0.3686 -0.9007  0.2569
 7824SOL    MW431030   5.804  -0.013   1.771 -0.0930 -0.2914  0.5966
 7825SOL     OW31031   3.861   4.965   3.482 -0.0278  0.4218  0.0098
 7825SOL    HW231032   3.933   4.945   3.541 -0.4422  0.4275  0.5209
 7825SOL    HW331033   3.875   5.057   3.457  2.6882 -0.7013 -3.4562
 7825SOL    MW431034   3.872   4.975   3.486 -0.3133 -0.3658  0.0344
 7826SOL     OW31035   6.191   5.609   1.244 -0.0451  0.1314 -0.5668
 7826SOL    HW231036   6.252   5.652   1.304  1.0310 -0.6272 -1.0895
 7826SOL    HW331037   6.166   5.528   1.288  0.0438  0.0062 -0.7424
 7826SOL    MW431038   6.195   5.604   1.257 -0.1426 -0.4486  0.0409
 7827SOL     OW31039   4.632   1.006   1.146 -0.3060 -0.0172  0.1689
 7827SOL    HW231040   4.603   1.028   1.234  0.6401  0.2368  0.4301
 7827SOL    HW331041   4.553   1.015   1.092 -0.9879 -0.5790  1.0378
 7827SOL    MW431042   4.618   1.010   1.150  0.4134  0.4546  0.6222
 7828SOL     OW31043   0.046   5.299   5.832  0.4260  0.2086 -0.1812
 7828SOL    HW231044   0.024   5.392   5.831 -0.5358 -0.0080 -0.7465
 7828SOL    HW331045   0.133   5.295   5.792  0.2819  0.8217 -0.5711
 7828SOL    MW431046   0.055   5.311   5.826  0.5231  0.5516  0.2109
 7829SOL     OW31047   0.469   3.878   0.943  0.3506 -0.2502 -0.0239
 7829SOL    HW231048   0.423   3.907   1.022  0.2741 -0.7585  0.1232
 7829SOL    HW331049   0.557   3.855   0.973  0.6375  0.4990 -0.2662
 7829SOL    MW431050   0.474   3.879   0.958  0.4579 -0.4194 -0.1204
 7830SOL     OW31051   0.403   5.986   6.211  0.6305  0.6927  0.3517
 7830SOL    HW231052   0.308   5.994   6.200  0.4038 -0.0481  1.5693
 7830SOL    HW331053   0.418   6.009   6.303  1.5920  0.5138  0.2453
 7830SOL    MW431054   0.393   5.990   6.222 -0.0428 -0.3489  0.1999
 7831SOL     OW31055   3.191   0.826   2.107  0.0243  0.1680  0.2199
 7831SOL    HW231056   3.222   0.813   2.196 -1.1985 -1.5004  0.4547
 7831SOL    HW331057   3.095   0.821   2.113 -0.0566 -1.8164 -1.3796
 7831SOL    MW431058   3.182   0.824   2.119 -0.4391 -0.6059 -0.1660
 7832SOL     OW31059   4.175   2.210   3.922 -0.2963  0.4146 -0.5397
 7832SOL    HW231060   4.231   2.288   3.920 -0.2276  0.3390 -1.8544
 7832SOL    HW331061   4.200   2.165   4.003  0.2051  1.3499 -0.1554
 7832SOL    MW431062   4.186   2.215   3.933  0.0279 -0.0905  0.2134
 7833SOL     OW31063   3.145   2.728   1.259  0.8787 -0.8353 -0.1199
 7833SOL    HW231064   3.136   2.664   1.188  2.0136 -0.4788 -0.6234
 7833SOL    HW331065   3.102   2.807   1.227 -1.2045 -1.5177  0.8111
 7833SOL    MW431066   3.138   2.730   1.246 -0.9300 -0.2609 -0.3706
 7834SOL     OW31067   0.266   4.424   1.622  0.0041 -0.0086  0.1709
 7834SOL    HW231068   0.181   4.398   1.659 -0.9072  1.6162 -0.6714
 7834SOL    HW331069   0.310   4.341   1.603 -1.4212 -0.8964  0.5623
 7834SOL    MW431070   0.260   4.409   1.624 -0.0024 -0.2079 -0.5087
 7835SOL     OW31071   6.000   0.232   6.266  0.8945  0.2028  0.3933
 7835SOL    HW231072   5.933   0.175   6.303  0.7003  1.0549  1.4280
 7835SOL    HW331073   6.073   0.226   6.327  1.3410  0.1096 -0.1486
 7835SOL    MW431074   6.001   0.224   6.279 -0.8719  0.1750 -0.3325
 7836SOL     OW31075   5.594   4.543   0.327  0.4678  0.2297 -0.0073
 7836SOL    HW231076   5.555   4.542   0.415 -1.5035 -0.0762 -0.8293
 7836SOL    HW331077   5.678   4.498   0.337 -0.2921 -0.9409  1.4709
 7836SOL    MW431078   5.600   4.537   0.340  0.0624 -0.5050 -0.1305
 7837SOL     OW31079   6.406   4.208   2.085  0.0779 -0.4500  0.3025
 7837SOL    HW231080   6.355   4.127   2.092 -1.4578  0.4986  0.4883
 7837SOL    HW331081   6.353   4.273   2.130  1.6970  0.4961  0.8948
 7837SOL    MW431082   6.392   4.206   2.092  0.1983  0.5310  0.0073
 7838SOL     OW31083   4.588   0.484   1.259  0.7517 -0.0427 -0.0175
 7838SOL    HW231084   4.627   0.534   1.331 -0.5699  2.2113 -0.7311
 7838SOL    HW331085   4.647   0.498   1.185 -0.1507  1.4580 -0.4987
 7838SOL    MW431086   4.601   0.493   1.259  0.3883 -0.0829  0.1640
 7839SOL     OW31087   3.210   4.759   5.232 -0.1261  0.6546  0.1580
 7839SOL    HW231088   3.118   4.737   5.248 -0.4476  0.4969 -1.6373
 7839SOL    HW331089   3.225   4.838   5.283 -1.0019  0.2188  1.1337
 7839SOL    MW431090   3.200   4.766   5.241 -0.0709 -0.0553 -0.2601
 7840SOL     OW31091   6.118   5.549   3.170  0.0498 -0.4542 -1.0230
 7840SOL    HW231092   6.143   5.641   3.172  0.8216 -0.6626 -0.8112
 7840SOL    HW331093   6.063   5.537   3.248  2.2296 -0.7868  0.5595
 7840SOL    MW431094   6.114   5.559   3.181  0.2247  0.5109  0.1375
 7841SOL     OW31095   2.504   2.167   2.459  0.3598  0.5592 -0.2112
 7841SOL    HW231096   2.534   2.248   2.500 -2.1106  1.3170  0.3191
 7841SOL    HW331097   2.562   2.099   2.494  0.7398  1.7283  1.5740
 7841SOL    MW431098   2.515   2.168   2.469 -0.9699  0.1256  0.3503
 7842SOL     OW31099   0.564   6.016   5.170  0.1566  0.3366  0.5021
 7842SOL    HW231100   0.544   5.932   5.213  1.0487 -0.8100 -1.2176
 7842SOL    HW331101   0.656   6.009   5.145  0.2663  1.8794  0.3717
 7842SOL    MW431102   0.573   6.004   5.172  0.1604  0.3865 -0.0623
 7843SOL     OW31103   5.528   5.954   1.371 -0.5420 -0.1602 -0.0753
 7843SOL    HW231104   5.520   5.858   1.377 -1.4454 -0.0874  0.0683
 7843SOL    HW331105   5.534   5.971   1.277  1.1175 -0.4491 -0.0451
 7843SOL    MW431106   5.528   5.943   1.359  0.1801  0.3414  0.2560
 7844SOL     OW31107   5.096   2.730   2.289 -0.2309 -0.0554  0.1137
 7844SOL    HW231108   5.066   2.820   2.292 -1.3312 -0.4204  0.6034
 7844SOL    HW331109   5.016   2.678   2.288  0.3658 -1.0595  1.1347
 7844SOL    MW431110   5.081   2.735   2.290 -0.0783 -0.4714 -0.1012
 7845SOL     OW31111   2.367   1.621   0.219  0.5789 -0.9553  0.1467
 7845SOL    HW231112   2.434   1.608   0.152  1.9624 -1.7459  1.6053
 7845SOL    HW331113   2.403   1.690   0.276 -0.6534 -0.1557 -0.0032
 7845SOL    MW431114   2.380   1.628   0.218 -0.2739  0.6090  0.2152
 7846SOL     OW31115   5.060   5.871   4.573 -0.3729 -0.2640 -0.3193
 7846SOL    HW231116   4.983   5.821   4.545 -1.8988 -0.1015  3.0576
 7846SOL    HW331117   5.117   5.806   4.614 -0.0092  0.0100 -0.3885
 7846SOL    MW431118   5.057   5.856   4.575 -0.1759  0.3827 -0.1667
 7847SOL     OW31119   5.564   6.211   2.214 -0.2750 -0.6735  0.5828
 7847SOL    HW231120   5.608   6.231   2.296  0.0516  1.6297 -0.1123
 7847SOL    HW331121   5.496   6.278   2.205  0.4219 -0.1822 -1.5653
 7847SOL    MW431122   5.561   6.222   2.224 -0.2679  0.1769  0.0275
 7848SOL     OW31123   0.197   1.153   1.810 -0.3365  0.1263  0.3431
 7848SOL    HW231124   0.237   1.201   1.739  0.1079 -0.5786  0.1126
 7848SOL    HW331125   0.250   1.074   1.820 -0.4884  0.1292  1.3392
 7848SOL    MW431126   0.209   1.149   1.802  1.0089  0.2841  0.1864
 7849SOL     OW31127   4.072   3.127   4.681  0.3326 -0.1648 -0.1093
 7849SOL    HW231128   4.089   3.079   4.762  1.1487 -1.3281 -0.9262
 7849SOL    HW331129   3.982   3.156   4.689  0.3560 -0.3780  1.1563
 7849SOL    MW431130   4.063   3.124   4.693 -0.1673 -0.0023  0.7797
 7850SOL     OW31131   5.690   4.468   3.743 -0.7609  0.2173 -0.1762
 7850SOL    HW231132   5.739   4.386   3.734 -2.1412 -0.7875  1.0388
 7850SOL    HW331133   5.674   4.496   3.653 -0.1162 -0.7495 -0.6099
 7850SOL    MW431134   5.695   4.461   3.730  0.3123 -0.2324 -0.3412
 7851SOL     OW31135   2.187   1.024   2.647  0.2032 -0.4409  0.0479
 7851SOL    HW231136   2.135   1.087   2.598  0.5173 -1.0194 -1.0742
 7851SOL    HW331137   2.135   1.003   2.724 -1.4976 -1.4164 -1.3058
 7851SOL    MW431138   2.173   1.030   2.651  0.2281  0.4451  0.4563
 7852SOL     OW31139   1.764   5.323   3.343 -0.2609  0.7846  0.0884
 7852SOL    HW231140   1.773   5.242   3.293  0.9229  1.2404 -0.4766
 7852SOL    HW331141   1.691   5.307   3.402  0.4904 -1.0281  0.5928
 7852SOL    MW431142   1.756   5.310   3.345 -0.3317 -0.2672  0.2162
 7853SOL     OW31143   6.177   4.556   5.717 -1.0814  0.0132  0.0005
 7853SOL    HW231144   6.233   4.566   5.794 -2.3915 -0.3057  1.0399
 7853SOL    HW331145   6.138   4.469   5.727 -1.0251 -0.1702 -1.2145
 7853SOL    MW431146   6.179   4.546   5.728  0.4619  0.1290  0.5718
 7854SOL     OW31147   1.518   0.609   2.933  0.3931  0.5938  0.4014
 7854SOL    HW231148   1.453   0.551   2.973  0.2903 -1.3816 -2.3640
 7854SOL    HW331149   1.468   0.686   2.906 -0.5464 -0.2551 -0.3530
 7854SOL    MW431150   1.503   0.612   2.935  0.3837 -0.3135 -0.5148
 7855SOL     OW31151   2.366   3.179   5.240 -0.0777  0.5602  0.2563
 7855SOL    HW231152   2.332   3.090   5.254 -0.4337  0.7011  0.2924
 7855SOL    HW331153   2.460   3.170   5.251  0.0800 -0.1477 -1.3897
 7855SOL    MW431154   2.374   3.166   5.243 -0.3322  0.3723  0.0036
 7856SOL     OW31155   2.727   4.754   6.102 -0.1498 -0.2767 -0.5227
 7856SOL    HW231156   2.714   4.849   6.096  1.4262  0.0377  0.5659
 7856SOL    HW331157   2.783   4.732   6.027  0.4145 -0.1601 -0.1359
 7856SOL    MW431158   2.733   4.764   6.091 -0.2961 -0.6873  0.3657
 7857SOL     OW31159   3.194   3.578   1.857  0.3718  0.0745  0.6877
 7857SOL    HW231160   3.209   3.672   1.870  0.4586 -0.1109  2.1376
 7857SOL    HW331161   3.135   3.573   1.781  0.6525  1.2741  0.3687
 7857SOL    MW431162   3.188   3.590   1.849 -0.0805  0.4279 -0.2099
 7858SOL     OW31163   4.616   2.533   4.307  0.0385 -0.3226  0.4087
 7858SOL    HW231164   4.676   2.556   4.236  0.8139  0.5535  1.3175
 7858SOL    HW331165   4.663   2.556   4.387 -1.6849  0.8675  1.1480
 7858SOL    MW431166   4.630   2.539   4.308  0.0502 -0.3357  0.1791
 7859SOL     OW31167   0.221   1.657   3.770  0.7156  0.5426 -0.5811
 7859SOL    HW231168   0.161   1.623   3.837  0.6215 -1.0010 -1.3861
 7859SOL    HW331169   0.175   1.732   3.733 -1.1393 -1.0335 -1.6906
 7859SOL    MW431170   0.207   1.662   3.774  0.4951  0.0429 -0.3879
 7860SOL     OW31171   1.038   1.871   2.616  0.2682 -0.0416  0.7089
 7860SOL    HW231172   0.967   1.885   2.554  0.8526 -0.0981  0.0054
 7860SOL    HW331173   1.030   1.780   2.642  1.9072 -1.0209 -1.7956
 7860SOL    MW431174   1.028   1.861   2.611 -0.2893 -0.3820  0.5815
 7861SOL     OW31175   4.914   0.109   0.886  0.1854  0.0867 -0.2197
 7861SOL    HW231176   4.836   0.073   0.844  0.0270  2.3305 -2.0712
 7861SOL    HW331177   4.987   0.076   0.833  0.5161 -1.4187  1.0783
 7861SOL    MW431178   4.913   0.100   0.874  0.1954 -0.0410  0.4795
 7862SOL     OW31179   5.574   5.507   0.322 -0.2632  0.2665  0.3023
 7862SOL    HW231180   5.609   5.429   0.365 -0.6261 -1.0864 -1.7316
 7862SOL    HW331181   5.480   5.490   0.313 -0.0990  0.1289 -1.6393
 7862SOL    MW431182   5.566   5.495   0.327 -0.1128  0.1099 -0.0012
 7863SOL     OW31183   3.556   1.855   3.295  0.1498  0.2296 -0.4447
 7863SOL    HW231184   3.619   1.838   3.226  0.0727  1.8364 -0.9548
 7863SOL    HW331185   3.588   1.935   3.338 -0.2789 -0.2382  0.8175
 7863SOL    MW431186   3.569   1.863   3.292 -0.1159  0.1789 -0.0706
 7864SOL     OW31187   0.793   3.033   2.162  0.2546 -0.4139 -0.0620
 7864SOL    HW231188   0.829   3.114   2.198  0.0297  0.3546 -1.4764
 7864SOL    HW331189   0.830   2.963   2.216  2.3901  0.4719 -0.2965
 7864SOL    MW431190   0.803   3.034   2.174  0.1894  0.1565  0.1433
 7865SOL     OW31191   4.767   4.700   5.814  0.1976 -0.3671 -0.0445
 7865SOL    HW231192   4.695   4.758   5.840 -1.2163 -2.7753  1.9082
 7865SOL    HW331193   4.823   4.754   5.758 -0.2543  3.2754  2.6446
 7865SOL    MW431194   4.765   4.715   5.810 -0.1267 -0.1486  0.2078
 7866SOL     OW31195   2.183   5.379   3.422 -0.3397  0.1690  0.5282
 7866SOL    HW231196   2.096   5.359   3.455 -0.3804  1.0056  0.9539
 7866SOL    HW331197   2.180   5.472   3.399  0.1282 -0.0486 -0.4622
 7866SOL    MW431198   2.171   5.389   3.423  0.1320 -0.8328  0.0604
 7867SOL     OW31199   0.654   4.661   1.592  0.5257 -0.1268 -0.1229
 7867SOL    HW231200   0.580   4.669   1.651  0.8496 -0.7195  0.3774
 7867SOL    HW331201   0.696   4.747   1.595  0.3587 -0.0543  0.2652
 7867SOL    MW431202   0.650   4.674   1.600  0.2132 -0.5752  0.4451
 7868SOL     OW31203   4.459   3.899   3.836 -0.0468  0.2434  0.0960
 7868SOL    HW231204   4.509   3.820   3.857 -0.0397  0.5203  1.1874
 7868SOL    HW331205   4.377   3.866   3.800 -0.0936 -0.2704  0.6515
 7868SOL    MW431206   4.455   3.884   3.834 -0.2637  0.2041  0.1651
 7869SOL     OW31207   4.046   5.720   4.242  0.4409  0.1542  0.3784
 7869SOL    HW231208   4.004   5.683   4.320  0.3332  0.1342  0.3097
 7869SOL    HW331209   4.011   5.670   4.169  0.1086  0.5533  0.2619
 7869SOL    MW431210   4.036   5.709   4.243  0.2468  0.2601 -0.2163
 7870SOL     OW31211   1.033   1.574   0.852 -0.3123  0.3220 -0.3581
 7870SOL    HW231212   1.085   1.571   0.933 -0.4389  0.5979 -0.2652
 7870SOL    HW331213   1.066   1.500   0.800 -0.2791  0.1004 -0.0258
 7870SOL    MW431214   1.044   1.564   0.856  0.4244 -0.0730  0.2413
 7871SOL     OW31215   0.291   3.384   0.103 -0.0566 -0.1172 -0.0551
 7871SOL    HW231216   0.196   3.388   0.112 -0.1836 -0.7993 -0.9931
 7871SOL    HW331217   0.306   3.367   0.010  0.9840 -0.0261  0.0813
 7871SOL    MW431218   0.280   3.382   0.092  0.1139 -0.0561  0.3127
 7872SOL     OW31219   4.657   5.642   3.660 -0.3700  0.3743  0.1937
 7872SOL    HW231220   4.743   5.606   3.640 -0.5747 -0.5909  0.9777
 7872SOL    HW331221   4.644   5.623   3.753 -0.3101  2.8792  0.8029
 7872SOL    MW431222   4.667   5.635   3.669  0.5149 -0.1529  0.1219
 7873SOL     OW31223   4.509   1.631   1.684 -0.0749 -0.0370  0.8761
 7873SOL    HW231224   4.473   1.614   1.772 -0.3195  0.4406  0.8704
 7873SOL    HW331225   4.600   1.654   1.700 -0.1654  0.2278  1.0237
 7873SOL    MW431226   4.516   1.632   1.698 -0.2807  0.4799  0.4618
 7874SOL     OW31227   6.047   3.590   0.224  0.6054 -0.1532  0.0239
 7874SOL    HW231228   6.090   3.504   0.235 -0.4208 -0.8030 -0.8350
 7874SOL    HW331229   5.959   3.569   0.192  0.7375  1.2615 -1.3956
 7874SOL    MW431230   6.041   3.576   0.222 -0.0557  0.0013 -0.5633
 7875SOL     OW31231   1.939   0.583   1.952  0.0472 -0.5155 -0.3116
 7875SOL    HW231232   1.893   0.509   1.991  1.0446 -1.3628 -0.6988
 7875SOL    HW331233   1.978   0.548   1.872  1.1065  0.2420 -0.1443
 7875SOL    MW431234   1.938   0.569   1.947 -0.1472  0.1000 -0.3062
 7876SOL     OW31235   0.334   5.108   3.881 -0.0941 -0.2727  0.2220
 7876SOL    HW231236   0.373   5.045   3.821  1.1626  0.0990  0.6358
 7876SOL    HW331237   0.405   5.167   3.905 -0.9444  0.5286  0.8589
 7876SOL    MW431238   0.348   5.108   3.877 -0.5500  0.7464 -0.3251
 7877SOL     OW31239   3.849   2.067   2.377 -0.2716  0.0459  0.1776
 7877SOL    HW231240   3.872   2.128   2.446  2.0024  0.2568 -0.6736
 7877SOL    HW331241   3.775   2.108   2.332 -1.3632  0.2054  2.0221
 7877SOL    MW431242   3.843   2.081   2.380 -0.0576 -0.1855  0.2460
 7878SOL     OW31243   0.712   3.764   0.994 -0.8914 -0.3565 -0.1473
 7878SOL    HW231244   0.783   3.828   0.998  0.5600 -1.9633  1.3879
 7878SOL    HW331245   0.726   3.718   0.912 -0.4960 -0.3042 -0.1106
 7878SOL    MW431246   0.723   3.767   0.984 -0.0267 -0.5924  0.1565
 7879SOL     OW31247   4.848   1.329   6.234  0.3156  0.4393  0.0669
 7879SOL    HW231248   4.758   1.338   6.201  0.4942 -0.2133 -0.6175
 7879SOL    HW331249   4.840   1.344   6.329 -0.5441  0.1935  0.0432
 7879SOL    MW431250   4.835   1.332   6.243  0.1824  0.1199 -0.0531
 7880SOL     OW31251   4.371   2.257   3.000 -0.1864  0.9352 -0.6866
 7880SOL    HW231252   4.313   2.332   3.013 -1.3986  0.4017 -2.5101
 7880SOL    HW331253   4.363   2.238   2.906 -1.3030 -2.5421 -0.0029
 7880SOL    MW431254   4.362   2.265   2.989 -0.1385 -0.2188 -0.3709
 7881SOL     OW31255   5.929   3.584   2.413  0.0389 -0.2668 -0.2587
 7881SOL    HW231256   5.904   3.655   2.472  0.3043 -0.4884  0.1254
 7881SOL    HW331257   5.938   3.508   2.470  0.6551 -0.4041 -0.5285
 7881SOL    MW431258   5.927   3.584   2.428  0.5588 -0.0461 -0.8990
 7882SOL     OW31259   0.752   1.077   0.221 -0.1597 -0.2239 -0.5025
 7882SOL    HW231260   0.764   1.016   0.149 -0.0528 -3.2608  1.8956
 7882SOL    HW331261   0.761   1.024   0.300  0.4725  3.0308  1.8328
 7882SOL    MW431262   0.755   1.062   0.222  0.8035  0.4908 -0.3284
 7883SOL     OW31263   3.551   5.873   3.596  0.1131  0.5398  0.1684
 7883SOL    HW231264   3.562   5.960   3.636  0.9517  1.3430 -1.6730
 7883SOL    HW331265   3.462   5.874   3.561  1.1896  2.1377 -2.9268
 7883SOL    MW431266   3.541   5.885   3.596 -0.7169 -0.3851 -0.1813
 7884SOL     OW31267   4.185   6.150   4.972  0.4852  0.7041 -0.7220
 7884SOL    HW231268   4.121   6.216   4.947  1.2529  1.8124  0.1142
 7884SOL    HW331269   4.206   6.103   4.891 -1.3126  0.3521 -1.0115
 7884SOL    MW431270   4.180   6.152   4.958  0.0579  0.4489  0.1470
 7885SOL     OW31271   0.411   3.813   1.398  0.5188  0.2434  0.2779
 7885SOL    HW231272   0.425   3.730   1.444  2.0654  0.9632  1.1829
 7885SOL    HW331273   0.497   3.834   1.361  0.0333  1.2183 -0.3261
 7885SOL    MW431274   0.424   3.805   1.399  0.1509  0.0115  0.4963
 7886SOL     OW31275   0.267   4.217   4.230  0.2834  0.5089 -0.6863
 7886SOL    HW231276   0.267   4.236   4.137  1.7913  0.2245 -0.7709
 7886SOL    HW331277   0.355   4.242   4.260 -0.2770  0.8854  0.7156
 7886SOL    MW431278   0.279   4.223   4.222 -0.2889 -0.1317  0.1459
 7887SOL     OW31279   2.051   5.898   5.091  0.1572  0.2472  0.6608
 7887SOL    HW231280   1.967   5.878   5.050  0.9310 -0.1301 -0.7996
 7887SOL    HW331281   2.071   5.987   5.062  0.9247 -0.1880 -0.2085
 7887SOL    MW431282   2.043   5.907   5.082 -0.0852 -0.0409 -0.2812
 7888SOL     OW31283   3.038   5.332   0.524 -0.1847  0.3928  0.3690
 7888SOL    HW231284   2.949   5.330   0.488  0.4609 -1.0719 -1.2575
 7888SOL    HW331285   3.045   5.250   0.573  0.9655 -0.5914 -1.3666
 7888SOL    MW431286   3.027   5.321   0.526 -0.4173  0.5539 -0.0264
 7889SOL     OW31287   1.429   0.172   3.154 -0.3780  0.7963  1.1524
 7889SOL    HW231288   1.521   0.195   3.169  0.4218 -1.2208 -0.1652
 7889SOL    HW331289   1.430   0.076   3.147 -2.7125  0.6694  1.8169
 7889SOL    MW431290   1.441   0.162   3.155  0.4411  0.8239 -0.6546
 7890SOL     OW31291   3.551   1.358   2.160  0.2975 -0.5715  0.6743
 7890SOL    HW231292   3.546   1.375   2.066  1.6690 -0.5522  0.5927
 7890SOL    HW331293   3.464   1.324   2.183  0.3207 -1.7244 -0.8219
 7890SOL    MW431294   3.539   1.356   2.151 -0.7095 -0.0689 -0.2549
 7891SOL     OW31295   1.896   6.081   4.385 -0.0460 -0.3511 -0.0046
 7891SOL    HW231296   1.829   6.068   4.452 -0.4049 -0.8469 -0.4548
 7891SOL    HW331297   1.902   6.176   4.375 -1.3236 -0.3160 -0.5971
 7891SOL    MW431298   1.888   6.092   4.393  0.5694  0.5428 -0.3481
 7892SOL     OW31299   4.862   5.282   2.990  0.4345 -0.5423  0.5786
 7892SOL    HW231300   4.938   5.334   3.017  1.5099 -1.9197  0.3307
 7892SOL    HW331301   4.809   5.341   2.937 -0.0132  1.2296  2.8373
 7892SOL    MW431302   4.865   5.297   2.987  0.1639 -0.1900  0.0312
 7893SOL     OW31303   1.677   0.866   1.395 -0.2909 -0.2173  0.0506
 7893SOL    HW231304   1.632   0.835   1.316  0.7186  0.8009 -0.9829
 7893SOL    HW331305   1.715   0.950   1.369 -0.9292  0.7435  2.0156
 7893SOL    MW431306   1.676   0.873   1.381 -0.3667  0.0285  0.2455
 7894SOL     OW31307   5.768   3.253   1.745  0.0909  0.3808 -0.3775
 7894SOL    HW231308   5.706   3.295   1.806 -0.5506 -0.6538 -0.2950
 7894SOL    HW331309   5.839   3.316   1.737 -0.3949  1.0719  0.4925
 7894SOL    MW431310   5.769   3.267   1.752 -0.1778 -0.1692  0.0761
 7895SOL     OW31311   4.557   4.881   0.749  0.1772 -0.9646  0.0579
 7895SOL    HW231312   4.512   4.848   0.671  0.3412 -0.7292 -0.1391
 7895SOL    HW331313   4.524   4.971   0.759  1.1484 -0.5223 -0.5297
 7895SOL    MW431314   4.547   4.889   0.740  0.2987  0.0082  0.1634
 7896SOL     OW31315   1.967   3.300   4.486 -0.3587 -0.3525  0.0733
 7896SOL    HW231316   1.919   3.382   4.496  0.2273  0.4292 -2.5339
 7896SOL    HW331317   1.983   3.294   4.391  2.2725 -1.9476  0.5229
 7896SOL    MW431318   1.962   3.310   4.475 -0.5637 -0.0789  0.0444
 7897SOL     OW31319   0.694   5.159   0.698  0.0656 -0.3409  0.1202
 7897SOL    HW231320   0.735   5.214   0.632  2.0541 -0.9255  0.7973
 7897SOL    HW331321   0.654   5.221   0.759 -1.0872  0.2192 -1.1646
 7897SOL    MW431322   0.694   5.174   0.697  0.5567 -0.3065  0.4056
 7898SOL     OW31323   6.258   6.207   1.590 -0.2257  0.1241 -0.4997
 7898SOL    HW231324   6.311   6.199   1.510 -0.5182  0.2877 -0.7109
 7898SOL    HW331325   6.321   6.225   1.659  0.2513 -1.7534 -0.3767
 7898SOL    MW431326   6.273   6.208   1.588  0.3325  0.6340 -0.0939
 7899SOL     OW31327   0.888   2.316   5.758 -0.6356  0.0610  0.3787
 7899SOL    HW231328   0.843   2.383   5.708 -0.6363 -0.9127 -0.9802
 7899SOL    HW331329   0.838   2.236   5.741  0.7283 -0.7435  0.0400
 7899SOL    MW431330   0.875   2.314   5.749  0.7714  0.5831  0.4371
 7900SOL     OW31331   2.968   1.431   1.536 -0.2207  0.0233  0.3350
 7900SOL    HW231332   2.889   1.474   1.503 -1.5354 -2.0074  0.5959
 7900SOL    HW331333   3.009   1.393   1.458  0.2493  0.6656  0.2625
 7900SOL    MW431334   2.963   1.432   1.521  0.3791 -0.0691 -0.2740
 7901SOL     OW31335   4.882   1.643   4.122  0.2394  0.2077  0.4482
 7901SOL    HW231336   4.967   1.683   4.138  1.4050 -0.9918 -2.1736
 7901SOL    HW331337   4.900   1.549   4.118 -0.9460  0.0069 -1.3742
 7901SOL    MW431338   4.896   1.636   4.124  0.2982  0.3727  0.1587
 7902SOL     OW31339   4.076   3.538   1.308  0.9967  0.4594  0.2261
 7902SOL    HW231340   4.161   3.581   1.322  0.0082  2.5705  0.1772
 7902SOL    HW331341   4.023   3.564   1.384 -0.1288  0.6053 -0.5759
 7902SOL    MW431342   4.080   3.547   1.320  0.2086 -0.1293  0.6417
 7903SOL     OW31343   4.400   4.182   4.607 -0.2433 -0.3515  0.2441
 7903SOL    HW231344   4.336   4.140   4.665 -1.5646  0.9540 -0.2106
 7903SOL    HW331345   4.483   4.176   4.655 -1.3410  1.0435  2.5182
 7903SOL    MW431346   4.403   4.176   4.621  0.3928  0.0302 -0.6828
 7904SOL     OW31347   1.291   6.410   2.815 -0.3683 -0.1006  0.2715
 7904SOL    HW231348   1.229   6.377   2.750  0.6260 -0.8947 -0.3214
 7904SOL    HW331349   1.269   6.503   2.825 -1.2117 -0.2165 -0.4170
 7904SOL    MW431350   1.280   6.418   2.808 -0.6262 -1.3271  0.1556
 7905SOL     OW31351   3.291   5.402   4.364 -0.0011  0.8859 -0.2210
 7905SOL    HW231352   3.203   5.431   4.389 -0.4238  0.0863 -0.7434
 7905SOL    HW331353   3.312   5.454   4.286 -0.2117  0.7475 -0.3720
 7905SOL    MW431354   3.282   5.413   4.357  0.0479  0.2579  0.0337
 7906SOL     OW31355   2.824   4.900   5.595 -0.2118  0.5360  0.0580
 7906SOL    HW231356   2.786   4.957   5.662  0.7950  1.3069 -0.0049
 7906SOL    HW331357   2.846   4.959   5.523  1.0631  0.1196  0.0845
 7906SOL    MW431358   2.822   4.915   5.595  0.6353  0.5063  0.4720
 7907SOL     OW31359   1.598   3.157   4.432 -0.4179  0.1509  0.2058
 7907SOL    HW231360   1.599   3.090   4.363 -0.6663  0.0443  0.3071
 7907SOL    HW331361   1.594   3.240   4.385  1.3819  0.1760  0.0164
 7907SOL    MW431362   1.598   3.159   4.417  0.1921 -0.9637 -0.7700
 7908SOL     OW31363   2.454   0.797   5.441 -0.0148 -0.1424  0.7692
 7908SOL    HW231364   2.476   0.709   5.470  1.1254  0.3017  1.3566
 7908SOL    HW331365   2.430   0.844   5.521 -2.8635 -0.4673  0.2065
 7908SOL    MW431366   2.454   0.792   5.455  0.0360 -0.2549 -0.0194
 7909SOL     OW31367   5.263   4.936   6.409 -0.0668  0.1422  0.1812
 7909SOL    HW231368   5.330   4.971   6.350  0.2369 -0.7330 -0.0047
 7909SOL    HW331369   5.227   5.013   6.453 -0.5757  0.8498 -1.4265
 7909SOL    MW431370   5.267   4.951   6.407 -0.6463  0.5174 -0.3824
 7910SOL     OW31371   3.784   4.696   3.128  0.1190 -0.7942 -0.4286
 7910SOL    HW231372   3.706   4.645   3.105  0.7399 -1.2197 -1.6988
 7910SOL    HW331373   3.802   4.748   3.050  0.5919 -0.0212  0.1790
 7910SOL    MW431374   3.776   4.696   3.115  0.0587  0.1783 -0.0360
 7911SOL     OW31375   2.406   5.949   5.895 -0.3962 -0.0235 -0.6127
 7911SOL    HW231376   2.425   6.016   5.960 -1.1600  0.6931 -1.0988
 7911SOL    HW331377   2.410   5.867   5.944 -0.7343  0.4782  0.2989
 7911SOL    MW431378   2.409   5.947   5.910  0.0387 -0.6574 -0.0544
 7912SOL     OW31379   4.249   1.658   3.198  0.2435  0.2384 -0.2019
 7912SOL    HW231380   4.229   1.642   3.106  0.5885 -1.0708 -0.0819
 7912SOL    HW331381   4.164   1.673   3.240 -0.1557 -1.2686 -0.3906
 7912SOL    MW431382   4.235   1.658   3.192  0.3621  0.0104 -0.2243
 7913SOL     OW31383   2.550   4.373   3.306 -0.4053  0.2457  0.3912
 7913SOL    HW231384   2.468   4.345   3.346 -0.4426  0.0407  0.1782
 7913SOL    HW331385   2.580   4.296   3.257 -0.1082  0.3324  0.4346
 7913SOL    MW431386   2.543   4.359   3.305  0.0698 -0.4511 -0.1906
 7914SOL     OW31387   3.893   2.670   1.618  0.5019 -0.6174 -0.7275
 7914SOL    HW231388   3.823   2.723   1.656  1.9446  1.7404 -1.1835
 7914SOL    HW331389   3.869   2.659   1.526  0.1022 -0.9624 -0.5853
 7914SOL    MW431390   3.881   2.675   1.611  0.3688  0.2646 -0.2811
 7915SOL     OW31391   6.226   3.793   0.741  0.5136  0.5298 -0.3149
 7915SOL    HW231392   6.187   3.835   0.818 -0.4481 -0.9049  0.0065
 7915SOL    HW331393   6.247   3.704   0.769  3.2183  0.9274 -0.7550
 7915SOL    MW431394   6.224   3.787   0.755 -0.0339 -0.1269 -0.1211
 7916SOL     OW31395   1.998   1.017   2.381  0.2064 -0.5810 -0.0572
 7916SOL    HW231396   2.068   0.993   2.321  0.0929  0.0397 -0.4482
 7916SOL    HW331397   1.969   0.934   2.420  3.8888 -0.6335  3.2345
 7916SOL    MW431398   2.004   1.003   2.379 -0.0179  0.1303 -0.1170
 7917SOL     OW31399   0.197   3.717   4.496 -0.8859  0.3074  0.3705
 7917SOL    HW231400   0.138   3.673   4.435 -0.2942  1.9567 -1.4869
 7917SOL    HW331401   0.195   3.809   4.469  1.7889  0.5740  0.8140
 7917SOL    MW431402   0.189   3.723   4.484  0.0479 -0.3610 -0.4733
 7918SOL     OW31403   2.646   6.361   0.691 -0.0696 -0.6530 -0.4125
 7918SOL    HW231404   2.663   6.418   0.766 -1.0378  0.1206 -0.7676
 7918SOL    HW331405   2.679   6.410   0.616 -2.0261  0.0380 -0.8764
 7918SOL    MW431406   2.652   6.375   0.691 -0.3068  0.0494  0.0306
 7919SOL     OW31407   3.360   1.213   2.597  0.0573  0.1360 -1.0079
 7919SOL    HW231408   3.407   1.174   2.524  1.2932  2.4532 -1.5481
 7919SOL    HW331409   3.339   1.301   2.568 -1.0775  0.4993  0.7589
 7919SOL    MW431410   3.363   1.219   2.584  0.5301  0.2535 -0.2834
 7920SOL     OW31411   3.822   2.506   1.339  0.3540  0.6218 -0.1965
 7920SOL    HW231412   3.803   2.455   1.418  1.9370 -0.4121 -0.4325
 7920SOL    HW331413   3.737   2.540   1.310 -0.3888  0.1467  1.3513
 7920SOL    MW431414   3.808   2.504   1.346  0.8195 -0.4868 -0.5192
 7921SOL     OW31415   0.227   6.153   2.339 -0.1702 -0.7583 -0.2780
 7921SOL    HW231416   0.321   6.154   2.321  0.0525  0.4378  0.7923
 7921SOL    HW331417   0.191   6.089   2.277  0.9108  0.9252 -2.8184
 7921SOL    MW431418   0.235   6.145   2.328  0.5731  0.3805  0.1793
 7922SOL     OW31419   4.909   4.017   5.130  0.4542  0.3514  0.5656
 7922SOL    HW231420   4.937   4.084   5.067  2.7972 -1.2382 -0.2236
 7922SOL    HW331421   4.966   4.030   5.205 -2.1714  2.0824  2.4190
 7922SOL    MW431422   4.921   4.028   5.131 -0.0968 -0.6261  0.2492
 7923SOL     OW31423   5.368   6.178   4.794  0.2766  0.3760  0.3377
 7923SOL    HW231424   5.344   6.210   4.881  0.0870 -0.0141  0.4346
 7923SOL    HW331425   5.462   6.194   4.788  0.6732 -1.2859  1.3736
 7923SOL    MW431426   5.377   6.184   4.805 -0.0283  0.2745 -0.7612
 7924SOL     OW31427   0.167   2.548   2.421  0.3558 -0.1485  0.5034
 7924SOL    HW231428   0.086   2.501   2.443 -0.6751  1.4868  0.3610
 7924SOL    HW331429   0.152   2.579   2.331  1.8629 -1.2488 -0.1769
 7924SOL    MW431430   0.154   2.546   2.412 -0.0101  0.2591  0.1223
 7925SOL     OW31431   3.055   1.605   1.151  0.1885 -0.2765 -0.0149
 7925SOL    HW231432   3.027   1.534   1.209  0.1429  0.0461  0.3602
 7925SOL    HW331433   3.056   1.566   1.064  0.7275 -0.8982  0.2624
 7925SOL    MW431434   3.051   1.591   1.147 -0.0387  0.1423  1.0707
 7926SOL     OW31435   2.949   2.301   6.354  0.0602  0.1121 -0.5628
 7926SOL    HW231436   3.004   2.337   6.423  0.0488 -0.2531 -0.3614
 7926SOL    HW331437   2.863   2.289   6.395  0.4484 -1.5798 -0.1719
 7926SOL    MW431438   2.945   2.304   6.368  0.2959  0.3648  0.9426
 7927SOL     OW31439   5.536   3.017   2.797 -0.1824 -0.2479 -0.5202
 7927SOL    HW231440   5.465   3.024   2.732  0.8741  0.4203 -1.6399
 7927SOL    HW331441   5.501   2.957   2.863 -1.8537  0.1737 -0.9564
 7927SOL    MW431442   5.522   3.010   2.797  0.2101 -0.2951  0.4128
 7928SOL     OW31443   6.244   2.098   2.479  0.4195  0.4416  0.3591
 7928SOL    HW231444   6.170   2.134   2.430 -1.7134 -3.3333  0.4316
 7928SOL    HW331445   6.317   2.099   2.417 -0.3720  1.8235 -0.6154
 7928SOL    MW431446   6.243   2.103   2.465  0.0194 -1.0605 -0.2241
 7929SOL     OW31447   2.632   3.542   5.235  0.1611 -0.1896 -0.2952
 7929SOL    HW231448   2.549   3.562   5.278  0.3241  1.7325 -0.8085
 7929SOL    HW331449   2.608   3.515   5.146 -0.0730 -2.8189  0.4560
 7929SOL    MW431450   2.618   3.541   5.229  0.5778  0.5630 -0.8179
 7930SOL     OW31451   3.339   5.743   5.011  0.1662 -0.2418  0.2890
 7930SOL    HW231452   3.267   5.790   4.968 -0.5498 -0.4913  1.1890
 7930SOL    HW331453   3.413   5.803   5.005 -0.7622  1.1027  1.5257
 7930SOL    MW431454   3.339   5.757   5.004  0.0019  0.2738 -0.2443
 7931SOL     OW31455   1.589   0.914   4.803  0.1683  0.5638  0.0322
 7931SOL    HW231456   1.625   0.992   4.846  0.8687 -0.1583  0.7901
 7931SOL    HW331457   1.534   0.949   4.733  0.2993  1.7443  0.4891
 7931SOL    MW431458   1.587   0.929   4.799 -0.4173  0.2493  0.0392
 7932SOL     OW31459   1.908   1.895   6.378 -0.0297 -0.2362  0.1977
 7932SOL    HW231460   1.925   1.846   6.297 -0.8739 -0.5833  0.2281
 7932SOL    HW331461   1.882   1.982   6.349  0.3140 -0.1577  0.1178
 7932SOL    MW431462   1.907   1.900   6.364  0.1370 -0.3457  0.3152
 7933SOL     OW31463   3.810   4.152   4.256 -0.0998  0.5061  0.1136
 7933SOL    HW231464   3.885   4.094   4.268 -0.9036 -0.3569  1.2357
 7933SOL    HW331465   3.825   4.224   4.317  0.9305  1.5455 -1.3261
 7933SOL    MW431466   3.822   4.154   4.266  0.3301 -0.2253 -0.4776
 7934SOL     OW31467   5.792   2.479   5.012  0.5160 -0.2333  0.1452
 7934SOL    HW231468   5.736   2.542   4.966  1.5334  2.9030  2.8123
 7934SOL    HW331469   5.880   2.496   4.978  1.0319  1.0154  1.9580
 7934SOL    MW431470   5.796   2.489   5.001 -0.4540  0.4649  0.1505
 7935SOL     OW31471   4.849   6.224   0.420 -0.0491  0.1092  0.7387
 7935SOL    HW231472   4.769   6.272   0.441 -0.4511 -0.1477 -0.1603
 7935SOL    HW331473   4.820   6.135   0.400  0.2392  0.4002 -1.1783
 7935SOL    MW431474   4.835   6.219   0.420  0.5896  0.3283  0.1642
 7936SOL     OW31475   0.213   0.547   3.316 -0.4211 -0.3514 -0.2360
 7936SOL    HW231476   0.155   0.481   3.354 -1.9552  1.5027  0.8725
 7936SOL    HW331477   0.262   0.583   3.390  0.3559 -0.2020 -0.8046
 7936SOL    MW431478   0.212   0.543   3.331  0.1003 -0.0694 -0.4126
 7937SOL     OW31479   5.673   5.583   3.930  0.2494 -0.6553 -0.2168
 7937SOL    HW231480   5.644   5.603   4.019  0.8370 -1.3754  0.1493
 7937SOL    HW331481   5.738   5.651   3.911  2.6002 -2.3565  1.2074
 7937SOL    MW431482   5.678   5.595   3.940 -0.2300  0.1278  0.0185
 7938SOL     OW31483   2.903   4.541   3.644 -0.6089  0.1181 -0.2524
 7938SOL    HW231484   2.944   4.560   3.560 -0.3233  0.0350 -0.1333
 7938SOL    HW331485   2.946   4.601   3.705  0.7052 -1.2673  0.2367
 7938SOL    MW431486   2.914   4.551   3.641 -0.1062 -0.1351 -0.1126
 7939SOL     OW31487   1.293   3.645   4.638  0.2909 -0.8934  0.1041
 7939SOL    HW231488   1.275   3.629   4.545  1.5787  0.7398 -0.4767
 7939SOL    HW331489   1.322   3.560   4.672  2.3034 -0.9935 -1.6507
 7939SOL    MW431490   1.294   3.632   4.630 -0.0741 -0.3305 -0.3054
 7940SOL     OW31491   5.111   1.752   3.220 -0.1435 -0.5477 -0.1283
 7940SOL    HW231492   5.095   1.843   3.245  0.4351 -0.7141  0.8767
 7940SOL    HW331493   5.130   1.707   3.302  1.6426 -1.1393 -0.8164
 7940SOL    MW431494   5.112   1.758   3.234 -0.6173 -0.2568 -0.4582
 7941SOL     OW31495   4.021   0.662   5.708  0.2944 -0.5904 -0.8071
 7941SOL    HW231496   4.100   0.702   5.673  1.2323 -1.4637  0.2391
 7941SOL    HW331497   4.036   0.658   5.803  0.5443 -3.9435 -0.8832
 7941SOL    MW431498   4.033   0.667   5.716  0.2101  0.2248  0.7966
 7942SOL     OW31499   0.813   3.463   1.088  0.7288 -0.4904 -0.4628
 7942SOL    HW231500   0.837   3.548   1.126  0.2667 -1.5459  2.4393
 7942SOL    HW331501   0.884   3.404   1.112  1.2085 -0.9508 -2.7275
 7942SOL    MW431502   0.825   3.466   1.096  0.1938  0.3037  0.6074
 7943SOL     OW31503   1.587   1.233   0.190 -0.0767  0.1224  0.5900
 7943SOL    HW231504   1.562   1.271   0.105  1.3757 -1.0225 -0.3799
 7943SOL    HW331505   1.560   1.141   0.184  1.0511 -0.2376  0.9316
 7943SOL    MW431506   1.580   1.226   0.178  0.2258  0.2091 -0.0121
 7944SOL     OW31507   3.745   5.603   6.307  0.1069 -0.4011 -0.0318
 7944SOL    HW231508   3.712   5.631   6.222 -0.0435  0.5702  0.3273
 7944SOL    HW331509   3.835   5.575   6.290 -0.9621 -3.5005 -1.1027
 7944SOL    MW431510   3.753   5.603   6.294 -0.0056  0.4582  0.0932
 7945SOL     OW31511   4.438   0.932   2.292  0.4071 -0.3601 -0.1457
 7945SOL    HW231512   4.478   0.887   2.367 -0.6727 -0.7584  0.2108
 7945SOL    HW331513   4.445   0.870   2.220  0.2090 -0.5335 -0.0177
 7945SOL    MW431514   4.444   0.918   2.293  0.4650  0.9561 -0.1486
 7946SOL     OW31515   2.949   1.403   2.331  0.0938  0.2669 -0.1703
 7946SOL    HW231516   2.870   1.452   2.354 -0.1153  1.0421 -2.3068
 7946SOL    HW331517   2.964   1.344   2.405 -0.9017  2.0297  1.4961
 7946SOL    MW431518   2.941   1.402   2.344  0.7893  0.4572 -0.3428
 7947SOL     OW31519   4.570   3.644   3.922 -0.3212  0.4491 -0.0399
 7947SOL    HW231520   4.517   3.628   4.000  0.3996 -1.2429  0.1530
 7947SOL    HW331521   4.549   3.570   3.864  0.5425  0.6911 -0.6754
 7947SOL    MW431522   4.560   3.632   3.925 -0.1125  0.3409 -0.5592
 7948SOL     OW31523   2.164   4.003   1.536 -0.2044 -0.1936  0.2432
 7948SOL    HW231524   2.080   3.959   1.524  0.0075 -0.2828 -1.0933
 7948SOL    HW331525   2.142   4.094   1.554 -0.5859 -0.1318 -0.5219
 7948SOL    MW431526   2.150   4.009   1.537  0.7616 -0.1533  0.0371
 7949SOL     OW31527   0.777   1.060   5.625 -0.5902 -0.3861 -0.1790
 7949SOL    HW231528   0.851   1.079   5.568 -0.1679 -0.8279  0.2047
 7949SOL    HW331529   0.700   1.092   5.578  0.0427  2.3749  0.4785
 7949SOL    MW431530   0.777   1.067   5.611  0.2724 -0.4855  0.5036
 7950SOL     OW31531   2.709   0.983   4.238 -0.1690 -0.4379 -0.3887
 7950SOL    HW231532   2.758   1.037   4.299  0.0920 -0.8281 -0.2493
 7950SOL    HW331533   2.729   1.020   4.152  0.6273 -0.7817 -0.3612
 7950SOL    MW431534   2.718   0.995   4.234 -0.1869  0.2689  0.0788
 7951SOL     OW31535   1.669   3.020   5.175  0.0702 -0.3165  0.0028
 7951SOL    HW231536   1.663   3.094   5.235 -1.5242 -0.1285 -0.3417
 7951SOL    HW331537   1.642   2.945   5.228 -1.6967 -0.0957 -0.5224
 7951SOL    MW431538   1.664   3.020   5.190  0.4008  0.5223  0.1380
 7952SOL     OW31539   2.040   4.445   0.666 -0.0538  0.2637 -0.0051
 7952SOL    HW231540   2.017   4.510   0.599  1.2269 -0.4544 -1.1840
 7952SOL    HW331541   1.961   4.392   0.676 -1.2095  2.1107  1.1579
 7952SOL    MW431542   2.027   4.447   0.658 -0.5453 -0.1675  0.4451
 7953SOL     OW31543   3.157   2.912   0.484 -0.1161 -1.0258  0.0119
 7953SOL    HW231544   3.066   2.892   0.459 -0.1388  0.7529 -1.4485
 7953SOL    HW331545   3.199   2.826   0.487 -1.1734 -1.6928 -2.0612
 7953SOL    MW431546   3.150   2.898   0.481  0.4783  0.1248 -0.7831
 7954SOL     OW31547   1.545   2.540   1.627  0.1949 -0.5052 -0.2733
 7954SOL    HW231548   1.475   2.541   1.693  1.0472 -0.8617  0.6570
 7954SOL    HW331549   1.619   2.497   1.670  1.9169  2.2259 -0.2443
 7954SOL    MW431550   1.546   2.535   1.641 -0.0887  0.4809 -0.1427
 7955SOL     OW31551   6.019   5.725   3.530 -0.0166  0.1856  0.1366
 7955SOL    HW231552   5.980   5.644   3.498  0.2135  0.2286 -0.2644
 7955SOL    HW331553   6.082   5.697   3.597  0.0551  0.0322  0.0064
 7955SOL    MW431554   6.023   5.711   3.534  0.1177 -0.0515  0.3049
 7956SOL     OW31555   4.581   0.544   3.320 -0.4450 -0.3052 -0.5959
 7956SOL    HW231556   4.663   0.571   3.360  0.4365  0.1182 -2.5703
 7956SOL    HW331557   4.514   0.564   3.386  0.4640  3.8506 -0.6750
 7956SOL    MW431558   4.583   0.550   3.334 -0.2395 -0.0114 -0.0849
 7957SOL     OW31559   1.178   4.344   4.549 -0.1206 -0.1492  0.0148
 7957SOL    HW231560   1.163   4.433   4.582  2.2672 -0.0167  0.9995
 7957SOL    HW331561   1.126   4.288   4.606 -0.9248  0.5383 -0.0260
 7957SOL    MW431562   1.169   4.348   4.561  0.3611  0.3106  0.8281
 7958SOL     OW31563   2.840   1.664   5.286 -0.5942  0.0494  0.0837
 7958SOL    HW231564   2.802   1.620   5.209  1.1035  2.6081 -2.3898
 7958SOL    HW331565   2.776   1.732   5.308 -0.3649  0.3249 -0.0934
 7958SOL    MW431566   2.826   1.667   5.279  0.1329  0.2149 -0.3327
 7959SOL     OW31567   0.577   5.295   2.909 -0.1030  0.1317  0.1390
 7959SOL    HW231568   0.612   5.239   2.839 -0.3118 -0.9398  0.8669
 7959SOL    HW331569   0.482   5.293   2.895 -0.0129  3.2162 -1.9713
 7959SOL    MW431570   0.569   5.288   2.898 -0.0410 -0.0038  0.2815
 7960SOL     OW31571   3.962   3.247   1.774 -0.1529 -0.1721 -0.2321
 7960SOL    HW231572   4.039   3.215   1.821 -0.7809 -0.0126  0.9561
 7960SOL    HW331573   3.976   3.221   1.683  1.4325  0.1114 -0.0928
 7960SOL    MW431574   3.974   3.240   1.768 -0.6204 -0.1296 -0.1411
 7961SOL     OW31575   5.295   1.837   0.493 -0.5099 -0.2167  0.0539
 7961SOL    HW231576   5.209   1.859   0.458 -1.0304 -2.4574 -0.2859
 7961SOL    HW331577   5.301   1.741   0.484  0.6736 -0.5600  3.0389
 7961SOL    MW431578   5.285   1.827   0.488  0.1047 -0.2122 -0.1091
 7962SOL     OW31579   0.653   5.802   2.807  0.5080 -0.4152  0.1598
 7962SOL    HW231580   0.734   5.848   2.788 -0.6990  2.2669  1.0634
 7962SOL    HW331581   0.681   5.719   2.845  2.8045  0.1459 -0.1675
 7962SOL    MW431582   0.667   5.797   2.809 -0.4604  0.1666 -0.3736
 7963SOL     OW31583   4.615   1.719   3.540 -0.1886  0.0529  0.4701
 7963SOL    HW231584   4.632   1.655   3.608 -0.0983 -0.2124  0.1998
 7963SOL    HW331585   4.536   1.764   3.569  0.4293  0.6585  1.2689
 7963SOL    MW431586   4.607   1.717   3.553 -0.0300 -0.5864  0.2087
 7964SOL     OW31587   0.309   1.377   1.052 -0.1850 -0.4961 -0.0570
 7964SOL    HW231588   0.309   1.391   1.147  0.3443  0.6554 -0.2133
 7964SOL    HW331589   0.264   1.454   1.017  2.1096  0.5340 -0.9133
 7964SOL    MW431590   0.303   1.389   1.060 -0.6577 -0.1960  0.1571
 7965SOL     OW31591   5.186   3.754   3.843  0.0298  0.1124  0.0907
 7965SOL    HW231592   5.178   3.660   3.860 -1.9151  0.1543 -0.3964
 7965SOL    HW331593   5.234   3.759   3.760 -0.1501 -0.4590 -0.0522
 7965SOL    MW431594   5.191   3.743   3.834 -0.5537 -0.9649 -0.2809
 7966SOL     OW31595   4.600   3.524   5.270  0.2271  0.2153 -0.1042
 7966SOL    HW231596   4.614   3.511   5.363 -1.9066  0.1065  0.2646
 7966SOL    HW331597   4.630   3.443   5.229  1.1570  0.2572  0.4635
 7966SOL    MW431598   4.606   3.512   5.277  0.1193  0.4164 -0.6086
 7967SOL     OW31599   0.742   6.226   2.942  0.0944  0.5024 -0.0859
 7967SOL    HW231600   0.705   6.304   2.983  0.3188  0.7595 -0.3649
 7967SOL    HW331601   0.743   6.247   2.848  0.7848  0.4358 -0.0951
 7967SOL    MW431602   0.737   6.239   2.935 -0.2691 -0.3413 -0.0040
 7968SOL     OW31603   1.150   4.268   5.293 -0.3162  0.0907 -0.0528
 7968SOL    HW231604   1.148   4.173   5.305  1.2386 -0.0798 -0.8728
 7968SOL    HW331605   1.078   4.286   5.233  0.2131 -0.7628 -0.9741
 7968SOL    MW431606   1.140   4.258   5.287 -0.2320 -0.3472  0.1556
 7969SOL     OW31607   2.674   0.281   4.445 -0.1927 -0.7847 -0.0866
 7969SOL    HW231608   2.736   0.210   4.429  0.9316  0.4164 -1.2264
 7969SOL    HW331609   2.647   0.268   4.536 -0.0227 -2.6506 -0.2449
 7969SOL    MW431610   2.678   0.270   4.455 -0.4799  0.4576 -0.0152
 7970SOL     OW31611   5.783   4.266   5.739 -0.0608  0.0334 -0.9358
 7970SOL    HW231612   5.759   4.326   5.810 -1.7581  0.7492 -2.0354
 7970SOL    HW331613   5.801   4.183   5.782  0.9905  0.9539  0.5063
 7970SOL    MW431614   5.782   4.263   5.754  0.6759 -0.4608  0.3628
 7971SOL     OW31615   3.036   5.463   5.911  0.3729  0.1031  0.1950
 7971SOL    HW231616   3.050   5.545   5.959  0.0619  0.2630  0.0200
 7971SOL    HW331617   2.954   5.429   5.946 -0.4466  0.7907 -0.9963
 7971SOL    MW431618   3.027   5.469   5.922  0.2349 -0.7903 -0.1024
 7972SOL     OW31619   2.736   5.152   2.454 -0.0402 -0.6514 -0.4105
 7972SOL    HW231620   2.653   5.200   2.454  0.1927 -0.2489 -0.7059
 7972SOL    HW331621   2.762   5.149   2.362  0.1589 -0.9780 -0.3455
 7972SOL    MW431622   2.728   5.158   2.442  0.5658 -0.0731 -0.5881
 7973SOL     OW31623   3.612   5.450   1.766  0.0979 -0.3767  0.1272
 7973SOL    HW231624   3.672   5.458   1.691  1.9819 -2.3580  1.2806
 7973SOL    HW331625   3.537   5.504   1.743  1.2634  0.2855 -2.5125
 7973SOL    MW431626   3.610   5.458   1.753  0.0837 -0.7486  0.5688
 7974SOL     OW31627   2.508   0.465   1.252 -0.3507  0.0866 -0.3959
 7974SOL    HW231628   2.415   0.471   1.274 -0.2594  1.6587 -0.3166
 7974SOL    HW331629   2.534   0.556   1.233  1.3723 -0.1902  0.4576
 7974SOL    MW431630   2.499   0.478   1.252  0.6196  0.3633  0.3401
 7975SOL     OW31631   3.457   5.738   0.223 -0.0117  0.2133 -0.3613
 7975SOL    HW231632   3.483   5.664   0.278  3.2117  0.3801 -1.4339
 7975SOL    HW331633   3.415   5.799   0.284  0.2280 -1.0893  1.1887
 7975SOL    MW431634   3.455   5.736   0.239 -0.0349  0.1782  0.0628
 7976SOL     OW31635   5.367   4.761   2.769  0.3970  0.1482 -0.2915
 7976SOL    HW231636   5.372   4.844   2.721 -0.2687  0.2452 -0.2107
 7976SOL    HW331637   5.437   4.708   2.733  0.1073  0.3358 -1.1573
 7976SOL    MW431638   5.377   4.765   2.758  0.1975  0.4213  0.6061
 7977SOL     OW31639   2.418   0.787   1.244  0.4417 -0.5020 -0.4649
 7977SOL    HW231640   2.324   0.774   1.256  0.6311 -1.5469 -0.0666
 7977SOL    HW331641   2.426   0.826   1.157 -0.4350  0.6377 -0.0546
 7977SOL    MW431642   2.407   0.791   1.234 -0.4446 -0.4595 -0.1085
 7978SOL     OW31643   4.182   3.659   2.191 -0.1316  0.5587  0.3519
 7978SOL    HW231644   4.235   3.718   2.137 -2.4714  1.6253 -0.9289
 7978SOL    HW331645   4.128   3.717   2.245  0.1564 -0.4844  1.8258
 7978SOL    MW431646   4.182   3.675   2.191 -0.3819 -0.3461  0.0497
 7979SOL     OW31647   3.125   5.531   2.902  0.1434 -0.3982  0.3205
 7979SOL    HW231648   3.038   5.492   2.909  0.1179 -0.4975 -0.4112
 7979SOL    HW331649   3.145   5.526   2.808  1.1220 -0.7761  0.5439
 7979SOL    MW431650   3.116   5.526   2.890  0.1976  0.3784  0.6782
 7980SOL     OW31651   0.282   4.395   0.626 -0.3546  0.2738 -0.0841
 7980SOL    HW231652   0.300   4.303   0.609 -0.4248  0.0363  1.0421
 7980SOL    HW331653   0.264   4.432   0.540  0.6230 -0.5488 -0.6676
 7980SOL    MW431654   0.282   4.388   0.613  0.1871  0.3110  0.5967
 7981SOL     OW31655   4.825   0.307   3.960 -0.3829  0.6971 -0.4653
 7981SOL    HW231656   4.886   0.248   4.004 -0.8019 -0.4505 -1.3935
 7981SOL    HW331657   4.809   0.376   4.025  2.0115  1.1432 -0.2376
 7981SOL    MW431658   4.831   0.309   3.975  0.4359 -0.2263  0.5035
 7982SOL     OW31659   2.008   2.865   3.659 -0.8153 -0.2348 -0.3285
 7982SOL    HW231660   1.945   2.843   3.591 -0.3160 -0.9113 -0.5833
 7982SOL    HW331661   2.003   2.960   3.666  0.9647  0.1729 -3.1417
 7982SOL    MW431662   1.999   2.874   3.651  0.0605  0.1038 -0.6386
 7983SOL     OW31663   4.588   1.243   4.317  0.0223 -0.0961  0.2713
 7983SOL    HW231664   4.605   1.337   4.327 -1.4927  0.0406  2.1245
 7983SOL    HW331665   4.526   1.238   4.244 -1.5026  0.6031  1.4600
 7983SOL    MW431666   4.582   1.255   4.309 -0.1080 -0.5544 -0.3173
 7984SOL     OW31667   5.816   3.074   5.410 -0.4032  0.1971  0.3351
 7984SOL    HW231668   5.884   3.077   5.478  2.0060  0.8535 -1.9475
 7984SOL    HW331669   5.791   2.982   5.405  0.3795 -0.0769  1.1645
 7984SOL    MW431670   5.822   3.063   5.418  0.3566  0.1928  0.2270
 7985SOL     OW31671   5.381   1.559   0.977 -0.3558  0.0777 -0.1746
 7985SOL    HW231672   5.362   1.517   0.893 -0.0518  0.4314 -0.4215
 7985SOL    HW331673   5.345   1.499   1.042 -1.5274  0.3040 -0.5968
 7985SOL    MW431674   5.374   1.546   0.974 -0.4161 -1.1170 -0.4623
 7986SOL     OW31675   5.552   3.084   6.092 -0.6867 -0.0374 -0.6766
 7986SOL    HW231676   5.517   3.047   6.011  1.8743 -2.7814 -0.7147
 7986SOL    HW331677   5.498   3.045   6.161 -0.8960 -0.2397 -0.9504
 7986SOL    MW431678   5.540   3.074   6.091 -0.2197 -0.3008 -0.3964
 7987SOL     OW31679   5.642   4.354   2.517  0.1653  0.3413 -0.1045
 7987SOL    HW231680   5.692   4.314   2.588 -0.2522  0.4391  0.2538
 7987SOL    HW331681   5.678   4.442   2.508  0.6324  0.1204 -0.4365
 7987SOL    MW431682   5.653   4.361   2.525 -0.3671 -0.3618 -0.1711
 7988SOL     OW31683   2.048   1.591   3.999  0.8458  0.4451  0.1750
 7988SOL    HW231684   2.085   1.503   3.992  1.0253  0.6103 -1.3386
 7988SOL    HW331685   1.956   1.580   3.977  0.9970  0.7080 -0.6325
 7988SOL    MW431686   2.041   1.578   3.995 -0.5753  0.2662 -0.2398
 7989SOL     OW31687   4.505   4.321   1.596  0.0226 -0.2697  0.2387
 7989SOL    HW231688   4.432   4.370   1.635  0.2928  0.4122 -0.0914
 7989SOL    HW331689   4.583   4.355   1.640  0.5233  1.7742 -2.0221
 7989SOL    MW431690   4.506   4.332   1.607 -0.3403 -0.3823 -0.0454
 7990SOL     OW31691   1.002   2.549   2.619 -0.0020 -0.1683 -0.1619
 7990SOL    HW231692   1.054   2.587   2.690  0.0199  0.3686 -0.4615
 7990SOL    HW331693   0.925   2.513   2.663  0.0957 -0.0003  0.1542
 7990SOL    MW431694   0.999   2.549   2.634 -0.8567 -0.0971 -0.1003
 7991SOL     OW31695   5.805   1.463   2.587 -0.1053  0.6497  0.4802
 7991SOL    HW231696   5.847   1.404   2.650  2.8732 -0.2107 -2.0649
 7991SOL    HW331697   5.849   1.547   2.599  2.3609 -0.1495 -1.9148
 7991SOL    MW431698   5.816   1.466   2.597 -0.6261 -0.2336  0.1425
 7992SOL     OW31699   0.419   3.328   3.438 -0.0375  0.0803 -0.3323
 7992SOL    HW231700   0.392   3.251   3.388  0.5113 -0.6890  0.5247
 7992SOL    HW331701   0.341   3.383   3.440 -0.7737 -0.9339 -0.0785
 7992SOL    MW431702   0.405   3.325   3.432 -0.3767  0.6483  0.6096
 7993SOL     OW31703   4.332   4.091   0.367 -0.1967 -0.6102 -0.0961
 7993SOL    HW231704   4.425   4.068   0.368  0.3647  1.3734 -1.2192
 7993SOL    HW331705   4.288   4.014   0.403  1.7090 -2.3714 -1.2825
 7993SOL    MW431706   4.338   4.077   0.372 -0.0783 -0.1629  0.3158
 7994SOL     OW31707   5.830   4.119   5.100 -0.3752  0.4989 -0.6896
 7994SOL    HW231708   5.771   4.168   5.157  0.8787  2.3827 -0.9317
 7994SOL    HW331709   5.914   4.119   5.145  0.2346  0.6115 -1.7818
 7994SOL    MW431710   5.833   4.125   5.113 -0.0171 -0.3909 -0.0168
 7995SOL     OW31711   3.551   4.606   0.373 -0.0950 -0.3524  0.2439
 7995SOL    HW231712   3.489   4.662   0.420 -0.1796 -0.2393  0.0002
 7995SOL    HW331713   3.635   4.620   0.417 -0.4857 -1.4988  1.4176
 7995SOL    MW431714   3.554   4.615   0.385  0.1051  0.1471 -0.7241
 7996SOL     OW31715   4.015   1.733   0.472 -0.4782  0.3318  0.4035
 7996SOL    HW231716   3.995   1.688   0.555 -2.2743  0.6052  0.1593
 7996SOL    HW331717   3.934   1.727   0.422  1.3051 -2.1611 -2.4938
 7996SOL    MW431718   4.001   1.726   0.477  0.2939 -0.8252 -0.0415
 7997SOL     OW31719   4.510   1.853   2.383  0.0266  0.2121  0.1251
 7997SOL    HW231720   4.566   1.907   2.326  0.4325  0.2354  0.5381
 7997SOL    HW331721   4.559   1.846   2.465  0.1185 -1.0484 -0.0264
 7997SOL    MW431722   4.524   1.860   2.386 -0.1656 -0.0473  0.1506
 7998SOL     OW31723   1.423   5.584   0.420  0.3596 -0.0494  0.0122
 7998SOL    HW231724   1.484   5.647   0.458 -1.2556  0.9254  1.1852
 7998SOL    HW331725   1.436   5.504   0.471  0.9353  0.0143 -0.0299
 7998SOL    MW431726   1.432   5.582   0.432  0.2055 -0.1205 -0.1789
 7999SOL     OW31727   1.615   3.031   0.966 -0.0074  0.3443  0.5743
 7999SOL    HW231728   1.622   3.000   1.056 -1.1178 -0.3397  0.4497
 7999SOL    HW331729   1.520   3.041   0.951  0.2215  2.6047  0.1846
 7999SOL    MW431730   1.603   3.028   0.976  0.3372  0.6468 -0.5208
 8000SOL     OW31731   5.664   3.771   3.857  0.1181  0.3145 -0.1469
 8000SOL    HW231732   5.578   3.789   3.895  0.2876  0.6969  0.0678
 8000SOL    HW331733   5.671   3.832   3.783  0.7352  1.2251  0.6396
 8000SOL    MW431734   5.654   3.781   3.852  0.1610  0.0755  0.0267
 8001SOL     OW31735   0.542   0.786   5.849  0.5315  0.0109  0.6310
 8001SOL    HW231736   0.477   0.856   5.858  0.2776  0.0762 -1.2639
 8001SOL    HW331737   0.507   0.730   5.781  1.2478 -1.4097  1.3992
 8001SOL    MW431738   0.529   0.788   5.841  0.1897  0.3409  0.3093
 8002SOL     OW31739   1.947   1.649   4.253 -0.1645 -0.1008 -0.2611
 8002SOL    HW231740   1.941   1.744   4.266 -3.0399  0.1234 -2.2508
 8002SOL    HW331741   1.993   1.639   4.170  1.2703 -0.5823  0.5496
 8002SOL    MW431742   1.952   1.660   4.244  0.2155 -0.0576  0.2853
 8003SOL     OW31743   6.428   3.101   2.439  0.1145  0.4266  0.2210
 8003SOL    HW231744   6.492   3.122   2.506  0.5915 -0.1418 -0.0529
 8003SOL    HW331745   6.408   3.185   2.397  2.1995  0.3543 -1.0441
 8003SOL    MW431746   6.434   3.115   2.442  0.1314  0.6251  0.1139
 8004SOL     OW31747   2.272   2.153   5.117  0.6305  0.2713  0.3907
 8004SOL    HW231748   2.228   2.238   5.113  1.0750  0.4756 -0.3426
 8004SOL    HW331749   2.334   2.154   5.044  0.4024 -0.8137  0.1581
 8004SOL    MW431750   2.274   2.164   5.107 -0.0581 -0.4644 -0.6119
 8005SOL     OW31751   0.537   2.558   2.294 -1.0265  0.3562  0.1424
 8005SOL    HW231752   0.551   2.575   2.388  0.0773  0.9958 -0.1105
 8005SOL    HW331753   0.531   2.645   2.255  0.0267  0.1331 -0.5691
 8005SOL    MW431754   0.538   2.572   2.302  0.5080  0.5977  0.2401
 8006SOL     OW31755   5.024   4.021   5.444 -0.1690 -0.4858  0.1687
 8006SOL    HW231756   5.073   4.040   5.524 -1.0288  0.6964  0.4457
 8006SOL    HW331757   4.973   4.101   5.428  0.9422 -0.1714 -2.2881
 8006SOL    MW431758   5.024   4.034   5.453  0.6419 -0.1407  0.3798
 8007SOL     OW31759   2.600   2.320   3.631  0.0940  0.3801  0.2690
 8007SOL    HW231760   2.523   2.356   3.586 -1.9895 -0.7579  2.6955
 8007SOL    HW331761   2.665   2.390   3.626 -1.3169  1.6782 -1.2423
 8007SOL    MW431762   2.599   2.334   3.624  0.1755  0.0160 -0.6239
 8008SOL     OW31763   2.908   3.112   3.478  0.3236  0.3846  0.4176
 8008SOL    HW231764   2.894   3.168   3.555  1.2273  1.0590  0.1023
 8008SOL    HW331765   2.926   3.173   3.407 -2.1619 -0.1394 -0.7488
 8008SOL    MW431766   2.908   3.128   3.479 -0.0823 -0.3076  0.4572
 8009SOL     OW31767   5.579   0.235   1.731  0.2455  0.0889 -0.3381
 8009SOL    HW231768   5.663   0.246   1.687  0.4349  0.2278  0.0537
 8009SOL    HW331769   5.525   0.188   1.668  0.1096  1.3623 -1.2185
 8009SOL    MW431770   5.583   0.230   1.717 -0.3574  0.4754  0.0865
 8010SOL     OW31771   3.630   0.672   5.257  0.1463 -0.4371  0.5401
 8010SOL    HW231772   3.550   0.658   5.309  1.0467 -1.0967  1.8139
 8010SOL    HW331773   3.632   0.766   5.240  0.5090  0.0441  2.9363
 8010SOL    MW431774   3.619   0.682   5.262  0.2162 -0.2557  0.0024
 8011SOL     OW31775   2.931   3.260   3.231  0.1260 -0.0151  0.8303
 8011SOL    HW231776   3.000   3.257   3.165  0.2391 -1.1684  0.9739
 8011SOL    HW331777   2.918   3.353   3.250 -0.1022  0.3518 -1.0050
 8011SOL    MW431778   2.938   3.271   3.225 -0.0812  0.1155 -0.7106
 8012SOL     OW31779   1.465   1.407   1.676 -0.2421  0.2522 -0.2925
 8012SOL    HW231780   1.539   1.347   1.674 -0.5644 -0.1720  0.0858
 8012SOL    HW331781   1.502   1.492   1.654  0.6531  0.3484  1.4519
 8012SOL    MW431782   1.480   1.410   1.673  0.5071  0.8735  0.8360
 8013SOL     OW31783   6.396   0.745   2.781 -0.0418 -0.1160 -0.6056
 8013SOL    HW231784   6.466   0.687   2.751  0.1758  0.4703 -1.2494
 8013SOL    HW331785   6.441   0.813   2.831  0.1789  1.6435 -3.0370
 8013SOL    MW431786   6.411   0.747   2.784  0.3237  0.4479  1.2726
 8014SOL     OW31787   0.487   0.531   4.230  0.3947 -0.2637 -0.7163
 8014SOL    HW231788   0.445   0.474   4.294 -1.2104 -0.3634 -1.8025
 8014SOL    HW331789   0.532   0.471   4.170  2.0780 -0.1616  0.3857
 8014SOL    MW431790   0.487   0.515   4.230  0.2446  0.0890 -0.5018
 8015SOL     OW31791   6.010   2.541   2.125  0.8140 -0.1282  0.1357
 8015SOL    HW231792   5.953   2.526   2.050 -0.3229 -0.8525  1.1208
 8015SOL    HW331793   6.024   2.636   2.125 -2.4202  0.4863  1.2255
 8015SOL    MW431794   6.004   2.552   2.115 -0.5638 -0.1167  0.0214
 8016SOL     OW31795   5.067   3.302   1.084  0.3524  0.1102 -0.6246
 8016SOL    HW231796   5.141   3.283   1.142 -1.0707 -0.5408  1.0699
 8016SOL    HW331797   5.071   3.396   1.069  1.1475  0.1787 -0.0169
 8016SOL    MW431798   5.077   3.312   1.089 -0.3862 -0.1745  0.2219
 8017SOL     OW31799   5.269   4.054   1.412 -0.0712  0.2622 -0.1391
 8017SOL    HW231800   5.325   3.977   1.395 -0.2195 -0.1068  0.9627
 8017SOL    HW331801   5.187   4.034   1.367 -0.5457 -0.8034  1.1365
 8017SOL    MW431802   5.266   4.041   1.403  0.2862 -0.3001  0.0739
 8018SOL     OW31803   5.079   5.845   0.467 -0.1201  0.4647  0.1716
 8018SOL    HW231804   5.033   5.867   0.548  1.5149 -0.5147  1.4296
 8018SOL    HW331805   5.155   5.795   0.495  0.4449 -0.0203 -2.0002
 8018SOL    MW431806   5.083   5.841   0.481 -1.1389  0.7310 -0.5791
 8019SOL     OW31807   4.109   0.658   2.301 -0.5354 -0.0364 -0.5747
 8019SOL    HW231808   4.062   0.741   2.311 -0.4948  0.2989 -2.6174
 8019SOL    HW331809   4.182   0.665   2.362 -0.7458  1.2934 -0.4277
 8019SOL    MW431810   4.113   0.670   2.310  0.4718 -0.2298  0.2096
 8020SOL     OW31811   3.737   0.995   6.120  0.3569  0.4784  0.3868
 8020SOL    HW231812   3.769   1.083   6.099  1.6849 -0.2070 -0.6570
 8020SOL    HW331813   3.682   0.971   6.045  3.5597 -1.2324 -1.6216
 8020SOL    MW431814   3.734   1.003   6.107 -0.5409  0.5696  0.2140
 8021SOL     OW31815   5.152   0.015   0.767  0.4490  0.3273  0.3900
 8021SOL    HW231816   5.178   0.024   0.676  0.7768  1.2588  0.5593
 8021SOL    HW331817   5.227   0.047   0.817  1.6547 -3.2661  1.1464
 8021SOL    MW431818   5.165   0.021   0.762 -0.1287 -0.0220 -0.5442
 8022SOL     OW31819   1.151   2.391   0.102 -0.3162 -0.7234 -0.1794
 8022SOL    HW231820   1.196   2.320   0.148  0.5604 -0.2154 -0.2261
 8022SOL    HW331821   1.098   2.434   0.169  1.1206  0.1525  0.4508
 8022SOL    MW431822   1.150   2.387   0.117  0.0622  0.3491 -0.1741
 8023SOL     OW31823   3.856   6.340   6.220  0.0015 -0.3366  0.2945
 8023SOL    HW231824   3.900   6.288   6.152 -1.3200 -0.7250 -0.2928
 8023SOL    HW331825   3.799   6.400   6.172  1.4295  1.6518  0.9712
 8023SOL    MW431826   3.854   6.341   6.205  0.3143 -0.1994  0.1059
 8024SOL     OW31827   2.895   5.261   1.843  0.2007 -0.1353 -0.2862
 8024SOL    HW231828   2.848   5.179   1.828 -0.4766 -0.0098  0.9741
 8024SOL    HW331829   2.844   5.327   1.796  0.3714 -0.3219 -0.7436
 8024SOL    MW431830   2.882   5.259   1.835  0.4239  0.2086  0.6990
 8025SOL     OW31831   3.472   4.739   4.590  0.1462 -0.3160 -0.0267
 8025SOL    HW231832   3.408   4.667   4.587 -0.2600  0.0847 -1.6793
 8025SOL    HW331833   3.522   4.731   4.510  0.6492  0.7572  0.1583
 8025SOL    MW431834   3.470   4.729   4.579  0.4774 -0.0395  0.3460
 8026SOL     OW31835   1.991   6.334   2.039 -0.0603  0.1133  0.3913
 8026SOL    HW231836   1.964   6.368   2.125  2.1112 -0.7574  1.4977
 8026SOL    HW331837   1.960   6.244   2.037 -0.2155  0.1700  0.2015
 8026SOL    MW431838   1.983   6.327   2.050  0.5826 -0.8168 -0.2493
 8027SOL     OW31839   5.122   4.871   3.073  0.3865 -0.2606 -0.0179
 8027SOL    HW231840   5.114   4.817   2.995 -0.2635 -0.5452  0.2474
 8027SOL    HW331841   5.148   4.810   3.142 -1.9490 -0.5528  0.6564
 8027SOL    MW431842   5.125   4.856   3.072  0.4278  0.1842 -0.0692
 8028SOL     OW31843   5.370   3.900   0.347 -0.4378  0.1643  0.5906
 8028SOL    HW231844   5.460   3.918   0.375 -0.3131  1.2425 -0.4427
 8028SOL    HW331845   5.326   3.872   0.428  0.8377 -0.4908  1.0882
 8028SOL    MW431846   5.376   3.899   0.362 -0.2990  0.0049 -0.8369
 8029SOL     OW31847   2.623   2.004   5.777 -0.0212  0.6515 -0.3040
 8029SOL    HW231848   2.640   2.099   5.780  0.1327  0.6319 -0.6177
 8029SOL    HW331849   2.582   1.986   5.862  0.9586  0.8062  0.2144
 8029SOL    MW431850   2.620   2.014   5.789  0.2519 -0.4505 -0.2667
 8030SOL     OW31851   2.938   3.221   1.873 -0.2891  0.2896  0.7002
 8030SOL    HW231852   2.878   3.205   1.946 -0.5546 -0.8012  0.2536
 8030SOL    HW331853   3.020   3.247   1.916 -0.2668 -0.8941  1.4204
 8030SOL    MW431854   2.941   3.222   1.889 -0.0480  0.4491  0.3791
 8031SOL     OW31855   3.224   4.071   4.498  0.0868 -0.9061 -0.2258
 8031SOL    HW231856   3.317   4.087   4.515 -0.1116 -0.4376  0.4581
 8031SOL    HW331857   3.221   3.984   4.460  0.6499 -1.5924  1.2558
 8031SOL    MW431858   3.236   4.062   4.495  0.1072 -0.4120 -0.5010
 8032SOL     OW31859   4.136   4.469   0.232 -0.7732  0.3145 -0.0822
 8032SOL    HW231860   4.166   4.387   0.192  1.4539  1.1380 -0.2467
 8032SOL    HW331861   4.089   4.441   0.311 -0.3274 -1.1405 -0.2978
 8032SOL    MW431862   4.134   4.454   0.237 -0.0926 -0.0188  0.5817
 8033SOL     OW31863   4.635   5.793   4.126 -0.3247  0.4846 -0.5071
 8033SOL    HW231864   4.685   5.825   4.201  0.4666  1.8668 -1.5608
 8033SOL    HW331865   4.698   5.742   4.075 -0.5187  0.5904 -0.8566
 8033SOL    MW431866   4.650   5.791   4.129  0.3504 -0.1075 -0.2126
 8034SOL     OW31867   5.183   5.812   1.990 -0.4177 -0.1967 -0.0205
 8034SOL    HW231868   5.192   5.722   2.021  0.0233  0.1691  0.9587
 8034SOL    HW331869   5.226   5.865   2.057  1.3113  0.5823 -1.6672
 8034SOL    MW431870   5.190   5.807   2.003  0.6121 -0.2595 -0.2071
 8035SOL     OW31871   5.668   0.314   0.677  0.4031 -0.1131  0.8332
 8035SOL    HW231872   5.721   0.274   0.609  1.1436  1.7889  0.2351
 8035SOL    HW331873   5.718   0.300   0.758  0.8563 -0.0338  0.5685
 8035SOL    MW431874   5.681   0.307   0.679 -0.1006  0.5648 -0.4621
 8036SOL     OW31875   2.661   3.179   4.985  0.1623  0.3838  0.1394
 8036SOL    HW231876   2.609   3.117   4.934  1.5122  0.3896 -1.3524
 8036SOL    HW331877   2.725   3.213   4.922  0.8837  1.6160  1.4814
 8036SOL    MW431878   2.663   3.175   4.970 -0.1305  0.2946 -0.0592
 8037SOL     OW31879   5.911   1.975   4.907 -0.9806 -0.1203 -0.1502
 8037SOL    HW231880   5.919   2.067   4.930 -1.5521 -0.1706  0.2802
 8037SOL    HW331881   5.955   1.967   4.822  0.9551  0.1127  0.7860
 8037SOL    MW431882   5.917   1.986   4.899  0.9748  0.4340  0.2742
 8038SOL     OW31883   0.672   2.757   1.571 -0.3637  0.1684  0.0581
 8038SOL    HW231884   0.755   2.805   1.561  0.0948 -0.7074 -0.4968
 8038SOL    HW331885   0.685   2.704   1.650  0.6802 -1.9710 -1.4335
 8038SOL    MW431886   0.685   2.756   1.580 -0.0486  0.0762 -0.2436
 8039SOL     OW31887   1.950   1.712   4.824  0.4661  0.0858 -0.7725
 8039SOL    HW231888   1.917   1.676   4.907 -0.7216  0.6874 -0.9617
 8039SOL    HW331889   2.045   1.719   4.837  0.5541 -1.7267 -0.2136
 8039SOL    MW431890   1.958   1.708   4.837 -0.0872 -0.2444 -0.3039
 8040SOL     OW31891   2.763   1.098   3.992  0.2399 -0.3839 -0.1952
 8040SOL    HW231892   2.783   1.179   3.947 -0.4336  1.3679  2.4441
 8040SOL    HW331893   2.719   1.044   3.926 -1.4606  2.3312 -1.4356
 8040SOL    MW431894   2.760   1.101   3.977  0.3385 -0.1842  0.3556
 8041SOL     OW31895   1.683   0.957   3.589  0.2177  0.0990 -0.1127
 8041SOL    HW231896   1.745   0.900   3.634  0.2473 -0.5235 -0.9046
 8041SOL    HW331897   1.658   0.907   3.511 -0.4201  0.8159 -0.3778
 8041SOL    MW431898   1.688   0.943   3.585 -0.1327 -0.4145  1.1388
 8042SOL     OW31899   0.837   0.433   0.712 -0.0376 -0.0270 -0.0837
 8042SOL    HW231900   0.773   0.496   0.746 -0.2890 -0.6624  0.6512
 8042SOL    HW331901   0.827   0.356   0.769  0.8401 -0.4200 -0.4502
 8042SOL    MW431902   0.827   0.431   0.724 -0.3303  0.4229 -0.2098
 8043SOL     OW31903   5.466   1.629   3.142  0.2353 -0.5707 -0.0593
 8043SOL    HW231904   5.450   1.695   3.210  0.3569  0.0344 -0.6146
 8043SOL    HW331905   5.487   1.549   3.191 -0.2993 -0.3047  0.6253
 8043SOL    MW431906   5.467   1.627   3.158  0.7922 -0.0491  0.2576
 8044SOL     OW31907   4.079   0.669   3.482 -0.0013  0.9024  0.9099
 8044SOL    HW231908   4.064   0.763   3.479 -0.2424  0.8599  0.8118
 8044SOL    HW331909   4.013   0.631   3.424  0.3552  0.7052  0.6227
 8044SOL    MW431910   4.068   0.676   3.474 -0.5056  0.3168  0.1645
 8045SOL     OW31911   5.970   3.746   4.987 -0.2384  0.3857  0.0188
 8045SOL    HW231912   5.949   3.672   5.044  0.2177 -0.6738 -1.1341
 8045SOL    HW331913   5.885   3.783   4.963 -0.4849  0.1010  0.4481
 8045SOL    MW431914   5.956   3.741   4.991 -0.0658 -0.9195  0.1839
 8046SOL     OW31915   0.078   1.885   2.508  0.4244  0.1359  0.3150
 8046SOL    HW231916   0.127   1.819   2.459 -2.3598 -1.1044 -1.0266
 8046SOL    HW331917   0.089   1.966   2.458  0.7088 -0.2391 -0.2398
 8046SOL    MW431918   0.086   1.887   2.495  0.3866 -0.2492 -0.2748
 8047SOL     OW31919   4.093   4.056   2.961 -0.5422 -0.0793  0.1838
 8047SOL    HW231920   4.024   4.121   2.973 -0.7167 -0.0774 -0.7489
 8047SOL    HW331921   4.162   4.084   3.021 -2.1289 -1.2762  2.7538
 8047SOL    MW431922   4.093   4.068   2.970  0.1644 -0.6099  0.1968
 8048SOL     OW31923   1.862   2.160   0.862 -0.0967 -0.0723 -0.2698
 8048SOL    HW231924   1.894   2.206   0.784 -1.9979 -0.3961 -1.3068
 8048SOL    HW331925   1.806   2.223   0.907  0.2955 -0.1727  0.3748
 8048SOL    MW431926   1.859   2.174   0.858 -0.3170  0.2144  0.0789
 8049SOL     OW31927   1.586   1.659   5.608  0.5980 -0.3041 -0.1307
 8049SOL    HW231928   1.673   1.643   5.572  0.7496 -0.5639  0.3515
 8049SOL    HW331929   1.546   1.720   5.546  1.2820  0.1644 -0.1237
 8049SOL    MW431930   1.592   1.665   5.595  0.0454  0.6201 -0.4436
 8050SOL     OW31931   0.745   4.063   2.449  0.2115  0.0977 -0.0085
 8050SOL    HW231932   0.718   4.004   2.379 -1.3337 -0.2559  0.8526
 8050SOL    HW331933   0.741   4.151   2.409  2.9534 -0.2820 -1.4268
 8050SOL    MW431934   0.741   4.067   2.434 -0.6929 -0.2580 -0.1073
 8051SOL     OW31935   3.069   3.821   1.041  0.5844  0.9147  0.2166
 8051SOL    HW231936   3.137   3.874   1.000  3.6691 -3.2123 -0.6001
 8051SOL    HW331937   3.111   3.782   1.117 -1.9165  0.5841  1.5355
 8051SOL    MW431938   3.084   3.823   1.046 -0.1615 -0.5168 -0.5764
 8052SOL     OW31939   4.987   1.634   0.936 -0.0982  0.2954 -0.2166
 8052SOL    HW231940   4.949   1.713   0.974 -0.6977 -0.5452  0.9881
 8052SOL    HW331941   4.963   1.564   0.996 -0.2316 -0.9507 -1.6485
 8052SOL    MW431942   4.979   1.635   0.949  0.0036  0.0579  0.1946
 8053SOL     OW31943   0.017   0.428   1.883  0.5447 -0.0097  0.1997
 8053SOL    HW231944  -0.050   0.439   1.950  1.9024  0.4664  1.5436
 8053SOL    HW331945   0.099   0.420   1.932  1.4449 -0.9945 -1.3605
 8053SOL    MW431946   0.019   0.428   1.898 -0.0589 -0.2952 -0.2441
 8054SOL     OW31947   2.797   3.194   1.381  0.3372  0.1807 -0.0197
 8054SOL    HW231948   2.812   3.280   1.341 -0.5225  0.0396 -0.6741
 8054SOL    HW331949   2.726   3.209   1.443  0.2537 -0.0273 -0.0652
 8054SOL    MW431950   2.790   3.208   1.384  0.8513 -0.4251 -0.3666
 8055SOL     OW31951   1.253   1.206   3.437  0.2613 -0.0160 -0.1224
 8055SOL    HW231952   1.228   1.190   3.346 -0.8827 -0.3025  0.2212
 8055SOL    HW331953   1.229   1.126   3.483 -1.6154  1.0443  0.8690
 8055SOL    MW431954   1.246   1.194   3.431 -0.2956 -0.0840 -0.3932
 8056SOL     OW31955   5.986   2.701   3.089  0.7229 -0.7269  0.0800
 8056SOL    HW231956   5.891   2.714   3.098  0.6310 -1.5184  0.2987
 8056SOL    HW331957   6.024   2.743   3.166  0.7348  1.4731 -1.0555
 8056SOL    MW431958   5.978   2.708   3.100  0.2165  0.2644 -0.0456
 8057SOL     OW31959   3.658   5.748   1.411 -0.4226  0.1337  0.0053
 8057SOL    HW231960   3.718   5.787   1.474  1.6119 -0.5880 -1.3880
 8057SOL    HW331961   3.710   5.737   1.331 -2.1061 -1.4721 -0.9611
 8057SOL    MW431962   3.673   5.752   1.409  0.3310 -0.2538  0.0961
 8058SOL     OW31963   1.848   5.801   4.898 -0.0511 -0.2607 -0.1964
 8058SOL    HW231964   1.897   5.774   4.820  0.2607  0.9046 -0.4266
 8058SOL    HW331965   1.768   5.750   4.895  0.9237 -1.8543 -0.0747
 8058SOL    MW431966   1.844   5.791   4.887 -0.7351  0.2411 -0.6051
 8059SOL     OW31967   3.057   1.990   6.300 -0.3444 -0.3288 -0.0395
 8059SOL    HW231968   3.150   2.000   6.320 -0.2939 -0.6273 -0.1196
 8059SOL    HW331969   3.018   2.075   6.319 -0.0352 -0.1748 -0.1064
 8059SOL    MW431970   3.064   2.002   6.305 -0.2312  0.0226  0.5827
 8060SOL     OW31971   4.663   2.280   1.274  0.4092  0.0507  0.1877
 8060SOL    HW231972   4.623   2.237   1.199  0.1565  1.7411 -0.6961
 8060SOL    HW331973   4.591   2.292   1.336 -0.2999  2.1123 -0.9502
 8060SOL    MW431974   4.648   2.276   1.272 -0.0072 -0.0769  0.1077
 8061SOL     OW31975   4.200   1.528   0.392  0.2012  0.2384  0.0944
 8061SOL    HW231976   4.143   1.599   0.423 -0.5430 -0.9559  1.6282
 8061SOL    HW331977   4.266   1.519   0.460  1.1685  0.4130 -0.8072
 8061SOL    MW431978   4.201   1.536   0.405 -0.0775 -0.2866 -0.2577
 8062SOL     OW31979   1.593   4.352   5.542  0.1846  0.2698 -0.2385
 8062SOL    HW231980   1.499   4.364   5.558  0.2282 -0.7101  0.9034
 8062SOL    HW331981   1.615   4.421   5.479 -0.9530  1.6130  0.7386
 8062SOL    MW431982   1.583   4.363   5.536  0.1004  0.7338  0.1596
 8063SOL     OW31983   4.149   2.565   5.846  0.1110  0.2560  0.2256
 8063SOL    HW231984   4.147   2.486   5.791  0.7449  0.4160 -0.0225
 8063SOL    HW331985   4.085   2.624   5.805 -0.8652 -0.3668  0.7889
 8063SOL    MW431986   4.140   2.562   5.834  0.1310  0.6402  0.4996
 8064SOL     OW31987   1.958   1.935   2.148 -0.3062 -0.0922 -0.0322
 8064SOL    HW231988   2.047   1.908   2.122 -0.4636 -0.8109  0.1338
 8064SOL    HW331989   1.944   1.890   2.232  0.1000  1.9554  1.1989
 8064SOL    MW431990   1.968   1.925   2.156  0.5819  0.0599 -0.7032
 8065SOL     OW31991   3.429   4.271   0.754 -0.0570 -0.1310  0.3540
 8065SOL    HW231992   3.377   4.325   0.813  0.2658  0.2191  0.3228
 8065SOL    HW331993   3.493   4.228   0.811 -0.9089 -1.2346  0.5208
 8065SOL    MW431994   3.431   4.273   0.769 -0.5183  0.5948  0.6623
 8066SOL     OW31995   4.894   6.185   5.722  0.0006 -0.3333  0.4853
 8066SOL    HW231996   4.834   6.227   5.784  0.1668 -1.3958  1.3952
 8066SOL    HW331997   4.844   6.176   5.641  0.2889  2.5694 -0.1177
 8066SOL    MW431998   4.880   6.189   5.720 -0.3984  0.8246 -0.0724
 8067SOL     OW31999   3.523   0.669   0.881 -0.2714  0.0177  0.1707
 8067SOL    HW232000   3.479   0.637   0.959 -0.9866 -3.3540 -1.4230
 8067SOL    HW332001   3.597   0.719   0.914 -0.7445 -0.9558  2.9988
 8067SOL    MW432002   3.527   0.671   0.895  0.3840 -0.1809  0.5048
 8068SOL     OW32003   5.025   5.374   1.931 -0.1273 -0.1141  0.0609
 8068SOL    HW232004   5.095   5.421   1.976  0.0973  0.4334 -0.8387
 8068SOL    HW332005   4.986   5.439   1.873  0.7831 -1.2373 -1.8918
 8068SOL    MW432006   5.029   5.389   1.929  0.4400  0.2034  0.4702
 8069SOL     OW32007   3.524   0.535   5.818 -0.4145 -0.3375 -0.0888
 8069SOL    HW232008   3.520   0.530   5.722 -1.8108  0.3449 -0.0885
 8069SOL    HW332009   3.614   0.563   5.837  0.9704 -3.6078 -1.0056
 8069SOL    MW432010   3.536   0.538   5.808  0.0379  0.2465 -0.2531
 8070SOL     OW32011   6.154   4.250   4.911 -0.3303 -0.3901 -0.0630
 8070SOL    HW232012   6.224   4.187   4.895 -1.6090 -1.8098 -0.3998
 8070SOL    HW332013   6.189   4.334   4.882  0.6901 -1.3135 -1.6458
 8070SOL    MW432014   6.168   4.253   4.905  0.3088  0.2289 -0.1696
 8071SOL     OW32015   0.896   5.609   2.934  0.1871 -0.2067 -0.3010
 8071SOL    HW232016   0.985   5.575   2.932  0.2736 -0.3134  2.1066
 8071SOL    HW332017   0.906   5.704   2.944  0.0233 -0.1590 -0.5686
 8071SOL    MW432018   0.909   5.617   2.935  0.4229  0.5854  0.7615
 8072SOL     OW32019   0.324   3.298   1.507  0.6011  0.0829  0.3262
 8072SOL    HW232020   0.416   3.278   1.523  0.7037  0.9275  0.8577
 8072SOL    HW332021   0.315   3.296   1.412  1.6573  1.9920  0.1431
 8072SOL    MW432022   0.335   3.295   1.497 -0.7457 -0.4701 -0.2057
 8073SOL     OW32023   5.794   4.991   3.483 -0.4312  0.4882  0.3948
 8073SOL    HW232024   5.885   4.999   3.454 -0.3006  1.0146  0.9230
 8073SOL    HW332025   5.791   5.038   3.566 -1.4191  1.3794 -0.1159
 8073SOL    MW432026   5.806   4.999   3.490 -0.2156  0.4770 -0.1343
 8074SOL     OW32027   0.328   2.102   0.704  0.1205 -0.5305  0.5312
 8074SOL    HW232028   0.369   2.136   0.625 -0.4656 -0.0223  0.4345
 8074SOL    HW332029   0.249   2.058   0.673  0.4971 -1.3627  0.7274
 8074SOL    MW432030   0.323   2.101   0.689 -0.4588  0.0096  0.3344
 8075SOL     OW32031   2.140   3.401   1.104  0.1872 -0.5880  0.3978
 8075SOL    HW232032   2.192   3.340   1.050 -0.9660 -2.1496  0.9631
 8075SOL    HW332033   2.058   3.411   1.056  1.0076  2.0936 -0.6368
 8075SOL    MW432034   2.136   3.394   1.090 -0.2017  0.3848 -0.3028
 8076SOL     OW32035   2.632   5.461   2.578 -0.2242 -0.0531 -0.5881
 8076SOL    HW232036   2.610   5.374   2.612  0.4196 -0.9236 -2.2764
 8076SOL    HW332037   2.686   5.501   2.647 -2.7127  0.1235  1.3691
 8076SOL    MW432038   2.636   5.455   2.592  0.0514  0.0978 -0.2130
 8077SOL     OW32039   0.051   3.223   4.425  0.5824  0.2121  0.1372
 8077SOL    HW232040   0.013   3.262   4.505  0.0063 -0.0556 -0.0015
 8077SOL    HW332041   0.143   3.249   4.428  0.6842 -0.1789  1.1361
 8077SOL    MW432042   0.058   3.232   4.436  0.0049 -0.4566  0.4450
 8078SOL     OW32043   1.143   3.514   1.910  0.3901  0.7166  0.3019
 8078SOL    HW232044   1.226   3.467   1.898  0.7296  1.4664 -0.3673
 8078SOL    HW332045   1.102   3.513   1.824 -0.2568  0.4467  0.6067
 8078SOL    MW432046   1.149   3.508   1.897 -0.3426 -0.1808  0.5559
 8079SOL     OW32047   3.099   3.064   0.721 -0.1802  0.0209  0.2590
 8079SOL    HW232048   3.119   3.022   0.638  1.7727 -0.0563  0.7202
 8079SOL    HW332049   3.008   3.093   0.712 -0.0549 -0.0961 -1.8399
 8079SOL    MW432050   3.090   3.063   0.709 -0.3527 -0.1118  0.7507
 8080SOL     OW32051   4.837   3.831   5.558 -0.0604 -0.0743  0.4595
 8080SOL    HW232052   4.903   3.888   5.518 -0.7892  0.6954  0.3234
 8080SOL    HW332053   4.761   3.839   5.500  0.3477 -2.4933 -0.4994
 8080SOL    MW432054   4.836   3.840   5.545 -0.1608  0.2022  0.0561
 8081SOL     OW32055   0.459   3.054   0.960  0.1364  0.6999  0.1761
 8081SOL    HW232056   0.446   3.071   0.867 -1.1186  1.8395  0.5310
 8081SOL    HW332057   0.484   3.138   0.997 -0.0803  0.4217  0.9809
 8081SOL    MW432058   0.460   3.067   0.953  0.0243 -0.0342 -1.8157
 8082SOL     OW32059   4.681   1.516   4.345 -0.2879 -0.1009 -0.6569
 8082SOL    HW232060   4.682   1.561   4.260 -0.5520  1.3188  0.0581
 8082SOL    HW332061   4.772   1.519   4.374 -0.5266  1.3321  0.0428
 8082SOL    MW432062   4.693   1.523   4.337  0.2124  0.5233  0.2498
 8083SOL     OW32063   4.326   2.473   6.050  0.6017 -0.8050  0.2587
 8083SOL    HW232064   4.284   2.399   6.093 -0.4999 -0.9139 -0.9497
 8083SOL    HW332065   4.255   2.519   6.005  1.4870  0.1187 -0.2544
 8083SOL    MW432066   4.311   2.470   6.050 -0.8135  0.2088  0.5764
 8084SOL     OW32067   2.503   1.517   1.460 -0.2448 -0.6740 -0.5612
 8084SOL    HW232068   2.419   1.488   1.425 -0.0917  0.4764 -1.9446
 8084SOL    HW332069   2.484   1.540   1.551 -1.8573  1.1745 -1.2908
 8084SOL    MW432070   2.489   1.516   1.468 -0.8974  0.1365 -0.2099
 8085SOL     OW32071   3.331   0.507   4.095 -0.1298 -0.1302 -0.2487
 8085SOL    HW232072   3.390   0.449   4.047  2.2331  0.7168  1.4474
 8085SOL    HW332073   3.376   0.591   4.096 -1.3707  0.5558  1.1545
 8085SOL    MW432074   3.344   0.510   4.089 -0.5120 -0.3916  0.0890
 8086SOL     OW32075   2.713   4.553   2.150 -0.0183  0.4782  0.1406
 8086SOL    HW232076   2.784   4.502   2.112 -0.1282  0.1155  0.4239
 8086SOL    HW332077   2.733   4.557   2.243 -0.4579  0.2386  0.2460
 8086SOL    MW432078   2.725   4.547   2.157 -0.5079 -0.0647 -0.1320
 8087SOL     OW32079   0.199   3.455   5.598 -0.6047 -0.1412  0.0170
 8087SOL    HW232080   0.263   3.391   5.627 -0.9459 -0.4987  0.0016
 8087SOL    HW332081   0.249   3.534   5.579 -0.2197 -0.3101  0.3340
 8087SOL    MW432082   0.214   3.457   5.599  0.0099  0.1718 -0.7407
 8088SOL     OW32083   3.164   3.287   1.558 -0.4669  0.0853 -0.0486
 8088SOL    HW232084   3.131   3.312   1.472 -1.0838 -1.1657 -0.1967
 8088SOL    HW332085   3.233   3.351   1.576  0.3674 -0.2040 -1.9167
 8088SOL    MW432086   3.169   3.299   1.549  0.0561 -0.5448  0.0770
 8089SOL     OW32087   5.569   2.897   4.748 -0.1914 -0.1987 -0.4897
 8089SOL    HW232088   5.552   2.892   4.842  0.3497  1.9618 -0.2265
 8089SOL    HW332089   5.482   2.909   4.709 -0.2746  0.6513 -0.0777
 8089SOL    MW432090   5.555   2.898   4.755 -0.2283 -0.0228 -0.2374
 8090SOL     OW32091   0.725   1.183   1.563  0.1183 -0.0928  0.1247
 8090SOL    HW232092   0.716   1.166   1.656 -0.4781  0.6992  0.2230
 8090SOL    HW332093   0.664   1.123   1.521  0.6781 -0.7291  0.2117
 8090SOL    MW432094   0.716   1.173   1.570  0.1788 -0.1234 -0.5529
 8091SOL     OW32095   1.806   3.270   3.705  0.4026  0.3954  0.3719
 8091SOL    HW232096   1.843   3.358   3.709 -0.3317  0.7992 -1.0783
 8091SOL    HW332097   1.755   3.269   3.624  0.1936 -1.2915  0.4930
 8091SOL    MW432098   1.804   3.281   3.695  0.0163 -1.1393  0.2653
 8092SOL     OW32099   2.909   5.278   4.574  0.1508 -0.0181 -0.0397
 8092SOL    HW232100   2.823   5.259   4.536  0.5727 -1.7089 -0.2178
 8092SOL    HW332101   2.943   5.350   4.522 -0.5882 -0.2479 -0.8560
 8092SOL    MW432102   2.902   5.285   4.562  0.7957 -0.2679 -0.1629
 8093SOL     OW32103   4.654   3.462   5.545 -0.3389  0.2298  0.0020
 8093SOL    HW232104   4.736   3.414   5.554 -0.6140 -0.0117  1.4997
 8093SOL    HW332105   4.651   3.519   5.622 -1.6503  0.1012  0.0707
 8093SOL    MW432106   4.665   3.463   5.557  0.5304 -0.0668 -0.4095
 8094SOL     OW32107   4.913   5.032   5.363 -0.5082 -0.2358 -0.3002
 8094SOL    HW232108   4.889   5.005   5.451  1.2232 -0.8483  0.0407
 8094SOL    HW332109   5.004   5.002   5.353 -1.5751 -3.2600 -3.4443
 8094SOL    MW432110   4.922   5.024   5.373 -0.3645  0.4397 -0.4075
 8095SOL     OW32111   0.838   3.773   0.179  0.2390 -0.9876 -0.2067
 8095SOL    HW232112   0.848   3.763   0.084 -2.6920 -3.8832 -0.4351
 8095SOL    HW332113   0.747   3.801   0.190 -0.4119 -3.4788  1.6998
 8095SOL    MW432114   0.827   3.775   0.168 -0.7253  0.1496  0.7494
 8096SOL     OW32115   4.472   1.434   0.991 -0.0814 -0.0579  0.4369
 8096SOL    HW232116   4.531   1.450   0.918 -1.5441 -1.0239 -1.0439
 8096SOL    HW332117   4.400   1.497   0.977 -0.7260 -0.7409  0.5982
 8096SOL    MW432118   4.470   1.445   0.980  0.0855 -0.1439 -0.6371
 8097SOL     OW32119   2.033   1.136   6.070 -1.1333  0.5042  0.7666
 8097SOL    HW232120   1.953   1.143   6.019 -0.3476  0.5605 -0.5025
 8097SOL    HW332121   2.010   1.174   6.155 -2.4511  0.4863  0.4437
 8097SOL    MW432122   2.020   1.142   6.075 -0.9859 -0.9887 -0.6041
 8098SOL     OW32123   3.916   6.110   1.074 -0.4358 -0.5551  0.1869
 8098SOL    HW232124   3.899   6.132   1.166  1.0823 -0.1974  0.3992
 8098SOL    HW332125   3.958   6.188   1.038 -1.7255 -0.3867 -1.0564
 8098SOL    MW432126   3.919   6.123   1.081 -1.3054 -0.3964  0.1452
 8099SOL     OW32127   2.644   2.326   4.166  0.0700 -0.4661  0.1354
 8099SOL    HW232128   2.670   2.314   4.075 -0.0741  0.8901 -0.1036
 8099SOL    HW332129   2.719   2.370   4.207 -0.3708  0.0973  0.3487
 8099SOL    MW432130   2.658   2.330   4.160 -0.7410 -0.1647  0.2569
 8100SOL     OW32131   4.713   0.533   4.083 -0.2713 -0.2628 -0.0282
 8100SOL    HW232132   4.666   0.612   4.057 -0.3388 -0.5493 -0.7816
 8100SOL    HW332133   4.693   0.524   4.176  0.1263  0.8710  0.1945
 8100SOL    MW432134   4.704   0.542   4.092 -0.0888 -0.3226 -0.4723
 8101SOL     OW32135   4.810   0.223   5.947  0.1796 -0.7082  0.0400
 8101SOL    HW232136   4.777   0.224   5.858  1.6684 -1.9871 -0.5751
 8101SOL    HW332137   4.830   0.131   5.964 -1.6316 -0.7635  2.3198
 8101SOL    MW432138   4.808   0.211   5.938  0.2970  0.4868 -0.3702
 8102SOL     OW32139   5.714   6.154   4.404 -0.7381 -0.2512  0.1327
 8102SOL    HW232140   5.619   6.169   4.404 -0.9443 -1.4475 -0.0290
 8102SOL    HW332141   5.748   6.212   4.472 -1.8838 -1.4651  1.8163
 8102SOL    MW432142   5.706   6.164   4.413  0.4244  0.1258 -0.7550
 8103SOL     OW32143   5.155   5.293   2.808 -0.1068  1.0849 -0.5137
 8103SOL    HW232144   5.221   5.249   2.863 -0.4252  0.6369 -0.4812
 8103SOL    HW332145   5.152   5.383   2.841  0.6921  1.1857 -0.7060
 8103SOL    MW432146   5.163   5.299   2.820  0.3732  0.8884 -0.3276
 8104SOL     OW32147   2.861   3.200   0.746 -0.1311  0.0313  0.0610
 8104SOL    HW232148   2.881   3.240   0.831  0.4368  1.2082 -0.5930
 8104SOL    HW332149   2.867   3.273   0.684 -0.7217 -0.7743 -0.9648
 8104SOL    MW432150   2.865   3.215   0.749  0.3639  0.5564 -0.0237
 8105SOL     OW32151   6.266   2.791   2.223 -0.3126 -0.4643  0.1107
 8105SOL    HW232152   6.218   2.750   2.295  0.8474  0.2314  1.3153
 8105SOL    HW332153   6.352   2.811   2.259 -0.1675  1.2192 -1.0335
 8105SOL    MW432154   6.271   2.788   2.237  0.5964 -0.0544 -0.8127
 8106SOL     OW32155   4.518   6.177   0.621  0.3332  0.6386  0.3468
 8106SOL    HW232156   4.462   6.203   0.693 -0.0038  0.6789  0.0734
 8106SOL    HW332157   4.527   6.082   0.629 -0.9968  0.4181 -0.4627
 8106SOL    MW432158   4.512   6.168   0.631 -0.1552 -0.0575  0.2190
 8107SOL     OW32159   6.146   5.961   0.286 -0.0989  0.2096 -0.1247
 8107SOL    HW232160   6.114   5.894   0.347 -2.5497  0.3566 -1.1363
 8107SOL    HW332161   6.235   5.932   0.264  0.7260 -0.0997  3.0600
 8107SOL    MW432162   6.153   5.948   0.291 -0.3265  0.2417 -0.1454
 8108SOL     OW32163   6.325   2.303   4.421 -0.5441 -0.6655  0.5810
 8108SOL    HW232164   6.313   2.368   4.351 -0.2872 -0.9165  0.2982
 8108SOL    HW332165   6.396   2.339   4.475 -0.5877 -0.5792  0.5805
 8108SOL    MW432166   6.333   2.316   4.419  0.1257  0.3158 -0.2210
 8109SOL     OW32167   4.256   1.701   6.410 -0.4337  0.0831 -1.0556
 8109SOL    HW232168   4.207   1.670   6.334 -0.7221  0.2240 -0.9307
 8109SOL    HW332169   4.191   1.748   6.463 -0.2866 -0.1975 -0.6184
 8109SOL    MW432170   4.241   1.703   6.407 -0.0316  0.4198  0.2644
 8110SOL     OW32171   2.201   0.992   3.956 -0.2251 -0.0737 -0.1996
 8110SOL    HW232172   2.258   1.051   4.005 -2.7034  2.5358 -0.1345
 8110SOL    HW332173   2.156   0.941   4.023  0.3973 -0.5149 -0.1149
 8110SOL    MW432174   2.203   0.993   3.971  1.0270 -0.0715 -0.1240
 8111SOL     OW32175   6.030   0.501   6.189  0.7274 -0.1674 -0.2098
 8111SOL    HW232176   6.010   0.412   6.215 -1.6608  0.5790  0.7148
 8111SOL    HW332177   6.116   0.518   6.228  0.3512 -1.4152  1.2691
 8111SOL    MW432178   6.039   0.492   6.197 -0.5585  0.1970 -0.7610
 8112SOL     OW32179   6.200   5.902   4.773 -0.5464 -0.3902 -0.3261
 8112SOL    HW232180   6.237   5.844   4.839  0.8295  0.6484 -0.1458
 8112SOL    HW332181   6.172   5.979   4.822  1.5912  0.9107 -1.0277
 8112SOL    MW432182   6.201   5.904   4.788 -0.5349 -0.8668 -0.4910
 8113SOL     OW32183   0.244   3.443   5.318  0.0386 -0.0841 -0.1483
 8113SOL    HW232184   0.238   3.411   5.407 -0.7500  0.4810  0.0204
 8113SOL    HW332185   0.335   3.471   5.307 -0.0126  0.4336  0.6947
 8113SOL    MW432186   0.255   3.443   5.328 -0.0033  0.1403  0.1720
 8114SOL     OW32187   1.264   0.526   0.595  0.5233  0.1896  0.1719
 8114SOL    HW232188   1.249   0.618   0.572  0.5973 -0.0435 -0.8559
 8114SOL    HW332189   1.354   0.523   0.626  2.6956 -0.4051 -5.1859
 8114SOL    MW432190   1.274   0.538   0.596 -0.3887 -0.6315 -0.2413
 8115SOL     OW32191   4.621   4.350   0.662 -0.0924 -0.2909  0.3423
 8115SOL    HW232192   4.707   4.326   0.698  0.0242  0.1729  0.3801
 8115SOL    HW332193   4.563   4.355   0.738 -0.0902 -0.3474  0.3475
 8115SOL    MW432194   4.625   4.348   0.677  0.5924  0.1600 -0.2806
 8116SOL     OW32195   3.708   3.760   1.642  0.7796 -0.0014  0.1675
 8116SOL    HW232196   3.753   3.842   1.661  0.2961  0.4300 -0.4666
 8116SOL    HW332197   3.773   3.708   1.595  1.0910  0.0117  0.5766
 8116SOL    MW432198   3.722   3.764   1.638  0.2679 -0.4271  0.1731
 8117SOL     OW32199   1.817   1.826   2.769 -0.4578 -0.7080 -0.2590
 8117SOL    HW232200   1.851   1.844   2.857 -0.4790 -1.7218 -0.0397
 8117SOL    HW332201   1.833   1.908   2.721  2.1840 -1.0603 -0.1417
 8117SOL    MW432202   1.823   1.839   2.775  0.0647 -0.2061  0.2400
 8118SOL     OW32203   6.428   5.571   5.828  0.1266  0.3371  0.6814
 8118SOL    HW232204   6.373   5.588   5.751  0.7198 -0.9925 -0.0695
 8118SOL    HW332205   6.460   5.657   5.854  1.2441  0.7009 -1.5995
 8118SOL    MW432206   6.425   5.584   5.821  0.6529  0.0009  0.1198
 8119SOL     OW32207   3.181   3.424   6.293  0.1637  0.5515  0.6556
 8119SOL    HW232208   3.182   3.423   6.389 -0.2538 -0.0527  0.6600
 8119SOL    HW332209   3.144   3.339   6.269 -2.8037  1.8820  0.0160
 8119SOL    MW432210   3.176   3.412   6.302 -0.8220  0.7609 -0.0172
 8120SOL     OW32211   5.653   0.513   3.242  0.3413 -0.1444 -0.3518
 8120SOL    HW232212   5.575   0.557   3.275  0.7344 -0.6615  1.3483
 8120SOL    HW332213   5.719   0.582   3.237 -0.4989  0.5830 -3.0358
 8120SOL    MW432214   5.651   0.528   3.246  0.2150 -0.4675 -0.0986
 8121SOL     OW32215   5.761   3.261   6.425 -0.0850  0.4981 -0.2469
 8121SOL    HW232216   5.783   3.233   6.336  0.3978  1.2269 -0.3569
 8121SOL    HW332217   5.787   3.187   6.480  0.8405  0.5599 -0.5798
 8121SOL    MW432218   5.767   3.247   6.420 -0.2037 -0.1729  0.1103
 8122SOL     OW32219   5.816   6.075   5.372 -0.1418 -0.2049 -0.0906
 8122SOL    HW232220   5.842   6.150   5.425 -2.1364  0.5454 -0.0920
 8122SOL    HW332221   5.733   6.101   5.332  0.2058 -1.5898 -1.8487
 8122SOL    MW432222   5.809   6.088   5.373  0.1142 -0.2683  0.4498
 8123SOL     OW32223   1.884   5.497   4.665  0.2966  0.2946  0.4531
 8123SOL    HW232224   1.951   5.566   4.668  0.2736  0.2988  2.2370
 8123SOL    HW332225   1.917   5.430   4.725  0.5470 -1.5175 -1.6095
 8123SOL    MW432226   1.897   5.497   4.673  0.4444 -0.8099 -0.3861
 8124SOL     OW32227   1.852   4.433   3.802  0.1401 -0.2530 -0.6956
 8124SOL    HW232228   1.855   4.350   3.754 -1.1314 -0.0644 -1.1391
 8124SOL    HW332229   1.768   4.432   3.847  0.1212  0.7793 -0.6766
 8124SOL    MW432230   1.841   4.422   3.802  0.1256  0.0766 -0.6274
 8125SOL     OW32231   3.817   1.460   5.660  0.1634 -0.1510  0.1356
 8125SOL    HW232232   3.724   1.479   5.643  0.1714  1.3929  1.5551
 8125SOL    HW332233   3.844   1.528   5.722  2.3981 -0.2466 -0.6494
 8125SOL    MW432234   3.808   1.472   5.666  0.3255 -0.1052 -0.8810
 8126SOL     OW32235   0.496   6.016   1.346 -0.0255  0.0462 -0.3991
 8126SOL    HW232236   0.529   6.090   1.398 -0.0700  0.1246 -0.4827
 8126SOL    HW332237   0.518   5.939   1.399  0.9907  0.0332 -0.8184
 8126SOL    MW432238   0.503   6.016   1.360  0.5543  0.1337  1.2703
 8127SOL     OW32239   0.174   5.501   0.318 -0.1354 -0.1419 -0.6435
 8127SOL    HW232240   0.169   5.574   0.379  0.8695  0.0620 -0.7793
 8127SOL    HW332241   0.207   5.540   0.237 -0.0692 -0.6523 -0.8682
 8127SOL    MW432242   0.178   5.515   0.315 -0.0762 -0.3873 -0.1620
 8128SOL     OW32243   5.103   1.113   1.653  0.3250 -0.6667 -0.7514
 8128SOL    HW232244   5.117   1.018   1.656 -0.0829 -0.7007  0.6866
 8128SOL    HW332245   5.016   1.124   1.615 -1.7840 -1.1787  3.3529
 8128SOL    MW432246   5.094   1.102   1.649  0.5765  0.6723 -0.3387
 8129SOL     OW32247   5.791   3.028   2.712 -0.3517  0.0846 -0.3264
 8129SOL    HW232248   5.803   3.120   2.690 -2.0270  0.6131  0.7131
 8129SOL    HW332249   5.697   3.021   2.732 -0.6682 -2.2590 -2.2115
 8129SOL    MW432250   5.780   3.039   2.712 -0.4396  0.1563  0.2337
 8130SOL     OW32251   2.687   4.977   2.669  0.2743 -0.5742  0.2306
 8130SOL    HW232252   2.761   4.917   2.682 -0.1405 -1.9866 -2.9563
 8130SOL    HW332253   2.706   5.020   2.585 -1.8501  0.0097 -0.0107
 8130SOL    MW432254   2.699   4.975   2.659 -0.2585  0.6494  0.1399
 8131SOL     OW32255   2.908   1.981   0.867 -0.3651 -0.4840 -0.1550
 8131SOL    HW232256   2.831   1.925   0.855 -0.8937  0.0238  0.7782
 8131SOL    HW332257   2.875   2.059   0.912  0.7203 -0.3104  0.3793
 8131SOL    MW432258   2.893   1.984   0.871 -0.3766  0.0406 -0.5541
 8132SOL     OW32259   1.773   0.107   1.372  0.1881 -0.5219  0.0076
 8132SOL    HW232260   1.803   0.027   1.415  0.4184  0.4307  1.6888
 8132SOL    HW332261   1.706   0.143   1.431  0.6908  0.9618 -0.2750
 8132SOL    MW432262   1.768   0.101   1.385 -0.5405  0.1096 -0.6509
 8133SOL     OW32263   1.472   0.877   5.830 -0.0893  0.1909 -0.3244
 8133SOL    HW232264   1.397   0.911   5.782 -0.2637 -1.2387 -1.1140
 8133SOL    HW332265   1.540   0.866   5.763  0.1569 -0.4224  0.0238
 8133SOL    MW432266   1.471   0.880   5.815  0.4011 -0.4023 -0.4906
 8134SOL     OW32267   4.631   4.938   4.683  0.4464  0.4724  0.6190
 8134SOL    HW232268   4.547   4.981   4.703 -0.6201 -1.1249 -0.1863
 8134SOL    HW332269   4.648   4.883   4.760 -0.9582 -1.6486 -0.4789
 8134SOL    MW432270   4.622   4.936   4.696 -0.1653 -0.1425 -0.1715
 8135SOL     OW32271   1.760   5.822   1.034  0.5947 -0.0016  0.1232
 8135SOL    HW232272   1.838   5.784   0.993  0.6977 -0.9252  1.1014
 8135SOL    HW332273   1.731   5.889   0.973  1.1159 -0.8617 -1.1310
 8135SOL    MW432274   1.767   5.826   1.020 -0.1027  0.3543  0.0389
 8136SOL     OW32275   4.138   0.801   2.687  0.1030 -0.0371 -0.1992
 8136SOL    HW232276   4.208   0.860   2.661 -0.3493  0.6325  0.0992
 8136SOL    HW332277   4.169   0.714   2.661  0.5224  0.3917 -1.1515
 8136SOL    MW432278   4.151   0.797   2.680 -0.7882 -0.5352 -0.0956
 8137SOL     OW32279   6.053   4.909   5.092  0.2137 -0.3196  0.7808
 8137SOL    HW232280   5.997   4.847   5.139 -0.1559 -1.5201 -1.1340
 8137SOL    HW332281   6.049   4.989   5.144 -0.2328 -1.5318  2.7160
 8137SOL    MW432282   6.045   4.912   5.105  0.1992  0.4687  0.3268
 8138SOL     OW32283   2.584   4.613   6.350  0.4297 -0.0506  0.0139
 8138SOL    HW232284   2.494   4.637   6.327 -0.2348 -0.2266  2.2017
 8138SOL    HW332285   2.639   4.675   6.302 -0.9647  1.4465  0.2647
 8138SOL    MW432286   2.579   4.624   6.341  0.4903 -0.1425  0.2656
 8139SOL     OW32287   4.872   5.731   2.299 -0.1457 -0.3570  0.4679
 8139SOL    HW232288   4.927   5.653   2.307  1.3125  0.5707 -0.1406
 8139SOL    HW332289   4.784   5.699   2.317  0.2711 -2.3516 -0.6574
 8139SOL    MW432290   4.868   5.716   2.302  0.4151 -0.3219 -0.3155
 8140SOL     OW32291   0.541   4.288   0.846 -0.1696 -0.1457 -0.3228
 8140SOL    HW232292   0.632   4.264   0.830 -0.2979 -0.6672 -0.2918
 8140SOL    HW332293   0.491   4.209   0.826 -0.7276  0.4492 -1.3801
 8140SOL    MW432294   0.546   4.275   0.842 -0.6106 -0.2579  0.6919
 8141SOL     OW32295   2.592   2.423   0.866  0.5008 -0.0136  0.6341
 8141SOL    HW232296   2.621   2.343   0.823 -0.7473 -0.0561 -0.1847
 8141SOL    HW332297   2.502   2.436   0.835 -0.3211  0.2089  2.8527
 8141SOL    MW432298   2.584   2.415   0.856 -0.0206 -0.2500 -0.4759
 8142SOL     OW32299   3.743   0.865   4.117 -0.8220  0.4289 -0.1064
 8142SOL    HW232300   3.737   0.960   4.126  0.0857  0.4378  0.4453
 8142SOL    HW332301   3.736   0.831   4.206  3.3730  0.2524  0.3324
 8142SOL    MW432302   3.741   0.873   4.130 -0.5068 -0.2925  0.3184
 8143SOL     OW32303   2.709   6.228   4.062  0.0785  0.2265  0.4592
 8143SOL    HW232304   2.662   6.294   4.113  0.2130  0.1492  0.6831
 8143SOL    HW332305   2.641   6.166   4.034 -0.8119  2.5072 -3.1233
 8143SOL    MW432306   2.694   6.228   4.065 -0.6278 -0.4605 -0.4569
 8144SOL     OW32307   2.102   3.412   3.186 -0.1100  0.3525 -0.0684
 8144SOL    HW232308   2.146   3.489   3.150  0.4253  0.5030  0.8818
 8144SOL    HW332309   2.125   3.341   3.125  0.8130  0.5894 -0.0069
 8144SOL    MW432310   2.111   3.413   3.173 -0.4269  0.4125  0.2026
 8145SOL     OW32311   4.054   4.865   2.260  0.1161 -0.2802 -0.1063
 8145SOL    HW232312   4.038   4.777   2.293  0.3893  0.1180  1.1613
 8145SOL    HW332313   3.970   4.894   2.224  0.2384 -1.3543 -1.2994
 8145SOL    MW432314   4.041   4.857   2.259 -0.2066 -0.3114  0.0944
 8146SOL     OW32315   5.175   5.135   3.908 -0.1054  0.4646  0.6436
 8146SOL    HW232316   5.082   5.157   3.898 -0.3384 -0.7503 -0.1121
 8146SOL    HW332317   5.176   5.040   3.921  1.0291  0.4733  0.7052
 8146SOL    MW432318   5.163   5.125   3.908  0.5420 -0.7681 -0.1227
 8147SOL     OW32319   0.088   2.775   0.278  0.8113 -0.1870 -0.0399
 8147SOL    HW232320   0.114   2.859   0.241  0.8325  0.1545  0.7308
 8147SOL    HW332321   0.038   2.733   0.208  0.0743  0.8188 -0.1442
 8147SOL    MW432322   0.085   2.781   0.264 -0.4617  0.3428 -0.1736
 8148SOL     OW32323   4.898   6.182   5.147  0.2518 -0.0320 -0.1254
 8148SOL    HW232324   4.919   6.108   5.205  0.4485  0.2605  0.1810
 8148SOL    HW332325   4.862   6.141   5.068 -0.8493 -0.4023  0.5506
 8148SOL    MW432326   4.896   6.167   5.144  0.1631  0.4854 -0.1344
 8149SOL     OW32327   2.611   0.521   0.386  0.3130  0.5958  0.2830
 8149SOL    HW232328   2.521   0.537   0.360  0.7668  1.1090 -1.0082
 8149SOL    HW332329   2.661   0.591   0.346  1.3962 -0.1094  0.3593
 8149SOL    MW432330   2.606   0.532   0.378 -0.4916 -0.7465  0.5810
 8150SOL     OW32331   0.171   1.148   1.019 -0.0969 -0.0867 -0.7735
 8150SOL    HW232332   0.219   1.230   1.030  0.1231 -0.4656  1.5122
 8150SOL    HW332333   0.224   1.097   0.958 -0.3673  1.5196 -2.4353
 8150SOL    MW432334   0.184   1.152   1.012 -0.3264  0.3688  0.0835
 8151SOL     OW32335   3.700   4.134   6.402  0.7870 -0.5120  0.0531
 8151SOL    HW232336   3.729   4.210   6.451 -1.3311  0.7575 -0.5587
 8151SOL    HW332337   3.772   4.071   6.411  3.1451  1.9515 -0.3921
 8151SOL    MW432338   3.714   4.135   6.409  0.2190  0.5229  0.2823
 8152SOL     OW32339   0.394   3.713   0.355  0.3623  0.3593  0.2112
 8152SOL    HW232340   0.394   3.765   0.436  0.3163 -1.6667  1.5954
 8152SOL    HW332341   0.303   3.715   0.326  0.3116  0.8403  0.3915
 8152SOL    MW432342   0.382   3.720   0.362  0.6355 -0.0237 -0.5369
 8153SOL     OW32343   6.037   5.284   0.921 -0.4006  0.3646  0.3076
 8153SOL    HW232344   6.028   5.372   0.957  0.9743  0.1269  1.3253
 8153SOL    HW332345   5.959   5.272   0.867 -1.1382  1.8062  0.9938
 8153SOL    MW432346   6.025   5.294   0.919 -0.4547 -0.0213 -0.0243
 8154SOL     OW32347   6.095   4.446   3.542  0.3931 -0.0941  0.7777
 8154SOL    HW232348   6.184   4.462   3.511 -0.3100  1.4092 -0.6100
 8154SOL    HW332349   6.106   4.409   3.629  2.3584  1.0057  1.0458
 8154SOL    MW432350   6.108   4.443   3.549 -0.5475  0.2472  0.0511
 8155SOL     OW32351   2.616   2.798   6.025 -0.3135 -0.0073  0.3665
 8155SOL    HW232352   2.533   2.767   5.988 -0.4129 -0.2734  0.8072
 8155SOL    HW332353   2.623   2.888   5.994  1.2411 -1.1554 -3.1542
 8155SOL    MW432354   2.606   2.806   6.016  0.5043 -0.2522 -0.5903
 8156SOL     OW32355   1.440   2.277   4.981 -0.5690  0.7399 -0.1233
 8156SOL    HW232356   1.438   2.302   5.073 -0.3425  0.4093 -0.0272
 8156SOL    HW332357   1.533   2.279   4.958 -0.6774  1.4368 -0.5142
 8156SOL    MW432358   1.452   2.280   4.990 -0.2971  0.6534 -0.0511
 8157SOL     OW32359   5.024   1.262   1.284 -0.0943  0.1712 -0.4075
 8157SOL    HW232360   4.961   1.321   1.243 -1.0504 -1.9006 -2.1107
 8157SOL    HW332361   4.984   1.240   1.369 -2.7830 -2.5496 -2.1833
 8157SOL    MW432362   5.010   1.267   1.290 -0.4995  0.0597  0.0301
 8158SOL     OW32363   3.811   6.393   3.915  0.0212  0.0245  0.6040
 8158SOL    HW232364   3.776   6.315   3.958  0.9661 -0.3741  0.6590
 8158SOL    HW332365   3.760   6.400   3.834  0.1194 -0.8093  0.4636
 8158SOL    MW432366   3.800   6.384   3.910 -0.0274 -0.6774  0.0836
 8159SOL     OW32367   3.822   2.971   4.534  0.1693  0.1672 -0.3300
 8159SOL    HW232368   3.788   2.922   4.459 -1.1976  0.3216  0.1711
 8159SOL    HW332369   3.873   2.906   4.583  1.7434  0.2498 -1.7633
 8159SOL    MW432370   3.824   2.956   4.530  0.0798  0.5259 -0.2875
 8160SOL     OW32371   0.184   1.125   5.132  0.1154  0.1506 -0.0603
 8160SOL    HW232372   0.220   1.045   5.095  0.3533  0.2119  0.0408
 8160SOL    HW332373   0.093   1.125   5.103 -0.2644 -0.8260  1.0396
 8160SOL    MW432374   0.177   1.115   5.123  0.2178 -0.2128  0.1281
 8161SOL     OW32375   0.162   2.477   0.731 -0.2258  0.4266 -0.0569
 8161SOL    HW232376   0.082   2.446   0.688 -0.2007 -2.3649  1.6727
 8161SOL    HW332377   0.233   2.452   0.671 -0.3689 -1.1476  0.3949
 8161SOL    MW432378   0.161   2.470   0.717 -0.0063 -0.5047 -0.0552
 8162SOL     OW32379   5.629   3.389   1.931 -0.7966 -0.3908 -0.0499
 8162SOL    HW232380   5.638   3.335   2.009 -0.9143 -0.4124 -0.0514
 8162SOL    HW332381   5.537   3.413   1.928 -0.3612  1.7533  1.2610
 8162SOL    MW432382   5.618   3.385   1.941  0.2690 -0.2167 -0.0082
 8163SOL     OW32383   4.388   5.658   4.088  0.4472 -0.1024 -0.0620
 8163SOL    HW232384   4.366   5.669   3.996  2.2257 -0.7781 -0.6183
 8163SOL    HW332385   4.473   5.702   4.098  0.8728 -1.0850  0.9425
 8163SOL    MW432386   4.396   5.665   4.077 -0.3869 -0.4096  0.0823
 8164SOL     OW32387   5.281   0.329   6.319  0.5905  0.0502  0.1751
 8164SOL    HW232388   5.335   0.286   6.385  0.6373 -0.3353 -0.1149
 8164SOL    HW332389   5.197   0.285   6.324 -0.8185  2.6519  2.8205
 8164SOL    MW432390   5.277   0.318   6.328 -0.1153  0.8307  0.1686
 8165SOL     OW32391   3.144   6.345   3.446 -0.3888  0.0196  0.3736
 8165SOL    HW232392   3.217   6.331   3.507  0.7245  3.1566 -0.0435
 8165SOL    HW332393   3.125   6.439   3.453 -3.1431 -0.3459 -0.9617
 8165SOL    MW432394   3.151   6.356   3.455  0.2291 -0.1998  0.2852
 8166SOL     OW32395   0.874   1.717   6.372 -0.2721 -0.4315 -0.5891
 8166SOL    HW232396   0.805   1.651   6.377 -1.2073  0.5825  2.8657
 8166SOL    HW332397   0.955   1.666   6.360 -1.2035 -1.9899 -0.5569
 8166SOL    MW432398   0.876   1.702   6.371  0.0626 -0.3509  0.7887
 8167SOL     OW32399   5.630   0.365   6.025  0.6090 -0.1367  0.1649
 8167SOL    HW232400   5.666   0.448   6.056  1.9210 -0.7696  0.4177
 8167SOL    HW332401   5.613   0.381   5.932 -0.9568  0.9738  0.5912
 8167SOL    MW432402   5.633   0.378   6.016 -0.0598  0.0512 -0.3245
 8168SOL     OW32403   5.366   5.690   1.156 -0.0985 -0.1550  0.1638
 8168SOL    HW232404   5.365   5.621   1.090  0.5376 -0.3876  0.3885
 8168SOL    HW332405   5.371   5.644   1.240  0.0419  0.1559  0.3294
 8168SOL    MW432406   5.366   5.675   1.159  0.3445 -0.6848  0.5132
 8169SOL     OW32407   2.009   0.960   4.422  0.2333 -0.2067 -0.0458
 8169SOL    HW232408   1.918   0.990   4.429 -0.1664 -1.3841  0.0297
 8169SOL    HW332409   2.061   1.035   4.451 -0.6022  1.1920 -1.9402
 8169SOL    MW432410   2.004   0.974   4.427 -0.0907 -0.6447 -0.9461
 8170SOL     OW32411   0.462   6.077   4.908  0.2216  0.1542  0.0722
 8170SOL    HW232412   0.374   6.113   4.912  0.1332 -0.0054 -0.3313
 8170SOL    HW332413   0.481   6.049   4.997 -0.7450 -1.2314 -0.1315
 8170SOL    MW432414   0.453   6.078   4.920  0.0110  0.2470 -0.0316
 8171SOL     OW32415   1.933   4.210   4.807  0.0849 -0.0142  0.2440
 8171SOL    HW232416   1.910   4.156   4.882 -0.4921 -0.1220 -0.0034
 8171SOL    HW332417   1.988   4.154   4.753  2.6681  0.8896  1.7945
 8171SOL    MW432418   1.937   4.195   4.810 -0.3407 -0.4748  0.0379
 8172SOL     OW32419   4.915   5.383   3.330 -0.2075  0.0208  0.1784
 8172SOL    HW232420   4.906   5.290   3.348  1.1452  0.3705  3.3059
 8172SOL    HW332421   5.008   5.396   3.312 -0.3358  0.8247  0.0268
 8172SOL    MW432422   4.926   5.372   3.330  0.9288  0.1948  0.6310
 8173SOL     OW32423   0.058   4.072   2.834 -0.1129  0.2004  0.1391
 8173SOL    HW232424   0.048   4.167   2.823 -1.6369  0.0453 -0.0852
 8173SOL    HW332425  -0.021   4.045   2.881  0.4029 -0.9383  0.3795
 8173SOL    MW432426   0.046   4.081   2.839  0.4399  0.0471  0.5036
 8174SOL     OW32427   0.516   5.551   6.421 -0.3159  0.2774  0.4194
 8174SOL    HW232428   0.478   5.571   6.335 -0.1972 -0.8463  0.0837
 8174SOL    HW332429   0.440   5.528   6.475 -0.1937 -2.2000 -0.3167
 8174SOL    MW432430   0.501   5.551   6.417 -0.2600  0.4383  0.5440
 8175SOL     OW32431   6.389   4.499   0.056  0.5652  0.0859 -0.4195
 8175SOL    HW232432   6.442   4.445   0.115  0.5060  0.8613  0.3722
 8175SOL    HW332433   6.357   4.571   0.111  0.3982  0.7670 -1.3701
 8175SOL    MW432434   6.392   4.502   0.071 -0.5377 -0.3032  0.2382
 8176SOL     OW32435   4.750   1.987   0.353  0.3952  0.0802 -0.8199
 8176SOL    HW232436   4.682   1.962   0.290 -0.7371  0.5239  0.1889
 8176SOL    HW332437   4.803   2.051   0.306 -0.5235  0.5198 -1.2944
 8176SOL    MW432438   4.748   1.992   0.338  0.2485 -0.3303 -0.1074
 8177SOL     OW32439   1.892   4.908   0.450 -0.0908  0.0247  0.1437
 8177SOL    HW232440   1.938   4.975   0.500  0.1164  0.4201 -0.5544
 8177SOL    HW332441   1.925   4.825   0.484 -1.5332  0.1899  2.1621
 8177SOL    MW432442   1.902   4.906   0.461 -0.1518 -0.5230 -0.1107
 8178SOL     OW32443   3.286   2.480   3.072 -0.1324 -0.3170  0.2789
 8178SOL    HW232444   3.330   2.555   3.113  1.2865 -1.2692  0.5944
 8178SOL    HW332445   3.358   2.427   3.038 -1.1027 -1.6114  0.1971
 8178SOL    MW432446   3.301   2.483   3.073 -0.2759  0.3772  0.1483
 8179SOL     OW32447   5.866   6.169   0.224 -0.3695  0.7117 -0.3113
 8179SOL    HW232448   5.947   6.131   0.190 -0.0637 -0.4048  1.5685
 8179SOL    HW332449   5.811   6.094   0.246 -2.0633  1.4494 -1.7434
 8179SOL    MW432450   5.869   6.154   0.222 -0.3434  0.7370  0.0767
 8180SOL     OW32451   3.471   3.780   5.430 -0.0766 -0.0134 -0.1557
 8180SOL    HW232452   3.546   3.723   5.416  0.1348  0.4592 -1.0085
 8180SOL    HW332453   3.509   3.865   5.454 -0.2742  0.5336 -1.6701
 8180SOL    MW432454   3.486   3.784   5.432  0.4628 -0.1638  1.0237
 8181SOL     OW32455   4.448   5.178   4.245  0.1120  0.0077 -0.1771
 8181SOL    HW232456   4.517   5.148   4.305  0.0037  0.0765 -0.0179
 8181SOL    HW332457   4.372   5.191   4.301 -0.4116 -1.2871 -0.5397
 8181SOL    MW432458   4.447   5.176   4.260 -0.2724  0.2272  0.6323
 8182SOL     OW32459   3.360   0.997   6.145 -0.4617 -0.3074  0.2641
 8182SOL    HW232460   3.377   0.908   6.174 -4.6199 -0.8052  1.8635
 8182SOL    HW332461   3.338   1.045   6.225  0.7808  1.9883 -0.6616
 8182SOL    MW432462   3.359   0.992   6.159  0.1179  0.5200  0.3008
 8183SOL     OW32463   5.401   4.766   1.746 -0.0776  0.6721 -0.0556
 8183SOL    HW232464   5.465   4.718   1.798 -0.0084  1.5583  0.7146
 8183SOL    HW332465   5.440   4.771   1.658 -0.6613 -1.7314 -0.5224
 8183SOL    MW432466   5.415   4.761   1.741  0.3500  0.5830  0.9109
 8184SOL     OW32467   0.147   4.114   1.347 -0.3441  0.0721  0.3665
 8184SOL    HW232468   0.069   4.081   1.391  0.3722 -0.6952  1.1126
 8184SOL    HW332469   0.124   4.203   1.320 -2.1634 -0.8229 -1.2836
 8184SOL    MW432470   0.134   4.122   1.349  0.1301 -0.2465  0.1387
 8185SOL     OW32471   2.300   3.522   5.625  0.6253  0.0214  0.4185
 8185SOL    HW232472   2.206   3.536   5.614  0.3214 -2.1259 -0.2558
 8185SOL    HW332473   2.341   3.585   5.566 -0.5028 -0.3770 -0.8586
 8185SOL    MW432474   2.293   3.532   5.616  0.7090 -0.3128  0.2055
 8186SOL     OW32475   5.652   0.015   3.794 -0.1451 -0.0065  0.2227
 8186SOL    HW232476   5.731   0.003   3.847 -0.5020 -2.4276  0.2886
 8186SOL    HW332477   5.655  -0.054   3.729 -1.6927  0.5139 -0.4553
 8186SOL    MW432478   5.663   0.005   3.792  0.2971  0.2710  0.2106
 8187SOL     OW32479   0.242   6.248   3.184  0.3652 -0.0860 -0.3287
 8187SOL    HW232480   0.195   6.239   3.101 -0.8121 -0.0883  0.3130
 8187SOL    HW332481   0.328   6.209   3.168  0.0346 -0.3741 -1.4514
 8187SOL    MW432482   0.247   6.241   3.171  0.2664 -0.5009 -0.0751
 8188SOL     OW32483   5.161   0.714   3.206 -0.3493  0.3683 -1.1997
 8188SOL    HW232484   5.135   0.706   3.298 -0.8190 -0.8756 -1.4120
 8188SOL    HW332485   5.103   0.782   3.170  1.6237  2.8481  0.0019
 8188SOL    MW432486   5.150   0.722   3.214 -0.5110  0.3195 -0.1549
 8189SOL     OW32487   6.398   3.316   4.670  0.1549  0.2099 -0.2665
 8189SOL    HW232488   6.354   3.239   4.708  0.5799 -0.4681 -1.1227
 8189SOL    HW332489   6.332   3.385   4.675  0.0573  0.0448  1.3367
 8189SOL    MW432490   6.383   3.315   4.676  0.7674  0.0560  0.3331
 8190SOL     OW32491   1.086   4.742   6.174  0.1056 -0.0051 -0.9409
 8190SOL    HW232492   1.070   4.764   6.082  0.5294  2.9811 -0.4003
 8190SOL    HW332493   1.013   4.783   6.221 -0.0168 -1.3562  0.1100
 8190SOL    MW432494   1.074   4.750   6.168 -0.3245  1.1128  0.3452
 8191SOL     OW32495   4.161   0.935   5.135 -0.1753  0.1611 -0.2663
 8191SOL    HW232496   4.254   0.918   5.119  0.0655  2.8625 -2.5582
 8191SOL    HW332497   4.116   0.878   5.073 -0.0362 -0.6374  0.3539
 8191SOL    MW432498   4.167   0.925   5.124 -0.0248  0.0398  0.1127
 8192SOL     OW32499   1.117   4.502   2.200  0.3098  0.0304 -0.4414
 8192SOL    HW232500   1.095   4.410   2.191  0.4760 -0.7112  4.3720
 8192SOL    HW332501   1.205   4.510   2.161  0.8440 -2.1920  0.1845
 8192SOL    MW432502   1.126   4.491   2.194  0.3385  0.2395  0.2940
 8193SOL     OW32503   5.093   2.962   6.103 -0.4067 -0.0123  0.1104
 8193SOL    HW232504   5.132   2.914   6.176  0.9416  2.9569  1.5102
 8193SOL    HW332505   5.000   2.966   6.123 -0.4955 -1.6390  0.1309
 8193SOL    MW432506   5.086   2.956   6.115  0.5389 -0.0797  0.1326
 8194SOL     OW32507   6.235   6.047   3.380  0.5191 -0.1375 -0.5959
 8194SOL    HW232508   6.330   6.055   3.387  0.6202 -1.8825  0.8539
 8194SOL    HW332509   6.203   6.069   3.467 -0.5788  1.8385 -1.4399
 8194SOL    MW432510   6.244   6.051   3.392 -0.2984 -0.3887  0.4952
 8195SOL     OW32511   1.569   3.556   4.955 -0.1302  0.3334  0.1604
 8195SOL    HW232512   1.528   3.538   5.040  3.4144 -0.1835  1.9207
 8195SOL    HW332513   1.606   3.644   4.964  0.6624  0.1073 -0.6750
 8195SOL    MW432514   1.568   3.565   4.967  0.0134 -0.0669 -0.3355
 8196SOL     OW32515   0.412   5.799   5.292  0.0988 -0.1613  0.6298
 8196SOL    HW232516   0.366   5.802   5.376  0.0186  1.2784  0.5533
 8196SOL    HW332517   0.388   5.714   5.255  1.5816 -1.6803  2.8597
 8196SOL    MW432518   0.403   5.788   5.298 -0.2240 -0.0322 -0.2441
 8197SOL     OW32519   2.314   4.524   1.421 -0.2094 -0.8639 -0.5007
 8197SOL    HW232520   2.340   4.478   1.501  2.3804  1.7101  0.3016
 8197SOL    HW332521   2.390   4.518   1.363  0.0865  1.8606 -0.5344
 8197SOL    MW432522   2.327   4.517   1.424 -0.2811  0.1852 -0.0438
 8198SOL     OW32523   4.165   6.410   4.146 -0.0918  0.3577 -0.4015
 8198SOL    HW232524   4.184   6.426   4.239 -1.6422 -0.9304  0.1911
 8198SOL    HW332525   4.168   6.496   4.105 -3.2530  1.5802  1.6294
 8198SOL    MW432526   4.168   6.423   4.153  0.6836  0.3194 -0.9684
 8199SOL     OW32527   6.185   4.817   4.027  0.2464  0.5389  0.8000
 8199SOL    HW232528   6.227   4.820   3.941  0.5086 -0.4805  0.8820
 8199SOL    HW332529   6.160   4.908   4.044 -0.1461  0.6970 -0.5102
 8199SOL    MW432530   6.188   4.830   4.018  0.2417 -1.0024 -0.0845
 8200SOL     OW32531   5.475   3.445   1.182  0.1742  0.3256 -0.1987
 8200SOL    HW232532   5.486   3.405   1.268  1.6680  1.4638  0.1819
 8200SOL    HW332533   5.560   3.482   1.161  0.4009 -1.4230 -2.9932
 8200SOL    MW432534   5.487   3.444   1.190 -0.5737  0.3521  0.3038
 8201SOL     OW32535   4.012   4.264   3.484  0.2529  0.3672  0.5889
 8201SOL    HW232536   4.069   4.192   3.512 -1.0740 -0.7172  0.6219
 8201SOL    HW332537   3.952   4.275   3.558 -0.4589  0.5288 -0.0138
 8201SOL    MW432538   4.012   4.256   3.498  0.1563 -0.2672  0.0184
 8202SOL     OW32539   1.414   5.611   1.297 -0.0504  0.6801  0.3816
 8202SOL    HW232540   1.350   5.659   1.349 -2.7345 -1.7599 -0.3974
 8202SOL    HW332541   1.440   5.673   1.228 -2.6894  1.3962 -0.0912
 8202SOL    MW432542   1.409   5.625   1.295  0.1963  0.1864 -0.5886
 8203SOL     OW32543   4.044   1.424   5.996 -0.1237  0.2470 -0.7685
 8203SOL    HW232544   3.973   1.366   6.024 -0.5042  0.8864 -0.3881
 8203SOL    HW332545   4.111   1.365   5.962 -1.0206 -0.3482 -1.5637
 8203SOL    MW432546   4.043   1.409   5.996  0.0647  0.0435  0.0422
 8204SOL     OW32547   2.164   0.123   3.106  0.0478 -0.7684 -0.1205
 8204SOL    HW232548   2.091   0.062   3.112 -1.0385  0.6111  2.0841
 8204SOL    HW332549   2.231   0.087   3.165  0.0708 -0.6807 -0.0919
 8204SOL    MW432550   2.163   0.110   3.115  0.3399 -0.7063 -0.7412
 8205SOL     OW32551   3.335   2.703   3.632  0.0731  0.1626  0.0116
 8205SOL    HW232552   3.349   2.621   3.679  0.2804  0.0089 -0.3142
 8205SOL    HW332553   3.292   2.760   3.696 -0.6653 -0.4150  0.0514
 8205SOL    MW432554   3.331   2.700   3.646 -0.6410 -0.0339  0.1842
 8206SOL     OW32555   5.368   1.841   4.557  0.1957  0.1167 -0.4869
 8206SOL    HW232556   5.343   1.933   4.567  2.5342  0.8906 -0.9828
 8206SOL    HW332557   5.458   1.845   4.523  0.6176 -2.3521  0.1654
 8206SOL    MW432558   5.377   1.854   4.554 -0.1103  0.2608  0.0580
 8207SOL     OW32559   5.730   5.877   4.758 -0.1867  0.5134  0.2852
 8207SOL    HW232560   5.717   5.899   4.850 -1.3064 -1.7344  0.7381
 8207SOL    HW332561   5.796   5.808   4.759 -1.7752 -1.1012 -0.3128
 8207SOL    MW432562   5.737   5.871   4.770  0.7699  0.7143  0.1461
 8208SOL     OW32563   4.513   5.095   3.361 -0.1789  0.2595  0.2939
 8208SOL    HW232564   4.543   5.009   3.390 -1.1877  0.7588  3.1190
 8208SOL    HW332565   4.574   5.119   3.291 -0.4599 -3.0874 -1.2795
 8208SOL    MW432566   4.525   5.087   3.355 -0.2072 -0.5948  0.0918
 8209SOL     OW32567   1.516   6.276   2.724  0.2097 -0.1755  0.6457
 8209SOL    HW232568   1.590   6.332   2.745 -0.7411  2.6819 -2.7316
 8209SOL    HW332569   1.439   6.329   2.744 -0.8180 -1.3020 -0.1844
 8209SOL    MW432570   1.516   6.290   2.729 -0.2565 -0.0429  0.0718
 8210SOL     OW32571   5.242   1.038   3.357 -0.1025  0.0531  0.6855
 8210SOL    HW232572   5.174   0.971   3.352  0.9087 -1.0133  0.6889
 8210SOL    HW332573   5.207   1.112   3.308  0.0580 -1.6877 -2.2795
 8210SOL    MW432574   5.229   1.039   3.350  0.6409  0.4965 -0.6885
 8211SOL     OW32575   4.660   5.920   0.913 -0.3716 -0.9612 -0.1056
 8211SOL    HW232576   4.651   5.918   1.009 -0.6321  0.9583 -0.0378
 8211SOL    HW332577   4.724   5.990   0.897  1.8091 -3.1056 -1.2722
 8211SOL    MW432578   4.667   5.929   0.924  0.4768 -0.4759  0.2283
 8212SOL     OW32579   5.610   2.239   3.739  0.1564 -0.4342  0.4282
 8212SOL    HW232580   5.703   2.220   3.732  0.0057 -0.7854 -0.9364
 8212SOL    HW332581   5.599   2.275   3.827  1.3957 -1.3555  0.9833
 8212SOL    MW432582   5.621   2.242   3.750 -0.0677 -0.2300 -0.1829
 8213SOL     OW32583   2.613   4.055   5.260 -0.4246  0.0491 -0.4118
 8213SOL    HW232584   2.640   3.964   5.273  0.6776  0.5107  0.8173
 8213SOL    HW332585   2.695   4.103   5.250 -0.9114  1.1018  0.4560
 8213SOL    MW432586   2.627   4.049   5.261  0.8666  0.1962  0.1552
 8214SOL     OW32587   2.002   6.164   4.980  0.0258 -0.2208  0.2852
 8214SOL    HW232588   1.916   6.202   5.002 -0.8745 -1.1847 -1.4010
 8214SOL    HW332589   2.056   6.240   4.959 -0.9493  0.3180 -0.3798
 8214SOL    MW432590   1.998   6.179   4.980  0.6558 -0.1427 -0.4600
 8215SOL     OW32591   2.164   2.960   0.858  0.1346 -0.2479  0.6543
 8215SOL    HW232592   2.229   2.894   0.833  0.6339 -0.0910  1.4940
 8215SOL    HW332593   2.213   3.043   0.858 -0.5552  0.1949 -0.6900
 8215SOL    MW432594   2.179   2.962   0.854 -0.4383 -0.1447  0.0168
 8216SOL     OW32595   5.927   3.294   4.601  0.5303 -0.8864  0.3910
 8216SOL    HW232596   5.896   3.205   4.618  2.2517 -1.4103  1.0526
 8216SOL    HW332597   5.948   3.329   4.688 -0.5107  0.3373  0.1760
 8216SOL    MW432598   5.926   3.287   4.615  0.0665  0.7118  0.3635
 8217SOL     OW32599   6.231   3.502   0.832  0.2066 -0.0879 -0.0896
 8217SOL    HW232600   6.303   3.472   0.887 -1.2247 -2.0110  0.8349
 8217SOL    HW332601   6.252   3.469   0.745  0.0218 -1.4117  0.3551
 8217SOL    MW432602   6.243   3.494   0.828  0.0638 -0.1812 -0.3087
 8218SOL     OW32603   4.969   4.636   5.362 -0.2841  0.8931 -0.3141
 8218SOL    HW232604   5.053   4.664   5.326 -0.1761  0.3922 -0.4623
 8218SOL    HW332605   4.929   4.584   5.293 -0.9736  1.5974 -0.4594
 8218SOL    MW432606   4.974   4.633   5.348  0.0857 -0.2051 -0.2106
 8219SOL     OW32607   6.147   0.188   0.051  0.7115  0.2847 -0.2018
 8219SOL    HW232608   6.077   0.216   0.109  0.6944  1.6150 -0.8141
 8219SOL    HW332609   6.170   0.100   0.080 -0.0507  0.4968  1.0833
 8219SOL    MW432610   6.141   0.180   0.062 -0.1653 -0.3542  0.3337
 8220SOL     OW32611   0.007   1.737   2.207 -0.3569 -0.2023  0.6641
 8220SOL    HW232612   0.018   1.823   2.167 -0.1121 -0.4143  0.2741
 8220SOL    HW332613   0.087   1.724   2.258  1.5943 -1.9284 -2.5101
 8220SOL    MW432614   0.019   1.746   2.209  1.1513 -0.3924  0.7578
 8221SOL     OW32615   3.521   4.474   5.055 -0.0503 -0.2847 -0.3099
 8221SOL    HW232616   3.608   4.502   5.084 -0.9134 -0.7617  3.0628
 8221SOL    HW332617   3.534   4.451   4.963  2.9095  1.5448 -0.4975
 8221SOL    MW432618   3.534   4.475   5.046  0.4072  0.0641 -0.0317
 8222SOL     OW32619   5.275   0.880   1.108  0.4482  0.0155 -0.2765
 8222SOL    HW232620   5.254   0.948   1.172 -0.3394 -0.9874  0.5666
 8222SOL    HW332621   5.337   0.922   1.048  1.5479  0.8588  1.3822
 8222SOL    MW432622   5.280   0.895   1.109  0.4730 -0.4117 -0.5206
 8223SOL     OW32623   4.008   5.238   5.647  0.3059 -0.5196 -0.2625
 8223SOL    HW232624   4.081   5.268   5.593  0.0932  0.1028 -0.2084
 8223SOL    HW332625   4.051   5.204   5.726  0.7317 -2.8995 -1.4262
 8223SOL    MW432626   4.024   5.238   5.651 -0.3901 -0.1426  0.1222
 8224SOL     OW32627   5.799   2.857   3.782  0.4572  0.2980 -0.0030
 8224SOL    HW232628   5.776   2.949   3.797 -1.8088 -0.2967  0.5082
 8224SOL    HW332629   5.777   2.842   3.690 -1.4721 -0.3084  0.5206
 8224SOL    MW432630   5.793   2.867   3.772  0.6674 -0.0099  0.5486
 8225SOL     OW32631   2.828   4.556   1.108  0.2397 -0.4564 -0.3786
 8225SOL    HW232632   2.737   4.553   1.080  0.1703 -0.2590 -0.1825
 8225SOL    HW332633   2.834   4.491   1.178 -0.0333  0.3360  0.3982
 8225SOL    MW432634   2.817   4.547   1.114  0.3473  0.1042  0.7690
 8226SOL     OW32635   2.762   5.039   1.739 -0.1860 -0.6112  0.1957
 8226SOL    HW232636   2.690   5.045   1.802 -0.6334 -0.9328 -0.2791
 8226SOL    HW332637   2.719   5.029   1.654  0.4167 -0.7451 -0.0991
 8226SOL    MW432638   2.747   5.038   1.736 -0.1243  0.0576 -0.1517
 8227SOL     OW32639   3.188   4.204   3.656  0.5574 -0.0559  0.1440
 8227SOL    HW232640   3.222   4.271   3.597  1.3623  0.5554  1.2500
 8227SOL    HW332641   3.095   4.223   3.664  0.0655 -1.1667 -2.1865
 8227SOL    MW432642   3.180   4.215   3.650 -0.4676 -0.4845  0.6186
 8228SOL     OW32643   3.784   4.518   0.782  0.6250  0.5549 -0.1864
 8228SOL    HW232644   3.836   4.464   0.841  1.6036  1.7605  0.1064
 8228SOL    HW332645   3.848   4.572   0.737 -0.3090  1.4987 -0.4279
 8228SOL    MW432646   3.799   4.518   0.784 -0.2672  0.4717  0.2123
 8229SOL     OW32647   4.377   4.982   4.828 -0.2964  0.0152  0.5849
 8229SOL    HW232648   4.392   4.906   4.883 -0.4352 -0.0094  0.5874
 8229SOL    HW332649   4.434   5.050   4.865  1.2003 -0.5964 -0.4949
 8229SOL    MW432650   4.387   4.981   4.840 -0.1806 -0.2543 -0.0407
 8230SOL     OW32651   3.808   5.856   6.118  0.4197 -0.0256  0.5845
 8230SOL    HW232652   3.892   5.827   6.082  0.7697 -0.0527  1.3822
 8230SOL    HW332653   3.774   5.918   6.054 -0.1682 -1.8907 -0.9981
 8230SOL    MW432654   3.815   5.860   6.105 -0.7070  0.0124  0.3227
 8231SOL     OW32655   6.056   3.746   5.387 -0.6175 -0.1186  0.5323
 8231SOL    HW232656   5.988   3.785   5.332  1.1856 -0.3578 -2.0258
 8231SOL    HW332657   6.058   3.654   5.361  2.0933  0.3151 -1.0914
 8231SOL    MW432658   6.047   3.739   5.377  0.2727 -0.3810 -0.8083
 8232SOL     OW32659   2.967   3.097   4.644 -0.6562  0.4500  0.3007
 8232SOL    HW232660   2.938   3.027   4.703 -1.2064  0.2100 -0.2371
 8232SOL    HW332661   2.919   3.080   4.562  2.6539 -1.3820 -1.4819
 8232SOL    MW432662   2.957   3.085   4.641 -0.2450  0.1623 -0.0532
 8233SOL     OW32663   4.037   1.346   5.175 -0.3425  0.1850  0.1638
 8233SOL    HW232664   3.988   1.406   5.119  1.0936  0.2605 -1.0652
 8233SOL    HW332665   4.047   1.267   5.121 -1.7706 -1.0327  1.5702
 8233SOL    MW432666   4.032   1.343   5.160 -0.2092 -0.2419  0.4189
 8234SOL     OW32667   3.575   0.378   2.653 -0.2235 -0.4222  0.1064
 8234SOL    HW232668   3.543   0.315   2.589  0.0916 -0.3176 -0.1552
 8234SOL    HW332669   3.516   0.453   2.643  0.8094  0.2524 -1.2183
 8234SOL    MW432670   3.563   0.380   2.643  0.2159  0.3609 -0.4100
 8235SOL     OW32671   5.588   3.705   5.274  0.1800 -0.1258  0.3143
 8235SOL    HW232672   5.673   3.746   5.289  0.3102  0.3089 -1.4310
 8235SOL    HW332673   5.535   3.732   5.349  1.2196  0.5489  0.8338
 8235SOL    MW432674   5.593   3.714   5.286  0.0437  0.0821 -0.4361
 8236SOL     OW32675   0.143   0.560   3.862 -0.2955  0.5904  0.0507
 8236SOL    HW232676   0.229   0.601   3.858  0.1421 -0.4152 -1.5388
 8236SOL    HW332677   0.086   0.619   3.814 -0.0002  0.1550 -0.8542
 8236SOL    MW432678   0.147   0.573   3.855 -0.4100  0.3818  0.0607
 8237SOL     OW32679   3.481   4.279   4.229 -0.1490  0.6147 -0.5173
 8237SOL    HW232680   3.503   4.187   4.240  2.5843  0.9902 -1.9723
 8237SOL    HW332681   3.497   4.319   4.314  0.7711  0.0928 -0.4419
 8237SOL    MW432682   3.486   4.272   4.241 -0.0745  0.5842  0.3862
 8238SOL     OW32683   5.929   3.932   1.666  0.3747 -0.1712 -0.0084
 8238SOL    HW232684   5.843   3.900   1.692 -0.4456  1.7609 -0.2038
 8238SOL    HW332685   5.987   3.904   1.737 -0.4727 -1.1103  0.3501
 8238SOL    MW432686   5.925   3.924   1.679  0.0716  0.0660  0.1001
 8239SOL     OW32687   5.981   3.970   3.519 -0.2245  0.0407  0.2594
 8239SOL    HW232688   6.022   3.897   3.471  2.6340  1.0905  0.9296
 8239SOL    HW332689   6.033   4.047   3.495 -0.0104  0.9923  3.3539
 8239SOL    MW432690   5.993   3.970   3.509  0.1071 -0.0178  0.1555
 8240SOL     OW32691   5.880   4.554   1.679 -0.6965  0.0310 -0.2374
 8240SOL    HW232692   5.797   4.534   1.636 -0.7705  0.8728 -0.5004
 8240SOL    HW332693   5.861   4.550   1.772 -1.6478  2.5013 -0.2445
 8240SOL    MW432694   5.867   4.551   1.685  0.4710  0.0797 -0.7707
 8241SOL     OW32695   3.998   1.279   3.609 -0.2905 -0.2431  0.3149
 8241SOL    HW232696   3.989   1.346   3.677  0.8540 -0.8758  1.1295
 8241SOL    HW332697   4.041   1.325   3.536  1.5183 -0.2801  1.2793
 8241SOL    MW432698   4.003   1.294   3.609  0.3444 -0.5407  0.4659
 8242SOL     OW32699   5.104   3.195   3.291  0.3304  0.5950 -0.1114
 8242SOL    HW232700   5.073   3.221   3.377  3.5097 -1.1124  1.7249
 8242SOL    HW332701   5.057   3.114   3.271 -0.8704  1.3269 -0.3207
 8242SOL    MW432702   5.094   3.188   3.300 -0.2463  0.2865 -0.0061
 8243SOL     OW32703   0.687   3.841   5.929  0.2497 -0.0814  0.0843
 8243SOL    HW232704   0.636   3.832   5.848  1.0953 -0.2270 -0.4442
 8243SOL    HW332705   0.739   3.761   5.934  0.2734 -0.0345  0.7356
 8243SOL    MW432706   0.687   3.829   5.919  0.0454 -0.3646 -0.6872
 8244SOL     OW32707   1.487   1.165   0.679 -0.3456 -1.0221  0.2552
 8244SOL    HW232708   1.552   1.135   0.616  0.3753 -0.0580  0.5269
 8244SOL    HW332709   1.468   1.255   0.654  0.2901 -0.4661  1.6678
 8244SOL    MW432710   1.493   1.173   0.667 -0.0732 -0.0119  0.8437
 8245SOL     OW32711   4.102   2.042   0.451 -0.3679 -0.5990  0.0635
 8245SOL    HW232712   4.081   2.005   0.365 -0.1614  0.4853 -0.4759
 8245SOL    HW332713   4.078   1.973   0.513 -0.5364 -1.4009 -0.8554
 8245SOL    MW432714   4.096   2.028   0.448  0.5543 -0.3021  0.3513
 8246SOL     OW32715   4.742   5.229   5.878  0.1905  0.0909 -0.2331
 8246SOL    HW232716   4.810   5.166   5.855 -0.1418  0.3215 -1.9327
 8246SOL    HW332717   4.783   5.285   5.944  0.8398 -1.2270  0.5149
 8246SOL    MW432718   4.756   5.228   5.884 -0.0779  0.3720  0.4329
 8247SOL     OW32719   2.681   1.691   0.510 -0.3472 -0.5608  0.2346
 8247SOL    HW232720   2.701   1.604   0.545 -0.8637 -1.2742 -1.1802
 8247SOL    HW332721   2.749   1.707   0.445  0.2059  0.4587  1.0287
 8247SOL    MW432722   2.693   1.681   0.506  0.1166  0.1344  0.2336
 8248SOL     OW32723   4.790   6.230   2.199  0.2833  0.3686 -0.7227
 8248SOL    HW232724   4.796   6.296   2.268  0.5324 -0.1469 -0.2426
 8248SOL    HW332725   4.748   6.275   2.126  2.3440  1.6921 -1.1815
 8248SOL    MW432726   4.785   6.244   2.199 -0.1765  0.7176 -0.8018
 8249SOL     OW32727   5.603   3.647   5.998  0.3068 -0.0949 -0.0289
 8249SOL    HW232728   5.593   3.742   5.998  1.2114  0.0668  2.0309
 8249SOL    HW332729   5.515   3.614   6.018  0.4306  0.4735  1.6368
 8249SOL    MW432730   5.590   3.655   6.001 -0.2883  0.2294 -0.0669
 8250SOL     OW32731   4.716   6.289   1.910 -0.2491  0.2635  0.1475
 8250SOL    HW232732   4.722   6.202   1.870 -0.4476  0.1045  0.4631
 8250SOL    HW332733   4.634   6.326   1.877  0.2081  0.6393 -0.5923
 8250SOL    MW432734   4.706   6.283   1.900 -0.0616  0.7104  0.2668
 8251SOL     OW32735   1.756   4.561   1.248 -0.4863  0.1313  0.4301
 8251SOL    HW232736   1.735   4.645   1.289 -0.6601  0.2651  0.0656
 8251SOL    HW332737   1.852   4.560   1.244 -0.4407 -0.1033  1.2977
 8251SOL    MW432738   1.766   4.572   1.253 -0.5652  0.6813  0.3892
 8252SOL     OW32739   5.593   0.450   5.747 -0.0336  0.1198 -0.2414
 8252SOL    HW232740   5.576   0.544   5.742 -0.1786  0.2620  1.8893
 8252SOL    HW332741   5.574   0.417   5.659  0.0915  2.0794 -1.0488
 8252SOL    MW432742   5.588   0.458   5.735  0.7340 -0.3760  0.0966
 8253SOL     OW32743   3.990   2.216   3.613  0.2321 -0.8203 -0.2124
 8253SOL    HW232744   3.925   2.147   3.629  0.5210 -0.8013  1.1720
 8253SOL    HW332745   4.069   2.185   3.657  0.1944  0.6485  0.9913
 8253SOL    MW432746   3.992   2.203   3.621 -0.0409  0.0461 -0.1856
 8254SOL     OW32747   0.282   1.215   2.096 -0.3592  0.0209 -0.1761
 8254SOL    HW232748   0.215   1.203   2.029 -1.0916  0.5711  0.4220
 8254SOL    HW332749   0.242   1.277   2.158  0.5150 -0.0299  0.4604
 8254SOL    MW432750   0.268   1.222   2.096 -0.1611  0.1595  0.2049
 8255SOL     OW32751   0.892   4.773   4.683 -0.0010 -0.1791 -0.0772
 8255SOL    HW232752   0.877   4.705   4.749 -0.6390 -0.9614 -0.9884
 8255SOL    HW332753   0.807   4.814   4.671  0.0693 -0.1586 -0.5232
 8255SOL    MW432754   0.879   4.769   4.690  0.1602 -0.5147 -0.3303
 8256SOL     OW32755   4.551   4.520   0.125 -0.3911 -0.5090 -0.1192
 8256SOL    HW232756   4.477   4.519   0.064  0.0170  0.4879 -0.6411
 8256SOL    HW332757   4.628   4.528   0.069  0.0431 -0.4145  0.4829
 8256SOL    MW432758   4.552   4.521   0.110 -0.2000 -0.6433  0.4436
 8257SOL     OW32759   4.703   2.757   1.217  0.2363  0.4314 -0.1191
 8257SOL    HW232760   4.695   2.825   1.150 -0.8023 -0.9431 -1.4672
 8257SOL    HW332761   4.616   2.752   1.257  0.1062 -0.5054 -0.4799
 8257SOL    MW432762   4.690   2.765   1.213  0.2461  0.9438 -0.0374
 8258SOL     OW32763   3.588   5.834   0.800 -0.8174 -0.3254 -0.3744
 8258SOL    HW232764   3.682   5.837   0.778 -0.5934 -2.1226  0.1447
 8258SOL    HW332765   3.585   5.851   0.894 -0.9237 -0.9140 -0.2643
 8258SOL    MW432766   3.600   5.837   0.809  0.1135 -0.8842  0.7232
 8259SOL     OW32767   2.014   3.695   0.123 -0.0237  0.4986 -0.0005
 8259SOL    HW232768   2.096   3.718   0.166 -0.5026  0.2551  1.0617
 8259SOL    HW332769   1.978   3.624   0.176 -0.1611 -0.4940 -1.3634
 8259SOL    MW432770   2.020   3.689   0.135 -0.4655  0.2862  0.3650
 8260SOL     OW32771   4.527   1.310   2.514  0.0515 -0.4349  0.4387
 8260SOL    HW232772   4.480   1.385   2.476  1.1317  0.7364  1.3408
 8260SOL    HW332773   4.604   1.299   2.458  0.4495 -0.1831  0.9376
 8260SOL    MW432774   4.531   1.319   2.501  0.4406 -0.0445 -0.1506
 8261SOL     OW32775   1.815   3.034   2.653  0.0202  0.1204 -0.4696
 8261SOL    HW232776   1.824   3.097   2.581  0.8694  0.6703  0.0925
 8261SOL    HW332777   1.878   2.966   2.633  0.7259  0.6019  0.0709
 8261SOL    MW432778   1.824   3.034   2.641 -0.2387  0.5029 -0.6090
 8262SOL     OW32779   0.094   2.648   5.521 -0.2699 -0.0252  0.3477
 8262SOL    HW232780   0.099   2.565   5.569 -1.9051 -1.1438 -1.2844
 8262SOL    HW332781   0.004   2.651   5.488  0.1025  1.8428 -0.5981
 8262SOL    MW432782   0.083   2.637   5.523 -0.3642 -0.2045 -0.2040
 8263SOL     OW32783   5.698   0.299   5.298 -0.2201 -0.3556  0.1665
 8263SOL    HW232784   5.748   0.218   5.296  2.6956  1.2751 -1.8625
 8263SOL    HW332785   5.642   0.295   5.220 -1.3706 -1.0963  1.0131
 8263SOL    MW432786   5.697   0.288   5.287  0.3900 -0.2535 -0.2689
 8264SOL     OW32787   1.243   0.628   1.975 -0.2105 -0.0438  0.3345
 8264SOL    HW232788   1.150   0.651   1.964 -0.1771  0.4098  0.9494
 8264SOL    HW332789   1.288   0.712   1.978  0.1188 -0.2319  0.8712
 8264SOL    MW432790   1.237   0.642   1.974  0.1279 -0.1911 -0.0924
 8265SOL     OW32791   2.710   4.937   2.025 -0.0351  0.2365 -0.0973
 8265SOL    HW232792   2.799   4.958   2.000 -0.6318  1.2676 -1.4672
 8265SOL    HW332793   2.690   4.856   1.977 -0.3169  0.8185 -0.9843
 8265SOL    MW432794   2.719   4.929   2.016  0.0689 -0.2162 -0.2625
 8266SOL     OW32795   3.843   2.991   2.616 -0.2886  0.2087  0.1765
 8266SOL    HW232796   3.931   3.024   2.638  0.2260 -0.9404 -0.0895
 8266SOL    HW332797   3.815   2.943   2.694 -0.2623 -0.2554 -0.0963
 8266SOL    MW432798   3.851   2.989   2.629  0.2589 -0.2262  0.6334
 8267SOL     OW32799   1.129   0.870   4.178  0.2672  0.2608  0.0721
 8267SOL    HW232800   1.190   0.799   4.159 -0.1149  0.0564 -0.4130
 8267SOL    HW332801   1.049   0.847   4.130 -1.0938 -0.7271  2.6211
 8267SOL    MW432802   1.126   0.858   4.169  0.6123  0.7591  0.3240
 8268SOL     OW32803   5.477   2.469   5.066 -0.2130 -0.3892  0.0815
 8268SOL    HW232804   5.556   2.469   5.119  0.3603 -0.1062 -0.7622
 8268SOL    HW332805   5.447   2.378   5.068 -0.4964 -0.2896  1.3008
 8268SOL    MW432806   5.483   2.457   5.074  0.1983 -0.3165  0.8014
 8269SOL     OW32807   0.661   2.366   3.001 -0.1838 -0.0277  0.0220
 8269SOL    HW232808   0.706   2.287   3.030 -0.2957  0.1300  0.6518
 8269SOL    HW332809   0.706   2.437   3.046  0.7687  0.4106 -1.5467
 8269SOL    MW432810   0.673   2.365   3.011 -0.1056  0.5253  0.0692
 8270SOL     OW32811   3.150   4.862   6.047 -0.3361 -0.4529  0.0970
 8270SOL    HW232812   3.074   4.833   5.996 -0.7022 -1.3979  1.1510
 8270SOL    HW332813   3.154   4.802   6.121  1.4300 -0.4060  0.0839
 8270SOL    MW432814   3.141   4.850   6.050  0.3882  0.0533  0.3098
 8271SOL     OW32815   2.229   4.687   3.136 -0.4655  0.2190  0.3815
 8271SOL    HW232816   2.146   4.707   3.094 -1.0889 -2.1430  0.3698
 8271SOL    HW332817   2.216   4.709   3.228 -0.9620  0.2056  0.3149
 8271SOL    MW432818   2.217   4.693   3.142 -0.3236  0.4920  0.4453
 8272SOL     OW32819   5.898   1.288   3.533 -0.7920 -0.4100 -0.1828
 8272SOL    HW232820   5.953   1.216   3.563 -1.0136 -0.5163 -0.0337
 8272SOL    HW332821   5.884   1.342   3.611 -0.7581 -0.2905 -0.2585
 8272SOL    MW432822   5.904   1.286   3.547  0.3494 -0.0219  0.2527
 8273SOL     OW32823   0.049   0.341   5.749  0.0500 -0.1326 -0.1309
 8273SOL    HW232824  -0.028   0.324   5.695 -0.4620  0.1870  0.4838
 8273SOL    HW332825   0.046   0.274   5.817  1.9422 -2.0087 -1.7278
 8273SOL    MW432826   0.038   0.330   5.751 -0.5728  0.4419 -0.3382
 8274SOL     OW32827   2.747   0.624   1.829  0.1105 -0.1268 -0.2230
 8274SOL    HW232828   2.709   0.567   1.895 -1.1908 -0.4049 -1.1796
 8274SOL    HW332829   2.735   0.712   1.863 -3.6211  0.0058 -1.4775
 8274SOL    MW432830   2.740   0.628   1.842  0.1141 -0.2469  0.0876
 8275SOL     OW32831   3.161   1.747   0.393  0.0610 -0.3183  0.3119
 8275SOL    HW232832   3.165   1.829   0.345  1.8120 -0.1562  0.6747
 8275SOL    HW332833   3.230   1.693   0.355  0.2837 -0.8521  1.4332
 8275SOL    MW432834   3.170   1.750   0.382  0.5600  0.3334 -0.6426
 8276SOL     OW32835   1.909   4.878   1.735  0.0401  0.0811 -0.0048
 8276SOL    HW232836   1.860   4.834   1.665 -2.4716  2.2151  0.2470
 8276SOL    HW332837   1.871   4.841   1.816  0.4269  0.1639  0.2134
 8276SOL    MW432838   1.897   4.867   1.736 -0.1365  0.5238 -0.6428
 8277SOL     OW32839   3.561   2.728   2.049 -0.3848  0.1723 -0.3321
 8277SOL    HW232840   3.482   2.691   2.090 -1.3196  1.1337 -1.1922
 8277SOL    HW332841   3.630   2.664   2.068 -1.2819 -0.5191  0.7590
 8277SOL    MW432842   3.559   2.715   2.057  0.6497 -0.8407 -0.0763
 8278SOL     OW32843   5.959   5.832   0.118  0.3180 -0.1899  0.1682
 8278SOL    HW232844   6.022   5.901   0.138 -0.3441 -0.0075  1.7903
 8278SOL    HW332845   5.879   5.878   0.096  0.1323 -0.4354  0.3224
 8278SOL    MW432846   5.957   5.847   0.118 -0.0723 -0.1460  0.1552
 8279SOL     OW32847   5.345   0.478   1.586 -0.0505 -0.0385  0.0840
 8279SOL    HW232848   5.261   0.435   1.604 -0.9408  1.8518  0.7006
 8279SOL    HW332849   5.382   0.494   1.673  0.0083  0.9148 -0.1119
 8279SOL    MW432850   5.339   0.474   1.600  0.5173 -0.0076  0.7194
 8280SOL     OW32851   0.124   1.947   0.604 -0.3510  0.4605 -0.2094
 8280SOL    HW232852   0.155   1.856   0.604  0.9561  0.7435  3.2718
 8280SOL    HW332853   0.035   1.943   0.639 -0.8023  0.4376 -1.3332
 8280SOL    MW432854   0.117   1.935   0.609  0.3306 -0.0800  0.5721
 8281SOL     OW32855   0.242   3.556   1.273  0.5175 -0.8585  0.0226
 8281SOL    HW232856   0.331   3.591   1.268  0.2668 -0.2552 -0.3944
 8281SOL    HW332857   0.195   3.601   1.203 -0.8132  0.8874  1.9094
 8281SOL    MW432858   0.248   3.567   1.263  0.0112 -0.6223  0.1416
 8282SOL     OW32859   3.085   0.506   4.789  0.1117  0.2169 -0.4104
 8282SOL    HW232860   3.008   0.483   4.737 -0.7730  2.3763 -0.1887
 8282SOL    HW332861   3.151   0.529   4.725 -0.9586  2.8154 -0.7329
 8282SOL    MW432862   3.083   0.506   4.774  0.1574 -0.3085  0.5879
 8283SOL     OW32863   4.628   5.045   1.961 -0.5448  0.3552 -0.0177
 8283SOL    HW232864   4.710   5.032   2.008 -1.1354 -0.6207  0.7662
 8283SOL    HW332865   4.603   5.135   1.982  0.0130  0.4545  0.2412
 8283SOL    MW432866   4.636   5.055   1.970 -0.1421 -0.6476  0.3692
 8284SOL     OW32867   4.645   2.352   3.802 -0.0529 -0.4926 -0.4216
 8284SOL    HW232868   4.580   2.326   3.867 -0.4010 -0.8480 -0.8948
 8284SOL    HW332869   4.658   2.445   3.817 -1.5540 -0.1452 -1.0539
 8284SOL    MW432870   4.638   2.361   3.812 -0.3374 -0.1701  0.0587
 8285SOL     OW32871   1.517   5.393   0.603 -0.1444 -0.6758  0.0677
 8285SOL    HW232872   1.570   5.313   0.594 -2.5372 -2.6382  2.1604
 8285SOL    HW332873   1.546   5.432   0.685 -0.5528 -0.6730  0.2135
 8285SOL    MW432874   1.528   5.388   0.613 -0.5395 -0.3454  0.1995
 8286SOL     OW32875   4.823   0.247   1.442  0.0138  0.0078 -0.5364
 8286SOL    HW232876   4.889   0.311   1.469  0.3025 -0.4860 -0.0459
 8286SOL    HW332877   4.756   0.253   1.510 -0.7263  0.8956 -1.3201
 8286SOL    MW432878   4.823   0.256   1.455  0.0506 -0.1787 -0.0183
 8287SOL     OW32879   0.713   4.083   0.258  0.1143 -0.3479 -0.1720
 8287SOL    HW232880   0.628   4.119   0.283 -0.4445 -2.3984  1.1486
 8287SOL    HW332881   0.776   4.150   0.284 -0.9516  0.3680  0.6911
 8287SOL    MW432882   0.710   4.097   0.264 -0.3028 -0.2379  0.1767
 8288SOL     OW32883   5.448   4.429   5.008  0.7531  0.2313  0.0983
 8288SOL    HW232884   5.365   4.448   4.964  0.0800 -2.1788  0.1845
 8288SOL    HW332885   5.513   4.432   4.938  0.2291 -0.0329 -0.4112
 8288SOL    MW432886   5.445   4.432   4.993  0.0683  0.5153  0.2679
 8289SOL     OW32887   1.426   0.489   5.049  0.4470  0.1030 -0.5585
 8289SOL    HW232888   1.430   0.585   5.046  2.1577  0.0905  0.1209
 8289SOL    HW332889   1.477   0.461   4.973 -0.5437 -0.2939 -1.0964
 8289SOL    MW432890   1.433   0.498   5.039  0.3992 -0.5575 -0.1845
 8290SOL     OW32891   2.879   4.642   5.680 -0.4868  0.0124 -0.0083
 8290SOL    HW232892   2.800   4.608   5.723 -0.8900 -0.8160 -1.3377
 8290SOL    HW332893   2.854   4.730   5.651 -2.1449 -1.3907 -3.3077
 8290SOL    MW432894   2.865   4.649   5.682  1.3996 -0.4484  0.0886
 8291SOL     OW32895   5.895   0.730   3.723 -0.4184  0.6937  0.5584
 8291SOL    HW232896   5.899   0.639   3.755  1.1674 -0.4812 -2.5182
 8291SOL    HW332897   5.808   0.737   3.683 -0.3524  0.3429  0.3479
 8291SOL    MW432898   5.884   0.719   3.722  0.1676  0.3898 -0.0406
 8292SOL     OW32899   4.373   0.842   4.470  0.2100 -0.6496  0.2768
 8292SOL    HW232900   4.458   0.832   4.427 -0.5882  0.0561 -1.5411
 8292SOL    HW332901   4.386   0.803   4.557  2.5002 -0.1937  0.2049
 8292SOL    MW432902   4.386   0.835   4.476 -0.0512 -0.0426  0.3567
 8293SOL     OW32903   4.226   4.255   4.396  0.1391  1.0030  0.1795
 8293SOL    HW232904   4.266   4.310   4.328  0.7445 -1.3352 -1.4708
 8293SOL    HW332905   4.297   4.242   4.460  0.2607  1.3986  0.1299
 8293SOL    MW432906   4.241   4.261   4.396 -0.0557 -0.4870  0.6736
 8294SOL     OW32907   3.960   1.643   3.285  0.5548 -0.6530 -0.4257
 8294SOL    HW232908   3.948   1.610   3.196 -0.4461  0.3157 -0.6814
 8294SOL    HW332909   3.874   1.633   3.326  0.6172  0.2299 -0.0444
 8294SOL    MW432910   3.947   1.637   3.278  0.1827 -0.0057  0.1528
 8295SOL     OW32911   5.886   5.466   0.336  0.5369  0.1511 -0.1907
 8295SOL    HW232912   5.834   5.396   0.297  1.2931  0.4065 -1.7564
 8295SOL    HW332913   5.943   5.422   0.399  1.9733 -0.9073 -2.1284
 8295SOL    MW432914   5.886   5.451   0.339 -0.1253 -0.2541 -0.1900
 8296SOL     OW32915   4.719   3.682   4.314  0.3671  0.7585 -0.1725
 8296SOL    HW232916   4.644   3.720   4.269 -1.4381 -0.0486  1.9994
 8296SOL    HW332917   4.792   3.740   4.292 -1.0996  2.2035 -1.4580
 8296SOL    MW432918   4.719   3.695   4.305 -0.2550  0.2672  0.1745
 8297SOL     OW32919   2.551   2.018   1.160 -0.8462  0.2258  0.0948
 8297SOL    HW232920   2.555   1.994   1.252 -0.9779 -0.6498 -0.1186
 8297SOL    HW332921   2.490   1.954   1.121  1.2234 -1.1341 -1.1094
 8297SOL    MW432922   2.543   2.006   1.167  1.2744  0.1847 -0.3318
 8298SOL     OW32923   4.451   4.333   5.353 -0.4800  0.5316  0.0399
 8298SOL    HW232924   4.416   4.255   5.310  2.5569 -1.6792  1.2236
 8298SOL    HW332925   4.521   4.364   5.295 -0.6722  1.5140  0.2997
 8298SOL    MW432926   4.456   4.327   5.340  0.1643  0.0234 -0.1809
 8299SOL     OW32927   2.822   1.023   1.152 -0.2904  0.3000 -0.5757
 8299SOL    HW232928   2.778   0.955   1.203  1.3699 -0.7489 -0.4399
 8299SOL    HW332929   2.770   1.102   1.167 -2.8914 -1.1119 -1.5576
 8299SOL    MW432930   2.809   1.024   1.161 -0.0125  0.1873  0.4630
 8300SOL     OW32931   5.599   0.991   6.112  0.1863  0.0289 -0.6200
 8300SOL    HW232932   5.667   1.052   6.083 -0.2951  0.9276  0.0816
 8300SOL    HW332933   5.524   1.047   6.132 -0.3217 -0.8168 -0.1049
 8300SOL    MW432934   5.598   1.007   6.111 -0.6541  0.6267  0.9854
 8301SOL     OW32935   0.925   1.507   4.649  0.4454 -1.1387  0.2592
 8301SOL    HW232936   0.868   1.430   4.650  0.4101 -1.1475 -0.6750
 8301SOL    HW332937   1.013   1.471   4.659  0.4333 -1.3167 -0.2107
 8301SOL    MW432938   0.929   1.492   4.650 -0.4882  0.3821  0.0516
 8302SOL     OW32939   1.116   3.357   5.359 -0.1099  0.1653 -0.6217
 8302SOL    HW232940   1.187   3.296   5.376  0.7831  0.4732 -2.8375
 8302SOL    HW332941   1.154   3.443   5.377 -1.3594  0.1741  2.4875
 8302SOL    MW432942   1.130   3.360   5.363  0.0131 -0.0639  0.1320
 8303SOL     OW32943   1.904   3.693   0.989  0.1606 -0.7007 -0.2019
 8303SOL    HW232944   1.823   3.717   0.944 -0.0102 -0.1594  0.3843
 8303SOL    HW332945   1.967   3.761   0.964  0.0717 -0.4087  0.3373
 8303SOL    MW432946   1.902   3.705   0.980 -0.3811 -0.4896  0.3234
 8304SOL     OW32947   4.076   4.092   1.428  0.4861 -0.0800 -0.4476
 8304SOL    HW232948   4.158   4.114   1.383  0.6669 -1.1970 -0.6935
 8304SOL    HW332949   4.080   4.139   1.511  1.8270 -0.8697 -0.0352
 8304SOL    MW432950   4.087   4.101   1.433  0.2215 -0.1868 -0.8033
 8305SOL     OW32951   2.006   0.540   1.673  0.1934  0.2832 -0.0581
 8305SOL    HW232952   2.041   0.459   1.635 -0.1503  0.1270 -0.0462
 8305SOL    HW332953   2.054   0.610   1.629 -0.0032  0.0912 -0.5875
 8305SOL    MW432954   2.017   0.539   1.662  0.0502 -0.0296  0.6878
 8306SOL     OW32955   3.428   3.445   6.088  0.0936  0.6570 -0.5921
 8306SOL    HW232956   3.364   3.460   6.158 -0.8070 -1.0089 -1.0091
 8306SOL    HW332957   3.507   3.417   6.134 -0.6423 -0.9337 -0.2094
 8306SOL    MW432958   3.430   3.443   6.104  1.2545  0.0461 -0.4729
 8307SOL     OW32959   3.727   4.681   2.796 -0.5330 -0.2488 -0.0051
 8307SOL    HW232960   3.694   4.605   2.748  0.6477 -0.3368 -0.7187
 8307SOL    HW332961   3.821   4.665   2.805 -0.5331  0.3497  1.2961
 8307SOL    MW432962   3.735   4.669   2.791 -0.3866  0.1075 -0.1564
 8308SOL     OW32963   0.541   2.040   0.334  0.6274 -0.5270  1.0628
 8308SOL    HW232964   0.582   2.112   0.288  1.0844 -0.6898  1.2147
 8308SOL    HW332965   0.537   1.969   0.270  2.6867 -1.2801  1.6953
 8308SOL    MW432966   0.546   2.040   0.320 -0.4166  0.2055 -0.0882
 8309SOL     OW32967   5.937   2.218   3.349 -0.5095  0.4025 -0.3633
 8309SOL    HW232968   5.971   2.137   3.388 -0.4410 -0.0148 -1.2668
 8309SOL    HW332969   5.987   2.228   3.268  0.9940  2.4925  0.7307
 8309SOL    MW432970   5.948   2.209   3.344  0.0585 -0.0909 -0.1109
 8310SOL     OW32971   6.422   5.591   3.031  0.0141 -0.1040 -0.1210
 8310SOL    HW232972   6.430   5.557   3.121 -1.2325  2.0058  0.8668
 8310SOL    HW332973   6.504   5.564   2.989 -0.1469 -2.7234  1.0452
 8310SOL    MW432974   6.434   5.583   3.038  0.0513  0.6924  0.5240
 8311SOL     OW32975   4.247   5.229   3.496 -0.6772  0.1668  0.1288
 8311SOL    HW232976   4.248   5.208   3.402 -1.1234  0.3910  0.0713
 8311SOL    HW332977   4.193   5.307   3.502  0.1932  0.7547  0.4619
 8311SOL    MW432978   4.240   5.236   3.484  0.4042  0.4467 -0.0497
 8312SOL     OW32979   3.541   2.829   4.539 -0.0255 -0.1016  0.1487
 8312SOL    HW232980   3.580   2.884   4.606  1.1171  0.2456 -0.7752
 8312SOL    HW332981   3.548   2.880   4.458 -1.3682 -0.5117 -0.2554
 8312SOL    MW432982   3.547   2.843   4.537 -0.0916 -0.0924  0.4348
 8313SOL     OW32983   4.060   1.121   3.978 -0.8632 -0.8436  0.2384
 8313SOL    HW232984   4.068   1.123   4.074 -4.5911  1.3517  0.6635
 8313SOL    HW332985   4.124   1.185   3.948 -1.6324  0.6182  1.5581
 8313SOL    MW432986   4.070   1.130   3.987  0.2671  0.2761  0.0448
 8314SOL     OW32987   3.538   5.251   1.502  0.0034  0.4010 -0.2260
 8314SOL    HW232988   3.531   5.343   1.528 -0.3962  0.2794  0.0872
 8314SOL    HW332989   3.596   5.212   1.568  0.3394  0.4688 -0.4744
 8314SOL    MW432990   3.545   5.258   1.514 -0.2881  0.0219 -0.5936
 8315SOL     OW32991   6.014   3.372   2.583  0.4736  0.4487  0.0162
 8315SOL    HW232992   6.039   3.325   2.663  0.4840 -1.0839 -0.8524
 8315SOL    HW332993   5.990   3.303   2.521  1.2001  1.5519 -1.5595
 8315SOL    MW432994   6.014   3.356   2.586  0.0480 -0.2703 -0.2356
 8316SOL     OW32995   1.808   5.188   4.878 -0.6308 -0.1093  0.5006
 8316SOL    HW232996   1.892   5.175   4.835 -0.0062 -2.6266  2.2354
 8316SOL    HW332997   1.815   5.274   4.920  0.6393  0.1870 -0.2827
 8316SOL    MW432998   1.820   5.197   4.878  0.0493  0.2381  0.8977
 8317SOL     OW32999   2.698   0.730   5.027 -0.3793 -0.6328  0.1072
 8317SOL    HW233000   2.615   0.748   4.982  0.1404 -1.3113 -1.1845
 8317SOL    HW333001   2.672   0.687   5.108 -1.3850  1.3614  0.9190
 8317SOL    MW433002   2.684   0.727   5.031  0.0978 -0.0066 -0.1203
 8318SOL     OW33003   3.571   6.042   2.596  0.3114  0.2756  0.0969
 8318SOL    HW233004   3.620   5.961   2.611 -0.0337  0.1096  0.3286
 8318SOL    HW333005   3.632   6.098   2.547 -0.0685 -0.8339 -1.7758
 8318SOL    MW433006   3.586   6.039   2.591  0.0198 -0.1717 -0.0712
 8319SOL     OW33007   6.020   5.269   2.150  0.0802  1.1623 -0.0539
 8319SOL    HW233008   5.931   5.300   2.171 -0.6300  0.5748 -1.9683
 8319SOL    HW333009   6.022   5.179   2.183  0.1977  1.3999  0.5884
 8319SOL    MW433010   6.008   5.261   2.157 -0.0687 -0.2736  0.8048
 8320SOL     OW33011   1.095   6.013   2.270 -0.0669 -0.0825  0.6536
 8320SOL    HW233012   1.188   5.989   2.276  0.1514  0.3460 -0.7769
 8320SOL    HW333013   1.064   5.970   2.190 -1.4106 -1.1231  1.6832
 8320SOL    MW433014   1.103   6.004   2.260  0.3127 -0.0464 -0.4002
 8321SOL     OW33015   0.437   5.949   0.462  0.0237  0.7429 -0.0147
 8321SOL    HW233016   0.413   5.929   0.371 -0.2292  1.3932 -0.0968
 8321SOL    HW333017   0.353   5.959   0.507  0.1352 -0.5340  0.5240
 8321SOL    MW433018   0.423   5.947   0.456  0.7161  0.6050 -0.1769
 8322SOL     OW33019   5.240   1.203   4.102  0.2645 -0.0446  0.0102
 8322SOL    HW233020   5.192   1.279   4.135  0.5033 -0.1385  0.5917
 8322SOL    HW333021   5.211   1.130   4.157 -0.2562 -0.4657 -0.7939
 8322SOL    MW433022   5.230   1.203   4.114 -0.0254  0.5010  0.0009
 8323SOL     OW33023   0.556   2.697   3.749  0.1184  0.5148 -0.0589
 8323SOL    HW233024   0.575   2.788   3.726  1.0514  0.2160 -0.4970
 8323SOL    HW333025   0.495   2.704   3.823 -0.4151  1.4900 -0.5649
 8323SOL    MW433026   0.550   2.710   3.756  0.5922  0.1097  0.1546
 8324SOL     OW33027   1.243   0.469   3.091 -0.1192  0.7649  0.1177
 8324SOL    HW233028   1.233   0.420   3.173  1.3406  1.3135  0.6556
 8324SOL    HW333029   1.232   0.404   3.022  0.2117 -0.0189  0.7938
 8324SOL    MW433030   1.241   0.454   3.093 -0.2172  0.0339 -0.4353
 8325SOL     OW33031   2.657   0.963   5.305  0.2017 -0.2472  0.4063
 8325SOL    HW233032   2.597   0.901   5.348 -0.2705  0.0628  0.2021
 8325SOL    HW333033   2.619   1.049   5.324 -0.3527 -0.1255 -1.1350
 8325SOL    MW433034   2.644   0.966   5.313  0.1116 -0.1780  0.3517
 8326SOL     OW33035   1.478   0.988   4.287  0.3792  0.1598 -0.8677
 8326SOL    HW233036   1.554   1.004   4.342  0.2257  1.2711 -0.9564
 8326SOL    HW333037   1.479   0.893   4.271 -0.0113 -0.3316  1.6742
 8326SOL    MW433038   1.488   0.978   4.292 -0.5175 -0.6681  0.1569
 8327SOL     OW33039   3.304   2.609   2.060  0.0885  0.0468 -0.7094
 8327SOL    HW233040   3.271   2.675   1.999 -0.2598  0.7723  0.2518
 8327SOL    HW333041   3.310   2.529   2.007  0.8334  0.9114 -1.9677
 8327SOL    MW433042   3.300   2.607   2.045 -0.5118  0.3580  0.7094
 8328SOL     OW33043   5.456   0.573   5.340  0.0580 -0.0288  0.2250
 8328SOL    HW233044   5.398   0.621   5.399  1.0371  0.4661  0.8121
 8328SOL    HW333045   5.528   0.633   5.323 -0.0950 -0.2391 -1.3435
 8328SOL    MW433046   5.458   0.587   5.345 -0.2748  0.5540 -0.1270
 8329SOL     OW33047   4.868   2.686   4.283 -0.3844  0.0518  0.1579
 8329SOL    HW233048   4.925   2.625   4.237 -0.0430  0.0461  0.5887
 8329SOL    HW333049   4.877   2.768   4.234 -0.9883 -0.2761 -0.5378
 8329SOL    MW433050   4.877   2.689   4.270  0.2014 -0.0430 -0.1921
 8330SOL     OW33051   0.578   3.466   1.303  0.2357 -0.3067  0.4500
 8330SOL    HW233052   0.530   3.401   1.252  0.5238  0.5286 -0.9284
 8330SOL    HW333053   0.643   3.501   1.242  0.9174  0.3786  1.5443
 8330SOL    MW433054   0.580   3.462   1.288  0.2199 -0.3642 -0.4362
 8331SOL     OW33055   3.993   4.907   4.292  0.1871  0.0900 -0.1210
 8331SOL    HW233056   4.020   4.822   4.257 -2.7528 -0.9919 -0.0461
 8331SOL    HW333057   4.051   4.920   4.368 -0.2434 -2.6440  0.8129
 8331SOL    MW433058   4.004   4.897   4.297  0.4922 -0.1301  0.1002
 8332SOL     OW33059   4.131   1.494   0.786  0.2512 -0.4677 -0.2491
 8332SOL    HW233060   4.120   1.412   0.834 -0.6646 -0.9618 -1.2519
 8332SOL    HW333061   4.181   1.550   0.845  0.2851 -1.5016  0.7376
 8332SOL    MW433062   4.136   1.490   0.800 -0.5409 -0.3533  0.0198
 8333SOL     OW33063   4.337   2.518   1.369 -0.2112  0.1946  0.4613
 8333SOL    HW233064   4.243   2.535   1.358 -0.5834 -1.3555  0.8899
 8333SOL    HW333065   4.355   2.447   1.307  1.2547  2.0806 -1.3712
 8333SOL    MW433066   4.327   2.511   1.360 -0.0985 -0.6180 -0.1381
 8334SOL     OW33067   4.590   2.876   0.056 -0.0598 -0.5489  0.5505
 8334SOL    HW233068   4.495   2.873   0.050 -0.2870  3.1321  0.3274
 8334SOL    HW333069   4.613   2.796   0.103 -3.0936 -2.2091 -0.4977
 8334SOL    MW433070   4.581   2.865   0.061 -0.0868 -0.1122  0.2565
 8335SOL     OW33071   4.982   5.541   5.844 -0.2146 -0.4652  0.3672
 8335SOL    HW233072   4.962   5.580   5.929 -0.8733  0.5500 -0.2263
 8335SOL    HW333073   4.909   5.568   5.788  0.1723 -1.1788 -0.5005
 8335SOL    MW433074   4.970   5.550   5.848  0.3578 -0.6590  0.1805
 8336SOL     OW33075   6.365   5.754   2.194 -0.2618 -0.2298 -0.0298
 8336SOL    HW233076   6.322   5.691   2.135 -1.8578  1.2423 -0.5229
 8336SOL    HW333077   6.383   5.703   2.273 -2.2495 -1.1381 -0.1019
 8336SOL    MW433078   6.362   5.739   2.197 -0.0312 -0.0297  0.1720
 8337SOL     OW33079   3.205   1.273   5.982  0.8002  0.3021  0.4624
 8337SOL    HW233080   3.161   1.215   6.043  0.2121 -1.0778 -1.1814
 8337SOL    HW333081   3.290   1.291   6.022  0.8635 -1.4303  1.1797
 8337SOL    MW433082   3.210   1.268   5.995 -0.1147  0.0808  0.3194
 8338SOL     OW33083   2.379   3.432   5.867 -0.0803 -0.6450 -0.6694
 8338SOL    HW233084   2.436   3.488   5.919  1.0250 -1.3328 -1.1034
 8338SOL    HW333085   2.356   3.485   5.791 -0.6871 -0.0799 -0.1041
 8338SOL    MW433086   2.384   3.446   5.864  0.4256 -0.0673 -0.2941
 8339SOL     OW33087   2.980   2.776   1.671  0.2160  0.4768 -0.7670
 8339SOL    HW233088   2.989   2.869   1.649 -0.9677  0.5038 -1.2247
 8339SOL    HW333089   2.900   2.772   1.723 -0.2849 -0.4080 -1.5843
 8339SOL    MW433090   2.971   2.788   1.675  0.6420 -0.7136 -0.0417
 8340SOL     OW33091   1.162   1.417   0.656  0.0813  0.5629  0.2012
 8340SOL    HW233092   1.079   1.417   0.609  0.4051  0.3136 -0.3751
 8340SOL    HW333093   1.164   1.334   0.703  1.0620 -0.5504 -1.6994
 8340SOL    MW433094   1.152   1.406   0.656  0.0167  0.2339  0.3284
 8341SOL     OW33095   3.642   4.669   4.379 -0.3456 -0.3948  0.9413
 8341SOL    HW233096   3.666   4.679   4.287 -1.5339 -0.9583  0.5442
 8341SOL    HW333097   3.677   4.584   4.404 -1.3698 -0.9521  0.5348
 8341SOL    MW433098   3.650   4.659   4.370 -0.1128  0.0481  0.1994
 8342SOL     OW33099   5.919   0.766   1.310  0.0575 -0.2060  0.3126
 8342SOL    HW233100   5.922   0.811   1.226  0.0058  0.6053  0.7409
 8342SOL    HW333101   5.842   0.802   1.355 -2.5372 -3.6513 -0.9388
 8342SOL    MW433102   5.909   0.777   1.305  0.0254 -0.1287  0.4155
 8343SOL     OW33103   4.284   6.236   6.382  0.1089 -0.5645 -0.4432
 8343SOL    HW233104   4.361   6.193   6.420  0.2492 -0.1066 -0.2014
 8343SOL    HW333105   4.211   6.177   6.402  0.3377 -0.8143 -0.3386
 8343SOL    MW433106   4.285   6.223   6.390  0.3314 -0.4003 -0.6317
 8344SOL     OW33107   4.881   5.877   0.208 -0.0579  0.2235 -0.0453
 8344SOL    HW233108   4.895   5.846   0.119  1.3249 -0.0810  0.2475
 8344SOL    HW333109   4.959   5.930   0.227 -0.2800  0.1930  1.0140
 8344SOL    MW433110   4.893   5.880   0.199  0.5152  0.7375  0.2659
 8345SOL     OW33111   4.548   5.208   2.881  0.4275 -0.4291 -0.0324
 8345SOL    HW233112   4.614   5.170   2.822  0.6349  0.6764 -0.5273
 8345SOL    HW333113   4.592   5.212   2.966  0.0423 -2.2734  0.3082
 8345SOL    MW433114   4.563   5.203   2.885 -0.3751  0.4635 -0.1623
 8346SOL     OW33115   1.361   3.615   0.787  0.7548  0.2907 -0.0610
 8346SOL    HW233116   1.267   3.608   0.768 -0.0684 -1.1821  3.7115
 8346SOL    HW333117   1.399   3.538   0.745  0.0119  0.0312 -0.2818
 8346SOL    MW433118   1.353   3.604   0.779  0.4390 -0.1359  0.0223
 8347SOL     OW33119   1.510   2.052   2.032  0.3738 -0.1382  0.2151
 8347SOL    HW233120   1.566   2.113   2.080 -1.3112  0.9991  0.7955
 8347SOL    HW333121   1.421   2.080   2.050 -0.3929 -0.9379 -1.9390
 8347SOL    MW433122   1.506   2.063   2.041  0.0621  0.1155 -0.2419
 8348SOL     OW33123   2.786   1.488   0.200 -0.0988 -0.0285  0.7715
 8348SOL    HW233124   2.782   1.415   0.261  2.0986 -0.9261 -0.0511
 8348SOL    HW333125   2.832   1.453   0.124 -1.9869  1.2897 -1.0943
 8348SOL    MW433126   2.792   1.474   0.198  0.4580 -0.3505 -0.0308
 8349SOL     OW33127   4.192   4.988   3.631 -0.1619 -0.3355 -0.0897
 8349SOL    HW233128   4.216   5.071   3.591  0.0010 -0.3265  0.0252
 8349SOL    HW333129   4.150   5.012   3.714 -2.2418 -0.2716 -1.1087
 8349SOL    MW433130   4.190   5.002   3.637 -0.5801  0.0033 -0.2893
 8350SOL     OW33131   3.335   5.623   0.557 -0.2798 -0.5887  0.4643
 8350SOL    HW233132   3.246   5.658   0.563  0.2357  0.5743  2.3542
 8350SOL    HW333133   3.363   5.613   0.648  1.8571 -0.0037 -0.0541
 8350SOL    MW433134   3.327   5.626   0.570 -0.3285 -0.3583  0.2485
 8351SOL     OW33135   6.324   4.756   3.796 -0.4647 -0.0151 -0.7062
 8351SOL    HW233136   6.359   4.843   3.777 -1.9619  1.6221  2.9556
 8351SOL    HW333137   6.398   4.696   3.781  1.1311  2.0880 -1.7353
 8351SOL    MW433138   6.339   4.759   3.792 -0.0097  0.1619  0.3816
 8352SOL     OW33139   5.013   1.869   1.090 -0.2401  0.2898 -0.1632
 8352SOL    HW233140   5.006   1.862   1.186  0.4663 -0.6354 -0.1634
 8352SOL    HW333141   5.107   1.861   1.072 -0.1568  2.1951 -0.8325
 8352SOL    MW433142   5.025   1.867   1.101 -0.1305  0.4536  0.1497
 8353SOL     OW33143   0.959   3.823   5.286 -0.4930 -0.3696  0.3476
 8353SOL    HW233144   1.012   3.875   5.345  0.1688  1.7430 -1.9331
 8353SOL    HW333145   1.022   3.772   5.234 -1.1089 -3.2751  2.2194
 8353SOL    MW433146   0.974   3.823   5.287  0.4555 -0.6511  0.1566
 8354SOL     OW33147   6.068   1.744   2.498  0.1522 -0.1747 -0.1172
 8354SOL    HW233148   6.104   1.742   2.409 -0.7112 -0.1119 -0.4842
 8354SOL    HW333149   6.129   1.797   2.548 -0.8477  2.3434 -1.3855
 8354SOL    MW433150   6.080   1.750   2.493  0.3744 -0.4791  0.2555
 8355SOL     OW33151   5.231   1.105   5.114 -0.1118  0.2219  0.1746
 8355SOL    HW233152   5.177   1.183   5.124 -1.4299 -0.8596  2.4125
 8355SOL    HW333153   5.299   1.114   5.182 -0.2800 -0.5464  0.4560
 8355SOL    MW433154   5.233   1.116   5.125 -0.5289  0.3460  0.2771
 8356SOL     OW33155   4.166   4.854   1.971 -0.4993  0.0109  0.0203
 8356SOL    HW233156   4.159   4.789   2.041  1.9283  0.3524  0.6680
 8356SOL    HW333157   4.126   4.933   2.008 -2.3328 -0.7137 -0.3107
 8356SOL    MW433158   4.160   4.856   1.986  0.3002 -0.4871 -0.9252
 8357SOL     OW33159   4.903   0.765   0.239  0.1551  0.8588 -0.1437
 8357SOL    HW233160   4.830   0.726   0.192 -0.7304  0.2926  1.6124
 8357SOL    HW333161   4.878   0.858   0.248 -0.0449  0.8029 -0.1132
 8357SOL    MW433162   4.890   0.772   0.234  0.3846  0.1506 -0.0890
 8358SOL     OW33163   3.382   5.548   0.036 -0.0084 -0.4603  0.5606
 8358SOL    HW233164   3.444   5.479   0.057  0.5321 -0.1798 -0.0816
 8358SOL    HW333165   3.394   5.613   0.105  0.5283 -0.3336  0.3479
 8358SOL    MW433166   3.392   5.548   0.048  0.8800  0.6767  0.1226
 8359SOL     OW33167   4.313   0.666   2.493  0.1364 -0.2096 -0.4612
 8359SOL    HW233168   4.332   0.625   2.578  0.6511 -0.2104 -0.5791
 8359SOL    HW333169   4.386   0.641   2.437 -0.3989 -0.5403 -1.0244
 8359SOL    MW433170   4.325   0.657   2.497 -0.0046 -0.0595 -0.1835
 8360SOL     OW33171   4.374   3.423   5.898 -0.0189  0.2443 -0.0367
 8360SOL    HW233172   4.361   3.517   5.906 -0.9796  0.3829 -2.3979
 8360SOL    HW333173   4.325   3.386   5.971 -0.5071  1.5286  0.3163
 8360SOL    MW433174   4.366   3.431   5.909  0.3555 -0.3612  0.4919
 8361SOL     OW33175   4.914   3.353   5.601 -0.1032  0.1309  0.1582
 8361SOL    HW233176   4.940   3.328   5.513 -0.2148 -1.5094  0.5510
 8361SOL    HW333177   4.994   3.349   5.653 -0.6747 -3.1244  0.9813
 8361SOL    MW433178   4.928   3.349   5.596  0.3967  0.1637  0.0318
 8362SOL     OW33179   0.474   0.021   2.420 -0.1563  0.3682 -0.0736
 8362SOL    HW233180   0.424   0.071   2.485 -1.5520  1.3522 -1.8372
 8362SOL    HW333181   0.510  -0.053   2.470 -2.7515  0.0044  1.4481
 8362SOL    MW433182   0.472   0.018   2.435  0.5437 -0.2239  0.1641
 8363SOL     OW33183   4.060   0.305   3.333 -0.9014  0.1719  0.0566
 8363SOL    HW233184   4.149   0.317   3.300 -0.5523  0.8426  1.2006
 8363SOL    HW333185   4.045   0.211   3.328  0.8167 -0.2799  2.1673
 8363SOL    MW433186   4.070   0.294   3.328  0.5786  0.5968  0.0266
 8364SOL     OW33187   4.930   1.488   2.418 -0.2583 -0.6878  0.9147
 8364SOL    HW233188   5.019   1.455   2.434 -0.6145 -2.0502  0.1705
 8364SOL    HW333189   4.944   1.568   2.367  0.6284  0.6257  3.0251
 8364SOL    MW433190   4.944   1.494   2.414 -0.4281 -0.1427  0.3894
 8365SOL     OW33191   6.378   1.178   5.960  0.3400  0.5276 -0.3406
 8365SOL    HW233192   6.331   1.260   5.949  1.3371  0.9682 -1.5881
 8365SOL    HW333193   6.436   1.173   5.884 -0.8613 -2.1329 -1.1905
 8365SOL    MW433194   6.379   1.188   5.948  0.5285 -0.1437 -0.0476
 8366SOL     OW33195   0.472   5.939   4.212 -0.1918  0.5537 -0.0354
 8366SOL    HW233196   0.474   5.982   4.127 -1.5742  2.4272  0.8222
 8366SOL    HW333197   0.546   5.977   4.260  2.4455 -2.5950 -1.2247
 8366SOL    MW433198   0.482   5.950   4.207 -0.2050  0.0330 -0.0939
 8367SOL     OW33199   1.510   0.528   0.260 -0.3155 -0.0934  0.0994
 8367SOL    HW233200   1.461   0.603   0.228  0.3957  0.3038 -0.0780
 8367SOL    HW333201   1.563   0.500   0.185 -0.9788 -1.1095 -0.0022
 8367SOL    MW433202   1.511   0.534   0.246 -0.1215 -0.0981  0.1841
 8368SOL     OW33203   5.253   3.829   5.061  0.1311 -0.3603 -0.2086
 8368SOL    HW233204   5.234   3.809   5.153  0.2481 -0.9528 -0.3092
 8368SOL    HW333205   5.348   3.831   5.056  0.1757 -2.2341 -0.6991
 8368SOL    MW433206   5.263   3.827   5.072  0.1786  0.5142  0.0711
 8369SOL     OW33207   0.707   0.264   2.873  0.0445 -0.0947 -0.2572
 8369SOL    HW233208   0.787   0.316   2.868  0.3018 -0.3870  0.5905
 8369SOL    HW333209   0.636   0.329   2.866  0.3469  0.5869  2.1055
 8369SOL    MW433210   0.708   0.280   2.871  0.0863 -0.7706  0.2092
 8370SOL     OW33211   1.902   1.026   3.095 -0.2126 -0.0356 -0.1524
 8370SOL    HW233212   1.862   1.101   3.050  2.7779  0.1498 -2.9072
 8370SOL    HW333213   1.958   1.065   3.162 -2.4368 -0.1724  1.8934
 8370SOL    MW433214   1.904   1.041   3.098  0.2885 -0.0232  0.2936
 8371SOL     OW33215   0.280   5.411   0.854 -0.3204 -0.2193 -0.0384
 8371SOL    HW233216   0.280   5.336   0.913  1.3051  1.2106  1.9152
 8371SOL    HW333217   0.284   5.373   0.766  0.6635 -2.4165  0.8864
 8371SOL    MW433218   0.280   5.396   0.850 -0.3527 -0.8203  0.0265
 8372SOL     OW33219   1.853   4.398   0.048  0.5606 -0.0177 -0.1919
 8372SOL    HW233220   1.926   4.382  -0.011 -1.0108 -1.6935 -1.8032
 8372SOL    HW333221   1.778   4.410  -0.009 -0.3900  2.2894  1.3903
 8372SOL    MW433222   1.853   4.397   0.033 -0.3423  0.2065  0.3428
 8373SOL     OW33223   2.832   1.907   1.422  0.4264 -0.0252 -0.5086
 8373SOL    HW233224   2.767   1.975   1.438 -1.6254 -1.2794 -2.9299
 8373SOL    HW333225   2.849   1.911   1.328  0.0127 -2.9761 -0.7969
 8373SOL    MW433226   2.826   1.917   1.412  0.4097  0.0686 -0.6432
 8374SOL     OW33227   1.539   4.202   1.099  0.1831 -0.2355  0.3623
 8374SOL    HW233228   1.460   4.152   1.122 -0.5750  0.7239 -0.0659
 8374SOL    HW333229   1.566   4.243   1.181 -1.8835  2.3083 -0.1035
 8374SOL    MW433230   1.532   4.201   1.113  0.0413 -0.6550 -0.1015
 8375SOL     OW33231   6.063   1.141   0.619  0.5493 -0.4578 -0.0608
 8375SOL    HW233232   6.021   1.068   0.574  0.8476 -0.1903 -0.7927
 8375SOL    HW333233   6.035   1.218   0.570 -1.0665  0.1210  1.6551
 8375SOL    MW433234   6.054   1.141   0.607  0.1813  0.0722 -0.2887
 8376SOL     OW33235   5.821   4.111   0.463  0.1577 -0.1471  0.3943
 8376SOL    HW233236   5.770   4.042   0.420 -2.5901  2.5235 -0.9385
 8376SOL    HW333237   5.785   4.116   0.551 -1.1286  0.9185 -0.1659
 8376SOL    MW433238   5.810   4.102   0.469 -0.4428 -0.6481 -0.1737
 8377SOL     OW33239   3.515   3.292   0.268 -0.2087  0.2658  0.1130
 8377SOL    HW233240   3.508   3.386   0.281 -0.1270  0.1545  1.0937
 8377SOL    HW333241   3.557   3.282   0.182  0.0462  1.1248  0.1290
 8377SOL    MW433242   3.520   3.303   0.258 -0.4260 -0.1233  0.0518
 8378SOL     OW33243   4.563   1.490   5.608 -0.0289 -0.2393 -0.6823
 8378SOL    HW233244   4.649   1.524   5.634 -0.1643 -1.0905  0.9939
 8378SOL    HW333245   4.582   1.432   5.535  0.4746  1.5566 -2.0576
 8378SOL    MW433246   4.577   1.487   5.602  0.1056  0.1787  0.6501
 8379SOL     OW33247   4.835   2.257   2.306  0.3163  0.1135  0.2722
 8379SOL    HW233248   4.856   2.349   2.319  1.1013 -0.1164  0.7515
 8379SOL    HW333249   4.825   2.248   2.212 -0.2259  0.7747  0.2576
 8379SOL    MW433250   4.837   2.268   2.296  0.1842 -0.1695  0.9824
 8380SOL     OW33251   0.883   2.362   5.038 -0.4475  0.2071 -0.1845
 8380SOL    HW233252   0.937   2.384   5.114  0.5072 -2.0655 -0.1315
 8380SOL    HW333253   0.942   2.372   4.964 -0.9310  0.8964 -0.4871
 8380SOL    MW433254   0.898   2.366   5.038 -0.7026  0.6775  0.0077
 8381SOL     OW33255   4.576   2.177   5.854 -0.3831 -0.1709 -0.4984
 8381SOL    HW233256   4.589   2.271   5.840 -0.4068 -0.0163  0.4355
 8381SOL    HW333257   4.575   2.167   5.949  1.0634 -1.3327 -0.5737
 8381SOL    MW433258   4.577   2.188   5.865 -1.0457  0.4442  0.3391
 8382SOL     OW33259   0.362   1.971   4.020 -0.2283  0.2851  0.0393
 8382SOL    HW233260   0.439   2.025   4.005 -1.8301  2.3592 -1.4848
 8382SOL    HW333261   0.294   2.034   4.045 -1.4256 -1.4698  1.4353
 8382SOL    MW433262   0.363   1.987   4.021  0.1877 -0.4954  0.0504
 8383SOL     OW33263   1.822   2.724   6.240 -0.9819 -0.2919  0.4648
 8383SOL    HW233264   1.814   2.647   6.296 -0.9813  0.3390  1.3532
 8383SOL    HW333265   1.887   2.779   6.284 -1.1112  0.3023 -0.0653
 8383SOL    MW433266   1.830   2.721   6.253 -0.5301 -1.9468  0.1787
 8384SOL     OW33267   5.034   6.334   6.227  0.1588 -0.0292  0.0038
 8384SOL    HW233268   5.125   6.337   6.197  0.6667 -0.0470  1.4334
 8384SOL    HW333269   5.034   6.266   6.295 -0.9750 -0.1839 -0.1307
 8384SOL    MW433270   5.046   6.325   6.232 -0.4354 -0.1993 -0.4369
 8385SOL     OW33271   5.109   1.889   6.413 -0.1009  0.1500 -0.3715
 8385SOL    HW233272   5.047   1.835   6.462 -0.8697  2.4923  1.3914
 8385SOL    HW333273   5.188   1.891   6.467 -0.2383  1.1270 -0.1891
 8385SOL    MW433274   5.112   1.882   6.426 -0.3856 -0.4153  0.5563
 8386SOL     OW33275   5.357   4.436   1.266 -0.3227  0.2236  0.2386
 8386SOL    HW233276   5.388   4.351   1.237  3.1452  0.6663  2.1508
 8386SOL    HW333277   5.338   4.484   1.184  3.2626 -0.5149 -1.2036
 8386SOL    MW433278   5.358   4.431   1.251 -0.3020  0.1245  0.2996
 8387SOL     OW33279   1.268   0.581   3.459  0.3611 -0.2798 -0.3082
 8387SOL    HW233280   1.210   0.632   3.402 -2.1134 -1.5574  0.8994
 8387SOL    HW333281   1.277   0.497   3.416  0.3637 -0.4742  0.0657
 8387SOL    MW433282   1.262   0.577   3.446  0.0122 -0.3796  0.1914
 8388SOL     OW33283   4.720   4.598   0.598  0.3398  0.0710  0.0030
 8388SOL    HW233284   4.675   4.632   0.521  0.6061 -2.6150 -1.4746
 8388SOL    HW333285   4.656   4.540   0.640  0.2599  1.3479  1.7812
 8388SOL    MW433286   4.705   4.595   0.594  0.0267  0.0110  0.1308
 8389SOL     OW33287   5.061   0.569   1.279 -0.3562  0.1604  0.1858
 8389SOL    HW233288   5.141   0.609   1.244 -1.0725  1.3260 -0.1565
 8389SOL    HW333289   5.042   0.497   1.219 -1.1418  1.6668 -1.4392
 8389SOL    MW433290   5.069   0.565   1.267 -0.2907 -0.4480 -0.2155
 8390SOL     OW33291   3.833   5.195   2.032  0.2659  0.5626 -0.4425
 8390SOL    HW233292   3.832   5.240   2.117 -0.3249  1.1117 -0.7349
 8390SOL    HW333293   3.843   5.265   1.968  0.8312  0.1381 -0.8254
 8390SOL    MW433294   3.834   5.210   2.035 -0.5513 -0.2716 -0.1556
 8391SOL     OW33295   1.330   2.769   3.884  0.0780  0.2567 -0.1461
 8391SOL    HW233296   1.349   2.678   3.906 -0.4470 -0.1116 -1.1879
 8391SOL    HW333297   1.332   2.773   3.789  0.0261  1.3248 -0.1229
 8391SOL    MW433298   1.333   2.758   3.874  0.3751 -0.3082 -0.0846
 8392SOL     OW33299   4.769   4.797   1.659 -0.4359  0.1623  0.4879
 8392SOL    HW233300   4.772   4.724   1.720  1.6527 -0.2831 -0.0472
 8392SOL    HW333301   4.802   4.761   1.577  1.4651  1.8136  0.4237
 8392SOL    MW433302   4.774   4.783   1.656 -0.5285  0.1572 -0.1009
 8393SOL     OW33303   5.810   4.665   2.299  0.3020 -0.2303  0.0594
 8393SOL    HW233304   5.770   4.670   2.385  0.9728  3.0851  0.3048
 8393SOL    HW333305   5.900   4.635   2.316 -0.3046 -2.1579  0.1303
 8393SOL    MW433306   5.817   4.662   2.312 -0.4335  0.2850 -0.3462
 8394SOL     OW33307   5.845   6.404   2.881 -0.2549  0.1010  0.4108
 8394SOL    HW233308   5.877   6.416   2.792 -1.1227 -0.2050  0.0512
 8394SOL    HW333309   5.903   6.337   2.918 -0.3126 -0.2561 -0.1435
 8394SOL    MW433310   5.857   6.397   2.874 -0.0058 -0.5612  0.1919
 8395SOL     OW33311   2.249   0.225   1.792 -0.0439  0.4701 -0.1596
 8395SOL    HW233312   2.332   0.266   1.816 -0.6483  1.4768  0.2610
 8395SOL    HW333313   2.220   0.272   1.714 -1.7880  2.4099  1.5178
 8395SOL    MW433314   2.256   0.237   1.785  0.0538 -0.7072 -0.1485
 8396SOL     OW33315   0.551   5.288   6.093  0.0535 -0.4348  0.1692
 8396SOL    HW233316   0.523   5.199   6.110  0.0958 -0.5136 -0.1797
 8396SOL    HW333317   0.470   5.338   6.081  0.0453 -0.7651 -1.3797
 8396SOL    MW433318   0.537   5.283   6.094  0.4168 -0.4825  0.2242
 8397SOL     OW33319   4.523   5.072   5.414 -0.2894  0.6629  0.0064
 8397SOL    HW233320   4.537   4.984   5.379 -1.4796  0.3906  0.1433
 8397SOL    HW333321   4.544   5.131   5.342 -2.4934  0.1189 -1.1862
 8397SOL    MW433322   4.527   5.068   5.400 -0.0942 -0.0001  0.7222
 8398SOL     OW33323   3.108   6.108   5.078 -0.0189  0.3676  0.8498
 8398SOL    HW233324   3.045   6.152   5.136 -0.8482 -0.1640  0.3712
 8398SOL    HW333325   3.143   6.037   5.132  0.3255  0.7847  1.1831
 8398SOL    MW433326   3.104   6.104   5.093  0.3328 -0.6404  0.2717
 8399SOL     OW33327   4.188   1.448   4.267  0.3015 -0.2408  0.1688
 8399SOL    HW233328   4.183   1.376   4.330 -1.0734 -1.9868 -1.7753
 8399SOL    HW333329   4.136   1.519   4.307 -2.3724 -2.0459  0.1784
 8399SOL    MW433330   4.180   1.448   4.281 -0.5783 -0.0825 -0.2644
 8400SOL     OW33331   1.915   3.980   0.343 -0.9080  0.3211  0.1750
 8400SOL    HW233332   1.866   4.061   0.354 -1.9070 -0.4492  1.6436
 8400SOL    HW333333   1.885   3.946   0.259 -0.6576  1.3203 -0.3416
 8400SOL    MW433334   1.905   3.986   0.333 -0.0664 -0.2495 -0.0363
 8401SOL     OW33335   0.551   2.440   2.588  0.0170 -0.4809  0.1032
 8401SOL    HW233336   0.501   2.455   2.669 -1.6478  0.5297 -1.0495
 8401SOL    HW333337   0.488   2.401   2.528  0.8383  0.0847 -1.1572
 8401SOL    MW433338   0.536   2.437   2.591  0.3720 -0.0127  0.2202
 8402SOL     OW33339   5.950   0.284   1.218 -0.3488 -0.5187 -0.1150
 8402SOL    HW233340   5.925   0.277   1.126 -0.7622  0.8285 -0.1155
 8402SOL    HW333341   5.935   0.196   1.254 -0.0989 -1.0809 -1.3378
 8402SOL    MW433342   5.945   0.272   1.211 -0.2125  0.3701  0.5723
 8403SOL     OW33343   5.096   4.373   2.400 -0.1405  0.4716  0.5504
 8403SOL    HW233344   5.062   4.352   2.313 -1.0763  0.5394  0.8915
 8403SOL    HW333345   5.191   4.381   2.387 -0.1039 -0.9033 -0.1771
 8403SOL    MW433346   5.104   4.371   2.387 -0.5476  0.2043  0.4746
 8404SOL     OW33347   5.922   3.773   0.020 -0.1385 -0.1589  0.0169
 8404SOL    HW233348   5.874   3.698  -0.014  0.5429 -0.6319  0.0915
 8404SOL    HW333349   5.993   3.736   0.071 -1.4978  0.5151  2.5951
 8404SOL    MW433350   5.925   3.758   0.022 -0.6690  0.0569 -0.9672
 8405SOL     OW33351   5.077   0.491   5.919  0.1224  0.0281 -0.1258
 8405SOL    HW233352   5.064   0.447   5.835 -0.7979 -0.4427  0.2510
 8405SOL    HW333353   5.166   0.526   5.914  0.5271 -1.0612 -0.8050
 8405SOL    MW433354   5.087   0.490   5.907 -0.3905 -0.1710 -0.0200
 8406SOL     OW33355   6.074   4.697   1.380  0.0152 -0.3865 -0.5998
 8406SOL    HW233356   6.137   4.627   1.364  1.4013  1.1162 -2.1002
 8406SOL    HW333357   6.103   4.736   1.462  0.7090 -0.0957 -0.9689
 8406SOL    MW433358   6.086   4.693   1.389  0.0307  0.4836  0.2369
 8407SOL     OW33359   2.782   3.345   5.369  0.5033 -0.4632  0.3290
 8407SOL    HW233360   2.720   3.403   5.325 -0.5488 -2.3800 -0.8363
 8407SOL    HW333361   2.858   3.343   5.310 -0.1078 -1.4800 -0.4537
 8407SOL    MW433362   2.784   3.352   5.355  1.0369  0.1335  0.3478
 8408SOL     OW33363   4.787   6.236   3.941  0.1589 -0.4784  0.2836
 8408SOL    HW233364   4.770   6.142   3.937  1.5672 -0.7058 -1.9668
 8408SOL    HW333365   4.868   6.248   3.893  1.2713  1.6706  2.4733
 8408SOL    MW433366   4.795   6.225   3.934  0.3445  0.6203 -0.1614
 8409SOL     OW33367   1.257   4.169   0.715  0.0856 -0.4400  0.1513
 8409SOL    HW233368   1.282   4.077   0.713  1.1006 -0.1683 -0.7520
 8409SOL    HW333369   1.219   4.186   0.629 -0.1382 -0.0307  0.3275
 8409SOL    MW433370   1.256   4.159   0.703  0.3235  0.1485 -0.5439
 8410SOL     OW33371   3.608   2.845   3.226 -0.0879  0.4945  0.2547
 8410SOL    HW233372   3.618   2.783   3.299 -1.1667 -1.7270 -1.3473
 8410SOL    HW333373   3.698   2.872   3.205  0.8347 -2.7723 -0.6813
 8410SOL    MW433374   3.621   2.840   3.233 -0.0005 -0.7432  0.2717
 8411SOL     OW33375   4.905   5.483   2.641  0.5874 -0.4495  0.4352
 8411SOL    HW233376   4.907   5.397   2.684 -0.7844 -0.6815  0.0823
 8411SOL    HW333377   4.921   5.464   2.549 -0.4573 -0.4302  0.2386
 8411SOL    MW433378   4.907   5.469   2.635 -0.0878  0.3793 -0.4268
 8412SOL     OW33379   5.880   0.523   0.358  0.1557  0.6317 -0.0461
 8412SOL    HW233380   5.923   0.570   0.287  0.5323  1.2386  0.5645
 8412SOL    HW333381   5.789   0.553   0.355  0.4375  1.5881  0.4695
 8412SOL    MW433382   5.874   0.533   0.348  0.3530 -0.1199 -0.3815
 8413SOL     OW33383   2.889   3.324   2.887  0.2310  0.2727 -0.0437
 8413SOL    HW233384   2.860   3.358   2.971  2.5034  0.2380  0.8269
 8413SOL    HW333385   2.856   3.235   2.884 -0.6865  0.5885  0.3554
 8413SOL    MW433386   2.881   3.317   2.897 -0.0146 -0.3692 -0.0567
 8414SOL     OW33387   1.471   5.372   1.042 -0.0228 -0.1386 -0.4211
 8414SOL    HW233388   1.390   5.328   1.070 -0.4447  0.5746 -0.4997
 8414SOL    HW333389   1.441   5.444   0.987  0.6371  0.4982  0.0445
 8414SOL    MW433390   1.456   5.375   1.039  0.4385 -0.7478  0.5324
 8415SOL     OW33391   0.596   5.982   4.671  0.2754 -0.2283 -0.5454
 8415SOL    HW233392   0.559   5.895   4.657  1.1058 -0.9540  1.3965
 8415SOL    HW333393   0.548   6.018   4.746  1.5626 -0.0689  0.2452
 8415SOL    MW433394   0.585   5.975   4.679 -0.1632  0.0160  0.9937
 8416SOL     OW33395   1.324   3.299   1.928  0.1470  0.6330 -0.5158
 8416SOL    HW233396   1.326   3.244   2.007 -0.8588  0.2548 -0.7339
 8416SOL    HW333397   1.416   3.319   1.911  0.3954  0.6112  0.6757
 8416SOL    MW433398   1.336   3.294   1.936 -0.7083  0.4597  0.3028
 8417SOL     OW33399   4.620   5.220   1.295  0.2211 -0.1809 -0.0661
 8417SOL    HW233400   4.714   5.233   1.306  0.5305  0.4027 -2.7303
 8417SOL    HW333401   4.586   5.306   1.272 -1.0644 -0.3268  1.1193
 8417SOL    MW433402   4.628   5.233   1.294 -0.0506 -0.0359 -0.8892
 8418SOL     OW33403   1.705   1.099   6.229  0.4065  0.0693  0.0419
 8418SOL    HW233404   1.733   1.168   6.169  3.8945 -2.1434 -1.2346
 8418SOL    HW333405   1.658   1.037   6.174 -0.6163  0.2823  0.6645
 8418SOL    MW433406   1.703   1.100   6.214  0.4263  0.2910 -0.4395
 8419SOL     OW33407   0.056   3.149   3.615  0.1275  0.1936 -0.1565
 8419SOL    HW233408   0.013   3.166   3.532  0.6467 -0.6574 -0.6214
 8419SOL    HW333409   0.088   3.235   3.644 -0.7569  0.6229 -0.4184
 8419SOL    MW433410   0.055   3.163   3.608  0.5011 -0.7997 -0.0939
 8420SOL     OW33411   2.553   5.658   0.525  0.0728 -0.0856  0.0358
 8420SOL    HW233412   2.486   5.719   0.556  0.1726 -0.3133  0.7208
 8420SOL    HW333413   2.617   5.655   0.596  0.4057 -0.4768 -0.2777
 8420SOL    MW433414   2.552   5.666   0.539  0.5795 -0.0757  0.0823
 8421SOL     OW33415   1.274   5.956   2.519 -0.2921 -0.9951  0.1402
 8421SOL    HW233416   1.354   5.946   2.571 -0.9693 -1.2529  1.1570
 8421SOL    HW333417   1.273   5.879   2.462  0.0484 -1.1266  0.3065
 8421SOL    MW433418   1.284   5.944   2.518  0.2483  0.1937 -0.5889
 8422SOL     OW33419   1.441   2.073   5.413 -0.5323  0.2382 -0.1779
 8422SOL    HW233420   1.377   2.095   5.346  0.6380  0.2071 -1.3612
 8422SOL    HW333421   1.511   2.028   5.365 -0.8582 -2.2363  1.4681
 8422SOL    MW433422   1.442   2.070   5.398 -0.0879  0.3163  0.2260
 8423SOL     OW33423   1.490   0.317   3.505 -0.1468  0.4712  1.0851
 8423SOL    HW233424   1.462   0.250   3.569  1.5380 -0.1304  1.2407
 8423SOL    HW333425   1.419   0.320   3.441 -0.9885 -0.3142  1.9440
 8423SOL    MW433426   1.477   0.309   3.505  0.1267  0.2185 -0.3695
 8424SOL     OW33427   0.542   4.532   0.710  0.1750 -0.7159  0.0560
 8424SOL    HW233428   0.554   4.469   0.781  1.0007 -0.0213  0.5491
 8424SOL    HW333429   0.462   4.503   0.666 -0.8150 -0.7062  1.7488
 8424SOL    MW433430   0.533   4.520   0.713 -0.3120 -0.2412  0.3648
 8425SOL     OW33431   2.736   4.567   0.573 -0.0766  0.4601  0.2274
 8425SOL    HW233432   2.747   4.620   0.652 -2.2256  0.3293  0.6724
 8425SOL    HW333433   2.732   4.477   0.605 -1.3054  0.4324  0.0181
 8425SOL    MW433434   2.737   4.562   0.588  0.3614  0.6525 -0.0588
 8426SOL     OW33435   5.750   4.305   2.210  0.9938 -0.3751  0.6441
 8426SOL    HW233436   5.837   4.265   2.214  0.8384 -0.8337 -0.3911
 8426SOL    HW333437   5.692   4.238   2.247  1.0010 -0.2854  0.8211
 8426SOL    MW433438   5.754   4.291   2.216 -0.1266  0.2288 -0.5176
 8427SOL     OW33439   4.479   6.278   0.332 -0.0395 -0.4528  0.6688
 8427SOL    HW233440   4.433   6.357   0.360 -0.0253 -1.2524  3.2169
 8427SOL    HW333441   4.500   6.232   0.413 -0.3734 -3.2734 -0.6939
 8427SOL    MW433442   4.475   6.282   0.346  0.1576 -0.3561  0.7440
 8428SOL     OW33443   1.474   3.150   2.114 -0.4712 -0.3615 -0.0847
 8428SOL    HW233444   1.503   3.088   2.046  0.5271  0.8540 -0.8265
 8428SOL    HW333445   1.536   3.137   2.186  0.5972  0.6606 -0.7744
 8428SOL    MW433446   1.486   3.140   2.114  0.1070  0.0007 -0.2637
 8429SOL     OW33447   0.628   0.401   0.987 -0.9842  0.2430 -0.6169
 8429SOL    HW233448   0.685   0.444   1.052 -0.5289 -2.4583  0.9199
 8429SOL    HW333449   0.628   0.461   0.913  3.6506  0.6446 -0.6157
 8429SOL    MW433450   0.636   0.415   0.986  0.0924 -0.4351  0.3901
 8430SOL     OW33451   3.076   4.161   4.748  0.1261  1.0384  0.5735
 8430SOL    HW233452   3.095   4.110   4.670  3.0343  2.1159  0.4571
 8430SOL    HW333453   3.077   4.098   4.820  0.6474  0.4819  0.0862
 8430SOL    MW433454   3.079   4.146   4.747 -0.2644  0.0865  0.4940
 8431SOL     OW33455   2.465   1.171   3.827  0.7534 -0.2649 -0.2150
 8431SOL    HW233456   2.394   1.129   3.780  0.0927 -0.3508  0.8302
 8431SOL    HW333457   2.540   1.166   3.768 -0.3472  0.7603 -1.7882
 8431SOL    MW433458   2.466   1.165   3.813 -0.5425  0.0393  0.4580
 8432SOL     OW33459   1.496   3.820   2.684  0.4108 -0.1723  0.1994
 8432SOL    HW233460   1.466   3.910   2.670  1.3127  0.1938  0.5699
 8432SOL    HW333461   1.584   3.818   2.647  1.0954 -0.4098  1.7793
 8432SOL    MW433462   1.503   3.832   2.677  0.0570  0.1042  0.1796
 8433SOL     OW33463   2.310   4.852   2.084 -0.4651 -0.2746  0.1388
 8433SOL    HW233464   2.345   4.941   2.085 -0.2529 -0.3418 -0.5365
 8433SOL    HW333465   2.307   4.826   2.176 -0.1877  0.2989  0.3125
 8433SOL    MW433466   2.314   4.860   2.096  0.1095  0.1518  0.3135
 8434SOL     OW33467   4.098   2.759   3.149 -0.1318  0.6039  0.2174
 8434SOL    HW233468   4.054   2.737   3.067  0.3798 -0.1811  0.1412
 8434SOL    HW333469   4.177   2.804   3.123  0.3726 -0.2478  0.2387
 8434SOL    MW433470   4.102   2.762   3.135 -0.5942 -1.5807  0.4325
 8435SOL     OW33471   3.721   3.150   0.030  0.5763 -0.1054  0.1628
 8435SOL    HW233472   3.633   3.156  -0.006  0.1015 -0.7653  1.1499
 8435SOL    HW333473   3.743   3.240   0.056  0.5180  0.1924 -0.7802
 8435SOL    MW433474   3.712   3.163   0.029 -0.7928  0.3270 -0.7394
 8436SOL     OW33475   0.652   5.372   0.194  0.8124  0.8814  1.1481
 8436SOL    HW233476   0.575   5.397   0.142  1.6535  0.4616 -0.3679
 8436SOL    HW333477   0.690   5.454   0.224 -0.2320  1.0914  1.9560
 8436SOL    MW433478   0.647   5.386   0.191  0.1393  0.1821 -0.2269
 8437SOL     OW33479   2.485   2.755   2.318 -0.0982  0.2931 -0.0821
 8437SOL    HW233480   2.531   2.747   2.234 -0.8107  2.8045 -0.7949
 8437SOL    HW333481   2.544   2.716   2.382  2.0052  1.3421 -1.2816
 8437SOL    MW433482   2.499   2.749   2.315 -0.1219  0.0118 -0.1210
 8438SOL     OW33483   2.929   1.435   2.706 -0.0068  0.0970  0.1358
 8438SOL    HW233484   2.836   1.415   2.722  0.5610 -1.7555  1.5223
 8438SOL    HW333485   2.970   1.349   2.697  1.8813  0.8071  1.4563
 8438SOL    MW433486   2.922   1.421   2.707  0.2492 -0.3340  0.1110
 8439SOL     OW33487   5.222   5.581   2.834  0.5548  0.4278 -0.2067
 8439SOL    HW233488   5.309   5.597   2.871 -1.0346  0.9299  3.6951
 8439SOL    HW333489   5.171   5.657   2.859 -1.8286 -1.2792  0.4538
 8439SOL    MW433490   5.227   5.593   2.842  0.5583 -0.5485 -0.3744
 8440SOL     OW33491   0.916   5.538   3.577  0.9548 -0.5607 -0.2116
 8440SOL    HW233492   0.912   5.631   3.554  0.3093 -0.3942  0.5228
 8440SOL    HW333493   0.831   5.504   3.550  0.1188 -0.3393  1.8890
 8440SOL    MW433494   0.904   5.546   3.571  0.5608 -0.2347 -0.1956
 8441SOL     OW33495   1.998   1.062   1.112 -0.4126 -0.1299  0.0509
 8441SOL    HW233496   1.961   1.071   1.024 -2.8645  0.9469  1.0936
 8441SOL    HW333497   1.922   1.045   1.168  0.7343  1.5063  2.2785
 8441SOL    MW433498   1.983   1.061   1.108 -0.3556  0.4434  0.2613
 8442SOL     OW33499   6.136   3.220   6.135 -0.1402  0.1204 -0.1061
 8442SOL    HW233500   6.173   3.148   6.083 -2.4542 -0.0865 -1.6733
 8442SOL    HW333501   6.160   3.299   6.086  1.0437  0.3041  0.7399
 8442SOL    MW433502   6.144   3.221   6.121 -0.0187  0.2059  0.5657
 8443SOL     OW33503   0.342   2.791   2.457  0.1640  0.2561 -0.8546
 8443SOL    HW233504   0.292   2.864   2.422  1.4003  1.0255 -1.0600
 8443SOL    HW333505   0.284   2.715   2.447 -1.4376  1.3217  0.1087
 8443SOL    MW433506   0.328   2.790   2.451  0.2032  0.8428 -0.1285
 8444SOL     OW33507   1.067   4.641   0.114  0.2320  0.3179 -0.7265
 8444SOL    HW233508   1.076   4.626   0.208  0.8360  2.3668 -0.4197
 8444SOL    HW333509   0.973   4.649   0.100  0.0060 -1.5205 -0.6143
 8444SOL    MW433510   1.056   4.640   0.124  0.5872 -0.0118 -0.0212
 8445SOL     OW33511   2.691   0.794   1.286  0.4881 -0.1454  0.0769
 8445SOL    HW233512   2.597   0.804   1.273  0.1460 -0.6730  1.8440
 8445SOL    HW333513   2.703   0.801   1.381  2.2465 -0.0221 -0.1182
 8445SOL    MW433514   2.680   0.796   1.297  0.3617  0.3644  0.0738
 8446SOL     OW33515   4.782   2.126   6.193 -0.3061 -0.2842 -0.1903
 8446SOL    HW233516   4.703   2.176   6.173 -0.6073 -0.9615 -0.7137
 8446SOL    HW333517   4.825   2.113   6.109 -0.2514 -0.9305 -0.0684
 8446SOL    MW433518   4.777   2.131   6.180 -0.0515 -0.4848 -0.0597
 8447SOL     OW33519   2.732   2.930   0.959  0.0037 -0.0636 -0.4237
 8447SOL    HW233520   2.707   2.838   0.968 -0.5994  0.1418  0.1554
 8447SOL    HW333521   2.670   2.965   0.895  0.7695 -0.2421 -1.2855
 8447SOL    MW433522   2.720   2.922   0.952 -0.1907 -0.0329  0.0355
 8448SOL     OW33523   5.204   0.844   6.083  0.7058 -0.0741 -0.0521
 8448SOL    HW233524   5.229   0.840   6.175  0.3466 -2.0873  0.0169
 8448SOL    HW333525   5.136   0.911   6.079  0.6556 -0.0359  1.1758
 8448SOL    MW433526   5.198   0.852   6.095  0.1230  0.1776 -0.0814
 8449SOL     OW33527   2.376   5.006   4.726 -0.3180 -0.6925  0.1004
 8449SOL    HW233528   2.372   5.090   4.771  2.5154  1.3330 -3.0038
 8449SOL    HW333529   2.286   4.987   4.702 -0.8776  2.7967 -1.1723
 8449SOL    MW433530   2.364   5.014   4.729 -0.1497  0.1829 -0.1766
 8450SOL     OW33531   4.093   4.080   5.089 -0.0045  0.7357  0.4179
 8450SOL    HW233532   4.148   4.111   5.161 -0.3416  0.3160  0.8615
 8450SOL    HW333533   4.004   4.104   5.115 -0.4835 -1.9189  1.5285
 8450SOL    MW433534   4.089   4.088   5.102 -0.1878 -0.9864  0.5154
 8451SOL     OW33535   2.761   5.035   1.095 -0.1026  0.1996 -0.0192
 8451SOL    HW233536   2.828   4.973   1.123 -0.1736 -0.0804 -0.4546
 8451SOL    HW333537   2.796   5.071   1.013 -0.5981 -0.1383 -0.3830
 8451SOL    MW433538   2.775   5.032   1.088 -0.0515  0.6690 -0.3087
 8452SOL     OW33539   2.091   5.499   3.037  0.5544 -0.2944  0.2672
 8452SOL    HW233540   2.033   5.550   2.980  2.9102  0.0850 -2.0097
 8452SOL    HW333541   2.053   5.411   3.037  0.2253 -0.2151 -1.6644
 8452SOL    MW433542   2.078   5.494   3.029 -0.3990  0.3924  0.2678
 8453SOL     OW33543   6.303   3.603   3.614 -0.1166  0.2777 -0.1619
 8453SOL    HW233544   6.225   3.599   3.670  0.5277  0.8749  0.8257
 8453SOL    HW333545   6.275   3.564   3.531 -1.3651  0.1722  0.2757
 8453SOL    MW433546   6.289   3.598   3.611 -0.0371 -0.2723 -0.9817
 8454SOL     OW33547   4.543   3.627   1.925  0.1712  0.1087  0.0128
 8454SOL    HW233548   4.481   3.592   1.861 -0.0743 -0.1659  0.4012
 8454SOL    HW333549   4.551   3.719   1.902  0.6873 -0.1409 -0.9133
 8454SOL    MW433550   4.536   3.634   1.913  0.1617 -0.4185  0.0253
 8455SOL     OW33551   0.196   6.229   5.982  0.3095  0.0945  0.0955
 8455SOL    HW233552   0.285   6.227   5.945  0.6148 -1.3828  0.8293
 8455SOL    HW333553   0.210   6.253   6.074  0.4070 -3.5473  1.1789
 8455SOL    MW433554   0.210   6.232   5.989  0.4394  0.6669  0.2845
 8456SOL     OW33555   6.214   2.355   0.155  0.1183 -1.0087  0.4543
 8456SOL    HW233556   6.231   2.261   0.148 -0.5044 -1.1319  0.5911
 8456SOL    HW333557   6.158   2.375   0.080  1.2558 -0.5001 -0.2924
 8456SOL    MW433558   6.209   2.345   0.144 -0.3758 -0.2711 -0.1381
 8457SOL     OW33559   1.220   5.684   0.030  0.0575 -0.3428  0.6473
 8457SOL    HW233560   1.219   5.676  -0.065  0.9785 -0.9218  0.6666
 8457SOL    HW333561   1.289   5.748   0.048 -0.3508  0.0265  0.9141
 8457SOL    MW433562   1.229   5.691   0.020  0.3815 -0.2432 -0.1378
 8458SOL     OW33563   4.723   1.069   2.814 -0.3057  0.0647  0.2056
 8458SOL    HW233564   4.712   1.033   2.726  1.6488 -1.4953  0.5207
 8458SOL    HW333565   4.660   1.022   2.868 -0.4383 -0.0879 -0.0788
 8458SOL    MW433566   4.714   1.058   2.809  0.0085  0.7748 -0.2817
 8459SOL     OW33567   0.561   6.035   3.942  0.3833 -0.2190 -0.9145
 8459SOL    HW233568   0.514   6.108   3.902  0.8234 -0.1295 -1.2711
 8459SOL    HW333569   0.644   6.073   3.971  0.0638 -0.2682  0.1328
 8459SOL    MW433570   0.565   6.050   3.941  0.1206  0.2480  0.1072
 8460SOL     OW33571   0.569   5.656   1.021 -0.7192  0.4740  0.2758
 8460SOL    HW233572   0.537   5.743   1.045  0.0037  0.0656  3.1091
 8460SOL    HW333573   0.558   5.604   1.101  1.1891 -1.3449 -0.5581
 8460SOL    MW433574   0.563   5.661   1.035 -0.3838  0.4094 -0.3226
 8461SOL     OW33575   4.834   1.376   0.520  0.3143 -0.0145 -0.1567
 8461SOL    HW233576   4.823   1.390   0.614 -0.4249 -0.1702 -0.2122
 8461SOL    HW333577   4.746   1.388   0.484  0.7532  0.9229 -0.9460
 8461SOL    MW433578   4.821   1.379   0.528 -0.0662  0.2922 -0.0592
 8462SOL     OW33579   4.871   4.872   2.680 -0.6821  0.3589 -0.0130
 8462SOL    HW233580   4.918   4.937   2.732  0.4000 -0.5401  0.1745
 8462SOL    HW333581   4.905   4.883   2.591 -2.6187  1.9775 -0.6040
 8462SOL    MW433582   4.882   4.882   2.675 -0.4947 -0.1491 -0.3900
 8463SOL     OW33583   3.555   2.596   6.188 -0.1597 -0.2303  0.1969
 8463SOL    HW233584   3.562   2.520   6.130 -4.1323  1.8570 -3.7023
 8463SOL    HW333585   3.492   2.569   6.255 -0.0476 -0.9601  0.0165
 8463SOL    MW433586   3.547   2.582   6.189  0.2697 -0.4638 -0.2579
 8464SOL     OW33587   5.020   5.491   3.060  0.3301 -0.6857 -0.0084
 8464SOL    HW233588   4.988   5.560   3.118 -0.5356  0.4184 -1.6992
 8464SOL    HW333589   5.101   5.527   3.022 -0.4783 -0.2812 -1.4022
 8464SOL    MW433590   5.027   5.505   3.063 -0.0669  0.2733  0.3734
 8465SOL     OW33591   2.575   1.561   0.039 -0.1667  0.0452  0.4136
 8465SOL    HW233592   2.586   1.546  -0.055 -0.5833  0.8511  0.2300
 8465SOL    HW333593   2.651   1.518   0.079 -0.3500 -0.8943 -0.2307
 8465SOL    MW433594   2.586   1.553   0.032 -0.4039 -0.1423  0.2640
 8466SOL     OW33595   3.099   3.506   2.099 -0.4282  0.1790 -1.0236
 8466SOL    HW233596   3.132   3.540   2.015 -1.2433 -1.5990 -2.1196
 8466SOL    HW333597   3.006   3.528   2.100 -0.2101  1.1587 -0.0407
 8466SOL    MW433598   3.091   3.513   2.088 -0.4022 -0.1895 -0.3896
 8467SOL     OW33599   3.277   0.721   1.310 -0.3277  0.3497 -0.0342
 8467SOL    HW233600   3.243   0.653   1.368 -1.7686  0.4858 -0.6734
 8467SOL    HW333601   3.201   0.777   1.292  0.5201  1.3547 -0.5862
 8467SOL    MW433602   3.262   0.720   1.315  0.0655 -0.7547  0.2815
 8468SOL     OW33603   4.248   2.160   1.715 -0.5892  0.1958  0.4328
 8468SOL    HW233604   4.234   2.170   1.621 -1.0575 -0.1294  0.4652
 8468SOL    HW333605   4.180   2.099   1.743 -0.4786  0.3246  0.9925
 8468SOL    MW433606   4.237   2.153   1.706  0.3657  0.4888 -0.3666
 8469SOL     OW33607   1.567   1.215   2.383  0.3166 -0.2234 -0.5547
 8469SOL    HW233608   1.560   1.290   2.324  0.5077 -0.2873 -0.6594
 8469SOL    HW333609   1.499   1.229   2.448  0.4898  0.1507 -0.4524
 8469SOL    MW433610   1.557   1.226   2.384 -0.4553  0.5968 -0.7267
 8470SOL     OW33611   4.994   3.344   2.312 -0.1875  0.3316 -0.3503
 8470SOL    HW233612   4.931   3.386   2.253 -0.2022  1.4391  0.4162
 8470SOL    HW333613   5.079   3.364   2.274 -0.2590 -0.4588 -0.9395
 8470SOL    MW433614   4.997   3.353   2.299  0.4474 -0.6600 -0.2107
 8471SOL     OW33615   1.388   1.988   0.392 -0.4597 -0.3394  0.1313
 8471SOL    HW233616   1.397   2.045   0.468 -1.1557 -0.1916  0.1094
 8471SOL    HW333617   1.354   1.905   0.427  2.1850 -1.3792  0.4115
 8471SOL    MW433618   1.384   1.985   0.407  1.0678 -0.2434  0.0626
 8472SOL     OW33619   6.052   5.058   0.605 -0.1341 -0.6555 -0.5641
 8472SOL    HW233620   6.054   5.149   0.574 -2.8285 -1.2021 -2.6799
 8472SOL    HW333621   6.122   5.015   0.556  0.5403  0.0418 -0.2466
 8472SOL    MW433622   6.062   5.065   0.594 -0.4753 -0.2161  0.4179
 8473SOL     OW33623   1.156   2.846   1.894 -0.2117 -0.5093  1.0104
 8473SOL    HW233624   1.135   2.754   1.878  0.7956 -0.4970 -0.5955
 8473SOL    HW333625   1.217   2.844   1.968  1.7094 -1.4062 -0.5009
 8473SOL    MW433626   1.161   2.833   1.902  0.2184 -0.1584 -0.2663
 8474SOL     OW33627   3.717   5.537   4.942 -0.2238 -0.7016  0.3383
 8474SOL    HW233628   3.791   5.480   4.920  0.7726  1.3727 -2.1590
 8474SOL    HW333629   3.640   5.483   4.923  0.6333 -0.7744 -4.2852
 8474SOL    MW433630   3.716   5.522   4.936 -0.3890 -0.1674  0.3765
 8475SOL     OW33631   4.616   5.410   4.149  0.3286  0.0298 -0.3499
 8475SOL    HW233632   4.537   5.356   4.158 -0.7461  1.7106  0.9439
 8475SOL    HW333633   4.611   5.446   4.061 -1.2588  1.3553  0.2237
 8475SOL    MW433634   4.605   5.408   4.139  0.4256  0.1749  0.0463
 8476SOL     OW33635   0.731   2.230   2.477  0.2734  0.2769  0.4285
 8476SOL    HW233636   0.640   2.247   2.503  0.5553  1.7129  0.5576
 8476SOL    HW333637   0.743   2.284   2.398  1.0005  0.0727  0.3940
 8476SOL    MW433638   0.721   2.240   2.470  0.1121  0.0358 -0.4951
 8477SOL     OW33639   0.827   1.875   4.051  0.1386  0.6928 -0.1671
 8477SOL    HW233640   0.891   1.804   4.047  1.1438  1.6015 -0.3997
 8477SOL    HW333641   0.753   1.837   4.098  1.4390  0.0816  1.4628
 8477SOL    MW433642   0.826   1.861   4.056  0.7601 -0.2618 -0.2352
 8478SOL     OW33643   4.903   5.822   1.477  0.4028 -0.1282  0.0736
 8478SOL    HW233644   4.834   5.790   1.536  0.8786 -2.4986 -0.5774
 8478SOL    HW333645   4.983   5.817   1.529  0.8103 -2.1404 -0.6641
 8478SOL    MW433646   4.905   5.817   1.492 -0.1031  0.1662 -0.2639
 8479SOL     OW33647   6.389   0.141   0.311  0.0533 -0.4293 -0.1038
 8479SOL    HW233648   6.358   0.121   0.399 -0.0459  1.4521  0.3405
 8479SOL    HW333649   6.479   0.170   0.324 -0.7256  2.3111 -0.2050
 8479SOL    MW433650   6.397   0.142   0.324 -0.0507  0.3791 -0.0890
 8480SOL     OW33651   2.910   1.876   4.890  0.3830 -0.6130  0.2455
 8480SOL    HW233652   2.993   1.901   4.929  0.2456 -0.9256  0.7488
 8480SOL    HW333653   2.844   1.922   4.942  0.1424 -1.7851  1.0079
 8480SOL    MW433654   2.912   1.885   4.902  0.7752  0.1227 -0.8345
 8481SOL     OW33655   6.253   0.510   3.165 -0.3625  0.3148 -1.1802
 8481SOL    HW233656   6.200   0.564   3.224 -0.6658 -0.3977 -0.7871
 8481SOL    HW333657   6.230   0.540   3.078 -0.3491  0.9832 -0.9575
 8481SOL    MW433658   6.243   0.521   3.162  0.0870  0.2652  0.1832
 8482SOL     OW33659   6.204   1.099   4.504  0.2148  0.4431 -0.0560
 8482SOL    HW233660   6.269   1.157   4.544  0.0157 -0.1107  1.0946
 8482SOL    HW333661   6.222   1.013   4.542 -0.6047  0.0977 -0.4337
 8482SOL    MW433662   6.215   1.096   4.514  0.6574 -0.0501  0.1742
 8483SOL     OW33663   0.834   5.643   1.062  0.4042  0.1157  0.2310
 8483SOL    HW233664   0.866   5.629   0.973  0.4923  0.5859  0.1847
 8483SOL    HW333665   0.741   5.662   1.051  0.5586  0.8664  0.1722
 8483SOL    MW433666   0.826   5.644   1.049  0.0871 -1.2713  0.6249
 8484SOL     OW33667   3.061   3.780   4.191 -0.1624  0.1037  0.4986
 8484SOL    HW233668   3.042   3.870   4.166  0.0921  0.6483  2.1558
 8484SOL    HW333669   2.981   3.749   4.233  0.0615 -0.1409  0.7483
 8484SOL    MW433670   3.048   3.788   4.193 -0.0045  0.4559  0.4079
 8485SOL     OW33671   3.372   4.781   1.613 -0.0391  0.2236 -0.2787
 8485SOL    HW233672   3.412   4.814   1.693 -0.1786  1.5078 -0.7300
 8485SOL    HW333673   3.299   4.840   1.595 -1.4562 -1.3890 -0.1177
 8485SOL    MW433674   3.368   4.793   1.621 -0.2203  0.0543 -0.4637
 8486SOL     OW33675   4.977   2.784   1.200  0.5363  0.0079 -0.0142
 8486SOL    HW233676   5.017   2.701   1.229 -0.7059 -0.2395  1.0940
 8486SOL    HW333677   4.883   2.771   1.213  0.3266  1.6549  0.3233
 8486SOL    MW433678   4.970   2.771   1.206  0.2614 -0.5036  0.1414
 8487SOL     OW33679   5.156   2.162   1.166  0.2728 -0.4499  0.1899
 8487SOL    HW233680   5.145   2.141   1.073 -1.0989 -0.0521  0.2304
 8487SOL    HW333681   5.067   2.154   1.202  0.7890 -0.5777  1.4618
 8487SOL    MW433682   5.143   2.158   1.159 -0.3286 -0.0104  0.3588
 8488SOL     OW33683   3.233   4.200   6.352  0.2727 -0.3171 -0.5509
 8488SOL    HW233684   3.162   4.143   6.382  1.2330 -0.8413  0.8745
 8488SOL    HW333685   3.225   4.279   6.406 -0.1829  0.3168 -1.5174
 8488SOL    MW433686   3.223   4.203   6.363  0.4167  0.1855 -0.6663
 8489SOL     OW33687   0.299   0.965   0.504  0.0959 -0.1833 -0.2488
 8489SOL    HW233688   0.260   1.049   0.530  0.6510  0.6941 -2.0884
 8489SOL    HW333689   0.393   0.982   0.503  0.2942 -1.1608  0.3679
 8489SOL    MW433690   0.306   0.979   0.507 -0.1329  0.4808  0.6695
 8490SOL     OW33691   5.888   5.100   1.135 -0.3101 -0.6083  0.0471
 8490SOL    HW233692   5.965   5.112   1.079 -1.4610 -0.1120 -1.5136
 8490SOL    HW333693   5.891   5.174   1.196  0.8203 -0.9944  0.4804
 8490SOL    MW433694   5.899   5.111   1.136 -0.3456  0.2411 -0.3689
 8491SOL     OW33695   4.388   0.922   0.632  0.9682 -0.1438  0.3042
 8491SOL    HW233696   4.464   0.864   0.619 -0.0029 -1.8015  1.6589
 8491SOL    HW333697   4.312   0.866   0.615  0.0020  1.0427  0.5914
 8491SOL    MW433698   4.388   0.907   0.628 -0.5535  0.3985  0.3659
 8492SOL     OW33699   2.475   5.405   3.588 -0.3160  0.5944  0.4385
 8492SOL    HW233700   2.437   5.318   3.582  0.0948  0.4892 -0.7445
 8492SOL    HW333701   2.525   5.404   3.670  0.0441 -0.4132  0.2089
 8492SOL    MW433702   2.476   5.394   3.598  0.0031 -0.3103 -0.4623
 8493SOL     OW33703   6.370   2.496   1.465  0.0531  0.1313  0.2653
 8493SOL    HW233704   6.294   2.440   1.482  0.7431 -0.8271  0.2750
 8493SOL    HW333705   6.401   2.520   1.552 -0.5568  0.9838  0.2581
 8493SOL    MW433706   6.364   2.491   1.479 -0.6215 -0.0833  0.6141
 8494SOL     OW33707   6.289   3.099   4.809 -0.2842  0.2591 -0.0264
 8494SOL    HW233708   6.370   3.047   4.812  0.6386  1.6860  0.7442
 8494SOL    HW333709   6.269   3.119   4.900 -0.4157  1.5320 -0.3096
 8494SOL    MW433710   6.297   3.095   4.821 -0.0684  0.2151  0.0328
 8495SOL     OW33711   1.862   5.459   4.379 -0.0221  0.5473 -0.2402
 8495SOL    HW233712   1.942   5.453   4.431 -1.1047 -0.0733  1.4533
 8495SOL    HW333713   1.880   5.409   4.300  0.3554 -2.0170  1.3680
 8495SOL    MW433714   1.875   5.452   4.376 -0.0102  0.3603 -0.2228
 8496SOL     OW33715   0.232   6.030   5.151 -0.5760 -0.2445 -0.2249
 8496SOL    HW233716   0.281   5.950   5.169 -1.1550 -0.8327 -1.2008
 8496SOL    HW333717   0.155   6.023   5.208  0.2091  0.4598  0.9648
 8496SOL    MW433718   0.228   6.018   5.161 -0.1110  0.2182 -1.0218
 8497SOL     OW33719   3.281   3.996   5.631  0.3150 -0.1482  0.2609
 8497SOL    HW233720   3.306   4.014   5.721  1.4126 -0.9148  0.1300
 8497SOL    HW333721   3.362   3.969   5.588 -0.3065 -0.4048 -0.7969
 8497SOL    MW433722   3.295   3.995   5.637  0.4405 -0.0349 -0.4246
 8498SOL     OW33723   2.358   5.783   4.765 -0.4445  0.2938 -0.0940
 8498SOL    HW233724   2.379   5.744   4.681  0.6656  0.1135  0.2466
 8498SOL    HW333725   2.374   5.877   4.753 -1.0730  0.3826 -0.3023
 8498SOL    MW433726   2.363   5.790   4.752 -0.2122  0.1411  0.4374
 8499SOL     OW33727   5.777   0.983   2.569 -0.0394  0.1810 -0.1671
 8499SOL    HW233728   5.793   0.890   2.551 -2.1800 -0.6887  1.8358
 8499SOL    HW333729   5.814   0.997   2.656  0.1874  1.1873 -0.4171
 8499SOL    MW433730   5.784   0.973   2.578 -0.1085  0.4930  0.1869
 8500SOL     OW33731   2.421   1.069   4.133  0.0870 -0.2933  0.0878
 8500SOL    HW233732   2.467   1.102   4.210  2.7807 -0.9187 -1.1138
 8500SOL    HW333733   2.473   1.100   4.059 -1.6794 -0.7866 -1.4464
 8500SOL    MW433734   2.434   1.078   4.133 -0.1911 -0.5126  0.0706
 8501SOL     OW33735   3.761   0.320   0.000  0.3821  0.2434  0.2584
 8501SOL    HW233736   3.790   0.295   0.087 -1.0080  0.7583  0.9042
 8501SOL    HW333737   3.836   0.364  -0.039  1.3382 -0.8586  0.8155
 8501SOL    MW433738   3.775   0.322   0.006 -0.1448  0.1048 -0.9807
 8502SOL     OW33739   6.147   0.895   0.253 -0.0769  0.3805 -0.2233
 8502SOL    HW233740   6.126   0.864   0.341 -0.8417  0.9188 -0.1970
 8502SOL    HW333741   6.187   0.981   0.266 -0.5846  0.6528 -0.4092
 8502SOL    MW433742   6.149   0.902   0.266  0.2235 -0.0049  0.5844
 8503SOL     OW33743   3.830   3.754   5.646 -0.4400 -0.5731 -0.1222
 8503SOL    HW233744   3.749   3.781   5.687 -0.0832  0.0985  0.1620
 8503SOL    HW333745   3.814   3.764   5.552 -1.4273 -2.5984 -0.2179
 8503SOL    MW433746   3.817   3.759   5.639 -0.2053  0.3742  0.2647
 8504SOL     OW33747   5.127   2.225   5.896 -0.3957  0.7740 -0.2731
 8504SOL    HW233748   5.147   2.284   5.969 -1.1381 -0.2672  0.8117
 8504SOL    HW333749   5.062   2.164   5.932  1.9800 -2.1786 -0.6085
 8504SOL    MW433750   5.121   2.225   5.910  0.9287  0.3689  0.0303
 8505SOL     OW33751   6.354   3.545   0.496  0.5673  0.1115  0.1615
 8505SOL    HW233752   6.414   3.488   0.545  0.1569 -0.5340 -0.0657
 8505SOL    HW333753   6.273   3.494   0.491  0.6118  0.1497 -1.2193
 8505SOL    MW433754   6.351   3.531   0.502  0.0750  0.1400  0.3667
 8506SOL     OW33755   6.363   0.347   0.052  0.5714 -0.8740  0.5351
 8506SOL    HW233756   6.351   0.409   0.124  0.2742  0.7529 -0.8547
 8506SOL    HW333757   6.288   0.288   0.057  1.0831 -1.4308  2.1358
 8506SOL    MW433758   6.352   0.348   0.062  0.0898 -0.3730 -0.3621
 8507SOL     OW33759   3.518   1.920   0.081 -0.2666  0.2544 -0.4554
 8507SOL    HW233760   3.574   1.963   0.017 -0.8060  1.0705 -0.3890
 8507SOL    HW333761   3.574   1.908   0.158  0.2368 -0.2859 -0.8972
 8507SOL    MW433762   3.533   1.924   0.083  0.0086 -0.1501  0.4088
 8508SOL     OW33763   3.958   6.390   2.043 -0.0924  0.1111  0.1870
 8508SOL    HW233764   3.894   6.435   2.099 -0.6202  1.0628 -1.1523
 8508SOL    HW333765   4.000   6.327   2.102 -1.8013 -0.0991  1.2639
 8508SOL    MW433766   3.955   6.388   2.058 -0.0420 -1.0754 -0.1666
 8509SOL     OW33767   4.849   4.873   3.128 -0.2106 -0.2136 -0.5408
 8509SOL    HW233768   4.789   4.872   3.053 -0.5415 -1.6443 -0.2986
 8509SOL    HW333769   4.936   4.872   3.089 -0.3162  1.6855 -0.8956
 8509SOL    MW433770   4.852   4.873   3.113  0.1548  0.0773 -0.0556
 8510SOL     OW33771   2.243   4.780   1.174  0.7740  0.0430  0.3376
 8510SOL    HW233772   2.284   4.852   1.222 -0.0838  2.5391 -2.4232
 8510SOL    HW333773   2.308   4.756   1.108  1.2120 -2.1112  1.4486
 8510SOL    MW433774   2.257   4.786   1.172 -0.6943  0.3640 -0.3644
 8511SOL     OW33775   1.988   4.652   0.457  0.1661  0.3884 -0.0539
 8511SOL    HW233776   2.080   4.644   0.432  0.3617  0.0320  0.7632
 8511SOL    HW333777   1.941   4.655   0.374  1.0069  1.7780 -0.5198
 8511SOL    MW433778   1.994   4.652   0.443 -0.0430  0.4148 -0.2588
 8512SOL     OW33779   5.121   4.238   4.017 -0.2261  0.6663  0.0020
 8512SOL    HW233780   5.144   4.176   4.086 -0.1072  0.9438  0.2170
 8512SOL    HW333781   5.158   4.322   4.047  0.9805  0.5302 -1.0168
 8512SOL    MW433782   5.129   4.241   4.030 -0.1483 -0.3778 -0.3653
 8513SOL     OW33783   1.563   4.575   5.056  0.4890  0.2446  0.2495
 8513SOL    HW233784   1.593   4.600   5.144 -1.1387  2.2345  0.3208
 8513SOL    HW333785   1.483   4.627   5.042 -0.1385 -1.1370 -1.8318
 8513SOL    MW433786   1.556   4.585   5.066 -0.0109 -0.3163 -0.2116
 8514SOL     OW33787   4.562   3.919   1.934 -0.4180 -0.0405  0.3073
 8514SOL    HW233788   4.527   3.966   1.858 -0.7249  1.7111  1.4782
 8514SOL    HW333789   4.487   3.910   1.993  0.5149  1.7666  1.8845
 8514SOL    MW433790   4.548   3.924   1.931  0.2548 -0.1913  0.3030
 8515SOL     OW33791   0.291   1.146   6.217  0.0665  0.4229  0.5076
 8515SOL    HW233792   0.297   1.085   6.143 -3.3716 -1.1256  1.3200
 8515SOL    HW333793   0.316   1.094   6.293  1.8288  1.5072  0.7305
 8515SOL    MW433794   0.295   1.131   6.217 -0.0328 -0.2341  0.1168
 8516SOL     OW33795   5.033   3.887   1.640  0.0827 -0.3609  0.1287
 8516SOL    HW233796   4.996   3.881   1.728 -0.2302 -1.9646 -0.0737
 8516SOL    HW333797   5.121   3.921   1.653 -0.2032  0.0877  0.9860
 8516SOL    MW433798   5.040   3.891   1.653  0.3801  0.1768 -0.5292
 8517SOL     OW33799   2.989   4.077   4.128  0.2931 -0.4162  0.2061
 8517SOL    HW233800   2.944   4.104   4.047  0.5611 -2.0277 -0.5066
 8517SOL    HW333801   3.078   4.111   4.118  0.9117 -2.2816 -1.1325
 8517SOL    MW433802   2.995   4.085   4.116  0.4117 -0.0387 -0.1002
 8518SOL     OW33803   1.868   4.029   5.873 -0.4249  0.3195 -0.2528
 8518SOL    HW233804   1.944   4.062   5.920  0.5489  0.6788 -1.9751
 8518SOL    HW333805   1.838   4.103   5.820 -1.9413  0.1569  0.3161
 8518SOL    MW433806   1.874   4.043   5.872 -0.1069 -0.2169  0.3480
 8519SOL     OW33807   3.585   1.714   0.745  0.4012  0.0733 -0.4480
 8519SOL    HW233808   3.560   1.669   0.825 -0.0860  1.7674  0.3923
 8519SOL    HW333809   3.643   1.784   0.773  1.4248 -0.1975 -1.7547
 8519SOL    MW433810   3.589   1.717   0.759 -0.3648 -0.7300 -0.0774
 8520SOL     OW33811   6.303   1.268   0.531 -0.2725 -0.3228  0.3552
 8520SOL    HW233812   6.327   1.348   0.483  1.7336  0.3881  2.3800
 8520SOL    HW333813   6.260   1.300   0.610  0.7216 -1.1901  1.2806
 8520SOL    MW433814   6.301   1.283   0.535 -0.0838 -0.2980  0.3091
 8521SOL     OW33815   5.327   0.617   1.117 -0.2013  0.0200  0.4493
 8521SOL    HW233816   5.306   0.710   1.103  0.8095  0.1679 -0.1628
 8521SOL    HW333817   5.394   0.619   1.186  0.5018 -0.1760 -0.2126
 8521SOL    MW433818   5.333   0.630   1.124  0.0883 -0.2444 -0.2469
 8522SOL     OW33819   1.220   5.535   1.120  0.8026  0.4771 -0.9351
 8522SOL    HW233820   1.168   5.469   1.166  0.5195 -0.5614 -2.6491
 8522SOL    HW333821   1.299   5.545   1.173  0.5558 -0.7506 -0.3001
 8522SOL    MW433822   1.224   5.528   1.133 -0.1125  0.1506  0.0894
 8523SOL     OW33823   4.974   2.453   4.888  0.3412 -0.5729  0.2915
 8523SOL    HW233824   5.007   2.395   4.956 -1.4951 -1.3552  0.5920
 8523SOL    HW333825   4.919   2.397   4.833 -1.1316  0.7511  0.3213
 8523SOL    MW433826   4.971   2.438   4.890 -0.0578  0.6821  0.3373
 8524SOL     OW33827   6.267   3.651   2.750  0.4114  0.1854  0.1204
 8524SOL    HW233828   6.233   3.740   2.740  3.2875  1.3179 -0.3698
 8524SOL    HW333829   6.263   3.614   2.662  0.7872  0.4561 -0.0125
 8524SOL    MW433830   6.262   3.658   2.737  0.1557 -0.4047  0.1863
 8525SOL     OW33831   4.140   4.011   3.548  0.5005  0.0912 -0.2679
 8525SOL    HW233832   4.222   3.965   3.529  0.5303 -0.8001  1.7241
 8525SOL    HW333833   4.106   3.968   3.627 -1.6327  0.7859 -0.7382
 8525SOL    MW433834   4.147   3.999   3.556 -0.5152  0.2562  0.1548
 8526SOL     OW33835   3.924   3.492   1.060  0.2082 -0.2710  0.0663
 8526SOL    HW233836   3.948   3.486   1.153 -1.0292  0.7355  0.4858
 8526SOL    HW333837   4.003   3.524   1.017  0.1899  1.3734  1.1435
 8526SOL    MW433838   3.937   3.495   1.067 -0.0575 -0.4904 -0.4103
 8527SOL     OW33839   0.966   1.623   5.606 -0.0937  0.4071 -0.0759
 8527SOL    HW233840   0.942   1.711   5.577 -0.8609 -0.2695 -1.6091
 8527SOL    HW333841   1.045   1.603   5.557  0.6389  0.5795  0.9931
 8527SOL    MW433842   0.973   1.632   5.596  0.3348  0.2746 -0.1455
 8528SOL     OW33843   4.193   5.466   1.792  0.3366 -0.3426 -0.1211
 8528SOL    HW233844   4.190   5.550   1.748  0.6550  0.0149  0.5307
 8528SOL    HW333845   4.104   5.430   1.781  0.3724 -0.1987 -0.9157
 8528SOL    MW433846   4.181   5.472   1.785 -0.0247  0.5958 -0.0264
 8529SOL     OW33847   5.992   4.409   3.999 -0.0618  0.0750  0.1096
 8529SOL    HW233848   6.037   4.448   4.074 -2.3310 -0.4706  1.8763
 8529SOL    HW333849   5.932   4.477   3.969  0.1699 -0.0405 -0.6214
 8529SOL    MW433850   5.990   4.423   4.005 -0.3632  0.6380 -0.1727
 8530SOL     OW33851   6.417   2.363   5.744  0.5415  0.0515 -0.6095
 8530SOL    HW233852   6.466   2.386   5.665  1.7237  1.8932  0.5855
 8530SOL    HW333853   6.360   2.438   5.759 -0.5810 -0.8315 -0.3822
 8530SOL    MW433854   6.416   2.376   5.735  0.5174  0.4616  0.3190
 8531SOL     OW33855   3.055   1.485   0.910 -0.2967  0.7389  0.3387
 8531SOL    HW233856   3.106   1.525   0.839 -0.4125 -0.4664 -0.4532
 8531SOL    HW333857   3.104   1.406   0.933 -0.9544  0.4290  0.7012
 8531SOL    MW433858   3.068   1.480   0.904 -0.3319  0.3552 -0.1365
 8532SOL     OW33859   0.610   2.123   3.267 -0.1213 -0.4312 -0.0692
 8532SOL    HW233860   0.605   2.027   3.270 -0.2073 -0.4589 -0.8742
 8532SOL    HW333861   0.678   2.141   3.202 -1.5476  0.0596 -1.4647
 8532SOL    MW433862   0.618   2.113   3.259 -0.0809  0.0655  0.2115
 8533SOL     OW33863   6.267   0.167   2.886 -0.5916 -0.1950  0.1826
 8533SOL    HW233864   6.215   0.245   2.864 -0.9585 -0.7424 -0.9712
 8533SOL    HW333865   6.225   0.096   2.838 -0.1671 -1.0902  1.1092
 8533SOL    MW433866   6.255   0.168   2.877 -0.4544  0.5365  0.2192
 8534SOL     OW33867   0.994   1.907   5.795 -0.0483 -0.0694  0.2712
 8534SOL    HW233868   1.069   1.918   5.737 -0.5919 -0.5165 -0.5439
 8534SOL    HW333869   1.032   1.902   5.883  0.9575 -1.1109 -0.1888
 8534SOL    MW433870   1.009   1.908   5.799 -0.6747  0.2312 -0.6331
 8535SOL     OW33871   1.868   6.409   3.677  0.2978 -0.2739 -0.0142
 8535SOL    HW233872   1.818   6.341   3.633 -0.9901  0.1841  0.7115
 8535SOL    HW333873   1.888   6.472   3.607 -0.5268 -0.2356 -0.2186
 8535SOL    MW433874   1.864   6.409   3.662 -0.3639  0.7937  0.1706
 8536SOL     OW33875   3.800   2.017   3.641  0.0574  0.0084  0.1035
 8536SOL    HW233876   3.757   2.028   3.556 -1.8593  1.2763  1.1643
 8536SOL    HW333877   3.758   1.940   3.679  0.8009 -0.4634 -0.0133
 8536SOL    MW433878   3.789   2.008   3.635 -0.1761 -0.5392 -0.1036
 8537SOL     OW33879   5.092   5.422   1.493  0.5703 -0.1076  0.7106
 8537SOL    HW233880   5.134   5.355   1.439 -1.4303 -0.6606 -0.2747
 8537SOL    HW333881   5.025   5.460   1.435  0.5820  1.6400  1.7708
 8537SOL    MW433882   5.089   5.418   1.478 -0.7497  0.4629  0.1001
 8538SOL     OW33883   4.632   6.272   2.965  0.1464  0.6968  0.3475
 8538SOL    HW233884   4.685   6.310   3.036 -0.0712  0.0057  0.8923
 8538SOL    HW333885   4.546   6.258   3.005  0.3654 -0.8512  0.3230
 8538SOL    MW433886   4.627   6.275   2.980 -0.2324 -0.0526  0.6663
 8539SOL     OW33887   1.334   2.805   3.559 -0.4622 -0.6173 -0.5459
 8539SOL    HW233888   1.386   2.728   3.581 -1.2235 -0.2081  3.3424
 8539SOL    HW333889   1.399   2.870   3.532  0.5238 -1.6241 -0.6732
 8539SOL    MW433890   1.349   2.803   3.558 -0.2902 -0.6187 -0.1127
 8540SOL     OW33891   3.986   5.876   2.455 -0.1712  0.5770  0.1940
 8540SOL    HW233892   3.978   5.968   2.480 -1.3633  0.3002  0.8958
 8540SOL    HW333893   3.909   5.834   2.493 -0.5867 -0.3952 -1.6276
 8540SOL    MW433894   3.975   5.883   2.464  0.4688  0.3134 -0.2527
 8541SOL     OW33895   4.812   1.074   6.423  0.7619 -0.5197 -0.4090
 8541SOL    HW233896   4.802   1.057   6.330 -0.0583 -0.7779 -0.2753
 8541SOL    HW333897   4.817   1.170   6.429 -0.1082 -0.4538 -0.6333
 8541SOL    MW433898   4.811   1.084   6.412  0.4343  0.2081 -0.2689
 8542SOL     OW33899   4.171   3.104   0.504  0.1825  0.1623  0.2463
 8542SOL    HW233900   4.116   3.056   0.443  1.7454 -0.0569 -1.0740
 8542SOL    HW333901   4.171   3.194   0.471  0.4632  0.2005  0.3459
 8542SOL    MW433902   4.164   3.110   0.492  0.1379 -0.1895 -0.2284
 8543SOL     OW33903   2.656   3.834   1.124  0.0015 -0.0391 -0.9102
 8543SOL    HW233904   2.584   3.886   1.160 -0.4214 -0.3626 -1.2878
 8543SOL    HW333905   2.633   3.744   1.145  1.1438 -0.0513  0.4899
 8543SOL    MW433906   2.644   3.829   1.132  0.3094 -0.3710 -0.0168
 8544SOL     OW33907   2.139   6.130   4.707 -0.3047  0.1081  0.7029
 8544SOL    HW233908   2.151   6.221   4.682 -0.7963  0.2941  1.1238
 8544SOL    HW333909   2.047   6.124   4.733 -1.1265 -1.2018 -2.1685
 8544SOL    MW433910   2.129   6.141   4.707  0.2630  0.4049 -0.2984
 8545SOL     OW33911   1.293   5.971   2.028 -0.2622  0.1722  0.2406
 8545SOL    HW233912   1.263   6.020   1.951 -3.1883 -0.8470  0.6245
 8545SOL    HW333913   1.255   5.884   2.017  1.0003 -0.6314  1.8630
 8545SOL    MW433914   1.284   5.966   2.016  0.3096  0.6142  0.0858
 8546SOL     OW33915   1.362   2.655   6.254  0.1890  0.6849 -0.1881
 8546SOL    HW233916   1.438   2.712   6.263  0.2385  0.4345  1.0290
 8546SOL    HW333917   1.356   2.638   6.160  2.0194  0.1840 -0.2438
 8546SOL    MW433918   1.371   2.660   6.243 -0.3181  0.0428  0.4514
 8547SOL     OW33919   5.421   1.212   6.182  0.1873  0.3912  0.4859
 8547SOL    HW233920   5.338   1.227   6.137  0.3840  1.6776  0.5150
 8547SOL    HW333921   5.396   1.188   6.271 -0.1708  2.0505  0.8659
 8547SOL    MW433922   5.407   1.211   6.188 -0.2216 -0.0363  0.6369
 8548SOL     OW33923   2.842   0.231   2.905 -0.1755 -0.3028  0.2682
 8548SOL    HW233924   2.850   0.209   2.813 -0.7775 -0.3804  0.2251
 8548SOL    HW333925   2.830   0.326   2.907 -0.5962 -0.3510  0.2283
 8548SOL    MW433926   2.841   0.241   2.893  0.0472 -0.2099 -0.0242
 8549SOL     OW33927   2.099   2.019   4.900 -0.2245  0.8231 -0.1841
 8549SOL    HW233928   2.181   2.064   4.918 -0.1758  0.9183 -0.6360
 8549SOL    HW333929   2.031   2.084   4.921 -0.2017  0.6232  0.5378
 8549SOL    MW433930   2.101   2.034   4.905  0.3927 -0.0244 -0.0505
 8550SOL     OW33931   5.492   4.967   4.642 -0.4389 -0.2810 -0.4350
 8550SOL    HW233932   5.524   5.037   4.699 -0.7336 -1.6815  1.5507
 8550SOL    HW333933   5.571   4.925   4.609 -0.2230  1.6252 -2.6249
 8550SOL    MW433934   5.506   4.971   4.645  0.8196 -0.5188 -0.0845
 8551SOL     OW33935   0.150   1.747   4.773 -0.7475 -0.0372 -0.2884
 8551SOL    HW233936   0.089   1.714   4.839 -0.6701 -0.4395 -0.4106
 8551SOL    HW333937   0.182   1.668   4.729 -0.0562  0.1654 -0.1569
 8551SOL    MW433938   0.146   1.732   4.776 -0.0231  0.7614 -0.0739
 8552SOL     OW33939   5.732   2.757   2.538  0.0647 -0.4859 -0.1933
 8552SOL    HW233940   5.749   2.745   2.444  1.6810 -2.5698  0.2941
 8552SOL    HW333941   5.709   2.669   2.569  1.2804 -0.1947  1.6565
 8552SOL    MW433942   5.731   2.744   2.530  0.3225  0.5305  0.0883
 8553SOL     OW33943   4.166   3.509   4.079  0.4612  0.0932 -0.2990
 8553SOL    HW233944   4.188   3.416   4.091 -1.9183 -0.2907  1.8519
 8553SOL    HW333945   4.251   3.553   4.072  1.7226 -1.9828  0.8696
 8553SOL    MW433946   4.180   3.502   4.079 -0.4014  0.1112 -0.2474
 8554SOL     OW33947   6.142   2.390   5.216  0.2615 -0.1650  0.3067
 8554SOL    HW233948   6.234   2.415   5.201 -0.2070  1.2888 -0.3544
 8554SOL    HW333949   6.093   2.470   5.198 -1.1268 -0.8541  0.9261
 8554SOL    MW433950   6.148   2.404   5.211  0.4076 -0.1089 -0.3401
 8555SOL     OW33951   4.210   0.155   3.709  0.1941 -0.3594 -0.2368
 8555SOL    HW233952   4.256   0.235   3.680  0.9686  0.1600  2.2058
 8555SOL    HW333953   4.120   0.168   3.681  0.2564  1.5125  0.2916
 8555SOL    MW433954   4.204   0.167   3.701 -0.0173  0.6504  0.6112
 8556SOL     OW33955   3.275   2.581   5.186 -0.1464 -0.7277 -0.2833
 8556SOL    HW233956   3.198   2.544   5.230 -0.6313 -1.4068 -1.6129
 8556SOL    HW333957   3.240   2.652   5.132  0.4631  0.2266  0.5329
 8556SOL    MW433958   3.260   2.585   5.184  0.4524 -0.4989  0.1147
 8557SOL     OW33959   1.616   1.774   4.130  0.7368  0.4497  0.2563
 8557SOL    HW233960   1.667   1.702   4.093 -1.8177 -0.1847 -2.4033
 8557SOL    HW333961   1.548   1.729   4.181  0.2778  1.0676  0.1907
 8557SOL    MW433962   1.614   1.758   4.132  1.1263  0.8293 -0.3232
 8558SOL     OW33963   1.744   5.507   1.660  0.4273  0.3937 -0.5244
 8558SOL    HW233964   1.690   5.495   1.582 -0.9247  1.9854  0.1076
 8558SOL    HW333965   1.718   5.435   1.718 -0.9347  1.0405 -0.2956
 8558SOL    MW433966   1.734   5.496   1.658  0.3939  1.0677 -0.4112
 8559SOL     OW33967   5.402   4.025   5.850 -0.1354 -0.1511 -0.3868
 8559SOL    HW233968   5.399   4.090   5.780 -1.0433 -0.6289 -0.7969
 8559SOL    HW333969   5.446   3.950   5.811  1.6232  0.4548  0.3153
 8559SOL    MW433970   5.408   4.024   5.835  0.0907  1.0250 -0.4757
 8560SOL     OW33971   0.710   1.630   0.312 -0.4899 -0.0254 -0.6558
 8560SOL    HW233972   0.674   1.697   0.254 -0.3556 -0.3170 -1.0860
 8560SOL    HW333973   0.763   1.678   0.375 -2.7719  0.5921  0.9373
 8560SOL    MW433974   0.712   1.645   0.313  0.8418  0.3574  0.3486
 8561SOL     OW33975   5.893   2.169   3.711 -0.1109  0.3567  0.4274
 8561SOL    HW233976   5.924   2.117   3.786 -1.0896 -1.8014 -0.5704
 8561SOL    HW333977   5.959   2.238   3.701  1.4090 -0.8321  1.7020
 8561SOL    MW433978   5.906   2.171   3.719 -0.6095 -0.2065 -1.1287
 8562SOL     OW33979   2.756   1.036   3.225 -0.4547  0.4349 -0.3268
 8562SOL    HW233980   2.835   1.080   3.258 -1.5786  0.9794  1.8472
 8562SOL    HW333981   2.786   0.948   3.203  0.6401  0.3495  1.2844
 8562SOL    MW433982   2.771   1.031   3.227 -0.0349 -0.9192  0.2460
 8563SOL     OW33983   3.997   6.232   5.995 -0.0454 -0.2140 -0.8509
 8563SOL    HW233984   4.084   6.208   6.028  0.6649  0.8687 -1.8358
 8563SOL    HW333985   3.998   6.205   5.903 -0.1335  1.2116 -1.3034
 8563SOL    MW433986   4.009   6.226   5.987  0.4728 -0.2963 -0.5533
 8564SOL     OW33987   0.829   0.429   0.152 -0.9476  0.5119  0.4738
 8564SOL    HW233988   0.915   0.409   0.115 -1.2430 -2.9241  1.3535
 8564SOL    HW333989   0.844   0.436   0.246 -1.2643  2.5970  0.4105
 8564SOL    MW433990   0.842   0.427   0.159  0.4121  0.5495 -0.3630
 8565SOL     OW33991   4.902   3.831   4.643  0.4437  0.1030  0.1580
 8565SOL    HW233992   4.888   3.920   4.675  0.5213 -0.3431  1.4836
 8565SOL    HW333993   4.814   3.797   4.628  0.3846  0.0901  0.5363
 8565SOL    MW433994   4.889   3.838   4.645  0.5592  0.7109 -0.2926
 8566SOL     OW33995   3.279   0.350   3.348 -0.3625  0.3965  0.1427
 8566SOL    HW233996   3.364   0.344   3.390 -0.2935  0.2462 -0.0192
 8566SOL    HW333997   3.235   0.422   3.393 -1.5518 -1.7849  2.7218
 8566SOL    MW433998   3.284   0.359   3.360 -0.1281 -0.7698 -0.6202
 8567SOL     OW33999   5.290   1.973   2.993 -0.3936  0.0279  0.3504
 8567SOL    HW234000   5.287   1.883   3.026 -0.4613  1.0925  3.6031
 8567SOL    HW334001   5.382   1.987   2.969 -0.5352 -1.1028 -0.9778
 8567SOL    MW434002   5.302   1.963   2.994  0.3104 -0.2774  0.7656
 8568SOL     OW34003   1.470   0.500   5.323  0.6624  0.1335 -0.1445
 8568SOL    HW234004   1.460   0.589   5.356  0.5676  0.2676 -0.5282
 8568SOL    HW334005   1.476   0.510   5.228  0.4743 -0.2818 -0.2022
 8568SOL    MW434006   1.469   0.513   5.314 -0.1832  0.2542  0.5340
 8569SOL     OW34007   3.035   1.939   3.104  0.3080  0.0299  0.5748
 8569SOL    HW234008   3.028   1.849   3.138  0.4664  0.1507  0.9348
 8569SOL    HW334009   3.104   1.978   3.157  0.3053  0.3342  0.3490
 8569SOL    MW434010   3.043   1.932   3.116 -0.1326  0.2026  0.5974
 8570SOL     OW34011   2.893   4.031   4.454 -0.2224 -0.1140  0.1584
 8570SOL    HW234012   2.922   4.110   4.407 -0.4203  0.3802  0.8479
 8570SOL    HW334013   2.845   3.981   4.389  3.5447 -1.8622 -1.6154
 8570SOL    MW434014   2.891   4.035   4.439 -0.2114 -0.4779 -0.3265
 8571SOL     OW34015   4.563   5.709   3.190  0.7166  0.6074 -0.2432
 8571SOL    HW234016   4.595   5.622   3.214  1.5235  0.4472 -1.7311
 8571SOL    HW334017   4.481   5.693   3.144  0.4910  0.6987  0.1244
 8571SOL    MW434018   4.557   5.696   3.187 -0.2335  0.1454  0.5810
 8572SOL     OW34019   1.566   5.165   4.719  0.1452 -0.2438 -0.1910
 8572SOL    HW234020   1.600   5.214   4.644  0.1578 -1.8262 -1.2649
 8572SOL    HW334021   1.632   5.178   4.787  1.0895 -0.2939 -1.0700
 8572SOL    MW434022   1.579   5.173   4.718 -0.1387  0.0341  0.3764
 8573SOL     OW34023   2.715   6.216   4.515 -0.0085 -0.1959 -0.3387
 8573SOL    HW234024   2.713   6.144   4.452  0.1716 -0.0986 -0.4544
 8573SOL    HW334025   2.648   6.277   4.485 -1.5493 -1.2271  0.8422
 8573SOL    MW434026   2.706   6.214   4.503 -0.3527 -0.1952 -0.3708
 8574SOL     OW34027   2.701   6.045   0.219 -0.1569  0.3135 -0.1514
 8574SOL    HW234028   2.796   6.058   0.225  0.4017 -3.0627  0.0333
 8574SOL    HW334029   2.670   6.056   0.309  0.1326  0.7839 -0.1024
 8574SOL    MW434030   2.710   6.048   0.232  0.4247  0.1708  0.4521
 8575SOL     OW34031   0.464   2.731   4.580  0.2895  0.8110 -0.2697
 8575SOL    HW234032   0.435   2.800   4.640 -0.4592 -0.8325  1.3626
 8575SOL    HW334033   0.534   2.685   4.627  0.5812  0.2711 -1.1936
 8575SOL    MW434034   0.469   2.734   4.594  0.4005 -0.7276  0.2356
 8576SOL     OW34035   1.989   5.788   1.605 -0.0002  0.0022  0.3800
 8576SOL    HW234036   2.004   5.706   1.558  2.7813 -0.4088  1.8139
 8576SOL    HW334037   1.981   5.762   1.697  0.2602  1.2929  0.7821
 8576SOL    MW434038   1.990   5.774   1.611 -0.0525  0.3482 -0.5718
 8577SOL     OW34039   0.833   3.159   5.076 -0.2268 -0.3593  0.0347
 8577SOL    HW234040   0.782   3.116   5.007 -0.9777  1.4979 -0.6272
 8577SOL    HW334041   0.874   3.087   5.124 -1.1538 -1.7783 -1.2172
 8577SOL    MW434042   0.831   3.144   5.073  0.2511  0.0666  0.0091
 8578SOL     OW34043   0.433   0.323   6.084 -0.9973  0.4439  0.4006
 8578SOL    HW234044   0.499   0.388   6.108 -0.6188 -0.2319  1.2444
 8578SOL    HW334045   0.396   0.356   6.002 -0.4072  1.4149  0.5035
 8578SOL    MW434046   0.437   0.336   6.076  0.0931  0.2438 -0.0649
 8579SOL     OW34047   3.649   0.073   6.093 -0.2982  0.1242 -0.1468
 8579SOL    HW234048   3.683   0.121   6.018 -0.9528  0.2334 -0.3825
 8579SOL    HW334049   3.603  -0.002   6.055 -1.0869  0.4661  0.1124
 8579SOL    MW434050   3.647   0.069   6.078 -0.1297  0.0519 -0.1858
 8580SOL     OW34051   5.699   2.274   6.416  0.1547 -0.2971 -0.4728
 8580SOL    HW234052   5.674   2.287   6.325 -0.6730 -1.3630 -0.4211
 8580SOL    HW334053   5.733   2.184   6.419 -1.6117 -0.9865  0.6050
 8580SOL    MW434054   5.701   2.264   6.405 -0.3152 -0.4513 -0.2837
 8581SOL     OW34055   4.545   0.946   5.995  0.2407 -0.1275  0.3285
 8581SOL    HW234056   4.481   0.947   6.067  1.7835  1.5569  1.7870
 8581SOL    HW334057   4.547   0.855   5.966 -0.8296 -0.7627  2.0829
 8581SOL    MW434058   4.537   0.934   6.001 -0.1039  0.2029  0.2945
 8582SOL     OW34059   2.363   4.632   4.907 -0.2800  0.3642  0.0386
 8582SOL    HW234060   2.376   4.723   4.933  0.1144 -0.3178  2.4918
 8582SOL    HW334061   2.445   4.608   4.864 -0.6498  1.3295 -1.2590
 8582SOL    MW434062   2.376   4.641   4.905 -0.1354 -1.1253 -0.1656
 8583SOL     OW34063   2.760   3.751   3.968  0.2698  0.0368  0.3673
 8583SOL    HW234064   2.778   3.795   4.051  2.2223 -0.0568  0.0402
 8583SOL    HW334065   2.781   3.659   3.985 -0.7526 -0.2415  0.1674
 8583SOL    MW434066   2.765   3.745   3.981 -0.3923 -0.8279  0.4031
 8584SOL     OW34067   6.259   1.686   3.988  0.6665 -0.5840 -0.1248
 8584SOL    HW234068   6.182   1.674   3.932 -0.2483  0.4323  0.8590
 8584SOL    HW334069   6.234   1.644   4.071  1.0606 -0.0096  0.2907
 8584SOL    MW434070   6.245   1.679   3.991 -0.0561  0.2428  0.2796
 8585SOL     OW34071   5.790   4.308   1.265 -0.0690 -0.1911 -0.0549
 8585SOL    HW234072   5.750   4.227   1.298 -1.7393 -0.6853 -2.9468
 8585SOL    HW334073   5.855   4.331   1.331 -1.1834 -2.5727  2.0502
 8585SOL    MW434074   5.793   4.300   1.278  0.1625  0.6121  0.0292
 8586SOL     OW34075   1.546   0.101   1.198  0.4085 -0.0857  0.5153
 8586SOL    HW234076   1.520   0.191   1.177 -0.1632  0.1049  1.9494
 8586SOL    HW334077   1.636   0.094   1.164  0.6287  1.1811  0.7763
 8586SOL    MW434078   1.555   0.112   1.191  0.0468  0.2529  0.4278
 8587SOL     OW34079   2.389   5.490   2.942  0.2762  0.0615  0.7482
 8587SOL    HW234080   2.313   5.472   2.998 -0.6153  1.1584 -0.0535
 8587SOL    HW334081   2.362   5.460   2.855  2.3850 -3.5267  1.1362
 8587SOL    MW434082   2.375   5.484   2.938  0.6649 -0.0554 -0.5264
 8588SOL     OW34083   1.532   4.061   4.802 -0.6524 -0.0090  0.2653
 8588SOL    HW234084   1.578   4.139   4.834 -0.3224  0.1336 -0.5270
 8588SOL    HW334085   1.492   4.089   4.719  1.8261 -1.3951 -1.5426
 8588SOL    MW434086   1.533   4.075   4.795 -0.3868  0.5592  0.4434
 8589SOL     OW34087   5.046   4.532   6.290 -0.5787  0.4830 -0.0566
 8589SOL    HW234088   5.079   4.514   6.202 -0.7418 -0.5025  0.0650
 8589SOL    HW334089   5.057   4.449   6.337 -0.7422  0.9166  0.7712
 8589SOL    MW434090   5.052   4.518   6.285  0.3174  0.8697  0.0810
 8590SOL     OW34091   6.003   4.757   4.329  0.7464  0.0149  0.5600
 8590SOL    HW234092   5.926   4.703   4.310 -0.2416  1.3744  0.5823
 8590SOL    HW334093   6.072   4.720   4.273  0.1286 -1.2739  0.5981
 8590SOL    MW434094   6.002   4.745   4.319  0.1574 -0.1891  0.3076
 8591SOL     OW34095   2.400   2.495   4.869  0.3231 -0.0742 -0.0375
 8591SOL    HW234096   2.397   2.537   4.783  1.2068 -0.2003 -0.1368
 8591SOL    HW334097   2.460   2.548   4.921 -0.9952  0.6058  0.8553
 8591SOL    MW434098   2.407   2.507   4.865  0.0893 -0.6878  0.4260
 8592SOL     OW34099   3.786   5.819   2.665 -0.1779 -0.2316 -0.3234
 8592SOL    HW234100   3.814   5.733   2.695  0.3750 -0.5674 -1.7205
 8592SOL    HW334101   3.812   5.879   2.735 -0.6078 -1.1947  0.6821
 8592SOL    MW434102   3.793   5.816   2.678  0.3819 -0.2954  0.1889
 8593SOL     OW34103   2.511   0.079   2.389 -0.3433  0.3742 -0.3293
 8593SOL    HW234104   2.464   0.143   2.442 -0.4163  1.5268 -1.7274
 8593SOL    HW334105   2.466  -0.004   2.406 -1.0758  0.9238  0.5148
 8593SOL    MW434106   2.499   0.077   2.398  0.0970  0.2332  0.6920
 8594SOL     OW34107   5.537   2.645   0.096 -0.5197  0.7440 -0.3983
 8594SOL    HW234108   5.595   2.670   0.025  0.3110 -0.6723 -0.2592
 8594SOL    HW334109   5.456   2.617   0.053  0.1347 -0.5382 -0.8558
 8594SOL    MW434110   5.534   2.645   0.081  0.4558 -0.9774 -0.0658
 8595SOL     OW34111   1.239   4.048   6.263 -0.0107  0.1314  0.2489
 8595SOL    HW234112   1.282   4.091   6.336  0.4242  2.4643 -1.2621
 8595SOL    HW334113   1.146   4.049   6.286 -0.1123  2.6384  0.0010
 8595SOL    MW434114   1.233   4.054   6.275 -0.1391 -0.5989  0.1898
 8596SOL     OW34115   3.558   3.871   1.000  0.1414 -0.3975 -0.1458
 8596SOL    HW234116   3.608   3.792   0.979  0.0002 -1.0044  1.6116
 8596SOL    HW334117   3.467   3.845   0.990 -0.0078  1.0161 -4.4397
 8596SOL    MW434118   3.553   3.857   0.996 -0.3778  0.0858 -1.1493
 8597SOL     OW34119   4.302   0.346   0.948  0.1253  0.8133 -0.1994
 8597SOL    HW234120   4.395   0.324   0.946  0.0411  0.2263  1.2693
 8597SOL    HW334121   4.296   0.417   1.011 -0.5773 -0.0080  0.6744
 8597SOL    MW434122   4.314   0.353   0.956  0.5502 -0.1179  0.1500
 8598SOL     OW34123   0.922   3.438   3.961 -0.8967  0.0715 -0.1028
 8598SOL    HW234124   0.840   3.390   3.973 -0.2688 -1.3615 -1.1763
 8598SOL    HW334125   0.990   3.377   3.989 -0.1905  1.5441  1.5773
 8598SOL    MW434126   0.920   3.423   3.966 -0.1135 -0.2338  0.0400
 8599SOL     OW34127   2.371   3.834   4.991  0.4604  0.4596 -0.1046
 8599SOL    HW234128   2.303   3.787   4.943 -0.2476  1.8920 -0.5487
 8599SOL    HW334129   2.453   3.808   4.950 -0.1209  1.6079 -2.1051
 8599SOL    MW434130   2.373   3.824   4.979 -0.1412  0.5871 -0.2455
 8600SOL     OW34131   5.719   2.812   5.459  0.4754  0.5944 -0.0814
 8600SOL    HW234132   5.703   2.868   5.534  0.1146 -2.0062  1.9404
 8600SOL    HW334133   5.798   2.763   5.482 -0.0416 -0.7583 -1.0543
 8600SOL    MW434134   5.728   2.813   5.472  0.0349  0.6122  0.4222
 8601SOL     OW34135   4.389   4.620   3.810  0.5219  0.0575 -0.3892
 8601SOL    HW234136   4.298   4.612   3.838  1.3206 -0.1516  2.4952
 8601SOL    HW334137   4.407   4.714   3.814  0.5764  0.0472 -0.3900
 8601SOL    MW434138   4.380   4.631   3.814 -0.9073  0.6208  0.5038
 8602SOL     OW34139   3.039   4.333   5.545 -0.5518 -0.9997  0.0164
 8602SOL    HW234140   3.035   4.417   5.501 -1.2191 -1.5091 -0.9281
 8602SOL    HW334141   3.127   4.300   5.527 -0.2981 -0.5274  0.3658
 8602SOL    MW434142   3.050   4.339   5.537  0.4759 -0.1096 -0.4730
 8603SOL     OW34143   4.848   3.507   0.438  0.4189 -0.3501 -0.0488
 8603SOL    HW234144   4.932   3.522   0.481  1.2761 -1.5323 -1.2194
 8603SOL    HW334145   4.788   3.484   0.509  1.1195  0.3125  0.7774
 8603SOL    MW434146   4.851   3.506   0.453  0.1339  0.0868  0.9687
 8604SOL     OW34147   2.097   4.193   0.219  0.3825  0.4006  0.5363
 8604SOL    HW234148   2.124   4.233   0.302  1.0194 -0.8436  0.9669
 8604SOL    HW334149   2.047   4.115   0.246 -1.3652  1.2040 -0.2681
 8604SOL    MW434150   2.094   4.188   0.234  0.5193  0.2365 -0.7405
 8605SOL     OW34151   5.788   4.287   1.929 -0.0496  0.0852 -0.4536
 8605SOL    HW234152   5.883   4.278   1.919 -0.0698  0.9147 -1.6642
 8605SOL    HW334153   5.775   4.305   2.022  1.1615  1.7977 -0.5686
 8605SOL    MW434154   5.799   4.288   1.940 -0.6745 -0.0553 -0.9532
 8606SOL     OW34155   5.066   0.410   1.500 -0.3833 -1.0932  0.5849
 8606SOL    HW234156   5.065   0.476   1.430  1.0723 -2.8931 -1.2426
 8606SOL    HW334157   5.050   0.461   1.580 -1.8331  1.1045 -0.9558
 8606SOL    MW434158   5.064   0.426   1.501  0.4293  0.6792 -0.3474
 8607SOL     OW34159   2.192   2.134   1.255 -0.5518 -0.3884  0.1035
 8607SOL    HW234160   2.110   2.145   1.207 -0.0686 -2.0346 -1.1789
 8607SOL    HW334161   2.260   2.165   1.195 -0.1403  0.0927  0.7999
 8607SOL    MW434162   2.190   2.140   1.241 -0.4112  0.1709 -0.0666
 8608SOL     OW34163   1.533   5.178   0.345 -0.2727 -0.8156 -0.1777
 8608SOL    HW234164   1.574   5.094   0.362  0.2284 -1.5791 -4.1610
 8608SOL    HW334165   1.597   5.226   0.292 -1.3185  1.3231  0.3777
 8608SOL    MW434166   1.547   5.173   0.340 -0.1694 -0.2211 -0.0889
 8609SOL     OW34167   0.166   5.260   4.970 -0.0485 -0.4361 -0.2694
 8609SOL    HW234168   0.170   5.355   4.980  0.0349 -0.3589 -0.9544
 8609SOL    HW334169   0.098   5.232   5.031  1.1454 -0.1487  1.2642
 8609SOL    MW434170   0.158   5.269   4.979 -0.2746  0.6932  0.5720
 8610SOL     OW34171   4.890   4.816   4.657  0.0320  0.2531  0.5515
 8610SOL    HW234172   4.804   4.858   4.655 -0.8074 -1.3950  0.3950
 8610SOL    HW334173   4.951   4.887   4.640 -1.2927  1.4608  0.6067
 8610SOL    MW434174   4.886   4.831   4.654 -0.2240 -0.1824 -0.1005
 8611SOL     OW34175   1.226   5.390   2.220  0.4350  0.4711  0.0261
 8611SOL    HW234176   1.238   5.370   2.127  1.7331 -1.1250  0.4880
 8611SOL    HW334177   1.190   5.309   2.257  1.8622  0.3410  1.2458
 8611SOL    MW434178   1.223   5.376   2.213 -0.5248 -0.5292  0.0914
 8612SOL     OW34179   1.490   2.192   3.301 -0.1172 -0.3422 -0.0679
 8612SOL    HW234180   1.411   2.145   3.273  0.2433 -1.2890  0.4351
 8612SOL    HW334181   1.547   2.191   3.225 -0.7305  0.6948 -0.5604
 8612SOL    MW434182   1.487   2.186   3.287  0.3913  0.0015  0.3587
 8613SOL     OW34183   3.637   3.989   0.334 -0.5065 -0.4105 -0.4374
 8613SOL    HW234184   3.549   4.005   0.302 -0.2355  0.3232 -0.8405
 8613SOL    HW334185   3.625   3.951   0.421 -1.2041  0.9990  0.1032
 8613SOL    MW434186   3.624   3.986   0.341  0.5534  0.2689 -0.3637
 8614SOL     OW34187   5.694   4.739   1.125  0.5931 -0.1237 -0.0751
 8614SOL    HW234188   5.654   4.658   1.156 -0.5414  0.6340  0.5417
 8614SOL    HW334189   5.759   4.761   1.191  1.3083 -0.8155 -0.5376
 8614SOL    MW434190   5.697   4.731   1.138 -0.5127  0.6585  0.7539
 8615SOL     OW34191   5.229   0.779   2.782 -0.0035 -0.3054  0.6403
 8615SOL    HW234192   5.178   0.703   2.756  0.8460 -0.4003 -0.9010
 8615SOL    HW334193   5.306   0.743   2.826  0.9179 -0.4472 -1.0062
 8615SOL    MW434194   5.233   0.764   2.785 -0.1091  0.3730 -0.4506
 8616SOL     OW34195   0.057   0.739   2.292  0.4358  0.1053 -0.0868
 8616SOL    HW234196   0.057   0.832   2.314 -0.5424 -0.0557  0.6748
 8616SOL    HW334197  -0.035   0.719   2.271  0.6258 -0.6961 -0.1997
 8616SOL    MW434198   0.045   0.749   2.292 -0.5813  0.0425 -0.0224
 8617SOL     OW34199   3.477   5.453   2.599 -0.7627  0.2466  0.1638
 8617SOL    HW234200   3.463   5.403   2.679 -0.4336  0.7683  0.5499
 8617SOL    HW334201   3.543   5.403   2.551  1.7317  1.7307  1.8583
 8617SOL    MW434202   3.484   5.440   2.603  0.2437 -0.2305 -0.3369
 8618SOL     OW34203   1.534   2.261   5.594 -0.5972  0.3435  0.1569
 8618SOL    HW234204   1.536   2.347   5.553  0.5082 -0.3291 -1.3068
 8618SOL    HW334205   1.499   2.203   5.526  0.5837 -0.6761  0.3776
 8618SOL    MW434206   1.530   2.265   5.580 -0.0340 -0.2564 -0.1942
 8619SOL     OW34207   3.501   2.631   5.529  0.1316  0.7954  0.2897
 8619SOL    HW234208   3.522   2.609   5.438  0.7205  2.0297  0.0920
 8619SOL    HW334209   3.553   2.710   5.546 -0.8476  1.2353  1.3380
 8619SOL    MW434210   3.511   2.639   5.519 -0.4082 -0.6363  0.1868
 8620SOL     OW34211   2.655   0.566   5.263  0.1921  0.4508  0.0465
 8620SOL    HW234212   2.568   0.574   5.302 -0.1256 -1.8069 -0.0520
 8620SOL    HW334213   2.714   0.554   5.338 -0.1719 -2.0186  0.0182
 8620SOL    MW434214   2.652   0.566   5.278 -0.6739  0.7466  0.7197
 8621SOL     OW34215   0.719   5.120   5.464  0.8271 -0.3261  0.2540
 8621SOL    HW234216   0.726   5.091   5.555 -0.1880 -0.8447  0.1905
 8621SOL    HW334217   0.754   5.047   5.413  2.2143  0.3246  0.2518
 8621SOL    MW434218   0.724   5.107   5.470 -0.5801 -0.0091 -0.3664
 8622SOL     OW34219   5.949   5.992   2.558  0.0576  0.3461 -0.0191
 8622SOL    HW234220   5.920   5.971   2.647 -0.6323  0.8305 -0.1176
 8622SOL    HW334221   5.916   6.081   2.543  0.5377  0.4298 -0.6035
 8622SOL    MW434222   5.941   6.001   2.568 -0.4740  0.3360 -0.0079
 8623SOL     OW34223   5.800   4.028   6.086 -0.3096  0.4022  0.3461
 8623SOL    HW234224   5.857   3.967   6.133  0.1745 -0.3853 -1.1785
 8623SOL    HW334225   5.801   4.108   6.139  2.8780  0.7103  0.0244
 8623SOL    MW434226   5.808   4.031   6.099 -0.1807  0.2406 -0.5923
 8624SOL     OW34227   2.144   0.803   4.680 -0.2294  0.6004  0.0773
 8624SOL    HW234228   2.066   0.838   4.638  0.4560  3.3640  0.9146
 8624SOL    HW334229   2.214   0.864   4.656  1.1306 -0.3064  1.4997
 8624SOL    MW434230   2.143   0.815   4.671  0.9497 -0.1535 -0.1718
 8625SOL     OW34231   4.971   4.035   2.839 -1.1453 -0.0104 -0.3407
 8625SOL    HW234232   5.010   4.119   2.817  0.8171 -1.2136 -1.7661
 8625SOL    HW334233   4.961   4.038   2.934 -0.3172  1.5159 -0.2659
 8625SOL    MW434234   4.975   4.046   2.849 -0.9361  0.0981  0.2790
 8626SOL     OW34235   1.917   1.111   0.337 -0.1604  0.2565  0.2552
 8626SOL    HW234236   1.912   1.158   0.254 -0.2876  0.3275  0.3034
 8626SOL    HW334237   2.006   1.127   0.368  1.2095 -2.7857 -1.6378
 8626SOL    MW434238   1.928   1.119   0.331  0.3204 -0.3624 -0.5532
 8627SOL     OW34239   3.183   5.156   2.472  0.7141  0.1773 -0.0983
 8627SOL    HW234240   3.178   5.074   2.421  1.3921 -0.0330  0.1623
 8627SOL    HW334241   3.274   5.185   2.461  0.4168  1.0321 -0.3828
 8627SOL    MW434242   3.195   5.149   2.464  0.0028 -0.3088 -0.1157
 8628SOL     OW34243   5.519   1.290   2.615  0.0737  0.0174 -0.3882
 8628SOL    HW234244   5.515   1.379   2.580  0.5757  0.1043 -0.2386
 8628SOL    HW334245   5.545   1.302   2.707 -0.5800 -0.2427 -0.1700
 8628SOL    MW434246   5.522   1.304   2.622  0.8283  0.2459  0.0966
 8629SOL     OW34247   2.080   2.865   4.488  0.4110  0.1497 -0.3819
 8629SOL    HW234248   2.088   2.798   4.555 -0.6281 -1.4670 -1.8031
 8629SOL    HW334249   2.106   2.946   4.532 -0.7703 -0.7326  2.1110
 8629SOL    MW434250   2.085   2.867   4.502  0.0718  0.6388 -0.0369
 8630SOL     OW34251   1.653   5.594   4.932  0.0112  0.2684  0.0355
 8630SOL    HW234252   1.615   5.585   4.845  1.7652 -0.6007 -0.7011
 8630SOL    HW334253   1.612   5.525   4.984 -0.4358  0.2478 -0.3448
 8630SOL    MW434254   1.643   5.584   4.928 -0.1347 -0.0001 -0.6434
 8631SOL     OW34255   2.293   5.848   4.340  0.1238 -0.1902 -0.6604
 8631SOL    HW234256   2.313   5.871   4.249 -0.1924 -0.0067 -0.6844
 8631SOL    HW334257   2.205   5.811   4.337  0.2818 -0.5896 -0.4899
 8631SOL    MW434258   2.284   5.846   4.328 -0.1413 -0.2100 -0.3864
 8632SOL     OW34259   3.618   5.528   3.910  0.0258 -0.1452 -0.3274
 8632SOL    HW234260   3.612   5.609   3.961 -3.2866 -0.3702 -0.1103
 8632SOL    HW334261   3.596   5.554   3.821 -1.0073 -0.7649 -0.2664
 8632SOL    MW434262   3.614   5.542   3.905 -0.0047  0.7298  0.5764
 8633SOL     OW34263   2.891   6.411   2.129 -0.3156  0.2133 -0.1651
 8633SOL    HW234264   2.967   6.354   2.141 -0.2411  0.4793  0.7392
 8633SOL    HW334265   2.817   6.358   2.159  0.0562  1.4302  3.3673
 8633SOL    MW434266   2.891   6.396   2.135  0.0294 -0.6267  0.0233
 8634SOL     OW34267   3.581   5.090   4.123 -0.2856 -0.5101  0.3757
 8634SOL    HW234268   3.580   5.065   4.215  0.6416 -1.1727  0.2160
 8634SOL    HW334269   3.522   5.166   4.118  0.0769 -0.1260  1.5999
 8634SOL    MW434270   3.573   5.097   4.135 -0.2412  0.7333 -0.0058
 8635SOL     OW34271   4.550   4.858   5.893  0.4409 -0.0205  0.2770
 8635SOL    HW234272   4.580   4.925   5.955 -2.5586  1.1257  0.6651
 8635SOL    HW334273   4.519   4.908   5.817  0.0545 -1.1176 -0.3058
 8635SOL    MW434274   4.550   4.874   5.891 -0.0417 -0.3791 -0.4344
 8636SOL     OW34275   2.963   2.337   0.414  0.1844 -0.6265  0.2792
 8636SOL    HW234276   2.945   2.339   0.508 -1.7266  0.5852 -0.0633
 8636SOL    HW334277   2.946   2.247   0.388  1.7342 -1.2423  1.2208
 8636SOL    MW434278   2.959   2.325   0.423 -0.0955  0.6447 -0.2637
 8637SOL     OW34279   4.840   1.030   0.287  0.0104  0.0781  0.0543
 8637SOL    HW234280   4.829   1.115   0.244 -1.1356  0.8431  1.7763
 8637SOL    HW334281   4.789   1.036   0.367 -0.6116 -2.4804 -0.0610
 8637SOL    MW434282   4.832   1.042   0.292  0.4056 -0.3894  0.2627
 8638SOL     OW34283   5.884   4.355   0.799 -0.0864  0.1463 -0.2567
 8638SOL    HW234284   5.844   4.275   0.765 -0.5278 -0.2003  1.0130
 8638SOL    HW334285   5.957   4.373   0.741  0.6529 -1.7553  0.0410
 8638SOL    MW434286   5.888   4.347   0.787  0.2731  0.2420 -0.0138
 8639SOL     OW34287   4.575   5.454   1.599 -0.5418  0.3210  0.1300
 8639SOL    HW234288   4.632   5.381   1.579  1.7102  2.3451 -1.3154
 8639SOL    HW334289   4.604   5.484   1.686  1.1773  1.7353 -0.8634
 8639SOL    MW434290   4.586   5.448   1.608  0.0155  0.0646 -0.4717
 8640SOL     OW34291   0.623   0.872   6.352  0.1187 -0.1686  0.2070
 8640SOL    HW234292   0.546   0.923   6.377 -0.2857 -0.3400 -0.6527
 8640SOL    HW334293   0.635   0.811   6.425 -0.7244 -0.3292  0.2242
 8640SOL    MW434294   0.614   0.871   6.365  0.2857 -0.2063 -0.9669
 8641SOL     OW34295   4.856   3.793   4.964  0.2890  0.1543 -0.6357
 8641SOL    HW234296   4.876   3.878   5.003  0.5984  0.4757 -1.4569
 8641SOL    HW334297   4.922   3.783   4.895 -0.7864  0.0413 -1.6842
 8641SOL    MW434298   4.867   3.803   4.960  0.7407  0.3613 -0.2823
 8642SOL     OW34299   0.094   3.345   5.099 -0.1229 -0.9015 -0.0433
 8642SOL    HW234300   0.142   3.385   5.171 -0.4345 -1.2372  0.3551
 8642SOL    HW334301   0.139   3.376   5.020  0.2578 -0.5828  0.2951
 8642SOL    MW434302   0.106   3.354   5.098  0.0963 -0.5077  0.4713
 8643SOL     OW34303   3.915   1.506   4.634 -0.3064  0.0942 -0.5153
 8643SOL    HW234304   3.885   1.572   4.696  0.5578 -0.1198  0.1470
 8643SOL    HW334305   3.962   1.556   4.567  0.7521  0.1319  0.2312
 8643SOL    MW434306   3.918   1.521   4.633  0.2923  0.2862  0.6896
 8644SOL     OW34307   0.050   3.084   0.768 -0.2141 -0.0502  0.3045
 8644SOL    HW234308   0.144   3.078   0.754  0.2478 -0.0967  3.0200
 8644SOL    HW334309   0.022   2.994   0.784 -0.7029 -0.0021 -0.2195
 8644SOL    MW434310   0.058   3.072   0.768  0.1749 -0.3231 -0.2799
 8645SOL     OW34311   1.056   3.956   0.714 -0.5518  0.5225  0.0275
 8645SOL    HW234312   1.058   4.033   0.657  0.3100 -0.1648 -0.9074
 8645SOL    HW334313   1.033   3.990   0.801  1.5732  2.1140  0.0384
 8645SOL    MW434314   1.054   3.970   0.718  0.1921 -0.4542 -0.1403
 8646SOL     OW34315   3.905   4.153   2.206  0.0838 -0.3503 -0.0103
 8646SOL    HW234316   3.846   4.092   2.251  2.3879 -2.3113  0.5896
 8646SOL    HW334317   3.869   4.159   2.117 -1.3741 -0.8966  0.5012
 8646SOL    MW434318   3.892   4.145   2.200  0.4872  0.6977  0.1091
 8647SOL     OW34319   6.204   5.821   3.251  0.1318 -0.6254  0.2865
 8647SOL    HW234320   6.294   5.826   3.221 -0.2744  0.2902 -0.8659
 8647SOL    HW334321   6.188   5.906   3.293 -0.0584 -0.9628  0.9162
 8647SOL    MW434322   6.213   5.833   3.253  0.2918  0.7267  0.0347
 8648SOL     OW34323   6.237   2.075   5.167  0.0997  0.7715 -0.4424
 8648SOL    HW234324   6.309   2.052   5.109  1.2647  0.7729  0.9406
 8648SOL    HW334325   6.173   2.118   5.110  1.0419  0.4894 -1.7637
 8648SOL    MW434326   6.238   2.078   5.152  0.1268  0.5464 -0.0085
 8649SOL     OW34327   3.077   2.250   5.932 -0.3449 -0.1138  0.1111
 8649SOL    HW234328   3.160   2.234   5.886 -0.5903 -0.7787 -0.1195
 8649SOL    HW334329   3.041   2.328   5.890  0.1458  0.1583  0.1877
 8649SOL    MW434330   3.084   2.258   5.920  0.2914 -0.1787 -0.5513
 8650SOL     OW34331   0.847   3.989   3.525 -0.0397 -0.1178  0.0258
 8650SOL    HW234332   0.873   3.928   3.593 -0.2752 -2.4360 -1.8159
 8650SOL    HW334333   0.925   4.000   3.470 -0.9872 -1.9606 -1.8447
 8650SOL    MW434334   0.860   3.982   3.526  0.3240  0.7756  0.0801
 8651SOL     OW34335   3.903   3.797   3.815 -0.0114 -0.0609  0.1952
 8651SOL    HW234336   3.905   3.712   3.771 -2.3709  0.5667 -1.3350
 8651SOL    HW334337   3.905   3.861   3.743 -3.4494  1.0219  0.8893
 8651SOL    MW434338   3.904   3.794   3.800 -0.4053  0.5004  0.3624
 8652SOL     OW34339   1.673   2.331   1.030 -0.6564  0.2108 -0.8451
 8652SOL    HW234340   1.620   2.253   1.046  0.7838 -0.3660  1.6726
 8652SOL    HW334341   1.679   2.374   1.115  0.7700  1.6342 -1.6155
 8652SOL    MW434342   1.667   2.326   1.044  0.4433 -0.1052 -0.3052
 8653SOL     OW34343   1.377   5.112   2.402 -0.8486 -0.1166 -0.2714
 8653SOL    HW234344   1.319   5.123   2.327 -1.0941 -0.0365 -0.0691
 8653SOL    HW334345   1.327   5.146   2.476 -0.5568 -0.0754 -0.0929
 8653SOL    MW434346   1.363   5.118   2.402 -0.2688 -0.0773 -0.8010
 8654SOL     OW34347   3.311   0.352   0.460 -0.2162 -0.3981  0.1433
 8654SOL    HW234348   3.351   0.351   0.373 -1.8172 -0.8391 -0.6154
 8654SOL    HW334349   3.384   0.372   0.520  0.5424  2.3023 -1.4859
 8654SOL    MW434350   3.326   0.355   0.457 -0.7664  0.3319 -0.0284
 8655SOL     OW34351   5.319   2.237   3.878  0.5055  0.0559  0.3276
 8655SOL    HW234352   5.238   2.288   3.875  0.8413  0.5633 -2.3291
 8655SOL    HW334353   5.388   2.303   3.893  0.6529 -0.0412  0.0762
 8655SOL    MW434354   5.318   2.253   3.880 -0.4065  0.1861  0.7627
 8656SOL     OW34355   0.291   4.291   5.452  0.0632  0.3013 -0.3168
 8656SOL    HW234356   0.306   4.228   5.380  0.5320  0.8539 -0.7125
 8656SOL    HW334357   0.205   4.328   5.434 -0.5889 -0.8219  0.3821
 8656SOL    MW434358   0.282   4.287   5.440 -0.1552  0.1410 -0.0606
 8657SOL     OW34359   5.823   0.501   5.434  0.3541  0.0596  0.2680
 8657SOL    HW234360   5.785   0.431   5.381 -0.1203  1.0071 -0.7069
 8657SOL    HW334361   5.832   0.464   5.521 -2.7088 -0.3031  0.5422
 8657SOL    MW434362   5.819   0.487   5.438  0.1307 -0.0612  0.2203
 8658SOL     OW34363   3.679   1.802   4.547 -0.1925  0.5172 -0.0818
 8658SOL    HW234364   3.669   1.893   4.574 -0.5543  0.1237  1.1627
 8658SOL    HW334365   3.750   1.804   4.482  1.8071  1.3153  1.9886
 8658SOL    MW434366   3.687   1.814   4.542  0.5444 -0.4380 -0.3344
 8659SOL     OW34367   1.835   0.133   1.105  0.1464 -0.5020 -0.4157
 8659SOL    HW234368   1.814   0.123   1.198 -0.4534  1.1316 -0.3521
 8659SOL    HW334369   1.930   0.117   1.100 -0.3516 -4.9182 -0.2422
 8659SOL    MW434370   1.845   0.129   1.117  0.3223 -0.6407 -0.3601
 8660SOL     OW34371   1.188   4.005   5.370  0.1310 -0.1564  0.0351
 8660SOL    HW234372   1.228   3.960   5.444  0.2846 -0.0368  0.0262
 8660SOL    HW334373   1.219   3.957   5.293  1.9107  1.1253 -0.1225
 8660SOL    MW434374   1.197   3.993   5.370 -0.4161 -0.2278 -0.4520
 8661SOL     OW34375   0.114   4.339   3.391 -0.0407  0.4776  0.4495
 8661SOL    HW234376   0.052   4.275   3.356  0.5302  0.4846 -0.6095
 8661SOL    HW334377   0.170   4.362   3.316  1.5413  0.1338  1.4767
 8661SOL    MW434378   0.113   4.334   3.376 -0.3360  0.2114  0.0049
 8662SOL     OW34379   5.605   5.908   1.960  0.6524 -0.0090  0.1940
 8662SOL    HW234380   5.565   5.911   2.046  2.0985  0.3854  0.8952
 8662SOL    HW334381   5.589   5.994   1.922 -1.6388 -0.7838 -0.7784
 8662SOL    MW434382   5.598   5.920   1.966 -0.5350  0.2271 -0.6762
 8663SOL     OW34383   3.006   5.122   4.221  0.1432  0.2885  0.0330
 8663SOL    HW234384   2.937   5.087   4.278 -0.5292  0.7598 -0.4690
 8663SOL    HW334385   2.962   5.137   4.137  1.1114 -0.3969 -0.6213
 8663SOL    MW434386   2.991   5.119   4.217  0.8153 -0.4719  0.1631
 8664SOL     OW34387   4.414   5.431   0.828 -0.3723  0.2853 -0.2338
 8664SOL    HW234388   4.484   5.488   0.861 -0.1819 -0.5240  0.8290
 8664SOL    HW334389   4.338   5.488   0.822 -0.2712  0.6051  1.1499
 8664SOL    MW434390   4.413   5.446   0.832  0.3000  0.1979  0.3840
 8665SOL     OW34391   0.267   1.916   1.879  0.3178 -0.5521 -0.7219
 8665SOL    HW234392   0.307   1.998   1.850  1.6921 -0.5866  0.9097
 8665SOL    HW334393   0.262   1.863   1.800  2.0867  0.0588 -1.3022
 8665SOL    MW434394   0.272   1.920   1.865  0.0275 -0.3079 -0.1788
 8666SOL     OW34395   3.169   1.882   0.907  0.2171  0.4765  0.2666
 8666SOL    HW234396   3.081   1.913   0.891  0.0165  0.4576  1.2336
 8666SOL    HW334397   3.193   1.834   0.828 -0.7360  0.2596  0.0960
 8666SOL    MW434398   3.161   1.880   0.895 -0.1543 -0.2319  0.2919
 8667SOL     OW34399   0.772   0.331   6.050 -0.5266 -0.3086 -0.2054
 8667SOL    HW234400   0.843   0.323   6.114 -1.6558 -0.2245  1.1044
 8667SOL    HW334401   0.771   0.246   6.006 -0.1661 -0.6163  0.3631
 8667SOL    MW434402   0.782   0.319   6.053  0.5186  0.4847 -0.1931
 8668SOL     OW34403   0.641   4.966   3.108  0.1986  0.4624 -0.1269
 8668SOL    HW234404   0.611   4.881   3.075  0.5679  0.3533 -0.1804
 8668SOL    HW334405   0.561   5.008   3.142  0.4194 -1.0527  2.5053
 8668SOL    MW434406   0.626   4.960   3.108 -0.7507  0.6613  0.8428
 8669SOL     OW34407   1.950   2.204   5.082  0.1007 -0.2593  0.2357
 8669SOL    HW234408   1.949   2.141   5.154 -0.4075 -0.8396 -0.2667
 8669SOL    HW334409   1.934   2.288   5.124 -3.3536 -0.9147  0.5352
 8669SOL    MW434410   1.948   2.207   5.097 -0.1922  0.0229 -0.1844
 8670SOL     OW34411   2.484   1.997   5.524  0.5332  0.0185 -0.2460
 8670SOL    HW234412   2.492   2.086   5.489 -0.8751  0.7143  1.0541
 8670SOL    HW334413   2.520   2.002   5.612  0.7221 -0.7824 -0.2724
 8670SOL    MW434414   2.490   2.010   5.531  0.4977 -0.2214  0.0343
 8671SOL     OW34415   3.619   1.423   6.219  0.3819 -0.0544  0.0303
 8671SOL    HW234416   3.550   1.368   6.182 -1.6563  1.4476  1.3829
 8671SOL    HW334417   3.581   1.457   6.300  1.9041  2.5304 -0.2299
 8671SOL    MW434418   3.605   1.420   6.225  0.2960  0.5521  0.2945
 8672SOL     OW34419   4.101   5.009   1.202 -0.7763 -0.0924  0.2511
 8672SOL    HW234420   4.153   5.000   1.283  0.2401 -0.8791 -0.4608
 8672SOL    HW334421   4.162   5.047   1.139 -1.4260  0.0495 -0.3027
 8672SOL    MW434422   4.116   5.013   1.205 -0.6419 -1.1434  0.2786
 8673SOL     OW34423   4.647   0.429   4.346  0.9447 -0.0665 -0.1676
 8673SOL    HW234424   4.644   0.345   4.301  0.4167 -0.0183 -0.2329
 8673SOL    HW334425   4.695   0.411   4.427  1.4345 -0.2707 -0.4961
 8673SOL    MW434426   4.653   0.416   4.351  0.0039 -0.3204 -0.3192
 8674SOL     OW34427   0.645   4.493   0.321 -0.1155  0.4476 -0.1375
 8674SOL    HW234428   0.598   4.412   0.341 -1.1695  1.1025  0.1215
 8674SOL    HW334429   0.577   4.560   0.322  1.1701  1.9020  3.0085
 8674SOL    MW434430   0.630   4.491   0.324 -0.1396 -0.0861 -0.6098
 8675SOL     OW34431   0.643   0.431   5.590  0.1312  0.5105  0.0906
 8675SOL    HW234432   0.601   0.349   5.616 -3.5105  2.2629  0.3511
 8675SOL    HW334433   0.697   0.455   5.664  3.6494 -2.8546 -1.0278
 8675SOL    MW434434   0.644   0.423   5.603 -0.4819 -0.2039  0.0718
 8676SOL     OW34435   5.216   5.015   1.088  0.0036  0.2712  0.0887
 8676SOL    HW234436   5.144   4.961   1.120  2.9757 -3.4979  1.1285
 8676SOL    HW334437   5.255   5.052   1.168  1.1662 -0.5284 -0.0812
 8676SOL    MW434438   5.211   5.013   1.103  0.0450  0.3246  0.0178
 8677SOL     OW34439   4.761   1.765   1.699  0.0849  0.4207  0.4592
 8677SOL    HW234440   4.729   1.849   1.733 -1.6140 -0.4760  1.2148
 8677SOL    HW334441   4.831   1.740   1.759 -1.2798 -0.0001  1.9408
 8677SOL    MW434442   4.766   1.773   1.711  0.8022 -0.1253  0.0368
 8678SOL     OW34443   5.776   3.231   5.789 -0.3038  0.3579  0.1664
 8678SOL    HW234444   5.827   3.256   5.712  0.3293  0.7122  0.6848
 8678SOL    HW334445   5.745   3.143   5.770  0.9934 -0.1012  0.0644
 8678SOL    MW434446   5.779   3.223   5.777 -0.1319 -0.1098 -0.5298
 8679SOL     OW34447   2.316   4.710   0.619 -0.5105 -0.1411 -0.2790
 8679SOL    HW234448   2.389   4.766   0.590 -1.6377  0.9651 -1.0956
 8679SOL    HW334449   2.310   4.727   0.713  0.3369 -0.3114 -0.1828
 8679SOL    MW434450   2.325   4.720   0.627 -0.3426  0.0610  0.0489
 8680SOL     OW34451   3.178   4.829   3.384 -0.2817 -0.4139  0.5303
 8680SOL    HW234452   3.272   4.811   3.393 -0.3113 -0.6630  0.3460
 8680SOL    HW334453   3.157   4.882   3.462  0.2031  0.4304  0.1101
 8680SOL    MW434454   3.188   4.834   3.396 -0.2595 -0.4852  0.3456
 8681SOL     OW34455   2.329   0.018   5.253 -0.3214 -0.1038  0.4876
 8681SOL    HW234456   2.326  -0.075   5.230 -0.1436  0.1880 -0.7923
 8681SOL    HW334457   2.399   0.054   5.198  0.8617  0.4463  2.2953
 8681SOL    MW434458   2.338   0.011   5.242 -0.2639  0.7716 -0.5415
 8682SOL     OW34459   2.744   2.741   1.823  0.3385  0.1188  0.4614
 8682SOL    HW234460   2.746   2.645   1.828 -2.1866 -0.0107  0.3777
 8682SOL    HW334461   2.683   2.767   1.892 -1.1371  1.4635 -1.2630
 8682SOL    MW434462   2.736   2.732   1.833 -0.2354 -0.0791 -0.3561
 8683SOL     OW34463   1.282   1.941   3.453  0.3799 -0.4149 -0.7998
 8683SOL    HW234464   1.254   2.007   3.389  1.4429 -0.9039 -1.7973
 8683SOL    HW334465   1.356   1.897   3.411 -1.2841 -3.3687 -0.8988
 8683SOL    MW434466   1.288   1.944   3.439 -0.3755 -0.1424  0.3589
 8684SOL     OW34467   2.463   3.825   3.981  0.2010 -0.5346  0.3038
 8684SOL    HW234468   2.387   3.804   4.036 -0.2584 -1.8099 -0.7618
 8684SOL    HW334469   2.520   3.748   3.990  0.3848 -0.5048 -0.5407
 8684SOL    MW434470   2.460   3.812   3.990 -0.2223 -0.4059 -0.0025
 8685SOL     OW34471   2.321   0.617   6.307 -0.1161  0.0719  0.6284
 8685SOL    HW234472   2.319   0.707   6.341 -0.2452 -0.2576  1.5167
 8685SOL    HW334473   2.235   0.605   6.266  0.5117  0.9157 -1.0377
 8685SOL    MW434474   2.309   0.628   6.306  0.1708 -0.1148 -0.5000
 8686SOL     OW34475   0.582   0.196   1.278 -0.4109  0.7029 -0.6638
 8686SOL    HW234476   0.517   0.206   1.348  0.3382  0.5381  0.0630
 8686SOL    HW334477   0.608   0.286   1.256  0.1471  0.7179  0.0307
 8686SOL    MW434478   0.577   0.209   1.284  0.0979  0.0446 -0.2315
 8687SOL     OW34479   6.260   3.748   4.989  0.0257  0.0505 -0.3174
 8687SOL    HW234480   6.299   3.804   4.922  0.2239 -0.7456 -0.8801
 8687SOL    HW334481   6.166   3.752   4.973  0.0680 -0.0888 -0.6113
 8687SOL    MW434482   6.253   3.756   4.978  0.0396  0.5099 -0.6800
 8688SOL     OW34483   4.602   1.071   1.674  0.4598  0.1819  0.5844
 8688SOL    HW234484   4.557   1.084   1.758  0.6292 -0.7090  0.8177
 8688SOL    HW334485   4.675   1.012   1.694  0.5307 -0.0052 -0.1793
 8688SOL    MW434486   4.606   1.065   1.688  0.1097 -0.0865 -0.4700
 8689SOL     OW34487   2.391   5.352   1.329 -0.0303  0.7173 -0.0946
 8689SOL    HW234488   2.423   5.278   1.277  0.2507  0.1216  0.8888
 8689SOL    HW334489   2.311   5.379   1.285 -0.9085 -1.0935  0.2631
 8689SOL    MW434490   2.384   5.346   1.317 -0.1531 -0.1075 -0.8591
 8690SOL     OW34491   4.528   2.103   2.593 -0.4809 -0.1164 -0.3777
 8690SOL    HW234492   4.461   2.153   2.639  0.3790  0.2372  0.5340
 8690SOL    HW334493   4.517   2.126   2.501 -2.4414 -1.0791 -0.4364
 8690SOL    MW434494   4.518   2.113   2.587  0.5394 -0.4390  0.4699
 8691SOL     OW34495   0.639   0.753   0.373 -0.2876 -0.0715 -0.1292
 8691SOL    HW234496   0.600   0.676   0.415  0.1530  0.7361  1.8868
 8691SOL    HW334497   0.733   0.743   0.387  0.0692 -0.5575 -2.4196
 8691SOL    MW434498   0.646   0.741   0.380 -0.0820  0.0604  0.6922
 8692SOL     OW34499   5.698   3.925   0.091 -0.0401 -0.4194  0.1215
 8692SOL    HW234500   5.780   3.879   0.075  0.9222  1.2350  0.0695
 8692SOL    HW334501   5.723   4.018   0.094 -1.6421  0.0163  1.7041
 8692SOL    MW434502   5.712   3.931   0.089  0.1757 -0.0823 -0.2443
 8693SOL     OW34503   4.089   5.563   3.350  0.2151 -0.2527 -0.3866
 8693SOL    HW234504   4.011   5.579   3.403  1.5514 -0.1253  1.6744
 8693SOL    HW334505   4.162   5.575   3.411  1.8058 -1.6896 -1.8927
 8693SOL    MW434506   4.088   5.567   3.365 -0.4166  0.1269  0.7725
 8694SOL     OW34507   1.461   1.363   6.392  0.3394 -0.2182  0.0005
 8694SOL    HW234508   1.415   1.300   6.338  1.3463  0.3156 -1.5348
 8694SOL    HW334509   1.391   1.413   6.435 -0.5774  0.8440 -2.5698
 8694SOL    MW434510   1.446   1.361   6.391 -0.2660 -0.3318  0.3098
 8695SOL     OW34511   5.296   1.150   5.629  0.5449  0.1964 -0.2514
 8695SOL    HW234512   5.284   1.130   5.722 -0.8758  1.3526 -0.1451
 8695SOL    HW334513   5.378   1.107   5.605 -0.1165 -1.8861  1.0017
 8695SOL    MW434514   5.305   1.142   5.638  0.0137  0.5333  0.1169
 8696SOL     OW34515   5.815   3.928   2.999 -0.1439 -0.5975 -0.3537
 8696SOL    HW234516   5.887   3.914   2.937  0.6836 -0.2844  0.5074
 8696SOL    HW334517   5.784   3.840   3.019  0.6241 -0.8068 -0.0343
 8696SOL    MW434518   5.820   3.914   2.993  0.6976  0.1055  0.1554
 8697SOL     OW34519   2.061   4.856   3.524  0.9123 -0.0919  0.5377
 8697SOL    HW234520   2.027   4.913   3.593 -0.3571 -0.5844  0.3513
 8697SOL    HW334521   2.004   4.779   3.527  2.4340 -1.2656  0.6265
 8697SOL    MW434522   2.049   4.854   3.534  0.2427  0.4868  0.3449
 8698SOL     OW34523   4.229   3.148   5.225  0.1749  0.2465 -0.0921
 8698SOL    HW234524   4.258   3.237   5.207 -1.7835  0.7761 -0.9460
 8698SOL    HW334525   4.262   3.097   5.150  1.3666  0.2057  0.4396
 8698SOL    MW434526   4.237   3.153   5.212 -0.4285  0.3423 -0.4692
 8699SOL     OW34527   4.539   1.143   3.163  0.0548 -0.3849  0.2886
 8699SOL    HW234528   4.496   1.220   3.125  0.3149 -0.3559  0.0425
 8699SOL    HW334529   4.628   1.173   3.182  0.1362 -0.6066  0.2559
 8699SOL    MW434530   4.545   1.157   3.160 -0.9480 -0.4829 -0.4320
 8700SOL     OW34531   3.957   3.778   6.186 -0.7834  0.1710  0.1582
 8700SOL    HW234532   4.039   3.809   6.147 -0.9244 -0.3277 -0.5663
 8700SOL    HW334533   3.985   3.711   6.248 -0.5020  1.4890  1.5055
 8700SOL    MW434534   3.972   3.773   6.189 -0.2047 -0.1360 -0.0701
 8701SOL     OW34535   2.691   1.486   3.593  0.4445 -0.2572  0.0218
 8701SOL    HW234536   2.601   1.517   3.591  0.1079 -1.2221 -0.6277
 8701SOL    HW334537   2.718   1.483   3.501  1.5332  1.0702  0.2591
 8701SOL    MW434538   2.683   1.489   3.581  0.1769 -0.8165  0.4084
 8702SOL     OW34539   3.202   2.221   3.875  0.0860 -0.1791 -0.0497
 8702SOL    HW234540   3.227   2.129   3.868 -2.1860 -0.7852 -1.4257
 8702SOL    HW334541   3.120   2.220   3.926 -1.4092  0.6962 -2.2764
 8702SOL    MW434542   3.194   2.209   3.881  0.5381  0.4803  0.6019
 8703SOL     OW34543   1.297   5.755   3.174  0.1006  0.4858  0.0751
 8703SOL    HW234544   1.205   5.735   3.192 -0.3332  1.3213 -1.0357
 8703SOL    HW334545   1.346   5.681   3.209 -1.2747 -1.8521 -2.5849
 8703SOL    MW434546   1.291   5.743   3.181  0.2412 -0.2196  0.3878
 8704SOL     OW34547   6.384   3.242   2.736 -0.3724  0.1228  0.0388
 8704SOL    HW234548   6.425   3.312   2.685  0.7200 -1.4461 -1.3261
 8704SOL    HW334549   6.448   3.221   2.803 -0.1116 -0.4553 -0.3835
 8704SOL    MW434550   6.398   3.249   2.738  0.2418  0.4833 -0.7424
 8705SOL     OW34551   3.250   3.090   6.007  0.0827  0.0894 -0.2775
 8705SOL    HW234552   3.334   3.115   6.044  0.2698 -3.9213  2.6170
 8705SOL    HW334553   3.187   3.149   6.048  1.0480  0.1610  1.1759
 8705SOL    MW434554   3.253   3.102   6.017  0.1918  0.1754  0.0360
 8706SOL     OW34555   0.758   1.919   5.231  0.0545  0.1493 -0.2412
 8706SOL    HW234556   0.802   1.979   5.170 -0.6553  0.9672  0.0397
 8706SOL    HW334557   0.730   1.845   5.177  1.5647 -0.2925 -0.4698
 8706SOL    MW434558   0.760   1.917   5.216 -0.0611 -0.6851  0.3310
 8707SOL     OW34559   6.088   3.677   2.983 -0.1035 -0.0712  0.1575
 8707SOL    HW234560   6.166   3.681   3.039  0.2901 -0.6384 -0.3284
 8707SOL    HW334561   6.122   3.649   2.898 -0.8985 -0.8004  0.0639
 8707SOL    MW434562   6.103   3.674   2.979 -0.5181  0.3145 -0.2290
 8708SOL     OW34563   1.359   6.170   5.758 -0.7030  0.1632 -0.4049
 8708SOL    HW234564   1.354   6.243   5.821 -1.9789 -0.1490 -0.1000
 8708SOL    HW334565   1.300   6.196   5.687  0.6499  0.4652 -1.4642
 8708SOL    MW434566   1.350   6.183   5.757 -0.1659  0.0886 -0.2596
 8709SOL     OW34567   0.785   5.545   3.272 -0.6018 -0.5128 -0.0701
 8709SOL    HW234568   0.845   5.618   3.256  0.0450 -0.7709  1.0727
 8709SOL    HW334569   0.753   5.560   3.361 -0.4784 -1.6118  0.1729
 8709SOL    MW434570   0.788   5.557   3.282 -0.2599 -0.2157  0.9241
 8710SOL     OW34571   2.687   4.332   5.955  0.4015  0.7898 -0.2021
 8710SOL    HW234572   2.649   4.246   5.939  1.8241  0.1700 -0.4225
 8710SOL    HW334573   2.613   4.386   5.982 -0.2301 -0.9665  1.8493
 8710SOL    MW434574   2.672   4.328   5.956 -0.2700  0.0877  0.3383
 8711SOL     OW34575   3.078   5.713   0.526  0.3613  0.4577 -0.0895
 8711SOL    HW234576   3.049   5.645   0.586 -0.4115 -0.7888 -1.8108
 8711SOL    HW334577   3.021   5.705   0.450  2.5582  0.6253 -1.8739
 8711SOL    MW434578   3.067   5.703   0.524  0.2269 -0.4838 -0.3392
 8712SOL     OW34579   5.780   1.079   5.850 -0.1298 -0.3677 -0.2938
 8712SOL    HW234580   5.845   1.014   5.879 -0.0019 -1.1378 -2.1874
 8712SOL    HW334581   5.832   1.154   5.823 -0.2655  0.4805  1.6403
 8712SOL    MW434582   5.796   1.080   5.850 -0.1685  0.4133 -0.0288
 8713SOL     OW34583   4.125   5.083   4.879 -0.8174  0.0995 -0.2886
 8713SOL    HW234584   4.207   5.046   4.848 -1.5356 -2.0806  0.2361
 8713SOL    HW334585   4.059   5.048   4.819 -1.8086 -1.4502  1.5878
 8713SOL    MW434586   4.127   5.074   4.867 -0.0824  0.3029 -0.0747
 8714SOL     OW34587   4.937   2.906   4.128  0.2759  0.3178 -0.0332
 8714SOL    HW234588   5.032   2.913   4.141  0.1403  1.2282  0.5840
 8714SOL    HW334589   4.926   2.915   4.033  0.5586  4.8341  0.1026
 8714SOL    MW434590   4.948   2.908   4.117 -0.3509 -0.5634  0.3474
 8715SOL     OW34591   1.059   1.684   3.985 -0.3039  0.3378 -0.1824
 8715SOL    HW234592   1.060   1.617   3.916  3.4923 -2.4219  2.1307
 8715SOL    HW334593   1.099   1.761   3.945 -0.1149 -0.4805 -1.6269
 8715SOL    MW434594   1.064   1.685   3.971 -0.0262  0.3577  0.3540
 8716SOL     OW34595   3.135   5.971   0.407  0.0024 -0.7826  0.3694
 8716SOL    HW234596   3.117   6.052   0.455 -0.8170 -1.3596  1.0737
 8716SOL    HW334597   3.108   5.901   0.466  2.9306 -1.7137  0.7689
 8716SOL    MW434598   3.129   5.972   0.421 -0.0390  0.4874  0.3747
 8717SOL     OW34599   3.147   5.799   2.999 -0.0285  0.0804  0.2626
 8717SOL    HW234600   3.217   5.840   2.948 -0.7583  2.7015  1.2158
 8717SOL    HW334601   3.161   5.705   2.988  2.7457  0.5265 -0.7534
 8717SOL    MW434602   3.158   5.792   2.991  0.1548  0.2838 -0.1344
 8718SOL     OW34603   3.515   6.420   2.081 -0.5267 -0.1862  0.7309
 8718SOL    HW234604   3.444   6.467   2.039  0.7713 -0.7297 -2.3411
 8718SOL    HW334605   3.509   6.331   2.045  1.9720 -0.0930 -0.0993
 8718SOL    MW434606   3.505   6.414   2.071  0.1413  1.3502  0.1768
 8719SOL     OW34607   3.440   0.932   4.368 -0.1337 -0.0926 -0.8697
 8719SOL    HW234608   3.525   0.887   4.367  1.2547  2.2651 -2.8521
 8719SOL    HW334609   3.393   0.896   4.292  0.2353  0.4688 -1.3759
 8719SOL    MW434610   3.445   0.921   4.358  0.1396  0.5139  0.4348
 8720SOL     OW34611   3.070   2.712   5.014  0.5230  0.2212  0.0386
 8720SOL    HW234612   2.998   2.671   5.062  0.1627  1.3074  0.4572
 8720SOL    HW334613   3.073   2.665   4.931 -0.2315 -0.2867  0.2869
 8720SOL    MW434614   3.061   2.701   5.009 -0.0233 -0.4362  0.5693
 8721SOL     OW34615   4.789   6.101   5.469  0.6606 -0.4047 -0.2323
 8721SOL    HW234616   4.720   6.126   5.408  0.6052  1.1754  0.4220
 8721SOL    HW334617   4.754   6.024   5.515 -0.1716 -0.3126 -0.6989
 8721SOL    MW434618   4.775   6.094   5.467  0.1018 -0.5226  0.7907
 8722SOL     OW34619   2.444   2.074   0.768  0.7343 -0.4018  0.5164
 8722SOL    HW234620   2.380   2.121   0.714  1.0533  0.0335  0.5162
 8722SOL    HW334621   2.422   2.099   0.858  0.5710 -0.6673  0.5503
 8722SOL    MW434622   2.432   2.083   0.773 -0.0928 -0.2337 -0.1111
 8723SOL     OW34623   6.311   5.122   6.378 -0.0089 -0.1220 -0.6578
 8723SOL    HW234624   6.322   5.077   6.294 -0.4405 -0.7530 -0.3912
 8723SOL    HW334625   6.392   5.171   6.390  1.4085 -2.4226 -0.0484
 8723SOL    MW434626   6.323   5.122   6.368  0.0081 -0.2271 -0.4306
 8724SOL     OW34627   0.182   1.622   0.324  0.1246  0.0223 -0.0777
 8724SOL    HW234628   0.235   1.545   0.303  1.5838  1.2337 -1.0493
 8724SOL    HW334629   0.189   1.678   0.247 -2.3480  0.3977 -0.0920
 8724SOL    MW434630   0.190   1.619   0.311  0.0975 -0.3543 -0.0453
 8725SOL     OW34631   0.306   4.651   1.032  0.2924 -0.2859  0.6429
 8725SOL    HW234632   0.342   4.578   1.083 -2.2381 -0.9408  1.6090
 8725SOL    HW334633   0.230   4.681   1.081  0.1319  1.7684 -0.7243
 8725SOL    MW434634   0.301   4.645   1.045 -0.1940  0.4529  0.0426
 8726SOL     OW34635   2.676   1.235   5.313 -0.4642 -0.3290 -0.3396
 8726SOL    HW234636   2.650   1.259   5.402 -1.0950  2.6841 -1.2365
 8726SOL    HW334637   2.768   1.210   5.321 -0.6381 -0.5541  1.2212
 8726SOL    MW434638   2.685   1.235   5.326 -0.1920  0.5112 -0.4346
 8727SOL     OW34639   5.356   5.116   5.054 -0.4649  1.0100 -0.3295
 8727SOL    HW234640   5.332   5.161   4.973  0.1974  1.7535 -0.1208
 8727SOL    HW334641   5.416   5.047   5.026 -1.8752 -0.1005 -0.7115
 8727SOL    MW434642   5.361   5.113   5.039  0.5742  0.7640 -0.6823
 8728SOL     OW34643   4.537   1.884   5.017  0.0054 -0.0795 -0.3767
 8728SOL    HW234644   4.537   1.820   4.945  0.6622 -0.1091 -0.3601
 8728SOL    HW334645   4.555   1.832   5.095 -1.7211 -0.2007 -0.0187
 8728SOL    MW434646   4.540   1.869   5.018 -0.4077  0.2131  0.2509
 8729SOL     OW34647   5.239   4.105   6.122 -0.4814 -0.7403  0.3485
 8729SOL    HW234648   5.279   4.153   6.050 -1.2694 -0.2771  0.2126
 8729SOL    HW334649   5.147   4.097   6.098 -0.6810 -0.8938  1.1377
 8729SOL    MW434650   5.232   4.110   6.110 -0.2376 -0.1760 -0.3144
 8730SOL     OW34651   2.902   3.230   3.744  0.3005  0.3104 -0.5404
 8730SOL    HW234652   2.861   3.277   3.817 -1.5773  0.8664 -1.8728
 8730SOL    HW334653   2.994   3.253   3.749 -0.0277  1.4528  0.8282
 8730SOL    MW434654   2.908   3.239   3.754 -0.1335  0.2702  0.2563
 8731SOL     OW34655   0.633   4.011   4.444  0.2163  0.0331  0.6429
 8731SOL    HW234656   0.578   4.005   4.522 -1.7856  2.9924 -0.3351
 8731SOL    HW334657   0.690   4.086   4.462  0.8951 -0.2966 -0.1084
 8731SOL    MW434658   0.633   4.020   4.457  0.2628 -0.8692  0.3124
 8732SOL     OW34659   4.741   1.479   3.321  0.3589 -0.6886 -0.1396
 8732SOL    HW234660   4.763   1.506   3.410  0.0600  0.5015 -0.4082
 8732SOL    HW334661   4.825   1.478   3.274  0.1071  3.6378 -1.1124
 8732SOL    MW434662   4.755   1.482   3.326  0.7733 -0.2244 -0.7000
 8733SOL     OW34663   2.211   5.376   2.501  0.5936  0.1830  0.1350
 8733SOL    HW234664   2.255   5.333   2.427 -0.5314 -0.2597 -0.2953
 8733SOL    HW334665   2.124   5.398   2.467 -0.1123 -0.4625  1.4921
 8733SOL    MW434666   2.205   5.373   2.487 -0.2387 -0.2488 -0.0528
 8734SOL     OW34667   4.650   1.170   5.071 -0.4185  0.4006  0.3176
 8734SOL    HW234668   4.669   1.253   5.027  0.5939  0.6584  1.1864
 8734SOL    HW334669   4.557   1.155   5.055 -0.2031  0.6908 -1.5235
 8734SOL    MW434670   4.641   1.179   5.063  0.5935  0.6543 -0.8890
 8735SOL     OW34671   4.462   1.243   0.036 -0.1269  0.3474 -0.4219
 8735SOL    HW234672   4.375   1.249   0.077  0.7214  0.8851  1.4182
 8735SOL    HW334673   4.466   1.318  -0.023 -1.4737 -0.5675 -1.7274
 8735SOL    MW434674   4.451   1.253   0.034 -0.2252 -0.1785  0.4187
 8736SOL     OW34675   1.832   1.851   1.103  0.3001  0.3209  0.5613
 8736SOL    HW234676   1.861   1.845   1.012  0.1299  2.4097  0.3053
 8736SOL    HW334677   1.844   1.763   1.138  0.1243 -0.6184 -1.5374
 8736SOL    MW434678   1.837   1.839   1.095  0.2191  0.5024 -0.5791
 8737SOL     OW34679   0.062   5.015   0.195  0.1297  0.4004  0.2155
 8737SOL    HW234680   0.054   4.927   0.232  0.8018 -0.8280 -2.2881
 8737SOL    HW334681   0.142   5.050   0.234  1.5828 -1.3901 -0.9521
 8737SOL    MW434682   0.072   5.008   0.205  0.4271 -0.8118  0.0589
 8738SOL     OW34683   1.214   5.193   5.306 -0.0070  0.1808  0.2437
 8738SOL    HW234684   1.183   5.147   5.384 -0.8382  1.1414  0.5016
 8738SOL    HW334685   1.144   5.182   5.243  0.4747 -0.2213 -0.2282
 8738SOL    MW434686   1.201   5.185   5.308  0.0172  0.5913 -0.1756
 8739SOL     OW34687   5.488   2.762   2.933  0.3461 -0.0915 -0.4581
 8739SOL    HW234688   5.424   2.702   2.893 -0.2252 -0.6511  1.2124
 8739SOL    HW334689   5.573   2.727   2.905 -0.0219 -0.1405 -1.5978
 8739SOL    MW434690   5.491   2.749   2.924 -0.0644 -0.0723  0.2056
 8740SOL     OW34691   1.883   4.000   0.680  0.8476 -0.4524  0.1950
 8740SOL    HW234692   1.865   4.091   0.706  1.5987 -0.6313  1.4174
 8740SOL    HW334693   1.817   3.981   0.613 -0.6886  0.3067  1.4212
 8740SOL    MW434694   1.872   4.010   0.675 -0.6922 -0.1645 -0.1206
 8741SOL     OW34695   5.140   4.997   0.749 -0.6846 -0.2538  0.1181
 8741SOL    HW234696   5.058   4.967   0.709 -0.2037 -0.4644 -0.7402
 8741SOL    HW334697   5.118   5.010   0.841 -1.5997 -0.6204 -0.0321
 8741SOL    MW434698   5.126   4.995   0.756 -0.2469  0.8549 -0.4188
 8742SOL     OW34699   6.018   0.813   5.034 -0.6942 -0.3064 -0.2136
 8742SOL    HW234700   6.077   0.738   5.018 -2.1086 -1.8765  1.4833
 8742SOL    HW334701   6.016   0.859   4.951  2.0976 -0.7669 -0.6596
 8742SOL    MW434702   6.026   0.809   5.021 -0.1142 -0.1715 -0.5997
 8743SOL     OW34703   2.540   0.081   5.106  0.1257  0.3698 -0.3329
 8743SOL    HW234704   2.527   0.176   5.112  0.1782  0.4173 -0.9235
 8743SOL    HW334705   2.575   0.057   5.191 -1.5678  0.6002  0.4666
 8743SOL    MW434706   2.543   0.091   5.118 -0.2406  0.2539 -0.1137
 8744SOL     OW34707   0.511   2.787   2.144 -0.6477  0.1545 -0.3490
 8744SOL    HW234708   0.539   2.851   2.210 -0.4815  1.9058 -2.0159
 8744SOL    HW334709   0.425   2.818   2.116 -0.7434 -0.5857 -0.9113
 8744SOL    MW434710   0.503   2.800   2.149  0.1843  0.5579  0.1106
 8745SOL     OW34711   0.496   2.401   5.622 -0.3209  0.1087 -0.0899
 8745SOL    HW234712   0.420   2.350   5.594 -0.0954 -0.5708  0.5101
 8745SOL    HW334713   0.468   2.493   5.611 -0.6913 -0.1227 -1.2682
 8745SOL    MW434714   0.482   2.407   5.617 -0.1438  0.2354  0.2616
 8746SOL     OW34715   0.558   3.194   4.533 -0.4791  0.6562  0.1514
 8746SOL    HW234716   0.479   3.223   4.488 -0.2815  0.2366 -0.4851
 8746SOL    HW334717   0.609   3.150   4.465 -0.6864 -1.0255  1.0216
 8746SOL    MW434718   0.554   3.192   4.518  0.1727 -0.4680  0.1410
 8747SOL     OW34719   2.809   3.297   4.746  0.4292 -0.1596  0.2203
 8747SOL    HW234720   2.843   3.386   4.752  0.0359 -0.0293  0.6057
 8747SOL    HW334721   2.884   3.243   4.723  0.1159  0.7043 -3.4207
 8747SOL    MW434722   2.823   3.302   4.744 -0.7709  0.2131  0.0140
 8748SOL     OW34723   5.315   2.498   1.069  0.3834 -0.7269 -0.8371
 8748SOL    HW234724   5.383   2.458   1.014  1.2074  0.9277 -1.0802
 8748SOL    HW334725   5.275   2.564   1.013 -0.3551 -0.6030 -0.1681
 8748SOL    MW434726   5.319   2.501   1.054 -0.5754 -0.1812  0.6314
 8749SOL     OW34727   5.347   2.230   0.633  0.5576  0.3673 -0.1458
 8749SOL    HW234728   5.252   2.219   0.630  0.6570 -0.4735 -0.4439
 8749SOL    HW334729   5.368   2.233   0.726  0.5221 -2.3880  0.0332
 8749SOL    MW434730   5.337   2.229   0.645 -0.4821  0.1266  0.3576
 8750SOL     OW34731   6.091   5.240   2.675 -0.5089  0.4518  0.1967
 8750SOL    HW234732   6.165   5.267   2.729  0.2782  0.6767 -0.9671
 8750SOL    HW334733   6.120   5.255   2.585 -0.6339 -2.7212 -0.4809
 8750SOL    MW434734   6.104   5.246   2.671 -0.2278  0.0506 -0.0917
 8751SOL     OW34735   5.691   0.714   5.329  0.5031 -0.1338  0.0897
 8751SOL    HW234736   5.703   0.797   5.374 -0.7853  1.7608 -2.7505
 8751SOL    HW334737   5.757   0.656   5.366  0.5791  1.6946  3.1186
 8751SOL    MW434738   5.701   0.717   5.340 -0.0365  0.6746 -0.2881
 8752SOL     OW34739   0.773   6.093   1.215 -0.1405 -0.5073 -0.4130
 8752SOL    HW234740   0.793   6.001   1.235  1.6140 -0.1790 -0.4844
 8752SOL    HW334741   0.839   6.142   1.263 -1.4673  0.7766  0.1548
 8752SOL    MW434742   0.785   6.087   1.224 -0.0168  0.0729 -0.2239
 8753SOL     OW34743   3.959   3.582   4.713  0.4176  0.0473 -0.3775
 8753SOL    HW234744   3.982   3.575   4.620  2.0104  0.1674 -0.0239
 8753SOL    HW334745   4.043   3.573   4.759 -0.0546  1.8613  0.9644
 8753SOL    MW434746   3.973   3.580   4.707  0.0893 -0.1625 -0.0593
 8754SOL     OW34747   5.360   1.938   2.571 -0.0792  0.0902  0.9701
 8754SOL    HW234748   5.444   1.913   2.610 -0.1431  0.7632  1.5549
 8754SOL    HW334749   5.295   1.888   2.619  0.0265 -0.9042  0.0996
 8754SOL    MW434750   5.363   1.928   2.582 -0.3794  0.2780 -0.2718
 8755SOL     OW34751   5.894   1.050   0.243  0.1640 -0.5383  0.0417
 8755SOL    HW234752   5.986   1.046   0.270 -0.2690 -0.8451  1.5398
 8755SOL    HW334753   5.885   0.979   0.180  1.0823 -0.1147 -0.6079
 8755SOL    MW434754   5.905   1.040   0.238  0.6203  0.0967 -0.4214
 8756SOL     OW34755   4.582   4.706   6.200  0.3466 -0.0788 -0.0103
 8756SOL    HW234756   4.507   4.738   6.151  0.5891  0.7599  0.1586
 8756SOL    HW334757   4.620   4.784   6.241  0.9055 -0.5856  0.4612
 8756SOL    MW434758   4.577   4.720   6.199 -0.1305  0.0114  0.1560
 8757SOL     OW34759   4.958   5.060   5.770 -0.0831  0.6724  0.3758
 8757SOL    HW234760   4.913   5.033   5.689  2.0796 -3.4881  0.3077
 8757SOL    HW334761   5.019   5.128   5.742 -2.7926  2.9952 -0.3731
 8757SOL    MW434762   4.960   5.065   5.755  0.2149  0.0471 -0.4975
 8758SOL     OW34763   5.275   4.047   2.238  0.1544  0.0831  0.4585
 8758SOL    HW234764   5.361   4.054   2.281  0.1244 -0.4797  0.6172
 8758SOL    HW334765   5.242   3.962   2.266 -0.4224  0.2661  0.3308
 8758SOL    MW434766   5.282   4.037   2.247  0.0700  0.0904  0.0776
 8759SOL     OW34767   6.355   3.871   3.386 -0.0283 -0.0063 -0.1240
 8759SOL    HW234768   6.439   3.824   3.383 -0.1378 -0.1668 -1.7195
 8759SOL    HW334769   6.319   3.851   3.473  1.5135 -0.0446  0.5352
 8759SOL    MW434770   6.361   3.862   3.397  0.6516 -0.0354 -0.7850
 8760SOL     OW34771   3.107   3.243   5.372 -0.5969 -0.3233 -0.2962
 8760SOL    HW234772   3.075   3.286   5.292 -1.4599 -0.7518 -0.1915
 8760SOL    HW334773   3.124   3.316   5.432  0.0036 -0.0007 -0.8356
 8760SOL    MW434774   3.105   3.259   5.369  0.1220  0.2120 -0.0645
 8761SOL     OW34775   5.268   6.037   3.313  0.2880 -0.1002  0.5084
 8761SOL    HW234776   5.189   6.035   3.366  1.5769  1.3299  2.6435
 8761SOL    HW334777   5.312   6.119   3.337  2.6891 -1.0815 -0.1514
 8761SOL    MW434778   5.264   6.047   3.323 -0.3879  1.3039 -1.1119
 8762SOL     OW34779   1.856   5.804   2.148 -0.7121  0.1280  0.1443
 8762SOL    HW234780   1.833   5.729   2.093 -1.3581  1.8590 -2.0768
 8762SOL    HW334781   1.845   5.880   2.091  2.4881  1.7650  1.4876
 8762SOL    MW434782   1.851   5.804   2.133  0.6054 -0.3634 -0.3148
 8763SOL     OW34783   0.946   3.228   5.537  0.3573 -0.5273  0.7189
 8763SOL    HW234784   1.006   3.224   5.611  1.8102  1.8325 -0.2106
 8763SOL    HW334785   0.995   3.275   5.469 -2.1201  0.4339 -0.5311
 8763SOL    MW434786   0.960   3.233   5.538  0.2637 -0.0414  1.2603
 8764SOL     OW34787   2.502   2.725   4.289  0.2168 -0.0538 -0.4715
 8764SOL    HW234788   2.578   2.735   4.233  0.7819  2.3552  0.5722
 8764SOL    HW334789   2.518   2.645   4.338  0.4753 -1.3313 -2.5180
 8764SOL    MW434790   2.514   2.716   4.288  0.0408 -0.4690  0.0141
 8765SOL     OW34791   4.090   1.255   0.931  0.1028 -0.2742 -0.7817
 8765SOL    HW234792   4.011   1.239   0.983  0.1668 -0.3107 -0.6938
 8765SOL    HW334793   4.106   1.173   0.886 -0.5124  0.0600 -1.6328
 8765SOL    MW434794   4.082   1.242   0.932  0.3905 -0.4685  0.3460
 8766SOL     OW34795   0.744   1.913   1.416 -0.2238 -0.7121 -0.1059
 8766SOL    HW234796   0.791   1.835   1.443 -1.0118 -1.4453 -0.8092
 8766SOL    HW334797   0.680   1.882   1.351 -0.1315  0.5937 -0.8655
 8766SOL    MW434798   0.742   1.899   1.411  0.0310  0.3248 -0.7266
 8767SOL     OW34799   1.536   1.084   5.321 -0.1123 -0.5151  0.1311
 8767SOL    HW234800   1.598   1.013   5.339 -0.0374 -1.3836 -2.9946
 8767SOL    HW334801   1.463   1.041   5.277 -1.1624  1.0337  0.3139
 8767SOL    MW434802   1.535   1.069   5.318  0.1774 -0.0596 -0.2007
 8768SOL     OW34803   4.497   5.951   2.594 -0.0230  0.9277  0.0689
 8768SOL    HW234804   4.562   6.018   2.618  1.6271 -0.9573  1.1808
 8768SOL    HW334805   4.479   5.905   2.675 -0.0574 -0.8324 -0.8806
 8768SOL    MW434806   4.503   5.954   2.608  0.0717 -0.3310 -0.2881
 8769SOL     OW34807   1.479   2.787   1.482 -0.1232 -0.3316 -0.8590
 8769SOL    HW234808   1.511   2.706   1.523 -0.8518 -0.4001 -0.4167
 8769SOL    HW334809   1.534   2.798   1.405  1.7067  0.1239  0.4408
 8769SOL    MW434810   1.491   2.778   1.477 -0.7688  0.1300 -0.1859
 8770SOL     OW34811   3.757   2.665   2.738 -0.3357 -0.6751  0.2414
 8770SOL    HW234812   3.692   2.628   2.798 -0.4618 -2.5867 -0.9866
 8770SOL    HW334813   3.713   2.666   2.653  1.2215 -2.1207 -0.6472
 8770SOL    MW434814   3.742   2.660   2.734 -0.1504  0.5021  0.2204
 8771SOL     OW34815   1.424   2.560   3.668  0.0339 -0.6159 -0.1274
 8771SOL    HW234816   1.406   2.512   3.587  1.8768 -2.6187  0.5329
 8771SOL    HW334817   1.368   2.520   3.734 -1.8138  1.3242 -0.4030
 8771SOL    MW434818   1.414   2.549   3.666 -1.2679 -0.8871 -0.2811
 8772SOL     OW34819   1.400   6.234   0.718  0.1280  0.2218 -0.3421
 8772SOL    HW234820   1.377   6.164   0.779  1.2603 -1.6134 -1.9061
 8772SOL    HW334821   1.453   6.295   0.771 -1.3313  0.2498  1.1811
 8772SOL    MW434822   1.404   6.233   0.733 -0.0051 -0.0475 -0.2785
 8773SOL     OW34823   5.499   0.355   1.391  0.1634  0.0006 -0.0904
 8773SOL    HW234824   5.582   0.333   1.434 -0.6535 -1.8976  0.6081
 8773SOL    HW334825   5.445   0.392   1.461  0.0985  0.4121 -0.3516
 8773SOL    MW434826   5.503   0.357   1.406  0.5192 -0.3573 -0.2337
 8774SOL     OW34827   1.689   3.109   1.278  0.0333 -0.2164 -0.7962
 8774SOL    HW234828   1.681   3.015   1.266 -0.8141 -0.0320 -1.7792
 8774SOL    HW334829   1.783   3.127   1.270  0.1157 -0.8789 -1.3704
 8774SOL    MW434830   1.701   3.099   1.276 -0.2098 -0.3079  0.1508
 8775SOL     OW34831   2.752   2.104   5.250 -0.1739 -0.3878  0.2052
 8775SOL    HW234832   2.823   2.166   5.234 -0.5421 -0.2181 -0.9075
 8775SOL    HW334833   2.795   2.023   5.275  0.4628 -0.5259 -1.2594
 8775SOL    MW434834   2.767   2.102   5.251 -0.1357 -0.4853 -0.1335
 8776SOL     OW34835   4.028   2.982   2.144  0.1994 -0.2483  0.0403
 8776SOL    HW234836   3.933   2.996   2.148  0.2946  1.0777 -1.3364
 8776SOL    HW334837   4.066   3.065   2.172  0.9557 -0.7181  0.4289
 8776SOL    MW434838   4.020   2.995   2.148  0.0602 -0.1003 -0.1422
 8777SOL     OW34839   2.530   3.654   6.348 -0.3623 -0.5022  0.0667
 8777SOL    HW234840   2.610   3.692   6.384  0.0864 -0.8607 -0.5276
 8777SOL    HW334841   2.463   3.721   6.363 -0.1559 -0.5581  1.3603
 8777SOL    MW434842   2.532   3.668   6.355  0.3397  0.4291  0.0519
 8778SOL     OW34843   0.613   6.253   4.550 -0.0900 -0.6400 -0.1299
 8778SOL    HW234844   0.706   6.276   4.557 -0.1092 -0.6983  0.3302
 8778SOL    HW334845   0.610   6.160   4.574 -0.5228 -0.1584  1.8827
 8778SOL    MW434846   0.625   6.244   4.554 -0.1471 -0.2704  0.1205
 8779SOL     OW34847   1.553   3.015   1.627  0.9344  0.1945  0.2495
 8779SOL    HW234848   1.552   3.090   1.568 -3.1052 -0.6135 -0.9818
 8779SOL    HW334849   1.518   2.943   1.575  1.6654 -1.7954  2.3342
 8779SOL    MW434850   1.548   3.015   1.613  0.7787 -0.1348  0.5981
 8780SOL     OW34851   4.815   2.704   0.805 -0.7897 -0.5503  0.0591
 8780SOL    HW234852   4.839   2.777   0.747  0.9161 -0.8437  0.3329
 8780SOL    HW334853   4.874   2.633   0.778 -1.6875 -1.4814  0.5164
 8780SOL    MW434854   4.826   2.704   0.794  0.1680 -0.1808  0.1861
 8781SOL     OW34855   4.767   5.209   0.240 -0.2871  0.0686 -0.3863
 8781SOL    HW234856   4.853   5.234   0.207 -0.8984 -0.7882 -2.8353
 8781SOL    HW334857   4.708   5.278   0.211 -0.6243  0.0650  0.2611
 8781SOL    MW434858   4.770   5.221   0.232  0.2795  0.2106  0.2464
 8782SOL     OW34859   0.046   5.486   3.296  0.1150 -0.0200 -0.3268
 8782SOL    HW234860   0.040   5.409   3.240 -1.0605 -0.4371  0.3319
 8782SOL    HW334861   0.132   5.479   3.339 -0.3250 -1.4511  0.3918
 8782SOL    MW434862   0.057   5.475   3.294  0.2869  0.6146 -0.1702
 8783SOL     OW34863   0.034   6.276   1.796  0.2734 -0.1530  0.0501
 8783SOL    HW234864   0.049   6.332   1.873  0.4582  1.7370 -1.3022
 8783SOL    HW334865   0.118   6.273   1.751  0.1730 -1.2776 -0.1016
 8783SOL    MW434866   0.047   6.283   1.800  0.3677 -0.4285 -0.2101
 8784SOL     OW34867   0.489   6.126   0.897 -0.6371  0.1128 -0.1916
 8784SOL    HW234868   0.420   6.137   0.832 -0.3042  2.7247 -0.1807
 8784SOL    HW334869   0.560   6.084   0.849 -0.9504  0.6204 -1.1201
 8784SOL    MW434870   0.489   6.122   0.882  0.5208  0.7350  0.2297
 8785SOL     OW34871   0.963   4.042   4.119 -0.6059  0.3896 -0.2903
 8785SOL    HW234872   0.886   3.987   4.102 -1.3377  0.6443  1.9144
 8785SOL    HW334873   0.973   4.040   4.214  0.2076  2.9212 -0.2596
 8785SOL    MW434874   0.954   4.034   4.129 -0.1442  0.0939  0.1316
 8786SOL     OW34875   4.416   2.563   0.684 -0.7203 -0.3220  0.1426
 8786SOL    HW234876   4.342   2.502   0.685 -0.9737 -0.0402 -0.5607
 8786SOL    HW334877   4.380   2.645   0.719 -0.6194 -0.3167  0.2340
 8786SOL    MW434878   4.401   2.566   0.688  0.1506 -0.2673 -0.4977
 8787SOL     OW34879   4.525   2.263   3.366  0.5664  0.4153  0.4982
 8787SOL    HW234880   4.551   2.195   3.303  0.2671  1.5504 -0.9069
 8787SOL    HW334881   4.433   2.244   3.384  0.5170  0.3666  0.2102
 8787SOL    MW434882   4.516   2.251   3.360 -0.0228 -0.0031 -0.1791
 8788SOL     OW34883   1.268   6.370   4.079 -0.0255  0.0908  0.4115
 8788SOL    HW234884   1.273   6.283   4.118  1.2073 -0.2707 -0.4960
 8788SOL    HW334885   1.219   6.357   3.998 -0.0304  0.2879  0.3814
 8788SOL    MW434886   1.262   6.357   4.073 -0.0580  0.2304 -0.2778
 8789SOL     OW34887   1.237   0.145   1.456  0.1806 -0.6476  0.0431
 8789SOL    HW234888   1.154   0.112   1.490 -0.0716 -0.1866 -0.1194
 8789SOL    HW334889   1.248   0.103   1.371 -0.8628  0.7681 -0.8398
 8789SOL    MW434890   1.228   0.135   1.449  0.3766 -0.0513  0.1897
 8790SOL     OW34891   5.488   1.034   3.531  0.2007  0.1687 -0.6659
 8790SOL    HW234892   5.517   1.115   3.490 -0.1313  0.5701 -0.1299
 8790SOL    HW334893   5.405   1.013   3.489  0.1335  0.2783 -0.5880
 8790SOL    MW434894   5.481   1.042   3.520  0.3664  0.1813  0.0667
 8791SOL     OW34895   4.452   1.448   6.273 -0.5327 -0.3601 -0.0379
 8791SOL    HW234896   4.359   1.439   6.293 -0.1040 -0.8785  1.9506
 8791SOL    HW334897   4.485   1.507   6.341  0.4350  0.6288 -1.3098
 8791SOL    MW434898   4.444   1.455   6.285  0.1015  0.5002  0.1106
 8792SOL     OW34899   4.175   3.864   3.799  0.6277  0.0722 -0.4705
 8792SOL    HW234900   4.089   3.823   3.807  1.1590 -1.2592 -1.2976
 8792SOL    HW334901   4.171   3.941   3.856 -1.3337  0.4207 -1.0258
 8792SOL    MW434902   4.163   3.869   3.807  0.3523  0.0187  1.2840
 8793SOL     OW34903   0.257   0.064   5.891  0.0872 -0.2150 -0.1567
 8793SOL    HW234904   0.249  -0.019   5.937 -1.3047 -0.2877 -0.4903
 8793SOL    HW334905   0.175   0.110   5.909 -0.1466  0.0997 -1.8458
 8793SOL    MW434906   0.245   0.059   5.899 -0.3757  0.1367 -0.2527
 8794SOL     OW34907   4.140   5.636   0.501  0.2328  0.4060  0.3761
 8794SOL    HW234908   4.177   5.551   0.476  1.4269  0.7587  0.8440
 8794SOL    HW334909   4.046   5.627   0.485  0.4566 -0.6716 -0.4916
 8794SOL    MW434910   4.133   5.624   0.496  0.1646  0.0966 -0.3253
 8795SOL     OW34911   1.558   0.443   3.745 -0.3537 -0.0466 -0.0261
 8795SOL    HW234912   1.533   0.425   3.654 -1.7192 -3.2676  0.8375
 8795SOL    HW334913   1.647   0.409   3.753  0.2313  1.3446 -0.4111
 8795SOL    MW434914   1.566   0.436   3.734  0.0220  0.2448  0.1498
 8796SOL     OW34915   0.592   4.095   3.439 -0.0922  0.6053  0.0614
 8796SOL    HW234916   0.573   4.133   3.525 -1.3003 -1.2152  0.6640
 8796SOL    HW334917   0.680   4.059   3.447 -0.2595  0.3103  0.5916
 8796SOL    MW434918   0.601   4.095   3.451  0.1578  0.2118 -0.2737
 8797SOL     OW34919   2.502   6.142   2.661  0.0878 -0.3471  0.5941
 8797SOL    HW234920   2.585   6.097   2.646  0.0843 -0.1584 -0.0089
 8797SOL    HW334921   2.525   6.218   2.716  0.5382  0.4534 -0.6593
 8797SOL    MW434922   2.516   6.146   2.666 -0.0680  0.7296  0.1437
 8798SOL     OW34923   4.869   1.429   3.072  0.1322 -0.5889  0.0643
 8798SOL    HW234924   4.776   1.429   3.051 -0.0987  0.6950  1.0237
 8798SOL    HW334925   4.893   1.522   3.076  1.1952 -0.8877  0.9610
 8798SOL    MW434926   4.860   1.441   3.070  0.1622  0.1475 -0.0039
 8799SOL     OW34927   0.982   6.231   3.383  0.0620 -0.0907  0.2529
 8799SOL    HW234928   1.078   6.230   3.393 -0.0461  1.4125  1.9730
 8799SOL    HW334929   0.968   6.219   3.289  1.8917 -1.2488  0.0770
 8799SOL    MW434930   0.993   6.229   3.372 -0.2473  0.0050 -0.3798
 8800SOL     OW34931   0.325   5.074   5.216  0.0849  0.3156  0.0215
 8800SOL    HW234932   0.350   5.090   5.307  0.3104 -0.8687  0.1872
 8800SOL    HW334933   0.290   5.157   5.186  1.9478  1.3520  0.5449
 8800SOL    MW434934   0.324   5.087   5.224  0.6082 -0.9898  0.0374
 8801SOL     OW34935   3.943   1.906   2.870 -0.0574  0.6419 -0.6011
 8801SOL    HW234936   3.885   1.943   2.804  0.4976  0.1889 -1.3538
 8801SOL    HW334937   4.031   1.916   2.833  0.2485  0.2577  0.0078
 8801SOL    MW434938   3.947   1.912   2.857 -0.6793 -0.4243 -0.2710
 8802SOL     OW34939   1.294   4.327   5.552  0.1527  0.0435 -0.1963
 8802SOL    HW234940   1.256   4.308   5.466 -0.0660 -0.6163  0.0413
 8802SOL    HW334941   1.231   4.387   5.593 -0.1998 -0.3557 -0.1467
 8802SOL    MW434942   1.281   4.333   5.546  0.6743 -0.0963  0.0683
 8803SOL     OW34943   5.377   5.332   4.569 -0.1625 -0.5737  0.3637
 8803SOL    HW234944   5.446   5.293   4.516 -1.3026 -0.5800 -1.1937
 8803SOL    HW334945   5.343   5.403   4.515  0.1908  0.9768  2.0959
 8803SOL    MW434946   5.382   5.336   4.555 -0.1946 -0.0528 -0.1233
 8804SOL     OW34947   3.646   0.537   1.939 -0.2925  0.4208  0.1887
 8804SOL    HW234948   3.696   0.457   1.951  0.8821  1.1092  0.0524
 8804SOL    HW334949   3.706   0.607   1.965 -0.6312  1.3799 -1.4773
 8804SOL    MW434950   3.661   0.536   1.944 -0.7026 -0.6629 -0.0599
 8805SOL     OW34951   4.361   2.701   4.947  0.1334  0.0682  0.0662
 8805SOL    HW234952   4.410   2.629   4.987 -0.5471 -0.3149  0.2218
 8805SOL    HW334953   4.273   2.694   4.984 -0.2140  0.3623 -0.6824
 8805SOL    MW434954   4.356   2.690   4.957  0.2142  0.1648  0.6773
 8806SOL     OW34955   3.145   1.919   5.031  0.3032  0.2705 -0.4174
 8806SOL    HW234956   3.149   1.972   5.110  0.4387  0.4903 -0.5677
 8806SOL    HW334957   3.126   1.831   5.061 -0.0357  0.4286 -0.1733
 8806SOL    MW434958   3.143   1.915   5.045 -0.0154  0.0664  0.0809
 8807SOL     OW34959   4.349   2.839   0.731 -0.3645  0.1964  0.1490
 8807SOL    HW234960   4.413   2.871   0.666 -0.3191 -0.6570 -0.2462
 8807SOL    HW334961   4.392   2.853   0.815  0.4878 -0.6048 -0.1232
 8807SOL    MW434962   4.363   2.845   0.733  0.5361  0.2649 -0.4604
 8808SOL     OW34963   2.655   3.467   0.961 -0.0822 -0.2721 -0.1251
 8808SOL    HW234964   2.701   3.520   0.895 -0.2833 -0.0084 -0.0558
 8808SOL    HW334965   2.716   3.396   0.981  1.0346  0.9931  1.1895
 8808SOL    MW434966   2.669   3.465   0.955 -0.0617  0.2838 -0.3940
 8809SOL     OW34967   0.337   6.069   4.401 -0.1942 -0.3510  0.2054
 8809SOL    HW234968   0.387   6.145   4.372 -0.3729 -0.0272  0.7306
 8809SOL    HW334969   0.349   6.004   4.331  1.9145 -0.7221  0.8209
 8809SOL    MW434970   0.345   6.070   4.388  0.4095  0.4184  0.4090
 8810SOL     OW34971   2.097   6.096   4.014 -1.0590 -0.3405  0.0008
 8810SOL    HW234972   2.094   6.163   3.946 -3.4001  0.1844  0.5534
 8810SOL    HW334973   2.120   6.144   4.094  0.6907 -0.8018 -0.1746
 8810SOL    MW434974   2.100   6.111   4.016  0.2162 -0.5147  0.2300
 8811SOL     OW34975   6.203   6.016   2.704 -0.8672 -0.1776 -0.1387
 8811SOL    HW234976   6.125   6.000   2.652 -1.5189 -0.0710  0.7750
 8811SOL    HW334977   6.174   6.003   2.795 -0.4352  2.0762  0.3972
 8811SOL    MW434978   6.189   6.012   2.709  0.6301  0.4340  0.3497
 8812SOL     OW34979   2.917   2.365   5.567 -0.3902 -0.2951 -0.1695
 8812SOL    HW234980   2.937   2.390   5.657 -0.5488 -1.1392  0.1073
 8812SOL    HW334981   2.822   2.362   5.563 -0.4070  0.4336 -0.5707
 8812SOL    MW434982   2.907   2.368   5.578  0.1391  0.2951  0.0291
 8813SOL     OW34983   0.060   5.981   2.114  0.2879  0.6613 -0.5067
 8813SOL    HW234984   0.009   5.902   2.128 -0.4890  0.9577 -1.5139
 8813SOL    HW334985   0.002   6.039   2.066  1.6380  0.8954 -1.9706
 8813SOL    MW434986   0.046   5.978   2.109  0.4001 -0.1901 -0.8252
 8814SOL     OW34987   0.920   2.176   6.422  0.5363 -0.3899  0.2430
 8814SOL    HW234988   0.969   2.111   6.472  0.6279 -0.9081 -0.5016
 8814SOL    HW334989   0.863   2.124   6.365  1.4841  0.1260 -1.2377
 8814SOL    MW434990   0.919   2.160   6.421 -0.4500  0.3928  0.0266
 8815SOL     OW34991   6.385   1.235   5.515 -0.2669 -0.0183  0.2092
 8815SOL    HW234992   6.365   1.172   5.446  0.6760 -0.9781  0.7748
 8815SOL    HW334993   6.305   1.286   5.525 -1.6813 -2.2310  0.8786
 8815SOL    MW434994   6.372   1.233   5.507  0.4146 -0.1512 -0.4295
 8816SOL     OW34995   4.509   3.454   1.459  0.4769  0.2415  0.3537
 8816SOL    HW234996   4.471   3.477   1.374  0.4857 -0.5818  0.1228
 8816SOL    HW334997   4.603   3.473   1.449  0.3438  1.0465  0.5042
 8816SOL    MW434998   4.517   3.460   1.446 -0.8114 -0.6141  0.4796
 8817SOL     OW34999   3.668   3.163   2.494 -0.0226 -0.1705 -0.4328
 8817SOL    HW235000   3.631   3.106   2.426 -0.2580 -0.3764 -0.1349
 8817SOL    HW335001   3.722   3.105   2.546  0.1876 -0.0037 -0.4671
 8817SOL    MW435002   3.670   3.148   2.492 -0.2279 -0.2216 -0.4510
 8818SOL     OW35003   4.591   4.035   0.679 -0.2704 -0.0096 -0.5327
 8818SOL    HW235004   4.608   4.077   0.595 -0.8129 -1.2690 -1.3006
 8818SOL    HW335005   4.499   4.010   0.676 -0.2950 -0.0961  0.4381
 8818SOL    MW435006   4.581   4.037   0.668 -0.4988 -0.1150  0.2178
 8819SOL     OW35007   3.233   4.222   4.157 -0.6026 -0.1090  0.2577
 8819SOL    HW235008   3.325   4.243   4.175 -0.6257  0.3933 -0.1898
 8819SOL    HW335009   3.190   4.231   4.242  0.2358 -3.1422  1.1099
 8819SOL    MW435010   3.240   4.226   4.171  0.0975  0.3151 -0.1307
 8820SOL     OW35011   2.620   2.860   0.270 -0.0113  0.1441  0.2389
 8820SOL    HW235012   2.556   2.928   0.252  0.1067  0.2396  0.1817
 8820SOL    HW335013   2.587   2.783   0.225  0.1331  0.3050 -0.1481
 8820SOL    MW435014   2.608   2.859   0.262  0.8303 -0.0489  0.0754
 8821SOL     OW35015   3.795   3.438   0.050  0.1144 -0.2198 -0.2761
 8821SOL    HW235016   3.888   3.445   0.029  0.0540 -1.5369 -1.0585
 8821SOL    HW335017   3.751   3.455  -0.034 -0.3160 -0.6506 -0.1350
 8821SOL    MW435018   3.802   3.441   0.036  0.2895 -0.3167 -0.1687
 8822SOL     OW35019   4.289   2.480   3.995  0.1396 -0.1132  0.4691
 8822SOL    HW235020   4.196   2.503   4.002 -0.2243 -1.5649  0.8330
 8822SOL    HW335021   4.309   2.437   4.078  1.2378  0.4677  0.5230
 8822SOL    MW435022   4.279   2.477   4.007 -0.2923 -0.1794 -0.0190
 8823SOL     OW35023   6.032   1.996   0.463 -0.0295  0.4658  0.4325
 8823SOL    HW235024   5.988   1.975   0.545 -1.1908 -2.8868 -0.8472
 8823SOL    HW335025   5.966   2.040   0.411 -0.2416  0.0138  0.3130
 8823SOL    MW435026   6.018   1.999   0.467  0.1915  0.5765  0.0195
 8824SOL     OW35027   5.880   0.883   0.798  0.9370 -0.4249 -0.3921
 8824SOL    HW235028   5.819   0.812   0.820  1.1641 -0.5510 -0.1649
 8824SOL    HW335029   5.928   0.899   0.880 -0.8320  1.7133  0.3286
 8824SOL    MW435030   5.878   0.875   0.812  0.8273  0.3687 -0.4617
 8825SOL     OW35031   6.235   1.707   1.347 -0.2864  0.9674  0.8222
 8825SOL    HW235032   6.158   1.652   1.361  0.2121  0.2848  0.9451
 8825SOL    HW335033   6.310   1.648   1.358  0.2417  1.4208 -0.1159
 8825SOL    MW435034   6.235   1.692   1.350  0.0769 -0.6130 -0.0891
 8826SOL     OW35035   1.198   1.615   1.398  0.1964  0.3438  0.3065
 8826SOL    HW235036   1.182   1.703   1.434  0.5630  0.3148  0.5476
 8826SOL    HW335037   1.288   1.619   1.364 -0.1897  0.4128 -0.7420
 8826SOL    MW435038   1.208   1.627   1.398 -0.1046  0.5638 -0.3597
 8827SOL     OW35039   1.007   4.219   2.192 -0.6596  0.0223  0.0432
 8827SOL    HW235040   1.051   4.159   2.251 -1.6031 -1.3087 -0.5611
 8827SOL    HW335041   1.006   4.174   2.108 -0.5570  1.2941 -0.6654
 8827SOL    MW435042   1.013   4.205   2.189 -0.8420  0.2099  0.4052
 8828SOL     OW35043   4.789   2.262   2.037  0.3726 -0.4373  0.2814
 8828SOL    HW235044   4.845   2.330   1.998 -0.0989 -1.0645 -1.5956
 8828SOL    HW335045   4.710   2.262   1.983 -0.1353 -1.6785  0.9841
 8828SOL    MW435046   4.786   2.271   2.025  0.0386 -0.6460 -0.2112
 8829SOL     OW35047   1.508   4.979   0.961  0.2653 -0.0296 -0.1205
 8829SOL    HW235048   1.537   4.916   0.895 -1.3664 -0.9996  0.0142
 8829SOL    HW335049   1.459   5.044   0.912  0.0453 -0.1072 -0.0038
 8829SOL    MW435050   1.505   4.979   0.946 -0.0991 -0.8473 -0.3257
 8830SOL     OW35051   2.151   3.699   2.335 -0.7445  0.3088 -0.1136
 8830SOL    HW235052   2.188   3.711   2.423 -0.7366 -1.0568  0.0992
 8830SOL    HW335053   2.087   3.769   2.326 -2.4735 -0.8502  1.9710
 8830SOL    MW435054   2.147   3.710   2.346 -0.2243 -0.0458  0.1647
 8831SOL     OW35055   3.839   4.679   0.447 -0.4555 -0.7678  0.0375
 8831SOL    HW235056   3.901   4.732   0.497 -0.3382 -0.4934 -0.3865
 8831SOL    HW335057   3.859   4.700   0.355  1.3496 -3.4330 -0.3043
 8831SOL    MW435058   3.850   4.688   0.441  0.3017 -0.7337  0.2739
 8832SOL     OW35059   6.400   1.952   4.674 -0.0849 -0.4404 -0.3087
 8832SOL    HW235060   6.469   1.888   4.691  1.5005  0.5731 -2.4037
 8832SOL    HW335061   6.337   1.907   4.618  1.1204 -0.1848 -1.9330
 8832SOL    MW435062   6.401   1.938   4.669 -0.0956 -0.0890 -0.2028
 8833SOL     OW35063   3.883   1.460   6.286 -0.4460 -0.0408 -0.1129
 8833SOL    HW235064   3.791   1.438   6.268 -0.1170 -0.0212 -2.0140
 8833SOL    HW335065   3.913   1.389   6.343 -1.5695 -0.1757  0.3520
 8833SOL    MW435066   3.875   1.448   6.291  0.3772 -0.1597  0.0957
 8834SOL     OW35067   0.933   2.030   1.000  0.3880 -0.4874  0.6244
 8834SOL    HW235068   0.954   2.083   0.923 -0.3944 -1.2538 -0.1417
 8834SOL    HW335069   0.838   2.038   1.009  0.3059 -1.4323  0.7161
 8834SOL    MW435070   0.923   2.038   0.991 -0.0637 -0.1786 -0.6956
 8835SOL     OW35071   0.624   2.345   1.323  0.2430 -0.0130 -0.0451
 8835SOL    HW235072   0.627   2.440   1.325  1.4229 -0.0191 -0.6329
 8835SOL    HW335073   0.556   2.323   1.260  2.0647  0.4987 -2.3304
 8835SOL    MW435074   0.616   2.354   1.315 -0.1723  0.8502  0.0464
 8836SOL     OW35075   4.304   5.010   2.307  0.1205  0.3593  0.4648
 8836SOL    HW235076   4.222   4.962   2.303  0.0260  0.4511  1.1950
 8836SOL    HW335077   4.355   4.977   2.233 -0.4430  0.0641  0.2063
 8836SOL    MW435078   4.300   5.000   2.297  0.1104 -0.5542  0.2840
 8837SOL     OW35079   5.418   0.586   4.866 -0.3966  0.6407  0.0797
 8837SOL    HW235080   5.380   0.572   4.779 -0.5507  0.8517  0.1110
 8837SOL    HW335081   5.491   0.525   4.871 -0.1263  0.9245 -0.3607
 8837SOL    MW435082   5.422   0.577   4.855  0.2064 -0.1533 -0.1369
 8838SOL     OW35083   4.849   5.774   3.428 -0.2341  0.1992 -0.1209
 8838SOL    HW235084   4.759   5.795   3.454 -0.2690 -0.5886  0.4092
 8838SOL    HW335085   4.865   5.687   3.464  1.4129  1.1002  1.4838
 8838SOL    MW435086   4.839   5.766   3.436  0.2457  0.5006  0.3341
 8839SOL     OW35087   5.826   3.064   2.081  0.2483  0.2484 -0.4098
 8839SOL    HW235088   5.740   3.052   2.041  0.0952 -0.7924  0.2129
 8839SOL    HW335089   5.866   2.977   2.080 -0.1763 -0.0984  2.6217
 8839SOL    MW435090   5.820   3.051   2.075  0.2313 -0.3859  0.7099
 8840SOL     OW35091   0.086   1.459   5.371  0.2648 -0.4506  0.4947
 8840SOL    HW235092   0.033   1.388   5.409  0.4017 -0.5210  0.5547
 8840SOL    HW335093   0.041   1.539   5.398 -0.9634 -0.5406 -1.1403
 8840SOL    MW435094   0.073   1.460   5.380 -0.5354  0.1967 -0.4878
 8841SOL     OW35095   1.652   3.038   2.286  0.1897 -0.3134  0.8083
 8841SOL    HW235096   1.744   3.060   2.270  0.2119 -0.1704  1.1220
 8841SOL    HW335097   1.639   2.954   2.243  0.7382 -0.8334  1.6185
 8841SOL    MW435098   1.663   3.030   2.278  0.0773 -0.0794  0.4144
 8842SOL     OW35099   1.480   2.123   2.997  0.1393  0.4146 -0.3240
 8842SOL    HW235100   1.440   2.036   3.002 -0.9454  0.9240  0.4039
 8842SOL    HW335101   1.528   2.123   2.915 -3.0226  0.3787 -2.3624
 8842SOL    MW435102   1.481   2.112   2.987  0.1469  0.2038 -0.1453
 8843SOL     OW35103   3.860   3.240   4.431  0.3878  0.1333  0.3788
 8843SOL    HW235104   3.888   3.250   4.340 -0.6593 -1.4971 -0.1738
 8843SOL    HW335105   3.875   3.148   4.451 -3.1178 -0.5526  0.4572
 8843SOL    MW435106   3.866   3.229   4.422 -0.1598  0.1778 -0.0801
 8844SOL     OW35107   3.402   5.313   1.890 -0.0196  0.7952  0.2472
 8844SOL    HW235108   3.481   5.337   1.843  0.3881  0.3767  0.7056
 8844SOL    HW335109   3.433   5.275   1.973 -0.6848  0.3644  0.3158
 8844SOL    MW435110   3.416   5.311   1.895 -0.1129  0.3404  0.0812
 8845SOL     OW35111   5.254   6.020   1.401  0.0448 -0.2806  0.0836
 8845SOL    HW235112   5.348   6.028   1.387  0.2717 -1.4048  0.8131
 8845SOL    HW335113   5.222   6.110   1.405  0.7507  0.1315 -2.1212
 8845SOL    MW435114   5.262   6.033   1.400 -0.1459 -0.1881 -0.3306
 8846SOL     OW35115   4.679   3.263   5.258 -0.0581 -0.1037 -0.5812
 8846SOL    HW235116   4.645   3.182   5.296  2.0804 -0.9896 -0.4111
 8846SOL    HW335117   4.713   3.236   5.172  0.5170  0.6244 -0.5940
 8846SOL    MW435118   4.679   3.249   5.251 -0.1294  0.6497 -0.2027
 8847SOL     OW35119   0.879   5.889   2.425 -0.5121  0.4338 -0.2591
 8847SOL    HW235120   0.862   5.909   2.517  1.2269  0.9287 -0.0116
 8847SOL    HW335121   0.972   5.907   2.414 -1.0547  2.3273 -2.6085
 8847SOL    MW435122   0.889   5.894   2.436 -0.1112  0.3480 -0.7408
 8848SOL     OW35123   2.321   0.313   6.259  0.0186 -0.3270 -0.2300
 8848SOL    HW235124   2.373   0.306   6.339  0.9522 -1.2226 -0.8919
 8848SOL    HW335125   2.260   0.384   6.277 -1.4707 -2.0605  2.2139
 8848SOL    MW435126   2.320   0.321   6.272  0.3161 -0.1442 -0.2523
 8849SOL     OW35127   2.924   0.240   5.523  0.2931  0.0409 -0.2469
 8849SOL    HW235128   2.929   0.172   5.457  1.4734 -1.7162  1.5181
 8849SOL    HW335129   3.015   0.268   5.536  0.1256  0.1281  0.8283
 8849SOL    MW435130   2.937   0.235   5.516  0.3690 -0.0974  0.1987
 8850SOL     OW35131   0.895   6.315   4.549  0.7604  0.0729  0.4916
 8850SOL    HW235132   0.910   6.310   4.454 -0.6503 -0.0975  0.2600
 8850SOL    HW335133   0.911   6.407   4.571 -0.3962  0.4565 -0.1939
 8850SOL    MW435134   0.899   6.326   4.539 -0.0182 -0.4736  0.1759
 8851SOL     OW35135   2.097   1.549   2.468 -0.0245  0.0675  0.0531
 8851SOL    HW235136   2.121   1.610   2.538 -3.3644  0.0641  1.3722
 8851SOL    HW335137   2.145   1.580   2.391  0.5648  2.6279  1.3535
 8851SOL    MW435138   2.107   1.561   2.467  0.2797 -0.3516 -0.1920
 8852SOL     OW35139   3.746   1.997   6.361  0.2234  0.2802  0.3471
 8852SOL    HW235140   3.700   2.009   6.277 -1.2245  2.8048  1.3750
 8852SOL    HW335141   3.781   2.084   6.381 -0.0285 -0.0979  2.6455
 8852SOL    MW435142   3.744   2.010   6.352  0.0115 -0.1585 -0.2647
 8853SOL     OW35143   0.096   3.362   3.222  0.5908  0.0567  0.1017
 8853SOL    HW235144   0.180   3.377   3.178  0.8797  2.3404  1.2653
 8853SOL    HW335145   0.035   3.420   3.176 -0.0014 -0.4607  0.2295
 8853SOL    MW435146   0.099   3.372   3.210  0.4847 -0.1229 -0.4992
 8854SOL     OW35147   2.817   3.562   2.205 -0.4155  0.6951  0.4734
 8854SOL    HW235148   2.763   3.484   2.210 -2.4230  1.9585 -0.3206
 8854SOL    HW335149   2.849   3.576   2.294  0.3281 -1.2097  0.5529
 8854SOL    MW435150   2.814   3.553   2.217  0.0201 -1.0311  0.1906
 8855SOL     OW35151   1.081   5.368   0.829  0.2999 -0.1037 -0.2068
 8855SOL    HW235152   1.025   5.441   0.855  0.5726 -0.0178  0.1608
 8855SOL    HW335153   1.098   5.382   0.736  1.5426  1.1283  0.1643
 8855SOL    MW435154   1.076   5.380   0.821  0.2190  0.5151  0.2969
 8856SOL     OW35155   0.588   0.460   2.496 -0.6274 -0.6491  0.2190
 8856SOL    HW235156   0.657   0.524   2.510  0.3516 -1.1936 -1.7181
 8856SOL    HW335157   0.522   0.506   2.445 -1.0738 -0.5228  0.8941
 8856SOL    MW435158   0.588   0.474   2.491 -0.4797 -0.6129  0.0093
 8857SOL     OW35159   1.682   1.027   4.106  0.6016 -0.3822  0.2536
 8857SOL    HW235160   1.686   1.107   4.053  0.2288 -0.3136  0.3259
 8857SOL    HW335161   1.598   1.033   4.152 -0.5795 -1.9248 -1.5427
 8857SOL    MW435162   1.671   1.038   4.105  0.5121 -0.1172  0.3424
 8858SOL     OW35163   2.692   5.073   5.778 -0.1575 -0.0608 -0.2042
 8858SOL    HW235164   2.652   5.160   5.776  2.0564  1.1396  1.7281
 8858SOL    HW335165   2.650   5.029   5.852 -2.1587 -1.1827 -1.9331
 8858SOL    MW435166   2.681   5.079   5.788  1.4191  0.5726  0.0752
 8859SOL     OW35167   5.175   3.551   2.380 -0.3956 -0.7428 -0.1117
 8859SOL    HW235168   5.210   3.489   2.316 -2.8677 -0.3594 -1.9737
 8859SOL    HW335169   5.100   3.506   2.419 -0.6806  0.1200  0.3691
 8859SOL    MW435170   5.170   3.537   2.376 -0.6636  0.0181 -0.1064
 8860SOL     OW35171   3.883   4.664   6.271 -0.4437  0.0707  0.7400
 8860SOL    HW235172   3.808   4.712   6.305 -1.0189 -1.8883  2.4744
 8860SOL    HW335173   3.844   4.587   6.228  0.4651  0.6834 -1.2653
 8860SOL    MW435174   3.868   4.660   6.270 -0.1122  0.0532  0.4507
 8861SOL     OW35175   0.166   3.444   3.476 -0.4755 -0.3953  0.0331
 8861SOL    HW235176   0.108   3.429   3.550  0.6358 -1.7523  0.6604
 8861SOL    HW335177   0.131   3.387   3.407 -1.5952  0.9742 -0.5747
 8861SOL    MW435178   0.154   3.435   3.476  0.7126 -0.3332 -0.1198
 8862SOL     OW35179   3.956   2.084   4.309  0.0964  0.1659 -0.4957
 8862SOL    HW235180   3.924   2.151   4.249  0.5470 -0.2048 -1.1602
 8862SOL    HW335181   3.985   2.133   4.386  0.2262  0.7096 -0.8872
 8862SOL    MW435182   3.955   2.099   4.311  0.5503 -0.3321 -0.4321
 8863SOL     OW35183   2.313   4.929   3.002  0.2628  0.5467  0.5745
 8863SOL    HW235184   2.374   4.978   3.056  0.9612 -0.3383  0.6253
 8863SOL    HW335185   2.275   4.864   3.061  2.4365 -1.6883 -0.3088
 8863SOL    MW435186   2.316   4.927   3.017  0.6442 -0.1963 -0.4179
 8864SOL     OW35187   4.401   5.327   5.609  0.5384  0.0130  0.6851
 8864SOL    HW235188   4.492   5.330   5.578  0.9081  0.7633  1.8089
 8864SOL    HW335189   4.349   5.317   5.529  1.5942 -0.2983  0.0191
 8864SOL    MW435190   4.406   5.326   5.594 -0.5230 -0.2547  0.5946
 8865SOL     OW35191   0.089   3.675   3.993 -0.2244 -0.2580 -0.0018
 8865SOL    HW235192   0.116   3.725   4.070  0.8772  1.4483 -1.3900
 8865SOL    HW335193  -0.007   3.682   3.993 -0.1872  0.5203  0.7207
 8865SOL    MW435194   0.080   3.683   4.003 -0.1073 -0.1158  0.0560
 8866SOL     OW35195   6.316   6.108   2.291 -0.0548  0.7526  0.4458
 8866SOL    HW235196   6.350   6.136   2.376 -1.1757 -1.7978  1.8146
 8866SOL    HW335197   6.386   6.054   2.254 -0.7083 -0.5789  1.1172
 8866SOL    MW435198   6.330   6.105   2.297  0.1949  0.3559 -0.7235
 8867SOL     OW35199   3.808   4.854   4.507 -0.4749 -0.1065  0.2156
 8867SOL    HW235200   3.746   4.796   4.463 -0.4000 -0.4604  0.5752
 8867SOL    HW335201   3.876   4.870   4.442  1.3178 -3.1722  1.1422
 8867SOL    MW435202   3.809   4.848   4.492 -0.2009  0.1851 -0.1359
 8868SOL     OW35203   4.280   5.833   5.007 -0.5053  0.3796  0.9269
 8868SOL    HW235204   4.220   5.888   5.057 -0.9851  2.3660 -1.6266
 8868SOL    HW335205   4.225   5.788   4.944  0.4747  1.3349 -0.6890
 8868SOL    MW435206   4.265   5.834   5.005  0.1971  0.2099 -0.1189
 8869SOL     OW35207   2.301   2.610   2.614  0.3020 -0.1911 -0.1165
 8869SOL    HW235208   2.318   2.704   2.611  2.1830 -0.4640  0.5860
 8869SOL    HW335209   2.343   2.576   2.535  0.1331 -0.5075 -0.0691
 8869SOL    MW435210   2.309   2.618   2.603 -0.2137 -0.1356 -0.0760
 8870SOL     OW35211   5.959   5.046   2.496  0.4410 -0.1571  0.0834
 8870SOL    HW235212   5.964   4.953   2.521  0.0427  0.0327  0.8984
 8870SOL    HW335213   6.017   5.091   2.558  0.2630  0.1947 -0.0023
 8870SOL    MW435214   5.967   5.039   2.507  0.0610 -0.3149  0.2963
 8871SOL     OW35215   3.303   4.260   2.845 -1.0379 -0.3202 -0.4590
 8871SOL    HW235216   3.233   4.305   2.893 -0.8853  0.7805 -1.2232
 8871SOL    HW335217   3.299   4.297   2.757  0.8781  0.2121 -0.3636
 8871SOL    MW435218   3.293   4.271   2.840 -0.3611  0.0338 -0.2349
 8872SOL     OW35219   5.803   0.168   0.471 -0.4303  0.1816  0.2968
 8872SOL    HW235220   5.838   0.194   0.386  0.7825 -1.8891  0.1058
 8872SOL    HW335221   5.719   0.128   0.451  0.8867 -2.5013 -0.3113
 8872SOL    MW435222   5.797   0.166   0.457  0.1873 -0.3164  0.5878
 8873SOL     OW35223   2.976   6.055   2.439  0.0131 -0.0495 -0.3291
 8873SOL    HW235224   2.912   6.032   2.371 -0.1829 -1.9350  0.4079
 8873SOL    HW335225   2.926   6.107   2.502 -0.6298 -0.8248 -0.1683
 8873SOL    MW435226   2.961   6.059   2.438  0.0809  0.3115  0.2433
 8874SOL     OW35227   3.683   1.062   6.390  0.0977 -0.4756 -0.0961
 8874SOL    HW235228   3.652   0.977   6.420 -1.2749 -0.1537 -0.5119
 8874SOL    HW335229   3.714   1.047   6.301 -1.2941 -0.3465 -0.6362
 8874SOL    MW435230   3.683   1.049   6.382  0.1196  0.8444  0.4944
 8875SOL     OW35231   2.893   4.397   2.025 -0.2077 -0.0548  0.5954
 8875SOL    HW235232   2.945   4.339   2.080  1.1508  2.3130  1.9767
 8875SOL    HW335233   2.897   4.358   1.938  1.3214 -1.5705  1.3095
 8875SOL    MW435234   2.900   4.385   2.020 -0.0875 -0.5184  0.7283
 8876SOL     OW35235   4.996   0.713   4.831 -0.3800 -0.5343  0.4509
 8876SOL    HW235236   5.045   0.638   4.864  1.4644  0.2019 -0.4699
 8876SOL    HW335237   4.997   0.777   4.903 -1.1454 -0.9927  0.8913
 8876SOL    MW435238   5.002   0.712   4.845  0.5131 -0.0080  0.7321
 8877SOL     OW35239   4.867   3.953   5.830  0.3383  0.2469 -0.2000
 8877SOL    HW235240   4.812   4.012   5.780  1.3648  0.1076 -1.5455
 8877SOL    HW335241   4.926   3.914   5.765  1.2636 -0.4414  1.0098
 8877SOL    MW435242   4.868   3.956   5.815 -0.2506 -0.0622 -0.3144
 8878SOL     OW35243   2.449   5.689   4.520  0.2453 -0.7254  0.0990
 8878SOL    HW235244   2.431   5.760   4.459  0.5755  1.1468  2.0813
 8878SOL    HW335245   2.544   5.679   4.517  0.2563 -0.6663  0.2915
 8878SOL    MW435246   2.459   5.697   4.511 -0.2846  0.3817  0.1778
 8879SOL     OW35247   4.865   5.127   0.663 -0.2446  0.0446  0.3544
 8879SOL    HW235248   4.825   5.044   0.690  0.0814 -0.1940  0.1220
 8879SOL    HW335249   4.924   5.102   0.592 -0.9098  0.6233 -0.4136
 8879SOL    MW435250   4.868   5.113   0.657  0.4524  0.4110 -0.1092
 8880SOL     OW35251   4.964   3.775   3.337 -0.0097 -0.0429 -0.6996
 8880SOL    HW235252   4.959   3.870   3.345 -0.4730 -0.0935 -0.2974
 8880SOL    HW335253   5.051   3.752   3.369 -1.0196 -0.0329  2.3811
 8880SOL    MW435254   4.975   3.785   3.342  0.2673  0.1004  0.0302
 8881SOL     OW35255   3.662   0.257   5.687 -0.3736  0.2473  0.0497
 8881SOL    HW235256   3.586   0.315   5.680 -1.2566 -1.0354 -2.2652
 8881SOL    HW335257   3.722   0.287   5.620  0.6689  0.4870  1.0525
 8881SOL    MW435258   3.660   0.269   5.678 -0.2816 -0.3055 -0.2037
 8882SOL     OW35259   2.219   2.430   1.162  0.3910 -0.6892 -0.2948
 8882SOL    HW235260   2.229   2.434   1.257  1.2340 -0.7201 -0.3727
 8882SOL    HW335261   2.291   2.484   1.128 -0.4083  0.0258 -0.9034
 8882SOL    MW435262   2.230   2.438   1.170  0.1044 -0.7930 -0.1741
 8883SOL     OW35263   4.483   1.091   1.916 -0.3463  0.0680  0.0886
 8883SOL    HW235264   4.421   1.021   1.933  2.9683 -3.6404 -1.6712
 8883SOL    HW335265   4.560   1.068   1.968  0.6008  3.0371  0.2089
 8883SOL    MW435266   4.485   1.079   1.925  0.0655 -0.4061 -0.0497
 8884SOL     OW35267   6.251   1.595   4.729 -0.2879  0.1246  0.1344
 8884SOL    HW235268   6.162   1.628   4.733  0.1458  1.3463  0.3321
 8884SOL    HW335269   6.291   1.623   4.812  0.2872 -0.3855  0.0428
 8884SOL    MW435270   6.245   1.603   4.740 -0.1461 -0.7777  0.4561
 8885SOL     OW35271   0.618   2.776   0.609 -0.7187  0.2372  0.5917
 8885SOL    HW235272   0.605   2.799   0.517  3.2615 -1.4872 -0.6428
 8885SOL    HW335273   0.628   2.861   0.653  2.9277  1.2646 -1.7555
 8885SOL    MW435274   0.618   2.791   0.602 -0.4575 -0.3930  0.0366
 8886SOL     OW35275   1.285   2.827   4.990 -0.4538 -0.4034 -0.3188
 8886SOL    HW235276   1.289   2.732   4.996 -1.4846 -0.4356  0.0196
 8886SOL    HW335277   1.276   2.857   5.081 -1.3146 -0.0555 -0.5131
 8886SOL    MW435278   1.284   2.819   5.003 -0.1675 -0.7481 -0.3481
 8887SOL     OW35279   3.251   3.046   3.419 -0.2991 -0.6763  0.2601
 8887SOL    HW235280   3.276   3.109   3.351 -2.1348  0.1675  0.3220
 8887SOL    HW335281   3.180   2.996   3.380 -1.0518 -0.5072  1.3889
 8887SOL    MW435282   3.245   3.047   3.405  0.3797  0.5532 -0.2794
 8888SOL     OW35283   3.252   4.080   0.643  0.7352 -0.0050 -0.0884
 8888SOL    HW235284   3.317   4.140   0.680  1.2240  0.0154 -0.9760
 8888SOL    HW335285   3.178   4.136   0.621  1.0378  0.2168 -0.5482
 8888SOL    MW435286   3.251   4.095   0.645  0.3100 -0.3482  0.1639
 8889SOL     OW35287   2.342   6.056   4.916  0.3966 -0.2991  1.1477
 8889SOL    HW235288   2.270   6.079   4.857 -0.4252  0.3123  2.3409
 8889SOL    HW335289   2.421   6.077   4.866 -0.2673 -0.0439  0.1677
 8889SOL    MW435290   2.342   6.062   4.902  0.7779  0.0582  0.1258
 8890SOL     OW35291   4.891   0.966   0.950  0.2434 -0.0674  0.1524
 8890SOL    HW235292   4.807   0.920   0.950 -0.4768  1.1155 -1.7043
 8890SOL    HW335293   4.956   0.899   0.929 -0.5468 -0.6124 -0.6338
 8890SOL    MW435294   4.889   0.951   0.947 -0.0936 -0.5031  0.4836
 8891SOL     OW35295   3.257   3.393   2.466 -0.1871 -0.3609 -0.2133
 8891SOL    HW235296   3.195   3.464   2.448 -0.6827 -0.8667 -0.5667
 8891SOL    HW335297   3.325   3.403   2.400  0.0799  0.1674  0.1415
 8891SOL    MW435298   3.258   3.404   2.455 -0.3368 -0.2704  0.0561
 8892SOL     OW35299   3.507   2.096   5.450 -0.3669  0.0778  0.0827
 8892SOL    HW235300   3.488   2.010   5.412 -0.2680  0.1001 -0.0196
 8892SOL    HW335301   3.422   2.130   5.478 -0.4921  0.2165 -0.4518
 8892SOL    MW435302   3.494   2.089   5.448 -0.1982  0.5228 -0.5951
 8893SOL     OW35303   4.705   1.130   2.356 -1.1516  0.1625  0.4932
 8893SOL    HW235304   4.631   1.089   2.400 -0.9863 -0.6564  0.0458
 8893SOL    HW335305   4.774   1.132   2.422 -1.6509  1.2023  1.0015
 8893SOL    MW435306   4.705   1.125   2.370  0.0416 -0.0116  0.1528
 8894SOL     OW35307   2.634   6.294   2.131 -0.0183 -0.5209  0.4960
 8894SOL    HW235308   2.594   6.259   2.210 -1.7865 -0.1912 -0.2032
 8894SOL    HW335309   2.592   6.379   2.119  2.6379  0.9712  0.9952
 8894SOL    MW435310   2.623   6.301   2.140 -0.7098 -0.2569  0.2264
 8895SOL     OW35311   4.808   2.701   3.445 -0.2369 -0.1547  0.6262
 8895SOL    HW235312   4.839   2.786   3.475 -2.8515  0.4718  1.8374
 8895SOL    HW335313   4.875   2.639   3.474  0.8875  1.2888  1.2084
 8895SOL    MW435314   4.820   2.704   3.453 -0.4034  0.2067  0.8397
 8896SOL     OW35315   2.388   4.004   3.421 -0.5984  0.6164 -0.4334
 8896SOL    HW235316   2.468   4.042   3.455 -1.6818  2.4782  0.1847
 8896SOL    HW335317   2.408   3.982   3.330  1.0573 -0.4618  0.1574
 8896SOL    MW435318   2.401   4.006   3.414 -0.5904  0.2828 -0.8869
 8897SOL     OW35319   0.846   3.814   0.571 -0.0433  0.4031  0.8067
 8897SOL    HW235320   0.923   3.856   0.608  0.4268 -0.2568  0.5893
 8897SOL    HW335321   0.880   3.746   0.513 -0.7553  1.4785 -0.9594
 8897SOL    MW435322   0.860   3.810   0.569 -0.5232  0.5047 -0.2851
 8898SOL     OW35323   2.284   1.175   3.176 -0.0087 -0.4563 -0.0370
 8898SOL    HW235324   2.299   1.187   3.082 -1.5428  1.7032 -0.0890
 8898SOL    HW335325   2.340   1.241   3.217  0.3984 -1.1608  0.5510
 8898SOL    MW435326   2.293   1.185   3.169  0.1970  0.1163  0.4361
 8899SOL     OW35327   5.362   4.477   1.542  1.0201 -1.0523 -0.3630
 8899SOL    HW235328   5.335   4.480   1.451 -0.9144 -0.9042  0.1725
 8899SOL    HW335329   5.286   4.509   1.591  2.1471 -0.7316  1.2788
 8899SOL    MW435330   5.348   4.482   1.537 -0.0638 -0.0266  0.2137
 8900SOL     OW35331   2.089   4.383   3.936 -0.7499  0.3696 -0.3496
 8900SOL    HW235332   1.996   4.390   3.914 -0.9930  0.6535  0.7139
 8900SOL    HW335333   2.104   4.452   4.000  0.1281  0.1275 -0.2793
 8900SOL    MW435334   2.078   4.393   3.942 -0.5193 -0.6947 -0.4083
 8901SOL     OW35335   4.960   1.479   4.432 -0.8223 -0.0389  0.2037
 8901SOL    HW235336   4.914   1.443   4.508  1.6979 -0.5136  1.6165
 8901SOL    HW335337   4.997   1.562   4.463  0.0044 -0.0851 -0.6094
 8901SOL    MW435338   4.959   1.485   4.446  0.4235  0.7859 -0.0510
 8902SOL     OW35339   4.354   3.428   5.162  0.2182  0.5415 -0.1341
 8902SOL    HW235340   4.292   3.500   5.154 -0.1281  0.1506 -0.9756
 8902SOL    HW335341   4.432   3.468   5.202 -0.1215  1.2862 -0.2082
 8902SOL    MW435342   4.356   3.443   5.166  0.7163  0.0483  0.0083
 8903SOL     OW35343   1.524   1.549   5.851 -0.1765  0.0402  0.1267
 8903SOL    HW235344   1.548   1.605   5.777 -0.0200 -0.6562 -0.3479
 8903SOL    HW335345   1.446   1.591   5.888  0.2072  0.8289  0.0591
 8903SOL    MW435346   1.517   1.562   5.846  0.3740 -0.3613 -0.5719
 8904NA      NA35347   1.075   4.533   2.440  0.1728 -0.0622 -0.1074
 8905NA      NA35348   1.249   1.202   5.652 -0.4650 -0.4491  0.0982
 8906NA      NA35349   6.083   6.243   0.649 -0.1757  0.0318 -0.6110
 8907NA      NA35350   3.728   5.911   6.352 -0.1034  0.1362  0.3293
 8908NA      NA35351   2.940   4.269   5.985 -0.2592 -0.1846  0.5780
 8909NA      NA35352   5.273   3.381   5.902  0.2959 -0.0262 -0.2099
 8910NA      NA35353   5.929   5.833   2.365 -0.2932 -0.1446 -0.3949
 8911NA      NA35354   1.773   3.180   4.598 -0.0218 -0.4054 -0.0329
   6.43155   6.43155   6.43155
